FOO
141312
    1MOL0     O    1   3.034   4.439   5.211 -0.7639  0.3988  0.3024
    1MOL0     C    2   3.050   4.392   5.326 -1.2812  1.5525  0.3905
    1MOL0     O    3   2.960   4.413   5.433  0.2587  0.0662 -1.2045
    1MOL0     C    4   2.849   4.492   5.405  0.0745  0.0263 -0.0953
    1MOL0     C    5   2.755   4.451   5.323 -0.8099  0.1989  0.9658
    1MOL0     C    6   2.640   4.518   5.300  0.9827 -0.4288  0.4357
    1MOL0     C    7   2.617   4.632   5.361  0.0007  0.2160 -0.4659
    1MOL0     O    8   2.495   4.690   5.335 -0.4301 -0.0089  0.2917
    1MOL0     C    9   2.495   4.827   5.331  1.0482  0.2161 -0.8920
    1MOL0     C   10   2.352   4.864   5.291  1.3564  0.2088 -0.4257
    1MOL0     C   11   2.333   5.016   5.292 -0.0331  0.2444  0.1142
    1MOL0     C   12   2.210   5.068   5.215  0.9689 -0.9167  0.2997
    1MOL0     C   13   2.241   5.184   5.111 -0.0786 -0.2877  0.0065
    1MOL0     C   14   2.314   5.133   4.986  0.2618 -0.0471  0.1717
    1MOL0     C   15   2.300   5.235   4.873 -0.0656  0.0669  0.1654
    1MOL0     C   16   2.162   5.268   4.815 -0.2241  0.5030 -1.3941
    1MOL0     N   17   2.180   5.353   4.705 -0.0822  0.0782 -0.6428
    1MOL0     C   18   2.068   5.394   4.640  0.5589 -0.4337  0.1320
    1MOL0     C   19   2.118   5.460   4.523 -0.3960 -0.4220  0.3133
    1MOL0     C   20   2.043   5.501   4.395  0.5541  0.3885  0.1326
    1MOL0     C   21   1.945   5.616   4.418  0.8035 -0.4398 -0.2485
    1MOL0     C   22   2.011   5.743   4.446 -0.1865 -0.0140 -0.0629
    1MOL0     C   23   1.922   5.862   4.493 -0.7019  0.8568  1.3288
    1MOL0     O   24   1.810   5.846   4.405 -0.3909 -0.9188 -0.3316
    1MOL0     C   25   1.713   5.943   4.401  0.6870 -0.4938  0.1224
    1MOL0     C   26   1.696   6.028   4.514 -0.1999  0.2188  0.2671
    1MOL0     C   27   1.603   6.125   4.506  1.5062  0.1305 -0.4085
    1MOL0     C   28   1.575   6.203   4.642 -0.0864  0.8229 -0.7037
    1MOL0     C   29   1.531   6.160   4.388 -0.8547  0.1147 -0.6166
    1MOL0     C   30   1.444   6.282   4.358 -0.1893  1.0207  0.1548
    1MOL0     O   31   1.403   6.299   4.225 -0.1274 -0.6289  0.1896
    1MOL0     C   32   1.348   6.410   4.181  0.1545  0.0998  0.8157
    1MOL0     C   33   1.247   6.392   4.080  0.1377  0.6403  0.4819
    1MOL0     C   34   1.181   6.502   4.027 -0.5689 -0.2761  0.0552
    1MOL0     C   35   1.217   6.639   4.061  0.1210  0.4367 -0.6711
    1MOL0     O   36   1.172   6.737   3.973 -0.4490  0.1964  0.0292
    1MOL0     C   37   1.173   6.867   4.031 -0.4247 -0.6206  0.8907
    1MOL0     C   38   1.081   6.957   3.957 -0.2403 -0.2920 -1.0336
    1MOL0     C   39   1.097   7.102   3.992  0.5162 -0.0435  0.5180
    1MOL0     C   40   0.972   7.174   3.934 -0.1240 -1.1471  0.3784
    1MOL0     C   41   0.976   7.321   3.952  0.0342 -0.2340 -0.2837
    1MOL0     C   42   0.849   7.386   3.913 -0.0827 -0.4083  0.0147
    1MOL0     C   43   0.867   7.513   3.830  0.4050 -0.4094 -0.2805
    1MOL0     C   44   0.725   7.574   3.793 -0.3829  0.4273  0.3546
    1MOL0    Cl   45   0.673   7.646   3.952 -0.8960  0.3532 -0.3465
    1MOL0     C   46   1.299   6.654   4.174 -0.4287 -0.4774  0.2405
    1MOL0     C   47   1.361   6.545   4.228 -0.7690 -1.3483 -0.1698
    1MOL0     O   48   1.408   6.352   4.450 -0.0427  0.5595  0.1141
    1MOL0     C   49   1.536   6.060   4.290 -0.8791  0.0889  0.7338
    1MOL0     C   50   1.622   5.953   4.296 -1.1072 -0.4046  0.3593
    1MOL0     N   51   2.255   5.465   4.535 -0.1078 -0.6095 -1.0050
    1MOL0     N   52   2.288   5.409   4.650 -0.0260 -0.3409  0.1355
    1MOL0     C   53   2.714   4.678   5.459  0.7956  0.0995 -0.7262
    1MOL0     C   54   2.832   4.610   5.473 -0.5534 -0.3854 -0.3624
    1MOL0     C   55   3.175   4.316   5.347 -0.0080 -0.4126  0.3617
    1MOL0     C   56   3.231   4.256   5.227 -1.0745  0.1711  0.2680
    1MOL0     C   57   3.351   4.194   5.239  0.2448 -0.8974  0.3683
    1MOL0     C   58   3.416   4.176   5.360 -0.5024  0.9563  0.6332
    1MOL0     O   59   3.540   4.114   5.349 -0.2860  0.0264 -0.1928
    1MOL0     C   60   3.645   4.149   5.458 -0.1511 -0.0999  0.7509
    1MOL0     C   61   3.655   4.056   5.578 -0.0801  0.2242  0.5848
    1MOL0     C   62   3.619   3.910   5.544 -0.4770 -0.0248 -0.1327
    1MOL0     C   63   3.723   3.828   5.473 -0.6549 -0.6783  0.2440
    1MOL0     C   64   3.828   3.790   5.574 -1.0194 -0.8978 -0.2667
    1MOL0     C   65   3.917   3.788   5.666  0.8292 -0.8342  0.4698
    1MOL0     C   66   3.358   4.219   5.482  0.7391  0.0902  0.9146
    1MOL0     C   67   3.234   4.291   5.476 -0.8584  0.2765  0.2781
    1MOL0     C   68   3.188   4.343   5.613  0.0466 -0.7095  0.3865
    1MOL0     H   69   2.759   4.356   5.271  0.6245  0.4394  0.5824
    1MOL0     H   70   2.573   4.474   5.226  3.3157 -1.1443 -1.3887
    1MOL0     H   71   2.581   4.873   5.281  1.1945  0.1517 -0.7069
    1MOL0     H   72   2.518   4.864   5.431  3.2022  3.5133 -2.4466
    1MOL0     H   73   2.341   4.826   5.189  1.9085 -2.4530  0.4409
    1MOL0     H   74   2.278   4.817   5.357  0.6387  2.0266  0.1619
    1MOL0     H   75   2.319   5.035   5.399 -1.2629  3.7146 -0.5383
    1MOL0     H   76   2.426   5.059   5.256  0.7230 -1.4909 -0.0752
    1MOL0     H   77   2.154   4.986   5.169 -0.0359 -0.5335  0.7905
    1MOL0     H   78   2.154   5.119   5.295  1.4424  0.8536 -0.4620
    1MOL0     H   79   2.291   5.269   5.157 -2.6492  0.2290  2.1520
    1MOL0     H   80   2.141   5.220   5.084  0.2065  0.1408 -0.4935
    1MOL0     H   81   2.418   5.120   5.020 -0.6644 -0.3507  3.1808
    1MOL0     H   82   2.283   5.034   4.952 -2.0047  0.1176  1.6030
    1MOL0     H   83   2.361   5.195   4.792 -0.8027 -2.1723  0.6413
    1MOL0     H   84   2.352   5.324   4.911  0.0769 -0.7595  2.0426
    1MOL0     H   85   2.120   5.170   4.792  1.1835 -0.5270  0.1414
    1MOL0     H   86   2.091   5.309   4.888 -0.8253 -1.2340 -0.9718
    1MOL0     H   87   1.964   5.366   4.655 -0.1685  1.6053 -0.6671
    1MOL0     H   88   1.996   5.406   4.368  0.2280  1.2939 -2.8264
    1MOL0     H   89   2.117   5.516   4.315 -1.9675  1.9906 -2.0563
    1MOL0     H   90   1.881   5.628   4.330  0.1603  1.1195  0.3854
    1MOL0     H   91   1.871   5.599   4.497 -0.5110  0.4355 -1.2534
    1MOL0     H   92   2.091   5.729   4.520  1.3504 -0.4656 -1.7438
    1MOL0     H   93   2.061   5.767   4.352  0.4846 -0.8553  0.0658
    1MOL0     H   94   1.892   5.847   4.597  1.8464 -2.2850  1.7768
    1MOL0     H   95   1.974   5.956   4.472  2.0879 -0.6780  0.7678
    1MOL0     H   96   1.755   6.016   4.604 -1.6785 -0.9472  1.1039
    1MOL0     H   97   1.471   6.232   4.661  0.0835  2.0511 -1.5646
    1MOL0     H   98   1.618   6.303   4.645  0.7721  0.4837 -1.2213
    1MOL0     H   99   1.611   6.141   4.725 -0.4696 -1.0303 -1.8672
    1MOL0     H  100   1.229   6.291   4.044 -2.0283  1.1289  0.0379
    1MOL0     H  101   1.109   6.479   3.949 -2.3919 -1.3587  1.9637
    1MOL0     H  102   1.144   6.866   4.136 -0.4988  0.7933  0.8976
    1MOL0     H  103   1.271   6.913   4.021 -1.9062  2.6437  0.1225
    1MOL0     H  104   1.071   6.944   3.849 -3.1613 -3.4028 -0.5502
    1MOL0     H  105   0.987   6.923   4.003  0.4731 -0.2575  0.5058
    1MOL0     H  106   1.194   7.131   3.949 -0.0805  1.7344  0.2968
    1MOL0     H  107   1.096   7.111   4.101  1.5059 -0.3449  0.5620
    1MOL0     H  108   0.897   7.121   3.994  1.9178 -2.0494  2.2752
    1MOL0     H  109   0.970   7.153   3.827  0.1959  0.5991  0.0046
    1MOL0     H  110   0.998   7.351   4.055  1.1075 -3.6565  0.6252
    1MOL0     H  111   1.055   7.360   3.888  3.3254 -0.4262  3.2675
    1MOL0     H  112   0.787   7.409   4.000 -2.6101 -1.4800 -1.3744
    1MOL0     H  113   0.794   7.312   3.853 -2.1354 -0.3087  1.6463
    1MOL0     H  114   0.906   7.480   3.734 -1.6123 -0.0562 -1.2765
    1MOL0     H  115   0.920   7.597   3.876 -4.1998  2.4438  0.4583
    1MOL0     H  116   0.657   7.499   3.752 -1.6054  2.6486 -2.0401
    1MOL0     H  117   0.734   7.658   3.723  0.3156 -0.0314 -0.1115
    1MOL0     H  118   1.311   6.749   4.225  1.0888 -0.9790  0.8577
    1MOL0     H  119   1.439   6.563   4.302 -2.6580  3.4957  1.0011
    1MOL0     H  120   1.462   6.071   4.211 -2.5128  3.4695  2.4700
    1MOL0     H  121   1.631   5.888   4.209 -0.7277 -0.3011  0.3187
    1MOL0     H  122   2.708   4.776   5.505  1.4090  1.7174 -3.8578
    1MOL0     H  123   2.914   4.650   5.530 -0.7091 -0.6155  0.0277
    1MOL0     H  124   3.187   4.259   5.128  0.6392 -0.4952 -0.5508
    1MOL0     H  125   3.395   4.156   5.148 -0.9326 -2.9688  0.6147
    1MOL0     H  126   3.745   4.166   5.416 -1.5731 -0.9513 -3.4012
    1MOL0     H  127   3.624   4.251   5.490  2.3907  0.4339  0.9601
    1MOL0     H  128   3.596   4.094   5.661 -1.3451 -2.7862  1.1778
    1MOL0     H  129   3.758   4.058   5.615  0.1596  0.7768 -0.0772
    1MOL0     H  130   3.588   3.867   5.640 -0.3527  0.8504  0.3078
    1MOL0     H  131   3.527   3.909   5.484 -1.9769 -2.9080  1.9479
    1MOL0     H  132   3.776   3.884   5.396  1.9795 -2.5674  0.5302
    1MOL0     H  133   3.678   3.733   5.441 -0.8029 -0.4750 -0.1623
    1MOL0     H  134   3.988   3.780   5.745  1.0070 -2.0139  0.2138
    1MOL0     H  135   3.403   4.189   5.576  2.2343  3.2625  1.3340
    1MOL0     H  136   3.236   4.283   5.691  3.8052  3.9977  2.1635
    1MOL0     H  137   3.236   4.440   5.631 -0.3264 -0.2240 -1.1262
    1MOL0     H  138   3.079   4.355   5.614  0.2198  1.1085 -0.0761
    2MOL0     O  139   0.429   2.275   3.477 -0.7642  0.1726  0.1524
    2MOL0     C  140   0.453   2.171   3.539  0.6811  0.4590 -0.2830
    2MOL0     O  141   0.569   2.143   3.615 -0.2673 -0.5452  0.6975
    2MOL0     C  142   0.671   2.228   3.590  0.8887  0.6477  0.3765
    2MOL0     C  143   0.726   2.251   3.463 -0.2097 -0.5495  0.1456
    2MOL0     C  144   0.828   2.348   3.443 -0.0131  0.7966  0.8202
    2MOL0     C  145   0.864   2.433   3.545  0.1259  0.6230  0.0682
    2MOL0     O  146   0.922   2.551   3.529 -0.0767  0.6966 -0.1274
    2MOL0     C  147   1.040   2.546   3.448 -0.2418 -0.0365 -0.3264
    2MOL0     C  148   1.131   2.665   3.477  0.9596 -0.7049  0.1088
    2MOL0     C  149   1.079   2.801   3.416 -0.7602  0.6083  0.7886
    2MOL0     C  150   1.188   2.910   3.398 -0.3400 -0.1031  0.1600
    2MOL0     C  151   1.252   2.953   3.534  0.2299 -0.4441  0.4755
    2MOL0     C  152   1.339   3.079   3.510 -0.4563  0.1606  0.2986
    2MOL0     C  153   1.424   3.101   3.638 -0.0313 -0.1249  0.7660
    2MOL0     C  154   1.551   3.180   3.612  0.4141 -0.9003  0.9469
    2MOL0     N  155   1.626   3.191   3.729  0.2008  0.5201  0.5214
    2MOL0     C  156   1.620   3.125   3.849 -0.2828 -0.2354  0.0389
    2MOL0     C  157   1.725   3.174   3.923 -1.0105 -0.1560  0.5655
    2MOL0     C  158   1.749   3.143   4.066  0.6588  0.0605 -0.6976
    2MOL0     C  159   1.694   3.243   4.165  0.5406  0.7119 -0.0546
    2MOL0     C  160   1.728   3.389   4.136 -0.1227  0.2646  1.0439
    2MOL0     C  161   1.626   3.462   4.039 -0.5114  0.1667  0.0287
    2MOL0     O  162   1.494   3.408   4.024  0.0281 -0.4385 -1.0527
    2MOL0     C  163   1.404   3.449   3.934 -0.3432  0.8133  0.3161
    2MOL0     C  164   1.415   3.535   3.823 -0.1094 -0.7683  0.6191
    2MOL0     C  165   1.321   3.557   3.723 -0.0113 -0.3472  0.6088
    2MOL0     C  166   1.336   3.650   3.609  0.1677  0.3858  0.3601
    2MOL0     C  167   1.212   3.476   3.730  0.1740 -0.2371  0.0922
    2MOL0     C  168   1.106   3.462   3.635 -0.3973 -0.3512  0.1125
    2MOL0     O  169   1.132   3.408   3.514  0.6017  0.6588  0.4804
    2MOL0     C  170   1.032   3.413   3.419  1.3948  0.0682 -1.0069
    2MOL0     C  171   0.965   3.292   3.378 -0.1290 -0.1127  0.0113
    2MOL0     C  172   0.869   3.301   3.273  0.3821  0.6775  0.7961
    2MOL0     C  173   0.840   3.418   3.211 -0.2461  0.3658  0.8606
    2MOL0     O  174   0.750   3.422   3.108  0.1856  0.3936 -0.4744
    2MOL0     C  175   0.628   3.498   3.128  0.1907 -0.0900  0.0526
    2MOL0     C  176   0.613   3.594   3.003  0.6604 -0.0484 -0.9642
    2MOL0     C  177   0.581   3.529   2.871 -0.5512 -0.0739 -0.6499
    2MOL0     C  178   0.678   3.426   2.828 -0.1385  0.7467 -0.5344
    2MOL0     C  179   0.665   3.397   2.677  0.1981 -0.1915 -0.0102
    2MOL0     C  180   0.743   3.255   2.650 -0.2076  0.1441 -0.3028
    2MOL0     C  181   0.736   3.239   2.491  0.2843  0.4306  0.1092
    2MOL0     C  182   0.800   3.104   2.456  0.5567 -0.4320  0.1353
    2MOL0    Cl  183   0.812   3.087   2.282 -0.2928  0.1550 -0.0204
    2MOL0     C  184   0.907   3.534   3.252  0.0450  0.1661  0.5377
    2MOL0     C  185   1.003   3.530   3.351 -0.1738 -0.5532  0.2330
    2MOL0     O  186   0.996   3.491   3.682  0.3564  0.0444  0.2403
    2MOL0     C  187   1.184   3.397   3.840 -0.4290 -0.2159 -0.8043
    2MOL0     C  188   1.286   3.383   3.945 -0.3159  0.0210  1.1195
    2MOL0     N  189   1.803   3.246   3.829 -0.8234  0.0340 -0.8698
    2MOL0     N  190   1.744   3.255   3.719  0.1846 -0.5161 -0.1985
    2MOL0     C  191   0.803   2.412   3.667 -0.6581 -0.0597  0.0885
    2MOL0     C  192   0.709   2.316   3.688 -0.2040 -0.2009  0.3146
    2MOL0     C  193   0.349   2.069   3.558  0.0870 -0.0466  0.5655
    2MOL0     C  194   0.361   1.993   3.677 -0.3681  0.1308 -0.3919
    2MOL0     C  195   0.269   1.894   3.713  0.4588 -0.9124 -0.8955
    2MOL0     C  196   0.150   1.881   3.636 -0.5876  0.2696  0.0170
    2MOL0     O  197   0.069   1.774   3.658  0.0090  0.2038  0.1799
    2MOL0     C  198  -0.066   1.795   3.656  0.8677  0.4937 -0.2898
    2MOL0     C  199  -0.151   1.680   3.710 -1.0520  0.6364 -0.3991
    2MOL0     C  200  -0.150   1.701   3.867 -0.1509 -0.0777  0.0484
    2MOL0     C  201  -0.216   1.589   3.942  0.3713  0.4033  0.7690
    2MOL0     C  202  -0.147   1.466   3.928 -0.2148  0.5100 -0.6549
    2MOL0     C  203  -0.099   1.355   3.909  0.4802 -0.0156 -0.6890
    2MOL0     C  204   0.149   1.952   3.525 -0.4216  1.1484  0.4633
    2MOL0     C  205   0.235   2.047   3.482  0.1621 -0.4225 -0.2864
    2MOL0     C  206   0.200   2.125   3.366 -0.2622 -1.0374  0.4287
    2MOL0     H  207   0.686   2.198   3.377  1.9188 -0.8001 -0.7613
    2MOL0     H  208   0.859   2.359   3.339 -1.5736 -2.7325 -0.1790
    2MOL0     H  209   1.011   2.557   3.343 -1.9635  1.8766  0.2629
    2MOL0     H  210   1.097   2.456   3.473 -1.6116 -0.2123  2.6885
    2MOL0     H  211   1.129   2.677   3.586 -1.6674 -0.0014  0.0507
    2MOL0     H  212   1.233   2.648   3.442  1.1651  0.1618  0.2700
    2MOL0     H  213   1.049   2.775   3.314  1.2673 -2.5322  0.8555
    2MOL0     H  214   0.985   2.828   3.463 -1.5474 -0.3579 -0.1642
    2MOL0     H  215   1.266   2.878   3.328  1.4285 -2.3265  2.8963
    2MOL0     H  216   1.126   2.995   3.369  0.3466  0.8677  1.4265
    2MOL0     H  217   1.323   2.876   3.566 -0.1239  0.1272  2.9091
    2MOL0     H  218   1.165   2.969   3.599 -2.2110  0.5706 -2.8103
    2MOL0     H  219   1.410   3.055   3.431  0.4792 -0.5801  1.3424
    2MOL0     H  220   1.277   3.167   3.494 -0.6994  0.1426  1.0892
    2MOL0     H  221   1.462   3.004   3.671 -1.0247 -0.8798 -0.2483
    2MOL0     H  222   1.367   3.146   3.719 -0.3331 -3.3896  2.5191
    2MOL0     H  223   1.622   3.130   3.545  2.0981  2.0599  0.3561
    2MOL0     H  224   1.525   3.276   3.566  1.3468 -1.5963 -1.1641
    2MOL0     H  225   1.547   3.058   3.894 -0.9779  1.6159  1.7714
    2MOL0     H  226   1.856   3.123   4.078  0.0083 -2.4784  2.2305
    2MOL0     H  227   1.694   3.050   4.080  0.1817 -0.4825 -4.9591
    2MOL0     H  228   1.587   3.225   4.182  0.7974 -0.0161  0.9174
    2MOL0     H  229   1.742   3.226   4.262 -0.4289  1.1844  0.5296
    2MOL0     H  230   1.729   3.443   4.231  3.2869 -1.7518  2.3380
    2MOL0     H  231   1.824   3.408   4.088 -1.4375  2.1341 -1.0320
    2MOL0     H  232   1.617   3.568   4.063  4.8366  1.2500 -1.4087
    2MOL0     H  233   1.669   3.456   3.939  1.6497  1.4519  0.8065
    2MOL0     H  234   1.513   3.582   3.813 -0.3674 -0.3569 -0.0578
    2MOL0     H  235   1.391   3.743   3.630  3.3183 -1.1111 -0.5342
    2MOL0     H  236   1.235   3.681   3.582  0.4881 -0.2494 -1.7352
    2MOL0     H  237   1.401   3.591   3.543  0.7401 -0.2799  1.4910
    2MOL0     H  238   0.984   3.197   3.426 -2.7643 -0.4774  0.4853
    2MOL0     H  239   0.819   3.213   3.235  0.8092  0.9711 -0.5079
    2MOL0     H  240   0.547   3.425   3.135 -0.6875  1.0609  3.3318
    2MOL0     H  241   0.631   3.561   3.217  0.8851 -0.9637  0.6701
    2MOL0     H  242   0.536   3.671   3.013  1.6431  0.9043 -0.5723
    2MOL0     H  243   0.709   3.645   2.992  0.2217  0.4900 -2.6995
    2MOL0     H  244   0.580   3.609   2.796  1.3059  1.8391  1.2102
    2MOL0     H  245   0.482   3.482   2.881  0.4435 -2.2319 -0.3765
    2MOL0     H  246   0.647   3.332   2.875 -3.7393 -0.8070 -5.1993
    2MOL0     H  247   0.782   3.440   2.858  0.1602 -1.2763 -0.5193
    2MOL0     H  248   0.562   3.378   2.646 -0.9391 -0.6924  3.5520
    2MOL0     H  249   0.700   3.482   2.619  3.0364 -1.2127  0.0356
    2MOL0     H  250   0.699   3.169   2.703  1.1845  0.2743  1.1157
    2MOL0     H  251   0.847   3.276   2.673  0.0405 -3.0168  2.1899
    2MOL0     H  252   0.789   3.318   2.436 -0.4460  0.0926 -1.1211
    2MOL0     H  253   0.633   3.237   2.455  0.7297 -3.2540 -1.4043
    2MOL0     H  254   0.736   3.028   2.501  0.6742 -1.8093 -1.8712
    2MOL0     H  255   0.895   3.093   2.510  1.4949  1.3222 -1.0553
    2MOL0     H  256   0.856   3.621   3.214 -1.5540  0.0344  2.2389
    2MOL0     H  257   1.056   3.624   3.365 -0.2542  0.1819 -3.3816
    2MOL0     H  258   1.093   3.337   3.841  0.7531 -2.1175  1.0789
    2MOL0     H  259   1.257   3.314   4.024 -2.4559  1.3600  1.5973
    2MOL0     H  260   0.808   2.478   3.753 -4.4426  0.8527 -0.2462
    2MOL0     H  261   0.661   2.315   3.785  3.5471 -0.6342  2.3673
    2MOL0     H  262   0.441   2.019   3.746 -0.7911 -0.0959  0.1926
    2MOL0     H  263   0.293   1.846   3.807 -0.8108  0.8935  0.4101
    2MOL0     H  264  -0.090   1.882   3.718 -1.5617 -1.2053  1.3410
    2MOL0     H  265  -0.103   1.797   3.553  1.9783 -0.7139 -0.7383
    2MOL0     H  266  -0.117   1.579   3.685 -1.0810  0.3892  0.5151
    2MOL0     H  267  -0.253   1.676   3.670 -1.6213 -0.4425  1.0463
    2MOL0     H  268  -0.047   1.714   3.901 -0.6297  1.3860  1.0033
    2MOL0     H  269  -0.196   1.797   3.890 -1.8155 -1.0573  1.0035
    2MOL0     H  270  -0.319   1.577   3.907  0.4430  3.0293 -0.5825
    2MOL0     H  271  -0.213   1.620   4.047 -1.6098  3.4684  0.0355
    2MOL0     H  272  -0.069   1.256   3.881 -1.7502 -0.1715 -2.9043
    2MOL0     H  273   0.070   1.933   3.454 -1.0570  1.5839  1.0357
    2MOL0     H  274   0.258   2.099   3.278 -1.0991 -0.0566 -0.4510
    2MOL0     H  275   0.094   2.108   3.346 -0.8085  0.3052  1.9065
    2MOL0     H  276   0.209   2.234   3.379 -1.9393 -0.9423  1.1782
    3MOL0     O  277   2.711   8.110   6.911 -1.0181 -0.5277  0.3095
    3MOL0     C  278   2.608   8.175   6.905  0.4772 -0.3234 -0.5786
    3MOL0     O  279   2.496   8.125   6.832  0.5121  0.1294  0.3874
    3MOL0     C  280   2.507   8.003   6.775 -0.0453 -0.0883  0.2513
    3MOL0     C  281   2.486   7.887   6.854 -0.5470 -0.2825 -0.9138
    3MOL0     C  282   2.513   7.760   6.805 -0.3852  0.1777  0.1265
    3MOL0     C  283   2.555   7.742   6.678 -0.0908  0.1554  0.3824
    3MOL0     O  284   2.591   7.619   6.616 -0.3233 -0.0819  0.5652
    3MOL0     C  285   2.691   7.537   6.685  0.6284 -0.6058  0.8859
    3MOL0     C  286   2.829   7.585   6.655 -0.6752 -0.3452 -0.4780
    3MOL0     C  287   2.871   7.710   6.738 -0.2699 -0.7506 -0.1920
    3MOL0     C  288   3.029   7.715   6.740  0.0981  0.0287 -0.3251
    3MOL0     C  289   3.078   7.860   6.787  0.2955 -0.7007 -0.1378
    3MOL0     C  290   3.025   7.893   6.932  0.8800 -0.9198  0.2462
    3MOL0     C  291   3.076   8.042   6.963  0.0905 -0.4936 -0.9905
    3MOL0     C  292   3.077   8.062   7.110 -0.2008 -0.3363  0.3289
    3MOL0     N  293   3.117   8.203   7.143 -0.4519  1.0790 -0.8264
    3MOL0     C  294   3.247   8.245   7.157 -0.4524  0.3825  1.4644
    3MOL0     C  295   3.227   8.376   7.156  0.0191  0.1453 -0.0229
    3MOL0     C  296   3.336   8.473   7.134 -0.2429  0.3022 -0.1287
    3MOL0     C  297   3.326   8.536   6.987  0.1761  0.9117  0.3065
    3MOL0     C  298   3.382   8.445   6.871  0.6373  0.1567 -0.4628
    3MOL0     C  299   3.400   8.527   6.743 -0.7577 -0.3359 -0.9506
    3MOL0     O  300   3.411   8.434   6.639 -0.2411 -0.4694 -0.3316
    3MOL0     C  301   3.439   8.481   6.515  0.1488 -0.3740 -0.3675
    3MOL0     C  302   3.407   8.617   6.482  1.0041 -0.8988  0.3586
    3MOL0     C  303   3.421   8.663   6.346  0.4920  0.7227 -0.3505
    3MOL0     C  304   3.354   8.789   6.304  0.0564 -0.2897 -1.0037
    3MOL0     C  305   3.491   8.581   6.255 -0.5966  0.5604 -0.5175
    3MOL0     C  306   3.547   8.626   6.117  0.0704 -0.5994 -0.8345
    3MOL0     O  307   3.587   8.531   6.026 -0.4212 -0.4734 -0.7027
    3MOL0     C  308   3.614   8.570   5.897 -0.2238 -0.1953 -0.0499
    3MOL0     C  309   3.732   8.520   5.838 -0.8817  0.0805  0.3425
    3MOL0     C  310   3.768   8.563   5.710  0.3810 -0.9319  0.5037
    3MOL0     C  311   3.682   8.648   5.639 -0.9107  0.0017 -0.1949
    3MOL0     O  312   3.706   8.717   5.524 -0.3596  0.0483 -0.4539
    3MOL0     C  313   3.796   8.645   5.436  0.0486 -0.1780 -0.4110
    3MOL0     C  314   3.810   8.718   5.301 -0.3886  0.4580  0.3711
    3MOL0     C  315   3.677   8.768   5.237  0.1339 -0.5729 -0.0887
    3MOL0     C  316   3.680   8.810   5.091 -0.4084  0.6915  0.0107
    3MOL0     C  317   3.552   8.837   5.033  0.3940  0.1330  0.5317
    3MOL0     C  318   3.517   8.985   5.075 -0.0915 -0.4383 -0.9689
    3MOL0     C  319   3.367   9.008   5.069  0.7729 -0.4658 -0.7884
    3MOL0     C  320   3.294   9.034   4.931 -0.0988  0.8565 -0.7555
    3MOL0    Cl  321   3.309   8.897   4.822  0.1248  0.0187 -0.0930
    3MOL0     C  322   3.561   8.684   5.695  0.4474  0.4907  0.0802
    3MOL0     C  323   3.525   8.648   5.823 -0.3988 -0.1854  0.3184
    3MOL0     O  324   3.551   8.750   6.104 -0.6188  0.2264 -0.7855
    3MOL0     C  325   3.523   8.448   6.293  0.1902 -0.0753 -0.0702
    3MOL0     C  326   3.489   8.400   6.416  0.4862 -0.4349 -0.3199
    3MOL0     N  327   3.089   8.412   7.148 -0.3213  0.6026  0.0760
    3MOL0     N  328   3.026   8.299   7.132  0.1978 -0.2915 -0.4208
    3MOL0     C  329   2.565   7.852   6.594 -0.1888  0.3261  1.1479
    3MOL0     C  330   2.542   7.983   6.640  0.4884  0.4052  0.0951
    3MOL0     C  331   2.601   8.304   6.973  0.0564 -1.0697  0.7909
    3MOL0     C  332   2.727   8.360   7.005 -0.1412 -1.1314 -0.5385
    3MOL0     C  333   2.732   8.491   7.052  0.0072  0.8917  0.1902
    3MOL0     C  334   2.626   8.559   7.104  0.1475 -0.7706 -0.0564
    3MOL0     O  335   2.638   8.668   7.186 -0.0849 -0.3243 -0.5421
    3MOL0     C  336   2.761   8.751   7.188 -0.1004  0.8867 -0.1640
    3MOL0     C  337   2.785   8.817   7.053  0.8063 -0.3540 -0.9715
    3MOL0     C  338   2.902   8.919   7.055  0.3261  0.8362 -1.1782
    3MOL0     C  339   3.044   8.863   7.104  0.5943 -0.8896  1.0822
    3MOL0     C  340   3.069   8.866   7.246  0.0959  0.0104  0.0981
    3MOL0     C  341   3.086   8.864   7.366  0.2256  1.2646 -0.5848
    3MOL0     C  342   2.503   8.506   7.077  0.4145  1.0099  0.5101
    3MOL0     C  343   2.490   8.386   6.995 -0.7192  1.0327 -0.7427
    3MOL0     C  344   2.352   8.341   6.976 -0.2773 -0.8128  0.1587
    3MOL0     H  345   2.454   7.897   6.957  0.8301  2.4089 -0.6599
    3MOL0     H  346   2.492   7.668   6.859 -2.6763 -0.6161 -1.9718
    3MOL0     H  347   2.679   7.434   6.650 -0.8047 -0.4447  0.8487
    3MOL0     H  348   2.671   7.548   6.792  2.3534  1.8481  1.0540
    3MOL0     H  349   2.884   7.491   6.668  2.2306  0.8776 -2.6577
    3MOL0     H  350   2.844   7.613   6.550  2.4376 -0.0560 -0.0491
    3MOL0     H  351   2.828   7.800   6.691  0.2321 -1.0080 -1.1747
    3MOL0     H  352   2.840   7.706   6.842 -0.4846 -3.4087 -0.2961
    3MOL0     H  353   3.067   7.634   6.802 -4.2832  0.0197  2.7594
    3MOL0     H  354   3.069   7.701   6.639  1.6693 -0.3448  0.3148
    3MOL0     H  355   3.056   7.940   6.715 -2.8403 -0.0597  1.3420
    3MOL0     H  356   3.187   7.858   6.799  0.6254  2.1976 -1.6549
    3MOL0     H  357   2.917   7.903   6.934  0.7663 -1.5032  3.4882
    3MOL0     H  358   3.069   7.822   7.003  2.9063 -0.4943 -0.5202
    3MOL0     H  359   3.010   8.121   6.926 -0.0087  0.6748  1.4579
    3MOL0     H  360   3.173   8.067   6.919 -0.4193 -1.5725 -2.8482
    3MOL0     H  361   2.975   8.049   7.148 -0.7257  1.4877 -0.3866
    3MOL0     H  362   3.139   7.988   7.163 -1.2898 -0.0515  2.0959
    3MOL0     H  363   3.335   8.181   7.157  0.7559  1.9800  1.4889
    3MOL0     H  364   3.433   8.435   7.168  0.7135  4.8738  3.2405
    3MOL0     H  365   3.321   8.546   7.214  0.8993  0.2843  0.1201
    3MOL0     H  366   3.224   8.567   6.963 -0.3207  0.6456  1.9361
    3MOL0     H  367   3.398   8.619   6.982  1.5112 -0.1059  1.6321
    3MOL0     H  368   3.483   8.408   6.891  0.3069 -0.4923  0.0413
    3MOL0     H  369   3.317   8.359   6.852  0.7470 -0.1473  0.4623
    3MOL0     H  370   3.302   8.572   6.724 -1.1381 -1.6450 -2.2876
    3MOL0     H  371   3.481   8.601   6.748 -0.9525 -0.1863  0.3912
    3MOL0     H  372   3.381   8.683   6.563  0.1415 -1.6352  0.6928
    3MOL0     H  373   3.426   8.871   6.311  0.7726 -0.9238 -0.8523
    3MOL0     H  374   3.287   8.808   6.388 -0.4613 -1.8901 -1.0164
    3MOL0     H  375   3.303   8.789   6.207 -1.9130  2.7413 -0.1069
    3MOL0     H  376   3.810   8.459   5.883  1.5691  0.1655 -3.2714
    3MOL0     H  377   3.855   8.530   5.653 -1.1664  0.6653 -3.1434
    3MOL0     H  378   3.902   8.639   5.465  0.5096  1.4458 -1.5721
    3MOL0     H  379   3.749   8.547   5.424 -0.1809 -0.0919 -0.2249
    3MOL0     H  380   3.882   8.799   5.313 -1.5772  1.5894  0.0513
    3MOL0     H  381   3.843   8.631   5.244 -0.8200  0.5587 -0.0366
    3MOL0     H  382   3.635   8.842   5.307  0.9116 -0.8286  0.6613
    3MOL0     H  383   3.612   8.680   5.242  1.8634 -2.0649 -2.2294
    3MOL0     H  384   3.720   8.723   5.039 -2.9152  0.0686 -1.0337
    3MOL0     H  385   3.748   8.895   5.082  0.2495 -0.0588 -4.1759
    3MOL0     H  386   3.563   8.820   4.926  0.0701 -1.9064  0.7892
    3MOL0     H  387   3.485   8.764   5.079  0.5374  0.0032  0.5351
    3MOL0     H  388   3.560   9.060   5.008 -1.2687  3.3376  2.1440
    3MOL0     H  389   3.554   8.997   5.178  2.2310 -0.4408 -1.7573
    3MOL0     H  390   3.335   9.091   5.133  2.5891  0.6281 -1.2410
    3MOL0     H  391   3.316   8.922   5.113  0.1297  0.6770  0.7828
    3MOL0     H  392   3.338   9.120   4.880 -0.7097  0.2098 -2.4531
    3MOL0     H  393   3.191   9.044   4.965  0.2880 -1.4862  1.4070
    3MOL0     H  394   3.491   8.755   5.653 -0.1518 -0.5331 -0.6846
    3MOL0     H  395   3.424   8.664   5.858 -0.3868 -0.3780  0.4462
    3MOL0     H  396   3.580   8.388   6.224  0.5517  0.1409  0.0356
    3MOL0     H  397   3.518   8.302   6.453  1.5851 -0.6537 -1.6988
    3MOL0     H  398   2.590   7.837   6.489 -0.3715 -0.0171  1.1526
    3MOL0     H  399   2.559   8.080   6.596  0.7048  1.9248  3.2751
    3MOL0     H  400   2.820   8.310   6.977 -1.0525 -1.9700 -2.2584
    3MOL0     H  401   2.832   8.517   7.086  0.5145 -1.0651  0.3670
    3MOL0     H  402   2.757   8.824   7.268 -0.9391 -0.5734  1.1806
    3MOL0     H  403   2.843   8.682   7.208 -1.3913 -0.8585 -0.5778
    3MOL0     H  404   2.693   8.865   7.020 -0.2063  0.9160  3.0802
    3MOL0     H  405   2.827   8.739   6.990  2.0789 -0.1457 -0.4110
    3MOL0     H  406   2.906   8.967   6.957  1.1728  0.3065 -1.4174
    3MOL0     H  407   2.887   9.008   7.117  1.9112  2.2465 -2.7217
    3MOL0     H  408   3.123   8.922   7.056 -1.3015 -1.1407 -2.7981
    3MOL0     H  409   3.050   8.760   7.068 -3.0887 -0.4294 -1.4556
    3MOL0     H  410   3.077   8.858   7.472 -0.1411  2.5291 -0.5333
    3MOL0     H  411   2.411   8.558   7.100 -0.1980 -0.1219  0.7393
    3MOL0     H  412   2.283   8.381   7.050  1.4255  0.4307  1.1531
    3MOL0     H  413   2.327   8.387   6.880  2.5871  1.3797  0.3464
    3MOL0     H  414   2.353   8.232   6.983 -0.3323 -0.7561  1.2056
    4MOL0     O  415   4.332   6.545   1.468 -0.8595  0.6561 -0.3609
    4MOL0     C  416   4.330   6.580   1.354  0.8221 -0.5900  0.3014
    4MOL0     O  417   4.267   6.689   1.307  0.4986  0.5365  0.4975
    4MOL0     C  418   4.174   6.752   1.384 -0.3799  0.0863 -0.1088
    4MOL0     C  419   4.058   6.781   1.316 -0.3354  0.5087 -0.1644
    4MOL0     C  420   3.956   6.854   1.384  0.8402 -0.3913 -0.7473
    4MOL0     C  421   3.957   6.877   1.523 -0.3085  0.3615  0.0474
    4MOL0     O  422   3.848   6.932   1.578 -0.0756 -0.0281  0.6700
    4MOL0     C  423   3.841   6.917   1.722 -0.4535 -0.0207 -0.4918
    4MOL0     C  424   3.733   7.004   1.780 -0.0601  0.8172  0.0866
    4MOL0     C  425   3.597   6.949   1.747  0.0035  0.1273  0.5609
    4MOL0     C  426   3.491   7.061   1.769 -0.3217  0.9792 -0.5450
    4MOL0     C  427   3.346   7.015   1.765  0.1008  0.5685 -0.1727
    4MOL0     C  428   3.275   6.998   1.907  0.3822  0.8221 -0.2911
    4MOL0     C  429   3.123   6.971   1.888 -0.6100  0.7177  0.6938
    4MOL0     C  430   3.066   6.969   2.034 -0.9736  0.4019  0.8384
    4MOL0     N  431   2.941   6.903   2.054  0.9203 -0.7195  0.8046
    4MOL0     C  432   2.917   6.779   2.101  0.0547 -0.5179  0.3414
    4MOL0     C  433   2.782   6.758   2.116 -0.9456 -0.0425 -0.8099
    4MOL0     C  434   2.714   6.614   2.151 -0.4327  0.0817  0.7000
    4MOL0     C  435   2.565   6.601   2.120 -0.9934 -0.0807 -0.4700
    4MOL0     C  436   2.519   6.458   2.127 -0.0101  0.8729  0.5349
    4MOL0     C  437   2.370   6.458   2.095  0.2524 -0.2411 -0.9517
    4MOL0     O  438   2.307   6.324   2.079 -0.0929 -0.2855 -0.2565
    4MOL0     C  439   2.175   6.315   2.038 -0.7207 -0.4004 -0.0658
    4MOL0     C  440   2.134   6.191   2.006 -0.1411 -0.0640  0.9255
    4MOL0     C  441   2.001   6.162   1.968  0.4153 -0.8159 -0.1669
    4MOL0     C  442   1.970   6.019   1.928 -0.3134 -0.6811  1.2259
    4MOL0     C  443   1.898   6.272   1.978 -0.2817 -0.3730 -0.4125
    4MOL0     C  444   1.757   6.258   1.950  0.4779 -0.6449 -0.1018
    4MOL0     O  445   1.665   6.333   2.025 -0.5071  0.1016  0.4336
    4MOL0     C  446   1.528   6.314   2.017  0.2949  0.4586  0.7248
    4MOL0     C  447   1.467   6.186   2.022 -0.1267  0.2802  0.4046
    4MOL0     C  448   1.326   6.166   1.991 -0.5021  0.8764 -0.2496
    4MOL0     C  449   1.244   6.278   1.991  0.9267  0.4065 -1.1093
    4MOL0     O  450   1.109   6.259   1.983 -0.2161  0.6160 -0.3326
    4MOL0     C  451   1.040   6.321   1.873 -0.4547 -0.3814 -0.2198
    4MOL0     C  452   0.926   6.231   1.821 -0.9198  0.6111 -0.1919
    4MOL0     C  453   0.803   6.247   1.901 -0.8672  0.7017 -0.4740
    4MOL0     C  454   0.733   6.374   1.861  0.2507  0.8148 -0.2089
    4MOL0     C  455   0.591   6.368   1.936 -0.1853 -0.5327  0.1482
    4MOL0     C  456   0.489   6.481   1.895 -0.6779  0.1474  0.3033
    4MOL0     C  457   0.364   6.466   1.973 -0.0778  0.3435  0.3560
    4MOL0     C  458   0.258   6.387   1.898  0.4583  0.3212 -0.2842
    4MOL0    Cl  459   0.093   6.420   1.951 -0.1267 -0.3223  0.1367
    4MOL0     C  460   1.302   6.412   1.996  0.2457  0.0154  0.4530
    4MOL0     C  461   1.446   6.424   2.002  0.2933 -0.6778 -0.2398
    4MOL0     O  462   1.728   6.174   1.875  0.0418  0.8936  0.3493
    4MOL0     C  463   1.946   6.394   2.026  0.1302  0.2277 -0.9176
    4MOL0     C  464   2.077   6.414   2.051  0.1576  1.0268 -0.4208
    4MOL0     N  465   2.718   6.875   2.087 -1.5091 -0.1212  0.6233
    4MOL0     N  466   2.812   6.957   2.043  0.3340 -1.1812 -0.3600
    4MOL0     C  467   4.076   6.831   1.590  0.9970 -0.1130  0.2851
    4MOL0     C  468   4.186   6.778   1.523 -0.6900  0.9712  0.3613
    4MOL0     C  469   4.392   6.483   1.257 -1.0580  0.1583 -0.1295
    4MOL0     C  470   4.356   6.495   1.122 -0.3431 -1.3905 -0.6675
    4MOL0     C  471   4.394   6.412   1.021  0.5655 -0.3557 -0.1920
    4MOL0     C  472   4.480   6.313   1.054 -0.2981 -0.1823 -0.5439
    4MOL0     O  473   4.534   6.217   0.969  0.5386 -0.2954 -0.3148
    4MOL0     C  474   4.461   6.166   0.854 -0.2722  0.6449 -0.7701
    4MOL0     C  475   4.546   6.135   0.727 -0.5743 -0.3144 -0.3599
    4MOL0     C  476   4.675   6.074   0.762 -1.3622  0.2193  0.7675
    4MOL0     C  477   4.690   5.947   0.846 -0.1877 -0.3352 -0.2422
    4MOL0     C  478   4.579   5.847   0.828  0.2500 -0.9952  0.4201
    4MOL0     C  479   4.474   5.783   0.822  0.4315 -0.5108 -0.6601
    4MOL0     C  480   4.540   6.300   1.183  1.0623  0.0851  0.4053
    4MOL0     C  481   4.498   6.386   1.285 -0.0754 -0.2902  0.3027
    4MOL0     C  482   4.571   6.379   1.418 -0.1173  0.3306  0.2339
    4MOL0     H  483   4.054   6.756   1.210 -2.8214 -0.3906  0.0924
    4MOL0     H  484   3.873   6.891   1.325  0.8710  1.5308  0.3177
    4MOL0     H  485   3.933   6.949   1.773 -1.3133  0.3649  0.8620
    4MOL0     H  486   3.823   6.814   1.752 -1.7814  0.0923 -0.8541
    4MOL0     H  487   3.731   7.004   1.890  0.0618 -0.8458  0.1211
    4MOL0     H  488   3.738   7.106   1.742  1.2343  0.2305 -1.4240
    4MOL0     H  489   3.593   6.914   1.643  2.6918  0.6419  0.2182
    4MOL0     H  490   3.579   6.873   1.823 -1.5200  0.8924  1.0060
    4MOL0     H  491   3.510   7.096   1.871  1.1203 -0.1677 -0.3800
    4MOL0     H  492   3.513   7.131   1.688 -4.4075 -1.0252 -3.7845
    4MOL0     H  493   3.343   6.915   1.721  2.3425 -0.4735  1.8164
    4MOL0     H  494   3.306   7.096   1.703 -0.3178 -1.6134 -2.9459
    4MOL0     H  495   3.325   6.913   1.954  1.4640  1.1863 -0.7544
    4MOL0     H  496   3.295   7.077   1.980  1.6165 -0.6101  0.9995
    4MOL0     H  497   3.089   6.873   1.855  0.9637  0.2837  0.2922
    4MOL0     H  498   3.070   7.052   1.838 -2.7227  0.1821  1.9691
    4MOL0     H  499   3.140   6.916   2.095  0.5413  0.0759 -1.1728
    4MOL0     H  500   3.045   7.071   2.066 -1.3348  0.4120  0.5730
    4MOL0     H  501   2.993   6.705   2.124  1.0635  0.7038  1.0581
    4MOL0     H  502   2.731   6.591   2.256  0.9854  1.3366  0.7797
    4MOL0     H  503   2.766   6.544   2.085 -2.8312 -0.3952 -0.8068
    4MOL0     H  504   2.515   6.656   2.201 -2.6546 -1.1987 -0.6761
    4MOL0     H  505   2.528   6.645   2.027  0.0448 -1.8169 -1.7406
    4MOL0     H  506   2.567   6.401   2.047 -0.8896 -0.8124  1.1725
    4MOL0     H  507   2.531   6.401   2.220 -3.6937  0.8373  1.1441
    4MOL0     H  508   2.318   6.507   2.178 -1.1792 -1.7736 -0.8935
    4MOL0     H  509   2.355   6.515   2.004  4.5933  1.2747 -0.9533
    4MOL0     H  510   2.211   6.115   1.998  2.7297  2.7091 -0.0066
    4MOL0     H  511   1.905   5.974   2.004 -0.3953 -2.6577  0.0586
    4MOL0     H  512   2.053   5.954   1.901 -2.4677 -2.1771 -2.4982
    4MOL0     H  513   1.916   6.026   1.833 -2.2020  1.1105  2.3449
    4MOL0     H  514   1.521   6.092   2.034 -0.3394  0.4297  3.3064
    4MOL0     H  515   1.289   6.065   1.988  0.5240  0.4263  1.0886
    4MOL0     H  516   1.002   6.421   1.899  1.8039  0.6369 -0.5868
    4MOL0     H  517   1.109   6.354   1.794  0.5280  0.7104  1.0493
    4MOL0     H  518   0.903   6.260   1.718  3.7986 -1.5354 -2.1240
    4MOL0     H  519   0.946   6.125   1.810 -2.0467  0.5532 -2.0620
    4MOL0     H  520   0.839   6.243   2.005  1.1366 -1.0139 -1.1763
    4MOL0     H  521   0.746   6.159   1.872 -0.9597  0.6738 -0.2139
    4MOL0     H  522   0.722   6.377   1.753 -1.4568  2.1995 -0.0615
    4MOL0     H  523   0.782   6.470   1.883  1.2293  0.5582 -1.1854
    4MOL0     H  524   0.544   6.272   1.912 -3.1915  0.9647 -0.4674
    4MOL0     H  525   0.615   6.379   2.042  2.7788  1.0036 -0.5844
    4MOL0     H  526   0.484   6.485   1.786 -2.0530 -2.1422  0.2404
    4MOL0     H  527   0.545   6.571   1.924  1.6200 -0.4291 -1.9603
    4MOL0     H  528   0.315   6.559   2.002 -2.0999 -0.8074  0.8531
    4MOL0     H  529   0.388   6.402   2.059  1.8508 -2.0262 -1.7643
    4MOL0     H  530   0.286   6.284   1.923  1.1036  0.5241 -0.1611
    4MOL0     H  531   0.261   6.395   1.789 -1.5790  0.9865 -0.3386
    4MOL0     H  532   1.246   6.505   1.996  1.7717  0.9679  1.5373
    4MOL0     H  533   1.462   6.530   2.011 -0.6609 -0.5084 -0.4474
    4MOL0     H  534   1.884   6.480   2.048  3.2874  1.9189  2.5811
    4MOL0     H  535   2.123   6.499   2.099  0.5090  0.3122  0.5420
    4MOL0     H  536   4.091   6.856   1.695  2.1642  0.7382 -0.0550
    4MOL0     H  537   4.281   6.756   1.571 -1.5036 -1.6912  0.8872
    4MOL0     H  538   4.291   6.576   1.093 -0.7297 -1.0287  1.0807
    4MOL0     H  539   4.369   6.416   0.915  1.3429 -0.8358 -0.3987
    4MOL0     H  540   4.416   6.077   0.899  0.5066  1.7793  2.5045
    4MOL0     H  541   4.377   6.228   0.823  0.0748 -0.2859 -3.8802
    4MOL0     H  542   4.569   6.221   0.663 -0.0675 -0.7235 -0.7314
    4MOL0     H  543   4.490   6.073   0.657  1.4524 -2.7140  0.0222
    4MOL0     H  544   4.729   6.057   0.668  0.3078  2.3227  1.2801
    4MOL0     H  545   4.740   6.148   0.809 -0.9558  0.2465  0.1691
    4MOL0     H  546   4.690   5.982   0.950  1.7728 -0.1803 -0.2480
    4MOL0     H  547   4.786   5.905   0.817  0.2457  0.0947  0.5156
    4MOL0     H  548   4.388   5.719   0.825  1.3047 -1.7190  0.8334
    4MOL0     H  549   4.618   6.231   1.213 -0.6739 -0.9235  2.9080
    4MOL0     H  550   4.551   6.469   1.477 -3.6365 -0.2781  0.1774
    4MOL0     H  551   4.539   6.290   1.473 -0.3008  1.2341  1.6224
    4MOL0     H  552   4.679   6.368   1.407 -0.1624  1.0258 -1.1857
    5MOL0     O  553   4.213   4.686  11.454 -0.6278  0.5608 -0.2956
    5MOL0     C  554   4.148   4.626  11.536  0.1492 -0.0245  0.3115
    5MOL0     O  555   4.019   4.591  11.511  0.1631 -0.2037 -0.1273
    5MOL0     C  556   3.958   4.653  11.410  0.3394 -0.0231  0.2924
    5MOL0     C  557   3.897   4.766  11.454  1.0600 -0.4999 -0.3637
    5MOL0     C  558   3.803   4.843  11.383  0.1395  0.3894  0.8851
    5MOL0     C  559   3.796   4.817  11.245 -0.3398 -0.3375 -0.3823
    5MOL0     O  560   3.722   4.910  11.171 -0.4634  0.5330 -0.6226
    5MOL0     C  561   3.770   4.935  11.039 -0.6463  0.7381  0.2528
    5MOL0     C  562   3.663   5.027  10.981 -0.3467 -0.5609 -0.2582
    5MOL0     C  563   3.549   4.937  10.924  0.0617  0.4036 -0.4261
    5MOL0     C  564   3.419   5.019  10.914 -0.6831  0.2738 -0.0472
    5MOL0     C  565   3.323   4.977  10.806  1.0924 -0.1202 -0.2477
    5MOL0     C  566   3.179   5.026  10.834 -0.2730  0.4491 -0.1155
    5MOL0     C  567   3.071   4.976  10.741 -0.4219 -0.4622 -0.1815
    5MOL0     C  568   2.925   5.017  10.786  0.1718 -0.4249 -1.4250
    5MOL0     N  569   2.877   5.131  10.709 -0.2299  0.2221  0.2548
    5MOL0     C  570   2.939   5.255  10.689  0.2628  0.9678  0.0837
    5MOL0     C  571   2.848   5.332  10.628  0.8707  0.7929 -0.4580
    5MOL0     C  572   2.874   5.475  10.578  0.3021 -0.1075  0.9803
    5MOL0     C  573   2.840   5.576  10.684 -0.1197  0.2532  0.1051
    5MOL0     C  574   2.694   5.598  10.723  0.5007  0.1693 -0.2253
    5MOL0     C  575   2.603   5.634  10.601  0.3977 -0.3273 -0.4798
    5MOL0     O  576   2.649   5.760  10.545 -0.8233  0.5175  0.3260
    5MOL0     C  577   2.561   5.863  10.554 -0.8559 -0.8298 -0.3304
    5MOL0     C  578   2.484   5.891  10.444 -0.5304  0.5061  0.2382
    5MOL0     C  579   2.399   5.997  10.442  0.2957 -0.8943  0.2656
    5MOL0     C  580   2.298   6.002  10.327 -0.3815 -0.0890  0.2202
    5MOL0     C  581   2.390   6.081  10.560  0.0558  0.2097  0.2267
    5MOL0     C  582   2.293   6.194  10.581  0.9354  0.1662 -0.3174
    5MOL0     O  583   2.325   6.286  10.681 -0.9139  0.3378 -0.0000
    5MOL0     C  584   2.269   6.408  10.656 -0.4839 -0.1398 -0.0221
    5MOL0     C  585   2.290   6.477  10.533 -1.1062  0.6428 -0.9101
    5MOL0     C  586   2.234   6.594  10.491  0.1002 -0.1135  0.2016
    5MOL0     C  587   2.155   6.670  10.592  1.1587  0.1345 -0.0347
    5MOL0     O  588   2.105   6.791  10.568 -0.2509 -0.1059 -0.1887
    5MOL0     C  589   2.102   6.857  10.434  1.1552  0.1291 -0.7667
    5MOL0     C  590   1.992   6.975  10.404  0.4342  0.6728  0.8293
    5MOL0     C  591   2.007   7.089  10.516  0.3323  0.0557  0.2288
    5MOL0     C  592   2.129   7.181  10.532  0.6815  0.6107  0.0679
    5MOL0     C  593   2.243   7.113  10.602  0.3362 -0.4480  0.0301
    5MOL0     C  594   2.209   7.122  10.762 -0.6155 -0.6154  1.9455
    5MOL0     C  595   2.323   7.048  10.836  0.4916 -0.5746 -0.3125
    5MOL0     C  596   2.302   7.057  10.984  0.2293  0.0391  0.4350
    5MOL0    Cl  597   2.434   6.985  11.079 -0.2410 -0.1165 -0.3629
    5MOL0     C  598   2.131   6.609  10.716  0.0065 -1.2136 -0.6955
    5MOL0     C  599   2.181   6.479  10.746  0.0055  1.1511 -0.7269
    5MOL0     O  600   2.184   6.192  10.518  0.2558 -0.3431  0.2319
    5MOL0     C  601   2.468   6.055  10.667 -0.3004  0.3878 -1.0830
    5MOL0     C  602   2.561   5.946  10.667  1.6301  0.0308 -0.3852
    5MOL0     N  603   2.723   5.266  10.623 -0.8433 -0.0266 -0.3789
    5MOL0     N  604   2.742   5.146  10.671  0.5980  0.6922 -0.3609
    5MOL0     C  605   3.858   4.702  11.192 -0.0185  0.2885 -0.1152
    5MOL0     C  606   3.936   4.614  11.276  0.4831 -1.0825  0.5045
    5MOL0     C  607   4.207   4.575  11.658 -0.5369 -0.6087 -0.2553
    5MOL0     C  608   4.133   4.595  11.773 -0.5154 -0.0311  0.3255
    5MOL0     C  609   4.190   4.571  11.893 -0.0200  0.3181  0.2026
    5MOL0     C  610   4.312   4.507  11.914  0.4914  0.5869  0.4386
    5MOL0     O  611   4.329   4.458  12.039 -0.9586  0.3134  0.1727
    5MOL0     C  612   4.433   4.359  12.052  0.8743 -0.2081  0.0893
    5MOL0     C  613   4.410   4.311  12.190  0.2366 -0.0624  0.5743
    5MOL0     C  614   4.522   4.221  12.234  0.2887 -0.0287 -0.8785
    5MOL0     C  615   4.518   4.081  12.172  0.4153  0.6188  0.2653
    5MOL0     C  616   4.584   3.977  12.255  0.4170 -0.8074  1.5817
    5MOL0     C  617   4.653   3.910  12.329  0.2416 -0.6694 -0.0525
    5MOL0     C  618   4.390   4.484  11.802 -0.6448 -1.1532  0.6642
    5MOL0     C  619   4.341   4.520  11.669 -0.7880  0.4186  0.3860
    5MOL0     C  620   4.432   4.496  11.555  0.0293 -0.0783 -0.5393
    5MOL0     H  621   3.908   4.791  11.559 -0.4534  3.4071 -0.9349
    5MOL0     H  622   3.739   4.916  11.431 -3.1623 -1.8855  0.2407
    5MOL0     H  623   3.784   4.844  10.981  0.2382  1.7931 -1.2704
    5MOL0     H  624   3.865   4.989  11.045 -1.3160  1.9171  5.5678
    5MOL0     H  625   3.625   5.084  11.066  1.3588  0.9608 -0.4621
    5MOL0     H  626   3.707   5.091  10.903 -0.9264  1.5918  1.1061
    5MOL0     H  627   3.577   4.905  10.824  0.1298 -0.4548 -0.1399
    5MOL0     H  628   3.541   4.853  10.993 -0.5538  0.8182  0.0228
    5MOL0     H  629   3.366   5.010  11.010 -1.5910  3.7471 -0.0870
    5MOL0     H  630   3.453   5.119  10.888  1.4355 -1.0654 -2.9454
    5MOL0     H  631   3.313   4.868  10.806 -0.5773 -0.0313  1.4508
    5MOL0     H  632   3.366   5.014  10.713  0.3330  0.2745 -0.4487
    5MOL0     H  633   3.149   4.996  10.935  0.1676  0.8264  0.1330
    5MOL0     H  634   3.177   5.136  10.828  2.9438  0.6881  1.2786
    5MOL0     H  635   3.065   4.869  10.719  0.8772 -0.4409 -0.6906
    5MOL0     H  636   3.093   5.017  10.642 -1.8603 -3.7781 -2.0228
    5MOL0     H  637   2.856   4.932  10.792  0.0597 -0.2436  0.2715
    5MOL0     H  638   2.933   5.060  10.886  1.0210 -1.7009 -0.9154
    5MOL0     H  639   3.043   5.268  10.718  1.1804 -1.2391 -1.8009
    5MOL0     H  640   2.827   5.486  10.480 -2.4958 -0.2218  2.2342
    5MOL0     H  641   2.981   5.490  10.556  0.1353  1.3838  1.0583
    5MOL0     H  642   2.890   5.542  10.775  1.6904  1.6733 -0.2887
    5MOL0     H  643   2.875   5.675  10.650 -1.2620 -0.5847 -4.0723
    5MOL0     H  644   2.656   5.516  10.786  0.2097 -0.3418 -1.0440
    5MOL0     H  645   2.675   5.674  10.799 -5.6688 -1.2947  0.2947
    5MOL0     H  646   2.602   5.559  10.521 -1.4590 -2.5366  1.4646
    5MOL0     H  647   2.500   5.650  10.633  0.3978 -0.0422 -0.6181
    5MOL0     H  648   2.478   5.818  10.363  0.1135  1.0508 -0.3033
    5MOL0     H  649   2.353   5.963  10.240  1.6072 -1.2981  1.9160
    5MOL0     H  650   2.273   6.105  10.300  1.2840 -0.0216 -1.2908
    5MOL0     H  651   2.208   5.945  10.349 -0.7220  0.1648 -0.4905
    5MOL0     H  652   2.356   6.430  10.461 -2.5486  1.6555 -3.0085
    5MOL0     H  653   2.265   6.652  10.405  5.3641  2.5096  3.4028
    5MOL0     H  654   2.202   6.886  10.403  0.5565  4.8602  0.9505
    5MOL0     H  655   2.066   6.787  10.358 -2.6318 -0.9253  1.6786
    5MOL0     H  656   2.017   7.016  10.306 -3.3960 -1.2732 -1.1682
    5MOL0     H  657   1.887   6.946  10.410  0.4339  0.8957  2.3788
    5MOL0     H  658   1.977   7.031  10.604 -1.5573 -1.0493 -1.0807
    5MOL0     H  659   1.923   7.154  10.491 -0.7497 -0.8429  1.3582
    5MOL0     H  660   2.098   7.274  10.581 -1.0898 -0.1108  0.3657
    5MOL0     H  661   2.157   7.194  10.427 -0.5041  0.5457 -0.2641
    5MOL0     H  662   2.264   7.013  10.562 -0.9628  0.1968 -2.4301
    5MOL0     H  663   2.334   7.168  10.576 -0.1501  0.9015  1.0408
    5MOL0     H  664   2.122   7.063  10.789 -0.5381 -2.1230 -0.7615
    5MOL0     H  665   2.194   7.225  10.797  0.5064  0.4178 -0.3848
    5MOL0     H  666   2.420   7.090  10.807  0.5013 -0.3372  0.0656
    5MOL0     H  667   2.326   6.940  10.817  0.4572 -0.8989  1.4178
    5MOL0     H  668   2.212   7.007  11.019  0.4361 -0.1427  0.7087
    5MOL0     H  669   2.296   7.164  11.006 -0.9743  0.9137 -3.3777
    5MOL0     H  670   2.071   6.674  10.778  1.1678  0.5940 -1.3853
    5MOL0     H  671   2.157   6.424  10.836  3.4023 -1.7714 -1.3880
    5MOL0     H  672   2.478   6.115  10.757 -0.1394 -3.8408  2.0290
    5MOL0     H  673   2.613   5.928  10.761 -2.3380  1.1416  2.2934
    5MOL0     H  674   3.836   4.662  11.093  1.9427 -0.3694 -0.3230
    5MOL0     H  675   3.983   4.524  11.238  2.2850  1.0507 -2.8439
    5MOL0     H  676   4.035   4.641  11.776 -0.2919  0.4356  0.8691
    5MOL0     H  677   4.145   4.588  11.990  3.3801  0.6373  1.8775
    5MOL0     H  678   4.428   4.285  11.972 -1.6144  0.4215 -0.4235
    5MOL0     H  679   4.534   4.401  12.043  0.2164  1.1194 -1.8163
    5MOL0     H  680   4.315   4.261  12.209 -0.9107  2.8785  3.6720
    5MOL0     H  681   4.413   4.393  12.262 -0.5587 -0.7784  1.4456
    5MOL0     H  682   4.620   4.259  12.202  1.0912  0.2562  1.7009
    5MOL0     H  683   4.525   4.214  12.343  1.4699 -1.3165 -0.9645
    5MOL0     H  684   4.553   4.087  12.069 -2.6518  2.6297 -0.8034
    5MOL0     H  685   4.413   4.053  12.159  0.6673 -1.3427  1.9052
    5MOL0     H  686   4.723   3.855  12.388  0.7389 -0.5110 -0.4804
    5MOL0     H  687   4.492   4.449  11.814  0.3282  1.1613 -0.1687
    5MOL0     H  688   4.409   4.397  11.514 -0.2614 -0.5735  0.7700
    5MOL0     H  689   4.429   4.580  11.485  2.0093 -0.0348 -0.6172
    5MOL0     H  690   4.536   4.496  11.587 -0.9210  0.4110  2.9488
    6MOL0     O  691   6.727  10.672   2.450  0.0712  0.9411 -0.3820
    6MOL0     C  692   6.795  10.736   2.369  0.2965  0.5590 -0.1293
    6MOL0     O  693   6.784  10.724   2.228 -0.0138  0.3310  0.2885
    6MOL0     C  694   6.690  10.653   2.161  0.2437 -0.3133  0.6583
    6MOL0     C  695   6.720  10.659   2.023 -0.2522 -0.7274 -1.3936
    6MOL0     C  696   6.642  10.605   1.925 -0.4098  0.8602  0.0737
    6MOL0     C  697   6.526  10.532   1.969  0.2103  0.0444  0.1108
    6MOL0     O  698   6.454  10.469   1.874  0.3978  0.1315 -0.0690
    6MOL0     C  699   6.518  10.401   1.757 -0.0155 -0.4509  0.2663
    6MOL0     C  700   6.567  10.273   1.805  0.6294  0.2888 -0.9414
    6MOL0     C  701   6.467  10.171   1.874  0.3734 -0.0305 -0.3930
    6MOL0     C  702   6.523  10.032   1.888 -0.1717  0.1781  0.3390
    6MOL0     C  703   6.423   9.935   1.955 -0.5094 -0.0088  0.1505
    6MOL0     C  704   6.497   9.806   1.982  0.6534  0.7198  0.7601
    6MOL0     C  705   6.494   9.692   1.876  0.1679 -0.0412 -0.6355
    6MOL0     C  706   6.468   9.553   1.923 -0.1630 -0.0124 -0.5672
    6MOL0     N  707   6.443   9.456   1.813  0.5249  0.4865  0.2366
    6MOL0     C  708   6.545   9.411   1.725 -0.0715 -0.1347 -0.2647
    6MOL0     C  709   6.485   9.311   1.654  0.6869  0.5187 -0.0321
    6MOL0     C  710   6.539   9.231   1.543  0.6287  0.1155  0.1214
    6MOL0     C  711   6.499   9.269   1.406  0.8077  0.3654 -0.6414
    6MOL0     C  712   6.570   9.193   1.295  0.1055  0.8757  0.2085
    6MOL0     C  713   6.564   9.035   1.311 -0.2085  0.6077  0.0526
    6MOL0     O  714   6.435   8.981   1.333  0.3285 -0.0437 -0.6212
    6MOL0     C  715   6.359   8.933   1.233  0.1472 -0.6337 -0.3862
    6MOL0     C  716   6.239   8.881   1.265 -0.0389 -0.4663 -0.6013
    6MOL0     C  717   6.144   8.829   1.173 -0.2172 -0.4584 -0.1188
    6MOL0     C  718   6.006   8.800   1.234  0.0875  0.0297 -0.9766
    6MOL0     C  719   6.180   8.823   1.034 -0.2462 -0.1610 -0.6274
    6MOL0     C  720   6.082   8.774   0.929  0.3162 -0.0539 -0.2452
    6MOL0     O  721   5.957   8.741   0.969 -1.3762  0.2353  0.3409
    6MOL0     C  722   5.870   8.696   0.873 -1.0077  0.8818 -0.5173
    6MOL0     C  723   5.853   8.556   0.859  0.3905 -0.8664  0.2103
    6MOL0     C  724   5.762   8.507   0.763 -1.3498  0.3318  0.1296
    6MOL0     C  725   5.682   8.598   0.681 -0.0894 -1.0793 -0.5661
    6MOL0     O  726   5.598   8.560   0.581 -0.4228 -0.4659 -0.3875
    6MOL0     C  727   5.618   8.426   0.531  0.8265 -0.4028 -0.7678
    6MOL0     C  728   5.561   8.411   0.390  0.8954  0.5845 -0.3843
    6MOL0     C  729   5.666   8.363   0.283 -0.5535 -0.5573  0.0049
    6MOL0     C  730   5.738   8.481   0.208  0.1631  0.7373 -0.2514
    6MOL0     C  731   5.818   8.434   0.094  1.2140 -0.7890 -0.2726
    6MOL0     C  732   5.853   8.558  -0.002  0.2590  0.5402 -0.7327
    6MOL0     C  733   5.984   8.533  -0.079  1.1680  0.2343  0.3466
    6MOL0     C  734   5.995   8.606  -0.215  0.1008 -0.7441  0.6294
    6MOL0    Cl  735   5.854   8.564  -0.334 -0.5238  0.2314  0.7842
    6MOL0     C  736   5.688   8.737   0.712 -0.4743 -0.4090 -0.5612
    6MOL0     C  737   5.793   8.784   0.794  0.4270  0.7587 -1.2654
    6MOL0     O  738   6.124   8.775   0.816  0.1801  1.0720  0.2864
    6MOL0     C  739   6.304   8.877   0.998  0.7266 -0.8269  0.1867
    6MOL0     C  740   6.394   8.930   1.091 -0.3302  0.0995  0.0804
    6MOL0     N  741   6.357   9.295   1.706  0.4283  0.6028 -1.1284
    6MOL0     N  742   6.340   9.371   1.806 -0.6276 -0.0940  0.7573
    6MOL0     C  743   6.496  10.517   2.111 -0.1600 -0.4944 -0.1353
    6MOL0     C  744   6.578  10.585   2.204  1.3606  0.0113 -0.3329
    6MOL0     C  745   6.890  10.845   2.417  0.2157  1.0196  0.5903
    6MOL0     C  746   7.029  10.829   2.389 -0.0718 -0.3589  0.7720
    6MOL0     C  747   7.113  10.935   2.408  0.1795 -0.2656 -0.7652
    6MOL0     C  748   7.064  11.047   2.490 -0.3877 -0.4254  0.3023
    6MOL0     O  749   7.145  11.139   2.548  0.5430 -0.3272 -0.4427
    6MOL0     C  750   7.157  11.262   2.478 -0.2122 -0.0575 -0.2703
    6MOL0     C  751   7.311  11.298   2.474  0.1293  0.7105  0.1120
    6MOL0     C  752   7.382  11.288   2.604  0.4594 -0.4643  0.1043
    6MOL0     C  753   7.507  11.363   2.603  0.3033  0.0394 -0.6336
    6MOL0     C  754   7.571  11.338   2.730 -1.0288 -0.3017  0.0954
    6MOL0     C  755   7.618  11.339   2.841  0.8808  0.3380  0.3691
    6MOL0     C  756   6.927  11.069   2.501  0.0943  0.2263  0.7277
    6MOL0     C  757   6.836  10.967   2.464 -0.5704  0.3083 -0.4934
    6MOL0     C  758   6.696  10.990   2.492  0.5393  0.4183  0.0460
    6MOL0     H  759   6.807  10.713   1.986 -1.0671 -0.1033 -2.4578
    6MOL0     H  760   6.669  10.625   1.822  2.9652  1.1462  0.9117
    6MOL0     H  761   6.607  10.446   1.713  0.0029  1.3178  1.9688
    6MOL0     H  762   6.447  10.395   1.675  0.8879  3.7075 -1.0212
    6MOL0     H  763   6.594  10.219   1.715 -4.8966 -3.0064 -1.0952
    6MOL0     H  764   6.643  10.282   1.883  2.0196 -4.1604 -1.5355
    6MOL0     H  765   6.442  10.215   1.971 -1.5519 -0.9746 -0.4163
    6MOL0     H  766   6.377  10.172   1.812  1.6735  0.4980 -2.3748
    6MOL0     H  767   6.539  10.004   1.784 -0.1133  0.9347  0.1401
    6MOL0     H  768   6.619  10.045   1.940 -0.8345  0.1579  1.5975
    6MOL0     H  769   6.333   9.918   1.894  0.4068  0.2826 -1.3354
    6MOL0     H  770   6.392   9.975   2.052  2.0380 -2.2904  2.0425
    6MOL0     H  771   6.601   9.832   2.003  1.1834 -0.6678  0.0079
    6MOL0     H  772   6.457   9.752   2.068  1.9755  1.6437  1.9953
    6MOL0     H  773   6.590   9.689   1.824 -0.5088  2.1791 -2.1271
    6MOL0     H  774   6.421   9.718   1.798  0.8016 -1.0121 -1.5907
    6MOL0     H  775   6.553   9.523   1.985 -0.8694 -2.7136 -0.7539
    6MOL0     H  776   6.389   9.568   1.998 -0.2288  1.2104 -0.8625
    6MOL0     H  777   6.648   9.445   1.722 -0.9555  2.8343 -0.6838
    6MOL0     H  778   6.514   9.126   1.562  1.0729 -1.0947 -4.6564
    6MOL0     H  779   6.648   9.232   1.547  0.6125 -0.3875  1.2733
    6MOL0     H  780   6.392   9.254   1.395  0.7725 -0.5609  0.8183
    6MOL0     H  781   6.520   9.377   1.404  0.7771  0.3693 -0.7534
    6MOL0     H  782   6.530   9.217   1.196 -0.5658  1.2439  0.5579
    6MOL0     H  783   6.676   9.215   1.306  0.7056 -2.0934  1.2912
    6MOL0     H  784   6.608   8.996   1.219  1.0940  2.3101 -0.1050
    6MOL0     H  785   6.625   8.997   1.393  0.9474  0.6597 -0.7454
    6MOL0     H  786   6.212   8.884   1.370  0.9932 -0.8525 -0.3056
    6MOL0     H  787   5.924   8.845   1.178  0.0978  3.0237  1.1835
    6MOL0     H  788   5.996   8.842   1.335  1.4226  0.6388 -1.0754
    6MOL0     H  789   5.994   8.691   1.241  1.7798 -0.0683  2.5668
    6MOL0     H  790   5.919   8.480   0.900 -0.4426 -2.7001 -1.6436
    6MOL0     H  791   5.761   8.401   0.738 -0.6636 -0.1515  1.9623
    6MOL0     H  792   5.725   8.403   0.539  0.1982 -2.9468  2.4845
    6MOL0     H  793   5.573   8.359   0.605 -0.4559  2.8638  1.6576
    6MOL0     H  794   5.494   8.326   0.400  0.2905  1.2500  1.5724
    6MOL0     H  795   5.506   8.498   0.354 -0.4189 -0.5208 -1.1348
    6MOL0     H  796   5.612   8.309   0.204  2.8005  0.0193 -2.9361
    6MOL0     H  797   5.742   8.298   0.327 -0.2937  1.0353  2.0523
    6MOL0     H  798   5.804   8.529   0.280  1.9989  0.0772 -1.4202
    6MOL0     H  799   5.655   8.537   0.164 -2.7405 -4.2346 -1.9435
    6MOL0     H  800   5.910   8.390   0.132  1.9720  2.2734  1.7769
    6MOL0     H  801   5.759   8.355   0.047 -2.4918  0.3756  2.0366
    6MOL0     H  802   5.870   8.654   0.049  2.8041  0.0512 -0.5584
    6MOL0     H  803   5.774   8.582  -0.074 -1.3474  1.1942  1.1216
    6MOL0     H  804   6.007   8.426  -0.084  3.6857  0.7613 -1.1112
    6MOL0     H  805   6.073   8.574  -0.031  1.2558  0.5130 -0.0514
    6MOL0     H  806   6.092   8.588  -0.262 -0.5413 -0.8608 -0.6891
    6MOL0     H  807   5.995   8.713  -0.192 -1.8549 -0.0303 -2.2010
    6MOL0     H  808   5.628   8.812   0.661 -0.1970  0.6016  0.5667
    6MOL0     H  809   5.814   8.889   0.812  1.7742  0.3137 -0.1028
    6MOL0     H  810   6.332   8.876   0.894 -0.8476 -2.1958 -0.2602
    6MOL0     H  811   6.487   8.973   1.054 -0.9257 -0.3960 -2.1185
    6MOL0     H  812   6.415  10.453   2.145  0.3557 -0.8200  0.4992
    6MOL0     H  813   6.554  10.575   2.310  1.3305  0.6342 -0.2776
    6MOL0     H  814   7.056  10.745   2.325 -0.3856  0.9657 -1.2104
    6MOL0     H  815   7.218  10.924   2.386  0.2243  0.2836 -0.8284
    6MOL0     H  816   7.127  11.251   2.374 -0.3398 -3.6701  0.0145
    6MOL0     H  817   7.087  11.341   2.509 -2.3392  0.1601 -4.8813
    6MOL0     H  818   7.315  11.401   2.438  1.3079  0.9892  0.9767
    6MOL0     H  819   7.371  11.235   2.408  1.4190  1.4594  0.5314
    6MOL0     H  820   7.317  11.334   2.679  0.8384 -2.6747  1.9020
    6MOL0     H  821   7.394  11.182   2.630  0.3942 -0.5882 -0.3549
    6MOL0     H  822   7.491  11.470   2.590 -3.1242 -0.4601 -1.4612
    6MOL0     H  823   7.577  11.322   2.530 -1.3888 -1.9320 -1.2414
    6MOL0     H  824   7.641  11.351   2.945 -3.0190  1.1461  1.2965
    6MOL0     H  825   6.895  11.153   2.563  0.6353  0.8487  0.1835
    6MOL0     H  826   6.643  11.073   2.446  0.8441  1.8295  2.1071
    6MOL0     H  827   6.628  10.908   2.467 -1.4279  2.1157 -0.4432
    6MOL0     H  828   6.675  11.004   2.599  1.4791 -2.3007  0.6805
    7MOL0     O  829   2.796   5.090   6.274  0.2197  0.2100  0.1175
    7MOL0     C  830   2.674   5.094   6.282  0.1786  0.1583 -0.2250
    7MOL0     O  831   2.588   5.192   6.225  0.6345  0.0430  1.0274
    7MOL0     C  832   2.622   5.279   6.122  0.1806 -0.1287 -0.6212
    7MOL0     C  833   2.694   5.251   6.006 -0.2906 -0.1517  0.3580
    7MOL0     C  834   2.718   5.359   5.914 -0.3591  0.7418 -0.4146
    7MOL0     C  835   2.662   5.491   5.941 -0.0530  0.0713 -0.8355
    7MOL0     O  836   2.660   5.593   5.847  0.5808 -0.2514  0.4590
    7MOL0     C  837   2.769   5.612   5.758  0.2870  0.1129 -0.2725
    7MOL0     C  838   2.809   5.763   5.765  1.0736 -0.4564  0.3901
    7MOL0     C  839   2.932   5.774   5.677 -0.2883  0.2929  0.8607
    7MOL0     C  840   2.961   5.918   5.641  0.4507 -0.9857 -1.0347
    7MOL0     C  841   3.106   5.933   5.596  0.2899  1.2241 -0.2573
    7MOL0     C  842   3.115   6.053   5.498 -0.5134 -0.1453 -0.2382
    7MOL0     C  843   3.255   6.113   5.503  0.0399  0.2311 -0.1368
    7MOL0     C  844   3.372   6.021   5.456 -0.3298  0.3129 -0.0167
    7MOL0     N  845   3.492   6.093   5.437 -0.1532 -0.6350  0.1658
    7MOL0     C  846   3.547   6.147   5.552  0.1677 -0.8631  0.4608
    7MOL0     C  847   3.593   6.268   5.515 -0.6029  0.3751  0.5518
    7MOL0     C  848   3.664   6.370   5.601  0.0825  0.9057 -0.1327
    7MOL0     C  849   3.632   6.383   5.753  0.5735  0.2345  0.4100
    7MOL0     C  850   3.489   6.431   5.797 -0.5920 -0.4123  0.0838
    7MOL0     C  851   3.415   6.532   5.714  0.3267 -0.4310  0.1569
    7MOL0     O  852   3.352   6.475   5.599 -0.6724 -0.3780  0.1474
    7MOL0     C  853   3.301   6.565   5.512 -0.4955 -0.4544  0.0108
    7MOL0     C  854   3.274   6.516   5.386 -0.4250 -0.2286 -0.3144
    7MOL0     C  855   3.220   6.592   5.281 -0.9595  0.0409 -0.3052
    7MOL0     C  856   3.194   6.528   5.152  0.5052  1.2143  0.8996
    7MOL0     C  857   3.211   6.734   5.299  0.1390  0.3637  0.0308
    7MOL0     C  858   3.175   6.833   5.194  0.2025 -0.3491  0.5358
    7MOL0     O  859   3.235   6.967   5.211 -0.6398 -0.4200  0.0531
    7MOL0     C  860   3.215   7.071   5.127  0.3632  0.1074  0.3807
    7MOL0     C  861   3.084   7.105   5.079 -0.0610  1.0318  0.4507
    7MOL0     C  862   3.059   7.208   4.991  0.1664 -0.4212 -0.0635
    7MOL0     C  863   3.167   7.290   4.951  0.4390 -0.0261 -0.4387
    7MOL0     O  864   3.137   7.387   4.858  0.1842 -0.2761 -0.2301
    7MOL0     C  865   3.245   7.456   4.793 -1.5413  0.6296  0.4038
    7MOL0     C  866   3.184   7.549   4.696 -0.3676  0.0896 -0.6723
    7MOL0     C  867   3.119   7.664   4.785  0.3543  0.5057  0.3681
    7MOL0     C  868   3.030   7.748   4.683 -1.0842 -0.4447  0.0105
    7MOL0     C  869   2.951   7.853   4.761  0.1117 -0.6371 -0.5938
    7MOL0     C  870   2.846   7.936   4.683 -0.2762 -0.3591 -0.5350
    7MOL0     C  871   2.763   8.023   4.778 -0.0625  0.0343 -0.5364
    7MOL0     C  872   2.720   8.145   4.692 -0.2291 -0.6175 -0.0172
    7MOL0    Cl  873   2.847   8.261   4.646 -0.1322  0.0156 -0.5149
    7MOL0     C  874   3.296   7.266   5.002  0.2210 -0.3603 -0.1974
    7MOL0     C  875   3.325   7.152   5.080  0.0090 -1.1284 -0.4917
    7MOL0     O  876   3.096   6.806   5.105 -0.7418 -0.7557 -0.4486
    7MOL0     C  877   3.235   6.780   5.426  0.3974 -0.3111  0.3956
    7MOL0     C  878   3.272   6.707   5.531 -0.6751  0.0924 -0.6275
    7MOL0     N  879   3.573   6.277   5.374 -0.0666  0.4259 -0.2231
    7MOL0     N  880   3.506   6.173   5.338  0.7660  0.4999 -0.0801
    7MOL0     C  881   2.599   5.518   6.067  0.2157 -1.0844 -1.0279
    7MOL0     C  882   2.582   5.408   6.152 -0.5261 -0.4909 -0.3588
    7MOL0     C  883   2.596   4.992   6.358 -0.4967  0.5509 -0.0101
    7MOL0     C  884   2.456   5.017   6.388  0.8190  0.5268 -0.9997
    7MOL0     C  885   2.389   4.916   6.457  0.5017 -0.9559  1.1037
    7MOL0     C  886   2.459   4.805   6.505  1.2656 -0.3534 -0.0020
    7MOL0     O  887   2.391   4.719   6.587 -0.2140  0.2492 -0.7177
    7MOL0     C  888   2.406   4.752   6.726 -0.7180 -0.1633  0.3722
    7MOL0     C  889   2.320   4.660   6.809  0.7672  0.1998 -0.7384
    7MOL0     C  890   2.312   4.708   6.956 -0.5428  0.3327 -0.3632
    7MOL0     C  891   2.452   4.708   7.021  0.5160  0.1950  0.0418
    7MOL0     C  892   2.455   4.735   7.161  1.1828  0.0803 -0.4641
    7MOL0     C  893   2.478   4.754   7.282  0.5342  0.5523 -1.4344
    7MOL0     C  894   2.579   4.767   6.449  0.3113 -0.4136  0.3210
    7MOL0     C  895   2.648   4.860   6.368  0.7650 -0.7905  0.3213
    7MOL0     C  896   2.772   4.813   6.305 -0.0199 -0.1978 -0.4948
    7MOL0     H  897   2.737   5.155   5.982 -0.2280  0.2447 -1.2316
    7MOL0     H  898   2.784   5.340   5.829  2.5486 -0.1343  1.8674
    7MOL0     H  899   2.736   5.593   5.655 -0.4395  0.3006 -0.0782
    7MOL0     H  900   2.843   5.541   5.797 -1.2012  0.0518  2.7202
    7MOL0     H  901   2.730   5.826   5.723  1.3444 -2.3509 -3.3977
    7MOL0     H  902   2.841   5.796   5.864 -1.0859 -0.8255  1.2646
    7MOL0     H  903   3.011   5.733   5.740  1.0902 -1.5885 -1.8833
    7MOL0     H  904   2.923   5.726   5.579 -0.6174 -0.0955  1.0766
    7MOL0     H  905   2.901   5.953   5.556  2.2542 -0.3598 -2.0936
    7MOL0     H  906   2.925   5.980   5.723 -1.9252 -1.9772 -1.2330
    7MOL0     H  907   3.140   5.850   5.534 -0.1781  2.1183 -1.7579
    7MOL0     H  908   3.175   5.942   5.680 -0.3523  1.7973  0.2226
    7MOL0     H  909   3.106   6.025   5.393  4.6398 -0.0780 -0.9394
    7MOL0     H  910   3.044   6.134   5.517  0.4038  0.6226  0.0143
    7MOL0     H  911   3.273   6.139   5.608 -1.3902 -0.1832  0.2309
    7MOL0     H  912   3.261   6.200   5.438 -3.0051  1.0248  0.5135
    7MOL0     H  913   3.380   5.934   5.521 -0.4052 -1.0490 -1.7486
    7MOL0     H  914   3.335   5.981   5.362  2.9981 -2.1652 -0.4537
    7MOL0     H  915   3.553   6.091   5.645 -0.7214  2.6471  2.8146
    7MOL0     H  916   3.640   6.468   5.558 -0.4431 -0.1878 -2.4462
    7MOL0     H  917   3.770   6.343   5.599 -0.4304 -1.5615  1.1772
    7MOL0     H  918   3.644   6.289   5.808  0.1193 -0.1033 -0.0557
    7MOL0     H  919   3.710   6.448   5.793  1.1325 -0.2343  0.1028
    7MOL0     H  920   3.425   6.346   5.819 -2.1773  1.0500  1.4248
    7MOL0     H  921   3.508   6.482   5.892  0.9064  0.6840 -0.7626
    7MOL0     H  922   3.340   6.580   5.777 -0.6198 -1.2328 -0.3335
    7MOL0     H  923   3.485   6.609   5.680 -0.4511 -0.3675 -1.3582
    7MOL0     H  924   3.292   6.411   5.366  0.5846 -0.2974  0.8265
    7MOL0     H  925   3.089   6.505   5.131  0.4505  1.1966  1.1992
    7MOL0     H  926   3.249   6.434   5.138 -1.5194 -0.2442  2.2100
    7MOL0     H  927   3.224   6.588   5.065  0.3733 -2.4932 -2.0025
    7MOL0     H  928   2.999   7.041   5.099  0.3167  0.8175  1.4267
    7MOL0     H  929   2.965   7.224   4.941 -0.2744 -0.8868  0.6062
    7MOL0     H  930   3.308   7.521   4.855 -0.3356 -0.4254  0.3321
    7MOL0     H  931   3.314   7.389   4.741 -0.7443  1.4521  0.3750
    7MOL0     H  932   3.267   7.588   4.636  0.7859  1.8988  1.8899
    7MOL0     H  933   3.111   7.506   4.628  0.4572  1.1484 -2.2884
    7MOL0     H  934   3.188   7.721   4.847  0.3721 -1.4058  2.2231
    7MOL0     H  935   3.049   7.614   4.853 -1.2952  3.1320  0.7552
    7MOL0     H  936   2.961   7.680   4.633 -1.9019  0.3717 -0.0018
    7MOL0     H  937   3.088   7.801   4.606 -0.1553 -1.6898 -0.1698
    7MOL0     H  938   2.898   7.798   4.839  3.6210 -3.5138  0.0347
    7MOL0     H  939   3.016   7.920   4.817 -2.8156  0.1586  2.1365
    7MOL0     H  940   2.777   7.866   4.634 -2.3334  2.1827 -1.4789
    7MOL0     H  941   2.904   7.987   4.606  0.0732  0.4974  0.2797
    7MOL0     H  942   2.817   8.068   4.861  1.7525 -2.7628 -0.0510
    7MOL0     H  943   2.678   7.966   4.816 -0.8691 -1.1467 -3.7755
    7MOL0     H  944   2.664   8.215   4.755  1.7680  2.2531 -1.2094
    7MOL0     H  945   2.672   8.129   4.594  1.0293 -0.3359 -0.7012
    7MOL0     H  946   3.374   7.335   4.973 -0.8770  1.2515  0.5352
    7MOL0     H  947   3.423   7.123   5.115 -0.6434 -1.0595  1.4898
    7MOL0     H  948   3.207   6.884   5.446  1.8207  0.2087 -0.1907
    7MOL0     H  949   3.291   6.739   5.633  0.5564 -1.0746 -0.4557
    7MOL0     H  950   2.572   5.622   6.082  0.6154 -1.1572  0.3637
    7MOL0     H  951   2.535   5.413   6.250  1.6935 -1.7146  0.8754
    7MOL0     H  952   2.405   5.113   6.390  1.0057  0.6401  1.2963
    7MOL0     H  953   2.285   4.929   6.483  0.6722 -0.6478  1.6534
    7MOL0     H  954   2.513   4.750   6.749 -0.2984  1.6068 -1.1077
    7MOL0     H  955   2.354   4.848   6.732 -0.2314  0.2291 -1.1335
    7MOL0     H  956   2.348   4.554   6.802  0.1728 -0.0433  0.3275
    7MOL0     H  957   2.223   4.665   6.759  2.5209  0.6763 -4.5287
    7MOL0     H  958   2.277   4.810   6.973  1.4112  0.9245  0.4070
    7MOL0     H  959   2.241   4.646   7.010  1.2012 -2.7889 -1.3872
    7MOL0     H  960   2.513   4.790   6.983 -0.1565  1.3367  1.3199
    7MOL0     H  961   2.490   4.607   7.007 -2.5450 -1.0190 -0.2214
    7MOL0     H  962   2.503   4.759   7.386  1.3708 -3.8777 -1.2440
    7MOL0     H  963   2.625   4.670   6.469 -0.8797 -1.1456 -0.3564
    7MOL0     H  964   2.864   4.849   6.351 -2.3280  1.4450  3.2817
    7MOL0     H  965   2.773   4.706   6.330  1.0105  0.4398  2.6114
    7MOL0     H  966   2.767   4.829   6.197 -2.3318 -2.0679 -0.7462
    8MOL0     O  967   6.975  10.801   9.087  0.6287 -1.0708 -0.1507
    8MOL0     C  968   6.902  10.727   9.145  0.2469  0.3645 -0.1575
    8MOL0     O  969   6.921  10.591   9.168  0.5624  0.0019  0.1315
    8MOL0     C  970   7.031  10.536   9.111  0.1358 -0.1156  1.0526
    8MOL0     C  971   7.160  10.593   9.100 -0.8904 -0.1735  0.6119
    8MOL0     C  972   7.266  10.520   9.036 -0.1281  0.1231 -0.4114
    8MOL0     C  973   7.251  10.385   9.015  0.0575  0.2412  0.2096
    8MOL0     O  974   7.363  10.312   8.978 -0.0036 -0.1431 -0.4135
    8MOL0     C  975   7.354  10.180   8.938 -0.8176 -0.1520 -0.2511
    8MOL0     C  976   7.487  10.112   8.914 -0.7339  0.7952  0.2438
    8MOL0     C  977   7.583  10.135   9.030  0.2308 -0.5808 -0.4105
    8MOL0     C  978   7.704  10.037   9.019 -0.4185 -0.2235 -0.8562
    8MOL0     C  979   7.800  10.078   9.127 -0.7040  0.5548 -0.3847
    8MOL0     C  980   7.929   9.996   9.127 -0.8031 -0.4310  0.1470
    8MOL0     C  981   8.040  10.070   9.209  0.1068 -0.2040  0.4204
    8MOL0     C  982   8.180  10.011   9.196  0.4408 -0.3891  0.0385
    8MOL0     N  983   8.188   9.870   9.251 -0.0630  0.4953  0.0973
    8MOL0     C  984   8.196   9.830   9.386  0.5554 -0.8579  0.1412
    8MOL0     C  985   8.218   9.693   9.374 -0.8683 -0.5419  0.6976
    8MOL0     C  986   8.236   9.611   9.491 -0.3824  0.8255  0.1586
    8MOL0     C  987   8.361   9.645   9.578  0.1074  0.3695  0.0235
    8MOL0     C  988   8.492   9.569   9.525  1.4676 -0.1907  0.2991
    8MOL0     C  989   8.599   9.571   9.638 -0.1574 -0.4871 -0.2545
    8MOL0     O  990   8.621   9.704   9.685  0.1191 -0.5673 -0.6597
    8MOL0     C  991   8.749   9.761   9.652 -0.0647 -0.2274 -0.6639
    8MOL0     C  992   8.811   9.750   9.523  0.5236 -0.3408 -0.0991
    8MOL0     C  993   8.945   9.781   9.508  0.1972  0.1782  0.4789
    8MOL0     C  994   8.999   9.767   9.367 -0.5994  0.6553 -1.4073
    8MOL0     C  995   9.026   9.816   9.622  0.4119  0.3392  0.4886
    8MOL0     C  996   9.174   9.814   9.617  0.3275  0.8462  0.0223
    8MOL0     O  997   9.231   9.892   9.715 -0.4931 -0.1631 -1.1172
    8MOL0     C  998   9.361   9.918   9.711 -0.2691 -0.2820 -0.2845
    8MOL0     C  999   9.419   9.964   9.591 -0.2971 -0.7615  0.0384
    8MOL0     C 1000   9.553  10.014   9.590  0.8798 -0.5369 -0.1713
    8MOL0     C 1001   9.625  10.031   9.707 -0.2990  0.4007  0.6142
    8MOL0     O 1002   9.754  10.075   9.692 -0.3104  0.3711  0.1049
    8MOL0     C 1003   9.802  10.187   9.772 -0.6428 -0.9036  0.1493
    8MOL0     C 1004   9.870  10.303   9.693  0.2114 -0.6024  0.3329
    8MOL0     C 1005   9.777  10.358   9.587 -0.2743  0.1765 -0.2463
    8MOL0     C 1006   9.833  10.501   9.547 -0.3489 -0.5892  0.1570
    8MOL0     C 1007   9.948  10.505   9.438 -0.7498 -0.2295  0.2802
    8MOL0     C 1008   9.900  10.467   9.299 -0.8875 -0.8729  0.2329
    8MOL0     C 1009  10.009  10.490   9.189  0.4902 -1.1898  0.6892
    8MOL0     C 1010  10.103  10.372   9.192 -0.0082 -0.0038 -0.2016
    8MOL0    Cl 1011  10.238  10.387   9.076 -0.0065  0.5604 -0.3485
    8MOL0     C 1012   9.562  10.002   9.825 -0.0679  0.0093 -0.4241
    8MOL0     C 1013   9.427   9.945   9.827 -1.4134  0.1914 -0.4010
    8MOL0     O 1014   9.236   9.733   9.554  0.3255  0.6254  0.0086
    8MOL0     C 1015   8.964   9.819   9.753 -0.9665  0.8199 -0.3239
    8MOL0     C 1016   8.826   9.800   9.765  0.2777 -0.4087 -0.8521
    8MOL0     N 1017   8.224   9.657   9.243 -0.4242 -0.8321  0.4030
    8MOL0     N 1018   8.184   9.758   9.168 -0.8569 -0.5384  0.6180
    8MOL0     C 1019   7.137  10.329   9.048  0.3683  0.0666 -0.2385
    8MOL0     C 1020   7.028  10.405   9.086  0.0176 -0.1317 -0.3637
    8MOL0     C 1021   6.784  10.792   9.201  0.1461  0.8477 -0.1717
    8MOL0     C 1022   6.658  10.732   9.180  0.0239 -0.4554  0.4569
    8MOL0     C 1023   6.543  10.796   9.222  0.2391 -0.0273 -0.0524
    8MOL0     C 1024   6.549  10.899   9.320 -0.2003  0.4423 -0.3150
    8MOL0     O 1025   6.435  10.947   9.379 -0.2917 -0.2272 -0.1875
    8MOL0     C 1026   6.394  11.085   9.363 -0.0999 -0.6861  0.1418
    8MOL0     C 1027   6.276  11.106   9.457 -0.4980  0.4001 -0.6061
    8MOL0     C 1028   6.320  11.087   9.597 -0.0762  0.7148 -0.8085
    8MOL0     C 1029   6.207  11.082   9.698  0.0878  0.1087 -0.3157
    8MOL0     C 1030   6.247  11.067   9.836  0.3540 -0.1750  0.1689
    8MOL0     C 1031   6.293  11.051   9.949  0.1446 -0.6501 -0.2896
    8MOL0     C 1032   6.675  10.961   9.345  0.3271 -0.0440  0.7320
    8MOL0     C 1033   6.792  10.908   9.287  0.1426  0.4901 -0.6536
    8MOL0     C 1034   6.917  10.965   9.330 -0.7868 -0.8695  0.1738
    8MOL0     H 1035   7.187  10.691   9.137 -0.3193 -1.1742  3.0405
    8MOL0     H 1036   7.367  10.556   9.022 -0.0258 -0.9620 -2.9768
    8MOL0     H 1037   7.298  10.163   8.846 -0.9856  0.0186 -0.1787
    8MOL0     H 1038   7.308  10.117   9.015 -1.3641 -1.0121 -1.2571
    8MOL0     H 1039   7.460  10.006   8.907 -0.5704  0.3756  3.7952
    8MOL0     H 1040   7.521  10.142   8.814  0.1547 -0.2419  0.2134
    8MOL0     H 1041   7.626  10.235   9.019  2.7622 -1.5487 -0.0243
    8MOL0     H 1042   7.535  10.119   9.127  1.7289  0.3606  0.5089
    8MOL0     H 1043   7.678   9.932   9.037  2.3054 -1.0693 -1.3176
    8MOL0     H 1044   7.742  10.032   8.916 -1.4795 -0.2981 -1.2630
    8MOL0     H 1045   7.751  10.065   9.223 -0.1934  0.9830 -0.0582
    8MOL0     H 1046   7.817  10.184   9.102  0.9069  0.1417 -1.1863
    8MOL0     H 1047   7.910   9.896   9.166 -1.6758 -0.7599 -1.0753
    8MOL0     H 1048   7.969   9.970   9.029 -0.6017  0.1120  0.0786
    8MOL0     H 1049   8.006  10.076   9.313 -0.0826 -0.6711  0.3899
    8MOL0     H 1050   8.042  10.173   9.172  0.7899 -0.3211  0.1086
    8MOL0     H 1051   8.208  10.014   9.091 -0.2429  1.6044 -0.1132
    8MOL0     H 1052   8.246  10.085   9.243 -0.9069  0.5512  0.5178
    8MOL0     H 1053   8.188   9.894   9.473  1.3999  1.0346 -1.1051
    8MOL0     H 1054   8.242   9.505   9.464  1.1049  0.6830  0.9189
    8MOL0     H 1055   8.147   9.605   9.554  1.5338 -0.9988  2.9109
    8MOL0     H 1056   8.366   9.754   9.574 -0.7981  0.4341  0.2877
    8MOL0     H 1057   8.341   9.627   9.684 -0.8334 -1.9062 -0.4861
    8MOL0     H 1058   8.470   9.463   9.507  0.2392 -0.1743  1.5030
    8MOL0     H 1059   8.523   9.609   9.429 -0.2340 -0.6120 -0.4706
    8MOL0     H 1060   8.555   9.511   9.718 -3.2941  1.5665 -0.2273
    8MOL0     H 1061   8.693   9.530   9.601  0.1020  2.2251 -3.0163
    8MOL0     H 1062   8.752   9.711   9.441  0.1301  0.7060 -0.3265
    8MOL0     H 1063   9.107   9.779   9.357 -0.7674  4.3060 -0.2315
    8MOL0     H 1064   8.965   9.844   9.297 -1.5790  0.0108 -1.6787
    8MOL0     H 1065   8.970   9.671   9.322  2.3992 -1.0427  0.0158
    8MOL0     H 1066   9.354   9.963   9.504 -3.1228  1.7649  1.8999
    8MOL0     H 1067   9.601  10.040   9.496 -2.2383 -0.5828 -1.9182
    8MOL0     H 1068   9.724  10.223   9.839 -1.3979 -1.5967 -0.3464
    8MOL0     H 1069   9.874  10.138   9.838 -1.1983 -2.2114 -0.1852
    8MOL0     H 1070   9.915  10.376   9.762 -0.4213 -0.1585  0.2766
    8MOL0     H 1071   9.953  10.251   9.644 -0.3146 -0.1507 -1.0566
    8MOL0     H 1072   9.674  10.360   9.624 -0.8849  0.7077 -1.8995
    8MOL0     H 1073   9.773  10.295   9.498 -2.7945 -2.6250  1.6475
    8MOL0     H 1074   9.866  10.558   9.634  0.8559 -0.9356 -0.0438
    8MOL0     H 1075   9.754  10.568   9.513 -1.6972 -1.1887  1.9362
    8MOL0     H 1076   9.986  10.607   9.438  2.3332 -1.2551 -0.5437
    8MOL0     H 1077  10.039  10.450   9.466  0.6610  1.1127 -1.4261
    8MOL0     H 1078   9.820  10.536   9.271  0.6614  0.0441 -2.2625
    8MOL0     H 1079   9.874  10.361   9.296  1.3411 -1.4654 -0.5698
    8MOL0     H 1080  10.068  10.581   9.204  1.1623 -0.1908 -5.6099
    8MOL0     H 1081   9.958  10.503   9.094  2.2981  1.8190 -0.0052
    8MOL0     H 1082  10.036  10.286   9.183 -0.5624  0.3674  0.2514
    8MOL0     H 1083  10.157  10.366   9.287 -0.8086 -0.2348  0.2571
    8MOL0     H 1084   9.611  10.028   9.918  0.3491  2.2477 -1.2056
    8MOL0     H 1085   9.386   9.928   9.926  4.3972  2.0751  2.7692
    8MOL0     H 1086   9.036   9.836   9.833  1.5481  1.8457 -2.6382
    8MOL0     H 1087   8.770   9.828   9.854 -0.1641 -2.7425 -0.3437
    8MOL0     H 1088   7.109  10.225   9.037 -2.4975  0.7500 -0.2779
    8MOL0     H 1089   6.933  10.361   9.117 -0.8899 -0.4647 -3.3355
    8MOL0     H 1090   6.652  10.634   9.134  1.0185  1.0575 -3.2295
    8MOL0     H 1091   6.443  10.755   9.214  0.6149 -1.0775  0.5079
    8MOL0     H 1092   6.472  11.158   9.389 -1.0445  0.2264  0.5202
    8MOL0     H 1093   6.369  11.118   9.261  1.0758 -0.0312  0.0435
    8MOL0     H 1094   6.206  11.028   9.427  0.3140 -1.2113  1.4375
    8MOL0     H 1095   6.229  11.204   9.452 -1.0203  0.2695  1.2056
    8MOL0     H 1096   6.373  10.992   9.602  1.1230  1.4152  0.7731
    8MOL0     H 1097   6.394  11.161   9.631  0.9535 -1.4662  2.1861
    8MOL0     H 1098   6.151  10.992   9.673 -1.6650  1.0316  0.1185
    8MOL0     H 1099   6.127  11.156   9.695  0.0743  0.1156  0.1386
    8MOL0     H 1100   6.318  11.032  10.051 -0.8895  2.1331  0.5921
    8MOL0     H 1101   6.680  11.053   9.402  1.4575  1.7358 -2.0047
    8MOL0     H 1102   7.000  10.897   9.311  1.8341  2.0029  0.5084
    8MOL0     H 1103   6.939  11.058   9.276  1.2082  0.3758  2.8652
    8MOL0     H 1104   6.912  10.993   9.436 -0.6601  0.2351 -0.0975
    9MOL0     O 1105  10.053   1.553   8.231  0.0493  0.0918  0.1314
    9MOL0     C 1106   9.982   1.574   8.325  0.2839 -0.4682 -0.1338
    9MOL0     O 1107   9.862   1.628   8.320 -0.1293 -0.0162  0.4008
    9MOL0     C 1108   9.809   1.673   8.206 -0.6668 -0.4116  0.2806
    9MOL0     C 1109   9.789   1.593   8.093  0.2435 -0.3625  1.0460
    9MOL0     C 1110   9.727   1.647   7.982 -0.6657  1.0111  0.0430
    9MOL0     C 1111   9.683   1.779   7.974 -0.3226  1.2387  0.1811
    9MOL0     O 1112   9.633   1.836   7.856  0.6067  0.3962 -0.0692
    9MOL0     C 1113   9.551   1.751   7.775  0.8400  0.3953  0.1075
    9MOL0     C 1114   9.465   1.839   7.691  0.0151  0.5233 -0.9740
    9MOL0     C 1115   9.530   1.903   7.569  0.5486 -0.0708 -0.1872
    9MOL0     C 1116   9.430   1.922   7.452  0.1498 -0.2732  0.7892
    9MOL0     C 1117   9.493   1.870   7.325  0.5053  0.0384  0.7417
    9MOL0     C 1118   9.409   1.922   7.200 -0.6316 -0.1955  0.2236
    9MOL0     C 1119   9.500   1.908   7.076 -0.4597 -0.2311 -0.3065
    9MOL0     C 1120   9.449   1.981   6.948  0.4469  0.5062 -0.7639
    9MOL0     N 1121   9.513   1.932   6.832 -0.8907  0.3532  0.1744
    9MOL0     C 1122   9.494   1.812   6.760  0.3771 -1.1908  0.5419
    9MOL0     C 1123   9.603   1.803   6.684 -0.2857  0.6879  0.2968
    9MOL0     C 1124   9.650   1.667   6.623  0.4577  0.1936  0.0415
    9MOL0     C 1125   9.801   1.657   6.594  0.0852  0.2658  0.2536
    9MOL0     C 1126   9.827   1.516   6.535  0.0476 -0.5524 -1.0252
    9MOL0     C 1127   9.981   1.500   6.524  0.1353 -0.7494 -0.0613
    9MOL0     O 1128  10.012   1.371   6.466  0.2725 -0.6162 -0.5282
    9MOL0     C 1129  10.135   1.345   6.426 -0.9786 -0.2178  0.9568
    9MOL0     C 1130  10.133   1.220   6.364  0.0178 -0.5814  0.2602
    9MOL0     C 1131  10.260   1.171   6.321 -0.1004 -0.4341 -0.1386
    9MOL0     C 1132  10.266   1.041   6.253 -0.2995 -0.2675  0.1946
    9MOL0     C 1133  10.376   1.248   6.352 -1.2539 -0.2659 -0.1968
    9MOL0     C 1134  10.516   1.189   6.338  0.5698 -0.0570 -0.1889
    9MOL0     O 1135  10.533   1.057   6.355 -0.7201 -0.2112 -0.3906
    9MOL0     C 1136  10.649   0.983   6.325 -0.3314  0.4293  0.1249
    9MOL0     C 1137  10.699   0.989   6.195  0.2858  0.1728 -0.1420
    9MOL0     C 1138  10.821   0.917   6.171 -0.3294  0.7171 -0.0157
    9MOL0     C 1139  10.881   0.839   6.281 -0.6599 -0.6016 -0.1914
    9MOL0     O 1140  11.005   0.789   6.278  1.1172  0.1059 -0.1264
    9MOL0     C 1141  11.063   0.756   6.155  0.3971 -0.8106  0.3849
    9MOL0     C 1142  11.203   0.708   6.178 -0.7747  0.1120  0.2048
    9MOL0     C 1143  11.294   0.697   6.050  0.0994 -0.9851 -0.1848
    9MOL0     C 1144  11.323   0.833   5.982  0.3433  1.0332 -0.7115
    9MOL0     C 1145  11.417   0.816   5.864 -0.2581  1.0148 -0.7262
    9MOL0     C 1146  11.435   0.939   5.773  0.0656  0.1456 -0.6002
    9MOL0     C 1147  11.512   0.894   5.652 -0.7033 -1.1310 -0.0625
    9MOL0     C 1148  11.576   1.016   5.577 -0.0260  0.3132 -0.8067
    9MOL0    Cl 1149  11.694   1.086   5.691  0.0267  0.3813  0.0533
    9MOL0     C 1150  10.815   0.819   6.400 -0.6959 -0.5349  0.1380
    9MOL0     C 1151  10.703   0.897   6.421 -0.3543 -0.3107  0.1374
    9MOL0     O 1152  10.615   1.265   6.324 -0.2066  0.0321 -0.5237
    9MOL0     C 1153  10.365   1.382   6.396 -0.1627 -0.6124  0.5310
    9MOL0     C 1154  10.244   1.433   6.432  0.5957 -0.8945 -0.3112
    9MOL0     N 1155   9.670   1.930   6.680  0.5108  0.2335 -0.5837
    9MOL0     N 1156   9.615   2.007   6.771  0.0608 -0.2101 -0.3174
    9MOL0     C 1157   9.702   1.861   8.085 -0.2659  0.2230 -0.2085
    9MOL0     C 1158   9.766   1.810   8.199 -0.3059 -0.7423 -0.2495
    9MOL0     C 1159  10.025   1.508   8.457 -0.0005  1.1061  0.8418
    9MOL0     C 1160   9.927   1.491   8.551 -0.6123  0.2512 -1.8013
    9MOL0     C 1161   9.944   1.426   8.675  1.2220  1.0475  0.3580
    9MOL0     C 1162  10.065   1.378   8.702 -0.6750  0.0732  0.3417
    9MOL0     O 1163  10.068   1.310   8.819  0.3813  0.3284  0.8954
    9MOL0     C 1164  10.192   1.239   8.843  0.2777 -0.4532 -0.1362
    9MOL0     C 1165  10.175   1.127   8.938 -0.6933  0.1989 -0.2817
    9MOL0     C 1166  10.152   1.195   9.070 -0.0139 -0.7611 -0.2590
    9MOL0     C 1167  10.276   1.199   9.152 -0.8248 -0.5178 -0.2466
    9MOL0     C 1168  10.380   1.294   9.096  0.7122 -0.2273  0.3226
    9MOL0     C 1169  10.477   1.351   9.054 -0.0310 -0.2094  0.0869
    9MOL0     C 1170  10.173   1.398   8.613 -0.3558  0.9269 -0.5029
    9MOL0     C 1171  10.156   1.473   8.491  0.5319  0.5283  0.4730
    9MOL0     C 1172  10.276   1.488   8.400  0.2760 -0.0155  0.1169
    9MOL0     H 1173   9.813   1.488   8.103 -2.1615 -1.2714 -1.4700
    9MOL0     H 1174   9.713   1.578   7.900  1.5127  0.0526  0.3989
    9MOL0     H 1175   9.494   1.680   7.836  0.8322  0.3234  0.0169
    9MOL0     H 1176   9.619   1.693   7.713  2.5925  0.7859  1.5849
    9MOL0     H 1177   9.394   1.771   7.644  0.1830 -0.7417  0.5091
    9MOL0     H 1178   9.417   1.906   7.763  1.3871 -0.2406  0.7562
    9MOL0     H 1179   9.572   1.997   7.603 -1.2310  0.7506 -0.1345
    9MOL0     H 1180   9.609   1.831   7.544  3.6750  2.6855  1.0759
    9MOL0     H 1181   9.328   1.884   7.467 -1.3031  2.7477 -0.4770
    9MOL0     H 1182   9.408   2.029   7.458 -4.0802 -0.7854 -1.7316
    9MOL0     H 1183   9.478   1.762   7.333 -1.5637 -0.2008 -3.4925
    9MOL0     H 1184   9.599   1.892   7.307  0.6327  1.2431  2.7228
    9MOL0     H 1185   9.317   1.864   7.186 -0.3594 -0.2951 -1.4064
    9MOL0     H 1186   9.381   2.027   7.212  0.5723  0.0112  1.3817
    9MOL0     H 1187   9.522   1.808   7.038  0.3326  0.3557 -1.4742
    9MOL0     H 1188   9.598   1.954   7.093  0.2798 -2.1119  0.7697
    9MOL0     H 1189   9.343   1.971   6.925  0.6864  0.1334 -1.7520
    9MOL0     H 1190   9.475   2.088   6.949  1.6261  0.2698 -2.0223
    9MOL0     H 1191   9.419   1.734   6.770 -1.3528  0.3614  0.1939
    9MOL0     H 1192   9.611   1.660   6.521  3.3590  2.6944 -1.4022
    9MOL0     H 1193   9.609   1.594   6.694  0.7974  0.4284  0.4815
    9MOL0     H 1194   9.820   1.737   6.521 -1.5236  0.1309 -0.3382
    9MOL0     H 1195   9.860   1.669   6.686  0.0921  0.1052  0.2689
    9MOL0     H 1196   9.798   1.444   6.613 -1.4206  1.9137  0.8350
    9MOL0     H 1197   9.784   1.492   6.437 -3.3723  2.5332 -0.4731
    9MOL0     H 1198  10.022   1.587   6.472 -0.6176 -0.0234  0.5247
    9MOL0     H 1199  10.039   1.499   6.617  1.3340  1.8666 -0.6907
    9MOL0     H 1200  10.045   1.158   6.375 -0.6453  0.5583  1.5529
    9MOL0     H 1201  10.282   0.966   6.331  1.7750  0.7199  0.7835
    9MOL0     H 1202  10.346   1.023   6.181  1.4773 -2.1238  2.4452
    9MOL0     H 1203  10.169   1.022   6.207 -0.9127  3.1286 -0.1647
    9MOL0     H 1204  10.647   1.049   6.122 -1.8751  1.9333  2.6430
    9MOL0     H 1205  10.862   0.934   6.072 -1.1001 -2.5191 -1.0237
    9MOL0     H 1206  11.012   0.676   6.100 -3.6861  2.2065 -0.6825
    9MOL0     H 1207  11.072   0.850   6.099 -1.1948 -1.7164 -1.5397
    9MOL0     H 1208  11.260   0.776   6.242  2.0644 -1.3998 -0.5372
    9MOL0     H 1209  11.215   0.608   6.220  4.9037 -1.0951 -3.1562
    9MOL0     H 1210  11.241   0.633   5.979 -3.1036 -0.4729  1.5601
    9MOL0     H 1211  11.386   0.643   6.075  2.4786  1.0135 -3.7829
    9MOL0     H 1212  11.372   0.900   6.054 -0.4150  3.0954 -2.0325
    9MOL0     H 1213  11.229   0.872   5.942 -0.4041 -0.3472 -0.3705
    9MOL0     H 1214  11.517   0.789   5.899 -0.7033  1.4845  1.0002
    9MOL0     H 1215  11.370   0.736   5.805  1.8086 -0.7577 -0.1214
    9MOL0     H 1216  11.473   1.026   5.827 -1.2730  2.2867 -2.8971
    9MOL0     H 1217  11.336   0.968   5.737  0.4087  2.4392  0.1615
    9MOL0     H 1218  11.440   0.850   5.583  1.2271  0.7275 -3.5495
    9MOL0     H 1219  11.598   0.830   5.676  0.3051 -0.7393 -2.3642
    9MOL0     H 1220  11.503   1.083   5.532 -0.8977 -0.1200 -0.0579
    9MOL0     H 1221  11.639   0.977   5.496 -2.1745 -0.6705 -2.0934
    9MOL0     H 1222  10.854   0.763   6.485  0.0636  0.0203  0.1682
    9MOL0     H 1223  10.653   0.899   6.517  2.0627 -3.8676  1.6750
    9MOL0     H 1224  10.441   1.460   6.399  0.6020 -1.2991  4.4548
    9MOL0     H 1225  10.230   1.523   6.492  0.0866 -1.2369  0.1046
    9MOL0     H 1226   9.678   1.966   8.077  0.5153  0.2376 -4.3711
    9MOL0     H 1227   9.775   1.886   8.275 -2.0694  3.9023 -4.1459
    9MOL0     H 1228   9.824   1.519   8.527 -1.6060 -1.9459 -0.4290
    9MOL0     H 1229   9.856   1.413   8.737  0.4791 -0.9028 -1.0180
    9MOL0     H 1230  10.224   1.187   8.752 -0.5988 -2.4874  0.6531
    9MOL0     H 1231  10.259   1.317   8.880 -2.8916  2.1359  0.7054
    9MOL0     H 1232  10.265   1.067   8.931  0.2542  1.5914 -0.4570
    9MOL0     H 1233  10.082   1.074   8.915 -0.6472  0.7290 -1.8496
    9MOL0     H 1234  10.101   1.291   9.056  1.0427 -0.3645 -1.5843
    9MOL0     H 1235  10.073   1.139   9.121  0.4562 -0.3921  0.9141
    9MOL0     H 1236  10.314   1.099   9.174  1.3121  0.6280  1.7932
    9MOL0     H 1237  10.245   1.235   9.250 -5.7784 -3.2568 -0.5034
    9MOL0     H 1238  10.563   1.391   9.003  0.7122  0.4068  1.7570
    9MOL0     H 1239  10.268   1.349   8.637 -0.1061  0.4477 -2.3090
    9MOL0     H 1240  10.360   1.498   8.470 -0.1288 -0.5596  0.6890
    9MOL0     H 1241  10.276   1.404   8.331  0.1342  0.9948 -1.1539
    9MOL0     H 1242  10.262   1.585   8.352 -4.9809 -0.6747 -0.2701
   10MOL0     O 1243   9.466   4.994   6.398 -0.2938  0.4591 -0.8306
   10MOL0     C 1244   9.514   4.984   6.284  0.2199 -0.4610  0.7242
   10MOL0     O 1245   9.480   5.065   6.177 -0.5296  0.4094  0.4067
   10MOL0     C 1246   9.438   5.192   6.208 -0.4244 -0.2265  0.4118
   10MOL0     C 1247   9.500   5.295   6.137  0.6030  0.0318  0.0090
   10MOL0     C 1248   9.448   5.428   6.150 -0.0881  0.6154 -0.5588
   10MOL0     C 1249   9.321   5.445   6.214 -0.8051 -1.1564  0.2272
   10MOL0     O 1250   9.248   5.558   6.219  0.6952  0.0281  0.1399
   10MOL0     C 1251   9.281   5.664   6.135  0.6072  1.1418 -0.2401
   10MOL0     C 1252   9.175   5.780   6.142 -0.3511 -0.5955  0.0776
   10MOL0     C 1253   9.049   5.720   6.080  0.8168  0.0639 -0.0886
   10MOL0     C 1254   8.949   5.845   6.060  0.1444 -0.7470 -0.2774
   10MOL0     C 1255   8.832   5.793   5.976  0.6030 -0.3391  0.2397
   10MOL0     C 1256   8.864   5.786   5.825  0.7783  0.1755  0.1110
   10MOL0     C 1257   8.755   5.740   5.736  0.2753  0.0537  0.3083
   10MOL0     C 1258   8.801   5.733   5.591 -0.1537 -0.8835  0.4698
   10MOL0     N 1259   8.704   5.673   5.502 -0.7311 -0.4603  0.8648
   10MOL0     C 1260   8.730   5.656   5.370  0.2976  0.2245 -0.5995
   10MOL0     C 1261   8.603   5.624   5.317 -0.5088  0.0408 -0.3116
   10MOL0     C 1262   8.570   5.611   5.167 -0.6286  0.4448  0.8406
   10MOL0     C 1263   8.597   5.461   5.125 -0.9331 -0.5472 -0.6875
   10MOL0     C 1264   8.605   5.445   4.975  0.2735 -0.2671  0.1133
   10MOL0     C 1265   8.491   5.493   4.895  0.2636 -0.1538 -0.7472
   10MOL0     O 1266   8.512   5.633   4.888  0.5507  0.1099  0.3042
   10MOL0     C 1267   8.410   5.713   4.857  0.3389  0.4122  0.0164
   10MOL0     C 1268   8.419   5.857   4.871 -0.4401  0.2984 -0.1910
   10MOL0     C 1269   8.313   5.946   4.856 -0.6501  0.0671  0.2711
   10MOL0     C 1270   8.349   6.094   4.861  0.2178  0.0403  0.4597
   10MOL0     C 1271   8.192   5.896   4.824  0.5136 -0.2890  0.5496
   10MOL0     C 1272   8.063   5.974   4.789  0.0817  0.2872 -0.1810
   10MOL0     O 1273   7.972   5.909   4.709  0.1908 -0.1798  0.6372
   10MOL0     C 1274   7.842   5.962   4.711  0.6244 -0.1614  0.8689
   10MOL0     C 1275   7.782   6.035   4.819 -0.0276 -0.2743  1.1000
   10MOL0     C 1276   7.663   6.109   4.793  0.0602  0.0298 -0.4379
   10MOL0     C 1277   7.594   6.094   4.680 -0.4226 -0.3955 -0.9743
   10MOL0     O 1278   7.473   6.159   4.668 -0.4280 -0.0978  0.1267
   10MOL0     C 1279   7.392   6.107   4.563  0.0545  1.5644 -0.9788
   10MOL0     C 1280   7.391   6.187   4.439  0.3340 -0.0815 -0.5664
   10MOL0     C 1281   7.313   6.318   4.462  0.5136 -0.0195  0.0991
   10MOL0     C 1282   7.239   6.366   4.341 -0.2185 -0.0958  0.4604
   10MOL0     C 1283   7.175   6.507   4.356  0.1227 -0.1222 -0.2646
   10MOL0     C 1284   7.069   6.530   4.470  0.0862 -0.8238  0.4394
   10MOL0     C 1285   6.932   6.472   4.427 -0.0318 -0.6823  0.0616
   10MOL0     C 1286   6.838   6.456   4.545 -0.1511 -0.1127  0.5676
   10MOL0    Cl 1287   6.739   6.602   4.582  0.3140 -0.0577  0.0317
   10MOL0     C 1288   7.648   6.017   4.576 -0.7479  0.1517 -1.3468
   10MOL0     C 1289   7.775   5.960   4.591  0.9958  0.0172 -0.9885
   10MOL0     O 1290   8.055   6.091   4.824  0.6150 -0.5540 -0.5085
   10MOL0     C 1291   8.174   5.762   4.808 -0.0085 -0.0063  0.3692
   10MOL0     C 1292   8.274   5.669   4.825  0.0318  0.0816  0.3039
   10MOL0     N 1293   8.514   5.606   5.419  0.8058 -0.4507  0.1142
   10MOL0     N 1294   8.579   5.634   5.528 -0.0698  0.1404 -0.5327
   10MOL0     C 1295   9.263   5.341   6.290 -0.4170 -0.5827  0.5290
   10MOL0     C 1296   9.326   5.216   6.288  0.2130  0.3898 -0.6249
   10MOL0     C 1297   9.594   4.863   6.266  0.3227  0.3517  0.1812
   10MOL0     C 1298   9.560   4.774   6.168 -0.2692  0.1550 -0.3092
   10MOL0     C 1299   9.628   4.657   6.139 -0.0145  0.6246 -0.4184
   10MOL0     C 1300   9.750   4.636   6.199  0.2331  0.1066 -0.0065
   10MOL0     O 1301   9.813   4.518   6.170  0.6000 -0.8269  0.5337
   10MOL0     C 1302   9.927   4.484   6.244 -0.1081  1.1266  0.2524
   10MOL0     C 1303  10.000   4.373   6.170  0.5563  0.6083  0.6174
   10MOL0     C 1304  10.035   4.415   6.022 -0.5265  0.6662  1.3037
   10MOL0     C 1305  10.104   4.297   5.955  1.1294 -0.6509 -0.4571
   10MOL0     C 1306  10.114   4.304   5.806  0.2572  0.0444 -0.0281
   10MOL0     C 1307  10.119   4.300   5.684 -0.9822  0.9245  0.6179
   10MOL0     C 1308   9.782   4.715   6.308  0.2890 -0.0271 -0.3532
   10MOL0     C 1309   9.713   4.831   6.341  0.2792 -0.5294  0.2919
   10MOL0     C 1310   9.769   4.911   6.448 -0.1399 -0.6556  0.2467
   10MOL0     H 1311   9.590   5.285   6.078  0.1905  0.4421 -0.7055
   10MOL0     H 1312   9.496   5.514   6.106 -0.2235  1.2507  0.4948
   10MOL0     H 1313   9.281   5.628   6.032 -1.5489 -1.5912  0.5923
   10MOL0     H 1314   9.378   5.705   6.163  1.3456  1.2152 -2.7108
   10MOL0     H 1315   9.156   5.828   6.238 -0.3478  2.5472 -1.3989
   10MOL0     H 1316   9.222   5.855   6.079 -2.0344 -0.6193 -1.2555
   10MOL0     H 1317   9.066   5.664   5.988  3.6117 -2.3676  1.7147
   10MOL0     H 1318   9.014   5.648   6.155  2.2676  0.5043  1.0560
   10MOL0     H 1319   8.907   5.889   6.151 -0.1574  0.1486 -0.8371
   10MOL0     H 1320   8.990   5.926   5.999 -1.8641  0.8950  0.4266
   10MOL0     H 1321   8.738   5.846   5.992 -0.1362 -1.7773  0.8430
   10MOL0     H 1322   8.807   5.692   6.008  2.2172  0.0988  3.2131
   10MOL0     H 1323   8.903   5.884   5.795 -0.3231 -0.3509 -3.4535
   10MOL0     H 1324   8.941   5.708   5.813  1.3836 -0.0533  4.1091
   10MOL0     H 1325   8.670   5.808   5.742 -0.0288 -0.4568  3.0393
   10MOL0     H 1326   8.726   5.637   5.761  1.8911 -0.8486 -1.3057
   10MOL0     H 1327   8.827   5.832   5.554 -0.2579 -2.0608 -3.2755
   10MOL0     H 1328   8.885   5.664   5.580  0.5875 -0.4031  2.7039
   10MOL0     H 1329   8.816   5.692   5.315  0.3836  0.2896 -0.4234
   10MOL0     H 1330   8.638   5.675   5.109 -0.9115  0.6898  0.7766
   10MOL0     H 1331   8.463   5.628   5.149 -0.9400 -1.4535  0.6664
   10MOL0     H 1332   8.684   5.421   5.177  1.7894  2.3465 -2.6060
   10MOL0     H 1333   8.516   5.402   5.167 -1.4065  0.9330  0.5967
   10MOL0     H 1334   8.698   5.489   4.936  0.8290  0.2192  1.8886
   10MOL0     H 1335   8.615   5.337   4.961  0.1240 -0.2395 -0.2193
   10MOL0     H 1336   8.496   5.442   4.798  0.8981  2.1041 -1.9799
   10MOL0     H 1337   8.402   5.458   4.949  0.7405  1.2164  1.0147
   10MOL0     H 1338   8.514   5.902   4.897  0.1164  1.3964 -3.5415
   10MOL0     H 1339   8.457   6.099   4.848 -0.0606  1.5199 -1.9029
   10MOL0     H 1340   8.306   6.128   4.956  1.1540  2.2939  0.1488
   10MOL0     H 1341   8.295   6.149   4.783 -3.0020 -0.3371  2.2507
   10MOL0     H 1342   7.837   6.046   4.913  0.3602 -0.0075  0.8468
   10MOL0     H 1343   7.627   6.174   4.871  2.0590  3.7345 -2.3588
   10MOL0     H 1344   7.401   6.000   4.546 -0.8778  1.6107 -1.8102
   10MOL0     H 1345   7.291   6.118   4.603  1.3430  0.6559  2.9922
   10MOL0     H 1346   7.488   6.194   4.388  0.3770 -0.3449 -0.5257
   10MOL0     H 1347   7.326   6.136   4.367 -4.4453  0.0791  3.1588
   10MOL0     H 1348   7.363   6.410   4.493 -4.0294  2.9806 -0.5628
   10MOL0     H 1349   7.235   6.306   4.539  1.1766 -1.4267  0.6014
   10MOL0     H 1350   7.167   6.295   4.298 -2.0120  2.9554 -2.0251
   10MOL0     H 1351   7.306   6.373   4.255 -3.0471  0.9587 -1.8475
   10MOL0     H 1352   7.260   6.570   4.383  0.7714 -0.8397 -0.6376
   10MOL0     H 1353   7.123   6.543   4.266 -0.3333 -1.1471 -0.4293
   10MOL0     H 1354   7.060   6.637   4.489 -0.1314 -0.7939  0.1675
   10MOL0     H 1355   7.104   6.482   4.562  0.6523 -0.4935  0.4007
   10MOL0     H 1356   6.943   6.374   4.381  2.0816 -0.8370  0.7594
   10MOL0     H 1357   6.887   6.534   4.348 -0.7531 -0.5861  0.5422
   10MOL0     H 1358   6.904   6.439   4.630 -2.1844 -0.3605  2.1642
   10MOL0     H 1359   6.784   6.363   4.527  2.2604 -1.3421 -0.8634
   10MOL0     H 1360   7.597   6.015   4.481 -0.5005 -1.0348 -1.4736
   10MOL0     H 1361   7.824   5.905   4.511  0.7759 -4.8934  1.8415
   10MOL0     H 1362   8.075   5.720   4.792  1.6213 -3.2772 -2.4438
   10MOL0     H 1363   8.260   5.562   4.818 -0.3749  0.1888 -0.6920
   10MOL0     H 1364   9.175   5.364   6.349 -0.9812  0.1944 -0.5606
   10MOL0     H 1365   9.282   5.136   6.345  0.9858  0.6330  0.3403
   10MOL0     H 1366   9.468   4.792   6.113  0.6765  1.6970 -1.4796
   10MOL0     H 1367   9.598   4.588   6.061 -2.4636  2.2425 -1.0531
   10MOL0     H 1368   9.985   4.575   6.260 -0.7498  1.1558  2.9009
   10MOL0     H 1369   9.902   4.446   6.343  1.2429  0.8872  0.5124
   10MOL0     H 1370   9.940   4.282   6.173 -2.1964  2.2609 -0.2093
   10MOL0     H 1371  10.098   4.363   6.218  1.1563 -1.3494 -0.8939
   10MOL0     H 1372   9.939   4.433   5.972 -0.6303  1.7968  1.8821
   10MOL0     H 1373  10.101   4.501   6.012 -1.6233  1.5827  1.7537
   10MOL0     H 1374  10.061   4.198   5.974 -2.9910  0.8096 -1.1515
   10MOL0     H 1375  10.208   4.300   5.991  0.5835  1.0973  1.1029
   10MOL0     H 1376  10.106   4.306   5.578 -2.2492 -1.5854  0.5756
   10MOL0     H 1377   9.854   4.693   6.387 -3.7049  0.5929  3.8630
   10MOL0     H 1378   9.685   4.924   6.517  1.2863 -0.6433  2.0712
   10MOL0     H 1379   9.852   4.866   6.504  0.7028  0.5185 -0.0400
   10MOL0     H 1380   9.823   4.993   6.401  1.8241 -2.5271 -0.9695
   11MOL0     O 1381   9.513   5.854   4.836  1.5563  0.1710  0.2374
   11MOL0     C 1382   9.600   5.887   4.755  0.3255  0.2889 -0.5162
   11MOL0     O 1383   9.609   6.012   4.698  0.5123 -0.2663  0.1484
   11MOL0     C 1384   9.510   6.105   4.720  0.0329  0.2349 -0.2128
   11MOL0     C 1385   9.495   6.153   4.854 -0.2409  0.7397  0.8022
   11MOL0     C 1386   9.397   6.242   4.898 -0.0348 -0.1923  0.4238
   11MOL0     C 1387   9.304   6.279   4.797  0.0876 -0.4082 -0.8551
   11MOL0     O 1388   9.208   6.372   4.818  0.1317 -0.5411 -0.0441
   11MOL0     C 1389   9.147   6.447   4.707 -0.3312 -0.2471 -0.1747
   11MOL0     C 1390   9.051   6.543   4.764  0.2004 -0.0836  0.2725
   11MOL0     C 1391   8.977   6.627   4.661  0.2963 -0.0788  0.2739
   11MOL0     C 1392   8.866   6.546   4.586  0.1563  0.2825 -0.5420
   11MOL0     C 1393   8.809   6.613   4.454 -0.0702  0.4226 -0.0831
   11MOL0     C 1394   8.938   6.614   4.346 -0.0463 -0.2350 -0.5255
   11MOL0     C 1395   8.921   6.693   4.216 -0.2928 -0.0569  0.5178
   11MOL0     C 1396   8.810   6.652   4.113 -0.0901 -0.3566 -0.4742
   11MOL0     N 1397   8.837   6.526   4.048 -0.7221  0.1861 -0.5050
   11MOL0     C 1398   8.927   6.513   3.944 -1.2620 -0.4951 -0.2123
   11MOL0     C 1399   8.907   6.383   3.912 -0.1887 -0.3830 -0.2368
   11MOL0     C 1400   8.965   6.326   3.788 -0.2060  0.0230  0.4133
   11MOL0     C 1401   8.947   6.420   3.668 -0.1151 -0.3001  0.4796
   11MOL0     C 1402   9.000   6.359   3.537 -0.9597  0.1032 -0.4862
   11MOL0     C 1403   8.936   6.427   3.418 -0.3569  0.5252 -0.5866
   11MOL0     O 1404   8.986   6.560   3.400  0.0006  0.2168 -0.5779
   11MOL0     C 1405   8.886   6.658   3.408  0.6199  0.2474 -0.8089
   11MOL0     C 1406   8.795   6.669   3.306 -0.1519  0.7814  0.1499
   11MOL0     C 1407   8.693   6.763   3.306 -0.0097 -1.2361  0.4655
   11MOL0     C 1408   8.606   6.760   3.178  0.2527  0.5201  0.1840
   11MOL0     C 1409   8.665   6.839   3.422  0.3654  0.5884 -0.6695
   11MOL0     C 1410   8.537   6.915   3.451 -0.9640 -0.2868 -0.2357
   11MOL0     O 1411   8.552   7.006   3.557  0.9631 -0.1304 -0.3954
   11MOL0     C 1412   8.454   7.107   3.579 -0.4142  0.4837  0.9956
   11MOL0     C 1413   8.470   7.162   3.700 -0.2725 -0.4639 -1.2313
   11MOL0     C 1414   8.382   7.265   3.751 -0.0344 -0.6418  0.0445
   11MOL0     C 1415   8.290   7.315   3.658  0.7850  0.6061 -0.1456
   11MOL0     O 1416   8.201   7.417   3.684  0.9023 -0.6000 -0.3636
   11MOL0     C 1417   8.203   7.478   3.817 -0.5764  1.2644 -0.6420
   11MOL0     C 1418   8.117   7.617   3.807  0.0291  0.0181 -0.2773
   11MOL0     C 1419   8.174   7.722   3.711  0.2794  0.2101 -0.4948
   11MOL0     C 1420   8.095   7.849   3.719 -0.0014 -0.2188  0.1668
   11MOL0     C 1421   8.123   7.945   3.609  0.6920 -0.0259  0.2308
   11MOL0     C 1422   8.262   8.016   3.635  1.0989 -0.5330  0.9784
   11MOL0     C 1423   8.286   8.143   3.557 -0.2125 -0.2073  0.7098
   11MOL0     C 1424   8.286   8.125   3.402 -0.2244  0.0360 -0.3865
   11MOL0    Cl 1425   8.426   8.027   3.353  0.1217 -0.1274  0.7686
   11MOL0     C 1426   8.270   7.258   3.534  0.0048 -0.0559  0.5243
   11MOL0     C 1427   8.356   7.145   3.497  0.1385 -0.3712  0.0594
   11MOL0     O 1428   8.434   6.867   3.406  0.0165  0.5502  1.1958
   11MOL0     C 1429   8.766   6.830   3.518  0.2290 -0.6694  0.0227
   11MOL0     C 1430   8.882   6.739   3.515 -0.0045  0.9204 -0.8748
   11MOL0     N 1431   8.824   6.323   4.001  0.5545  0.2348 -0.3058
   11MOL0     N 1432   8.776   6.408   4.078  0.0930  0.2519  0.2147
   11MOL0     C 1433   9.312   6.230   4.663  0.0982  0.2208  0.3632
   11MOL0     C 1434   9.409   6.136   4.624 -0.4163 -0.1456 -0.1113
   11MOL0     C 1435   9.677   5.781   4.688 -0.9555  0.1227 -0.4003
   11MOL0     C 1436   9.713   5.782   4.549 -0.1341  0.7760 -0.3633
   11MOL0     C 1437   9.772   5.670   4.492  0.8047 -1.8028  0.6309
   11MOL0     C 1438   9.820   5.559   4.566 -0.0638 -0.1568 -0.2785
   11MOL0     O 1439   9.880   5.459   4.496  0.3310  0.4959  0.4140
   11MOL0     C 1440   9.910   5.334   4.550 -0.7011  0.3062 -0.3491
   11MOL0     C 1441  10.038   5.339   4.633  0.4176 -0.1342  0.0008
   11MOL0     C 1442  10.157   5.387   4.539 -0.5342  0.4104 -0.2791
   11MOL0     C 1443  10.295   5.353   4.605  0.4465 -0.1202 -0.0005
   11MOL0     C 1444  10.319   5.446   4.718 -0.7566 -0.0278  0.7077
   11MOL0     C 1445  10.325   5.524   4.804  0.1529  0.3377  0.3711
   11MOL0     C 1446   9.789   5.561   4.705 -0.2335 -0.2142  0.3626
   11MOL0     C 1447   9.728   5.671   4.763  0.9538  0.2133  0.2435
   11MOL0     C 1448   9.745   5.672   4.916  0.0835  0.0304  0.5130
   11MOL0     H 1449   9.559   6.112   4.932  1.7650 -0.4251 -1.3169
   11MOL0     H 1450   9.401   6.270   5.002  0.2879 -0.3588  0.4567
   11MOL0     H 1451   9.084   6.371   4.659  0.7050 -1.1783 -0.0812
   11MOL0     H 1452   9.201   6.498   4.627 -1.9647 -0.7978 -1.7086
   11MOL0     H 1453   8.981   6.501   4.837 -1.0053  1.2895 -0.0458
   11MOL0     H 1454   9.104   6.613   4.828  1.7541 -0.8625 -0.1146
   11MOL0     H 1455   8.940   6.725   4.694 -0.7233  0.3272 -1.8550
   11MOL0     H 1456   9.050   6.651   4.584  1.3210  0.1193  1.2826
   11MOL0     H 1457   8.898   6.448   4.548 -0.3763 -0.1289  0.0494
   11MOL0     H 1458   8.799   6.535   4.671  0.9886  0.3794  0.1431
   11MOL0     H 1459   8.756   6.707   4.474 -2.7026 -0.4937 -2.1836
   11MOL0     H 1460   8.734   6.548   4.408  0.2515  0.1011 -0.1578
   11MOL0     H 1461   9.026   6.655   4.394 -1.7194  0.9645  1.7047
   11MOL0     H 1462   8.962   6.509   4.327 -3.2596 -1.2333  0.3202
   11MOL0     H 1463   9.017   6.688   4.164 -2.1014 -2.1540 -3.0213
   11MOL0     H 1464   8.889   6.791   4.251  0.3455  0.3513 -0.0306
   11MOL0     H 1465   8.712   6.666   4.160  0.1601 -2.5541  0.8266
   11MOL0     H 1466   8.811   6.723   4.030  1.7429  2.2504  1.5976
   11MOL0     H 1467   8.993   6.591   3.908  0.9779 -1.7427  1.0250
   11MOL0     H 1468   8.926   6.225   3.773  0.4232  0.0258 -1.5863
   11MOL0     H 1469   9.074   6.329   3.804  0.0675  0.4188 -1.2641
   11MOL0     H 1470   8.838   6.429   3.660 -0.1530  0.0131  1.2225
   11MOL0     H 1471   8.988   6.520   3.685 -2.0057  0.1826  2.7034
   11MOL0     H 1472   9.108   6.367   3.526 -0.6558  0.9729  2.2490
   11MOL0     H 1473   8.973   6.253   3.531  1.2714 -0.4675 -1.3387
   11MOL0     H 1474   8.940   6.365   3.328  1.4770 -0.8478  0.3594
   11MOL0     H 1475   8.830   6.433   3.443 -0.9438 -0.1939 -2.7091
   11MOL0     H 1476   8.800   6.600   3.222  0.7523 -1.3419  1.8466
   11MOL0     H 1477   8.556   6.668   3.145 -3.0264  2.0633  0.4366
   11MOL0     H 1478   8.675   6.783   3.097 -0.9008  2.4924 -0.2984
   11MOL0     H 1479   8.533   6.842   3.179 -0.9608 -0.4275  3.1762
   11MOL0     H 1480   8.552   7.117   3.755 -0.9840 -1.8072 -1.2244
   11MOL0     H 1481   8.396   7.298   3.854  0.5520 -2.1922  0.4973
   11MOL0     H 1482   8.158   7.402   3.881  0.7802 -1.8532 -3.1065
   11MOL0     H 1483   8.304   7.495   3.854 -1.3331  1.3174  1.5436
   11MOL0     H 1484   8.016   7.589   3.777  0.8746 -2.7405 -0.8124
   11MOL0     H 1485   8.095   7.656   3.907  1.7859  0.4342 -0.0235
   11MOL0     H 1486   8.162   7.677   3.612 -2.1522  3.9142 -2.1121
   11MOL0     H 1487   8.281   7.742   3.719  0.5474 -0.3519 -2.3692
   11MOL0     H 1488   8.111   7.890   3.819  0.7722  1.3957 -0.5644
   11MOL0     H 1489   7.990   7.819   3.720  0.4973 -2.1466  2.5122
   11MOL0     H 1490   8.117   7.892   3.514  0.2499 -0.0189  0.2524
   11MOL0     H 1491   8.047   8.024   3.608  0.2944 -0.3532  1.7788
   11MOL0     H 1492   8.338   7.944   3.605 -0.5865 -2.1171  0.3635
   11MOL0     H 1493   8.283   8.033   3.742  0.5445  1.3804  0.8275
   11MOL0     H 1494   8.388   8.178   3.575  0.3483 -0.2337 -1.9700
   11MOL0     H 1495   8.218   8.226   3.575  0.1079  0.8029 -2.1579
   11MOL0     H 1496   8.295   8.225   3.360 -2.3330 -0.8781 -3.4131
   11MOL0     H 1497   8.189   8.086   3.367 -0.3301 -0.6266  0.5860
   11MOL0     H 1498   8.200   7.310   3.470  2.2352  0.4524 -1.6364
   11MOL0     H 1499   8.343   7.114   3.394 -2.6089 -0.4462  0.3617
   11MOL0     H 1500   8.758   6.903   3.598  3.3796 -0.4730  0.2771
   11MOL0     H 1501   8.962   6.721   3.587 -1.8402 -0.9371  0.8378
   11MOL0     H 1502   9.224   6.243   4.600  0.4752 -2.3606 -0.8088
   11MOL0     H 1503   9.408   6.073   4.535  2.4453 -2.0008  1.0296
   11MOL0     H 1504   9.681   5.864   4.485  2.0493  2.3784  0.4718
   11MOL0     H 1505   9.783   5.661   4.384  3.9307  0.7972  0.5941
   11MOL0     H 1506   9.821   5.293   4.597 -1.9109  0.9364 -2.0004
   11MOL0     H 1507   9.927   5.268   4.464  0.9394 -1.0976  0.9685
   11MOL0     H 1508  10.060   5.239   4.672  0.9318  0.2918  0.8431
   11MOL0     H 1509  10.026   5.411   4.714  2.2841  0.5301 -0.2597
   11MOL0     H 1510  10.167   5.328   4.447  1.0719 -0.9567  0.7172
   11MOL0     H 1511  10.151   5.492   4.509 -3.7900  0.2061 -0.6977
   11MOL0     H 1512  10.374   5.353   4.529 -1.6028 -3.1156 -2.3605
   11MOL0     H 1513  10.290   5.250   4.639 -0.1331 -0.4276 -0.9846
   11MOL0     H 1514  10.313   5.589   4.889  3.6555 -1.3770  2.3957
   11MOL0     H 1515   9.813   5.477   4.770  0.1411  0.0025  0.5074
   11MOL0     H 1516   9.658   5.632   4.968 -3.3528  2.5042 -2.7640
   11MOL0     H 1517   9.843   5.628   4.937  1.1507  3.0822  2.6824
   11MOL0     H 1518   9.758   5.775   4.952  1.9933 -0.0295  0.1389
   12MOL0     O 1519   6.679   6.177   0.615  0.2450 -0.2512 -1.2010
   12MOL0     C 1520   6.769   6.150   0.693  0.2276 -1.0797 -0.0674
   12MOL0     O 1521   6.767   6.185   0.819 -0.3351  0.1968  0.0432
   12MOL0     C 1522   6.654   6.225   0.898 -0.0367  0.6911 -0.2082
   12MOL0     C 1523   6.516   6.224   0.868  0.3842  1.3650  0.4015
   12MOL0     C 1524   6.415   6.267   0.960 -0.3084  0.4574  0.3630
   12MOL0     C 1525   6.464   6.319   1.080  0.3703 -0.1112 -0.1044
   12MOL0     O 1526   6.393   6.400   1.174 -0.1350 -0.1314 -0.2581
   12MOL0     C 1527   6.266   6.335   1.211 -0.1455 -0.0664 -0.0411
   12MOL0     C 1528   6.255   6.348   1.361 -0.1025 -0.0695 -0.0384
   12MOL0     C 1529   6.295   6.486   1.422  0.1458  1.3477  0.0911
   12MOL0     C 1530   6.293   6.483   1.569 -0.1115 -1.3113 -0.4526
   12MOL0     C 1531   6.280   6.621   1.637  0.1709  0.3303  0.1793
   12MOL0     C 1532   6.133   6.655   1.647 -0.3657 -0.2025  0.0075
   12MOL0     C 1533   6.127   6.786   1.732 -0.6099 -0.9543  0.2107
   12MOL0     C 1534   5.997   6.818   1.794  0.1056 -0.5156  1.0574
   12MOL0     N 1535   5.889   6.857   1.701  0.2424 -0.5673 -0.0520
   12MOL0     C 1536   5.815   6.771   1.624  1.1307  0.4761  0.8166
   12MOL0     C 1537   5.715   6.844   1.569  0.5009 -0.4077  0.0042
   12MOL0     C 1538   5.606   6.811   1.463 -0.2934  0.6148 -1.3893
   12MOL0     C 1539   5.672   6.839   1.324  0.4157 -0.7913 -0.1363
   12MOL0     C 1540   5.565   6.847   1.209  0.2283  0.6183 -1.0147
   12MOL0     C 1541   5.615   6.855   1.066 -0.3458 -0.7490 -0.1951
   12MOL0     O 1542   5.670   6.730   1.025  0.8773 -0.0467 -0.1321
   12MOL0     C 1543   5.778   6.723   0.948 -0.6592  0.2729  0.2426
   12MOL0     C 1544   5.843   6.832   0.886  0.1633  0.1225 -0.7519
   12MOL0     C 1545   5.969   6.817   0.825  0.0021  0.3318  0.1165
   12MOL0     C 1546   6.037   6.943   0.779  0.8524  0.2528 -0.0465
   12MOL0     C 1547   6.029   6.687   0.832 -0.6691 -0.0204  0.3848
   12MOL0     C 1548   6.160   6.662   0.768  0.0834 -0.4419  0.0539
   12MOL0     O 1549   6.252   6.586   0.840 -0.2539  0.6004  0.5281
   12MOL0     C 1550   6.380   6.610   0.803  0.2039 -0.4408 -0.0941
   12MOL0     C 1551   6.449   6.522   0.720  0.5236  0.2657 -0.4319
   12MOL0     C 1552   6.590   6.519   0.707 -0.2408 -0.0286  0.4490
   12MOL0     C 1553   6.660   6.623   0.770 -1.1215 -0.0745  0.0903
   12MOL0     O 1554   6.797   6.637   0.758  0.0168  0.2157  0.1572
   12MOL0     C 1555   6.858   6.632   0.629  0.3428 -0.0170 -0.0417
   12MOL0     C 1556   6.955   6.749   0.615  0.3541  0.9631 -0.5723
   12MOL0     C 1557   7.054   6.707   0.492 -0.3166 -0.1632  0.2198
   12MOL0     C 1558   7.173   6.624   0.532  0.2937  0.4105 -0.9406
   12MOL0     C 1559   7.277   6.666   0.425 -0.1227 -0.2113 -0.3140
   12MOL0     C 1560   7.402   6.590   0.456 -0.8602  0.4078 -0.4552
   12MOL0     C 1561   7.537   6.668   0.422  0.7010  0.8704  0.2479
   12MOL0     C 1562   7.659   6.602   0.490  0.4899 -0.3104  0.1495
   12MOL0    Cl 1563   7.665   6.646   0.669 -0.0678 -0.3307 -0.0058
   12MOL0     C 1564   6.591   6.721   0.835  0.9051 -0.7985  0.2666
   12MOL0     C 1565   6.450   6.722   0.845 -0.9945 -0.1009 -0.0022
   12MOL0     O 1566   6.170   6.707   0.656 -1.0126 -0.4891 -0.4897
   12MOL0     C 1567   5.963   6.580   0.890 -0.0561 -1.6282  0.3784
   12MOL0     C 1568   5.836   6.598   0.944  0.9051 -0.2765 -0.1003
   12MOL0     N 1569   5.724   6.983   1.613  0.5801  0.8315  1.1870
   12MOL0     N 1570   5.839   6.987   1.675 -0.2050 -0.6402  0.2211
   12MOL0     C 1571   6.602   6.329   1.110  0.6937 -0.1692 -0.1473
   12MOL0     C 1572   6.683   6.285   1.019 -0.5716  0.3963  0.3987
   12MOL0     C 1573   6.882   6.075   0.641  0.0672 -1.0330 -0.5861
   12MOL0     C 1574   6.993   6.062   0.717  0.2081 -0.1553 -0.5408
   12MOL0     C 1575   7.106   5.991   0.675  1.1507 -0.6691  0.7415
   12MOL0     C 1576   7.105   5.924   0.559 -0.0684  0.3876  0.3688
   12MOL0     O 1577   7.222   5.853   0.532  0.5302  0.3731  0.8158
   12MOL0     C 1578   7.222   5.738   0.453 -0.5895  1.0844  0.3001
   12MOL0     C 1579   7.237   5.613   0.542 -0.2036 -0.6762  0.0911
   12MOL0     C 1580   7.373   5.578   0.599  0.1945  0.2362 -0.1353
   12MOL0     C 1581   7.379   5.432   0.652  0.3656  0.0109  0.5509
   12MOL0     C 1582   7.331   5.417   0.786  0.0599  0.7889 -1.0699
   12MOL0     C 1583   7.290   5.419   0.899  0.3815 -0.2016 -0.0386
   12MOL0     C 1584   6.989   5.925   0.481  0.9957  0.1083 -0.6818
   12MOL0     C 1585   6.878   5.995   0.523  0.2632 -0.2854 -0.3454
   12MOL0     C 1586   6.760   5.981   0.433 -0.4164  0.1952  0.0341
   12MOL0     H 1587   6.487   6.192   0.768 -0.2363  0.9274  0.7160
   12MOL0     H 1588   6.312   6.255   0.927 -0.2121 -2.1980  0.8041
   12MOL0     H 1589   6.271   6.226   1.206  0.3020 -0.0443 -0.1451
   12MOL0     H 1590   6.182   6.364   1.147 -0.7873 -1.6577  0.0358
   12MOL0     H 1591   6.147   6.342   1.375  0.1351  0.0866  2.3779
   12MOL0     H 1592   6.301   6.260   1.407  0.5035 -0.2346 -0.9314
   12MOL0     H 1593   6.393   6.523   1.393  0.8210  0.0051  0.5685
   12MOL0     H 1594   6.225   6.557   1.377  0.3222  0.9305 -0.8609
   12MOL0     H 1595   6.201   6.435   1.605  0.6939 -2.0785  0.6661
   12MOL0     H 1596   6.379   6.426   1.606  1.5683  1.1551 -0.3249
   12MOL0     H 1597   6.323   6.704   1.580 -3.0433  2.2221  0.3006
   12MOL0     H 1598   6.329   6.611   1.735  2.4907  0.9852 -0.8482
   12MOL0     H 1599   6.098   6.673   1.545 -0.1842 -1.4364 -0.2867
   12MOL0     H 1600   6.073   6.576   1.694  1.4892 -0.4808  2.0835
   12MOL0     H 1601   6.157   6.873   1.673  0.3118 -0.1267  1.8238
   12MOL0     H 1602   6.207   6.788   1.807  0.5009  2.1087 -0.8943
   12MOL0     H 1603   5.967   6.727   1.848 -1.6846 -0.2663  0.5595
   12MOL0     H 1604   6.010   6.902   1.862  2.0919 -0.7343  1.0016
   12MOL0     H 1605   5.817   6.663   1.610 -2.3048  0.2962  0.9549
   12MOL0     H 1606   5.513   6.865   1.481 -0.7451 -0.8254  1.0029
   12MOL0     H 1607   5.563   6.711   1.470  0.5652  0.1161 -2.7533
   12MOL0     H 1608   5.720   6.937   1.329  1.0299 -1.0480 -0.8568
   12MOL0     H 1609   5.752   6.769   1.301 -0.6915 -2.9751  2.1622
   12MOL0     H 1610   5.513   6.751   1.214 -0.3908  1.0200  0.8743
   12MOL0     H 1611   5.493   6.927   1.230 -0.1995  1.1106 -3.8623
   12MOL0     H 1612   5.527   6.884   1.007  1.1471  2.4392 -1.0893
   12MOL0     H 1613   5.687   6.936   1.082 -2.9286  1.4829  1.1674
   12MOL0     H 1614   5.796   6.929   0.897  0.0545 -0.1844  2.3503
   12MOL0     H 1615   5.957   7.010   0.747  1.5931  0.5493 -1.3401
   12MOL0     H 1616   6.097   6.939   0.687  2.1897  1.1306  0.7638
   12MOL0     H 1617   6.092   6.985   0.863  0.4487 -0.8857  0.8170
   12MOL0     H 1618   6.397   6.431   0.692 -3.3853  1.4735  2.0426
   12MOL0     H 1619   6.644   6.438   0.658  1.8289  1.2535  0.4710
   12MOL0     H 1620   6.913   6.537   0.617 -0.4127 -0.2562 -1.8723
   12MOL0     H 1621   6.784   6.621   0.550 -0.1167 -1.7070  0.5789
   12MOL0     H 1622   6.909   6.840   0.575  1.2732  0.9948 -1.6266
   12MOL0     H 1623   7.021   6.768   0.701 -1.9050 -1.4930  1.8710
   12MOL0     H 1624   7.079   6.801   0.443  1.6284  0.4161  2.1437
   12MOL0     H 1625   6.999   6.642   0.424 -1.7745 -1.2062  2.2624
   12MOL0     H 1626   7.159   6.516   0.534 -0.2222  0.4730 -1.1106
   12MOL0     H 1627   7.208   6.651   0.632 -2.8870  1.9719 -0.1250
   12MOL0     H 1628   7.244   6.648   0.323 -1.8188 -2.6748  0.5608
   12MOL0     H 1629   7.288   6.774   0.439  0.7877 -0.3433  0.0616
   12MOL0     H 1630   7.396   6.491   0.409 -0.3369 -0.5584  1.4098
   12MOL0     H 1631   7.404   6.566   0.562  0.1767 -0.6748 -0.6998
   12MOL0     H 1632   7.532   6.777   0.437 -0.1922  1.2291 -2.1266
   12MOL0     H 1633   7.551   6.649   0.315  1.1508 -0.3596  0.5146
   12MOL0     H 1634   7.750   6.639   0.441 -0.5984  2.1370 -0.1688
   12MOL0     H 1635   7.653   6.494   0.470  0.0536  0.2238 -3.2525
   12MOL0     H 1636   6.643   6.809   0.873 -1.2608  0.2848  0.8715
   12MOL0     H 1637   6.395   6.793   0.907 -0.2782  1.2694 -0.8842
   12MOL0     H 1638   6.023   6.490   0.904  0.4875 -1.4741 -0.7541
   12MOL0     H 1639   5.771   6.520   0.982 -1.0109 -0.4600 -3.4149
   12MOL0     H 1640   6.642   6.354   1.207 -0.0558  1.0732 -0.1380
   12MOL0     H 1641   6.785   6.283   1.056 -0.7459  0.5663  0.8982
   12MOL0     H 1642   7.004   6.108   0.815  1.4556 -0.8913 -0.3090
   12MOL0     H 1643   7.196   5.981   0.734  0.7620 -2.3153  1.0945
   12MOL0     H 1644   7.134   5.724   0.389  0.2826 -0.1145 -0.6867
   12MOL0     H 1645   7.311   5.743   0.390 -0.1305  3.8112  1.0501
   12MOL0     H 1646   7.197   5.535   0.477 -0.3624  0.5607 -1.3605
   12MOL0     H 1647   7.165   5.619   0.624  0.2862 -1.9305  0.6228
   12MOL0     H 1648   7.452   5.601   0.526  1.0798 -0.1331  0.6936
   12MOL0     H 1649   7.383   5.647   0.683  0.3863  0.7401 -0.5645
   12MOL0     H 1650   7.482   5.397   0.638  1.0050  2.3939 -1.2748
   12MOL0     H 1651   7.310   5.367   0.596 -2.3829  2.2489  1.1271
   12MOL0     H 1652   7.242   5.419   0.995  1.1492  1.0853  0.3733
   12MOL0     H 1653   6.984   5.876   0.385  0.9688 -0.7883 -0.2392
   12MOL0     H 1654   6.738   6.081   0.393 -1.8655  1.5094  3.6567
   12MOL0     H 1655   6.786   5.906   0.358 -2.0836 -3.0068  2.4071
   12MOL0     H 1656   6.674   5.936   0.484  1.2817 -1.6546  1.4257
   13MOL0     O 1657  11.479   4.490   9.374  0.0951  0.3321 -0.3853
   13MOL0     C 1658  11.396   4.435   9.441 -0.4388  0.1194  1.0104
   13MOL0     O 1659  11.353   4.477   9.567 -0.4377 -0.4217 -0.0695
   13MOL0     C 1660  11.392   4.586   9.634  0.7468 -0.4528 -0.1717
   13MOL0     C 1661  11.323   4.608   9.759 -0.4126 -0.7235  0.5477
   13MOL0     C 1662  11.337   4.723   9.830 -0.2521 -0.8202  0.1751
   13MOL0     C 1663  11.441   4.813   9.792  0.4024 -0.7607 -0.3095
   13MOL0     O 1664  11.481   4.917   9.876 -0.8868  0.3659  0.6065
   13MOL0     C 1665  11.512   5.051   9.815  0.0634  0.2982  1.3555
   13MOL0     C 1666  11.552   5.143   9.929  0.1427  0.1723  0.3374
   13MOL0     C 1667  11.603   5.278   9.883  0.1595  0.3844  0.2443
   13MOL0     C 1668  11.686   5.291   9.754 -0.2890  0.4838 -1.1909
   13MOL0     C 1669  11.765   5.427   9.737  0.6427  0.5454 -0.1034
   13MOL0     C 1670  11.865   5.461   9.848 -0.6501 -0.6043 -0.5705
   13MOL0     C 1671  12.017   5.473   9.802 -0.3134  0.2804  0.1215
   13MOL0     C 1672  12.055   5.599   9.727  0.0115  0.3730 -0.5525
   13MOL0     N 1673  12.196   5.587   9.678  0.0413  0.9659 -0.5832
   13MOL0     C 1674  12.226   5.554   9.549 -0.5042  0.6365 -1.4288
   13MOL0     C 1675  12.366   5.569   9.551 -0.4894 -0.9870 -0.1500
   13MOL0     C 1676  12.464   5.554   9.441  1.0752 -0.6099 -0.3358
   13MOL0     C 1677  12.574   5.457   9.484  0.2826 -0.3014  0.2349
   13MOL0     C 1678  12.710   5.502   9.434 -0.3039  0.5661  0.7188
   13MOL0     C 1679  12.749   5.494   9.282  0.7368 -0.3888 -0.9068
   13MOL0     O 1680  12.887   5.522   9.249  0.4505 -0.2759 -0.4168
   13MOL0     C 1681  12.978   5.425   9.264  0.4223 -0.2807 -0.3595
   13MOL0     C 1682  12.966   5.304   9.332  0.5970 -0.8940  0.4149
   13MOL0     C 1683  13.061   5.206   9.326 -0.2125 -0.6239 -0.1733
   13MOL0     C 1684  13.031   5.079   9.394  0.0531  0.2500  0.4216
   13MOL0     C 1685  13.178   5.227   9.247  0.6213 -0.0383 -0.3365
   13MOL0     C 1686  13.286   5.122   9.231  0.6136 -0.2805  0.2198
   13MOL0     O 1687  13.338   5.109   9.105  0.5204 -0.6593 -0.5668
   13MOL0     C 1688  13.442   5.034   9.080 -0.4717 -0.0226  0.2939
   13MOL0     C 1689  13.543   5.092   9.007 -0.2931 -0.6144 -0.0443
   13MOL0     C 1690  13.657   5.028   8.979 -0.9182 -1.0125  0.0441
   13MOL0     C 1691  13.670   4.893   9.023 -1.8998  0.5065 -0.6350
   13MOL0     O 1692  13.787   4.819   8.986  0.0071  0.2512  0.4126
   13MOL0     C 1693  13.802   4.807   8.843 -0.1055  0.3712  0.2153
   13MOL0     C 1694  13.885   4.686   8.816  0.3114 -0.0654 -0.4252
   13MOL0     C 1695  13.809   4.554   8.840  0.5223  0.2486  0.3656
   13MOL0     C 1696  13.909   4.453   8.900  0.5269  0.5451  0.6101
   13MOL0     C 1697  13.857   4.302   8.903 -0.3325 -0.5162 -0.4105
   13MOL0     C 1698  13.947   4.193   8.851  0.3589  0.7850  0.5078
   13MOL0     C 1699  14.021   4.120   8.972 -0.1192 -0.2756  0.3753
   13MOL0     C 1700  14.134   4.026   8.928 -0.3617  0.1122  0.2330
   13MOL0    Cl 1701  14.091   3.892   8.824  0.2956 -0.0656  0.0785
   13MOL0     C 1702  13.562   4.826   9.080  0.4857 -0.8799  0.3466
   13MOL0     C 1703  13.447   4.902   9.119 -0.4311  0.4386 -0.4694
   13MOL0     O 1704  13.304   5.042   9.321  0.0424  0.3229 -0.3183
   13MOL0     C 1705  13.188   5.345   9.177  1.0489 -0.4929  0.0816
   13MOL0     C 1706  13.099   5.451   9.198 -0.0070  0.9144 -0.5586
   13MOL0     N 1707  12.410   5.621   9.669 -0.5812  0.0458  0.1006
   13MOL0     N 1708  12.309   5.623   9.748 -0.0227 -0.8982 -0.1045
   13MOL0     C 1709  11.518   4.780   9.688 -0.0443  1.0538 -0.0430
   13MOL0     C 1710  11.490   4.670   9.603 -0.6093  0.2134 -0.4000
   13MOL0     C 1711  11.340   4.294   9.396 -0.1473 -0.1042  0.3109
   13MOL0     C 1712  11.254   4.221   9.472 -1.0040 -0.1514  0.9572
   13MOL0     C 1713  11.179   4.108   9.432  0.0328  0.3069 -0.0886
   13MOL0     C 1714  11.204   4.059   9.303 -0.2984  0.1742  0.1194
   13MOL0     O 1715  11.143   3.943   9.262  0.0749 -0.1206  0.9506
   13MOL0     C 1716  11.200   3.830   9.322 -0.4260  0.3828 -0.5736
   13MOL0     C 1717  11.143   3.705   9.257  0.2261 -0.2366  0.9500
   13MOL0     C 1718  11.221   3.582   9.289  0.2963  0.5957  0.6517
   13MOL0     C 1719  11.239   3.553   9.434 -0.7424 -0.4364 -0.0793
   13MOL0     C 1720  11.295   3.417   9.461 -0.1107  0.1914 -0.0899
   13MOL0     C 1721  11.344   3.311   9.494  0.1365 -0.6907  0.0380
   13MOL0     C 1722  11.296   4.136   9.225  0.3180  0.5524  0.5023
   13MOL0     C 1723  11.365   4.250   9.262 -0.7235 -0.6602 -0.2404
   13MOL0     C 1724  11.456   4.313   9.169  0.4977  0.9516  0.5712
   13MOL0     H 1725  11.265   4.525   9.797 -0.6905 -1.2303 -0.9514
   13MOL0     H 1726  11.292   4.740   9.928 -0.8508 -0.8994 -0.0826
   13MOL0     H 1727  11.418   5.082   9.769 -1.0151 -0.6448  2.8235
   13MOL0     H 1728  11.594   5.033   9.745  0.8607 -1.9887  2.7936
   13MOL0     H 1729  11.458   5.156   9.984 -0.4270 -1.0272 -0.3153
   13MOL0     H 1730  11.638   5.102   9.983  0.7866 -1.5833 -1.8673
   13MOL0     H 1731  11.515   5.343   9.872  0.0179 -0.1163 -2.2500
   13MOL0     H 1732  11.674   5.310   9.959  1.0984  0.8137 -0.7779
   13MOL0     H 1733  11.760   5.210   9.743 -3.4109 -2.4077 -2.8857
   13MOL0     H 1734  11.619   5.288   9.667 -2.0740 -0.6299  0.1433
   13MOL0     H 1735  11.685   5.502   9.734 -1.2516 -1.3995 -2.6381
   13MOL0     H 1736  11.815   5.432   9.640  0.9751 -3.7323 -0.3510
   13MOL0     H 1737  11.844   5.558   9.894  1.0111  0.1597 -1.3382
   13MOL0     H 1738  11.864   5.393   9.934  3.8772  2.0448  1.9469
   13MOL0     H 1739  12.040   5.386   9.740 -0.6903  0.0996  0.2343
   13MOL0     H 1740  12.075   5.468   9.895 -0.8436 -2.1591  0.3831
   13MOL0     H 1741  11.986   5.623   9.646 -0.2920  2.4689  0.2817
   13MOL0     H 1742  12.044   5.679   9.800 -2.4685 -3.3128  3.6076
   13MOL0     H 1743  12.159   5.536   9.465 -0.9702  0.7548 -1.0886
   13MOL0     H 1744  12.507   5.653   9.429  1.6285 -0.6719  0.9524
   13MOL0     H 1745  12.412   5.523   9.349  1.5190  1.6798 -1.4142
   13MOL0     H 1746  12.584   5.441   9.592 -0.1428  0.0651  0.3333
   13MOL0     H 1747  12.567   5.359   9.435  1.6645  0.1090 -0.8351
   13MOL0     H 1748  12.722   5.606   9.468  1.4625  0.1530  1.4522
   13MOL0     H 1749  12.786   5.441   9.483 -1.6598 -1.1204  0.8163
   13MOL0     H 1750  12.730   5.397   9.234 -4.2201 -0.8337  1.3917
   13MOL0     H 1751  12.689   5.566   9.225 -0.4861  0.7955  1.7357
   13MOL0     H 1752  12.876   5.272   9.384  0.3081 -1.8658 -0.6103
   13MOL0     H 1753  12.929   5.067   9.430  0.2724 -3.7536  0.1977
   13MOL0     H 1754  13.093   5.057   9.482  0.6153  0.0066 -0.0228
   13MOL0     H 1755  13.040   4.998   9.321 -0.3903  0.2439  0.3718
   13MOL0     H 1756  13.531   5.192   8.967  2.3564 -0.3318 -0.2469
   13MOL0     H 1757  13.735   5.074   8.919  1.5747 -1.0462  2.9921
   13MOL0     H 1758  13.704   4.796   8.795  0.8547 -0.9109 -1.6143
   13MOL0     H 1759  13.846   4.898   8.801  1.2632  0.6161  2.0712
   13MOL0     H 1760  13.918   4.682   8.712 -1.1948 -1.4877 -0.8898
   13MOL0     H 1761  13.968   4.695   8.886  0.6505 -0.0652 -0.8272
   13MOL0     H 1762  13.766   4.524   8.743  1.0849 -2.3641  0.8413
   13MOL0     H 1763  13.729   4.549   8.913  0.3193 -0.3366  0.1095
   13MOL0     H 1764  13.942   4.490   8.998  0.3395  0.3288  0.7574
   13MOL0     H 1765  13.990   4.461   8.827 -0.0095  2.9820  0.1855
   13MOL0     H 1766  13.820   4.287   9.006 -1.2474  3.4479 -0.0031
   13MOL0     H 1767  13.769   4.301   8.838 -0.7336 -1.0732  0.1252
   13MOL0     H 1768  14.017   4.227   8.774  1.8875 -1.3217  0.8836
   13MOL0     H 1769  13.900   4.105   8.805  1.2085  1.3871 -1.6736
   13MOL0     H 1770  13.954   4.065   9.038  3.7711 -3.3347  2.1768
   13MOL0     H 1771  14.066   4.196   9.036  1.1547 -0.3735 -0.3502
   13MOL0     H 1772  14.184   3.986   9.017  1.9144 -0.4960 -1.2287
   13MOL0     H 1773  14.208   4.091   8.882 -0.5409  0.0373 -0.1654
   13MOL0     H 1774  13.544   4.720   9.095 -1.9022 -0.5165  0.4924
   13MOL0     H 1775  13.360   4.864   9.173 -0.6088  1.8372  0.2967
   13MOL0     H 1776  13.283   5.343   9.124  0.7080 -2.5781 -0.5291
   13MOL0     H 1777  13.117   5.544   9.145 -0.0831 -0.0179 -2.2701
   13MOL0     H 1778  11.611   4.833   9.670 -0.1369  0.1553 -4.2791
   13MOL0     H 1779  11.563   4.641   9.528  0.9049  0.2679  0.9932
   13MOL0     H 1780  11.231   4.255   9.573  1.4954  0.6159  1.3220
   13MOL0     H 1781  11.095   4.068   9.489  0.9224 -0.1048  0.9587
   13MOL0     H 1782  11.309   3.838   9.315 -0.4535  0.2387 -1.1529
   13MOL0     H 1783  11.188   3.828   9.431  1.0088  0.2294 -0.3929
   13MOL0     H 1784  11.142   3.712   9.148  1.6487  4.5573  0.9944
   13MOL0     H 1785  11.036   3.706   9.280  0.4138  0.0021  1.8466
   13MOL0     H 1786  11.183   3.490   9.242  0.6795  0.2714  0.9760
   13MOL0     H 1787  11.317   3.607   9.244 -0.1139  1.6639  0.3452
   13MOL0     H 1788  11.140   3.546   9.479 -0.2831 -1.5412  0.8007
   13MOL0     H 1789  11.299   3.634   9.476  2.7362 -2.9471  0.2070
   13MOL0     H 1790  11.384   3.214   9.513 -2.3668 -1.8036  0.0383
   13MOL0     H 1791  11.331   4.090   9.133 -1.0065  2.3001 -0.9382
   13MOL0     H 1792  11.559   4.324   9.204  0.9358  2.2417 -0.9776
   13MOL0     H 1793  11.467   4.250   9.080 -0.8835 -2.2299  2.4721
   13MOL0     H 1794  11.402   4.404   9.138  0.7679  0.3329 -1.9685
   14MOL0     O 1795   4.107   2.461   7.902 -0.0784  0.3152  0.2488
   14MOL0     C 1796   4.018   2.501   7.826 -0.3473  0.6877 -0.4142
   14MOL0     O 1797   3.931   2.432   7.757  0.3452  0.4420 -0.5137
   14MOL0     C 1798   3.951   2.298   7.765 -0.6904 -0.8248 -0.2160
   14MOL0     C 1799   4.028   2.240   7.658 -0.0387 -1.2315 -1.1127
   14MOL0     C 1800   4.049   2.107   7.657 -0.0545  0.8973  0.0440
   14MOL0     C 1801   4.004   2.023   7.760 -0.8400  0.2593 -0.5999
   14MOL0     O 1802   4.039   1.893   7.757  0.7469 -0.1216 -0.4992
   14MOL0     C 1803   4.051   1.826   7.887  0.3276 -0.4086 -0.0071
   14MOL0     C 1804   4.094   1.688   7.853 -0.3310 -0.5007 -0.2979
   14MOL0     C 1805   4.119   1.609   7.980  0.5814 -0.4076 -0.1038
   14MOL0     C 1806   4.124   1.460   7.946 -0.4524  0.3337  0.4768
   14MOL0     C 1807   4.192   1.384   8.065 -0.2638 -0.1131 -0.8272
   14MOL0     C 1808   4.232   1.235   8.042  0.4470  0.5799  0.7542
   14MOL0     C 1809   4.115   1.134   8.022  0.0989 -0.2551 -0.6237
   14MOL0     C 1810   4.177   0.998   7.991  0.0391  1.1851 -0.1429
   14MOL0     N 1811   4.244   0.922   8.097  0.7682  0.7494  0.1725
   14MOL0     C 1812   4.226   0.933   8.235  0.2138  0.2952 -0.1717
   14MOL0     C 1813   4.335   0.869   8.287 -0.3862 -1.4262  0.2236
   14MOL0     C 1814   4.343   0.852   8.436 -0.7177  0.1482 -0.1991
   14MOL0     C 1815   4.467   0.917   8.505 -0.3228  1.1227 -0.1468
   14MOL0     C 1816   4.495   1.053   8.459 -0.6067 -0.6544 -0.0013
   14MOL0     C 1817   4.374   1.153   8.469  0.3357 -0.7723  0.2961
   14MOL0     O 1818   4.411   1.277   8.406 -0.5140 -0.2439 -0.0800
   14MOL0     C 1819   4.317   1.371   8.390 -0.7693 -0.8949 -0.4105
   14MOL0     C 1820   4.178   1.374   8.422 -0.3268  0.1901  0.7058
   14MOL0     C 1821   4.093   1.485   8.412 -0.4016  0.4613 -0.6267
   14MOL0     C 1822   3.945   1.461   8.442 -0.1187  0.1919  0.5971
   14MOL0     C 1823   4.144   1.609   8.380 -0.2350  0.4002 -0.4334
   14MOL0     C 1824   4.072   1.736   8.357  0.5397 -0.0556 -0.1444
   14MOL0     O 1825   4.073   1.800   8.238  0.2350 -0.4710  0.7248
   14MOL0     C 1826   4.028   1.938   8.226 -0.9189 -0.7661 -1.4934
   14MOL0     C 1827   4.119   2.042   8.208 -0.7159  0.5604  0.4957
   14MOL0     C 1828   4.071   2.175   8.207 -0.6668 -0.0790  0.4230
   14MOL0     C 1829   3.936   2.202   8.215  1.6471  1.1430 -0.7333
   14MOL0     O 1830   3.912   2.339   8.207  0.3116 -0.8056  0.2321
   14MOL0     C 1831   3.777   2.382   8.202  1.0010  1.1120  0.0533
   14MOL0     C 1832   3.782   2.534   8.190  0.9219  1.1057 -0.3221
   14MOL0     C 1833   3.642   2.606   8.166  0.0963  0.6956  0.9260
   14MOL0     C 1834   3.544   2.543   8.068 -0.9484 -0.1031  0.1608
   14MOL0     C 1835   3.605   2.522   7.929  0.7650  0.4196  0.3514
   14MOL0     C 1836   3.510   2.472   7.823  0.2799  0.5423  0.0339
   14MOL0     C 1837   3.570   2.460   7.687 -0.0507 -0.6532  0.0260
   14MOL0     C 1838   3.592   2.602   7.623 -0.7727  0.5456  0.4012
   14MOL0    Cl 1839   3.455   2.710   7.627  0.1681  0.5319  0.2189
   14MOL0     C 1840   3.837   2.093   8.218 -0.5111 -0.2739 -0.0547
   14MOL0     C 1841   3.883   1.964   8.236 -0.1772  0.0376  0.1165
   14MOL0     O 1842   4.006   1.773   8.455 -0.9520 -1.5833 -0.1698
   14MOL0     C 1843   4.284   1.607   8.354  1.4050 -0.0057  0.5511
   14MOL0     C 1844   4.372   1.493   8.359  0.0984  0.7273 -0.5756
   14MOL0     N 1845   4.419   0.826   8.190  0.2768 -0.5261 -0.0932
   14MOL0     N 1846   4.363   0.857   8.073 -0.3771 -0.1390 -0.3611
   14MOL0     C 1847   3.906   2.078   7.857  0.6637 -0.3105  0.1471
   14MOL0     C 1848   3.875   2.217   7.848 -0.4672 -0.0792 -0.1710
   14MOL0     C 1849   4.020   2.642   7.784 -0.6534 -0.1186 -0.2139
   14MOL0     C 1850   3.959   2.681   7.660  0.6051 -0.2838 -0.6825
   14MOL0     C 1851   3.954   2.806   7.608  0.0560 -0.1660  0.5235
   14MOL0     C 1852   4.028   2.905   7.684  0.4310  0.5988 -0.2542
   14MOL0     O 1853   4.024   3.033   7.621 -0.1651 -0.4649  0.2884
   14MOL0     C 1854   3.990   3.147   7.707  1.1058 -1.3286  0.3790
   14MOL0     C 1855   3.840   3.154   7.721  0.2165  0.7387 -1.0323
   14MOL0     C 1856   3.753   3.151   7.591  0.4119 -0.3979  0.5224
   14MOL0     C 1857   3.610   3.216   7.613 -0.1209  0.4056  0.3438
   14MOL0     C 1858   3.527   3.224   7.498 -0.3127  0.5693 -0.8748
   14MOL0     C 1859   3.419   3.225   7.334  0.3193 -0.9843  0.5486
   14MOL0     C 1860   4.095   2.867   7.800 -0.0124  0.4842 -0.2066
   14MOL0     C 1861   4.085   2.741   7.859 -0.1645  0.0869  0.0358
   14MOL0     C 1862   4.143   2.732   7.999  0.0313  0.8588  0.6799
   14MOL0     H 1863   4.081   2.298   7.582 -3.9190  0.4877 -2.7528
   14MOL0     H 1864   4.122   2.048   7.603  1.5097 -1.4243  4.2421
   14MOL0     H 1865   3.952   1.826   7.933  0.7420  2.6500  1.1541
   14MOL0     H 1866   4.118   1.877   7.957  0.3305  1.2360 -1.1382
   14MOL0     H 1867   4.022   1.638   7.787 -1.4006  1.9247 -1.1099
   14MOL0     H 1868   4.194   1.691   7.808  0.3497  0.8379  1.1783
   14MOL0     H 1869   4.219   1.636   8.015 -0.6243  4.2012  0.4664
   14MOL0     H 1870   4.036   1.615   8.052 -3.6690 -1.9946 -4.3446
   14MOL0     H 1871   4.019   1.432   7.936 -0.6936  0.5605  2.1574
   14MOL0     H 1872   4.172   1.433   7.851 -4.1520  0.0842 -1.5119
   14MOL0     H 1873   4.132   1.394   8.156  2.5323 -2.3972  1.4278
   14MOL0     H 1874   4.295   1.418   8.076  0.9269 -3.4422 -0.4560
   14MOL0     H 1875   4.297   1.229   7.954 -1.6981  3.3681 -1.2250
   14MOL0     H 1876   4.286   1.199   8.130  1.1301 -0.4772 -0.0693
   14MOL0     H 1877   4.055   1.171   7.938  1.6473  1.7432 -0.9219
   14MOL0     H 1878   4.058   1.132   8.115 -0.6784  0.9295 -1.0407
   14MOL0     H 1879   4.096   0.935   7.952  0.2035  0.2331  1.0140
   14MOL0     H 1880   4.245   1.013   7.907 -2.2557  0.4131 -2.2644
   14MOL0     H 1881   4.140   0.979   8.283  1.6213  2.2254  0.6649
   14MOL0     H 1882   4.359   0.744   8.450 -0.5222  0.2900  0.7844
   14MOL0     H 1883   4.255   0.890   8.489  0.6694  1.9301  0.9724
   14MOL0     H 1884   4.438   0.919   8.611 -1.6283 -0.2134 -0.4371
   14MOL0     H 1885   4.549   0.849   8.481 -1.0734  0.0383  0.2351
   14MOL0     H 1886   4.573   1.098   8.521  0.0295 -2.6575  0.7220
   14MOL0     H 1887   4.525   1.056   8.353  1.6964  0.5378  0.6078
   14MOL0     H 1888   4.287   1.107   8.423  0.6082  0.0654 -1.1202
   14MOL0     H 1889   4.350   1.164   8.575  4.4954 -3.5064  1.7558
   14MOL0     H 1890   4.131   1.281   8.452 -1.3802  0.3245 -0.4314
   14MOL0     H 1891   3.923   1.366   8.393  0.6231  1.6217 -2.8176
   14MOL0     H 1892   3.876   1.542   8.417  1.0118  1.7257  2.2130
   14MOL0     H 1893   3.928   1.440   8.548 -2.6338 -1.1858 -0.0071
   14MOL0     H 1894   4.224   2.032   8.185  0.0532  3.5734  2.1873
   14MOL0     H 1895   4.129   2.257   8.167 -1.2509 -1.1120 -2.9121
   14MOL0     H 1896   3.707   2.336   8.131  0.0062  1.2190  0.9434
   14MOL0     H 1897   3.722   2.363   8.294 -0.6631  0.6746 -0.9824
   14MOL0     H 1898   3.814   2.570   8.289 -2.7635  1.7247  0.8112
   14MOL0     H 1899   3.853   2.578   8.120 -0.5248  0.3447 -2.3292
   14MOL0     H 1900   3.657   2.711   8.141  1.8309 -0.0013 -1.2732
   14MOL0     H 1901   3.602   2.604   8.268 -1.9937 -0.3557  0.1530
   14MOL0     H 1902   3.457   2.606   8.045 -3.1222 -3.4061 -1.7316
   14MOL0     H 1903   3.506   2.446   8.103 -0.6733 -1.1600 -2.2460
   14MOL0     H 1904   3.636   2.622   7.898  0.8193  0.1657 -0.4442
   14MOL0     H 1905   3.695   2.460   7.936 -0.2095 -1.2700 -1.1736
   14MOL0     H 1906   3.419   2.532   7.822  0.9230  1.5448 -0.5870
   14MOL0     H 1907   3.479   2.374   7.859  0.6715  1.3409  2.7306
   14MOL0     H 1908   3.505   2.405   7.619 -1.5649  2.6393 -1.4436
   14MOL0     H 1909   3.664   2.407   7.703  0.0967 -1.2667 -2.4885
   14MOL0     H 1910   3.627   2.586   7.520  1.0452  0.7396  0.9455
   14MOL0     H 1911   3.674   2.646   7.681 -1.4035 -1.0902  2.6734
   14MOL0     H 1912   3.730   2.110   8.205 -0.4584  1.9151  1.7981
   14MOL0     H 1913   3.822   1.874   8.236  2.7774 -2.1961 -1.8741
   14MOL0     H 1914   4.335   1.703   8.359 -0.2235  0.8400  2.3405
   14MOL0     H 1915   4.480   1.497   8.347  1.0490  0.3544  4.8802
   14MOL0     H 1916   3.861   2.021   7.938 -0.2216  1.7915  1.2343
   14MOL0     H 1917   3.799   2.254   7.917 -0.8273  1.5534 -1.3799
   14MOL0     H 1918   3.896   2.608   7.610 -0.9290  1.4025 -1.3292
   14MOL0     H 1919   3.906   2.846   7.520 -0.1700 -0.3650  0.5539
   14MOL0     H 1920   4.026   3.142   7.810 -1.2812  0.1773  1.3879
   14MOL0     H 1921   4.022   3.244   7.669  0.0014 -1.0331  0.1583
   14MOL0     H 1922   3.821   3.243   7.783  0.5113  1.7272 -2.3202
   14MOL0     H 1923   3.798   3.063   7.765  0.4804  0.9344 -0.3689
   14MOL0     H 1924   3.809   3.202   7.513  0.3748 -3.0432 -1.3653
   14MOL0     H 1925   3.739   3.045   7.567 -1.0934  0.2251 -1.6314
   14MOL0     H 1926   3.628   3.317   7.650  0.2473  0.9279 -1.2222
   14MOL0     H 1927   3.559   3.167   7.697 -2.2789  1.3711 -0.3319
   14MOL0     H 1928   3.370   3.225   7.239 -0.2274 -2.3130  0.8201
   14MOL0     H 1929   4.159   2.943   7.844 -1.8169 -0.0195  3.7049
   14MOL0     H 1930   4.083   2.804   8.054 -1.0273  0.9312 -0.5229
   14MOL0     H 1931   4.145   2.631   8.041 -4.7300 -0.0397 -0.6265
   14MOL0     H 1932   4.244   2.773   8.007 -0.1587  2.2096 -2.5630
   15MOL0     O 1933   9.363   7.268   5.431  0.0335 -0.1775  0.0670
   15MOL0     C 1934   9.383   7.246   5.311 -0.2028  0.4776  0.3912
   15MOL0     O 1935   9.371   7.120   5.255 -0.0487  0.5099 -0.0354
   15MOL0     C 1936   9.381   7.013   5.338 -0.5106  0.2706  0.3731
   15MOL0     C 1937   9.276   6.958   5.426  0.1955  0.7049  0.0508
   15MOL0     C 1938   9.309   6.847   5.501  0.1301  0.1715  0.1007
   15MOL0     C 1939   9.427   6.789   5.506 -0.0836 -0.1819 -0.6715
   15MOL0     O 1940   9.464   6.674   5.581  1.1289 -0.1164 -0.4228
   15MOL0     C 1941   9.538   6.707   5.700 -0.0548 -0.2270 -0.0117
   15MOL0     C 1942   9.536   6.589   5.797 -0.1228  0.3373  0.3567
   15MOL0     C 1943   9.395   6.570   5.853  0.1419 -0.6202  0.4390
   15MOL0     C 1944   9.387   6.469   5.971 -0.1980 -0.5571 -0.1409
   15MOL0     C 1945   9.324   6.536   6.099 -0.0082 -0.0817  0.4419
   15MOL0     C 1946   9.171   6.563   6.086 -0.6639 -0.4302  0.1894
   15MOL0     C 1947   9.120   6.693   6.159  0.1334 -0.3036  0.2097
   15MOL0     C 1948   9.196   6.826   6.131  0.5981  0.0642 -0.7872
   15MOL0     N 1949   9.140   6.881   6.011  0.2887 -0.7074  0.9140
   15MOL0     C 1950   9.013   6.931   5.979 -0.1514  0.4255 -0.6391
   15MOL0     C 1951   9.011   6.963   5.850  0.1598 -0.5463  0.2735
   15MOL0     C 1952   8.891   7.011   5.761 -0.2341  0.1165 -1.1795
   15MOL0     C 1953   8.772   6.919   5.737  0.8561 -0.4099  0.0506
   15MOL0     C 1954   8.802   6.769   5.778 -0.0620  0.2809 -0.0183
   15MOL0     C 1955   8.693   6.664   5.737  1.2244  0.1964 -0.1825
   15MOL0     O 1956   8.687   6.653   5.594 -0.3139  0.0034 -0.2252
   15MOL0     C 1957   8.592   6.576   5.541  0.3065  0.5920 -0.4448
   15MOL0     C 1958   8.568   6.583   5.402  0.9927  0.0808 -0.1426
   15MOL0     C 1959   8.481   6.501   5.334  0.7216 -0.1247  0.8507
   15MOL0     C 1960   8.448   6.545   5.191 -0.2997 -0.1948  0.1890
   15MOL0     C 1961   8.411   6.396   5.405  0.3448 -0.0187 -0.5814
   15MOL0     C 1962   8.314   6.304   5.340  0.5089 -0.0721 -0.0179
   15MOL0     O 1963   8.248   6.208   5.420 -0.1605  0.5164  0.3860
   15MOL0     C 1964   8.225   6.076   5.370  0.4853  0.2114 -0.4622
   15MOL0     C 1965   8.276   6.012   5.255 -0.1610  0.4919 -0.1727
   15MOL0     C 1966   8.242   5.881   5.223 -0.2257 -0.4009 -0.3905
   15MOL0     C 1967   8.153   5.805   5.295 -0.5359 -0.2934 -0.7434
   15MOL0     O 1968   8.136   5.670   5.277 -0.8181  0.6524 -0.0338
   15MOL0     C 1969   8.094   5.630   5.144  0.4876 -0.3442  0.1177
   15MOL0     C 1970   7.945   5.648   5.132  0.5494  0.0060  0.4983
   15MOL0     C 1971   7.884   5.575   5.002  0.5011 -0.6508  0.0629
   15MOL0     C 1972   7.746   5.517   5.033  0.1144 -0.8681 -0.2047
   15MOL0     C 1973   7.670   5.458   4.911  0.9792 -0.1841 -0.1716
   15MOL0     C 1974   7.753   5.339   4.871  0.0856 -0.3599  0.2154
   15MOL0     C 1975   7.663   5.263   4.770  0.6311  0.5186  0.6899
   15MOL0     C 1976   7.732   5.149   4.706 -0.1534  0.5886  0.2694
   15MOL0    Cl 1977   7.596   5.050   4.635 -0.1621 -0.3934 -0.1863
   15MOL0     C 1978   8.090   5.869   5.399 -0.2515  0.4228 -0.0153
   15MOL0     C 1979   8.127   6.003   5.436 -0.0655  0.8962  0.0609
   15MOL0     O 1980   8.287   6.321   5.218 -0.0133 -0.3347 -0.6186
   15MOL0     C 1981   8.431   6.390   5.553 -1.1144  0.5841  1.0954
   15MOL0     C 1982   8.522   6.473   5.614  0.0076 -0.3948  0.0903
   15MOL0     N 1983   9.141   6.954   5.804  0.5327  0.7830  0.1505
   15MOL0     N 1984   9.217   6.902   5.893  0.8162  0.0346 -0.0735
   15MOL0     C 1985   9.526   6.837   5.415 -0.3792  0.8496 -0.4994
   15MOL0     C 1986   9.499   6.942   5.334 -1.0912 -0.0069  0.2330
   15MOL0     C 1987   9.400   7.369   5.224  0.2063  0.7600  0.5731
   15MOL0     C 1988   9.412   7.339   5.084  0.7344 -0.4385  0.2584
   15MOL0     C 1989   9.420   7.445   4.998  0.1243 -0.9518  0.7013
   15MOL0     C 1990   9.437   7.573   5.035 -0.6750  0.4774 -0.2701
   15MOL0     O 1991   9.423   7.685   4.952 -0.0226 -0.2361 -0.0300
   15MOL0     C 1992   9.431   7.672   4.814 -0.4416 -0.5211  1.2105
   15MOL0     C 1993   9.422   7.812   4.749  0.6508 -0.4791  0.1016
   15MOL0     C 1994   9.305   7.819   4.649 -0.2700 -0.0931 -0.0648
   15MOL0     C 1995   9.327   7.923   4.540  0.1367 -0.4220  0.6206
   15MOL0     C 1996   9.418   7.883   4.438 -0.0574 -0.0600 -0.4206
   15MOL0     C 1997   9.486   7.849   4.350  0.3400  0.9735  0.1999
   15MOL0     C 1998   9.438   7.602   5.170  0.3891 -0.3475  0.3183
   15MOL0     C 1999   9.428   7.503   5.270  1.0683  0.1212  0.1664
   15MOL0     C 2000   9.466   7.550   5.414  0.5722  0.2809 -0.2660
   15MOL0     H 2001   9.181   7.009   5.437 -1.4868 -2.3210  0.4616
   15MOL0     H 2002   9.243   6.804   5.576  1.7953  1.2481  2.3214
   15MOL0     H 2003   9.484   6.781   5.759  0.5296  0.6036 -0.5046
   15MOL0     H 2004   9.639   6.742   5.676  0.0955  0.4245  1.5030
   15MOL0     H 2005   9.576   6.503   5.742  0.9486  0.9789  0.1208
   15MOL0     H 2006   9.613   6.599   5.874 -0.6539  1.3384  0.7727
   15MOL0     H 2007   9.359   6.669   5.882  0.3144  0.1461 -1.7746
   15MOL0     H 2008   9.325   6.555   5.771  1.8408  3.1356 -1.9671
   15MOL0     H 2009   9.327   6.381   5.948 -0.0210 -0.6886 -0.1058
   15MOL0     H 2010   9.490   6.445   5.999 -0.1271 -0.7441 -0.5654
   15MOL0     H 2011   9.375   6.624   6.138  0.0706  0.0108  0.1289
   15MOL0     H 2012   9.324   6.462   6.180  1.1530 -1.0719 -0.4220
   15MOL0     H 2013   9.144   6.549   5.981 -0.7183  0.0489  0.1388
   15MOL0     H 2014   9.117   6.487   6.143  0.4435 -3.7466 -2.7954
   15MOL0     H 2015   9.128   6.662   6.264  0.6864 -2.7031 -0.4663
   15MOL0     H 2016   9.013   6.708   6.142  0.3660 -0.5604 -1.7083
   15MOL0     H 2017   9.169   6.883   6.220 -0.0236 -0.1773 -0.8176
   15MOL0     H 2018   9.306   6.822   6.133  0.6532  0.0706  2.7058
   15MOL0     H 2019   8.922   6.909   6.035  1.4609 -3.8389  0.7480
   15MOL0     H 2020   8.938   7.035   5.666 -0.7677 -0.1475 -1.5172
   15MOL0     H 2021   8.870   7.105   5.812  2.9914  0.1351  0.3366
   15MOL0     H 2022   8.693   6.960   5.800  0.3395 -1.5096  0.1226
   15MOL0     H 2023   8.735   6.939   5.636 -0.3448 -0.3205  0.4988
   15MOL0     H 2024   8.898   6.733   5.738 -0.7585 -1.8287  0.1003
   15MOL0     H 2025   8.794   6.763   5.887 -2.3064  0.1749 -0.1442
   15MOL0     H 2026   8.724   6.571   5.784  3.8902  0.9850 -0.2506
   15MOL0     H 2027   8.595   6.685   5.781  0.4107 -1.4169 -1.1574
   15MOL0     H 2028   8.600   6.676   5.356 -2.0816  2.1974  1.6364
   15MOL0     H 2029   8.501   6.638   5.168  0.5125 -0.3492  1.3481
   15MOL0     H 2030   8.342   6.558   5.167  0.1840  0.2438 -1.9141
   15MOL0     H 2031   8.483   6.471   5.118  0.5050 -1.6398  1.9468
   15MOL0     H 2032   8.340   6.074   5.193  0.5669 -1.5561 -1.5733
   15MOL0     H 2033   8.287   5.844   5.131  0.3708 -1.1979  0.2091
   15MOL0     H 2034   8.156   5.679   5.069 -1.1453  1.1847 -0.2907
   15MOL0     H 2035   8.128   5.527   5.128  0.8738 -0.3683  1.0051
   15MOL0     H 2036   7.888   5.608   5.216 -1.4496  0.4795 -0.5688
   15MOL0     H 2037   7.915   5.753   5.123 -0.2533 -0.2798 -0.2518
   15MOL0     H 2038   7.957   5.495   4.984  2.1945  0.5401  1.2654
   15MOL0     H 2039   7.876   5.650   4.924 -0.3181 -0.8405 -0.0406
   15MOL0     H 2040   7.693   5.602   5.077  0.7345 -0.8972  0.6157
   15MOL0     H 2041   7.756   5.441   5.111  0.2939 -0.9994 -0.3556
   15MOL0     H 2042   7.571   5.425   4.946 -0.9319  1.3288 -3.5954
   15MOL0     H 2043   7.654   5.523   4.824 -0.2180  1.7814  1.4229
   15MOL0     H 2044   7.777   5.276   4.957 -1.6775  0.4898  1.3677
   15MOL0     H 2045   7.847   5.364   4.819  1.7062  0.8688  3.4527
   15MOL0     H 2046   7.604   5.318   4.696  0.5575 -0.9894 -0.4248
   15MOL0     H 2047   7.586   5.235   4.842 -0.0247  1.1095  0.2333
   15MOL0     H 2048   7.798   5.079   4.758 -2.1628 -0.9350  0.9324
   15MOL0     H 2049   7.796   5.178   4.622  3.8678 -1.2426  2.4234
   15MOL0     H 2050   8.015   5.814   5.455  0.3616 -0.8870 -0.4448
   15MOL0     H 2051   8.068   6.053   5.511  0.9083  0.7106  0.9650
   15MOL0     H 2052   8.395   6.309   5.615  0.9574 -1.8421 -0.6278
   15MOL0     H 2053   8.541   6.467   5.721  0.7906  1.9874  0.1358
   15MOL0     H 2054   9.621   6.784   5.414 -1.0251 -0.5094  1.9871
   15MOL0     H 2055   9.564   6.983   5.258  1.2629  0.1498  2.2234
   15MOL0     H 2056   9.401   7.234   5.059  0.0880 -0.3007 -0.0756
   15MOL0     H 2057   9.399   7.423   4.894  2.3884 -1.5850  0.3130
   15MOL0     H 2058   9.526   7.624   4.789 -0.6504  0.0770 -0.8771
   15MOL0     H 2059   9.351   7.602   4.789 -0.9439  0.3878  0.1627
   15MOL0     H 2060   9.514   7.828   4.692  0.1807  0.7767 -0.3216
   15MOL0     H 2061   9.419   7.890   4.825 -0.5360 -0.1886 -0.2218
   15MOL0     H 2062   9.296   7.722   4.600  0.1634 -0.3814  0.4193
   15MOL0     H 2063   9.203   7.838   4.686 -0.6358  1.5428 -1.7332
   15MOL0     H 2064   9.356   8.017   4.587 -1.0242  1.0751 -1.5065
   15MOL0     H 2065   9.230   7.922   4.489  1.4341 -0.1561 -2.0135
   15MOL0     H 2066   9.551   7.827   4.268  0.2185 -1.3981  0.6714
   15MOL0     H 2067   9.465   7.704   5.195 -0.2711  0.5499 -2.3101
   15MOL0     H 2068   9.522   7.644   5.414  0.7734  0.1760  1.0547
   15MOL0     H 2069   9.381   7.563   5.481  0.3599 -2.4062  0.0990
   15MOL0     H 2070   9.525   7.471   5.462 -2.3349 -2.4598 -0.8520
   16MOL0     O 2071   1.735  10.274   5.681 -0.3720  0.5135 -0.5357
   16MOL0     C 2072   1.827  10.246   5.607 -0.1955  0.1173  0.2855
   16MOL0     O 2073   1.917  10.144   5.634  0.2226  0.9354 -0.0147
   16MOL0     C 2074   1.908  10.069   5.750 -0.3886 -1.4166  0.5564
   16MOL0     C 2075   1.951   9.941   5.737  0.1412 -0.0466  0.6006
   16MOL0     C 2076   1.980   9.869   5.854  0.4758  0.2740  0.3322
   16MOL0     C 2077   1.943   9.916   5.979  0.0771  0.3307 -0.2752
   16MOL0     O 2078   1.963   9.828   6.081  0.4695  0.2266  0.2745
   16MOL0     C 2079   1.891   9.857   6.190  0.5632 -0.6489 -0.3341
   16MOL0     C 2080   1.943   9.776   6.309  0.2168 -0.8963 -0.1617
   16MOL0     C 2081   1.847   9.806   6.424 -0.2886  0.4234 -0.1409
   16MOL0     C 2082   1.902   9.744   6.543 -0.0429  0.3884  0.9591
   16MOL0     C 2083   1.841   9.612   6.577  0.6462 -0.0141 -0.5697
   16MOL0     C 2084   1.851   9.578   6.732 -0.8763 -0.6188 -0.1730
   16MOL0     C 2085   1.757   9.466   6.777 -0.3039  0.0286 -0.4951
   16MOL0     C 2086   1.809   9.400   6.911  0.5547 -0.1083 -0.7087
   16MOL0     N 2087   1.819   9.499   7.024 -0.6692 -0.1045 -0.4935
   16MOL0     C 2088   1.937   9.548   7.057 -0.5141  0.4299  0.5198
   16MOL0     C 2089   1.930   9.614   7.172  0.3886  0.8460  0.0984
   16MOL0     C 2090   2.049   9.680   7.235  0.0992 -0.1134 -0.7428
   16MOL0     C 2091   2.065   9.653   7.390 -0.5069 -0.9967  0.3775
   16MOL0     C 2092   2.197   9.700   7.458  0.2005 -0.5481 -0.2586
   16MOL0     C 2093   2.166   9.808   7.575 -0.4934 -0.7133 -0.0791
   16MOL0     O 2094   2.289   9.864   7.622  0.1118 -0.3417  0.3458
   16MOL0     C 2095   2.293   9.998   7.616 -0.9871  0.0876 -0.3713
   16MOL0     C 2096   2.228  10.082   7.522  1.3489  0.2580 -1.5664
   16MOL0     C 2097   2.255  10.218   7.518 -0.5431 -0.0666  0.6838
   16MOL0     C 2098   2.181  10.302   7.419 -0.1187 -0.3115  0.8148
   16MOL0     C 2099   2.350  10.275   7.615  0.7561 -0.0095  0.5066
   16MOL0     C 2100   2.390  10.421   7.613 -0.5715  0.9809  0.3887
   16MOL0     O 2101   2.448  10.466   7.725 -0.8389 -0.8564 -0.1026
   16MOL0     C 2102   2.404  10.585   7.788 -0.5178 -0.9111 -0.6059
   16MOL0     C 2103   2.494  10.647   7.881 -0.0272  0.7191  0.0399
   16MOL0     C 2104   2.459  10.767   7.953 -0.1025  0.5918  0.7577
   16MOL0     C 2105   2.331  10.822   7.918 -0.7092 -0.2276  0.0911
   16MOL0     O 2106   2.284  10.942   7.979  0.3779 -0.2608 -1.0022
   16MOL0     C 2107   2.386  11.047   7.969 -0.6885 -0.2716  1.1697
   16MOL0     C 2108   2.362  11.128   7.837 -0.0862  0.0674 -0.0608
   16MOL0     C 2109   2.246  11.226   7.848 -0.4306 -0.2807  0.5693
   16MOL0     C 2110   2.222  11.304   7.719 -0.4668  0.5537  0.3787
   16MOL0     C 2111   2.183  11.216   7.598  0.5462 -0.9649  0.4040
   16MOL0     C 2112   2.076  11.113   7.633  0.7064  0.0310 -0.2662
   16MOL0     C 2113   2.011  11.056   7.505  0.6637 -0.5238  0.0896
   16MOL0     C 2114   1.932  10.929   7.529 -0.2903  0.1568  0.5335
   16MOL0    Cl 2115   2.032  10.805   7.589 -0.4610  0.2107 -0.0861
   16MOL0     C 2116   2.243  10.759   7.828  0.3612 -0.1694 -0.2097
   16MOL0     C 2117   2.282  10.643   7.762  0.2435 -0.7876  0.1232
   16MOL0     O 2118   2.391  10.482   7.507  0.0255  0.3276  0.1957
   16MOL0     C 2119   2.402  10.188   7.711  0.6035 -1.5412 -0.5526
   16MOL0     C 2120   2.374  10.054   7.708 -0.5198 -0.5156  0.3089
   16MOL0     N 2121   1.794   9.627   7.198 -0.0028 -0.5915  0.5331
   16MOL0     N 2122   1.731   9.540   7.122 -0.2618  0.7130  0.3590
   16MOL0     C 2123   1.876  10.041   5.989 -0.9808 -0.8147  0.8651
   16MOL0     C 2124   1.873  10.120   5.872 -0.0363  0.8120 -0.1414
   16MOL0     C 2125   1.856  10.323   5.491  0.1514 -0.2922  0.1273
   16MOL0     C 2126   1.989  10.313   5.439 -0.6754 -0.0323  0.3593
   16MOL0     C 2127   2.035  10.393   5.337  0.2270 -0.3442  0.1471
   16MOL0     C 2128   1.952  10.488   5.276  0.1768  0.2531  0.4347
   16MOL0     O 2129   1.997  10.564   5.175 -0.6925  0.4438  0.2643
   16MOL0     C 2130   1.978  10.515   5.040 -0.0662 -0.0634 -0.6889
   16MOL0     C 2131   2.091  10.438   4.966 -0.4996 -0.2394  0.9030
   16MOL0     C 2132   2.219  10.530   4.958 -0.4113  0.2782  0.0468
   16MOL0     C 2133   2.328  10.454   4.866  0.1685 -0.1665  0.0245
   16MOL0     C 2134   2.463  10.497   4.904  0.0382  0.5170  0.7542
   16MOL0     C 2135   2.565  10.539   4.954 -0.7761  0.2864 -0.6806
   16MOL0     C 2136   1.824  10.513   5.328 -0.9399  0.6109 -0.2305
   16MOL0     C 2137   1.774  10.430   5.432  0.0242  0.7070 -0.3949
   16MOL0     C 2138   1.628  10.465   5.473  1.0844 -0.6161  0.2108
   16MOL0     H 2139   1.972   9.891   5.643  2.2611 -0.4592  1.2367
   16MOL0     H 2140   2.028   9.772   5.847 -0.0351  0.0886 -0.9676
   16MOL0     H 2141   1.783   9.840   6.181  0.1395  1.2126  0.7187
   16MOL0     H 2142   1.893   9.962   6.219  0.2012 -0.8854  0.6052
   16MOL0     H 2143   1.937   9.669   6.287 -0.3154 -0.7264 -0.8668
   16MOL0     H 2144   2.048   9.778   6.339 -0.3608 -2.4512  2.2731
   16MOL0     H 2145   1.843   9.915   6.431  2.5644  0.5131  1.6987
   16MOL0     H 2146   1.755   9.753   6.395 -0.2714  0.1322  0.3246
   16MOL0     H 2147   2.011   9.747   6.536 -0.1352  3.5865 -2.3641
   16MOL0     H 2148   1.880   9.807   6.630  3.0374  0.0601  2.0834
   16MOL0     H 2149   1.885   9.533   6.515  2.3160 -2.2279  3.0911
   16MOL0     H 2150   1.734   9.609   6.556  0.4350 -2.7181  0.5291
   16MOL0     H 2151   1.951   9.537   6.746 -0.2136 -0.0310 -2.7062
   16MOL0     H 2152   1.825   9.665   6.792  0.7074  1.0013 -1.7280
   16MOL0     H 2153   1.744   9.391   6.698 -0.0194  1.3486 -1.8544
   16MOL0     H 2154   1.655   9.505   6.786 -0.8349 -1.1379 -1.1446
   16MOL0     H 2155   1.732   9.325   6.930 -0.3637  0.6609 -1.2571
   16MOL0     H 2156   1.905   9.355   6.885 -0.3202 -0.0192 -4.9125
   16MOL0     H 2157   2.036   9.533   7.017 -0.4433  2.4854 -0.1895
   16MOL0     H 2158   2.047   9.783   7.200  0.1427  0.2638  0.3283
   16MOL0     H 2159   2.139   9.627   7.203  0.0399 -2.4907  2.5465
   16MOL0     H 2160   1.978   9.697   7.440 -0.6392  2.2905 -2.3499
   16MOL0     H 2161   2.054   9.545   7.407  0.8600 -1.2905 -0.4779
   16MOL0     H 2162   2.258   9.623   7.506  0.2165 -0.5892 -0.3447
   16MOL0     H 2163   2.263   9.763   7.397 -2.2236  2.8474  0.3201
   16MOL0     H 2164   2.090   9.877   7.538 -1.0340  0.3408  2.7905
   16MOL0     H 2165   2.126   9.758   7.663  1.3900 -1.3187  0.4807
   16MOL0     H 2166   2.158  10.036   7.453  0.4223 -2.3801  0.9219
   16MOL0     H 2167   2.248  10.336   7.340 -2.4511  2.5388 -0.0977
   16MOL0     H 2168   2.137  10.390   7.466 -1.8748 -0.2744 -0.7896
   16MOL0     H 2169   2.093  10.250   7.380 -0.0776 -0.9519  1.5408
   16MOL0     H 2170   2.588  10.595   7.898 -1.2863 -0.7254  3.3530
   16MOL0     H 2171   2.529  10.802   8.028  3.7849 -4.6670  0.1679
   16MOL0     H 2172   2.376  11.128   8.042  1.2037  0.8901  0.2012
   16MOL0     H 2173   2.487  11.006   7.961 -0.4331  0.7023 -3.2416
   16MOL0     H 2174   2.453  11.190   7.835 -0.5711  0.8628  1.4223
   16MOL0     H 2175   2.346  11.070   7.745  0.9695  0.0868 -0.2763
   16MOL0     H 2176   2.276  11.293   7.929  0.6881  0.9939 -0.8567
   16MOL0     H 2177   2.150  11.179   7.872 -1.8535  0.2986 -3.2377
   16MOL0     H 2178   2.308  11.364   7.689  1.3377 -2.5144 -1.0273
   16MOL0     H 2179   2.134  11.366   7.739 -0.3432 -0.0651  3.2682
   16MOL0     H 2180   2.138  11.278   7.520  2.8394 -2.1315 -2.0071
   16MOL0     H 2181   2.272  11.179   7.547  0.6377  0.4074 -0.4859
   16MOL0     H 2182   2.005  11.171   7.693  2.3314  0.4458  1.3311
   16MOL0     H 2183   2.118  11.033   7.696 -0.4671  2.0714  3.4062
   16MOL0     H 2184   2.096  11.026   7.443  0.8161 -2.1230  0.9922
   16MOL0     H 2185   1.951  11.135   7.460  1.0992 -1.2007 -1.7833
   16MOL0     H 2186   1.889  10.900   7.432  2.8774 -0.6479 -0.7831
   16MOL0     H 2187   1.844  10.941   7.592  1.4364 -0.3569  3.1690
   16MOL0     H 2188   2.148  10.807   7.804 -0.0054 -1.3568 -1.2250
   16MOL0     H 2189   2.219  10.606   7.681 -0.1434 -0.2333  0.1671
   16MOL0     H 2190   2.465  10.232   7.788 -2.0110  1.7531 -0.0259
   16MOL0     H 2191   2.418   9.981   7.775 -1.6169 -1.2201  0.2763
   16MOL0     H 2192   1.853  10.092   6.081  0.0785 -2.3385  2.0185
   16MOL0     H 2193   1.861  10.228   5.871  1.6873  1.0946  1.7797
   16MOL0     H 2194   2.053  10.235   5.479 -2.6105 -0.8811  1.9528
   16MOL0     H 2195   2.140  10.378   5.314 -0.2128 -3.7382 -0.1545
   16MOL0     H 2196   1.893  10.446   5.042 -0.5515  0.5068  1.8836
   16MOL0     H 2197   1.947  10.605   4.985 -1.0334  1.4902  2.2163
   16MOL0     H 2198   2.065  10.387   4.874  1.3099 -1.3167  0.9371
   16MOL0     H 2199   2.117  10.348   5.023 -2.2859 -2.5634 -1.7058
   16MOL0     H 2200   2.207  10.629   4.912  0.7391  0.2028 -0.4515
   16MOL0     H 2201   2.257  10.553   5.058 -1.3545 -0.6662  0.6434
   16MOL0     H 2202   2.317  10.478   4.760 -0.8856 -1.4140 -0.1769
   16MOL0     H 2203   2.306  10.347   4.868 -3.1549  0.3007 -2.2307
   16MOL0     H 2204   2.655  10.583   4.995  0.7310 -0.5548 -2.9050
   16MOL0     H 2205   1.766  10.589   5.276 -1.7606 -0.7833 -1.4325
   16MOL0     H 2206   1.594  10.560   5.430  0.0838 -1.5091 -1.0659
   16MOL0     H 2207   1.547  10.402   5.434 -0.7548  1.6630  0.0791
   16MOL0     H 2208   1.614  10.464   5.581 -1.7837 -1.1537 -0.0719
   17MOL0     O 2209   4.640   9.475  10.220 -0.1995  0.0905 -0.1283
   17MOL0     C 2210   4.656   9.596  10.217 -0.4175 -0.0265 -0.6011
   17MOL0     O 2211   4.561   9.695  10.256 -0.0000  0.2159  0.2112
   17MOL0     C 2212   4.434   9.652  10.251  0.7776  0.6796 -0.1173
   17MOL0     C 2213   4.354   9.650  10.126 -1.1441  0.8943 -0.7849
   17MOL0     C 2214   4.247   9.570  10.121  0.3870 -0.9058  0.1346
   17MOL0     C 2215   4.199   9.511  10.237 -0.7881  0.3760 -0.5252
   17MOL0     O 2216   4.078   9.437  10.241  0.2762 -0.2265 -0.0309
   17MOL0     C 2217   4.069   9.338  10.130 -0.2812  0.4258  0.2299
   17MOL0     C 2218   4.128   9.207  10.173 -0.6595 -0.7698  0.4930
   17MOL0     C 2219   4.114   9.166  10.320 -0.2242 -0.0113 -0.4766
   17MOL0     C 2220   4.175   9.024  10.341 -0.4845  0.5801 -0.0046
   17MOL0     C 2221   4.184   8.968  10.490  0.1870 -0.9022 -0.8489
   17MOL0     C 2222   4.278   9.047  10.586  0.2993 -0.1599 -0.2445
   17MOL0     C 2223   4.428   9.058  10.543 -0.4376  0.3293 -0.5851
   17MOL0     C 2224   4.452   9.182  10.468 -1.1880 -0.0383 -0.1546
   17MOL0     N 2225   4.568   9.246  10.522 -0.3497 -0.5950  0.1759
   17MOL0     C 2226   4.701   9.225  10.478 -0.4324  0.1637 -0.0396
   17MOL0     C 2227   4.779   9.314  10.543  0.9174 -0.2620 -0.2351
   17MOL0     C 2228   4.923   9.363  10.528  0.0976  0.5537  0.3536
   17MOL0     C 2229   4.937   9.514  10.536 -0.3310  0.6699 -0.0812
   17MOL0     C 2230   5.100   9.532  10.526  0.8498  0.6131 -0.6147
   17MOL0     C 2231   5.142   9.673  10.536 -0.0029 -0.0141 -0.6827
   17MOL0     O 2232   5.283   9.688  10.571 -0.0152 -0.0005  0.0749
   17MOL0     C 2233   5.381   9.644  10.486  0.7942 -0.8168 -1.0613
   17MOL0     C 2234   5.373   9.656  10.349 -0.5489  0.0364 -0.6922
   17MOL0     C 2235   5.472   9.613  10.264  0.8252  0.9187 -0.7350
   17MOL0     C 2236   5.449   9.621  10.113  0.5361  0.0433  0.9383
   17MOL0     C 2237   5.586   9.543  10.313  0.9581 -0.7200  0.3695
   17MOL0     C 2238   5.701   9.521  10.225 -0.1420 -0.3691  0.4939
   17MOL0     O 2239   5.724   9.597  10.112  0.0017  1.1394  0.5384
   17MOL0     C 2240   5.830   9.568  10.034 -0.7441 -0.3221 -0.2771
   17MOL0     C 2241   5.822   9.478   9.937  0.0056  0.4941  0.3707
   17MOL0     C 2242   5.928   9.422   9.865  0.5011 -0.6401 -0.1650
   17MOL0     C 2243   6.055   9.474   9.887  0.0632  0.1682 -0.1697
   17MOL0     O 2244   6.165   9.440   9.825 -0.1639 -0.0336 -0.0726
   17MOL0     C 2245   6.156   9.323   9.735 -0.1750  0.2995 -0.4889
   17MOL0     C 2246   6.298   9.282   9.677  0.7420  0.0435  0.1849
   17MOL0     C 2247   6.322   9.343   9.530  0.7494  0.3528 -0.1388
   17MOL0     C 2248   6.473   9.373   9.501  0.6334  0.3260  0.0641
   17MOL0     C 2249   6.499   9.463   9.385  0.1857 -0.5922  0.9715
   17MOL0     C 2250   6.530   9.410   9.247 -0.6030 -0.2109  0.6918
   17MOL0     C 2251   6.538   9.508   9.136 -0.3023 -0.0929 -0.4661
   17MOL0     C 2252   6.562   9.458   8.995  0.5222  0.0571  0.4214
   17MOL0    Cl 2253   6.493   9.574   8.870  0.0200  0.0666  0.0071
   17MOL0     C 2254   6.072   9.565   9.982  0.6065 -0.1543  0.6339
   17MOL0     C 2255   5.958   9.610  10.065  0.6758  0.1360 -0.2458
   17MOL0     O 2256   5.782   9.436  10.268  0.2461  0.3201  0.5915
   17MOL0     C 2257   5.598   9.531  10.447 -0.2854  0.6937 -0.1256
   17MOL0     C 2258   5.501   9.583  10.532 -0.1778 -0.8858 -0.0131
   17MOL0     N 2259   4.694   9.383  10.630 -0.8969 -0.8304  0.6566
   17MOL0     N 2260   4.573   9.340  10.617 -0.1310  0.6909 -0.2534
   17MOL0     C 2261   4.274   9.512  10.354 -0.0086  0.2094  0.4148
   17MOL0     C 2262   4.393   9.577  10.361  0.7299 -0.3563 -0.1775
   17MOL0     C 2263   4.796   9.647  10.205  0.3506 -0.6391  0.5483
   17MOL0     C 2264   4.880   9.576  10.121 -0.7121  0.0208 -0.1824
   17MOL0     C 2265   5.006   9.626  10.094 -0.5061 -0.4732 -0.3195
   17MOL0     C 2266   5.052   9.743  10.142  0.6468 -0.0302  0.1166
   17MOL0     O 2267   5.178   9.787  10.093 -0.4014  0.7303 -0.0948
   17MOL0     C 2268   5.208   9.923  10.101  0.1336 -0.2740 -0.5891
   17MOL0     C 2269   5.108  10.000  10.011  0.1423  0.2275 -0.0928
   17MOL0     C 2270   5.142  10.148   9.995 -0.3198  0.0681 -0.3970
   17MOL0     C 2271   5.028  10.252   9.993 -0.3480 -0.2842  0.0652
   17MOL0     C 2272   4.940  10.248  10.112 -0.6813  0.7813 -0.2673
   17MOL0     C 2273   4.878  10.230  10.212 -0.0230  0.3636 -0.5457
   17MOL0     C 2274   4.974   9.812  10.233 -0.1341  0.1013 -0.1244
   17MOL0     C 2275   4.845   9.761  10.270  0.0554  1.0507  0.0285
   17MOL0     C 2276   4.779   9.842  10.371  0.0717 -0.5171 -0.3750
   17MOL0     H 2277   4.401   9.715  10.053  0.8380 -0.2317 -0.5779
   17MOL0     H 2278   4.186   9.573  10.032  0.3536 -0.0012  0.1798
   17MOL0     H 2279   4.099   9.359  10.027 -1.8306  1.2951 -0.0696
   17MOL0     H 2280   3.963   9.314  10.113  0.0584 -0.8910 -0.1296
   17MOL0     H 2281   4.099   9.129  10.103 -0.6981 -0.5705  0.2853
   17MOL0     H 2282   4.235   9.222  10.154 -0.3277 -2.2542  1.0770
   17MOL0     H 2283   4.179   9.228  10.382  1.8559 -1.0370 -1.5319
   17MOL0     H 2284   4.008   9.165  10.345  0.2133  1.6165  1.7183
   17MOL0     H 2285   4.102   8.958  10.293 -2.1448  0.7788  2.0909
   17MOL0     H 2286   4.275   9.015  10.297 -0.8707  0.3059 -0.8553
   17MOL0     H 2287   4.211   8.862  10.479 -1.1680 -1.1133 -2.6137
   17MOL0     H 2288   4.079   8.964  10.519  0.3940  1.4229  0.5068
   17MOL0     H 2289   4.228   9.136  10.627  0.4652 -0.4702  0.6657
   17MOL0     H 2290   4.275   8.990  10.679 -0.6124  0.2442 -0.0049
   17MOL0     H 2291   4.458   8.974  10.480  2.8099 -0.4308  1.7154
   17MOL0     H 2292   4.489   9.045  10.633 -1.2255 -1.0015 -0.2203
   17MOL0     H 2293   4.452   9.153  10.363  0.0938 -0.6819 -0.0026
   17MOL0     H 2294   4.375   9.258  10.484  0.6014  2.0465 -0.9863
   17MOL0     H 2295   4.737   9.166  10.394 -5.4292 -0.4256 -2.1438
   17MOL0     H 2296   4.969   9.332  10.434  0.6760  0.8994  0.5203
   17MOL0     H 2297   4.985   9.336  10.614  2.3739  2.9172 -0.4183
   17MOL0     H 2298   4.885   9.576  10.462 -1.0078  0.2037 -0.0087
   17MOL0     H 2299   4.900   9.549  10.632 -2.1542 -2.2534  0.3978
   17MOL0     H 2300   5.154   9.475  10.603 -2.5904  0.0751  1.6303
   17MOL0     H 2301   5.131   9.480  10.435 -0.2564 -3.0222  0.8624
   17MOL0     H 2302   5.134   9.719  10.437 -1.0769 -1.8822 -1.5028
   17MOL0     H 2303   5.081   9.725  10.611 -0.1271 -0.8763 -0.1767
   17MOL0     H 2304   5.282   9.696  10.305 -2.3628 -1.8488  1.0769
   17MOL0     H 2305   5.344   9.615  10.084  0.3709  3.2385  0.5434
   17MOL0     H 2306   5.495   9.534  10.066  0.6744 -0.3760  1.8154
   17MOL0     H 2307   5.479   9.712  10.062  0.4875 -0.7528 -0.5502
   17MOL0     H 2308   5.727   9.439   9.903  1.2134 -3.0222  0.5778
   17MOL0     H 2309   5.897   9.364   9.779  0.8898 -0.4008 -0.4691
   17MOL0     H 2310   6.115   9.240   9.793 -1.7298  1.2140 -0.2043
   17MOL0     H 2311   6.083   9.353   9.659  0.8598  0.9999 -1.2245
   17MOL0     H 2312   6.379   9.317   9.742  1.2885  0.6782 -0.7984
   17MOL0     H 2313   6.301   9.173   9.668  0.0301  0.0054  0.3368
   17MOL0     H 2314   6.269   9.439   9.533  1.5738  0.7982  0.6171
   17MOL0     H 2315   6.283   9.279   9.450  0.1275  1.4947 -0.7785
   17MOL0     H 2316   6.530   9.279   9.492 -1.2102 -0.8431  0.0269
   17MOL0     H 2317   6.520   9.422   9.586  0.4295  0.0038  0.3637
   17MOL0     H 2318   6.412   9.527   9.373  1.9050  1.6076 -0.7914
   17MOL0     H 2319   6.587   9.524   9.410 -0.0488  1.3942 -2.3466
   17MOL0     H 2320   6.446   9.340   9.241 -1.7557  1.1293  0.9089
   17MOL0     H 2321   6.627   9.359   9.257  0.9958  2.3469 -0.7535
   17MOL0     H 2322   6.617   9.581   9.156 -0.1012 -0.1999 -0.8612
   17MOL0     H 2323   6.447   9.567   9.124 -0.7068 -0.1396  1.8682
   17MOL0     H 2324   6.519   9.358   8.979  0.4837  0.3211 -1.2300
   17MOL0     H 2325   6.667   9.433   8.977  0.2465 -3.3046  2.4207
   17MOL0     H 2326   6.175   9.592  10.003  1.0561  0.8970 -2.3988
   17MOL0     H 2327   5.972   9.676  10.150  0.6815 -1.2795  0.8957
   17MOL0     H 2328   5.678   9.483  10.504 -0.1058 -2.5844 -2.8370
   17MOL0     H 2329   5.523   9.596  10.637 -1.3677  0.4970  0.0994
   17MOL0     H 2330   4.229   9.458  10.437  0.3946  0.9938  1.1564
   17MOL0     H 2331   4.463   9.564  10.442  0.7234  0.0203 -0.1113
   17MOL0     H 2332   4.854   9.485  10.067  1.1653  0.9658 -2.8859
   17MOL0     H 2333   5.055   9.572  10.014  1.4905  0.2216  0.3587
   17MOL0     H 2334   5.220   9.962  10.202 -0.6695  0.4223 -0.7525
   17MOL0     H 2335   5.308   9.923  10.056  0.7048 -2.5029  0.4933
   17MOL0     H 2336   5.007   9.994  10.052 -1.1565 -0.8373 -3.1099
   17MOL0     H 2337   5.095   9.956   9.912  1.0681  2.6289 -1.3482
   17MOL0     H 2338   5.207  10.169  10.081 -2.1304  2.7657  0.4441
   17MOL0     H 2339   5.194  10.162   9.900 -1.1283 -0.0247 -0.8601
   17MOL0     H 2340   4.979  10.229   9.897 -0.7122 -3.6030  0.9065
   17MOL0     H 2341   5.073  10.350   9.977  1.4251 -0.9284  0.8562
   17MOL0     H 2342   4.822  10.204  10.300  2.6065 -4.9679 -0.0226
   17MOL0     H 2343   5.012   9.903  10.278 -0.8915  0.4540 -0.1701
   17MOL0     H 2344   4.723   9.775  10.438  0.2557 -2.0140 -1.6527
   17MOL0     H 2345   4.853   9.902  10.425  0.0301 -1.3091  0.5924
   17MOL0     H 2346   4.704   9.910  10.328  0.6789  0.3968 -0.0183
   18MOL0     O 2347   7.514   3.680   7.873 -0.4330  0.1363 -0.1387
   18MOL0     C 2348   7.618   3.701   7.941 -1.0632 -0.8113 -0.1812
   18MOL0     O 2349   7.670   3.618   8.039 -0.4836 -0.0287 -0.1024
   18MOL0     C 2350   7.587   3.521   8.085 -0.9971  0.4124  0.7798
   18MOL0     C 2351   7.605   3.385   8.065  0.7092  0.8336  0.1665
   18MOL0     C 2352   7.501   3.298   8.107 -0.0747 -0.5367 -0.6524
   18MOL0     C 2353   7.390   3.344   8.177  0.0266 -0.0831  0.5094
   18MOL0     O 2354   7.299   3.250   8.201  0.3048  0.1266 -0.2722
   18MOL0     C 2355   7.201   3.281   8.300 -0.3607  0.0045  0.1487
   18MOL0     C 2356   7.070   3.309   8.231 -0.4765  0.4196 -0.0934
   18MOL0     C 2357   6.945   3.315   8.315  0.0239  0.5198  0.9131
   18MOL0     C 2358   6.923   3.204   8.415  0.2392 -0.4313  0.4761
   18MOL0     C 2359   6.781   3.203   8.466  0.5455 -0.1289  0.2331
   18MOL0     C 2360   6.746   3.330   8.538  0.6534  0.5988 -0.1238
   18MOL0     C 2361   6.623   3.302   8.612  1.3569  0.1412  1.1720
   18MOL0     C 2362   6.572   3.421   8.696 -0.1280 -0.0785 -0.0063
   18MOL0     N 2363   6.443   3.383   8.741  0.3691 -0.2147 -0.4424
   18MOL0     C 2364   6.424   3.290   8.839  0.4311  1.5315  0.3236
   18MOL0     C 2365   6.291   3.309   8.875 -0.4595  0.4053 -0.2978
   18MOL0     C 2366   6.221   3.272   9.001 -0.9335  0.1444  0.1714
   18MOL0     C 2367   6.285   3.149   9.060  0.6631 -0.3672  0.1595
   18MOL0     C 2368   6.211   3.128   9.193 -0.5195  0.0150  0.1774
   18MOL0     C 2369   6.250   2.990   9.265 -0.9022  0.2460 -0.4506
   18MOL0     O 2370   6.244   2.884   9.169  0.3226 -0.1802  0.0011
   18MOL0     C 2371   6.122   2.835   9.139 -0.4738  0.0236  0.0476
   18MOL0     C 2372   6.005   2.827   9.226 -0.1066  0.0206 -0.6367
   18MOL0     C 2373   5.879   2.780   9.181 -0.3293  0.1535  0.3411
   18MOL0     C 2374   5.766   2.790   9.275 -0.2538 -0.1722  0.2459
   18MOL0     C 2375   5.867   2.730   9.043 -0.9290 -0.9720  0.4321
   18MOL0     C 2376   5.742   2.680   8.969  0.3971 -0.3963  1.3132
   18MOL0     O 2377   5.746   2.643   8.835  0.4380 -0.8156 -0.0028
   18MOL0     C 2378   5.632   2.633   8.753 -0.2413  0.4155 -0.7078
   18MOL0     C 2379   5.671   2.588   8.629 -0.6032 -0.1945 -0.8652
   18MOL0     C 2380   5.571   2.567   8.535  0.4738 -1.1102  0.4310
   18MOL0     C 2381   5.430   2.590   8.560 -0.4278 -0.8144  0.0929
   18MOL0     O 2382   5.327   2.586   8.464  0.1185 -0.2637  0.9707
   18MOL0     C 2383   5.341   2.490   8.363 -0.4399 -0.8203  0.3443
   18MOL0     C 2384   5.222   2.476   8.279  0.4004 -0.1667  0.1288
   18MOL0     C 2385   5.098   2.446   8.358 -0.3067  0.7368 -0.3762
   18MOL0     C 2386   4.976   2.437   8.273 -0.2783  0.4598  0.8115
   18MOL0     C 2387   4.852   2.377   8.336  0.5531  0.3231 -0.3486
   18MOL0     C 2388   4.813   2.459   8.462  0.2169 -0.3057  0.0971
   18MOL0     C 2389   4.708   2.382   8.558 -1.5636 -0.7432 -0.1447
   18MOL0     C 2390   4.728   2.445   8.696  0.1442  0.4760 -0.3845
   18MOL0    Cl 2391   4.604   2.369   8.798  0.4592  0.0979 -0.2683
   18MOL0     C 2392   5.393   2.647   8.684  0.2114  0.4755  0.7137
   18MOL0     C 2393   5.497   2.669   8.779  1.2925  0.4693 -1.2244
   18MOL0     O 2394   5.633   2.688   9.030 -0.0920 -0.3882 -0.4918
   18MOL0     C 2395   5.988   2.730   8.960  0.3246  0.3118 -0.0657
   18MOL0     C 2396   6.111   2.776   9.009 -1.4783 -0.3994 -0.1273
   18MOL0     N 2397   6.230   3.400   8.784 -0.1077  1.0419  0.4916
   18MOL0     N 2398   6.323   3.445   8.710  0.9564  0.3024  0.3694
   18MOL0     C 2399   7.387   3.485   8.206 -0.1289 -0.4928  0.3105
   18MOL0     C 2400   7.484   3.569   8.168 -0.0868  0.5985  0.4704
   18MOL0     C 2401   7.715   3.814   7.920 -0.2193  0.5942 -0.4864
   18MOL0     C 2402   7.849   3.789   7.920 -0.5674  0.5920  0.8327
   18MOL0     C 2403   7.947   3.895   7.911  0.1881  0.4025  0.2169
   18MOL0     C 2404   7.903   4.019   7.870  0.4637  0.4589  0.0633
   18MOL0     O 2405   7.978   4.121   7.823  0.7168  0.1217 -0.6485
   18MOL0     C 2406   8.105   4.135   7.892  0.5651 -0.3051 -0.2412
   18MOL0     C 2407   8.211   4.094   7.780  0.0163  0.0863 -0.3116
   18MOL0     C 2408   8.301   3.985   7.839 -0.1490 -0.0246 -1.1392
   18MOL0     C 2409   8.362   4.004   7.976 -0.3956 -0.2413  1.1163
   18MOL0     C 2410   8.464   4.103   7.963  0.0647 -0.4462  0.7199
   18MOL0     C 2411   8.551   4.188   7.951 -0.5552  0.0326  0.9584
   18MOL0     C 2412   7.762   4.040   7.859 -0.0961 -0.0838  0.5523
   18MOL0     C 2413   7.665   3.938   7.885  0.0128 -1.1065 -0.1277
   18MOL0     C 2414   7.523   3.972   7.885 -0.4473  0.0850 -0.7059
   18MOL0     H 2415   7.692   3.360   8.006 -0.8891 -1.9662 -1.1780
   18MOL0     H 2416   7.501   3.197   8.066 -1.0082  0.3103 -2.8680
   18MOL0     H 2417   7.234   3.362   8.366 -0.9494 -0.4494  1.0252
   18MOL0     H 2418   7.182   3.199   8.370  1.8273 -0.0340  0.7762
   18MOL0     H 2419   7.078   3.405   8.180 -2.2885 -0.6280 -2.5729
   18MOL0     H 2420   7.056   3.227   8.159 -1.5688 -0.1384  0.7189
   18MOL0     H 2421   6.928   3.412   8.364 -1.8423 -0.0067  1.4050
   18MOL0     H 2422   6.866   3.302   8.240 -0.0329 -3.2542  1.4460
   18MOL0     H 2423   6.957   3.104   8.385 -0.1785 -0.4769  0.1508
   18MOL0     H 2424   6.987   3.225   8.501  3.3423  0.7215 -1.9057
   18MOL0     H 2425   6.769   3.121   8.537  0.6940 -0.2200  0.1542
   18MOL0     H 2426   6.710   3.190   8.383 -1.3138  2.4628  1.2704
   18MOL0     H 2427   6.830   3.359   8.602 -0.3545  0.7981  1.1604
   18MOL0     H 2428   6.727   3.413   8.469 -1.7198 -1.1668 -1.7436
   18MOL0     H 2429   6.652   3.225   8.684  0.8095  0.7225  2.0332
   18MOL0     H 2430   6.545   3.271   8.542  1.6208  0.3336  0.7883
   18MOL0     H 2431   6.638   3.439   8.782 -1.6310  1.7779  0.8131
   18MOL0     H 2432   6.558   3.508   8.631 -1.1058 -0.5087 -0.3800
   18MOL0     H 2433   6.502   3.240   8.894 -1.0600 -0.9710  0.3518
   18MOL0     H 2434   6.115   3.258   8.980 -1.0247 -0.3883  0.9350
   18MOL0     H 2435   6.237   3.358   9.066  1.1581 -0.5100  0.6033
   18MOL0     H 2436   6.268   3.065   8.992 -2.8202  1.0953 -1.0128
   18MOL0     H 2437   6.394   3.149   9.063  0.6716 -1.8784  1.3125
   18MOL0     H 2438   6.245   3.209   9.258  4.4013 -0.4851 -1.3323
   18MOL0     H 2439   6.103   3.147   9.189 -0.1305  2.4306 -1.0647
   18MOL0     H 2440   6.354   3.004   9.296 -0.6015  0.0902 -1.3559
   18MOL0     H 2441   6.196   2.973   9.359  0.7920 -0.8843  0.3575
   18MOL0     H 2442   6.018   2.852   9.331  2.0919 -0.6131 -0.7094
   18MOL0     H 2443   5.801   2.848   9.361 -0.3107  0.1125  0.0825
   18MOL0     H 2444   5.732   2.692   9.308 -3.3486  0.5016 -0.6378
   18MOL0     H 2445   5.685   2.850   9.233  0.5400  1.4474  0.9164
   18MOL0     H 2446   5.779   2.578   8.617 -0.4428  0.6020 -0.2159
   18MOL0     H 2447   5.599   2.537   8.435 -1.5791 -1.2914 -0.1462
   18MOL0     H 2448   5.425   2.525   8.303 -0.6434 -1.9523 -0.6307
   18MOL0     H 2449   5.356   2.400   8.424 -0.6780 -0.6698  0.6294
   18MOL0     H 2450   5.195   2.568   8.227 -1.6423 -0.4956  0.5089
   18MOL0     H 2451   5.237   2.390   8.213  3.1072  0.8794 -0.7289
   18MOL0     H 2452   5.084   2.532   8.425  0.7103  0.9308 -0.3972
   18MOL0     H 2453   5.109   2.358   8.422  1.2479  0.8423 -0.4768
   18MOL0     H 2454   5.010   2.374   8.190  2.1170  2.0329  0.5244
   18MOL0     H 2455   4.950   2.528   8.219 -1.8572 -1.3148 -1.6814
   18MOL0     H 2456   4.769   2.347   8.271  0.9368 -1.2440 -0.1574
   18MOL0     H 2457   4.881   2.280   8.377  1.2985  0.1294 -1.2812
   18MOL0     H 2458   4.765   2.554   8.435  0.7927 -0.3780 -1.2477
   18MOL0     H 2459   4.902   2.487   8.519  0.9365  3.5881 -2.5605
   18MOL0     H 2460   4.724   2.275   8.542 -1.2557 -1.5529  4.2909
   18MOL0     H 2461   4.607   2.402   8.522 -1.7600  2.4111  1.7079
   18MOL0     H 2462   4.714   2.554   8.695 -0.7587  0.4149 -3.1110
   18MOL0     H 2463   4.825   2.423   8.741 -0.0103  0.4664 -0.0503
   18MOL0     H 2464   5.290   2.661   8.713  0.8809  2.9873  2.1916
   18MOL0     H 2465   5.460   2.696   8.877 -0.4131 -0.6275 -1.5061
   18MOL0     H 2466   5.978   2.686   8.861  2.0022  0.7257 -0.4492
   18MOL0     H 2467   6.201   2.774   8.948 -1.0816  0.5010  0.4130
   18MOL0     H 2468   7.305   3.537   8.254  1.7307  2.6342  0.3462
   18MOL0     H 2469   7.473   3.675   8.188  0.1051  1.2331 -2.2825
   18MOL0     H 2470   7.887   3.688   7.930  0.7524  0.9592 -0.1875
   18MOL0     H 2471   8.053   3.872   7.909  0.6758  2.5220  0.3570
   18MOL0     H 2472   8.124   4.240   7.915  1.1537  0.0187 -2.0019
   18MOL0     H 2473   8.099   4.075   7.983 -3.0051  1.5108  0.9345
   18MOL0     H 2474   8.263   4.187   7.755 -0.9796  1.8530  3.4889
   18MOL0     H 2475   8.161   4.065   7.687  0.8662 -0.3200 -0.6571
   18MOL0     H 2476   8.243   3.893   7.843  3.3604 -2.4179  1.5729
   18MOL0     H 2477   8.384   3.954   7.774 -0.2979  0.7397 -1.7137
   18MOL0     H 2478   8.400   3.911   8.018  3.5676  0.1028 -1.1982
   18MOL0     H 2479   8.288   4.040   8.049  0.3211 -0.9097  2.1917
   18MOL0     H 2480   8.611   4.276   7.948 -1.7348  0.8468 -1.7943
   18MOL0     H 2481   7.728   4.134   7.818  1.1180 -0.2262 -0.8289
   18MOL0     H 2482   7.508   4.081   7.882  0.6847  0.2375 -1.2475
   18MOL0     H 2483   7.473   3.942   7.792 -0.3663 -3.2332  0.1901
   18MOL0     H 2484   7.469   3.928   7.969  2.0028  0.5279  1.2168
   19MOL0     O 2485   0.124   2.350   9.764  0.5487  0.9143 -0.1096
   19MOL0     C 2486   0.167   2.234   9.752  0.4594  0.4595  0.3545
   19MOL0     O 2487   0.172   2.169   9.628 -0.9699 -0.6510 -0.2314
   19MOL0     C 2488   0.087   2.222   9.529 -0.0834 -0.1128  0.4604
   19MOL0     C 2489   0.139   2.312   9.433  0.1677  0.2157  0.7742
   19MOL0     C 2490   0.054   2.369   9.344 -0.2406  0.0108 -0.4055
   19MOL0     C 2491  -0.080   2.332   9.336  0.7299 -0.0034  0.7328
   19MOL0     O 2492  -0.156   2.390   9.230  0.1610 -0.5400  0.5083
   19MOL0     C 2493  -0.151   2.530   9.208  0.4513  0.3221  0.2819
   19MOL0     C 2494  -0.283   2.577   9.140 -0.1227 -0.2999 -0.9861
   19MOL0     C 2495  -0.407   2.574   9.227  0.3076  0.1480 -0.3060
   19MOL0     C 2496  -0.508   2.680   9.186  0.3217  0.5195  0.7078
   19MOL0     C 2497  -0.606   2.647   9.075 -0.1369 -0.2426 -0.1740
   19MOL0     C 2498  -0.718   2.752   9.058  0.0043 -0.0349  0.8170
   19MOL0     C 2499  -0.670   2.887   9.005  0.1178 -0.6690 -0.3693
   19MOL0     C 2500  -0.602   2.869   8.871 -0.1103  0.0832  0.2282
   19MOL0     N 2501  -0.605   2.986   8.773  0.0079  0.3367 -0.2342
   19MOL0     C 2502  -0.548   2.967   8.650  0.0050 -0.7093 -1.0715
   19MOL0     C 2503  -0.587   3.079   8.578  0.5241  0.5438 -0.7779
   19MOL0     C 2504  -0.544   3.112   8.435  0.5571 -0.2169 -0.0086
   19MOL0     C 2505  -0.481   3.255   8.422 -0.4674 -0.2941  0.4523
   19MOL0     C 2506  -0.330   3.262   8.393 -0.0216 -0.4392 -0.0215
   19MOL0     C 2507  -0.282   3.405   8.394 -0.5082 -0.5596  0.2735
   19MOL0     O 2508  -0.155   3.430   8.336  0.8848  0.2890 -0.3315
   19MOL0     C 2509  -0.042   3.469   8.413  0.7904 -0.1905  0.9106
   19MOL0     C 2510  -0.048   3.565   8.510 -1.0636 -0.2737 -0.6774
   19MOL0     C 2511   0.080   3.600   8.574 -0.3405 -0.3297  0.3423
   19MOL0     C 2512   0.075   3.701   8.685 -0.2989  0.3031  0.4251
   19MOL0     C 2513   0.197   3.529   8.549  0.2526 -0.1695 -0.1608
   19MOL0     C 2514   0.336   3.530   8.618 -0.1003 -0.2726 -0.0497
   19MOL0     O 2515   0.351   3.628   8.705  0.2471 -0.1532  0.0075
   19MOL0     C 2516   0.471   3.660   8.763 -0.1367  0.3643 -0.7767
   19MOL0     C 2517   0.467   3.714   8.894 -0.4291 -0.9147  0.0498
   19MOL0     C 2518   0.579   3.741   8.969  0.3798  0.8334  0.4489
   19MOL0     C 2519   0.707   3.716   8.922 -0.4709  0.1152 -0.5353
   19MOL0     O 2520   0.811   3.739   9.005  0.5360  0.0446  0.0270
   19MOL0     C 2521   0.930   3.795   8.952  0.2492 -0.7946 -0.4354
   19MOL0     C 2522   0.936   3.932   9.008  0.3386  0.6486  0.0428
   19MOL0     C 2523   0.845   4.040   8.951 -0.1913 -0.8942  0.1374
   19MOL0     C 2524   0.852   4.057   8.803  0.6205  0.4270 -0.2603
   19MOL0     C 2525   0.757   4.180   8.767  0.1203 -0.4040 -0.6016
   19MOL0     C 2526   0.611   4.110   8.774  0.1085 -0.1403  0.4393
   19MOL0     C 2527   0.519   4.203   8.703 -0.2772  0.0709  0.1677
   19MOL0     C 2528   0.369   4.174   8.718 -0.4637 -0.4359  0.1787
   19MOL0    Cl 2529   0.324   4.200   8.885 -0.1892  0.0530  0.9391
   19MOL0     C 2530   0.720   3.669   8.786  0.2915 -0.6437 -1.2290
   19MOL0     C 2531   0.604   3.645   8.714  0.0515 -0.7433 -0.1850
   19MOL0     O 2532   0.419   3.442   8.591 -0.4092 -0.2159 -0.4126
   19MOL0     C 2533   0.182   3.420   8.459 -0.2989 -1.0545  0.8341
   19MOL0     C 2534   0.069   3.387   8.397 -0.4677 -0.5407  0.2767
   19MOL0     N 2535  -0.662   3.157   8.659  0.2632 -0.6143 -0.3131
   19MOL0     N 2536  -0.675   3.098   8.773  0.4825 -1.0332  0.0328
   19MOL0     C 2537  -0.133   2.227   9.420  0.1116 -0.3860 -0.4693
   19MOL0     C 2538  -0.041   2.181   9.525 -0.2494 -0.5034 -0.4478
   19MOL0     C 2539   0.192   2.151   9.878 -0.0155 -0.3694 -0.0754
   19MOL0     C 2540   0.184   2.009   9.859  0.6586 -0.1006 -0.3020
   19MOL0     C 2541   0.209   1.933   9.974  0.2579  0.2883  0.0739
   19MOL0     C 2542   0.240   1.985  10.104 -0.5575 -0.0035 -0.1374
   19MOL0     O 2543   0.256   1.905  10.215 -0.1008  0.2032 -0.4458
   19MOL0     C 2544   0.354   1.804  10.209 -0.1775 -0.1551  0.0496
   19MOL0     C 2545   0.492   1.854  10.233 -0.1589  0.2679 -0.6868
   19MOL0     C 2546   0.604   1.744  10.231 -0.0561  0.4135  1.3567
   19MOL0     C 2547   0.611   1.657  10.352  1.1525 -0.1478 -0.0113
   19MOL0     C 2548   0.604   1.723  10.478 -0.2484  0.0744 -0.1006
   19MOL0     C 2549   0.588   1.789  10.580 -0.3846  0.2423  0.6355
   19MOL0     C 2550   0.252   2.123  10.111 -0.0066 -0.0628 -0.2273
   19MOL0     C 2551   0.233   2.209  10.001  0.7244  0.9636 -0.1334
   19MOL0     C 2552   0.230   2.364  10.029 -0.4420  0.0849  0.1934
   19MOL0     H 2553   0.245   2.337   9.433  0.0215  0.8410  1.0891
   19MOL0     H 2554   0.106   2.433   9.274 -1.5785  0.4683 -1.0099
   19MOL0     H 2555  -0.069   2.555   9.139  0.4383  4.0503  1.4511
   19MOL0     H 2556  -0.127   2.583   9.300  1.8712  2.4460 -1.2138
   19MOL0     H 2557  -0.264   2.684   9.126 -2.8907  0.0267 -3.0538
   19MOL0     H 2558  -0.286   2.539   9.037  1.2145 -1.7276 -0.5350
   19MOL0     H 2559  -0.461   2.479   9.226  1.4198 -0.5834  1.9802
   19MOL0     H 2560  -0.375   2.611   9.325  1.7102 -1.6548 -0.0126
   19MOL0     H 2561  -0.570   2.686   9.276  0.4791 -1.8663  1.0411
   19MOL0     H 2562  -0.457   2.776   9.168  0.3869  0.7386  1.9385
   19MOL0     H 2563  -0.657   2.553   9.100 -0.6389 -0.2493 -1.1514
   19MOL0     H 2564  -0.557   2.630   8.979 -0.1299  0.7841 -0.3596
   19MOL0     H 2565  -0.789   2.704   8.990 -0.1048 -1.2865  1.7811
   19MOL0     H 2566  -0.762   2.768   9.156 -0.2638 -1.0800  0.8812
   19MOL0     H 2567  -0.600   2.935   9.075  2.3401 -2.8845 -0.9185
   19MOL0     H 2568  -0.756   2.954   8.998  0.9882  0.4554 -0.6993
   19MOL0     H 2569  -0.499   2.840   8.893  0.7630  3.9406  2.0939
   19MOL0     H 2570  -0.654   2.791   8.815  2.1818 -2.1798  1.0547
   19MOL0     H 2571  -0.492   2.877   8.626 -0.4480 -2.0221  2.2260
   19MOL0     H 2572  -0.636   3.116   8.376 -0.3486 -1.6953  1.2206
   19MOL0     H 2573  -0.490   3.031   8.384 -0.7087 -0.3087 -1.2618
   19MOL0     H 2574  -0.526   3.307   8.336  2.5383  0.3211 -0.8599
   19MOL0     H 2575  -0.498   3.318   8.510  3.1260  1.8157 -0.1679
   19MOL0     H 2576  -0.278   3.206   8.471 -2.8401 -1.0460  1.5753
   19MOL0     H 2577  -0.320   3.212   8.296 -3.2667  1.9847 -1.7974
   19MOL0     H 2578  -0.359   3.465   8.344 -0.1267 -0.4861 -0.2268
   19MOL0     H 2579  -0.292   3.438   8.498 -1.7956 -2.3069  0.7469
   19MOL0     H 2580  -0.145   3.595   8.547  0.0982  1.2853  1.3828
   19MOL0     H 2581   0.115   3.656   8.776 -0.0741 -1.8054 -0.6682
   19MOL0     H 2582  -0.024   3.733   8.720  0.6560  0.8808  2.8300
   19MOL0     H 2583   0.130   3.793   8.664  2.0253 -1.4318 -1.5008
   19MOL0     H 2584   0.375   3.721   8.950 -2.0146 -3.5465 -2.0039
   19MOL0     H 2585   0.579   3.772   9.073  0.0107 -1.8925  1.3285
   19MOL0     H 2586   1.012   3.737   8.997 -0.8593 -0.3064  2.4257
   19MOL0     H 2587   0.943   3.808   8.844 -0.1806  0.6080 -0.3307
   19MOL0     H 2588   0.908   3.937   9.114 -3.2137 -0.8663 -0.6573
   19MOL0     H 2589   1.040   3.962   8.996  0.6202 -0.2509  0.1759
   19MOL0     H 2590   0.887   4.128   8.999  0.0824 -1.0088  0.1122
   19MOL0     H 2591   0.742   4.045   8.985 -1.0970 -0.4332 -2.4232
   19MOL0     H 2592   0.816   3.972   8.744 -0.4656  1.6105 -1.3566
   19MOL0     H 2593   0.956   4.082   8.782  1.3915 -0.6197  1.9453
   19MOL0     H 2594   0.754   4.265   8.836  1.1757  0.9030 -2.0628
   19MOL0     H 2595   0.780   4.214   8.666 -2.2098  0.6552 -0.8282
   19MOL0     H 2596   0.568   4.090   8.873 -1.5268 -1.0565 -0.4208
   19MOL0     H 2597   0.614   4.020   8.712 -2.2130 -1.0839  1.5432
   19MOL0     H 2598   0.546   4.199   8.596 -2.6010  1.7736 -0.5525
   19MOL0     H 2599   0.538   4.305   8.736 -2.2798 -0.7437  4.4056
   19MOL0     H 2600   0.356   4.065   8.716  0.8025 -1.3135  7.6353
   19MOL0     H 2601   0.308   4.223   8.642 -0.4178  2.1883  1.7192
   19MOL0     H 2602   0.816   3.636   8.748 -0.3006 -0.9791 -2.4823
   19MOL0     H 2603   0.608   3.604   8.613  4.0857  1.2862 -1.0686
   19MOL0     H 2604   0.258   3.347   8.436  0.1714 -0.4650  0.4840
   19MOL0     H 2605   0.063   3.296   8.338 -2.7750  0.7377 -1.6480
   19MOL0     H 2606  -0.236   2.195   9.407 -0.6528  0.6376  2.3417
   19MOL0     H 2607  -0.068   2.109   9.602 -2.3737  0.3738 -0.3168
   19MOL0     H 2608   0.170   1.958   9.764  0.9825  1.7600 -1.4212
   19MOL0     H 2609   0.198   1.827   9.952  0.3038  0.4696 -0.8573
   19MOL0     H 2610   0.335   1.728  10.285 -4.8607 -1.9044 -2.5232
   19MOL0     H 2611   0.357   1.744  10.118  1.4351 -1.2229  0.7542
   19MOL0     H 2612   0.495   1.916  10.323  4.0035  0.8011 -1.0238
   19MOL0     H 2613   0.519   1.910  10.143 -1.7673 -1.7536 -2.5489
   19MOL0     H 2614   0.575   1.687  10.143  3.4215 -2.0078  1.5539
   19MOL0     H 2615   0.702   1.789  10.212 -1.2014  2.9194  0.9160
   19MOL0     H 2616   0.705   1.601  10.347 -0.1499 -2.2896 -2.0259
   19MOL0     H 2617   0.529   1.587  10.339  0.2800  1.2377 -2.6273
   19MOL0     H 2618   0.571   1.834  10.676  0.0248 -0.4905  1.0586
   19MOL0     H 2619   0.268   2.161  10.211  0.7062  0.3797 -0.5000
   19MOL0     H 2620   0.278   2.403   9.939 -2.9044 -4.0336 -3.2382
   19MOL0     H 2621   0.125   2.389  10.046  0.0498  0.9558  2.2477
   19MOL0     H 2622   0.296   2.389  10.113  1.4493 -0.2324 -1.1335
   20MOL0     O 2623   5.090  10.389   7.035  0.2259  0.7670 -0.3558
   20MOL0     C 2624   5.069  10.506   7.088  0.7754  0.5261 -0.4012
   20MOL0     O 2625   4.942  10.545   7.116  0.7391  0.2086  0.5202
   20MOL0     C 2626   4.843  10.447   7.114  0.2328  0.6537 -0.3946
   20MOL0     C 2627   4.714  10.483   7.056 -0.2473  0.3657  0.1339
   20MOL0     C 2628   4.613  10.377   7.039  0.0398 -0.3682 -0.3085
   20MOL0     C 2629   4.633  10.254   7.103  0.0144 -0.8333  0.4441
   20MOL0     O 2630   4.540  10.157   7.091 -0.6563 -0.1960  0.0531
   20MOL0     C 2631   4.403  10.180   7.049  0.2527  0.1501 -0.8252
   20MOL0     C 2632   4.331  10.053   7.038  0.6136  0.6915  0.0286
   20MOL0     C 2633   4.180  10.070   7.046  0.2507 -0.5459 -0.0845
   20MOL0     C 2634   4.116   9.942   7.021  0.4894 -0.8519  0.6072
   20MOL0     C 2635   3.961   9.952   7.031  0.1746 -0.0799  1.0476
   20MOL0     C 2636   3.912   9.828   6.981  0.5148  0.6667  0.5874
   20MOL0     C 2637   3.759   9.835   6.962 -0.1384  0.2148  0.2852
   20MOL0     C 2638   3.702   9.708   6.901  0.4388  0.2261 -0.1530
   20MOL0     N 2639   3.576   9.665   6.966 -0.3309 -0.2985 -0.4936
   20MOL0     C 2640   3.574   9.560   7.054  0.4335 -0.3714 -0.1634
   20MOL0     C 2641   3.448   9.552   7.080  0.5171  0.3653  0.0144
   20MOL0     C 2642   3.384   9.451   7.175 -0.2960  1.3732  0.5014
   20MOL0     C 2643   3.303   9.333   7.102 -0.1551  0.3173  0.0522
   20MOL0     C 2644   3.155   9.347   7.065  0.3385 -1.1138 -0.2407
   20MOL0     C 2645   3.128   9.454   6.955 -0.3856  0.0772 -1.1446
   20MOL0     O 2646   2.984   9.466   6.930  0.1584  0.7613  0.9069
   20MOL0     C 2647   2.927   9.356   6.867 -0.4426  0.2980  0.4566
   20MOL0     C 2648   2.808   9.308   6.920  0.6936 -0.2608  0.9456
   20MOL0     C 2649   2.745   9.192   6.862  0.3282  0.6692 -0.3355
   20MOL0     C 2650   2.604   9.157   6.920 -0.1003 -0.2203  0.0918
   20MOL0     C 2651   2.804   9.138   6.743  0.5792  0.0749 -0.7501
   20MOL0     C 2652   2.741   9.035   6.682 -0.1731 -1.0294  0.6913
   20MOL0     O 2653   2.730   9.049   6.549  0.8791 -1.1787  0.2963
   20MOL0     C 2654   2.625   8.976   6.487  0.2026  0.9907 -0.7661
   20MOL0     C 2655   2.641   8.892   6.371 -0.4991  0.3685  0.7704
   20MOL0     C 2656   2.538   8.848   6.291 -0.1467  1.5693  0.4510
   20MOL0     C 2657   2.411   8.862   6.346 -0.4563 -0.0036  0.3221
   20MOL0     O 2658   2.286   8.821   6.295  0.3579  0.5296 -0.6918
   20MOL0     C 2659   2.282   8.722   6.186 -0.6263 -1.4755 -0.4769
   20MOL0     C 2660   2.317   8.587   6.245 -0.3104  0.6201  0.0095
   20MOL0     C 2661   2.298   8.478   6.131 -0.1635  0.5257 -0.1953
   20MOL0     C 2662   2.322   8.338   6.197 -0.3642 -0.2568 -0.0868
   20MOL0     C 2663   2.458   8.304   6.252  0.6683 -0.7872 -0.1771
   20MOL0     C 2664   2.571   8.301   6.159  0.4148  0.2187 -0.3195
   20MOL0     C 2665   2.695   8.341   6.256  0.7041  0.0995 -0.0624
   20MOL0     C 2666   2.811   8.383   6.170  0.3308  0.8427  0.6650
   20MOL0    Cl 2667   2.851   8.249   6.063  0.0838  0.6772 -0.6767
   20MOL0     C 2668   2.386   8.930   6.466  0.2968  0.1950  1.0947
   20MOL0     C 2669   2.492   8.981   6.540 -0.9123  0.0575 -0.6145
   20MOL0     O 2670   2.706   8.944   6.750  0.3239 -0.5624 -0.0696
   20MOL0     C 2671   2.922   9.188   6.688  0.1455  0.6635 -0.0621
   20MOL0     C 2672   2.986   9.294   6.756  1.4113 -0.5765  0.5891
   20MOL0     N 2673   3.374   9.651   7.014 -0.2860 -0.6883  0.3678
   20MOL0     N 2674   3.451   9.711   6.929  0.2733  1.1327  0.0348
   20MOL0     C 2675   4.746  10.225   7.175 -0.0418  0.5498  0.0829
   20MOL0     C 2676   4.851  10.319   7.175  0.1067  0.0705  0.1863
   20MOL0     C 2677   5.180  10.591   7.134 -0.5261 -0.4094  0.4030
   20MOL0     C 2678   5.149  10.723   7.173  1.3531 -0.1584 -0.4177
   20MOL0     C 2679   5.243  10.820   7.209 -0.8797 -0.3852 -0.2475
   20MOL0     C 2680   5.379  10.794   7.193  0.7965  0.8012 -0.1601
   20MOL0     O 2681   5.482  10.884   7.222  0.4642  0.1888 -0.3496
   20MOL0     C 2682   5.443  11.022   7.250  0.2379  0.4976  0.4661
   20MOL0     C 2683   5.553  11.096   7.333  0.5401  0.0169  0.8700
   20MOL0     C 2684   5.500  11.235   7.376  0.4942 -0.2909 -0.9757
   20MOL0     C 2685   5.584  11.297   7.496 -0.2097  0.2257  0.4278
   20MOL0     C 2686   5.718  11.328   7.451  0.7210  1.4967  0.4958
   20MOL0     C 2687   5.826  11.340   7.402  0.4798  0.0820  0.2404
   20MOL0     C 2688   5.416  10.668   7.154  0.0358 -0.2405 -0.4196
   20MOL0     C 2689   5.318  10.570   7.108 -0.3310 -0.2506 -0.6361
   20MOL0     C 2690   5.376  10.445   7.042 -0.0708  0.0508  0.7575
   20MOL0     H 2691   4.706  10.581   7.012 -0.6255 -1.0612 -3.2734
   20MOL0     H 2692   4.516  10.418   7.011 -0.4127 -0.6379  0.7770
   20MOL0     H 2693   4.399  10.227   6.950 -0.8172 -0.7048 -1.2089
   20MOL0     H 2694   4.349  10.243   7.120  1.8995  1.2506 -0.5020
   20MOL0     H 2695   4.356  10.008   6.941 -4.5430  0.3948 -1.4485
   20MOL0     H 2696   4.358   9.984   7.118 -1.0244 -0.2441 -0.1885
   20MOL0     H 2697   4.150  10.109   7.144 -2.2385 -3.1339  0.3056
   20MOL0     H 2698   4.146  10.143   6.972  0.6492  3.4772  3.3204
   20MOL0     H 2699   4.157   9.923   6.921  0.3585  0.5772  0.2624
   20MOL0     H 2700   4.147   9.865   7.092  1.9589  0.9775  2.0319
   20MOL0     H 2701   3.935  10.027   6.956 -1.0677 -0.2734  1.2659
   20MOL0     H 2702   3.932   9.980   7.132  1.6196  2.9328  0.7183
   20MOL0     H 2703   3.966   9.787   6.895 -1.7036  0.2389 -0.6870
   20MOL0     H 2704   3.918   9.749   7.057 -0.6244  1.8537  1.9681
   20MOL0     H 2705   3.725   9.924   6.909 -1.8186  0.0462  1.0348
   20MOL0     H 2706   3.706   9.839   7.057 -1.9669  2.3525 -0.7273
   20MOL0     H 2707   3.674   9.740   6.800  1.1997  0.0590 -0.4236
   20MOL0     H 2708   3.772   9.624   6.900 -0.1451 -0.3289 -2.6748
   20MOL0     H 2709   3.655   9.504   7.100 -0.3710 -0.4618  1.1968
   20MOL0     H 2710   3.316   9.513   7.235 -0.1417  1.9801  0.0629
   20MOL0     H 2711   3.459   9.409   7.243 -0.1989  1.6759  0.5835
   20MOL0     H 2712   3.372   9.301   7.023 -1.1447 -0.3804 -0.5435
   20MOL0     H 2713   3.308   9.256   7.181  0.5890  0.4201  0.1191
   20MOL0     H 2714   3.116   9.249   7.037  0.1759 -1.2816  0.5525
   20MOL0     H 2715   3.092   9.372   7.151 -1.8919 -0.9960 -1.8197
   20MOL0     H 2716   3.166   9.545   7.002 -1.3648 -1.6951  3.5915
   20MOL0     H 2717   3.189   9.433   6.867  0.8791  0.1782 -0.3185
   20MOL0     H 2718   2.764   9.362   7.004  1.7568 -0.9258  1.9683
   20MOL0     H 2719   2.529   9.159   6.840 -0.3149 -3.1453  0.1057
   20MOL0     H 2720   2.563   9.238   6.981  0.0342 -0.7101  0.8547
   20MOL0     H 2721   2.602   9.056   6.963  1.7449 -1.3125 -2.1567
   20MOL0     H 2722   2.742   8.879   6.333 -0.5416 -2.2265  1.3177
   20MOL0     H 2723   2.554   8.808   6.191 -1.2154  0.0685  0.8446
   20MOL0     H 2724   2.178   8.715   6.152 -0.0511  1.0226 -3.0376
   20MOL0     H 2725   2.349   8.762   6.110  1.8849 -1.3244  1.6617
   20MOL0     H 2726   2.423   8.569   6.267  0.0460  0.9430 -1.3324
   20MOL0     H 2727   2.262   8.574   6.339  0.0453  0.2084  0.1635
   20MOL0     H 2728   2.366   8.492   6.046 -1.9634 -1.7098 -2.1208
   20MOL0     H 2729   2.197   8.490   6.090 -0.3829 -0.9852 -0.1742
   20MOL0     H 2730   2.313   8.263   6.118  1.8341 -2.3038  1.4490
   20MOL0     H 2731   2.244   8.321   6.272  1.1183  1.0492  1.8531
   20MOL0     H 2732   2.478   8.371   6.336 -0.3539 -1.5128  0.6699
   20MOL0     H 2733   2.436   8.210   6.303 -0.3243 -1.1950 -1.3187
   20MOL0     H 2734   2.570   8.373   6.077  1.2149 -0.1417 -0.6549
   20MOL0     H 2735   2.593   8.205   6.112  3.2619 -0.0473  1.2978
   20MOL0     H 2736   2.715   8.248   6.310 -0.1838 -0.3837 -0.5362
   20MOL0     H 2737   2.682   8.432   6.315  0.4856 -0.7262  1.1935
   20MOL0     H 2738   2.895   8.391   6.240 -0.0922 -0.8466  1.3960
   20MOL0     H 2739   2.789   8.479   6.122  0.5655  1.6566  2.1464
   20MOL0     H 2740   2.285   8.940   6.504 -0.1482 -0.1278  0.0335
   20MOL0     H 2741   2.469   9.027   6.635 -4.2921  2.2899 -2.3230
   20MOL0     H 2742   2.980   9.154   6.603 -0.9906 -0.2086 -0.5237
   20MOL0     H 2743   3.081   9.331   6.719  0.0314  0.5821 -2.0686
   20MOL0     H 2744   4.748  10.136   7.238 -1.3663  0.7923  0.4953
   20MOL0     H 2745   4.936  10.294   7.238 -0.1977  0.5597  0.8016
   20MOL0     H 2746   5.042  10.740   7.171  0.7472 -3.3341 -0.9842
   20MOL0     H 2747   5.203  10.918   7.233 -0.9396 -0.1197 -1.3666
   20MOL0     H 2748   5.417  11.077   7.159 -2.6816 -1.8373 -0.2958
   20MOL0     H 2749   5.356  11.022   7.318  0.5457  0.7151  0.8602
   20MOL0     H 2750   5.645  11.117   7.277  0.2730  0.9792  0.7824
   20MOL0     H 2751   5.588  11.024   7.408  1.2958  0.0253  0.5330
   20MOL0     H 2752   5.499  11.306   7.293  0.4649 -0.7365 -1.3564
   20MOL0     H 2753   5.395  11.234   7.410  0.4936  0.3740 -0.9338
   20MOL0     H 2754   5.598  11.228   7.579  1.3382  1.1392  0.9724
   20MOL0     H 2755   5.527  11.386   7.521 -2.0965 -0.8146  0.0287
   20MOL0     H 2756   5.927  11.351   7.368  0.3331 -2.0419 -1.0158
   20MOL0     H 2757   5.523  10.661   7.140  0.2173  1.5967 -0.1476
   20MOL0     H 2758   5.484  10.454   7.034  0.0938 -1.5227  0.7856
   20MOL0     H 2759   5.361  10.350   7.095  1.5369 -0.7764 -0.2131
   20MOL0     H 2760   5.341  10.431   6.939  0.5426  1.3418  0.3593
   21MOL0     O 2761   3.359   6.260  10.700 -0.1549  0.8706  0.7739
   21MOL0     C 2762   3.350   6.343  10.609  0.8896 -0.4416  0.4737
   21MOL0     O 2763   3.417   6.343  10.492  0.6118  0.9039  0.0801
   21MOL0     C 2764   3.491   6.228  10.472 -0.4381 -0.3095  0.5492
   21MOL0     C 2765   3.625   6.253  10.430 -0.4529  0.4098  0.1322
   21MOL0     C 2766   3.712   6.151  10.414  0.5291 -0.3763 -0.5730
   21MOL0     C 2767   3.676   6.018  10.434 -0.2995  0.4939  0.0848
   21MOL0     O 2768   3.777   5.933  10.432  0.3512  0.3565 -0.0724
   21MOL0     C 2769   3.744   5.802  10.377  0.1710  0.3911 -0.0719
   21MOL0     C 2770   3.693   5.799  10.226  0.2281 -0.1029  0.5731
   21MOL0     C 2771   3.794   5.883  10.141  0.0834  0.1055 -0.0328
   21MOL0     C 2772   3.925   5.808  10.139 -0.1344  0.9058  0.6893
   21MOL0     C 2773   4.043   5.875  10.069 -0.5810 -0.1741  0.5342
   21MOL0     C 2774   4.105   6.006  10.133 -0.5050 -0.6952  0.6620
   21MOL0     C 2775   4.144   5.984  10.282  0.3078 -0.2238 -0.2227
   21MOL0     C 2776   4.240   6.087  10.334 -0.7312  0.3579 -0.0923
   21MOL0     N 2777   4.196   6.225  10.319  0.3098 -1.0163 -0.2877
   21MOL0     C 2778   4.248   6.322  10.238 -0.0920 -0.0214 -0.4128
   21MOL0     C 2779   4.177   6.435  10.260 -0.1474 -0.9407 -0.3329
   21MOL0     C 2780   4.214   6.564  10.192 -0.2154 -0.0079 -0.2124
   21MOL0     C 2781   4.261   6.656  10.297  0.3119 -0.4476  0.4061
   21MOL0     C 2782   4.352   6.767  10.235  0.4038 -0.2319 -0.3600
   21MOL0     C 2783   4.294   6.898  10.175 -0.0032  0.1534 -0.2945
   21MOL0     O 2784   4.215   6.859  10.065  0.1490  0.6005  0.0271
   21MOL0     C 2785   4.217   6.938   9.961 -0.3471 -0.1049 -0.5374
   21MOL0     C 2786   4.238   7.082   9.966 -0.3944 -0.0164  0.8002
   21MOL0     C 2787   4.249   7.158   9.846 -0.0258 -0.4976  0.0734
   21MOL0     C 2788   4.291   7.308   9.871  0.1680  0.2937 -0.3512
   21MOL0     C 2789   4.201   7.108   9.728 -0.7065 -1.0533 -0.1883
   21MOL0     C 2790   4.189   7.186   9.607 -0.6851 -0.3128  0.1953
   21MOL0     O 2791   4.116   7.128   9.514 -0.1816 -0.0088 -0.2770
   21MOL0     C 2792   4.096   7.202   9.401 -0.5709 -0.3916  0.3582
   21MOL0     C 2793   4.012   7.313   9.382 -0.1842  0.1222 -0.1988
   21MOL0     C 2794   4.003   7.386   9.264 -0.0812 -0.4440  0.6864
   21MOL0     C 2795   4.077   7.349   9.148  1.5328 -0.4769 -0.6801
   21MOL0     O 2796   4.069   7.408   9.023  0.4922 -0.1537  0.9991
   21MOL0     C 2797   3.964   7.493   8.986 -0.6478  0.0362  1.0782
   21MOL0     C 2798   3.991   7.536   8.840 -0.8213  0.4195  0.3615
   21MOL0     C 2799   4.129   7.602   8.825 -1.5982 -0.2582 -0.3740
   21MOL0     C 2800   4.145   7.641   8.674  0.4569 -0.9916 -0.5828
   21MOL0     C 2801   4.261   7.743   8.629 -0.6117 -0.8222  0.6827
   21MOL0     C 2802   4.205   7.886   8.678  0.5537  1.0500 -0.1065
   21MOL0     C 2803   4.319   7.990   8.716  0.0424  0.9363  0.1359
   21MOL0     C 2804   4.257   8.114   8.790 -1.1800 -0.4472  0.3305
   21MOL0    Cl 2805   4.144   8.189   8.681 -0.6965 -0.1678 -0.2110
   21MOL0     C 2806   4.157   7.229   9.161  0.1628  0.0740 -0.1466
   21MOL0     C 2807   4.169   7.167   9.283 -0.5504 -0.6126  0.8640
   21MOL0     O 2808   4.237   7.298   9.595  0.4346  0.6379  0.1267
   21MOL0     C 2809   4.166   6.972   9.732  0.1759 -0.0064 -0.3428
   21MOL0     C 2810   4.175   6.882   9.843  0.5946  0.3376  0.8364
   21MOL0     N 2811   4.092   6.420  10.368  0.3046  0.0654  0.7006
   21MOL0     N 2812   4.098   6.291  10.396 -0.2850 -0.6722 -0.7319
   21MOL0     C 2813   3.536   5.989  10.459  1.3854 -0.1846  0.8380
   21MOL0     C 2814   3.449   6.094  10.481  0.6434 -0.1056 -0.2014
   21MOL0     C 2815   3.264   6.466  10.654 -0.2254 -0.1344  0.0728
   21MOL0     C 2816   3.193   6.439  10.770 -0.8198 -1.2887 -0.5952
   21MOL0     C 2817   3.109   6.540  10.829 -0.6131 -0.1124  0.2635
   21MOL0     C 2818   3.101   6.660  10.761  0.1260  0.1307  0.0645
   21MOL0     O 2819   3.034   6.762  10.807  0.7980 -0.5181  0.1298
   21MOL0     C 2820   2.966   6.775  10.937 -0.1602 -0.5999  0.3086
   21MOL0     C 2821   2.871   6.886  10.917  0.1471  0.8004  1.0832
   21MOL0     C 2822   2.742   6.844  10.834  0.2828 -0.4134  0.5434
   21MOL0     C 2823   2.713   6.938  10.715  0.4050  0.4343 -0.0813
   21MOL0     C 2824   2.616   6.896  10.613 -0.4233 -0.7778  1.0502
   21MOL0     C 2825   2.540   6.873  10.527 -0.5381  0.3150 -0.2898
   21MOL0     C 2826   3.166   6.679  10.638  0.6312  0.0606  0.6140
   21MOL0     C 2827   3.253   6.590  10.587 -0.9275  0.1230 -0.1597
   21MOL0     C 2828   3.321   6.622  10.458 -0.7124  0.2567  0.2841
   21MOL0     H 2829   3.643   6.357  10.403 -0.7158  0.9971  2.0612
   21MOL0     H 2830   3.815   6.173  10.389  0.5963 -1.4078 -1.2191
   21MOL0     H 2831   3.677   5.753  10.448  4.8209 -2.1571  3.0975
   21MOL0     H 2832   3.830   5.734  10.385 -1.0512 -1.2202 -0.2059
   21MOL0     H 2833   3.684   5.701  10.179 -0.2462  1.0382 -1.8539
   21MOL0     H 2834   3.595   5.847  10.226  1.4786  2.9473  4.0895
   21MOL0     H 2835   3.736   5.892  10.048  0.0124 -1.5788 -0.1859
   21MOL0     H 2836   3.800   5.982  10.188  0.5463  0.3007 -0.4941
   21MOL0     H 2837   3.954   5.791  10.244  2.2503  2.6109  0.3871
   21MOL0     H 2838   3.899   5.719  10.081 -1.1178  3.2264 -2.7189
   21MOL0     H 2839   4.013   5.909   9.970  0.3757  1.5432  0.8038
   21MOL0     H 2840   4.112   5.792  10.055 -0.8565 -1.4152  4.9227
   21MOL0     H 2841   4.188   6.046  10.075  0.0383 -1.6301  0.7626
   21MOL0     H 2842   4.033   6.088  10.136 -0.9389 -1.0456 -0.1156
   21MOL0     H 2843   4.195   5.889  10.301  0.9478  0.2336  0.3946
   21MOL0     H 2844   4.057   5.980  10.347  1.0350 -2.7136  0.7134
   21MOL0     H 2845   4.264   6.072  10.440  0.4261 -0.3174 -0.4333
   21MOL0     H 2846   4.334   6.083  10.279 -0.4091  0.2776  0.4572
   21MOL0     H 2847   4.322   6.306  10.160 -0.3370 -1.2331 -0.4186
   21MOL0     H 2848   4.129   6.606  10.136  0.7666  2.5051  0.0459
   21MOL0     H 2849   4.297   6.553  10.122  0.7243  3.3137  0.2371
   21MOL0     H 2850   4.177   6.705  10.346 -0.3893 -3.2224  2.1691
   21MOL0     H 2851   4.315   6.593  10.368 -0.2421  0.3429  1.5552
   21MOL0     H 2852   4.420   6.794  10.316  0.4719 -0.4423 -0.3475
   21MOL0     H 2853   4.411   6.716  10.158 -3.2811 -0.8881 -3.0257
   21MOL0     H 2854   4.238   6.945  10.257  5.1164 -0.1355  3.9120
   21MOL0     H 2855   4.370   6.973  10.150 -0.9393  0.3804 -2.6951
   21MOL0     H 2856   4.253   7.125  10.064 -0.6913  0.8270  0.4772
   21MOL0     H 2857   4.208   7.375   9.849 -2.8702 -1.3270  4.6579
   21MOL0     H 2858   4.381   7.332   9.813  3.2129 -1.3717  3.2820
   21MOL0     H 2859   4.318   7.322   9.976  3.1326 -0.7082 -0.8875
   21MOL0     H 2860   3.961   7.351   9.470  2.2579 -1.8209  2.2181
   21MOL0     H 2861   3.941   7.475   9.253 -0.1049 -0.4666  0.6333
   21MOL0     H 2862   3.867   7.452   9.014  0.0875 -4.5532 -1.8656
   21MOL0     H 2863   3.969   7.584   9.046 -0.0712  0.6858  0.0811
   21MOL0     H 2864   3.983   7.443   8.783 -0.9724  0.0015  1.0496
   21MOL0     H 2865   3.907   7.595   8.803  0.3474  1.4328 -0.7858
   21MOL0     H 2866   4.221   7.544   8.844 -0.6167  1.2395 -0.3770
   21MOL0     H 2867   4.134   7.688   8.893  0.4864 -1.7764  1.5862
   21MOL0     H 2868   4.053   7.686   8.634  0.1485  0.0462  1.1727
   21MOL0     H 2869   4.166   7.544   8.629 -1.4916 -2.2922  1.1127
   21MOL0     H 2870   4.357   7.709   8.670 -0.0084  0.1531  0.1185
   21MOL0     H 2871   4.274   7.739   8.521 -1.2079  3.1658  0.3172
   21MOL0     H 2872   4.142   7.868   8.766 -1.0231 -1.5074 -1.6539
   21MOL0     H 2873   4.136   7.916   8.598 -1.8337  0.1663  1.5028
   21MOL0     H 2874   4.368   8.021   8.623 -0.9620  1.9762 -0.0776
   21MOL0     H 2875   4.391   7.947   8.786 -1.5142  0.3338  1.4378
   21MOL0     H 2876   4.332   8.188   8.818 -0.4883 -1.1066  0.2511
   21MOL0     H 2877   4.214   8.083   8.885  2.3048  0.7059  2.4737
   21MOL0     H 2878   4.235   7.191   9.096 -0.6637 -0.2107 -1.0009
   21MOL0     H 2879   4.242   7.087   9.291 -2.0257 -2.1355 -0.1264
   21MOL0     H 2880   4.119   6.929   9.644 -0.8935  1.4889 -0.5431
   21MOL0     H 2881   4.151   6.777   9.835  0.3935  0.3555  1.1811
   21MOL0     H 2882   3.497   5.888  10.455 -0.5887  0.5392  0.5677
   21MOL0     H 2883   3.352   6.066  10.521  0.2714 -1.9355 -2.1836
   21MOL0     H 2884   3.202   6.344  10.821 -0.3785 -1.4398 -0.9438
   21MOL0     H 2885   3.065   6.524  10.927 -0.4409  2.7655  0.8943
   21MOL0     H 2886   2.913   6.683  10.962  1.1815 -1.3859  0.3220
   21MOL0     H 2887   3.040   6.794  11.014 -0.7464 -3.1037  1.5820
   21MOL0     H 2888   2.924   6.968  10.868 -0.3596 -0.2190 -1.2905
   21MOL0     H 2889   2.837   6.925  11.013 -0.3661  2.3833  0.2997
   21MOL0     H 2890   2.757   6.753  10.777  1.4047  0.4801 -0.6480
   21MOL0     H 2891   2.651   6.841  10.895  1.7974 -1.7465  2.9131
   21MOL0     H 2892   2.804   6.937  10.655 -1.0468 -2.2652 -2.4697
   21MOL0     H 2893   2.683   7.038  10.747  0.4610  0.6715 -0.7479
   21MOL0     H 2894   2.493   6.822  10.446 -1.3124  0.5987 -0.0307
   21MOL0     H 2895   3.160   6.779  10.595  2.7332 -1.0388 -2.5824
   21MOL0     H 2896   3.288   6.723  10.430 -0.2619 -0.1749 -1.9833
   21MOL0     H 2897   3.427   6.623  10.486 -0.7318 -0.1172  0.3717
   21MOL0     H 2898   3.312   6.560  10.368  1.1780 -0.5109  0.5842
   22MOL0     O 2899   6.011   3.852   4.634  0.2991  0.1228  0.1561
   22MOL0     C 2900   6.010   3.946   4.553  0.4186  0.8890  0.5883
   22MOL0     O 2901   5.938   4.064   4.573  0.1475 -0.4898 -0.0181
   22MOL0     C 2902   5.917   4.106   4.701  0.5409  0.0498 -0.3006
   22MOL0     C 2903   5.981   4.066   4.815 -0.1691  0.1497 -0.3313
   22MOL0     C 2904   5.963   4.143   4.936 -0.1662  0.3910  0.8085
   22MOL0     C 2905   5.873   4.252   4.939 -0.1344  0.1145 -0.0931
   22MOL0     O 2906   5.873   4.335   5.048  0.0556  0.3561  0.2208
   22MOL0     C 2907   5.769   4.433   5.066 -0.1161 -0.1913 -0.6889
   22MOL0     C 2908   5.782   4.479   5.211  0.3602 -1.4263 -0.6596
   22MOL0     C 2909   5.748   4.363   5.315  0.1175 -0.7261  0.9621
   22MOL0     C 2910   5.835   4.368   5.452  0.2729 -0.1917  0.1601
   22MOL0     C 2911   5.761   4.292   5.570  0.0468 -0.1436 -0.0020
   22MOL0     C 2912   5.653   4.374   5.643 -0.3234  0.1817 -0.2067
   22MOL0     C 2913   5.716   4.496   5.727 -0.3356  0.4325  0.0782
   22MOL0     C 2914   5.606   4.579   5.793  0.5976 -1.0785  0.9987
   22MOL0     N 2915   5.642   4.721   5.820 -0.2315  0.2211  0.3942
   22MOL0     C 2916   5.649   4.829   5.735 -0.8939  0.1259 -0.0991
   22MOL0     C 2917   5.732   4.919   5.788 -0.2027 -0.3459 -0.1631
   22MOL0     C 2918   5.771   5.057   5.748 -0.0571  0.3187  0.5658
   22MOL0     C 2919   5.866   5.041   5.622 -0.5181 -0.8293 -0.8400
   22MOL0     C 2920   5.792   5.061   5.484 -0.1933 -0.1976 -0.1213
   22MOL0     C 2921   5.902   5.032   5.383  0.8337  0.4722 -0.1997
   22MOL0     O 2922   5.945   4.892   5.388  0.2053 -0.0884 -0.0207
   22MOL0     C 2923   6.058   4.853   5.308  0.2532 -0.4673  0.5864
   22MOL0     C 2924   6.094   4.716   5.318  1.2163  0.2212  0.2645
   22MOL0     C 2925   6.188   4.663   5.229  0.3262 -0.1037  0.6973
   22MOL0     C 2926   6.184   4.515   5.196 -0.2833  0.8310 -0.8635
   22MOL0     C 2927   6.276   4.756   5.161  0.2795  0.1821 -0.3518
   22MOL0     C 2928   6.390   4.711   5.078 -0.7301  0.3395 -0.7674
   22MOL0     O 2929   6.466   4.602   5.132 -0.4002 -1.0634  0.2857
   22MOL0     C 2930   6.568   4.560   5.050 -0.3032 -0.9442 -0.8349
   22MOL0     C 2931   6.561   4.438   4.997 -0.5501 -0.5446 -0.6269
   22MOL0     C 2932   6.667   4.392   4.915 -1.0829  0.6512 -0.6463
   22MOL0     C 2933   6.792   4.453   4.919 -0.1598 -1.1645 -0.0121
   22MOL0     O 2934   6.891   4.387   4.847 -0.1548  0.1738 -0.0986
   22MOL0     C 2935   7.028   4.415   4.890 -0.1233 -0.2144 -0.4144
   22MOL0     C 2936   7.114   4.303   4.830  0.2962 -0.0479  0.1994
   22MOL0     C 2937   7.265   4.336   4.835  0.3121 -1.4064 -0.8301
   22MOL0     C 2938   7.353   4.220   4.790  0.8073 -0.0124 -0.2666
   22MOL0     C 2939   7.340   4.164   4.655  0.2252 -0.1338 -0.6682
   22MOL0     C 2940   7.389   4.264   4.546  0.3923  0.3367 -0.0710
   22MOL0     C 2941   7.396   4.186   4.419 -1.4443  0.4202  0.2913
   22MOL0     C 2942   7.407   4.276   4.294 -0.3015 -0.6304 -0.6698
   22MOL0    Cl 2943   7.256   4.293   4.208 -0.0537  0.2460 -0.0734
   22MOL0     C 2944   6.806   4.573   4.986 -0.2764 -0.0551 -0.0675
   22MOL0     C 2945   6.694   4.625   5.048 -0.7331 -0.1366 -0.6562
   22MOL0     O 2946   6.409   4.763   4.968 -0.1283 -0.0549  0.7473
   22MOL0     C 2947   6.242   4.890   5.155  0.4273 -0.3542 -0.6325
   22MOL0     C 2948   6.136   4.937   5.228 -0.3022  0.5893 -0.0464
   22MOL0     N 2949   5.775   4.866   5.910 -0.9924  0.6643 -0.5992
   22MOL0     N 2950   5.724   4.751   5.923  0.1549 -0.5248  0.4367
   22MOL0     C 2951   5.798   4.282   4.825 -0.0569  1.1244  0.9877
   22MOL0     C 2952   5.821   4.207   4.714 -0.7872 -0.1269  1.0560
   22MOL0     C 2953   6.074   3.930   4.423  0.1351 -0.6205  0.0724
   22MOL0     C 2954   6.016   4.001   4.317 -0.1353  0.4661  1.0862
   22MOL0     C 2955   6.060   3.971   4.189  0.4735 -0.1760 -0.0589
   22MOL0     C 2956   6.165   3.884   4.154 -0.2581 -0.3529 -0.1885
   22MOL0     O 2957   6.226   3.856   4.032 -0.2318  0.0289  0.6018
   22MOL0     C 2958   6.141   3.798   3.939 -0.5187  0.2171  0.3405
   22MOL0     C 2959   6.131   3.904   3.833  0.1375  0.5606 -0.2052
   22MOL0     C 2960   6.039   3.865   3.718 -1.2888 -0.3292 -0.0646
   22MOL0     C 2961   6.070   3.947   3.598  0.1161  0.9994 -0.4503
   22MOL0     C 2962   6.067   4.088   3.601 -0.4971 -1.0333  0.4857
   22MOL0     C 2963   6.079   4.213   3.585 -1.8184  0.3429  0.0869
   22MOL0     C 2964   6.220   3.819   4.265 -0.0193  0.6402  0.0669
   22MOL0     C 2965   6.176   3.840   4.398  0.6153  0.0830 -0.8280
   22MOL0     C 2966   6.247   3.770   4.507 -0.1986 -0.0955 -0.7751
   22MOL0     H 2967   6.042   3.977   4.828 -0.6101 -0.1183 -0.0337
   22MOL0     H 2968   6.027   4.121   5.021  1.7366  0.7768 -0.4522
   22MOL0     H 2969   5.668   4.399   5.042  0.0412 -0.0305 -1.6377
   22MOL0     H 2970   5.795   4.524   5.011  2.9530  2.5955  4.5845
   22MOL0     H 2971   5.866   4.540   5.243 -0.4230  0.0725 -1.3460
   22MOL0     H 2972   5.698   4.549   5.216  1.3741 -0.1650 -0.8062
   22MOL0     H 2973   5.642   4.358   5.339 -0.6287  0.4130 -1.7405
   22MOL0     H 2974   5.772   4.271   5.261 -0.2108  1.0819 -2.5356
   22MOL0     H 2975   5.924   4.310   5.424 -0.2118 -0.2905 -1.2102
   22MOL0     H 2976   5.864   4.470   5.478 -2.7179  1.5666 -2.7482
   22MOL0     H 2977   5.837   4.257   5.641  0.3968  1.5080  0.4600
   22MOL0     H 2978   5.710   4.200   5.539 -1.8276  0.3605  1.3998
   22MOL0     H 2979   5.575   4.399   5.571  0.1806 -1.1745 -1.2718
   22MOL0     H 2980   5.612   4.293   5.704 -1.2387 -0.0750 -1.1381
   22MOL0     H 2981   5.790   4.556   5.674  1.4078  0.5329  2.4554
   22MOL0     H 2982   5.783   4.452   5.801  0.1302 -0.8075 -1.0301
   22MOL0     H 2983   5.511   4.583   5.739 -0.3717 -0.4375  2.6606
   22MOL0     H 2984   5.581   4.523   5.884 -1.3352 -0.3121  0.9857
   22MOL0     H 2985   5.614   4.843   5.633 -0.1935  1.6032 -0.1595
   22MOL0     H 2986   5.815   5.088   5.844  0.9855 -2.5948  1.1286
   22MOL0     H 2987   5.690   5.127   5.722  0.1293 -0.7567 -3.4785
   22MOL0     H 2988   5.939   5.123   5.630  1.0596 -2.2194 -0.4091
   22MOL0     H 2989   5.922   4.948   5.634  0.0814 -0.2559  1.1541
   22MOL0     H 2990   5.706   4.996   5.473 -0.4149  0.2653 -1.3027
   22MOL0     H 2991   5.758   5.165   5.484 -2.2002 -0.8115 -0.8601
   22MOL0     H 2992   5.869   5.054   5.281 -1.7745  0.4413  0.5678
   22MOL0     H 2993   5.981   5.094   5.426 -1.0588  0.7272  3.2905
   22MOL0     H 2994   6.038   4.649   5.382 -0.6226 -1.5092 -2.8995
   22MOL0     H 2995   6.092   4.476   5.241 -0.5749  1.4861 -0.8802
   22MOL0     H 2996   6.278   4.471   5.230  2.0138  5.8018  0.0427
   22MOL0     H 2997   6.169   4.497   5.089 -1.1889 -1.1772 -0.4573
   22MOL0     H 2998   6.467   4.388   5.020  0.1384 -0.2975  3.5977
   22MOL0     H 2999   6.662   4.299   4.859 -3.6340  1.6891 -2.3400
   22MOL0     H 3000   7.073   4.508   4.855  0.1405 -0.5735 -1.0435
   22MOL0     H 3001   7.043   4.404   4.998  1.6537  2.1207 -0.3458
   22MOL0     H 3002   7.093   4.209   4.883 -2.3468  0.2854 -0.1197
   22MOL0     H 3003   7.077   4.294   4.727  1.3923  1.2257 -0.3327
   22MOL0     H 3004   7.292   4.362   4.937 -1.0381 -0.3230 -0.7169
   22MOL0     H 3005   7.271   4.428   4.775 -1.6392 -0.9394 -0.3777
   22MOL0     H 3006   7.347   4.133   4.857 -0.0215  1.6279  1.9130
   22MOL0     H 3007   7.453   4.264   4.801  0.5382  1.8263 -4.0476
   22MOL0     H 3008   7.398   4.071   4.658  0.2581 -0.3083 -3.7776
   22MOL0     H 3009   7.238   4.127   4.639  0.3123  0.0659 -1.7898
   22MOL0     H 3010   7.490   4.294   4.575  0.2839 -0.1756  0.8857
   22MOL0     H 3011   7.327   4.352   4.529  2.7040  1.6313 -2.6848
   22MOL0     H 3012   7.308   4.122   4.402 -0.2523 -1.2243  0.0428
   22MOL0     H 3013   7.485   4.123   4.414 -0.1889  1.7551  3.5876
   22MOL0     H 3014   7.478   4.233   4.223 -0.9196 -0.5825 -1.3315
   22MOL0     H 3015   7.440   4.378   4.314 -0.7579 -0.9483  2.0232
   22MOL0     H 3016   6.903   4.623   4.978  0.2082 -1.2696 -3.1019
   22MOL0     H 3017   6.688   4.711   5.114  0.8991  0.3807 -1.1392
   22MOL0     H 3018   6.295   4.958   5.089 -0.8655  0.0986 -1.2520
   22MOL0     H 3019   6.121   5.045   5.234 -0.7831  0.9836 -4.8995
   22MOL0     H 3020   5.731   4.367   4.818 -1.1531  0.1309 -2.0304
   22MOL0     H 3021   5.774   4.246   4.625  2.7147 -0.1147 -0.9624
   22MOL0     H 3022   5.947   4.082   4.338  0.8032  1.9302 -1.0408
   22MOL0     H 3023   6.018   4.040   4.116 -2.7070  0.4286  2.1567
   22MOL0     H 3024   6.197   3.713   3.900  1.7733  1.3876  0.9104
   22MOL0     H 3025   6.042   3.761   3.966 -0.8086  1.0896  0.5125
   22MOL0     H 3026   6.230   3.910   3.787 -0.9019  0.7293 -2.5621
   22MOL0     H 3027   6.123   4.004   3.876  2.3566  1.3111 -1.3754
   22MOL0     H 3028   6.061   3.762   3.688 -1.6293 -0.6987  0.9249
   22MOL0     H 3029   5.940   3.887   3.758  0.4517  1.6606  3.5413
   22MOL0     H 3030   6.002   3.915   3.518 -1.3469 -0.6965  1.3806
   22MOL0     H 3031   6.167   3.912   3.562 -0.0420 -1.0915  0.9896
   22MOL0     H 3032   6.093   4.319   3.579  1.6260 -0.0919 -2.9038
   22MOL0     H 3033   6.292   3.741   4.248  1.7673  2.3884 -0.7912
   22MOL0     H 3034   6.300   3.845   4.567 -1.2941  0.6420 -0.7031
   22MOL0     H 3035   6.179   3.713   4.569  0.9310  1.9371  2.6188
   22MOL0     H 3036   6.314   3.694   4.466 -1.1412 -1.5471  0.3041
   23MOL0     O 3037   2.953   7.632   7.338 -0.6044  0.8399 -0.1342
   23MOL0     C 3038   3.070   7.649   7.318 -0.0167  0.2730 -0.2713
   23MOL0     O 3039   3.141   7.557   7.249 -0.6217  0.3700 -0.4738
   23MOL0     C 3040   3.078   7.441   7.219 -0.4195 -0.0498  0.1769
   23MOL0     C 3041   2.997   7.445   7.101 -0.3556  0.1581  0.9262
   23MOL0     C 3042   2.933   7.331   7.060  0.6485  0.9254  0.4092
   23MOL0     C 3043   2.955   7.212   7.128 -0.1538  0.3090 -0.1278
   23MOL0     O 3044   2.904   7.090   7.103  0.2058  0.3076  0.9014
   23MOL0     C 3045   2.863   7.064   6.973  0.1819  0.4974  0.4703
   23MOL0     C 3046   2.709   7.080   6.951  0.0949  0.6038 -0.5439
   23MOL0     C 3047   2.619   6.997   7.056 -0.3286 -0.1915 -0.8764
   23MOL0     C 3048   2.485   6.966   6.989  0.8401  0.3865 -0.3177
   23MOL0     C 3049   2.491   6.848   6.878 -0.2238 -0.4049 -0.5707
   23MOL0     C 3050   2.504   6.721   6.950  0.1127  0.5867 -0.3488
   23MOL0     C 3051   2.405   6.602   6.910  0.3117 -0.1786  0.4000
   23MOL0     C 3052   2.425   6.481   7.008  0.2501 -0.0520 -0.1818
   23MOL0     N 3053   2.390   6.350   6.962  0.5251  0.0278  0.1983
   23MOL0     C 3054   2.265   6.313   6.912  0.2804 -0.4860 -0.0790
   23MOL0     C 3055   2.272   6.182   6.878 -0.2895  0.4484  0.3404
   23MOL0     C 3056   2.163   6.091   6.821 -1.4237  0.7760 -0.4761
   23MOL0     C 3057   2.089   6.010   6.928  0.4450  0.0761  0.2191
   23MOL0     C 3058   1.961   6.070   6.979 -0.2034 -0.9821  0.1887
   23MOL0     C 3059   1.981   6.184   7.084 -0.3472  0.2441  0.2223
   23MOL0     O 3060   2.114   6.194   7.145  0.5201 -0.0791  0.4045
   23MOL0     C 3061   2.146   6.136   7.264  1.1968  1.2164  1.3948
   23MOL0     C 3062   2.061   6.131   7.379  0.0878  0.0777 -0.3081
   23MOL0     C 3063   2.096   6.070   7.499 -0.4265  0.1922 -1.1085
   23MOL0     C 3064   1.991   6.086   7.609  0.1077 -0.0757  0.0209
   23MOL0     C 3065   2.231   6.018   7.509  0.5414  0.0935 -0.2687
   23MOL0     C 3066   2.285   5.962   7.633  0.2410  0.2080  0.1273
   23MOL0     O 3067   2.424   5.967   7.643  0.3835  0.9025 -0.8532
   23MOL0     C 3068   2.494   5.880   7.730  0.5513 -0.6709 -0.6200
   23MOL0     C 3069   2.624   5.917   7.761 -0.0320  0.7001 -0.7492
   23MOL0     C 3070   2.703   5.843   7.853  0.1126 -0.0615 -0.3446
   23MOL0     C 3071   2.651   5.733   7.912  0.6020  0.8342 -0.1414
   23MOL0     O 3072   2.707   5.656   8.013  0.5555 -0.0943 -0.1174
   23MOL0     C 3073   2.741   5.741   8.119 -0.5332  0.1348  0.4261
   23MOL0     C 3074   2.801   5.658   8.234 -0.4722  0.5645 -0.3520
   23MOL0     C 3075   2.951   5.647   8.224  0.1371 -0.2123 -0.2377
   23MOL0     C 3076   2.991   5.585   8.081 -0.4297 -0.1891  1.1928
   23MOL0     C 3077   3.141   5.545   8.057  0.5701 -0.0893 -1.2586
   23MOL0     C 3078   3.243   5.643   8.130  0.1050 -0.1184  0.3848
   23MOL0     C 3079   3.289   5.568   8.263  0.2330 -0.4575  0.1914
   23MOL0     C 3080   3.425   5.620   8.303  0.0172 -0.7767  0.1585
   23MOL0    Cl 3081   3.514   5.496   8.411  0.3476  0.4481 -0.0018
   23MOL0     C 3082   2.526   5.681   7.869 -0.5606  0.0778 -0.0240
   23MOL0     C 3083   2.451   5.758   7.786 -0.1677  0.5365 -0.0159
   23MOL0     O 3084   2.207   5.900   7.706  0.2633 -0.4040 -0.3908
   23MOL0     C 3085   2.310   6.033   7.397 -0.1413  0.2658  0.4568
   23MOL0     C 3086   2.273   6.087   7.275 -0.6250  0.1456 -0.5822
   23MOL0     N 3087   2.400   6.144   6.909  0.3241  0.4689  0.3342
   23MOL0     N 3088   2.478   6.245   6.937  0.5936 -0.0883 -0.3467
   23MOL0     C 3089   3.037   7.213   7.243 -0.6875 -0.6497  0.5476
   23MOL0     C 3090   3.104   7.328   7.284 -0.6460  0.0622  0.0584
   23MOL0     C 3091   3.137   7.769   7.364  1.7450  0.3848 -0.7379
   23MOL0     C 3092   3.264   7.800   7.308 -0.7973  0.4954 -0.9488
   23MOL0     C 3093   3.326   7.917   7.346 -0.6046 -0.5705 -0.0427
   23MOL0     C 3094   3.263   8.015   7.421 -0.1392  0.1372  0.9126
   23MOL0     O 3095   3.327   8.136   7.445  0.0719  0.8414  0.2481
   23MOL0     C 3096   3.346   8.179   7.577  0.7860  0.1096  0.4582
   23MOL0     C 3097   3.380   8.328   7.585  0.3080  0.7375 -0.2205
   23MOL0     C 3098   3.266   8.425   7.541 -0.6264 -0.3822  0.3978
   23MOL0     C 3099   3.312   8.579   7.555 -0.2196  0.7544  0.3735
   23MOL0     C 3100   3.430   8.615   7.481  0.4398 -0.1217  0.4346
   23MOL0     C 3101   3.533   8.636   7.418 -0.2544 -0.1902 -0.6636
   23MOL0     C 3102   3.133   7.982   7.475 -0.3454 -0.7584 -0.4362
   23MOL0     C 3103   3.070   7.863   7.453  0.2774  0.0427  0.4895
   23MOL0     C 3104   2.931   7.832   7.512 -0.0995 -0.5485 -0.4241
   23MOL0     H 3105   2.989   7.538   7.046  1.5681 -0.0991  0.1170
   23MOL0     H 3106   2.875   7.346   6.970 -0.3918  0.8532  1.0535
   23MOL0     H 3107   2.896   6.963   6.947  0.2803  0.6084  0.1595
   23MOL0     H 3108   2.905   7.127   6.893 -0.1363  0.5271  0.3243
   23MOL0     H 3109   2.692   7.185   6.978  1.8660  0.6783  0.4064
   23MOL0     H 3110   2.687   7.050   6.848 -2.9266  0.2854  0.0873
   23MOL0     H 3111   2.665   6.910   7.103  0.0763  0.3417 -0.2561
   23MOL0     H 3112   2.592   7.058   7.143 -0.9736 -1.7346  0.0362
   23MOL0     H 3113   2.412   6.938   7.065 -1.2603  3.6078 -0.9623
   23MOL0     H 3114   2.431   7.052   6.949 -0.0654  0.6134  1.3118
   23MOL0     H 3115   2.583   6.871   6.823 -0.8293  2.9456 -0.3900
   23MOL0     H 3116   2.402   6.846   6.815 -0.6866  2.6815 -0.1805
   23MOL0     H 3117   2.606   6.683   6.937  0.0916  0.0819  0.7878
   23MOL0     H 3118   2.496   6.737   7.058  1.4773  0.7559 -0.2480
   23MOL0     H 3119   2.428   6.564   6.810 -4.4019 -0.6033 -0.7540
   23MOL0     H 3120   2.301   6.634   6.918  0.7214  2.3952 -2.5514
   23MOL0     H 3121   2.532   6.480   7.029  0.7848  1.3367 -2.5230
   23MOL0     H 3122   2.374   6.500   7.103 -0.0774 -0.3315 -0.2993
   23MOL0     H 3123   2.177   6.376   6.920  1.2343  0.8524  0.1521
   23MOL0     H 3124   2.221   6.014   6.769  2.0205  0.7725  2.9008
   23MOL0     H 3125   2.097   6.144   6.752 -0.2440  1.5705 -1.0369
   23MOL0     H 3126   2.072   5.910   6.888 -0.1365 -0.9226  2.7605
   23MOL0     H 3127   2.154   5.982   7.011 -0.9400 -1.1437  0.9428
   23MOL0     H 3128   1.903   6.108   6.895  0.2754  1.2575  0.7928
   23MOL0     H 3129   1.899   5.992   7.025 -1.2067 -0.4232 -0.1879
   23MOL0     H 3130   1.951   6.277   7.036 -0.2004 -0.0159 -0.3776
   23MOL0     H 3131   1.914   6.172   7.170 -0.0280 -1.6024  0.2567
   23MOL0     H 3132   1.967   6.185   7.372  0.8900  2.1182  2.5507
   23MOL0     H 3133   1.911   6.160   7.596  1.9494  1.7871 -1.2437
   23MOL0     H 3134   2.029   6.105   7.709 -3.1041 -0.3245  1.4359
   23MOL0     H 3135   1.939   5.990   7.621 -1.2012  0.3353 -1.9271
   23MOL0     H 3136   2.663   6.015   7.732 -0.7257  1.6894  1.4313
   23MOL0     H 3137   2.803   5.876   7.879 -0.2215 -0.2998  1.3722
   23MOL0     H 3138   2.811   5.818   8.084  0.2342 -0.9944 -0.5744
   23MOL0     H 3139   2.653   5.793   8.158  0.4338  0.7428  1.8785
   23MOL0     H 3140   2.775   5.703   8.331 -0.6249 -1.4109  0.5766
   23MOL0     H 3141   2.775   5.552   8.232  0.4238  0.3397 -0.6869
   23MOL0     H 3142   2.982   5.578   8.304  2.8808  0.6649 -0.4302
   23MOL0     H 3143   2.996   5.745   8.242 -1.4375  0.4734  0.1276
   23MOL0     H 3144   2.971   5.649   7.994  4.1483  1.2418  0.8983
   23MOL0     H 3145   2.926   5.500   8.060 -2.1665  1.3380  0.0938
   23MOL0     H 3146   3.161   5.440   8.082  2.2045  0.4891  0.0143
   23MOL0     H 3147   3.161   5.559   7.950 -1.0912  0.9168 -1.4628
   23MOL0     H 3148   3.200   5.739   8.162  2.4064  0.8689  0.6676
   23MOL0     H 3149   3.323   5.657   8.057 -0.4061 -0.1448 -0.1875
   23MOL0     H 3150   3.287   5.460   8.247  0.0804 -0.2149 -1.7536
   23MOL0     H 3151   3.209   5.587   8.335 -0.4689  0.7374 -0.8651
   23MOL0     H 3152   3.415   5.713   8.360  0.3387 -0.4947 -0.2408
   23MOL0     H 3153   3.490   5.625   8.215  1.9606 -0.6467  1.5379
   23MOL0     H 3154   2.472   5.595   7.906  0.7312 -0.5037  0.6008
   23MOL0     H 3155   2.352   5.724   7.761  0.2619  1.2269 -2.9723
   23MOL0     H 3156   2.409   5.990   7.405 -0.8132 -1.2047  1.1496
   23MOL0     H 3157   2.349   6.090   7.197  0.0435  0.4553  0.0641
   23MOL0     H 3158   3.029   7.117   7.293 -1.8651 -1.2006 -0.6298
   23MOL0     H 3159   3.172   7.324   7.369  2.5072 -0.2579 -2.2828
   23MOL0     H 3160   3.316   7.724   7.251 -4.5005 -2.1400 -1.1762
   23MOL0     H 3161   3.423   7.933   7.300 -0.9676 -0.1825 -0.6875
   23MOL0     H 3162   3.255   8.164   7.636 -1.5161  1.2611 -2.5301
   23MOL0     H 3163   3.419   8.118   7.631  2.5551  2.5810  1.0561
   23MOL0     H 3164   3.477   8.355   7.542 -0.3602  4.6755  0.4170
   23MOL0     H 3165   3.390   8.345   7.692 -0.4134 -2.0330  0.3745
   23MOL0     H 3166   3.243   8.405   7.436  1.0555  0.0708 -0.0932
   23MOL0     H 3167   3.166   8.414   7.584 -1.6622  1.7284 -1.3053
   23MOL0     H 3168   3.322   8.586   7.664 -0.6238 -2.5072  0.7485
   23MOL0     H 3169   3.234   8.644   7.516  0.0403  1.2477  0.6733
   23MOL0     H 3170   3.630   8.657   7.380 -1.2605  3.6985 -1.4755
   23MOL0     H 3171   3.082   8.062   7.530 -0.4843  0.3923 -2.1691
   23MOL0     H 3172   2.897   7.892   7.598  1.1104 -4.7270  3.3495
   23MOL0     H 3173   2.856   7.831   7.433 -0.0407 -2.0274 -0.4877
   23MOL0     H 3174   2.930   7.739   7.569 -2.6102  0.3176  1.0971
   24MOL0     O 3175   7.360   1.959  11.487 -0.2517 -0.1738  0.1986
   24MOL0     C 3176   7.323   1.847  11.453  0.1011 -0.7893 -0.4823
   24MOL0     O 3177   7.239   1.820  11.345  0.1131  0.2998 -0.2883
   24MOL0     C 3178   7.171   1.926  11.296  0.4492 -1.0253  0.4467
   24MOL0     C 3179   7.038   1.961  11.327 -0.4700  0.2402 -0.0462
   24MOL0     C 3180   6.979   2.057  11.242 -0.1275 -0.1228  0.2767
   24MOL0     C 3181   7.036   2.113  11.133  0.3186 -1.4598 -0.3613
   24MOL0     O 3182   6.969   2.187  11.049  0.6834  0.2325  1.2509
   24MOL0     C 3183   6.992   2.327  11.064  0.8158 -0.5195 -0.3609
   24MOL0     C 3184   6.890   2.419  10.991  0.3321 -0.1835  0.6534
   24MOL0     C 3185   6.891   2.398  10.839  0.2140  1.2474 -1.5652
   24MOL0     C 3186   6.887   2.524  10.753  0.5647 -0.9461  0.0812
   24MOL0     C 3187   6.891   2.493  10.603 -0.2449  0.4372 -0.1702
   24MOL0     C 3188   6.852   2.623  10.528  0.1126  0.0834  0.6242
   24MOL0     C 3189   6.845   2.590  10.382 -0.9592 -0.7990 -0.0121
   24MOL0     C 3190   6.729   2.511  10.325 -0.3121  0.2290 -0.1950
   24MOL0     N 3191   6.770   2.465  10.200  0.0454  0.0526  0.7725
   24MOL0     C 3192   6.835   2.345  10.173  1.2247  0.0098  0.3431
   24MOL0     C 3193   6.853   2.355  10.042 -0.0400  0.2540  0.5797
   24MOL0     C 3194   6.926   2.271   9.950  0.4727 -0.5165 -1.1815
   24MOL0     C 3195   7.078   2.289   9.952  0.4741 -0.5800  0.4851
   24MOL0     C 3196   7.132   2.205   9.835 -0.3711 -0.4155 -0.2918
   24MOL0     C 3197   7.279   2.209   9.850 -1.8061  0.1031  0.0954
   24MOL0     O 3198   7.328   2.111   9.935  0.3559  1.0213 -0.0481
   24MOL0     C 3199   7.464   2.077   9.926  0.6143  0.5310 -0.6110
   24MOL0     C 3200   7.510   1.972  10.008  0.3801 -0.3750 -0.9345
   24MOL0     C 3201   7.642   1.926  10.003 -1.3426 -0.0165  0.0857
   24MOL0     C 3202   7.667   1.789  10.060 -1.4176 -0.5395 -0.6525
   24MOL0     C 3203   7.741   1.990   9.917  0.8750 -0.6192 -1.4917
   24MOL0     C 3204   7.881   1.950   9.916  0.0795  0.3173 -0.4159
   24MOL0     O 3205   7.937   1.907  10.026  0.0258  0.0000 -0.9175
   24MOL0     C 3206   8.063   1.848  10.026 -0.3239 -0.3760  1.5228
   24MOL0     C 3207   8.100   1.719  10.074  1.5239  0.2392  0.8091
   24MOL0     C 3208   8.218   1.660  10.059  0.2720  0.2110 -0.3895
   24MOL0     C 3209   8.324   1.738  10.020 -0.0061  0.0613 -0.0521
   24MOL0     O 3210   8.447   1.670  10.015 -0.7264 -0.1231 -0.2346
   24MOL0     C 3211   8.571   1.735   9.960  0.5425  0.6522 -0.7516
   24MOL0     C 3212   8.578   1.710   9.812  0.1885  0.0435 -0.3443
   24MOL0     C 3213   8.557   1.574   9.774 -0.0253 -0.1861  0.2448
   24MOL0     C 3214   8.513   1.560   9.625 -0.3246 -0.0442  0.6803
   24MOL0     C 3215   8.487   1.418   9.585  0.1662  0.1173  0.2386
   24MOL0     C 3216   8.420   1.395   9.447  0.5476 -0.0707  0.1591
   24MOL0     C 3217   8.282   1.336   9.450  0.1168  0.5571  0.2418
   24MOL0     C 3218   8.213   1.346   9.320 -0.0327  0.9054  0.8135
   24MOL0    Cl 3219   8.317   1.299   9.178 -0.7070  0.0289  0.1065
   24MOL0     C 3220   8.308   1.865   9.971  0.4462  0.1545 -0.9030
   24MOL0     C 3221   8.175   1.906   9.963 -0.4116 -0.7730 -0.4965
   24MOL0     O 3222   7.945   1.964   9.811 -0.2630  0.3207  0.8579
   24MOL0     C 3223   7.696   2.098   9.835  0.3110  0.4973 -0.3809
   24MOL0     C 3224   7.562   2.142   9.849 -0.8445  0.2099  0.2286
   24MOL0     N 3225   6.799   2.463   9.974  0.7532 -0.3670 -0.4143
   24MOL0     N 3226   6.757   2.534  10.075  0.0893  0.6660 -0.1899
   24MOL0     C 3227   7.162   2.078  11.107 -0.6251  0.0032  0.1015
   24MOL0     C 3228   7.236   1.989  11.187  0.5856 -0.3864 -0.5582
   24MOL0     C 3229   7.416   1.741  11.498 -0.1314 -0.5818 -0.5900
   24MOL0     C 3230   7.475   1.646  11.410  1.3418 -0.2265 -0.3883
   24MOL0     C 3231   7.572   1.551  11.443 -0.4122  0.1199 -0.2005
   24MOL0     C 3232   7.620   1.551  11.568 -0.1628  0.2298  0.3048
   24MOL0     O 3233   7.709   1.460  11.606 -0.6389  0.0450 -0.0375
   24MOL0     C 3234   7.823   1.513  11.669 -0.0241 -0.5863  0.3852
   24MOL0     C 3235   7.947   1.427  11.652 -0.1723  0.4511  0.6291
   24MOL0     C 3236   7.980   1.413  11.504 -0.8058  0.2530 -0.2781
   24MOL0     C 3237   7.896   1.316  11.414 -0.0338  0.2439 -1.0441
   24MOL0     C 3238   7.938   1.308  11.273 -1.3486  0.3984  0.3844
   24MOL0     C 3239   7.961   1.338  11.152  0.2403 -0.5995  0.7616
   24MOL0     C 3240   7.561   1.636  11.664  0.1611  1.1155  0.0096
   24MOL0     C 3241   7.467   1.733  11.634  0.2498 -0.4555  0.2508
   24MOL0     C 3242   7.451   1.830  11.748  0.2074 -0.4892 -0.8125
   24MOL0     H 3243   6.971   1.917  11.400  0.5390 -2.5718 -0.7113
   24MOL0     H 3244   6.888   2.112  11.264 -0.4296  1.0356 -3.3185
   24MOL0     H 3245   7.094   2.355  11.034  1.7128 -0.3571  2.5300
   24MOL0     H 3246   6.996   2.352  11.171  2.5263 -1.0515 -0.2723
   24MOL0     H 3247   6.786   2.425  11.024 -0.1503  1.2749 -0.9726
   24MOL0     H 3248   6.922   2.521  11.011 -1.7110  0.8031 -0.7801
   24MOL0     H 3249   6.988   2.354  10.816  0.4917  1.1649 -0.3205
   24MOL0     H 3250   6.807   2.333  10.816  0.4482 -1.3017  3.3552
   24MOL0     H 3251   6.788   2.565  10.774  0.5376 -1.0217  0.0999
   24MOL0     H 3252   6.958   2.599  10.791  2.0758 -2.6097  0.7223
   24MOL0     H 3253   6.827   2.413  10.565  0.7933  1.4541 -4.5186
   24MOL0     H 3254   6.993   2.460  10.582 -0.5594 -2.8274  2.5482
   24MOL0     H 3255   6.756   2.657  10.567  0.5527 -1.0864  2.9094
   24MOL0     H 3256   6.926   2.700  10.548  2.4407 -1.8347 -0.0761
   24MOL0     H 3257   6.931   2.523  10.365 -0.4167  0.4026 -2.5470
   24MOL0     H 3258   6.870   2.676  10.318 -0.4720 -0.9614 -0.0510
   24MOL0     H 3259   6.704   2.431  10.396  3.1211 -1.2425 -0.4689
   24MOL0     H 3260   6.645   2.581  10.321  1.0585  2.0318  1.0701
   24MOL0     H 3261   6.882   2.271  10.237  1.4319  1.3182  1.7569
   24MOL0     H 3262   6.889   2.296   9.849  2.1687  0.8869 -1.5023
   24MOL0     H 3263   6.895   2.168   9.972 -0.8774  0.8589  5.0699
   24MOL0     H 3264   7.088   2.395   9.930  3.4466 -0.5314  1.6684
   24MOL0     H 3265   7.111   2.262  10.053  0.3778  1.0867  0.9900
   24MOL0     H 3266   7.084   2.107   9.827 -3.8076  0.9709  1.3154
   24MOL0     H 3267   7.124   2.258   9.740  3.1723  0.5153 -0.1998
   24MOL0     H 3268   7.313   2.179   9.751  0.0766 -2.7374  1.4932
   24MOL0     H 3269   7.323   2.305   9.879 -0.5959 -0.2509 -0.5346
   24MOL0     H 3270   7.440   1.916  10.069  0.8745 -1.3064 -1.1886
   24MOL0     H 3271   7.728   1.798  10.151 -1.7440  2.6056 -0.6362
   24MOL0     H 3272   7.724   1.728   9.989  1.9525  1.3500  0.1840
   24MOL0     H 3273   7.572   1.746  10.091 -2.2782 -0.4080 -2.9793
   24MOL0     H 3274   8.023   1.655  10.116  0.1816  0.4109 -1.2367
   24MOL0     H 3275   8.232   1.561  10.102 -1.3950 -0.3960 -1.2001
   24MOL0     H 3276   8.567   1.844   9.975  1.0829  0.3940  1.8022
   24MOL0     H 3277   8.654   1.689  10.013 -0.5133  2.2549  2.6692
   24MOL0     H 3278   8.503   1.766   9.756  0.5969  0.0878 -0.8605
   24MOL0     H 3279   8.677   1.734   9.771  0.9651 -2.1808  0.0878
   24MOL0     H 3280   8.485   1.522   9.838  0.4000 -1.6828 -0.4453
   24MOL0     H 3281   8.648   1.516   9.789 -0.5406 -1.0305  0.1859
   24MOL0     H 3282   8.589   1.604   9.559 -0.1223 -0.6681  0.4796
   24MOL0     H 3283   8.423   1.616   9.598 -0.6068 -0.8187 -0.0703
   24MOL0     H 3284   8.584   1.369   9.577  1.4712  2.5653  0.1146
   24MOL0     H 3285   8.426   1.372   9.664  0.5373 -0.2326  0.3225
   24MOL0     H 3286   8.483   1.333   9.383  1.3679  1.8465 -0.9962
   24MOL0     H 3287   8.417   1.486   9.386  3.1770 -0.9260 -1.3683
   24MOL0     H 3288   8.216   1.397   9.513  0.6184  0.6744  0.6573
   24MOL0     H 3289   8.291   1.234   9.488  0.8554  0.1092 -1.0657
   24MOL0     H 3290   8.187   1.451   9.303  0.0168  0.9880  1.2182
   24MOL0     H 3291   8.127   1.278   9.319 -0.3415  1.2879  1.0277
   24MOL0     H 3292   8.377   1.931   9.919  0.5248  3.2574  2.7210
   24MOL0     H 3293   8.151   2.000   9.913  1.7243  0.4103  0.5466
   24MOL0     H 3294   7.758   2.142   9.757 -0.5809 -0.9649 -1.9579
   24MOL0     H 3295   7.543   2.234   9.794  2.4159  0.4818 -0.6094
   24MOL0     H 3296   7.209   2.121  11.019 -0.1188  1.4384  1.0464
   24MOL0     H 3297   7.342   1.971  11.168  0.4333 -1.9746 -0.0911
   24MOL0     H 3298   7.434   1.658  11.310 -1.1062  2.2235  0.7682
   24MOL0     H 3299   7.627   1.479  11.384 -0.6226 -1.7851  1.8144
   24MOL0     H 3300   7.844   1.614  11.631  0.2113  0.1605  2.3730
   24MOL0     H 3301   7.809   1.512  11.777  1.4317  0.0522  0.5979
   24MOL0     H 3302   7.934   1.324  11.684  3.4093 -1.0005 -1.8577
   24MOL0     H 3303   8.037   1.466  11.701  2.2925 -1.9032 -1.6712
   24MOL0     H 3304   7.982   1.509  11.452 -0.5214  1.3124  1.5879
   24MOL0     H 3305   8.078   1.366  11.499 -0.6923  0.4966 -0.3540
   24MOL0     H 3306   7.789   1.339  11.415 -0.3338 -0.6031  3.1798
   24MOL0     H 3307   7.902   1.221  11.466  2.0370  1.4405  1.1028
   24MOL0     H 3308   7.976   1.351  11.047 -1.8767  2.1945  0.7039
   24MOL0     H 3309   7.591   1.628  11.768  2.8701 -0.8901 -0.8015
   24MOL0     H 3310   7.505   1.925  11.741  2.8145 -1.5934  2.1325
   24MOL0     H 3311   7.344   1.853  11.748 -0.3933 -2.5170 -4.3559
   24MOL0     H 3312   7.477   1.784  11.843 -0.5145 -0.4000 -0.5673
   25MOL0     O 3313   3.302  11.173   3.727 -0.0171  0.5372  0.1712
   25MOL0     C 3314   3.266  11.186   3.845 -0.4170  0.7151  0.3574
   25MOL0     O 3315   3.142  11.213   3.888  0.3910  0.1067 -0.2669
   25MOL0     C 3316   3.043  11.225   3.790 -0.0333 -0.7183 -0.0148
   25MOL0     C 3317   3.045  11.334   3.698  0.0706 -0.3606 -0.2724
   25MOL0     C 3318   2.932  11.358   3.612  0.0584  0.4332  0.2474
   25MOL0     C 3319   2.825  11.265   3.604 -0.3113  0.2970 -0.0696
   25MOL0     O 3320   2.720  11.303   3.519 -1.1249 -0.2226  0.1876
   25MOL0     C 3321   2.614  11.218   3.474 -0.9459  0.1707 -0.5774
   25MOL0     C 3322   2.531  11.268   3.358  0.2651 -0.1096  0.9021
   25MOL0     C 3323   2.603  11.320   3.236  0.1416  0.8351  0.2432
   25MOL0     C 3324   2.499  11.344   3.119  0.4140  0.3152  0.9535
   25MOL0     C 3325   2.484  11.215   3.031  0.9109  0.2305  0.4040
   25MOL0     C 3326   2.585  11.186   2.930 -0.3856  0.0674 -0.1213
   25MOL0     C 3327   2.553  11.061   2.837  0.0689 -0.1220 -0.9274
   25MOL0     C 3328   2.665  11.030   2.739 -0.8268 -0.2193  0.8376
   25MOL0     N 3329   2.797  10.995   2.796  0.1702  0.2755  0.8159
   25MOL0     C 3330   2.886  11.082   2.852  0.7714  0.5036 -0.1823
   25MOL0     C 3331   2.999  11.021   2.850  0.0300 -0.1056  0.2439
   25MOL0     C 3332   3.133  11.071   2.898  0.8834 -0.2925 -0.1608
   25MOL0     C 3333   3.136  11.229   2.898  0.5955 -0.0003 -0.0203
   25MOL0     C 3334   3.209  11.291   2.777  0.5740  1.4634  0.2544
   25MOL0     C 3335   3.110  11.314   2.658 -0.7180  0.5206  0.6665
   25MOL0     O 3336   3.177  11.405   2.577  0.0404 -0.2180  0.3190
   25MOL0     C 3337   3.151  11.540   2.588  0.0125 -0.0853  0.2778
   25MOL0     C 3338   3.217  11.627   2.495  0.3802  0.9405 -0.1442
   25MOL0     C 3339   3.188  11.764   2.489  0.0729  0.4894  0.0828
   25MOL0     C 3340   3.258  11.849   2.382 -0.5830 -0.0984 -0.2548
   25MOL0     C 3341   3.106  11.819   2.591  0.1658  0.2215  0.1044
   25MOL0     C 3342   3.064  11.961   2.601 -0.6393 -0.7862 -0.2247
   25MOL0     O 3343   3.015  12.011   2.721  0.0923 -0.5827  0.5639
   25MOL0     C 3344   2.981  12.142   2.744 -0.4674 -0.2129  0.2122
   25MOL0     C 3345   2.965  12.255   2.645 -0.4133  0.1441  0.3177
   25MOL0     C 3346   2.914  12.376   2.693  0.2212 -0.4780  0.2375
   25MOL0     C 3347   2.883  12.401   2.826  0.1212 -0.0864  0.1462
   25MOL0     O 3348   2.842  12.530   2.854 -0.1066  0.0202 -0.1179
   25MOL0     C 3349   2.731  12.553   2.945 -0.3150  0.1944  0.0144
   25MOL0     C 3350   2.732  12.703   2.999 -0.2564 -0.4247  0.0573
   25MOL0     C 3351   2.871  12.724   3.065 -0.0323  0.3703 -0.4500
   25MOL0     C 3352   2.858  12.853   3.153  0.7696  0.1433 -0.6240
   25MOL0     C 3353   2.893  12.977   3.069  0.1538  0.6913 -0.6899
   25MOL0     C 3354   2.860  13.100   3.145  0.0430  0.9256  0.7320
   25MOL0     C 3355   2.892  13.214   3.045  0.3854  0.4770 -0.1295
   25MOL0     C 3356   2.786  13.245   2.937 -0.3230  0.0561  0.0145
   25MOL0    Cl 3357   2.829  13.410   2.875  0.0561 -0.2904  0.2975
   25MOL0     C 3358   2.907  12.307   2.919  0.5113  0.1917 -0.2247
   25MOL0     C 3359   2.950  12.174   2.883 -0.0076 -0.3909 -0.1031
   25MOL0     O 3360   3.089  12.029   2.504 -0.5456 -0.0469 -0.0692
   25MOL0     C 3361   3.067  11.736   2.697 -0.4924 -0.0331  0.2336
   25MOL0     C 3362   3.080  11.603   2.692  0.7429 -0.4249 -0.1022
   25MOL0     N 3363   2.981  10.900   2.795 -0.8002 -0.3787 -0.0361
   25MOL0     N 3364   2.864  10.879   2.768 -0.3815 -1.8100 -0.1677
   25MOL0     C 3365   2.827  11.160   3.699 -0.7786  0.6810  0.4886
   25MOL0     C 3366   2.928  11.144   3.797  0.5540  0.4711 -0.9522
   25MOL0     C 3367   3.375  11.169   3.952 -0.1178 -1.2703 -0.4143
   25MOL0     C 3368   3.359  11.231   4.075 -0.1588  0.3606  0.3372
   25MOL0     C 3369   3.459  11.230   4.171  0.1720  0.3383  0.4677
   25MOL0     C 3370   3.578  11.178   4.139 -0.1026  0.5107 -0.9800
   25MOL0     O 3371   3.658  11.190   4.251 -0.5266  0.2071  0.2580
   25MOL0     C 3372   3.799  11.209   4.228 -0.0703  0.4768  0.5439
   25MOL0     C 3373   3.832  11.348   4.178 -0.7556 -0.1663 -0.4130
   25MOL0     C 3374   3.983  11.382   4.196 -0.7523  0.0313 -1.2079
   25MOL0     C 3375   4.076  11.302   4.098 -1.1026  0.4346  0.2923
   25MOL0     C 3376   4.131  11.186   4.174  0.4409 -1.0787  0.2624
   25MOL0     C 3377   4.182  11.094   4.240  0.2503  0.4927  0.0993
   25MOL0     C 3378   3.597  11.111   4.022  0.5884 -0.3919 -0.9360
   25MOL0     C 3379   3.498  11.106   3.930 -0.3096 -0.1789  0.9996
   25MOL0     C 3380   3.535  11.031   3.790  0.2659  0.0285 -0.3904
   25MOL0     H 3381   3.129  11.402   3.703  0.4259 -0.7990 -0.1657
   25MOL0     H 3382   2.932  11.446   3.550  0.5842  0.4064  0.2033
   25MOL0     H 3383   2.555  11.188   3.561  1.2499 -0.1825  0.8537
   25MOL0     H 3384   2.658  11.123   3.441 -0.6599  0.4169 -0.9174
   25MOL0     H 3385   2.454  11.196   3.328 -2.4280  2.4257  1.2493
   25MOL0     H 3386   2.467  11.352   3.387  0.8848  1.3674 -1.6239
   25MOL0     H 3387   2.656  11.412   3.264  2.0324  0.3892 -1.6136
   25MOL0     H 3388   2.672  11.244   3.197 -3.8370 -1.9198 -2.1933
   25MOL0     H 3389   2.404  11.363   3.167 -0.7688  2.0818 -1.8306
   25MOL0     H 3390   2.508  11.432   3.055  1.2131 -0.2612  0.2430
   25MOL0     H 3391   2.386  11.233   2.987  0.1667 -0.3911  1.7457
   25MOL0     H 3392   2.472  11.124   3.091 -4.7024 -0.3361 -0.9958
   25MOL0     H 3393   2.601  11.279   2.875 -0.7077 -0.4511 -1.1204
   25MOL0     H 3394   2.675  11.159   2.987  0.6094  3.0819 -0.0948
   25MOL0     H 3395   2.460  11.072   2.780  0.4149  0.0815 -1.4606
   25MOL0     H 3396   2.546  10.974   2.902  2.7175 -0.7972 -1.4367
   25MOL0     H 3397   2.635  10.950   2.671 -2.2219  1.9540 -1.2770
   25MOL0     H 3398   2.684  11.118   2.676  3.4371 -2.4067 -1.3370
   25MOL0     H 3399   2.864  11.184   2.882  0.6523  1.4356 -3.1038
   25MOL0     H 3400   3.221  11.017   2.862  2.1354  1.7180 -0.2529
   25MOL0     H 3401   3.135  11.028   2.999  0.5462 -0.6506 -0.3031
   25MOL0     H 3402   3.038  11.275   2.918 -0.3304 -2.1968  0.8018
   25MOL0     H 3403   3.198  11.251   2.985 -0.6253 -3.2580  1.8364
   25MOL0     H 3404   3.249  11.388   2.810  1.5497  1.0666  0.2629
   25MOL0     H 3405   3.294  11.225   2.756 -0.9321 -0.9056  1.2532
   25MOL0     H 3406   3.093  11.221   2.603 -2.7321  0.7565  0.8241
   25MOL0     H 3407   3.016  11.354   2.696 -1.9508  0.5054 -2.1163
   25MOL0     H 3408   3.283  11.585   2.420 -1.0616  1.3001 -1.6575
   25MOL0     H 3409   3.329  11.795   2.319 -1.3440  0.4452 -1.6457
   25MOL0     H 3410   3.311  11.936   2.420  0.0938  0.0311 -1.4369
   25MOL0     H 3411   3.181  11.884   2.311 -0.4580 -1.4092 -1.0671
   25MOL0     H 3412   2.990  12.245   2.540  1.0068  3.3826  0.2215
   25MOL0     H 3413   2.902  12.454   2.619 -1.0772  0.7010  1.6380
   25MOL0     H 3414   2.636  12.530   2.897  0.4072  0.2456 -1.4906
   25MOL0     H 3415   2.741  12.490   3.034  0.4023  0.6368  0.2514
   25MOL0     H 3416   2.734  12.764   2.909 -2.3844  0.6111  0.6598
   25MOL0     H 3417   2.651  12.742   3.061  0.4244  1.2292 -0.0367
   25MOL0     H 3418   2.941  12.739   2.982  1.1156  2.4498  0.8174
   25MOL0     H 3419   2.900  12.636   3.124  1.0776  1.3449  0.4945
   25MOL0     H 3420   2.929  12.848   3.237 -1.3153 -0.6177  1.1884
   25MOL0     H 3421   2.761  12.866   3.201  1.2035  0.1509  0.2838
   25MOL0     H 3422   2.996  12.965   3.033  0.0360 -0.1609 -0.7758
   25MOL0     H 3423   2.823  12.983   2.986 -0.5479  1.0947 -0.0819
   25MOL0     H 3424   2.910  13.103   3.242 -2.1810 -2.6626  2.1940
   25MOL0     H 3425   2.755  13.102   3.174  0.4013  1.0821  2.1132
   25MOL0     H 3426   2.987  13.198   2.993 -0.5077  1.0257 -1.9939
   25MOL0     H 3427   2.902  13.308   3.100 -0.1633  1.8397 -2.2734
   25MOL0     H 3428   2.684  13.247   2.975 -0.1140  0.5367  0.5497
   25MOL0     H 3429   2.783  13.171   2.856  1.1262  0.6031 -0.5827
   25MOL0     H 3430   2.890  12.329   3.024  0.0480 -2.0012  0.2127
   25MOL0     H 3431   2.965  12.095   2.955 -1.1212 -0.2101  0.3497
   25MOL0     H 3432   3.012  11.777   2.782 -0.2375  0.2083  0.2830
   25MOL0     H 3433   3.033  11.541   2.767  1.2604 -1.0872 -0.3062
   25MOL0     H 3434   2.739  11.098   3.695 -0.5593  0.3963 -0.0490
   25MOL0     H 3435   2.914  11.066   3.871  0.2297  0.4553 -1.0309
   25MOL0     H 3436   3.264  11.270   4.110 -0.4395  1.0329 -1.1289
   25MOL0     H 3437   3.437  11.275   4.267  0.1687  0.3290  0.4709
   25MOL0     H 3438   3.847  11.193   4.325  1.1327  1.7269  0.1859
   25MOL0     H 3439   3.840  11.130   4.165  2.3296  1.9102  0.1827
   25MOL0     H 3440   3.780  11.424   4.238 -1.8098 -1.8467  0.8866
   25MOL0     H 3441   3.797  11.370   4.076  0.6617  4.3580 -0.1630
   25MOL0     H 3442   3.979  11.486   4.165 -1.2587  0.7315  1.0647
   25MOL0     H 3443   4.010  11.360   4.299  0.3789  1.2878 -1.2186
   25MOL0     H 3444   4.156  11.368   4.064  1.4742 -0.7605  3.4668
   25MOL0     H 3445   4.023  11.266   4.009  1.1896 -1.4027 -0.4202
   25MOL0     H 3446   4.228  11.017   4.298 -2.7220 -0.8063  0.9489
   25MOL0     H 3447   3.690  11.058   4.007  0.8334 -0.2412  0.0065
   25MOL0     H 3448   3.624  10.968   3.801  1.6612  1.5705 -2.1404
   25MOL0     H 3449   3.459  10.966   3.746  3.9046 -3.4701 -2.1983
   25MOL0     H 3450   3.554  11.111   3.718  0.5626  0.3629  0.0511
   26MOL0     O 3451   2.432   6.661   1.519 -0.4821 -0.2367  0.0300
   26MOL0     C 3452   2.370   6.613   1.612  0.4608  0.4471 -0.0095
   26MOL0     O 3453   2.432   6.568   1.726  0.3720 -0.3968 -0.0567
   26MOL0     C 3454   2.569   6.573   1.745  0.0995  0.1647 -0.0004
   26MOL0     C 3455   2.641   6.455   1.757  0.0503  0.2375  0.2772
   26MOL0     C 3456   2.777   6.453   1.794 -0.8101  0.5601 -0.8789
   26MOL0     C 3457   2.857   6.563   1.787  0.1822 -0.2164  0.1082
   26MOL0     O 3458   2.987   6.569   1.825  0.6596  0.0825 -0.5844
   26MOL0     C 3459   3.081   6.474   1.765  0.5901  0.6863  1.0432
   26MOL0     C 3460   3.213   6.514   1.825 -0.1993 -0.3488  0.9832
   26MOL0     C 3461   3.319   6.447   1.747 -0.5658 -0.4118  0.3696
   26MOL0     C 3462   3.442   6.494   1.814  0.6960 -0.0081  0.2497
   26MOL0     C 3463   3.568   6.433   1.775 -0.0479 -0.0439 -0.1192
   26MOL0     C 3464   3.644   6.482   1.650 -1.1692 -0.2950 -0.2797
   26MOL0     C 3465   3.764   6.399   1.615  0.5340 -0.5188  0.1509
   26MOL0     C 3466   3.740   6.255   1.577 -0.4784 -0.3211 -0.4263
   26MOL0     N 3467   3.634   6.240   1.488 -0.0192 -0.0040  0.2364
   26MOL0     C 3468   3.648   6.201   1.356  0.3961  0.2047  0.4830
   26MOL0     C 3469   3.529   6.207   1.298 -0.1432  0.6690 -0.6371
   26MOL0     C 3470   3.518   6.193   1.150 -0.1653  0.0137 -0.1071
   26MOL0     C 3471   3.462   6.048   1.115 -0.5031 -0.2250 -0.5551
   26MOL0     C 3472   3.417   6.043   0.965 -0.2896  0.1183  0.1570
   26MOL0     C 3473   3.389   5.903   0.922  0.8979  0.2509 -0.0217
   26MOL0     O 3474   3.259   5.868   0.971  0.0703 -0.5963 -1.0663
   26MOL0     C 3475   3.196   5.769   0.903  0.0499  0.4252 -0.9309
   26MOL0     C 3476   3.112   5.810   0.804 -0.5893 -0.6134  0.0088
   26MOL0     C 3477   3.031   5.722   0.741  0.6515 -0.2892  0.4356
   26MOL0     C 3478   2.942   5.780   0.624 -0.7209  0.5327  0.0103
   26MOL0     C 3479   3.049   5.584   0.769 -0.0503 -1.1504 -0.4613
   26MOL0     C 3480   2.947   5.475   0.735  0.7138 -0.7445  0.5213
   26MOL0     O 3481   2.971   5.347   0.773  0.1642  0.2248 -0.9527
   26MOL0     C 3482   2.895   5.245   0.724 -0.2432  0.2458 -0.2115
   26MOL0     C 3483   2.756   5.247   0.743 -0.3078 -0.2190 -0.0574
   26MOL0     C 3484   2.678   5.134   0.733 -0.1022  0.7886 -0.1392
   26MOL0     C 3485   2.744   5.011   0.687 -0.3794  0.2700  0.7738
   26MOL0     O 3486   2.690   4.887   0.658  0.0590 -0.1632 -0.2575
   26MOL0     C 3487   2.547   4.885   0.660  0.2452 -0.1286  1.1073
   26MOL0     C 3488   2.484   4.791   0.551 -0.5410 -0.0388  0.4405
   26MOL0     C 3489   2.528   4.649   0.560 -0.3598 -0.3091  0.1276
   26MOL0     C 3490   2.462   4.567   0.678  0.3328 -0.1341  0.2355
   26MOL0     C 3491   2.502   4.416   0.695 -0.1628  0.9353  0.1057
   26MOL0     C 3492   2.641   4.395   0.780  0.5154 -0.8296 -0.4384
   26MOL0     C 3493   2.691   4.251   0.787  0.2501 -0.8861  0.2947
   26MOL0     C 3494   2.592   4.142   0.845  0.1748 -1.4867  0.4860
   26MOL0    Cl 3495   2.639   3.970   0.819  0.4166  0.0990 -0.2674
   26MOL0     C 3496   2.882   5.019   0.670 -1.3869 -0.2251 -0.2241
   26MOL0     C 3497   2.957   5.125   0.696 -0.8477  0.2050  0.9185
   26MOL0     O 3498   2.851   5.518   0.678  0.0996 -0.4177  0.2150
   26MOL0     C 3499   3.146   5.543   0.862 -0.1659 -0.3841  0.0068
   26MOL0     C 3500   3.226   5.637   0.914  0.9010 -0.4039  0.0286
   26MOL0     N 3501   3.436   6.233   1.401 -0.2462  0.8244 -0.1093
   26MOL0     N 3502   3.504   6.252   1.511 -0.5592  0.0923  0.1764
   26MOL0     C 3503   2.786   6.686   1.755  0.1834  0.6536 -0.0394
   26MOL0     C 3504   2.646   6.688   1.732 -0.5343 -0.1079 -0.9407
   26MOL0     C 3505   2.230   6.571   1.589  0.6206 -0.7085 -0.1242
   26MOL0     C 3506   2.175   6.498   1.701  1.0608  0.5335 -0.5936
   26MOL0     C 3507   2.043   6.442   1.686 -1.4132  0.2371 -0.4595
   26MOL0     C 3508   1.962   6.487   1.579  0.0382 -0.5104 -0.0348
   26MOL0     O 3509   1.834   6.442   1.558  0.4210  0.1702 -0.2656
   26MOL0     C 3510   1.769   6.356   1.645 -0.6927  0.4035 -0.2060
   26MOL0     C 3511   1.632   6.327   1.595 -0.0219  0.9433 -0.2515
   26MOL0     C 3512   1.555   6.456   1.610 -0.4067 -0.5297  0.7110
   26MOL0     C 3513   1.431   6.453   1.530  0.0879  0.1494  0.5789
   26MOL0     C 3514   1.458   6.504   1.392  0.8075  0.8112 -0.1913
   26MOL0     C 3515   1.489   6.557   1.292 -0.2374  0.2840  0.0703
   26MOL0     C 3516   2.009   6.564   1.480 -0.3462 -0.1954  0.7586
   26MOL0     C 3517   2.142   6.611   1.475 -0.1882 -0.3732  0.9662
   26MOL0     C 3518   2.190   6.687   1.356  0.1534  0.6142 -0.7793
   26MOL0     H 3519   2.575   6.370   1.745  1.1259 -0.7568  1.1916
   26MOL0     H 3520   2.824   6.360   1.825 -0.6899  1.3374  1.4883
   26MOL0     H 3521   3.078   6.485   1.657  1.8084 -1.9388  0.6644
   26MOL0     H 3522   3.065   6.369   1.791  0.1354  0.5674  0.2844
   26MOL0     H 3523   3.223   6.623   1.823  0.9427 -0.4313 -0.6289
   26MOL0     H 3524   3.206   6.475   1.927 -0.0293  1.6582  1.8031
   26MOL0     H 3525   3.314   6.338   1.753 -1.2273 -0.6174 -2.5788
   26MOL0     H 3526   3.310   6.466   1.640  4.1972 -0.2465 -0.1918
   26MOL0     H 3527   3.446   6.602   1.798 -2.8634  0.1999 -0.0835
   26MOL0     H 3528   3.426   6.479   1.921 -2.1128  2.4550  0.3029
   26MOL0     H 3529   3.554   6.325   1.770 -2.2751  0.2379 -2.0305
   26MOL0     H 3530   3.636   6.458   1.857 -1.7423  3.0779  0.4798
   26MOL0     H 3531   3.583   6.503   1.562 -1.0901 -0.7932 -0.4602
   26MOL0     H 3532   3.665   6.585   1.679 -1.8838 -0.3148  0.3583
   26MOL0     H 3533   3.843   6.403   1.690 -0.9234  1.2163  1.6747
   26MOL0     H 3534   3.807   6.452   1.529 -1.5435 -2.4708 -2.2969
   26MOL0     H 3535   3.829   6.206   1.537 -0.3628 -0.0313 -0.5221
   26MOL0     H 3536   3.728   6.197   1.670  1.6021 -0.6584 -0.3093
   26MOL0     H 3537   3.739   6.181   1.300 -0.9910  0.0883 -1.8945
   26MOL0     H 3538   3.622   6.197   1.113  0.5541 -1.4100  1.6320
   26MOL0     H 3539   3.466   6.276   1.101  0.9582  1.3469  0.8719
   26MOL0     H 3540   3.544   5.981   1.142 -0.3130 -0.3030 -1.2975
   26MOL0     H 3541   3.383   6.030   1.188  0.7910  0.7021  1.1462
   26MOL0     H 3542   3.326   6.105   0.957 -0.0323  0.2921 -2.0268
   26MOL0     H 3543   3.507   6.077   0.912 -0.6801 -0.4353 -0.9003
   26MOL0     H 3544   3.402   5.889   0.814 -0.3473  0.3028 -0.1907
   26MOL0     H 3545   3.467   5.838   0.963 -1.0240 -3.4322 -1.7459
   26MOL0     H 3546   3.087   5.911   0.775 -1.4042 -0.9121 -0.3473
   26MOL0     H 3547   2.838   5.797   0.656 -0.7468  3.4141 -1.3195
   26MOL0     H 3548   2.928   5.708   0.543  0.3257 -1.2095  1.3173
   26MOL0     H 3549   2.990   5.867   0.580 -0.8822  0.5239 -0.1860
   26MOL0     H 3550   2.709   5.342   0.765  0.2972  0.3754 -1.2512
   26MOL0     H 3551   2.575   5.150   0.763 -1.3949 -0.8831 -3.2835
   26MOL0     H 3552   2.513   4.847   0.757 -2.0368 -1.6599 -0.1879
   26MOL0     H 3553   2.502   4.981   0.635  3.6640  0.6873 -3.0000
   26MOL0     H 3554   2.375   4.801   0.551 -0.5196  1.1788  2.8902
   26MOL0     H 3555   2.517   4.837   0.457 -0.6437  1.1591  0.9615
   26MOL0     H 3556   2.635   4.639   0.578 -0.6995 -1.2775  1.8456
   26MOL0     H 3557   2.506   4.599   0.465 -1.6030  0.8586 -0.2160
   26MOL0     H 3558   2.353   4.576   0.677  0.3639  0.8369  1.9906
   26MOL0     H 3559   2.484   4.607   0.777  0.3956 -2.5364  1.2508
   26MOL0     H 3560   2.421   4.361   0.744  0.6991 -0.3589  0.1226
   26MOL0     H 3561   2.508   4.368   0.596 -0.9752 -1.7390  1.2519
   26MOL0     H 3562   2.630   4.439   0.879  3.3561  1.9604 -1.2065
   26MOL0     H 3563   2.723   4.455   0.740 -1.3857  1.1608 -1.5613
   26MOL0     H 3564   2.782   4.250   0.848  1.6370  2.9268 -1.4007
   26MOL0     H 3565   2.710   4.226   0.682 -4.2127  2.1845 -1.5397
   26MOL0     H 3566   2.497   4.153   0.792 -0.0796  2.3222  1.4027
   26MOL0     H 3567   2.582   4.165   0.951  1.0824 -1.4904  0.5844
   26MOL0     H 3568   2.933   4.929   0.637  3.4611  1.6839  1.2115
   26MOL0     H 3569   3.062   5.120   0.670 -1.1840 -1.2914 -0.2837
   26MOL0     H 3570   3.141   5.438   0.887  1.7482 -0.5979 -0.4107
   26MOL0     H 3571   3.289   5.596   0.992  2.4055 -2.1686 -1.9904
   26MOL0     H 3572   2.849   6.774   1.752  0.3923  0.5686 -4.2425
   26MOL0     H 3573   2.589   6.777   1.706  1.8939  1.8624  0.0992
   26MOL0     H 3574   2.232   6.476   1.790  2.9425  0.2213 -1.8180
   26MOL0     H 3575   2.004   6.367   1.755 -3.7692 -1.6673 -3.6146
   26MOL0     H 3576   1.819   6.259   1.656  0.0915  0.9367  1.2952
   26MOL0     H 3577   1.768   6.397   1.746  2.6704 -0.9958  0.5552
   26MOL0     H 3578   1.591   6.253   1.664 -0.2231  2.5703  1.4779
   26MOL0     H 3579   1.641   6.285   1.495  0.2534 -1.1943  0.6100
   26MOL0     H 3580   1.537   6.461   1.718  5.4141 -2.9893  2.1528
   26MOL0     H 3581   1.619   6.543   1.592  0.3600 -0.3813  3.7263
   26MOL0     H 3582   1.362   6.516   1.588 -1.0926 -1.5412  1.1137
   26MOL0     H 3583   1.384   6.354   1.522  1.9321 -0.7013 -0.0902
   26MOL0     H 3584   1.530   6.587   1.198 -0.5433  1.8026  0.3874
   26MOL0     H 3585   1.946   6.604   1.401  1.5054 -1.8878 -1.7253
   26MOL0     H 3586   2.254   6.613   1.305 -1.9479 -1.6300 -0.3650
   26MOL0     H 3587   2.115   6.722   1.285 -1.2820 -3.1972 -1.3700
   26MOL0     H 3588   2.248   6.774   1.387  1.1729 -0.2333 -0.2034
   27MOL0     O 3589  10.935   5.376  10.799 -0.4140 -0.2871 -0.2422
   27MOL0     C 3590  11.010   5.289  10.837  0.3485 -0.5180 -1.1286
   27MOL0     O 3591  11.040   5.177  10.769 -0.2739  0.5438  1.5194
   27MOL0     C 3592  11.010   5.154  10.629 -0.1839 -0.2764  0.1701
   27MOL0     C 3593  10.999   5.019  10.598 -0.5637  0.2318  0.4237
   27MOL0     C 3594  10.982   4.983  10.464  0.2796 -0.3898  0.4054
   27MOL0     C 3595  10.972   5.076  10.363 -0.1693 -0.5257 -0.7983
   27MOL0     O 3596  10.936   5.022  10.244  0.7043  0.5208  0.8786
   27MOL0     C 3597  10.885   5.109  10.143  0.0351 -0.6532  0.2588
   27MOL0     C 3598  10.835   5.028  10.023 -0.2344 -0.5283 -0.3590
   27MOL0     C 3599  10.953   4.943   9.968  1.5228 -0.0694  0.5464
   27MOL0     C 3600  10.907   4.888   9.825  0.1345  0.2633  0.3440
   27MOL0     C 3601  11.016   4.788   9.771 -0.8066  0.6182  0.7411
   27MOL0     C 3602  10.985   4.733   9.626 -0.0220  0.5839 -0.0847
   27MOL0     C 3603  10.834   4.699   9.599  0.5947 -0.1071  0.4772
   27MOL0     C 3604  10.787   4.632   9.464 -0.6400 -0.6201 -0.8012
   27MOL0     N 3605  10.642   4.611   9.466 -0.9354 -0.1140  0.5370
   27MOL0     C 3606  10.581   4.523   9.549 -0.6723  0.0157 -0.3400
   27MOL0     C 3607  10.447   4.527   9.526  0.3411  0.4151  0.4269
   27MOL0     C 3608  10.333   4.456   9.599 -0.4081 -0.3845  0.0669
   27MOL0     C 3609  10.230   4.403   9.493  0.1545 -0.6643 -0.5601
   27MOL0     C 3610  10.113   4.321   9.543  0.1307 -0.6481 -0.6888
   27MOL0     C 3611  10.160   4.186   9.555 -0.9812 -0.1803  0.4321
   27MOL0     O 3612  10.047   4.103   9.602  0.5917 -0.4729 -0.2167
   27MOL0     C 3613  10.052   3.968   9.634 -2.0242 -0.7259 -0.3212
   27MOL0     C 3614  10.179   3.904   9.652  0.0362  0.2236 -0.4586
   27MOL0     C 3615  10.182   3.764   9.691  0.7553  0.4554 -0.0177
   27MOL0     C 3616  10.319   3.706   9.703 -1.4077  0.3812 -0.6924
   27MOL0     C 3617  10.059   3.694   9.694  0.2820  0.2719  0.6838
   27MOL0     C 3618  10.040   3.548   9.733 -0.3665  1.3727 -0.4302
   27MOL0     O 3619   9.937   3.483   9.678 -0.1423 -0.2952 -0.3190
   27MOL0     C 3620   9.926   3.346   9.688  0.0323 -0.0802  0.4801
   27MOL0     C 3621  10.033   3.258   9.663 -1.1588 -0.5889  0.1938
   27MOL0     C 3622  10.028   3.116   9.651 -0.2415  0.0639  0.0544
   27MOL0     C 3623   9.900   3.059   9.646 -0.9151 -0.0831 -0.1219
   27MOL0     O 3624   9.876   2.919   9.624 -0.0513  0.0239  0.3035
   27MOL0     C 3625   9.987   2.840   9.596 -0.7668  0.6541  1.2116
   27MOL0     C 3626   9.947   2.693   9.557 -0.4770  0.8708 -0.4176
   27MOL0     C 3627   9.877   2.629   9.677  1.2663  0.0399 -0.7404
   27MOL0     C 3628   9.884   2.482   9.671 -0.4307 -1.0453 -0.4967
   27MOL0     C 3629   9.821   2.414   9.796  0.0656 -0.1030 -0.1919
   27MOL0     C 3630   9.912   2.306   9.845  0.5741  0.0840  0.0640
   27MOL0     C 3631   9.862   2.232   9.974  0.6240 -0.2343 -0.1711
   27MOL0     C 3632   9.887   2.320  10.101  0.4212  0.4441  0.1793
   27MOL0    Cl 3633   9.840   2.239  10.254 -0.4601  0.0790  0.0467
   27MOL0     C 3634   9.796   3.143   9.642 -0.3599 -0.5563 -1.4341
   27MOL0     C 3635   9.805   3.285   9.657 -0.2858  0.0703  0.5720
   27MOL0     O 3636  10.133   3.490   9.797 -0.3938 -0.0481 -0.2406
   27MOL0     C 3637   9.938   3.769   9.675  0.2011  0.6788  0.3291
   27MOL0     C 3638   9.932   3.906   9.648  0.1810 -0.5657  0.3549
   27MOL0     N 3639  10.431   4.625   9.430  1.1074  0.1750  0.5570
   27MOL0     N 3640  10.546   4.674   9.392 -0.3159  0.0837 -0.3442
   27MOL0     C 3641  10.989   5.209  10.395  1.1091  0.4933 -0.8975
   27MOL0     C 3642  10.995   5.254  10.528  1.1503 -0.4616  0.5281
   27MOL0     C 3643  11.065   5.294  10.969 -0.0205 -0.1512  1.6947
   27MOL0     C 3644  11.186   5.212  10.985 -0.0545  0.3969 -0.4832
   27MOL0     C 3645  11.239   5.187  11.103  0.4455  0.0619 -0.4678
   27MOL0     C 3646  11.177   5.235  11.221  0.0655 -0.2363  0.0652
   27MOL0     O 3647  11.226   5.239  11.349  0.2613 -0.0563  0.1351
   27MOL0     C 3648  11.349   5.175  11.367 -0.2486  0.5449 -1.0549
   27MOL0     C 3649  11.395   5.195  11.503 -0.3017 -0.4523 -0.4323
   27MOL0     C 3650  11.546   5.183  11.513 -0.2720  0.0673 -0.5635
   27MOL0     C 3651  11.627   5.231  11.631  0.0364 -0.1811 -0.2518
   27MOL0     C 3652  11.601   5.372  11.664 -0.5141 -0.5442  0.3001
   27MOL0     C 3653  11.603   5.497  11.664  1.0616  0.1700 -0.5005
   27MOL0     C 3654  11.055   5.311  11.207 -0.4380  0.8743 -0.3513
   27MOL0     C 3655  11.003   5.349  11.079 -0.0529 -0.3523 -0.0291
   27MOL0     C 3656  10.895   5.453  11.075  0.6103 -0.4497 -0.4563
   27MOL0     H 3657  11.010   4.946  10.677  2.4613  1.0721  0.8935
   27MOL0     H 3658  10.949   4.882  10.441 -2.4867  0.6944 -0.8894
   27MOL0     H 3659  10.960   5.177  10.103 -0.6373  0.3755  0.7024
   27MOL0     H 3660  10.799   5.164  10.182 -0.1601 -0.2959 -0.6730
   27MOL0     H 3661  10.755   4.957  10.049 -0.1900 -2.3265 -4.4441
   27MOL0     H 3662  10.801   5.093   9.942 -2.1633 -0.6139  0.3315
   27MOL0     H 3663  11.035   5.013   9.950  1.6355 -0.1538  0.7246
   27MOL0     H 3664  10.964   4.859  10.038 -4.4519 -1.6637  0.0945
   27MOL0     H 3665  10.815   4.830   9.829  0.9067 -0.9635  1.0177
   27MOL0     H 3666  10.890   4.968   9.752  1.7679 -0.2317 -0.6322
   27MOL0     H 3667  11.022   4.700   9.835 -0.3195 -0.5844 -0.9058
   27MOL0     H 3668  11.119   4.824   9.762 -0.9232  0.7098 -0.3960
   27MOL0     H 3669  11.018   4.798   9.544 -0.0565 -2.7658 -3.0326
   27MOL0     H 3670  11.054   4.649   9.611  2.4225  2.6910 -1.5496
   27MOL0     H 3671  10.768   4.786   9.607  0.8236  0.1817 -0.5976
   27MOL0     H 3672  10.799   4.636   9.682  1.2530 -0.8992  0.1651
   27MOL0     H 3673  10.809   4.709   9.389 -0.2267 -2.0037 -2.1527
   27MOL0     H 3674  10.849   4.542   9.459  0.6104  0.0333  1.5853
   27MOL0     H 3675  10.631   4.453   9.616 -1.6268  0.9085  1.3620
   27MOL0     H 3676  10.294   4.539   9.658 -0.3037 -1.1376  1.2152
   27MOL0     H 3677  10.362   4.380   9.671  1.0061 -2.4846 -2.5291
   27MOL0     H 3678  10.185   4.491   9.446  0.2518 -0.6888 -0.7017
   27MOL0     H 3679  10.287   4.363   9.408  2.8749 -0.2990  0.9593
   27MOL0     H 3680  10.068   4.351   9.637 -1.2406 -2.6952 -0.6416
   27MOL0     H 3681  10.039   4.308   9.463  0.5000 -0.8559 -1.0019
   27MOL0     H 3682  10.208   4.142   9.467 -0.2139  0.0120  0.7438
   27MOL0     H 3683  10.239   4.191   9.630 -0.5931 -1.8190  0.1613
   27MOL0     H 3684  10.268   3.964   9.640 -0.1597  0.0286 -3.7803
   27MOL0     H 3685  10.325   3.638   9.789  2.0719  2.9138  1.3098
   27MOL0     H 3686  10.394   3.780   9.730  3.0701 -4.3242  1.6478
   27MOL0     H 3687  10.349   3.656   9.610 -2.0346 -1.8612  0.2378
   27MOL0     H 3688  10.136   3.292   9.654 -1.2265  0.0212  1.4466
   27MOL0     H 3689  10.125   3.068   9.648  2.0181  3.4148  5.2048
   27MOL0     H 3690  10.049   2.892   9.522  0.3297 -0.4435  1.3189
   27MOL0     H 3691  10.061   2.845   9.677  0.4761  1.0978  0.0794
   27MOL0     H 3692   9.878   2.678   9.474 -0.4469  1.7973 -0.6259
   27MOL0     H 3693  10.037   2.635   9.533 -0.9453 -0.0017 -0.1031
   27MOL0     H 3694   9.776   2.672   9.677  1.9650  1.8281  0.1113
   27MOL0     H 3695   9.928   2.670   9.765  0.6745  1.8104 -1.1831
   27MOL0     H 3696   9.988   2.451   9.685  0.3776  2.5740  4.9307
   27MOL0     H 3697   9.841   2.449   9.576 -0.7344 -1.7128 -0.1358
   27MOL0     H 3698   9.802   2.489   9.873  3.1878  0.9461 -0.2923
   27MOL0     H 3699   9.720   2.373   9.793 -0.3083  0.8389 -1.2225
   27MOL0     H 3700  10.010   2.349   9.867  0.5874  1.1225 -1.8556
   27MOL0     H 3701   9.914   2.237   9.760 -0.5995 -1.0221  0.8952
   27MOL0     H 3702   9.927   2.145   9.966 -0.4610 -0.9195 -2.8057
   27MOL0     H 3703   9.753   2.219   9.975 -0.0797  4.1866  0.4380
   27MOL0     H 3704   9.831   2.414  10.095  1.2451  0.8806 -3.4678
   27MOL0     H 3705   9.988   2.361  10.111  1.7172 -2.8308  2.0110
   27MOL0     H 3706   9.695   3.105   9.632 -0.6286  0.0397 -1.0394
   27MOL0     H 3707   9.723   3.352   9.631 -0.3169 -1.0412 -2.4850
   27MOL0     H 3708   9.835   3.737   9.683  0.4810 -0.9719 -1.7363
   27MOL0     H 3709   9.851   3.976   9.630  1.0755  1.1872  2.6463
   27MOL0     H 3710  10.988   5.279  10.312 -0.0729 -3.1327 -4.3318
   27MOL0     H 3711  11.010   5.355  10.564  1.3238 -0.3200  0.0680
   27MOL0     H 3712  11.243   5.181  10.897 -0.0351 -1.0906  0.0316
   27MOL0     H 3713  11.330   5.129  11.112  0.8245  0.7705  0.3567
   27MOL0     H 3714  11.335   5.066  11.362  1.8819  0.2614 -1.5356
   27MOL0     H 3715  11.418   5.208  11.289  2.4984 -1.2851  0.4197
   27MOL0     H 3716  11.344   5.125  11.570  2.2304 -0.2670  1.8280
   27MOL0     H 3717  11.368   5.297  11.533  0.3467  0.2068 -1.9793
   27MOL0     H 3718  11.573   5.080  11.486 -3.2252 -0.0431 -3.7117
   27MOL0     H 3719  11.579   5.229  11.420 -1.4161  2.9605  0.3691
   27MOL0     H 3720  11.731   5.212  11.605 -0.0872  0.1342 -1.0201
   27MOL0     H 3721  11.600   5.170  11.717 -3.1853  1.6579  0.2101
   27MOL0     H 3722  11.595   5.604  11.654  0.2940  0.1584 -0.0764
   27MOL0     H 3723  11.011   5.372  11.285 -4.1446 -0.1143 -1.4981
   27MOL0     H 3724  10.934   5.528  11.006  1.8580 -0.6775 -0.0310
   27MOL0     H 3725  10.803   5.409  11.036 -0.5115 -0.0027  1.5477
   27MOL0     H 3726  10.869   5.489  11.175 -1.0969 -0.8225 -0.7425
   28MOL0     O 3727   4.636   5.059   3.213 -0.2585 -0.1490  0.2030
   28MOL0     C 3728   4.693   5.025   3.317  0.3708  0.9869  0.3308
   28MOL0     O 3729   4.721   5.105   3.422  0.3333  0.1225 -0.1582
   28MOL0     C 3730   4.677   5.233   3.418 -0.7357  0.3819 -0.2383
   28MOL0     C 3731   4.706   5.315   3.311 -0.3938 -0.3253 -0.1652
   28MOL0     C 3732   4.658   5.447   3.293 -0.0391 -0.6737  0.1882
   28MOL0     C 3733   4.589   5.504   3.398  0.2025 -0.8885  0.2179
   28MOL0     O 3734   4.543   5.637   3.385 -0.0242 -0.0859  0.0279
   28MOL0     C 3735   4.446   5.685   3.486  0.1106 -0.0760  0.3616
   28MOL0     C 3736   4.396   5.831   3.455  0.2101 -0.6074  0.5827
   28MOL0     C 3737   4.276   5.857   3.533  0.3130  0.3457  0.4148
   28MOL0     C 3738   4.224   6.004   3.517  0.3625 -0.5793  0.7566
   28MOL0     C 3739   4.078   6.009   3.557 -0.1877  0.2757  0.1138
   28MOL0     C 3740   4.036   6.157   3.563 -0.7795  1.0556 -0.0936
   28MOL0     C 3741   3.884   6.172   3.566 -0.1118 -0.3818 -0.4900
   28MOL0     C 3742   3.846   6.322   3.567  0.0669  0.0537  0.6726
   28MOL0     N 3743   3.706   6.353   3.543  0.4575 -0.0506  0.4559
   28MOL0     C 3744   3.662   6.479   3.518 -0.2855 -0.5008 -0.4451
   28MOL0     C 3745   3.530   6.474   3.533  0.3114 -0.3177 -0.2891
   28MOL0     C 3746   3.441   6.599   3.526  0.3410 -0.0278 -0.0742
   28MOL0     C 3747   3.472   6.687   3.639  0.0739 -0.9211 -0.0819
   28MOL0     C 3748   3.387   6.823   3.631 -0.8822 -0.7245  0.0881
   28MOL0     C 3749   3.423   6.921   3.746  0.0208  0.3106  0.5950
   28MOL0     O 3750   3.320   7.020   3.757  0.3757 -0.3270 -0.3463
   28MOL0     C 3751   3.239   7.016   3.871 -0.0550 -0.0290 -0.1556
   28MOL0     C 3752   3.139   7.117   3.881  0.5491 -0.0906 -0.4286
   28MOL0     C 3753   3.035   7.113   3.974  0.3886  0.8892  0.6366
   28MOL0     C 3754   2.923   7.210   3.955  0.5662 -0.6294 -0.7652
   28MOL0     C 3755   3.032   7.012   4.071  0.1451 -0.1206 -0.4664
   28MOL0     C 3756   2.920   7.001   4.176  0.0502 -0.0109  0.1677
   28MOL0     O 3757   2.789   6.998   4.137  0.2023  0.4910 -0.4297
   28MOL0     C 3758   2.687   7.000   4.236  0.1193 -0.9268  0.2493
   28MOL0     C 3759   2.585   7.087   4.204 -0.6110 -0.8239 -0.0551
   28MOL0     C 3760   2.476   7.087   4.285 -0.8254 -0.2330 -0.2906
   28MOL0     C 3761   2.477   7.017   4.409  0.0625  0.8456  0.1287
   28MOL0     O 3762   2.370   7.021   4.489  0.6367 -0.1756 -0.6843
   28MOL0     C 3763   2.377   7.054   4.627  0.8377  0.5713 -0.2534
   28MOL0     C 3764   2.243   7.110   4.671 -0.5046  0.2511  0.1794
   28MOL0     C 3765   2.259   7.137   4.826 -1.2284 -0.1074 -0.6790
   28MOL0     C 3766   2.148   7.207   4.898  0.6199  0.2799  0.4936
   28MOL0     C 3767   2.202   7.286   5.014  0.3939 -0.7103  0.2788
   28MOL0     C 3768   2.279   7.212   5.118 -0.5818 -0.0169  0.1261
   28MOL0     C 3769   2.344   7.311   5.221 -0.6608 -0.1272  0.5852
   28MOL0     C 3770   2.437   7.246   5.327 -0.4933 -0.0338  0.3431
   28MOL0    Cl 3771   2.583   7.168   5.236 -0.1152  0.1441  0.2198
   28MOL0     C 3772   2.586   6.929   4.436 -0.8536 -0.2680  0.5367
   28MOL0     C 3773   2.696   6.924   4.354 -0.3440  0.1375  0.2144
   28MOL0     O 3774   2.960   6.999   4.290  0.5843  0.5258 -0.2468
   28MOL0     C 3775   3.134   6.925   4.074 -0.4209  0.2054 -0.3193
   28MOL0     C 3776   3.236   6.922   3.981 -0.7069  0.2361 -0.3024
   28MOL0     N 3777   3.495   6.342   3.542  0.0962  0.0250  0.0117
   28MOL0     N 3778   3.604   6.268   3.545 -0.8877 -0.4655 -0.0779
   28MOL0     C 3779   4.576   5.428   3.524 -1.3953  0.0368  1.0780
   28MOL0     C 3780   4.617   5.289   3.529  0.1365 -0.5962 -0.7581
   28MOL0     C 3781   4.736   4.885   3.332  1.4362  0.6920 -1.5072
   28MOL0     C 3782   4.857   4.867   3.407  0.9807 -0.0014 -0.2729
   28MOL0     C 3783   4.913   4.741   3.418  0.7151  1.4127  0.6059
   28MOL0     C 3784   4.868   4.629   3.336 -0.4415 -0.1156  0.5864
   28MOL0     O 3785   4.929   4.504   3.325 -0.4897 -0.2518 -0.3880
   28MOL0     C 3786   5.064   4.490   3.371 -0.0852 -0.2864  0.4312
   28MOL0     C 3787   5.116   4.343   3.375  0.0206 -0.8024  0.4360
   28MOL0     C 3788   5.273   4.345   3.414  1.4933  0.8960  0.1842
   28MOL0     C 3789   5.322   4.457   3.503  0.2628 -0.1510  0.4148
   28MOL0     C 3790   5.455   4.418   3.550  0.0139 -0.2599  0.2135
   28MOL0     C 3791   5.566   4.398   3.597  0.1781 -0.0340 -0.0820
   28MOL0     C 3792   4.755   4.653   3.256 -0.3311  0.7182  0.0651
   28MOL0     C 3793   4.678   4.769   3.266  0.1214 -1.0081 -0.6517
   28MOL0     C 3794   4.558   4.790   3.192  0.3922  0.8039  0.1557
   28MOL0     H 3795   4.747   5.269   3.222  0.7556 -0.9744  0.6754
   28MOL0     H 3796   4.665   5.490   3.194 -1.6590 -1.4821 -0.3149
   28MOL0     H 3797   4.495   5.678   3.584  1.0093 -0.3993 -0.0957
   28MOL0     H 3798   4.369   5.608   3.492  0.2330 -0.1592  0.9306
   28MOL0     H 3799   4.476   5.901   3.482 -2.4669  2.3983  1.3745
   28MOL0     H 3800   4.375   5.846   3.349  3.8256 -0.0309 -0.1734
   28MOL0     H 3801   4.207   5.780   3.498  1.8896 -1.5596  1.3018
   28MOL0     H 3802   4.297   5.820   3.634 -0.6271 -2.1075 -0.2414
   28MOL0     H 3803   4.283   6.070   3.580 -0.3174  2.7170 -1.7813
   28MOL0     H 3804   4.227   6.031   3.411 -5.7295  1.5008  0.7046
   28MOL0     H 3805   4.060   5.972   3.658 -1.4969  1.5395  0.3812
   28MOL0     H 3806   4.021   5.954   3.481  1.2168  1.1740 -1.6841
   28MOL0     H 3807   4.075   6.194   3.658 -1.3801  1.2845  0.0719
   28MOL0     H 3808   4.075   6.210   3.476  1.1500  3.6735  2.1789
   28MOL0     H 3809   3.831   6.127   3.650  1.8762 -3.2279 -0.6043
   28MOL0     H 3810   3.840   6.130   3.474  2.3106  2.9879 -3.4879
   28MOL0     H 3811   3.889   6.359   3.660 -0.7884  1.1741  0.6254
   28MOL0     H 3812   3.902   6.384   3.496 -2.7121 -0.2733 -1.9944
   28MOL0     H 3813   3.723   6.569   3.507  0.3281 -0.5365  2.0449
   28MOL0     H 3814   3.333   6.578   3.527  0.1880  0.7399  1.1068
   28MOL0     H 3815   3.455   6.654   3.432 -0.9604  0.0303 -0.2612
   28MOL0     H 3816   3.470   6.641   3.739  2.6602  0.8516  0.9094
   28MOL0     H 3817   3.577   6.718   3.639 -0.0350 -0.4838  0.8656
   28MOL0     H 3818   3.398   6.877   3.537 -4.5553  2.0679  0.9880
   28MOL0     H 3819   3.280   6.804   3.648 -1.0665 -0.5720 -0.8883
   28MOL0     H 3820   3.449   6.877   3.843 -0.3463 -3.4469 -0.8657
   28MOL0     H 3821   3.516   6.974   3.723  0.3157 -0.7912 -0.9219
   28MOL0     H 3822   3.135   7.191   3.802 -3.2348  0.5823  0.2035
   28MOL0     H 3823   2.936   7.251   3.855  2.5563 -3.1297 -1.6350
   28MOL0     H 3824   2.942   7.289   4.028 -1.0069  0.0660 -1.0637
   28MOL0     H 3825   2.822   7.167   3.963  0.5985 -0.5997 -0.1597
   28MOL0     H 3826   2.589   7.139   4.109 -0.0108  0.8730  0.8549
   28MOL0     H 3827   2.400   7.157   4.254  0.9459  1.2962 -1.3299
   28MOL0     H 3828   2.405   6.968   4.690 -2.0996  0.3392  0.8671
   28MOL0     H 3829   2.451   7.132   4.648  1.5498  0.1949 -1.3066
   28MOL0     H 3830   2.217   7.200   4.615  1.0599  0.9152  0.4640
   28MOL0     H 3831   2.164   7.036   4.654  0.3069 -0.6138  0.1036
   28MOL0     H 3832   2.354   7.189   4.836 -1.3115  0.3341 -1.9207
   28MOL0     H 3833   2.278   7.043   4.878  1.9342  0.4514 -0.6569
   28MOL0     H 3834   2.078   7.131   4.933 -1.8737  2.4768  0.5605
   28MOL0     H 3835   2.111   7.283   4.829  3.7248  2.9214  1.4918
   28MOL0     H 3836   2.257   7.377   4.994 -2.6866  1.4060  0.6967
   28MOL0     H 3837   2.107   7.324   5.053 -0.0754 -0.5078 -1.0277
   28MOL0     H 3838   2.359   7.162   5.061 -1.8884  0.0102 -1.8439
   28MOL0     H 3839   2.215   7.143   5.173  0.6727 -2.1232 -0.8885
   28MOL0     H 3840   2.271   7.379   5.265  2.6508  3.7897  0.5999
   28MOL0     H 3841   2.410   7.377   5.164 -0.6792 -0.6055 -0.0038
   28MOL0     H 3842   2.399   7.180   5.406 -0.4176  0.1348  0.5212
   28MOL0     H 3843   2.472   7.333   5.383  0.5781 -0.8997  1.0615
   28MOL0     H 3844   2.575   6.876   4.530  1.0425 -0.2998  0.7751
   28MOL0     H 3845   2.779   6.865   4.391  0.5921  1.8481  0.9559
   28MOL0     H 3846   3.132   6.854   4.156  2.5496  3.7787  3.2164
   28MOL0     H 3847   3.312   6.846   3.999  0.7699  1.4441 -1.1915
   28MOL0     H 3848   4.522   5.461   3.612  1.6831  2.5339  2.2012
   28MOL0     H 3849   4.596   5.227   3.615  1.8205 -0.9926 -0.5928
   28MOL0     H 3850   4.890   4.949   3.470  0.1980  2.5778 -2.9586
   28MOL0     H 3851   4.992   4.717   3.488  0.9774 -1.3053 -0.5123
   28MOL0     H 3852   5.131   4.547   3.306  0.1454 -2.0480 -0.9524
   28MOL0     H 3853   5.071   4.539   3.468 -1.2255  2.9253 -0.9530
   28MOL0     H 3854   5.100   4.297   3.277 -0.5587 -3.0001  1.4919
   28MOL0     H 3855   5.049   4.282   3.437  1.1721 -2.4843  0.0930
   28MOL0     H 3856   5.286   4.257   3.479  2.8339  1.3957  0.6392
   28MOL0     H 3857   5.334   4.340   3.323  0.4195 -1.4222 -0.4780
   28MOL0     H 3858   5.251   4.467   3.585 -0.1923  3.7506 -0.2622
   28MOL0     H 3859   5.318   4.558   3.461 -0.4457  2.4907  6.0371
   28MOL0     H 3860   5.660   4.353   3.622  1.0053 -0.3505 -3.3173
   28MOL0     H 3861   4.733   4.576   3.182  0.7033 -0.3016  0.7764
   28MOL0     H 3862   4.495   4.701   3.192  0.6578  0.5176  2.8620
   28MOL0     H 3863   4.486   4.858   3.238 -1.7366 -1.8395  0.9962
   28MOL0     H 3864   4.578   4.825   3.091 -0.8914 -0.8880 -0.7265
   29MOL0     O 3865   1.119   4.469   9.385  0.4846 -0.2989 -0.4597
   29MOL0     C 3866   1.152   4.563   9.311 -0.3185  0.5900  0.6169
   29MOL0     O 3867   1.246   4.655   9.344  0.9795 -0.3523  0.2582
   29MOL0     C 3868   1.377   4.625   9.316 -0.3701 -0.2826  0.3434
   29MOL0     C 3869   1.421   4.502   9.264  0.0967 -1.2832  1.1003
   29MOL0     C 3870   1.548   4.481   9.227 -0.7637  0.4836  0.9623
   29MOL0     C 3871   1.652   4.572   9.245  0.5623 -0.6877  0.4605
   29MOL0     O 3872   1.789   4.553   9.229 -0.2784  0.3335 -0.4903
   29MOL0     C 3873   1.824   4.424   9.194 -0.5703  0.5525 -0.2649
   29MOL0     C 3874   1.978   4.424   9.181  0.5332  0.3598 -1.1037
   29MOL0     C 3875   2.045   4.441   9.312  0.2426  0.0805 -1.0451
   29MOL0     C 3876   2.206   4.456   9.285  0.3091  0.0129 -0.3591
   29MOL0     C 3877   2.289   4.490   9.415  0.0497  0.5063  0.8811
   29MOL0     C 3878   2.287   4.390   9.532  0.5681  0.0693  0.4857
   29MOL0     C 3879   2.303   4.241   9.490  0.1217 -0.4148 -0.4716
   29MOL0     C 3880   2.439   4.224   9.422 -0.2774  0.3317  1.2015
   29MOL0     N 3881   2.464   4.082   9.377  0.6826  0.0776  0.5227
   29MOL0     C 3882   2.370   3.996   9.322  0.1129 -0.3844 -0.2474
   29MOL0     C 3883   2.436   3.881   9.299  0.0546  0.1519  1.1735
   29MOL0     C 3884   2.358   3.754   9.273  0.4008  0.2934 -0.1528
   29MOL0     C 3885   2.381   3.723   9.130  0.5311 -0.2475  0.7962
   29MOL0     C 3886   2.304   3.590   9.098 -0.5573 -1.3434  0.0404
   29MOL0     C 3887   2.150   3.589   9.110  1.0187 -0.1859  0.0754
   29MOL0     O 3888   2.082   3.712   9.085 -0.1664  0.5671  0.0242
   29MOL0     C 3889   2.073   3.755   8.959 -0.4108 -0.5004  0.0265
   29MOL0     C 3890   2.028   3.680   8.842 -0.3013 -0.5862 -0.7431
   29MOL0     C 3891   2.014   3.737   8.724 -1.0316 -0.5322  0.5879
   29MOL0     C 3892   1.960   3.650   8.615 -0.0468 -0.2182  0.0684
   29MOL0     C 3893   2.047   3.878   8.709 -0.8379 -0.3140  0.0472
   29MOL0     C 3894   2.050   3.962   8.585 -0.7495  1.2504 -0.2117
   29MOL0     O 3895   2.143   4.065   8.585  0.7630  0.4189 -0.3327
   29MOL0     C 3896   2.151   4.140   8.472 -0.5379 -0.4022 -0.1941
   29MOL0     C 3897   2.247   4.108   8.371  0.6905  0.6332 -1.4995
   29MOL0     C 3898   2.248   4.178   8.249 -0.5975  0.1203  0.2818
   29MOL0     C 3899   2.161   4.292   8.226 -0.3430  0.1796  0.0719
   29MOL0     O 3900   2.167   4.385   8.119  0.0983  0.3181  0.1058
   29MOL0     C 3901   2.270   4.366   8.019  0.1802 -0.7287  0.3468
   29MOL0     C 3902   2.255   4.485   7.920  0.0078 -0.6825 -0.4885
   29MOL0     C 3903   2.338   4.473   7.801  0.1831  0.6987 -0.0908
   29MOL0     C 3904   2.282   4.573   7.698 -0.3187 -0.5669 -0.0447
   29MOL0     C 3905   2.355   4.565   7.558 -0.8737  0.3625  0.3996
   29MOL0     C 3906   2.369   4.418   7.499 -0.2154  0.1429 -0.7700
   29MOL0     C 3907   2.369   4.407   7.349  0.0430  0.0728 -0.1605
   29MOL0     C 3908   2.419   4.272   7.304 -0.5777  0.2292 -0.7427
   29MOL0    Cl 3909   2.387   4.271   7.137 -0.1669 -0.3408 -0.2721
   29MOL0     C 3910   2.072   4.325   8.326  0.2401  0.1114 -1.2878
   29MOL0     C 3911   2.063   4.245   8.442  0.7421  0.0791 -0.1758
   29MOL0     O 3912   1.971   3.946   8.497 -0.5491 -0.3488 -0.0923
   29MOL0     C 3913   2.091   3.951   8.820  0.0056 -0.1927 -0.7509
   29MOL0     C 3914   2.090   3.893   8.944  0.0605  0.2402 -1.0672
   29MOL0     N 3915   2.568   3.894   9.343  0.5094 -1.0336  0.3852
   29MOL0     N 3916   2.584   4.015   9.392  0.6462  0.2264 -0.1250
   29MOL0     C 3917   1.611   4.700   9.306 -0.8526  1.5831 -0.2916
   29MOL0     C 3918   1.471   4.722   9.345 -1.6477  0.0568 -0.3755
   29MOL0     C 3919   1.089   4.567   9.180 -0.1039 -0.0738  0.3370
   29MOL0     C 3920   1.044   4.445   9.125 -0.6480 -0.8254  0.2755
   29MOL0     C 3921   0.988   4.448   8.996 -0.5167 -0.0574 -0.1170
   29MOL0     C 3922   0.977   4.571   8.927  0.2026 -0.0318  0.1392
   29MOL0     O 3923   0.944   4.542   8.800 -0.0145  0.2753  0.2478
   29MOL0     C 3924   0.914   4.651   8.710 -0.7602 -0.2631  0.7140
   29MOL0     C 3925   1.038   4.731   8.655  0.9105 -0.4936 -0.5598
   29MOL0     C 3926   0.982   4.870   8.615  0.8695  0.1688  0.3007
   29MOL0     C 3927   1.093   4.969   8.601  0.6422 -0.7547 -0.5352
   29MOL0     C 3928   1.055   5.095   8.541  0.1242 -0.0501 -0.0331
   29MOL0     C 3929   1.030   5.204   8.501 -1.4318  0.4770 -0.3912
   29MOL0     C 3930   1.021   4.694   8.986 -1.0829  1.0584  0.6304
   29MOL0     C 3931   1.059   4.691   9.122  0.0969 -0.6480  0.0977
   29MOL0     C 3932   1.076   4.825   9.188  0.2143 -0.0708 -0.8966
   29MOL0     H 3933   1.362   4.419   9.226 -1.3517  0.6197 -1.0703
   29MOL0     H 3934   1.574   4.387   9.180  1.7400  0.0229  3.0558
   29MOL0     H 3935   1.776   4.397   9.100  0.2349 -0.4935 -0.3945
   29MOL0     H 3936   1.796   4.354   9.273  1.1541 -0.5210 -0.5497
   29MOL0     H 3937   2.009   4.329   9.138  3.9893  1.3526 -1.0735
   29MOL0     H 3938   2.015   4.499   9.110  3.3090 -2.6798 -3.1182
   29MOL0     H 3939   2.013   4.537   9.354  0.4153 -0.7833  1.2465
   29MOL0     H 3940   2.029   4.353   9.376  1.2064 -1.1024 -2.3591
   29MOL0     H 3941   2.261   4.377   9.233  1.9356  1.3760 -0.7807
   29MOL0     H 3942   2.222   4.543   9.222 -0.5908 -1.0763 -2.1663
   29MOL0     H 3943   2.243   4.585   9.443 -2.9333  0.9326 -4.1893
   29MOL0     H 3944   2.392   4.513   9.385  0.1390 -0.3362  0.4911
   29MOL0     H 3945   2.363   4.409   9.609 -0.3278  1.2324  1.1219
   29MOL0     H 3946   2.185   4.402   9.570 -0.7641 -4.0804 -1.2002
   29MOL0     H 3947   2.215   4.213   9.432  1.9585 -3.2167 -2.1138
   29MOL0     H 3948   2.309   4.192   9.588 -1.6124  3.9920  2.1121
   29MOL0     H 3949   2.454   4.286   9.333  0.0881  1.2148  1.8612
   29MOL0     H 3950   2.520   4.250   9.492  2.3801 -2.0819 -0.7309
   29MOL0     H 3951   2.265   4.012   9.303 -0.2534 -1.4900  0.7277
   29MOL0     H 3952   2.251   3.774   9.284  0.6525  1.5797  0.1272
   29MOL0     H 3953   2.383   3.673   9.342 -1.4019 -0.5538 -0.4539
   29MOL0     H 3954   2.353   3.799   9.056 -1.8139 -3.8147 -2.3892
   29MOL0     H 3955   2.488   3.710   9.110  0.2109  2.1033 -3.7401
   29MOL0     H 3956   2.331   3.558   8.997 -2.1135  1.9119 -1.5566
   29MOL0     H 3957   2.346   3.522   9.173  0.5255 -0.1896  0.4963
   29MOL0     H 3958   2.109   3.507   9.051  2.4509  0.6396 -2.2121
   29MOL0     H 3959   2.125   3.567   9.214 -2.5009 -0.8624 -0.8104
   29MOL0     H 3960   2.014   3.572   8.836  1.4746 -0.9747  0.9034
   29MOL0     H 3961   1.913   3.713   8.539  2.6585  1.1996 -0.5606
   29MOL0     H 3962   1.891   3.576   8.659  0.5568 -1.6009 -1.2040
   29MOL0     H 3963   2.041   3.596   8.564  1.3987  1.0720  0.9299
   29MOL0     H 3964   2.300   4.014   8.385 -1.4482 -0.4479 -0.2258
   29MOL0     H 3965   2.314   4.145   8.170 -2.5375 -0.7479 -1.0440
   29MOL0     H 3966   2.370   4.374   8.064 -0.7387  0.6258  2.2645
   29MOL0     H 3967   2.243   4.280   7.957 -4.4918  0.9406 -0.3385
   29MOL0     H 3968   2.150   4.498   7.892  0.2679  0.7096 -0.9197
   29MOL0     H 3969   2.278   4.580   7.968  1.9019 -1.8768  1.1362
   29MOL0     H 3970   2.334   4.372   7.761 -2.3867  0.7887 -0.1862
   29MOL0     H 3971   2.440   4.500   7.833  0.6861 -2.1106  0.9571
   29MOL0     H 3972   2.288   4.678   7.727 -2.6072 -0.4226  0.0384
   29MOL0     H 3973   2.180   4.543   7.674 -0.1484  0.0096 -1.6253
   29MOL0     H 3974   2.285   4.614   7.490 -3.2141  0.4591  2.7143
   29MOL0     H 3975   2.446   4.625   7.551 -0.5779 -0.1572 -0.3497
   29MOL0     H 3976   2.301   4.348   7.549  2.1191  0.1268  2.8404
   29MOL0     H 3977   2.459   4.373   7.544 -1.1038  0.5697  1.5697
   29MOL0     H 3978   2.431   4.488   7.309 -2.2774  1.0701 -1.9496
   29MOL0     H 3979   2.270   4.415   7.304 -0.9967  3.3188  2.3096
   29MOL0     H 3980   2.352   4.200   7.352 -0.2838  2.8618  4.3094
   29MOL0     H 3981   2.524   4.253   7.331 -0.6759  2.2678  1.5187
   29MOL0     H 3982   1.998   4.404   8.319  2.2248  1.9918 -2.3081
   29MOL0     H 3983   2.003   4.275   8.527 -0.1891 -0.8528 -0.4822
   29MOL0     H 3984   2.105   4.058   8.817 -0.8994 -0.0706 -0.9442
   29MOL0     H 3985   2.108   3.946   9.037 -2.1113 -1.1299  0.2361
   29MOL0     H 3986   1.691   4.769   9.327  1.6682 -0.6655 -1.8711
   29MOL0     H 3987   1.453   4.819   9.390 -0.5513  1.4596 -2.7429
   29MOL0     H 3988   1.046   4.353   9.182 -0.0695 -0.4524  0.8640
   29MOL0     H 3989   0.958   4.356   8.946 -0.9750  0.5985 -1.0708
   29MOL0     H 3990   0.860   4.620   8.621  2.5168  0.3211 -1.6481
   29MOL0     H 3991   0.847   4.721   8.761 -0.7405  0.3951 -0.1399
   29MOL0     H 3992   1.088   4.687   8.569  1.7826 -2.0706  0.7041
   29MOL0     H 3993   1.120   4.743   8.727  1.9238  0.8216 -1.8819
   29MOL0     H 3994   0.932   4.852   8.520  3.0385  0.1354 -0.8902
   29MOL0     H 3995   0.905   4.917   8.677  0.4536  1.4168 -1.1152
   29MOL0     H 3996   1.165   4.922   8.532  0.7939 -1.9825  0.4229
   29MOL0     H 3997   1.139   4.993   8.697 -0.2043 -4.1127  0.8729
   29MOL0     H 3998   1.030   5.309   8.477  0.5335  1.2795  2.6051
   29MOL0     H 3999   1.018   4.785   8.928 -1.1291 -0.7832 -2.5279
   29MOL0     H 4000   1.071   4.815   9.297  0.0373  0.4295 -0.8547
   29MOL0     H 4001   1.171   4.868   9.156 -1.7479  5.2873 -0.5612
   29MOL0     H 4002   1.008   4.907   9.163 -0.2268  0.0168  0.4720
   30MOL0     O 4003   3.706   0.006   3.250 -0.1011  0.2572  0.5606
   30MOL0     C 4004   3.685   0.068   3.150  0.3463 -0.0397  0.5991
   30MOL0     O 4005   3.622   0.017   3.044 -0.3880 -0.1827 -0.1132
   30MOL0     C 4006   3.616  -0.115   3.019  0.5197  0.1320 -0.3583
   30MOL0     C 4007   3.595  -0.222   3.105  0.3116  0.3239 -0.2851
   30MOL0     C 4008   3.542  -0.348   3.055  0.1660  0.1671  1.4373
   30MOL0     C 4009   3.544  -0.374   2.917 -0.3354 -0.0979  0.0635
   30MOL0     O 4010   3.524  -0.496   2.855 -0.8639  0.4469 -0.6675
   30MOL0     C 4011   3.539  -0.616   2.934  0.7120 -0.4567 -0.0023
   30MOL0     C 4012   3.631  -0.710   2.858  0.2264 -0.2928 -1.0846
   30MOL0     C 4013   3.635  -0.857   2.915 -0.3804  0.1899 -0.2733
   30MOL0     C 4014   3.765  -0.879   2.996 -0.3029  0.4408  0.3653
   30MOL0     C 4015   3.754  -1.014   3.081 -1.2572  0.5534  0.3635
   30MOL0     C 4016   3.789  -1.146   3.004  0.1837 -0.0379 -0.9470
   30MOL0     C 4017   3.845  -1.252   3.110  0.6449 -0.2885 -0.0453
   30MOL0     C 4018   3.744  -1.268   3.223  0.0899 -0.0956  0.5720
   30MOL0     N 4019   3.607  -1.308   3.176 -0.0046  0.1662  0.4081
   30MOL0     C 4020   3.491  -1.243   3.193 -0.4326  1.1165 -0.2289
   30MOL0     C 4021   3.398  -1.304   3.110  1.1561 -0.4659  0.7604
   30MOL0     C 4022   3.258  -1.251   3.086 -0.0081  0.3351  0.3970
   30MOL0     C 4023   3.160  -1.310   3.186 -0.5175  0.1371  0.2957
   30MOL0     C 4024   3.162  -1.254   3.332  0.2347  0.8497 -0.1239
   30MOL0     C 4025   3.066  -1.321   3.423 -0.5333  0.4734 -0.1074
   30MOL0     O 4026   2.938  -1.280   3.398 -0.3007 -0.3009  0.0767
   30MOL0     C 4027   2.846  -1.385   3.399 -0.6660 -0.7530 -0.1272
   30MOL0     C 4028   2.851  -1.480   3.507 -0.6462 -0.4361 -0.0179
   30MOL0     C 4029   2.760  -1.585   3.509  0.3586 -0.1064  0.4739
   30MOL0     C 4030   2.760  -1.680   3.627  0.2347 -0.0911  0.6369
   30MOL0     C 4031   2.687  -1.612   3.391 -0.0394  0.2606  0.1123
   30MOL0     C 4032   2.601  -1.734   3.375  0.2035 -0.7857  0.3660
   30MOL0     O 4033   2.479  -1.714   3.326 -0.6109 -0.5134 -1.0503
   30MOL0     C 4034   2.417  -1.824   3.270 -0.4744  1.1896 -0.4032
   30MOL0     C 4035   2.283  -1.836   3.290 -0.2241  0.0811  0.8912
   30MOL0     C 4036   2.208  -1.941   3.227 -0.5596  0.3372  0.8015
   30MOL0     C 4037   2.256  -2.022   3.129 -0.2459 -0.2224 -0.6044
   30MOL0     O 4038   2.168  -2.117   3.077  0.9519  0.4520 -0.4055
   30MOL0     C 4039   2.213  -2.194   2.965 -0.0179 -0.5358 -0.2741
   30MOL0     C 4040   2.101  -2.273   2.906 -0.4883 -0.4608 -0.1039
   30MOL0     C 4041   2.075  -2.410   2.978 -0.1167 -0.2714 -0.2372
   30MOL0     C 4042   2.168  -2.516   2.924 -0.3228  1.3071  0.3462
   30MOL0     C 4043   2.111  -2.649   2.970 -0.6502 -0.5917  0.3760
   30MOL0     C 4044   2.141  -2.662   3.124 -0.7139  0.2414  0.1434
   30MOL0     C 4045   2.107  -2.802   3.183  0.0562  0.1875  0.2229
   30MOL0     C 4046   2.194  -2.822   3.314  0.7192  0.2632 -0.4729
   30MOL0    Cl 4047   2.368  -2.818   3.291  0.0737 -0.1531  0.2075
   30MOL0     C 4048   2.389  -2.005   3.103  0.2503 -0.7296  0.3379
   30MOL0     C 4049   2.468  -1.919   3.182 -0.5701 -0.1200 -0.1598
   30MOL0     O 4050   2.647  -1.840   3.410  0.3938  0.0903 -0.4448
   30MOL0     C 4051   2.688  -1.522   3.288  0.3035 -0.0404 -0.2221
   30MOL0     C 4052   2.755  -1.396   3.303 -0.0385  0.2301 -0.3121
   30MOL0     N 4053   3.461  -1.406   3.051 -0.2104  0.1711  0.7576
   30MOL0     N 4054   3.579  -1.416   3.099 -0.5870  0.3411 -0.4636
   30MOL0     C 4055   3.579  -0.274   2.833  0.3574 -0.8012 -1.1009
   30MOL0     C 4056   3.618  -0.143   2.884  0.3884  0.7835 -0.1458
   30MOL0     C 4057   3.703   0.214   3.164 -0.6338  0.2641  0.4709
   30MOL0     C 4058   3.721   0.283   3.045  0.0710 -0.5656 -0.5060
   30MOL0     C 4059   3.750   0.421   3.044 -0.3226 -0.2036  0.0403
   30MOL0     C 4060   3.775   0.495   3.163  1.0621 -0.2769 -0.7855
   30MOL0     O 4061   3.835   0.628   3.170 -0.5100  0.2646 -0.5053
   30MOL0     C 4062   3.768   0.724   3.080  0.3621 -0.5680 -1.2881
   30MOL0     C 4063   3.645   0.781   3.160 -0.4707  0.0737  0.1159
   30MOL0     C 4064   3.541   0.852   3.062  0.8753  0.2690 -0.7882
   30MOL0     C 4065   3.465   0.959   3.139  1.2586 -0.2995 -0.9990
   30MOL0     C 4066   3.343   0.997   3.062  0.2407  0.1581 -0.0782
   30MOL0     C 4067   3.240   1.020   2.993 -0.5977  0.6999 -0.2095
   30MOL0     C 4068   3.764   0.421   3.287  0.0720 -0.8172  0.1921
   30MOL0     C 4069   3.726   0.288   3.283 -0.6981  0.1317 -0.3347
   30MOL0     C 4070   3.702   0.224   3.416 -0.3012  0.5686  0.5781
   30MOL0     H 4071   3.581  -0.196   3.210  0.3772 -1.3246  0.1570
   30MOL0     H 4072   3.514  -0.422   3.129 -0.1396 -0.5838  0.5933
   30MOL0     H 4073   3.437  -0.652   2.945 -0.0048  0.2255 -3.2929
   30MOL0     H 4074   3.586  -0.595   3.031  1.8967  0.7322 -0.7918
   30MOL0     H 4075   3.636  -0.707   2.749  1.7947  2.1490 -1.0241
   30MOL0     H 4076   3.732  -0.674   2.880  0.9825 -3.5344  1.7301
   30MOL0     H 4077   3.546  -0.859   2.978 -0.0148  2.6841  0.4207
   30MOL0     H 4078   3.629  -0.921   2.826 -2.0360 -0.6459  0.4099
   30MOL0     H 4079   3.856  -0.879   2.936  0.7933  0.7377  1.9809
   30MOL0     H 4080   3.770  -0.794   3.064 -1.2165  2.3024 -1.7837
   30MOL0     H 4081   3.651  -1.021   3.119 -1.2406 -4.3292  0.1611
   30MOL0     H 4082   3.828  -1.001   3.160  0.5902  0.2094 -1.2434
   30MOL0     H 4083   3.696  -1.186   2.961 -2.3741  1.1482  2.9194
   30MOL0     H 4084   3.866  -1.134   2.928  0.5276 -1.3082 -0.8222
   30MOL0     H 4085   3.942  -1.216   3.146  1.8658 -0.8092 -2.5864
   30MOL0     H 4086   3.863  -1.350   3.063  1.9396 -0.2622  0.3433
   30MOL0     H 4087   3.782  -1.350   3.284 -0.9548 -1.8221 -0.9893
   30MOL0     H 4088   3.748  -1.170   3.272  1.9480 -0.3591  1.0286
   30MOL0     H 4089   3.472  -1.157   3.257  0.9129  2.2504 -1.2767
   30MOL0     H 4090   3.219  -1.264   2.985 -0.5851  0.7199  0.5573
   30MOL0     H 4091   3.255  -1.144   3.109 -2.9640 -0.2234  3.4267
   30MOL0     H 4092   3.061  -1.282   3.149 -0.2910 -0.1032 -0.4901
   30MOL0     H 4093   3.155  -1.419   3.190 -0.4073 -0.0001 -2.2749
   30MOL0     H 4094   3.265  -1.267   3.367 -0.7031 -0.1329  2.5555
   30MOL0     H 4095   3.135  -1.148   3.326  2.9409  1.6173 -0.0657
   30MOL0     H 4096   3.086  -1.429   3.419  1.5558  0.8369 -1.6891
   30MOL0     H 4097   3.102  -1.293   3.522 -1.8999  1.0654  0.2402
   30MOL0     H 4098   2.921  -1.468   3.589  1.4457  0.7177 -1.8798
   30MOL0     H 4099   2.776  -1.785   3.599  0.4463 -0.2790  1.4248
   30MOL0     H 4100   2.665  -1.674   3.682 -0.3292 -3.1363  0.2011
   30MOL0     H 4101   2.841  -1.658   3.697  0.3537  0.1344  0.4282
   30MOL0     H 4102   2.232  -1.769   3.359 -1.2914  0.4521 -0.2090
   30MOL0     H 4103   2.105  -1.942   3.261 -1.2653  0.9502 -1.1685
   30MOL0     H 4104   2.260  -2.130   2.890  0.4847  3.2623  2.9280
   30MOL0     H 4105   2.300  -2.255   2.991  2.4316  2.2381 -1.3775
   30MOL0     H 4106   2.016  -2.204   2.908 -1.5086 -1.6388 -1.0415
   30MOL0     H 4107   2.119  -2.282   2.798  0.9584  2.5631 -0.2060
   30MOL0     H 4108   1.968  -2.430   2.967 -0.1876  0.7852 -1.7876
   30MOL0     H 4109   2.080  -2.395   3.086  0.8350 -0.1925 -0.2807
   30MOL0     H 4110   2.267  -2.494   2.965  0.5040 -0.1008 -0.8013
   30MOL0     H 4111   2.170  -2.517   2.814  0.2974 -0.0654  0.3484
   30MOL0     H 4112   2.010  -2.672   2.934  1.1026 -3.5385 -3.3614
   30MOL0     H 4113   2.179  -2.723   2.926  0.1799  0.9456 -1.0649
   30MOL0     H 4114   2.082  -2.601   3.192  0.5829 -1.5864  3.1217
   30MOL0     H 4115   2.241  -2.620   3.139 -1.4262  1.5754  1.4080
   30MOL0     H 4116   2.135  -2.882   3.113 -0.5177 -0.9554  1.2489
   30MOL0     H 4117   2.001  -2.809   3.211  0.6144 -0.8327  2.2475
   30MOL0     H 4118   2.169  -2.921   3.354  2.9518 -0.0699  0.2464
   30MOL0     H 4119   2.155  -2.749   3.386 -2.7348 -4.5522  3.1815
   30MOL0     H 4120   2.439  -2.068   3.029  1.2482 -0.4107  0.7204
   30MOL0     H 4121   2.574  -1.911   3.161  0.4820 -2.3710  3.5051
   30MOL0     H 4122   2.621  -1.563   3.213  0.1920 -4.0022  1.7747
   30MOL0     H 4123   2.762  -1.325   3.221 -3.6413  0.9887 -0.1309
   30MOL0     H 4124   3.592  -0.288   2.726 -2.1946  0.9290 -1.7153
   30MOL0     H 4125   3.649  -0.067   2.813  0.4661  1.3996  0.5350
   30MOL0     H 4126   3.702   0.241   2.947  1.4311  2.4718 -2.2116
   30MOL0     H 4127   3.766   0.476   2.952 -0.7519 -1.8004 -1.0173
   30MOL0     H 4128   3.838   0.803   3.051 -0.5696 -0.4323 -3.3647
   30MOL0     H 4129   3.739   0.670   2.990 -0.5250  2.3552 -2.8679
   30MOL0     H 4130   3.688   0.858   3.225 -2.0098  0.2467  0.9590
   30MOL0     H 4131   3.595   0.710   3.226  0.3270 -4.0791 -3.3110
   30MOL0     H 4132   3.598   0.912   2.990 -1.5305  2.1407 -1.2699
   30MOL0     H 4133   3.481   0.771   3.019  1.0917 -1.3788  1.8131
   30MOL0     H 4134   3.522   1.052   3.134  1.3598 -0.2716  0.2401
   30MOL0     H 4135   3.429   0.927   3.238 -1.4521  0.0862 -1.7687
   30MOL0     H 4136   3.160   1.041   2.925  0.2008 -4.2886 -3.1667
   30MOL0     H 4137   3.799   0.473   3.376  0.8576 -1.3258  0.1930
   30MOL0     H 4138   3.605   0.172   3.418 -1.9842  3.1257 -2.7781
   30MOL0     H 4139   3.783   0.152   3.429  1.3544  1.0551 -4.7074
   30MOL0     H 4140   3.688   0.296   3.497 -1.5629 -1.9160  2.7351
   31MOL0     O 4141   0.881   6.994   7.114 -0.0029 -0.2494 -0.4757
   31MOL0     C 4142   0.836   7.021   7.001  0.0890  0.3246  0.6995
   31MOL0     O 4143   0.706   7.058   6.975 -1.2334  0.2994  0.2738
   31MOL0     C 4144   0.606   7.075   7.069 -0.5937 -0.3852 -0.0171
   31MOL0     C 4145   0.632   7.150   7.187 -0.3512 -0.5812  0.3705
   31MOL0     C 4146   0.542   7.185   7.287 -0.5910 -0.6745  0.0942
   31MOL0     C 4147   0.406   7.153   7.269  0.1461  0.5408  0.7795
   31MOL0     O 4148   0.305   7.188   7.360  0.3315  0.3367  0.6018
   31MOL0     C 4149   0.205   7.270   7.290 -0.4389  0.2627 -0.0134
   31MOL0     C 4150   0.106   7.334   7.384  0.5488  0.0409  0.2001
   31MOL0     C 4151   0.162   7.438   7.476  1.0513 -0.4315  0.4637
   31MOL0     C 4152   0.047   7.466   7.572 -0.0387 -0.4685 -0.4482
   31MOL0     C 4153   0.089   7.570   7.673  0.2612  0.1358 -0.5564
   31MOL0     C 4154  -0.029   7.616   7.765 -0.1495 -0.1343 -0.2039
   31MOL0     C 4155   0.017   7.718   7.873  0.9903  0.0674 -0.6905
   31MOL0     C 4156  -0.105   7.758   7.953  0.5041 -0.1030 -0.0774
   31MOL0     N 4157  -0.178   7.674   8.048 -1.1157 -0.2306 -0.2537
   31MOL0     C 4158  -0.185   7.535   8.051 -0.2207  0.0501 -1.0909
   31MOL0     C 4159  -0.265   7.511   8.163  0.2758 -0.3163  0.1068
   31MOL0     C 4160  -0.296   7.377   8.228  0.0248 -0.6230 -0.7157
   31MOL0     C 4161  -0.445   7.349   8.219  0.5916 -0.1652  0.6142
   31MOL0     C 4162  -0.468   7.203   8.233  0.9289 -0.2870  0.4805
   31MOL0     C 4163  -0.408   7.162   8.367 -0.1691  0.4051  0.1332
   31MOL0     O 4164  -0.403   7.017   8.376  0.7744  0.5055  0.3230
   31MOL0     C 4165  -0.317   6.932   8.301  0.2984 -1.4571 -0.0549
   31MOL0     C 4166  -0.191   6.976   8.258  0.2712 -0.4174 -0.1293
   31MOL0     C 4167  -0.099   6.891   8.197 -0.9428  0.5881  0.7264
   31MOL0     C 4168   0.043   6.939   8.178  0.4985 -1.0454 -0.3585
   31MOL0     C 4169  -0.133   6.754   8.158  0.3817 -0.7030 -0.1264
   31MOL0     C 4170  -0.035   6.647   8.112  0.0088  0.0218  0.6646
   31MOL0     O 4171  -0.018   6.535   8.191  1.1641 -0.2556 -0.0750
   31MOL0     C 4172   0.082   6.449   8.140 -0.0212  0.0024 -0.6826
   31MOL0     C 4173   0.042   6.334   8.069 -0.4052  1.1157 -0.0751
   31MOL0     C 4174   0.132   6.238   8.027 -0.4849 -0.0490  0.2434
   31MOL0     C 4175   0.268   6.263   8.048 -0.2313 -0.0393 -0.2492
   31MOL0     O 4176   0.364   6.178   7.986  0.2948  0.5997 -0.8313
   31MOL0     C 4177   0.489   6.134   8.059  0.5072  0.5162  0.9796
   31MOL0     C 4178   0.459   6.006   8.142 -0.1686 -0.8588  0.8912
   31MOL0     C 4179   0.383   5.893   8.081  0.3445  0.2934 -0.2755
   31MOL0     C 4180   0.443   5.829   7.959  0.6087 -0.1001 -1.2014
   31MOL0     C 4181   0.405   5.675   7.933 -0.4710 -0.8519 -0.4438
   31MOL0     C 4182   0.257   5.638   7.920  0.8236  0.1673  0.1106
   31MOL0     C 4183   0.183   5.730   7.819 -0.4337 -0.3252  0.4243
   31MOL0     C 4184   0.033   5.701   7.787  0.1354 -0.4998  0.2406
   31MOL0    Cl 4185   0.022   5.526   7.718  0.2254  0.1028  0.1126
   31MOL0     C 4186   0.310   6.382   8.122  0.1491 -0.1826  0.6610
   31MOL0     C 4187   0.216   6.471   8.173 -0.8403  0.6522 -1.1756
   31MOL0     O 4188   0.045   6.673   8.021  0.1670  0.0117 -0.5678
   31MOL0     C 4189  -0.269   6.721   8.193  0.6975  0.0529  0.2115
   31MOL0     C 4190  -0.361   6.807   8.263 -0.3178  0.0024  0.3932
   31MOL0     N 4191  -0.305   7.630   8.222 -0.3476 -0.3860  0.3287
   31MOL0     N 4192  -0.242   7.723   8.164 -0.3923 -0.4819  0.6206
   31MOL0     C 4193   0.375   7.071   7.158 -0.6804  0.4383  1.6061
   31MOL0     C 4194   0.472   7.034   7.054  0.6289  0.6343  0.9304
   31MOL0     C 4195   0.926   7.017   6.875  0.4407 -0.7133  0.2932
   31MOL0     C 4196   0.882   7.080   6.758  0.2395 -0.0007 -0.9321
   31MOL0     C 4197   0.954   7.058   6.642  0.3783  0.3708 -0.3053
   31MOL0     C 4198   1.063   6.982   6.641  0.3072  0.6541 -0.6976
   31MOL0     O 4199   1.133   6.966   6.526  0.4551 -0.2070  0.4277
   31MOL0     C 4200   1.167   7.087   6.461 -0.0897 -0.2807  0.2686
   31MOL0     C 4201   1.303   7.052   6.400  0.4375  0.1742  0.4622
   31MOL0     C 4202   1.401   7.023   6.517 -0.4853 -0.0810  0.0826
   31MOL0     C 4203   1.551   7.004   6.471 -0.5116 -0.2058  0.2831
   31MOL0     C 4204   1.628   6.922   6.556 -0.4973  0.0945 -0.8021
   31MOL0     C 4205   1.681   6.846   6.632 -0.0979 -0.5299 -0.0032
   31MOL0     C 4206   1.108   6.917   6.760 -0.3443 -0.4494  0.2666
   31MOL0     C 4207   1.031   6.925   6.868 -0.1952 -1.0028  0.3545
   31MOL0     C 4208   1.080   6.846   6.989 -0.2363 -0.2948  0.4173
   31MOL0     H 4209   0.732   7.184   7.213 -0.3400 -1.2971  1.3369
   31MOL0     H 4210   0.576   7.233   7.379  1.2793 -1.6588 -0.0223
   31MOL0     H 4211   0.152   7.207   7.218  0.1373  1.7165 -1.7684
   31MOL0     H 4212   0.259   7.346   7.233 -0.6301 -0.0761 -0.6573
   31MOL0     H 4213   0.026   7.380   7.326 -0.7682 -0.2398  1.7185
   31MOL0     H 4214   0.050   7.253   7.434 -1.1248  1.3101  0.4736
   31MOL0     H 4215   0.255   7.416   7.528 -0.0746 -0.9422  2.3731
   31MOL0     H 4216   0.177   7.531   7.421 -1.0855 -0.8114 -0.9043
   31MOL0     H 4217  -0.035   7.510   7.515  1.2304 -0.6093 -2.4649
   31MOL0     H 4218   0.007   7.375   7.618  1.5463 -0.9196  0.1238
   31MOL0     H 4219   0.132   7.655   7.617  3.5147 -2.3630 -2.2111
   31MOL0     H 4220   0.162   7.532   7.745 -0.8239  2.0017  1.6803
   31MOL0     H 4221  -0.105   7.666   7.704  0.7727  3.4855  1.3063
   31MOL0     H 4222  -0.081   7.528   7.803  2.4821 -0.7268  2.3371
   31MOL0     H 4223   0.059   7.802   7.819  2.2712  0.1609  0.4063
   31MOL0     H 4224   0.091   7.673   7.939  1.0803 -1.7652 -1.9694
   31MOL0     H 4225  -0.079   7.841   8.020 -1.8288  2.4980 -2.1743
   31MOL0     H 4226  -0.184   7.788   7.884 -2.7053 -4.4526  1.2887
   31MOL0     H 4227  -0.141   7.454   7.994 -0.3290 -1.2305  0.5849
   31MOL0     H 4228  -0.269   7.393   8.332 -0.6023 -2.9348 -0.1354
   31MOL0     H 4229  -0.232   7.297   8.190  0.8203  0.2179 -1.1847
   31MOL0     H 4230  -0.502   7.410   8.290  0.3447 -0.0736  0.3398
   31MOL0     H 4231  -0.482   7.375   8.119  1.4178 -1.4160 -0.0445
   31MOL0     H 4232  -0.576   7.183   8.238  1.2329 -1.7916  3.2939
   31MOL0     H 4233  -0.424   7.156   8.145  1.2963 -0.0921  0.5605
   31MOL0     H 4234  -0.303   7.193   8.371  0.0877 -0.2506 -1.0526
   31MOL0     H 4235  -0.466   7.196   8.453 -3.1256 -1.8654 -0.7766
   31MOL0     H 4236  -0.150   7.075   8.279 -1.7465 -0.0749  2.8244
   31MOL0     H 4237   0.104   6.906   8.262  1.9869  2.2328  0.0048
   31MOL0     H 4238   0.060   7.047   8.173  0.8501 -1.0912 -0.1462
   31MOL0     H 4239   0.089   6.897   8.088 -0.7791 -3.1185 -0.0933
   31MOL0     H 4240  -0.061   6.309   8.046 -0.0799  0.3009 -0.6986
   31MOL0     H 4241   0.100   6.149   7.973  4.4478 -1.6773 -0.4316
   31MOL0     H 4242   0.570   6.104   7.992 -1.5740 -0.3658 -1.2887
   31MOL0     H 4243   0.531   6.210   8.125 -2.8738  3.0856  0.4736
   31MOL0     H 4244   0.559   5.974   8.170  0.1259  1.3866  2.6491
   31MOL0     H 4245   0.408   6.043   8.231  0.5273 -2.3007  1.9276
   31MOL0     H 4246   0.280   5.927   8.065  0.0083  0.0198  1.2283
   31MOL0     H 4247   0.390   5.819   8.161  0.0439  1.5304  0.9210
   31MOL0     H 4248   0.551   5.842   7.966  0.6964 -1.3261  0.1206
   31MOL0     H 4249   0.424   5.899   7.878 -0.0509  2.0749  0.7200
   31MOL0     H 4250   0.444   5.646   7.835 -4.1337 -2.0288 -1.7089
   31MOL0     H 4251   0.463   5.607   7.997  1.7885  0.3987 -1.0582
   31MOL0     H 4252   0.209   5.645   8.018  0.4684  2.4607 -0.1655
   31MOL0     H 4253   0.250   5.533   7.890 -3.5967 -0.4861  2.6568
   31MOL0     H 4254   0.235   5.741   7.723 -2.6491  0.5362 -0.7380
   31MOL0     H 4255   0.193   5.822   7.878 -1.9742 -0.0218  0.2514
   31MOL0     H 4256  -0.005   5.778   7.719  1.7671  0.6472  0.5526
   31MOL0     H 4257  -0.035   5.706   7.872  1.1544 -1.5749  1.1517
   31MOL0     H 4258   0.415   6.409   8.119  0.0111  0.2918 -0.1507
   31MOL0     H 4259   0.244   6.556   8.235  1.7942 -1.3333  0.5781
   31MOL0     H 4260  -0.309   6.622   8.172 -0.1974  0.7083 -1.2903
   31MOL0     H 4261  -0.455   6.776   8.306 -1.7292  3.2893 -0.0636
   31MOL0     H 4262   0.272   7.042   7.143 -1.6974  3.8310  1.2430
   31MOL0     H 4263   0.440   6.979   6.967 -1.3910 -1.1273  2.6841
   31MOL0     H 4264   0.797   7.148   6.754 -0.2540 -0.3964  1.3714
   31MOL0     H 4265   0.923   7.123   6.561  0.5052 -0.9787 -1.4766
   31MOL0     H 4266   1.104   7.127   6.381  1.8842  0.4518 -1.0020
   31MOL0     H 4267   1.185   7.166   6.535  3.8559 -0.9323  0.2065
   31MOL0     H 4268   1.338   7.138   6.343 -0.0512  0.9377  1.2821
   31MOL0     H 4269   1.294   6.964   6.336 -0.2770 -0.4634  1.3975
   31MOL0     H 4270   1.412   7.112   6.580  0.4934  0.9373 -1.4400
   31MOL0     H 4271   1.380   6.930   6.569  0.2119 -1.4362 -1.9381
   31MOL0     H 4272   1.587   7.107   6.462 -3.6347  0.9865  0.1566
   31MOL0     H 4273   1.545   6.949   6.377 -0.0958 -3.8028  2.1876
   31MOL0     H 4274   1.751   6.786   6.687  0.6652 -0.1875 -0.5727
   31MOL0     H 4275   1.186   6.841   6.760 -1.8568 -2.0655 -0.1611
   31MOL0     H 4276   1.108   6.902   7.078  3.8405 -0.9540 -0.2712
   31MOL0     H 4277   0.992   6.784   7.011  0.5374 -1.7931 -0.5557
   31MOL0     H 4278   1.164   6.780   6.965  0.4967  0.8409 -0.2613
   32MOL0     O 4279   8.130   2.878   2.567 -0.0819  0.0826 -0.6140
   32MOL0     C 4280   8.071   2.783   2.614 -0.2081  1.0118  0.0901
   32MOL0     O 4281   7.975   2.703   2.547 -0.7868  0.3119  0.0204
   32MOL0     C 4282   7.925   2.756   2.426  0.0001 -0.1132 -0.2667
   32MOL0     C 4283   7.799   2.810   2.445 -0.2308  0.3717 -0.6622
   32MOL0     C 4284   7.725   2.880   2.350 -0.8688  0.1919 -0.6425
   32MOL0     C 4285   7.776   2.895   2.227 -0.4293 -0.6475 -0.2926
   32MOL0     O 4286   7.704   2.946   2.112 -0.1446  0.8500 -0.5741
   32MOL0     C 4287   7.642   3.066   2.132 -0.3080  0.4928  0.5711
   32MOL0     C 4288   7.527   3.082   2.032 -0.5481  0.5241 -0.2290
   32MOL0     C 4289   7.580   3.064   1.885 -0.1312  0.2818  0.4984
   32MOL0     C 4290   7.457   3.072   1.797  0.9663 -0.4851  0.5804
   32MOL0     C 4291   7.379   2.933   1.784 -0.1054  0.7486 -0.0973
   32MOL0     C 4292   7.273   2.947   1.676  0.5456 -0.0505  0.5203
   32MOL0     C 4293   7.212   2.803   1.648  0.7273 -0.2783  0.1426
   32MOL0     C 4294   7.154   2.748   1.778 -0.3059  0.6340  0.2278
   32MOL0     N 4295   7.041   2.653   1.751  0.2809 -0.8242 -1.0138
   32MOL0     C 4296   7.062   2.517   1.762  0.6837  1.2531 -0.0245
   32MOL0     C 4297   6.932   2.471   1.787  0.6700 -0.3409 -0.7021
   32MOL0     C 4298   6.896   2.326   1.807  0.7136 -0.6744 -1.0854
   32MOL0     C 4299   6.875   2.251   1.667 -0.5166 -1.5413 -0.3768
   32MOL0     C 4300   6.910   2.100   1.673  0.1737 -0.1616  0.9879
   32MOL0     C 4301   6.888   2.036   1.543 -0.3272  0.4762  0.7051
   32MOL0     O 4302   6.983   2.093   1.452  0.2951 -0.2189 -0.1705
   32MOL0     C 4303   6.992   2.022   1.339 -0.6276  0.0584  0.3934
   32MOL0     C 4304   6.902   1.939   1.272  0.1897  0.0189 -0.4324
   32MOL0     C 4305   6.930   1.878   1.155  0.5547  0.1542 -0.8365
   32MOL0     C 4306   6.835   1.800   1.084  0.3976  0.2523 -0.3439
   32MOL0     C 4307   7.060   1.884   1.101 -0.4050 -0.3275  0.4667
   32MOL0     C 4308   7.107   1.806   0.981 -0.4306 -0.1103  0.6032
   32MOL0     O 4309   7.064   1.674   0.955  0.8302 -0.2371  0.5663
   32MOL0     C 4310   7.121   1.609   0.848 -0.7541 -0.1182  0.2053
   32MOL0     C 4311   7.243   1.542   0.863 -0.1511  0.8015 -0.4234
   32MOL0     C 4312   7.306   1.478   0.754 -0.1950 -0.2773  0.3665
   32MOL0     C 4313   7.242   1.473   0.631  0.5157  0.5159 -0.8965
   32MOL0     O 4314   7.304   1.433   0.517  0.4233  0.4012  0.7203
   32MOL0     C 4315   7.440   1.396   0.518 -0.3157 -0.6363  0.3730
   32MOL0     C 4316   7.475   1.360   0.373 -0.4372  0.3671  0.1166
   32MOL0     C 4317   7.429   1.222   0.328  0.0340 -0.3284 -0.0514
   32MOL0     C 4318   7.486   1.173   0.189 -1.0904  0.6128 -0.5642
   32MOL0     C 4319   7.453   1.039   0.140  0.6230 -0.2862 -0.8348
   32MOL0     C 4320   7.574   0.983   0.058  1.3483 -0.5708 -0.1456
   32MOL0     C 4321   7.612   1.051  -0.071  0.6156 -0.4294  0.9635
   32MOL0     C 4322   7.496   1.072  -0.161 -1.0410  0.0199 -0.1901
   32MOL0    Cl 4323   7.538   1.079  -0.330  0.5196 -0.2667 -0.3176
   32MOL0     C 4324   7.116   1.538   0.617  1.4259 -1.0064  0.2600
   32MOL0     C 4325   7.061   1.610   0.723  0.0172 -0.4119  0.0075
   32MOL0     O 4326   7.192   1.859   0.906  0.5458 -0.2001 -0.6323
   32MOL0     C 4327   7.145   1.980   1.161 -0.0865 -0.0390  0.5782
   32MOL0     C 4328   7.118   2.040   1.281  0.5170  0.5750 -0.3590
   32MOL0     N 4329   6.836   2.567   1.780  0.3026 -0.5735  0.1155
   32MOL0     N 4330   6.904   2.682   1.764 -0.4974  0.9864  0.2895
   32MOL0     C 4331   7.902   2.846   2.205 -0.2410  0.6455  0.0853
   32MOL0     C 4332   7.977   2.768   2.292  0.1851  0.1070 -0.1158
   32MOL0     C 4333   8.117   2.741   2.747 -0.0586  0.4685  0.1189
   32MOL0     C 4334   8.012   2.683   2.829  0.0020 -0.5965 -0.1481
   32MOL0     C 4335   8.036   2.654   2.964  0.1698  0.2690  0.0102
   32MOL0     C 4336   8.160   2.680   3.020 -0.0433 -0.8056 -0.2643
   32MOL0     O 4337   8.196   2.645   3.141 -0.0521  0.6136  0.2048
   32MOL0     C 4338   8.111   2.675   3.251  0.4315  0.3877 -0.4225
   32MOL0     C 4339   8.050   2.537   3.301  0.4722 -0.2202 -0.2440
   32MOL0     C 4340   8.026   2.536   3.449  0.3853 -1.5954 -0.1161
   32MOL0     C 4341   7.982   2.401   3.511  0.9175  0.6145 -0.1657
   32MOL0     C 4342   8.077   2.291   3.497  0.4672 -0.7072 -0.3247
   32MOL0     C 4343   8.162   2.207   3.505 -0.3749  0.4359 -0.7516
   32MOL0     C 4344   8.262   2.747   2.946 -0.9766  0.2070  0.3448
   32MOL0     C 4345   8.242   2.779   2.808  0.4072 -0.4239 -0.0834
   32MOL0     C 4346   8.357   2.829   2.726  0.8631  0.4127  0.0990
   32MOL0     H 4347   7.767   2.799   2.548  1.1293  1.5098 -0.0783
   32MOL0     H 4348   7.627   2.925   2.366 -1.6019 -2.2820  3.3610
   32MOL0     H 4349   7.723   3.139   2.122  0.5679 -0.1868  2.2112
   32MOL0     H 4350   7.596   3.085   2.230  0.5817  0.9678  0.9128
   32MOL0     H 4351   7.452   3.004   2.050 -1.9624  1.8010 -0.4155
   32MOL0     H 4352   7.472   3.177   2.031  0.1253  0.9192 -0.6506
   32MOL0     H 4353   7.658   3.137   1.862  2.2562 -2.6655 -1.7537
   32MOL0     H 4354   7.629   2.967   1.869  0.8442  1.1703 -2.7433
   32MOL0     H 4355   7.386   3.150   1.826  1.2930  0.2924 -0.6559
   32MOL0     H 4356   7.490   3.102   1.697 -2.3306  2.9984  0.3065
   32MOL0     H 4357   7.327   2.910   1.877 -1.9602  0.2738 -1.2041
   32MOL0     H 4358   7.445   2.850   1.756 -0.5714  1.0313 -2.1705
   32MOL0     H 4359   7.201   3.024   1.705  0.8546  1.4323 -2.2402
   32MOL0     H 4360   7.313   2.985   1.581 -2.4344  0.2028 -0.7719
   32MOL0     H 4361   7.291   2.746   1.598  0.6298  2.3426 -3.3865
   32MOL0     H 4362   7.129   2.801   1.577  1.6941 -1.1757 -1.0017
   32MOL0     H 4363   7.227   2.688   1.833 -0.5098 -0.8786 -1.0794
   32MOL0     H 4364   7.113   2.832   1.834  1.3109  0.9745  0.9667
   32MOL0     H 4365   7.151   2.455   1.765  0.4066  0.8405 -0.2211
   32MOL0     H 4366   6.806   2.305   1.865  1.7958 -1.6747  0.3186
   32MOL0     H 4367   6.975   2.279   1.867  2.7678  2.4120 -1.1963
   32MOL0     H 4368   6.775   2.268   1.626 -0.5599 -1.0271 -0.0748
   32MOL0     H 4369   6.945   2.298   1.598 -2.4334  2.8801  0.3079
   32MOL0     H 4370   7.014   2.085   1.702  1.1401  0.7453 -1.6777
   32MOL0     H 4371   6.849   2.060   1.754 -1.9547  2.1732  0.6873
   32MOL0     H 4372   6.912   1.929   1.545  1.9322  0.9335  1.0925
   32MOL0     H 4373   6.790   2.052   1.498  0.1088 -0.8843 -0.8307
   32MOL0     H 4374   6.800   1.931   1.308 -0.0193  0.7924 -0.8322
   32MOL0     H 4375   6.872   1.698   1.067  1.4580  0.6411 -0.4470
   32MOL0     H 4376   6.803   1.839   0.987  0.6853  0.3979 -0.3814
   32MOL0     H 4377   6.747   1.783   1.146 -0.0998  1.1069 -0.8039
   32MOL0     H 4378   7.304   1.527   0.953  1.7556  0.7146 -1.6719
   32MOL0     H 4379   7.406   1.435   0.753  0.8772  1.6680 -4.5844
   32MOL0     H 4380   7.498   1.483   0.550  3.4664 -2.4387 -0.9625
   32MOL0     H 4381   7.461   1.318   0.592  1.7680  0.1938  0.7218
   32MOL0     H 4382   7.428   1.429   0.302  1.8414  0.3693 -1.5010
   32MOL0     H 4383   7.581   1.361   0.345 -0.3841  0.2504  0.3060
   32MOL0     H 4384   7.320   1.227   0.323 -0.0227 -1.3586 -0.1860
   32MOL0     H 4385   7.452   1.149   0.407  0.3733  1.0691  1.1905
   32MOL0     H 4386   7.595   1.179   0.195 -0.9415 -1.5842 -0.0930
   32MOL0     H 4387   7.443   1.244   0.118 -0.3405 -0.9044 -2.5943
   32MOL0     H 4388   7.433   0.971   0.224  3.1386 -1.0519 -0.7941
   32MOL0     H 4389   7.358   1.055   0.088  2.4104  5.6676 -3.0174
   32MOL0     H 4390   7.547   0.878   0.039 -0.4768  0.0313 -1.0320
   32MOL0     H 4391   7.662   0.978   0.123  1.9195  2.4344 -0.5392
   32MOL0     H 4392   7.680   0.990  -0.132 -1.3424 -0.0254 -1.8113
   32MOL0     H 4393   7.660   1.147  -0.051 -2.1009  0.4006  4.3723
   32MOL0     H 4394   7.456   1.169  -0.128  1.2911  0.4396  1.7344
   32MOL0     H 4395   7.414   1.000  -0.154 -0.9655 -0.1450 -1.0040
   32MOL0     H 4396   7.055   1.544   0.528  0.2869  1.1236  1.1216
   32MOL0     H 4397   6.970   1.663   0.697 -1.6796 -2.3542  1.6861
   32MOL0     H 4398   7.243   1.993   1.117 -1.5483 -0.4617 -3.1413
   32MOL0     H 4399   7.194   2.104   1.325 -1.5088  4.4399 -1.9784
   32MOL0     H 4400   7.940   2.856   2.104  1.8760 -1.2857  0.6204
   32MOL0     H 4401   8.074   2.734   2.259  0.3814  2.7492 -2.6616
   32MOL0     H 4402   7.912   2.656   2.795 -1.6135  0.9496  2.9238
   32MOL0     H 4403   7.959   2.612   3.027  0.5119 -3.0295 -1.5583
   32MOL0     H 4404   8.168   2.740   3.317  1.7374 -0.3489 -0.7973
   32MOL0     H 4405   8.028   2.740   3.222  1.0891  2.1699  1.4453
   32MOL0     H 4406   8.122   2.460   3.271  0.4965 -1.2759  2.2653
   32MOL0     H 4407   7.959   2.513   3.246  0.5906 -1.3225  0.0237
   32MOL0     H 4408   8.116   2.575   3.497 -0.4442  0.2051  0.0666
   32MOL0     H 4409   7.949   2.610   3.477  2.5449  1.1190 -0.9143
   32MOL0     H 4410   7.891   2.359   3.466 -0.0329  0.3212  1.8848
   32MOL0     H 4411   7.971   2.416   3.619  0.2377 -0.4280 -0.0640
   32MOL0     H 4412   8.229   2.123   3.512 -2.0174 -0.8646  0.1086
   32MOL0     H 4413   8.356   2.750   3.000  0.6290  0.4570 -2.2560
   32MOL0     H 4414   8.337   2.936   2.717 -2.5135 -0.1971 -1.0094
   32MOL0     H 4415   8.449   2.808   2.782 -0.5603  1.9629  3.2630
   32MOL0     H 4416   8.355   2.777   2.630 -1.6258 -0.2947  0.4704
   33MOL0     O 4417  10.272   5.799   9.313 -0.1166 -0.0357  0.3860
   33MOL0     C 4418  10.154   5.775   9.318  0.3710  0.3073  0.0361
   33MOL0     O 4419  10.047   5.856   9.281 -0.0644 -0.0713 -0.0427
   33MOL0     C 4420  10.069   5.988   9.243 -0.4201  0.0487  1.5698
   33MOL0     C 4421  10.163   6.013   9.134  0.2637  0.8892 -0.7616
   33MOL0     C 4422  10.192   6.146   9.101  0.3736  0.1033 -0.4074
   33MOL0     C 4423  10.132   6.254   9.169  0.2652 -0.6666  0.3151
   33MOL0     O 4424  10.161   6.384   9.124  0.5382  0.5613  0.1961
   33MOL0     C 4425  10.118   6.505   9.194 -0.4469 -0.6382 -0.7289
   33MOL0     C 4426  10.170   6.633   9.128  0.5753  0.0592 -0.9296
   33MOL0     C 4427  10.164   6.754   9.230 -0.1878 -0.0229  0.2908
   33MOL0     C 4428  10.146   6.889   9.158  0.0061 -0.1487  0.1265
   33MOL0     C 4429  10.193   7.007   9.244 -0.4184  0.0536 -0.1272
   33MOL0     C 4430  10.160   7.131   9.165 -0.6623 -0.9933  0.0343
   33MOL0     C 4431  10.208   7.250   9.242  0.3801 -0.1887 -0.6290
   33MOL0     C 4432  10.156   7.364   9.161 -0.1086  0.1008  0.6966
   33MOL0     N 4433  10.234   7.485   9.171  0.2642 -1.1429 -1.4239
   33MOL0     C 4434  10.356   7.500   9.117 -0.6395  0.7147 -0.1502
   33MOL0     C 4435  10.433   7.573   9.202 -0.3085  0.4667 -0.1943
   33MOL0     C 4436  10.580   7.605   9.201  0.9347 -0.7403 -0.6596
   33MOL0     C 4437  10.643   7.596   9.340  0.5365 -0.1793 -0.1780
   33MOL0     C 4438  10.791   7.638   9.337 -0.0820 -0.9579  0.0700
   33MOL0     C 4439  10.816   7.775   9.382 -0.0089  0.5683 -0.3944
   33MOL0     O 4440  10.944   7.800   9.436  0.3371 -0.0621 -0.2045
   33MOL0     C 4441  11.058   7.787   9.357  0.0210  0.2687 -0.6704
   33MOL0     C 4442  11.177   7.811   9.414 -0.2675 -0.8991  0.0553
   33MOL0     C 4443  11.302   7.811   9.353 -0.5222 -1.1127  1.3448
   33MOL0     C 4444  11.420   7.852   9.426  0.1425 -0.2394 -0.7591
   33MOL0     C 4445  11.306   7.795   9.202 -1.1816  0.8768 -0.4392
   33MOL0     C 4446  11.428   7.796   9.125 -1.0632 -0.8680  0.9056
   33MOL0     O 4447  11.539   7.872   9.165  1.0121  0.9244 -0.2995
   33MOL0     C 4448  11.630   7.928   9.083 -0.3281  0.3288  0.9105
   33MOL0     C 4449  11.749   7.985   9.138  0.9330 -0.4079 -0.8268
   33MOL0     C 4450  11.845   8.051   9.056 -1.1067 -0.0303  0.4055
   33MOL0     C 4451  11.834   8.064   8.924 -0.2469  0.6056 -0.1132
   33MOL0     O 4452  11.943   8.108   8.856  0.1575  0.6729 -0.2478
   33MOL0     C 4453  11.948   8.099   8.718  0.1420 -0.2516 -0.0136
   33MOL0     C 4454  12.074   8.156   8.656 -0.2249 -0.3594  0.1840
   33MOL0     C 4455  12.069   8.179   8.499 -0.2296  0.3098 -0.2425
   33MOL0     C 4456  12.210   8.228   8.441 -0.6581 -0.2883 -0.5691
   33MOL0     C 4457  12.201   8.265   8.295  0.1434 -0.0214  0.1228
   33MOL0     C 4458  12.166   8.142   8.207  0.2066  1.0174 -0.1083
   33MOL0     C 4459  12.288   8.044   8.188 -0.1879  0.0364  0.3761
   33MOL0     C 4460  12.284   7.957   8.065 -0.6582  0.7984 -0.4494
   33MOL0    Cl 4461  12.431   7.860   8.032 -0.3521 -0.4103 -0.0230
   33MOL0     C 4462  11.729   8.004   8.862  0.8168  0.1415 -0.7137
   33MOL0     C 4463  11.622   7.940   8.940  0.2360  0.8449  0.4456
   33MOL0     O 4464  11.428   7.731   9.020 -0.5812 -0.4135 -0.6282
   33MOL0     C 4465  11.178   7.780   9.146 -0.1404  0.0528 -0.5687
   33MOL0     C 4466  11.059   7.769   9.217  0.7452 -0.0563 -0.0269
   33MOL0     N 4467  10.349   7.618   9.302 -0.2488 -0.2016 -0.3041
   33MOL0     N 4468  10.234   7.554   9.290 -0.3051 -0.5553 -0.0241
   33MOL0     C 4469  10.029   6.234   9.271 -0.9024  0.0070  0.0030
   33MOL0     C 4470  10.006   6.095   9.306 -0.1427 -0.1524 -1.0705
   33MOL0     C 4471  10.120   5.639   9.376 -0.1517  0.7555 -0.7354
   33MOL0     C 4472   9.995   5.584   9.341  0.0590  0.1633 -0.3579
   33MOL0     C 4473   9.947   5.456   9.386 -0.2026 -0.6935 -0.2319
   33MOL0     C 4474  10.039   5.380   9.464 -0.5228 -0.7409  0.1431
   33MOL0     O 4475  10.012   5.252   9.508 -0.2435 -0.4653 -0.4225
   33MOL0     C 4476   9.910   5.181   9.434  0.7617 -0.5969  0.1184
   33MOL0     C 4477   9.902   5.038   9.487 -0.9054 -0.3414 -0.0050
   33MOL0     C 4478   9.871   5.041   9.635 -0.5895 -0.3680  0.1353
   33MOL0     C 4479   9.854   4.902   9.701 -0.6239  0.5887  0.0727
   33MOL0     C 4480   9.795   4.925   9.827  0.0764  1.1135 -0.3490
   33MOL0     C 4481   9.742   4.917   9.934 -0.7133 -0.5379  0.6111
   33MOL0     C 4482  10.167   5.434   9.495  0.1361 -0.5546  0.2260
   33MOL0     C 4483  10.206   5.563   9.459  0.9531 -0.2960 -0.2651
   33MOL0     C 4484  10.333   5.614   9.510 -0.3030  0.3299 -0.1269
   33MOL0     H 4485  10.212   5.931   9.081 -1.3334 -0.2097 -0.6002
   33MOL0     H 4486  10.260   6.166   9.018 -0.4173 -0.2267 -1.1586
   33MOL0     H 4487  10.161   6.496   9.294 -1.6955 -1.2117 -0.2190
   33MOL0     H 4488  10.009   6.514   9.203 -0.2932  2.7449 -0.9813
   33MOL0     H 4489  10.273   6.624   9.093  0.8459  0.6420 -0.2952
   33MOL0     H 4490  10.114   6.646   9.035  3.4772 -3.1606 -3.4017
   33MOL0     H 4491  10.084   6.736   9.302  3.7547 -4.2608  4.2696
   33MOL0     H 4492  10.259   6.750   9.284 -0.4906  1.6377  1.0148
   33MOL0     H 4493  10.184   6.894   9.055  1.8617 -1.1464  0.7188
   33MOL0     H 4494  10.037   6.892   9.153 -0.1266 -1.9528  1.1263
   33MOL0     H 4495  10.301   7.009   9.264 -0.0219 -2.5580 -1.6327
   33MOL0     H 4496  10.138   7.012   9.339 -0.5517  2.5176 -0.2496
   33MOL0     H 4497  10.217   7.132   9.072  1.1161  1.1844  1.0503
   33MOL0     H 4498  10.052   7.125   9.150 -1.6153  1.4895  4.2262
   33MOL0     H 4499  10.315   7.250   9.261 -0.1830 -0.1761  3.3177
   33MOL0     H 4500  10.161   7.251   9.341  2.6083 -0.2507  0.4931
   33MOL0     H 4501  10.161   7.340   9.054  0.6108 -0.7739  0.9081
   33MOL0     H 4502  10.052   7.364   9.192 -0.7929 -1.8609 -1.3203
   33MOL0     H 4503  10.385   7.445   9.028  0.1786 -1.7338  1.5187
   33MOL0     H 4504  10.588   7.707   9.162 -1.6767 -0.7165 -1.3377
   33MOL0     H 4505  10.632   7.533   9.136  4.0488  0.5537  0.2343
   33MOL0     H 4506  10.600   7.654   9.423  1.3999 -1.4902  1.2470
   33MOL0     H 4507  10.642   7.492   9.374  0.2668 -0.3773 -0.7871
   33MOL0     H 4508  10.843   7.578   9.412  1.0559  0.2483  0.2696
   33MOL0     H 4509  10.830   7.615   9.237 -0.0124 -0.1096 -0.0999
   33MOL0     H 4510  10.793   7.848   9.303 -0.6726 -1.0125 -1.7253
   33MOL0     H 4511  10.745   7.796   9.463  0.6267 -0.8167  0.5433
   33MOL0     H 4512  11.166   7.831   9.520  1.7807  3.2456 -0.3240
   33MOL0     H 4513  11.521   7.823   9.394  0.4205 -0.1291 -0.0135
   33MOL0     H 4514  11.417   7.810   9.527 -0.2092 -0.4289 -0.8484
   33MOL0     H 4515  11.413   7.961   9.435 -1.0482 -0.3917  0.5220
   33MOL0     H 4516  11.760   7.957   9.243 -0.3212 -1.3942 -0.9295
   33MOL0     H 4517  11.934   8.095   9.100 -0.0943  2.6378 -3.7635
   33MOL0     H 4518  11.958   7.996   8.683 -2.7573 -0.7732  0.4750
   33MOL0     H 4519  11.857   8.146   8.681  0.3475  1.2695  1.2848
   33MOL0     H 4520  12.118   8.241   8.710 -1.5913  1.1171 -0.9628
   33MOL0     H 4521  12.163   8.093   8.667  0.6761  0.9900  1.0267
   33MOL0     H 4522  11.992   8.250   8.468 -2.1375 -2.2661 -1.8830
   33MOL0     H 4523  12.043   8.086   8.446  4.1602 -2.1437  1.4123
   33MOL0     H 4524  12.280   8.145   8.454 -1.0774 -0.5884 -0.1615
   33MOL0     H 4525  12.251   8.309   8.502  3.0654 -1.9265 -0.6398
   33MOL0     H 4526  12.117   8.336   8.290 -1.1476 -1.5676 -1.9571
   33MOL0     H 4527  12.286   8.324   8.262 -1.9823  1.5543 -3.0437
   33MOL0     H 4528  12.119   8.182   8.117  2.0776 -0.0480 -1.6438
   33MOL0     H 4529  12.086   8.076   8.243  2.6767 -3.1635 -1.4542
   33MOL0     H 4530  12.292   7.976   8.274  2.1928  0.1065  0.3776
   33MOL0     H 4531  12.379   8.105   8.189  1.2800 -2.0617  1.3945
   33MOL0     H 4532  12.280   8.020   7.976 -0.2164 -2.2770 -2.8372
   33MOL0     H 4533  12.195   7.893   8.065 -0.9255  1.0468 -3.0157
   33MOL0     H 4534  11.715   8.001   8.754 -1.0835 -0.3231 -0.4901
   33MOL0     H 4535  11.535   7.906   8.886  1.1376 -2.2786  0.7406
   33MOL0     H 4536  11.182   7.782   9.037  0.6154 -1.5168 -0.5930
   33MOL0     H 4537  10.970   7.757   9.157  1.7422 -1.1246 -1.3721
   33MOL0     H 4538   9.965   6.312   9.311 -2.5038 -1.8992  1.3095
   33MOL0     H 4539   9.921   6.069   9.368  0.0619  2.2293  0.3350
   33MOL0     H 4540   9.929   5.633   9.270  2.4271  1.1437 -2.0307
   33MOL0     H 4541   9.844   5.428   9.367 -1.2632  1.7382  1.3862
   33MOL0     H 4542   9.813   5.229   9.452  1.7664  1.4837  0.3016
   33MOL0     H 4543   9.922   5.185   9.326  2.0374 -0.5526  0.2494
   33MOL0     H 4544  10.006   5.004   9.482 -0.1629  1.4802  1.4174
   33MOL0     H 4545   9.831   4.968   9.444  0.4841 -1.2157 -0.9228
   33MOL0     H 4546   9.942   5.103   9.691 -0.7627  0.1158 -0.1734
   33MOL0     H 4547   9.780   5.100   9.647 -0.4955  0.4571 -2.5448
   33MOL0     H 4548   9.955   4.862   9.702  0.4186  3.0287  1.0151
   33MOL0     H 4549   9.786   4.843   9.638  1.8059  2.2039 -4.5266
   33MOL0     H 4550   9.704   4.910  10.034 -2.9279 -1.9782 -0.2264
   33MOL0     H 4551  10.232   5.372   9.557  2.7786  3.0529  1.4060
   33MOL0     H 4552  10.400   5.645   9.429 -0.7424  2.7913  0.3694
   33MOL0     H 4553  10.318   5.702   9.574  0.6452  0.7747 -0.4975
   33MOL0     H 4554  10.378   5.543   9.581 -0.7107 -0.8889 -1.0679
   34MOL0     O 4555   2.302   3.449   2.013  0.6531  0.9810 -0.2133
   34MOL0     C 4556   2.243   3.398   2.106 -0.4315  0.5505  0.4611
   34MOL0     O 4557   2.186   3.269   2.106 -0.0086 -0.2499  1.0756
   34MOL0     C 4558   2.216   3.163   2.016  0.2784  0.5341  0.2184
   34MOL0     C 4559   2.119   3.062   1.987  0.0339 -0.0468 -0.4406
   34MOL0     C 4560   2.152   2.959   1.897  0.3859  0.2078  0.3062
   34MOL0     C 4561   2.280   2.953   1.846 -0.5130 -0.5196 -0.0317
   34MOL0     O 4562   2.314   2.868   1.747  0.1652 -0.2322 -0.0003
   34MOL0     C 4563   2.218   2.775   1.689 -0.3082  0.1149 -0.1417
   34MOL0     C 4564   2.292   2.684   1.586  0.1686 -0.2735 -0.5671
   34MOL0     C 4565   2.306   2.750   1.455 -0.4592 -0.3240 -0.0327
   34MOL0     C 4566   2.334   2.652   1.330  0.0060  0.0345  0.0135
   34MOL0     C 4567   2.348   2.713   1.184  0.5513  0.4135  0.1180
   34MOL0     C 4568   2.455   2.819   1.165 -0.1467 -0.4974  0.5824
   34MOL0     C 4569   2.585   2.746   1.208 -0.6225  0.1703 -0.3698
   34MOL0     C 4570   2.706   2.803   1.129 -0.2432  0.4977  0.2801
   34MOL0     N 4571   2.836   2.744   1.156  0.2008  0.3241  0.0140
   34MOL0     C 4572   2.856   2.610   1.175 -0.0044  0.4870 -1.1038
   34MOL0     C 4573   2.990   2.598   1.215 -0.3461  0.2722  0.0470
   34MOL0     C 4574   3.041   2.473   1.270 -0.0720  1.2954 -0.1144
   34MOL0     C 4575   3.101   2.394   1.159 -0.3631  0.5208 -0.1851
   34MOL0     C 4576   3.156   2.260   1.207 -1.2581  0.0950  0.9439
   34MOL0     C 4577   3.298   2.278   1.275 -0.2976 -0.8296  0.2245
   34MOL0     O 4578   3.356   2.163   1.340  0.0504  0.7655  0.4613
   34MOL0     C 4579   3.481   2.134   1.301 -1.6104 -0.1241 -0.3930
   34MOL0     C 4580   3.508   2.088   1.173  0.3635 -0.3696  0.5623
   34MOL0     C 4581   3.644   2.063   1.124  0.4131  0.5363 -0.2344
   34MOL0     C 4582   3.658   2.023   0.980  0.1219  0.9319  0.1185
   34MOL0     C 4583   3.752   2.073   1.215 -0.3899 -1.5423  0.3559
   34MOL0     C 4584   3.888   2.065   1.176 -0.1165 -1.0254 -0.0492
   34MOL0     O 4585   3.981   2.041   1.278  0.1151 -0.2689 -0.4000
   34MOL0     C 4586   4.111   2.011   1.263 -0.9868 -0.0456  1.2117
   34MOL0     C 4587   4.197   2.076   1.161  0.5118  0.5898 -0.0075
   34MOL0     C 4588   4.326   2.029   1.141 -0.5363 -1.5843 -0.5883
   34MOL0     C 4589   4.377   1.926   1.226  0.1272 -1.0680 -0.0311
   34MOL0     O 4590   4.490   1.870   1.189 -0.1449 -0.3579  0.2972
   34MOL0     C 4591   4.550   1.769   1.262 -0.7039  0.4429 -0.4105
   34MOL0     C 4592   4.668   1.710   1.182  0.3685 -1.1038 -0.5580
   34MOL0     C 4593   4.711   1.574   1.231  0.3842  0.9437  0.1892
   34MOL0     C 4594   4.802   1.489   1.144 -0.1957  0.2473 -0.4087
   34MOL0     C 4595   4.781   1.331   1.179  0.3262  0.6169 -0.3101
   34MOL0     C 4596   4.875   1.242   1.089  1.0260  0.7468 -0.5610
   34MOL0     C 4597   4.802   1.171   0.978 -0.3406 -0.0131 -0.1573
   34MOL0     C 4598   4.856   1.038   0.939  0.3920 -0.5625 -0.0950
   34MOL0    Cl 4599   5.030   1.051   0.915 -0.4158  0.0164 -0.2509
   34MOL0     C 4600   4.298   1.882   1.335 -0.1742 -0.4887  0.4568
   34MOL0     C 4601   4.169   1.927   1.355 -0.5599  0.1413 -0.3148
   34MOL0     O 4602   3.917   2.093   1.059 -0.1862  0.2313 -0.4051
   34MOL0     C 4603   3.727   2.112   1.352  0.2656  0.1283 -0.0120
   34MOL0     C 4604   3.591   2.149   1.388 -0.6590  0.0406 -0.4969
   34MOL0     N 4605   3.032   2.735   1.223 -0.0363 -0.4392  0.2409
   34MOL0     N 4606   2.941   2.812   1.184 -0.1966 -0.1598  0.4259
   34MOL0     C 4607   2.370   3.048   1.879  0.2272  0.4643  0.0557
   34MOL0     C 4608   2.347   3.146   1.966 -0.6468  0.2460  0.5570
   34MOL0     C 4609   2.232   3.478   2.233 -0.3242  0.1076  0.7136
   34MOL0     C 4610   2.211   3.399   2.349 -0.1137 -0.4974 -0.2337
   34MOL0     C 4611   2.224   3.457   2.478  0.2692 -0.4556 -0.1597
   34MOL0     C 4612   2.260   3.592   2.497 -0.4236  0.2242 -0.1127
   34MOL0     O 4613   2.277   3.649   2.621  0.8384 -0.1901 -0.7280
   34MOL0     C 4614   2.258   3.567   2.745  0.3992 -0.2117 -0.0163
   34MOL0     C 4615   2.273   3.659   2.860 -0.0451 -0.1337  0.7663
   34MOL0     C 4616   2.401   3.743   2.858 -0.3869 -0.4135 -0.3763
   34MOL0     C 4617   2.523   3.650   2.847  0.1493  0.4894  0.1253
   34MOL0     C 4618   2.642   3.727   2.861  0.8605  1.1260 -0.7609
   34MOL0     C 4619   2.737   3.794   2.888 -0.5553  0.0076 -0.6100
   34MOL0     C 4620   2.272   3.672   2.381  0.2722 -0.3253 -0.1788
   34MOL0     C 4621   2.254   3.615   2.252 -0.2590 -0.8675  0.1002
   34MOL0     C 4622   2.285   3.713   2.140  0.4245  0.2136  0.8771
   34MOL0     H 4623   2.021   3.051   2.032  0.8029 -0.5332  1.2367
   34MOL0     H 4624   2.082   2.877   1.881  2.1693 -1.1934 -0.7243
   34MOL0     H 4625   2.132   2.828   1.648 -1.6004 -1.3414  0.5902
   34MOL0     H 4626   2.175   2.710   1.766 -0.9111 -0.9567 -1.3436
   34MOL0     H 4627   2.395   2.664   1.616 -0.1092 -0.1741  0.5103
   34MOL0     H 4628   2.250   2.583   1.579 -0.5080 -0.7344  5.2618
   34MOL0     H 4629   2.214   2.802   1.428  0.3879  1.2423  0.0030
   34MOL0     H 4630   2.391   2.819   1.448  2.1303 -3.4035 -5.2506
   34MOL0     H 4631   2.425   2.597   1.355  0.5470  1.3546  1.0855
   34MOL0     H 4632   2.248   2.584   1.322 -0.9706  1.3080 -0.8162
   34MOL0     H 4633   2.249   2.757   1.166  0.8649  0.7882 -0.7427
   34MOL0     H 4634   2.373   2.631   1.115 -2.7059 -1.1892  0.6423
   34MOL0     H 4635   2.450   2.860   1.064 -2.1196 -1.4483  0.2572
   34MOL0     H 4636   2.441   2.908   1.227 -0.2775 -1.0769  1.4027
   34MOL0     H 4637   2.582   2.639   1.184 -2.4321  0.5938 -2.2537
   34MOL0     H 4638   2.603   2.763   1.315 -0.3746 -3.0575  0.1964
   34MOL0     H 4639   2.685   2.797   1.022  0.9129  4.2180 -0.2881
   34MOL0     H 4640   2.705   2.910   1.153  2.8602  0.9202 -1.0322
   34MOL0     H 4641   2.786   2.532   1.148 -2.1561  2.3165 -1.0977
   34MOL0     H 4642   2.954   2.423   1.314  1.4644  0.8906  2.6974
   34MOL0     H 4643   3.108   2.486   1.356  1.9357 -1.8467 -0.9977
   34MOL0     H 4644   3.014   2.372   1.097 -1.6350 -2.0674  2.2705
   34MOL0     H 4645   3.169   2.451   1.095 -1.9970  1.4304 -1.2010
   34MOL0     H 4646   3.085   2.196   1.259 -0.1720 -1.5546  0.4938
   34MOL0     H 4647   3.192   2.197   1.125 -1.1793 -1.6421  2.2469
   34MOL0     H 4648   3.371   2.307   1.199 -1.0549  1.7643  0.3828
   34MOL0     H 4649   3.286   2.362   1.345 -4.0715  0.1068 -1.2795
   34MOL0     H 4650   3.422   2.084   1.106 -0.8273  1.4377  1.9076
   34MOL0     H 4651   3.564   2.003   0.928  0.7230 -1.5337 -0.1333
   34MOL0     H 4652   3.719   1.933   0.970  1.3660  1.4933  2.1163
   34MOL0     H 4653   3.718   2.096   0.924  1.1889 -0.5294 -0.7110
   34MOL0     H 4654   4.156   2.147   1.089  1.0488  2.4994  1.4868
   34MOL0     H 4655   4.392   2.067   1.065  3.7869 -3.4299  1.8796
   34MOL0     H 4656   4.585   1.813   1.355  0.2775  1.4118 -1.2205
   34MOL0     H 4657   4.471   1.697   1.286 -0.2131  0.0201 -0.0493
   34MOL0     H 4658   4.636   1.690   1.079  0.6273 -0.9640 -0.6662
   34MOL0     H 4659   4.756   1.774   1.182  1.8660 -3.0381  0.9740
   34MOL0     H 4660   4.618   1.517   1.241  0.9038  0.2787  1.5215
   34MOL0     H 4661   4.757   1.571   1.330 -0.2766  1.6529  0.5333
   34MOL0     H 4662   4.907   1.516   1.160 -0.0653  0.7516 -1.9706
   34MOL0     H 4663   4.787   1.506   1.037  0.4223  0.7908 -0.4175
   34MOL0     H 4664   4.817   1.308   1.280  2.1177  0.4445 -0.9378
   34MOL0     H 4665   4.678   1.295   1.169  0.9182 -1.6960  1.0343
   34MOL0     H 4666   4.916   1.161   1.150  1.1712 -1.1678 -3.0494
   34MOL0     H 4667   4.960   1.305   1.060  1.1198  0.3238 -1.2097
   34MOL0     H 4668   4.801   1.232   0.888 -0.4211  1.3752  0.7551
   34MOL0     H 4669   4.699   1.149   1.007  0.1092 -1.4813  0.4426
   34MOL0     H 4670   4.815   1.012   0.840 -3.1319  0.1121  1.0311
   34MOL0     H 4671   4.827   0.963   1.013  0.6014 -0.4398  0.1083
   34MOL0     H 4672   4.336   1.808   1.405 -0.3297  0.3554  1.4732
   34MOL0     H 4673   4.111   1.878   1.432  0.5375 -0.3022  0.2476
   34MOL0     H 4674   3.821   2.127   1.405  1.1432  0.9805 -1.7195
   34MOL0     H 4675   3.556   2.187   1.484 -4.7805  0.4767 -1.9919
   34MOL0     H 4676   2.463   3.050   1.823 -2.2288 -0.2846 -4.5451
   34MOL0     H 4677   2.422   3.224   1.969  0.0349 -0.3383 -0.4888
   34MOL0     H 4678   2.197   3.292   2.339 -3.0390 -0.1145 -1.3287
   34MOL0     H 4679   2.224   3.386   2.560 -0.3448 -2.3990 -1.7542
   34MOL0     H 4680   2.158   3.523   2.737  1.3464 -2.4654 -0.1096
   34MOL0     H 4681   2.329   3.484   2.751  0.3343 -0.5530 -2.8162
   34MOL0     H 4682   2.259   3.603   2.953 -1.8192  0.7022  1.0466
   34MOL0     H 4683   2.184   3.723   2.862  0.2160  0.2179  1.0778
   34MOL0     H 4684   2.398   3.819   2.778  2.3445  0.0570 -0.1336
   34MOL0     H 4685   2.398   3.798   2.952 -3.7998  1.7466 -1.5406
   34MOL0     H 4686   2.526   3.597   2.751 -0.0103  0.8478 -0.0797
   34MOL0     H 4687   2.512   3.580   2.930  0.6928  1.7627  1.3033
   34MOL0     H 4688   2.821   3.859   2.901  1.4631 -2.4169 -0.5745
   34MOL0     H 4689   2.294   3.777   2.396 -1.1621  0.2249 -1.5763
   34MOL0     H 4690   2.244   3.679   2.044 -0.9710  3.8536 -0.0233
   34MOL0     H 4691   2.233   3.809   2.153 -0.5442 -0.3225  1.0831
   34MOL0     H 4692   2.393   3.726   2.135  0.2734  1.3128  0.0284
   35MOL0     O 4693   3.078   6.932   9.254  0.2698 -0.6557  0.0681
   35MOL0     C 4694   2.958   6.944   9.240 -0.2694 -0.1949  0.1273
   35MOL0     O 4695   2.860   6.890   9.317 -0.2112 -0.5372  0.0323
   35MOL0     C 4696   2.880   6.826   9.437 -0.7121 -0.3079  0.3446
   35MOL0     C 4697   2.985   6.725   9.458  0.1486  1.0210  0.7191
   35MOL0     C 4698   2.994   6.655   9.574 -1.0752 -0.1430 -1.0444
   35MOL0     C 4699   2.904   6.681   9.677  0.3123 -0.3373  0.0829
   35MOL0     O 4700   2.922   6.622   9.800 -0.3979 -0.1213 -0.6185
   35MOL0     C 4701   2.831   6.644   9.914 -0.9482  1.3449  0.0562
   35MOL0     C 4702   2.877   6.761   9.999 -0.5162  0.0041 -0.2167
   35MOL0     C 4703   2.824   6.745  10.149  0.2091  0.9274 -0.1602
   35MOL0     C 4704   2.941   6.774  10.242 -0.4336 -0.1285 -0.0321
   35MOL0     C 4705   2.894   6.745  10.379  0.3548  0.2607 -0.7598
   35MOL0     C 4706   2.874   6.594  10.405  0.3596 -0.2342 -0.0877
   35MOL0     C 4707   2.866   6.564  10.556  0.5130 -0.3252  0.2373
   35MOL0     C 4708   2.768   6.450  10.598  0.0505 -1.0647  0.7767
   35MOL0     N 4709   2.706   6.461  10.729  0.3231 -0.4307 -0.9490
   35MOL0     C 4710   2.611   6.552  10.780  0.1101  0.9550  0.4607
   35MOL0     C 4711   2.597   6.507  10.908 -0.8402  1.6815  0.2941
   35MOL0     C 4712   2.491   6.554  10.995  0.3751 -0.2461  0.6585
   35MOL0     C 4713   2.491   6.515  11.149 -0.6284  0.1597  0.2689
   35MOL0     C 4714   2.600   6.588  11.231  0.8109 -0.6199  0.1704
   35MOL0     C 4715   2.601   6.549  11.370  0.0714 -0.2431 -0.2528
   35MOL0     O 4716   2.681   6.639  11.453 -0.3475 -0.2756 -0.6315
   35MOL0     C 4717   2.663   6.617  11.587  0.3124 -0.4962 -0.6958
   35MOL0     C 4718   2.621   6.716  11.673 -0.7921  0.2367  0.0230
   35MOL0     C 4719   2.600   6.698  11.818  0.1684  0.0073  0.8231
   35MOL0     C 4720   2.569   6.826  11.892 -0.2968  0.7449 -0.2695
   35MOL0     C 4721   2.604   6.567  11.870 -0.0517  0.0181 -0.4723
   35MOL0     C 4722   2.595   6.535  12.017 -0.2454 -0.7881  0.1666
   35MOL0     O 4723   2.583   6.410  12.061  0.3223  0.6644  0.9407
   35MOL0     C 4724   2.568   6.392  12.200  0.2215 -1.1009 -0.0169
   35MOL0     C 4725   2.669   6.403  12.295 -0.1068  0.3231 -0.0087
   35MOL0     C 4726   2.655   6.374  12.437  1.0520  0.1824  0.4936
   35MOL0     C 4727   2.530   6.328  12.480 -1.1231  0.4898 -1.1293
   35MOL0     O 4728   2.526   6.302  12.617  0.1315  0.7016  0.5781
   35MOL0     C 4729   2.404   6.276  12.688  0.4932  0.2168 -0.1637
   35MOL0     C 4730   2.438   6.246  12.828 -0.4774  0.3535 -0.3729
   35MOL0     C 4731   2.313   6.227  12.905  0.2392 -0.2406 -0.1294
   35MOL0     C 4732   2.342   6.178  13.049 -0.2660 -0.4405 -0.1661
   35MOL0     C 4733   2.380   6.034  13.044  0.1422  0.0489  0.3900
   35MOL0     C 4734   2.399   5.974  13.187 -0.2745  0.1101  0.4099
   35MOL0     C 4735   2.437   5.828  13.182 -0.0208 -0.7662  0.0310
   35MOL0     C 4736   2.315   5.742  13.163  0.0186  0.3637  0.5921
   35MOL0    Cl 4737   2.294   5.674  12.990 -0.1328 -0.1095 -0.5886
   35MOL0     C 4738   2.425   6.305  12.385 -0.5705 -0.7530 -0.7885
   35MOL0     C 4739   2.450   6.334  12.253  0.0346  0.7221 -0.7178
   35MOL0     O 4740   2.609   6.632  12.097  0.2937 -0.4834  0.2582
   35MOL0     C 4741   2.647   6.463  11.780  0.0162  0.3995  0.0372
   35MOL0     C 4742   2.681   6.494  11.642  0.5773 -0.6675 -0.2507
   35MOL0     N 4743   2.673   6.391  10.927 -0.2294 -0.2471 -0.6965
   35MOL0     N 4744   2.734   6.371  10.820 -0.2886  0.5773 -0.1404
   35MOL0     C 4745   2.794   6.768   9.648  0.0474  0.0089 -0.5074
   35MOL0     C 4746   2.784   6.849   9.535  0.4613  0.4456 -0.1858
   35MOL0     C 4747   2.904   7.017   9.117 -0.1957  0.5436 -0.2581
   35MOL0     C 4748   2.770   6.992   9.074 -0.3990 -0.5316  1.0441
   35MOL0     C 4749   2.729   7.034   8.945 -0.0681  0.2816 -0.5966
   35MOL0     C 4750   2.824   7.098   8.859  0.3273  0.3485  0.1314
   35MOL0     O 4751   2.796   7.150   8.745  0.5311  0.1120  0.7138
   35MOL0     C 4752   2.789   7.062   8.637  0.7443 -0.1521  0.6499
   35MOL0     C 4753   2.894   7.106   8.535 -0.0006 -0.0594 -0.1069
   35MOL0     C 4754   2.896   7.035   8.399 -0.9113  0.4740 -0.8129
   35MOL0     C 4755   2.980   6.910   8.403 -0.0786 -0.1286  0.0547
   35MOL0     C 4756   3.054   6.879   8.276  0.3568  0.6670  0.2253
   35MOL0     C 4757   3.142   6.879   8.197 -0.5298  0.1591  0.5151
   35MOL0     C 4758   2.951   7.140   8.909  0.0145 -0.0518 -0.1018
   35MOL0     C 4759   2.995   7.093   9.035 -0.1697 -0.3391 -0.2065
   35MOL0     C 4760   3.141   7.123   9.061  0.8675 -0.0581 -0.5815
   35MOL0     H 4761   3.055   6.714   9.376 -1.5677 -0.8580 -0.5771
   35MOL0     H 4762   3.077   6.589   9.595  1.1317  1.9156 -2.7594
   35MOL0     H 4763   2.846   6.555   9.975 -0.4148  1.6609  0.3954
   35MOL0     H 4764   2.726   6.653   9.886 -1.9094 -0.3975  2.7151
   35MOL0     H 4765   2.986   6.764   9.997 -0.4599 -1.1570  0.4373
   35MOL0     H 4766   2.852   6.854   9.946  5.7331  0.7944 -2.6920
   35MOL0     H 4767   2.755   6.827  10.169  0.9984  1.6978 -0.5449
   35MOL0     H 4768   2.766   6.653  10.160 -1.4527  1.8917 -0.5321
   35MOL0     H 4769   3.027   6.711  10.220 -1.7078 -1.6822 -0.7336
   35MOL0     H 4770   2.959   6.881  10.226 -0.4297 -0.2019 -0.5190
   35MOL0     H 4771   2.796   6.792  10.397  1.4844  4.4636 -4.0200
   35MOL0     H 4772   2.969   6.772  10.454  0.2279 -2.4221  0.4393
   35MOL0     H 4773   2.794   6.550  10.345  0.6003 -0.6178 -0.1322
   35MOL0     H 4774   2.964   6.547  10.363 -0.6606 -1.0997 -1.3631
   35MOL0     H 4775   2.857   6.658  10.612 -2.5088  1.8969 -3.4193
   35MOL0     H 4776   2.965   6.529  10.586  1.5363  2.8756  1.0279
   35MOL0     H 4777   2.695   6.448  10.517  3.4969  0.9583 -2.7072
   35MOL0     H 4778   2.820   6.354  10.587  1.0415 -0.3415 -1.2463
   35MOL0     H 4779   2.556   6.635  10.739  0.1817  0.6812 -0.2014
   35MOL0     H 4780   2.392   6.515  10.969 -0.4965  1.4929  1.1945
   35MOL0     H 4781   2.475   6.661  10.976 -1.0624 -0.9541 -3.0865
   35MOL0     H 4782   2.388   6.539  11.176 -1.5000 -0.8288 -1.9795
   35MOL0     H 4783   2.499   6.406  11.150 -1.5452  0.0842  0.6841
   35MOL0     H 4784   2.702   6.582  11.192 -0.0712 -3.7319 -1.9822
   35MOL0     H 4785   2.583   6.696  11.232 -2.9579 -1.0768 -0.3587
   35MOL0     H 4786   2.495   6.560  11.394 -0.0464  4.1333 -1.9603
   35MOL0     H 4787   2.634   6.445  11.371 -0.5323 -0.4558 -1.4273
   35MOL0     H 4788   2.615   6.820  11.642 -1.0917  0.9732  2.3113
   35MOL0     H 4789   2.468   6.825  11.934  0.0831  1.1135  0.6915
   35MOL0     H 4790   2.569   6.909  11.821 -0.6156 -0.4723 -1.7490
   35MOL0     H 4791   2.641   6.849  11.971  0.4857  3.6229 -1.6885
   35MOL0     H 4792   2.763   6.438  12.252 -0.8343  0.5160 -1.5160
   35MOL0     H 4793   2.735   6.394  12.507  3.9285  1.5121 -2.8917
   35MOL0     H 4794   2.334   6.360  12.679 -3.1389 -2.4873  0.5322
   35MOL0     H 4795   2.346   6.198  12.639 -1.9630  1.9422 -0.2004
   35MOL0     H 4796   2.497   6.154  12.841  1.7199  1.2859 -2.9261
   35MOL0     H 4797   2.492   6.330  12.871 -1.5590 -0.4866  2.9007
   35MOL0     H 4798   2.252   6.149  12.858 -0.3225 -1.1762  2.0128
   35MOL0     H 4799   2.256   6.320  12.904 -1.0915 -1.0357 -1.2860
   35MOL0     H 4800   2.258   6.184  13.119 -0.8922 -1.7338 -0.7742
   35MOL0     H 4801   2.430   6.227  13.091  0.5698 -0.3395 -1.9744
   35MOL0     H 4802   2.300   5.982  12.991  1.8859 -1.7882 -0.5937
   35MOL0     H 4803   2.484   6.028  13.011  0.6199  3.9113  0.7211
   35MOL0     H 4804   2.304   5.998  13.237  0.8564  3.6470  1.1673
   35MOL0     H 4805   2.481   6.031  13.233  0.2850 -0.8495  0.6336
   35MOL0     H 4806   2.498   5.810  13.271  0.8280  0.6600 -0.2150
   35MOL0     H 4807   2.506   5.814  13.098 -2.7388 -2.6094 -2.0542
   35MOL0     H 4808   2.225   5.791  13.201 -1.2116 -3.7377  3.7287
   35MOL0     H 4809   2.325   5.650  13.221  1.4267  0.7609  1.0198
   35MOL0     H 4810   2.332   6.255  12.412 -1.4172  1.9424  1.8668
   35MOL0     H 4811   2.375   6.306  12.180 -1.3092 -0.2366  0.9484
   35MOL0     H 4812   2.640   6.362  11.818 -0.8449 -0.7625 -2.8920
   35MOL0     H 4813   2.729   6.413  11.588 -0.8037 -2.1687  0.6430
   35MOL0     H 4814   2.715   6.786   9.720 -0.4046 -0.6848 -0.8218
   35MOL0     H 4815   2.696   6.910   9.523 -0.3468 -0.7096 -0.2927
   35MOL0     H 4816   2.707   6.922   9.128  1.2700 -0.3390  3.3795
   35MOL0     H 4817   2.626   7.008   8.923 -0.6739 -0.1006  2.3193
   35MOL0     H 4818   2.799   6.957   8.668 -1.3522  0.2187  2.7807
   35MOL0     H 4819   2.688   7.069   8.597  0.4639 -0.5167  1.2947
   35MOL0     H 4820   2.971   7.096   8.612 -2.0490  0.1717  2.1086
   35MOL0     H 4821   2.883   7.211   8.506  1.1870 -0.8220 -3.8401
   35MOL0     H 4822   2.804   7.017   8.342 -0.2923 -1.9394 -1.1328
   35MOL0     H 4823   2.960   7.097   8.336  2.2021 -1.0799  0.6378
   35MOL0     H 4824   2.916   6.828   8.440  0.0445 -0.4715 -0.4852
   35MOL0     H 4825   3.058   6.917   8.479  0.0630  0.0111 -0.1048
   35MOL0     H 4826   3.217   6.884   8.120  1.4052  0.4654  2.3102
   35MOL0     H 4827   3.015   7.207   8.852  0.5084 -0.3275  0.1263
   35MOL0     H 4828   3.174   7.210   9.004 -0.9062 -2.1669 -5.3772
   35MOL0     H 4829   3.152   7.149   9.167 -2.9739  4.7472 -0.9767
   35MOL0     H 4830   3.195   7.032   9.035 -0.4403 -0.6747 -1.2299
   36MOL0     O 4831   5.961   9.933   7.584  0.7141 -0.4251  0.2349
   36MOL0     C 4832   5.893  10.029   7.615  0.8081  0.4750  0.1099
   36MOL0     O 4833   5.758  10.028   7.648 -0.1219  0.2494  0.7889
   36MOL0     C 4834   5.692   9.905   7.617  0.6202 -0.8676 -0.0360
   36MOL0     C 4835   5.616   9.829   7.701  0.2071  0.6586 -0.1260
   36MOL0     C 4836   5.553   9.708   7.658 -0.1878  0.3242  0.2624
   36MOL0     C 4837   5.566   9.662   7.533 -0.0001 -0.0467  0.8103
   36MOL0     O 4838   5.517   9.551   7.482  0.8051 -0.0055 -0.4843
   36MOL0     C 4839   5.407   9.481   7.551 -0.0614  1.1777  0.5908
   36MOL0     C 4840   5.361   9.359   7.467  0.7335 -0.1632  1.0052
   36MOL0     C 4841   5.274   9.407   7.350 -0.1859  0.2208  1.1358
   36MOL0     C 4842   5.255   9.299   7.242  0.6544  0.6053 -0.4722
   36MOL0     C 4843   5.154   9.336   7.140 -0.4174  0.5154  0.3616
   36MOL0     C 4844   5.114   9.219   7.052  0.6148  0.5007  0.4773
   36MOL0     C 4845   5.040   9.271   6.925  0.2377  0.5594 -0.3350
   36MOL0     C 4846   5.028   9.161   6.811 -0.3199 -0.8606 -0.2936
   36MOL0     N 4847   4.968   9.040   6.855 -0.1089  0.6423 -0.2701
   36MOL0     C 4848   5.035   8.921   6.892 -0.1200 -0.2785 -0.7184
   36MOL0     C 4849   4.958   8.856   6.983  0.3961  0.2519 -0.7529
   36MOL0     C 4850   5.003   8.737   7.060  0.1885  0.4463 -0.6231
   36MOL0     C 4851   4.976   8.609   6.983 -0.2669 -0.2511 -1.2600
   36MOL0     C 4852   4.839   8.558   7.027  0.0362  0.3378  0.4988
   36MOL0     C 4853   4.804   8.422   6.948  0.0880 -0.2501 -0.4247
   36MOL0     O 4854   4.894   8.316   6.994 -0.6486  0.6604  0.4338
   36MOL0     C 4855   4.924   8.297   7.126  0.5484  0.6932 -0.1965
   36MOL0     C 4856   4.812   8.296   7.213  0.0318  0.4137 -0.7102
   36MOL0     C 4857   4.825   8.281   7.353 -0.7123  0.0183 -0.1988
   36MOL0     C 4858   4.703   8.279   7.439 -0.5094 -0.2337 -0.3341
   36MOL0     C 4859   4.956   8.283   7.410 -0.1503 -0.0377 -0.2762
   36MOL0     C 4860   4.991   8.284   7.563  0.1688  0.9959  0.9162
   36MOL0     O 4861   5.123   8.316   7.591 -0.0933  0.2517  0.2179
   36MOL0     C 4862   5.164   8.317   7.721  0.0338  0.9304  0.7738
   36MOL0     C 4863   5.241   8.213   7.745  0.1566  0.9459  0.1841
   36MOL0     C 4864   5.292   8.175   7.865 -1.1109 -0.4870  0.1155
   36MOL0     C 4865   5.239   8.242   7.977 -0.0056  0.0366 -0.3188
   36MOL0     O 4866   5.285   8.194   8.099 -0.2380 -0.3777 -0.3978
   36MOL0     C 4867   5.308   8.287   8.210 -1.1880  0.2790 -0.7264
   36MOL0     C 4868   5.457   8.324   8.200 -0.4085 -0.5201 -0.4756
   36MOL0     C 4869   5.502   8.435   8.295 -0.1719  1.0252  0.3379
   36MOL0     C 4870   5.644   8.484   8.238 -0.3312 -0.2423 -0.2340
   36MOL0     C 4871   5.670   8.629   8.265  0.4268 -0.3741 -0.2949
   36MOL0     C 4872   5.810   8.664   8.220 -0.0890  0.0776  0.3218
   36MOL0     C 4873   5.851   8.805   8.278  0.2309  0.0608  0.2800
   36MOL0     C 4874   5.742   8.914   8.267  0.4927 -0.1649 -0.8535
   36MOL0    Cl 4875   5.698   8.960   8.111 -0.0639 -0.1267  0.3891
   36MOL0     C 4876   5.161   8.355   7.959  0.9569 -0.7773 -0.9731
   36MOL0     C 4877   5.124   8.397   7.829  0.1407 -0.0384 -0.2576
   36MOL0     O 4878   4.903   8.257   7.647  0.1706 -0.6822 -0.1599
   36MOL0     C 4879   5.070   8.292   7.320 -1.3464  1.2418 -0.3941
   36MOL0     C 4880   5.054   8.300   7.181 -0.5070  0.5004 -1.0481
   36MOL0     N 4881   4.839   8.918   6.999  0.9168  0.0427 -0.2393
   36MOL0     N 4882   4.849   9.026   6.924  0.9284 -0.1944  0.0793
   36MOL0     C 4883   5.632   9.739   7.447  0.2387 -0.6412  0.4068
   36MOL0     C 4884   5.692   9.858   7.484 -0.1990 -0.5506 -0.1752
   36MOL0     C 4885   5.969  10.158   7.607 -0.5804  0.4617  1.1313
   36MOL0     C 4886   6.100  10.161   7.555  0.6260 -0.1298 -0.4704
   36MOL0     C 4887   6.171  10.285   7.538 -0.5557  0.4087 -0.8612
   36MOL0     C 4888   6.108  10.398   7.578  0.0805  0.2394 -0.6907
   36MOL0     O 4889   6.189  10.509   7.567  0.3001  0.0375 -0.1592
   36MOL0     C 4890   6.156  10.633   7.633 -0.0642  0.1151  0.9012
   36MOL0     C 4891   6.288  10.713   7.642  0.4936  0.4135  0.1503
   36MOL0     C 4892   6.335  10.758   7.509 -0.6471  0.1834 -0.3601
   36MOL0     C 4893   6.469  10.830   7.525  0.4154 -1.0554 -0.6030
   36MOL0     C 4894   6.515  10.860   7.394 -0.8643  0.5535 -0.6359
   36MOL0     C 4895   6.562  10.914   7.291  0.0467  1.0506 -0.1957
   36MOL0     C 4896   5.991  10.402   7.641  0.0779  0.1428 -0.2310
   36MOL0     C 4897   5.919  10.281   7.658  0.4375 -0.0560  0.1487
   36MOL0     C 4898   5.789  10.297   7.738  0.7452  0.1344  1.1086
   36MOL0     H 4899   5.603   9.866   7.802  1.1679  3.0674 -0.7963
   36MOL0     H 4900   5.492   9.661   7.735  0.0671  4.0619  3.0488
   36MOL0     H 4901   5.329   9.556   7.567  0.5227  1.4808  2.2453
   36MOL0     H 4902   5.443   9.459   7.652  0.9210  0.2211  0.0540
   36MOL0     H 4903   5.442   9.298   7.424  1.3346  0.4776  1.1973
   36MOL0     H 4904   5.302   9.292   7.530 -0.8564  0.1575 -0.1051
   36MOL0     H 4905   5.172   9.435   7.377 -1.6271 -4.2377  1.2056
   36MOL0     H 4906   5.325   9.494   7.309  0.6573  0.4101  2.5177
   36MOL0     H 4907   5.344   9.263   7.188  0.0482  1.1584 -1.8897
   36MOL0     H 4908   5.202   9.219   7.294 -1.3415  1.8524 -0.4777
   36MOL0     H 4909   5.203   9.409   7.076 -0.7930 -1.8583 -2.8514
   36MOL0     H 4910   5.071   9.383   7.193  0.0144  0.3196  1.2434
   36MOL0     H 4911   5.196   9.167   7.001 -0.9540  1.1257 -2.9913
   36MOL0     H 4912   5.062   9.141   7.107  2.2916 -1.1885 -0.2374
   36MOL0     H 4913   5.082   9.364   6.887 -0.7514  2.3579  2.6696
   36MOL0     H 4914   4.937   9.306   6.939  0.5308  0.8149  1.4175
   36MOL0     H 4915   4.962   9.203   6.735 -0.8381 -1.6003 -0.2678
   36MOL0     H 4916   5.128   9.135   6.775 -0.7701 -1.1752 -1.3703
   36MOL0     H 4917   5.137   8.890   6.872 -0.6189 -2.7884  0.2568
   36MOL0     H 4918   4.955   8.740   7.158  2.7161  2.6540  0.6616
   36MOL0     H 4919   5.110   8.751   7.073  0.1517  1.4740 -1.2840
   36MOL0     H 4920   4.985   8.621   6.875 -0.7297  2.1937 -1.0769
   36MOL0     H 4921   5.042   8.536   7.031 -2.1269 -0.3058  1.4921
   36MOL0     H 4922   4.837   8.537   7.135  0.5323  1.1668  0.6752
   36MOL0     H 4923   4.764   8.629   6.992  1.0578  0.0291 -2.6247
   36MOL0     H 4924   4.697   8.398   6.956 -0.8256  2.8088 -1.7895
   36MOL0     H 4925   4.823   8.428   6.841  0.5387 -0.7214 -0.3733
   36MOL0     H 4926   4.712   8.299   7.170 -0.6382  2.6540  0.8429
   36MOL0     H 4927   4.689   8.372   7.494  3.0943 -0.0854  0.5278
   36MOL0     H 4928   4.700   8.183   7.492  1.3879  0.2469  0.7291
   36MOL0     H 4929   4.619   8.268   7.369 -0.6181  2.7051 -0.7840
   36MOL0     H 4930   5.263   8.149   7.660 -2.0438 -1.4859  1.3053
   36MOL0     H 4931   5.360   8.094   7.890 -2.0013 -1.1731  0.3631
   36MOL0     H 4932   5.242   8.374   8.212 -0.9681  0.4709  1.6723
   36MOL0     H 4933   5.299   8.226   8.301  0.1611 -0.9523 -1.3838
   36MOL0     H 4934   5.507   8.228   8.217  0.1299 -0.0625  0.6380
   36MOL0     H 4935   5.462   8.363   8.098  0.1086 -0.4731 -0.4343
   36MOL0     H 4936   5.500   8.394   8.396 -0.1814  1.2455  0.4279
   36MOL0     H 4937   5.432   8.519   8.298 -1.6415 -0.0636 -1.2098
   36MOL0     H 4938   5.644   8.462   8.130  0.6694  0.6135 -0.4262
   36MOL0     H 4939   5.722   8.422   8.283  0.3469 -1.4155 -2.8016
   36MOL0     H 4940   5.596   8.686   8.208 -0.2952 -0.8219  0.1688
   36MOL0     H 4941   5.655   8.658   8.369 -0.6851 -0.4185 -0.4207
   36MOL0     H 4942   5.819   8.669   8.111  0.7564  0.8924  0.4256
   36MOL0     H 4943   5.883   8.590   8.252  0.2371 -0.8206 -2.2427
   36MOL0     H 4944   5.941   8.849   8.236  1.1193 -1.0063  1.0209
   36MOL0     H 4945   5.886   8.781   8.379  3.6742 -0.6763 -0.9855
   36MOL0     H 4946   5.773   9.002   8.324  0.4529 -1.0946  0.6436
   36MOL0     H 4947   5.653   8.887   8.323  2.5030 -1.1559  2.0970
   36MOL0     H 4948   5.121   8.414   8.041  1.3051 -0.8419 -0.7537
   36MOL0     H 4949   5.084   8.497   7.817  0.6029  0.2536  0.5263
   36MOL0     H 4950   5.171   8.311   7.353 -0.3512 -0.0101 -2.5023
   36MOL0     H 4951   5.135   8.320   7.111 -0.8059  0.2690 -1.4664
   36MOL0     H 4952   5.644   9.705   7.345 -0.0154  1.4453 -0.3672
   36MOL0     H 4953   5.727   9.918   7.401  3.1937 -2.2403 -0.1463
   36MOL0     H 4954   6.149  10.073   7.516  0.9489 -0.4068  0.5316
   36MOL0     H 4955   6.273  10.292   7.501 -0.2017  2.8791  0.3613
   36MOL0     H 4956   6.082  10.692   7.579  0.4835  0.3294  0.3738
   36MOL0     H 4957   6.119  10.619   7.735 -0.6477  1.3033  0.8652
   36MOL0     H 4958   6.367  10.661   7.696  0.0702 -0.9027 -0.4672
   36MOL0     H 4959   6.276  10.805   7.700  3.1657  2.7551 -2.6277
   36MOL0     H 4960   6.344  10.669   7.445  0.6248 -1.5577  2.0690
   36MOL0     H 4961   6.264  10.822   7.456  0.0671  1.5735  0.3195
   36MOL0     H 4962   6.534  10.777   7.595 -0.0611  0.7593  1.3162
   36MOL0     H 4963   6.464  10.928   7.574  2.9455 -1.0510 -0.1917
   36MOL0     H 4964   6.596  10.948   7.195  0.4196 -0.1549 -0.5064
   36MOL0     H 4965   5.944  10.491   7.682  0.6067 -1.1672  3.5917
   36MOL0     H 4966   5.706  10.260   7.677  3.4640 -0.6715 -2.4264
   36MOL0     H 4967   5.783  10.241   7.832 -4.2110  1.7301  2.0193
   36MOL0     H 4968   5.763  10.400   7.764 -2.0981 -0.8270  2.4713
   37MOL0     O 4969   9.582  11.129   9.629  0.3959 -0.3987  0.1739
   37MOL0     C 4970   9.619  11.021   9.600 -0.5374 -0.2556  1.0665
   37MOL0     O 4971   9.536  10.917   9.582 -0.3358 -0.5022 -0.2687
   37MOL0     C 4972   9.397  10.936   9.573  0.5743 -0.0844 -0.3798
   37MOL0     C 4973   9.326  11.051   9.534 -0.4418  0.4480  0.0926
   37MOL0     C 4974   9.189  11.045   9.515 -0.3495 -0.1327  0.0966
   37MOL0     C 4975   9.119  10.917   9.512 -0.3034 -0.1846  0.0994
   37MOL0     O 4976   8.986  10.908   9.486 -0.0815  0.3418  0.3142
   37MOL0     C 4977   8.916  11.025   9.422 -0.0630 -0.2050 -0.4739
   37MOL0     C 4978   8.773  11.003   9.399  0.3718 -0.7264 -0.7478
   37MOL0     C 4979   8.736  10.950   9.261  0.5076  0.0287  0.4093
   37MOL0     C 4980   8.595  10.901   9.239  0.8299 -0.2411  0.2640
   37MOL0     C 4981   8.565  10.901   9.090  0.7327  0.0962  0.3643
   37MOL0     C 4982   8.421  10.849   9.078  0.1360  0.3508 -0.0535
   37MOL0     C 4983   8.354  10.884   8.943  0.0656  0.4272  0.5954
   37MOL0     C 4984   8.199  10.886   8.938  0.2983 -0.6273 -0.2424
   37MOL0     N 4985   8.159  11.005   9.028 -0.3298 -1.0483  0.2383
   37MOL0     C 4986   8.155  11.141   9.002 -0.4977  0.9132 -0.1448
   37MOL0     C 4987   8.119  11.196   9.119  0.3448  0.6383 -0.8670
   37MOL0     C 4988   8.101  11.341   9.148 -0.2669 -0.2154 -0.0694
   37MOL0     C 4989   8.216  11.426   9.097  0.8106  0.2440 -0.1653
   37MOL0     C 4990   8.205  11.574   9.071 -0.3372  0.6140 -0.4013
   37MOL0     C 4991   8.063  11.625   9.021  0.1976  0.1952 -0.4759
   37MOL0     O 4992   8.085  11.743   8.947  0.1949 -0.3536 -0.8147
   37MOL0     C 4993   8.110  11.746   8.813  0.3416 -0.6358  0.4802
   37MOL0     C 4994   8.019  11.697   8.717 -0.4687 -0.4551 -0.5737
   37MOL0     C 4995   8.035  11.724   8.579  0.0004  1.0399  0.5302
   37MOL0     C 4996   7.929  11.666   8.494  0.3458  0.1793  0.3478
   37MOL0     C 4997   8.142  11.796   8.525  0.2721 -0.4337 -1.8047
   37MOL0     C 4998   8.171  11.836   8.388 -0.3641  1.1827  0.4976
   37MOL0     O 4999   8.302  11.858   8.359 -0.2185  0.7334  0.3207
   37MOL0     C 5000   8.348  11.880   8.233  0.2249  0.6932  0.5671
   37MOL0     C 5001   8.336  11.784   8.136 -0.0860  0.4374  1.4734
   37MOL0     C 5002   8.371  11.814   8.001 -0.6614  0.5067  0.3610
   37MOL0     C 5003   8.429  11.938   7.970  0.1803  0.1250  0.0010
   37MOL0     O 5004   8.462  11.970   7.834 -0.8833  0.2254 -0.3935
   37MOL0     C 5005   8.568  12.065   7.809 -1.5112  0.5339 -0.2575
   37MOL0     C 5006   8.559  12.109   7.673 -0.1063  0.1553 -0.3463
   37MOL0     C 5007   8.436  12.209   7.659  0.4101  0.0510  0.3864
   37MOL0     C 5008   8.404  12.246   7.511 -0.1277 -0.0932  0.7947
   37MOL0     C 5009   8.360  12.125   7.428 -0.0376  0.1485  0.4081
   37MOL0     C 5010   8.406  12.107   7.288 -0.2747  0.2443 -0.4038
   37MOL0     C 5011   8.548  12.070   7.278 -0.5796 -0.2509 -0.4923
   37MOL0     C 5012   8.595  12.065   7.133  0.6854 -0.0350  0.1705
   37MOL0    Cl 5013   8.580  12.226   7.059  0.7839  0.1562 -0.2289
   37MOL0     C 5014   8.441  12.033   8.075  0.0157  0.4057  1.0549
   37MOL0     C 5015   8.403  12.002   8.207 -0.3930 -0.9582 -0.1209
   37MOL0     O 5016   8.079  11.850   8.317  0.2226  0.3875 -0.4137
   37MOL0     C 5017   8.229  11.843   8.629 -0.7431 -0.7648 -0.5522
   37MOL0     C 5018   8.211  11.828   8.764 -0.3033 -0.1521 -0.1820
   37MOL0     N 5019   8.100  11.099   9.204 -0.4427  0.6376  0.7125
   37MOL0     N 5020   8.132  10.981   9.155 -0.0036 -0.7204 -0.7552
   37MOL0     C 5021   9.190  10.798   9.539 -1.6155 -0.7232 -0.0831
   37MOL0     C 5022   9.331  10.808   9.568 -0.2872  0.0198  0.5177
   37MOL0     C 5023   9.764  10.991   9.575  0.4455 -0.6392 -0.1931
   37MOL0     C 5024   9.804  10.960   9.440 -0.5080  0.3643 -0.5555
   37MOL0     C 5025   9.929  10.909   9.416 -0.2365 -1.3685  0.0817
   37MOL0     C 5026  10.012  10.878   9.524 -0.3307  0.6677 -1.4502
   37MOL0     O 5027  10.131  10.821   9.487  0.2180  0.3297  0.7426
   37MOL0     C 5028  10.212  10.756   9.588  0.3366  0.3981 -0.6236
   37MOL0     C 5029  10.306  10.868   9.640 -0.0034 -0.4363 -0.0849
   37MOL0     C 5030  10.398  10.925   9.539  0.5467 -0.1704  0.1858
   37MOL0     C 5031  10.510  11.017   9.599  0.2876  0.9302 -0.3730
   37MOL0     C 5032  10.459  11.153   9.625  0.4717 -0.2927  0.4713
   37MOL0     C 5033  10.423  11.262   9.652 -1.1872 -0.0978  0.7689
   37MOL0     C 5034   9.978  10.916   9.663 -0.6884 -0.3031 -0.1635
   37MOL0     C 5035   9.856  10.978   9.689  1.5745  0.5649  0.3983
   37MOL0     C 5036   9.812  10.997   9.830  0.2089  0.7359  0.5599
   37MOL0     H 5037   9.384  11.142   9.517  0.0399 -0.2226 -2.3197
   37MOL0     H 5038   9.136  11.138   9.496 -0.6854 -0.5533 -1.1531
   37MOL0     H 5039   8.964  11.043   9.325  1.1959  0.8937  0.3274
   37MOL0     H 5040   8.935  11.107   9.491 -2.4403  1.4490 -1.6412
   37MOL0     H 5041   8.741  10.930   9.475 -1.1674  0.5413 -0.1025
   37MOL0     H 5042   8.715  11.093   9.419 -0.9063 -1.2988 -1.7129
   37MOL0     H 5043   8.765  11.035   9.198 -1.8430  1.1542  0.7601
   37MOL0     H 5044   8.799  10.865   9.233  0.7662 -0.2208  1.6691
   37MOL0     H 5045   8.578  10.797   9.269  1.5156  0.0174  1.6117
   37MOL0     H 5046   8.520  10.955   9.297 -0.4170  0.2634 -1.7052
   37MOL0     H 5047   8.643  10.845   9.036 -0.5425  0.0983 -1.5746
   37MOL0     H 5048   8.573  11.003   9.051 -0.4705  0.1538  0.2425
   37MOL0     H 5049   8.420  10.741   9.097  2.2845  0.1525 -0.7644
   37MOL0     H 5050   8.353  10.876   9.158 -2.1270 -0.7198 -1.5062
   37MOL0     H 5051   8.378  10.809   8.867  0.3772 -0.8917  1.9477
   37MOL0     H 5052   8.385  10.985   8.916 -0.1305  0.7159  1.4411
   37MOL0     H 5053   8.141  10.883   8.845  0.2238 -0.6754 -0.1955
   37MOL0     H 5054   8.151  10.800   8.987  0.3484  0.1217  1.1834
   37MOL0     H 5055   8.159  11.195   8.908  0.0978  3.7011  1.3727
   37MOL0     H 5056   8.091  11.351   9.256  1.7892  3.0390 -0.0681
   37MOL0     H 5057   8.010  11.384   9.104  0.3202  3.7095  2.1014
   37MOL0     H 5058   8.300  11.409   9.165  1.9846 -1.1686 -1.8543
   37MOL0     H 5059   8.246  11.383   9.000 -1.9266  0.9576 -1.4242
   37MOL0     H 5060   8.221  11.620   9.169  0.1541 -1.5385  0.6006
   37MOL0     H 5061   8.281  11.625   9.011  0.6551  1.1176  1.2053
   37MOL0     H 5062   8.015  11.553   8.955  0.2921 -1.3917  1.1066
   37MOL0     H 5063   7.994  11.639   9.105  0.6475  0.0849 -0.0773
   37MOL0     H 5064   7.929  11.643   8.741 -1.0534 -0.9440 -3.4597
   37MOL0     H 5065   7.889  11.733   8.418  2.0758  2.5529  1.4030
   37MOL0     H 5066   7.844  11.625   8.550  0.3045  1.2573  1.1082
   37MOL0     H 5067   7.978  11.593   8.429 -0.5549  3.6090 -4.7824
   37MOL0     H 5068   8.280  11.696   8.167 -2.4190  1.2562 -0.1361
   37MOL0     H 5069   8.354  11.736   7.928 -0.6547  0.3550  0.5219
   37MOL0     H 5070   8.554  12.151   7.876 -1.8889 -0.8696  1.5355
   37MOL0     H 5071   8.662  12.014   7.827 -0.7904  2.3689  1.6611
   37MOL0     H 5072   8.654  12.163   7.665  0.1501 -0.0992  0.8377
   37MOL0     H 5073   8.541  12.024   7.607  0.4031 -1.0391  1.0111
   37MOL0     H 5074   8.448  12.305   7.710 -1.7386  0.3826  0.3808
   37MOL0     H 5075   8.342  12.170   7.701  1.1790 -2.5997 -0.1460
   37MOL0     H 5076   8.485  12.301   7.461  0.0506  1.7294  2.9530
   37MOL0     H 5077   8.323  12.318   7.524 -0.2192 -0.2010  0.8238
   37MOL0     H 5078   8.391  12.033   7.479 -1.4640 -0.5258  0.1077
   37MOL0     H 5079   8.251  12.125   7.424 -0.0614  2.5599 -2.4930
   37MOL0     H 5080   8.375  12.199   7.236 -4.5536 -1.9135 -2.1505
   37MOL0     H 5081   8.350  12.019   7.255  0.3960  0.5306 -2.4643
   37MOL0     H 5082   8.568  11.967   7.309  2.1022 -0.0729 -1.3539
   37MOL0     H 5083   8.605  12.129   7.350 -0.7422 -3.4004  2.4672
   37MOL0     H 5084   8.531  11.991   7.085 -1.8911  1.6991  0.7500
   37MOL0     H 5085   8.699  12.031   7.132  0.6171 -0.2813 -1.3819
   37MOL0     H 5086   8.482  12.130   8.049  0.9363 -1.2320 -5.3051
   37MOL0     H 5087   8.412  12.080   8.282 -0.7359 -0.0182 -1.0230
   37MOL0     H 5088   8.311  11.912   8.615 -1.1356 -0.2227 -0.2417
   37MOL0     H 5089   8.293  11.854   8.831  1.8595 -0.2266 -2.6255
   37MOL0     H 5090   9.143  10.701   9.534 -0.3473 -1.2882 -1.9140
   37MOL0     H 5091   9.399  10.724   9.576  0.9026  0.6700 -1.8574
   37MOL0     H 5092   9.743  10.997   9.358 -1.3532  1.6598  0.6116
   37MOL0     H 5093   9.966  10.894   9.315 -0.3545  0.3209 -0.2400
   37MOL0     H 5094  10.156  10.716   9.673  1.4986 -0.0493 -0.0578
   37MOL0     H 5095  10.265  10.672   9.542  4.3878  2.1935  0.3255
   37MOL0     H 5096  10.366  10.828   9.722 -0.4663 -1.0785 -0.0504
   37MOL0     H 5097  10.238  10.947   9.675 -1.6390 -0.1995 -3.3946
   37MOL0     H 5098  10.439  10.841   9.482 -0.5852 -1.8041  1.6868
   37MOL0     H 5099  10.332  10.984   9.474  1.9355 -0.7512 -1.8693
   37MOL0     H 5100  10.595  11.019   9.529 -0.1985  1.2004 -0.9723
   37MOL0     H 5101  10.555  10.971   9.687  0.3539 -1.3123 -1.5008
   37MOL0     H 5102  10.399  11.360   9.690  2.8787  0.9645  1.0340
   37MOL0     H 5103  10.041  10.886   9.747  1.1381  0.5997 -1.1354
   37MOL0     H 5104   9.725  11.064   9.832 -0.4856 -0.1407  1.8517
   37MOL0     H 5105   9.788  10.904   9.884  0.8171 -0.2832 -0.8784
   37MOL0     H 5106   9.900  11.031   9.885  1.3526 -1.6285  0.3245
   38MOL0     O 5107   5.877   6.285  10.892  0.5001 -0.6515 -0.3723
   38MOL0     C 5108   5.880   6.165  10.866 -0.8144  0.1344 -0.5017
   38MOL0     O 5109   5.799   6.116  10.767  0.8738 -0.3070 -0.3763
   38MOL0     C 5110   5.732   6.203  10.682 -0.1316 -0.7929  0.4158
   38MOL0     C 5111   5.803   6.268  10.581 -0.0327 -0.6363  1.5129
   38MOL0     C 5112   5.735   6.355  10.496  0.2552 -0.0702 -0.0839
   38MOL0     C 5113   5.595   6.368  10.491  0.2007 -0.1324  0.2719
   38MOL0     O 5114   5.525   6.433  10.398 -0.1013  0.4248 -0.2664
   38MOL0     C 5115   5.574   6.563  10.376 -0.5274 -1.2575 -0.1194
   38MOL0     C 5116   5.479   6.662  10.297 -0.0388  0.3961 -0.8166
   38MOL0     C 5117   5.530   6.810  10.291  0.3272  0.0944 -0.0441
   38MOL0     C 5118   5.563   6.878  10.423 -0.2716 -0.0845  0.5787
   38MOL0     C 5119   5.618   7.015  10.416 -1.7789 -0.0658  0.1255
   38MOL0     C 5120   5.511   7.115  10.366 -0.5763  0.5292 -0.1441
   38MOL0     C 5121   5.572   7.242  10.312  0.1609 -0.1863  0.5466
   38MOL0     C 5122   5.642   7.345  10.402  0.4882 -0.7291 -0.4891
   38MOL0     N 5123   5.780   7.333  10.449 -0.3348 -0.3146 -0.6333
   38MOL0     C 5124   5.853   7.432  10.515 -0.0636  0.2827 -0.5337
   38MOL0     C 5125   5.973   7.380  10.545 -1.0111 -0.4237 -0.0654
   38MOL0     C 5126   6.087   7.446  10.621  0.0788 -0.5099 -0.3238
   38MOL0     C 5127   6.180   7.513  10.522  0.2528 -0.3252  0.8609
   38MOL0     C 5128   6.282   7.613  10.579 -0.2008 -0.4289 -0.2984
   38MOL0     C 5129   6.383   7.552  10.673  0.4516  0.0364  0.0942
   38MOL0     O 5130   6.360   7.608  10.805 -0.3328 -0.1659 -0.4332
   38MOL0     C 5131   6.467   7.605  10.891 -0.1384  0.1168 -0.0778
   38MOL0     C 5132   6.513   7.484  10.945  0.3367  0.2106  0.1541
   38MOL0     C 5133   6.612   7.474  11.036 -0.6044 -1.3749 -0.3363
   38MOL0     C 5134   6.652   7.331  11.076  1.0054  0.4807 -0.5392
   38MOL0     C 5135   6.658   7.595  11.099  0.2492  0.7297  0.7698
   38MOL0     C 5136   6.765   7.587  11.196  0.2292 -0.5163 -1.3963
   38MOL0     O 5137   6.785   7.472  11.271 -0.0605  0.1458 -1.3928
   38MOL0     C 5138   6.913   7.412  11.268  0.6376  0.1698 -0.7628
   38MOL0     C 5139   6.992   7.393  11.158 -0.2905 -0.3498 -0.8302
   38MOL0     C 5140   7.108   7.312  11.158  0.2277 -0.3013 -0.6745
   38MOL0     C 5141   7.144   7.239  11.269  0.6917 -0.1087 -0.4078
   38MOL0     O 5142   7.265   7.171  11.275  0.6157  0.8360  0.5305
   38MOL0     C 5143   7.373   7.201  11.177 -0.0377  0.7297  0.3512
   38MOL0     C 5144   7.508   7.151  11.241 -1.0850  0.2213 -0.5471
   38MOL0     C 5145   7.632   7.167  11.158 -0.2799  0.0454 -0.0791
   38MOL0     C 5146   7.768   7.161  11.241 -0.2462 -0.0191  0.4190
   38MOL0     C 5147   7.871   7.063  11.191  1.3408  1.0316  1.1632
   38MOL0     C 5148   7.980   7.031  11.296 -0.8415  0.5250  0.3288
   38MOL0     C 5149   7.960   6.900  11.383 -0.8251 -0.8959 -0.8145
   38MOL0     C 5150   8.071   6.885  11.483 -0.2024  0.8426 -0.6765
   38MOL0    Cl 5151   8.064   7.011  11.625  0.0743 -0.6084 -0.0961
   38MOL0     C 5152   7.071   7.260  11.389  0.0169  0.1673 -0.9019
   38MOL0     C 5153   6.958   7.345  11.389  0.2374  0.5252 -1.2400
   38MOL0     O 5154   6.845   7.684  11.204 -0.3271 -0.2124  0.2805
   38MOL0     C 5155   6.611   7.723  11.051 -0.3443  1.2742 -0.4087
   38MOL0     C 5156   6.518   7.727  10.942  0.4575  0.4329  0.3214
   38MOL0     N 5157   5.977   7.250  10.492  0.9316 -0.2538 -0.7758
   38MOL0     N 5158   5.859   7.228  10.439 -0.7537 -0.6831 -0.1554
   38MOL0     C 5159   5.526   6.294  10.582  1.1446 -0.2798 -0.3917
   38MOL0     C 5160   5.591   6.216  10.682 -0.7199 -1.1374 -0.0049
   38MOL0     C 5161   5.964   6.084  10.949  0.0584  0.1917  0.0158
   38MOL0     C 5162   6.004   6.139  11.076  0.7049  0.4519  0.4335
   38MOL0     C 5163   6.080   6.064  11.163 -1.1306 -0.2646  0.1916
   38MOL0     C 5164   6.110   5.928  11.140 -0.2392  0.7700  0.9443
   38MOL0     O 5165   6.163   5.860  11.243  1.0666  0.1469  0.2910
   38MOL0     C 5166   6.258   5.761  11.204 -0.8737 -0.4333 -0.8433
   38MOL0     C 5167   6.351   5.737  11.324 -1.0633 -0.4195 -0.7496
   38MOL0     C 5168   6.482   5.660  11.282 -0.4527 -1.2887 -0.5332
   38MOL0     C 5169   6.515   5.554  11.378  0.2485  0.4298 -0.3133
   38MOL0     C 5170   6.580   5.436  11.317  0.5098 -0.3891  0.3352
   38MOL0     C 5171   6.618   5.340  11.258  0.0387  0.4002 -0.8817
   38MOL0     C 5172   6.087   5.881  11.009  0.7449  0.0054  0.0885
   38MOL0     C 5173   6.017   5.953  10.907  0.1051 -0.9069  0.6738
   38MOL0     C 5174   5.991   5.894  10.773  0.3747  0.4442  0.3747
   38MOL0     H 5175   5.910   6.265  10.569 -0.2202 -1.3277 -0.3027
   38MOL0     H 5176   5.801   6.398  10.420  1.4080 -1.6739 -0.0505
   38MOL0     H 5177   5.665   6.558  10.315 -0.1602  2.2247 -0.0153
   38MOL0     H 5178   5.596   6.620  10.466  0.8903  2.6683 -2.6911
   38MOL0     H 5179   5.467   6.628  10.194  1.9297  2.1999 -1.6980
   38MOL0     H 5180   5.390   6.648  10.360 -1.0363 -3.1403 -2.7286
   38MOL0     H 5181   5.624   6.815  10.234  1.2104 -0.1975  1.3438
   38MOL0     H 5182   5.456   6.875  10.244  0.4392  0.8314  0.7853
   38MOL0     H 5183   5.477   6.869  10.489 -1.0595 -0.8292 -0.5059
   38MOL0     H 5184   5.634   6.807  10.467 -3.4353 -3.4987  0.7324
   38MOL0     H 5185   5.713   7.005  10.363 -1.6396 -0.9089  0.5201
   38MOL0     H 5186   5.642   7.047  10.518  0.4923 -1.0949 -0.0220
   38MOL0     H 5187   5.445   7.073  10.289  0.6787 -1.6391 -0.1110
   38MOL0     H 5188   5.446   7.144  10.449 -0.5984 -1.8519  0.7393
   38MOL0     H 5189   5.490   7.307  10.281  0.4925 -0.0164  0.0085
   38MOL0     H 5190   5.637   7.210  10.230  2.1515  1.5323  1.3627
   38MOL0     H 5191   5.631   7.445  10.359 -2.6016 -0.2912  1.0174
   38MOL0     H 5192   5.582   7.356  10.493  1.1802 -0.0324 -0.1008
   38MOL0     H 5193   5.814   7.532  10.530 -3.3267 -0.7970 -0.8558
   38MOL0     H 5194   6.146   7.366  10.667  0.0331  0.3073  1.2218
   38MOL0     H 5195   6.050   7.519  10.693 -0.6769  1.4713 -2.5831
   38MOL0     H 5196   6.230   7.446  10.452 -1.2445  0.8166 -1.4281
   38MOL0     H 5197   6.119   7.581  10.462 -0.9783 -1.9599  0.1742
   38MOL0     H 5198   6.342   7.642  10.493  0.6422 -3.7933 -1.0003
   38MOL0     H 5199   6.233   7.701  10.622  0.3955 -0.1111 -0.2725
   38MOL0     H 5200   6.371   7.443  10.668  0.4019 -0.0498  1.5675
   38MOL0     H 5201   6.485   7.572  10.638  1.0228 -0.7165  1.2678
   38MOL0     H 5202   6.480   7.388  10.907 -0.6163  0.9312 -0.9293
   38MOL0     H 5203   6.759   7.325  11.052  0.8974  2.3942 -1.5880
   38MOL0     H 5204   6.594   7.253  11.026  0.3981  1.6598 -1.7208
   38MOL0     H 5205   6.636   7.311  11.183 -0.7270 -2.2346 -1.1896
   38MOL0     H 5206   6.965   7.448  11.069  0.8279  1.3377 -0.1772
   38MOL0     H 5207   7.164   7.303  11.066 -0.1691 -0.4472 -0.9040
   38MOL0     H 5208   7.351   7.139  11.089 -1.2965  0.9214  0.5093
   38MOL0     H 5209   7.379   7.308  11.154 -1.9065  0.6905 -0.5062
   38MOL0     H 5210   7.534   7.211  11.329  0.0421 -1.2945  0.1840
   38MOL0     H 5211   7.500   7.045  11.265 -0.8283  0.4905  0.7931
   38MOL0     H 5212   7.632   7.271  11.123 -1.4881  0.2413  0.4518
   38MOL0     H 5213   7.649   7.106  11.070  2.5992  1.0844 -0.3715
   38MOL0     H 5214   7.745   7.126  11.342 -0.6667 -3.6970 -0.8030
   38MOL0     H 5215   7.799   7.266  11.246 -0.4405  0.0336  0.5178
   38MOL0     H 5216   7.833   6.969  11.150  4.8945  0.3637 -1.0479
   38MOL0     H 5217   7.919   7.105  11.102 -0.8679 -0.9597 -1.1017
   38MOL0     H 5218   7.976   7.118  11.362 -2.3670  0.6991  0.0421
   38MOL0     H 5219   8.079   7.030  11.249 -1.8585  0.3081 -1.9437
   38MOL0     H 5220   7.964   6.814  11.315 -2.3968  0.8838 -3.3600
   38MOL0     H 5221   7.871   6.894  11.446  0.1216  2.2986  1.0841
   38MOL0     H 5222   8.162   6.885  11.423  0.2381 -1.6962 -0.1330
   38MOL0     H 5223   8.059   6.790  11.536  0.5113  1.6021  0.8991
   38MOL0     H 5224   7.107   7.208  11.478  1.8150  1.8475 -0.5880
   38MOL0     H 5225   6.888   7.357  11.471 -0.0503  1.8465 -1.6508
   38MOL0     H 5226   6.649   7.816  11.093 -1.0147  1.4562 -0.1993
   38MOL0     H 5227   6.483   7.821  10.901 -0.6329  0.5578  1.4670
   38MOL0     H 5228   5.419   6.284  10.565  1.3878 -0.5864 -1.8839
   38MOL0     H 5229   5.521   6.161  10.745 -1.2485 -1.6713 -1.0266
   38MOL0     H 5230   5.978   6.241  11.100 -1.6743  0.3174 -1.1899
   38MOL0     H 5231   6.120   6.105  11.255  3.3321  0.6641 -1.9061
   38MOL0     H 5232   6.218   5.664  11.172 -1.1450  0.1627 -2.4089
   38MOL0     H 5233   6.317   5.791  11.117  1.8431 -1.6113  0.4623
   38MOL0     H 5234   6.293   5.695  11.407 -1.6105  0.9326 -0.4164
   38MOL0     H 5235   6.381   5.836  11.360  2.0198 -0.8646 -1.8304
   38MOL0     H 5236   6.467   5.608  11.187 -1.3181 -0.0278 -1.0988
   38MOL0     H 5237   6.563   5.732  11.268 -0.8131 -1.2604 -3.0016
   38MOL0     H 5238   6.426   5.517  11.431  0.2610  1.1226  0.2104
   38MOL0     H 5239   6.574   5.608  11.452 -0.3269  1.7193 -0.7586
   38MOL0     H 5240   6.644   5.257  11.196 -0.3936  0.4858 -1.1867
   38MOL0     H 5241   6.119   5.782  10.979  0.4573 -0.0841  0.0737
   38MOL0     H 5242   5.979   5.974  10.700 -2.8203  1.6109  1.9997
   38MOL0     H 5243   6.082   5.837  10.751 -0.6812 -0.4753 -1.8643
   38MOL0     H 5244   5.902   5.830  10.780  1.9516 -1.7739  1.6093
   39MOL0     O 5245   7.857  10.242   0.983  0.0200 -0.1093 -0.1843
   39MOL0     C 5246   7.742  10.259   0.930 -0.0885  0.0763  0.1700
   39MOL0     O 5247   7.717  10.251   0.800  0.5958 -1.1826 -0.6419
   39MOL0     C 5248   7.797  10.170   0.726  0.3156 -0.4525 -0.5235
   39MOL0     C 5249   7.890  10.073   0.762 -0.3597  0.0992 -0.1870
   39MOL0     C 5250   7.962  10.007   0.655  0.0451 -0.6293 -0.5096
   39MOL0     C 5251   7.937  10.037   0.516 -0.3080  0.8499 -1.2701
   39MOL0     O 5252   8.012   9.974   0.424  0.0811 -0.1850  0.3512
   39MOL0     C 5253   7.951   9.954   0.293 -0.2615  0.6498  0.5931
   39MOL0     C 5254   8.017   9.841   0.212  0.5766  0.1594 -0.1967
   39MOL0     C 5255   8.009   9.702   0.275  0.7988  0.2940  0.2509
   39MOL0     C 5256   8.062   9.590   0.178  0.1182  0.3187 -0.5935
   39MOL0     C 5257   8.060   9.453   0.261 -0.1070  0.1240 -0.1592
   39MOL0     C 5258   8.150   9.359   0.192  0.0603 -0.5221 -0.4433
   39MOL0     C 5259   8.156   9.225   0.261 -0.3077  0.2567  0.7405
   39MOL0     C 5260   8.024   9.135   0.263 -0.2754 -0.9430 -0.1507
   39MOL0     N 5261   8.052   9.015   0.339  0.1393  0.2811  0.3958
   39MOL0     C 5262   8.079   8.892   0.281 -0.4357  1.2167  0.6630
   39MOL0     C 5263   8.096   8.800   0.379  0.9065 -0.7572 -0.7461
   39MOL0     C 5264   8.129   8.659   0.365 -0.8182 -0.4982  0.3467
   39MOL0     C 5265   8.268   8.618   0.315  0.0317 -0.6862  0.6540
   39MOL0     C 5266   8.381   8.678   0.399 -0.5074  0.0319 -0.8034
   39MOL0     C 5267   8.520   8.634   0.354 -0.0308 -0.0927 -0.5776
   39MOL0     O 5268   8.538   8.646   0.217 -0.2083  0.7038 -0.4678
   39MOL0     C 5269   8.608   8.751   0.163  0.0001 -0.4153  0.1202
   39MOL0     C 5270   8.567   8.888   0.191 -0.3493  0.0139 -1.1917
   39MOL0     C 5271   8.623   9.001   0.136 -0.5084  0.5405  0.6573
   39MOL0     C 5272   8.556   9.130   0.153 -0.7920 -0.0615 -0.0896
   39MOL0     C 5273   8.745   8.980   0.054  0.4472 -0.5805 -0.4920
   39MOL0     C 5274   8.829   9.087  -0.004 -0.1340 -0.0473  0.5688
   39MOL0     O 5275   8.898   9.048  -0.118  0.0393 -1.0269  0.1065
   39MOL0     C 5276   8.995   9.117  -0.180  1.0705 -0.4004 -0.0898
   39MOL0     C 5277   9.101   9.048  -0.218 -0.0092  0.1711  1.0265
   39MOL0     C 5278   9.213   9.105  -0.279  0.5728  0.2147 -0.3174
   39MOL0     C 5279   9.214   9.240  -0.315  0.3799  0.3382 -0.6892
   39MOL0     O 5280   9.317   9.275  -0.405 -0.5992  0.4902 -0.4417
   39MOL0     C 5281   9.291   9.381  -0.500 -0.4512 -0.3699  0.2927
   39MOL0     C 5282   9.346   9.337  -0.632 -0.4891  0.8089 -0.2107
   39MOL0     C 5283   9.248   9.231  -0.695 -0.2592 -0.1167 -0.5110
   39MOL0     C 5284   9.273   9.206  -0.849 -0.3301 -0.7111 -1.5329
   39MOL0     C 5285   9.203   9.088  -0.913  0.2254 -0.6170 -0.7243
   39MOL0     C 5286   9.056   9.089  -0.889 -0.6265  0.0543 -0.5465
   39MOL0     C 5287   8.994   8.975  -0.961 -0.0112  0.3716  0.5808
   39MOL0     C 5288   8.954   8.972  -1.118  0.3779 -0.1133 -0.4902
   39MOL0    Cl 5289   9.093   8.938  -1.232 -0.0670  0.0928 -0.3746
   39MOL0     C 5290   9.102   9.318  -0.276  0.1572  0.5640 -0.8547
   39MOL0     C 5291   8.993   9.251  -0.199  0.3286 -0.7340 -0.5702
   39MOL0     O 5292   8.838   9.199   0.041 -0.2324 -0.5647  0.1582
   39MOL0     C 5293   8.789   8.844   0.034  0.3992  0.0184  0.2369
   39MOL0     C 5294   8.717   8.731   0.085  0.1657  0.3182 -0.5327
   39MOL0     N 5295   8.068   8.872   0.496  0.6490  0.4876  0.5771
   39MOL0     N 5296   8.060   8.998   0.474 -0.2437  0.3605  0.2501
   39MOL0     C 5297   7.836  10.115   0.492 -0.2302  0.2143 -0.2511
   39MOL0     C 5298   7.773  10.187   0.586  0.8036 -0.1841 -0.1719
   39MOL0     C 5299   7.621  10.270   1.023 -0.0843  0.0355 -0.8072
   39MOL0     C 5300   7.631  10.226   1.154 -0.2784  1.0394  0.3569
   39MOL0     C 5301   7.516  10.241   1.234  0.0307  0.0012 -0.4100
   39MOL0     C 5302   7.400  10.307   1.201  0.4267  0.1357  0.2898
   39MOL0     O 5303   7.314  10.310   1.306 -1.0681 -0.1305 -0.2612
   39MOL0     C 5304   7.178  10.347   1.290  0.5474 -0.2855 -1.4414
   39MOL0     C 5305   7.156  10.485   1.344 -0.1844  0.1280 -0.2382
   39MOL0     C 5306   7.200  10.604   1.260 -0.2892  0.2426  0.3936
   39MOL0     C 5307   7.144  10.728   1.326 -0.9929 -0.1451  0.4360
   39MOL0     C 5308   7.236  10.840   1.289  1.3869  0.2527  0.3394
   39MOL0     C 5309   7.309  10.920   1.239 -0.4852  0.4884 -0.2009
   39MOL0     C 5310   7.398  10.371   1.074  0.3573  0.9233  0.5386
   39MOL0     C 5311   7.509  10.347   0.988 -0.5681  0.1567 -0.2817
   39MOL0     C 5312   7.500  10.434   0.863 -0.2881 -0.1964 -0.0711
   39MOL0     H 5313   7.924  10.045   0.861 -1.6899  0.5029  0.4075
   39MOL0     H 5314   8.040   9.939   0.690 -1.8679 -1.3816  2.7009
   39MOL0     H 5315   7.945  10.040   0.226 -0.1406 -0.8011 -1.3953
   39MOL0     H 5316   7.850   9.921   0.319 -0.2963 -0.8675 -1.2332
   39MOL0     H 5317   7.978   9.854   0.110 -0.3368  1.7219  0.3056
   39MOL0     H 5318   8.121   9.873   0.227  1.2224 -1.9823  0.1838
   39MOL0     H 5319   8.053   9.698   0.375  1.6694  0.5535 -0.1152
   39MOL0     H 5320   7.903   9.682   0.294  0.5091  0.2608 -1.2742
   39MOL0     H 5321   8.024   9.584   0.076  2.6682  3.9487 -2.0029
   39MOL0     H 5322   8.166   9.623   0.168  0.2365 -0.0528 -0.5932
   39MOL0     H 5323   7.956   9.421   0.275  0.6793 -1.6230  2.4914
   39MOL0     H 5324   8.102   9.491   0.355  1.9252  1.5281 -1.5418
   39MOL0     H 5325   8.121   9.347   0.087 -0.2532 -1.0116 -0.3044
   39MOL0     H 5326   8.254   9.391   0.183  0.7076 -2.8738 -2.4133
   39MOL0     H 5327   8.180   9.248   0.365 -1.5953  1.1029  0.8771
   39MOL0     H 5328   8.237   9.168   0.214  0.5528  0.8949  1.4181
   39MOL0     H 5329   7.944   9.189   0.313  1.4955 -0.3942  2.2833
   39MOL0     H 5330   7.981   9.121   0.163 -2.5850 -2.7922  1.0093
   39MOL0     H 5331   8.085   8.869   0.175  2.2052 -2.2654  1.3691
   39MOL0     H 5332   8.062   8.612   0.292  0.9315 -1.3293 -0.7920
   39MOL0     H 5333   8.111   8.606   0.459 -1.6774  0.2552  0.6208
   39MOL0     H 5334   8.278   8.509   0.308  1.8973 -0.5465  0.4393
   39MOL0     H 5335   8.272   8.663   0.215  0.3077  1.7535  1.6934
   39MOL0     H 5336   8.369   8.787   0.393  0.1436  0.2066  0.6706
   39MOL0     H 5337   8.360   8.635   0.497  0.5556  0.7508 -0.2448
   39MOL0     H 5338   8.604   8.685   0.402  0.5958 -2.0683  0.5280
   39MOL0     H 5339   8.517   8.527   0.378 -3.0589  0.0982  0.3645
   39MOL0     H 5340   8.471   8.901   0.240 -0.9304  1.0583 -2.5335
   39MOL0     H 5341   8.492   9.154   0.068  2.2069 -1.3255 -2.8815
   39MOL0     H 5342   8.632   9.206   0.172  0.6564 -1.2992 -0.8162
   39MOL0     H 5343   8.494   9.128   0.244  1.2614 -0.3474  1.3809
   39MOL0     H 5344   9.099   8.943  -0.192  1.3712 -0.6400 -1.7064
   39MOL0     H 5345   9.289   9.033  -0.307  0.7371  0.5646 -0.7860
   39MOL0     H 5346   9.184   9.401  -0.510 -0.6509 -0.7328  1.5042
   39MOL0     H 5347   9.337   9.478  -0.479  0.4649 -0.5001 -1.0040
   39MOL0     H 5348   9.366   9.426  -0.692  0.0246  1.6289  1.1477
   39MOL0     H 5349   9.438   9.280  -0.622 -0.7006 -0.6946 -4.5043
   39MOL0     H 5350   9.146   9.267  -0.680  0.2633  0.8890  0.8854
   39MOL0     H 5351   9.248   9.137  -0.639 -1.3208 -0.2926 -0.7887
   39MOL0     H 5352   9.379   9.182  -0.862 -0.8224 -2.6877 -2.2602
   39MOL0     H 5353   9.248   9.302  -0.896 -2.0048  0.4275  1.4420
   39MOL0     H 5354   9.224   9.083  -1.020 -0.0122  2.4776 -1.0292
   39MOL0     H 5355   9.251   9.001  -0.869 -0.2689  0.3611  1.9415
   39MOL0     H 5356   9.002   9.181  -0.913 -2.0992 -0.7503 -0.4461
   39MOL0     H 5357   9.028   9.075  -0.784 -1.6710 -2.9678 -1.1334
   39MOL0     H 5358   8.904   8.943  -0.906  0.9997  0.4477  2.3610
   39MOL0     H 5359   9.065   8.892  -0.963  0.4022  0.7167  1.0164
   39MOL0     H 5360   8.907   9.063  -1.154 -4.4153 -1.6156  1.1020
   39MOL0     H 5361   8.882   8.890  -1.132  1.1475 -0.7796 -0.6376
   39MOL0     H 5362   9.088   9.422  -0.304  1.3902  0.5691 -1.5571
   39MOL0     H 5363   8.902   9.308  -0.182  1.8891  1.1589  2.1633
   39MOL0     H 5364   8.877   8.818  -0.024  0.3440  1.3308 -0.4663
   39MOL0     H 5365   8.758   8.633   0.063  1.8531  0.9400 -0.3913
   39MOL0     H 5366   7.813  10.126   0.387  1.6460 -1.4167 -0.8885
   39MOL0     H 5367   7.701  10.265   0.562 -1.2566 -2.7435 -3.0555
   39MOL0     H 5368   7.720  10.177   1.190 -2.2147 -1.9736  1.4650
   39MOL0     H 5369   7.526  10.207   1.337 -0.5686 -0.1434 -0.3931
   39MOL0     H 5370   7.154  10.334   1.184 -2.5093 -1.0648 -0.7590
   39MOL0     H 5371   7.116  10.269   1.335 -1.0978 -0.9411 -4.5888
   39MOL0     H 5372   7.206  10.490   1.441  3.5905  1.1617 -2.0625
   39MOL0     H 5373   7.048  10.491   1.358 -0.2206 -0.9400  0.0345
   39MOL0     H 5374   7.310  10.600   1.259 -0.3057 -0.8392 -1.2349
   39MOL0     H 5375   7.166  10.603   1.156 -1.4913 -0.4579  0.7769
   39MOL0     H 5376   7.152  10.714   1.435  3.2733 -2.4828  0.0485
   39MOL0     H 5377   7.041  10.749   1.298 -1.0466  0.3863  1.0020
   39MOL0     H 5378   7.370  11.001   1.205 -0.8801  1.3460  1.0799
   39MOL0     H 5379   7.322  10.443   1.048 -0.2733  0.6168  1.4931
   39MOL0     H 5380   7.482  10.369   0.777 -1.4670  0.0858 -0.0506
   39MOL0     H 5381   7.419  10.507   0.869 -0.6838 -0.4471 -1.8324
   39MOL0     H 5382   7.591  10.490   0.838  0.4586 -0.9914  0.7991
   40MOL0     O 5383   8.814   6.528   6.053 -0.4780 -0.0348  0.1692
   40MOL0     C 5384   8.697   6.500   6.056 -0.0535 -0.5653 -0.1595
   40MOL0     O 5385   8.602   6.585   6.105  0.5228 -0.4302  0.6365
   40MOL0     C 5386   8.643   6.706   6.158 -0.0177  1.0145  0.3749
   40MOL0     C 5387   8.605   6.827   6.104  0.7402  0.5894 -0.3645
   40MOL0     C 5388   8.664   6.952   6.140  0.7865  0.8001  0.2275
   40MOL0     C 5389   8.764   6.949   6.242  0.1685  0.2896  0.1023
   40MOL0     O 5390   8.817   7.061   6.303 -0.4764 -0.8052 -0.0655
   40MOL0     C 5391   8.825   7.179   6.222 -0.3526  1.0717  0.5127
   40MOL0     C 5392   8.938   7.265   6.266 -0.2868  0.4143 -0.9543
   40MOL0     C 5393   9.072   7.206   6.252  0.6718  0.4874  0.3002
   40MOL0     C 5394   9.170   7.314   6.266  0.1681  0.0025 -0.1091
   40MOL0     C 5395   9.317   7.275   6.269  0.0488 -0.5114 -0.2764
   40MOL0     C 5396   9.369   7.202   6.142  0.5016 -0.0744 -0.8996
   40MOL0     C 5397   9.519   7.183   6.143 -0.7485 -0.3447  0.1090
   40MOL0     C 5398   9.607   7.310   6.159 -0.9093  0.3852 -0.8947
   40MOL0     N 5399   9.643   7.353   6.295  0.3205  0.1915  0.2206
   40MOL0     C 5400   9.665   7.480   6.334 -0.5349 -0.7868  0.5474
   40MOL0     C 5401   9.702   7.485   6.463  0.6938 -0.0437 -0.4172
   40MOL0     C 5402   9.727   7.613   6.550 -0.3210  1.3158 -1.8495
   40MOL0     C 5403   9.839   7.708   6.518  0.5439 -0.2358 -0.2969
   40MOL0     C 5404   9.822   7.833   6.427  0.7843 -0.5566 -0.2507
   40MOL0     C 5405   9.704   7.931   6.453  0.2401 -0.5764 -0.2429
   40MOL0     O 5406   9.733   8.024   6.565 -0.1373 -0.7130 -0.8812
   40MOL0     C 5407   9.708   8.006   6.694  0.3999 -0.2710 -0.3202
   40MOL0     C 5408   9.622   7.911   6.742 -0.7772 -0.0461  0.2261
   40MOL0     C 5409   9.590   7.896   6.881 -1.2847  0.1804  0.2845
   40MOL0     C 5410   9.493   7.778   6.926 -0.6860 -0.4515  0.5766
   40MOL0     C 5411   9.657   7.983   6.970  0.8561 -0.2288 -0.0882
   40MOL0     C 5412   9.646   7.972   7.119  0.0820  0.2945  0.5061
   40MOL0     O 5413   9.739   8.028   7.197 -0.0349  0.1484 -0.0782
   40MOL0     C 5414   9.745   8.032   7.334  0.0560  0.7542  0.1513
   40MOL0     C 5415   9.871   7.995   7.401  0.3375 -1.1251 -0.8392
   40MOL0     C 5416   9.886   8.020   7.544  0.1938  0.4639 -0.1697
   40MOL0     C 5417   9.779   8.079   7.613 -0.3344  0.2556  0.4266
   40MOL0     O 5418   9.792   8.114   7.745 -0.2690 -0.5368 -0.0203
   40MOL0     C 5419   9.770   8.011   7.837 -0.1431  0.3891 -1.4150
   40MOL0     C 5420   9.781   8.065   7.974 -0.7607 -0.3262 -0.5070
   40MOL0     C 5421   9.674   8.168   8.003 -0.4364 -0.0921  0.1105
   40MOL0     C 5422   9.728   8.269   8.102  0.7380 -0.0830 -0.0885
   40MOL0     C 5423   9.635   8.390   8.141 -0.7418  0.3456  0.5851
   40MOL0     C 5424   9.717   8.499   8.216  0.3109  0.5506 -0.6293
   40MOL0     C 5425   9.634   8.628   8.238  0.2748  0.9557 -0.2729
   40MOL0     C 5426   9.577   8.653   8.380  0.6755 -0.1818  0.0568
   40MOL0    Cl 5427   9.447   8.530   8.430 -0.1666  0.0449  0.2585
   40MOL0     C 5428   9.668   8.115   7.547 -0.7960  0.1939 -0.4576
   40MOL0     C 5429   9.648   8.101   7.413 -0.1709 -0.6054 -0.9709
   40MOL0     O 5430   9.543   7.929   7.160  0.3582  0.2871 -0.0302
   40MOL0     C 5431   9.747   8.079   6.927 -0.5337 -0.3645 -0.2040
   40MOL0     C 5432   9.768   8.091   6.788 -1.2615 -1.1106 -0.2958
   40MOL0     N 5433   9.708   7.350   6.506  0.1009 -0.2415  1.2272
   40MOL0     N 5434   9.651   7.277   6.407  0.1414 -0.1539 -0.3308
   40MOL0     C 5435   8.807   6.829   6.300  0.3996 -0.0557 -0.4555
   40MOL0     C 5436   8.751   6.706   6.253 -0.3299 -0.2701 -1.2049
   40MOL0     C 5437   8.640   6.372   6.007 -0.2350 -0.1588  0.2659
   40MOL0     C 5438   8.500   6.366   5.974  0.2911 -0.1518 -0.1175
   40MOL0     C 5439   8.455   6.252   5.899  0.1418 -0.1034 -0.0523
   40MOL0     C 5440   8.530   6.130   5.892 -0.0445  0.0168 -0.7651
   40MOL0     O 5441   8.493   6.010   5.826  0.6323 -0.6863 -0.5583
   40MOL0     C 5442   8.359   5.995   5.788 -1.0170  0.6074 -0.5561
   40MOL0     C 5443   8.342   5.864   5.719  0.1561  0.0909 -0.0214
   40MOL0     C 5444   8.364   5.737   5.793  1.2173  0.3176  0.2535
   40MOL0     C 5445   8.256   5.692   5.894 -0.7494  0.4259  0.2976
   40MOL0     C 5446   8.218   5.552   5.888  0.3067 -0.4840  0.9660
   40MOL0     C 5447   8.168   5.445   5.865 -0.3914 -0.2154 -0.2456
   40MOL0     C 5448   8.659   6.133   5.940 -0.3667 -0.8819 -0.0774
   40MOL0     C 5449   8.715   6.256   5.984 -0.2221  0.5245 -0.0167
   40MOL0     C 5450   8.866   6.253   6.010 -0.7071 -0.3598 -0.2018
   40MOL0     H 5451   8.522   6.831   6.035 -0.5073 -0.3444  1.0064
   40MOL0     H 5452   8.621   7.048   6.114 -0.8425  0.6435  2.0679
   40MOL0     H 5453   8.738   7.245   6.223 -0.2526  1.2037  1.5451
   40MOL0     H 5454   8.844   7.139   6.122  0.6335 -1.2150  1.5357
   40MOL0     H 5455   8.938   7.357   6.207  0.2074  1.8479  1.1442
   40MOL0     H 5456   8.912   7.291   6.369 -0.8744 -1.5671 -0.5633
   40MOL0     H 5457   9.091   7.137   6.334 -2.1988 -0.2047  0.5105
   40MOL0     H 5458   9.072   7.159   6.153  2.5038 -2.4139  1.5522
   40MOL0     H 5459   9.155   7.387   6.186  3.3661  1.2255  0.2473
   40MOL0     H 5460   9.144   7.373   6.355 -0.4825  0.9529 -0.9010
   40MOL0     H 5461   9.334   7.198   6.344  0.1447  0.1608  0.4105
   40MOL0     H 5462   9.377   7.366   6.281 -2.2656  1.1402 -0.4763
   40MOL0     H 5463   9.315   7.107   6.135 -0.0393 -0.1647  2.5093
   40MOL0     H 5464   9.352   7.262   6.052  2.3254 -0.8265 -1.7785
   40MOL0     H 5465   9.557   7.132   6.055  1.8672 -0.0143  0.9538
   40MOL0     H 5466   9.544   7.111   6.222  0.2777 -0.3406 -0.1945
   40MOL0     H 5467   9.703   7.285   6.112  0.5617 -0.3146  2.1881
   40MOL0     H 5468   9.565   7.389   6.097  0.7478  0.1254 -2.4537
   40MOL0     H 5469   9.666   7.568   6.270 -0.2149 -1.7295 -0.7868
   40MOL0     H 5470   9.764   7.582   6.648 -0.2339  1.1295 -1.9422
   40MOL0     H 5471   9.635   7.667   6.575  0.4990  1.8879  0.1516
   40MOL0     H 5472   9.896   7.743   6.605 -2.0027  2.6615  0.3335
   40MOL0     H 5473   9.915   7.666   6.451  2.9957  0.7201  1.7246
   40MOL0     H 5474   9.916   7.888   6.434 -0.7770  2.0879  2.6206
   40MOL0     H 5475   9.819   7.799   6.323  0.2650 -3.3032  0.5659
   40MOL0     H 5476   9.703   7.993   6.363  2.4048 -0.7492 -0.4445
   40MOL0     H 5477   9.616   7.867   6.463 -0.3223  0.3896  1.4292
   40MOL0     H 5478   9.582   7.833   6.679 -0.5296 -0.0562  0.0819
   40MOL0     H 5479   9.550   7.692   6.959  0.9924  0.8770  1.2806
   40MOL0     H 5480   9.433   7.750   6.839 -2.7077  0.5919  1.5578
   40MOL0     H 5481   9.418   7.811   6.999 -1.7077  0.3056 -0.7716
   40MOL0     H 5482   9.952   7.943   7.350 -1.5238 -3.9700 -1.1162
   40MOL0     H 5483   9.980   7.981   7.580 -0.4405 -2.9342 -1.8434
   40MOL0     H 5484   9.670   7.969   7.824  0.0417  0.0031 -1.6062
   40MOL0     H 5485   9.843   7.934   7.807  1.1691  2.0023 -2.5656
   40MOL0     H 5486   9.776   7.982   8.045 -0.4463 -1.4575 -1.7607
   40MOL0     H 5487   9.885   8.098   7.978 -1.1524  1.1995 -1.8908
   40MOL0     H 5488   9.589   8.119   8.051 -2.0788  1.7132 -0.8136
   40MOL0     H 5489   9.644   8.227   7.916 -0.6816  1.7198  1.3633
   40MOL0     H 5490   9.823   8.313   8.070 -0.1220  2.7128  0.9222
   40MOL0     H 5491   9.754   8.195   8.179  2.7403 -1.2581 -1.7812
   40MOL0     H 5492   9.612   8.442   8.047  2.4113 -1.2842 -1.2678
   40MOL0     H 5493   9.549   8.350   8.195  1.6615 -2.0671  2.9509
   40MOL0     H 5494   9.803   8.531   8.156  1.4029  2.7762  1.8902
   40MOL0     H 5495   9.751   8.460   8.313 -3.7866  1.7898  1.5332
   40MOL0     H 5496   9.552   8.636   8.166 -1.0641 -0.0352  1.0916
   40MOL0     H 5497   9.696   8.714   8.211  2.0127 -0.8761 -2.5945
   40MOL0     H 5498   9.534   8.754   8.381 -0.7753 -0.7624 -0.2425
   40MOL0     H 5499   9.655   8.651   8.456  0.9068  1.8763 -0.0693
   40MOL0     H 5500   9.591   8.154   7.612 -2.2212  0.1399 -2.0308
   40MOL0     H 5501   9.561   8.121   7.351  1.6710  1.3047 -3.0766
   40MOL0     H 5502   9.789   8.148   7.000 -1.4722 -2.6873  2.7211
   40MOL0     H 5503   9.833   8.174   6.762 -1.1023 -1.2316 -0.2895
   40MOL0     H 5504   8.885   6.823   6.375  1.0510  0.4734 -1.0831
   40MOL0     H 5505   8.804   6.620   6.292  1.6198  1.5900  0.4330
   40MOL0     H 5506   8.441   6.457   5.970 -0.9704 -0.8929  0.9422
   40MOL0     H 5507   8.352   6.258   5.865  0.1866  2.4103  0.0131
   40MOL0     H 5508   8.293   6.002   5.875  0.4021  0.9599  0.5350
   40MOL0     H 5509   8.335   6.064   5.707  1.5273  1.0142 -1.0486
   40MOL0     H 5510   8.418   5.870   5.641  0.6952  0.1106  0.4952
   40MOL0     H 5511   8.247   5.858   5.665 -0.3594 -1.6082  0.9797
   40MOL0     H 5512   8.381   5.661   5.716  2.2708  0.8674 -0.0810
   40MOL0     H 5513   8.454   5.753   5.853  2.2703 -0.1164 -1.1612
   40MOL0     H 5514   8.165   5.751   5.884 -2.0287 -1.4999  0.1447
   40MOL0     H 5515   8.291   5.712   5.996 -1.5166 -0.2779  0.7106
   40MOL0     H 5516   8.124   5.349   5.847  1.3137 -0.6172 -2.7442
   40MOL0     H 5517   8.726   6.049   5.922  3.8709  2.1275  0.2410
   40MOL0     H 5518   8.911   6.332   5.949  0.0934 -1.9268 -1.6976
   40MOL0     H 5519   8.880   6.250   6.119 -0.6845  1.5378 -0.1092
   40MOL0     H 5520   8.915   6.170   5.959  0.2535  0.3585 -0.4700
   41MOL0     O 5521   7.993   3.631   0.797  0.1135  0.0547 -1.0117
   41MOL0     C 5522   7.891   3.699   0.831 -1.1141 -0.0445  0.3760
   41MOL0     O 5523   7.840   3.801   0.748  0.4562  0.6997  1.5048
   41MOL0     C 5524   7.907   3.844   0.634  0.1033  0.1544  0.1132
   41MOL0     C 5525   7.875   3.793   0.508 -0.0645 -0.9465  0.8808
   41MOL0     C 5526   7.945   3.842   0.400  0.1543  0.5996 -0.4388
   41MOL0     C 5527   8.048   3.936   0.412  0.7658 -0.4572 -0.2712
   41MOL0     O 5528   8.125   4.004   0.318  0.2939  0.3312 -0.0459
   41MOL0     C 5529   8.102   4.001   0.171  0.7821  0.0508  0.7099
   41MOL0     C 5530   8.224   4.069   0.122  0.5259 -0.2266 -0.4617
   41MOL0     C 5531   8.351   3.982   0.090  0.3200 -0.1718 -0.0397
   41MOL0     C 5532   8.449   4.061   0.011  0.1972  0.3173 -0.0887
   41MOL0     C 5533   8.589   3.995  -0.017  1.0986 -0.0601 -1.1856
   41MOL0     C 5534   8.651   3.923   0.097 -0.1825  0.1980 -0.0409
   41MOL0     C 5535   8.796   3.888   0.058  0.2150 -0.1032 -0.0047
   41MOL0     C 5536   8.902   3.989   0.054 -0.7870 -0.4553  0.1776
   41MOL0     N 5537   8.925   4.032   0.194 -0.6680 -0.1868  0.3199
   41MOL0     C 5538   8.961   3.950   0.294 -0.3024  0.7595 -0.8051
   41MOL0     C 5539   8.990   4.016   0.400  0.6030  0.3849 -0.2607
   41MOL0     C 5540   9.013   3.943   0.536  0.3719  0.4316 -0.5465
   41MOL0     C 5541   8.921   4.007   0.638  0.6550  0.0536  0.2954
   41MOL0     C 5542   8.923   3.920   0.761  0.2740  0.9797  0.1868
   41MOL0     C 5543   8.836   3.978   0.873  0.0077  0.6235 -0.2865
   41MOL0     O 5544   8.692   3.932   0.870  0.4942 -0.0997  0.0158
   41MOL0     C 5545   8.609   4.031   0.899 -0.0953  0.1603  0.0803
   41MOL0     C 5546   8.542   4.091   0.794 -0.5494 -0.7968  0.3809
   41MOL0     C 5547   8.447   4.194   0.812 -0.4091 -0.2610  0.1357
   41MOL0     C 5548   8.393   4.253   0.685 -0.2838  0.4753 -0.7999
   41MOL0     C 5549   8.425   4.249   0.941  0.1153 -0.2036  0.4866
   41MOL0     C 5550   8.317   4.335   0.969 -0.0439 -0.1637  0.0822
   41MOL0     O 5551   8.333   4.421   1.074 -0.1964  0.1948 -0.4734
   41MOL0     C 5552   8.229   4.494   1.118  0.2135  0.0849  0.1564
   41MOL0     C 5553   8.239   4.631   1.104  0.9897  0.3597  0.2857
   41MOL0     C 5554   8.128   4.710   1.143  0.2801  0.0936  0.3611
   41MOL0     C 5555   8.010   4.657   1.202 -0.1126  0.7633  0.2840
   41MOL0     O 5556   7.906   4.737   1.238  0.1386 -0.2343 -0.3708
   41MOL0     C 5557   7.773   4.688   1.275  1.0737 -0.5417  0.5084
   41MOL0     C 5558   7.679   4.811   1.280  0.8849  0.2768 -0.6465
   41MOL0     C 5559   7.536   4.756   1.261  0.2389 -0.3996 -0.0279
   41MOL0     C 5560   7.429   4.862   1.316 -0.6260 -0.7864  0.8050
   41MOL0     C 5561   7.283   4.820   1.276  0.6087 -0.2171  0.7570
   41MOL0     C 5562   7.230   4.684   1.326  0.5035 -0.3358 -0.8305
   41MOL0     C 5563   7.098   4.626   1.267  0.5364  0.5552  0.4110
   41MOL0     C 5564   7.026   4.536   1.369 -0.3635  0.7715  0.3457
   41MOL0    Cl 5565   7.114   4.389   1.363 -0.1124  0.2015 -0.2521
   41MOL0     C 5566   8.017   4.519   1.222 -0.3501 -0.0440 -0.4895
   41MOL0     C 5567   8.120   4.434   1.171  0.3436  0.4425 -0.2108
   41MOL0     O 5568   8.214   4.331   0.899 -0.0441  0.7069 -0.0568
   41MOL0     C 5569   8.516   4.205   1.042 -0.7528  0.0974 -1.2780
   41MOL0     C 5570   8.609   4.100   1.024  1.2130  0.0997  0.5332
   41MOL0     N 5571   8.972   4.153   0.377  0.2794  0.9055 -0.4083
   41MOL0     N 5572   8.927   4.151   0.250  0.2827  0.8212 -0.0714
   41MOL0     C 5573   8.090   3.977   0.536  0.7519 -0.5790 -1.0554
   41MOL0     C 5574   8.017   3.928   0.650 -0.1338 -0.6742 -0.3721
   41MOL0     C 5575   7.832   3.666   0.962  0.2472  0.0744  0.3932
   41MOL0     C 5576   7.877   3.561   1.046  0.1425 -0.4372 -0.2544
   41MOL0     C 5577   7.814   3.524   1.164 -0.4123 -0.0805  0.0593
   41MOL0     C 5578   7.700   3.583   1.209 -0.2013  0.3530  0.5090
   41MOL0     O 5579   7.646   3.528   1.314  0.4178  0.0782 -0.6255
   41MOL0     C 5580   7.566   3.597   1.414 -0.0258 -0.4584 -0.2749
   41MOL0     C 5581   7.429   3.532   1.402 -0.2039  0.5092  0.4932
   41MOL0     C 5582   7.426   3.389   1.470 -0.2921 -0.3975 -0.1481
   41MOL0     C 5583   7.311   3.304   1.409  0.0322 -0.4373 -0.4513
   41MOL0     C 5584   7.184   3.368   1.400  0.3215 -0.0025  0.1086
   41MOL0     C 5585   7.072   3.415   1.382  0.1233 -0.1620 -0.6069
   41MOL0     C 5586   7.645   3.682   1.134 -0.3071 -0.1855 -0.1989
   41MOL0     C 5587   7.717   3.729   1.009  0.0838  0.2785 -0.2705
   41MOL0     C 5588   7.650   3.850   0.940  0.2844  0.2860 -0.5841
   41MOL0     H 5589   7.795   3.720   0.498 -0.1584 -0.5954 -1.5016
   41MOL0     H 5590   7.931   3.816   0.295  3.4588 -4.0273 -0.0336
   41MOL0     H 5591   8.016   4.065   0.147 -0.0867 -2.1610 -2.8421
   41MOL0     H 5592   8.082   3.905   0.123 -1.7454  1.4736 -1.3595
   41MOL0     H 5593   8.195   4.131   0.037 -0.8250 -0.8327 -0.4725
   41MOL0     H 5594   8.252   4.141   0.199  2.3436 -1.1729 -0.1643
   41MOL0     H 5595   8.394   3.937   0.180  2.1421 -0.6800 -1.1032
   41MOL0     H 5596   8.315   3.913   0.014  0.2438  1.0240 -1.1236
   41MOL0     H 5597   8.405   4.103  -0.080 -1.7899 -0.1637  0.6022
   41MOL0     H 5598   8.471   4.148   0.074  2.6589 -0.0436 -0.3448
   41MOL0     H 5599   8.655   4.071  -0.058  0.3496  0.0511 -2.2299
   41MOL0     H 5600   8.565   3.921  -0.095  3.1034 -1.6793 -0.3709
   41MOL0     H 5601   8.661   3.981   0.190 -0.5372  0.0665  0.0805
   41MOL0     H 5602   8.589   3.833   0.102 -1.3609  0.8211 -2.2545
   41MOL0     H 5603   8.789   3.836  -0.037 -0.4974 -2.3815  1.2198
   41MOL0     H 5604   8.835   3.811   0.125  0.1582 -1.1808 -1.1838
   41MOL0     H 5605   8.989   3.935   0.017 -1.6512 -2.7452  1.2956
   41MOL0     H 5606   8.878   4.075  -0.011 -2.2758 -0.6288  0.4534
   41MOL0     H 5607   8.980   3.844   0.282  2.1402  1.1112 -0.5847
   41MOL0     H 5608   9.115   3.956   0.575  2.2856 -3.8086 -3.3247
   41MOL0     H 5609   8.997   3.836   0.526 -0.5303  0.5293 -0.1975
   41MOL0     H 5610   8.951   4.110   0.661  3.5018 -0.9294  1.3998
   41MOL0     H 5611   8.819   3.993   0.602  0.6496 -2.5446  1.1291
   41MOL0     H 5612   8.891   3.816   0.747 -2.0904  1.4505  1.3983
   41MOL0     H 5613   9.026   3.928   0.796  0.7246  0.9248 -1.0677
   41MOL0     H 5614   8.874   3.941   0.968 -1.7175 -0.3521  0.0615
   41MOL0     H 5615   8.854   4.085   0.883  1.4663  0.3834 -0.1253
   41MOL0     H 5616   8.551   4.054   0.692 -2.1168 -1.1022  0.3387
   41MOL0     H 5617   8.295   4.210   0.663  0.0566 -0.5228 -0.4310
   41MOL0     H 5618   8.457   4.229   0.600 -1.9012 -1.0310 -1.6430
   41MOL0     H 5619   8.396   4.361   0.696  0.3410  0.3194  1.0018
   41MOL0     H 5620   8.328   4.682   1.069 -0.8933  1.6871 -3.0387
   41MOL0     H 5621   8.121   4.813   1.109  0.4322  0.0500  0.1957
   41MOL0     H 5622   7.739   4.615   1.201  2.1035 -2.9797  2.3370
   41MOL0     H 5623   7.774   4.632   1.369  1.4030 -3.2749 -1.0240
   41MOL0     H 5624   7.692   4.873   1.370 -0.3259 -0.4443  0.0501
   41MOL0     H 5625   7.694   4.868   1.188 -1.9517  1.9026 -0.1956
   41MOL0     H 5626   7.528   4.665   1.321  1.7648  0.1981  1.1634
   41MOL0     H 5627   7.502   4.739   1.158 -0.0202 -1.2327  0.1864
   41MOL0     H 5628   7.463   4.957   1.274 -2.2988 -1.0642 -1.3038
   41MOL0     H 5629   7.437   4.878   1.424  2.1179  2.6338  0.2707
   41MOL0     H 5630   7.209   4.894   1.307  0.5759  0.6791 -1.3046
   41MOL0     H 5631   7.275   4.832   1.168  1.1656 -0.7987  0.6394
   41MOL0     H 5632   7.225   4.688   1.435  2.8983 -0.8061 -0.6389
   41MOL0     H 5633   7.311   4.619   1.292 -1.4332 -2.4276 -1.7277
   41MOL0     H 5634   7.121   4.567   1.178  1.4827  1.3506  0.1125
   41MOL0     H 5635   7.029   4.703   1.232 -2.7248 -1.3312  2.2627
   41MOL0     H 5636   6.922   4.527   1.336 -1.5603 -2.1436  4.1478
   41MOL0     H 5637   7.008   4.580   1.467 -2.5393  0.4822  0.1430
   41MOL0     H 5638   7.928   4.478   1.269 -1.6536  0.0462 -2.7352
   41MOL0     H 5639   8.112   4.326   1.173 -1.2299  0.4848 -1.6209
   41MOL0     H 5640   8.520   4.255   1.139 -2.6441  0.6832 -1.4569
   41MOL0     H 5641   8.674   4.065   1.104  1.8662 -1.2002 -0.5268
   41MOL0     H 5642   8.170   4.050   0.548 -1.4494  1.9408 -0.7600
   41MOL0     H 5643   8.025   3.974   0.748 -0.0032 -1.0744 -0.1928
   41MOL0     H 5644   7.967   3.510   1.013 -0.1947 -0.4285 -1.2372
   41MOL0     H 5645   7.854   3.438   1.218 -1.9307 -0.4054  0.7264
   41MOL0     H 5646   7.596   3.570   1.516 -3.2205 -1.9312  0.4008
   41MOL0     H 5647   7.567   3.705   1.402 -4.7784 -0.3017 -1.4982
   41MOL0     H 5648   7.399   3.526   1.297 -0.2121 -0.8184  0.5532
   41MOL0     H 5649   7.354   3.589   1.457 -0.2352 -0.6208  1.6746
   41MOL0     H 5650   7.521   3.338   1.450  0.1620  1.1738 -2.4265
   41MOL0     H 5651   7.404   3.409   1.575 -1.0499 -2.3876  0.1142
   41MOL0     H 5652   7.299   3.209   1.462 -0.2507 -1.8876 -2.9483
   41MOL0     H 5653   7.336   3.278   1.306  0.2398  2.0293 -1.0994
   41MOL0     H 5654   6.975   3.457   1.372 -1.1576 -2.5816  0.7123
   41MOL0     H 5655   7.565   3.747   1.167  2.0905  2.5611  0.6008
   41MOL0     H 5656   7.715   3.938   0.940  1.1044 -0.0192  4.2692
   41MOL0     H 5657   7.616   3.822   0.840  1.2408 -1.5327 -0.4385
   41MOL0     H 5658   7.566   3.884   1.001  1.5422  1.7792  0.4117
   42MOL0     O 5659  10.052   4.751   3.135  0.4439 -0.3721  0.0880
   42MOL0     C 5660  10.057   4.724   3.257  0.4534 -0.1968  0.2596
   42MOL0     O 5661  10.073   4.809   3.363 -0.4874 -0.5786  0.8878
   42MOL0     C 5662  10.111   4.936   3.333 -0.8178  0.2901 -0.5478
   42MOL0     C 5663  10.038   5.020   3.255 -0.0834 -0.6531 -0.1186
   42MOL0     C 5664  10.098   5.138   3.210  0.2426 -0.2296  0.3164
   42MOL0     C 5665  10.227   5.173   3.243  0.1247 -0.6059 -1.4514
   42MOL0     O 5666  10.287   5.284   3.202  0.8457  0.3656 -0.0974
   42MOL0     C 5667  10.246   5.356   3.087  0.1269  0.8081  0.2119
   42MOL0     C 5668  10.130   5.450   3.118 -0.5171  0.1714 -0.2811
   42MOL0     C 5669  10.175   5.576   3.187 -0.2505  0.2252 -0.8237
   42MOL0     C 5670  10.046   5.651   3.203  0.2974 -0.6556  0.0064
   42MOL0     C 5671  10.072   5.792   3.256 -0.2034 -0.7710 -0.0396
   42MOL0     C 5672   9.956   5.873   3.307  0.0137 -0.8778  0.1418
   42MOL0     C 5673   9.987   6.015   3.346  0.4165 -0.8928  0.0519
   42MOL0     C 5674   9.870   6.075   3.429 -0.6231  0.2736  0.5907
   42MOL0     N 5675   9.760   6.091   3.332 -0.3575  0.2162  0.7007
   42MOL0     C 5676   9.635   6.028   3.339  0.2320  0.5218  0.2163
   42MOL0     C 5677   9.559   6.096   3.248  0.3140  0.0920 -0.7359
   42MOL0     C 5678   9.415   6.066   3.227  0.0522  0.2238 -0.3044
   42MOL0     C 5679   9.341   6.199   3.202  1.1480  0.4244  0.2671
   42MOL0     C 5680   9.194   6.179   3.186  0.2268  0.0108  0.1788
   42MOL0     C 5681   9.129   6.290   3.095 -1.3813 -0.7298  0.6321
   42MOL0     O 5682   9.007   6.243   3.049  1.1443  0.4045 -0.0283
   42MOL0     C 5683   8.906   6.326   3.000 -0.1936 -0.0373  0.2093
   42MOL0     C 5684   8.774   6.273   2.986 -0.4105  0.0328  0.1066
   42MOL0     C 5685   8.666   6.357   2.959  0.1626 -0.2630  0.6064
   42MOL0     C 5686   8.529   6.279   2.960 -0.2738 -0.2049  0.5677
   42MOL0     C 5687   8.681   6.494   2.919  0.0172 -0.0466 -0.0590
   42MOL0     C 5688   8.570   6.576   2.857  0.1354  0.4312  1.0142
   42MOL0     O 5689   8.596   6.703   2.843  0.2590  0.7690 -0.1064
   42MOL0     C 5690   8.500   6.780   2.786 -0.0890 -0.5484 -0.2384
   42MOL0     C 5691   8.544   6.857   2.678  0.2313 -0.3697  0.2639
   42MOL0     C 5692   8.455   6.945   2.608  0.1910 -0.5561 -0.9996
   42MOL0     C 5693   8.318   6.951   2.654  0.5912  1.1367 -0.4662
   42MOL0     O 5694   8.207   7.021   2.600 -0.3900 -0.3854  0.0797
   42MOL0     C 5695   8.239   7.085   2.481 -0.4622  0.3355  0.8147
   42MOL0     C 5696   8.113   7.140   2.411 -0.3323  0.5891  0.6007
   42MOL0     C 5697   8.158   7.254   2.311  0.5985  0.3736 -1.0012
   42MOL0     C 5698   8.108   7.229   2.169  0.5353  0.1468 -0.1905
   42MOL0     C 5699   8.100   7.358   2.104  0.1345  0.7436  0.6982
   42MOL0     C 5700   8.230   7.411   2.048  0.2710 -0.8204 -0.8512
   42MOL0     C 5701   8.207   7.530   1.959  0.3430  0.5131 -0.4324
   42MOL0     C 5702   8.331   7.585   1.890  0.0852 -0.2109  0.1407
   42MOL0    Cl 5703   8.281   7.730   1.792 -0.5049 -0.2065  0.0341
   42MOL0     C 5704   8.274   6.863   2.753 -0.3000 -0.1850  0.1750
   42MOL0     C 5705   8.363   6.787   2.832  0.1493  0.1832  0.6838
   42MOL0     O 5706   8.475   6.513   2.804 -0.1185 -0.7150 -0.3945
   42MOL0     C 5707   8.815   6.541   2.925  0.6817 -0.9611 -0.3225
   42MOL0     C 5708   8.922   6.459   2.974 -0.0866 -1.3450 -0.2053
   42MOL0     N 5709   9.635   6.189   3.181  0.1093 -0.4598 -0.2008
   42MOL0     N 5710   9.755   6.187   3.232 -0.4254 -0.4733 -0.6225
   42MOL0     C 5711  10.298   5.106   3.341  0.4033  0.2442 -0.3068
   42MOL0     C 5712  10.240   4.978   3.374 -0.0112 -0.1503  0.7478
   42MOL0     C 5713  10.045   4.585   3.295 -0.0402  0.2081  0.8890
   42MOL0     C 5714  10.152   4.519   3.353 -0.8407  0.6049  0.1701
   42MOL0     C 5715  10.156   4.380   3.383  0.0901  0.1748 -0.0855
   42MOL0     C 5716  10.046   4.298   3.345 -0.4811  0.5511  0.9076
   42MOL0     O 5717  10.042   4.163   3.355  0.3599  0.1622  0.6108
   42MOL0     C 5718  10.150   4.082   3.396 -1.1361  0.2342  1.4390
   42MOL0     C 5719  10.144   4.060   3.549  0.3259  0.4604  1.0782
   42MOL0     C 5720  10.277   3.994   3.598  0.1828 -0.2079  0.4998
   42MOL0     C 5721  10.303   4.028   3.749 -0.2532  0.0185 -0.2593
   42MOL0     C 5722  10.199   3.972   3.830  0.1429 -0.1530 -0.0174
   42MOL0     C 5723  10.109   3.937   3.904  0.2890  0.6827  0.0881
   42MOL0     C 5724   9.937   4.362   3.290  0.8933 -0.1391 -0.3039
   42MOL0     C 5725   9.936   4.499   3.258 -0.6118 -0.0970 -0.3582
   42MOL0     C 5726   9.813   4.557   3.193 -0.0497  0.3557 -0.4840
   42MOL0     H 5727   9.938   5.001   3.219  0.7419 -0.3243 -2.7544
   42MOL0     H 5728  10.045   5.196   3.135 -0.5034 -1.5506 -0.2060
   42MOL0     H 5729  10.204   5.301   3.002 -2.1283  0.7591  1.2732
   42MOL0     H 5730  10.329   5.414   3.044  0.3758  0.6184  0.4351
   42MOL0     H 5731  10.083   5.481   3.025  1.4114 -0.6941 -1.6046
   42MOL0     H 5732  10.054   5.401   3.180 -1.0457 -1.4378 -2.0988
   42MOL0     H 5733  10.227   5.551   3.281 -3.6379 -3.7276  0.3026
   42MOL0     H 5734  10.245   5.628   3.121 -1.7678  0.6197 -2.1837
   42MOL0     H 5735  10.003   5.675   3.105  0.3852  3.2126  0.7416
   42MOL0     H 5736   9.973   5.600   3.266 -1.5572  2.0691  0.2656
   42MOL0     H 5737  10.125   5.844   3.175 -1.9190  0.1484 -0.6118
   42MOL0     H 5738  10.146   5.793   3.337  0.5848  1.1437 -0.7132
   42MOL0     H 5739   9.893   5.871   3.217  1.6332  2.0433 -1.2381
   42MOL0     H 5740   9.902   5.826   3.389  0.0604 -3.7580 -1.3510
   42MOL0     H 5741   9.986   6.076   3.255 -2.4346 -0.1037  0.4972
   42MOL0     H 5742  10.082   6.021   3.399  0.5458  1.6281 -0.3330
   42MOL0     H 5743   9.845   6.003   3.507 -1.1043 -1.5843 -1.1828
   42MOL0     H 5744   9.891   6.164   3.489  0.9416  0.9419 -0.8647
   42MOL0     H 5745   9.611   5.947   3.406  1.2122 -0.5960 -0.7380
   42MOL0     H 5746   9.371   6.006   3.308  1.4456 -0.2351  0.1466
   42MOL0     H 5747   9.405   6.009   3.134 -0.6248 -0.7256  0.3279
   42MOL0     H 5748   9.357   6.274   3.280 -0.0038  1.0915 -0.1156
   42MOL0     H 5749   9.377   6.251   3.112 -1.4504  1.3262 -0.3488
   42MOL0     H 5750   9.170   6.082   3.142  1.3083  0.4150 -1.3801
   42MOL0     H 5751   9.146   6.188   3.284 -2.4053  1.7370 -1.1461
   42MOL0     H 5752   9.116   6.382   3.154  3.5309  0.9781 -0.4767
   42MOL0     H 5753   9.188   6.314   3.006 -4.2735 -0.6026 -1.3896
   42MOL0     H 5754   8.770   6.176   3.034 -0.6928  0.1055  0.2345
   42MOL0     H 5755   8.515   6.236   3.060 -0.3851  1.0892  1.1353
   42MOL0     H 5756   8.539   6.201   2.884  1.4811  0.5948 -0.0756
   42MOL0     H 5757   8.443   6.344   2.945  0.6703  0.8813 -0.3674
   42MOL0     H 5758   8.650   6.850   2.659  0.3782 -0.1662  0.9542
   42MOL0     H 5759   8.488   7.013   2.529 -2.1604 -1.0578 -2.5304
   42MOL0     H 5760   8.308   7.165   2.509  0.4800 -0.9154  2.2585
   42MOL0     H 5761   8.296   7.016   2.417 -2.4775  0.5176 -1.3084
   42MOL0     H 5762   8.059   7.059   2.359  0.2662 -1.5187  3.0802
   42MOL0     H 5763   8.043   7.177   2.487 -1.0955 -2.8165  1.7661
   42MOL0     H 5764   8.264   7.278   2.320  0.2030  1.4048  2.8416
   42MOL0     H 5765   8.119   7.350   2.345 -0.9931 -1.1145  1.8126
   42MOL0     H 5766   8.007   7.188   2.163  0.3138  0.8511 -2.2302
   42MOL0     H 5767   8.168   7.157   2.113  0.3769  1.7876 -2.6277
   42MOL0     H 5768   8.037   7.338   2.016  1.0717 -1.2042  0.4122
   42MOL0     H 5769   8.053   7.433   2.168  3.1308  1.5702  2.0946
   42MOL0     H 5770   8.284   7.330   2.000  2.0187  0.9756 -2.0958
   42MOL0     H 5771   8.280   7.452   2.136 -0.7616  2.8023 -1.7644
   42MOL0     H 5772   8.168   7.609   2.024 -0.2331  0.5116 -0.7673
   42MOL0     H 5773   8.125   7.506   1.890  0.6319  2.5415 -1.5519
   42MOL0     H 5774   8.355   7.514   1.810 -1.1875 -0.5408  0.0261
   42MOL0     H 5775   8.416   7.604   1.956  1.0059  0.7520 -1.2606
   42MOL0     H 5776   8.168   6.868   2.775 -0.8566 -1.4927 -1.9377
   42MOL0     H 5777   8.338   6.744   2.928 -0.9636  2.3593  1.4193
   42MOL0     H 5778   8.847   6.634   2.880 -0.2321 -1.0600 -1.2042
   42MOL0     H 5779   9.017   6.506   2.998 -1.1698  2.0085 -1.8555
   42MOL0     H 5780  10.396   5.145   3.364 -0.8054  1.5605  3.1596
   42MOL0     H 5781  10.291   4.903   3.435 -0.7730 -1.4476 -0.1608
   42MOL0     H 5782  10.245   4.568   3.379  0.2942 -1.4137  0.0634
   42MOL0     H 5783  10.220   4.334   3.457 -0.1258 -0.4543 -0.2808
   42MOL0     H 5784  10.132   3.988   3.344 -0.2792  0.2916  1.0162
   42MOL0     H 5785  10.242   4.125   3.355 -0.3764 -3.1567 -0.8108
   42MOL0     H 5786  10.053   4.004   3.571 -0.8922  2.0880  0.3776
   42MOL0     H 5787  10.144   4.159   3.595 -2.8307  1.1837 -0.2609
   42MOL0     H 5788  10.268   3.888   3.575 -0.2553 -0.5872  2.2305
   42MOL0     H 5789  10.368   4.029   3.550  0.4299 -3.3853 -1.5895
   42MOL0     H 5790  10.327   4.134   3.758  2.2212 -0.6467  2.7552
   42MOL0     H 5791  10.393   3.978   3.786  0.5333  0.4979 -1.4629
   42MOL0     H 5792  10.041   3.898   3.977 -0.5592  0.3163 -0.8730
   42MOL0     H 5793   9.848   4.304   3.271  0.4055  0.6228 -0.3988
   42MOL0     H 5794   9.773   4.625   3.269 -0.4046 -2.1763  1.7269
   42MOL0     H 5795   9.838   4.626   3.112 -0.9292 -0.8083 -1.7851
   42MOL0     H 5796   9.735   4.487   3.165  0.9622 -1.9923  2.1719
   43MOL0     O 5797   6.881  10.793   3.946 -0.2966 -1.0427 -0.4445
   43MOL0     C 5798   6.921  10.690   3.889 -0.3476  0.0920  0.3901
   43MOL0     O 5799   6.924  10.666   3.751  0.5778 -0.0412  0.7719
   43MOL0     C 5800   6.883  10.756   3.656  0.6209 -0.5273 -0.4446
   43MOL0     C 5801   6.799  10.866   3.681  0.2705  0.5357 -0.3974
   43MOL0     C 5802   6.758  10.958   3.575  0.6746 -0.1242  0.3845
   43MOL0     C 5803   6.807  10.944   3.441  0.2955  0.1896 -0.4468
   43MOL0     O 5804   6.754  11.029   3.344  0.1478 -0.1987 -0.3125
   43MOL0     C 5805   6.783  11.000   3.206  0.3810 -0.5939  0.0500
   43MOL0     C 5806   6.706  11.106   3.128 -0.4375  0.0444  0.5050
   43MOL0     C 5807   6.725  11.102   2.973  0.1543 -0.4001  0.3823
   43MOL0     C 5808   6.675  11.233   2.909  0.3039 -0.2407 -0.7140
   43MOL0     C 5809   6.753  11.255   2.785  0.7445  0.4966  0.0797
   43MOL0     C 5810   6.742  11.406   2.726  0.5357  0.4181 -0.7262
   43MOL0     C 5811   6.603  11.452   2.679  0.0928 -0.1965  0.1129
   43MOL0     C 5812   6.569  11.384   2.544  0.7020  0.5264  0.0249
   43MOL0     N 5813   6.464  11.459   2.479 -0.4862 -0.3183  0.7780
   43MOL0     C 5814   6.334  11.449   2.512 -0.4318  0.3398  0.3236
   43MOL0     C 5815   6.263  11.497   2.408  1.0570  0.4233 -0.4486
   43MOL0     C 5816   6.112  11.515   2.418 -0.0037  0.0788 -0.0361
   43MOL0     C 5817   6.094  11.664   2.468 -0.4378 -0.9465  1.0238
   43MOL0     C 5818   6.101  11.753   2.336  0.8104 -0.0561  0.3337
   43MOL0     C 5819   6.069  11.899   2.380  0.0755  0.0392 -0.3710
   43MOL0     O 5820   6.099  11.987   2.260 -0.1834  0.4333  0.6673
   43MOL0     C 5821   6.086  12.118   2.253  0.8139 -0.0072 -0.8471
   43MOL0     C 5822   6.029  12.190   2.357  0.1064 -0.7966  0.1554
   43MOL0     C 5823   6.034  12.332   2.366  0.7555  0.1440 -0.2931
   43MOL0     C 5824   5.985  12.395   2.497  0.2479 -0.3085 -0.0224
   43MOL0     C 5825   6.086  12.401   2.257 -0.0070 -0.8653  0.1545
   43MOL0     C 5826   6.103  12.551   2.256  0.2923 -0.0562  0.4273
   43MOL0     O 5827   6.197  12.598   2.173  0.1659 -0.2480  0.2505
   43MOL0     C 5828   6.169  12.713   2.112 -0.7064 -0.7732 -0.2965
   43MOL0     C 5829   6.101  12.718   1.992  0.3538  0.3899  0.6917
   43MOL0     C 5830   6.076  12.839   1.934  0.4723  0.6088 -0.1354
   43MOL0     C 5831   6.143  12.959   1.978  0.1320 -0.0115 -0.6662
   43MOL0     O 5832   6.126  13.066   1.896  0.6511 -0.3760  0.0573
   43MOL0     C 5833   6.194  13.195   1.913  0.6004  0.1443  0.1328
   43MOL0     C 5834   6.138  13.296   1.808  0.9406  0.0250  0.2217
   43MOL0     C 5835   6.181  13.443   1.812 -0.7244 -0.5803  0.8096
   43MOL0     C 5836   6.172  13.516   1.669 -0.0351  0.0019  0.4408
   43MOL0     C 5837   6.305  13.514   1.581  1.5993 -0.1577 -0.0982
   43MOL0     C 5838   6.272  13.561   1.437 -0.0426  0.2307  0.3772
   43MOL0     C 5839   6.386  13.522   1.337  0.1146 -0.3067 -0.3388
   43MOL0     C 5840   6.366  13.582   1.203 -0.1944 -0.0360 -0.3367
   43MOL0    Cl 5841   6.436  13.749   1.203  0.0790 -0.4521  0.1249
   43MOL0     C 5842   6.218  12.954   2.100 -1.0292 -1.0206 -0.1686
   43MOL0     C 5843   6.232  12.830   2.167 -0.2610 -0.0283  0.2946
   43MOL0     O 5844   6.031  12.624   2.322  0.3555  0.3061  0.1449
   43MOL0     C 5845   6.126  12.323   2.143 -0.2245  0.4787  0.2447
   43MOL0     C 5846   6.130  12.183   2.144 -0.3190  0.2646  0.3091
   43MOL0     N 5847   6.352  11.547   2.311  0.4131  0.2507 -0.1074
   43MOL0     N 5848   6.471  11.512   2.349 -0.3125 -0.1581  0.0754
   43MOL0     C 5849   6.888  10.827   3.423  0.3385  0.3952  0.3193
   43MOL0     C 5850   6.922  10.740   3.527 -0.3357  0.5388 -1.0843
   43MOL0     C 5851   6.977  10.579   3.965  0.3038 -1.0845 -0.3872
   43MOL0     C 5852   7.013  10.457   3.894  0.2508  0.3402  0.1593
   43MOL0     C 5853   7.053  10.350   3.963 -0.1926  0.0128 -1.1295
   43MOL0     C 5854   7.072  10.352   4.101  0.0664  0.2454  0.4882
   43MOL0     O 5855   7.117  10.246   4.171  0.7557 -0.1615  0.0671
   43MOL0     C 5856   7.225  10.166   4.117  0.2385  0.0656  0.1698
   43MOL0     C 5857   7.179  10.022   4.099  0.2484 -0.0814  0.1682
   43MOL0     C 5858   7.109   9.973   4.222  0.4257 -0.1122 -0.6885
   43MOL0     C 5859   7.046   9.834   4.200 -0.2099 -0.9888  0.2127
   43MOL0     C 5860   7.031   9.758   4.323  0.3388  0.6804  0.4533
   43MOL0     C 5861   7.039   9.667   4.413 -0.1401 -0.7300  1.6117
   43MOL0     C 5862   7.032  10.460   4.171  0.7431 -0.6759 -0.6647
   43MOL0     C 5863   6.984  10.573   4.107  0.1222  0.1644 -0.3704
   43MOL0     C 5864   6.940  10.687   4.188  0.1228 -0.8566 -0.1342
   43MOL0     H 5865   6.750  10.880   3.777  2.0794 -0.3904  0.7051
   43MOL0     H 5866   6.702  11.049   3.588  2.3445  1.0131 -0.0595
   43MOL0     H 5867   6.741  10.903   3.179 -4.0473  1.1155 -0.0226
   43MOL0     H 5868   6.892  10.999   3.200  0.3317  0.0618 -1.3642
   43MOL0     H 5869   6.598  11.093   3.142 -0.9366 -0.9165 -3.1675
   43MOL0     H 5870   6.745  11.203   3.159 -0.8103  0.8637 -1.4333
   43MOL0     H 5871   6.830  11.083   2.949  0.0936  0.1178 -0.3203
   43MOL0     H 5872   6.665  11.019   2.935  0.0976  0.8663 -2.5821
   43MOL0     H 5873   6.571  11.213   2.879 -1.3371  2.1009  2.7293
   43MOL0     H 5874   6.683  11.322   2.972  2.2060 -0.1159 -1.0693
   43MOL0     H 5875   6.711  11.180   2.717  0.1791  1.8329 -1.0899
   43MOL0     H 5876   6.861  11.239   2.791  0.5153 -0.7859  1.2384
   43MOL0     H 5877   6.778  11.474   2.803 -0.6635  0.3749 -0.1110
   43MOL0     H 5878   6.818  11.413   2.646  1.4651  2.1108  0.2352
   43MOL0     H 5879   6.615  11.560   2.670  0.0953 -0.2639 -0.7808
   43MOL0     H 5880   6.523  11.427   2.749 -2.9178  2.0983 -2.2657
   43MOL0     H 5881   6.657  11.387   2.479 -0.4029  0.1048 -1.5517
   43MOL0     H 5882   6.541  11.279   2.562  0.1457  0.3979 -1.4397
   43MOL0     H 5883   6.276  11.402   2.592 -4.8684 -0.8898 -3.2150
   43MOL0     H 5884   6.074  11.438   2.485 -1.3795  1.6698  1.0974
   43MOL0     H 5885   6.058  11.491   2.327 -3.1254 -0.0134  1.7074
   43MOL0     H 5886   5.996  11.672   2.515 -0.6146 -2.3886  0.9399
   43MOL0     H 5887   6.175  11.698   2.533  1.3395  0.6909 -1.8524
   43MOL0     H 5888   6.201  11.748   2.291  1.2304  1.0586  1.1098
   43MOL0     H 5889   6.021  11.724   2.267 -0.1593  3.3277 -0.1594
   43MOL0     H 5890   5.966  11.911   2.415  0.5648  0.5138  0.9430
   43MOL0     H 5891   6.139  11.927   2.458 -0.9466 -1.7132  1.2638
   43MOL0     H 5892   5.988  12.144   2.446 -1.3418 -1.4141 -0.7946
   43MOL0     H 5893   5.876  12.400   2.497  0.1858 -1.2577  0.9024
   43MOL0     H 5894   6.029  12.491   2.526 -0.3597 -0.7541  2.6027
   43MOL0     H 5895   6.016  12.328   2.577  0.4558  0.0950  0.2382
   43MOL0     H 5896   6.051  12.628   1.957 -2.2495  1.4859  1.3347
   43MOL0     H 5897   6.012  12.861   1.850  3.8157  2.4920 -2.4473
   43MOL0     H 5898   6.168  13.244   2.007 -2.1501  0.0798 -0.4982
   43MOL0     H 5899   6.300  13.170   1.909  0.6113  0.0410  0.9435
   43MOL0     H 5900   6.174  13.253   1.714 -1.0943 -1.3345 -0.0033
   43MOL0     H 5901   6.029  13.288   1.797  1.2532 -1.5240 -3.1511
   43MOL0     H 5902   6.283  13.458   1.847 -0.1479 -0.1807 -0.9589
   43MOL0     H 5903   6.107  13.497   1.874 -0.5880  0.3454  0.1857
   43MOL0     H 5904   6.159  13.622   1.694  2.6298  0.1348  1.5810
   43MOL0     H 5905   6.093  13.474   1.606  2.9169 -2.2038 -2.1034
   43MOL0     H 5906   6.372  13.588   1.626 -0.8016  1.2817  1.3403
   43MOL0     H 5907   6.349  13.414   1.587  0.9886 -0.4174  0.1705
   43MOL0     H 5908   6.259  13.669   1.451 -2.7204  0.0259 -0.0297
   43MOL0     H 5909   6.177  13.528   1.395  1.4186  0.5320 -3.6368
   43MOL0     H 5910   6.410  13.415   1.333 -0.8991 -0.5077 -2.6144
   43MOL0     H 5911   6.478  13.561   1.382  1.7428 -0.5892 -3.1772
   43MOL0     H 5912   6.261  13.572   1.173  0.3971  1.9765 -3.5336
   43MOL0     H 5913   6.422  13.527   1.126 -0.6755  0.6257 -1.1731
   43MOL0     H 5914   6.269  13.046   2.125  2.1422 -2.7947  0.3372
   43MOL0     H 5915   6.294  12.819   2.255  2.9028 -2.6879 -1.9934
   43MOL0     H 5916   6.176  12.375   2.062 -0.0410  0.2466  0.2083
   43MOL0     H 5917   6.177  12.122   2.068  2.2834  3.2701 -0.6744
   43MOL0     H 5918   6.931  10.809   3.325 -0.6479 -2.0188  0.2437
   43MOL0     H 5919   6.983  10.652   3.509 -2.8674 -1.7097  0.5258
   43MOL0     H 5920   7.011  10.444   3.786  0.8675  1.6697 -0.0257
   43MOL0     H 5921   7.095  10.271   3.901  1.5158 -0.7076  0.8265
   43MOL0     H 5922   7.258  10.204   4.020 -0.7124  0.5653  0.0337
   43MOL0     H 5923   7.305  10.187   4.188 -1.4314  1.5695  1.7077
   43MOL0     H 5924   7.255   9.959   4.052 -0.3511  1.3386 -2.8908
   43MOL0     H 5925   7.108  10.016   4.016  1.1056  1.4497 -0.7143
   43MOL0     H 5926   7.189   9.962   4.296  0.9725 -2.7705 -1.5619
   43MOL0     H 5927   7.036  10.050   4.248 -1.3291 -1.4556 -1.4648
   43MOL0     H 5928   7.104   9.776   4.127 -2.0262 -0.5449 -1.6948
   43MOL0     H 5929   6.958   9.845   4.135 -0.9173 -4.0311  0.4629
   43MOL0     H 5930   7.029   9.582   4.477  0.2121 -2.9624 -1.0931
   43MOL0     H 5931   7.030  10.446   4.279  0.5073 -1.7982 -0.7993
   43MOL0     H 5932   6.830  10.688   4.191  0.0747 -1.7961 -1.0384
   43MOL0     H 5933   6.962  10.676   4.295 -2.4511  1.3164  0.7523
   43MOL0     H 5934   6.993  10.778   4.158  0.5934 -0.7982  0.8381
   44MOL0     O 5935   9.994   1.454   3.700  0.3522 -0.2182 -0.1437
   44MOL0     C 5936  10.044   1.543   3.776 -0.1728  0.1873  0.1077
   44MOL0     O 5937  10.078   1.663   3.738  0.0558  0.4899  0.3397
   44MOL0     C 5938   9.993   1.712   3.641 -0.6382  0.3914  0.0635
   44MOL0     C 5939  10.010   1.687   3.506 -0.7127 -0.3286 -0.7025
   44MOL0     C 5940   9.927   1.758   3.417 -0.2609  0.1954 -0.0412
   44MOL0     C 5941   9.818   1.831   3.448  1.1836  0.2618 -0.3268
   44MOL0     O 5942   9.728   1.885   3.354  0.6862  0.5841  0.4345
   44MOL0     C 5943   9.717   1.813   3.226  0.6103 -0.8899 -0.0302
   44MOL0     C 5944   9.594   1.870   3.140  1.1561  0.7495  0.1653
   44MOL0     C 5945   9.466   1.796   3.179  0.7046 -0.5350 -0.1814
   44MOL0     C 5946   9.342   1.878   3.120  0.3872  0.0422 -0.2617
   44MOL0     C 5947   9.208   1.829   3.139  0.1412  0.3382  0.0459
   44MOL0     C 5948   9.162   1.810   3.283 -0.6062 -1.4149  0.0203
   44MOL0     C 5949   9.013   1.791   3.297 -0.8404  0.9674 -0.0215
   44MOL0     C 5950   8.970   1.675   3.195  0.2092  0.0268  0.4073
   44MOL0     N 5951   9.023   1.541   3.228  0.4790 -0.0985 -0.3794
   44MOL0     C 5952   8.932   1.449   3.281  0.1679  0.2634  0.6745
   44MOL0     C 5953   9.018   1.349   3.303  0.4071  0.3088 -0.2184
   44MOL0     C 5954   8.962   1.214   3.343 -0.8445 -0.1597  0.1078
   44MOL0     C 5955   8.942   1.142   3.202  0.8439  0.6842 -0.2006
   44MOL0     C 5956   8.910   0.996   3.245 -0.6439 -0.8670  0.8270
   44MOL0     C 5957   8.874   0.919   3.117 -0.7625 -0.0712 -0.1095
   44MOL0     O 5958   8.844   0.783   3.159  0.3321  0.1020  0.7228
   44MOL0     C 5959   8.932   0.675   3.174  0.4512 -0.5405 -0.5841
   44MOL0     C 5960   8.867   0.554   3.200 -0.0305 -0.8683  0.5206
   44MOL0     C 5961   8.936   0.454   3.256  0.4594  0.0814  0.1514
   44MOL0     C 5962   8.851   0.326   3.291 -0.0277 -0.1846  0.5157
   44MOL0     C 5963   9.076   0.461   3.269 -0.2211  0.5585  0.0442
   44MOL0     C 5964   9.162   0.346   3.308  0.1266 -0.4728 -0.1367
   44MOL0     O 5965   9.289   0.351   3.248  0.5284  0.0527  0.1239
   44MOL0     C 5966   9.390   0.275   3.302  0.6665  0.2487 -0.2936
   44MOL0     C 5967   9.468   0.322   3.409  0.5384  0.0004  1.0667
   44MOL0     C 5968   9.553   0.239   3.476 -0.6021 -0.4467  0.2917
   44MOL0     C 5969   9.573   0.104   3.441 -0.4679  0.2693 -0.4132
   44MOL0     O 5970   9.655   0.027   3.513  0.0152 -0.1398  0.5992
   44MOL0     C 5971   9.601  -0.104   3.545 -0.0629  0.7483  0.4347
   44MOL0     C 5972   9.686  -0.199   3.635  0.2319  0.0629 -0.3649
   44MOL0     C 5973   9.589  -0.272   3.736 -0.4276  0.9145  0.4941
   44MOL0     C 5974   9.605  -0.236   3.885  0.7743  0.8936 -0.7296
   44MOL0     C 5975   9.566  -0.090   3.895 -0.2499 -0.2120 -0.7013
   44MOL0     C 5976   9.560  -0.031   4.037 -0.7559 -0.3629 -0.3717
   44MOL0     C 5977   9.686  -0.041   4.125 -0.6839  0.1255 -0.4254
   44MOL0     C 5978   9.672   0.010   4.277 -0.6691 -0.1231  0.3846
   44MOL0    Cl 5979   9.706   0.195   4.278  0.3082 -0.0932  0.1715
   44MOL0     C 5980   9.509   0.060   3.323  0.5963  0.0775  0.5213
   44MOL0     C 5981   9.418   0.148   3.263  0.0180  0.1738 -0.8838
   44MOL0     O 5982   9.123   0.258   3.388  0.2686 -0.1883 -0.3217
   44MOL0     C 5983   9.133   0.576   3.212  0.7707  0.8458  0.4769
   44MOL0     C 5984   9.067   0.688   3.158  0.1404 -0.4950 -0.1220
   44MOL0     N 5985   9.153   1.386   3.275  0.0685  0.5886  0.2438
   44MOL0     N 5986   9.154   1.503   3.229 -0.0577 -0.7168  1.3460
   44MOL0     C 5987   9.802   1.850   3.584  0.8658 -0.4273 -0.2678
   44MOL0     C 5988   9.892   1.805   3.673 -0.0460 -0.3522 -0.0926
   44MOL0     C 5989  10.069   1.500   3.910 -0.6151  0.7048  0.1905
   44MOL0     C 5990  10.037   1.589   4.014 -0.7165  0.9358  0.7941
   44MOL0     C 5991  10.066   1.553   4.145 -0.7559 -0.2250 -0.3193
   44MOL0     C 5992  10.137   1.441   4.182  0.4484 -0.2361  0.0454
   44MOL0     O 5993  10.166   1.399   4.311  0.7419  0.4371  0.2138
   44MOL0     C 5994  10.141   1.487   4.420 -0.2307  0.1722  0.6336
   44MOL0     C 5995   9.990   1.499   4.464  0.4956 -0.5520  0.1915
   44MOL0     C 5996   9.937   1.616   4.549 -0.1187 -0.0491  0.2276
   44MOL0     C 5997  10.030   1.625   4.666  0.4107 -0.2260 -0.7939
   44MOL0     C 5998   9.972   1.717   4.765  0.2853  0.3033 -0.3176
   44MOL0     C 5999   9.928   1.787   4.847 -0.0810  1.1929 -0.0659
   44MOL0     C 6000  10.176   1.358   4.074 -0.2831  0.1254 -0.4122
   44MOL0     C 6001  10.136   1.380   3.938 -1.2775 -0.3423 -0.7196
   44MOL0     C 6002  10.168   1.268   3.838  0.3372 -0.6282  0.3155
   44MOL0     H 6003  10.084   1.619   3.465  0.9029  1.3936 -0.7466
   44MOL0     H 6004   9.950   1.729   3.315  1.6608 -1.3730  0.7811
   44MOL0     H 6005   9.699   1.705   3.232 -4.5197 -0.3686 -1.1917
   44MOL0     H 6006   9.804   1.841   3.167  0.1506  0.4699 -0.0818
   44MOL0     H 6007   9.601   1.978   3.155 -1.5933  0.9991  0.0293
   44MOL0     H 6008   9.604   1.837   3.036 -0.6489  1.4086 -0.2454
   44MOL0     H 6009   9.451   1.697   3.137 -0.5126 -0.1760 -0.6306
   44MOL0     H 6010   9.461   1.792   3.288 -0.7567  2.1127 -0.0761
   44MOL0     H 6011   9.347   1.983   3.149  1.0329 -0.2719  0.8381
   44MOL0     H 6012   9.356   1.878   3.012 -1.1746  1.0422 -0.4859
   44MOL0     H 6013   9.194   1.735   3.085  1.0118 -0.5980  1.4141
   44MOL0     H 6014   9.148   1.909   3.094  0.8149  0.6213 -0.3886
   44MOL0     H 6015   9.218   1.730   3.332  2.6078  0.8791  0.3914
   44MOL0     H 6016   9.190   1.900   3.337 -0.5241 -2.3430  1.5953
   44MOL0     H 6017   8.947   1.873   3.268 -3.0089 -0.2051  1.3531
   44MOL0     H 6018   8.988   1.775   3.402  0.1421  0.2734  0.1208
   44MOL0     H 6019   8.861   1.667   3.192  0.2236 -0.2692  0.5836
   44MOL0     H 6020   8.984   1.700   3.090  1.2273  0.1379  0.5584
   44MOL0     H 6021   8.826   1.463   3.298  0.1495  3.6771 -1.3755
   44MOL0     H 6022   8.864   1.214   3.390 -0.4278 -1.3961  1.0198
   44MOL0     H 6023   9.043   1.162   3.395  0.6962 -0.2107 -2.1962
   44MOL0     H 6024   8.860   1.189   3.148  2.7490  0.4302 -3.5715
   44MOL0     H 6025   9.032   1.144   3.140 -1.0885 -0.0683 -3.2195
   44MOL0     H 6026   8.998   0.952   3.291  1.0923  1.3015 -0.2441
   44MOL0     H 6027   8.827   0.997   3.317 -1.5193 -0.7302 -0.1538
   44MOL0     H 6028   8.780   0.960   3.076 -1.8092 -3.0236 -0.9223
   44MOL0     H 6029   8.956   0.927   3.045 -1.2960 -0.3018 -0.7564
   44MOL0     H 6030   8.759   0.551   3.186  0.2254 -1.3034 -1.7440
   44MOL0     H 6031   8.844   0.309   3.398  0.6444 -2.8328  0.2010
   44MOL0     H 6032   8.891   0.234   3.247 -0.3728  0.8370 -2.1462
   44MOL0     H 6033   8.756   0.335   3.237 -0.7157  4.2343  2.0606
   44MOL0     H 6034   9.455   0.423   3.445  1.9807 -0.4612  3.0634
   44MOL0     H 6035   9.611   0.266   3.564  3.9412 -1.9131 -1.9367
   44MOL0     H 6036   9.506  -0.079   3.594 -2.0164  0.5850 -2.9352
   44MOL0     H 6037   9.581  -0.158   3.452  1.4724 -4.0416  2.6035
   44MOL0     H 6038   9.741  -0.268   3.570 -1.0349  2.1286 -3.9411
   44MOL0     H 6039   9.760  -0.141   3.690 -1.0224 -0.8844  2.5355
   44MOL0     H 6040   9.600  -0.381   3.731 -1.1729  0.8454  0.2371
   44MOL0     H 6041   9.489  -0.256   3.695  0.0011 -1.8908 -2.0867
   44MOL0     H 6042   9.701  -0.257   3.933  0.6252  0.4481 -0.6186
   44MOL0     H 6043   9.530  -0.298   3.934  2.1601  0.6503  1.1986
   44MOL0     H 6044   9.641  -0.030   3.844 -0.2691 -0.9843 -1.6607
   44MOL0     H 6045   9.475  -0.072   3.837  0.8657  0.1370 -2.4265
   44MOL0     H 6046   9.477  -0.077   4.091  0.3546 -4.4793 -1.8355
   44MOL0     H 6047   9.536   0.075   4.022 -1.1156 -0.0360  2.0684
   44MOL0     H 6048   9.778  -0.003   4.079 -1.1318  1.0084 -0.6028
   44MOL0     H 6049   9.708  -0.148   4.133  1.0042  0.4638 -0.2094
   44MOL0     H 6050   9.735  -0.034   4.354 -1.5562  1.0585  1.8278
   44MOL0     H 6051   9.574  -0.014   4.319 -0.2647  1.7758  2.5750
   44MOL0     H 6052   9.508  -0.041   3.284 -0.5846  0.0438  0.6154
   44MOL0     H 6053   9.358   0.113   3.180  0.0131 -2.8380  0.2585
   44MOL0     H 6054   9.240   0.578   3.190  0.9517  0.9028  1.3548
   44MOL0     H 6055   9.112   0.785   3.141 -3.9192  1.9750  1.6676
   44MOL0     H 6056   9.731   1.925   3.616  1.0933 -1.4222  2.9961
   44MOL0     H 6057   9.912   1.837   3.774  0.5353  0.1961 -0.3742
   44MOL0     H 6058   9.976   1.677   3.994  0.7619  1.4596 -1.8160
   44MOL0     H 6059  10.040   1.620   4.227 -0.1816 -0.7055  0.2743
   44MOL0     H 6060  10.209   1.451   4.497  0.3764  0.2726  0.1577
   44MOL0     H 6061  10.183   1.588   4.409  2.5043 -0.6063  2.8684
   44MOL0     H 6062   9.960   1.418   4.531 -3.5892  1.3310  0.9577
   44MOL0     H 6063   9.932   1.486   4.372  0.0512 -2.2964  0.6811
   44MOL0     H 6064   9.941   1.706   4.487 -1.6249  0.1405  0.3484
   44MOL0     H 6065   9.832   1.597   4.576 -0.2638 -0.0758 -0.3418
   44MOL0     H 6066  10.119   1.669   4.620  0.8284 -0.6317 -0.3794
   44MOL0     H 6067  10.052   1.532   4.718  1.9233 -0.7715 -2.3482
   44MOL0     H 6068   9.893   1.834   4.937  0.2355 -1.7281  1.7473
   44MOL0     H 6069  10.233   1.271   4.106 -1.1572  0.1266  1.2281
   44MOL0     H 6070  10.247   1.201   3.874 -0.6251 -2.6284 -1.1112
   44MOL0     H 6071  10.079   1.205   3.829 -0.3522  0.5171 -1.6340
   44MOL0     H 6072  10.191   1.314   3.741 -1.7765 -1.7870 -0.8060
   45MOL0     O 6073   2.184   0.733   5.431  0.4176 -0.4300  0.3550
   45MOL0     C 6074   2.094   0.749   5.516 -0.4393 -1.0101 -0.1353
   45MOL0     O 6075   1.999   0.654   5.534 -0.1530 -0.2186 -0.2359
   45MOL0     C 6076   1.896   0.656   5.620  0.1735 -0.0681  0.0420
   45MOL0     C 6077   1.758   0.662   5.585 -0.3506  0.5899 -0.5403
   45MOL0     C 6078   1.665   0.675   5.691 -0.7565 -0.9003 -0.3167
   45MOL0     C 6079   1.701   0.685   5.819 -0.2687 -0.4180 -0.5715
   45MOL0     O 6080   1.613   0.709   5.920  0.6130  0.3716  0.6056
   45MOL0     C 6081   1.481   0.652   5.922 -0.4070  0.4321  0.4605
   45MOL0     C 6082   1.443   0.639   6.073  0.5631  0.0740  0.6932
   45MOL0     C 6083   1.297   0.597   6.084 -0.7734  0.9461 -1.0283
   45MOL0     C 6084   1.255   0.584   6.234  0.0714 -0.2308  0.6515
   45MOL0     C 6085   1.101   0.543   6.249  1.0685 -1.1301 -0.1835
   45MOL0     C 6086   1.022   0.666   6.235  0.2013  0.2886  0.1233
   45MOL0     C 6087   0.886   0.654   6.290  0.2578 -0.3921 -0.1191
   45MOL0     C 6088   0.876   0.614   6.436  0.2784  0.3068 -0.0526
   45MOL0     N 6089   0.932   0.704   6.532  1.0572 -0.3591 -0.4831
   45MOL0     C 6090   1.058   0.709   6.596  0.4659  0.1678 -0.4194
   45MOL0     C 6091   1.038   0.805   6.698  0.7899 -0.5985 -0.2227
   45MOL0     C 6092   1.117   0.861   6.820  0.5571  0.0012  0.0035
   45MOL0     C 6093   1.157   1.009   6.805  1.4719  0.8923 -0.5710
   45MOL0     C 6094   1.297   1.041   6.856  0.8176  0.5976  0.2010
   45MOL0     C 6095   1.323   0.991   6.994  0.0119  0.2726 -0.2335
   45MOL0     O 6096   1.215   1.031   7.076  0.7242 -0.6445 -0.5824
   45MOL0     C 6097   1.207   0.964   7.197  0.1413 -0.3053  0.1688
   45MOL0     C 6098   1.305   0.883   7.255  0.5536 -0.3416 -0.5884
   45MOL0     C 6099   1.284   0.830   7.377  0.2951  1.1360 -0.3638
   45MOL0     C 6100   1.392   0.753   7.435  0.4796  1.0928  0.0571
   45MOL0     C 6101   1.167   0.866   7.446  0.7168  0.6563  0.2654
   45MOL0     C 6102   1.136   0.814   7.578 -0.3069  0.7950 -0.3667
   45MOL0     O 6103   1.120   0.915   7.674  0.8641 -0.4345 -0.4278
   45MOL0     C 6104   1.135   0.877   7.802 -0.3250  0.4207 -0.0208
   45MOL0     C 6105   1.257   0.831   7.846  0.1412  0.1431  0.3988
   45MOL0     C 6106   1.272   0.790   7.978  0.5165  0.3443  0.1882
   45MOL0     C 6107   1.173   0.816   8.071  0.7837  0.2919 -0.8712
   45MOL0     O 6108   1.195   0.777   8.204  0.1293 -0.6854 -0.0403
   45MOL0     C 6109   1.082   0.763   8.297  0.0183  0.4167  1.2213
   45MOL0     C 6110   1.112   0.737   8.442  0.6796  0.4418  0.4672
   45MOL0     C 6111   1.156   0.591   8.466  0.1502  0.0482 -1.0170
   45MOL0     C 6112   1.118   0.533   8.604  0.0306  1.2552 -0.1032
   45MOL0     C 6113   1.152   0.380   8.611 -0.3328 -0.5849  0.1202
   45MOL0     C 6114   1.121   0.318   8.747 -1.7039  0.9571  0.9592
   45MOL0     C 6115   1.129   0.163   8.758  0.0334 -0.8877  0.5405
   45MOL0     C 6116   1.120   0.108   8.900 -0.2991  0.2245 -0.4186
   45MOL0    Cl 6117   1.115  -0.069   8.897  0.1956 -0.0895 -0.6765
   45MOL0     C 6118   1.059   0.872   8.026  0.0535 -0.3596  0.1034
   45MOL0     C 6119   1.039   0.915   7.895  0.2538  0.0164 -0.6592
   45MOL0     O 6120   1.130   0.693   7.604 -0.0082 -0.1995  0.8250
   45MOL0     C 6121   1.071   0.953   7.394 -0.4731 -0.1577  0.2538
   45MOL0     C 6122   1.089   1.001   7.271  0.5221  0.2275  0.7446
   45MOL0     N 6123   0.916   0.863   6.677 -0.7973 -0.3343 -0.7045
   45MOL0     N 6124   0.849   0.800   6.593  0.2552  0.0131 -0.0456
   45MOL0     C 6125   1.838   0.680   5.849 -0.5296 -0.2522  0.5168
   45MOL0     C 6126   1.933   0.662   5.749  0.2888 -0.6677 -0.5423
   45MOL0     C 6127   2.080   0.881   5.569 -0.6023  0.8044  0.1129
   45MOL0     C 6128   1.981   0.976   5.512 -0.4653  0.1864 -0.8296
   45MOL0     C 6129   1.951   1.090   5.580 -0.1221 -0.7539 -0.2447
   45MOL0     C 6130   2.030   1.118   5.688 -0.1148 -0.0518  0.6538
   45MOL0     O 6131   1.992   1.231   5.766 -0.3686  0.2079  0.3012
   45MOL0     C 6132   2.012   1.227   5.908  0.0265 -0.2327 -0.3634
   45MOL0     C 6133   1.957   1.351   5.969 -0.2014 -0.4064  0.5336
   45MOL0     C 6134   2.037   1.471   5.945 -0.0225 -0.1418  0.1622
   45MOL0     C 6135   1.991   1.573   6.052  0.1007  0.8916 -0.1274
   45MOL0     C 6136   2.081   1.695   6.069  0.7446  0.4754 -0.2069
   45MOL0     C 6137   2.163   1.791   6.053  0.5839 -0.3702 -0.7520
   45MOL0     C 6138   2.137   1.037   5.730  0.2719  0.3664  0.1965
   45MOL0     C 6139   2.168   0.916   5.671 -0.0935  0.6113 -0.2589
   45MOL0     C 6140   2.286   0.830   5.713 -0.9357 -0.5294 -0.2184
   45MOL0     H 6141   1.724   0.653   5.482 -0.0934  0.1733 -0.5944
   45MOL0     H 6142   1.565   0.694   5.655 -1.1152  1.5121  1.6897
   45MOL0     H 6143   1.489   0.550   5.884 -0.4545 -0.0180  1.6082
   45MOL0     H 6144   1.408   0.708   5.862  1.8320  1.5464 -1.3695
   45MOL0     H 6145   1.505   0.556   6.109 -0.8137 -0.8643  0.9516
   45MOL0     H 6146   1.469   0.734   6.121 -2.2476  0.1760  2.2067
   45MOL0     H 6147   1.231   0.674   6.043  0.4607  3.5723  1.5552
   45MOL0     H 6148   1.272   0.500   6.039 -0.5166 -1.0463  2.7302
   45MOL0     H 6149   1.319   0.507   6.279  0.9288 -0.3390 -0.7171
   45MOL0     H 6150   1.272   0.673   6.295  0.7011 -0.3232  0.6155
   45MOL0     H 6151   1.088   0.511   6.353  0.1984 -2.2560 -0.6157
   45MOL0     H 6152   1.076   0.466   6.176  0.8165 -0.4872 -0.7860
   45MOL0     H 6153   1.060   0.748   6.296 -1.2180  0.6624  0.5285
   45MOL0     H 6154   1.017   0.700   6.130 -1.2892  3.7026  1.1420
   45MOL0     H 6155   0.827   0.586   6.227 -3.2739  2.4200 -0.2052
   45MOL0     H 6156   0.844   0.755   6.288  0.2716 -0.3088  1.8887
   45MOL0     H 6157   0.769   0.597   6.450  0.6512 -0.8155  1.7540
   45MOL0     H 6158   0.914   0.512   6.450 -3.2547 -0.9864  1.1683
   45MOL0     H 6159   1.154   0.667   6.568  1.1986  1.4020  0.1524
   45MOL0     H 6160   1.206   0.798   6.832 -0.1566 -0.9846  0.2296
   45MOL0     H 6161   1.057   0.837   6.907  0.1804  1.1819  0.0869
   45MOL0     H 6162   1.144   1.034   6.699 -2.6966 -4.5590 -1.7581
   45MOL0     H 6163   1.090   1.074   6.863 -1.1702 -1.8748 -0.2835
   45MOL0     H 6164   1.373   0.995   6.792 -0.6946 -1.1985 -0.3981
   45MOL0     H 6165   1.322   1.147   6.854  0.8292  0.7511  3.3534
   45MOL0     H 6166   1.333   0.882   6.992 -1.9930  0.0013  1.1413
   45MOL0     H 6167   1.411   1.038   7.037  0.1738 -0.1092 -0.1461
   45MOL0     H 6168   1.399   0.873   7.202  0.9470 -1.1692  0.2281
   45MOL0     H 6169   1.452   0.695   7.364  0.6649 -0.3469  1.3529
   45MOL0     H 6170   1.351   0.679   7.503 -3.4376 -0.9837 -4.0310
   45MOL0     H 6171   1.453   0.827   7.488  0.5542  1.5177 -0.6040
   45MOL0     H 6172   1.333   0.813   7.770 -1.6134  1.7172 -1.8617
   45MOL0     H 6173   1.366   0.754   8.018  0.6751  0.2515 -0.2588
   45MOL0     H 6174   1.033   0.861   8.291 -2.8013 -0.9724 -1.1324
   45MOL0     H 6175   1.007   0.694   8.256 -0.7810  1.2676  1.2042
   45MOL0     H 6176   1.202   0.786   8.482  1.1854 -0.2575  0.1994
   45MOL0     H 6177   1.031   0.767   8.509 -3.9734 -2.6103 -3.1679
   45MOL0     H 6178   1.264   0.573   8.455 -0.0521 -4.0137  1.3970
   45MOL0     H 6179   1.111   0.532   8.385 -0.8867  0.5105 -0.7880
   45MOL0     H 6180   1.012   0.549   8.629  0.0349 -1.3265  2.0944
   45MOL0     H 6181   1.172   0.581   8.686  1.1142  0.5126 -0.3725
   45MOL0     H 6182   1.088   0.332   8.536  0.1597 -0.0841 -0.6293
   45MOL0     H 6183   1.258   0.365   8.588  0.5686  2.4492  1.7280
   45MOL0     H 6184   1.021   0.350   8.777 -2.0320  0.6739  0.1844
   45MOL0     H 6185   1.198   0.357   8.815 -1.9898 -0.5057  2.1841
   45MOL0     H 6186   1.216   0.126   8.702  0.4318  2.0333 -0.9621
   45MOL0     H 6187   1.036   0.124   8.716 -0.5785 -1.0700  1.9918
   45MOL0     H 6188   1.044   0.150   8.967  1.4107 -0.1576  1.8619
   45MOL0     H 6189   1.213   0.134   8.950  0.9001 -0.7264 -2.0727
   45MOL0     H 6190   0.983   0.903   8.097 -0.9121 -2.0032 -0.1869
   45MOL0     H 6191   0.961   0.979   7.854  2.0505  1.4450 -1.9889
   45MOL0     H 6192   0.983   0.984   7.450 -0.2074  3.4076 -0.9906
   45MOL0     H 6193   1.004   1.055   7.231 -0.0985 -0.6428  0.8463
   45MOL0     H 6194   1.877   0.708   5.946 -0.8523 -0.5020  0.7248
   45MOL0     H 6195   2.036   0.665   5.783 -0.3763  0.5765  1.5272
   45MOL0     H 6196   1.905   0.948   5.440 -2.0676 -2.0649  1.5857
   45MOL0     H 6197   1.869   1.154   5.551  0.5909  0.4022  0.2062
   45MOL0     H 6198   1.968   1.135   5.948  0.9092 -1.2776 -1.6862
   45MOL0     H 6199   2.117   1.222   5.939 -0.6092 -3.5918  1.8025
   45MOL0     H 6200   1.944   1.323   6.075 -1.6636 -4.2927 -0.4967
   45MOL0     H 6201   1.855   1.360   5.931  0.6263 -2.4078 -2.4599
   45MOL0     H 6202   2.144   1.454   5.958  0.0973  1.3313  1.5303
   45MOL0     H 6203   2.033   1.526   5.850  3.4549  2.6970  1.4446
   45MOL0     H 6204   1.978   1.524   6.149 -3.6651  1.9011  0.0599
   45MOL0     H 6205   1.893   1.612   6.023 -0.0712  0.1536 -0.5537
   45MOL0     H 6206   2.241   1.864   6.050 -1.3528  1.8684  0.3665
   45MOL0     H 6207   2.188   1.073   5.819 -0.1791  3.7715 -0.7563
   45MOL0     H 6208   2.293   0.722   5.696 -0.0824 -0.9849  2.5231
   45MOL0     H 6209   2.381   0.869   5.677 -0.1619 -0.0845  2.1364
   45MOL0     H 6210   2.300   0.843   5.821  1.6651  0.5007 -0.6147
   46MOL0     O 6211   5.141   2.272  10.360 -0.3970 -0.5163 -0.5983
   46MOL0     C 6212   5.052   2.291  10.440 -0.1351  0.0686 -0.9064
   46MOL0     O 6213   5.007   2.199  10.532  0.1890  0.4101 -0.7449
   46MOL0     C 6214   5.066   2.094  10.594 -0.1796 -0.3957  0.4939
   46MOL0     C 6215   5.008   2.049  10.711 -0.0579 -0.1109 -1.3276
   46MOL0     C 6216   5.052   1.938  10.775 -0.7840 -0.4165 -0.1657
   46MOL0     C 6217   5.170   1.869  10.733 -0.0446  0.5014  0.6709
   46MOL0     O 6218   5.207   1.754  10.793 -0.1730 -0.5975  1.0783
   46MOL0     C 6219   5.289   1.752  10.906 -0.3826  0.1977 -1.0641
   46MOL0     C 6220   5.309   1.604  10.948  0.3402  0.6125 -0.9498
   46MOL0     C 6221   5.375   1.605  11.084  0.2693  0.4331 -0.6612
   46MOL0     C 6222   5.406   1.455  11.121 -0.6072 -0.6998 -0.4256
   46MOL0     C 6223   5.486   1.479  11.258 -0.1055 -0.3714  0.5702
   46MOL0     C 6224   5.549   1.338  11.291  0.6862  0.0156 -0.7028
   46MOL0     C 6225   5.611   1.348  11.422  0.3309  0.5648  0.9726
   46MOL0     C 6226   5.654   1.214  11.475 -0.3833 -0.8146  0.0010
   46MOL0     N 6227   5.773   1.152  11.418 -0.0872 -0.0297  1.5477
   46MOL0     C 6228   5.782   1.045  11.325  0.1793 -0.6981  0.6146
   46MOL0     C 6229   5.911   1.046  11.271 -0.0508 -0.6225 -0.4029
   46MOL0     C 6230   5.942   0.948  11.155  0.4623 -0.6682  0.6869
   46MOL0     C 6231   6.075   0.985  11.088  0.2852  0.6187 -0.6080
   46MOL0     C 6232   6.197   0.961  11.180 -0.5196 -0.1710 -0.6103
   46MOL0     C 6233   6.211   0.828  11.251 -0.6005  0.2523 -0.1895
   46MOL0     O 6234   6.351   0.806  11.269  0.2707 -0.3648  0.0524
   46MOL0     C 6235   6.419   0.766  11.162 -0.2021 -0.9932 -1.0639
   46MOL0     C 6236   6.381   0.722  11.035  0.2915 -0.0842 -0.5260
   46MOL0     C 6237   6.473   0.680  10.940 -0.0418 -0.1693  0.2064
   46MOL0     C 6238   6.419   0.648  10.798 -0.0184  0.5817 -0.6031
   46MOL0     C 6239   6.610   0.688  10.974  0.3741 -0.9785  0.2188
   46MOL0     C 6240   6.723   0.668  10.868 -0.0652  0.0260 -0.1204
   46MOL0     O 6241   6.838   0.720  10.902 -0.5470 -0.3796 -1.5172
   46MOL0     C 6242   6.952   0.736  10.831 -0.1355 -0.0666  1.0455
   46MOL0     C 6243   7.075   0.693  10.876  0.3851 -0.3946 -0.4826
   46MOL0     C 6244   7.188   0.701  10.799  0.7380  0.2645  0.2094
   46MOL0     C 6245   7.175   0.754  10.669  0.1123 -0.3376  0.8339
   46MOL0     O 6246   7.294   0.771  10.609 -0.1604  1.2294 -0.4586
   46MOL0     C 6247   7.299   0.761  10.465  0.3921 -0.1355  0.4147
   46MOL0     C 6248   7.371   0.880  10.404  0.5365  0.2937 -0.5903
   46MOL0     C 6249   7.302   1.010  10.432  0.2069 -0.0238 -0.2880
   46MOL0     C 6250   7.397   1.124  10.428 -0.2769 -0.1441  0.0051
   46MOL0     C 6251   7.438   1.173  10.284 -1.0651  0.2519 -0.4307
   46MOL0     C 6252   7.554   1.277  10.277 -0.2502 -0.1556  0.2014
   46MOL0     C 6253   7.680   1.213  10.219 -0.0800 -0.5844 -0.3380
   46MOL0     C 6254   7.794   1.312  10.194  0.2833  1.0468  0.6234
   46MOL0    Cl 6255   7.770   1.460  10.079 -0.0888  0.4554  0.0120
   46MOL0     C 6256   7.046   0.800  10.624  0.8127  0.2271  0.6897
   46MOL0     C 6257   6.935   0.789  10.704 -0.4397 -0.6492  0.3909
   46MOL0     O 6258   6.704   0.604  10.768  0.0092  0.1225  0.5300
   46MOL0     C 6259   6.643   0.725  11.106  0.6819  0.1569  1.1893
   46MOL0     C 6260   6.555   0.774  11.196  0.0435  0.1417  1.1822
   46MOL0     N 6261   5.971   1.167  11.329  0.7240 -0.0110 -0.9223
   46MOL0     N 6262   5.887   1.222  11.408 -0.3032 -0.5226 -0.4867
   46MOL0     C 6263   5.234   1.919  10.621  0.2802  0.2102  0.5044
   46MOL0     C 6264   5.170   2.017  10.539 -0.5066  0.1309 -0.0096
   46MOL0     C 6265   4.969   2.423  10.432  0.0499 -0.7538 -0.2490
   46MOL0     C 6266   4.866   2.442  10.533  0.4896  0.6111 -0.0420
   46MOL0     C 6267   4.783   2.552  10.531 -0.2434 -0.5762  0.6393
   46MOL0     C 6268   4.787   2.644  10.426 -0.1080  0.3630  0.4769
   46MOL0     O 6269   4.689   2.740  10.405  1.2538  0.0485  0.1165
   46MOL0     C 6270   4.549   2.723  10.446 -1.2118 -0.0625  0.3478
   46MOL0     C 6271   4.518   2.813  10.569 -0.6789 -0.1889  0.0460
   46MOL0     C 6272   4.373   2.800  10.611 -0.4046 -0.8009  0.4178
   46MOL0     C 6273   4.273   2.843  10.508 -0.1463 -0.1381 -0.8255
   46MOL0     C 6274   4.140   2.848  10.582 -0.7114 -0.8519 -0.6566
   46MOL0     C 6275   4.025   2.862  10.619 -0.3926 -0.4019  1.1623
   46MOL0     C 6276   4.892   2.621  10.334  0.4688  0.9769 -0.8304
   46MOL0     C 6277   4.987   2.520  10.339  0.1591 -0.6438 -1.0542
   46MOL0     C 6278   5.082   2.518  10.220 -0.0311 -0.3065 -0.5102
   46MOL0     H 6279   4.922   2.097  10.757 -0.0032 -3.9251  3.6555
   46MOL0     H 6280   4.999   1.904  10.863  1.3468 -2.1389  0.5361
   46MOL0     H 6281   5.235   1.802  10.987  0.7093 -3.4794  2.2185
   46MOL0     H 6282   5.381   1.807  10.885 -0.4570  0.4557 -0.7359
   46MOL0     H 6283   5.214   1.552  10.963  0.7687  0.0041 -0.2417
   46MOL0     H 6284   5.378   1.553  10.880 -0.2380  0.1348 -1.1865
   46MOL0     H 6285   5.467   1.664  11.084  1.5408 -1.4895 -0.3840
   46MOL0     H 6286   5.308   1.664  11.148  0.5669  1.3106 -1.1437
   46MOL0     H 6287   5.318   1.391  11.134 -1.1958  0.2889  0.6782
   46MOL0     H 6288   5.482   1.427  11.048 -0.1851  0.2634 -0.3681
   46MOL0     H 6289   5.427   1.510  11.345  1.7324 -1.6737  2.3784
   46MOL0     H 6290   5.569   1.550  11.248 -2.0029  1.8842 -0.2154
   46MOL0     H 6291   5.462   1.272  11.290 -1.0806  2.0518  2.6909
   46MOL0     H 6292   5.618   1.299  11.215 -3.0916 -1.9732 -3.4466
   46MOL0     H 6293   5.549   1.396  11.498 -0.2521  0.3841  0.6159
   46MOL0     H 6294   5.696   1.415  11.406  2.1487 -1.7125  0.4735
   46MOL0     H 6295   5.684   1.229  11.579 -0.6535  0.1641 -0.0485
   46MOL0     H 6296   5.577   1.136  11.477  0.6205 -1.8356  0.2395
   46MOL0     H 6297   5.694   0.993  11.288  1.2120 -1.8230 -0.3764
   46MOL0     H 6298   5.869   0.957  11.075  0.6972  2.3672  0.6643
   46MOL0     H 6299   5.948   0.845  11.191  1.8115 -0.0621  2.3179
   46MOL0     H 6300   6.097   0.921  11.002 -1.7513 -3.3136  1.5267
   46MOL0     H 6301   6.078   1.087  11.048  1.0566  0.8985  0.1360
   46MOL0     H 6302   6.283   0.992  11.120 -0.6245 -0.7350 -1.0579
   46MOL0     H 6303   6.189   1.036  11.259 -2.7228 -0.2197 -0.7295
   46MOL0     H 6304   6.158   0.829  11.347  2.7912 -2.4350  1.9522
   46MOL0     H 6305   6.156   0.751  11.196 -3.9415  2.4829 -0.2932
   46MOL0     H 6306   6.275   0.715  11.012  0.0252 -0.2564  0.6819
   46MOL0     H 6307   6.482   0.685  10.717 -0.1343  0.4461 -0.7561
   46MOL0     H 6308   6.319   0.691  10.787 -0.9018 -1.1051  0.4121
   46MOL0     H 6309   6.426   0.541  10.778 -0.0681  0.7014 -1.2636
   46MOL0     H 6310   7.077   0.672  10.982  0.7147  1.8320  0.0009
   46MOL0     H 6311   7.279   0.665  10.846  0.5908  1.2397  1.3079
   46MOL0     H 6312   7.361   0.672  10.453  2.9944  1.4715  1.0610
   46MOL0     H 6313   7.201   0.745  10.419  0.8845 -0.3223 -0.6146
   46MOL0     H 6314   7.467   0.876  10.457  1.2841 -2.8333 -1.9116
   46MOL0     H 6315   7.390   0.876  10.296  0.8691  1.2742 -0.5725
   46MOL0     H 6316   7.267   1.019  10.536  0.8189 -0.3232 -0.0539
   46MOL0     H 6317   7.223   1.028  10.358  0.8798  3.1410 -0.3743
   46MOL0     H 6318   7.491   1.088  10.471 -0.9347 -1.7087  0.1822
   46MOL0     H 6319   7.359   1.211  10.483 -0.9889 -0.4677  0.0296
   46MOL0     H 6320   7.468   1.090  10.220  1.1948  1.5555 -1.1919
   46MOL0     H 6321   7.348   1.223  10.246 -1.4780  1.7261  2.2295
   46MOL0     H 6322   7.588   1.310  10.375  1.1290 -0.7895 -0.0344
   46MOL0     H 6323   7.526   1.363  10.215 -1.9675  0.8152  2.2275
   46MOL0     H 6324   7.645   1.178  10.121 -0.9539 -0.4539 -0.0871
   46MOL0     H 6325   7.723   1.126  10.269  1.6690  0.8667  0.8131
   46MOL0     H 6326   7.881   1.253  10.162 -0.3970 -0.3997  1.3555
   46MOL0     H 6327   7.816   1.361  10.289  3.8689  1.6877 -0.3584
   46MOL0     H 6328   7.023   0.839  10.526  1.0855  0.6594  0.7952
   46MOL0     H 6329   6.831   0.813  10.684 -0.0426  1.2264  0.4074
   46MOL0     H 6330   6.747   0.714  11.138  0.9637  1.8267  0.9019
   46MOL0     H 6331   6.598   0.793  11.294 -2.3879  3.4841  1.7721
   46MOL0     H 6332   5.318   1.878  10.565  0.1647  1.9450 -1.0614
   46MOL0     H 6333   5.214   2.032  10.441 -2.1083  2.7813 -0.4183
   46MOL0     H 6334   4.843   2.369  10.610  2.5029  0.3006  0.3240
   46MOL0     H 6335   4.718   2.561  10.617 -1.6377 -4.1551  0.1214
   46MOL0     H 6336   4.483   2.741  10.360 -0.5314 -2.9327 -0.8721
   46MOL0     H 6337   4.524   2.618  10.464 -0.3664 -0.7654 -2.1714
   46MOL0     H 6338   4.541   2.915  10.538  2.8435 -0.4960  1.1561
   46MOL0     H 6339   4.579   2.784  10.656 -0.9159  1.6542  0.8767
   46MOL0     H 6340   4.365   2.694  10.635 -0.6480 -0.9271 -0.2260
   46MOL0     H 6341   4.349   2.864  10.697 -2.6975 -3.4236  1.8986
   46MOL0     H 6342   4.263   2.768  10.429  1.7727 -2.7952  1.2292
   46MOL0     H 6343   4.287   2.943  10.467 -2.4698 -0.4462 -2.5926
   46MOL0     H 6344   3.929   2.868  10.665 -0.8402 -2.6524  0.6806
   46MOL0     H 6345   4.899   2.696  10.257  2.7264  0.7624 -0.8860
   46MOL0     H 6346   5.038   2.445  10.153 -1.3566  1.1903 -1.3299
   46MOL0     H 6347   5.089   2.613  10.167  0.7024  1.2050  2.0884
   46MOL0     H 6348   5.180   2.483  10.256 -2.0669 -4.4017  1.8126
   47MOL0     O 6349   4.196   5.650   5.638  1.2844 -0.4227 -0.2614
   47MOL0     C 6350   4.141   5.694   5.539 -1.1590 -0.5198 -0.2787
   47MOL0     O 6351   4.035   5.785   5.544 -0.1203 -0.2716  0.1797
   47MOL0     C 6352   4.001   5.861   5.654  0.2348 -0.0788 -0.7749
   47MOL0     C 6353   3.905   5.961   5.625  0.4703 -1.1633  0.0025
   47MOL0     C 6354   3.860   6.060   5.715  0.4120 -0.3785  0.6919
   47MOL0     C 6355   3.920   6.061   5.843  0.0639  1.5427 -0.6330
   47MOL0     O 6356   3.886   6.158   5.931  0.6910  0.2051 -0.7532
   47MOL0     C 6357   3.877   6.125   6.074 -0.9581 -0.0646  0.2114
   47MOL0     C 6358   3.772   6.201   6.151  0.0337  0.3637  0.8893
   47MOL0     C 6359   3.635   6.156   6.109  0.6313 -0.7259  0.3007
   47MOL0     C 6360   3.523   6.248   6.172 -0.9032 -0.3044 -0.1253
   47MOL0     C 6361   3.433   6.162   6.260 -0.1425  0.2198 -1.2986
   47MOL0     C 6362   3.519   6.106   6.388  0.3701 -0.2174  0.1681
   47MOL0     C 6363   3.424   6.058   6.502 -0.6355  0.0589  0.4721
   47MOL0     C 6364   3.339   5.941   6.444 -0.6103  0.2092  0.3575
   47MOL0     N 6365   3.244   5.881   6.541  0.5416 -0.4775 -0.0501
   47MOL0     C 6366   3.167   5.944   6.633  0.5586 -0.0887 -0.0742
   47MOL0     C 6367   3.114   5.844   6.713  1.4024 -0.4488  0.0666
   47MOL0     C 6368   3.005   5.863   6.816  0.8562  0.5139 -0.5093
   47MOL0     C 6369   3.068   5.947   6.931  0.3895  0.2043  0.6697
   47MOL0     C 6370   3.176   5.860   7.004  0.6121  0.3986  0.0980
   47MOL0     C 6371   3.227   5.939   7.128  0.8344 -0.1405  0.5065
   47MOL0     O 6372   3.301   6.049   7.073 -0.5107  0.3865  0.1054
   47MOL0     C 6373   3.409   6.033   6.993  0.3465 -0.5189 -0.2713
   47MOL0     C 6374   3.461   6.131   6.917 -0.6651  0.2680  0.3656
   47MOL0     C 6375   3.585   6.106   6.849 -0.0640 -0.3995 -1.1760
   47MOL0     C 6376   3.638   6.216   6.758 -0.0595  0.0866 -0.9948
   47MOL0     C 6377   3.652   5.986   6.862 -0.7357 -0.6984 -0.0093
   47MOL0     C 6378   3.776   5.955   6.800 -0.1844  0.3670  0.6543
   47MOL0     O 6379   3.792   6.001   6.672 -0.9315 -0.0321  0.1796
   47MOL0     C 6380   3.919   6.010   6.624  1.2444 -0.2428  0.5411
   47MOL0     C 6381   4.047   5.965   6.673  0.2083 -0.6624 -0.8167
   47MOL0     C 6382   4.165   5.953   6.593  0.1109  0.3759 -0.1316
   47MOL0     C 6383   4.148   5.988   6.463  0.2230 -0.5001 -0.1518
   47MOL0     O 6384   4.250   5.960   6.377 -1.3291  0.1172  0.1534
   47MOL0     C 6385   4.216   5.883   6.258 -0.4219 -0.0779 -0.7960
   47MOL0     C 6386   4.230   5.733   6.297  0.3470  0.0172 -0.8001
   47MOL0     C 6387   4.259   5.641   6.179 -0.3401 -0.7651  0.6548
   47MOL0     C 6388   4.137   5.654   6.083 -0.6846  0.0199  0.3766
   47MOL0     C 6389   4.135   5.538   5.980  0.0086  0.1724 -0.8926
   47MOL0     C 6390   3.980   5.526   5.936 -0.2031 -0.1748 -0.4201
   47MOL0     C 6391   3.988   5.413   5.825 -0.3921  0.3191 -0.1555
   47MOL0     C 6392   3.841   5.369   5.790 -0.5842  0.5444  0.4767
   47MOL0    Cl 6393   3.837   5.205   5.723  0.0231 -0.0482 -0.0205
   47MOL0     C 6394   4.033   6.045   6.414  0.2081  0.7694 -0.3494
   47MOL0     C 6395   3.920   6.060   6.498  0.5618 -0.5664 -0.3860
   47MOL0     O 6396   3.861   5.898   6.869 -0.1393 -0.3467  0.2506
   47MOL0     C 6397   3.593   5.885   6.934  0.7346 -0.0384 -0.2702
   47MOL0     C 6398   3.470   5.906   6.995 -0.5346  0.2233 -0.1843
   47MOL0     N 6399   3.150   5.717   6.659  0.8570 -0.6711  1.3551
   47MOL0     N 6400   3.228   5.740   6.559 -0.0431  0.6137  0.7299
   47MOL0     C 6401   4.022   5.963   5.878  0.3068  0.0501  0.3856
   47MOL0     C 6402   4.050   5.864   5.786 -0.3666 -0.0337  0.7722
   47MOL0     C 6403   4.193   5.652   5.401 -0.9626 -0.5720  0.1102
   47MOL0     C 6404   4.197   5.759   5.303 -0.5827  0.4277  0.1670
   47MOL0     C 6405   4.252   5.728   5.174  0.0639 -0.7581 -0.6570
   47MOL0     C 6406   4.297   5.604   5.138 -0.7031 -0.2745 -0.5063
   47MOL0     O 6407   4.349   5.590   5.007  0.1510 -0.3763 -0.3971
   47MOL0     C 6408   4.473   5.517   4.988 -0.1752  0.2022 -0.8412
   47MOL0     C 6409   4.595   5.566   5.067 -0.0545 -0.7128  0.5058
   47MOL0     C 6410   4.718   5.480   5.048 -0.5248 -0.3326 -0.1220
   47MOL0     C 6411   4.717   5.338   5.107 -0.5447  0.2214 -0.2913
   47MOL0     C 6412   4.694   5.347   5.259 -0.0235  0.6138 -0.0878
   47MOL0     C 6413   4.682   5.357   5.378  0.3807 -0.2310  0.0183
   47MOL0     C 6414   4.292   5.506   5.233  0.8471 -0.4898  0.2310
   47MOL0     C 6415   4.246   5.526   5.364  0.5130  0.5240 -0.0500
   47MOL0     C 6416   4.245   5.402   5.453  0.5970 -0.9072  0.1619
   47MOL0     H 6417   3.871   5.962   5.522 -2.4665 -0.6546  0.8706
   47MOL0     H 6418   3.794   6.140   5.681 -1.9431 -1.8542  1.5034
   47MOL0     H 6419   3.971   6.133   6.130 -1.6113  1.0645  1.1922
   47MOL0     H 6420   3.843   6.021   6.068  0.1558 -0.3692 -1.7525
   47MOL0     H 6421   3.776   6.201   6.261 -0.7228 -0.3215  0.9266
   47MOL0     H 6422   3.795   6.304   6.123  1.2984 -0.4370 -1.2475
   47MOL0     H 6423   3.627   6.148   6.000 -0.4425 -0.6711  0.3673
   47MOL0     H 6424   3.621   6.052   6.140 -1.6953 -1.6265 -3.1909
   47MOL0     H 6425   3.566   6.325   6.236  0.3823  0.2823 -1.6466
   47MOL0     H 6426   3.471   6.289   6.085 -0.1958 -2.1721 -1.4920
   47MOL0     H 6427   3.386   6.080   6.206 -0.6153 -2.6240  2.9432
   47MOL0     H 6428   3.344   6.209   6.304  0.2445  2.9266 -3.1566
   47MOL0     H 6429   3.590   6.033   6.350  1.7018  1.7964 -1.4281
   47MOL0     H 6430   3.568   6.196   6.427  0.3359 -0.4290  0.7105
   47MOL0     H 6431   3.369   6.146   6.535 -0.9279  0.4019 -0.8874
   47MOL0     H 6432   3.486   6.018   6.583  1.6774  0.6657 -0.9074
   47MOL0     H 6433   3.279   5.982   6.362  0.1953 -0.1101 -0.4158
   47MOL0     H 6434   3.397   5.854   6.412 -1.9457 -1.5159  2.3862
   47MOL0     H 6435   3.132   6.046   6.625 -2.9792 -1.2651 -2.4520
   47MOL0     H 6436   2.960   5.768   6.847 -0.9095  1.9713  1.8191
   47MOL0     H 6437   2.925   5.927   6.776 -0.8319 -1.5949 -0.7143
   47MOL0     H 6438   3.116   6.039   6.894  0.0261  0.7537  1.5172
   47MOL0     H 6439   2.983   5.971   6.996  0.6173  1.0239  0.6874
   47MOL0     H 6440   3.128   5.773   7.049 -2.6433  1.7898 -0.3721
   47MOL0     H 6441   3.253   5.819   6.938  2.6943  0.0349  2.5731
   47MOL0     H 6442   3.140   5.977   7.183 -0.1646 -1.5639 -0.0310
   47MOL0     H 6443   3.286   5.884   7.202  1.6542  1.3410  1.0057
   47MOL0     H 6444   3.408   6.225   6.901  1.5466  1.1031 -2.9679
   47MOL0     H 6445   3.614   6.200   6.652 -0.7837 -3.1450 -0.4606
   47MOL0     H 6446   3.748   6.209   6.757 -0.1357 -1.8212 -1.6753
   47MOL0     H 6447   3.597   6.313   6.785 -0.1294 -0.8639  2.9252
   47MOL0     H 6448   4.060   5.939   6.778  4.0263 -0.2123 -1.0486
   47MOL0     H 6449   4.257   5.904   6.625  0.4957  0.9919 -0.2664
   47MOL0     H 6450   4.123   5.912   6.209 -0.8834  2.1306  1.2056
   47MOL0     H 6451   4.300   5.915   6.195 -1.5369  2.4596 -1.0941
   47MOL0     H 6452   4.305   5.719   6.375  2.1337  1.6712 -2.1187
   47MOL0     H 6453   4.141   5.697   6.348  1.1107  0.1255  0.6575
   47MOL0     H 6454   4.294   5.540   6.202 -0.1212 -0.2210  2.9094
   47MOL0     H 6455   4.342   5.687   6.124 -0.2444  0.4810  1.7964
   47MOL0     H 6456   4.145   5.753   6.039  3.4774 -0.6564 -0.7911
   47MOL0     H 6457   4.046   5.648   6.144 -0.3448 -0.4538  0.8536
   47MOL0     H 6458   4.195   5.568   5.894 -1.9129  0.5945 -2.1728
   47MOL0     H 6459   4.172   5.441   6.013  0.2918  0.6641  0.3036
   47MOL0     H 6460   3.940   5.616   5.890 -3.3699 -1.4689 -0.4080
   47MOL0     H 6461   3.940   5.496   6.033  0.9682  0.5985  0.3357
   47MOL0     H 6462   4.044   5.324   5.858 -1.1407  0.0886  0.5169
   47MOL0     H 6463   4.037   5.453   5.736  0.6446 -3.5932 -1.5349
   47MOL0     H 6464   3.806   5.438   5.713 -1.0917 -2.8192 -2.5455
   47MOL0     H 6465   3.766   5.376   5.869 -1.6419  0.8672 -0.5347
   47MOL0     H 6466   4.022   6.075   6.311 -0.5999  0.5913 -0.3204
   47MOL0     H 6467   3.828   6.110   6.468 -0.4517 -1.0179  1.7598
   47MOL0     H 6468   3.653   5.800   6.966 -0.2621 -0.2989  1.0061
   47MOL0     H 6469   3.441   5.820   7.054  1.7979 -1.1875 -0.9814
   47MOL0     H 6470   4.065   5.954   5.977  0.5050 -0.2123  0.2779
   47MOL0     H 6471   4.116   5.781   5.810  4.4717  3.2127 -0.0427
   47MOL0     H 6472   4.151   5.856   5.320 -1.4125  0.5720 -2.3971
   47MOL0     H 6473   4.258   5.809   5.103 -0.5624 -1.5809 -1.6741
   47MOL0     H 6474   4.466   5.421   5.039  4.0729  0.9522  1.6706
   47MOL0     H 6475   4.501   5.500   4.884  2.2670 -0.1564 -0.1875
   47MOL0     H 6476   4.575   5.564   5.175 -0.9612  1.9893  0.4765
   47MOL0     H 6477   4.622   5.669   5.043  2.1854 -1.0313  1.4355
   47MOL0     H 6478   4.748   5.471   4.943 -2.3863 -0.2947 -0.6859
   47MOL0     H 6479   4.801   5.528   5.101  0.6968 -2.2442 -0.2473
   47MOL0     H 6480   4.811   5.291   5.077 -1.0303 -0.3537 -0.9169
   47MOL0     H 6481   4.635   5.285   5.058  1.0419 -1.2122 -1.5454
   47MOL0     H 6482   4.677   5.357   5.485 -0.7145  4.1767  0.1621
   47MOL0     H 6483   4.319   5.406   5.201 -1.7372 -1.1681 -0.0019
   47MOL0     H 6484   4.282   5.311   5.406  1.5707 -1.1250  1.3016
   47MOL0     H 6485   4.307   5.438   5.535  2.2697 -2.5828 -0.2958
   47MOL0     H 6486   4.143   5.397   5.491 -0.4876 -1.2374 -2.5794
   48MOL0     O 6487   6.818   3.149   5.525 -0.7038 -0.8069  0.5781
   48MOL0     C 6488   6.724   3.104   5.464 -0.0858  0.8429 -0.2040
   48MOL0     O 6489   6.663   2.980   5.482  0.6535  0.0139  0.0938
   48MOL0     C 6490   6.727   2.880   5.554  0.2839 -0.0040  0.1645
   48MOL0     C 6491   6.653   2.813   5.655 -0.1021 -0.1427 -0.0172
   48MOL0     C 6492   6.710   2.698   5.707 -0.1387  0.0579 -0.4497
   48MOL0     C 6493   6.838   2.651   5.660  0.5977 -0.2884  0.2512
   48MOL0     O 6494   6.888   2.525   5.689 -0.7212 -0.1622 -0.6011
   48MOL0     C 6495   6.801   2.412   5.679  0.0194 -0.8044  0.4624
   48MOL0     C 6496   6.887   2.291   5.647  0.8459 -0.0309  0.1447
   48MOL0     C 6497   6.985   2.296   5.530 -0.3559 -0.3189 -0.6347
   48MOL0     C 6498   6.925   2.323   5.392  0.2162 -0.7006 -0.4924
   48MOL0     C 6499   6.858   2.201   5.326  0.3783  0.7179  0.2667
   48MOL0     C 6500   6.871   2.215   5.176  0.6526  0.2185  1.1529
   48MOL0     C 6501   6.805   2.095   5.127  0.0936 -0.3524 -0.2569
   48MOL0     C 6502   6.848   2.058   4.991  0.2427 -0.2463 -1.0716
   48MOL0     N 6503   6.798   1.928   4.942  0.1550  0.1192 -0.2625
   48MOL0     C 6504   6.724   1.904   4.829 -0.1317  0.2427 -0.2555
   48MOL0     C 6505   6.740   1.775   4.803 -0.2026 -0.6172 -0.1780
   48MOL0     C 6506   6.703   1.697   4.677  0.2465 -0.5093 -0.6616
   48MOL0     C 6507   6.555   1.661   4.664  0.4988 -0.6917 -0.5717
   48MOL0     C 6508   6.508   1.606   4.531  0.0797  0.1680  0.5928
   48MOL0     C 6509   6.478   1.709   4.410  0.3589  0.3588  0.0729
   48MOL0     O 6510   6.466   1.635   4.285 -0.7072  0.6497  0.0566
   48MOL0     C 6511   6.430   1.701   4.166 -0.0473  0.1011  0.1835
   48MOL0     C 6512   6.347   1.809   4.165  0.3691 -0.2973 -0.2793
   48MOL0     C 6513   6.304   1.871   4.047 -0.2003  0.2906  0.1366
   48MOL0     C 6514   6.192   1.972   4.059  0.0048 -0.6084 -0.0820
   48MOL0     C 6515   6.352   1.832   3.917 -0.0230  0.0923  0.2494
   48MOL0     C 6516   6.313   1.894   3.786  1.1487 -0.1232 -0.7645
   48MOL0     O 6517   6.303   1.801   3.682 -0.4592  0.1617 -0.6020
   48MOL0     C 6518   6.245   1.853   3.570  1.1823  0.3066  0.4451
   48MOL0     C 6519   6.109   1.901   3.575  0.5577  0.2616 -0.4025
   48MOL0     C 6520   6.046   1.917   3.448 -0.2830  0.2236 -0.3750
   48MOL0     C 6521   6.115   1.905   3.331  0.7457 -0.0284 -0.0110
   48MOL0     O 6522   6.040   1.922   3.224  0.5889  0.0907 -0.3821
   48MOL0     C 6523   6.088   1.902   3.094  0.5112  0.5135  0.4092
   48MOL0     C 6524   6.120   2.034   3.032 -0.3299 -0.3375  0.1967
   48MOL0     C 6525   6.192   2.007   2.898 -0.5285 -1.2017 -0.8067
   48MOL0     C 6526   6.190   2.129   2.801  0.2511 -0.2688  0.1937
   48MOL0     C 6527   6.241   2.098   2.665  0.2159 -0.4146  0.4291
   48MOL0     C 6528   6.235   2.226   2.575 -0.5652  1.3660 -0.2917
   48MOL0     C 6529   6.217   2.191   2.429 -0.2652  0.5788  0.1213
   48MOL0     C 6530   6.202   2.313   2.341  0.3730 -0.6102 -0.9017
   48MOL0    Cl 6531   6.220   2.278   2.174 -0.5811 -0.0030 -0.1902
   48MOL0     C 6532   6.251   1.871   3.321  0.3347  0.6885 -0.4172
   48MOL0     C 6533   6.310   1.838   3.446 -0.5230  0.1545  0.2668
   48MOL0     O 6534   6.267   2.008   3.790 -0.5318  0.2436  0.8439
   48MOL0     C 6535   6.424   1.715   3.916 -0.2298  0.2530 -0.4154
   48MOL0     C 6536   6.462   1.655   4.039 -0.2668 -0.6600 -0.2211
   48MOL0     N 6537   6.827   1.716   4.899  0.1956  0.0105 -0.0563
   48MOL0     N 6538   6.867   1.813   4.972  0.2876  0.3515  0.6836
   48MOL0     C 6539   6.911   2.727   5.567  0.5406  0.1024  1.1899
   48MOL0     C 6540   6.854   2.844   5.519  0.4574 -0.1362  1.0261
   48MOL0     C 6541   6.656   3.194   5.379 -0.0853 -0.6129  0.3443
   48MOL0     C 6542   6.605   3.319   5.420  0.1443 -0.5120 -0.0540
   48MOL0     C 6543   6.560   3.404   5.314 -0.0328  0.2876  0.1204
   48MOL0     C 6544   6.537   3.354   5.188 -0.1059  0.1261  0.1999
   48MOL0     O 6545   6.488   3.437   5.092 -0.1034  0.7943  0.9276
   48MOL0     C 6546   6.343   3.428   5.086  0.5383 -0.2991  0.0707
   48MOL0     C 6547   6.283   3.553   5.016  0.2623 -0.0878  0.6512
   48MOL0     C 6548   6.322   3.692   5.073  1.0636 -0.4220  0.9545
   48MOL0     C 6549   6.216   3.789   5.025  0.0301  0.0146  0.4963
   48MOL0     C 6550   6.276   3.869   4.921  0.3725  0.3301 -0.6267
   48MOL0     C 6551   6.326   3.941   4.839  0.2552 -0.1753  0.3869
   48MOL0     C 6552   6.591   3.231   5.155  1.1900 -0.5968  0.9494
   48MOL0     C 6553   6.654   3.152   5.243  0.4305 -0.1255 -0.2601
   48MOL0     C 6554   6.717   3.018   5.200 -0.0582  0.4049 -1.0996
   48MOL0     H 6555   6.560   2.866   5.675  2.0702  4.2597 -0.5010
   48MOL0     H 6556   6.666   2.640   5.787 -1.0018 -0.6065 -1.3781
   48MOL0     H 6557   6.725   2.437   5.604 -0.9849  0.3540  1.8075
   48MOL0     H 6558   6.763   2.398   5.781  0.8219  3.8922  1.6509
   48MOL0     H 6559   6.948   2.260   5.732 -0.5202  0.2339  1.2562
   48MOL0     H 6560   6.817   2.210   5.625 -1.4849  1.4098  1.7459
   48MOL0     H 6561   7.043   2.387   5.547  0.9909 -1.4132  0.8506
   48MOL0     H 6562   7.045   2.205   5.538  1.2050  0.7328 -0.0919
   48MOL0     H 6563   6.859   2.410   5.395 -0.4365 -1.1532  3.2902
   48MOL0     H 6564   7.005   2.360   5.327 -0.2892 -0.5588 -1.0396
   48MOL0     H 6565   6.753   2.181   5.351 -0.0315  0.2093 -1.6846
   48MOL0     H 6566   6.907   2.110   5.364  0.5854  0.7804  0.1468
   48MOL0     H 6567   6.815   2.300   5.138 -1.4398 -1.6016 -0.0882
   48MOL0     H 6568   6.977   2.224   5.152  0.4263 -0.9287 -0.4303
   48MOL0     H 6569   6.695   2.102   5.125  0.0519 -0.9045  0.0051
   48MOL0     H 6570   6.841   2.011   5.186 -0.1219 -1.1253 -1.2006
   48MOL0     H 6571   6.835   2.136   4.915  1.8754  0.7542 -0.3766
   48MOL0     H 6572   6.957   2.056   4.995  0.3587 -0.7390 -3.3555
   48MOL0     H 6573   6.667   1.973   4.769  1.2806  2.8429  1.1829
   48MOL0     H 6574   6.757   1.602   4.677  2.6473  0.7803 -0.0571
   48MOL0     H 6575   6.727   1.765   4.594 -1.1230  2.7024  1.3842
   48MOL0     H 6576   6.528   1.585   4.738 -1.7169 -3.4795 -3.9283
   48MOL0     H 6577   6.493   1.749   4.682  0.7553 -0.4206 -0.9807
   48MOL0     H 6578   6.591   1.538   4.507  1.0714  1.9066 -1.2491
   48MOL0     H 6579   6.429   1.532   4.545  4.0795 -5.1725 -1.4218
   48MOL0     H 6580   6.380   1.750   4.433 -0.6655 -1.2313 -1.2410
   48MOL0     H 6581   6.564   1.777   4.405  4.4772 -4.3160 -1.1461
   48MOL0     H 6582   6.301   1.832   4.260 -0.4432 -1.9183 -0.2522
   48MOL0     H 6583   6.120   1.971   3.977  0.1570  0.7019 -0.2453
   48MOL0     H 6584   6.238   2.071   4.056 -3.1973  1.1961  3.0589
   48MOL0     H 6585   6.148   1.958   4.158  3.0781 -1.2449  1.3011
   48MOL0     H 6586   6.059   1.918   3.670  0.5866  1.0211 -0.5232
   48MOL0     H 6587   5.946   1.958   3.446  0.6454  2.8179  0.8645
   48MOL0     H 6588   6.160   1.822   3.076 -3.3714 -2.7521 -2.3035
   48MOL0     H 6589   6.001   1.876   3.033 -1.6293  0.8648  3.1087
   48MOL0     H 6590   6.026   2.088   3.015 -1.9528 -2.8380  0.7722
   48MOL0     H 6591   6.186   2.099   3.091 -1.4872 -1.1456  2.4890
   48MOL0     H 6592   6.146   1.926   2.840  1.0248 -3.2393  0.6096
   48MOL0     H 6593   6.299   1.992   2.916  0.5194  2.4736 -2.8730
   48MOL0     H 6594   6.261   2.205   2.836 -1.0562 -0.5708  3.9305
   48MOL0     H 6595   6.086   2.162   2.800  0.6145  0.9387 -0.9870
   48MOL0     H 6596   6.344   2.060   2.669  0.3323  0.0091  1.9924
   48MOL0     H 6597   6.169   2.023   2.628 -0.2029 -1.2654  2.8148
   48MOL0     H 6598   6.328   2.281   2.591  0.2568 -0.2155  0.6668
   48MOL0     H 6599   6.153   2.295   2.599  1.0181  3.6486 -1.1486
   48MOL0     H 6600   6.132   2.124   2.409  1.7139 -2.0896  0.0415
   48MOL0     H 6601   6.307   2.136   2.402 -0.5121  0.0057  0.4414
   48MOL0     H 6602   6.273   2.392   2.368  0.7076 -0.5127 -2.0235
   48MOL0     H 6603   6.107   2.362   2.366  0.0782 -1.2252 -0.8035
   48MOL0     H 6604   6.303   1.854   3.227  0.4485 -5.6351  0.3484
   48MOL0     H 6605   6.413   1.803   3.450 -0.8322 -0.8010  0.1928
   48MOL0     H 6606   6.465   1.678   3.823 -0.8683  0.5884 -0.8434
   48MOL0     H 6607   6.523   1.565   4.035 -0.1330 -0.6401  1.1549
   48MOL0     H 6608   7.005   2.694   5.525 -0.9166  0.6950 -3.0046
   48MOL0     H 6609   6.897   2.905   5.439  0.5434 -3.7578 -1.9516
   48MOL0     H 6610   6.598   3.341   5.526 -0.8258  0.0874 -0.2278
   48MOL0     H 6611   6.545   3.511   5.326  0.1488  0.8066 -3.3284
   48MOL0     H 6612   6.320   3.337   5.030 -2.2007 -2.8503  4.6652
   48MOL0     H 6613   6.302   3.420   5.187  3.2339  1.3370  1.3989
   48MOL0     H 6614   6.175   3.535   5.014 -0.1620  2.1173 -2.1427
   48MOL0     H 6615   6.311   3.553   4.911 -2.1108  2.7330 -0.1137
   48MOL0     H 6616   6.333   3.700   5.181  0.1982  2.5172  0.9117
   48MOL0     H 6617   6.417   3.721   5.028 -0.1976  0.5184 -1.2934
   48MOL0     H 6618   6.200   3.855   5.110  1.1808  1.6049 -0.4562
   48MOL0     H 6619   6.125   3.741   4.989 -2.3148  3.3509  1.4740
   48MOL0     H 6620   6.368   4.009   4.767  0.1083  2.7366  2.8464
   48MOL0     H 6621   6.581   3.194   5.054 -0.3564  1.0815  0.4430
   48MOL0     H 6622   6.639   2.944   5.222  0.6972 -0.7556 -2.2011
   48MOL0     H 6623   6.745   3.006   5.095 -1.7424  1.1546 -1.6692
   48MOL0     H 6624   6.800   2.991   5.266 -0.9553 -0.5352 -0.3057
   49MOL0     O 6625  10.896   3.214   4.821 -0.1480  0.3540 -0.8969
   49MOL0     C 6626  10.974   3.246   4.733  0.2710  0.3408 -1.2049
   49MOL0     O 6627  11.015   3.372   4.711  0.1422  0.1020 -0.0206
   49MOL0     C 6628  10.949   3.480   4.774 -0.6879  0.4741  0.8224
   49MOL0     C 6629  10.985   3.520   4.900 -0.7390 -1.3703  0.0049
   49MOL0     C 6630  10.912   3.622   4.963  0.6767  0.0277  0.2106
   49MOL0     C 6631  10.805   3.686   4.898  0.4025 -0.9122  0.1502
   49MOL0     O 6632  10.739   3.787   4.966  0.2806 -0.0383  0.2701
   49MOL0     C 6633  10.596   3.765   4.987  0.5406 -0.7436  0.6173
   49MOL0     C 6634  10.550   3.681   5.108  0.8918  0.1248 -0.6249
   49MOL0     C 6635  10.562   3.537   5.069 -0.8694  0.2241 -0.3444
   49MOL0     C 6636  10.559   3.451   5.204 -0.9796 -0.5104  0.0068
   49MOL0     C 6637  10.569   3.303   5.183 -0.5551  0.3088 -0.0978
   49MOL0     C 6638  10.553   3.228   5.313  0.3497  0.4232 -0.5587
   49MOL0     C 6639  10.620   3.094   5.311 -1.7081  0.0239 -0.3635
   49MOL0     C 6640  10.568   2.991   5.206 -0.1928 -0.0820 -1.5004
   49MOL0     N 6641  10.426   2.961   5.219 -1.1545 -0.1916 -0.4781
   49MOL0     C 6642  10.369   2.898   5.336  0.5934 -0.5659  0.9490
   49MOL0     C 6643  10.237   2.906   5.315 -0.2951 -0.3665  0.1969
   49MOL0     C 6644  10.144   2.850   5.413  0.4358  0.4148 -1.3193
   49MOL0     C 6645   9.990   2.874   5.391 -0.0400 -0.5695  0.5110
   49MOL0     C 6646   9.962   3.034   5.414 -0.0010  0.1884  0.0292
   49MOL0     C 6647   9.832   3.087   5.358  0.3909 -0.3209  0.6621
   49MOL0     O 6648   9.754   3.129   5.469  0.0448  0.5324  0.1374
   49MOL0     C 6649   9.642   3.049   5.501  0.4206 -0.9094  0.4859
   49MOL0     C 6650   9.615   3.025   5.633 -0.9470  0.8974 -0.3336
   49MOL0     C 6651   9.492   2.956   5.668 -0.1467  0.8837  0.6876
   49MOL0     C 6652   9.468   2.955   5.814 -0.0066 -1.4665  0.4462
   49MOL0     C 6653   9.415   2.896   5.562  0.4287 -0.9193  0.3530
   49MOL0     C 6654   9.293   2.819   5.585  0.6779 -0.7165  0.8236
   49MOL0     O 6655   9.241   2.763   5.466 -0.4529 -0.8500  0.1027
   49MOL0     C 6656   9.151   2.664   5.466 -0.2348 -0.6077  0.6175
   49MOL0     C 6657   9.165   2.566   5.368  0.0582 -0.1387  0.7594
   49MOL0     C 6658   9.069   2.475   5.346 -0.7410 -0.6394  0.8954
   49MOL0     C 6659   8.959   2.465   5.434  0.7767  1.0787 -0.2386
   49MOL0     O 6660   8.864   2.360   5.428  0.0728  0.6211  0.0481
   49MOL0     C 6661   8.792   2.349   5.306  0.5597  0.4175 -1.0200
   49MOL0     C 6662   8.671   2.449   5.320 -0.4881 -0.3404  0.0952
   49MOL0     C 6663   8.564   2.385   5.413 -0.5391 -1.4034 -0.3270
   49MOL0     C 6664   8.417   2.434   5.379 -0.2195  0.3695 -0.7829
   49MOL0     C 6665   8.330   2.390   5.493 -0.0253  0.4855  0.0739
   49MOL0     C 6666   8.197   2.383   5.450  0.7105  1.0770  0.0602
   49MOL0     C 6667   8.115   2.314   5.564  0.4890  0.3058  0.1685
   49MOL0     C 6668   7.971   2.297   5.517 -0.0291 -0.2991 -0.5080
   49MOL0    Cl 6669   7.904   2.463   5.499  0.2429  0.0362  0.0789
   49MOL0     C 6670   8.941   2.553   5.534  0.7887 -0.0516 -0.7579
   49MOL0     C 6671   9.038   2.650   5.553  0.8909 -1.6756  0.0703
   49MOL0     O 6672   9.254   2.794   5.697  0.5275  0.0087  0.1939
   49MOL0     C 6673   9.453   2.927   5.433  0.3854  0.1371  0.2216
   49MOL0     C 6674   9.559   3.012   5.393  0.4583  0.8246 -0.4427
   49MOL0     N 6675  10.217   2.949   5.186 -0.4593  0.1650  0.0330
   49MOL0     N 6676  10.332   2.977   5.126 -0.3982  0.7489 -0.4424
   49MOL0     C 6677  10.788   3.655   4.762 -0.3933  1.0743  0.2444
   49MOL0     C 6678  10.849   3.550   4.702  0.2091  0.5528  0.9458
   49MOL0     C 6679  11.034   3.149   4.645 -1.0172  0.4704  0.0361
   49MOL0     C 6680  11.026   3.011   4.694 -0.6977 -0.3694 -0.1758
   49MOL0     C 6681  11.068   2.896   4.620 -0.0472 -0.1571 -0.5472
   49MOL0     C 6682  11.123   2.913   4.495 -0.8856  0.1940 -0.1361
   49MOL0     O 6683  11.148   2.799   4.426  0.1114 -0.0384 -0.3231
   49MOL0     C 6684  11.107   2.787   4.289  0.9231  0.2340 -1.0101
   49MOL0     C 6685  10.959   2.781   4.256 -0.2912  0.0448 -0.1259
   49MOL0     C 6686  10.870   2.682   4.331  0.2423 -0.1614 -0.4293
   49MOL0     C 6687  10.726   2.668   4.277 -0.1982  0.0020  0.8329
   49MOL0     C 6688  10.648   2.789   4.307  0.7068 -0.3273  0.6017
   49MOL0     C 6689  10.607   2.899   4.339 -0.0072 -0.0729  0.7954
   49MOL0     C 6690  11.127   3.042   4.439 -0.4444 -0.7463 -0.5453
   49MOL0     C 6691  11.088   3.161   4.516 -0.4364 -0.1604 -0.0631
   49MOL0     C 6692  11.091   3.293   4.443 -0.0132  0.4245 -0.3786
   49MOL0     H 6693  11.064   3.473   4.958 -0.5536  1.2417  2.0616
   49MOL0     H 6694  10.940   3.646   5.065 -0.4123 -1.2153  0.8257
   49MOL0     H 6695  10.545   3.726   4.898 -1.2173  2.1528  0.2237
   49MOL0     H 6696  10.555   3.864   5.010  2.4335 -0.0744  1.3193
   49MOL0     H 6697  10.604   3.711   5.199  0.4499  0.3903 -0.4458
   49MOL0     H 6698  10.445   3.702   5.131  1.1417  1.8976 -0.9991
   49MOL0     H 6699  10.487   3.508   4.995  1.9659 -0.0581 -3.3654
   49MOL0     H 6700  10.656   3.502   5.025 -1.7637  0.3882 -2.5461
   49MOL0     H 6701  10.644   3.492   5.259 -0.6489  0.0711 -0.9154
   49MOL0     H 6702  10.476   3.466   5.274  1.1891  0.5422  2.5346
   49MOL0     H 6703  10.665   3.277   5.137 -1.1644 -2.5504  0.0360
   49MOL0     H 6704  10.497   3.270   5.107 -1.1524 -3.1104  1.7562
   49MOL0     H 6705  10.597   3.278   5.399 -0.4668 -0.7323  0.5612
   49MOL0     H 6706  10.446   3.215   5.330  0.0242  0.8523 -2.1305
   49MOL0     H 6707  10.616   3.050   5.411  1.9008  0.9970  0.3423
   49MOL0     H 6708  10.728   3.102   5.297 -2.0565  2.5836 -2.4308
   49MOL0     H 6709  10.593   3.004   5.100  0.1985 -1.1736 -1.5610
   49MOL0     H 6710  10.617   2.898   5.238  1.6830  1.7605  1.4582
   49MOL0     H 6711  10.413   2.863   5.429 -3.0012 -0.3957  2.8866
   49MOL0     H 6712  10.168   2.888   5.512  1.9366  2.5071 -2.3966
   49MOL0     H 6713  10.169   2.744   5.412  3.1630  0.9960 -2.0975
   49MOL0     H 6714   9.975   2.863   5.283  0.5269  0.4567  0.3124
   49MOL0     H 6715   9.929   2.807   5.452  2.0351 -0.2421  3.1071
   49MOL0     H 6716   9.969   3.040   5.523 -2.2713 -3.2910  0.5306
   49MOL0     H 6717  10.039   3.093   5.363 -0.2519  0.3649 -0.1474
   49MOL0     H 6718   9.838   3.167   5.284 -3.3506 -0.2071  0.2834
   49MOL0     H 6719   9.797   3.001   5.299  4.0788 -0.2581 -1.9562
   49MOL0     H 6720   9.682   3.071   5.705 -2.6150 -1.4961  2.9605
   49MOL0     H 6721   9.539   3.025   5.859 -0.6319  0.0936 -0.8887
   49MOL0     H 6722   9.485   2.851   5.844 -1.2018 -2.5109 -2.2228
   49MOL0     H 6723   9.369   2.995   5.835  0.7086  1.4662 -1.3283
   49MOL0     H 6724   9.260   2.566   5.315  1.2591 -1.8621  2.7525
   49MOL0     H 6725   9.088   2.423   5.253  0.0229  2.4331 -0.7885
   49MOL0     H 6726   8.852   2.381   5.220  3.6020 -0.4416  0.6743
   49MOL0     H 6727   8.758   2.246   5.294 -1.6889  0.7925  1.1841
   49MOL0     H 6728   8.698   2.548   5.359  1.2172 -0.3277 -1.0038
   49MOL0     H 6729   8.626   2.457   5.221  1.7301 -2.8655 -1.2365
   49MOL0     H 6730   8.594   2.411   5.515  0.6233 -0.4452 -0.8935
   49MOL0     H 6731   8.573   2.276   5.407  3.3833 -1.1324 -2.0615
   49MOL0     H 6732   8.383   2.384   5.288 -0.5301 -2.4253  0.7806
   49MOL0     H 6733   8.402   2.542   5.375  0.0898  0.4824  0.5791
   49MOL0     H 6734   8.362   2.293   5.532 -0.5986 -0.3652 -1.4906
   49MOL0     H 6735   8.334   2.452   5.583  0.2177  2.0329 -0.9627
   49MOL0     H 6736   8.185   2.328   5.356 -0.2827 -1.2574  1.4633
   49MOL0     H 6737   8.155   2.483   5.438 -0.2555  0.5564 -1.1459
   49MOL0     H 6738   8.123   2.359   5.663 -0.7721  0.2804  0.2918
   49MOL0     H 6739   8.158   2.214   5.568  0.5509  0.2572 -1.1410
   49MOL0     H 6740   7.916   2.245   5.595  1.1284  0.2079  0.6783
   49MOL0     H 6741   7.963   2.242   5.422  1.6594  1.3503 -1.6821
   49MOL0     H 6742   8.861   2.536   5.605  0.2640 -2.6372 -1.8309
   49MOL0     H 6743   9.019   2.728   5.626 -1.5827 -2.3698  0.2680
   49MOL0     H 6744   9.394   2.903   5.345  1.0026  2.8282 -1.0369
   49MOL0     H 6745   9.586   3.043   5.293  1.2653  0.3552 -0.3814
   49MOL0     H 6746  10.702   3.701   4.714  0.7506  0.2778 -2.7919
   49MOL0     H 6747  10.830   3.515   4.601  1.3546  0.3162  0.7938
   49MOL0     H 6748  10.989   3.009   4.796 -2.0823  1.5943 -0.5740
   49MOL0     H 6749  11.059   2.792   4.651  0.7748  0.0008  0.2629
   49MOL0     H 6750  11.149   2.873   4.236 -0.8600  0.1340 -2.6859
   49MOL0     H 6751  11.151   2.697   4.244 -0.2106 -0.8819  0.0282
   49MOL0     H 6752  10.944   2.768   4.149  0.4356  2.9102 -0.6486
   49MOL0     H 6753  10.920   2.883   4.261  0.0038  0.3635 -2.8110
   49MOL0     H 6754  10.908   2.579   4.340 -1.7132 -0.9674 -0.8093
   49MOL0     H 6755  10.861   2.726   4.431  3.2138 -1.1092  0.3592
   49MOL0     H 6756  10.683   2.582   4.331 -0.6763 -0.1525  0.2210
   49MOL0     H 6757  10.733   2.637   4.172 -1.6275 -1.6419  1.1669
   49MOL0     H 6758  10.575   2.999   4.359  1.9660  0.2932  2.5949
   49MOL0     H 6759  11.186   3.068   4.352  2.5462 -0.4157  1.4490
   49MOL0     H 6760  11.139   3.271   4.347 -0.7355 -1.3709 -0.3647
   49MOL0     H 6761  10.994   3.342   4.430 -0.4945 -0.6830 -1.0418
   49MOL0     H 6762  11.158   3.358   4.500 -0.1908  2.4369 -2.3455
   50MOL0     O 6763   4.181  10.210   5.804  0.1917  0.2439 -0.5101
   50MOL0     C 6764   4.303  10.199   5.800  0.3715  0.1883 -0.4130
   50MOL0     O 6765   4.368  10.090   5.769  0.0267 -0.4648  0.3043
   50MOL0     C 6766   4.308   9.970   5.778  0.2601  0.8077 -0.1322
   50MOL0     C 6767   4.360   9.874   5.868 -0.0592  0.0146  0.0479
   50MOL0     C 6768   4.310   9.747   5.874 -0.0474 -0.9290  0.3858
   50MOL0     C 6769   4.216   9.702   5.777 -0.8128 -0.7940  0.4399
   50MOL0     O 6770   4.186   9.574   5.787  0.3811  0.4518  0.1229
   50MOL0     C 6771   4.080   9.515   5.714  0.6409 -0.8986  0.4973
   50MOL0     C 6772   4.121   9.492   5.566  0.2436  0.1942  0.3116
   50MOL0     C 6773   4.017   9.441   5.470  0.3463 -0.6330  0.1712
   50MOL0     C 6774   3.885   9.526   5.462 -1.1177  0.3686 -0.2358
   50MOL0     C 6775   3.776   9.466   5.544 -0.8677 -0.0387  0.9242
   50MOL0     C 6776   3.650   9.550   5.544  1.8318  1.2699  0.1635
   50MOL0     C 6777   3.566   9.507   5.663 -0.0202 -0.0981 -0.0768
   50MOL0     C 6778   3.448   9.607   5.710 -0.0225  0.3399 -0.4836
   50MOL0     N 6779   3.338   9.603   5.611  0.3567  0.0131  0.5643
   50MOL0     C 6780   3.255   9.708   5.570 -0.5460  1.2371 -0.1516
   50MOL0     C 6781   3.153   9.653   5.508  0.6267 -0.6260  0.5173
   50MOL0     C 6782   3.043   9.735   5.457  0.8405 -1.0891  0.3334
   50MOL0     C 6783   2.962   9.825   5.554  0.3253 -0.0032  0.1698
   50MOL0     C 6784   2.833   9.895   5.495 -1.1033  0.6878  1.1246
   50MOL0     C 6785   2.743   9.808   5.402  0.9182  0.0558 -0.3445
   50MOL0     O 6786   2.686   9.729   5.497  0.0582 -0.2626 -0.1314
   50MOL0     C 6787   2.701   9.598   5.466  0.7738  0.6456 -0.3156
   50MOL0     C 6788   2.654   9.547   5.346 -0.4463 -0.9373 -0.1479
   50MOL0     C 6789   2.660   9.408   5.316 -1.2893 -0.1698 -0.5000
   50MOL0     C 6790   2.609   9.368   5.176 -0.9128 -0.4229  0.2964
   50MOL0     C 6791   2.724   9.322   5.415 -0.1129 -0.0809 -1.2082
   50MOL0     C 6792   2.740   9.176   5.400  0.0456 -0.0185  0.1682
   50MOL0     O 6793   2.653   9.115   5.313  0.0754  0.8232  0.2230
   50MOL0     C 6794   2.662   8.975   5.269 -0.2847  1.2816 -0.1095
   50MOL0     C 6795   2.574   8.917   5.172 -0.2015  0.0351 -0.4867
   50MOL0     C 6796   2.575   8.778   5.142 -0.4088 -0.8391 -0.1544
   50MOL0     C 6797   2.662   8.688   5.196 -0.4350  1.2515  0.9015
   50MOL0     O 6798   2.645   8.552   5.179  0.3049 -0.0883  0.1481
   50MOL0     C 6799   2.603   8.504   5.046  0.2069 -1.2080 -0.7404
   50MOL0     C 6800   2.645   8.371   5.020 -0.0519  0.6721  0.7104
   50MOL0     C 6801   2.569   8.276   5.102  0.3383  0.6841 -0.6516
   50MOL0     C 6802   2.576   8.138   5.047 -0.0630  0.8466 -0.0506
   50MOL0     C 6803   2.516   8.036   5.139 -0.0768  0.4024 -0.0170
   50MOL0     C 6804   2.504   7.900   5.070 -0.2198  0.2211  0.7919
   50MOL0     C 6805   2.427   7.805   5.161  0.1918 -0.2940 -0.1574
   50MOL0     C 6806   2.530   7.735   5.258 -0.2677  0.2182  0.6403
   50MOL0    Cl 6807   2.449   7.626   5.371  0.3085  0.4763 -0.2486
   50MOL0     C 6808   2.752   8.747   5.292  0.5712 -0.1665 -0.4510
   50MOL0     C 6809   2.740   8.878   5.339  0.5002  0.5033  0.4065
   50MOL0     O 6810   2.822   9.117   5.470 -0.1366 -0.7723 -0.3922
   50MOL0     C 6811   2.770   9.380   5.537  0.4261 -0.2009 -0.0690
   50MOL0     C 6812   2.769   9.517   5.563  0.5072 -1.5760  0.0876
   50MOL0     N 6813   3.180   9.513   5.500  0.3355 -0.2714 -0.4161
   50MOL0     N 6814   3.289   9.480   5.563 -0.7862 -0.8395  0.3265
   50MOL0     C 6815   4.149   9.802   5.691 -0.5013 -0.4589  1.0047
   50MOL0     C 6816   4.204   9.930   5.685 -0.0630 -0.2963 -0.9937
   50MOL0     C 6817   4.381  10.316   5.845 -0.3637  0.1413  0.3765
   50MOL0     C 6818   4.506  10.297   5.912 -0.8958 -0.5790  1.0763
   50MOL0     C 6819   4.594  10.401   5.951 -0.0545  0.3841  0.2513
   50MOL0     C 6820   4.555  10.530   5.920  0.2902 -0.1754  0.2920
   50MOL0     O 6821   4.649  10.621   5.962 -0.5879 -0.0464 -0.0289
   50MOL0     C 6822   4.620  10.760   5.945 -0.1355 -0.4310  0.0529
   50MOL0     C 6823   4.729  10.847   6.005  0.1450  0.5422  0.1276
   50MOL0     C 6824   4.736  10.984   5.950  0.6879 -0.5783 -0.3196
   50MOL0     C 6825   4.822  10.983   5.817 -1.0146  0.2025  0.2284
   50MOL0     C 6826   4.840  11.108   5.746 -1.0085 -0.3841  0.4064
   50MOL0     C 6827   4.840  11.210   5.679 -0.2379  0.8830 -0.5518
   50MOL0     C 6828   4.429  10.553   5.867 -0.3606  0.2069  0.3535
   50MOL0     C 6829   4.347  10.450   5.820 -0.5474 -0.3270 -0.1265
   50MOL0     C 6830   4.221  10.486   5.744 -0.1723  0.3693  0.5709
   50MOL0     H 6831   4.431   9.908   5.943 -1.4590  3.0707  0.1323
   50MOL0     H 6832   4.354   9.663   5.927 -0.9157 -1.5984  0.0821
   50MOL0     H 6833   3.990   9.578   5.714 -0.4163 -1.7759 -5.5274
   50MOL0     H 6834   4.044   9.417   5.747 -0.1526 -1.6953 -2.3945
   50MOL0     H 6835   4.167   9.579   5.519 -0.0429 -0.7845 -1.9187
   50MOL0     H 6836   4.202   9.419   5.574  0.7368  0.8119  1.0645
   50MOL0     H 6837   4.062   9.426   5.371 -3.0828 -0.2128 -1.5858
   50MOL0     H 6838   3.984   9.344   5.507  1.4198 -1.4788 -1.0111
   50MOL0     H 6839   3.906   9.628   5.497  0.9875  0.5179 -1.7507
   50MOL0     H 6840   3.851   9.516   5.358  3.2566 -4.1219 -1.5942
   50MOL0     H 6841   3.809   9.445   5.646 -0.0858 -2.1698  0.2966
   50MOL0     H 6842   3.771   9.364   5.504  1.4747  1.2717 -3.3616
   50MOL0     H 6843   3.656   9.659   5.540 -0.6913  1.4799  0.4738
   50MOL0     H 6844   3.599   9.519   5.453  0.5093 -1.3205  1.6791
   50MOL0     H 6845   3.634   9.508   5.749  0.1019  3.2919 -0.0466
   50MOL0     H 6846   3.522   9.408   5.650 -0.7999  0.1073  0.8777
   50MOL0     H 6847   3.420   9.564   5.807  3.6740  0.3154  0.7375
   50MOL0     H 6848   3.489   9.707   5.726 -0.8379  0.4259  1.2085
   50MOL0     H 6849   3.272   9.814   5.589 -2.2302  1.6910 -0.9968
   50MOL0     H 6850   2.978   9.671   5.397 -0.2279  0.0226  0.2589
   50MOL0     H 6851   3.086   9.809   5.388 -1.3359  3.6848  3.5257
   50MOL0     H 6852   2.928   9.768   5.640  1.2128 -1.4896 -0.4206
   50MOL0     H 6853   3.020   9.915   5.579 -0.2185 -0.3634  3.0889
   50MOL0     H 6854   2.775   9.947   5.572 -3.4008  0.3299 -0.2776
   50MOL0     H 6855   2.875   9.976   5.433 -1.4954 -0.6412 -0.9899
   50MOL0     H 6856   2.666   9.866   5.351  0.4494  0.9803  1.3573
   50MOL0     H 6857   2.797   9.758   5.320 -0.7506 -0.2484 -1.3146
   50MOL0     H 6858   2.613   9.624   5.281  2.6172 -0.3638 -1.5769
   50MOL0     H 6859   2.617   9.451   5.106 -0.2552 -0.7166  0.0159
   50MOL0     H 6860   2.507   9.327   5.173 -0.5733 -1.4361  1.7111
   50MOL0     H 6861   2.671   9.290   5.131  0.8315 -1.0144  3.4582
   50MOL0     H 6862   2.503   8.990   5.134 -0.1162 -0.1634 -1.0371
   50MOL0     H 6863   2.496   8.751   5.073 -0.1025  0.5729 -1.0996
   50MOL0     H 6864   2.494   8.512   5.039  0.3387 -0.8070 -2.7499
   50MOL0     H 6865   2.631   8.562   4.958  2.0382 -0.7943  0.0679
   50MOL0     H 6866   2.639   8.353   4.913 -1.5303  1.0957  0.6955
   50MOL0     H 6867   2.749   8.362   5.051  0.2313 -2.1532 -0.7583
   50MOL0     H 6868   2.466   8.308   5.114  0.6170  1.6413 -0.7822
   50MOL0     H 6869   2.609   8.279   5.204  2.1581  3.0879 -1.3548
   50MOL0     H 6870   2.679   8.108   5.025  1.6186  3.4181  3.3732
   50MOL0     H 6871   2.523   8.144   4.951 -1.9399 -0.4547  0.8431
   50MOL0     H 6872   2.575   8.029   5.231  0.8152 -2.0216 -0.7093
   50MOL0     H 6873   2.412   8.063   5.156 -0.0270  0.5672  0.0365
   50MOL0     H 6874   2.601   7.856   5.044  0.7667  1.8393  1.5731
   50MOL0     H 6875   2.447   7.915   4.978 -0.2306  2.2632  1.0767
   50MOL0     H 6876   2.385   7.730   5.094 -0.7203  1.0932 -1.2186
   50MOL0     H 6877   2.355   7.858   5.225  2.6811  4.4309 -0.8091
   50MOL0     H 6878   2.581   7.812   5.317 -3.5116 -0.1447  4.2508
   50MOL0     H 6879   2.610   7.682   5.205 -1.3378 -0.3065 -0.5159
   50MOL0     H 6880   2.829   8.684   5.335  0.4331  0.0045  0.0596
   50MOL0     H 6881   2.821   8.897   5.409  2.2361 -2.4068 -0.6164
   50MOL0     H 6882   2.821   9.319   5.611  0.8534 -0.6290 -0.6987
   50MOL0     H 6883   2.810   9.566   5.650 -2.4823  0.4451  0.5267
   50MOL0     H 6884   4.076   9.773   5.618 -1.1171  2.3006  0.3878
   50MOL0     H 6885   4.180  10.004   5.609  0.7015  2.1646  1.0158
   50MOL0     H 6886   4.526  10.192   5.930  0.6933 -0.7703 -1.3311
   50MOL0     H 6887   4.682  10.391   6.013  1.6032 -1.0362 -2.1456
   50MOL0     H 6888   4.615  10.780   5.837  1.4376  0.1680  0.0637
   50MOL0     H 6889   4.514  10.771   5.972 -0.5894 -0.6390 -1.5171
   50MOL0     H 6890   4.828  10.801   5.994  0.0962  0.4810 -0.0573
   50MOL0     H 6891   4.714  10.854   6.113 -1.7385  2.6846 -0.2019
   50MOL0     H 6892   4.633  11.020   5.943 -0.2448 -3.0792 -0.5176
   50MOL0     H 6893   4.790  11.051   6.017 -1.8697  3.0440 -1.5657
   50MOL0     H 6894   4.783  10.904   5.752  2.6644  0.4624 -2.6269
   50MOL0     H 6895   4.920  10.940   5.840 -1.4510 -0.1287  1.5226
   50MOL0     H 6896   4.834  11.295   5.614 -0.8278  0.2166 -1.3953
   50MOL0     H 6897   4.406  10.656   5.841  0.6348  0.2268 -0.5090
   50MOL0     H 6898   4.213  10.446   5.643 -1.3160  0.0653  0.7669
   50MOL0     H 6899   4.136  10.444   5.800  0.8324 -1.5373  0.7544
   50MOL0     H 6900   4.211  10.595   5.749  1.5498  0.6661 -1.1895
   51MOL0     O 6901   1.795   7.979   4.471  1.0005  0.5235  0.0257
   51MOL0     C 6902   1.778   8.040   4.576 -1.1858 -0.2577 -0.0770
   51MOL0     O 6903   1.850   8.158   4.611 -0.7194  0.2151  0.1843
   51MOL0     C 6904   1.957   8.196   4.532 -0.0127 -0.3542 -0.0645
   51MOL0     C 6905   1.944   8.274   4.425 -0.7485  0.1677  0.5949
   51MOL0     C 6906   2.050   8.294   4.336 -0.1472 -0.8264 -0.1141
   51MOL0     C 6907   2.176   8.243   4.353  0.1764  0.6441 -0.4534
   51MOL0     O 6908   2.282   8.258   4.274  0.5393  0.5522 -0.1310
   51MOL0     C 6909   2.254   8.308   4.142 -0.0002  1.5571 -0.0715
   51MOL0     C 6910   2.378   8.281   4.055 -0.2149 -0.0519  0.1249
   51MOL0     C 6911   2.486   8.373   4.111  0.4652 -0.1821  0.3334
   51MOL0     C 6912   2.598   8.386   4.017 -0.7414 -0.0849  0.6390
   51MOL0     C 6913   2.681   8.509   4.050  0.7413  0.3779  0.4705
   51MOL0     C 6914   2.800   8.527   3.956  0.0091  0.0943 -0.4919
   51MOL0     C 6915   2.876   8.650   3.999  0.0359 -0.1135 -0.1171
   51MOL0     C 6916   2.902   8.743   3.879 -0.2637 -0.0386 -0.3356
   51MOL0     N 6917   2.976   8.683   3.767 -0.1431  0.1466  0.9219
   51MOL0     C 6918   3.022   8.760   3.665  0.0493 -0.6032 -0.5038
   51MOL0     C 6919   3.065   8.667   3.571  0.4779  0.5668  0.1635
   51MOL0     C 6920   3.119   8.710   3.432 -0.5788  0.5011  0.1153
   51MOL0     C 6921   3.014   8.787   3.351  0.5432  0.5068  0.8569
   51MOL0     C 6922   3.055   8.783   3.200 -0.4054  0.0138 -0.3047
   51MOL0     C 6923   2.985   8.895   3.115 -0.8804 -0.2495  0.6601
   51MOL0     O 6924   3.043   8.893   2.987 -0.6766  0.0419  0.3827
   51MOL0     C 6925   2.979   8.982   2.899  0.2794  0.0347 -0.4767
   51MOL0     C 6926   3.014   9.112   2.903 -0.1260 -0.5876  0.1615
   51MOL0     C 6927   2.953   9.207   2.814  0.3479 -0.5984  0.4121
   51MOL0     C 6928   3.003   9.343   2.819  0.0793 -0.5061 -0.4257
   51MOL0     C 6929   2.852   9.167   2.729 -1.0962  0.1740 -0.6096
   51MOL0     C 6930   2.774   9.258   2.639 -0.8461 -1.1765 -0.0829
   51MOL0     O 6931   2.679   9.201   2.563 -0.5696  0.1162  0.4773
   51MOL0     C 6932   2.600   9.264   2.472  0.0918  0.0875 -0.6198
   51MOL0     C 6933   2.641   9.340   2.362  0.4242  0.0371  1.1228
   51MOL0     C 6934   2.548   9.379   2.264 -1.0263  0.2004  0.7306
   51MOL0     C 6935   2.410   9.361   2.275  0.5359  0.7317 -1.1323
   51MOL0     O 6936   2.327   9.407   2.178  0.3441 -0.1202  0.4398
   51MOL0     C 6937   2.191   9.451   2.221  1.1028 -0.2092  0.8832
   51MOL0     C 6938   2.130   9.536   2.111  0.3220 -0.1758 -0.0640
   51MOL0     C 6939   2.208   9.648   2.059  0.6669 -1.1524 -0.0912
   51MOL0     C 6940   2.242   9.750   2.168  0.3113  0.0008 -0.4373
   51MOL0     C 6941   2.308   9.890   2.114  0.5058  0.0101 -0.4765
   51MOL0     C 6942   2.428   9.859   2.035 -0.2936  0.4939  0.5488
   51MOL0     C 6943   2.515   9.979   2.003 -0.1367  0.4777  0.8123
   51MOL0     C 6944   2.560  10.048   2.130 -0.8771  0.0184  0.1039
   51MOL0    Cl 6945   2.704  10.151   2.106  0.2950  0.0694 -0.0887
   51MOL0     C 6946   2.369   9.285   2.391  0.8019  0.7055  0.8605
   51MOL0     C 6947   2.464   9.238   2.484  0.4631  0.4624  0.6822
   51MOL0     O 6948   2.793   9.379   2.632 -0.8027 -0.5932 -0.3539
   51MOL0     C 6949   2.813   9.032   2.735 -0.3377  0.4146  0.4269
   51MOL0     C 6950   2.875   8.942   2.817  0.4725 -0.0331 -0.4867
   51MOL0     N 6951   3.061   8.537   3.629  0.4369 -0.6418 -0.5503
   51MOL0     N 6952   3.001   8.547   3.748  0.7996 -0.1120 -0.1956
   51MOL0     C 6953   2.192   8.165   4.469 -0.1517  0.5916  0.2914
   51MOL0     C 6954   2.079   8.137   4.551  0.2986 -0.4152 -0.2141
   51MOL0     C 6955   1.671   7.995   4.660 -0.3024  0.0825 -0.1992
   51MOL0     C 6956   1.607   7.869   4.625  0.0192 -0.0619 -0.1084
   51MOL0     C 6957   1.494   7.813   4.695 -0.5782 -0.2467  1.4464
   51MOL0     C 6958   1.428   7.891   4.787 -0.4101  0.8810 -0.0530
   51MOL0     O 6959   1.307   7.866   4.839  0.2788  0.3352 -0.3510
   51MOL0     C 6960   1.259   7.736   4.834 -0.2894 -0.3132  1.0468
   51MOL0     C 6961   1.115   7.726   4.885 -0.2232  0.9732  0.0910
   51MOL0     C 6962   1.106   7.731   5.037 -0.0784 -0.2333 -0.5253
   51MOL0     C 6963   0.955   7.693   5.081  0.2015 -0.3955 -0.0892
   51MOL0     C 6964   0.955   7.567   5.156  0.6662  0.5652 -0.4887
   51MOL0     C 6965   0.957   7.464   5.220 -0.2481  0.4711 -0.6482
   51MOL0     C 6966   1.485   8.009   4.821 -1.0103  0.0767  0.1030
   51MOL0     C 6967   1.598   8.061   4.760 -0.3487 -0.3513  0.3748
   51MOL0     C 6968   1.619   8.217   4.787  0.2652  0.1618  0.4255
   51MOL0     H 6969   1.844   8.313   4.413 -0.1552  1.9194  1.1105
   51MOL0     H 6970   2.017   8.335   4.242  0.8589  0.5860  0.1151
   51MOL0     H 6971   2.225   8.413   4.152  2.4672  2.0173  4.9595
   51MOL0     H 6972   2.175   8.259   4.084 -1.7450  3.6987  0.3776
   51MOL0     H 6973   2.408   8.175   4.052 -1.5532 -0.4142 -1.9403
   51MOL0     H 6974   2.357   8.297   3.949  0.6721 -5.1417 -1.1328
   51MOL0     H 6975   2.445   8.474   4.103 -1.5331 -0.6225  3.4045
   51MOL0     H 6976   2.519   8.338   4.209 -1.2957  0.2260  1.1106
   51MOL0     H 6977   2.666   8.301   4.015 -2.5677 -1.6023 -1.4172
   51MOL0     H 6978   2.546   8.408   3.923 -2.1356  1.7737  1.7639
   51MOL0     H 6979   2.706   8.508   4.157  2.1689  3.2930  0.2686
   51MOL0     H 6980   2.618   8.593   4.022  0.1425 -0.1300  0.2822
   51MOL0     H 6981   2.870   8.444   3.973  1.3402  1.6030  1.8797
   51MOL0     H 6982   2.762   8.543   3.855  1.8852  2.2234 -0.9417
   51MOL0     H 6983   2.967   8.624   4.055  0.5213  2.7526  0.5878
   51MOL0     H 6984   2.817   8.708   4.070 -3.0851  0.7784 -3.1701
   51MOL0     H 6985   2.801   8.770   3.845 -0.5434 -3.8820 -3.2072
   51MOL0     H 6986   2.946   8.837   3.912 -2.7329  0.6962  1.2050
   51MOL0     H 6987   3.014   8.866   3.643 -1.8172 -0.7673 -0.8681
   51MOL0     H 6988   3.139   8.613   3.387 -0.6432  0.5961 -0.1194
   51MOL0     H 6989   3.214   8.764   3.431 -0.3738  0.1810 -1.5454
   51MOL0     H 6990   2.909   8.759   3.362  0.1692  2.3471  2.3923
   51MOL0     H 6991   3.000   8.886   3.395 -0.0025  0.9159 -0.2035
   51MOL0     H 6992   3.161   8.810   3.201 -0.1240 -1.0433  0.2078
   51MOL0     H 6993   3.037   8.682   3.161 -1.8131  1.0769 -2.6020
   51MOL0     H 6994   2.875   8.893   3.120 -1.1948  1.7436 -2.6292
   51MOL0     H 6995   3.016   8.986   3.166 -1.4801 -0.9424  2.3336
   51MOL0     H 6996   3.088   9.141   2.977  1.9080 -0.2396 -1.8901
   51MOL0     H 6997   3.088   9.346   2.888 -0.5559  2.5445  0.3479
   51MOL0     H 6998   2.933   9.415   2.861 -2.0609 -0.9019 -3.0349
   51MOL0     H 6999   3.053   9.372   2.727  1.1313  1.2326  0.6275
   51MOL0     H 7000   2.746   9.365   2.349  0.0178  1.3094  0.0249
   51MOL0     H 7001   2.591   9.438   2.185 -0.3025 -1.5913 -0.2685
   51MOL0     H 7002   2.117   9.374   2.243  1.7794 -2.1766 -2.9877
   51MOL0     H 7003   2.194   9.509   2.314 -0.5928 -1.0511  1.5042
   51MOL0     H 7004   2.120   9.468   2.026  3.4943 -0.2425 -0.5063
   51MOL0     H 7005   2.029   9.561   2.144  0.8799  0.1879  1.4375
   51MOL0     H 7006   2.141   9.693   1.985  2.7001  0.7753 -0.8680
   51MOL0     H 7007   2.300   9.616   2.010 -0.1271 -1.7107 -1.2513
   51MOL0     H 7008   2.319   9.705   2.232 -1.9309  0.4329  2.8039
   51MOL0     H 7009   2.154   9.782   2.225  1.1747  0.8687  0.4651
   51MOL0     H 7010   2.237   9.939   2.047 -2.3731 -2.0214  0.8672
   51MOL0     H 7011   2.341   9.945   2.203 -0.4533 -2.7364  1.7588
   51MOL0     H 7012   2.391   9.817   1.941 -0.2646 -0.9860  1.1734
   51MOL0     H 7013   2.496   9.792   2.087 -0.7922  1.6963  2.8885
   51MOL0     H 7014   2.460  10.059   1.951  0.9924  0.5386 -0.3438
   51MOL0     H 7015   2.602   9.953   1.943  1.0777 -0.1444  2.7716
   51MOL0     H 7016   2.580   9.974   2.209 -0.1212 -3.0715 -2.7433
   51MOL0     H 7017   2.477  10.107   2.170 -2.7382 -0.9760 -2.0572
   51MOL0     H 7018   2.266   9.252   2.402  0.6922  0.6184 -0.3771
   51MOL0     H 7019   2.432   9.178   2.569 -2.7685  1.5122  0.3549
   51MOL0     H 7020   2.725   8.991   2.686 -1.8655  0.6960  2.7548
   51MOL0     H 7021   2.839   8.839   2.821 -0.8844  0.4560  2.5083
   51MOL0     H 7022   2.292   8.126   4.486 -0.5447 -1.4628 -1.6372
   51MOL0     H 7023   2.090   8.069   4.635 -2.6212 -0.6608  0.0555
   51MOL0     H 7024   1.656   7.803   4.554  0.8061 -1.5357  1.7053
   51MOL0     H 7025   1.462   7.714   4.666 -0.6299  0.1091  0.2479
   51MOL0     H 7026   1.249   7.698   4.732 -4.5580 -1.4469  1.6870
   51MOL0     H 7027   1.333   7.675   4.886  2.7970  1.0912 -1.3763
   51MOL0     H 7028   1.070   7.631   4.857  0.1575  0.5481  0.8901
   51MOL0     H 7029   1.048   7.801   4.841 -1.1786  1.0872  1.6714
   51MOL0     H 7030   1.180   7.668   5.088 -1.2994  1.3162  3.5478
   51MOL0     H 7031   1.130   7.834   5.067 -1.0908 -1.1371  4.1847
   51MOL0     H 7032   0.884   7.687   4.998  0.0360  0.6523 -0.0412
   51MOL0     H 7033   0.921   7.775   5.145  0.0050  0.4823 -1.2762
   51MOL0     H 7034   0.971   7.377   5.280  0.1706  1.7801  1.2285
   51MOL0     H 7035   1.439   8.067   4.900 -1.7590  0.8838 -0.9074
   51MOL0     H 7036   1.534   8.265   4.837 -1.7946 -2.1991 -0.6097
   51MOL0     H 7037   1.698   8.241   4.859  0.2015  0.0465  0.5344
   51MOL0     H 7038   1.642   8.278   4.699 -2.5987 -1.4607 -1.6258
   52MOL0     O 7039   6.383   3.668   7.690  0.2255 -0.2095  0.1282
   52MOL0     C 7040   6.261   3.688   7.682 -0.8744 -0.7469  0.1555
   52MOL0     O 7041   6.178   3.614   7.604 -1.1140  0.3172 -0.3982
   52MOL0     C 7042   6.252   3.530   7.517 -0.1171  0.4070  0.1984
   52MOL0     C 7043   6.269   3.394   7.565  1.0489 -1.1033  0.3956
   52MOL0     C 7044   6.345   3.307   7.487  0.0028 -1.1901  0.0053
   52MOL0     C 7045   6.405   3.340   7.369 -0.1448  0.4536 -0.1879
   52MOL0     O 7046   6.486   3.252   7.297  0.1251 -0.0103 -0.3739
   52MOL0     C 7047   6.429   3.120   7.270 -0.2082  0.1276 -0.3816
   52MOL0     C 7048   6.505   3.045   7.169  0.2951 -0.5716 -1.0635
   52MOL0     C 7049   6.635   2.993   7.220  0.0886 -0.0888 -0.1136
   52MOL0     C 7050   6.619   2.883   7.335  0.4364  0.7797  0.2863
   52MOL0     C 7051   6.570   2.748   7.284  0.8108 -0.1135  0.6413
   52MOL0     C 7052   6.590   2.636   7.383  0.1401  0.5823 -0.1022
   52MOL0     C 7053   6.549   2.493   7.337 -0.3917  0.7733 -0.4609
   52MOL0     C 7054   6.605   2.383   7.432  0.6514  1.0951  0.3397
   52MOL0     N 7055   6.604   2.252   7.357 -0.7730 -0.0585  0.6694
   52MOL0     C 7056   6.490   2.197   7.288 -1.0957  0.1433  0.6953
   52MOL0     C 7057   6.526   2.075   7.249 -1.4533 -0.6145  0.1548
   52MOL0     C 7058   6.430   1.992   7.168 -0.0091  0.0341 -0.3465
   52MOL0     C 7059   6.478   1.862   7.117 -0.2853 -0.1415  0.2423
   52MOL0     C 7060   6.372   1.789   7.042 -0.1711 -0.4572  0.0422
   52MOL0     C 7061   6.405   1.639   7.017  0.4602 -0.2560 -0.5885
   52MOL0     O 7062   6.323   1.567   7.110  0.0222 -0.1313 -0.8043
   52MOL0     C 7063   6.364   1.440   7.123 -0.3756  0.3222  0.4574
   52MOL0     C 7064   6.485   1.401   7.188  0.5162  0.3418  0.0337
   52MOL0     C 7065   6.526   1.266   7.179 -0.8153 -0.6074  0.6990
   52MOL0     C 7066   6.641   1.227   7.267 -0.4474  0.7272  0.4426
   52MOL0     C 7067   6.456   1.176   7.096  0.4515 -0.1184 -1.5640
   52MOL0     C 7068   6.517   1.038   7.071 -0.4557 -0.6737  0.3293
   52MOL0     O 7069   6.435   0.965   6.994  0.1136  0.3233  0.4149
   52MOL0     C 7070   6.455   0.830   6.965  0.5298  0.8099  0.3996
   52MOL0     C 7071   6.572   0.770   6.927  0.0591 -0.1062  0.3779
   52MOL0     C 7072   6.573   0.634   6.896 -0.0433  0.8502 -1.0177
   52MOL0     C 7073   6.462   0.552   6.903  0.7707 -0.2276  0.4546
   52MOL0     O 7074   6.461   0.422   6.852  0.1900 -0.0833 -0.4757
   52MOL0     C 7075   6.480   0.321   6.953  0.4478  0.2464 -0.0100
   52MOL0     C 7076   6.626   0.262   6.934 -0.6070  0.1012  0.5615
   52MOL0     C 7077   6.631   0.124   6.859 -0.8398  0.3665 -0.1245
   52MOL0     C 7078   6.569   0.121   6.719  0.1144 -0.0829  0.0728
   52MOL0     C 7079   6.572  -0.022   6.653  1.2773 -0.3672 -0.1682
   52MOL0     C 7080   6.487  -0.118   6.728 -0.5067  1.1815  0.3697
   52MOL0     C 7081   6.502  -0.259   6.660 -0.3152 -0.0885  0.6369
   52MOL0     C 7082   6.383  -0.359   6.675 -0.1462  0.6211  0.5241
   52MOL0    Cl 7083   6.348  -0.425   6.836 -0.5136  0.0259  0.0914
   52MOL0     C 7084   6.344   0.622   6.925 -0.0319  1.3659  0.6858
   52MOL0     C 7085   6.339   0.755   6.953  0.4356 -0.1989 -0.1231
   52MOL0     O 7086   6.628   1.003   7.107 -0.1213 -0.0424  0.4230
   52MOL0     C 7087   6.339   1.217   7.035  0.4242 -0.5087  0.1156
   52MOL0     C 7088   6.288   1.342   7.054 -0.4577  0.5375 -0.2899
   52MOL0     N 7089   6.652   2.049   7.307  0.0951 -0.2869 -0.4790
   52MOL0     N 7090   6.696   2.148   7.380  0.7080  0.3979  0.3079
   52MOL0     C 7091   6.383   3.477   7.328  0.2409  0.5996  0.6622
   52MOL0     C 7092   6.306   3.563   7.397  0.2039  1.2917  0.2148
   52MOL0     C 7093   6.213   3.806   7.765 -0.1664 -0.5392 -0.4730
   52MOL0     C 7094   6.314   3.879   7.826  0.7505 -0.1682  0.5360
   52MOL0     C 7095   6.281   3.988   7.901 -0.4249  0.3307 -0.4807
   52MOL0     C 7096   6.155   4.017   7.941 -0.3162  0.7025 -0.9181
   52MOL0     O 7097   6.142   4.134   8.010  0.4566 -0.3001 -0.6338
   52MOL0     C 7098   6.035   4.157   8.104 -0.7856 -0.0015 -0.4455
   52MOL0     C 7099   6.071   4.098   8.235 -0.2402 -0.1814 -0.4206
   52MOL0     C 7100   5.963   4.118   8.347 -0.5467 -0.2862  0.0959
   52MOL0     C 7101   5.823   4.050   8.336  0.6808  0.0124  0.2004
   52MOL0     C 7102   5.743   4.132   8.251  0.1582  0.0911 -0.6589
   52MOL0     C 7103   5.684   4.215   8.183  0.4927  0.1969  0.1749
   52MOL0     C 7104   6.054   3.932   7.893  0.6073 -1.4032  0.5071
   52MOL0     C 7105   6.078   3.839   7.796 -0.9723  0.2012 -0.0272
   52MOL0     C 7106   5.958   3.778   7.729  0.3350 -0.3526  1.0344
   52MOL0     H 7107   6.228   3.367   7.661 -0.4653  1.4063  0.5688
   52MOL0     H 7108   6.340   3.206   7.525 -3.6443 -1.9623 -2.0755
   52MOL0     H 7109   6.324   3.131   7.242 -0.6381  0.2056  1.1812
   52MOL0     H 7110   6.425   3.075   7.369 -0.7940  3.1060  1.0713
   52MOL0     H 7111   6.445   2.958   7.138 -1.8317 -0.5931  2.5228
   52MOL0     H 7112   6.536   3.110   7.087  3.3319 -1.1535 -0.4880
   52MOL0     H 7113   6.692   2.950   7.137  0.3807  0.5739 -0.2616
   52MOL0     H 7114   6.696   3.075   7.259 -2.0839  0.7045  1.8377
   52MOL0     H 7115   6.712   2.874   7.392  1.5287  1.4318 -1.2937
   52MOL0     H 7116   6.542   2.912   7.406  0.7486  2.9827 -0.2010
   52MOL0     H 7117   6.634   2.722   7.198 -0.2512 -3.3378  0.7004
   52MOL0     H 7118   6.465   2.757   7.257  0.7337  1.9562  1.5039
   52MOL0     H 7119   6.691   2.638   7.423 -0.4579  0.1702  1.4979
   52MOL0     H 7120   6.531   2.647   7.474  0.2516  1.6646 -0.1530
   52MOL0     H 7121   6.598   2.478   7.241  1.9077  1.2613  0.5801
   52MOL0     H 7122   6.440   2.480   7.335 -0.5852  1.8651  0.9891
   52MOL0     H 7123   6.707   2.388   7.471  1.1211 -5.3146  0.9335
   52MOL0     H 7124   6.527   2.378   7.509  0.5320 -0.0747  0.1677
   52MOL0     H 7125   6.402   2.253   7.259 -1.0505  0.6528  1.4774
   52MOL0     H 7126   6.391   2.037   7.076 -0.2806  1.1313  0.2885
   52MOL0     H 7127   6.342   1.987   7.231 -0.8143  1.6851 -1.2747
   52MOL0     H 7128   6.563   1.874   7.050 -0.3876 -0.9053 -0.0342
   52MOL0     H 7129   6.503   1.802   7.205  0.6530 -2.2093 -1.3490
   52MOL0     H 7130   6.276   1.794   7.093 -0.6163 -1.8060 -0.6342
   52MOL0     H 7131   6.357   1.837   6.945  1.4252 -0.9744 -0.4890
   52MOL0     H 7132   6.377   1.624   6.912 -3.4359  1.4155  0.0173
   52MOL0     H 7133   6.511   1.613   7.030  0.2534 -0.6541  0.3878
   52MOL0     H 7134   6.536   1.469   7.255 -2.6596  2.2225  0.7464
   52MOL0     H 7135   6.639   1.128   7.312 -2.3839  0.9960  1.0179
   52MOL0     H 7136   6.659   1.308   7.339  0.9095  0.4497  0.4553
   52MOL0     H 7137   6.738   1.221   7.216  0.2432  0.4698  1.7263
   52MOL0     H 7138   6.660   0.831   6.910 -0.2384 -0.2722 -2.0207
   52MOL0     H 7139   6.665   0.586   6.865  0.1641  0.0705  0.6840
   52MOL0     H 7140   6.466   0.365   7.052 -0.6752  1.8508 -0.8363
   52MOL0     H 7141   6.417   0.232   6.950  1.1499 -0.2541 -2.3287
   52MOL0     H 7142   6.690   0.338   6.888 -1.7142  2.2097  2.3185
   52MOL0     H 7143   6.675   0.242   7.030  2.6479  1.5153 -0.6519
   52MOL0     H 7144   6.591   0.060   6.938  1.0303  0.9471  1.3753
   52MOL0     H 7145   6.735   0.096   6.840 -0.7107  0.8840 -0.1883
   52MOL0     H 7146   6.623   0.179   6.643 -0.1647 -1.0964 -0.9328
   52MOL0     H 7147   6.465   0.155   6.722  0.5332  1.2020  3.0435
   52MOL0     H 7148   6.526  -0.014   6.554 -0.9274  1.6548  0.8989
   52MOL0     H 7149   6.670  -0.064   6.629  0.7381 -0.8435 -1.6347
   52MOL0     H 7150   6.384  -0.084   6.738 -0.7216 -0.1295  5.5570
   52MOL0     H 7151   6.514  -0.142   6.831  0.0197  2.2493  0.4964
   52MOL0     H 7152   6.587  -0.300   6.715 -0.2460 -3.1427 -1.5437
   52MOL0     H 7153   6.525  -0.248   6.554 -0.4808 -1.1827  0.4753
   52MOL0     H 7154   6.412  -0.451   6.623  0.8363 -0.1416  2.3156
   52MOL0     H 7155   6.302  -0.312   6.619  2.0006  1.7188 -1.8928
   52MOL0     H 7156   6.248   0.573   6.933 -0.2200  1.3480 -1.2046
   52MOL0     H 7157   6.245   0.805   6.971 -1.8249 -2.1223 -4.7962
   52MOL0     H 7158   6.292   1.153   6.960  0.0465  1.1690 -1.1403
   52MOL0     H 7159   6.200   1.375   6.999  0.0876  2.6815  0.0337
   52MOL0     H 7160   6.427   3.509   7.234 -0.7933  0.9339  0.2804
   52MOL0     H 7161   6.297   3.661   7.354  1.1042  1.1681 -0.2687
   52MOL0     H 7162   6.419   3.858   7.805 -0.2106 -2.4284 -2.7937
   52MOL0     H 7163   6.364   4.055   7.924 -1.2071  1.0775  0.2542
   52MOL0     H 7164   6.021   4.263   8.124 -1.5828  0.0061 -0.9818
   52MOL0     H 7165   5.943   4.109   8.068 -0.3645 -0.5519 -0.8043
   52MOL0     H 7166   6.158   4.154   8.269 -1.1465  2.2685 -1.9637
   52MOL0     H 7167   6.090   3.990   8.230 -1.7865 -0.5086  0.0005
   52MOL0     H 7168   6.008   4.087   8.442  2.3741 -2.1552 -1.7495
   52MOL0     H 7169   5.951   4.226   8.362  3.1070  0.2524 -0.1007
   52MOL0     H 7170   5.766   4.053   8.430 -1.5117 -0.3433 -1.0567
   52MOL0     H 7171   5.824   3.950   8.293  1.5720 -0.4440  1.2179
   52MOL0     H 7172   5.627   4.274   8.115 -1.9094 -2.4505 -0.3230
   52MOL0     H 7173   5.951   3.964   7.885  1.7113  2.2930 -1.8925
   52MOL0     H 7174   5.865   3.784   7.786 -0.9638 -1.3161 -0.8767
   52MOL0     H 7175   5.946   3.822   7.630  1.6165 -1.7782  0.2097
   52MOL0     H 7176   5.978   3.672   7.709  1.0434 -0.5441  2.5955
   53MOL0     O 7177  10.031   6.229   1.338  0.1044  0.0160  0.2504
   53MOL0     C 7178   9.974   6.148   1.257 -0.0189  0.7076 -0.1104
   53MOL0     O 7179  10.039   6.044   1.194 -0.1587 -0.0903 -0.7563
   53MOL0     C 7180  10.172   6.044   1.188 -0.1824 -0.1916 -0.2546
   53MOL0     C 7181  10.234   6.128   1.094 -0.0566 -0.3255  0.8012
   53MOL0     C 7182  10.378   6.120   1.069 -0.6149  0.1625 -1.0035
   53MOL0     C 7183  10.451   6.032   1.144 -0.8819  0.7398 -0.3384
   53MOL0     O 7184  10.586   6.025   1.120  0.4166 -0.0928  0.6028
   53MOL0     C 7185  10.652   6.148   1.142  0.6661  0.1404 -0.3403
   53MOL0     C 7186  10.804   6.136   1.109  0.1197 -0.2231 -0.0853
   53MOL0     C 7187  10.822   6.109   0.961  1.0061  0.9764  0.8204
   53MOL0     C 7188  10.971   6.122   0.924 -0.4230 -0.1207  0.5629
   53MOL0     C 7189  10.988   6.075   0.773  0.1014  0.3266  0.0549
   53MOL0     C 7190  10.966   5.917   0.744 -1.3411 -0.3102  0.7887
   53MOL0     C 7191  11.046   5.841   0.851  0.3949 -0.2159 -0.6978
   53MOL0     C 7192  11.062   5.699   0.807 -0.2276  0.1378 -0.3584
   53MOL0     N 7193  11.130   5.623   0.914  0.3909  0.4821 -0.7692
   53MOL0     C 7194  11.087   5.595   1.041 -0.9110  0.1840 -0.5742
   53MOL0     C 7195  11.190   5.524   1.108 -0.0870  0.1870  0.1902
   53MOL0     C 7196  11.185   5.489   1.247 -0.3413 -0.1151 -0.5297
   53MOL0     C 7197  11.142   5.348   1.288  0.8413  0.1568 -0.0885
   53MOL0     C 7198  10.994   5.331   1.259 -0.1403 -0.0731  0.7250
   53MOL0     C 7199  10.949   5.188   1.234 -1.0195  0.3869  0.5958
   53MOL0     O 7200  10.992   5.115   1.351  0.0599 -0.6913  0.6203
   53MOL0     C 7201  11.063   5.003   1.331  0.4900 -0.4392  1.0421
   53MOL0     C 7202  11.032   4.901   1.239  0.2812  0.5998 -0.0970
   53MOL0     C 7203  11.112   4.797   1.217 -0.0439  1.5328  0.2545
   53MOL0     C 7204  11.061   4.678   1.142 -0.3672  0.8067  0.4930
   53MOL0     C 7205  11.231   4.784   1.282 -0.0946  0.7972  0.4123
   53MOL0     C 7206  11.335   4.675   1.258 -0.2608 -0.6276 -0.0415
   53MOL0     O 7207  11.421   4.655   1.363  0.7764 -0.2473 -0.9966
   53MOL0     C 7208  11.525   4.576   1.348  0.3624  0.2340 -0.0971
   53MOL0     C 7209  11.656   4.623   1.334  0.3389 -0.0856  0.6030
   53MOL0     C 7210  11.763   4.537   1.290 -0.0094  0.7660  0.9393
   53MOL0     C 7211  11.729   4.401   1.270 -0.3404  1.2381  0.0836
   53MOL0     O 7212  11.807   4.307   1.216 -0.2952  0.4185  0.1271
   53MOL0     C 7213  11.944   4.327   1.182  0.5460 -0.3073  0.6440
   53MOL0     C 7214  11.977   4.213   1.078 -0.8096  0.1523 -0.4225
   53MOL0     C 7215  11.947   4.071   1.121 -0.2570  0.1315  0.6166
   53MOL0     C 7216  12.052   4.030   1.218 -0.1440  0.1102  0.1188
   53MOL0     C 7217  12.034   3.891   1.276  1.0854 -0.0235  0.1954
   53MOL0     C 7218  12.118   3.874   1.395  0.4772  0.0106 -0.8139
   53MOL0     C 7219  12.105   3.727   1.427 -0.6704  0.3386 -0.8463
   53MOL0     C 7220  12.201   3.680   1.535 -0.7086  0.2282 -0.2930
   53MOL0    Cl 7221  12.160   3.522   1.605 -0.7127 -0.3780  0.1720
   53MOL0     C 7222  11.599   4.355   1.290  0.6457  0.7183 -0.1375
   53MOL0     C 7223  11.496   4.440   1.334  0.4511  1.0716  0.7015
   53MOL0     O 7224  11.357   4.628   1.147  0.6663  0.3045  0.6954
   53MOL0     C 7225  11.262   4.884   1.381  0.3473 -0.4927  0.6465
   53MOL0     C 7226  11.178   4.988   1.411  0.9493 -0.1043  0.6434
   53MOL0     N 7227  11.301   5.526   1.030  0.9078  0.3942  0.1228
   53MOL0     N 7228  11.267   5.588   0.919  0.3639 -0.0105  0.4294
   53MOL0     C 7229  10.393   5.942   1.235  0.9423  0.3658 -0.0185
   53MOL0     C 7230  10.251   5.951   1.256 -0.1656 -0.7883 -0.3460
   53MOL0     C 7231   9.822   6.140   1.278 -0.5820 -1.1508 -0.5799
   53MOL0     C 7232   9.770   6.144   1.411  0.1325  0.3045  0.2515
   53MOL0     C 7233   9.636   6.107   1.435  0.1929  0.1975 -0.5192
   53MOL0     C 7234   9.546   6.096   1.323 -0.0261  0.1419  0.1267
   53MOL0     O 7235   9.413   6.071   1.350 -0.5417  0.8210  0.0973
   53MOL0     C 7236   9.305   6.059   1.253  0.7533  0.5392 -0.2356
   53MOL0     C 7237   9.172   6.036   1.328 -0.9614  0.0257  0.2663
   53MOL0     C 7238   9.130   6.169   1.396 -0.2765  0.4920  0.5236
   53MOL0     C 7239   9.042   6.145   1.511 -0.3356  0.0132 -0.0029
   53MOL0     C 7240   8.937   6.247   1.529 -0.2069 -0.9016  0.3408
   53MOL0     C 7241   8.852   6.331   1.570  0.0331  0.9382  0.1094
   53MOL0     C 7242   9.593   6.091   1.196 -0.5031 -0.1446  0.0131
   53MOL0     C 7243   9.734   6.115   1.175 -0.5758 -0.5350 -0.5914
   53MOL0     C 7244   9.765   6.126   1.034 -0.1680  0.0740 -0.3842
   53MOL0     H 7245  10.186   6.199   1.027  2.6055  1.8038  1.0112
   53MOL0     H 7246  10.419   6.178   0.986  1.4698  0.9360  0.4810
   53MOL0     H 7247  10.640   6.175   1.248  3.3817 -1.6607  0.5278
   53MOL0     H 7248  10.617   6.237   1.089 -0.7708  1.3639  2.4300
   53MOL0     H 7249  10.834   6.240   1.124 -0.8923  0.0149  0.4560
   53MOL0     H 7250  10.864   6.071   1.173  1.1344  0.9115  0.1445
   53MOL0     H 7251  10.797   6.006   0.934  1.2704  1.7086 -2.7220
   53MOL0     H 7252  10.761   6.171   0.895  3.3434  0.6362 -1.8249
   53MOL0     H 7253  10.999   6.224   0.955 -3.6522  0.5880  1.5035
   53MOL0     H 7254  11.028   6.056   0.991 -0.3024  0.0404  0.6218
   53MOL0     H 7255  11.078   6.117   0.726  0.9220 -1.0425  0.3423
   53MOL0     H 7256  10.910   6.131   0.721 -0.4988  0.2042  0.8101
   53MOL0     H 7257  10.861   5.887   0.754 -1.2120 -1.5208 -1.1312
   53MOL0     H 7258  10.985   5.890   0.640 -0.6345 -0.4651  0.9555
   53MOL0     H 7259  10.995   5.850   0.947  1.5231 -3.0494  0.2540
   53MOL0     H 7260  11.144   5.887   0.867 -0.8405  2.8824 -1.2769
   53MOL0     H 7261  10.969   5.654   0.770 -0.8207  0.5310  0.6339
   53MOL0     H 7262  11.139   5.713   0.730 -0.1367  0.3469 -0.2286
   53MOL0     H 7263  10.985   5.610   1.074 -1.8963 -0.4274 -3.1494
   53MOL0     H 7264  11.130   5.573   1.290 -0.7325  0.6052 -2.3614
   53MOL0     H 7265  11.287   5.489   1.286 -0.5148 -0.8778 -0.0446
   53MOL0     H 7266  11.202   5.272   1.237 -1.9229 -2.1733 -0.1153
   53MOL0     H 7267  11.144   5.353   1.397  1.3208  2.4329 -0.1532
   53MOL0     H 7268  10.946   5.383   1.343  0.3583  1.5507  0.0489
   53MOL0     H 7269  10.959   5.392   1.176 -1.0131 -1.4610  0.0386
   53MOL0     H 7270  10.840   5.185   1.220 -0.7140  0.4048 -2.2833
   53MOL0     H 7271  10.991   5.151   1.140 -1.5320 -1.1073  0.9255
   53MOL0     H 7272  10.928   4.901   1.205 -0.2666  3.8730  1.2996
   53MOL0     H 7273  11.103   4.592   1.195 -0.7800  1.0335  1.2010
   53MOL0     H 7274  11.079   4.670   1.034  0.2483 -1.4243  0.7144
   53MOL0     H 7275  10.954   4.668   1.157 -0.5700  0.5401 -0.9908
   53MOL0     H 7276  11.669   4.727   1.361  0.0771  0.3426 -0.8449
   53MOL0     H 7277  11.869   4.557   1.276 -0.3264  1.3640 -0.8579
   53MOL0     H 7278  11.947   4.423   1.130  0.3390 -1.2056 -1.1059
   53MOL0     H 7279  12.011   4.316   1.268  0.0700  0.7261  1.1578
   53MOL0     H 7280  11.907   4.218   0.994 -3.0485 -0.9528  1.2623
   53MOL0     H 7281  12.083   4.223   1.055  0.1245 -2.9969  1.8608
   53MOL0     H 7282  11.963   3.996   1.043  1.5504 -0.0790  1.1454
   53MOL0     H 7283  11.852   4.055   1.171 -1.5561  2.1106 -1.0556
   53MOL0     H 7284  12.046   4.106   1.297 -1.9780  1.0032 -0.8270
   53MOL0     H 7285  12.148   4.047   1.168 -0.0848 -3.1727 -1.1162
   53MOL0     H 7286  11.931   3.872   1.307  1.2715 -2.3374 -0.4166
   53MOL0     H 7287  12.054   3.818   1.197 -1.8413  0.2791 -0.9470
   53MOL0     H 7288  12.087   3.927   1.486  0.3950 -2.6924  0.8500
   53MOL0     H 7289  12.222   3.899   1.374  1.1919 -0.0257  2.1631
   53MOL0     H 7290  12.115   3.662   1.340 -3.6601 -0.4662 -0.6936
   53MOL0     H 7291  11.998   3.707   1.442 -0.3225 -0.4672  0.7532
   53MOL0     H 7292  12.186   3.753   1.615  0.5889 -0.2735  0.4346
   53MOL0     H 7293  12.299   3.673   1.486 -0.7879 -2.3746 -0.2393
   53MOL0     H 7294  11.582   4.248   1.286 -1.2295  1.0172 -1.9928
   53MOL0     H 7295  11.394   4.405   1.346  0.6107  0.0878 -0.6026
   53MOL0     H 7296  11.347   4.877   1.448  0.5504  0.7695  0.5373
   53MOL0     H 7297  11.209   5.055   1.490  0.8264  0.3369  0.3199
   53MOL0     H 7298  10.453   5.861   1.272 -1.3307 -1.8996 -0.9469
   53MOL0     H 7299  10.196   5.886   1.323 -0.2689  0.6152  0.9592
   53MOL0     H 7300   9.822   6.158   1.506 -1.0926 -0.8501  1.1330
   53MOL0     H 7301   9.595   6.089   1.534  0.4604 -0.4988 -0.5246
   53MOL0     H 7302   9.294   6.154   1.200 -2.7732  1.1056  1.2579
   53MOL0     H 7303   9.313   5.969   1.190 -0.3281 -0.1883  0.6377
   53MOL0     H 7304   9.175   5.951   1.396  0.8403  0.0340  0.2497
   53MOL0     H 7305   9.102   6.007   1.249 -0.1803  1.8870 -1.1929
   53MOL0     H 7306   9.218   6.220   1.437 -1.9578  2.7349  1.5688
   53MOL0     H 7307   9.090   6.230   1.315 -4.5078 -2.3821  0.1466
   53MOL0     H 7308   9.097   6.132   1.605 -1.0897 -2.7088  0.1153
   53MOL0     H 7309   8.986   6.052   1.514  0.3059 -0.3826 -0.1456
   53MOL0     H 7310   8.782   6.405   1.603 -0.8593  0.4213 -0.5998
   53MOL0     H 7311   9.536   6.086   1.104  0.1996 -1.5533 -0.3745
   53MOL0     H 7312   9.771   6.028   0.986 -0.5656  0.2528 -0.7966
   53MOL0     H 7313   9.683   6.184   0.992  0.6759  0.3541 -1.7177
   53MOL0     H 7314   9.861   6.178   1.021  0.3818 -1.0466 -0.9665
   54MOL0     O 7315   3.807   1.402   4.607  0.5224  0.2915 -0.0115
   54MOL0     C 7316   3.720   1.359   4.527 -0.4663 -0.0530  0.4687
   54MOL0     O 7317   3.589   1.411   4.510 -1.0608  0.0170  0.2317
   54MOL0     C 7318   3.541   1.480   4.608  0.7215  0.4471  0.2064
   54MOL0     C 7319   3.480   1.403   4.707  0.8885 -0.2110 -0.3427
   54MOL0     C 7320   3.445   1.460   4.834  0.2491 -0.0661  0.6630
   54MOL0     C 7321   3.470   1.594   4.856  0.3432 -0.4493 -1.0232
   54MOL0     O 7322   3.436   1.670   4.970 -0.8107  0.7954  0.0659
   54MOL0     C 7323   3.404   1.619   5.101  0.2030 -0.1574  0.0926
   54MOL0     C 7324   3.352   1.733   5.184  0.5755 -0.1462 -0.5183
   54MOL0     C 7325   3.463   1.840   5.202 -0.3794  0.6634  0.5531
   54MOL0     C 7326   3.459   1.929   5.328  0.4293  0.4740  0.0807
   54MOL0     C 7327   3.540   2.064   5.296  0.5959  0.3855 -0.0534
   54MOL0     C 7328   3.590   2.157   5.412  0.7863 -0.0095 -0.1316
   54MOL0     C 7329   3.486   2.166   5.524  0.4760 -0.4742  0.1754
   54MOL0     C 7330   3.363   2.244   5.489 -0.1898 -0.0785 -0.0209
   54MOL0     N 7331   3.371   2.382   5.494  0.3672 -0.9704  0.5938
   54MOL0     C 7332   3.290   2.458   5.579 -0.1550  1.1643 -0.5431
   54MOL0     C 7333   3.330   2.578   5.554  0.2948 -1.0485 -0.5572
   54MOL0     C 7334   3.269   2.703   5.613 -0.8074 -0.1827 -1.1651
   54MOL0     C 7335   3.115   2.709   5.573 -1.2786  0.5064 -0.1607
   54MOL0     C 7336   3.096   2.718   5.421  0.2305 -0.6245  0.5664
   54MOL0     C 7337   3.082   2.579   5.352 -0.2139 -0.3660 -0.2214
   54MOL0     O 7338   2.992   2.498   5.428  0.7580 -0.0084 -0.4222
   54MOL0     C 7339   2.969   2.367   5.409 -0.5852 -0.3502  0.4989
   54MOL0     C 7340   3.027   2.301   5.297 -0.1224 -0.3134  0.0073
   54MOL0     C 7341   3.023   2.161   5.289  0.6891  0.1416 -0.1842
   54MOL0     C 7342   3.104   2.100   5.174 -0.1288 -0.7514 -0.3795
   54MOL0     C 7343   2.935   2.087   5.378  0.1072  0.2855  0.5189
   54MOL0     C 7344   2.919   1.941   5.364  0.0496  0.1411 -0.8616
   54MOL0     O 7345   3.016   1.863   5.302  0.1084  0.4231 -0.0681
   54MOL0     C 7346   2.994   1.723   5.296 -0.2804  0.5337 -0.1997
   54MOL0     C 7347   3.078   1.644   5.358 -0.0786 -0.1090  0.4599
   54MOL0     C 7348   3.066   1.502   5.344 -0.5824 -0.0546 -0.5466
   54MOL0     C 7349   2.959   1.441   5.264 -0.5860  0.6231 -0.5489
   54MOL0     O 7350   2.944   1.310   5.248 -0.0557  0.5488 -0.0253
   54MOL0     C 7351   3.025   1.204   5.310 -0.3377  1.1286 -0.6188
   54MOL0     C 7352   2.959   1.080   5.256  0.0746  1.2825  0.8734
   54MOL0     C 7353   2.806   1.054   5.263 -0.0013 -0.3715  1.0256
   54MOL0     C 7354   2.763   1.067   5.407  0.6852  0.7885 -0.1824
   54MOL0     C 7355   2.611   1.061   5.441  0.0050  0.4766  0.2879
   54MOL0     C 7356   2.547   1.195   5.436  1.3544 -0.5955  0.2115
   54MOL0     C 7357   2.401   1.197   5.455  0.1653 -0.1758 -0.2279
   54MOL0     C 7358   2.351   1.343   5.436  0.4664 -0.1858 -0.0249
   54MOL0    Cl 7359   2.178   1.353   5.495  0.4204 -0.2726 -0.3706
   54MOL0     C 7360   2.874   1.529   5.206  0.3846  0.1101  0.7392
   54MOL0     C 7361   2.882   1.667   5.231 -0.9631  0.4361  0.2174
   54MOL0     O 7362   2.815   1.900   5.412  1.5995  0.1112 -0.4405
   54MOL0     C 7363   2.860   2.163   5.478  0.1703  0.5731 -0.3238
   54MOL0     C 7364   2.888   2.299   5.498 -0.0376  0.3490  0.0086
   54MOL0     N 7365   3.417   2.581   5.455  0.0125  0.2463  0.3964
   54MOL0     N 7366   3.434   2.463   5.403  1.0715 -0.1334 -1.1742
   54MOL0     C 7367   3.528   1.670   4.760 -0.6492 -0.8253  0.4583
   54MOL0     C 7368   3.577   1.610   4.638 -0.1001 -0.1295 -0.7769
   54MOL0     C 7369   3.750   1.236   4.447  0.1782 -0.1834 -0.1304
   54MOL0     C 7370   3.785   1.122   4.525 -0.6466 -0.4638 -0.2504
   54MOL0     C 7371   3.807   0.999   4.454  0.9602  0.2268 -0.2398
   54MOL0     C 7372   3.774   0.982   4.329  0.9491 -0.0797 -0.1847
   54MOL0     O 7373   3.782   0.855   4.285  0.2012  1.1843 -0.1930
   54MOL0     C 7374   3.804   0.832   4.147 -0.4118  0.3041  1.1142
   54MOL0     C 7375   3.945   0.762   4.129 -0.9967 -0.7775  0.2416
   54MOL0     C 7376   3.967   0.652   4.230  0.2398  0.3206 -0.2942
   54MOL0     C 7377   3.913   0.515   4.175  0.1126 -0.1003  0.4680
   54MOL0     C 7378   3.941   0.392   4.253 -0.5128 -0.4812  0.0987
   54MOL0     C 7379   3.963   0.287   4.306  0.1852  0.1331 -0.6516
   54MOL0     C 7380   3.748   1.098   4.259  0.3014 -0.7631  0.1998
   54MOL0     C 7381   3.741   1.227   4.306  0.9488  0.9093 -0.3216
   54MOL0     C 7382   3.704   1.348   4.223 -0.0853 -0.5731 -0.3079
   54MOL0     H 7383   3.457   1.298   4.696  2.3955 -0.4915 -0.9952
   54MOL0     H 7384   3.381   1.414   4.908 -0.8059 -2.6745 -1.6797
   54MOL0     H 7385   3.493   1.586   5.155 -0.4849  1.1251  2.1133
   54MOL0     H 7386   3.341   1.532   5.080  0.5783 -0.3184 -0.3766
   54MOL0     H 7387   3.265   1.782   5.141  2.1772  3.6115  0.1562
   54MOL0     H 7388   3.337   1.700   5.288  1.5502  2.1927  0.4307
   54MOL0     H 7389   3.566   1.804   5.189 -0.8932  0.3122 -3.6098
   54MOL0     H 7390   3.450   1.907   5.117 -3.1306 -1.5666 -0.9366
   54MOL0     H 7391   3.356   1.947   5.362 -0.1317 -0.0433 -1.2550
   54MOL0     H 7392   3.517   1.875   5.403  1.2700  0.3820 -0.6238
   54MOL0     H 7393   3.472   2.108   5.223 -0.7755 -3.3869 -1.3091
   54MOL0     H 7394   3.628   2.049   5.232  0.4941 -1.6646  0.2026
   54MOL0     H 7395   3.681   2.111   5.452  0.0496 -1.5599 -0.1718
   54MOL0     H 7396   3.611   2.257   5.373  1.4768 -0.9085 -2.2513
   54MOL0     H 7397   3.536   2.214   5.609 -0.6818 -0.5730  0.9339
   54MOL0     H 7398   3.447   2.070   5.557 -1.7007  0.3886  0.3294
   54MOL0     H 7399   3.330   2.210   5.390 -2.1046 -0.6374  0.7772
   54MOL0     H 7400   3.280   2.218   5.555 -1.7299  2.1325 -0.9617
   54MOL0     H 7401   3.211   2.423   5.645  1.4747 -3.8302 -0.7567
   54MOL0     H 7402   3.320   2.798   5.594 -5.0934  2.5122 -0.3871
   54MOL0     H 7403   3.276   2.691   5.721 -0.7141 -1.4626 -1.2883
   54MOL0     H 7404   3.061   2.627   5.621 -1.7550 -0.2649 -1.9510
   54MOL0     H 7405   3.068   2.800   5.611 -1.6135  0.7332 -1.0980
   54MOL0     H 7406   3.009   2.782   5.405  1.6198  1.4498  0.8469
   54MOL0     H 7407   3.174   2.778   5.371 -1.5519  1.6953  0.3845
   54MOL0     H 7408   3.027   2.587   5.257 -2.4568 -2.9176  0.7064
   54MOL0     H 7409   3.179   2.531   5.334  0.9546  1.8346 -0.0524
   54MOL0     H 7410   3.085   2.352   5.222 -1.9049  0.0906 -1.1595
   54MOL0     H 7411   3.160   2.183   5.130 -0.3147  0.2050  1.1109
   54MOL0     H 7412   3.045   2.049   5.098 -0.0260  2.2264 -2.6298
   54MOL0     H 7413   3.184   2.038   5.214  1.2557  2.2662  2.0215
   54MOL0     H 7414   3.159   1.685   5.417  0.4615 -3.6442  2.4427
   54MOL0     H 7415   3.146   1.439   5.382 -0.1648  1.4895  1.2874
   54MOL0     H 7416   3.127   1.221   5.276  0.2569 -1.3535 -0.2460
   54MOL0     H 7417   3.033   1.206   5.419  3.6609 -0.4544 -0.7192
   54MOL0     H 7418   2.988   1.064   5.151  2.6803 -0.4409  1.7637
   54MOL0     H 7419   3.000   0.991   5.304 -2.0431 -0.5723 -0.5746
   54MOL0     H 7420   2.781   0.960   5.214  1.4939 -0.3329  0.1380
   54MOL0     H 7421   2.756   1.131   5.203  2.6221 -0.7112 -1.8359
   54MOL0     H 7422   2.810   1.160   5.441  1.1754  0.6873 -0.5610
   54MOL0     H 7423   2.806   0.984   5.464 -4.0856  0.0696  2.9365
   54MOL0     H 7424   2.571   1.003   5.357 -2.2897  2.4760 -0.1208
   54MOL0     H 7425   2.584   1.005   5.531 -0.8153  0.7852  0.2467
   54MOL0     H 7426   2.572   1.250   5.345  0.6776 -0.0644  0.3393
   54MOL0     H 7427   2.593   1.264   5.508 -0.8935  2.6628 -1.2637
   54MOL0     H 7428   2.371   1.149   5.549  1.8626  0.7703  0.8623
   54MOL0     H 7429   2.357   1.131   5.381  0.7234 -2.5753  1.4818
   54MOL0     H 7430   2.352   1.363   5.328  0.8852 -1.5572 -0.2995
   54MOL0     H 7431   2.408   1.404   5.506  0.2022 -0.1264  0.1401
   54MOL0     H 7432   2.791   1.484   5.153  0.6654  0.1254  0.2862
   54MOL0     H 7433   2.796   1.716   5.188 -0.4748  0.4407 -0.7717
   54MOL0     H 7434   2.787   2.110   5.539  1.3267 -1.6383 -0.7275
   54MOL0     H 7435   2.852   2.357   5.583  1.0290 -0.3676  0.9879
   54MOL0     H 7436   3.547   1.774   4.787 -1.9537 -1.0490  2.4359
   54MOL0     H 7437   3.630   1.672   4.565  0.5876  1.7463  1.2177
   54MOL0     H 7438   3.820   1.141   4.626  3.4290  3.1007 -2.0199
   54MOL0     H 7439   3.828   0.906   4.506  0.0265 -1.0783 -2.0913
   54MOL0     H 7440   3.738   0.752   4.113  0.0791 -0.2921  1.5304
   54MOL0     H 7441   3.805   0.920   4.082 -0.0767 -1.2373 -1.0668
   54MOL0     H 7442   4.018   0.840   4.154  0.6375 -2.3927  0.6964
   54MOL0     H 7443   3.972   0.730   4.028 -0.5179 -0.0527  0.1304
   54MOL0     H 7444   4.074   0.632   4.241 -0.3590 -1.8287  2.9430
   54MOL0     H 7445   3.929   0.664   4.332  0.3609 -0.1648 -0.1867
   54MOL0     H 7446   3.944   0.513   4.070 -2.3305 -0.2924 -0.3090
   54MOL0     H 7447   3.804   0.522   4.176  0.0836  0.0183 -0.7856
   54MOL0     H 7448   3.959   0.195   4.360 -2.2473 -0.2269 -1.3110
   54MOL0     H 7449   3.728   1.089   4.152 -2.3317  0.7880  0.4681
   54MOL0     H 7450   3.597   1.343   4.198 -0.6240  0.9767  1.4093
   54MOL0     H 7451   3.708   1.436   4.288  1.0332 -0.8811  0.0581
   54MOL0     H 7452   3.774   1.367   4.142 -1.6035  2.1071 -1.1360
   55MOL0     O 7453   8.410   1.719   4.016 -0.6240  0.2017  0.3696
   55MOL0     C 7454   8.525   1.747   4.038  0.3779 -0.0786 -0.4153
   55MOL0     O 7455   8.588   1.870   4.027  0.1741 -0.2474 -0.3795
   55MOL0     C 7456   8.519   1.984   3.990 -0.8909  0.7702  0.3796
   55MOL0     C 7457   8.543   2.102   4.060 -0.6782  0.2083  0.3832
   55MOL0     C 7458   8.464   2.214   4.033  0.0202  0.5040  0.7628
   55MOL0     C 7459   8.374   2.206   3.922  0.0549  0.2114  0.3879
   55MOL0     O 7460   8.304   2.314   3.878 -0.9588  0.3820  0.0467
   55MOL0     C 7461   8.376   2.444   3.855  0.7790  0.2730  0.5574
   55MOL0     C 7462   8.372   2.475   3.706  0.2247 -0.6715 -0.6052
   55MOL0     C 7463   8.478   2.395   3.639 -0.8303  0.1633  0.1368
   55MOL0     C 7464   8.484   2.417   3.485 -0.0107 -0.0051  0.3321
   55MOL0     C 7465   8.521   2.556   3.430  0.8543  0.3284  0.7699
   55MOL0     C 7466   8.567   2.558   3.283  0.3782  0.0748  0.2303
   55MOL0     C 7467   8.677   2.459   3.232 -0.3825  0.5331  0.0803
   55MOL0     C 7468   8.753   2.510   3.109  1.1644  0.9011  0.0245
   55MOL0     N 7469   8.835   2.401   3.071  0.8278 -0.0992  0.0132
   55MOL0     C 7470   8.976   2.398   3.073  0.2653  0.6555 -0.3503
   55MOL0     C 7471   9.007   2.271   3.035 -0.3426  0.1502 -0.5221
   55MOL0     C 7472   9.146   2.214   3.033 -0.1677 -0.1261  0.2622
   55MOL0     C 7473   9.243   2.282   2.927 -0.3981 -0.1721 -0.0390
   55MOL0     C 7474   9.371   2.315   2.998  0.1199 -0.4880 -0.9359
   55MOL0     C 7475   9.480   2.398   2.923 -0.6282  0.3338 -1.4393
   55MOL0     O 7476   9.612   2.404   2.996  0.1099 -0.4666  0.3537
   55MOL0     C 7477   9.687   2.291   2.996  0.1316  0.0021 -0.8322
   55MOL0     C 7478   9.776   2.275   3.103  0.6927  0.7350  0.5662
   55MOL0     C 7479   9.875   2.175   3.108  0.1194 -0.8665 -0.1728
   55MOL0     C 7480   9.957   2.161   3.229 -0.3708 -0.5262 -1.0080
   55MOL0     C 7481   9.869   2.078   3.000 -0.9480  0.2160  0.2100
   55MOL0     C 7482   9.961   1.966   2.992  0.0587 -0.5528 -0.2316
   55MOL0     O 7483   9.984   1.926   2.867  0.4041 -0.2383  0.3242
   55MOL0     C 7484  10.090   1.836   2.866  1.1848 -1.1948  0.3974
   55MOL0     C 7485  10.075   1.700   2.900 -0.4390  0.0594  0.4870
   55MOL0     C 7486  10.181   1.612   2.885 -0.0159  0.2315 -0.3770
   55MOL0     C 7487  10.297   1.655   2.832 -0.7568 -0.3229 -0.0895
   55MOL0     O 7488  10.417   1.577   2.826  0.5349  0.3676 -0.5813
   55MOL0     C 7489  10.404   1.440   2.824  0.2721  0.4349 -0.4054
   55MOL0     C 7490  10.526   1.380   2.744 -0.0140  0.6204  0.3601
   55MOL0     C 7491  10.496   1.243   2.681  0.2639  0.0896  0.3278
   55MOL0     C 7492  10.490   1.124   2.776  1.0478 -1.4165 -1.3876
   55MOL0     C 7493  10.478   0.993   2.703 -0.0228 -0.5793  0.3649
   55MOL0     C 7494  10.477   0.855   2.789 -0.2118 -0.1245  1.0897
   55MOL0     C 7495  10.603   0.833   2.879  0.4768 -0.6947  0.4963
   55MOL0     C 7496  10.724   0.828   2.793 -0.5521 -0.0557 -0.7851
   55MOL0    Cl 7497  10.703   0.713   2.666  0.2200 -0.4731 -0.0208
   55MOL0     C 7498  10.314   1.789   2.799  0.3124  0.2976  0.2356
   55MOL0     C 7499  10.204   1.876   2.795 -0.1332  0.9573 -0.6304
   55MOL0     O 7500  10.006   1.910   3.093  0.3172  0.2686  0.0282
   55MOL0     C 7501   9.765   2.085   2.906  0.0752  0.0460 -0.2904
   55MOL0     C 7502   9.673   2.182   2.905 -0.0233 -0.6008  0.1998
   55MOL0     N 7503   8.893   2.199   3.024 -0.4617 -0.1912  0.4834
   55MOL0     N 7504   8.792   2.285   3.033 -0.1640 -0.3463 -0.0634
   55MOL0     C 7505   8.363   2.092   3.842 -0.0398 -0.5146 -0.0370
   55MOL0     C 7506   8.436   1.982   3.881  0.0892 -0.4105 -0.2630
   55MOL0     C 7507   8.608   1.636   4.096  0.7149 -1.8075  0.1268
   55MOL0     C 7508   8.700   1.673   4.208 -0.5008  0.6822  0.3874
   55MOL0     C 7509   8.780   1.582   4.277 -0.2424 -0.8103  0.3479
   55MOL0     C 7510   8.781   1.446   4.229 -0.2091  0.2289  0.8314
   55MOL0     O 7511   8.864   1.365   4.290 -0.0366  0.5277  0.3799
   55MOL0     C 7512   8.816   1.234   4.322  0.5956 -0.8616  0.2323
   55MOL0     C 7513   8.883   1.183   4.451  0.0286  0.6910 -0.0477
   55MOL0     C 7514   8.856   1.268   4.570 -1.3396  0.2531  0.0670
   55MOL0     C 7515   8.909   1.200   4.693  0.4710 -0.7948 -0.4682
   55MOL0     C 7516   8.868   1.292   4.805  0.8331  0.4805  0.0985
   55MOL0     C 7517   8.849   1.369   4.902 -0.3226 -0.7038  0.2644
   55MOL0     C 7518   8.701   1.411   4.112  0.8236 -0.1562  0.2231
   55MOL0     C 7519   8.612   1.507   4.052 -0.8040  0.4613  0.4213
   55MOL0     C 7520   8.535   1.461   3.930 -0.3382 -1.0649 -0.3863
   55MOL0     H 7521   8.603   2.083   4.148  1.1080  1.1878 -0.5408
   55MOL0     H 7522   8.474   2.303   4.094  0.4366 -1.3881  3.6696
   55MOL0     H 7523   8.479   2.459   3.888  0.8862  0.9110 -0.0548
   55MOL0     H 7524   8.318   2.530   3.890  0.8090  1.1168 -1.3804
   55MOL0     H 7525   8.274   2.460   3.661  1.1163  0.8701 -3.2723
   55MOL0     H 7526   8.397   2.580   3.687  1.6737 -0.9437 -0.3246
   55MOL0     H 7527   8.573   2.408   3.692  0.8356  0.1182 -2.6199
   55MOL0     H 7528   8.458   2.289   3.652  3.2519 -0.7217  0.5604
   55MOL0     H 7529   8.557   2.340   3.459 -0.6040 -0.4349 -0.0882
   55MOL0     H 7530   8.388   2.393   3.438 -1.6681  1.9317  2.4988
   55MOL0     H 7531   8.611   2.603   3.469  1.4346  0.7632 -1.0086
   55MOL0     H 7532   8.436   2.625   3.440  0.4143  0.0369 -0.6583
   55MOL0     H 7533   8.483   2.538   3.215 -0.3493 -0.7797  1.3404
   55MOL0     H 7534   8.591   2.662   3.259 -0.7046  0.2673 -0.0952
   55MOL0     H 7535   8.621   2.368   3.210  0.2610  0.1527 -0.0188
   55MOL0     H 7536   8.743   2.451   3.319 -4.4773  3.1975  3.8635
   55MOL0     H 7537   8.685   2.535   3.027 -0.2974 -0.1322  0.8736
   55MOL0     H 7538   8.807   2.600   3.140 -0.1751  1.8943 -0.4565
   55MOL0     H 7539   9.050   2.474   3.096 -0.3113  1.4305 -1.0325
   55MOL0     H 7540   9.137   2.108   3.008  2.4231 -0.1074 -1.1405
   55MOL0     H 7541   9.191   2.230   3.132 -0.4225 -0.1590  0.3838
   55MOL0     H 7542   9.248   2.215   2.841  0.0154  0.4769 -0.5299
   55MOL0     H 7543   9.189   2.373   2.897 -2.5695 -1.3937 -0.0246
   55MOL0     H 7544   9.335   2.374   3.084 -0.4218  0.2331 -1.6436
   55MOL0     H 7545   9.415   2.221   3.031  1.2567  0.8491  1.7368
   55MOL0     H 7546   9.490   2.355   2.823  1.0266  2.0544 -2.0782
   55MOL0     H 7547   9.434   2.496   2.910  0.3320  0.9139 -0.6496
   55MOL0     H 7548   9.752   2.343   3.185  1.9391  0.1606  1.4392
   55MOL0     H 7549  10.060   2.138   3.200 -0.5043  1.6619 -3.5088
   55MOL0     H 7550   9.927   2.072   3.286  1.5085 -1.1086 -0.8609
   55MOL0     H 7551   9.951   2.252   3.290 -1.7556 -1.3011  0.1010
   55MOL0     H 7552   9.983   1.663   2.944  0.5204 -0.0959  2.4672
   55MOL0     H 7553  10.181   1.508   2.917  0.8431  0.7911  1.5770
   55MOL0     H 7554  10.408   1.397   2.925  2.1956  0.1534 -0.5696
   55MOL0     H 7555  10.314   1.415   2.767 -0.5724  2.1614  0.0811
   55MOL0     H 7556  10.557   1.445   2.662  2.4968 -0.0331  0.7034
   55MOL0     H 7557  10.614   1.379   2.809 -0.2668 -2.3923  0.8078
   55MOL0     H 7558  10.574   1.218   2.608  0.6459 -0.6551  0.9763
   55MOL0     H 7559  10.400   1.256   2.630 -1.0710  0.3793  2.7667
   55MOL0     H 7560  10.411   1.127   2.852  1.8637 -2.1192 -0.4785
   55MOL0     H 7561  10.580   1.149   2.832  0.4478  1.2272 -1.5003
   55MOL0     H 7562  10.386   1.005   2.645  0.4857 -0.1965 -0.3726
   55MOL0     H 7563  10.561   0.982   2.633 -0.2560  2.1667 -0.4560
   55MOL0     H 7564  10.436   0.769   2.737  0.7428  0.6658 -1.0585
   55MOL0     H 7565  10.397   0.872   2.861 -1.5568 -1.4042 -0.0555
   55MOL0     H 7566  10.596   0.745   2.943  1.1717  0.4294  2.2264
   55MOL0     H 7567  10.623   0.914   2.950  2.5684 -0.1563 -0.6276
   55MOL0     H 7568  10.813   0.793   2.847 -0.4939 -1.9275 -1.9964
   55MOL0     H 7569  10.741   0.925   2.745 -0.0908 -0.3418 -1.2056
   55MOL0     H 7570  10.413   1.830   2.782  0.8304 -1.8879 -2.8839
   55MOL0     H 7571  10.204   1.982   2.769 -1.9618  1.2233  0.2450
   55MOL0     H 7572   9.773   2.018   2.821 -1.1559 -3.3387  2.0311
   55MOL0     H 7573   9.610   2.180   2.816 -1.5885  0.4258  1.2376
   55MOL0     H 7574   8.304   2.095   3.751 -1.7527  3.6479  0.9735
   55MOL0     H 7575   8.434   1.893   3.819 -0.1742 -0.1516 -0.6332
   55MOL0     H 7576   8.700   1.774   4.245 -3.2006  0.2959  1.7351
   55MOL0     H 7577   8.846   1.624   4.353 -0.4854 -0.3212  0.2884
   55MOL0     H 7578   8.708   1.251   4.325  0.4314 -1.9766  1.1202
   55MOL0     H 7579   8.833   1.174   4.233  0.0065  1.3240 -1.4462
   55MOL0     H 7580   8.991   1.184   4.432  0.7626  2.9436  3.2929
   55MOL0     H 7581   8.847   1.082   4.472  2.3732 -0.3642 -0.8238
   55MOL0     H 7582   8.897   1.370   4.566 -1.9490  0.4739 -0.9637
   55MOL0     H 7583   8.750   1.291   4.578 -2.3271 -2.6478 -2.7660
   55MOL0     H 7584   9.019   1.203   4.692  0.4647  0.8478 -2.6244
   55MOL0     H 7585   8.867   1.101   4.713  1.6466 -1.3318 -0.5761
   55MOL0     H 7586   8.823   1.435   4.983 -1.7480 -2.8475  1.6710
   55MOL0     H 7587   8.704   1.307   4.081 -2.4878 -0.0948 -0.7607
   55MOL0     H 7588   8.608   1.396   3.880  1.0869 -1.7521  2.3440
   55MOL0     H 7589   8.445   1.405   3.957  0.6022 -2.4778 -0.0468
   55MOL0     H 7590   8.494   1.546   3.875 -1.0755 -1.5509 -0.5896
   56MOL0     O 7591   7.656   9.058   1.529 -0.2115  0.3199  0.3892
   56MOL0     C 7592   7.757   9.080   1.470  0.2387 -1.0001 -0.2344
   56MOL0     O 7593   7.832   8.990   1.406  0.1188 -0.4366  0.2845
   56MOL0     C 7594   7.805   8.852   1.421  0.2724  0.1593 -0.6407
   56MOL0     C 7595   7.812   8.770   1.309  0.1648  0.2913 -0.6771
   56MOL0     C 7596   7.784   8.631   1.331 -0.6740 -0.4634  0.2264
   56MOL0     C 7597   7.752   8.574   1.460  0.0987 -0.3192 -0.4997
   56MOL0     O 7598   7.742   8.439   1.476  0.5560  0.1590 -0.4310
   56MOL0     C 7599   7.611   8.384   1.439 -0.3945 -0.4314 -0.6701
   56MOL0     C 7600   7.618   8.317   1.311  0.7073 -0.5900 -0.3008
   56MOL0     C 7601   7.478   8.298   1.253 -0.2725 -0.4987 -0.4276
   56MOL0     C 7602   7.485   8.222   1.122  0.2340  0.9787  0.2253
   56MOL0     C 7603   7.342   8.207   1.064 -0.5765 -1.2736  0.2374
   56MOL0     C 7604   7.339   8.107   0.940  0.2529  0.5638 -0.0202
   56MOL0     C 7605   7.448   8.138   0.838  0.9655 -0.3137  0.4538
   56MOL0     C 7606   7.398   8.265   0.761 -0.6611  1.0579  0.2320
   56MOL0     N 7607   7.475   8.291   0.645  0.6947 -0.2234  0.0699
   56MOL0     C 7608   7.546   8.404   0.607 -0.8872 -0.2843 -0.2207
   56MOL0     C 7609   7.629   8.367   0.503 -0.7668  0.7342 -0.0275
   56MOL0     C 7610   7.726   8.464   0.427 -0.7172  0.3232  0.3178
   56MOL0     C 7611   7.676   8.462   0.279 -0.4063 -0.0106 -0.0301
   56MOL0     C 7612   7.754   8.581   0.215  0.5109  0.3647  0.5634
   56MOL0     C 7613   7.699   8.595   0.073  0.2647  0.6933  0.8867
   56MOL0     O 7614   7.796   8.658  -0.019  0.1515 -0.5869 -0.2850
   56MOL0     C 7615   7.794   8.797  -0.020 -0.8304 -0.5912  0.9357
   56MOL0     C 7616   7.868   8.851  -0.122  0.3995 -0.8210 -0.0338
   56MOL0     C 7617   7.870   8.986  -0.136  0.3106 -0.1178  0.4309
   56MOL0     C 7618   7.966   9.047  -0.231 -0.3765  0.0395  0.1948
   56MOL0     C 7619   7.793   9.068  -0.046 -0.0431 -0.5274 -0.0306
   56MOL0     C 7620   7.781   9.219  -0.054  0.0075 -0.1955 -0.0696
   56MOL0     O 7621   7.780   9.273  -0.182  0.3924  0.1951 -0.5733
   56MOL0     C 7622   7.807   9.406  -0.191 -0.7386  0.9740 -0.3062
   56MOL0     C 7623   7.917   9.438  -0.279 -0.2096 -0.4078  0.9520
   56MOL0     C 7624   7.941   9.572  -0.308 -0.1193  0.1585  1.5454
   56MOL0     C 7625   7.859   9.679  -0.251 -0.3853 -0.1373 -0.6529
   56MOL0     O 7626   7.900   9.814  -0.276  0.7318  0.5149 -0.4447
   56MOL0     C 7627   7.855   9.924  -0.198  0.4076 -0.0972  0.4563
   56MOL0     C 7628   7.940  10.046  -0.232 -0.5425  0.0872  0.0438
   56MOL0     C 7629   8.086  10.015  -0.192  0.2838 -0.0528 -0.3416
   56MOL0     C 7630   8.188  10.123  -0.199  1.2977 -0.0759  0.4602
   56MOL0     C 7631   8.213  10.198  -0.335 -0.0873  0.0946 -0.3963
   56MOL0     C 7632   8.324  10.301  -0.321 -0.5800 -0.4025  0.5513
   56MOL0     C 7633   8.378  10.353  -0.453 -0.0982  0.4748  0.9815
   56MOL0     C 7634   8.286  10.461  -0.501 -0.8574  0.3494 -0.0591
   56MOL0    Cl 7635   8.339  10.516  -0.663 -0.0775  0.2697  0.1532
   56MOL0     C 7636   7.758   9.642  -0.154  0.4014  1.0205 -0.7015
   56MOL0     C 7637   7.722   9.506  -0.135 -1.2393 -0.8198 -0.5730
   56MOL0     O 7638   7.761   9.284   0.045 -0.9704 -0.2893 -0.3426
   56MOL0     C 7639   7.725   9.009   0.059  0.0058  1.0570 -0.0934
   56MOL0     C 7640   7.732   8.879   0.076  0.5256 -0.1447 -0.4538
   56MOL0     N 7641   7.594   8.236   0.474  0.9679  0.5308 -0.6302
   56MOL0     N 7642   7.497   8.195   0.552  0.1489  0.2740 -0.0406
   56MOL0     C 7643   7.768   8.652   1.572 -0.2054  0.4102 -0.0357
   56MOL0     C 7644   7.787   8.793   1.552 -0.0328  0.2424  0.2935
   56MOL0     C 7645   7.799   9.216   1.450 -0.5022 -0.0012 -0.3561
   56MOL0     C 7646   7.934   9.242   1.421  0.3029  0.1601 -0.4847
   56MOL0     C 7647   7.993   9.366   1.426 -0.3172 -0.0814  0.2859
   56MOL0     C 7648   7.908   9.467   1.465  0.1675 -0.7146  0.5231
   56MOL0     O 7649   7.954   9.586   1.509 -0.4750  0.3237 -0.7199
   56MOL0     C 7650   8.063   9.638   1.435  0.4014 -0.3707  0.4949
   56MOL0     C 7651   8.024   9.674   1.288 -0.6666  0.2389 -0.7595
   56MOL0     C 7652   7.915   9.770   1.270 -0.4317  0.1790 -0.0436
   56MOL0     C 7653   7.852   9.773   1.131 -0.2035  0.2428 -0.2703
   56MOL0     C 7654   7.776   9.649   1.109 -0.2763  0.1117  0.0042
   56MOL0     C 7655   7.716   9.542   1.101 -0.0655 -0.4291  0.4977
   56MOL0     C 7656   7.773   9.458   1.474  1.2688 -0.3485 -0.1625
   56MOL0     C 7657   7.708   9.331   1.452 -0.2073  0.4736 -0.1218
   56MOL0     C 7658   7.565   9.317   1.453  0.0795 -0.9439  0.3388
   56MOL0     H 7659   7.824   8.807   1.208  1.2948 -0.8120 -0.9577
   56MOL0     H 7660   7.788   8.567   1.243  2.7334  0.4606 -0.4481
   56MOL0     H 7661   7.535   8.463   1.435 -1.0094 -0.9314  0.5933
   56MOL0     H 7662   7.581   8.308   1.512 -0.2206 -0.2880 -0.4486
   56MOL0     H 7663   7.675   8.380   1.242  1.0292 -0.2332  0.2856
   56MOL0     H 7664   7.669   8.221   1.327  1.1761 -0.3405 -0.2860
   56MOL0     H 7665   7.410   8.249   1.322  0.0723 -0.0819  0.2155
   56MOL0     H 7666   7.449   8.402   1.239  3.0938  0.4305 -1.5210
   56MOL0     H 7667   7.560   8.270   1.059 -0.8117  2.0474 -0.2436
   56MOL0     H 7668   7.520   8.120   1.142 -1.1018  0.3113 -0.7000
   56MOL0     H 7669   7.306   8.307   1.040 -1.2318 -1.0696  1.9439
   56MOL0     H 7670   7.272   8.167   1.138 -0.5868 -0.5691  0.6127
   56MOL0     H 7671   7.371   8.008   0.975  0.5031  1.0068  1.0643
   56MOL0     H 7672   7.246   8.104   0.883  1.2786 -0.5491 -1.7330
   56MOL0     H 7673   7.461   8.054   0.770  0.9274 -0.1079  0.1908
   56MOL0     H 7674   7.549   8.149   0.881  0.5493 -3.4299  2.5189
   56MOL0     H 7675   7.294   8.248   0.734  0.3848  0.2096 -3.8554
   56MOL0     H 7676   7.411   8.354   0.824 -0.0961  1.0654  0.1123
   56MOL0     H 7677   7.551   8.498   0.661 -0.1605  0.1967 -1.1018
   56MOL0     H 7678   7.824   8.417   0.435  1.2714  3.8135 -0.9490
   56MOL0     H 7679   7.719   8.565   0.470 -0.7943  0.7264 -0.6024
   56MOL0     H 7680   7.695   8.368   0.227  1.5853  1.4000 -2.0235
   56MOL0     H 7681   7.571   8.491   0.282 -0.1504  1.0526 -0.6744
   56MOL0     H 7682   7.739   8.674   0.270 -0.1376  0.8182 -0.3695
   56MOL0     H 7683   7.856   8.551   0.188 -0.4206  0.3313 -3.5301
   56MOL0     H 7684   7.662   8.503   0.026 -2.2170  2.2702 -0.5282
   56MOL0     H 7685   7.605   8.650   0.076 -1.1926 -1.6753  2.3780
   56MOL0     H 7686   7.910   8.790  -0.201 -0.9739 -0.9846 -0.6667
   56MOL0     H 7687   8.064   8.999  -0.235 -0.4055  0.0359 -0.5212
   56MOL0     H 7688   7.991   9.152  -0.212 -3.0262  0.8734 -0.4498
   56MOL0     H 7689   7.934   9.030  -0.334  1.2113 -0.8369 -0.1888
   56MOL0     H 7690   7.980   9.365  -0.329 -0.1981  0.1585  0.1078
   56MOL0     H 7691   8.012   9.596  -0.386 -0.5815  0.8517  1.3240
   56MOL0     H 7692   7.755   9.959  -0.224 -0.7327 -2.8739  0.7339
   56MOL0     H 7693   7.862   9.896  -0.093 -1.0077 -0.8694  0.3724
   56MOL0     H 7694   7.927  10.063  -0.340 -1.2311 -0.5461  0.0213
   56MOL0     H 7695   7.905  10.134  -0.178 -2.4879 -0.4879 -0.2115
   56MOL0     H 7696   8.115   9.932  -0.257 -0.6080 -0.5944 -0.0641
   56MOL0     H 7697   8.083   9.971  -0.092 -3.6283 -1.9989 -1.1036
   56MOL0     H 7698   8.288  10.088  -0.173  1.0276 -1.1784  0.0604
   56MOL0     H 7699   8.150  10.196  -0.127  2.2218 -0.1338  1.0262
   56MOL0     H 7700   8.252  10.123  -0.404 -0.0631 -1.2548  1.0351
   56MOL0     H 7701   8.125  10.250  -0.374  0.2073  1.5006  0.7385
   56MOL0     H 7702   8.412  10.267  -0.266 -0.6045  0.6678  1.3006
   56MOL0     H 7703   8.299  10.389  -0.261  0.4493 -0.5942  1.2874
   56MOL0     H 7704   8.377  10.265  -0.519  1.2010  1.6659 -0.7010
   56MOL0     H 7705   8.478  10.397  -0.447  1.6064 -2.5125 -1.8991
   56MOL0     H 7706   8.283  10.539  -0.425  0.1662 -1.1859  1.6171
   56MOL0     H 7707   8.189  10.413  -0.516 -0.9652  0.5589 -0.0340
   56MOL0     H 7708   7.707   9.718  -0.096  0.7826  0.8502 -0.1213
   56MOL0     H 7709   7.644   9.465  -0.071  0.0990 -2.1615  0.2561
   56MOL0     H 7710   7.668   9.068   0.130  0.2473 -0.7200  1.6715
   56MOL0     H 7711   7.697   8.839   0.170  2.0576  0.0745  0.2388
   56MOL0     H 7712   7.756   8.619   1.675  1.4008 -1.1748 -0.3262
   56MOL0     H 7713   7.791   8.872   1.626 -1.2528  1.8107 -1.2418
   56MOL0     H 7714   8.008   9.170   1.389  0.3467  0.2087 -0.4916
   56MOL0     H 7715   8.099   9.378   1.405 -0.4212  0.5900  0.1312
   56MOL0     H 7716   8.083   9.734   1.483  1.0184 -0.3028  0.1156
   56MOL0     H 7717   8.152   9.576   1.448 -0.9230 -2.5861 -0.4313
   56MOL0     H 7718   8.004   9.585   1.228  0.4430 -1.0394  0.6781
   56MOL0     H 7719   8.112   9.722   1.244  0.5260  1.0017  2.2182
   56MOL0     H 7720   7.849   9.752   1.355  1.3780  1.3015  1.6841
   56MOL0     H 7721   7.958   9.868   1.289  0.4290 -0.3593  0.8722
   56MOL0     H 7722   7.919   9.792   1.047 -0.3209  1.6254 -0.0681
   56MOL0     H 7723   7.778   9.853   1.130 -0.2053  0.3447 -4.1566
   56MOL0     H 7724   7.658   9.452   1.089  0.1902 -0.8377  2.1434
   56MOL0     H 7725   7.722   9.551   1.496  2.0320  0.1147 -0.3461
   56MOL0     H 7726   7.527   9.414   1.486 -1.2839 -0.1561 -3.0935
   56MOL0     H 7727   7.514   9.307   1.357 -0.1677  1.3710  0.1649
   56MOL0     H 7728   7.530   9.255   1.536  0.9471  2.5011  3.5685
   57MOL0     O 7729   8.924   3.760   8.963  0.0241  0.2221 -0.8408
   57MOL0     C 7730   8.856   3.760   8.863 -0.2443 -0.2450 -0.0875
   57MOL0     O 7731   8.724   3.716   8.858  0.4488  0.2916 -0.5686
   57MOL0     C 7732   8.662   3.645   8.952  0.7245  0.8251 -0.3376
   57MOL0     C 7733   8.701   3.630   9.090 -0.1426 -0.5082 -0.3717
   57MOL0     C 7734   8.645   3.537   9.170  0.2916 -0.2322 -0.4590
   57MOL0     C 7735   8.542   3.452   9.119 -0.1740 -0.6165  0.0261
   57MOL0     O 7736   8.478   3.360   9.205  0.6260  0.4220  0.4004
   57MOL0     C 7737   8.340   3.388   9.216  0.3146 -0.1435 -0.3343
   57MOL0     C 7738   8.283   3.311   9.329  0.5609  0.9833 -0.8624
   57MOL0     C 7739   8.343   3.343   9.463 -0.5236  0.0055  0.3398
   57MOL0     C 7740   8.279   3.274   9.587 -0.4771 -0.6354  0.6300
   57MOL0     C 7741   8.368   3.297   9.715  0.0447  0.2855 -0.3848
   57MOL0     C 7742   8.313   3.218   9.830 -0.0494 -0.2108  0.9207
   57MOL0     C 7743   8.391   3.246   9.958  0.1301  0.2594 -0.2159
   57MOL0     C 7744   8.388   3.127  10.049  0.2137  0.3105 -0.4469
   57MOL0     N 7745   8.265   3.109  10.125  0.4852 -0.8867 -0.1809
   57MOL0     C 7746   8.252   3.133  10.258  0.4850 -0.9667  0.7453
   57MOL0     C 7747   8.119   3.124  10.279  0.4856 -0.7780  0.1492
   57MOL0     C 7748   8.046   3.136  10.411 -0.6628  0.4375 -0.7611
   57MOL0     C 7749   7.933   3.031  10.433 -1.0785  0.1945  1.3406
   57MOL0     C 7750   7.877   3.048  10.571 -1.2139 -0.5821  0.1609
   57MOL0     C 7751   7.828   3.192  10.599 -0.3364 -0.2801 -0.2446
   57MOL0     O 7752   7.765   3.190  10.732  0.4733 -0.0993 -0.1174
   57MOL0     C 7753   7.742   3.304  10.797  0.3186  0.0920  0.6014
   57MOL0     C 7754   7.708   3.299  10.923  0.1535  0.8078 -0.5233
   57MOL0     C 7755   7.694   3.416  10.997  1.1457  0.1313 -0.9189
   57MOL0     C 7756   7.650   3.385  11.141  0.4333  1.0193  0.0518
   57MOL0     C 7757   7.712   3.549  10.938  0.7950  0.4354  0.0998
   57MOL0     C 7758   7.702   3.673  11.018  0.0142  0.2535 -0.1193
   57MOL0     O 7759   7.743   3.786  10.950  0.1898  1.3064 -0.2074
   57MOL0     C 7760   7.682   3.904  10.983 -0.4787 -0.5189  0.2012
   57MOL0     C 7761   7.554   3.919  11.044 -0.9653 -0.2785  0.4775
   57MOL0     C 7762   7.491   4.042  11.067 -0.2492 -1.0186  0.6968
   57MOL0     C 7763   7.559   4.163  11.038  0.5338  0.0988  0.4436
   57MOL0     O 7764   7.500   4.285  11.052  0.3680 -0.3637 -0.9107
   57MOL0     C 7765   7.388   4.308  11.145 -0.4037  0.2599 -0.1415
   57MOL0     C 7766   7.421   4.437  11.209  0.3274 -0.5260  0.6669
   57MOL0     C 7767   7.534   4.409  11.297 -0.2475  0.0838  0.2990
   57MOL0     C 7768   7.556   4.528  11.391  0.1839  0.3520  0.6038
   57MOL0     C 7769   7.704   4.577  11.397 -0.4468  0.0937  0.1304
   57MOL0     C 7770   7.798   4.488  11.481 -1.0292  0.4391  1.2104
   57MOL0     C 7771   7.939   4.538  11.522  0.4426 -0.5190 -0.0082
   57MOL0     C 7772   8.014   4.548  11.395 -0.1584 -0.2672 -0.1651
   57MOL0    Cl 7773   8.183   4.511  11.433 -0.2227 -0.1837 -0.0767
   57MOL0     C 7774   7.688   4.152  10.984  0.5618 -0.9556 -0.2463
   57MOL0     C 7775   7.746   4.026  10.948  1.0241 -0.2542 -0.5050
   57MOL0     O 7776   7.662   3.671  11.133 -0.2327  0.1259 -0.0437
   57MOL0     C 7777   7.750   3.549  10.807  0.0692  1.0611  1.3998
   57MOL0     C 7778   7.763   3.426  10.737 -0.6415 -0.2847  0.8711
   57MOL0     N 7779   8.045   3.097  10.161  0.4295  0.3488  0.0987
   57MOL0     N 7780   8.140   3.071  10.077  0.5643 -0.8210 -0.5191
   57MOL0     C 7781   8.495   3.467   8.980 -0.9656 -0.4595 -0.8465
   57MOL0     C 7782   8.555   3.562   8.901  0.2721  0.9637  0.0280
   57MOL0     C 7783   8.909   3.790   8.724 -0.5403  0.7662 -0.0288
   57MOL0     C 7784   9.044   3.838   8.711 -0.0437 -0.6893 -0.1741
   57MOL0     C 7785   9.113   3.860   8.591  0.4067 -0.4267 -0.2231
   57MOL0     C 7786   9.057   3.806   8.470  0.4886 -0.2858  0.3199
   57MOL0     O 7787   9.127   3.825   8.354  0.5903  0.1962 -0.0138
   57MOL0     C 7788   9.241   3.744   8.321  0.0030 -0.3270  0.2667
   57MOL0     C 7789   9.369   3.829   8.308  0.5758  0.4620 -0.1670
   57MOL0     C 7790   9.419   3.839   8.163  0.3238 -0.7787  0.9691
   57MOL0     C 7791   9.540   3.936   8.154 -0.4383  0.4500  0.6069
   57MOL0     C 7792   9.580   3.967   8.015  0.5591 -0.5152  0.2583
   57MOL0     C 7793   9.594   3.988   7.892  0.0775 -1.3187 -0.3608
   57MOL0     C 7794   8.920   3.766   8.485 -0.8098 -0.0875  0.5467
   57MOL0     C 7795   8.843   3.758   8.603 -1.2905  0.5951 -0.5010
   57MOL0     C 7796   8.709   3.696   8.593 -0.2093 -0.0263  0.9426
   57MOL0     H 7797   8.785   3.686   9.128  0.1935 -1.1912 -0.0984
   57MOL0     H 7798   8.670   3.534   9.276  1.0274  1.5408 -0.5518
   57MOL0     H 7799   8.288   3.370   9.121 -1.1221 -0.6319  0.5010
   57MOL0     H 7800   8.325   3.490   9.252 -4.4853  0.2774 -2.6875
   57MOL0     H 7801   8.175   3.324   9.344  0.8104  2.1995  0.1165
   57MOL0     H 7802   8.306   3.206   9.309 -0.8898 -0.0554  2.1989
   57MOL0     H 7803   8.448   3.314   9.456  0.2415  1.8640  2.5914
   57MOL0     H 7804   8.338   3.452   9.474  1.2572  0.0144  1.5348
   57MOL0     H 7805   8.173   3.301   9.582  0.1656  1.9855 -3.4127
   57MOL0     H 7806   8.274   3.166   9.567 -1.9147 -0.2425 -1.5696
   57MOL0     H 7807   8.360   3.403   9.741 -1.5398  0.5782 -1.8766
   57MOL0     H 7808   8.473   3.272   9.696  0.4075  1.5081 -0.0695
   57MOL0     H 7809   8.206   3.235   9.849 -0.4060 -0.0062 -1.0071
   57MOL0     H 7810   8.314   3.112   9.805  1.1987  0.2094 -1.0528
   57MOL0     H 7811   8.349   3.333  10.010  0.3243 -0.3859  1.0603
   57MOL0     H 7812   8.494   3.275   9.937  1.5588 -1.8784  2.9469
   57MOL0     H 7813   8.407   3.030  10.003 -1.1930 -0.5855  0.7679
   57MOL0     H 7814   8.470   3.139  10.120  1.3815 -0.9408 -1.5321
   57MOL0     H 7815   8.322   3.142  10.340  1.9606  0.2100 -0.5713
   57MOL0     H 7816   8.007   3.237  10.421 -0.5047  0.3906  0.5866
   57MOL0     H 7817   8.127   3.132  10.486 -0.5829 -0.8297 -0.8895
   57MOL0     H 7818   7.849   3.057  10.368 -0.8927 -0.5092  0.8138
   57MOL0     H 7819   7.963   2.926  10.422  0.3557  0.0507  4.9936
   57MOL0     H 7820   7.790   2.983  10.579 -2.2604  0.6205 -0.9785
   57MOL0     H 7821   7.949   3.031  10.651 -1.6447  1.7899  1.1152
   57MOL0     H 7822   7.913   3.261  10.610 -2.0689  1.8891  0.2125
   57MOL0     H 7823   7.761   3.219  10.517 -1.4907 -0.8827  0.4831
   57MOL0     H 7824   7.702   3.201  10.971  0.1961  0.0201 -2.0803
   57MOL0     H 7825   7.710   3.441  11.213 -1.5577  1.6136  1.3196
   57MOL0     H 7826   7.655   3.278  11.161 -0.2359  0.6086 -1.7880
   57MOL0     H 7827   7.545   3.407  11.156 -0.1657 -1.8598  0.6324
   57MOL0     H 7828   7.503   3.826  11.066 -2.0569 -0.1100 -1.1747
   57MOL0     H 7829   7.391   4.033  11.109 -0.2975 -0.5288  0.6931
   57MOL0     H 7830   7.303   4.322  11.079 -0.1163 -2.4836 -1.2439
   57MOL0     H 7831   7.371   4.232  11.222 -1.0442 -2.2581 -2.5809
   57MOL0     H 7832   7.446   4.511  11.133  0.8796 -0.9242  0.4569
   57MOL0     H 7833   7.334   4.471  11.268  1.7093  0.0721  2.4525
   57MOL0     H 7834   7.628   4.401  11.241  1.8888  2.2655  3.2194
   57MOL0     H 7835   7.514   4.318  11.355 -0.8276 -1.2540 -1.9006
   57MOL0     H 7836   7.515   4.510  11.491  1.9826 -0.0861  1.2955
   57MOL0     H 7837   7.500   4.612  11.349 -0.8644 -0.4808  0.2868
   57MOL0     H 7838   7.751   4.578  11.298 -1.5431 -2.5481 -0.5182
   57MOL0     H 7839   7.713   4.670  11.452  2.5606 -1.0475  1.7776
   57MOL0     H 7840   7.803   4.391  11.431 -0.6714  2.0171 -2.1007
   57MOL0     H 7841   7.762   4.492  11.584  1.6505  0.5989  2.2167
   57MOL0     H 7842   7.986   4.467  11.591 -1.1471 -0.7210  0.9200
   57MOL0     H 7843   7.936   4.637  11.569  5.6037  0.9594 -2.0760
   57MOL0     H 7844   8.003   4.643  11.343 -2.4189 -1.6740 -2.5498
   57MOL0     H 7845   7.989   4.461  11.333  0.6244 -0.1996 -0.5813
   57MOL0     H 7846   7.744   4.240  10.956 -0.3655  0.3207  1.7251
   57MOL0     H 7847   7.832   4.023  10.882  0.0895 -1.1092 -1.7350
   57MOL0     H 7848   7.767   3.645  10.760  3.4049  1.1835  2.5262
   57MOL0     H 7849   7.814   3.441  10.642 -1.2940  1.0782  0.7083
   57MOL0     H 7850   8.420   3.402   8.936  0.3771 -1.3868 -1.8482
   57MOL0     H 7851   8.525   3.573   8.797  0.3241  0.5966 -0.0249
   57MOL0     H 7852   9.097   3.871   8.799  1.6195 -0.3556 -1.2359
   57MOL0     H 7853   9.212   3.904   8.579 -0.2760  1.5945  0.9519
   57MOL0     H 7854   9.254   3.673   8.403  0.6883 -3.6804 -2.5049
   57MOL0     H 7855   9.237   3.683   8.230  0.8467  0.1280 -0.0920
   57MOL0     H 7856   9.440   3.774   8.371 -1.6253 -1.2470  0.9948
   57MOL0     H 7857   9.342   3.923   8.356 -1.6020 -0.4426  0.5204
   57MOL0     H 7858   9.438   3.743   8.113 -2.0815 -0.3611 -0.9288
   57MOL0     H 7859   9.337   3.889   8.110  0.7217 -2.4909 -1.4333
   57MOL0     H 7860   9.626   3.904   8.213 -0.6694 -1.1104  0.1347
   57MOL0     H 7861   9.502   4.029   8.197 -0.1734 -0.5943  3.2877
   57MOL0     H 7862   9.606   4.014   7.789  1.9413  2.7916  0.6961
   57MOL0     H 7863   8.871   3.746   8.390  3.4297  1.3111 -2.2081
   57MOL0     H 7864   8.725   3.596   8.635  0.7138 -0.7466 -0.9909
   57MOL0     H 7865   8.642   3.766   8.642 -0.8127  1.6466 -1.9915
   57MOL0     H 7866   8.656   3.693   8.497  1.6979  0.5378 -0.1934
   58MOL0     O 7867   9.327   9.723   0.516 -0.1133 -0.1684  0.0954
   58MOL0     C 7868   9.387   9.825   0.465  0.1172  0.7592 -0.2419
   58MOL0     O 7869   9.329   9.944   0.452  0.5328 -0.1817 -0.3273
   58MOL0     C 7870   9.190   9.942   0.446 -0.8078 -0.1642 -0.0421
   58MOL0     C 7871   9.119   9.889   0.347 -0.3945  0.2952  0.4964
   58MOL0     C 7872   8.984   9.891   0.340  1.4100  0.4036 -0.5868
   58MOL0     C 7873   8.905   9.937   0.443  1.0614  0.1144  0.1865
   58MOL0     O 7874   8.770   9.919   0.436  0.4151 -0.6892 -0.3276
   58MOL0     C 7875   8.696   9.930   0.552  0.2547  1.0430 -0.8108
   58MOL0     C 7876   8.544   9.929   0.535  0.6433  0.0123 -0.7673
   58MOL0     C 7877   8.495  10.062   0.468 -0.3866 -0.2028  0.0561
   58MOL0     C 7878   8.351  10.069   0.420  0.7920 -0.2180  0.1934
   58MOL0     C 7879   8.319  10.211   0.371  0.5984 -0.3401  0.5788
   58MOL0     C 7880   8.302  10.306   0.498  0.8771  0.1701 -0.1753
   58MOL0     C 7881   8.187  10.268   0.607  0.4716 -0.4211  0.0152
   58MOL0     C 7882   8.145  10.378   0.695  0.2035 -0.9026  0.8053
   58MOL0     N 7883   8.071  10.485   0.625  0.0930  0.2818  0.1885
   58MOL0     C 7884   7.940  10.515   0.665 -0.7505 -0.4520 -0.1317
   58MOL0     C 7885   7.908  10.630   0.602 -0.2621  0.8988  0.2585
   58MOL0     C 7886   7.779  10.705   0.608  1.1710 -0.1034  0.9136
   58MOL0     C 7887   7.775  10.840   0.680  0.1460  0.6889 -0.2613
   58MOL0     C 7888   7.649  10.928   0.641  0.0467  0.2931  0.7904
   58MOL0     C 7889   7.520  10.870   0.692 -0.3673 -0.1195  0.8296
   58MOL0     O 7890   7.505  10.882   0.836 -0.4450 -0.0443  0.0768
   58MOL0     C 7891   7.490  11.009   0.881  0.4035 -0.3598  0.2410
   58MOL0     C 7892   7.365  11.038   0.916  0.1184 -0.3729  0.1558
   58MOL0     C 7893   7.334  11.153   0.993  0.7947  0.5125  0.6223
   58MOL0     C 7894   7.186  11.180   1.046  0.3893  0.0552  0.6370
   58MOL0     C 7895   7.438  11.234   1.042 -0.5898 -0.2223  0.1099
   58MOL0     C 7896   7.425  11.364   1.117  0.0436 -0.4686  0.5395
   58MOL0     O 7897   7.517  11.395   1.212 -0.6390 -0.1354  0.1441
   58MOL0     C 7898   7.517  11.512   1.288  0.8984 -0.6531  0.5012
   58MOL0     C 7899   7.634  11.568   1.329  0.5441  0.1050 -0.6658
   58MOL0     C 7900   7.630  11.692   1.394  0.1934  0.6395 -0.0419
   58MOL0     C 7901   7.508  11.746   1.444  0.1276 -0.5216  0.5449
   58MOL0     O 7902   7.492  11.868   1.492  0.6021  0.3079 -0.6755
   58MOL0     C 7903   7.597  11.935   1.569  0.8178  0.3857 -0.3893
   58MOL0     C 7904   7.685  12.025   1.490 -0.9399 -1.9220  0.5993
   58MOL0     C 7905   7.620  12.135   1.414  0.5050 -0.2895 -0.0259
   58MOL0     C 7906   7.547  12.097   1.277 -0.1788 -0.0650 -0.6166
   58MOL0     C 7907   7.461  12.208   1.216  0.6806 -0.1815  0.7179
   58MOL0     C 7908   7.300  12.209   1.230 -0.0527  0.6889 -0.0124
   58MOL0     C 7909   7.235  12.305   1.134  0.4829  0.2333  0.2690
   58MOL0     C 7910   7.096  12.253   1.088 -0.2334 -0.3360 -0.7301
   58MOL0    Cl 7911   6.989  12.192   1.220  0.0033  0.3262 -0.5905
   58MOL0     C 7912   7.400  11.683   1.414  0.8921  0.6990 -0.6954
   58MOL0     C 7913   7.399  11.567   1.338 -0.0646  0.7734 -0.3075
   58MOL0     O 7914   7.334  11.439   1.086 -0.4531 -0.1307  0.6283
   58MOL0     C 7915   7.566  11.198   1.013  0.0645  0.7620  0.6028
   58MOL0     C 7916   7.595  11.086   0.932  0.3815  0.5329  0.0804
   58MOL0     N 7917   8.013  10.669   0.531 -0.5111  0.0675 -0.1167
   58MOL0     N 7918   8.116  10.593   0.549  0.0709  0.7168 -0.4479
   58MOL0     C 7919   8.969   9.994   0.550 -0.0257  0.4489  0.3256
   58MOL0     C 7920   9.109   9.988   0.553 -0.4339 -0.7046  0.2644
   58MOL0     C 7921   9.523   9.807   0.411 -0.1817  0.2759 -0.6055
   58MOL0     C 7922   9.604   9.921   0.381 -0.3625 -0.4976  0.7328
   58MOL0     C 7923   9.741   9.911   0.353  0.6972 -0.7080 -0.2543
   58MOL0     C 7924   9.801   9.792   0.340 -0.0697 -0.4486  0.2070
   58MOL0     O 7925   9.932   9.798   0.297 -0.4037  0.3505 -0.0855
   58MOL0     C 7926  10.008   9.678   0.275 -0.1365 -0.0444  0.1235
   58MOL0     C 7927  10.130   9.686   0.181 -0.0435  0.1006 -0.1353
   58MOL0     C 7928  10.092   9.722   0.045 -0.0181 -0.4455 -0.3328
   58MOL0     C 7929  10.204   9.778  -0.041 -1.2377 -0.1833  0.5557
   58MOL0     C 7930  10.146   9.827  -0.179  0.2208 -0.2003 -0.5402
   58MOL0     C 7931  10.102   9.865  -0.280 -0.0297 -1.1325  0.2748
   58MOL0     C 7932   9.725   9.670   0.366 -0.0101 -0.5421  0.9943
   58MOL0     C 7933   9.581   9.676   0.392 -0.4022  0.5745  0.1608
   58MOL0     C 7934   9.514   9.546   0.399 -0.3585 -0.3648  0.3633
   58MOL0     H 7935   9.176   9.846   0.265  0.1365  1.9069 -0.0091
   58MOL0     H 7936   8.935   9.851   0.252 -0.8632  0.8408  0.4038
   58MOL0     H 7937   8.715  10.022   0.607 -1.5245 -0.4163  2.4958
   58MOL0     H 7938   8.721   9.845   0.615 -1.2690  0.5316 -0.8713
   58MOL0     H 7939   8.514   9.838   0.482  0.8150 -2.3597  2.8558
   58MOL0     H 7940   8.497   9.919   0.633 -0.8184 -0.2786 -1.4780
   58MOL0     H 7941   8.517  10.135   0.546 -0.7564  0.1925 -0.2090
   58MOL0     H 7942   8.565  10.092   0.390  1.3570  0.1187  1.6760
   58MOL0     H 7943   8.333   9.992   0.345 -1.6578  2.3904 -2.1589
   58MOL0     H 7944   8.287  10.043   0.505  0.9340  0.4373  0.5100
   58MOL0     H 7945   8.225  10.227   0.317  1.2957  3.9193  0.2998
   58MOL0     H 7946   8.395  10.246   0.301 -2.3226  0.9316 -2.1895
   58MOL0     H 7947   8.396  10.316   0.553  0.5251  1.8782  0.1557
   58MOL0     H 7948   8.279  10.409   0.469  1.7400 -0.1153 -2.0497
   58MOL0     H 7949   8.228  10.185   0.666 -0.2851  0.1302  1.3734
   58MOL0     H 7950   8.097  10.233   0.556  0.1805  0.9130 -0.4122
   58MOL0     H 7951   8.087  10.340   0.780  1.4659 -1.0404  1.6387
   58MOL0     H 7952   8.232  10.435   0.730 -0.2785  0.9223 -0.8090
   58MOL0     H 7953   7.877  10.457   0.731 -1.5289  1.8993  1.3124
   58MOL0     H 7954   7.703  10.644   0.658  1.3247 -2.3847 -1.4040
   58MOL0     H 7955   7.748  10.712   0.503  1.2150  2.3328  1.0001
   58MOL0     H 7956   7.770  10.822   0.787 -0.2811  1.5672 -0.1231
   58MOL0     H 7957   7.858  10.907   0.655  2.2190 -1.7395 -0.2835
   58MOL0     H 7958   7.651  11.026   0.689  2.5120  1.3215 -1.2138
   58MOL0     H 7959   7.659  10.946   0.534 -0.8442  0.6961  0.7598
   58MOL0     H 7960   7.439  10.927   0.644  2.5557  5.2011  1.4224
   58MOL0     H 7961   7.520  10.767   0.655 -0.8738 -0.4771  1.8037
   58MOL0     H 7962   7.281  10.974   0.890  0.1301 -0.3359  0.0256
   58MOL0     H 7963   7.140  11.258   0.985  1.5362 -0.0119 -0.3373
   58MOL0     H 7964   7.181  11.204   1.153  2.2904 -1.7623  1.1943
   58MOL0     H 7965   7.125  11.090   1.033  3.7426 -2.2448 -0.5325
   58MOL0     H 7966   7.730  11.522   1.305  1.7647  1.5965  1.0188
   58MOL0     H 7967   7.720  11.748   1.415  1.6699 -1.7090  0.2965
   58MOL0     H 7968   7.541  11.999   1.638  1.0661  0.1463  0.0366
   58MOL0     H 7969   7.654  11.863   1.629 -0.3738  0.5039  0.9412
   58MOL0     H 7970   7.761  12.054   1.563  1.2645 -3.9581 -0.7397
   58MOL0     H 7971   7.756  11.989   1.415  2.1922  0.0309  2.4260
   58MOL0     H 7972   7.696  12.210   1.388 -1.1180  0.8735 -1.7070
   58MOL0     H 7973   7.541  12.177   1.476 -1.6394 -0.6508 -2.3553
   58MOL0     H 7974   7.486  12.007   1.290  1.0481 -0.8648 -0.2744
   58MOL0     H 7975   7.622  12.071   1.202 -1.3485  0.5291 -2.0482
   58MOL0     H 7976   7.494  12.304   1.256 -0.6609  1.4254 -1.7751
   58MOL0     H 7977   7.474  12.209   1.108 -1.8321  0.4038  0.3747
   58MOL0     H 7978   7.264  12.230   1.332  0.2133 -0.9153  0.4414
   58MOL0     H 7979   7.250  12.112   1.216 -1.9381  1.4233  1.1972
   58MOL0     H 7980   7.298  12.337   1.050 -0.0083  3.9071  1.1550
   58MOL0     H 7981   7.207  12.391   1.195 -1.1043  1.1775 -1.7100
   58MOL0     H 7982   7.119  12.171   1.019 -0.6220 -3.0575  2.1724
   58MOL0     H 7983   7.041  12.322   1.023  0.8915 -1.8997 -3.5228
   58MOL0     H 7984   7.313  11.722   1.466  2.2184  1.8922  0.7344
   58MOL0     H 7985   7.303  11.515   1.328  0.2576 -0.1238  1.0359
   58MOL0     H 7986   7.655  11.241   1.058  2.3499 -3.8323  1.0629
   58MOL0     H 7987   7.699  11.058   0.919  0.0353  0.0209 -1.9107
   58MOL0     H 7988   8.919  10.014   0.644  0.0224 -0.6729  0.6001
   58MOL0     H 7989   9.165  10.038   0.630 -0.1158  3.0338 -2.1453
   58MOL0     H 7990   9.563  10.018   0.409  1.1711 -0.2156  2.1908
   58MOL0     H 7991   9.800  10.002   0.343  0.3646 -0.4009  0.5120
   58MOL0     H 7992  10.035   9.649   0.377 -0.0400  3.0138  1.0752
   58MOL0     H 7993   9.954   9.590   0.237 -1.8097 -0.4422  3.1683
   58MOL0     H 7994  10.186   9.593   0.186  0.2919  0.2889 -0.2800
   58MOL0     H 7995  10.196   9.767   0.214  1.1752 -0.1876 -1.7272
   58MOL0     H 7996  10.045   9.636  -0.005 -0.9117  0.3702 -0.9489
   58MOL0     H 7997  10.011   9.795   0.048  0.8087  0.5710 -1.7460
   58MOL0     H 7998  10.274   9.704  -0.081  0.2392  1.3426  0.1952
   58MOL0     H 7999  10.253   9.864   0.005  2.8125 -0.8355 -2.0213
   58MOL0     H 8000  10.053   9.889  -0.372 -1.1953  1.4941  1.4784
   58MOL0     H 8001   9.787   9.581   0.371 -0.6555 -1.1148 -0.7106
   58MOL0     H 8002   9.507   9.521   0.505 -0.0309 -4.0207 -0.3253
   58MOL0     H 8003   9.415   9.542   0.353 -1.5215  0.4798  2.6623
   58MOL0     H 8004   9.577   9.466   0.358 -0.7703 -1.1575  1.2560
   59MOL0     O 8005   5.189  10.911   1.879 -0.2440  0.2551 -0.3180
   59MOL0     C 8006   5.167  10.791   1.849  0.1823 -0.8708  0.1007
   59MOL0     O 8007   5.248  10.683   1.862  0.1906 -0.6629  0.0257
   59MOL0     C 8008   5.362  10.708   1.928 -0.4082  0.2838 -0.3458
   59MOL0     C 8009   5.369  10.675   2.064 -0.0223  0.3546 -1.0737
   59MOL0     C 8010   5.482  10.698   2.146  0.3017 -0.2202 -0.0706
   59MOL0     C 8011   5.601  10.742   2.079  1.4043  1.0438 -1.0739
   59MOL0     O 8012   5.715  10.739   2.154 -0.7687  0.2478 -0.6419
   59MOL0     C 8013   5.840  10.769   2.088 -0.7010  0.9013 -0.8124
   59MOL0     C 8014   5.960  10.741   2.188 -0.3936 -0.3556 -0.1627
   59MOL0     C 8015   5.901  10.724   2.328 -0.1795  0.6754  0.5407
   59MOL0     C 8016   6.011  10.727   2.431  0.0975  0.0491 -0.3633
   59MOL0     C 8017   6.104  10.603   2.428 -0.1528 -0.4338  0.1845
   59MOL0     C 8018   6.213  10.619   2.536 -0.3315 -0.0289 -0.7553
   59MOL0     C 8019   6.308  10.501   2.522 -0.4844 -0.1564  0.0311
   59MOL0     C 8020   6.452  10.511   2.583  0.8035 -0.3277 -0.5359
   59MOL0     N 8021   6.429  10.521   2.728 -0.4304 -1.0076 -0.1876
   59MOL0     C 8022   6.430  10.413   2.818 -0.4034  0.0603  1.1419
   59MOL0     C 8023   6.396  10.465   2.928 -0.3069  0.8323 -0.9581
   59MOL0     C 8024   6.375  10.366   3.047 -0.2501 -0.3846 -0.2333
   59MOL0     C 8025   6.496  10.266   3.075  0.0227  0.3994 -0.6295
   59MOL0     C 8026   6.617  10.336   3.124 -0.6110 -0.0254 -1.0840
   59MOL0     C 8027   6.697  10.234   3.219 -0.0389 -0.3333  0.0326
   59MOL0     O 8028   6.802  10.303   3.289 -0.1044 -0.3313  0.1985
   59MOL0     C 8029   6.783  10.288   3.420 -0.5886  0.1620 -0.2218
   59MOL0     C 8030   6.832  10.186   3.493  0.4369 -0.0303  0.4730
   59MOL0     C 8031   6.817  10.181   3.637 -0.2413  0.6451  0.3608
   59MOL0     C 8032   6.864  10.047   3.706 -0.0157  0.3244  0.5017
   59MOL0     C 8033   6.738  10.284   3.698  0.4566  0.0407  0.4557
   59MOL0     C 8034   6.691  10.289   3.840  0.8554 -0.3928 -0.1396
   59MOL0     O 8035   6.595  10.382   3.869  0.5650 -0.0562  0.6632
   59MOL0     C 8036   6.589  10.439   3.996  0.1806  0.7338  0.3773
   59MOL0     C 8037   6.646  10.396   4.112  0.5313  0.5117 -0.0076
   59MOL0     C 8038   6.620  10.452   4.236  0.1844 -0.6794  0.4260
   59MOL0     C 8039   6.524  10.553   4.241 -0.4061 -0.9005  0.9668
   59MOL0     O 8040   6.473  10.607   4.352  0.1596  0.5567  0.2023
   59MOL0     C 8041   6.539  10.575   4.478  0.7086  0.1176  0.3948
   59MOL0     C 8042   6.458  10.628   4.594 -0.3261  0.1334  0.6503
   59MOL0     C 8043   6.492  10.785   4.606  0.4313  0.0784 -0.4255
   59MOL0     C 8044   6.420  10.875   4.501  0.0693  0.4314  0.2659
   59MOL0     C 8045   6.456  11.012   4.515 -0.1041 -0.7212 -0.2250
   59MOL0     C 8046   6.369  11.130   4.461 -0.8524  0.1971 -0.1081
   59MOL0     C 8047   6.341  11.119   4.315  0.1182  0.1896 -0.6147
   59MOL0     C 8048   6.284  11.246   4.250  0.7117 -0.7650 -0.3704
   59MOL0    Cl 8049   6.128  11.289   4.318 -0.1434  0.5879 -0.3192
   59MOL0     C 8050   6.474  10.600   4.120  0.2721 -0.2397 -0.6014
   59MOL0     C 8051   6.509  10.546   4.000  0.4371  0.0509  0.4039
   59MOL0     O 8052   6.725  10.199   3.917 -0.8426 -0.1676  0.0552
   59MOL0     C 8053   6.681  10.390   3.615 -0.3119 -0.3553  0.4097
   59MOL0     C 8054   6.710  10.389   3.474  0.1686  0.3474 -0.0223
   59MOL0     N 8055   6.367  10.600   2.915  0.3605 -0.2322 -0.1370
   59MOL0     N 8056   6.394  10.641   2.789 -0.4339  0.4438 -0.4489
   59MOL0     C 8057   5.596  10.759   1.934 -0.8385  0.5929 -0.2226
   59MOL0     C 8058   5.471  10.743   1.868 -1.2526 -0.5236  0.1435
   59MOL0     C 8059   5.032  10.762   1.791  0.0255 -1.0346 -0.0392
   59MOL0     C 8060   4.991  10.841   1.680  0.0402 -0.1142 -0.2198
   59MOL0     C 8061   4.872  10.810   1.612  0.4300 -0.2025 -0.2805
   59MOL0     C 8062   4.787  10.695   1.657 -1.6373 -0.0921  0.6574
   59MOL0     O 8063   4.678  10.664   1.580  0.2687 -1.1151  0.8697
   59MOL0     C 8064   4.630  10.534   1.572  0.9966  0.1602 -0.2828
   59MOL0     C 8065   4.561  10.513   1.427 -0.3624  0.7728 -1.2950
   59MOL0     C 8066   4.670  10.488   1.311  0.7335  0.4335 -0.1420
   59MOL0     C 8067   4.731  10.347   1.323 -1.0052  0.4196  0.0895
   59MOL0     C 8068   4.634  10.237   1.293 -0.6326  0.1385  0.1931
   59MOL0     C 8069   4.547  10.155   1.270 -0.0063  0.3917  0.1413
   59MOL0     C 8070   4.839  10.618   1.757 -0.0922  0.4931 -0.3823
   59MOL0     C 8071   4.951  10.654   1.833 -0.7814  0.1584  0.4923
   59MOL0     C 8072   4.987  10.569   1.959  0.6757  0.6188  0.1230
   59MOL0     H 8073   5.280  10.629   2.105  0.0703  0.5045 -0.7014
   59MOL0     H 8074   5.494  10.658   2.246 -0.6740 -0.0421  0.1347
   59MOL0     H 8075   5.841  10.869   2.042  1.0998  1.4176  0.2059
   59MOL0     H 8076   5.841  10.702   2.002 -2.7124  0.3010 -0.4040
   59MOL0     H 8077   6.026  10.664   2.145  1.0858  0.2573  0.8989
   59MOL0     H 8078   6.014  10.836   2.183 -3.1853  1.2722 -1.2591
   59MOL0     H 8079   5.827  10.798   2.358 -3.4326 -2.1379  0.0675
   59MOL0     H 8080   5.858  10.623   2.326  2.5422 -0.7574  4.1322
   59MOL0     H 8081   6.069  10.817   2.409  0.3252 -0.0008  0.0289
   59MOL0     H 8082   5.964  10.740   2.528 -4.6025 -0.3522 -2.3380
   59MOL0     H 8083   6.159  10.584   2.335  0.5194 -0.6870  0.6179
   59MOL0     H 8084   6.035  10.518   2.436 -1.0987  0.2878 -0.1649
   59MOL0     H 8085   6.274  10.710   2.532  2.2294 -1.5691  0.3666
   59MOL0     H 8086   6.167  10.630   2.634 -1.4089 -0.8203 -1.1540
   59MOL0     H 8087   6.326  10.496   2.415 -0.8671 -0.0786 -0.0383
   59MOL0     H 8088   6.270  10.407   2.564  0.5056 -1.6449 -2.2418
   59MOL0     H 8089   6.518  10.431   2.547  2.1052 -0.1488  1.3143
   59MOL0     H 8090   6.476  10.603   2.529 -3.0554  1.0199 -0.2776
   59MOL0     H 8091   6.453  10.309   2.798 -1.0511  0.3375 -1.3703
   59MOL0     H 8092   6.296  10.294   3.023 -0.1283 -0.4178 -0.5415
   59MOL0     H 8093   6.353  10.422   3.138 -1.2419 -0.9811 -0.0881
   59MOL0     H 8094   6.466  10.198   3.155  0.2819  1.4221  0.3712
   59MOL0     H 8095   6.523  10.214   2.982 -1.9646  1.3807 -1.8055
   59MOL0     H 8096   6.683  10.366   3.042  0.3158  2.1571  0.3712
   59MOL0     H 8097   6.586  10.426   3.177 -0.4970  0.7917 -2.3715
   59MOL0     H 8098   6.618  10.203   3.288 -2.7146  4.0025 -0.6979
   59MOL0     H 8099   6.733  10.147   3.162 -2.4664 -0.2460 -1.7705
   59MOL0     H 8100   6.874  10.099   3.443  2.2726  1.0260  0.1024
   59MOL0     H 8101   6.953  10.006   3.657 -0.1354 -1.1256  1.4033
   59MOL0     H 8102   6.786   9.970   3.707  0.2887 -0.0618 -1.5827
   59MOL0     H 8103   6.908  10.068   3.805  0.0043 -2.8000  1.2735
   59MOL0     H 8104   6.712  10.310   4.119 -1.4834 -1.4536 -2.8088
   59MOL0     H 8105   6.679  10.413   4.318 -0.1404 -0.9206  0.5486
   59MOL0     H 8106   6.561  10.468   4.485 -1.0684 -0.2354  1.1332
   59MOL0     H 8107   6.640  10.616   4.487  1.8556 -2.4080 -0.1575
   59MOL0     H 8108   6.354  10.620   4.560  0.1783 -2.3059 -0.6031
   59MOL0     H 8109   6.480  10.576   4.687  1.6600  0.6597  0.5073
   59MOL0     H 8110   6.600  10.792   4.619  0.4258 -0.6000  0.0721
   59MOL0     H 8111   6.455  10.822   4.701 -0.6286 -1.2549 -0.2842
   59MOL0     H 8112   6.311  10.864   4.511  0.5196 -2.5888  5.8068
   59MOL0     H 8113   6.443  10.849   4.397 -0.6662  2.1925 -0.3818
   59MOL0     H 8114   6.475  11.039   4.620  0.1611  3.0949 -1.1065
   59MOL0     H 8115   6.554  11.020   4.467  0.4055  2.0734  1.0209
   59MOL0     H 8116   6.420  11.225   4.479  1.2685 -1.0394  0.7849
   59MOL0     H 8117   6.283  11.120   4.528 -0.1906 -0.1480  0.7185
   59MOL0     H 8118   6.265  11.042   4.301 -1.1832  0.9217  1.8347
   59MOL0     H 8119   6.435  11.106   4.260  1.1757 -0.3434  1.2198
   59MOL0     H 8120   6.258  11.235   4.145  0.1634  2.0912 -0.6350
   59MOL0     H 8121   6.350  11.333   4.260 -0.3115  0.0022 -0.0691
   59MOL0     H 8122   6.390  10.669   4.116 -1.5301 -2.1919  1.1747
   59MOL0     H 8123   6.467  10.577   3.905 -1.1304 -1.0953  0.6792
   59MOL0     H 8124   6.624  10.474   3.655  0.4335  0.8314 -0.9163
   59MOL0     H 8125   6.665  10.464   3.409 -0.4519 -1.3477 -1.6390
   59MOL0     H 8126   5.678  10.811   1.887 -1.1453 -1.5814 -3.5343
   59MOL0     H 8127   5.466  10.758   1.760 -3.0811 -3.0634 -0.2373
   59MOL0     H 8128   5.049  10.924   1.640 -0.1886  0.2101  0.1177
   59MOL0     H 8129   4.853  10.860   1.518 -0.6840 -0.8079 -0.3907
   59MOL0     H 8130   4.704  10.456   1.591  0.5045 -0.1230  0.5069
   59MOL0     H 8131   4.554  10.519   1.649  1.3247 -0.0906 -0.0075
   59MOL0     H 8132   4.499  10.600   1.402 -3.2012 -0.2587  1.5301
   59MOL0     H 8133   4.499  10.423   1.429  0.0020  0.5278  0.4167
   59MOL0     H 8134   4.619  10.507   1.216 -1.6510  0.4017  1.0500
   59MOL0     H 8135   4.751  10.559   1.326  0.0370  0.7218  3.1786
   59MOL0     H 8136   4.774  10.336   1.423 -1.9075  0.5393  0.5022
   59MOL0     H 8137   4.812  10.351   1.250  1.1594 -0.7875  2.2977
   59MOL0     H 8138   4.463  10.090   1.257  0.7550 -0.9212  1.5089
   59MOL0     H 8139   4.783  10.526   1.763  0.8821 -0.1903 -1.3664
   59MOL0     H 8140   4.902  10.526   2.015  1.6461 -0.9059  0.4919
   59MOL0     H 8141   5.044  10.483   1.923 -1.0456 -0.4618 -0.1516
   59MOL0     H 8142   5.045  10.624   2.034 -0.5739  1.1235  0.7508
   60MOL0     O 8143   2.042   4.402   5.908 -0.4484  0.3526  0.1020
   60MOL0     C 8144   2.084   4.403   6.022  0.6304 -0.0641  0.1194
   60MOL0     O 8145   2.203   4.339   6.067  0.2602  0.1986  0.6552
   60MOL0     C 8146   2.267   4.245   6.001 -0.9864 -0.0472  0.0312
   60MOL0     C 8147   2.258   4.211   5.867  0.4363  0.1553 -0.3364
   60MOL0     C 8148   2.329   4.097   5.832  0.0318 -0.1656 -0.0010
   60MOL0     C 8149   2.420   4.023   5.908 -0.1733 -0.2076  0.8265
   60MOL0     O 8150   2.460   3.907   5.853  0.9775 -0.8041 -0.9414
   60MOL0     C 8151   2.516   3.818   5.953  0.8918  0.8391  0.3955
   60MOL0     C 8152   2.524   3.672   5.902  0.2215  0.0820 -0.5855
   60MOL0     C 8153   2.622   3.658   5.785  0.4729  0.6057  0.4552
   60MOL0     C 8154   2.628   3.511   5.730  0.5266  0.4870  0.8848
   60MOL0     C 8155   2.757   3.485   5.650  0.7698  0.1085  0.4588
   60MOL0     C 8156   2.880   3.473   5.738 -0.0593  0.4781 -0.4771
   60MOL0     C 8157   3.003   3.452   5.646  1.0766  0.3127  0.3176
   60MOL0     C 8158   3.124   3.456   5.723  0.3675  1.1966 -0.7798
   60MOL0     N 8159   3.243   3.466   5.636  0.2002  0.0984 -0.3618
   60MOL0     C 8160   3.241   3.493   5.502  0.3051 -0.1667 -0.9115
   60MOL0     C 8161   3.376   3.504   5.474  0.0220  0.7009 -0.2001
   60MOL0     C 8162   3.420   3.513   5.330 -0.3345  0.4968 -0.1015
   60MOL0     C 8163   3.367   3.392   5.255  0.1149  0.6030  0.2711
   60MOL0     C 8164   3.419   3.381   5.111 -0.0205  0.2051  0.3514
   60MOL0     C 8165   3.324   3.309   5.018 -0.5145  0.5751 -1.1089
   60MOL0     O 8166   3.196   3.373   4.990  0.2199 -0.1729  0.4769
   60MOL0     C 8167   3.140   3.350   4.864 -0.0441 -0.3516 -0.1724
   60MOL0     C 8168   3.009   3.389   4.842  0.2498 -0.0585  0.7340
   60MOL0     C 8169   2.924   3.357   4.732 -0.5819 -1.0122  0.1833
   60MOL0     C 8170   2.782   3.388   4.750 -0.3996 -0.8341  0.4226
   60MOL0     C 8171   2.978   3.266   4.638  0.3030 -0.3752 -0.7616
   60MOL0     C 8172   2.910   3.217   4.517  0.2999 -1.0950 -1.6838
   60MOL0     O 8173   2.800   3.282   4.482 -0.2667 -0.5922  0.6475
   60MOL0     C 8174   2.709   3.232   4.396  1.0427  0.2112  0.2357
   60MOL0     C 8175   2.743   3.171   4.276 -0.0758  0.1868  0.1824
   60MOL0     C 8176   2.651   3.095   4.203 -0.4046  0.0789  0.0152
   60MOL0     C 8177   2.525   3.084   4.249  0.5347 -1.3603 -0.1846
   60MOL0     O 8178   2.443   3.008   4.164  0.5029  0.3077 -0.1832
   60MOL0     C 8179   2.311   3.063   4.171  0.3923 -0.1651 -0.0883
   60MOL0     C 8180   2.244   3.048   4.029  0.4501  0.3656 -0.3197
   60MOL0     C 8181   2.343   3.058   3.909  0.1506  0.4949  0.1747
   60MOL0     C 8182   2.426   3.191   3.905 -0.6413 -0.5928 -0.5764
   60MOL0     C 8183   2.508   3.201   3.776 -0.4669  0.0136 -0.7567
   60MOL0     C 8184   2.615   3.311   3.783 -0.1730 -0.2578  0.2638
   60MOL0     C 8185   2.680   3.347   3.649 -0.0514 -0.1304 -0.5435
   60MOL0     C 8186   2.782   3.461   3.653  0.9791 -0.3074  0.8012
   60MOL0    Cl 8187   2.913   3.432   3.768 -0.3976  0.3072  0.4900
   60MOL0     C 8188   2.488   3.124   4.384  0.7403 -0.4264  0.7152
   60MOL0     C 8189   2.572   3.211   4.453 -1.1147  0.5539  0.2185
   60MOL0     O 8190   2.969   3.133   4.452  0.2629  0.1288 -0.6894
   60MOL0     C 8191   3.107   3.217   4.663 -0.3227  0.2882 -0.2671
   60MOL0     C 8192   3.191   3.259   4.775  0.2576  0.7695  0.3070
   60MOL0     N 8193   3.450   3.492   5.587 -0.4235  0.8217  0.9219
   60MOL0     N 8194   3.372   3.486   5.688  0.1005  0.2370  1.3802
   60MOL0     C 8195   2.435   4.067   6.035  0.2135  0.2272 -0.8907
   60MOL0     C 8196   2.364   4.183   6.085  0.2817  0.7041 -0.1190
   60MOL0     C 8197   2.007   4.514   6.093 -0.7970  0.4306 -0.7805
   60MOL0     C 8198   1.868   4.543   6.062  0.1704 -0.1054  0.0049
   60MOL0     C 8199   1.782   4.619   6.139 -0.4680 -1.8415  1.0690
   60MOL0     C 8200   1.854   4.701   6.227  0.0705  0.4671 -0.4746
   60MOL0     O 8201   1.787   4.796   6.303  0.2552 -0.1874  0.0629
   60MOL0     C 8202   1.663   4.846   6.252  0.1381  0.0232 -0.1575
   60MOL0     C 8203   1.597   4.924   6.364  0.0420 -0.9008 -0.3965
   60MOL0     C 8204   1.709   5.027   6.419  0.6956 -0.4765 -0.0891
   60MOL0     C 8205   1.648   5.152   6.497 -0.0502  0.0361 -0.2942
   60MOL0     C 8206   1.578   5.245   6.408 -0.2118 -0.5828  0.1552
   60MOL0     C 8207   1.532   5.323   6.330  0.3251 -0.3143  0.7232
   60MOL0     C 8208   1.988   4.688   6.259  0.0064  0.3444 -1.4733
   60MOL0     C 8209   2.066   4.586   6.199 -0.0426 -0.7226 -0.4525
   60MOL0     C 8210   2.207   4.561   6.246  0.2220 -0.6386  0.2718
   60MOL0     H 8211   2.190   4.254   5.795 -1.0072 -1.4750 -0.0107
   60MOL0     H 8212   2.307   4.055   5.734 -0.4617 -0.0353  0.0520
   60MOL0     H 8213   2.452   3.820   6.042  0.7942  0.4757  0.3341
   60MOL0     H 8214   2.616   3.849   5.984  0.6582  2.1696 -0.1113
   60MOL0     H 8215   2.548   3.607   5.986 -0.2900  4.4211  3.3350
   60MOL0     H 8216   2.427   3.636   5.867 -0.2697  0.4063  0.4074
   60MOL0     H 8217   2.590   3.720   5.701  1.6439  0.5942 -0.0218
   60MOL0     H 8218   2.719   3.693   5.822  0.8495  0.3829 -0.2987
   60MOL0     H 8219   2.623   3.432   5.806 -0.7210 -2.1162 -1.6855
   60MOL0     H 8220   2.541   3.500   5.665 -0.1531  1.2744  1.6419
   60MOL0     H 8221   2.778   3.564   5.576 -0.6763  1.5976  1.5644
   60MOL0     H 8222   2.731   3.396   5.592 -2.0626 -0.4847  2.4189
   60MOL0     H 8223   2.896   3.559   5.803 -1.6650  0.9204 -0.6278
   60MOL0     H 8224   2.866   3.387   5.804  1.1247  0.5790 -0.0659
   60MOL0     H 8225   3.003   3.538   5.579 -1.0390 -2.4324 -3.6496
   60MOL0     H 8226   2.985   3.357   5.595 -1.1420  0.4373  0.7843
   60MOL0     H 8227   3.122   3.541   5.792  0.8593  0.1002  0.6332
   60MOL0     H 8228   3.148   3.362   5.775  0.4565  0.5275 -1.9944
   60MOL0     H 8229   3.155   3.500   5.436 -1.5897  0.1860  1.4399
   60MOL0     H 8230   3.529   3.503   5.323 -0.6162 -3.2673 -5.4242
   60MOL0     H 8231   3.381   3.599   5.275  0.6610 -1.3807 -4.1229
   60MOL0     H 8232   3.387   3.306   5.319  1.7933  4.0927  4.9531
   60MOL0     H 8233   3.258   3.393   5.241  0.2276  0.1930 -0.7597
   60MOL0     H 8234   3.435   3.476   5.058  2.4882  0.6828  1.7465
   60MOL0     H 8235   3.514   3.327   5.108 -0.0877  0.1446 -1.9710
   60MOL0     H 8236   3.384   3.293   4.928 -0.8045 -1.9151 -0.9137
   60MOL0     H 8237   3.309   3.214   5.069  4.6662  1.4629  2.9448
   60MOL0     H 8238   2.967   3.448   4.922  2.5284 -0.0035  1.9791
   60MOL0     H 8239   2.765   3.495   4.765 -1.2455 -0.6578 -1.4762
   60MOL0     H 8240   2.772   3.341   4.848 -0.6628 -0.1590  0.7229
   60MOL0     H 8241   2.704   3.354   4.681  1.2998 -1.8214 -1.1094
   60MOL0     H 8242   2.844   3.180   4.236 -0.3155  0.6092 -0.3400
   60MOL0     H 8243   2.680   3.046   4.111  1.3889 -0.5630  0.8660
   60MOL0     H 8244   2.249   3.012   4.246  0.1632 -2.3331 -1.6417
   60MOL0     H 8245   2.314   3.171   4.184  0.6189 -0.2749  0.7865
   60MOL0     H 8246   2.182   2.958   4.020 -2.4537  2.3233 -1.5558
   60MOL0     H 8247   2.167   3.126   4.033  0.4829  0.3671  3.3933
   60MOL0     H 8248   2.291   3.049   3.813  1.1931  2.4926 -0.6428
   60MOL0     H 8249   2.408   2.969   3.909  2.0433  1.7617 -2.1236
   60MOL0     H 8250   2.479   3.202   4.000 -2.3257 -0.5398  0.3976
   60MOL0     H 8251   2.360   3.279   3.904  0.2608  0.1232  0.7642
   60MOL0     H 8252   2.557   3.105   3.758  1.5888  1.2096 -1.9584
   60MOL0     H 8253   2.434   3.208   3.696 -1.7964  0.6559  0.4765
   60MOL0     H 8254   2.692   3.263   3.845  1.2649  1.6738  0.0513
   60MOL0     H 8255   2.588   3.399   3.842  0.7591  0.6632 -0.6390
   60MOL0     H 8256   2.598   3.368   3.581  0.8154  3.8511 -0.6072
   60MOL0     H 8257   2.734   3.260   3.611 -0.5193 -1.1136  0.9288
   60MOL0     H 8258   2.726   3.554   3.666  0.7553 -0.4710  1.0081
   60MOL0     H 8259   2.821   3.472   3.552 -4.3033 -1.5473 -1.6912
   60MOL0     H 8260   2.386   3.095   4.406  0.5262 -3.1393 -2.8804
   60MOL0     H 8261   2.550   3.246   4.553  1.7495  3.0972  0.1179
   60MOL0     H 8262   3.159   3.148   4.597  1.3434  2.6823 -1.5982
   60MOL0     H 8263   3.282   3.201   4.791 -1.7947 -2.0811  2.8927
   60MOL0     H 8264   2.500   4.022   6.110 -3.1213  2.4829  3.8697
   60MOL0     H 8265   2.362   4.209   6.191 -1.3498 -0.8433  0.2884
   60MOL0     H 8266   1.827   4.493   5.974 -3.7904  1.6128  0.6632
   60MOL0     H 8267   1.679   4.634   6.110 -0.1965  0.6887  1.2323
   60MOL0     H 8268   1.678   4.917   6.169 -0.3959  0.0956 -0.2018
   60MOL0     H 8269   1.590   4.771   6.220 -1.9872  1.4681  0.9762
   60MOL0     H 8270   1.562   4.854   6.440 -1.4071 -1.9536 -1.9643
   60MOL0     H 8271   1.508   4.972   6.323 -1.5086 -0.0994  3.5493
   60MOL0     H 8272   1.775   4.972   6.487 -1.9384 -1.9634  1.4343
   60MOL0     H 8273   1.765   5.079   6.341  0.2767  1.5385  0.8886
   60MOL0     H 8274   1.720   5.211   6.555  2.6229 -1.0046 -2.3399
   60MOL0     H 8275   1.574   5.103   6.560 -0.6827  0.3908 -0.7470
   60MOL0     H 8276   1.494   5.398   6.264  2.4700  0.1946 -0.0103
   60MOL0     H 8277   2.026   4.736   6.349 -3.4602 -3.6129  2.6568
   60MOL0     H 8278   2.243   4.637   6.316  0.3996 -0.5597  0.0940
   60MOL0     H 8279   2.214   4.462   6.292 -0.2434 -0.9962 -0.4072
   60MOL0     H 8280   2.277   4.563   6.162 -1.3272 -0.8774 -1.0739
   61MOL0     O 8281   0.201   9.135   1.033  0.2914  0.0506 -0.0582
   61MOL0     C 8282   0.293   9.180   1.112  0.4908 -0.5790  0.3851
   61MOL0     O 8283   0.384   9.106   1.176  0.1906  0.2030 -0.0087
   61MOL0     C 8284   0.375   8.970   1.149 -0.7455 -0.3020 -0.4933
   61MOL0     C 8285   0.458   8.911   1.046 -0.0176 -0.3443 -0.1880
   61MOL0     C 8286   0.453   8.774   1.024  0.3274 -0.4614 -0.0950
   61MOL0     C 8287   0.379   8.692   1.105 -0.1156  0.1234 -0.1732
   61MOL0     O 8288   0.368   8.559   1.071 -0.1632  0.3111  0.4095
   61MOL0     C 8289   0.480   8.491   1.014 -0.2740 -0.0117 -0.6644
   61MOL0     C 8290   0.489   8.351   1.084  0.5209 -0.2025  0.4327
   61MOL0     C 8291   0.367   8.267   1.091 -0.3684 -0.2477  0.1085
   61MOL0     C 8292   0.296   8.252   0.948 -0.0044  0.1723  0.0987
   61MOL0     C 8293   0.181   8.154   0.937 -0.1964  0.0343 -0.1595
   61MOL0     C 8294   0.071   8.177   1.047  0.5350  0.1067 -0.0092
   61MOL0     C 8295  -0.021   8.055   1.032 -1.0412  0.4547  0.4263
   61MOL0     C 8296  -0.129   8.061   1.136 -0.2442  0.6842  0.3120
   61MOL0     N 8297  -0.245   7.972   1.107 -0.1546 -0.1956  0.3310
   61MOL0     C 8298  -0.238   7.836   1.090 -0.2838  0.1466  0.2295
   61MOL0     C 8299  -0.350   7.807   1.024  0.1535 -0.2455  0.1117
   61MOL0     C 8300  -0.400   7.671   0.962  0.2574 -0.0451 -0.0176
   61MOL0     C 8301  -0.470   7.595   1.079  0.1320 -0.7021 -1.1045
   61MOL0     C 8302  -0.451   7.441   1.057  0.3704  0.0336 -0.2500
   61MOL0     C 8303  -0.534   7.397   0.937 -0.1281  1.3403  0.3525
   61MOL0     O 8304  -0.498   7.263   0.905 -0.0054  0.9341  0.3474
   61MOL0     C 8305  -0.558   7.201   0.797 -0.5381  0.1567  0.3135
   61MOL0     C 8306  -0.499   7.075   0.765 -0.0527  0.0748 -0.3931
   61MOL0     C 8307  -0.550   6.999   0.661  0.2535  0.3823 -0.2395
   61MOL0     C 8308  -0.501   6.863   0.652 -0.3080  0.0277 -0.0837
   61MOL0     C 8309  -0.667   7.047   0.585  0.2169  0.8932  0.0049
   61MOL0     C 8310  -0.734   6.967   0.476 -0.1619 -1.3576 -0.3200
   61MOL0     O 8311  -0.662   6.888   0.400 -0.5254  0.1502  0.3428
   61MOL0     C 8312  -0.720   6.774   0.347 -0.1509 -0.7664  0.3944
   61MOL0     C 8313  -0.815   6.702   0.407  0.6404  0.0014 -0.7958
   61MOL0     C 8314  -0.874   6.586   0.349  0.9298  0.8079 -0.9966
   61MOL0     C 8315  -0.823   6.551   0.223 -0.6538  0.5308  0.3350
   61MOL0     O 8316  -0.863   6.438   0.164  0.0566  0.5886 -0.0056
   61MOL0     C 8317  -0.970   6.354   0.211 -0.1965 -0.1831 -0.0810
   61MOL0     C 8318  -0.980   6.231   0.130  0.2571  0.0497 -0.2202
   61MOL0     C 8319  -1.124   6.160   0.158 -0.2412  1.1074 -1.3885
   61MOL0     C 8320  -1.128   6.031   0.070 -0.1077  0.2534  0.0504
   61MOL0     C 8321  -1.270   5.967   0.073  0.4816  0.4703 -1.4792
   61MOL0     C 8322  -1.287   5.891   0.205 -0.5883  0.3907 -0.1217
   61MOL0     C 8323  -1.429   5.854   0.249 -0.2959  0.4981  0.0629
   61MOL0     C 8324  -1.494   5.758   0.151 -0.0506 -0.3163  0.8175
   61MOL0    Cl 8325  -1.625   5.669   0.231  0.1560  0.0168  0.2307
   61MOL0     C 8326  -0.733   6.626   0.151 -0.2525  0.2758 -0.5380
   61MOL0     C 8327  -0.678   6.735   0.214  0.2760 -0.1683 -0.5646
   61MOL0     O 8328  -0.852   6.986   0.465 -0.0824  0.1232  0.0429
   61MOL0     C 8329  -0.716   7.182   0.607  0.3141 -0.6320 -0.2757
   61MOL0     C 8330  -0.653   7.264   0.707  0.6261  0.1519  0.6898
   61MOL0     N 8331  -0.420   7.923   0.998  0.2557 -0.3357 -0.5191
   61MOL0     N 8332  -0.350   8.027   1.045 -0.0125  0.6750 -0.8490
   61MOL0     C 8333   0.308   8.753   1.200  0.8457  0.2903 -0.5263
   61MOL0     C 8334   0.307   8.886   1.222  0.3609 -0.6336 -1.5267
   61MOL0     C 8335   0.296   9.329   1.128  0.5041 -0.6168 -0.2098
   61MOL0     C 8336   0.377   9.389   1.234 -0.4212 -0.2150 -0.2221
   61MOL0     C 8337   0.366   9.524   1.270 -0.5063 -0.1177 -0.0111
   61MOL0     C 8338   0.298   9.612   1.182  0.7701 -0.6939 -0.2096
   61MOL0     O 8339   0.264   9.739   1.196 -0.4517  0.2670 -0.4001
   61MOL0     C 8340   0.282   9.820   1.316 -0.0963 -0.7483 -0.5434
   61MOL0     C 8341   0.379   9.937   1.293 -0.2658  0.2982 -0.1269
   61MOL0     C 8342   0.323  10.057   1.209  1.2105  0.2240 -0.7721
   61MOL0     C 8343   0.291  10.041   1.064 -0.0433  0.4037  0.3251
   61MOL0     C 8344   0.249  10.173   1.026 -0.3137  0.2464  0.5511
   61MOL0     C 8345   0.202  10.284   1.000  0.0046 -0.3186 -0.7518
   61MOL0     C 8346   0.238   9.560   1.068 -0.6503 -0.6502 -1.0025
   61MOL0     C 8347   0.229   9.423   1.039  0.0291 -0.5248 -0.0920
   61MOL0     C 8348   0.128   9.388   0.931 -0.3248  0.5809  0.0977
   61MOL0     H 8349   0.518   8.972   0.979  1.2389  0.2206  1.3675
   61MOL0     H 8350   0.494   8.732   0.934 -3.4907  0.3181 -2.4362
   61MOL0     H 8351   0.565   8.556   1.037 -1.7313  1.5968  0.4231
   61MOL0     H 8352   0.462   8.489   0.906  1.1517  0.8959 -0.9506
   61MOL0     H 8353   0.561   8.286   1.033  0.2260  0.3475 -0.7149
   61MOL0     H 8354   0.530   8.360   1.185 -0.0175  0.4103  0.6045
   61MOL0     H 8355   0.394   8.167   1.126 -0.8684 -1.0515 -1.7106
   61MOL0     H 8356   0.316   8.321   1.172  3.5694  2.0637  1.3184
   61MOL0     H 8357   0.244   8.346   0.928  1.8984  1.6149  1.5625
   61MOL0     H 8358   0.372   8.228   0.872 -0.5106 -1.0916 -0.0419
   61MOL0     H 8359   0.228   8.057   0.949  2.3448  1.2624  0.5058
   61MOL0     H 8360   0.140   8.158   0.836  0.7919  2.3725 -0.5305
   61MOL0     H 8361   0.097   8.179   1.153 -0.7956  3.0650  0.3545
   61MOL0     H 8362   0.020   8.271   1.026  0.4857  0.2266  0.6184
   61MOL0     H 8363   0.034   7.965   1.061 -0.6574  1.3119  2.5614
   61MOL0     H 8364  -0.065   8.043   0.932  0.7272 -2.3452 -0.1194
   61MOL0     H 8365  -0.092   8.033   1.235 -1.4272  2.3277  1.2617
   61MOL0     H 8366  -0.171   8.161   1.149 -2.3682 -0.0323 -0.6365
   61MOL0     H 8367  -0.155   7.766   1.097 -1.2899 -1.3819 -1.8506
   61MOL0     H 8368  -0.319   7.613   0.917  0.3549 -0.2663  0.4366
   61MOL0     H 8369  -0.470   7.699   0.883 -0.4891  1.8012  1.2289
   61MOL0     H 8370  -0.421   7.624   1.172  0.2994  1.3790 -1.7649
   61MOL0     H 8371  -0.576   7.621   1.085  0.7113  1.5947  0.4632
   61MOL0     H 8372  -0.344   7.421   1.043 -0.6437 -4.9733 -3.0589
   61MOL0     H 8373  -0.477   7.389   1.150 -0.9591  0.3783 -0.4153
   61MOL0     H 8374  -0.643   7.401   0.941 -0.1746 -0.0516  3.0354
   61MOL0     H 8375  -0.502   7.458   0.852 -0.4430  1.5140  0.3591
   61MOL0     H 8376  -0.419   7.044   0.831  0.7448  0.5754 -1.1059
   61MOL0     H 8377  -0.576   6.798   0.606 -0.2073 -1.8388  2.1564
   61MOL0     H 8378  -0.461   6.807   0.737  5.2636  0.3191 -2.1012
   61MOL0     H 8379  -0.416   6.871   0.584 -1.6968  1.5250 -1.7502
   61MOL0     H 8380  -0.837   6.727   0.510 -3.5326  0.0062 -1.5424
   61MOL0     H 8381  -0.928   6.518   0.413  1.5094  0.8685 -0.4245
   61MOL0     H 8382  -0.950   6.318   0.313  0.6930  0.4597 -0.0158
   61MOL0     H 8383  -1.069   6.401   0.210 -0.9868 -1.7654  0.0248
   61MOL0     H 8384  -0.968   6.253   0.023  2.5030  4.6605  0.7280
   61MOL0     H 8385  -0.911   6.151   0.157 -1.7702 -1.7808 -0.1547
   61MOL0     H 8386  -1.205   6.229   0.135 -2.7309  0.9117  4.8942
   61MOL0     H 8387  -1.133   6.142   0.266 -2.0953  3.4745 -1.0746
   61MOL0     H 8388  -1.048   5.958   0.087 -2.3354 -2.4858 -0.6336
   61MOL0     H 8389  -1.108   6.065  -0.032 -3.2060  1.1706 -0.3415
   61MOL0     H 8390  -1.354   6.036   0.073 -0.0591 -0.1702 -0.4714
   61MOL0     H 8391  -1.287   5.895  -0.008 -0.9243 -1.2389  0.2537
   61MOL0     H 8392  -1.245   5.949   0.288  0.0052  0.9192 -0.7786
   61MOL0     H 8393  -1.225   5.801   0.195  0.6672  0.9180  2.0964
   61MOL0     H 8394  -1.493   5.941   0.267 -0.3717  0.2825  0.8782
   61MOL0     H 8395  -1.421   5.798   0.342  2.0250 -0.9583 -0.9322
   61MOL0     H 8396  -1.418   5.689   0.112  0.2168  2.3438 -4.2148
   61MOL0     H 8397  -1.509   5.816   0.059  0.8874 -1.8386 -0.3575
   61MOL0     H 8398  -0.714   6.592   0.050 -1.2656 -0.5902 -0.4591
   61MOL0     H 8399  -0.609   6.797   0.157 -1.9562  1.0542 -2.0958
   61MOL0     H 8400  -0.798   7.218   0.546 -0.1142  2.3902  1.8371
   61MOL0     H 8401  -0.675   7.370   0.717  2.0019  1.0238 -3.5510
   61MOL0     H 8402   0.248   8.685   1.261  2.0301  1.5739  2.2364
   61MOL0     H 8403   0.245   8.914   1.306  0.4132 -2.6055 -0.7856
   61MOL0     H 8404   0.429   9.323   1.302  0.2316 -1.6922 -2.0764
   61MOL0     H 8405   0.425   9.566   1.351  0.7545  0.8937 -1.4041
   61MOL0     H 8406   0.191   9.877   1.339  0.0612 -0.6741 -0.1017
   61MOL0     H 8407   0.306   9.768   1.409  1.0270  3.0478  1.5001
   61MOL0     H 8408   0.465   9.895   1.241  1.0429  1.2794  1.1687
   61MOL0     H 8409   0.428   9.985   1.378  2.5252 -0.3174 -1.2932
   61MOL0     H 8410   0.238  10.098   1.263  1.3669 -0.4248 -0.0071
   61MOL0     H 8411   0.400  10.134   1.204  1.3303  0.0217 -3.2490
   61MOL0     H 8412   0.209   9.972   1.043 -2.1276  2.5003  1.0899
   61MOL0     H 8413   0.387  10.009   1.022 -0.0196  0.2028  0.5331
   61MOL0     H 8414   0.162  10.381   0.979  0.6007  0.4251  1.2570
   61MOL0     H 8415   0.189   9.630   1.001 -1.1584  0.0161  0.0475
   61MOL0     H 8416   0.063   9.315   0.981  1.4937 -0.7660  0.6060
   61MOL0     H 8417   0.065   9.473   0.906 -2.3708 -1.1076 -0.8783
   61MOL0     H 8418   0.167   9.349   0.837 -0.2563  1.9198 -0.4480
   62MOL0     O 8419   6.220   6.451   9.408 -0.5827  0.0558 -0.4503
   62MOL0     C 8420   6.181   6.371   9.323  0.6533 -0.1910 -0.2496
   62MOL0     O 8421   6.147   6.397   9.189 -0.7115 -0.3399 -0.7266
   62MOL0     C 8422   6.138   6.525   9.136  1.1646  0.3051  0.1597
   62MOL0     C 8423   6.147   6.655   9.194  0.8056  0.7140  0.0020
   62MOL0     C 8424   6.122   6.773   9.128 -0.0846 -0.6052 -1.2087
   62MOL0     C 8425   6.087   6.771   8.994 -0.0529 -0.4873 -0.1882
   62MOL0     O 8426   6.039   6.887   8.928  0.3729  0.3199  0.8027
   62MOL0     C 8427   6.043   7.012   8.993  0.5975  0.0686 -0.6528
   62MOL0     C 8428   6.032   7.118   8.896 -0.1848 -0.2344 -0.9349
   62MOL0     C 8429   6.155   7.118   8.810 -0.7960  0.9753  0.2208
   62MOL0     C 8430   6.147   7.239   8.712 -0.5716  0.6001 -1.1896
   62MOL0     C 8431   6.281   7.256   8.644 -0.9510  0.3853  0.8145
   62MOL0     C 8432   6.270   7.364   8.534 -0.5101 -0.4012  0.3871
   62MOL0     C 8433   6.390   7.370   8.434 -0.2042  0.3926 -0.1583
   62MOL0     C 8434   6.385   7.486   8.331 -0.0135 -0.3602 -0.9653
   62MOL0     N 8435   6.480   7.475   8.223  0.1344  0.2168  0.1870
   62MOL0     C 8436   6.449   7.527   8.095 -0.1303 -0.0381 -0.1309
   62MOL0     C 8437   6.547   7.468   8.016  0.0107 -0.2227 -0.9991
   62MOL0     C 8438   6.564   7.513   7.877  1.1450  0.2092  0.5506
   62MOL0     C 8439   6.687   7.606   7.876  0.0808  0.8942 -0.4510
   62MOL0     C 8440   6.758   7.633   7.740 -0.3682  0.3863 -0.7682
   62MOL0     C 8441   6.663   7.720   7.650 -0.1428 -0.4040 -0.0306
   62MOL0     O 8442   6.545   7.641   7.622 -0.0092  0.3982 -0.1987
   62MOL0     C 8443   6.486   7.653   7.492  0.7378 -0.6500 -0.8159
   62MOL0     C 8444   6.348   7.676   7.480  0.3982 -0.7456 -0.3814
   62MOL0     C 8445   6.282   7.673   7.357 -0.1009  0.4759 -1.0518
   62MOL0     C 8446   6.150   7.728   7.360  0.8683 -0.3881 -0.2024
   62MOL0     C 8447   6.351   7.648   7.244  0.2627  0.1917  0.2762
   62MOL0     C 8448   6.297   7.653   7.105  0.0112 -0.3501  0.5517
   62MOL0     O 8449   6.396   7.650   7.002  0.5095  0.0713 -0.3039
   62MOL0     C 8450   6.356   7.667   6.871  0.0648 -0.6161 -0.7126
   62MOL0     C 8451   6.435   7.760   6.795  0.0175 -0.8014 -0.1856
   62MOL0     C 8452   6.419   7.760   6.665  0.7559 -0.2381  0.1456
   62MOL0     C 8453   6.317   7.679   6.602 -0.6485 -0.4500  0.7325
   62MOL0     O 8454   6.306   7.671   6.465  0.1348  0.7293  0.0533
   62MOL0     C 8455   6.372   7.762   6.384 -0.2176 -1.2778 -0.0795
   62MOL0     C 8456   6.363   7.736   6.228  0.7949 -0.2710 -0.2536
   62MOL0     C 8457   6.370   7.873   6.151  0.1626 -0.9586  0.6354
   62MOL0     C 8458   6.332   7.875   6.002 -0.1992 -0.2208 -0.5734
   62MOL0     C 8459   6.349   8.012   5.938  0.3564  0.6566  0.0152
   62MOL0     C 8460   6.242   8.115   5.989  0.0519  0.2338  0.5874
   62MOL0     C 8461   6.093   8.086   5.951 -1.1479 -0.1224 -0.6726
   62MOL0     C 8462   6.062   8.068   5.804 -1.0503  0.2545 -1.0843
   62MOL0    Cl 8463   6.120   8.199   5.704  0.0138 -0.5639 -0.3982
   62MOL0     C 8464   6.239   7.594   6.671  1.2173  1.0014  0.3491
   62MOL0     C 8465   6.263   7.580   6.807 -0.2247  0.1103  0.3552
   62MOL0     O 8466   6.175   7.648   7.078 -0.1477  0.3713 -0.3054
   62MOL0     C 8467   6.489   7.620   7.254  0.3067  0.9469 -0.3960
   62MOL0     C 8468   6.549   7.608   7.378  1.4114 -0.1169 -1.0609
   62MOL0     N 8469   6.629   7.393   8.091  0.2232  0.4900 -1.0570
   62MOL0     N 8470   6.587   7.404   8.215 -1.1888  0.2544 -0.6397
   62MOL0     C 8471   6.094   6.650   8.929  0.3068  1.0109  0.5053
   62MOL0     C 8472   6.108   6.531   9.005 -0.8240 -0.9449  0.7146
   62MOL0     C 8473   6.179   6.226   9.374  0.6009  0.4493  0.7216
   62MOL0     C 8474   6.189   6.207   9.511  0.9104  0.3463  0.0624
   62MOL0     C 8475   6.164   6.084   9.562 -0.4818  0.1592 -0.3742
   62MOL0     C 8476   6.140   5.972   9.485  0.4898  0.5996 -0.9727
   62MOL0     O 8477   6.135   5.852   9.552  0.3228  0.1068 -0.1176
   62MOL0     C 8478   6.076   5.735   9.495  0.6792 -0.2404 -0.3561
   62MOL0     C 8479   5.958   5.694   9.582  0.0957  0.3579 -0.8588
   62MOL0     C 8480   5.831   5.798   9.592 -0.4982  0.5108  0.2387
   62MOL0     C 8481   5.772   5.800   9.738 -0.1355  0.1435  1.1366
   62MOL0     C 8482   5.632   5.841   9.730 -0.0343 -0.8011  0.0705
   62MOL0     C 8483   5.522   5.880   9.709  0.3323  0.1525  1.0887
   62MOL0     C 8484   6.135   5.980   9.344  0.1533 -0.1052 -0.5435
   62MOL0     C 8485   6.152   6.106   9.288 -0.4676  0.4168 -0.7517
   62MOL0     C 8486   6.148   6.115   9.135 -0.0388 -0.1458  0.4738
   62MOL0     H 8487   6.171   6.666   9.299 -0.2908  0.9836  0.2393
   62MOL0     H 8488   6.124   6.857   9.197  0.1270 -0.8647 -0.8918
   62MOL0     H 8489   6.134   7.039   9.049  1.1937  0.8853 -1.9567
   62MOL0     H 8490   5.958   7.033   9.058 -0.5661  1.9129 -2.6479
   62MOL0     H 8491   5.938   7.115   8.841 -0.7958  3.3511 -0.3258
   62MOL0     H 8492   6.041   7.207   8.960  2.1844 -1.8850  1.2248
   62MOL0     H 8493   6.239   7.150   8.872  0.5952 -0.7855 -0.6742
   62MOL0     H 8494   6.168   7.023   8.758 -1.6702  0.3059  1.1992
   62MOL0     H 8495   6.070   7.231   8.635  1.3223  0.2046 -3.1614
   62MOL0     H 8496   6.125   7.323   8.778 -2.8061 -0.5046 -0.4039
   62MOL0     H 8497   6.302   7.168   8.582 -1.6376  3.5402 -4.5081
   62MOL0     H 8498   6.365   7.278   8.710  0.7806  2.2038 -1.8301
   62MOL0     H 8499   6.180   7.364   8.472 -1.4880 -0.1674  1.7630
   62MOL0     H 8500   6.272   7.462   8.582 -1.0062 -0.1977 -0.0001
   62MOL0     H 8501   6.387   7.273   8.384  1.0754  0.3525 -0.1989
   62MOL0     H 8502   6.487   7.376   8.486  0.0671 -3.2100  0.0124
   62MOL0     H 8503   6.283   7.505   8.298  1.1793  1.3398 -4.1701
   62MOL0     H 8504   6.417   7.578   8.382 -1.1768  0.9490 -2.4846
   62MOL0     H 8505   6.383   7.602   8.053  1.4420  0.6849 -1.4266
   62MOL0     H 8506   6.470   7.556   7.841  0.2393 -2.9615 -1.3091
   62MOL0     H 8507   6.605   7.430   7.818  1.3612 -0.3117  1.4150
   62MOL0     H 8508   6.643   7.693   7.925  1.9629  1.7299 -0.1342
   62MOL0     H 8509   6.765   7.567   7.944  0.0649 -3.3846 -2.5578
   62MOL0     H 8510   6.847   7.696   7.753  1.2913 -0.8526 -4.6015
   62MOL0     H 8511   6.801   7.546   7.690  1.3644  1.1823 -0.7477
   62MOL0     H 8512   6.627   7.807   7.705  0.0548  0.9428 -1.9432
   62MOL0     H 8513   6.714   7.754   7.559  0.6805 -1.2704  0.0911
   62MOL0     H 8514   6.306   7.729   7.565 -2.0137  1.4074 -2.7213
   62MOL0     H 8515   6.069   7.660   7.390 -0.7095  1.2639 -0.5486
   62MOL0     H 8516   6.129   7.779   7.265  1.7097  0.8936  0.2769
   62MOL0     H 8517   6.139   7.801   7.440 -0.1358  0.2645 -0.9167
   62MOL0     H 8518   6.504   7.828   6.842 -2.1170  0.9171  0.6415
   62MOL0     H 8519   6.496   7.820   6.619  1.5936 -0.2945  1.4182
   62MOL0     H 8520   6.331   7.863   6.394 -2.4808 -1.3705 -5.2651
   62MOL0     H 8521   6.480   7.773   6.393  0.0209 -2.4212 -1.2146
   62MOL0     H 8522   6.437   7.661   6.196 -1.2221 -1.6880 -1.8111
   62MOL0     H 8523   6.269   7.684   6.209 -0.0295  1.0244  0.1614
   62MOL0     H 8524   6.467   7.920   6.164 -1.5178  4.2089 -2.7005
   62MOL0     H 8525   6.299   7.938   6.202 -1.1590 -2.7749  1.2510
   62MOL0     H 8526   6.227   7.845   5.994 -0.6183  0.0053  2.5480
   62MOL0     H 8527   6.393   7.800   5.950  2.2244  1.8308 -0.8430
   62MOL0     H 8528   6.451   8.051   5.948  1.9471 -1.3094 -5.2742
   62MOL0     H 8529   6.359   7.995   5.831  0.1942 -3.0049  0.4690
   62MOL0     H 8530   6.287   8.199   5.935  0.1513  1.4411  2.4572
   62MOL0     H 8531   6.238   8.148   6.093 -0.9033 -1.8434  1.2547
   62MOL0     H 8532   6.024   8.168   5.976  0.2443  1.8650 -2.8815
   62MOL0     H 8533   6.057   8.000   6.007  1.9409  0.0979  1.9681
   62MOL0     H 8534   5.953   8.056   5.807 -1.0350  0.3676  0.4319
   62MOL0     H 8535   6.116   7.978   5.776  2.4746  1.3098  1.6027
   62MOL0     H 8536   6.155   7.543   6.626  1.4531 -1.1784  2.1903
   62MOL0     H 8537   6.212   7.517   6.880  1.4875 -1.5162  0.2312
   62MOL0     H 8538   6.545   7.593   7.165  3.5720 -0.1826  1.8128
   62MOL0     H 8539   6.646   7.561   7.386  0.4118 -1.9791  0.8612
   62MOL0     H 8540   6.071   6.653   8.823 -1.6808  2.2526  0.9092
   62MOL0     H 8541   6.089   6.436   8.956  0.5188 -1.6114  1.4510
   62MOL0     H 8542   6.225   6.274   9.588  2.8864 -2.0254  1.3561
   62MOL0     H 8543   6.171   6.064   9.669  0.4191  2.6685  0.0943
   62MOL0     H 8544   6.049   5.734   9.388  0.6853 -0.5863 -0.3552
   62MOL0     H 8545   6.147   5.652   9.493 -0.1130 -0.9324 -0.4493
   62MOL0     H 8546   5.997   5.677   9.683  0.6115  1.5586 -0.8405
   62MOL0     H 8547   5.907   5.601   9.552  0.9853  0.2401 -2.1008
   62MOL0     H 8548   5.867   5.896   9.561  0.1171 -0.7838 -3.8489
   62MOL0     H 8549   5.755   5.758   9.524  0.9212 -1.0639 -0.4846
   62MOL0     H 8550   5.831   5.866   9.802 -1.8581  0.9025  1.9956
   62MOL0     H 8551   5.765   5.698   9.776  0.5351  0.0699  1.0802
   62MOL0     H 8552   5.425   5.917   9.683  0.6709 -0.4779 -1.2520
   62MOL0     H 8553   6.136   5.891   9.281  0.9709  1.0681 -2.2562
   62MOL0     H 8554   6.056   6.164   9.099  0.2035  2.1867  2.7003
   62MOL0     H 8555   6.239   6.170   9.108 -0.3220  0.6170  1.0253
   62MOL0     H 8556   6.167   6.018   9.090 -3.6293 -0.9011  0.3262
   63MOL0     O 8557   4.740   3.169  11.482  0.1328 -0.1621  0.1646
   63MOL0     C 8558   4.684   3.246  11.561 -0.6788  0.4208  0.2608
   63MOL0     O 8559   4.546   3.240  11.585 -0.2613 -0.5450  0.4465
   63MOL0     C 8560   4.462   3.136  11.541 -0.3317  0.0092 -0.5167
   63MOL0     C 8561   4.333   3.171  11.526  0.4024 -0.8849 -1.2557
   63MOL0     C 8562   4.231   3.076  11.514  0.2658  0.7226 -0.9582
   63MOL0     C 8563   4.270   2.939  11.492 -0.4183  0.4109 -0.6730
   63MOL0     O 8564   4.188   2.833  11.467 -0.7074  0.1810 -0.3543
   63MOL0     C 8565   4.059   2.848  11.518 -0.0675  0.3014 -0.0013
   63MOL0     C 8566   4.005   2.703  11.514  0.0088  0.4320  0.0657
   63MOL0     C 8567   3.864   2.700  11.580 -0.1672 -0.1108 -0.0880
   63MOL0     C 8568   3.874   2.705  11.743  0.6229  0.3021  0.6177
   63MOL0     C 8569   3.870   2.563  11.804 -0.0460  0.3986 -0.5101
   63MOL0     C 8570   3.870   2.562  11.959  0.4886 -0.1369  0.4575
   63MOL0     C 8571   3.888   2.415  12.014  0.5383  1.0130  1.3163
   63MOL0     C 8572   3.767   2.335  11.979 -0.0645  0.2966 -0.3073
   63MOL0     N 8573   3.791   2.206  12.031 -0.0856  1.0923  0.5051
   63MOL0     C 8574   3.856   2.101  11.959 -0.7600 -0.5067  0.2024
   63MOL0     C 8575   3.870   2.003  12.045 -0.2590  0.7857  0.1945
   63MOL0     C 8576   3.935   1.865  12.018  0.0759 -1.2712 -0.7481
   63MOL0     C 8577   3.924   1.774  12.140 -0.8328  0.4171 -0.2454
   63MOL0     C 8578   3.782   1.722  12.171  0.0482  0.3527  0.1775
   63MOL0     C 8579   3.771   1.627  12.299  0.6520 -0.1573  1.6344
   63MOL0     O 8580   3.819   1.698  12.414 -0.0664  0.8140  0.1708
   63MOL0     C 8581   3.888   1.629  12.515  0.4782 -0.1677 -0.1750
   63MOL0     C 8582   3.846   1.491  12.552  1.5097 -1.1646 -0.2166
   63MOL0     C 8583   3.916   1.429  12.655  0.1161 -0.5844 -0.5334
   63MOL0     C 8584   3.857   1.286  12.674  0.2067  0.5963  0.3028
   63MOL0     C 8585   4.016   1.491  12.732 -0.4524  0.1519 -0.0173
   63MOL0     C 8586   4.064   1.422  12.865 -0.9523  0.5661  0.8883
   63MOL0     O 8587   3.965   1.353  12.923 -1.2726  0.3481 -1.0761
   63MOL0     C 8588   4.001   1.281  13.041 -0.9787  0.3553  0.3302
   63MOL0     C 8589   3.984   1.329  13.172 -0.0042 -1.7787  0.3562
   63MOL0     C 8590   4.044   1.259  13.279  1.1932 -0.0265  0.4386
   63MOL0     C 8591   4.118   1.148  13.254  0.8243  0.4421 -0.7146
   63MOL0     O 8592   4.178   1.089  13.363  0.3224  0.0481 -0.4372
   63MOL0     C 8593   4.313   1.063  13.332 -1.1265  0.3104  0.0909
   63MOL0     C 8594   4.415   1.054  13.451  0.5047  0.9523  0.2239
   63MOL0     C 8595   4.414   1.189  13.529  0.0440 -0.2372  0.1872
   63MOL0     C 8596   4.287   1.232  13.609  0.3695  1.6645  0.4798
   63MOL0     C 8597   4.313   1.365  13.681  0.0034  0.6982  0.0524
   63MOL0     C 8598   4.316   1.484  13.580 -0.0037  0.2068  0.7339
   63MOL0     C 8599   4.345   1.606  13.660 -0.5640  0.3303  0.1339
   63MOL0     C 8600   4.362   1.720  13.568 -0.2239 -1.2065  0.8744
   63MOL0    Cl 8601   4.411   1.855  13.688  0.4276  0.4147  0.0668
   63MOL0     C 8602   4.125   1.088  13.129  0.1053 -0.0396  0.0248
   63MOL0     C 8603   4.071   1.163  13.019 -0.5719  0.6237 -0.8576
   63MOL0     O 8604   4.184   1.430  12.902 -0.1445  0.0170 -0.3424
   63MOL0     C 8605   4.067   1.618  12.691  0.6142  0.2121  0.7495
   63MOL0     C 8606   3.991   1.680  12.593 -0.0087 -0.2834  0.6349
   63MOL0     N 8607   3.816   2.050  12.166 -0.2119 -0.4518  0.0511
   63MOL0     N 8608   3.775   2.171  12.161  0.5825 -0.1046  0.7015
   63MOL0     C 8609   4.407   2.900  11.508 -0.1589 -0.9481 -0.0358
   63MOL0     C 8610   4.502   3.003  11.525  0.0021  0.8904  0.4416
   63MOL0     C 8611   4.766   3.351  11.623  0.3675  0.4461 -0.1796
   63MOL0     C 8612   4.845   3.438  11.538  0.3759  0.3237  0.0798
   63MOL0     C 8613   4.918   3.543  11.590  0.1064 -0.6742  0.5610
   63MOL0     C 8614   4.910   3.576  11.729 -0.1642  0.5164  0.4747
   63MOL0     O 8615   4.977   3.697  11.769 -0.1344  0.2199  0.4475
   63MOL0     C 8616   4.946   3.748  11.894  0.1888 -0.7374 -0.6003
   63MOL0     C 8617   4.816   3.822  11.886  1.2139  0.1168  0.1820
   63MOL0     C 8618   4.829   3.934  11.772  0.1004 -0.2554 -0.6566
   63MOL0     C 8619   4.745   4.062  11.810 -0.8336 -0.1495 -0.0055
   63MOL0     C 8620   4.609   4.032  11.818  0.3154 -0.3565  0.0256
   63MOL0     C 8621   4.496   3.999  11.830 -0.2116 -0.2731 -0.7372
   63MOL0     C 8622   4.833   3.490  11.814  0.3505  0.2232 -0.6137
   63MOL0     C 8623   4.760   3.383  11.759 -0.0079  0.6276 -0.4569
   63MOL0     C 8624   4.683   3.294  11.851  0.2739 -0.8115 -0.4642
   63MOL0     H 8625   4.305   3.276  11.526  1.4370 -0.6050 -0.8435
   63MOL0     H 8626   4.129   3.112  11.510 -0.4192 -1.0349 -0.2294
   63MOL0     H 8627   3.989   2.912  11.463 -0.5050 -0.6083 -0.5327
   63MOL0     H 8628   4.059   2.887  11.620 -0.2276  2.6137 -0.8251
   63MOL0     H 8629   3.991   2.661  11.414  3.2285 -2.1756  0.5340
   63MOL0     H 8630   4.073   2.639  11.572  2.3279  0.1011 -2.7252
   63MOL0     H 8631   3.807   2.787  11.549  0.5820  0.2732 -0.4263
   63MOL0     H 8632   3.808   2.616  11.537  1.2878 -1.5722  0.7082
   63MOL0     H 8633   3.963   2.762  11.771  3.0547 -3.1976  0.5246
   63MOL0     H 8634   3.785   2.753  11.785  1.7557  0.3398  3.1802
   63MOL0     H 8635   3.958   2.504  11.776  1.3016  1.6033  1.0459
   63MOL0     H 8636   3.786   2.502  11.768  1.1656 -2.7335  1.5728
   63MOL0     H 8637   3.963   2.603  11.999 -0.2848  0.9422  1.2065
   63MOL0     H 8638   3.788   2.624  11.997  0.6975  2.5677 -3.0064
   63MOL0     H 8639   3.899   2.417  12.122  1.0627 -0.0114  1.2898
   63MOL0     H 8640   3.978   2.362  11.983  1.6304  1.6833  3.2209
   63MOL0     H 8641   3.673   2.375  12.019 -0.3320  2.3760 -2.7584
   63MOL0     H 8642   3.752   2.317  11.872  1.2591 -1.0609 -0.2912
   63MOL0     H 8643   3.876   2.101  11.853  0.2451  4.8404  0.1046
   63MOL0     H 8644   4.036   1.871  11.977 -0.2581 -0.1638 -1.4386
   63MOL0     H 8645   3.871   1.810  11.950 -0.1532  1.3080 -2.7660
   63MOL0     H 8646   3.994   1.692  12.126 -2.0258 -0.6072 -0.3248
   63MOL0     H 8647   3.967   1.824  12.228  1.3880 -0.2338 -0.8927
   63MOL0     H 8648   3.719   1.809  12.192 -1.4844 -1.0839  1.8435
   63MOL0     H 8649   3.735   1.672  12.085 -1.1692  3.4361 -1.0888
   63MOL0     H 8650   3.666   1.601  12.312  0.5374 -0.3886  0.3612
   63MOL0     H 8651   3.821   1.531  12.285  2.9435  0.5082  4.2953
   63MOL0     H 8652   3.754   1.452  12.509  0.6736 -1.3061  1.5697
   63MOL0     H 8653   3.932   1.224  12.723 -1.5002 -0.6923  1.3911
   63MOL0     H 8654   3.838   1.239  12.577  2.2035 -3.9913  1.8490
   63MOL0     H 8655   3.765   1.289  12.733 -0.7721 -2.7955 -0.8044
   63MOL0     H 8656   3.927   1.420  13.178  0.3613 -1.6342  2.9072
   63MOL0     H 8657   4.042   1.313  13.373 -0.1343  0.1109  0.3515
   63MOL0     H 8658   4.322   0.961  13.295 -0.4466  0.0156  1.0357
   63MOL0     H 8659   4.347   1.135  13.256 -3.1877  2.7575  1.3321
   63MOL0     H 8660   4.391   0.979  13.526 -0.0499  1.0272  0.1262
   63MOL0     H 8661   4.518   1.046  13.415  1.1091  0.5771  1.9604
   63MOL0     H 8662   4.434   1.263  13.451 -0.9150 -1.1907 -0.9937
   63MOL0     H 8663   4.499   1.193  13.598 -0.7074 -2.4843  1.3381
   63MOL0     H 8664   4.244   1.155  13.674  0.6859  1.2737  0.2343
   63MOL0     H 8665   4.196   1.238  13.548  0.2409  1.3422  0.6358
   63MOL0     H 8666   4.225   1.381  13.743 -2.0223  0.0846 -2.5187
   63MOL0     H 8667   4.403   1.350  13.742 -0.5594 -1.4918  0.4017
   63MOL0     H 8668   4.216   1.500  13.539 -0.1918 -2.8275 -0.2184
   63MOL0     H 8669   4.387   1.470  13.498 -0.4340  1.7268  0.0655
   63MOL0     H 8670   4.437   1.585  13.715 -0.1432  0.4082 -0.5328
   63MOL0     H 8671   4.261   1.617  13.729  0.2123 -0.9835  1.3361
   63MOL0     H 8672   4.269   1.747  13.516 -1.2918 -3.4035  1.5264
   63MOL0     H 8673   4.440   1.687  13.498 -0.4783 -3.6349  1.6609
   63MOL0     H 8674   4.183   0.998  13.115  1.3281  0.4259  1.6657
   63MOL0     H 8675   4.085   1.115  12.923 -2.1597 -1.0940 -0.2974
   63MOL0     H 8676   4.151   1.668  12.738  0.2377  0.2820  1.3601
   63MOL0     H 8677   4.014   1.781  12.560 -2.3629 -0.4769 -1.8562
   63MOL0     H 8678   4.442   2.797  11.501 -2.0890 -1.6925  0.4562
   63MOL0     H 8679   4.605   2.979  11.549 -0.2812  0.4789  1.2785
   63MOL0     H 8680   4.860   3.414  11.433  0.3836 -1.0116  0.3772
   63MOL0     H 8681   4.977   3.614  11.533 -1.1965  0.2417  0.2972
   63MOL0     H 8682   4.940   3.678  11.978 -1.8720 -0.1791 -0.2233
   63MOL0     H 8683   5.027   3.815  11.925 -1.2024  0.1732  1.3128
   63MOL0     H 8684   4.800   3.876  11.980  0.5128  2.5431 -1.2466
   63MOL0     H 8685   4.736   3.748  11.872  0.8412  0.7276 -0.9811
   63MOL0     H 8686   4.936   3.961  11.767  0.0282  1.0025  2.3226
   63MOL0     H 8687   4.797   3.901  11.673 -0.0901  1.6807 -1.2857
   63MOL0     H 8688   4.765   4.131  11.728 -1.7631 -0.4370 -0.4826
   63MOL0     H 8689   4.794   4.099  11.901  0.2061 -0.1881 -0.5272
   63MOL0     H 8690   4.390   3.979  11.834 -1.2677  4.2780  2.6912
   63MOL0     H 8691   4.824   3.505  11.921 -0.6544  1.6639 -0.8729
   63MOL0     H 8692   4.704   3.189  11.828  2.7294 -0.1671 -1.4884
   63MOL0     H 8693   4.700   3.312  11.957 -1.0128 -0.5396 -0.2859
   63MOL0     H 8694   4.577   3.317  11.847  0.9360  3.6004  1.9103
   64MOL0     O 8695  10.937  10.551   5.532  0.2214 -0.2092  0.7940
   64MOL0     C 8696  10.861  10.467   5.479  0.7071 -0.0739  0.3852
   64MOL0     O 8697  10.841  10.341   5.523 -0.3034  0.2367  0.2699
   64MOL0     C 8698  10.914  10.309   5.631  0.1942 -0.2091 -0.0419
   64MOL0     C 8699  10.835  10.272   5.737  0.0508  0.7808 -0.0255
   64MOL0     C 8700  10.900  10.213   5.852  0.7551  0.0039  0.4779
   64MOL0     C 8701  11.037  10.190   5.853 -0.8945  0.1042 -0.1360
   64MOL0     O 8702  11.094  10.163   5.978  0.4681  0.2185  0.2489
   64MOL0     C 8703  11.236  10.143   6.001  0.0121  0.3368  0.6970
   64MOL0     C 8704  11.257  10.100   6.145  0.2744  0.1915 -0.2992
   64MOL0     C 8705  11.404  10.097   6.194 -1.3549 -0.2057 -0.2550
   64MOL0     C 8706  11.424  10.064   6.338  0.6240 -0.5006 -0.0694
   64MOL0     C 8707  11.558  10.090   6.389 -0.7472  0.1767 -0.5749
   64MOL0     C 8708  11.579  10.028   6.530  0.2695  0.2003  0.1583
   64MOL0     C 8709  11.542  10.119   6.643  0.2130 -0.3447 -0.1855
   64MOL0     C 8710  11.547  10.064   6.787  0.3432  1.4011  0.3235
   64MOL0     N 8711  11.505  10.163   6.886  0.4455 -0.3361 -0.0023
   64MOL0     C 8712  11.392  10.241   6.883 -0.0961 -0.5272  0.7883
   64MOL0     C 8713  11.414  10.347   6.965  0.1602 -0.2155 -0.1558
   64MOL0     C 8714  11.328  10.468   6.996 -0.0155  0.0134  0.2852
   64MOL0     C 8715  11.312  10.569   6.885  0.0041  0.0454 -0.1102
   64MOL0     C 8716  11.236  10.511   6.765  0.9304 -0.4259  0.1860
   64MOL0     C 8717  11.183  10.618   6.668 -0.1322  0.8610 -0.4709
   64MOL0     O 8718  11.293  10.699   6.622 -0.2400  0.4616  0.8561
   64MOL0     C 8719  11.274  10.816   6.566 -0.1784  0.3950 -0.7533
   64MOL0     C 8720  11.371  10.912   6.587 -0.6413 -0.6957  0.3238
   64MOL0     C 8721  11.363  11.038   6.527  0.6365 -0.1796  0.1649
   64MOL0     C 8722  11.492  11.119   6.512 -0.9532  0.0575  0.1128
   64MOL0     C 8723  11.243  11.073   6.460  0.6661 -0.3008  0.5979
   64MOL0     C 8724  11.207  11.202   6.408  0.7548  0.8749  0.4125
   64MOL0     O 8725  11.091  11.204   6.327 -0.1110  0.5360  0.3883
   64MOL0     C 8726  11.030  11.324   6.286  0.6220  0.3635 -0.0174
   64MOL0     C 8727  11.014  11.436   6.367 -0.1576 -0.1721  0.3575
   64MOL0     C 8728  10.949  11.548   6.319  0.5525 -0.0773  0.3243
   64MOL0     C 8729  10.886  11.542   6.190 -0.7742 -0.1410  0.5116
   64MOL0     O 8730  10.806  11.639   6.154 -0.7114 -0.0383 -1.0100
   64MOL0     C 8731  10.862  11.712   6.041 -0.2959  0.5050  0.1854
   64MOL0     C 8732  10.834  11.857   6.060  0.0699 -0.4220 -0.0114
   64MOL0     C 8733  10.695  11.887   6.004 -0.1948 -0.1802  0.2320
   64MOL0     C 8734  10.658  12.028   6.033  0.5516 -0.3942  0.3537
   64MOL0     C 8735  10.615  12.058   6.176 -0.0558 -0.2504  0.5264
   64MOL0     C 8736  10.479  12.009   6.227 -0.0759 -0.2466 -0.8882
   64MOL0     C 8737  10.446  12.066   6.362  0.8267 -0.5188  0.4406
   64MOL0     C 8738  10.286  12.064   6.375  0.2764 -0.1438  0.1408
   64MOL0    Cl 8739  10.234  11.887   6.374 -0.1734  0.2324  0.3475
   64MOL0     C 8740  10.901  11.425   6.110 -0.5896 -0.2743 -0.3822
   64MOL0     C 8741  10.975  11.319   6.159 -0.0884  0.6548  0.2495
   64MOL0     O 8742  11.273  11.301   6.438  0.1028 -0.5346 -0.1892
   64MOL0     C 8743  11.147  10.973   6.444  0.8046 -0.0072  0.3989
   64MOL0     C 8744  11.157  10.846   6.485 -1.3745 -0.1590 -0.4112
   64MOL0     N 8745  11.547  10.332   7.004 -0.0509  0.4403 -1.6026
   64MOL0     N 8746  11.601  10.224   6.962  0.5073 -0.5831 -0.3663
   64MOL0     C 8747  11.110  10.228   5.740 -0.2592  0.5613  1.2364
   64MOL0     C 8748  11.051  10.285   5.629 -0.5181 -0.2460  0.0843
   64MOL0     C 8749  10.797  10.496   5.349 -0.3069 -0.4701  0.5353
   64MOL0     C 8750  10.792  10.393   5.253  0.4904  0.6568 -0.3184
   64MOL0     C 8751  10.724  10.408   5.132  0.5675 -0.0586 -0.8979
   64MOL0     C 8752  10.685  10.536   5.087  0.3155  0.4343 -1.3537
   64MOL0     O 8753  10.634  10.579   4.964 -0.1093  0.3785 -0.5228
   64MOL0     C 8754  10.594  10.475   4.878 -0.3377  0.0090 -0.0135
   64MOL0     C 8755  10.713  10.434   4.780 -0.7075  0.3074  0.4402
   64MOL0     C 8756  10.695  10.355   4.654  0.5208  0.3989  0.2184
   64MOL0     C 8757  10.551  10.319   4.618  0.3172 -1.3414 -0.0405
   64MOL0     C 8758  10.482  10.426   4.544 -0.2961  0.2549  0.4282
   64MOL0     C 8759  10.426  10.512   4.470  0.2787  0.0662 -0.1613
   64MOL0     C 8760  10.693  10.641   5.184 -0.3123  0.0296  0.5828
   64MOL0     C 8761  10.738  10.619   5.312  0.0452  0.0838 -0.1018
   64MOL0     C 8762  10.733  10.733   5.407 -0.6191 -0.3812  0.1748
   64MOL0     H 8763  10.729  10.298   5.735 -1.7919 -5.1957  0.7163
   64MOL0     H 8764  10.842  10.183   5.939 -0.2058 -0.5593 -0.3379
   64MOL0     H 8765  11.283  10.241   5.988 -5.0604  2.7978 -2.1614
   64MOL0     H 8766  11.283  10.071   5.933 -1.9930  1.0303 -1.5571
   64MOL0     H 8767  11.208  10.180   6.200 -0.4836 -0.7859  0.4861
   64MOL0     H 8768  11.212  10.000   6.153 -0.1650  0.4265  0.2148
   64MOL0     H 8769  11.465  10.024   6.140  3.2679  2.8649  0.2337
   64MOL0     H 8770  11.456  10.189   6.166  1.1710 -1.5912 -0.4126
   64MOL0     H 8771  11.348  10.117   6.397  0.0988  0.8588 -1.8780
   64MOL0     H 8772  11.416   9.955   6.347 -0.4741 -0.3249  1.6978
   64MOL0     H 8773  11.582  10.196   6.407  0.4430 -0.5688  3.1424
   64MOL0     H 8774  11.633  10.050   6.320 -1.0518 -3.5494  1.0162
   64MOL0     H 8775  11.510   9.944   6.541  1.5704 -0.7421  1.5691
   64MOL0     H 8776  11.686  10.011   6.544 -0.3802 -2.8518  2.6432
   64MOL0     H 8777  11.441  10.157   6.624 -0.4802 -2.8087 -1.9210
   64MOL0     H 8778  11.616  10.199   6.647 -0.8509  0.6342  2.1466
   64MOL0     H 8779  11.480   9.980   6.808 -0.4692  1.5840 -1.3310
   64MOL0     H 8780  11.642  10.014   6.806 -1.2636 -1.3884  1.5380
   64MOL0     H 8781  11.307  10.220   6.820  0.6728  1.6675 -1.1162
   64MOL0     H 8782  11.386  10.521   7.072 -0.1667  2.7679 -1.3840
   64MOL0     H 8783  11.228  10.441   7.031  0.7006  0.6633  3.0911
   64MOL0     H 8784  11.269  10.661   6.925  0.1663  0.0439  0.0709
   64MOL0     H 8785  11.414  10.586   6.850 -0.1290  0.8280 -0.1295
   64MOL0     H 8786  11.304  10.442   6.714 -0.2835 -3.8266  2.8169
   64MOL0     H 8787  11.153  10.443   6.787  2.6174 -2.1104  1.6834
   64MOL0     H 8788  11.129  10.575   6.583  2.7715 -0.1480 -1.9398
   64MOL0     H 8789  11.108  10.672   6.727  1.4029  2.2041  0.3480
   64MOL0     H 8790  11.451  10.886   6.656  1.8670 -1.7840 -2.7405
   64MOL0     H 8791  11.493  11.156   6.409 -1.1044 -0.6415 -0.1464
   64MOL0     H 8792  11.579  11.054   6.524 -1.6562 -0.6722  1.4797
   64MOL0     H 8793  11.504  11.206   6.578 -2.8571  0.6506 -0.2766
   64MOL0     H 8794  11.052  11.425   6.468  1.2304  0.0415 -0.1132
   64MOL0     H 8795  10.946  11.636   6.382  1.0403  1.8701 -2.2144
   64MOL0     H 8796  10.970  11.701   6.032 -0.5100 -3.9624  0.6136
   64MOL0     H 8797  10.835  11.675   5.942  0.2598 -2.2926  0.9812
   64MOL0     H 8798  10.846  11.875   6.167 -1.4216 -0.3782  0.1678
   64MOL0     H 8799  10.907  11.923   6.012 -1.0259  0.9649  0.1867
   64MOL0     H 8800  10.628  11.814   6.050  2.4328 -1.8775  1.6234
   64MOL0     H 8801  10.698  11.874   5.896  2.2577 -1.1157  0.3533
   64MOL0     H 8802  10.567  12.063   5.983  0.6089  3.1478  2.3710
   64MOL0     H 8803  10.739  12.098   6.011  0.5583 -1.0647 -1.9254
   64MOL0     H 8804  10.700  12.021   6.235  1.0071 -1.1702 -1.4809
   64MOL0     H 8805  10.621  12.167   6.187 -2.2693  0.1403 -1.4286
   64MOL0     H 8806  10.491  11.901   6.244  0.5954 -0.0784 -0.2807
   64MOL0     H 8807  10.400  12.026   6.153  2.0029 -1.0504 -3.4757
   64MOL0     H 8808  10.489  12.167   6.370  0.9995 -0.5377 -0.2037
   64MOL0     H 8809  10.494  12.015   6.445  2.5941  1.7057  0.8956
   64MOL0     H 8810  10.230  12.116   6.298  2.4623 -0.8475 -2.0601
   64MOL0     H 8811  10.255  12.102   6.473  1.1362  0.3052  0.2547
   64MOL0     H 8812  10.853  11.414   6.013  0.1673 -0.5385 -0.7342
   64MOL0     H 8813  10.985  11.235   6.092  0.4780  0.4596  0.5697
   64MOL0     H 8814  11.048  10.983   6.400  0.1753  1.3105  2.0252
   64MOL0     H 8815  11.079  10.771   6.473 -0.5804 -1.0884  0.0524
   64MOL0     H 8816  11.218  10.223   5.752 -0.1129 -0.7054 -0.3014
   64MOL0     H 8817  11.111  10.301   5.540  0.0210 -0.6568  0.3658
   64MOL0     H 8818  10.840  10.301   5.284  1.8331  2.2317  2.7327
   64MOL0     H 8819  10.717  10.315   5.075  0.8793  0.0288 -1.0836
   64MOL0     H 8820  10.554  10.390   4.934  0.9468 -0.0264  0.8990
   64MOL0     H 8821  10.514  10.512   4.813  2.1316  0.0524 -3.2305
   64MOL0     H 8822  10.792  10.384   4.838  2.6284  2.4642 -1.8643
   64MOL0     H 8823  10.754  10.523   4.732  0.5152 -0.8850 -0.8445
   64MOL0     H 8824  10.751  10.406   4.575  3.2705  0.8440  2.2820
   64MOL0     H 8825  10.749  10.262   4.676  0.0638  0.5638  2.2417
   64MOL0     H 8826  10.506  10.283   4.711  1.3231 -5.1640 -0.8631
   64MOL0     H 8827  10.555  10.232   4.553 -1.8370 -0.3932 -1.5563
   64MOL0     H 8828  10.398  10.583   4.395 -0.7319 -0.2765 -0.1225
   64MOL0     H 8829  10.662  10.739   5.150  1.3906  0.3701 -0.1027
   64MOL0     H 8830  10.838  10.762   5.409 -0.5323 -0.7134  0.9655
   64MOL0     H 8831  10.666  10.815   5.382  2.9371  2.5163 -0.6496
   64MOL0     H 8832  10.708  10.699   5.508 -2.3683 -0.5672 -0.2779
   65MOL0     O 8833  10.003   0.613   8.652 -0.0330 -0.1004  1.0531
   65MOL0     C 8834   9.995   0.657   8.766  0.6532 -0.2828  0.6196
   65MOL0     O 8835   9.964   0.786   8.795  0.4387  0.1384 -0.0168
   65MOL0     C 8836   9.920   0.874   8.697  0.4807  0.5807  1.3825
   65MOL0     C 8837   9.806   0.844   8.622 -0.1104 -0.1448 -0.1717
   65MOL0     C 8838   9.766   0.934   8.517 -0.5220  0.9387  1.1423
   65MOL0     C 8839   9.843   1.043   8.484  0.1131 -0.1712 -0.1705
   65MOL0     O 8840   9.810   1.114   8.374 -0.1576 -0.5159  0.4684
   65MOL0     C 8841   9.911   1.177   8.294 -0.4195  0.4563 -0.3057
   65MOL0     C 8842   9.848   1.219   8.166  0.0135 -0.5946 -0.3204
   65MOL0     C 8843   9.802   1.111   8.073 -0.4470  0.5650  0.0501
   65MOL0     C 8844   9.917   1.014   8.036  0.2164  0.1151  0.0024
   65MOL0     C 8845   9.868   0.884   7.969 -0.6851  0.0203  0.4126
   65MOL0     C 8846   9.980   0.787   7.941 -0.3946 -0.7163  0.1095
   65MOL0     C 8847   9.933   0.671   7.852 -0.3846  0.2305 -0.2617
   65MOL0     C 8848   9.998   0.539   7.878  0.2924  0.4936  0.1996
   65MOL0     N 8849  10.140   0.525   7.850  0.1595  0.7827  0.9633
   65MOL0     C 8850  10.253   0.570   7.914 -0.4425  0.2514  0.1177
   65MOL0     C 8851  10.360   0.527   7.830  0.2336  0.5333 -0.5782
   65MOL0     C 8852  10.502   0.567   7.822 -0.4927  1.1474  0.4755
   65MOL0     C 8853  10.586   0.476   7.926 -0.1278 -0.7141  0.3003
   65MOL0     C 8854  10.560   0.512   8.077  0.1345  0.3658  0.1341
   65MOL0     C 8855  10.596   0.653   8.121 -0.2704  0.2432  0.3455
   65MOL0     O 8856  10.689   0.659   8.232  0.5550  0.4036  0.8751
   65MOL0     C 8857  10.693   0.775   8.310  0.7315 -0.2835  0.0541
   65MOL0     C 8858  10.758   0.770   8.433  0.0669  0.3835  0.0790
   65MOL0     C 8859  10.783   0.883   8.518  0.3702  0.3453 -0.5553
   65MOL0     C 8860  10.862   0.860   8.649 -0.5725  0.2863  0.9689
   65MOL0     C 8861  10.719   1.001   8.488 -0.6572 -0.2424  0.4330
   65MOL0     C 8862  10.705   1.114   8.588  0.2762 -0.6637  0.5664
   65MOL0     O 8863  10.748   1.238   8.540  0.0671 -0.2186 -0.1100
   65MOL0     C 8864  10.720   1.345   8.621 -0.0826  0.3823 -0.2733
   65MOL0     C 8865  10.821   1.429   8.671 -0.6160  0.5403  0.0509
   65MOL0     C 8866  10.790   1.545   8.753 -0.3114  0.8099  0.1886
   65MOL0     C 8867  10.651   1.577   8.785 -0.3692  0.1090 -0.1612
   65MOL0     O 8868  10.614   1.672   8.867  0.0480  0.6405  0.1981
   65MOL0     C 8869  10.634   1.805   8.828 -0.0363 -0.9384 -0.6210
   65MOL0     C 8870  10.593   1.894   8.941 -0.2509  0.9230 -0.5437
   65MOL0     C 8871  10.700   1.908   9.054 -0.5254 -1.1995  0.3261
   65MOL0     C 8872  10.705   1.801   9.168  0.5160 -0.8556 -0.5415
   65MOL0     C 8873  10.792   1.837   9.291 -0.5245  0.7236 -0.0966
   65MOL0     C 8874  10.771   1.747   9.404  0.6392  0.9935 -0.1756
   65MOL0     C 8875  10.851   1.610   9.387 -0.2644  0.3843  0.2192
   65MOL0     C 8876  10.758   1.494   9.340 -0.2336 -0.8240 -0.5070
   65MOL0    Cl 8877  10.627   1.485   9.462 -0.1605 -0.2624 -0.2413
   65MOL0     C 8878  10.555   1.489   8.737 -0.0736 -0.0416  0.1264
   65MOL0     C 8879  10.587   1.380   8.665  0.4797  1.1208 -0.0223
   65MOL0     O 8880  10.668   1.094   8.704 -0.2041 -0.3721  0.7947
   65MOL0     C 8881  10.641   1.008   8.371 -0.7562  0.2902  0.3756
   65MOL0     C 8882  10.639   0.898   8.277  0.2728 -0.4495  0.5942
   65MOL0     N 8883  10.307   0.435   7.742  1.3287 -0.0109  0.4319
   65MOL0     N 8884  10.183   0.434   7.756 -0.0431 -0.6157  0.2821
   65MOL0     C 8885   9.953   1.075   8.567  0.2052  0.1098 -0.8534
   65MOL0     C 8886  10.001   0.989   8.658  0.5396  0.7123 -0.8165
   65MOL0     C 8887   9.998   0.560   8.883  0.2039  0.8772  0.3545
   65MOL0     C 8888   9.911   0.589   8.989  0.2186  0.6046  0.1971
   65MOL0     C 8889   9.900   0.500   9.094  0.6000 -0.6410 -0.2194
   65MOL0     C 8890   9.987   0.396   9.106 -0.7826 -0.4580  0.0514
   65MOL0     O 8891   9.974   0.307   9.212 -0.4665  0.5219  0.4436
   65MOL0     C 8892   9.993   0.170   9.175  0.8240  0.2664 -0.0915
   65MOL0     C 8893  10.021   0.088   9.299  0.8664  0.8018 -1.0517
   65MOL0     C 8894  10.162   0.141   9.349  0.8543  0.3007 -1.1813
   65MOL0     C 8895  10.246   0.040   9.439  0.0507 -0.8512  0.1741
   65MOL0     C 8896  10.234   0.079   9.581 -0.9322  0.1274 -0.0742
   65MOL0     C 8897  10.255   0.127   9.687 -0.1090  0.5767 -0.3199
   65MOL0     C 8898  10.090   0.379   9.013  0.5833  1.4124  0.6871
   65MOL0     C 8899  10.087   0.450   8.891  0.6356 -0.5518 -0.5153
   65MOL0     C 8900  10.199   0.446   8.800  0.3219 -0.5634  1.1493
   65MOL0     H 8901   9.757   0.750   8.643  0.0361 -0.0674  0.5239
   65MOL0     H 8902   9.681   0.909   8.454 -0.2097  0.1212  1.0281
   65MOL0     H 8903  10.001   1.116   8.278 -0.0855  0.9448 -0.2917
   65MOL0     H 8904   9.948   1.264   8.348 -1.9250 -0.1729  1.8812
   65MOL0     H 8905   9.764   1.285   8.192  1.1324  2.0454 -2.8438
   65MOL0     H 8906   9.925   1.284   8.124  0.0640  1.0141  2.0438
   65MOL0     H 8907   9.724   1.047   8.117  1.7799 -3.9134 -1.8717
   65MOL0     H 8908   9.774   1.154   7.977 -0.9265  0.7947  0.2866
   65MOL0     H 8909   9.988   1.055   7.964 -1.0430 -0.1170 -1.4423
   65MOL0     H 8910   9.971   0.972   8.121  1.7214  0.2829 -0.8359
   65MOL0     H 8911   9.815   0.913   7.878 -1.4241 -1.7378  0.2329
   65MOL0     H 8912   9.793   0.835   8.032  0.3231 -1.3575  0.5818
   65MOL0     H 8913  10.062   0.836   7.888 -4.2885  3.1669 -3.0706
   65MOL0     H 8914  10.013   0.759   8.042 -0.7688 -0.2370  0.3653
   65MOL0     H 8915   9.921   0.688   7.745 -0.6471  0.3696 -0.2117
   65MOL0     H 8916   9.827   0.654   7.876 -0.0233 -2.6154 -0.3491
   65MOL0     H 8917   9.976   0.505   7.979 -1.4845  1.9217  0.3302
   65MOL0     H 8918   9.935   0.468   7.823  1.7245  0.7093 -1.8511
   65MOL0     H 8919  10.260   0.657   7.978  0.6100 -0.4969  1.0689
   65MOL0     H 8920  10.505   0.675   7.843  0.2262  1.0613  0.8408
   65MOL0     H 8921  10.546   0.554   7.723 -0.8505  1.2288  0.3018
   65MOL0     H 8922  10.565   0.374   7.895  1.6357 -0.3926 -2.2472
   65MOL0     H 8923  10.687   0.488   7.886 -0.6958 -4.4155 -2.8403
   65MOL0     H 8924  10.461   0.480   8.109 -0.0688  0.6917 -0.1653
   65MOL0     H 8925  10.626   0.445   8.133 -0.2383  2.0129  2.7481
   65MOL0     H 8926  10.629   0.708   8.032  0.6055  1.5600  1.4460
   65MOL0     H 8927  10.507   0.713   8.141  0.8831  1.8465  0.8801
   65MOL0     H 8928  10.798   0.670   8.448 -2.5021 -0.3661  2.7404
   65MOL0     H 8929  10.799   0.817   8.727  0.8743 -0.2542  1.8678
   65MOL0     H 8930  10.920   0.948   8.678  1.3900 -0.6400  0.0352
   65MOL0     H 8931  10.943   0.791   8.626 -1.8062 -0.7408 -0.4871
   65MOL0     H 8932  10.925   1.402   8.651 -1.1739 -0.0190 -2.3610
   65MOL0     H 8933  10.870   1.595   8.807  1.2942 -0.5757 -0.7913
   65MOL0     H 8934  10.737   1.828   8.798 -0.2448  0.8756 -0.0354
   65MOL0     H 8935  10.566   1.843   8.752 -0.1694 -0.6479 -0.3548
   65MOL0     H 8936  10.547   1.990   8.919 -0.1785  0.3289 -3.7076
   65MOL0     H 8937  10.519   1.835   8.996 -1.9853  3.2966 -0.2106
   65MOL0     H 8938  10.674   2.002   9.105 -0.8699 -1.3186  0.3725
   65MOL0     H 8939  10.800   1.927   9.016 -0.2478 -0.4173  1.4043
   65MOL0     H 8940  10.748   1.710   9.126  2.2695 -0.8815  1.1527
   65MOL0     H 8941  10.610   1.782   9.218  1.8733  0.9070  3.1178
   65MOL0     H 8942  10.896   1.827   9.259 -0.0514  3.9641  0.1505
   65MOL0     H 8943  10.774   1.943   9.308  0.2193  1.0551 -1.2779
   65MOL0     H 8944  10.664   1.733   9.421  0.7621  2.4663  2.3087
   65MOL0     H 8945  10.807   1.795   9.496  0.0329 -0.7414  1.0358
   65MOL0     H 8946  10.903   1.598   9.483  0.6957  1.4350 -0.1468
   65MOL0     H 8947  10.927   1.610   9.308 -0.1069  0.8937  0.3685
   65MOL0     H 8948  10.808   1.398   9.354 -2.9082 -1.9615  2.3205
   65MOL0     H 8949  10.707   1.508   9.245 -2.0374  0.2987  0.5741
   65MOL0     H 8950  10.452   1.502   8.769  0.9182  1.8237  3.0003
   65MOL0     H 8951  10.502   1.322   8.630  1.4691 -0.3968 -0.0226
   65MOL0     H 8952  10.585   1.094   8.337 -0.1587  0.9758  1.0937
   65MOL0     H 8953  10.577   0.907   8.188 -0.3690  6.3426  1.1920
   65MOL0     H 8954  10.018   1.156   8.535  0.0810 -0.2033 -1.9473
   65MOL0     H 8955  10.103   0.988   8.694  1.1760  0.2492 -2.5306
   65MOL0     H 8956   9.855   0.682   8.985 -0.0316  0.7310  3.6194
   65MOL0     H 8957   9.816   0.498   9.163 -0.6454  0.4288 -1.6358
   65MOL0     H 8958   9.894   0.139   9.141  0.0589  0.0994  2.1418
   65MOL0     H 8959  10.060   0.139   9.095 -0.4159  0.1396 -1.1049
   65MOL0     H 8960  10.030  -0.018   9.273 -0.9055  0.4551 -0.3681
   65MOL0     H 8961   9.948   0.096   9.380  1.1427 -1.8158 -0.4822
   65MOL0     H 8962  10.232   0.158   9.267 -0.0814  0.8170 -1.8937
   65MOL0     H 8963  10.155   0.240   9.394  1.2650 -0.4168  0.5200
   65MOL0     H 8964  10.345   0.069   9.402  0.5075 -0.9286  1.3031
   65MOL0     H 8965  10.228  -0.068   9.433  1.8461 -1.0988 -2.6300
   65MOL0     H 8966  10.255   0.180   9.780  0.5115  0.2531 -0.1284
   65MOL0     H 8967  10.169   0.311   9.045 -1.5560 -1.0420  1.1645
   65MOL0     H 8968  10.177   0.399   8.703  5.4784 -2.0355  0.3520
   65MOL0     H 8969  10.245   0.545   8.788  0.4129 -0.9324 -3.5982
   65MOL0     H 8970  10.270   0.369   8.830  1.7311 -0.0217 -0.5756
   66MOL0     O 8971   9.495  11.315   6.279  0.6730  0.3504  0.2838
   66MOL0     C 8972   9.550  11.242   6.359 -0.0713 -0.3780 -0.3652
   66MOL0     O 8973   9.513  11.217   6.492  0.0570  0.4956 -0.6127
   66MOL0     C 8974   9.386  11.239   6.534 -0.5899 -0.3507  0.7938
   66MOL0     C 8975   9.320  11.134   6.590 -0.3634 -0.2513 -0.3008
   66MOL0     C 8976   9.183  11.141   6.624 -1.1947  0.2263 -0.3371
   66MOL0     C 8977   9.121  11.267   6.603  0.5638  0.7042 -0.0827
   66MOL0     O 8978   8.994  11.292   6.655  0.0703  0.1984 -0.5301
   66MOL0     C 8979   8.892  11.191   6.649  0.0537  0.3167  0.7350
   66MOL0     C 8980   8.768  11.246   6.725 -0.0355 -0.2446 -0.8569
   66MOL0     C 8981   8.679  11.119   6.747  1.0633  1.1881 -0.5006
   66MOL0     C 8982   8.536  11.169   6.759  0.7413 -0.5696 -0.8944
   66MOL0     C 8983   8.436  11.060   6.781 -0.4407  1.0666 -0.8439
   66MOL0     C 8984   8.288  11.091   6.799 -0.7323  0.3752 -0.0279
   66MOL0     C 8985   8.266  11.136   6.942 -0.8530 -1.5453  0.1830
   66MOL0     C 8986   8.121  11.179   6.967  0.3428  0.0889  0.8812
   66MOL0     N 8987   8.027  11.062   6.960  0.1077 -0.2279  0.1659
   66MOL0     C 8988   7.892  11.062   6.925  0.7555  0.2822  0.0057
   66MOL0     C 8989   7.866  10.924   6.908  0.0856 -0.6001 -0.1431
   66MOL0     C 8990   7.733  10.881   6.874  0.5519 -0.0661  0.4788
   66MOL0     C 8991   7.673  10.796   6.985 -0.0458  0.3678 -0.6970
   66MOL0     C 8992   7.516  10.780   6.961 -0.4465  0.2799 -0.2498
   66MOL0     C 8993   7.425  10.876   7.034  0.4079 -0.3188  0.4460
   66MOL0     O 8994   7.412  10.831   7.161  0.0965 -0.6731  0.3668
   66MOL0     C 8995   7.289  10.801   7.225  0.4087 -0.2056  1.0417
   66MOL0     C 8996   7.165  10.843   7.180  0.1232  0.4245 -0.1230
   66MOL0     C 8997   7.046  10.800   7.240  0.0929 -0.0814  0.2725
   66MOL0     C 8998   6.919  10.831   7.181  0.2086 -0.4277  0.0018
   66MOL0     C 8999   7.054  10.729   7.358  0.1190  0.4596  0.0157
   66MOL0     C 9000   6.938  10.681   7.430 -0.3890 -0.2726 -0.6420
   66MOL0     O 9001   6.949  10.558   7.485  0.3359  0.0499  0.2402
   66MOL0     C 9002   6.845  10.513   7.561  0.3296 -0.0873  0.3162
   66MOL0     C 9003   6.850  10.513   7.701  0.4216 -0.4226  0.4983
   66MOL0     C 9004   6.737  10.471   7.773  1.1549  0.8539  0.3740
   66MOL0     C 9005   6.621  10.439   7.714  0.6201 -0.4150 -0.9444
   66MOL0     O 9006   6.503  10.391   7.773 -0.3025  0.1814 -0.1439
   66MOL0     C 9007   6.485  10.423   7.916 -0.2826 -0.6931 -0.2199
   66MOL0     C 9008   6.332  10.429   7.937 -0.2737  0.2939  0.3567
   66MOL0     C 9009   6.272  10.285   7.909  0.4192 -0.0881 -0.2119
   66MOL0     C 9010   6.217  10.209   8.032  0.4232  0.1437  0.4228
   66MOL0     C 9011   6.141  10.077   7.979  0.1385  1.2646  0.3609
   66MOL0     C 9012   6.064   9.997   8.085  0.2138  0.3272  0.1839
   66MOL0     C 9013   5.920  10.042   8.103  0.2861 -0.6506  0.0088
   66MOL0     C 9014   5.825   9.966   8.014 -0.6414 -0.1532  0.2684
   66MOL0    Cl 9015   5.660   9.988   8.078  0.1305  0.1540  0.0090
   66MOL0     C 9016   6.618  10.442   7.576 -0.3602  0.4540 -0.1704
   66MOL0     C 9017   6.722  10.480   7.504  0.2032  0.3242  0.8566
   66MOL0     O 9018   6.840  10.752   7.454  0.1819  0.6448  0.5932
   66MOL0     C 9019   7.183  10.697   7.406  0.0293  0.0695  0.2958
   66MOL0     C 9020   7.297  10.728   7.339  0.2217  0.0254  0.5234
   66MOL0     N 9021   7.969  10.850   6.955 -0.2787 -0.4304 -0.8655
   66MOL0     N 9022   8.061  10.936   6.994  0.0367  0.6336 -0.1035
   66MOL0     C 9023   9.188  11.379   6.550  0.4347 -0.2373  0.1013
   66MOL0     C 9024   9.323  11.362   6.516  0.5525  0.6352  0.6072
   66MOL0     C 9025   9.689  11.202   6.338 -0.4628  0.1029  0.6931
   66MOL0     C 9026   9.785  11.217   6.447  0.0378 -1.4674  0.5422
   66MOL0     C 9027   9.917  11.225   6.414 -0.3795  0.4163  0.1676
   66MOL0     C 9028   9.964  11.207   6.286 -0.5031  0.8905 -0.6866
   66MOL0     O 9029  10.094  11.196   6.265 -0.1033  0.1448  0.4255
   66MOL0     C 9030  10.177  11.300   6.316  0.0999  0.3698 -0.5925
   66MOL0     C 9031  10.323  11.282   6.261 -0.4916  0.3541 -0.2206
   66MOL0     C 9032  10.395  11.154   6.307  0.3230  0.6121 -0.3265
   66MOL0     C 9033  10.449  11.159   6.450  0.0253 -0.3164  0.0444
   66MOL0     C 9034  10.528  11.039   6.464 -0.2630 -0.3672 -0.4255
   66MOL0     C 9035  10.590  10.934   6.486  0.0689 -0.9050  0.2694
   66MOL0     C 9036   9.877  11.190   6.181  0.4517 -0.0084  0.2827
   66MOL0     C 9037   9.741  11.174   6.208  0.2663 -0.6082  0.0678
   66MOL0     C 9038   9.652  11.153   6.084 -0.6277 -0.6674 -0.4502
   66MOL0     H 9039   9.362  11.034   6.598 -1.2830 -0.6393 -0.2170
   66MOL0     H 9040   9.134  11.054   6.666 -3.4407  2.0202  1.0620
   66MOL0     H 9041   8.937  11.107   6.703  0.5305  1.9009  2.9438
   66MOL0     H 9042   8.863  11.172   6.545 -0.6453 -0.0051  0.9848
   66MOL0     H 9043   8.797  11.297   6.817 -0.5202 -2.1574  0.4146
   66MOL0     H 9044   8.717  11.327   6.672 -0.2641  1.5356  1.8901
   66MOL0     H 9045   8.676  11.059   6.656 -1.7902  0.2381  0.1270
   66MOL0     H 9046   8.707  11.056   6.833 -2.2160 -1.8541 -1.4022
   66MOL0     H 9047   8.535  11.236   6.845  0.6730 -0.8232 -0.6947
   66MOL0     H 9048   8.513  11.223   6.667  2.1071  1.5532 -0.0575
   66MOL0     H 9049   8.473  10.987   6.853  4.3254  2.8801 -1.1056
   66MOL0     H 9050   8.448  11.005   6.687  0.6129  0.0780 -0.1495
   66MOL0     H 9051   8.260  11.181   6.743 -0.0269  0.6610  0.0692
   66MOL0     H 9052   8.223  11.014   6.758  0.5649 -0.2733 -0.9419
   66MOL0     H 9053   8.330  11.223   6.958  1.3568 -3.2437  1.0126
   66MOL0     H 9054   8.293  11.060   7.015  1.2549 -1.8492 -0.8417
   66MOL0     H 9055   8.107  11.219   7.068  1.4224  0.0508  1.0546
   66MOL0     H 9056   8.101  11.261   6.898 -0.1271  0.9823  2.0506
   66MOL0     H 9057   7.832  11.152   6.915  1.7556  0.9541 -0.1166
   66MOL0     H 9058   7.738  10.839   6.773 -0.3118  1.9572 -0.4600
   66MOL0     H 9059   7.666  10.967   6.867  1.7380  0.9353  1.0832
   66MOL0     H 9060   7.714  10.694   6.979 -1.1109 -0.1444  0.3881
   66MOL0     H 9061   7.699  10.834   7.084 -3.2459  1.1341 -0.0302
   66MOL0     H 9062   7.501  10.780   6.853 -0.7784  0.7167 -0.2070
   66MOL0     H 9063   7.501  10.678   6.999  0.3977  0.7343  1.3777
   66MOL0     H 9064   7.475  10.972   7.048  1.0982 -0.6877  0.5381
   66MOL0     H 9065   7.334  10.899   6.978  0.9703  0.7470 -0.0743
   66MOL0     H 9066   7.156  10.910   7.095  1.0389  2.6654  1.4332
   66MOL0     H 9067   6.931  10.914   7.110  1.5665 -0.6040 -0.0038
   66MOL0     H 9068   6.834  10.862   7.242 -2.8862  1.0564 -4.5514
   66MOL0     H 9069   6.896  10.746   7.117 -0.1470  0.3783 -0.9699
   66MOL0     H 9070   6.943  10.530   7.754  0.8583 -1.1576 -0.0155
   66MOL0     H 9071   6.743  10.476   7.882  3.8598  1.5578  0.2736
   66MOL0     H 9072   6.509  10.339   7.981 -1.7379  1.5777  3.5943
   66MOL0     H 9073   6.536  10.513   7.951 -0.9528 -0.9945  1.6255
   66MOL0     H 9074   6.311  10.471   8.036 -1.0203  2.3959 -0.6200
   66MOL0     H 9075   6.270  10.482   7.864 -4.3921 -3.8716  0.3893
   66MOL0     H 9076   6.347  10.222   7.859  1.8106  0.5564  1.0090
   66MOL0     H 9077   6.197  10.307   7.832  1.0887  2.3450 -0.2415
   66MOL0     H 9078   6.148  10.280   8.079  1.7379  0.5924  1.7460
   66MOL0     H 9079   6.293  10.183   8.106 -0.3571 -1.9328  0.5522
   66MOL0     H 9080   6.068  10.114   7.906 -1.1406  0.2049  1.0770
   66MOL0     H 9081   6.210  10.008   7.928 -0.3463  0.5946  0.5916
   66MOL0     H 9082   6.111  10.018   8.182 -0.8904 -2.8343  1.5336
   66MOL0     H 9083   6.064   9.892   8.055 -0.6396  0.9856 -2.3350
   66MOL0     H 9084   5.914  10.147   8.074 -1.4098 -1.4949 -3.2297
   66MOL0     H 9085   5.897  10.026   8.208  3.1949 -2.8833  0.4340
   66MOL0     H 9086   5.864   9.864   8.008  0.6464  0.3527 -0.4626
   66MOL0     H 9087   5.823  10.003   7.911 -0.7502  0.0796  0.3526
   66MOL0     H 9088   6.530  10.414   7.520  0.9242 -2.6730 -0.8264
   66MOL0     H 9089   6.702  10.491   7.398  2.1953  0.4983  0.4618
   66MOL0     H 9090   7.193  10.638   7.496  0.5154 -2.0091 -1.0639
   66MOL0     H 9091   7.393  10.694   7.378  0.6419 -0.1323 -0.6126
   66MOL0     H 9092   9.137  11.475   6.551  1.7341  0.4747  1.2954
   66MOL0     H 9093   9.377  11.446   6.473  2.0492 -0.9358 -0.6817
   66MOL0     H 9094   9.752  11.227   6.550 -2.4755  0.4674 -0.3295
   66MOL0     H 9095   9.985  11.232   6.498 -1.8337 -3.5563  1.9112
   66MOL0     H 9096  10.140  11.402   6.301  0.9489  1.1800  2.1549
   66MOL0     H 9097  10.179  11.289   6.425  1.7192  0.9993 -0.5344
   66MOL0     H 9098  10.379  11.371   6.290 -1.4112  1.0155 -0.4521
   66MOL0     H 9099  10.323  11.272   6.153 -1.7539 -0.1128 -0.1903
   66MOL0     H 9100  10.326  11.072   6.287  2.0696 -0.4394 -2.4476
   66MOL0     H 9101  10.478  11.127   6.241 -0.2164 -2.6388  0.1728
   66MOL0     H 9102  10.367  11.146   6.521  1.3735 -3.2119  1.2639
   66MOL0     H 9103  10.494  11.255   6.476 -3.1752  1.5978 -0.9760
   66MOL0     H 9104  10.648  10.844   6.490  1.9730  0.3161  1.3839
   66MOL0     H 9105   9.911  11.183   6.078 -2.0332  1.1445 -0.7059
   66MOL0     H 9106   9.601  11.248   6.061 -2.9376 -0.8907  3.0155
   66MOL0     H 9107   9.716  11.118   6.003  0.9807 -1.3157  1.0574
   66MOL0     H 9108   9.582  11.073   6.111 -0.4444 -1.5893 -2.5360
   67MOL0     O 9109   5.514   4.285   7.375 -1.2128 -0.3054  0.3909
   67MOL0     C 9110   5.468   4.384   7.322 -0.2453  0.8054  0.3301
   67MOL0     O 9111   5.367   4.448   7.370  0.1635  0.5994 -0.3486
   67MOL0     C 9112   5.299   4.387   7.479 -0.1389 -0.2576  0.2601
   67MOL0     C 9113   5.170   4.334   7.469  0.4582  0.4268 -0.5741
   67MOL0     C 9114   5.100   4.283   7.580 -0.3128 -0.3301 -0.1652
   67MOL0     C 9115   5.163   4.279   7.706 -0.1632  0.7866  0.1555
   67MOL0     O 9116   5.099   4.227   7.815 -0.3618  0.3757 -0.4755
   67MOL0     C 9117   5.175   4.122   7.881 -0.2719 -0.1523  0.0950
   67MOL0     C 9118   5.192   4.155   8.030 -0.2556 -1.6567 -0.5922
   67MOL0     C 9119   5.062   4.164   8.110 -0.1814  0.9779  0.5520
   67MOL0     C 9120   4.952   4.048   8.082 -0.4760 -0.0095 -0.2604
   67MOL0     C 9121   4.821   4.083   8.155  1.1377 -0.2604  0.9039
   67MOL0     C 9122   4.718   3.973   8.135  0.5387  0.1990 -0.3043
   67MOL0     C 9123   4.580   4.013   8.195  0.2029  0.2468  0.8046
   67MOL0     C 9124   4.495   4.105   8.096 -0.9228  0.5867 -0.1085
   67MOL0     N 9125   4.372   4.144   8.165 -0.2646  0.2278  0.0784
   67MOL0     C 9126   4.316   4.274   8.183 -0.1308  0.7581  0.2673
   67MOL0     C 9127   4.192   4.265   8.232  0.5035  0.8884  0.2505
   67MOL0     C 9128   4.083   4.365   8.242 -0.7775  0.4064  0.7394
   67MOL0     C 9129   4.043   4.385   8.098  0.4865  0.3464 -1.0695
   67MOL0     C 9130   3.897   4.332   8.072 -0.8679  0.4296  0.2220
   67MOL0     C 9131   3.792   4.417   8.148 -0.4260 -0.1986  0.1264
   67MOL0     O 9132   3.716   4.500   8.050 -0.0297  0.0023 -0.5733
   67MOL0     C 9133   3.580   4.530   8.072  0.5714  0.2400  0.6921
   67MOL0     C 9134   3.520   4.595   7.962  0.4749 -0.2583  1.0587
   67MOL0     C 9135   3.400   4.656   7.964 -0.6586 -0.5447 -0.1143
   67MOL0     C 9136   3.351   4.731   7.852  0.6727 -0.2896  0.0740
   67MOL0     C 9137   3.324   4.627   8.072  0.1542 -0.7227 -0.9913
   67MOL0     C 9138   3.185   4.682   8.088 -0.0928 -0.9167  0.1121
   67MOL0     O 9139   3.086   4.634   8.015 -0.8044 -0.0420 -0.1570
   67MOL0     C 9140   2.965   4.697   8.020 -0.1824 -0.8736 -0.8199
   67MOL0     C 9141   2.841   4.636   8.050  0.4699 -0.7799  1.2737
   67MOL0     C 9142   2.726   4.719   8.044 -0.3998  0.4035 -0.1990
   67MOL0     C 9143   2.722   4.858   8.027 -0.7482 -0.7995  0.0547
   67MOL0     O 9144   2.611   4.933   8.055 -0.6296 -0.8567  0.2590
   67MOL0     C 9145   2.486   4.870   8.043  1.0759  0.5480 -0.4803
   67MOL0     C 9146   2.389   4.993   8.031 -0.4124  0.2931 -0.7410
   67MOL0     C 9147   2.269   4.964   7.948  0.1903  0.2865 -1.1432
   67MOL0     C 9148   2.173   4.887   8.042  0.0135  0.1125  0.3150
   67MOL0     C 9149   2.062   4.833   7.960  0.6694 -0.1009 -1.7054
   67MOL0     C 9150   1.949   4.782   8.043 -0.2134 -0.4952 -0.8525
   67MOL0     C 9151   1.804   4.807   7.979 -0.2439  0.8793 -0.7750
   67MOL0     C 9152   1.778   4.703   7.864 -0.0464 -0.4704 -0.2636
   67MOL0    Cl 9153   1.885   4.744   7.725  0.2447 -0.1162  0.6481
   67MOL0     C 9154   2.846   4.916   7.987  0.3040  0.5014  0.0704
   67MOL0     C 9155   2.957   4.832   7.983  0.4694  0.4918 -0.4133
   67MOL0     O 9156   3.173   4.781   8.159  0.4070 -0.7197 -0.5063
   67MOL0     C 9157   3.372   4.542   8.175 -0.3981  0.1422 -0.5620
   67MOL0     C 9158   3.502   4.493   8.172 -0.5509  0.5320 -0.5619
   67MOL0     N 9159   4.161   4.134   8.238 -0.1532 -0.1049 -0.3031
   67MOL0     N 9160   4.267   4.061   8.204 -0.2499  0.0486 -0.2117
   67MOL0     C 9161   5.288   4.335   7.720 -0.5983  0.0833  0.2505
   67MOL0     C 9162   5.354   4.389   7.613 -0.0833  0.4058  0.3840
   67MOL0     C 9163   5.535   4.432   7.195 -0.3502 -0.7229 -0.1042
   67MOL0     C 9164   5.540   4.344   7.092 -0.1635 -0.5116 -0.3024
   67MOL0     C 9165   5.592   4.375   6.970 -1.0778  1.2993  1.2138
   67MOL0     C 9166   5.665   4.491   6.955  0.5563 -0.3149  0.2293
   67MOL0     O 9167   5.748   4.503   6.847 -0.6230 -0.0752  0.0229
   67MOL0     C 9168   5.740   4.630   6.775  0.3979 -0.3120 -0.7342
   67MOL0     C 9169   5.825   4.603   6.649 -0.4691 -0.3525 -0.4981
   67MOL0     C 9170   5.744   4.509   6.560 -0.4039  0.8527 -0.3792
   67MOL0     C 9171   5.806   4.515   6.422 -0.3484  0.1246  0.8125
   67MOL0     C 9172   5.777   4.391   6.354 -0.1439 -0.4028  0.5997
   67MOL0     C 9173   5.747   4.295   6.293  0.0066 -0.1136  0.1997
   67MOL0     C 9174   5.676   4.580   7.066 -0.0410 -0.2360 -0.5025
   67MOL0     C 9175   5.614   4.553   7.188 -0.9340  0.1661  0.4570
   67MOL0     C 9176   5.621   4.654   7.311 -0.2315 -0.6273 -0.3702
   67MOL0     H 9177   5.115   4.341   7.376 -0.5047 -0.0069 -0.0506
   67MOL0     H 9178   4.996   4.251   7.583 -1.6993  3.6407  0.4216
   67MOL0     H 9179   5.270   4.110   7.829  0.5173  0.0796  1.4239
   67MOL0     H 9180   5.120   4.028   7.871  3.1227 -2.2073 -0.9751
   67MOL0     H 9181   5.252   4.073   8.069 -1.1565 -2.5734 -1.0680
   67MOL0     H 9182   5.242   4.250   8.048 -2.0242 -0.5851 -1.0514
   67MOL0     H 9183   5.086   4.162   8.217 -0.6056  3.0527  0.7213
   67MOL0     H 9184   5.016   4.261   8.091 -2.0879  0.0072 -0.0587
   67MOL0     H 9185   4.927   4.027   7.978 -3.1289 -4.7688  1.0530
   67MOL0     H 9186   4.982   3.954   8.131 -0.9167 -0.1827 -0.3232
   67MOL0     H 9187   4.796   4.177   8.104  1.3642 -0.7936 -0.2119
   67MOL0     H 9188   4.839   4.090   8.262  4.5218  4.5526  0.3425
   67MOL0     H 9189   4.707   3.937   8.033  0.1149 -0.3768 -0.0642
   67MOL0     H 9190   4.758   3.889   8.193  0.8931  0.4552 -0.1747
   67MOL0     H 9191   4.580   4.062   8.292 -0.7314  0.8763  0.5040
   67MOL0     H 9192   4.515   3.927   8.212 -0.9817  0.9219 -0.1045
   67MOL0     H 9193   4.556   4.191   8.067  0.9335  0.4399  2.8996
   67MOL0     H 9194   4.460   4.046   8.011 -0.8834 -0.1294  0.3619
   67MOL0     H 9195   4.364   4.366   8.151  0.5382 -0.0423 -1.1337
   67MOL0     H 9196   4.133   4.457   8.275 -0.3466  0.6111 -0.4321
   67MOL0     H 9197   3.994   4.319   8.286 -1.2605 -0.8745 -1.4211
   67MOL0     H 9198   4.054   4.490   8.069  0.9703  1.1576  1.7588
   67MOL0     H 9199   4.100   4.328   8.024  0.2266 -0.2776 -0.7931
   67MOL0     H 9200   3.878   4.339   7.964 -2.0688 -2.0384  0.2004
   67MOL0     H 9201   3.885   4.226   8.094  0.3325  0.2609  0.1013
   67MOL0     H 9202   3.717   4.350   8.191 -1.4110  0.3813 -0.6340
   67MOL0     H 9203   3.838   4.472   8.231 -0.1230  2.5509 -1.7236
   67MOL0     H 9204   3.570   4.586   7.866  1.2332 -2.4184  1.6045
   67MOL0     H 9205   3.242   4.723   7.851  0.8052 -3.8701 -1.6056
   67MOL0     H 9206   3.394   4.697   7.757  2.0857 -0.5081  0.7617
   67MOL0     H 9207   3.386   4.834   7.865  2.2487 -0.9086  1.0371
   67MOL0     H 9208   2.823   4.534   8.082 -0.2305 -0.9769  0.2885
   67MOL0     H 9209   2.633   4.673   8.075  0.0892 -0.3491  0.2063
   67MOL0     H 9210   2.468   4.798   7.963  0.8035 -2.5129  2.1148
   67MOL0     H 9211   2.451   4.810   8.128 -1.2560 -0.4950 -2.0605
   67MOL0     H 9212   2.374   5.020   8.136  2.1598 -6.2406  1.8291
   67MOL0     H 9213   2.449   5.072   7.986 -0.3711  0.1726 -0.8979
   67MOL0     H 9214   2.284   4.904   7.857  0.1494  0.3620 -1.1997
   67MOL0     H 9215   2.234   5.061   7.912  2.0602  1.3306 -0.3046
   67MOL0     H 9216   2.133   4.956   8.118 -0.9448  0.4598 -0.4897
   67MOL0     H 9217   2.228   4.810   8.098  0.8738 -0.1023 -0.7845
   67MOL0     H 9218   2.032   4.911   7.889  3.3465  0.2385 -2.5818
   67MOL0     H 9219   2.096   4.748   7.901 -0.7854 -2.3224  0.4424
   67MOL0     H 9220   1.943   4.852   8.127  1.1934  0.8912 -1.8305
   67MOL0     H 9221   1.960   4.679   8.079 -1.5719  1.0207  4.9059
   67MOL0     H 9222   1.786   4.909   7.945  2.6127  1.4561 -0.8756
   67MOL0     H 9223   1.730   4.790   8.057  1.2675 -0.2724  0.4896
   67MOL0     H 9224   1.671   4.714   7.844  0.2294  3.7009 -0.3679
   67MOL0     H 9225   1.789   4.608   7.917 -3.8599 -0.5869  0.6003
   67MOL0     H 9226   2.871   5.020   7.964  0.8934  0.0810 -1.2756
   67MOL0     H 9227   3.047   4.886   7.954  0.0009  2.4231  1.5108
   67MOL0     H 9228   3.311   4.522   8.263 -2.5561  5.6790 -0.3767
   67MOL0     H 9229   3.535   4.425   8.250 -2.1638 -2.6085 -2.3995
   67MOL0     H 9230   5.337   4.357   7.815  1.2567 -0.4263 -0.5409
   67MOL0     H 9231   5.444   4.447   7.631  2.0672 -2.3857 -0.6453
   67MOL0     H 9232   5.485   4.251   7.091 -0.7513 -0.1748  0.2323
   67MOL0     H 9233   5.582   4.304   6.889  3.3847  0.9024  0.7873
   67MOL0     H 9234   5.639   4.657   6.746  1.1935  1.1590 -2.3021
   67MOL0     H 9235   5.788   4.708   6.836 -0.9810 -1.6578  2.3200
   67MOL0     H 9236   5.921   4.558   6.673  1.0522  1.6902 -2.4120
   67MOL0     H 9237   5.838   4.697   6.595  1.8895 -1.4071 -1.9160
   67MOL0     H 9238   5.730   4.411   6.607 -2.4799 -0.6460 -3.7151
   67MOL0     H 9239   5.640   4.544   6.556 -0.1286  2.3668  2.6387
   67MOL0     H 9240   5.912   4.540   6.426  0.3769 -2.3022 -1.0398
   67MOL0     H 9241   5.752   4.600   6.378  0.8737  0.6540  0.3012
   67MOL0     H 9242   5.724   4.199   6.253  0.6601  0.6444 -2.1350
   67MOL0     H 9243   5.735   4.672   7.061  2.4484 -1.6249  1.0904
   67MOL0     H 9244   5.728   4.675   7.320 -0.5800  0.9156  0.4783
   67MOL0     H 9245   5.571   4.749   7.287 -4.0049 -2.9391 -2.7097
   67MOL0     H 9246   5.579   4.608   7.401 -0.7366 -2.0589 -1.3039
   68MOL0     O 9247   4.701  10.625   2.493 -0.8864  0.0855  0.3883
   68MOL0     C 9248   4.616  10.688   2.550  0.4747  0.6741 -0.7134
   68MOL0     O 9249   4.477  10.667   2.518  0.0175  0.3703  0.1780
   68MOL0     C 9250   4.444  10.541   2.462  1.1619  0.7750 -0.3177
   68MOL0     C 9251   4.482  10.415   2.520 -0.7298 -0.0211 -0.2627
   68MOL0     C 9252   4.426  10.296   2.479  0.1296  0.7715  0.4200
   68MOL0     C 9253   4.332  10.294   2.375 -0.2315  0.0906  0.4780
   68MOL0     O 9254   4.290  10.166   2.335 -0.1157  0.5244  0.6054
   68MOL0     C 9255   4.287  10.140   2.196  0.2864 -0.7997 -0.2441
   68MOL0     C 9256   4.269   9.983   2.182 -0.2845  0.0931 -0.0041
   68MOL0     C 9257   4.405   9.913   2.176 -0.4610 -0.4401  0.5158
   68MOL0     C 9258   4.399   9.760   2.165  0.1591 -0.3594 -0.2177
   68MOL0     C 9259   4.526   9.716   2.094  0.1776  0.0143  0.1884
   68MOL0     C 9260   4.551   9.570   2.115 -0.2852 -0.0164  0.2618
   68MOL0     C 9261   4.456   9.458   2.062  1.1614  0.0361  0.1541
   68MOL0     C 9262   4.442   9.467   1.906 -1.1733 -0.4969 -1.0293
   68MOL0     N 9263   4.305   9.444   1.868 -0.2469 -0.8055 -0.4116
   68MOL0     C 9264   4.223   9.541   1.823 -0.6309  0.2615  0.0213
   68MOL0     C 9265   4.121   9.477   1.756 -0.3356 -1.5051 -0.4431
   68MOL0     C 9266   4.011   9.552   1.683  0.1828 -1.0365  0.3483
   68MOL0     C 9267   3.913   9.602   1.792  0.8938  0.1748 -0.1383
   68MOL0     C 9268   3.815   9.720   1.760  0.1297  0.1900  0.5338
   68MOL0     C 9269   3.880   9.847   1.792 -0.2249  0.0798 -0.2984
   68MOL0     O 9270   4.003   9.857   1.716  0.0161  0.2754  0.1735
   68MOL0     C 9271   4.078   9.965   1.741 -0.0530  0.6641  0.2978
   68MOL0     C 9272   4.203   9.961   1.684 -0.3889 -0.7949  1.1050
   68MOL0     C 9273   4.295  10.073   1.691  0.2696  0.2780 -0.4030
   68MOL0     C 9274   4.430  10.040   1.628  0.8718 -1.4622  0.7256
   68MOL0     C 9275   4.268  10.182   1.778 -0.5202  0.1474  0.2724
   68MOL0     C 9276   4.368  10.278   1.817  0.5030  0.0985 -0.7679
   68MOL0     O 9277   4.337  10.348   1.929  0.0408  0.9891  0.2373
   68MOL0     C 9278   4.422  10.455   1.966 -0.4891 -0.7083  0.2862
   68MOL0     C 9279   4.511  10.451   2.076  0.1602  0.1411 -0.1038
   68MOL0     C 9280   4.601  10.557   2.096 -0.4164 -0.2852  0.1962
   68MOL0     C 9281   4.605  10.667   2.010  1.2481 -0.2282  0.4449
   68MOL0     O 9282   4.690  10.773   2.034 -0.2095  0.1094 -0.5378
   68MOL0     C 9283   4.725  10.803   2.167  0.9358  0.0035 -0.0781
   68MOL0     C 9284   4.733  10.958   2.175 -0.5931  0.4195  0.5225
   68MOL0     C 9285   4.716  10.999   2.319 -0.2108  0.5504 -0.7020
   68MOL0     C 9286   4.683  11.144   2.317  0.0475 -0.1863 -0.1258
   68MOL0     C 9287   4.671  11.219   2.456  0.0637  0.8895 -0.0355
   68MOL0     C 9288   4.575  11.338   2.458 -0.0207  0.2345 -0.6860
   68MOL0     C 9289   4.562  11.392   2.596  0.0421  0.2792  0.1080
   68MOL0     C 9290   4.463  11.521   2.588 -0.3974  1.5893 -0.1565
   68MOL0    Cl 9291   4.508  11.633   2.471  0.2854 -0.1030  0.1210
   68MOL0     C 9292   4.514  10.678   1.902  0.1899  0.1091  0.2956
   68MOL0     C 9293   4.430  10.569   1.877  0.8845 -0.3714 -0.7999
   68MOL0     O 9294   4.482  10.278   1.765 -0.2797 -0.3909  0.3092
   68MOL0     C 9295   4.140  10.184   1.830  1.1704  0.1521 -0.8197
   68MOL0     C 9296   4.049  10.074   1.816 -0.3586 -0.7707 -0.4337
   68MOL0     N 9297   4.151   9.340   1.762  0.5273 -0.7498 -0.2877
   68MOL0     N 9298   4.256   9.317   1.825  0.1429 -0.5517  0.5858
   68MOL0     C 9299   4.300  10.415   2.310  0.4852 -0.2202  0.5541
   68MOL0     C 9300   4.348  10.540   2.361 -0.5993  0.1546 -0.5558
   68MOL0     C 9301   4.648  10.808   2.649 -0.7636  0.1068 -0.0452
   68MOL0     C 9302   4.539  10.865   2.714 -0.2274 -0.0844 -0.1347
   68MOL0     C 9303   4.543  10.960   2.808  0.2107 -0.1325 -0.9902
   68MOL0     C 9304   4.675  11.007   2.842  0.0708 -0.5778 -0.1415
   68MOL0     O 9305   4.680  11.121   2.926  0.8537  0.0529  0.1154
   68MOL0     C 9306   4.729  11.243   2.885 -0.3316  0.2210 -0.2033
   68MOL0     C 9307   4.639  11.355   2.945 -0.0731  0.4382  0.5836
   68MOL0     C 9308   4.703  11.493   2.936 -1.7638  0.0321  0.1004
   68MOL0     C 9309   4.755  11.553   3.075  0.1291  0.4538  0.4878
   68MOL0     C 9310   4.640  11.603   3.156  0.5426  0.4306 -0.0637
   68MOL0     C 9311   4.540  11.640   3.217  1.4234 -0.1076 -0.8736
   68MOL0     C 9312   4.788  10.962   2.778 -0.0306 -0.6058 -0.1585
   68MOL0     C 9313   4.777  10.858   2.681 -0.2357 -0.3965  0.4477
   68MOL0     C 9314   4.897  10.783   2.612  0.0262  0.0330  0.2236
   68MOL0     H 9315   4.551  10.418   2.604  1.0191 -3.0303 -1.4076
   68MOL0     H 9316   4.456  10.202   2.524 -1.5229 -0.5451 -1.0707
   68MOL0     H 9317   4.370  10.186   2.141 -2.1521  2.3230 -1.6127
   68MOL0     H 9318   4.191  10.174   2.156 -0.0956  0.0723  1.3048
   68MOL0     H 9319   4.217   9.954   2.273 -0.0932 -0.5095 -0.0849
   68MOL0     H 9320   4.217   9.958   2.089  1.9588  0.9598 -1.5997
   68MOL0     H 9321   4.460   9.960   2.093  3.1220 -3.3536  0.9902
   68MOL0     H 9322   4.470   9.940   2.259  0.2791  0.4641 -0.3292
   68MOL0     H 9323   4.388   9.706   2.259 -0.6765 -0.8710 -0.5890
   68MOL0     H 9324   4.316   9.725   2.101  0.5998 -2.6316  0.3615
   68MOL0     H 9325   4.608   9.771   2.142 -0.8013  1.4176  0.3337
   68MOL0     H 9326   4.534   9.740   1.987  1.4710 -0.8127  0.0805
   68MOL0     H 9327   4.645   9.557   2.061 -0.3728  2.3783 -0.5953
   68MOL0     H 9328   4.560   9.543   2.221 -1.5307 -0.4376  0.2717
   68MOL0     H 9329   4.356   9.478   2.102  1.9116  0.7861  1.6902
   68MOL0     H 9330   4.491   9.360   2.096  0.2833 -0.6672 -0.8774
   68MOL0     H 9331   4.482   9.564   1.874  0.2135 -1.0366 -1.0162
   68MOL0     H 9332   4.500   9.380   1.874 -1.1533 -0.5318 -0.9012
   68MOL0     H 9333   4.247   9.647   1.824 -0.0896  0.1707 -1.0725
   68MOL0     H 9334   3.955   9.494   1.608 -0.8667 -0.3776  0.6014
   68MOL0     H 9335   4.059   9.631   1.625 -1.5904 -0.4411 -0.3863
   68MOL0     H 9336   3.848   9.516   1.810 -1.6982  1.7701 -1.2275
   68MOL0     H 9337   3.963   9.638   1.883  0.7393 -1.6549  0.7150
   68MOL0     H 9338   3.797   9.730   1.652  1.3794  4.1715  0.5168
   68MOL0     H 9339   3.719   9.711   1.812 -1.1354  1.0776 -1.4769
   68MOL0     H 9340   3.811   9.930   1.778  0.7917  0.8965 -0.5608
   68MOL0     H 9341   3.913   9.833   1.895 -0.4033 -1.8425 -0.4531
   68MOL0     H 9342   4.224   9.864   1.640  0.9782 -0.3386  0.6914
   68MOL0     H 9343   4.513  10.037   1.699  0.4017  4.7888  2.0450
   68MOL0     H 9344   4.446  10.129   1.568 -3.1529  0.2601  1.8905
   68MOL0     H 9345   4.419   9.963   1.551 -1.6224 -0.8328  0.3667
   68MOL0     H 9346   4.515  10.361   2.137 -2.5485 -1.7473 -2.4396
   68MOL0     H 9347   4.680  10.534   2.166  1.4490  0.5155 -1.5373
   68MOL0     H 9348   4.661  10.768   2.248 -0.6317  0.2939 -1.1580
   68MOL0     H 9349   4.826  10.769   2.192  1.5440  0.5894 -1.5968
   68MOL0     H 9350   4.833  10.977   2.136 -0.1866  2.4448  2.3967
   68MOL0     H 9351   4.658  11.006   2.111 -0.8486 -0.1192  0.4022
   68MOL0     H 9352   4.808  10.966   2.367  1.2962  4.2944 -0.6985
   68MOL0     H 9353   4.626  10.958   2.366  0.8541  3.4523  4.7116
   68MOL0     H 9354   4.597  11.150   2.250 -1.1680  1.9488  1.4835
   68MOL0     H 9355   4.765  11.189   2.259 -0.3781  0.8633  0.0691
   68MOL0     H 9356   4.650  11.145   2.534  2.6575  0.8262  0.7081
   68MOL0     H 9357   4.774  11.254   2.472  1.5960 -2.3543 -1.6993
   68MOL0     H 9358   4.476  11.315   2.417 -1.1623  2.5925  0.5776
   68MOL0     H 9359   4.625  11.406   2.389 -0.7108  0.4044 -1.0274
   68MOL0     H 9360   4.656  11.434   2.634  1.9105 -1.6056 -2.1712
   68MOL0     H 9361   4.522  11.313   2.660 -0.2387 -1.1222 -1.7170
   68MOL0     H 9362   4.469  11.567   2.687  0.7304  1.2283 -0.0413
   68MOL0     H 9363   4.361  11.483   2.575 -0.8020  2.8797 -0.8157
   68MOL0     H 9364   4.514  10.769   1.843  0.4951 -0.1832 -0.1611
   68MOL0     H 9365   4.370  10.575   1.786  1.5637  1.5529 -1.1584
   68MOL0     H 9366   4.098  10.276   1.871 -0.8806 -1.0995  0.0114
   68MOL0     H 9367   3.951  10.086   1.862 -1.1473  3.6899 -2.7078
   68MOL0     H 9368   4.224  10.406   2.233  0.9710  1.5635 -0.1979
   68MOL0     H 9369   4.308  10.633   2.321  0.4958  1.2034  0.7028
   68MOL0     H 9370   4.443  10.831   2.675 -0.2233  1.5285 -1.6536
   68MOL0     H 9371   4.461  11.005   2.863  1.5856  0.2519  0.8408
   68MOL0     H 9372   4.829  11.241   2.929 -0.8998 -3.1118  1.2894
   68MOL0     H 9373   4.729  11.240   2.776 -2.8909  1.8308 -0.3185
   68MOL0     H 9374   4.617  11.330   3.050  0.8499  1.2855  0.9839
   68MOL0     H 9375   4.545  11.355   2.889  1.4155 -3.0925 -2.3422
   68MOL0     H 9376   4.788  11.473   2.871 -2.0204 -0.6740 -0.0277
   68MOL0     H 9377   4.631  11.561   2.890  1.0080  3.0539 -0.0949
   68MOL0     H 9378   4.818  11.642   3.070  0.6095  0.1447  0.9799
   68MOL0     H 9379   4.795  11.471   3.135 -1.3052 -1.3392 -0.8774
   68MOL0     H 9380   4.456  11.687   3.265  0.6874 -1.0353 -1.2439
   68MOL0     H 9381   4.879  11.014   2.808  0.3812 -1.1446 -0.4401
   68MOL0     H 9382   4.896  10.790   2.503  2.1180  1.1188  0.2168
   68MOL0     H 9383   4.989  10.830   2.650 -2.0046  4.8916 -0.0603
   68MOL0     H 9384   4.907  10.679   2.644 -2.8885 -0.2876  0.3611
   69MOL0     O 9385   0.163   1.588   6.803  0.0042  0.0107 -0.4663
   69MOL0     C 9386   0.153   1.667   6.897  0.7970 -0.1409 -0.4831
   69MOL0     O 9387   0.036   1.722   6.946 -0.5612  0.0767 -0.3056
   69MOL0     C 9388  -0.086   1.670   6.943  0.6251  1.2082  0.9163
   69MOL0     C 9389  -0.194   1.743   6.993  0.0334 -0.3481 -0.1137
   69MOL0     C 9390  -0.325   1.696   7.001  0.3096 -0.6931 -0.0569
   69MOL0     C 9391  -0.356   1.573   6.944  0.0973  0.1983 -1.1824
   69MOL0     O 9392  -0.480   1.506   6.947  0.2301 -0.2482  0.3935
   69MOL0     C 9393  -0.585   1.591   7.004  0.3085 -0.0503  0.0125
   69MOL0     C 9394  -0.730   1.528   6.985  0.1113 -0.1707 -0.2789
   69MOL0     C 9395  -0.838   1.639   7.023 -0.3114  0.1823  1.6044
   69MOL0     C 9396  -0.979   1.587   7.018 -0.8514  0.4095  0.4962
   69MOL0     C 9397  -1.077   1.705   7.035  0.6996  0.7874  0.6224
   69MOL0     C 9398  -1.094   1.734   7.183  0.3403  0.2228  0.2685
   69MOL0     C 9399  -1.138   1.877   7.222  0.3690  0.6033 -0.2781
   69MOL0     C 9400  -1.284   1.892   7.183 -0.0111 -0.5086 -0.1233
   69MOL0     N 9401  -1.336   2.021   7.226  0.3944  0.2224  0.3582
   69MOL0     C 9402  -1.423   2.086   7.142 -0.2775  0.1376 -0.2989
   69MOL0     C 9403  -1.434   2.208   7.198 -0.9260 -0.5007 -0.1790
   69MOL0     C 9404  -1.507   2.323   7.139 -0.8582 -0.8267 -0.4923
   69MOL0     C 9405  -1.405   2.420   7.061  0.8581  0.0624  0.1697
   69MOL0     C 9406  -1.339   2.496   7.172 -0.5271  0.3938 -0.4538
   69MOL0     C 9407  -1.254   2.612   7.120  1.0162 -0.2820  0.8388
   69MOL0     O 9408  -1.139   2.562   7.059 -0.3499  0.1961 -0.5911
   69MOL0     C 9409  -1.125   2.596   6.923  0.1931  0.0177 -0.7425
   69MOL0     C 9410  -0.995   2.593   6.874  0.2444  0.5100 -0.6541
   69MOL0     C 9411  -0.967   2.614   6.737  0.5623 -0.7476 -0.3517
   69MOL0     C 9412  -0.827   2.635   6.693  0.4106  0.2439 -0.3503
   69MOL0     C 9413  -1.072   2.624   6.640 -0.0090 -0.7559  0.4939
   69MOL0     C 9414  -1.059   2.636   6.493 -0.3604 -0.3910  0.7595
   69MOL0     O 9415  -1.169   2.581   6.422 -0.1552  1.0716 -0.1981
   69MOL0     C 9416  -1.176   2.580   6.287  0.6645 -0.8888 -0.1951
   69MOL0     C 9417  -1.261   2.670   6.215 -0.4113 -0.4558  0.4084
   69MOL0     C 9418  -1.273   2.669   6.078  0.3913  0.9382  0.4169
   69MOL0     C 9419  -1.196   2.574   6.004 -1.1716 -0.8742  0.4567
   69MOL0     O 9420  -1.184   2.560   5.862 -0.0016 -0.4426 -0.3698
   69MOL0     C 9421  -1.307   2.533   5.796  0.6574 -0.6185 -0.0650
   69MOL0     C 9422  -1.292   2.442   5.670 -0.0097 -0.5859 -0.8976
   69MOL0     C 9423  -1.431   2.378   5.624  0.3160 -0.2441 -0.0163
   69MOL0     C 9424  -1.535   2.470   5.557  0.7269 -0.0702 -0.0656
   69MOL0     C 9425  -1.656   2.388   5.535 -0.6062  0.0716  0.0869
   69MOL0     C 9426  -1.761   2.480   5.470  0.1819  0.6648 -0.8045
   69MOL0     C 9427  -1.904   2.424   5.481  0.5561 -0.1423 -1.2156
   69MOL0     C 9428  -2.011   2.534   5.481  0.4770 -0.2641 -0.5646
   69MOL0    Cl 9429  -2.003   2.644   5.330 -0.0012  0.2980 -0.3118
   69MOL0     C 9430  -1.110   2.486   6.077  0.0465  0.0083 -0.0246
   69MOL0     C 9431  -1.099   2.491   6.213 -0.1845 -0.1437  0.0331
   69MOL0     O 9432  -0.955   2.681   6.443  0.4974 -0.7430 -0.2107
   69MOL0     C 9433  -1.205   2.613   6.696 -0.3901  0.9054 -0.1590
   69MOL0     C 9434  -1.234   2.599   6.835 -0.3131 -0.3015  0.7342
   69MOL0     N 9435  -1.367   2.208   7.325 -0.0193 -0.0647  1.0029
   69MOL0     N 9436  -1.313   2.092   7.335 -0.0517 -0.0025  0.7396
   69MOL0     C 9437  -0.249   1.494   6.904  0.7287 -0.9886  0.1786
   69MOL0     C 9438  -0.120   1.544   6.895  0.2334  0.0634 -0.2064
   69MOL0     C 9439   0.271   1.744   6.930  0.0769 -0.6468  0.2750
   69MOL0     C 9440   0.269   1.884   6.911 -0.0923 -0.1778 -0.3216
   69MOL0     C 9441   0.382   1.967   6.934  0.1533 -1.2669 -0.2422
   69MOL0     C 9442   0.497   1.908   6.988 -0.1586  1.0887 -0.0455
   69MOL0     O 9443   0.611   1.977   7.032 -0.8630  0.5800 -0.3055
   69MOL0     C 9444   0.635   2.111   6.995 -0.3978 -0.3634 -0.2862
   69MOL0     C 9445   0.787   2.120   6.960  0.6289 -0.3889 -0.8310
   69MOL0     C 9446   0.826   2.044   6.836  0.0924  0.0156 -0.2342
   69MOL0     C 9447   0.732   2.068   6.710 -0.4090 -0.1429 -0.6220
   69MOL0     C 9448   0.689   2.211   6.693 -0.2981  0.2951 -0.2920
   69MOL0     C 9449   0.649   2.326   6.680 -0.1064  0.4069  0.4266
   69MOL0     C 9450   0.501   1.770   7.001 -0.0330 -1.3250  0.1798
   69MOL0     C 9451   0.391   1.687   6.973 -0.0836 -0.8030  0.0258
   69MOL0     C 9452   0.420   1.542   7.000  0.4016  0.1175  0.8718
   69MOL0     H 9453  -0.184   1.846   7.027 -2.0925  0.1689 -0.8592
   69MOL0     H 9454  -0.397   1.757   7.055  1.1436  0.9372 -0.7276
   69MOL0     H 9455  -0.588   1.692   6.962 -0.2792  0.6337  1.6166
   69MOL0     H 9456  -0.561   1.599   7.110  1.5024 -2.0676 -0.0471
   69MOL0     H 9457  -0.748   1.505   6.879  1.4868 -0.2921 -0.5081
   69MOL0     H 9458  -0.747   1.450   7.059  0.6518  2.1127  2.4110
   69MOL0     H 9459  -0.812   1.690   7.117  0.8549  2.6202  0.0551
   69MOL0     H 9460  -0.824   1.715   6.946  0.6995  0.2319  1.8160
   69MOL0     H 9461  -0.995   1.541   6.920  2.0545 -1.9152  0.9638
   69MOL0     H 9462  -0.993   1.509   7.093  2.7102 -0.8918 -0.0074
   69MOL0     H 9463  -1.176   1.668   7.006  1.7709 -0.7420 -1.2622
   69MOL0     H 9464  -1.062   1.792   6.971  0.4755 -0.7144 -1.5783
   69MOL0     H 9465  -1.169   1.669   7.229 -0.8107 -0.3631 -2.2989
   69MOL0     H 9466  -0.996   1.713   7.229  0.2972 -1.9274 -0.4815
   69MOL0     H 9467  -1.078   1.958   7.179  0.2236  1.8292  1.6843
   69MOL0     H 9468  -1.128   1.899   7.329 -1.0038  0.1623 -0.0328
   69MOL0     H 9469  -1.293   1.872   7.076  1.3020 -4.3660  0.3442
   69MOL0     H 9470  -1.346   1.817   7.233  3.1558 -2.1535  1.6451
   69MOL0     H 9471  -1.477   2.061   7.051  1.8934  1.2925 -2.0000
   69MOL0     H 9472  -1.571   2.362   7.219  1.0468 -0.4475  0.9205
   69MOL0     H 9473  -1.570   2.283   7.059 -1.4908 -0.3545 -0.2412
   69MOL0     H 9474  -1.345   2.368   6.986  0.1504 -0.0256 -0.3517
   69MOL0     H 9475  -1.462   2.493   7.002  0.4609 -1.3617 -1.2886
   69MOL0     H 9476  -1.417   2.544   7.230  0.6009 -0.1208  1.5808
   69MOL0     H 9477  -1.269   2.435   7.230  0.0452  2.4309  1.1127
   69MOL0     H 9478  -1.316   2.672   7.053  4.3323  0.3616 -1.9385
   69MOL0     H 9479  -1.229   2.677   7.204  0.9397  0.9162 -0.0466
   69MOL0     H 9480  -0.913   2.578   6.944 -0.8006 -2.0724  0.1542
   69MOL0     H 9481  -0.800   2.548   6.634  0.9498  0.3317 -0.2421
   69MOL0     H 9482  -0.760   2.652   6.778 -0.1509  3.0753 -0.3694
   69MOL0     H 9483  -0.818   2.726   6.633  4.0430  1.6506  1.9626
   69MOL0     H 9484  -1.329   2.737   6.267 -0.0170 -1.5432  2.4139
   69MOL0     H 9485  -1.338   2.739   6.026 -0.2168  0.2118  0.1750
   69MOL0     H 9486  -1.369   2.478   5.867  2.1522 -1.4357  0.6539
   69MOL0     H 9487  -1.357   2.627   5.769 -0.5768 -1.1641  0.2316
   69MOL0     H 9488  -1.237   2.492   5.589  2.3778 -2.1068 -0.3262
   69MOL0     H 9489  -1.222   2.361   5.695  0.9131 -0.5758 -3.1914
   69MOL0     H 9490  -1.477   2.333   5.712 -0.6650 -2.7587 -1.7167
   69MOL0     H 9491  -1.407   2.296   5.556 -1.6029 -1.1115  0.3017
   69MOL0     H 9492  -1.499   2.511   5.462 -0.4248 -2.2802 -1.5348
   69MOL0     H 9493  -1.559   2.554   5.623 -3.9100 -0.1162 -1.3136
   69MOL0     H 9494  -1.636   2.298   5.475 -0.3963 -0.2688  0.6605
   69MOL0     H 9495  -1.696   2.347   5.628 -0.7105 -2.7027 -1.0500
   69MOL0     H 9496  -1.738   2.509   5.367 -3.3493  3.2759 -1.0864
   69MOL0     H 9497  -1.753   2.576   5.522  0.2935  1.0526 -1.5130
   69MOL0     H 9498  -1.899   2.366   5.573  0.1526 -0.4141 -1.3612
   69MOL0     H 9499  -1.925   2.362   5.393  3.0945 -0.8369 -1.4063
   69MOL0     H 9500  -2.015   2.608   5.561 -0.3157 -0.2316 -0.6239
   69MOL0     H 9501  -2.102   2.478   5.503  1.5669 -1.6284  0.6977
   69MOL0     H 9502  -1.052   2.418   6.015 -1.6835 -1.0350 -0.5731
   69MOL0     H 9503  -1.038   2.414   6.261 -3.1093 -1.3985  2.0968
   69MOL0     H 9504  -1.292   2.613   6.631 -0.5281 -0.8310 -0.0336
   69MOL0     H 9505  -1.339   2.591   6.859 -0.5529  2.2783  0.8641
   69MOL0     H 9506  -0.284   1.406   6.850  0.5265 -2.3258  2.3931
   69MOL0     H 9507  -0.045   1.481   6.848  0.0627 -1.0057  0.9065
   69MOL0     H 9508   0.169   1.915   6.881 -0.7895 -0.3878  1.6155
   69MOL0     H 9509   0.361   2.074   6.942 -1.6179 -1.6390  0.6590
   69MOL0     H 9510   0.564   2.149   6.920 -0.2560 -1.1059 -0.7988
   69MOL0     H 9511   0.616   2.169   7.087 -1.2684  0.9654 -1.2623
   69MOL0     H 9512   0.838   2.072   7.044  1.2271 -0.1593 -1.0618
   69MOL0     H 9513   0.813   2.225   6.944 -0.6746  0.5227  2.3172
   69MOL0     H 9514   0.929   2.073   6.815 -0.5890  2.1188 -0.9091
   69MOL0     H 9515   0.825   1.938   6.863 -1.5840  0.4408  1.6205
   69MOL0     H 9516   0.647   2.002   6.728 -1.0040  1.0003  1.0127
   69MOL0     H 9517   0.783   2.031   6.621 -2.5764 -1.0348 -1.5771
   69MOL0     H 9518   0.626   2.428   6.661  1.5918  0.1990 -3.6271
   69MOL0     H 9519   0.597   1.737   7.040  1.5014 -0.2071 -2.4048
   69MOL0     H 9520   0.326   1.487   6.990 -0.1900  1.3316 -0.5717
   69MOL0     H 9521   0.498   1.503   6.934  0.3667 -0.3248  1.0881
   69MOL0     H 9522   0.463   1.518   7.098  0.1887 -0.9722  0.7056
   70MOL0     O 9523   5.549   4.510   4.077  0.5330 -0.1431 -0.2517
   70MOL0     C 9524   5.484   4.617   4.051 -0.1070 -0.1088 -0.4020
   70MOL0     O 9525   5.541   4.743   4.033  0.3969  0.1956 -0.0692
   70MOL0     C 9526   5.677   4.766   4.030  0.1310  1.2938 -0.1726
   70MOL0     C 9527   5.728   4.867   4.108 -0.7166 -1.4639  0.3373
   70MOL0     C 9528   5.872   4.876   4.118 -0.3376  0.6793  0.8557
   70MOL0     C 9529   5.950   4.800   4.037  0.6069  0.4188  0.3212
   70MOL0     O 9530   6.083   4.809   4.040 -0.2208  0.3506  0.3072
   70MOL0     C 9531   6.137   4.687   4.089  0.4366 -0.1926 -0.7750
   70MOL0     C 9532   6.279   4.718   4.146 -0.1622 -0.1615  0.8257
   70MOL0     C 9533   6.265   4.806   4.274  1.3412  0.7728 -0.3018
   70MOL0     C 9534   6.386   4.880   4.306  0.0528  0.1324  1.0071
   70MOL0     C 9535   6.367   5.001   4.406  0.1663  0.6319  0.7024
   70MOL0     C 9536   6.388   4.954   4.551 -0.6836 -0.6244 -0.4015
   70MOL0     C 9537   6.344   5.065   4.651 -0.7980 -0.0822  0.9138
   70MOL0     C 9538   6.323   5.006   4.785 -0.1765  0.3810 -0.0828
   70MOL0     N 9539   6.266   5.110   4.875  0.0649 -0.1762  0.6067
   70MOL0     C 9540   6.131   5.145   4.886 -0.3382 -0.3912  0.0868
   70MOL0     C 9541   6.138   5.243   4.969 -0.6919 -0.5714  0.7219
   70MOL0     C 9542   6.036   5.341   5.004 -0.2178  0.3662  0.7049
   70MOL0     C 9543   5.925   5.279   5.104 -0.6355 -0.4211 -0.0690
   70MOL0     C 9544   5.818   5.367   5.140  0.3258  0.0868 -0.3110
   70MOL0     C 9545   5.865   5.505   5.180  0.9243 -0.4503 -0.0756
   70MOL0     O 9546   5.763   5.581   5.229  0.6152  0.4349 -0.1475
   70MOL0     C 9547   5.706   5.556   5.350  0.6381  0.6580 -0.6566
   70MOL0     C 9548   5.589   5.618   5.376 -0.5259  0.2158  0.5300
   70MOL0     C 9549   5.521   5.608   5.494 -0.8995  0.3401 -0.4563
   70MOL0     C 9550   5.392   5.688   5.499  0.0335 -0.2264  1.3876
   70MOL0     C 9551   5.563   5.511   5.591  0.0946 -0.0121  0.5051
   70MOL0     C 9552   5.492   5.483   5.710  0.7422 -0.5678  0.2718
   70MOL0     O 9553   5.554   5.403   5.805 -0.0230 -0.4302  0.3830
   70MOL0     C 9554   5.511   5.388   5.932  1.0285 -0.2269  0.5441
   70MOL0     C 9555   5.460   5.494   6.011  0.9591 -0.2950  0.0054
   70MOL0     C 9556   5.432   5.477   6.143 -0.4640  0.3733 -0.2647
   70MOL0     C 9557   5.476   5.361   6.214 -1.1587 -0.2896  0.2493
   70MOL0     O 9558   5.464   5.364   6.354 -0.1166  0.7518 -0.5816
   70MOL0     C 9559   5.521   5.253   6.426 -0.0121 -0.0805  0.1877
   70MOL0     C 9560   5.534   5.296   6.569  0.2121  0.1817  0.2506
   70MOL0     C 9561   5.664   5.369   6.600 -0.0338 -0.4820 -0.3914
   70MOL0     C 9562   5.655   5.410   6.753 -0.3111  0.2573  0.6710
   70MOL0     C 9563   5.788   5.443   6.824 -0.2454 -0.1377 -0.3613
   70MOL0     C 9564   5.866   5.311   6.833  0.1449 -0.1656  0.3460
   70MOL0     C 9565   5.947   5.309   6.958 -0.4193  0.2957 -0.6797
   70MOL0     C 9566   6.066   5.401   6.951  0.2327 -0.3750  0.0102
   70MOL0    Cl 9567   6.032   5.578   6.983  0.1658  0.2696  0.1967
   70MOL0     C 9568   5.518   5.251   6.136 -0.8670  0.1004 -0.5718
   70MOL0     C 9569   5.523   5.262   5.992  0.7248  0.0722  0.8049
   70MOL0     O 9570   5.383   5.537   5.720  0.3250  0.4366  0.0862
   70MOL0     C 9571   5.689   5.447   5.565 -1.0135  0.1344  0.1070
   70MOL0     C 9572   5.763   5.477   5.452  0.6297 -1.0705 -0.1921
   70MOL0     N 9573   6.261   5.254   5.026  0.2562 -0.2180 -0.8750
   70MOL0     N 9574   6.335   5.180   4.956 -0.0188 -0.3561  0.5892
   70MOL0     C 9575   5.897   4.709   3.946  0.0480 -1.2465 -0.0271
   70MOL0     C 9576   5.761   4.689   3.947  0.5450  0.1232  0.1815
   70MOL0     C 9577   5.342   4.604   4.062  0.1402  0.5193 -0.6889
   70MOL0     C 9578   5.273   4.697   4.138 -0.6441 -0.2619  0.0290
   70MOL0     C 9579   5.143   4.693   4.174  0.1216  1.3099 -0.3756
   70MOL0     C 9580   5.064   4.600   4.105 -0.4037  1.0451  0.0020
   70MOL0     O 9581   4.929   4.612   4.092  0.0839  0.1102  0.2385
   70MOL0     C 9582   4.856   4.638   4.215 -1.0367 -0.6530  1.0370
   70MOL0     C 9583   4.712   4.677   4.175 -0.2045  0.1210  0.7420
   70MOL0     C 9584   4.630   4.562   4.116  0.0367  0.0095  0.4778
   70MOL0     C 9585   4.691   4.472   3.999 -0.7296 -0.5726 -0.0758
   70MOL0     C 9586   4.577   4.390   3.953 -0.0666  0.3746  0.4975
   70MOL0     C 9587   4.477   4.326   3.930 -0.9734 -0.2674  0.5733
   70MOL0     C 9588   5.120   4.510   4.017 -0.7192 -1.5140  0.2168
   70MOL0     C 9589   5.264   4.504   3.997  0.5854  0.5511 -0.2704
   70MOL0     C 9590   5.317   4.409   3.892 -0.3034  0.0781  0.3068
   70MOL0     H 9591   5.666   4.925   4.175 -1.0478 -0.3667 -0.8736
   70MOL0     H 9592   5.922   4.947   4.183  0.9826 -0.3392  1.0110
   70MOL0     H 9593   6.131   4.610   4.012  0.9463  1.1758 -2.2361
   70MOL0     H 9594   6.079   4.646   4.172  2.6119 -2.0459 -0.0803
   70MOL0     H 9595   6.333   4.625   4.167  0.5588 -0.1681 -0.9431
   70MOL0     H 9596   6.336   4.764   4.065 -0.2459  0.2478  0.9992
   70MOL0     H 9597   6.187   4.877   4.246  0.5834 -0.6946 -2.1665
   70MOL0     H 9598   6.221   4.747   4.355  0.7028 -1.6907 -2.2992
   70MOL0     H 9599   6.456   4.811   4.353  0.5413 -0.9024 -1.1181
   70MOL0     H 9600   6.414   4.921   4.208 -2.2506 -0.4632  0.0235
   70MOL0     H 9601   6.269   5.048   4.395  0.1853  0.5360  0.0993
   70MOL0     H 9602   6.437   5.082   4.383 -1.4113  1.6143 -0.8570
   70MOL0     H 9603   6.331   4.861   4.559 -1.2898 -0.0946  2.0175
   70MOL0     H 9604   6.492   4.929   4.569 -1.2220 -0.9753  2.7195
   70MOL0     H 9605   6.248   5.097   4.607 -0.6415 -2.4995 -1.4322
   70MOL0     H 9606   6.414   5.149   4.653 -0.0686 -0.4438 -2.5719
   70MOL0     H 9607   6.258   4.919   4.781  0.5760 -0.1978  0.0182
   70MOL0     H 9608   6.423   4.969   4.812  0.8527  1.3012 -2.3520
   70MOL0     H 9609   6.046   5.109   4.830 -0.1692  0.5245 -0.7935
   70MOL0     H 9610   5.982   5.378   4.916 -0.1497 -1.6093 -0.2341
   70MOL0     H 9611   6.088   5.420   5.059  4.6697 -3.2273  1.8871
   70MOL0     H 9612   5.870   5.191   5.068 -0.1939 -0.6811 -0.1188
   70MOL0     H 9613   5.975   5.243   5.194 -1.1646  0.8979  0.7838
   70MOL0     H 9614   5.763   5.373   5.046 -0.7123  0.7393  0.3207
   70MOL0     H 9615   5.764   5.321   5.223  0.6411 -0.2310 -0.2786
   70MOL0     H 9616   5.949   5.493   5.250 -0.7286 -4.1099  1.5309
   70MOL0     H 9617   5.905   5.548   5.088  0.2441  0.6943  0.1454
   70MOL0     H 9618   5.554   5.681   5.294 -2.0862 -0.6678  0.4812
   70MOL0     H 9619   5.402   5.751   5.409  4.5719 -2.4205  0.0726
   70MOL0     H 9620   5.403   5.756   5.584  1.6173 -1.0380  1.8659
   70MOL0     H 9621   5.307   5.619   5.503 -0.7009  0.5715  0.2337
   70MOL0     H 9622   5.436   5.591   5.968  0.0904  0.1064  1.3250
   70MOL0     H 9623   5.386   5.559   6.196 -2.3781 -0.1344 -1.0739
   70MOL0     H 9624   5.478   5.154   6.408 -0.5932  0.5935 -2.5676
   70MOL0     H 9625   5.622   5.231   6.390  0.6803 -0.0705  1.9930
   70MOL0     H 9626   5.448   5.362   6.586 -1.2328  0.3023 -5.3761
   70MOL0     H 9627   5.518   5.209   6.632  2.6377 -0.4747  0.0593
   70MOL0     H 9628   5.672   5.463   6.545 -0.0054 -1.1842 -1.6226
   70MOL0     H 9629   5.756   5.313   6.582 -0.5371 -1.0931 -1.1208
   70MOL0     H 9630   5.614   5.331   6.816 -0.6955  0.8200  1.1316
   70MOL0     H 9631   5.594   5.500   6.760 -0.5175  0.0647  1.4680
   70MOL0     H 9632   5.849   5.521   6.776  3.6727 -1.6175  1.7868
   70MOL0     H 9633   5.753   5.483   6.919  0.0155  1.8442 -1.0507
   70MOL0     H 9634   5.924   5.290   6.743 -0.5259  1.1609 -0.4309
   70MOL0     H 9635   5.785   5.239   6.846 -2.3339  1.4008 -4.1934
   70MOL0     H 9636   5.981   5.205   6.955 -0.7006  0.2198 -1.9328
   70MOL0     H 9637   5.895   5.336   7.050  0.6060 -0.3322  0.1214
   70MOL0     H 9638   6.102   5.384   6.849 -0.3120  0.3382 -0.3122
   70MOL0     H 9639   6.142   5.380   7.027  1.4607 -2.4670 -1.6655
   70MOL0     H 9640   5.552   5.152   6.167 -0.2973 -0.6187 -3.1990
   70MOL0     H 9641   5.546   5.176   5.930 -2.9925 -0.8001  0.4583
   70MOL0     H 9642   5.724   5.365   5.627 -2.6325  1.0087  2.3134
   70MOL0     H 9643   5.859   5.426   5.450  1.6498  0.7490 -1.9298
   70MOL0     H 9644   5.965   4.638   3.901 -2.4121 -3.1320 -1.0407
   70MOL0     H 9645   5.720   4.616   3.878 -0.5204 -0.0420  0.9597
   70MOL0     H 9646   5.322   4.788   4.169  0.8255 -0.5499 -1.3025
   70MOL0     H 9647   5.096   4.768   4.237  0.5996  1.0427  0.3100
   70MOL0     H 9648   4.864   4.546   4.272 -0.8029 -1.3183 -0.0306
   70MOL0     H 9649   4.897   4.724   4.269 -0.1148  2.2290 -3.6606
   70MOL0     H 9650   4.726   4.761   4.105 -0.5963 -0.4296 -0.0055
   70MOL0     H 9651   4.656   4.726   4.255  1.5688  0.5403  1.7995
   70MOL0     H 9652   4.610   4.499   4.203 -0.5904 -0.9458 -0.3360
   70MOL0     H 9653   4.535   4.601   4.078 -1.1099 -1.6424  1.5352
   70MOL0     H 9654   4.767   4.400   4.029 -1.7716 -1.2428  1.0573
   70MOL0     H 9655   4.723   4.534   3.914 -0.6087 -0.9614 -0.3142
   70MOL0     H 9656   4.389   4.270   3.903 -1.6347  0.1063  1.8619
   70MOL0     H 9657   5.048   4.441   3.975 -1.4344 -1.2604  0.9996
   70MOL0     H 9658   5.343   4.316   3.944  3.4513  1.6167  1.5351
   70MOL0     H 9659   5.245   4.386   3.813  0.5275 -1.2001 -0.1073
   70MOL0     H 9660   5.399   4.449   3.832 -0.1371 -0.0286  0.4629
   71MOL0     O 9661   2.162   9.361   5.092 -0.8466 -1.0574 -0.0802
   71MOL0     C 9662   2.185   9.257   5.148  0.3174 -0.0372  0.6384
   71MOL0     O 9663   2.262   9.162   5.102 -0.4685 -0.4988 -0.3546
   71MOL0     C 9664   2.339   9.174   4.986  0.4444 -0.8333 -0.1391
   71MOL0     C 9665   2.390   9.300   4.947 -0.9714 -0.6497  0.5448
   71MOL0     C 9666   2.458   9.306   4.822  0.6662  0.9116 -0.9367
   71MOL0     C 9667   2.491   9.195   4.748  0.7019  0.1799 -0.3828
   71MOL0     O 9668   2.577   9.189   4.640  0.1662 -0.2320  0.0465
   71MOL0     C 9669   2.590   9.301   4.549  0.1994 -0.1842  0.1946
   71MOL0     C 9670   2.720   9.269   4.461 -0.2779 -0.0077 -0.5420
   71MOL0     C 9671   2.694   9.157   4.355 -0.9424 -0.5905  0.5804
   71MOL0     C 9672   2.832   9.115   4.308  0.6411 -0.4078  0.1254
   71MOL0     C 9673   2.819   9.003   4.207 -0.7153 -0.2296 -0.5820
   71MOL0     C 9674   2.759   9.052   4.076  0.3953  0.2230  0.5171
   71MOL0     C 9675   2.860   9.140   4.003  1.0515  0.9386 -0.4742
   71MOL0     C 9676   2.802   9.205   3.876 -0.0323  0.2515  0.0704
   71MOL0     N 9677   2.767   9.103   3.769 -0.4008 -0.5358 -0.8416
   71MOL0     C 9678   2.655   9.022   3.757 -0.1588  0.6001  0.1482
   71MOL0     C 9679   2.674   8.950   3.648 -0.1661  0.5138  0.8378
   71MOL0     C 9680   2.581   8.844   3.619  0.0165 -0.3147 -0.4592
   71MOL0     C 9681   2.618   8.702   3.676 -0.4370 -0.6713 -0.1633
   71MOL0     C 9682   2.525   8.595   3.622  0.0734 -0.1793  0.0722
   71MOL0     C 9683   2.384   8.601   3.676 -0.0502 -0.0710 -0.1467
   71MOL0     O 9684   2.369   8.599   3.815  0.2054 -0.7305  0.2119
   71MOL0     C 9685   2.250   8.560   3.871 -0.1252  0.2460 -0.9534
   71MOL0     C 9686   2.186   8.644   3.959 -1.4687 -0.0856 -0.6677
   71MOL0     C 9687   2.063   8.621   4.020  0.8142 -0.2955 -0.2939
   71MOL0     C 9688   2.012   8.728   4.120  0.8091 -0.5757 -0.5389
   71MOL0     C 9689   1.997   8.501   3.991 -0.3640  0.7529  0.7290
   71MOL0     C 9690   1.866   8.456   4.052 -0.7716 -0.6191  0.2856
   71MOL0     O 9691   1.832   8.328   4.031 -1.0457  0.3849 -0.6260
   71MOL0     C 9692   1.711   8.285   4.081  0.7290  0.4246  0.1198
   71MOL0     C 9693   1.717   8.192   4.180  0.3200 -0.7754 -0.4702
   71MOL0     C 9694   1.600   8.142   4.235  0.5667 -0.7635 -0.3019
   71MOL0     C 9695   1.472   8.191   4.191 -0.0151 -0.3671  0.6129
   71MOL0     O 9696   1.353   8.159   4.257 -1.1089 -0.1656 -0.1852
   71MOL0     C 9697   1.323   8.016   4.269 -0.0661 -0.1489 -0.4693
   71MOL0     C 9698   1.175   7.983   4.249  0.6325 -0.0992  0.4996
   71MOL0     C 9699   1.126   7.971   4.095 -0.4454  0.0462  0.0069
   71MOL0     C 9700   0.977   7.955   4.091 -0.1113  0.4729  0.3224
   71MOL0     C 9701   0.917   7.817   4.074  0.4907 -0.3817  0.0160
   71MOL0     C 9702   0.937   7.720   4.190  0.2482  0.2929 -0.1444
   71MOL0     C 9703   0.860   7.751   4.315 -0.3957 -0.8327  0.1306
   71MOL0     C 9704   0.879   7.646   4.433  0.5768  0.0757 -0.3208
   71MOL0    Cl 9705   1.045   7.654   4.501 -0.1638 -0.1875  0.2954
   71MOL0     C 9706   1.468   8.279   4.081  0.2290  0.9586 -0.8149
   71MOL0     C 9707   1.591   8.331   4.032  0.0894  0.2128 -0.0954
   71MOL0     O 9708   1.787   8.543   4.087  0.3299  0.6092 -0.7629
   71MOL0     C 9709   2.063   8.413   3.895  0.0428 -0.1860  0.3305
   71MOL0     C 9710   2.188   8.438   3.837  0.4875 -0.5562 -0.7704
   71MOL0     N 9711   2.792   8.978   3.585 -0.1549 -1.0133 -0.4692
   71MOL0     N 9712   2.849   9.058   3.672 -0.0748  0.4381 -0.1182
   71MOL0     C 9713   2.438   9.065   4.789 -0.1288 -1.3908 -1.3152
   71MOL0     C 9714   2.371   9.060   4.911 -0.3720 -0.7404  0.0676
   71MOL0     C 9715   2.120   9.230   5.269  0.2243 -1.0559 -0.6638
   71MOL0     C 9716   1.981   9.256   5.274  0.1853 -1.2194 -0.7791
   71MOL0     C 9717   1.905   9.216   5.387  0.9625 -0.1509 -0.4859
   71MOL0     C 9718   1.966   9.146   5.494  0.0591 -0.2425  0.2407
   71MOL0     O 9719   1.886   9.098   5.599  0.5210  0.1613  0.3955
   71MOL0     C 9720   1.925   9.153   5.721 -0.6276 -0.8936 -0.8943
   71MOL0     C 9721   1.847   9.087   5.838  0.0843 -1.0491 -0.0487
   71MOL0     C 9722   1.699   9.152   5.869  0.2600 -0.4728 -0.4643
   71MOL0     C 9723   1.659   9.194   6.016  0.1261 -0.5927  0.8162
   71MOL0     C 9724   1.604   9.073   6.079  0.7023 -0.7491  0.0372
   71MOL0     C 9725   1.572   8.969   6.134  0.4989 -0.2646 -0.8394
   71MOL0     C 9726   2.102   9.124   5.492  0.8146  0.3195  1.3003
   71MOL0     C 9727   2.181   9.173   5.383 -0.0808 -0.5396 -0.2883
   71MOL0     C 9728   2.321   9.134   5.378  0.6819 -0.9536 -1.0356
   71MOL0     H 9729   2.378   9.396   4.998  0.6358  0.2492 -0.6860
   71MOL0     H 9730   2.495   9.405   4.798  2.1680  1.1364  1.8149
   71MOL0     H 9731   2.602   9.394   4.606  0.4916 -0.1069  0.0107
   71MOL0     H 9732   2.503   9.303   4.483  0.1513  1.6163  0.2445
   71MOL0     H 9733   2.736   9.366   4.412  3.4678  0.2715  0.9218
   71MOL0     H 9734   2.809   9.247   4.520 -1.1173 -2.3469 -0.0243
   71MOL0     H 9735   2.648   9.065   4.391 -2.0578 -1.4870 -2.8028
   71MOL0     H 9736   2.640   9.203   4.272  2.5477 -0.0791 -1.6081
   71MOL0     H 9737   2.893   9.202   4.283 -0.8641  0.7563  0.3959
   71MOL0     H 9738   2.893   9.075   4.390 -0.9038 -1.7475  0.6746
   71MOL0     H 9739   2.767   8.921   4.259 -0.0769  0.8465  1.8830
   71MOL0     H 9740   2.915   8.955   4.188 -1.1083 -0.6953 -1.4984
   71MOL0     H 9741   2.729   8.963   4.020  2.0281  0.0541 -0.1321
   71MOL0     H 9742   2.674   9.116   4.100 -0.3256  0.1247 -1.5777
   71MOL0     H 9743   2.946   9.078   3.975  0.7773  1.7486 -3.4659
   71MOL0     H 9744   2.892   9.222   4.068 -2.0641  0.7331  1.5264
   71MOL0     H 9745   2.708   9.250   3.912  0.1609  0.3188  0.4991
   71MOL0     H 9746   2.864   9.282   3.830  0.1023  0.1286  0.0469
   71MOL0     H 9747   2.573   9.016   3.828  1.3212  0.7707  1.9631
   71MOL0     H 9748   2.556   8.848   3.513  1.5569  0.1402 -0.8262
   71MOL0     H 9749   2.492   8.866   3.679 -0.6510 -1.0961 -1.1367
   71MOL0     H 9750   2.720   8.679   3.642 -0.7749  0.9567 -2.5307
   71MOL0     H 9751   2.607   8.709   3.784 -1.1511  1.3416 -0.3237
   71MOL0     H 9752   2.518   8.599   3.513  0.2227  2.4389  0.0852
   71MOL0     H 9753   2.574   8.499   3.642 -0.3412 -0.1130  1.5462
   71MOL0     H 9754   2.333   8.692   3.641 -0.7380 -0.5568 -0.4204
   71MOL0     H 9755   2.333   8.516   3.630  1.1407 -3.1226  3.6087
   71MOL0     H 9756   2.240   8.735   3.983 -1.3634 -0.5673  1.0305
   71MOL0     H 9757   2.090   8.796   4.157  0.6548 -0.2067 -0.8937
   71MOL0     H 9758   1.962   8.674   4.201 -0.5245 -2.7258 -2.6832
   71MOL0     H 9759   1.934   8.793   4.082 -0.1018 -0.7968  0.8848
   71MOL0     H 9760   1.807   8.159   4.230 -0.9634  0.2449  2.8059
   71MOL0     H 9761   1.595   8.092   4.332 -2.3999 -0.0336  0.0124
   71MOL0     H 9762   1.389   7.965   4.197 -0.4381  2.9101 -3.1714
   71MOL0     H 9763   1.355   7.987   4.369  1.5946  1.8631 -0.3398
   71MOL0     H 9764   1.166   7.882   4.290  2.2991 -0.1674  0.7798
   71MOL0     H 9765   1.119   8.055   4.308  0.8056  0.0139  0.5280
   71MOL0     H 9766   1.172   7.886   4.045  1.0008  0.5635  0.3925
   71MOL0     H 9767   1.157   8.063   4.044  1.8388  0.1453  1.4257
   71MOL0     H 9768   0.929   8.016   4.014  1.5165  1.9616  0.4183
   71MOL0     H 9769   0.933   7.979   4.188 -0.4382 -4.7401  1.7826
   71MOL0     H 9770   0.808   7.828   4.069  0.3397  0.8490  3.4888
   71MOL0     H 9771   0.954   7.784   3.976 -1.1204 -0.7771 -0.4886
   71MOL0     H 9772   1.044   7.707   4.210  0.5813 -2.7091 -2.9902
   71MOL0     H 9773   0.907   7.621   4.153  0.9487  0.3502 -0.8916
   71MOL0     H 9774   0.754   7.747   4.288 -0.4098  0.8525 -0.1399
   71MOL0     H 9775   0.894   7.849   4.348 -0.5441 -0.4225 -0.9171
   71MOL0     H 9776   0.845   7.551   4.392 -0.7484  0.1119  0.6363
   71MOL0     H 9777   0.806   7.667   4.512  0.8176  0.5283 -0.2165
   71MOL0     H 9778   1.370   8.314   4.050 -0.3894  1.1857  1.2430
   71MOL0     H 9779   1.595   8.399   3.947  0.3652  2.3986  1.5787
   71MOL0     H 9780   1.998   8.327   3.880 -1.5307  0.8364  0.9068
   71MOL0     H 9781   2.232   8.367   3.768  2.2514  0.8331 -1.1272
   71MOL0     H 9782   2.460   8.973   4.735  1.8186 -1.2094 -0.9027
   71MOL0     H 9783   2.364   8.956   4.941  0.5380 -0.9576 -0.4527
   71MOL0     H 9784   1.936   9.315   5.196 -1.1667  2.3469  2.3955
   71MOL0     H 9785   1.800   9.244   5.387  0.1162 -2.7615  2.4338
   71MOL0     H 9786   2.032   9.135   5.733 -0.5116 -0.1166 -0.6716
   71MOL0     H 9787   1.892   9.258   5.722  4.0222  0.7941  1.3299
   71MOL0     H 9788   1.919   9.106   5.918  2.8503 -1.4007 -2.2828
   71MOL0     H 9789   1.830   8.980   5.825  0.1345 -1.0470 -0.1272
   71MOL0     H 9790   1.688   9.240   5.805  1.8684  1.0254  1.1995
   71MOL0     H 9791   1.632   9.068   5.849  0.6330 -0.9740  0.3391
   71MOL0     H 9792   1.585   9.275   6.005  2.0338  1.1212 -0.0265
   71MOL0     H 9793   1.749   9.225   6.069  0.1617 -1.4428  1.2734
   71MOL0     H 9794   1.544   8.882   6.189  1.2446  1.0048  1.6926
   71MOL0     H 9795   2.148   9.058   5.564  2.0967 -0.3493 -0.0879
   71MOL0     H 9796   2.358   9.140   5.480 -3.6477 -1.0840  0.7800
   71MOL0     H 9797   2.333   9.035   5.333  0.3195 -1.0294 -0.9672
   71MOL0     H 9798   2.379   9.204   5.316 -0.2389  0.9621  0.1586
   72MOL0     O 9799   1.988   5.859   8.925  0.4665 -0.3518 -0.4726
   72MOL0     C 9800   2.111   5.878   8.913 -0.5114 -0.5144  0.6761
   72MOL0     O 9801   2.174   5.855   8.800 -0.0748  0.9831  0.1779
   72MOL0     C 9802   2.107   5.831   8.681  0.3489  0.5606 -0.2639
   72MOL0     C 9803   2.023   5.923   8.608 -0.7882  0.0326  1.0757
   72MOL0     C 9804   1.958   5.880   8.496  0.6536 -0.1375 -0.2119
   72MOL0     C 9805   1.963   5.747   8.459 -0.9750 -0.0022 -0.0893
   72MOL0     O 9806   1.919   5.702   8.335 -0.1279  0.5040  0.2346
   72MOL0     C 9807   1.919   5.785   8.221 -0.1352 -0.2999  0.4518
   72MOL0     C 9808   1.852   5.691   8.114  0.0927 -0.0694  0.8742
   72MOL0     C 9809   1.804   5.776   7.994 -0.3334 -1.1614  0.3790
   72MOL0     C 9810   1.761   5.687   7.876  1.0122 -0.4338  0.0096
   72MOL0     C 9811   1.702   5.775   7.773  0.7395 -0.6155 -0.0121
   72MOL0     C 9812   1.630   5.691   7.669 -0.6178  0.4917  0.1173
   72MOL0     C 9813   1.733   5.623   7.577  0.0090  0.5509 -0.6684
   72MOL0     C 9814   1.665   5.545   7.472  1.2126  1.3281  0.8335
   72MOL0     N 9815   1.602   5.423   7.524  0.4242 -0.9185  0.5559
   72MOL0     C 9816   1.662   5.322   7.593 -0.2511 -0.0966 -0.7417
   72MOL0     C 9817   1.570   5.231   7.616 -0.4232  0.1384 -0.7610
   72MOL0     C 9818   1.594   5.111   7.704  0.7266 -0.1648 -0.6317
   72MOL0     C 9819   1.491   4.992   7.695 -0.6468 -0.8735 -0.5499
   72MOL0     C 9820   1.502   4.923   7.565 -0.6726  0.6754  1.4154
   72MOL0     C 9821   1.407   4.813   7.529 -0.0367  0.9967  0.0836
   72MOL0     O 9822   1.396   4.717   7.634  1.0068 -0.4045 -0.2187
   72MOL0     C 9823   1.343   4.596   7.594  0.3704 -0.1136 -0.3859
   72MOL0     C 9824   1.263   4.579   7.482  0.2207  0.0917  0.3771
   72MOL0     C 9825   1.196   4.461   7.466 -0.9556  0.7571  0.3429
   72MOL0     C 9826   1.097   4.459   7.359  0.6380 -0.0639 -0.0992
   72MOL0     C 9827   1.235   4.347   7.539 -0.8262  0.6134  0.7581
   72MOL0     C 9828   1.171   4.212   7.514 -0.2754  0.5500  0.4910
   72MOL0     O 9829   1.116   4.149   7.623 -0.0503  0.7447  0.6633
   72MOL0     C 9830   1.047   4.035   7.609 -0.4233  0.1560 -1.0085
   72MOL0     C 9831   1.097   3.913   7.555  0.1015 -0.5612  0.0103
   72MOL0     C 9832   1.025   3.796   7.555  0.0810 -0.4919  0.4140
   72MOL0     C 9833   0.897   3.797   7.617  0.3685 -0.1062  0.7447
   72MOL0     O 9834   0.809   3.690   7.632 -0.6262 -0.4928  0.6536
   72MOL0     C 9835   0.833   3.574   7.547  0.3807  0.2841 -0.8683
   72MOL0     C 9836   0.689   3.528   7.518 -0.2801  0.2721  0.4756
   72MOL0     C 9837   0.614   3.630   7.436 -0.4811  0.3270  0.1327
   72MOL0     C 9838   0.523   3.565   7.330  0.1601  0.4484  0.0456
   72MOL0     C 9839   0.457   3.660   7.232 -0.2377  0.8563 -0.7857
   72MOL0     C 9840   0.385   3.581   7.113  0.4798 -0.5523 -0.4103
   72MOL0     C 9841   0.275   3.477   7.146 -0.2748 -0.6216 -0.3128
   72MOL0     C 9842   0.129   3.515   7.108 -0.9947  0.1968 -0.0479
   72MOL0    Cl 9843   0.095   3.691   7.138 -0.1779  0.0006  0.2082
   72MOL0     C 9844   0.858   3.909   7.685  0.7527  0.6533  0.2585
   72MOL0     C 9845   0.926   4.029   7.679  0.2319  0.5129 -0.1298
   72MOL0     O 9846   1.164   4.169   7.400 -0.1237  0.3984 -0.2895
   72MOL0     C 9847   1.330   4.362   7.648 -0.2859  1.3327  0.8165
   72MOL0     C 9848   1.371   4.494   7.674  0.3001  0.3704 -0.5699
   72MOL0     N 9849   1.450   5.267   7.567 -0.7821  0.0961  0.1996
   72MOL0     N 9850   1.473   5.379   7.505 -0.8917 -0.0653  0.2398
   72MOL0     C 9851   2.025   5.654   8.540  0.0615  0.0615 -1.0813
   72MOL0     C 9852   2.095   5.695   8.646 -0.6248 -0.4399 -0.2816
   72MOL0     C 9853   2.194   5.901   9.028  0.0233  0.3072 -0.5115
   72MOL0     C 9854   2.325   5.858   9.036  0.5927  0.2037 -0.5186
   72MOL0     C 9855   2.404   5.864   9.156 -0.2495 -0.1312 -0.4214
   72MOL0     C 9856   2.360   5.932   9.268 -0.5434  0.4808  0.7803
   72MOL0     O 9857   2.432   5.936   9.389 -0.0461 -0.5279  0.4579
   72MOL0     C 9858   2.563   5.998   9.368  0.0826 -0.3235 -0.2918
   72MOL0     C 9859   2.677   5.897   9.360  0.9891 -0.0331 -0.3282
   72MOL0     C 9860   2.664   5.775   9.444  0.5529 -0.8560  0.5855
   72MOL0     C 9861   2.650   5.821   9.588  0.1472 -0.0882  0.2374
   72MOL0     C 9862   2.676   5.710   9.678  0.6685  0.1735 -0.4550
   72MOL0     C 9863   2.687   5.625   9.765  0.6069  0.3712  0.0095
   72MOL0     C 9864   2.232   5.988   9.259 -1.2652 -0.2561  0.3501
   72MOL0     C 9865   2.147   5.966   9.151 -0.0427  0.2918 -0.7090
   72MOL0     C 9866   2.004   6.025   9.171 -0.4393  1.0004  1.2362
   72MOL0     H 9867   2.006   6.026   8.637 -2.5567 -0.4248  1.8088
   72MOL0     H 9868   1.911   5.960   8.439  1.1309  0.5602  0.3561
   72MOL0     H 9869   2.017   5.825   8.193  0.2721  1.4421  3.8093
   72MOL0     H 9870   1.847   5.866   8.238  2.1643  2.0183 -0.2786
   72MOL0     H 9871   1.920   5.609   8.090 -0.4387  0.2522 -2.1305
   72MOL0     H 9872   1.756   5.649   8.146 -2.1671  2.7110 -1.6965
   72MOL0     H 9873   1.728   5.852   8.016  2.8321  1.7055  2.5024
   72MOL0     H 9874   1.873   5.851   7.955  0.3735 -2.1207 -0.2924
   72MOL0     H 9875   1.845   5.633   7.833 -0.2701  0.4991 -4.1124
   72MOL0     H 9876   1.689   5.614   7.916 -0.3167 -1.2967 -3.5806
   72MOL0     H 9877   1.781   5.833   7.725 -1.0184  0.5754 -1.5859
   72MOL0     H 9878   1.624   5.843   7.808  2.0907  1.8223 -1.4265
   72MOL0     H 9879   1.565   5.622   7.722  0.5882  0.8522  2.1659
   72MOL0     H 9880   1.566   5.765   7.619 -1.0726  0.6787  0.9677
   72MOL0     H 9881   1.784   5.557   7.648 -1.5276 -0.3837 -0.3739
   72MOL0     H 9882   1.808   5.682   7.524  1.5614 -0.9186 -0.2088
   72MOL0     H 9883   1.590   5.613   7.432  1.3167  0.9580 -0.0042
   72MOL0     H 9884   1.735   5.516   7.393  0.8509  0.4640  0.8202
   72MOL0     H 9885   1.761   5.318   7.637 -1.1458 -1.5867  1.2578
   72MOL0     H 9886   1.575   5.127   7.810 -1.0772  3.5569 -1.3343
   72MOL0     H 9887   1.693   5.065   7.697  0.9975  0.3111  0.0456
   72MOL0     H 9888   1.510   4.921   7.777 -0.0679  1.5884  1.5779
   72MOL0     H 9889   1.390   5.034   7.701  0.4893  1.8885  0.6603
   72MOL0     H 9890   1.508   4.996   7.484 -2.8841 -1.1556 -0.5439
   72MOL0     H 9891   1.595   4.864   7.560 -0.8880  0.4163 -0.8499
   72MOL0     H 9892   1.312   4.863   7.509  0.4257  1.7683 -0.2477
   72MOL0     H 9893   1.441   4.760   7.440 -0.1647 -1.5844  1.4754
   72MOL0     H 9894   1.250   4.663   7.416 -0.8378 -0.4820 -0.1697
   72MOL0     H 9895   1.135   4.399   7.276 -2.0865 -1.1463 -0.6928
   72MOL0     H 9896   1.068   4.562   7.338 -0.0939 -0.2160  0.1099
   72MOL0     H 9897   1.011   4.410   7.405  0.5568  0.8326  0.7374
   72MOL0     H 9898   1.193   3.920   7.504  0.3195 -0.3405  0.4427
   72MOL0     H 9899   1.054   3.699   7.517 -3.4292 -1.7220  0.4745
   72MOL0     H 9900   0.883   3.593   7.452  2.5291  0.9682  0.3456
   72MOL0     H 9901   0.874   3.490   7.604 -0.7414  0.5737  0.4195
   72MOL0     H 9902   0.704   3.433   7.466 -0.4821  1.5000 -1.9354
   72MOL0     H 9903   0.633   3.517   7.612 -0.5808 -1.6014  0.1233
   72MOL0     H 9904   0.690   3.694   7.390 -0.3762  0.7182  0.8359
   72MOL0     H 9905   0.552   3.698   7.494  1.1279  3.2624 -1.3728
   72MOL0     H 9906   0.450   3.504   7.384  2.7704 -1.6057  1.4812
   72MOL0     H 9907   0.582   3.499   7.265 -2.0796 -1.0212 -0.5958
   72MOL0     H 9908   0.385   3.714   7.294  0.3789  1.1706 -0.3271
   72MOL0     H 9909   0.513   3.746   7.194 -0.1713  0.0024 -2.7446
   72MOL0     H 9910   0.463   3.525   7.061  0.7612 -0.1081 -0.4737
   72MOL0     H 9911   0.331   3.659   7.059  0.4281  1.7307  2.6961
   72MOL0     H 9912   0.279   3.473   7.255  0.4561  3.1380 -0.0457
   72MOL0     H 9913   0.300   3.382   7.099  0.9063 -0.4114 -0.1383
   72MOL0     H 9914   0.068   3.461   7.181 -3.3770  1.0862 -1.2440
   72MOL0     H 9915   0.097   3.488   7.006 -1.8125  1.7127 -0.2306
   72MOL0     H 9916   0.765   3.893   7.741  0.2426 -1.4172 -1.0945
   72MOL0     H 9917   0.884   4.116   7.728  1.4343  0.9771  0.1278
   72MOL0     H 9918   1.357   4.275   7.708  1.3544  2.1717  1.3514
   72MOL0     H 9919   1.442   4.512   7.754  0.9347  0.4217 -1.1348
   72MOL0     H 9920   2.019   5.551   8.507  1.9867  0.2420 -2.1395
   72MOL0     H 9921   2.150   5.623   8.705 -1.1958  0.9600  2.1138
   72MOL0     H 9922   2.362   5.810   8.946 -0.1377 -0.9891 -0.2002
   72MOL0     H 9923   2.500   5.815   9.155  0.5867  1.4328  0.1738
   72MOL0     H 9924   2.559   6.068   9.285 -1.3694 -0.6396 -0.5219
   72MOL0     H 9925   2.590   6.057   9.456  0.9917 -3.2058  1.4940
   72MOL0     H 9926   2.772   5.938   9.396  0.8428  0.3206 -0.3364
   72MOL0     H 9927   2.679   5.859   9.257  1.7403 -1.7153  0.2778
   72MOL0     H 9928   2.569   5.725   9.427 -0.2354  0.4344  1.0402
   72MOL0     H 9929   2.738   5.699   9.416  3.1742  1.3874  0.9264
   72MOL0     H 9930   2.548   5.859   9.590 -0.0156 -0.4820 -0.3520
   72MOL0     H 9931   2.708   5.907   9.623  0.0270  0.1587 -0.1706
   72MOL0     H 9932   2.708   5.552   9.841 -0.6690 -1.5785 -1.3870
   72MOL0     H 9933   2.195   6.032   9.351 -0.2735 -1.7245  1.5016
   72MOL0     H 9934   2.011   6.114   9.234  3.0483  1.6400  0.1581
   72MOL0     H 9935   1.958   6.053   9.076 -0.9527 -2.2654  0.4141
   72MOL0     H 9936   1.943   5.943   9.210 -2.2101 -2.6480 -7.0410
   73MOL0     O 9937   6.734   1.730   6.851  0.4335  0.8161  0.1384
   73MOL0     C 9938   6.838   1.672   6.855 -0.1554  0.0806 -0.2734
   73MOL0     O 9939   6.848   1.539   6.851  0.4129  0.1954  1.0942
   73MOL0     C 9940   6.759   1.455   6.790  0.5813  0.1375 -0.1528
   73MOL0     C 9941   6.783   1.313   6.807  0.4526 -0.8805 -0.3883
   73MOL0     C 9942   6.705   1.218   6.740  1.0743  1.0078 -0.1346
   73MOL0     C 9943   6.607   1.267   6.655  0.4190 -0.6624 -0.1959
   73MOL0     O 9944   6.518   1.190   6.587  1.0238  0.5025  0.3509
   73MOL0     C 9945   6.458   1.081   6.658  0.1809 -0.1155  0.3918
   73MOL0     C 9946   6.343   1.019   6.570  0.8145  0.3391  0.0588
   73MOL0     C 9947   6.234   1.117   6.539  1.0896 -0.4798  0.0753
   73MOL0     C 9948   6.159   1.162   6.666 -0.0433  0.7501  0.6080
   73MOL0     C 9949   6.038   1.238   6.613 -0.4671 -0.6048 -0.3978
   73MOL0     C 9950   5.922   1.146   6.599  0.8117  0.2673  0.3271
   73MOL0     C 9951   5.803   1.213   6.528 -0.8552 -0.1510  0.1026
   73MOL0     C 9952   5.742   1.328   6.596  0.0247 -0.6035 -0.0912
   73MOL0     N 9953   5.804   1.457   6.561 -0.4362 -0.4270 -0.7562
   73MOL0     C 9954   5.807   1.580   6.628 -0.6458 -1.0462 -0.7555
   73MOL0     C 9955   5.824   1.680   6.539 -1.0899  0.3585  0.0912
   73MOL0     C 9956   5.815   1.831   6.550 -0.5224 -0.3961 -1.0212
   73MOL0     C 9957   5.673   1.893   6.509  0.0993 -1.1031  0.6326
   73MOL0     C 9958   5.555   1.827   6.566  0.3816  0.9709 -0.5177
   73MOL0     C 9959   5.558   1.837   6.723  0.0571  0.3159  0.3018
   73MOL0     O 9960   5.512   1.965   6.756  0.6762 -0.1171  0.2016
   73MOL0     C 9961   5.574   2.034   6.859  0.1632 -0.1722 -0.3380
   73MOL0     C 9962   5.582   2.177   6.864 -0.2958 -0.1985 -0.6853
   73MOL0     C 9963   5.626   2.248   6.980 -0.0878  0.4884  0.4704
   73MOL0     C 9964   5.608   2.397   6.961  1.0194 -0.9981  0.6317
   73MOL0     C 9965   5.675   2.174   7.087 -0.4637 -0.0802  0.5179
   73MOL0     C 9966   5.738   2.239   7.203 -0.2737 -0.8457  0.4149
   73MOL0     O 9967   5.671   2.346   7.258 -0.0761  0.6147  0.3014
   73MOL0     C 9968   5.732   2.427   7.356  0.4057  0.0369  0.2310
   73MOL0     C 9969   5.713   2.558   7.322  0.3621 -0.2386 -0.5858
   73MOL0     C 9970   5.742   2.654   7.418 -0.6193 -0.0488  0.5570
   73MOL0     C 9971   5.810   2.624   7.538 -0.5487 -0.3478 -0.1225
   73MOL0     O 9972   5.863   2.720   7.624  0.0652  0.8628 -0.3595
   73MOL0     C 9973   5.791   2.730   7.750  0.0279  0.2164 -0.7420
   73MOL0     C 9974   5.849   2.842   7.845  0.3649 -0.7520 -0.0138
   73MOL0     C 9975   5.810   2.982   7.795  0.0455  0.0259  0.9017
   73MOL0     C 9976   5.681   3.039   7.867  0.0709 -0.5218 -0.7140
   73MOL0     C 9977   5.701   3.122   7.998 -0.2334  0.9044  0.0652
   73MOL0     C 9978   5.795   3.232   7.989  0.3194  0.0701  0.0858
   73MOL0     C 9979   5.788   3.318   8.119  0.5737 -0.0689  0.1291
   73MOL0     C 9980   5.891   3.428   8.111  0.5657  0.3489 -0.6332
   73MOL0    Cl 9981   5.901   3.514   7.945 -0.4743  0.0803 -0.2005
   73MOL0     C 9982   5.839   2.486   7.569 -0.0807  0.3834 -0.1708
   73MOL0     C 9983   5.801   2.393   7.473  0.1465 -0.0180  0.4518
   73MOL0     O 9984   5.841   2.193   7.250 -0.3496 -0.2964 -0.2905
   73MOL0     C 9985   5.673   2.036   7.086  0.2628 -0.1179 -0.6204
   73MOL0     C 9986   5.626   1.967   6.975  0.4833 -0.5169  0.4141
   73MOL0     N 9987   5.840   1.619   6.414 -0.1994 -0.0584  0.2872
   73MOL0     N 9988   5.821   1.491   6.428 -0.4690 -0.2875  0.0387
   73MOL0     C 9989   6.592   1.404   6.634  0.1393  0.2268 -0.2834
   73MOL0     C 9990   6.668   1.500   6.704  0.2665  0.9626  0.6432
   73MOL0     C 9991   6.957   1.752   6.882 -0.2554 -0.6936  1.2031
   73MOL0     C 9992   7.046   1.778   6.780 -0.4270  0.8304  0.4134
   73MOL0     C 9993   7.153   1.872   6.789 -0.4705 -0.2295  0.6432
   73MOL0     C 9994   7.156   1.964   6.900  0.4013  0.4963  0.1915
   73MOL0     O 9995   7.245   2.060   6.932  0.0933  0.5541 -0.0547
   73MOL0     C 9996   7.354   2.086   6.852 -0.4302 -0.5317  0.2796
   73MOL0     C 9997   7.419   2.221   6.887  0.6046 -0.2258 -0.6535
   73MOL0     C 9998   7.565   2.229   6.828 -0.2679 -1.2005 -0.1287
   73MOL0     C 9999   7.641   2.353   6.870  1.0665 -0.1807  0.4904
   73MOL0     C10000   7.660   2.368   7.015  0.7907 -0.6820 -0.2780
   73MOL0     C10001   7.648   2.371   7.136 -0.2565  0.0823  0.0659
   73MOL0     C10002   7.054   1.949   6.994  0.2207 -0.6444 -0.4580
   73MOL0     C10003   6.967   1.835   6.991  0.2744  0.6294  0.1022
   73MOL0     C10004   6.882   1.831   7.113  0.2151  0.2149 -0.1158
   73MOL0     H10005   6.865   1.287   6.872  0.7367  1.1838  0.1574
   73MOL0     H10006   6.719   1.112   6.752 -2.5002  0.6260  2.5700
   73MOL0     H10007   6.438   1.121   6.758  2.5287 -0.1805  0.9581
   73MOL0     H10008   6.529   0.998   6.660  0.0550 -0.2692  3.2610
   73MOL0     H10009   6.385   0.988   6.474 -0.2963  0.1647 -0.3819
   73MOL0     H10010   6.293   0.929   6.607  0.5817  0.7163  0.6727
   73MOL0     H10011   6.270   1.207   6.487 -0.7177 -0.8088 -1.8737
   73MOL0     H10012   6.167   1.056   6.479  1.7697 -2.2428  1.0498
   73MOL0     H10013   6.139   1.078   6.732 -2.0233  0.8450  0.1989
   73MOL0     H10014   6.232   1.223   6.720  0.9687  1.0539 -1.0146
   73MOL0     H10015   6.059   1.275   6.512 -0.5641 -2.1371 -1.0171
   73MOL0     H10016   6.013   1.312   6.689 -2.6413  0.2497 -1.8426
   73MOL0     H10017   5.953   1.061   6.539  2.4091  0.9216  0.1987
   73MOL0     H10018   5.892   1.119   6.701  2.0591 -0.3916  0.5383
   73MOL0     H10019   5.721   1.141   6.523 -2.5935  1.7800 -1.0311
   73MOL0     H10020   5.842   1.234   6.428 -0.4996 -1.2122  0.0064
   73MOL0     H10021   5.635   1.330   6.574 -0.2467  1.1706  1.0854
   73MOL0     H10022   5.760   1.313   6.703 -0.6041  0.3931  0.1750
   73MOL0     H10023   5.783   1.580   6.733 -1.1633  3.7151 -0.6443
   73MOL0     H10024   5.899   1.878   6.498 -0.9620  0.6040 -0.8625
   73MOL0     H10025   5.836   1.852   6.656  0.5400  2.3518 -1.6973
   73MOL0     H10026   5.677   1.997   6.542  0.0897 -1.2994  1.2714
   73MOL0     H10027   5.671   1.883   6.400  0.2681  0.0053  0.5164
   73MOL0     H10028   5.459   1.871   6.534  0.0359 -0.8503 -2.1631
   73MOL0     H10029   5.551   1.723   6.533 -1.4469  0.7204  0.3372
   73MOL0     H10030   5.482   1.765   6.756 -3.5862  2.0804 -3.3734
   73MOL0     H10031   5.658   1.816   6.763 -0.0669  1.9111  1.5378
   73MOL0     H10032   5.552   2.229   6.774  0.8108 -0.8239 -1.4402
   73MOL0     H10033   5.553   2.425   6.871 -1.4436  1.4638  2.6829
   73MOL0     H10034   5.700   2.455   6.962 -0.7541  2.2352 -2.3949
   73MOL0     H10035   5.552   2.433   7.048  3.0957 -1.7961  2.3999
   73MOL0     H10036   5.662   2.580   7.229  0.3033 -0.3898 -0.5891
   73MOL0     H10037   5.709   2.757   7.411  3.0354  1.3028  1.3346
   73MOL0     H10038   5.684   2.734   7.725 -0.4188  0.4171  1.0830
   73MOL0     H10039   5.792   2.633   7.800 -7.8795  0.1736  0.6316
   73MOL0     H10040   5.802   2.843   7.944 -0.9813  0.6833 -0.6259
   73MOL0     H10041   5.958   2.837   7.847  0.5200  0.2980 -2.3836
   73MOL0     H10042   5.798   2.993   7.686 -1.8302 -1.5741  0.9018
   73MOL0     H10043   5.896   3.047   7.817  0.0189  0.6704 -0.7504
   73MOL0     H10044   5.606   2.963   7.892 -0.2795  0.2125  0.5653
   73MOL0     H10045   5.632   3.095   7.786  0.4465 -1.9978 -2.0226
   73MOL0     H10046   5.604   3.150   8.039 -0.9651 -2.5606  1.0273
   73MOL0     H10047   5.735   3.052   8.075 -3.9181 -0.5787  0.5237
   73MOL0     H10048   5.761   3.289   7.903 -1.8123  1.5677  1.8363
   73MOL0     H10049   5.899   3.200   7.976 -0.3437 -2.5973  0.7105
   73MOL0     H10050   5.800   3.247   8.201  1.1311 -0.1672 -0.0280
   73MOL0     H10051   5.685   3.355   8.114  0.1997 -1.1793 -1.9894
   73MOL0     H10052   5.986   3.380   8.138 -0.7729 -2.9051 -1.3058
   73MOL0     H10053   5.863   3.512   8.176  2.1726  0.0990  0.4424
   73MOL0     H10054   5.880   2.455   7.664 -0.8798  0.3409  0.1699
   73MOL0     H10055   5.806   2.284   7.475 -3.0715 -0.3502 -1.4565
   73MOL0     H10056   5.708   1.980   7.172  0.0783 -1.5950 -1.4859
   73MOL0     H10057   5.630   1.859   6.970 -1.2477 -0.5727 -1.7689
   73MOL0     H10058   6.518   1.442   6.563 -0.5081 -1.2242 -0.4070
   73MOL0     H10059   6.657   1.603   6.673  2.0944  0.5782 -1.5510
   73MOL0     H10060   7.048   1.716   6.691  0.6250  4.1419 -2.1016
   73MOL0     H10061   7.234   1.891   6.720 -1.6914  1.6341 -0.3529
   73MOL0     H10062   7.425   2.003   6.864 -0.2737 -0.8810 -2.3956
   73MOL0     H10063   7.340   2.080   6.744  1.2685 -1.8524  0.0773
   73MOL0     H10064   7.428   2.213   6.996  2.3229 -3.3594 -0.9047
   73MOL0     H10065   7.357   2.306   6.857 -1.9981 -0.6324  2.9693
   73MOL0     H10066   7.623   2.143   6.862  4.4651  1.1224 -1.4429
   73MOL0     H10067   7.558   2.229   6.719  3.6017  0.7815 -0.5411
   73MOL0     H10068   7.595   2.440   6.822  0.7998  0.2866  1.5600
   73MOL0     H10069   7.742   2.353   6.829  0.8471 -0.2464 -0.0734
   73MOL0     H10070   7.633   2.377   7.242 -1.5242 -0.4339 -0.0725
   73MOL0     H10071   7.055   2.014   7.080  3.7524  0.1262 -0.9433
   73MOL0     H10072   6.824   1.924   7.113  1.0525  0.7573 -1.1557
   73MOL0     H10073   6.819   1.741   7.120  2.2297 -1.1940  1.1346
   73MOL0     H10074   6.948   1.832   7.199  0.9202 -1.0837 -0.6131
   74MOL0     O10075   5.671   4.797   7.762  0.4083 -0.0554 -0.3611
   74MOL0     C10076   5.586   4.887   7.761 -0.6021  0.2415  0.1383
   74MOL0     O10077   5.546   4.967   7.869  0.9018  0.2239  0.1463
   74MOL0     C10078   5.621   4.980   7.985  0.6692  0.1543 -0.0814
   74MOL0     C10079   5.669   4.884   8.072  1.0191 -0.3744  0.6870
   74MOL0     C10080   5.761   4.910   8.173 -0.2533 -0.4669 -0.9065
   74MOL0     C10081   5.818   5.035   8.188  0.2231  0.4131  0.4201
   74MOL0     O10082   5.922   5.067   8.278  0.2499 -0.0168 -0.2139
   74MOL0     C10083   5.975   4.961   8.362  0.4383 -0.4063 -0.0964
   74MOL0     C10084   6.111   5.006   8.421  0.0493  0.8281  0.4113
   74MOL0     C10085   6.098   5.113   8.524  0.7075  0.6402  0.6225
   74MOL0     C10086   6.236   5.167   8.554 -1.2431  0.5114 -0.6381
   74MOL0     C10087   6.225   5.305   8.622 -0.4908  0.2856 -0.4213
   74MOL0     C10088   6.124   5.312   8.732 -0.1069  0.4353 -0.3264
   74MOL0     C10089   6.121   5.450   8.785 -0.5893  0.2167  0.3480
   74MOL0     C10090   6.042   5.439   8.919 -0.8569 -0.3250 -0.0130
   74MOL0     N10091   6.018   5.570   8.981 -0.2024 -0.2763  0.1591
   74MOL0     C10092   5.903   5.651   8.963 -1.1292  0.4601 -0.9417
   74MOL0     C10093   5.927   5.760   9.042 -0.5290  0.7793  0.2122
   74MOL0     C10094   5.831   5.872   9.061 -0.5790  0.2916 -0.3257
   74MOL0     C10095   5.749   5.907   8.938  0.0715  0.2292 -0.2594
   74MOL0     C10096   5.829   5.916   8.808 -0.0061  0.5228  0.3545
   74MOL0     C10097   5.966   5.992   8.811 -0.3128 -0.5430  0.5794
   74MOL0     O10098   5.944   6.130   8.851  0.1025 -0.7792 -0.1219
   74MOL0     C10099   5.968   6.215   8.754  0.0745 -0.8622 -0.1854
   74MOL0     C10100   6.092   6.269   8.757 -0.4517 -0.1053 -0.1458
   74MOL0     C10101   6.142   6.354   8.655 -0.0046  1.2248  0.0527
   74MOL0     C10102   6.281   6.420   8.666  0.0207  1.3179 -1.1802
   74MOL0     C10103   6.055   6.386   8.549 -0.4731 -0.1887  0.0968
   74MOL0     C10104   6.091   6.483   8.434  0.8012 -0.1316  0.3137
   74MOL0     O10105   6.023   6.463   8.316  0.3540  0.5272 -0.4475
   74MOL0     C10106   6.096   6.502   8.203  0.9840  0.5216 -0.3784
   74MOL0     C10107   6.227   6.469   8.163  0.9149  0.2602  0.1207
   74MOL0     C10108   6.288   6.529   8.056 -0.0187  1.2298 -0.4603
   74MOL0     C10109   6.219   6.623   7.978 -0.4072 -0.6876  1.5134
   74MOL0     O10110   6.295   6.678   7.877  0.3205  0.1779 -0.2519
   74MOL0     C10111   6.239   6.773   7.778  0.9055  1.0215  0.0951
   74MOL0     C10112   6.358   6.823   7.693  1.4101  0.7093  0.9492
   74MOL0     C10113   6.428   6.716   7.615  0.3036 -0.3171  0.3314
   74MOL0     C10114   6.346   6.656   7.499 -0.1639 -0.2204 -0.7772
   74MOL0     C10115   6.405   6.523   7.425  0.1880 -0.3873 -0.1942
   74MOL0     C10116   6.323   6.473   7.307  0.3622  0.2386 -0.0653
   74MOL0     C10117   6.195   6.415   7.359  0.0111  0.4762  0.8065
   74MOL0     C10118   6.117   6.348   7.240  0.0047  1.0278 -0.5546
   74MOL0    Cl10119   6.053   6.470   7.133 -0.4132 -0.4453  0.0852
   74MOL0     C10120   6.081   6.650   8.006  0.0976  0.1113 -0.5303
   74MOL0     C10121   6.035   6.595   8.126 -0.6608 -0.3784  0.4146
   74MOL0     O10122   6.173   6.577   8.451  0.1986  0.5184  0.2492
   74MOL0     C10123   5.930   6.319   8.538 -1.1116  0.1435 -0.4759
   74MOL0     C10124   5.886   6.232   8.642  0.6677 -0.5125  0.0110
   74MOL0     N10125   6.056   5.748   9.095  0.0405 -0.3022  0.0423
   74MOL0     N10126   6.105   5.634   9.062  0.3100 -0.2095  1.2648
   74MOL0     C10127   5.773   5.126   8.103  0.4076 -0.4558 -0.0397
   74MOL0     C10128   5.670   5.108   8.006  0.7772 -0.1956 -0.2589
   74MOL0     C10129   5.512   4.900   7.639 -0.2830 -0.0363 -0.5436
   74MOL0     C10130   5.457   4.775   7.585 -0.2012 -0.7348  0.2584
   74MOL0     C10131   5.363   4.784   7.478 -0.5205  0.8771 -0.5028
   74MOL0     C10132   5.323   4.903   7.425  0.1170 -0.0690  1.6114
   74MOL0     O10133   5.228   4.919   7.329 -0.3183  0.6041 -0.2388
   74MOL0     C10134   5.164   4.809   7.265 -0.3508 -0.7166  0.3152
   74MOL0     C10135   5.064   4.737   7.358 -0.2226  0.3401 -0.1130
   74MOL0     C10136   4.971   4.629   7.294  0.1169  0.6081  0.4099
   74MOL0     C10137   4.877   4.578   7.395 -0.2765  0.0163 -0.6996
   74MOL0     C10138   4.807   4.474   7.332  1.0070  0.7299  0.4983
   74MOL0     C10139   4.725   4.397   7.282  0.1817  0.7253 -0.3112
   74MOL0     C10140   5.395   5.023   7.458 -0.3357  0.5630  0.0846
   74MOL0     C10141   5.486   5.017   7.567  0.4738 -0.6474  0.9711
   74MOL0     C10142   5.559   5.148   7.607  0.0911  0.1579  0.4791
   74MOL0     H10143   5.644   4.780   8.051  1.6073 -0.3073 -0.4622
   74MOL0     H10144   5.788   4.827   8.238  0.0108  1.2543  1.3158
   74MOL0     H10145   5.993   4.881   8.290 -1.9117  0.8777 -2.2704
   74MOL0     H10146   5.913   4.933   8.447  1.5488 -0.0053  0.8809
   74MOL0     H10147   6.138   4.911   8.468  2.1909  1.8252  1.3245
   74MOL0     H10148   6.191   5.031   8.350  0.5352  3.5651  1.8259
   74MOL0     H10149   6.034   5.190   8.480  0.9670  1.2851  1.3345
   74MOL0     H10150   6.052   5.077   8.617  2.3430 -2.3901  0.3937
   74MOL0     H10151   6.282   5.098   8.625 -2.9064  2.2411  2.3171
   74MOL0     H10152   6.298   5.179   8.464 -0.3823  0.0919 -0.1123
   74MOL0     H10153   6.196   5.367   8.536  2.4824  2.3489 -0.1065
   74MOL0     H10154   6.320   5.347   8.658 -1.0398  2.0001 -0.8428
   74MOL0     H10155   6.027   5.270   8.705  0.5709 -0.8621 -0.8281
   74MOL0     H10156   6.151   5.240   8.810 -1.0660  0.7788  0.3392
   74MOL0     H10157   6.076   5.527   8.721 -0.4476 -1.3218 -1.6886
   74MOL0     H10158   6.221   5.493   8.801 -0.1853 -1.0978  1.5456
   74MOL0     H10159   5.948   5.384   8.913 -0.4615 -0.8981 -1.4742
   74MOL0     H10160   6.101   5.378   8.988 -0.2134  0.1310 -0.1503
   74MOL0     H10161   5.815   5.614   8.911 -3.2651  0.2298  2.5453
   74MOL0     H10162   5.885   5.958   9.101  1.4558 -1.0583  0.0083
   74MOL0     H10163   5.761   5.836   9.137 -0.1157  0.5909  0.2526
   74MOL0     H10164   5.676   5.826   8.934  1.8230 -1.4275 -0.5087
   74MOL0     H10165   5.704   6.006   8.949 -0.7087 -0.2228  0.8109
   74MOL0     H10166   5.850   5.810   8.785 -4.3313  0.1133 -2.9540
   74MOL0     H10167   5.774   5.952   8.721  0.1425 -0.2147 -0.0551
   74MOL0     H10168   6.037   5.958   8.887 -0.9484  0.2478  1.5593
   74MOL0     H10169   6.021   5.981   8.717 -1.2515 -1.5810  0.1296
   74MOL0     H10170   6.157   6.247   8.841 -1.0500 -1.3041  0.0115
   74MOL0     H10171   6.275   6.497   8.743  0.8000 -0.7499  1.0826
   74MOL0     H10172   6.324   6.445   8.569  2.4548  1.0358 -0.2421
   74MOL0     H10173   6.357   6.355   8.711  0.0039  2.6795  0.9107
   74MOL0     H10174   6.278   6.400   8.229  1.0078 -1.4982 -1.7101
   74MOL0     H10175   6.392   6.505   8.041 -0.1311  1.7180 -2.1479
   74MOL0     H10176   6.158   6.732   7.716  1.0712  2.5911 -1.2294
   74MOL0     H10177   6.193   6.860   7.826  1.6347  2.6381 -1.9881
   74MOL0     H10178   6.326   6.897   7.619 -1.2848 -0.2560  1.0459
   74MOL0     H10179   6.423   6.866   7.769  0.5582  0.1688  2.0118
   74MOL0     H10180   6.453   6.631   7.679 -1.2202  1.1625  3.0752
   74MOL0     H10181   6.523   6.753   7.574  0.1684 -0.6702 -0.3065
   74MOL0     H10182   6.339   6.747   7.439 -0.9687  1.2714  1.4869
   74MOL0     H10183   6.241   6.634   7.522 -1.2015  3.2588 -1.6522
   74MOL0     H10184   6.503   6.551   7.385  1.0351 -0.8425  1.5037
   74MOL0     H10185   6.433   6.449   7.500  3.3165  0.9246  0.0834
   74MOL0     H10186   6.387   6.409   7.245 -1.2881 -0.3814 -1.2056
   74MOL0     H10187   6.304   6.559   7.243 -0.8295 -0.7419 -1.0773
   74MOL0     H10188   6.125   6.491   7.394 -0.0350  0.3602  0.9673
   74MOL0     H10189   6.210   6.339   7.437 -1.8054 -1.1249 -0.3122
   74MOL0     H10190   6.034   6.294   7.287  0.9872  0.2843  0.3944
   74MOL0     H10191   6.172   6.274   7.181 -0.1279  1.4045 -1.1557
   74MOL0     H10192   6.027   6.726   7.949 -3.7620 -2.4022 -0.5679
   74MOL0     H10193   5.933   6.631   8.140 -1.5170 -2.7255  0.6622
   74MOL0     H10194   5.870   6.348   8.453 -0.7417 -0.2593 -0.8741
   74MOL0     H10195   5.789   6.187   8.625 -1.5345  2.9467  2.1038
   74MOL0     H10196   5.823   5.222   8.106  0.6593 -0.5264 -1.3317
   74MOL0     H10197   5.619   5.180   7.942  0.0228  0.6978  1.2828
   74MOL0     H10198   5.494   4.683   7.631 -1.4554 -0.7839  1.2244
   74MOL0     H10199   5.321   4.687   7.456  0.4252  0.5246 -0.8051
   74MOL0     H10200   5.106   4.847   7.181  1.2885 -0.6366 -0.8275
   74MOL0     H10201   5.244   4.747   7.224  1.0728 -0.3728  2.3596
   74MOL0     H10202   5.009   4.820   7.404  0.2503  0.5192  0.1255
   74MOL0     H10203   5.114   4.688   7.442  0.3966  4.4781  2.2115
   74MOL0     H10204   4.915   4.662   7.206 -0.7353 -1.6875  0.0379
   74MOL0     H10205   5.027   4.544   7.257  1.7331  0.7094  2.4184
   74MOL0     H10206   4.809   4.654   7.434  0.7834  0.3477  0.5539
   74MOL0     H10207   4.941   4.542   7.476 -1.0742 -1.6405 -0.7530
   74MOL0     H10208   4.643   4.340   7.242  0.7177 -0.0241 -0.3523
   74MOL0     H10209   5.369   5.120   7.417 -2.1504  0.7708  1.6301
   74MOL0     H10210   5.488   5.226   7.579  0.8462  0.8158  0.3385
   74MOL0     H10211   5.581   5.152   7.714  0.5088  0.7302  0.3809
   74MOL0     H10212   5.646   5.177   7.547 -0.0019 -0.0854  0.2256
   75MOL0     O10213   8.682  10.135   3.600  0.4033 -0.2171 -0.6426
   75MOL0     C10214   8.759  10.222   3.633 -0.5250  0.1652 -0.0003
   75MOL0     O10215   8.818  10.239   3.748 -0.0903 -0.3420 -0.3920
   75MOL0     C10216   8.784  10.166   3.860 -0.6624 -0.9049  0.1429
   75MOL0     C10217   8.671  10.103   3.889 -0.1762  0.2676  0.3543
   75MOL0     C10218   8.672  10.042   4.011  0.1394 -0.7545 -0.7240
   75MOL0     C10219   8.760  10.053   4.116  0.3826  0.9247  0.6234
   75MOL0     O10220   8.727   9.988   4.234 -0.3948 -0.4703 -0.3666
   75MOL0     C10221   8.845   9.931   4.285 -0.9360  0.1416 -0.1122
   75MOL0     C10222   8.814   9.821   4.392  0.6971 -0.3353  0.2271
   75MOL0     C10223   8.730   9.871   4.508  0.0361  0.4889  1.1485
   75MOL0     C10224   8.720   9.768   4.624  0.0171 -0.5097 -0.8322
   75MOL0     C10225   8.625   9.644   4.591  0.9974 -0.4928 -0.1301
   75MOL0     C10226   8.614   9.554   4.714  0.6221  0.6965  0.3135
   75MOL0     C10227   8.533   9.421   4.688 -0.2146  0.3618  0.2049
   75MOL0     C10228   8.585   9.332   4.566  0.2218  0.6021  0.6497
   75MOL0     N10229   8.522   9.197   4.575  0.2471  0.3266 -0.3962
   75MOL0     C10230   8.594   9.079   4.600 -0.8725 -0.4829 -1.3026
   75MOL0     C10231   8.500   8.981   4.586 -0.4914 -0.5872 -0.3480
   75MOL0     C10232   8.529   8.830   4.597 -0.4118 -0.5792 -0.2574
   75MOL0     C10233   8.611   8.767   4.480 -0.5405 -0.4651  0.8078
   75MOL0     C10234   8.621   8.616   4.484  1.1356 -0.3264  0.1932
   75MOL0     C10235   8.718   8.578   4.591 -0.0766 -0.1607 -1.0246
   75MOL0     O10236   8.663   8.464   4.662 -0.7298 -0.1800 -0.8079
   75MOL0     C10237   8.697   8.334   4.638 -0.3196  0.0368  0.1008
   75MOL0     C10238   8.637   8.250   4.728 -0.7725  0.5262  0.0945
   75MOL0     C10239   8.657   8.109   4.710 -0.0342  0.0009  0.8564
   75MOL0     C10240   8.612   8.022   4.832  0.9304  0.7531  0.2797
   75MOL0     C10241   8.742   8.057   4.609 -1.0166 -1.2410  0.2073
   75MOL0     C10242   8.773   7.920   4.581  0.0731  0.3507 -0.0457
   75MOL0     O10243   8.897   7.898   4.524 -0.6127 -0.2361  0.5643
   75MOL0     C10244   8.944   7.770   4.556  0.3921 -1.3057 -0.0069
   75MOL0     C10245   8.990   7.685   4.460 -0.2007  0.1369  0.4902
   75MOL0     C10246   9.042   7.552   4.488 -0.3082 -0.6744  0.4354
   75MOL0     C10247   9.042   7.509   4.618 -0.1140 -0.8186 -0.2879
   75MOL0     O10248   9.075   7.390   4.668  0.2861  0.2816  0.2563
   75MOL0     C10249   9.051   7.273   4.578 -0.1279  0.5932  0.5976
   75MOL0     C10250   9.092   7.157   4.664 -0.2756  0.4964  0.6768
   75MOL0     C10251   8.999   7.141   4.789  0.5704  0.2233 -0.3716
   75MOL0     C10252   9.048   7.026   4.880  0.1990 -0.1615 -0.6184
   75MOL0     C10253   8.944   7.003   4.997 -0.7251  0.5626  0.1957
   75MOL0     C10254   9.006   6.927   5.118 -0.5706 -0.2691  0.3403
   75MOL0     C10255   8.911   6.897   5.244  0.3450  0.0979 -0.4545
   75MOL0     C10256   8.966   6.798   5.349  0.8065  0.0486  0.6932
   75MOL0    Cl10257   8.989   6.636   5.266 -0.1182  0.7419 -0.7440
   75MOL0     C10258   8.995   7.593   4.717  0.0589 -0.7407 -0.6684
   75MOL0     C10259   8.947   7.725   4.689  0.0212 -0.1057  0.4030
   75MOL0     O10260   8.692   7.836   4.622  0.3169  0.3698  0.7428
   75MOL0     C10261   8.794   8.154   4.517  0.3542 -1.0174 -0.2981
   75MOL0     C10262   8.773   8.293   4.533  0.0893  0.1595 -0.7203
   75MOL0     N10263   8.381   9.032   4.546  0.6170  0.1289 -0.5726
   75MOL0     N10264   8.393   9.164   4.549  0.0867 -0.4470 -0.2991
   75MOL0     C10265   8.878  10.121   4.089 -0.1104  0.1404  0.5344
   75MOL0     C10266   8.887  10.171   3.956  0.1234 -0.4575  0.3058
   75MOL0     C10267   8.792  10.319   3.523  0.7888  0.2601 -0.7075
   75MOL0     C10268   8.686  10.359   3.447  0.0764 -0.9208 -0.2552
   75MOL0     C10269   8.705  10.450   3.346 -0.0810 -0.6765  0.4398
   75MOL0     C10270   8.824  10.515   3.317 -0.2943  0.0730  0.7331
   75MOL0     O10271   8.823  10.594   3.201 -0.1764 -0.3008  0.4855
   75MOL0     C10272   8.944  10.660   3.169 -0.4257  0.8160 -0.8119
   75MOL0     C10273   8.926  10.740   3.044 -0.7514 -0.1825 -0.1594
   75MOL0     C10274   8.959  10.661   2.913  0.4458 -0.3362  0.1452
   75MOL0     C10275   8.939  10.742   2.784  0.0406  0.4206  0.5410
   75MOL0     C10276   8.937  10.649   2.672 -0.2036  0.7759  0.1377
   75MOL0     C10277   8.931  10.579   2.571  0.5414 -0.0838  0.3659
   75MOL0     C10278   8.934  10.479   3.402  1.0157 -0.0171  0.0853
   75MOL0     C10279   8.921  10.382   3.509 -0.4024 -0.7105  0.1828
   75MOL0     C10280   9.050  10.331   3.586 -0.5078 -0.1099  0.5942
   75MOL0     H10281   8.586  10.095   3.822 -0.4373 -0.5674  0.7748
   75MOL0     H10282   8.578   9.992   4.031 -0.3338  0.7851  1.2053
   75MOL0     H10283   8.907  10.005   4.337  0.7774 -1.7832  0.6918
   75MOL0     H10284   8.904   9.898   4.199 -4.0654  1.9936 -3.2606
   75MOL0     H10285   8.752   9.755   4.331  0.1939 -0.5413  0.9498
   75MOL0     H10286   8.905   9.766   4.419 -2.6175 -4.5614  4.4792
   75MOL0     H10287   8.769   9.968   4.541  0.7254  2.3399 -4.2351
   75MOL0     H10288   8.628   9.894   4.475  0.1885 -0.8212 -0.3695
   75MOL0     H10289   8.819   9.739   4.660  0.8711  2.7503 -0.2151
   75MOL0     H10290   8.671   9.815   4.709 -1.1482 -1.0768 -1.1677
   75MOL0     H10291   8.668   9.578   4.515 -0.8295 -2.1802  0.2115
   75MOL0     H10292   8.525   9.668   4.555  1.9306  0.4954 -2.2060
   75MOL0     H10293   8.719   9.535   4.740  0.4585 -3.3184 -1.2895
   75MOL0     H10294   8.557   9.600   4.795 -2.3338 -1.8672 -0.1433
   75MOL0     H10295   8.426   9.443   4.685 -0.1512  0.7959  0.9683
   75MOL0     H10296   8.551   9.367   4.781  1.1352 -1.0525 -0.8341
   75MOL0     H10297   8.543   9.370   4.472  0.2679 -1.7943 -0.4047
   75MOL0     H10298   8.695   9.329   4.565  0.2187 -1.5685  1.6596
   75MOL0     H10299   8.701   9.076   4.618 -1.3612 -1.8663  2.1931
   75MOL0     H10300   8.436   8.773   4.607 -0.1391 -0.6147  2.8983
   75MOL0     H10301   8.578   8.800   4.690  1.8599  2.0948 -0.4876
   75MOL0     H10302   8.572   8.797   4.382 -3.1872 -1.5247  1.4518
   75MOL0     H10303   8.714   8.802   4.489 -0.3594 -1.1287  1.4374
   75MOL0     H10304   8.520   8.585   4.509  0.6928  0.9670  0.1123
   75MOL0     H10305   8.656   8.580   4.387 -0.4740  3.2505 -1.9194
   75MOL0     H10306   8.816   8.569   4.544  0.1993  1.7470 -0.8714
   75MOL0     H10307   8.733   8.657   4.664 -0.3037 -1.4505  0.4690
   75MOL0     H10308   8.576   8.296   4.805 -0.7452 -2.1080  1.8044
   75MOL0     H10309   8.538   7.953   4.788  0.7221  0.9749  0.2783
   75MOL0     H10310   8.561   8.078   4.911 -1.0104 -0.0490 -0.3435
   75MOL0     H10311   8.691   7.958   4.872 -0.9873 -0.4191  2.4543
   75MOL0     H10312   9.006   7.719   4.359 -1.1452 -3.1030 -0.8737
   75MOL0     H10313   9.089   7.493   4.410  1.5066  1.5465 -0.2644
   75MOL0     H10314   8.944   7.265   4.556  0.3180 -0.1454 -1.5536
   75MOL0     H10315   9.098   7.283   4.480 -0.3905  0.5036  0.4630
   75MOL0     H10316   9.074   7.060   4.617 -2.9333  0.4523  1.5999
   75MOL0     H10317   9.199   7.168   4.685 -0.1616 -2.2601  2.1090
   75MOL0     H10318   8.896   7.121   4.760  0.2925 -3.0655  2.2023
   75MOL0     H10319   9.001   7.236   4.843 -0.1013  0.4428 -0.7331
   75MOL0     H10320   9.148   7.047   4.919 -0.0717 -0.8130  0.4853
   75MOL0     H10321   9.043   6.933   4.823  1.8716  0.5977 -2.0966
   75MOL0     H10322   8.895   7.092   5.036  1.1262  0.6790  2.4654
   75MOL0     H10323   8.868   6.939   4.950 -1.3685  2.6131 -1.7213
   75MOL0     H10324   9.091   6.990   5.147 -1.0037  0.9548 -0.9793
   75MOL0     H10325   9.042   6.829   5.083 -1.0509  0.1514 -1.3960
   75MOL0     H10326   8.818   6.852   5.209  0.4843 -4.3549  3.8953
   75MOL0     H10327   8.900   6.992   5.297  0.6455  1.8382 -3.2417
   75MOL0     H10328   8.901   6.789   5.436  2.3092  2.2281  2.1375
   75MOL0     H10329   9.059   6.831   5.396  0.9837  0.0695  0.3338
   75MOL0     H10330   8.993   7.555   4.819  0.2634 -0.8572 -0.7067
   75MOL0     H10331   8.912   7.792   4.768  1.4584  1.5615 -0.3161
   75MOL0     H10332   8.848   8.129   4.426  0.8483  1.3738 -0.7221
   75MOL0     H10333   8.811   8.352   4.450 -0.2134 -0.5211 -1.3467
   75MOL0     H10334   8.958  10.136   4.161  0.9374  0.7158 -0.6892
   75MOL0     H10335   8.979  10.222   3.930 -0.8616  0.8721 -0.7163
   75MOL0     H10336   8.584  10.322   3.451 -0.4430 -0.3909 -4.3333
   75MOL0     H10337   8.616  10.482   3.292  0.1149  1.9682  1.5300
   75MOL0     H10338   8.987  10.716   3.253  3.0876 -1.6650 -0.6796
   75MOL0     H10339   9.013  10.579   3.143  1.4100  2.5450 -1.5557
   75MOL0     H10340   8.996  10.823   3.057 -0.6107 -0.2178 -0.6964
   75MOL0     H10341   8.825  10.780   3.035 -1.1826 -0.9674  1.0024
   75MOL0     H10342   9.062  10.624   2.905  1.4064  1.8284  1.5002
   75MOL0     H10343   8.890  10.577   2.923 -2.4834  1.6559 -1.6651
   75MOL0     H10344   9.026  10.808   2.786  2.6718 -2.8096  1.8971
   75MOL0     H10345   8.852  10.808   2.792  1.0001  1.9866 -1.1693
   75MOL0     H10346   8.915  10.510   2.490  0.0273  2.3465 -1.7668
   75MOL0     H10347   9.032  10.525   3.392  2.7978 -2.8407  2.8400
   75MOL0     H10348   9.132  10.395   3.551 -0.9938  0.5533  0.6545
   75MOL0     H10349   9.048  10.321   3.695  1.1998 -2.9484  0.4666
   75MOL0     H10350   9.068  10.235   3.537  2.4977  0.5521  0.2068
   76MOL0     O10351   0.676   5.631   0.351 -0.0850 -0.0903  0.5705
   76MOL0     C10352   0.727   5.525   0.327 -0.5391 -0.3343 -0.7201
   76MOL0     O10353   0.858   5.496   0.359 -0.6385  0.2416  0.8567
   76MOL0     C10354   0.926   5.574   0.448  0.8878  0.1110  0.9023
   76MOL0     C10355   0.873   5.604   0.571  0.1679  0.3162  0.4613
   76MOL0     C10356   0.954   5.679   0.661 -0.0990 -0.3082 -0.0446
   76MOL0     C10357   1.082   5.721   0.621 -0.5349  0.5510 -0.0487
   76MOL0     O10358   1.159   5.802   0.698  0.0852 -0.3565 -0.3002
   76MOL0     C10359   1.135   5.792   0.848  0.3051 -0.1010  0.1670
   76MOL0     C10360   1.028   5.881   0.903  0.1360 -0.3225 -0.0052
   76MOL0     C10361   0.943   5.812   1.008 -0.4221 -0.1368  0.4636
   76MOL0     C10362   0.804   5.882   1.040 -1.0539  0.0545  0.5624
   76MOL0     C10363   0.712   5.796   1.137 -0.1514  0.1759 -0.6320
   76MOL0     C10364   0.573   5.854   1.138 -0.7200  0.5967  0.2428
   76MOL0     C10365   0.485   5.769   1.234  0.2539 -0.0218 -0.0424
   76MOL0     C10366   0.525   5.762   1.390 -0.5900  0.4095  0.8860
   76MOL0     N10367   0.447   5.670   1.462  0.2337 -0.0704  0.6198
   76MOL0     C10368   0.324   5.618   1.438 -0.8594 -1.0260  0.3574
   76MOL0     C10369   0.324   5.507   1.513  0.9221  0.2958 -0.3692
   76MOL0     C10370   0.213   5.404   1.516 -0.3745 -1.1507  0.2052
   76MOL0     C10371   0.102   5.451   1.596  0.5800 -0.1876 -0.8827
   76MOL0     C10372  -0.005   5.335   1.608  0.2269  0.8332 -0.1623
   76MOL0     C10373  -0.101   5.370   1.728 -0.9596  0.2124  0.6116
   76MOL0     O10374  -0.017   5.316   1.834 -0.4400 -0.5418 -0.0318
   76MOL0     C10375  -0.067   5.336   1.960  0.4250  0.3777  0.0912
   76MOL0     C10376  -0.000   5.269   2.057 -0.6880  0.0629 -0.7406
   76MOL0     C10377  -0.023   5.298   2.195 -0.2528 -0.2247 -0.0659
   76MOL0     C10378   0.077   5.242   2.294 -1.0231  0.0248 -0.4739
   76MOL0     C10379  -0.131   5.378   2.238 -0.3883 -0.8328  0.4494
   76MOL0     C10380  -0.163   5.404   2.384  0.8800  0.4595 -0.4504
   76MOL0     O10381  -0.066   5.413   2.474  0.0511 -0.0609  0.6595
   76MOL0     C10382  -0.086   5.402   2.606  0.5603  0.2031 -0.5571
   76MOL0     C10383  -0.193   5.329   2.668  0.6234 -1.2452 -0.1339
   76MOL0     C10384  -0.205   5.313   2.803 -0.4508  0.0231  1.2386
   76MOL0     C10385  -0.103   5.360   2.893 -0.2712  0.0664 -0.3831
   76MOL0     O10386  -0.106   5.358   3.032  1.0935 -0.3354 -0.0751
   76MOL0     C10387  -0.236   5.360   3.087  0.4122  0.3068 -0.1245
   76MOL0     C10388  -0.236   5.408   3.232 -0.5451  0.4409 -0.7633
   76MOL0     C10389  -0.142   5.332   3.345 -0.6980  0.3706  0.8609
   76MOL0     C10390  -0.160   5.367   3.484  0.4763 -0.0875 -0.4070
   76MOL0     C10391  -0.064   5.307   3.576  0.1285  1.1809 -0.6502
   76MOL0     C10392  -0.107   5.356   3.716 -0.0233  0.7764  0.2529
   76MOL0     C10393  -0.014   5.292   3.818 -0.4131 -0.6351  0.0716
   76MOL0     C10394  -0.047   5.149   3.847  0.1839  0.3345 -0.2620
   76MOL0    Cl10395  -0.206   5.161   3.948  0.2966 -0.2842  0.0513
   76MOL0     C10396   0.006   5.426   2.830 -0.4944 -0.2452 -0.2430
   76MOL0     C10397   0.017   5.447   2.684  0.4784  0.2568 -0.3613
   76MOL0     O10398  -0.280   5.436   2.403 -0.0519  0.2125  0.0837
   76MOL0     C10399  -0.207   5.443   2.132  0.5341  0.4744  0.2667
   76MOL0     C10400  -0.171   5.429   1.993 -0.5520  1.1119 -0.8376
   76MOL0     N10401   0.444   5.486   1.576  0.0077  0.0809  0.8332
   76MOL0     N10402   0.520   5.583   1.541  0.1649 -0.0687  0.5324
   76MOL0     C10403   1.129   5.691   0.492  0.0054 -0.2129 -0.1980
   76MOL0     C10404   1.049   5.622   0.405 -0.0780  0.5032 -0.6811
   76MOL0     C10405   0.642   5.418   0.258 -0.3000 -1.0243 -0.7767
   76MOL0     C10406   0.706   5.328   0.167 -0.2588  0.3835  0.4952
   76MOL0     C10407   0.641   5.233   0.094  0.3549 -0.7370 -0.4131
   76MOL0     C10408   0.499   5.216   0.125  1.0493  0.5726  0.2725
   76MOL0     O10409   0.425   5.108   0.074  0.1347  0.6049 -0.1782
   76MOL0     C10410   0.488   4.977   0.086  0.0928  0.0868  0.5419
   76MOL0     C10411   0.366   4.886   0.105 -0.2176  0.1540  0.1189
   76MOL0     C10412   0.294   4.899   0.240  0.6426  0.0381 -0.9627
   76MOL0     C10413   0.268   4.767   0.321  0.9357  0.3561 -0.0536
   76MOL0     C10414   0.394   4.722   0.391  0.4819  0.2446  0.4334
   76MOL0     C10415   0.479   4.690   0.467 -0.2962 -0.3717  0.4200
   76MOL0     C10416   0.433   5.300   0.212 -0.4088  0.2334 -0.4284
   76MOL0     C10417   0.501   5.410   0.280 -0.3185 -0.5331 -0.3153
   76MOL0     C10418   0.423   5.499   0.371 -0.0069  0.6507 -1.2815
   76MOL0     H10419   0.775   5.586   0.614 -0.8793  2.1213 -0.9938
   76MOL0     H10420   0.905   5.707   0.753 -2.6794 -1.5153 -0.9612
   76MOL0     H10421   1.232   5.807   0.896 -1.2081 -1.7318  4.1070
   76MOL0     H10422   1.118   5.689   0.882 -1.0989  0.5543  1.5586
   76MOL0     H10423   1.066   5.977   0.939 -1.4705  2.0003 -3.8818
   76MOL0     H10424   0.951   5.905   0.829 -0.5321 -0.7718  0.5284
   76MOL0     H10425   0.938   5.707   0.980  4.3882 -0.2331 -0.7848
   76MOL0     H10426   1.001   5.812   1.101  1.2120 -1.9701 -0.5065
   76MOL0     H10427   0.826   5.979   1.085  3.8140 -1.3946  1.9275
   76MOL0     H10428   0.746   5.907   0.951  0.1922 -0.6681 -0.4918
   76MOL0     H10429   0.749   5.801   1.240 -1.9250  0.0423  0.0378
   76MOL0     H10430   0.708   5.692   1.102  3.9377 -0.3009 -0.2101
   76MOL0     H10431   0.589   5.955   1.177 -2.2463  1.4698 -1.2134
   76MOL0     H10432   0.540   5.860   1.033 -2.7610 -2.7776  0.5463
   76MOL0     H10433   0.497   5.663   1.210  1.2898  0.1205 -0.1806
   76MOL0     H10434   0.385   5.810   1.213  0.4783  0.6869  0.2436
   76MOL0     H10435   0.624   5.721   1.411 -0.4247 -0.9871 -2.0834
   76MOL0     H10436   0.512   5.864   1.428 -5.6663  0.7789 -1.0191
   76MOL0     H10437   0.251   5.656   1.368 -0.1649  0.0571  0.1968
   76MOL0     H10438   0.235   5.302   1.550 -0.1914 -2.2479 -2.8779
   76MOL0     H10439   0.180   5.406   1.412 -0.7959  0.8638  0.3446
   76MOL0     H10440   0.142   5.481   1.693  2.2896  0.1263 -1.6516
   76MOL0     H10441   0.048   5.542   1.569  0.1567  1.5555  4.5390
   76MOL0     H10442  -0.051   5.333   1.508  4.1895  0.2099 -2.1750
   76MOL0     H10443   0.052   5.242   1.615 -0.2985  0.4059 -1.3013
   76MOL0     H10444  -0.119   5.476   1.746 -1.3161  0.3942 -0.7356
   76MOL0     H10445  -0.200   5.324   1.719 -1.5897  0.9673  2.9307
   76MOL0     H10446   0.090   5.221   2.020 -0.3666 -2.0253  2.3888
   76MOL0     H10447   0.030   5.167   2.359  3.8097 -1.9698  1.1517
   76MOL0     H10448   0.122   5.325   2.349 -2.1892  1.4092 -1.5179
   76MOL0     H10449   0.160   5.188   2.248 -1.1512 -0.3307 -0.2896
   76MOL0     H10450  -0.262   5.287   2.596 -1.0076 -0.8799  1.1647
   76MOL0     H10451  -0.300   5.275   2.839  0.1619 -2.0825  0.7531
   76MOL0     H10452  -0.302   5.430   3.035 -3.6172 -3.5837 -0.8444
   76MOL0     H10453  -0.284   5.262   3.088 -2.2340  1.4788  2.6298
   76MOL0     H10454  -0.216   5.516   3.236  3.1890 -0.1383 -0.1493
   76MOL0     H10455  -0.339   5.384   3.263  0.6297 -2.6271  1.2565
   76MOL0     H10456  -0.037   5.357   3.324 -1.1541  3.4471  1.8581
   76MOL0     H10457  -0.155   5.223   3.347 -0.4999  0.3112  4.2478
   76MOL0     H10458  -0.260   5.341   3.519  0.3490 -1.0629 -1.4347
   76MOL0     H10459  -0.154   5.476   3.495 -0.8416 -0.1366  1.0593
   76MOL0     H10460  -0.067   5.198   3.568 -2.0338  1.2982 -2.5241
   76MOL0     H10461   0.040   5.334   3.559  0.2197  0.9410 -0.4814
   76MOL0     H10462  -0.213   5.330   3.731  0.1524  1.7028  4.5589
   76MOL0     H10463  -0.099   5.465   3.714  2.0264  0.6440 -0.5551
   76MOL0     H10464  -0.036   5.355   3.904  2.5832  3.9773 -2.1133
   76MOL0     H10465   0.092   5.312   3.801 -0.4764  1.2178  1.4805
   76MOL0     H10466   0.040   5.109   3.901  1.3434  0.3719 -2.0277
   76MOL0     H10467  -0.056   5.089   3.757  2.7878 -1.5542  0.6077
   76MOL0     H10468   0.095   5.463   2.880 -1.4152  0.3510  0.9988
   76MOL0     H10469   0.102   5.499   2.641  0.6818 -0.0159 -0.2892
   76MOL0     H10470  -0.301   5.495   2.146  0.7378  1.5881 -2.0561
   76MOL0     H10471  -0.224   5.490   1.921  1.8295  1.1206 -2.7152
   76MOL0     H10472   1.221   5.739   0.457 -0.3892 -0.1698 -1.2102
   76MOL0     H10473   1.101   5.622   0.310 -0.8659 -1.3747 -1.1650
   76MOL0     H10474   0.813   5.329   0.152 -0.6195 -0.7417 -2.9686
   76MOL0     H10475   0.693   5.170   0.021  1.1875 -0.9186  0.3193
   76MOL0     H10476   0.548   4.952  -0.001 -0.8222  2.6196 -0.9245
   76MOL0     H10477   0.567   4.970   0.162 -0.1445  2.8184  1.1817
   76MOL0     H10478   0.414   4.788   0.095  1.4961  1.1135 -1.6276
   76MOL0     H10479   0.297   4.888   0.020 -0.6339  1.0828  0.4641
   76MOL0     H10480   0.350   4.965   0.306 -2.8823 -0.0579  2.4532
   76MOL0     H10481   0.194   4.939   0.225  1.0214  1.9547  1.1317
   76MOL0     H10482   0.233   4.701   0.240  0.4934  0.2544  0.2167
   76MOL0     H10483   0.182   4.779   0.388 -0.2280  1.4929 -1.6814
   76MOL0     H10484   0.561   4.649   0.522  0.0228  0.7852  0.8306
   76MOL0     H10485   0.327   5.289   0.228  0.0036 -1.5051  1.5120
   76MOL0     H10486   0.422   5.606   0.348  3.0559  1.4897  1.7176
   76MOL0     H10487   0.326   5.450   0.380  1.0193 -1.0608  1.9202
   76MOL0     H10488   0.473   5.488   0.467  0.6357 -0.2825 -1.7050
   77MOL0     O10489  10.292   1.997   2.202  0.5134 -0.4557  0.9628
   77MOL0     C10490  10.406   2.026   2.242  1.2385  0.7227 -0.0778
   77MOL0     O10491  10.485   1.930   2.305  0.0103  0.7075  0.7343
   77MOL0     C10492  10.444   1.806   2.318  0.3794  0.4013 -0.3885
   77MOL0     C10493  10.389   1.726   2.219 -0.2124 -0.1577  0.5659
   77MOL0     C10494  10.331   1.605   2.240 -0.2968  0.0760 -0.3798
   77MOL0     C10495  10.338   1.540   2.360 -0.0769  0.3683 -0.2848
   77MOL0     O10496  10.315   1.404   2.382  0.0651  1.1883 -0.5027
   77MOL0     C10497  10.329   1.309   2.275  0.2733 -0.5282  0.0269
   77MOL0     C10498  10.414   1.191   2.301  0.6365  0.8022 -0.6577
   77MOL0     C10499  10.565   1.225   2.308  0.6420 -0.2962 -0.0404
   77MOL0     C10500  10.650   1.103   2.309 -0.9742 -0.5575  0.6262
   77MOL0     C10501  10.798   1.119   2.336 -0.1033 -1.0735  0.0078
   77MOL0     C10502  10.856   0.983   2.352 -0.2695  0.5878 -0.2971
   77MOL0     C10503  10.999   1.006   2.406 -0.9976  0.2654  0.3454
   77MOL0     C10504  11.077   0.881   2.400 -0.0928 -0.2352  0.3982
   77MOL0     N10505  11.208   0.894   2.458  0.0351  0.1793 -0.2962
   77MOL0     C10506  11.310   0.793   2.440  0.8155  0.2085 -0.5316
   77MOL0     C10507  11.418   0.853   2.493 -0.0381 -0.0219 -0.8934
   77MOL0     C10508  11.556   0.785   2.515  0.4893 -0.2400  0.6327
   77MOL0     C10509  11.646   0.804   2.396 -0.6956  0.2321  0.0522
   77MOL0     C10510  11.795   0.777   2.417  0.5285 -0.3362  0.0014
   77MOL0     C10511  11.888   0.818   2.306 -0.6152 -0.5472 -0.1773
   77MOL0     O10512  11.839   0.947   2.255  0.1288  0.1993  0.1827
   77MOL0     C10513  11.922   1.002   2.157 -0.7433 -0.4357 -0.4322
   77MOL0     C10514  11.881   1.131   2.120  0.2645 -0.2534 -0.1106
   77MOL0     C10515  11.957   1.217   2.037  0.4207 -1.4977 -1.2137
   77MOL0     C10516  11.895   1.355   2.006  0.1175  0.4990 -0.2197
   77MOL0     C10517  12.077   1.173   1.986  0.5569  0.5053 -0.4665
   77MOL0     C10518  12.175   1.266   1.930 -0.1520  0.4647  0.9503
   77MOL0     O10519  12.301   1.228   1.954 -0.0213 -0.1265  0.0108
   77MOL0     C10520  12.404   1.279   1.879  1.1151  0.6014  0.6909
   77MOL0     C10521  12.454   1.194   1.775 -0.1239 -0.6477 -0.3860
   77MOL0     C10522  12.563   1.223   1.694  0.3015  0.6434 -0.2351
   77MOL0     C10523  12.632   1.339   1.718  0.0592 -0.2141 -1.0690
   77MOL0     O10524  12.742   1.353   1.641 -0.1871  0.2944  0.5255
   77MOL0     C10525  12.758   1.484   1.583  0.0628  0.3020 -0.5381
   77MOL0     C10526  12.855   1.498   1.475 -0.4667 -0.3546  0.7489
   77MOL0     C10527  12.820   1.397   1.362  0.7480 -0.5442  0.1130
   77MOL0     C10528  12.912   1.392   1.242 -0.7549 -0.3269  0.3231
   77MOL0     C10529  12.886   1.295   1.142 -0.2421 -0.3059 -0.7721
   77MOL0     C10530  12.774   1.335   1.048  0.5092  0.0332 -0.0032
   77MOL0     C10531  12.748   1.217   0.950 -0.4262 -0.2049 -0.6356
   77MOL0     C10532  12.654   1.264   0.833  0.5635 -0.2977 -0.0185
   77MOL0    Cl10533  12.616   1.139   0.724 -0.4172  0.3651 -0.4147
   77MOL0     C10534  12.600   1.426   1.826  0.0454  0.4736  1.2044
   77MOL0     C10535  12.486   1.400   1.909  0.4597  0.1823 -0.1014
   77MOL0     O10536  12.146   1.351   1.849 -0.0597  0.3746  0.2958
   77MOL0     C10537  12.105   1.036   2.006 -0.6148 -0.2952  0.1412
   77MOL0     C10538  12.043   0.955   2.097  0.3240 -0.4487 -0.0103
   77MOL0     N10539  11.399   0.990   2.525  0.0721  0.2168  0.4450
   77MOL0     N10540  11.270   1.013   2.503 -0.4203 -0.0228  0.4692
   77MOL0     C10541  10.396   1.613   2.467 -0.1529 -0.1054 -0.5246
   77MOL0     C10542  10.450   1.747   2.446  1.2978 -0.3594 -0.1715
   77MOL0     C10543  10.451   2.165   2.239  0.5744 -0.1381 -0.1798
   77MOL0     C10544  10.580   2.191   2.289  0.1318 -0.5078 -0.6031
   77MOL0     C10545  10.626   2.319   2.303  0.1271 -0.4137 -0.0584
   77MOL0     C10546  10.553   2.429   2.268  0.5783 -0.7337  0.4895
   77MOL0     O10547  10.593   2.559   2.276 -0.0125 -0.7742 -0.7274
   77MOL0     C10548  10.725   2.591   2.343  0.0162 -0.3073  0.2232
   77MOL0     C10549  10.726   2.742   2.356 -0.4574 -0.1203 -0.2918
   77MOL0     C10550  10.665   2.802   2.486 -0.1363  0.8804  0.3660
   77MOL0     C10551  10.590   2.940   2.453  0.7078  0.4013  0.1767
   77MOL0     C10552  10.686   3.050   2.438 -0.2802  1.3234  0.3889
   77MOL0     C10553  10.766   3.139   2.417 -0.1074  0.3294 -0.0529
   77MOL0     C10554  10.431   2.409   2.213 -0.2256 -0.6905 -0.4045
   77MOL0     C10555  10.374   2.281   2.201  0.6815  0.1702  0.1537
   77MOL0     C10556  10.232   2.279   2.158  0.4437 -0.1269  0.7826
   77MOL0     H10557  10.369   1.768   2.120 -1.9754 -0.2429  0.8454
   77MOL0     H10558  10.270   1.563   2.161 -2.2739  0.9356  0.6069
   77MOL0     H10559  10.373   1.360   2.189 -0.5689  0.9431  0.4338
   77MOL0     H10560  10.228   1.282   2.242  0.3719 -1.3470  0.3689
   77MOL0     H10561  10.382   1.144   2.395  0.6829 -4.5732 -2.9402
   77MOL0     H10562  10.404   1.120   2.218  1.5621  1.6542 -1.5278
   77MOL0     H10563  10.590   1.284   2.220  1.2928 -2.2205 -1.2080
   77MOL0     H10564  10.590   1.287   2.395  3.9060 -1.5957  0.1102
   77MOL0     H10565  10.607   1.042   2.390  0.1189 -0.3736  1.3620
   77MOL0     H10566  10.630   1.045   2.219 -0.3577 -3.7143  2.3643
   77MOL0     H10567  10.820   1.189   2.417 -3.5601 -1.9069  1.8490
   77MOL0     H10568  10.836   1.167   2.245 -2.7929  1.8815  0.2748
   77MOL0     H10569  10.800   0.922   2.424  1.5206  0.1729  0.8011
   77MOL0     H10570  10.846   0.929   2.257 -2.1769  0.7819 -0.2457
   77MOL0     H10571  10.984   1.027   2.513 -0.0041  0.2006  0.5061
   77MOL0     H10572  11.059   1.079   2.351  1.5439 -2.2385 -0.4523
   77MOL0     H10573  11.009   0.809   2.446 -2.6881  1.6012 -0.3775
   77MOL0     H10574  11.081   0.855   2.294  1.1084 -0.9789  0.6023
   77MOL0     H10575  11.299   0.686   2.429  3.4970 -0.7217  3.4953
   77MOL0     H10576  11.536   0.677   2.522  0.8161 -0.5032 -1.6785
   77MOL0     H10577  11.616   0.821   2.599  2.5744 -1.2300 -0.3406
   77MOL0     H10578  11.612   0.745   2.310  1.9852 -2.8643  0.9087
   77MOL0     H10579  11.632   0.907   2.364 -2.3378  0.4677  1.4171
   77MOL0     H10580  11.833   0.839   2.498  1.5266 -0.8437 -0.0561
   77MOL0     H10581  11.814   0.670   2.434  1.4226 -0.4859 -1.6832
   77MOL0     H10582  11.990   0.837   2.340 -0.9649  2.4113 -0.5173
   77MOL0     H10583  11.877   0.739   2.231  0.2653 -2.3516  1.5112
   77MOL0     H10584  11.791   1.175   2.160  0.9006 -0.5715  1.7714
   77MOL0     H10585  11.926   1.391   1.907  0.7921 -0.6084 -0.4366
   77MOL0     H10586  11.923   1.426   2.084 -2.0636 -2.5257  3.6742
   77MOL0     H10587  11.788   1.338   2.013 -0.5292  1.3267 -4.8716
   77MOL0     H10588  12.401   1.102   1.754  1.0972 -1.9345  1.8515
   77MOL0     H10589  12.591   1.153   1.617  1.0810  1.1618 -0.4338
   77MOL0     H10590  12.657   1.511   1.550  0.3545  1.4040 -0.5450
   77MOL0     H10591  12.793   1.545   1.666 -1.4691 -2.0931  2.0847
   77MOL0     H10592  12.845   1.592   1.421 -0.7168 -0.7942 -0.0017
   77MOL0     H10593  12.956   1.478   1.512  1.1506 -0.7787 -3.3652
   77MOL0     H10594  12.723   1.429   1.323  0.9392  0.7897  0.6592
   77MOL0     H10595  12.815   1.299   1.410 -0.0782 -1.3291 -1.5020
   77MOL0     H10596  13.015   1.369   1.270 -0.4261 -0.9979 -1.3321
   77MOL0     H10597  12.921   1.493   1.200  2.5976 -1.0347 -0.9332
   77MOL0     H10598  12.975   1.294   1.078 -1.1248  2.0848 -2.1733
   77MOL0     H10599  12.871   1.197   1.189 -0.5921  0.6788  1.2417
   77MOL0     H10600  12.805   1.424   0.992  0.9870  0.6653  1.2117
   77MOL0     H10601  12.681   1.362   1.099 -0.2245 -0.7560 -0.8986
   77MOL0     H10602  12.704   1.134   1.007 -0.1545  0.8871  1.2504
   77MOL0     H10603  12.842   1.188   0.903 -0.9849 -1.2110 -1.1682
   77MOL0     H10604  12.704   1.347   0.782  2.1030 -0.3456  1.3158
   77MOL0     H10605  12.559   1.301   0.872  0.2914  0.2735 -1.1812
   77MOL0     H10606  12.673   1.504   1.844 -1.2735  2.3210 -1.0286
   77MOL0     H10607  12.456   1.469   1.987 -1.7479 -1.3561  0.5021
   77MOL0     H10608  12.194   0.994   1.962  0.7412  1.3263  1.1966
   77MOL0     H10609  12.081   0.857   2.123 -1.0395 -0.8139  0.6810
   77MOL0     H10610  10.414   1.580   2.569  1.3577 -3.1987 -1.6740
   77MOL0     H10611  10.507   1.802   2.520 -0.1579  1.7237 -0.5188
   77MOL0     H10612  10.640   2.104   2.316 -0.2920 -0.6534 -0.1062
   77MOL0     H10613  10.721   2.338   2.351  0.1672  0.5642 -0.5012
   77MOL0     H10614  10.738   2.536   2.436 -2.4766  1.8405  1.9800
   77MOL0     H10615  10.803   2.564   2.271  0.1798  0.6143  0.0388
   77MOL0     H10616  10.685   2.787   2.264  0.4670 -0.9790 -1.1523
   77MOL0     H10617  10.833   2.767   2.353 -0.5667  0.4391  0.4098
   77MOL0     H10618  10.583   2.743   2.529  0.0663  0.8407  0.6968
   77MOL0     H10619  10.740   2.810   2.565  1.5547 -0.0874 -1.0518
   77MOL0     H10620  10.519   2.964   2.533 -0.4012  3.2544 -1.5244
   77MOL0     H10621  10.537   2.930   2.358  0.1612  1.1892  0.3926
   77MOL0     H10622  10.841   3.211   2.389 -1.1531  1.3007 -0.4174
   77MOL0     H10623  10.381   2.498   2.177 -1.3105 -2.3464 -3.3287
   77MOL0     H10624  10.180   2.375   2.146 -1.3269 -1.4262 -3.6933
   77MOL0     H10625  10.224   2.232   2.060 -0.4710  0.1222  0.7249
   77MOL0     H10626  10.167   2.233   2.233  0.5528 -2.5584 -0.5163
   78MOL0     O10627   9.006   5.424   2.738 -0.5794 -0.4246  0.3954
   78MOL0     C10628   9.108   5.376   2.794  0.5358 -0.6081  0.1569
   78MOL0     O10629   9.118   5.319   2.917  0.2249  0.0061  0.7637
   78MOL0     C10630   9.014   5.293   3.009 -1.2754 -0.5673  0.3125
   78MOL0     C10631   8.877   5.311   2.990 -0.5743 -0.3839 -0.0154
   78MOL0     C10632   8.779   5.287   3.089 -0.0628  0.0741  0.2616
   78MOL0     C10633   8.822   5.226   3.209  0.3199  0.0620 -0.7545
   78MOL0     O10634   8.722   5.215   3.299 -0.3704 -0.3338 -0.4480
   78MOL0     C10635   8.745   5.209   3.435  0.3120 -0.3917 -0.8592
   78MOL0     C10636   8.631   5.243   3.521 -0.2889  0.6506  0.1702
   78MOL0     C10637   8.632   5.211   3.670  0.5919 -0.0926 -0.0176
   78MOL0     C10638   8.585   5.342   3.737  0.4222  0.7615  0.2546
   78MOL0     C10639   8.601   5.336   3.889  0.3631 -0.8097  0.2047
   78MOL0     C10640   8.551   5.470   3.954  0.9962 -0.6772  0.2961
   78MOL0     C10641   8.550   5.457   4.112  0.1844  0.7098  0.5310
   78MOL0     C10642   8.690   5.440   4.174 -0.4637 -0.0828 -0.6297
   78MOL0     N10643   8.686   5.488   4.316 -0.2056 -0.0297  0.6080
   78MOL0     C10644   8.678   5.619   4.351 -0.6001  0.1832  0.2161
   78MOL0     C10645   8.631   5.628   4.480 -0.5063 -0.0950 -0.6655
   78MOL0     C10646   8.623   5.767   4.555  1.3428  0.3590 -0.7427
   78MOL0     C10647   8.534   5.861   4.490 -0.1607 -0.1720 -0.2234
   78MOL0     C10648   8.387   5.821   4.497 -1.0537  1.3519 -0.0746
   78MOL0     C10649   8.304   5.938   4.444 -0.0078  0.9179 -0.2062
   78MOL0     O10650   8.168   5.896   4.442  0.7020  1.3390 -0.1074
   78MOL0     C10651   8.071   5.963   4.371  0.1708 -0.4193 -0.5996
   78MOL0     C10652   7.964   5.893   4.311  0.4346 -0.3384 -0.6959
   78MOL0     C10653   7.853   5.958   4.247 -0.4441  0.4913 -0.0902
   78MOL0     C10654   7.751   5.863   4.188 -0.0144 -0.0407 -0.0582
   78MOL0     C10655   7.852   6.104   4.250  0.9454  0.5073  0.5603
   78MOL0     C10656   7.738   6.185   4.189  0.3163 -0.0159 -0.0058
   78MOL0     O10657   7.770   6.308   4.137  0.1243 -0.5009  0.0426
   78MOL0     C10658   7.653   6.381   4.115  0.5024 -0.5881  0.2904
   78MOL0     C10659   7.626   6.482   4.209 -0.6294  0.0722  0.2810
   78MOL0     C10660   7.517   6.566   4.193  0.4266 -0.6568  0.2743
   78MOL0     C10661   7.437   6.548   4.075 -0.2211  0.4195 -0.3251
   78MOL0     O10662   7.323   6.627   4.073 -0.3972  0.7113  0.4218
   78MOL0     C10663   7.262   6.640   3.953  0.3111  0.1428 -0.2892
   78MOL0     C10664   7.143   6.743   3.981  0.5519  0.2620 -0.5199
   78MOL0     C10665   7.083   6.785   3.854  0.5009 -0.3644 -0.1779
   78MOL0     C10666   6.952   6.868   3.871 -0.0823  0.2423 -0.6223
   78MOL0     C10667   6.854   6.874   3.750  0.4279 -0.1356 -0.2574
   78MOL0     C10668   6.749   6.982   3.766  0.5000  0.2847  0.1907
   78MOL0     C10669   6.656   6.962   3.642  0.1139 -0.2629 -0.2712
   78MOL0     C10670   6.542   7.070   3.643 -0.2468 -0.5173  0.9864
   78MOL0    Cl10671   6.460   7.069   3.806  0.0944 -0.0741 -0.3208
   78MOL0     C10672   7.462   6.448   3.978 -0.9841 -0.4366 -0.3674
   78MOL0     C10673   7.581   6.370   3.994  0.4741 -0.0715 -0.8152
   78MOL0     O10674   7.628   6.128   4.185 -0.3672 -0.0907 -0.4432
   78MOL0     C10675   7.961   6.167   4.295 -0.2038 -0.0345  0.5373
   78MOL0     C10676   8.068   6.105   4.356  0.3291  0.1314  0.4545
   78MOL0     N10677   8.597   5.494   4.517 -0.5214 -0.6506  0.1532
   78MOL0     N10678   8.623   5.421   4.417 -0.4202 -0.2003 -0.5564
   78MOL0     C10679   8.956   5.207   3.227 -0.4396 -1.3059 -0.4453
   78MOL0     C10680   9.052   5.248   3.132 -0.8135 -0.7793  1.2073
   78MOL0     C10681   9.234   5.386   2.719  0.6676  0.0290  1.3377
   78MOL0     C10682   9.351   5.428   2.786 -0.3360  0.5510  0.4765
   78MOL0     C10683   9.477   5.436   2.719 -0.6961  0.0612  0.5517
   78MOL0     C10684   9.489   5.396   2.593  0.5014  0.0338  0.6056
   78MOL0     O10685   9.614   5.413   2.527  0.1220  0.3494  0.2175
   78MOL0     C10686   9.619   5.409   2.375  0.5249 -0.0114 -0.8458
   78MOL0     C10687   9.713   5.517   2.331 -0.0644 -0.5540  1.0380
   78MOL0     C10688   9.860   5.468   2.357  0.6437 -1.0993 -0.3830
   78MOL0     C10689   9.956   5.582   2.318 -0.1061 -0.6088  0.2202
   78MOL0     C10690  10.020   5.560   2.184  0.2239 -0.0481  0.4899
   78MOL0     C10691  10.059   5.551   2.071 -0.0062 -0.0704  0.6767
   78MOL0     C10692   9.369   5.349   2.523 -1.4083  1.3845  0.1176
   78MOL0     C10693   9.244   5.352   2.580  0.2202 -0.2390  0.5275
   78MOL0     C10694   9.135   5.278   2.506  0.6725  0.7549  0.1301
   78MOL0     H10695   8.843   5.356   2.898  2.1044 -0.1737 -0.9959
   78MOL0     H10696   8.673   5.302   3.070 -0.2307 -0.3445  0.8121
   78MOL0     H10697   8.822   5.282   3.463  0.0941 -0.3010 -0.4872
   78MOL0     H10698   8.765   5.103   3.456 -2.2447 -0.5509  1.1674
   78MOL0     H10699   8.609   5.349   3.503 -2.1208  0.1353 -0.8638
   78MOL0     H10700   8.543   5.191   3.482  0.6134 -0.5950 -0.2510
   78MOL0     H10701   8.562   5.129   3.692 -0.6232  0.1041 -2.6985
   78MOL0     H10702   8.734   5.194   3.703  0.6667 -2.0505 -1.1016
   78MOL0     H10703   8.633   5.432   3.697 -0.6788  2.3642  2.3684
   78MOL0     H10704   8.481   5.370   3.720  0.7383  0.8590 -1.8049
   78MOL0     H10705   8.707   5.327   3.914  0.7261  3.9373  1.3069
   78MOL0     H10706   8.540   5.249   3.918 -4.1566  1.7639 -0.5292
   78MOL0     H10707   8.606   5.560   3.926 -0.0564  0.3588  1.4493
   78MOL0     H10708   8.449   5.489   3.920  1.4116 -0.5258 -0.9263
   78MOL0     H10709   8.494   5.375   4.157  0.9565  0.8337  1.7416
   78MOL0     H10710   8.499   5.545   4.153 -2.6445  0.4883 -2.0941
   78MOL0     H10711   8.721   5.336   4.181 -1.2762 -0.2338  1.6535
   78MOL0     H10712   8.763   5.496   4.115 -0.6741  2.0255  0.9595
   78MOL0     H10713   8.700   5.705   4.288  0.8894 -0.5851 -0.3728
   78MOL0     H10714   8.724   5.809   4.561  1.5079  0.3447 -2.7405
   78MOL0     H10715   8.567   5.753   4.648 -1.5085  2.6019 -1.9907
   78MOL0     H10716   8.540   5.955   4.545 -0.5609 -0.5251  0.4373
   78MOL0     H10717   8.567   5.896   4.392 -3.4441 -1.2321 -1.8441
   78MOL0     H10718   8.383   5.733   4.431  1.1985  1.1764 -0.0699
   78MOL0     H10719   8.352   5.788   4.595 -2.7101  3.2900  0.0508
   78MOL0     H10720   8.319   6.014   4.522  0.9227 -0.5873  1.1692
   78MOL0     H10721   8.336   5.967   4.344 -1.6976 -1.2233 -1.4618
   78MOL0     H10722   7.970   5.785   4.310 -0.9697 -0.4258 -1.6507
   78MOL0     H10723   7.707   5.911   4.100  0.1853 -0.3959 -0.3603
   78MOL0     H10724   7.663   5.852   4.251 -0.0344  1.8908  0.3197
   78MOL0     H10725   7.794   5.768   4.153  2.9502  0.6232  1.4190
   78MOL0     H10726   7.686   6.482   4.299  1.3157  0.2305 -0.9470
   78MOL0     H10727   7.496   6.649   4.259  3.0334  0.9660 -0.7724
   78MOL0     H10728   7.327   6.684   3.877  0.4230  2.6477  1.1405
   78MOL0     H10729   7.225   6.548   3.907  1.6634 -0.5261 -0.0857
   78MOL0     H10730   7.072   6.707   4.055  2.9357 -2.8308  0.4946
   78MOL0     H10731   7.190   6.829   4.030 -1.4587  0.3800  1.3193
   78MOL0     H10732   7.066   6.697   3.790 -0.5206  0.7491 -1.5012
   78MOL0     H10733   7.151   6.842   3.789  2.2564 -2.6323 -0.4617
   78MOL0     H10734   6.982   6.968   3.902 -0.0217 -0.2072  0.8416
   78MOL0     H10735   6.896   6.811   3.946 -1.5626  0.0694 -1.8004
   78MOL0     H10736   6.918   6.886   3.661  1.1565  0.9914  0.3922
   78MOL0     H10737   6.809   6.774   3.757 -0.0911  0.2298  4.2234
   78MOL0     H10738   6.801   7.078   3.770 -1.4546  1.4092 -0.1055
   78MOL0     H10739   6.694   6.967   3.859 -0.7046  0.8155 -0.4117
   78MOL0     H10740   6.606   6.865   3.653  0.4695 -0.2333  2.4017
   78MOL0     H10741   6.712   6.970   3.549  0.5278  2.1181  0.1410
   78MOL0     H10742   6.471   7.044   3.564  1.4850 -2.7560  0.0655
   78MOL0     H10743   6.581   7.167   3.610  2.2610 -1.0807  2.0254
   78MOL0     H10744   7.407   6.437   3.885 -2.2436 -0.6376  0.3671
   78MOL0     H10745   7.602   6.311   3.906  0.6805  0.9110 -1.4461
   78MOL0     H10746   7.969   6.275   4.289  1.1847 -0.1183  0.5421
   78MOL0     H10747   8.154   6.163   4.389  2.0391 -1.0330 -1.6318
   78MOL0     H10748   8.996   5.174   3.323 -1.7920  3.0007  1.8437
   78MOL0     H10749   9.158   5.250   3.155  0.2444  2.0838 -2.8483
   78MOL0     H10750   9.356   5.429   2.894  1.5666 -0.2233  0.4388
   78MOL0     H10751   9.571   5.468   2.763  2.0256 -0.3598 -4.2349
   78MOL0     H10752   9.674   5.320   2.345  0.5812  0.7522 -3.2356
   78MOL0     H10753   9.525   5.423   2.321  2.1082  0.8830 -3.5197
   78MOL0     H10754   9.684   5.601   2.395 -0.2849 -0.2444  0.5356
   78MOL0     H10755   9.691   5.542   2.227 -0.7753  2.3577  1.7974
   78MOL0     H10756   9.872   5.453   2.465 -0.9422  1.3264  0.2327
   78MOL0     H10757   9.884   5.368   2.322  0.2233 -1.7540  1.1106
   78MOL0     H10758  10.030   5.579   2.399 -0.5459 -0.7202  0.6271
   78MOL0     H10759   9.901   5.676   2.319  1.6953  0.4926 -0.0126
   78MOL0     H10760  10.078   5.546   1.965  0.3929  2.9571  0.5359
   78MOL0     H10761   9.371   5.315   2.420 -4.6702  1.0514  0.0539
   78MOL0     H10762   9.061   5.353   2.473  1.0337  1.0388 -0.0417
   78MOL0     H10763   9.178   5.228   2.419  1.5878 -0.0575  1.0418
   78MOL0     H10764   9.091   5.204   2.573 -1.1597  1.1768 -0.5209
   79MOL0     O10765   6.208   8.802   3.401 -0.4295  0.8608 -0.4327
   79MOL0     C10766   6.233   8.808   3.280 -0.4469  0.7892  0.3854
   79MOL0     O10767   6.155   8.745   3.190  0.6787 -0.9352  0.7778
   79MOL0     C10768   6.031   8.689   3.220 -0.5245 -0.1260 -0.0711
   79MOL0     C10769   6.016   8.585   3.308  0.2285 -0.6177 -0.6923
   79MOL0     C10770   5.890   8.539   3.352  0.6488  0.6401  0.3708
   79MOL0     C10771   5.775   8.612   3.306 -0.0957 -0.4263  1.2895
   79MOL0     O10772   5.654   8.575   3.353  0.6985 -0.6440 -0.0831
   79MOL0     C10773   5.641   8.438   3.392  0.1984 -1.2835  0.0043
   79MOL0     C10774   5.488   8.412   3.393 -0.1786 -0.0306  0.2665
   79MOL0     C10775   5.429   8.430   3.535 -0.5635 -0.8301 -0.0548
   79MOL0     C10776   5.456   8.316   3.633 -0.0152  0.2594  0.1319
   79MOL0     C10777   5.356   8.334   3.742  0.7576  0.1852 -0.1321
   79MOL0     C10778   5.398   8.276   3.889  0.9043 -0.3235  1.2502
   79MOL0     C10779   5.284   8.295   3.988 -0.8944 -0.5452 -0.3947
   79MOL0     C10780   5.165   8.210   3.947  0.2871 -0.0334  0.4566
   79MOL0     N10781   5.194   8.068   3.955  0.6305 -1.2332  0.1612
   79MOL0     C10782   5.248   7.996   4.059  1.2456  0.1297 -0.2969
   79MOL0     C10783   5.251   7.870   4.012  0.3443 -0.2121 -0.4406
   79MOL0     C10784   5.293   7.756   4.095  0.9949  0.0923 -0.0647
   79MOL0     C10785   5.310   7.626   4.020 -0.0552  1.7309  0.2138
   79MOL0     C10786   5.433   7.643   3.933  0.2147  0.3552  0.2564
   79MOL0     C10787   5.409   7.544   3.818  0.6869  0.1755 -0.6670
   79MOL0     O10788   5.320   7.583   3.718  0.3076  0.9416  0.2291
   79MOL0     C10789   5.368   7.599   3.594 -0.2246 -0.7741 -0.4013
   79MOL0     C10790   5.368   7.727   3.544 -0.3128 -0.8068 -0.2696
   79MOL0     C10791   5.422   7.768   3.421 -0.5843  0.6802 -0.2297
   79MOL0     C10792   5.407   7.906   3.365  0.2128 -0.4199  0.4019
   79MOL0     C10793   5.473   7.662   3.345 -0.6754 -0.0848  0.0425
   79MOL0     C10794   5.536   7.686   3.210  0.5304 -0.3256 -0.4132
   79MOL0     O10795   5.639   7.604   3.178 -0.3079  0.3548  0.2179
   79MOL0     C10796   5.711   7.607   3.070  0.3571 -0.7531  1.0900
   79MOL0     C10797   5.665   7.658   2.941  0.2195 -0.0614 -0.1777
   79MOL0     C10798   5.748   7.645   2.831 -0.4365 -0.3021  0.2959
   79MOL0     C10799   5.886   7.606   2.851  0.1205 -0.8691  0.0494
   79MOL0     O10800   5.985   7.611   2.759 -0.0048 -0.3835  0.2413
   79MOL0     C10801   5.973   7.667   2.629 -0.1487  0.4792  0.7062
   79MOL0     C10802   5.973   7.813   2.633  0.4459 -0.8283  1.1532
   79MOL0     C10803   6.010   7.860   2.494  0.2827  0.6188 -0.7351
   79MOL0     C10804   6.010   8.013   2.496 -0.0212  1.3139 -0.0890
   79MOL0     C10805   6.074   8.055   2.362 -0.0836  0.1733  0.4387
   79MOL0     C10806   6.031   8.195   2.346 -0.4998 -0.2674 -0.1739
   79MOL0     C10807   6.104   8.264   2.236  1.4193  0.1720  0.1843
   79MOL0     C10808   6.049   8.390   2.195 -0.4512  0.6934  0.4027
   79MOL0    Cl10809   6.165   8.492   2.108 -0.2144 -0.4753  0.0004
   79MOL0     C10810   5.932   7.584   2.977 -0.2307  0.1115 -0.1117
   79MOL0     C10811   5.837   7.561   3.083  0.2487  0.8468  0.9308
   79MOL0     O10812   5.483   7.775   3.133 -0.3958  0.4502  0.2762
   79MOL0     C10813   5.480   7.530   3.393 -0.4197  0.5668 -0.2482
   79MOL0     C10814   5.431   7.496   3.520  0.3449 -0.1935 -0.0182
   79MOL0     N10815   5.219   7.862   3.882  1.4367 -0.2900  0.5929
   79MOL0     N10816   5.181   7.982   3.850  0.1573 -0.1763  0.6529
   79MOL0     C10817   5.790   8.719   3.217  0.1642 -0.1790  0.2314
   79MOL0     C10818   5.923   8.756   3.170  0.9375  0.4334 -0.1695
   79MOL0     C10819   6.346   8.880   3.217 -0.2002  0.2945  0.0765
   79MOL0     C10820   6.388   8.837   3.084 -0.4422 -0.1965 -0.2367
   79MOL0     C10821   6.489   8.908   3.021 -0.4012 -0.2261 -0.4523
   79MOL0     C10822   6.544   9.026   3.081 -0.3384 -0.0408 -0.0127
   79MOL0     O10823   6.655   9.094   3.034 -0.2071 -0.5430  0.1210
   79MOL0     C10824   6.720   9.031   2.926 -1.3357 -0.8053  0.4299
   79MOL0     C10825   6.858   9.093   2.897 -0.1596 -0.3323 -0.2163
   79MOL0     C10826   6.864   9.247   2.902  0.2396  0.1487 -0.5275
   79MOL0     C10827   7.009   9.302   2.877  0.3733 -0.0492  1.1165
   79MOL0     C10828   7.024   9.442   2.883  0.5024 -0.3047  0.4963
   79MOL0     C10829   7.032   9.563   2.879 -0.1502  0.2609 -0.1676
   79MOL0     C10830   6.501   9.070   3.201 -0.1923  0.1205  0.0698
   79MOL0     C10831   6.391   9.007   3.263 -1.6014  1.2631 -0.3951
   79MOL0     C10832   6.346   9.078   3.389 -0.8770  0.0970  0.4570
   79MOL0     H10833   6.110   8.537   3.336  0.4585  0.2532  0.0586
   79MOL0     H10834   5.891   8.454   3.419  2.8042 -0.1698 -0.5952
   79MOL0     H10835   5.690   8.427   3.489  3.5553 -0.7147 -1.4595
   79MOL0     H10836   5.689   8.374   3.317  1.2878  1.6052 -1.9599
   79MOL0     H10837   5.442   8.474   3.315 -0.8025  0.9337  1.3787
   79MOL0     H10838   5.474   8.308   3.361 -1.0680  0.1945 -0.1263
   79MOL0     H10839   5.471   8.524   3.573 -1.9281  0.2124 -1.0109
   79MOL0     H10840   5.323   8.459   3.531 -0.8787 -1.5713  1.8664
   79MOL0     H10841   5.443   8.223   3.577 -2.8894  0.4959  0.2345
   79MOL0     H10842   5.554   8.322   3.679 -1.5423  2.2715  3.5402
   79MOL0     H10843   5.257   8.297   3.711 -0.8259  2.5644  1.7406
   79MOL0     H10844   5.353   8.442   3.759 -1.3949 -0.0897  1.7535
   79MOL0     H10845   5.412   8.168   3.881 -0.3208 -0.4664  0.8484
   79MOL0     H10846   5.488   8.330   3.917  0.5451 -0.1061  2.0205
   79MOL0     H10847   5.258   8.401   3.980  3.5109  0.7380  0.0222
   79MOL0     H10848   5.317   8.271   4.089 -1.5341  0.3802  0.0451
   79MOL0     H10849   5.085   8.222   4.021 -0.8281 -0.6626 -0.6021
   79MOL0     H10850   5.122   8.242   3.851 -1.3659  0.9424  1.4806
   79MOL0     H10851   5.286   8.035   4.153  2.4385 -3.5823  0.9451
   79MOL0     H10852   5.220   7.745   4.176  2.6165 -1.9156  1.2458
   79MOL0     H10853   5.388   7.779   4.145  0.3659  2.4754  0.1814
   79MOL0     H10854   5.326   7.555   4.102 -0.1734  0.8143 -0.5328
   79MOL0     H10855   5.217   7.604   3.966  0.2966 -1.2759  0.6600
   79MOL0     H10856   5.445   7.741   3.885  1.6369 -0.0722 -0.3419
   79MOL0     H10857   5.527   7.613   3.980  0.5173  1.0844  0.1305
   79MOL0     H10858   5.511   7.537   3.779  1.0720 -2.1543  0.5793
   79MOL0     H10859   5.394   7.442   3.855  0.4831  0.9946  1.6673
   79MOL0     H10860   5.334   7.809   3.607  0.2402 -0.5814 -0.2636
   79MOL0     H10861   5.405   7.978   3.447 -2.4456 -0.5726  0.5648
   79MOL0     H10862   5.314   7.920   3.308  0.4875 -0.4367 -0.0554
   79MOL0     H10863   5.494   7.944   3.312 -1.8101 -0.0024 -2.8874
   79MOL0     H10864   5.568   7.705   2.930  0.2973  0.5709  1.5616
   79MOL0     H10865   5.709   7.672   2.734  2.3593 -1.4659 -1.2650
   79MOL0     H10866   6.047   7.622   2.562 -0.4869 -0.9400  1.2549
   79MOL0     H10867   5.881   7.622   2.591 -1.9806  3.2722  1.5292
   79MOL0     H10868   5.872   7.844   2.661  1.3318  3.9429 -0.0723
   79MOL0     H10869   6.043   7.862   2.700  1.7094  2.2574 -2.0831
   79MOL0     H10870   5.946   7.830   2.411 -0.2832 -0.2688  0.0037
   79MOL0     H10871   6.110   7.830   2.461  0.5169  1.6418 -0.9899
   79MOL0     H10872   6.059   8.069   2.576 -1.4379  1.4536  0.7304
   79MOL0     H10873   5.904   8.039   2.507 -0.8370 -1.5320 -0.4938
   79MOL0     H10874   6.182   8.061   2.382  0.0160 -2.5098  1.0866
   79MOL0     H10875   6.046   7.989   2.280 -0.4677  3.1062 -1.9785
   79MOL0     H10876   6.049   8.255   2.436 -1.6290 -0.9595  0.5309
   79MOL0     H10877   5.926   8.188   2.316 -0.0442  2.2480 -2.7332
   79MOL0     H10878   6.116   8.198   2.149 -1.0321  2.5544 -2.1634
   79MOL0     H10879   6.205   8.291   2.265  0.8989  2.5997 -0.0627
   79MOL0     H10880   6.010   8.449   2.279 -2.8667 -1.4397  0.9105
   79MOL0     H10881   5.959   8.369   2.136  1.0626  2.9082 -3.0076
   79MOL0     H10882   6.037   7.591   3.001 -0.0245  1.6376 -1.3136
   79MOL0     H10883   5.868   7.516   3.176 -0.1026 -1.1863  0.1207
   79MOL0     H10884   5.521   7.456   3.325 -0.8643 -0.3711  0.4714
   79MOL0     H10885   5.454   7.399   3.562 -1.9743 -1.2901 -1.1018
   79MOL0     H10886   5.698   8.770   3.191  1.2105  2.4766  1.4546
   79MOL0     H10887   5.947   8.842   3.109  0.4884 -0.7068 -2.0620
   79MOL0     H10888   6.348   8.748   3.036  0.1137  1.2047 -3.5616
   79MOL0     H10889   6.511   8.874   2.920  2.5000 -1.3795  0.4433
   79MOL0     H10890   6.727   8.924   2.942  0.7279 -1.1573 -2.1163
   79MOL0     H10891   6.657   9.050   2.838  0.9454  2.2432 -0.7299
   79MOL0     H10892   6.905   9.066   2.802 -0.3185 -0.1538 -0.3482
   79MOL0     H10893   6.920   9.054   2.977  0.8019  0.7678 -0.3824
   79MOL0     H10894   6.788   9.286   2.834  0.3096  0.0631 -0.6547
   79MOL0     H10895   6.839   9.283   3.002 -0.0595  3.6680 -1.7206
   79MOL0     H10896   7.023   9.265   2.775  0.1262 -1.7778  1.6822
   79MOL0     H10897   7.085   9.255   2.941  1.5098  1.0911  0.6440
   79MOL0     H10898   7.045   9.669   2.878  1.5126  0.1262  1.5362
   79MOL0     H10899   6.539   9.158   3.251  1.4622 -1.1045  1.0548
   79MOL0     H10900   6.431   9.052   3.453  1.4527 -1.4763 -2.9945
   79MOL0     H10901   6.349   9.186   3.370  4.9574  0.0602 -0.6269
   79MOL0     H10902   6.250   9.048   3.433 -1.8291  1.1149 -0.8337
   80MOL0     O10903   7.949   3.572   0.038  0.1730  0.3470 -0.1063
   80MOL0     C10904   7.954   3.482  -0.051  0.6854 -0.6810 -0.1249
   80MOL0     O10905   7.846   3.405  -0.084  0.7493 -0.0262 -0.0959
   80MOL0     C10906   7.726   3.416  -0.015 -0.3643 -0.3026 -0.4790
   80MOL0     C10907   7.716   3.333   0.102 -1.3816  0.1792 -0.4546
   80MOL0     C10908   7.605   3.344   0.176 -0.0887  1.8783  0.5176
   80MOL0     C10909   7.500   3.436   0.142  0.0867  1.7849 -0.2347
   80MOL0     O10910   7.397   3.440   0.229 -0.2782 -0.7396 -0.6367
   80MOL0     C10911   7.281   3.389   0.178  0.1490 -0.3733  0.0177
   80MOL0     C10912   7.228   3.298   0.278  0.4752  0.2696 -0.4941
   80MOL0     C10913   7.164   3.373   0.403 -0.2495  0.0419 -0.0498
   80MOL0     C10914   7.035   3.433   0.364  0.2763  0.4479 -0.4021
   80MOL0     C10915   6.940   3.488   0.476  0.4257  0.2723 -0.3568
   80MOL0     C10916   6.945   3.639   0.500  0.3434  0.5742 -0.6187
   80MOL0     C10917   6.830   3.695   0.586  0.9171 -0.2258  0.4764
   80MOL0     C10918   6.824   3.846   0.582 -0.3405 -0.2816 -0.2879
   80MOL0     N10919   6.718   3.894   0.663 -0.7739  0.7786 -0.9408
   80MOL0     C10920   6.606   3.832   0.705 -0.0953  0.3138  0.9854
   80MOL0     C10921   6.526   3.922   0.754 -1.0401 -0.1418  0.2094
   80MOL0     C10922   6.386   3.915   0.801 -0.5410 -0.9416 -0.2221
   80MOL0     C10923   6.370   3.825   0.918 -0.4911  0.1573 -0.6789
   80MOL0     C10924   6.232   3.856   0.995 -0.7945  0.0842  0.4254
   80MOL0     C10925   6.100   3.836   0.917  0.1484 -0.5790 -0.1868
   80MOL0     O10926   6.093   3.705   0.858  0.0107 -0.4557  0.0018
   80MOL0     C10927   5.977   3.678   0.799  0.2953 -0.2006 -0.9191
   80MOL0     C10928   5.983   3.680   0.663  0.0310  0.6394  0.3147
   80MOL0     C10929   5.874   3.642   0.585  0.3561 -0.0366  0.2885
   80MOL0     C10930   5.906   3.662   0.437  0.4949  0.5695 -0.8311
   80MOL0     C10931   5.751   3.596   0.646 -0.1529 -0.6426 -0.8214
   80MOL0     C10932   5.634   3.556   0.574 -0.2983  0.5786 -0.6154
   80MOL0     O10933   5.548   3.463   0.635 -0.2247 -0.0419 -0.6789
   80MOL0     C10934   5.447   3.413   0.558 -0.2660  0.3274  0.8312
   80MOL0     C10935   5.422   3.273   0.584 -0.4832  0.0042 -0.0308
   80MOL0     C10936   5.323   3.197   0.518  0.2962 -1.1744 -0.0896
   80MOL0     C10937   5.257   3.272   0.418  0.2016 -0.5479 -0.6441
   80MOL0     O10938   5.159   3.207   0.350 -0.0019 -0.1372  0.2737
   80MOL0     C10939   5.146   3.240   0.203 -0.3092 -0.6196 -0.0133
   80MOL0     C10940   5.275   3.192   0.126  0.2962  0.5146 -0.6830
   80MOL0     C10941   5.258   3.226  -0.022 -0.0422  0.2824  0.8127
   80MOL0     C10942   5.157   3.136  -0.088  0.0513 -0.1089 -0.4608
   80MOL0     C10943   5.158   3.156  -0.237  0.9525 -0.2345  0.3884
   80MOL0     C10944   5.056   3.087  -0.316 -0.1665  0.2604  0.4411
   80MOL0     C10945   5.068   3.074  -0.466  0.3204  0.1573  1.4667
   80MOL0     C10946   5.100   2.928  -0.499 -0.2761  0.0056  0.2579
   80MOL0    Cl10947   5.261   2.893  -0.432 -0.0819 -0.4126  0.3603
   80MOL0     C10948   5.268   3.407   0.399 -0.2435 -0.3131  0.4903
   80MOL0     C10949   5.361   3.485   0.470 -0.6044 -0.5184 -0.3194
   80MOL0     O10950   5.625   3.600   0.466  1.2487 -0.5521 -0.1615
   80MOL0     C10951   5.755   3.592   0.789  0.4457  0.1140  0.5670
   80MOL0     C10952   5.866   3.624   0.863  0.1832 -0.1740  0.0527
   80MOL0     N10953   6.596   4.043   0.742  0.3614 -0.4196  0.0044
   80MOL0     N10954   6.707   4.026   0.689 -0.1974  0.8808  0.0683
   80MOL0     C10955   7.505   3.498   0.023 -0.3235  0.3760 -0.2135
   80MOL0     C10956   7.619   3.484  -0.062  0.3570 -0.3244  0.1184
   80MOL0     C10957   8.069   3.464  -0.129 -0.6388 -0.2828  0.7625
   80MOL0     C10958   8.056   3.363  -0.224  0.9780 -0.1165  0.1192
   80MOL0     C10959   8.173   3.321  -0.298 -0.4627  0.0298  0.0082
   80MOL0     C10960   8.290   3.389  -0.294  0.6467  0.5651 -0.4713
   80MOL0     O10961   8.406   3.351  -0.344 -0.7575  0.1416 -0.2469
   80MOL0     C10962   8.415   3.229  -0.420  0.0439  0.7456 -0.5397
   80MOL0     C10963   8.563   3.169  -0.425  0.0619  0.9051  0.6771
   80MOL0     C10964   8.680   3.257  -0.461 -0.1482 -0.0430 -0.1732
   80MOL0     C10965   8.817   3.182  -0.458  0.2286 -0.4209 -0.0923
   80MOL0     C10966   8.863   3.154  -0.324 -0.5263  0.6131 -0.0569
   80MOL0     C10967   8.896   3.136  -0.208  0.4588  1.0027  0.5546
   80MOL0     C10968   8.299   3.492  -0.207  0.0222 -0.7843  0.5443
   80MOL0     C10969   8.195   3.537  -0.127  0.3334 -0.6466 -0.2074
   80MOL0     C10970   8.221   3.664  -0.045  0.2527 -0.0060  0.3960
   80MOL0     H10971   7.792   3.262   0.133 -1.0830 -0.7535 -3.0583
   80MOL0     H10972   7.584   3.295   0.270 -2.2362 -0.7349 -1.2010
   80MOL0     H10973   7.288   3.346   0.077 -1.1154 -0.0515 -0.2284
   80MOL0     H10974   7.209   3.471   0.167  0.1042 -0.6812 -2.9900
   80MOL0     H10975   7.142   3.240   0.243  0.6413 -0.0607 -0.3623
   80MOL0     H10976   7.300   3.222   0.308 -0.1973 -0.2977 -0.2944
   80MOL0     H10977   7.148   3.300   0.483 -0.1141  0.9233  0.8018
   80MOL0     H10978   7.233   3.450   0.439 -1.2790  0.4000  1.2433
   80MOL0     H10979   7.055   3.520   0.301 -0.7479  0.0689 -1.2665
   80MOL0     H10980   6.980   3.360   0.304  2.3759 -0.3075 -1.5099
   80MOL0     H10981   6.972   3.448   0.572  1.6475  2.7577  0.3485
   80MOL0     H10982   6.838   3.460   0.450  0.9187 -1.3709 -0.6509
   80MOL0     H10983   7.045   3.665   0.536 -0.0744 -0.8270  1.7846
   80MOL0     H10984   6.936   3.704   0.412  2.0743  4.6167  1.9102
   80MOL0     H10985   6.826   3.650   0.686 -1.2225 -1.0057  0.1008
   80MOL0     H10986   6.740   3.653   0.540  3.0976  0.2949 -4.9927
   80MOL0     H10987   6.923   3.870   0.623  1.1535 -3.3478 -1.7351
   80MOL0     H10988   6.817   3.893   0.484 -0.0823  2.3858  0.8697
   80MOL0     H10989   6.585   3.726   0.695  2.1929 -0.1667  0.7086
   80MOL0     H10990   6.324   3.882   0.717 -1.7215  3.4602 -1.3358
   80MOL0     H10991   6.362   4.021   0.814  0.7866 -0.4760 -1.1898
   80MOL0     H10992   6.375   3.725   0.875  2.7716 -0.1576  0.1654
   80MOL0     H10993   6.440   3.826   1.002 -0.3000  0.0162 -0.8350
   80MOL0     H10994   6.236   3.811   1.095  3.7873  1.7597  1.2503
   80MOL0     H10995   6.226   3.961   1.026 -1.4142 -0.2718  1.6087
   80MOL0     H10996   6.015   3.857   0.982  1.0565 -5.1880  3.0500
   80MOL0     H10997   6.095   3.914   0.841  0.3949 -0.6677 -0.2955
   80MOL0     H10998   6.070   3.725   0.615  0.8555  0.8058  1.8912
   80MOL0     H10999   5.867   3.761   0.414  0.3181  0.6324 -0.2710
   80MOL0     H11000   5.852   3.588   0.376  0.8605  0.7806 -1.4231
   80MOL0     H11001   6.010   3.638   0.411 -0.5280 -2.5837 -2.5874
   80MOL0     H11002   5.491   3.226   0.654 -0.0784  2.4265  1.2988
   80MOL0     H11003   5.312   3.092   0.543  1.1744 -0.7944  2.0667
   80MOL0     H11004   5.062   3.177   0.175 -1.4003 -0.6836  3.0267
   80MOL0     H11005   5.109   3.340   0.179  3.0974  1.2580  1.6545
   80MOL0     H11006   5.361   3.244   0.170  1.1112 -0.8023 -0.6503
   80MOL0     H11007   5.279   3.085   0.149 -1.9885  0.7200  1.0370
   80MOL0     H11008   5.355   3.222  -0.072  1.6939  2.4249  3.6890
   80MOL0     H11009   5.226   3.330  -0.030  0.4291  0.3146 -1.1701
   80MOL0     H11010   5.058   3.163  -0.052 -0.6081 -3.0131  0.0994
   80MOL0     H11011   5.167   3.029  -0.068  0.4205 -0.4587 -2.2987
   80MOL0     H11012   5.140   3.263  -0.254  0.1379 -0.1960  1.4561
   80MOL0     H11013   5.255   3.135  -0.284  0.8333 -0.4068  0.2187
   80MOL0     H11014   4.956   3.120  -0.286 -1.0576 -1.6310 -0.2795
   80MOL0     H11015   5.053   2.990  -0.265  0.9203  1.4462  2.9540
   80MOL0     H11016   5.153   3.130  -0.505  1.6764 -3.6954 -1.7507
   80MOL0     H11017   4.983   3.113  -0.522  1.0642  2.0717  1.5882
   80MOL0     H11018   5.123   2.918  -0.605  0.7362  2.5161  0.1563
   80MOL0     H11019   5.027   2.857  -0.459  1.3309 -0.8589  1.8277
   80MOL0     H11020   5.203   3.459   0.329 -1.6386  1.4187  2.9133
   80MOL0     H11021   5.370   3.594   0.466  0.1098 -0.5085  1.1020
   80MOL0     H11022   5.669   3.547   0.837 -1.3082 -1.7001 -3.7788
   80MOL0     H11023   5.849   3.634   0.969  2.0561 -2.8923  0.7133
   80MOL0     H11024   7.442   3.584   0.002 -0.4916  1.3074  3.4460
   80MOL0     H11025   7.611   3.531  -0.160 -1.6191  0.9708  0.8421
   80MOL0     H11026   7.968   3.299  -0.236 -0.9797  2.2058  1.2640
   80MOL0     H11027   8.168   3.228  -0.353 -1.4178 -1.5289  2.5883
   80MOL0     H11028   8.361   3.142  -0.380  1.1913 -0.6733 -1.9131
   80MOL0     H11029   8.390   3.247  -0.525 -2.3095 -1.0199 -0.3635
   80MOL0     H11030   8.556   3.096  -0.506 -1.8341 -0.1305  1.7394
   80MOL0     H11031   8.585   3.108  -0.337  0.0448  0.1298  0.1438
   80MOL0     H11032   8.675   3.294  -0.564 -0.3755 -0.6428 -0.3851
   80MOL0     H11033   8.686   3.342  -0.393  1.1393 -1.6114  1.7534
   80MOL0     H11034   8.895   3.226  -0.520  0.2961 -3.3450 -2.3105
   80MOL0     H11035   8.802   3.093  -0.519 -0.0946  0.7768 -1.8148
   80MOL0     H11036   8.915   3.134  -0.103 -0.9746  2.3983  0.8846
   80MOL0     H11037   8.397   3.537  -0.196  0.3619 -1.6349  1.0745
   80MOL0     H11038   8.317   3.715  -0.043 -2.1512  5.1042  0.0681
   80MOL0     H11039   8.161   3.736  -0.101 -1.6395 -2.3263 -0.7483
   80MOL0     H11040   8.185   3.662   0.058  5.5638 -2.0243  2.5518
   81MOL0     O11041   3.760   8.072   9.533  0.2737 -0.2759  0.7920
   81MOL0     C11042   3.682   7.987   9.586 -0.9678  0.0093  0.2983
   81MOL0     O11043   3.714   7.910   9.693  0.1565  0.5817  0.5476
   81MOL0     C11044   3.843   7.892   9.725 -0.1788 -0.9687  0.1426
   81MOL0     C11045   3.860   7.858   9.856 -0.3182 -0.1338  0.0263
   81MOL0     C11046   3.992   7.836   9.921 -0.3894  0.3011 -0.4814
   81MOL0     C11047   4.102   7.843   9.831 -0.5603  0.0163  0.9074
   81MOL0     O11048   4.229   7.819   9.883 -0.0437  0.4099  0.2137
   81MOL0     C11049   4.306   7.733   9.797 -0.6423 -0.1616 -0.9455
   81MOL0     C11050   4.407   7.650   9.884  0.0554  0.6550 -0.2959
   81MOL0     C11051   4.521   7.727   9.949  0.2776  0.0189  0.0115
   81MOL0     C11052   4.640   7.774   9.858 -0.0954 -0.5687 -0.2961
   81MOL0     C11053   4.761   7.818   9.946 -0.2740 -0.2517  0.6976
   81MOL0     C11054   4.892   7.869   9.880  0.2328  0.2774  0.1359
   81MOL0     C11055   4.861   7.997   9.809  0.0841 -0.5344 -0.1840
   81MOL0     C11056   4.992   8.071   9.790 -0.6360 -0.7430 -0.3642
   81MOL0     N11057   5.004   8.166   9.901  0.6112 -0.4189  0.5412
   81MOL0     C11058   5.026   8.124  10.034  0.4806 -0.8316  0.5835
   81MOL0     C11059   5.090   8.228  10.093  0.2569  0.4759  0.3049
   81MOL0     C11060   5.132   8.245  10.248  0.7258  0.9888  0.0452
   81MOL0     C11061   5.018   8.290  10.338  0.2565 -0.3154 -0.1230
   81MOL0     C11062   4.971   8.428  10.300 -0.3278  0.0381  0.1827
   81MOL0     C11063   4.820   8.449  10.282 -0.5753 -0.3067 -0.2343
   81MOL0     O11064   4.769   8.338  10.206 -0.2023 -0.3737 -0.7368
   81MOL0     C11065   4.655   8.340  10.138  0.8765 -0.0092 -0.4227
   81MOL0     C11066   4.654   8.407  10.014 -0.1690  0.1737 -0.6382
   81MOL0     C11067   4.538   8.409   9.934 -0.1052  1.0159 -0.0070
   81MOL0     C11068   4.553   8.485   9.803 -0.1858  0.7802 -0.1933
   81MOL0     C11069   4.412   8.356   9.983  0.3518 -0.7775  0.1480
   81MOL0     C11070   4.286   8.355   9.905  0.6553 -0.0136  0.9474
   81MOL0     O11071   4.175   8.314   9.968 -0.0824 -0.3092 -0.3161
   81MOL0     C11072   4.053   8.318   9.903  0.6560  0.1364  0.4579
   81MOL0     C11073   3.967   8.202   9.918  0.1724 -0.3510 -0.6305
   81MOL0     C11074   3.834   8.211   9.868  0.4565 -0.6731  0.1002
   81MOL0     C11075   3.784   8.330   9.816 -0.2668  0.8213  0.5305
   81MOL0     O11076   3.666   8.326   9.753  0.3776 -0.0004 -1.0740
   81MOL0     C11077   3.559   8.410   9.804  0.0289  0.3413 -0.3863
   81MOL0     C11078   3.475   8.448   9.686  0.7969 -0.2577 -0.0890
   81MOL0     C11079   3.550   8.460   9.548  0.1045 -1.1779  0.0056
   81MOL0     C11080   3.452   8.508   9.439 -0.3463  0.3992 -1.5501
   81MOL0     C11081   3.523   8.507   9.303 -0.4557  0.5117  0.5415
   81MOL0     C11082   3.555   8.357   9.250  0.4718 -0.2271 -0.0352
   81MOL0     C11083   3.423   8.278   9.233  1.3366  0.1612  0.2432
   81MOL0     C11084   3.428   8.181   9.112 -0.1177  0.0127 -0.7215
   81MOL0    Cl11085   3.339   8.236   8.963  0.2561 -0.3194  0.1989
   81MOL0     C11086   3.868   8.435   9.798  0.2534 -0.6022  1.0281
   81MOL0     C11087   4.003   8.439   9.843 -0.1419  0.0366  0.0972
   81MOL0     O11088   4.288   8.386   9.786 -0.0300 -0.5442  0.1492
   81MOL0     C11089   4.415   8.295  10.110 -0.2939 -0.5920 -1.2177
   81MOL0     C11090   4.531   8.294  10.185 -0.5088 -1.6987  0.4413
   81MOL0     N11091   5.101   8.338  10.005 -0.1038  0.5671 -0.2725
   81MOL0     N11092   5.058   8.294   9.889 -0.2938 -0.0391 -0.2934
   81MOL0     C11093   4.083   7.885   9.696 -0.1722 -1.5217  0.1180
   81MOL0     C11094   3.960   7.898   9.637  0.3859  0.4282  0.1317
   81MOL0     C11095   3.576   7.927   9.512 -0.7012  0.4033 -0.3434
   81MOL0     C11096   3.599   7.824   9.417  0.5723 -0.4787  1.1374
   81MOL0     C11097   3.495   7.772   9.334  1.3671 -0.0502 -0.4171
   81MOL0     C11098   3.364   7.828   9.341  0.3160 -0.1090 -0.1443
   81MOL0     O11099   3.254   7.785   9.272  0.6725  0.0624  0.3708
   81MOL0     C11100   3.261   7.675   9.178 -0.4585  0.4312 -0.1048
   81MOL0     C11101   3.335   7.706   9.046  0.6626  0.3686 -0.5209
   81MOL0     C11102   3.234   7.784   8.965 -0.2605 -0.0075 -0.1922
   81MOL0     C11103   3.275   7.830   8.822  0.4080 -0.3439  0.3259
   81MOL0     C11104   3.344   7.728   8.750 -0.1761 -0.3377  1.5580
   81MOL0     C11105   3.408   7.651   8.671  0.3375  0.1626 -0.4008
   81MOL0     C11106   3.345   7.927   9.433 -0.4046 -0.9762  0.0267
   81MOL0     C11107   3.442   7.971   9.524  0.1019  0.4970  0.0567
   81MOL0     C11108   3.401   8.069   9.633  0.1621  0.0697 -0.0596
   81MOL0     H11109   3.772   7.862   9.920  0.7215 -1.4264  1.6132
   81MOL0     H11110   3.994   7.810  10.027 -4.3289 -2.5682 -0.8774
   81MOL0     H11111   4.364   7.798   9.731  0.6932  0.5048  0.7777
   81MOL0     H11112   4.245   7.658   9.746 -0.1337  0.6361 -2.7912
   81MOL0     H11113   4.346   7.605   9.962  0.3657 -4.0157 -2.4536
   81MOL0     H11114   4.454   7.567   9.832 -1.1115  1.2622 -2.4232
   81MOL0     H11115   4.480   7.818   9.995 -0.8352 -0.2000 -0.5219
   81MOL0     H11116   4.557   7.667  10.033  1.8458  2.2228  1.0230
   81MOL0     H11117   4.671   7.687   9.799  1.2247  0.0218 -0.4910
   81MOL0     H11118   4.614   7.852   9.787 -0.1014 -0.6265 -0.3572
   81MOL0     H11119   4.792   7.731  10.004 -1.2074  0.7778  2.8260
   81MOL0     H11120   4.724   7.886  10.023 -2.0387 -0.7229  0.3131
   81MOL0     H11121   4.975   7.878   9.952  0.7799  2.5620 -0.7118
   81MOL0     H11122   4.918   7.789   9.810 -2.3504 -2.7128  2.2870
   81MOL0     H11123   4.787   8.061   9.857  0.6886 -1.5225  2.2151
   81MOL0     H11124   4.824   7.959   9.713 -0.7599  0.7405 -0.3868
   81MOL0     H11125   5.079   8.003   9.792 -0.0672 -0.0534  2.0276
   81MOL0     H11126   5.003   8.113   9.689  2.8757  0.8681  0.5249
   81MOL0     H11127   5.002   8.030  10.082 -0.3377 -0.0749  1.7116
   81MOL0     H11128   5.206   8.324  10.263  0.2919  1.2837  0.6898
   81MOL0     H11129   5.171   8.147  10.276  3.8884  1.4005 -2.4007
   81MOL0     H11130   4.932   8.223  10.337  1.9524 -2.5967 -1.2905
   81MOL0     H11131   5.048   8.292  10.443 -1.9702  1.4620  0.5540
   81MOL0     H11132   5.002   8.502  10.375 -0.9064  0.9674 -0.4901
   81MOL0     H11133   5.022   8.450  10.206 -1.5822  0.9382 -0.3121
   81MOL0     H11134   4.770   8.452  10.380  1.0764 -3.4868  0.8410
   81MOL0     H11135   4.809   8.548  10.236  0.2873 -1.0905 -2.2164
   81MOL0     H11136   4.742   8.454   9.970  2.1881 -0.0220  3.3879
   81MOL0     H11137   4.657   8.512   9.780  0.2876 -1.7943 -1.4118
   81MOL0     H11138   4.494   8.577   9.800 -1.0779  0.5604  3.8455
   81MOL0     H11139   4.541   8.411   9.724  0.5209  1.1378 -0.6460
   81MOL0     H11140   3.993   8.111   9.971 -1.1707 -0.8795 -0.8589
   81MOL0     H11141   3.770   8.123   9.862 -1.2654  0.1805  3.4852
   81MOL0     H11142   3.502   8.354   9.878  3.7280  0.9946  3.3458
   81MOL0     H11143   3.603   8.503   9.842 -1.4906  1.6566 -1.6990
   81MOL0     H11144   3.398   8.371   9.685  0.5351  0.0028 -0.9889
   81MOL0     H11145   3.434   8.547   9.711  0.9988 -0.2306  0.1350
   81MOL0     H11146   3.592   8.363   9.520  0.4023 -0.9870 -0.2101
   81MOL0     H11147   3.623   8.541   9.557 -2.0299  0.9376 -0.8534
   81MOL0     H11148   3.425   8.613   9.449 -0.6786  0.4099 -2.5147
   81MOL0     H11149   3.366   8.442   9.451  0.0005 -0.0021 -1.1979
   81MOL0     H11150   3.463   8.544   9.220 -0.5803  0.4784  0.6160
   81MOL0     H11151   3.617   8.562   9.316 -0.8406  1.2287  0.3734
   81MOL0     H11152   3.630   8.303   9.309  0.8700  2.0978  1.7483
   81MOL0     H11153   3.596   8.364   9.149  0.9208 -1.1912  0.0741
   81MOL0     H11154   3.344   8.353   9.226  3.2844  2.3322  0.5379
   81MOL0     H11155   3.399   8.223   9.325  1.4608  0.5867  0.5300
   81MOL0     H11156   3.387   8.082   9.131 -2.3539  0.8787 -0.7107
   81MOL0     H11157   3.535   8.168   9.093 -0.2673  0.7205 -2.2566
   81MOL0     H11158   3.814   8.510   9.741 -0.5257 -2.6757 -1.1586
   81MOL0     H11159   4.066   8.528   9.838  0.8629 -0.6645 -0.0515
   81MOL0     H11160   4.328   8.249  10.157 -1.3227  2.7980  0.5349
   81MOL0     H11161   4.526   8.239  10.278 -1.5508 -1.6403  0.4318
   81MOL0     H11162   4.167   7.888   9.627 -2.8537 -1.8078 -3.4818
   81MOL0     H11163   3.942   7.911   9.531  0.8340 -1.7570 -0.2583
   81MOL0     H11164   3.694   7.780   9.392 -0.7470 -2.4214 -0.8447
   81MOL0     H11165   3.508   7.698   9.256  0.3068 -2.0124  1.1585
   81MOL0     H11166   3.314   7.595   9.232  1.1250  2.6964  1.9411
   81MOL0     H11167   3.162   7.633   9.161  0.1291 -1.3328  0.5709
   81MOL0     H11168   3.361   7.612   8.996 -1.6623  0.5859 -2.2721
   81MOL0     H11169   3.429   7.760   9.060  1.0381  0.1351 -1.9776
   81MOL0     H11170   3.156   7.709   8.947 -2.0294  1.4861  0.8922
   81MOL0     H11171   3.197   7.872   9.019  1.9864  0.9579 -0.0935
   81MOL0     H11172   3.342   7.917   8.820  0.5384 -0.4519 -0.6067
   81MOL0     H11173   3.184   7.860   8.769 -1.0288 -1.0495  2.3035
   81MOL0     H11174   3.466   7.586   8.609  0.7472 -1.2910  1.4250
   81MOL0     H11175   3.249   7.972   9.456 -0.0488 -0.2781  0.1841
   81MOL0     H11176   3.376   8.163   9.583 -2.1133 -1.3280 -1.7269
   81MOL0     H11177   3.318   8.039   9.697  1.2317  1.1957  1.9636
   81MOL0     H11178   3.479   8.098   9.704 -1.6082  0.4285  1.8149
   82MOL0     O11179   9.100   1.517   7.230  0.6860  0.3385 -0.8453
   82MOL0     C11180   9.062   1.425   7.302 -0.5087  0.3995  0.3963
   82MOL0     O11181   8.928   1.415   7.352 -0.6094 -0.4511  0.0886
   82MOL0     C11182   8.851   1.520   7.315 -0.4967 -0.4731  0.6613
   82MOL0     C11183   8.848   1.642   7.390 -0.0963  0.1368 -0.0187
   82MOL0     C11184   8.775   1.755   7.342 -0.2599  0.3413  0.0382
   82MOL0     C11185   8.708   1.749   7.218 -0.2669  0.4222 -0.8224
   82MOL0     O11186   8.623   1.845   7.175  0.1136 -0.7988  0.5990
   82MOL0     C11187   8.499   1.850   7.257 -0.8849 -0.4492  0.2283
   82MOL0     C11188   8.440   1.992   7.230  0.5611  0.2831 -0.3482
   82MOL0     C11189   8.544   2.103   7.249  0.3889 -0.3702  0.2187
   82MOL0     C11190   8.472   2.235   7.297  0.0225  0.3633 -0.1882
   82MOL0     C11191   8.565   2.350   7.344 -0.1040  0.1818  0.1981
   82MOL0     C11192   8.647   2.418   7.229  1.2569 -0.6529 -0.0330
   82MOL0     C11193   8.715   2.540   7.296  0.2797  0.1520 -0.0357
   82MOL0     C11194   8.796   2.625   7.194  0.3087 -0.0615  0.1288
   82MOL0     N11195   8.704   2.690   7.099 -0.2295 -0.5418  0.4510
   82MOL0     C11196   8.576   2.725   7.136 -0.3844  0.4107 -0.0992
   82MOL0     C11197   8.509   2.750   7.026  0.5485 -1.0019 -0.7650
   82MOL0     C11198   8.366   2.800   7.003  0.5097  0.5475 -0.7621
   82MOL0     C11199   8.368   2.927   6.922  1.0020 -0.1615  0.3639
   82MOL0     C11200   8.432   3.050   6.996  0.1940 -0.5578 -0.3100
   82MOL0     C11201   8.441   3.174   6.909 -0.3103  0.2457  0.8457
   82MOL0     O11202   8.324   3.174   6.815  0.0233  0.1856 -0.3914
   82MOL0     C11203   8.226   3.265   6.838  0.0165  0.4630 -0.8735
   82MOL0     C11204   8.132   3.267   6.737 -0.6353 -0.2851  0.1220
   82MOL0     C11205   8.012   3.345   6.739 -1.0755 -0.0520 -0.7269
   82MOL0     C11206   7.911   3.355   6.630  0.7759  0.0697 -0.2857
   82MOL0     C11207   7.995   3.425   6.852  0.1693  0.3791  0.1074
   82MOL0     C11208   7.872   3.514   6.859 -0.5585 -0.5612  0.1658
   82MOL0     O11209   7.845   3.598   6.748 -0.9044  1.1711 -0.0647
   82MOL0     C11210   7.736   3.681   6.745  1.0654  0.4063  0.7017
   82MOL0     C11211   7.767   3.817   6.722 -0.1719  0.6804  0.3460
   82MOL0     C11212   7.661   3.917   6.705  0.6954  0.9757  0.2146
   82MOL0     C11213   7.526   3.875   6.714 -1.6144 -0.7731  0.1577
   82MOL0     O11214   7.429   3.971   6.703  0.7892  0.1745  0.2943
   82MOL0     C11215   7.454   4.103   6.758  0.9432  0.3473  0.7123
   82MOL0     C11216   7.469   4.107   6.912 -0.2366  0.6938 -0.8253
   82MOL0     C11217   7.465   4.251   6.951 -0.4202 -0.3154  0.0776
   82MOL0     C11218   7.471   4.289   7.095 -0.2014  0.0722 -0.5168
   82MOL0     C11219   7.488   4.441   7.117  0.4512  1.1881 -0.0330
   82MOL0     C11220   7.635   4.478   7.090 -0.2130  0.3717 -0.5165
   82MOL0     C11221   7.663   4.623   7.081 -0.0148 -0.0019  0.3814
   82MOL0     C11222   7.802   4.662   7.025 -0.4443 -0.0750 -0.0632
   82MOL0    Cl11223   7.930   4.584   7.124  0.3588  0.2730 -0.6100
   82MOL0     C11224   7.497   3.740   6.738 -0.2735 -0.0174 -0.3771
   82MOL0     C11225   7.601   3.644   6.752  0.3327 -0.4484 -0.1119
   82MOL0     O11226   7.804   3.504   6.956  0.9058  0.2388 -0.3166
   82MOL0     C11227   8.086   3.419   6.957  0.3685 -0.0733  0.0491
   82MOL0     C11228   8.201   3.339   6.952 -0.1036 -0.0522 -0.5160
   82MOL0     N11229   8.607   2.742   6.924 -0.6683 -0.3386 -0.2406
   82MOL0     N11230   8.703   2.671   6.967  0.0070  1.0872 -0.0925
   82MOL0     C11231   8.702   1.628   7.147  0.3315  0.3628 -0.5464
   82MOL0     C11232   8.766   1.516   7.196  0.2542 -0.7310 -0.1179
   82MOL0     C11233   9.156   1.325   7.365 -0.0369 -0.2697 -0.9065
   82MOL0     C11234   9.110   1.255   7.479  0.1237  0.7865 -0.2648
   82MOL0     C11235   9.192   1.180   7.564 -0.1803 -0.0282 -0.1785
   82MOL0     C11236   9.330   1.176   7.534  0.2695 -0.2557 -0.0827
   82MOL0     O11237   9.426   1.120   7.617  0.0934  0.4013  0.0357
   82MOL0     C11238   9.432   0.979   7.615  0.2730  0.0768  0.0045
   82MOL0     C11239   9.543   0.920   7.714 -0.5363  0.4730 -0.6073
   82MOL0     C11240   9.537   0.955   7.859 -0.0114  0.8772  0.4590
   82MOL0     C11241   9.397   0.947   7.913 -0.6932 -0.5743  0.0578
   82MOL0     C11242   9.405   0.935   8.058  0.8526 -0.1419  0.0079
   82MOL0     C11243   9.423   0.909   8.172 -0.2410  0.5235 -0.2499
   82MOL0     C11244   9.372   1.240   7.420 -0.0227  0.2937 -0.9265
   82MOL0     C11245   9.298   1.319   7.336  1.3303 -0.0519  0.5260
   82MOL0     C11246   9.355   1.399   7.222  0.5982 -0.7809  0.4487
   82MOL0     H11247   8.890   1.643   7.491  0.4040 -3.0098 -0.1184
   82MOL0     H11248   8.756   1.847   7.397 -3.0086  1.4995 -2.5859
   82MOL0     H11249   8.530   1.827   7.359  3.3907 -0.9241 -0.9977
   82MOL0     H11250   8.421   1.775   7.242 -1.6615 -0.3271  3.0463
   82MOL0     H11251   8.405   1.997   7.127 -3.1365  0.5079  0.7562
   82MOL0     H11252   8.354   2.008   7.297 -2.1056 -2.4513 -2.8509
   82MOL0     H11253   8.617   2.067   7.322 -1.4533 -1.1176  1.7704
   82MOL0     H11254   8.581   2.128   7.149 -4.2842  2.3927 -1.1096
   82MOL0     H11255   8.403   2.276   7.223 -0.9741 -0.3443  0.3183
   82MOL0     H11256   8.416   2.194   7.381 -0.6886  0.1239 -0.7613
   82MOL0     H11257   8.633   2.313   7.420  1.0138 -0.0320 -0.8790
   82MOL0     H11258   8.483   2.411   7.382  1.3550  1.8921  0.7047
   82MOL0     H11259   8.727   2.349   7.202  0.5317 -1.2670 -0.6429
   82MOL0     H11260   8.580   2.444   7.146 -1.5427 -0.2399  2.1825
   82MOL0     H11261   8.783   2.505   7.374  0.6992  3.3156  1.1801
   82MOL0     H11262   8.644   2.607   7.344 -0.7440 -1.4855  0.7992
   82MOL0     H11263   8.862   2.701   7.237 -1.1371  0.5862  1.3262
   82MOL0     H11264   8.871   2.568   7.138  1.4049  0.7105  0.7755
   82MOL0     H11265   8.529   2.719   7.234  0.9975 -2.1805  0.4944
   82MOL0     H11266   8.315   2.791   7.099  0.2642 -2.4071 -1.0603
   82MOL0     H11267   8.321   2.714   6.952  0.4872 -1.6008  2.5720
   82MOL0     H11268   8.414   2.922   6.823 -0.9567  1.8082 -0.7127
   82MOL0     H11269   8.265   2.952   6.897  1.0573  0.4692  0.7499
   82MOL0     H11270   8.386   3.083   7.089  3.1595  2.6249  0.2258
   82MOL0     H11271   8.532   3.019   7.025  0.8011 -0.3353 -2.0477
   82MOL0     H11272   8.440   3.262   6.974 -0.3660  0.3167  0.7485
   82MOL0     H11273   8.529   3.168   6.843 -0.4427  0.4965  0.6462
   82MOL0     H11274   8.132   3.208   6.646 -1.5931 -0.9934  0.5654
   82MOL0     H11275   7.921   3.270   6.562  2.3412  1.7082 -2.2725
   82MOL0     H11276   7.933   3.455   6.590 -0.3921 -0.0196 -1.1898
   82MOL0     H11277   7.806   3.355   6.661  0.4459  0.9140 -1.3394
   82MOL0     H11278   7.871   3.843   6.706  0.1130  0.2501  1.3868
   82MOL0     H11279   7.684   4.021   6.686  1.0430  0.9513  0.4872
   82MOL0     H11280   7.533   4.156   6.704  1.2002 -0.5235  0.2011
   82MOL0     H11281   7.369   4.169   6.740  0.1993 -1.0122 -1.1366
   82MOL0     H11282   7.378   4.059   6.948 -0.1401  0.3640 -1.0069
   82MOL0     H11283   7.562   4.063   6.950 -0.6948 -0.2661 -0.7738
   82MOL0     H11284   7.390   4.305   6.892  0.8462  0.4122 -0.9250
   82MOL0     H11285   7.559   4.285   6.908 -1.3017  0.2946 -1.4843
   82MOL0     H11286   7.542   4.226   7.149 -3.0271 -1.3471  1.8370
   82MOL0     H11287   7.375   4.253   7.134 -2.6353  2.9933 -3.1972
   82MOL0     H11288   7.421   4.492   7.047 -0.3670 -1.1108 -1.0178
   82MOL0     H11289   7.459   4.457   7.221 -0.7068 -0.4665 -0.0582
   82MOL0     H11290   7.672   4.441   6.994 -0.2525 -0.6024 -0.1622
   82MOL0     H11291   7.699   4.429   7.163 -3.2182  0.6174  2.5395
   82MOL0     H11292   7.657   4.664   7.183 -0.6998 -1.7248  1.0773
   82MOL0     H11293   7.595   4.665   7.007  0.1172 -0.8400 -0.2292
   82MOL0     H11294   7.823   4.769   7.028  0.2094 -0.1758 -0.7589
   82MOL0     H11295   7.818   4.626   6.923 -0.6620  1.0705 -0.5213
   82MOL0     H11296   7.393   3.709   6.737 -0.0813 -1.0145  2.0776
   82MOL0     H11297   7.572   3.541   6.766 -1.7372 -0.0204 -0.8564
   82MOL0     H11298   8.073   3.478   7.047  2.9574 -1.1171  1.1870
   82MOL0     H11299   8.260   3.340   7.043 -4.7918  0.1763  2.8997
   82MOL0     H11300   8.637   1.617   7.061 -3.9992 -2.2581  2.6550
   82MOL0     H11301   8.757   1.431   7.129 -0.4359 -1.2178  0.5888
   82MOL0     H11302   9.008   1.261   7.515 -0.2454 -0.0395 -1.1375
   82MOL0     H11303   9.149   1.133   7.651 -1.6035 -1.0673 -1.3964
   82MOL0     H11304   9.335   0.940   7.645 -0.1561  0.1159 -1.2766
   82MOL0     H11305   9.448   0.948   7.511  0.9705  1.3814 -0.2989
   82MOL0     H11306   9.646   0.938   7.680 -0.7283  1.0816 -0.8673
   82MOL0     H11307   9.539   0.811   7.702  1.4432  0.3368 -0.4885
   82MOL0     H11308   9.596   0.881   7.914 -1.1331 -1.3651 -1.1623
   82MOL0     H11309   9.580   1.054   7.876 -1.7626  1.4168  2.1310
   82MOL0     H11310   9.353   0.854   7.876 -0.4790 -0.3407 -0.7975
   82MOL0     H11311   9.343   1.040   7.893  2.0592  1.3130  0.7824
   82MOL0     H11312   9.440   0.887   8.276 -1.6385 -0.3807 -0.1964
   82MOL0     H11313   9.479   1.244   7.405  0.2920  3.4150  1.2040
   82MOL0     H11314   9.452   1.352   7.205  2.1113  2.2063  0.0439
   82MOL0     H11315   9.308   1.399   7.123  0.4513 -0.8098  0.5198
   82MOL0     H11316   9.367   1.503   7.255 -0.3545 -0.3343 -0.5458
   83MOL0     O11317   5.991   4.742   8.603 -0.3703 -0.1712 -0.5136
   83MOL0     C11318   5.955   4.637   8.665  0.0572 -0.4209  0.5720
   83MOL0     O11319   5.879   4.533   8.620 -0.0886 -0.3029 -0.1500
   83MOL0     C11320   5.831   4.535   8.492 -0.4901  0.4741 -0.2247
   83MOL0     C11321   5.699   4.572   8.462  1.2080  1.0488  0.1599
   83MOL0     C11322   5.656   4.568   8.325 -1.2966  0.7701 -0.6518
   83MOL0     C11323   5.746   4.533   8.218 -0.1980 -0.0310 -1.0793
   83MOL0     O11324   5.687   4.512   8.095  0.0697 -0.5744  0.2224
   83MOL0     C11325   5.771   4.476   7.984 -0.0657  0.0415  0.0965
   83MOL0     C11326   5.683   4.446   7.861 -0.5774 -0.0047  0.2304
   83MOL0     C11327   5.763   4.438   7.732 -0.1964 -0.1776 -0.3805
   83MOL0     C11328   5.858   4.315   7.731  0.2880 -0.3609  0.5707
   83MOL0     C11329   5.909   4.308   7.586 -0.8834  0.6113  1.0157
   83MOL0     C11330   6.060   4.345   7.578  0.2183  0.0576 -0.5192
   83MOL0     C11331   6.148   4.240   7.645 -0.7489  0.2294  0.0352
   83MOL0     C11332   6.292   4.254   7.610  0.2033  0.7417  0.4008
   83MOL0     N11333   6.359   4.367   7.669 -0.6370 -0.1256  0.0539
   83MOL0     C11334   6.393   4.475   7.594  0.3977 -0.8806  0.3563
   83MOL0     C11335   6.477   4.545   7.681 -0.4137  0.9777 -0.4426
   83MOL0     C11336   6.544   4.683   7.646  0.1108  0.2328 -0.2453
   83MOL0     C11337   6.468   4.799   7.702 -0.4915  0.2199 -0.2420
   83MOL0     C11338   6.357   4.837   7.605 -0.0507 -0.2815  0.2989
   83MOL0     C11339   6.390   4.940   7.501 -0.5778 -0.3025  0.2135
   83MOL0     O11340   6.461   4.882   7.399 -0.2693  0.0420 -0.1901
   83MOL0     C11341   6.523   4.971   7.313  0.3134  0.9872  0.1937
   83MOL0     C11342   6.644   4.914   7.262 -0.1628 -0.3569 -0.2985
   83MOL0     C11343   6.728   4.981   7.172 -0.0370 -0.4108  0.1130
   83MOL0     C11344   6.854   4.918   7.129 -0.1034  0.4474  0.5443
   83MOL0     C11345   6.678   5.103   7.118  0.0779 -0.3540  0.0529
   83MOL0     C11346   6.752   5.190   7.026 -0.1029  1.6661  0.6842
   83MOL0     O11347   6.862   5.256   7.075  0.2859  0.1967 -0.4439
   83MOL0     C11348   6.957   5.316   7.003 -0.7051 -0.9348 -0.1488
   83MOL0     C11349   7.044   5.402   7.071  0.5046 -0.3757  0.1860
   83MOL0     C11350   7.145   5.466   7.004  0.4010  0.4158 -0.7781
   83MOL0     C11351   7.174   5.447   6.870 -0.5995 -0.3004 -0.3640
   83MOL0     O11352   7.268   5.509   6.793 -0.7424  0.3263  0.4358
   83MOL0     C11353   7.400   5.522   6.855 -0.3581 -0.2131 -0.0993
   83MOL0     C11354   7.499   5.556   6.742  0.5125 -0.0519 -0.2392
   83MOL0     C11355   7.477   5.688   6.667  0.2320  0.3464  0.1144
   83MOL0     C11356   7.580   5.683   6.545 -0.8407 -0.1539  0.3468
   83MOL0     C11357   7.630   5.826   6.504 -0.1316  0.5178  1.0848
   83MOL0     C11358   7.732   5.817   6.388  0.1194  0.5255  0.0794
   83MOL0     C11359   7.778   5.961   6.355  0.0967 -0.0131  0.1367
   83MOL0     C11360   7.901   5.970   6.262 -0.2451 -0.2470  1.1087
   83MOL0    Cl11361   7.842   5.925   6.104  0.3946  0.4894 -0.0782
   83MOL0     C11362   7.099   5.350   6.798  0.4352 -0.1382  0.7766
   83MOL0     C11363   6.990   5.294   6.859  0.3530  0.3280 -0.1542
   83MOL0     O11364   6.709   5.185   6.911  0.3955  0.0407  0.4030
   83MOL0     C11365   6.544   5.149   7.156  0.1219  0.1460 -0.4251
   83MOL0     C11366   6.469   5.086   7.255  0.4329  0.0993  0.5840
   83MOL0     N11367   6.493   4.466   7.797  0.7526  0.0535 -0.3177
   83MOL0     N11368   6.423   4.363   7.784  0.1899  0.0441  0.0346
   83MOL0     C11369   5.883   4.502   8.248 -0.0315  0.5791 -0.0248
   83MOL0     C11370   5.922   4.510   8.384 -0.2671  1.0151 -0.1302
   83MOL0     C11371   5.993   4.639   8.806  0.0928  0.4456  0.3176
   83MOL0     C11372   5.958   4.745   8.887  0.2505 -0.2125 -1.5105
   83MOL0     C11373   6.008   4.746   9.017  0.3499 -0.1037  0.2838
   83MOL0     C11374   6.085   4.643   9.076 -0.4137 -0.1056 -0.0329
   83MOL0     O11375   6.147   4.635   9.201  0.5743 -0.4488 -0.1624
   83MOL0     C11376   6.183   4.764   9.256 -0.0990  0.9411  0.5917
   83MOL0     C11377   6.081   4.814   9.349  0.5345 -0.4199 -0.5930
   83MOL0     C11378   6.094   4.746   9.487  0.2727  0.8534 -0.6994
   83MOL0     C11379   5.966   4.746   9.561  0.6945 -0.7265  0.1238
   83MOL0     C11380   5.927   4.617   9.607  0.5781  0.5702  0.4909
   83MOL0     C11381   5.901   4.499   9.635  0.4817  1.1153 -0.2170
   83MOL0     C11382   6.108   4.535   8.995  1.0495  0.5402  0.9012
   83MOL0     C11383   6.064   4.527   8.864  0.5135 -0.1768  0.2017
   83MOL0     C11384   6.104   4.398   8.794 -0.5843  0.2948  0.4465
   83MOL0     H11385   5.623   4.581   8.540 -0.3572 -2.1875 -0.8245
   83MOL0     H11386   5.555   4.599   8.301 -0.6941  3.3234 -0.1760
   83MOL0     H11387   5.822   4.380   7.998  0.4369 -0.2885 -3.2332
   83MOL0     H11388   5.843   4.554   7.960  0.5223 -0.5665 -0.1594
   83MOL0     H11389   5.641   4.348   7.885 -1.0329  1.0171  4.3085
   83MOL0     H11390   5.606   4.523   7.857  0.5206  1.1230  0.1840
   83MOL0     H11391   5.700   4.431   7.642  0.3562  3.1031 -1.1479
   83MOL0     H11392   5.820   4.531   7.723  0.8160 -0.3821  2.7571
   83MOL0     H11393   5.946   4.340   7.792  1.4191  2.7568 -2.0309
   83MOL0     H11394   5.801   4.224   7.751  2.0816 -1.9849 -1.2456
   83MOL0     H11395   5.854   4.363   7.509  0.8675 -0.1176 -0.8616
   83MOL0     H11396   5.891   4.207   7.550 -2.4980  1.4071 -0.5738
   83MOL0     H11397   6.084   4.346   7.472 -0.5133 -2.5332 -0.7645
   83MOL0     H11398   6.090   4.442   7.619  1.8146  0.9169 -3.4064
   83MOL0     H11399   6.119   4.139   7.612  1.8293 -0.7036  0.4456
   83MOL0     H11400   6.148   4.233   7.754  1.4881  1.0825  0.1374
   83MOL0     H11401   6.333   4.157   7.637 -1.9348 -0.3089  0.0917
   83MOL0     H11402   6.301   4.268   7.502 -4.0211  3.3034  0.1594
   83MOL0     H11403   6.360   4.506   7.496 -0.6264 -0.9256  0.6807
   83MOL0     H11404   6.530   4.694   7.538 -1.6865 -0.1915 -0.0871
   83MOL0     H11405   6.647   4.679   7.681  0.2016  1.2708 -0.3590
   83MOL0     H11406   6.426   4.767   7.798 -0.3873  2.2311  0.5191
   83MOL0     H11407   6.536   4.883   7.716  0.8049 -1.0261  1.2284
   83MOL0     H11408   6.313   4.755   7.547 -0.1596  0.1606 -0.2539
   83MOL0     H11409   6.285   4.890   7.668 -0.7493 -0.9229  0.0546
   83MOL0     H11410   6.292   4.979   7.475  0.2801  2.2180  0.4877
   83MOL0     H11411   6.447   5.020   7.550  1.0205 -1.7259  0.7634
   83MOL0     H11412   6.690   4.827   7.306  3.0781  1.9852  1.3400
   83MOL0     H11413   6.901   4.852   7.202 -0.7988 -0.7810 -0.0827
   83MOL0     H11414   6.931   4.992   7.106 -0.8334  2.1691  3.1464
   83MOL0     H11415   6.827   4.854   7.044  1.5105 -0.7681  0.8804
   83MOL0     H11416   7.027   5.416   7.178 -5.4443 -2.3705 -0.0870
   83MOL0     H11417   7.198   5.543   7.058 -2.1505 -0.1209  2.8699
   83MOL0     H11418   7.416   5.604   6.926 -0.1957  1.2020 -1.7108
   83MOL0     H11419   7.428   5.425   6.897 -2.1827 -0.5320  0.4296
   83MOL0     H11420   7.601   5.547   6.779  0.9175  2.1501 -0.6920
   83MOL0     H11421   7.479   5.478   6.668 -1.0821  1.0453 -1.0103
   83MOL0     H11422   7.487   5.775   6.732 -1.2160 -1.6374  3.1873
   83MOL0     H11423   7.377   5.689   6.624  0.7006 -1.6484 -1.2260
   83MOL0     H11424   7.533   5.626   6.464 -0.5960 -0.5131  0.4545
   83MOL0     H11425   7.666   5.623   6.576  0.6280  1.1978 -0.9689
   83MOL0     H11426   7.548   5.896   6.484 -0.3637  1.3631  4.4398
   83MOL0     H11427   7.684   5.876   6.585 -0.3352  2.7665 -0.0802
   83MOL0     H11428   7.674   5.769   6.309 -0.7836  1.9336 -0.1436
   83MOL0     H11429   7.813   5.752   6.421  3.0422  3.2955 -1.2056
   83MOL0     H11430   7.813   6.009   6.447 -0.1691  2.8326 -1.1457
   83MOL0     H11431   7.697   6.017   6.308  1.0759 -0.6526 -2.4555
   83MOL0     H11432   7.974   5.892   6.282  1.0865  0.2609 -1.3551
   83MOL0     H11433   7.945   6.070   6.273 -1.7450  0.2204  4.0436
   83MOL0     H11434   7.117   5.333   6.693  0.2848  0.9961  0.5555
   83MOL0     H11435   6.942   5.220   6.795  0.6774 -1.3578  1.4477
   83MOL0     H11436   6.500   5.242   7.123  1.9957  1.7339  1.3233
   83MOL0     H11437   6.372   5.126   7.283  1.2471  1.8142  1.0331
   83MOL0     H11438   5.954   4.459   8.178 -1.9026  0.0781 -1.6955
   83MOL0     H11439   6.024   4.493   8.418  1.0996  5.1616 -1.6633
   83MOL0     H11440   5.912   4.834   8.843  0.3857 -0.4618 -2.1714
   83MOL0     H11441   5.991   4.837   9.072  0.6969  0.4290 -0.4719
   83MOL0     H11442   6.263   4.722   9.318  0.0574  3.4698  2.2440
   83MOL0     H11443   6.206   4.830   9.172 -0.8346  1.5280  0.8429
   83MOL0     H11444   5.982   4.800   9.305  0.8567 -3.4622 -0.6092
   83MOL0     H11445   6.106   4.917   9.374  2.1728 -0.9977  0.3026
   83MOL0     H11446   6.133   4.645   9.475 -0.0981  0.6702 -0.3969
   83MOL0     H11447   6.169   4.799   9.547 -0.7893  4.4162 -2.2317
   83MOL0     H11448   5.893   4.786   9.490  0.1699  0.6185  1.3608
   83MOL0     H11449   5.974   4.819   9.643 -3.0238  1.8943 -1.5624
   83MOL0     H11450   5.887   4.402   9.677  1.5441  1.6406  1.4454
   83MOL0     H11451   6.172   4.455   9.029  1.7549  1.1550  1.0553
   83MOL0     H11452   6.038   4.316   8.825 -1.7785  0.7714 -0.7393
   83MOL0     H11453   6.109   4.409   8.685  1.3995 -1.8169  0.2515
   83MOL0     H11454   6.206   4.376   8.826 -0.4496  1.8655  1.2037
   84MOL0     O11455   4.500   0.806   5.505  0.2626  0.1519  0.7066
   84MOL0     C11456   4.487   0.812   5.386  0.0009  0.2657  0.3163
   84MOL0     O11457   4.367   0.853   5.321 -0.1284  0.4478  0.4611
   84MOL0     C11458   4.259   0.892   5.388  0.4285 -0.4738 -0.2640
   84MOL0     C11459   4.134   0.886   5.317  0.0339 -0.1962 -0.0313
   84MOL0     C11460   4.022   0.947   5.361 -1.0109  0.5184  0.1481
   84MOL0     C11461   4.023   1.016   5.481 -0.7440 -0.6248  0.0464
   84MOL0     O11462   3.917   1.092   5.527  0.2405  0.5766 -0.0274
   84MOL0     C11463   3.798   1.084   5.450 -0.8112 -0.0260 -1.0035
   84MOL0     C11464   3.713   1.208   5.503 -0.1030  0.2725  0.3299
   84MOL0     C11465   3.787   1.337   5.483 -0.3535  0.3622 -0.0505
   84MOL0     C11466   3.697   1.458   5.455 -0.3144 -0.8273  0.7782
   84MOL0     C11467   3.750   1.606   5.481  0.3424  0.8842 -0.6116
   84MOL0     C11468   3.854   1.648   5.377 -0.5161 -0.1496  0.0137
   84MOL0     C11469   3.891   1.803   5.400  0.0480 -0.3396  0.5291
   84MOL0     C11470   4.010   1.850   5.308  0.1004 -0.6909 -0.2301
   84MOL0     N11471   3.991   2.000   5.282  0.7636  0.2236 -0.2288
   84MOL0     C11472   3.907   2.050   5.182 -0.6868 -0.8586 -0.3484
   84MOL0     C11473   3.909   2.181   5.204 -0.4666 -0.5763 -0.8361
   84MOL0     C11474   3.824   2.281   5.122 -0.4299 -0.5223 -0.2733
   84MOL0     C11475   3.910   2.382   5.050  0.9305 -0.0242  0.6023
   84MOL0     C11476   3.947   2.514   5.123 -0.1289  0.1883 -0.2712
   84MOL0     C11477   3.971   2.633   5.032  0.7769 -0.5948 -0.0201
   84MOL0     O11478   4.035   2.738   5.107  0.7137  0.1881 -0.2735
   84MOL0     C11479   4.070   2.858   5.042 -0.6562  0.0567 -0.5700
   84MOL0     C11480   4.182   2.925   5.097 -0.8252  0.9016 -0.1395
   84MOL0     C11481   4.221   3.039   5.031 -0.5869  0.1273  0.6925
   84MOL0     C11482   4.335   3.117   5.100 -0.4991  0.2761  0.0066
   84MOL0     C11483   4.156   3.082   4.912 -0.1277 -0.9806  0.0193
   84MOL0     C11484   4.218   3.184   4.820  0.4454 -0.7023  1.2680
   84MOL0     O11485   4.129   3.249   4.739 -0.8013 -0.3111  0.4307
   84MOL0     C11486   4.170   3.336   4.641 -1.0242  0.6997  0.2270
   84MOL0     C11487   4.093   3.446   4.616  0.1991 -0.0814 -0.1081
   84MOL0     C11488   4.128   3.545   4.532 -0.1155  0.0580  0.1681
   84MOL0     C11489   4.225   3.529   4.442  0.0661 -0.4134 -0.7760
   84MOL0     O11490   4.252   3.610   4.336  0.0346  0.1521  0.4894
   84MOL0     C11491   4.154   3.594   4.238  0.5907  0.2455  1.0840
   84MOL0     C11492   4.178   3.691   4.126 -0.5668 -0.3063  0.0481
   84MOL0     C11493   4.274   3.645   4.018 -0.1553 -0.5334 -0.1555
   84MOL0     C11494   4.212   3.572   3.910  0.9092  0.3528  0.0870
   84MOL0     C11495   4.325   3.543   3.803 -0.9783  0.2202  0.9749
   84MOL0     C11496   4.294   3.427   3.696 -0.2949  0.0487  0.5881
   84MOL0     C11497   4.405   3.397   3.582 -0.1065  0.3552  0.4825
   84MOL0     C11498   4.338   3.384   3.448  0.1312  0.0967 -0.9809
   84MOL0    Cl11499   4.320   3.550   3.369  0.3706  0.2518 -0.1670
   84MOL0     C11500   4.313   3.418   4.450  0.2789 -0.4198 -1.4251
   84MOL0     C11501   4.280   3.326   4.555 -0.7666 -0.1131 -0.0385
   84MOL0     O11502   4.344   3.211   4.830  0.7473  0.8887  0.1482
   84MOL0     C11503   4.039   3.024   4.869  1.0409 -0.4682 -0.9293
   84MOL0     C11504   4.004   2.908   4.931  0.5313  0.3483 -0.6500
   84MOL0     N11505   3.992   2.212   5.314  0.2248 -0.3659  0.1510
   84MOL0     N11506   4.043   2.102   5.355  0.1595 -0.1842  0.0938
   84MOL0     C11507   4.141   1.022   5.561  0.0190  0.0701 -0.5742
   84MOL0     C11508   4.250   0.947   5.523  0.2142  0.1592 -0.2803
   84MOL0     C11509   4.607   0.772   5.304 -0.4118 -0.8896 -0.3542
   84MOL0     C11510   4.733   0.751   5.362 -0.3096 -0.5668 -0.0795
   84MOL0     C11511   4.841   0.702   5.290 -0.3898 -0.0102 -0.5466
   84MOL0     C11512   4.831   0.672   5.151  0.1045 -0.7538 -0.3710
   84MOL0     O11513   4.942   0.647   5.080 -0.0938 -0.8929  0.0278
   84MOL0     C11514   4.991   0.737   4.983 -0.7016  0.3984  0.1054
   84MOL0     C11515   5.022   0.661   4.858 -0.7378 -0.1121  0.7894
   84MOL0     C11516   5.128   0.553   4.877 -0.0430  0.5214  0.0441
   84MOL0     C11517   5.160   0.473   4.738 -0.8066  0.4720 -0.0933
   84MOL0     C11518   5.067   0.358   4.713 -0.5907 -0.7443 -0.2644
   84MOL0     C11519   4.978   0.274   4.701 -1.2022  0.2715  0.1581
   84MOL0     C11520   4.702   0.686   5.091  0.5818 -0.6340  0.0994
   84MOL0     C11521   4.595   0.735   5.165  0.2432 -0.1444  0.2663
   84MOL0     C11522   4.474   0.745   5.085 -0.5123  0.2498 -0.4469
   84MOL0     H11523   4.136   0.854   5.213  5.4481 -1.1503  0.0490
   84MOL0     H11524   3.928   0.932   5.308 -0.0975  0.0645 -1.3971
   84MOL0     H11525   3.740   0.992   5.463 -1.2326  0.4849  1.1114
   84MOL0     H11526   3.814   1.105   5.343  1.7967  0.1611 -0.6225
   84MOL0     H11527   3.622   1.202   5.442  0.6371 -3.9877 -0.7325
   84MOL0     H11528   3.684   1.183   5.605  0.1180  0.4255  0.4312
   84MOL0     H11529   3.838   1.354   5.579 -1.8552  0.1573  0.8294
   84MOL0     H11530   3.858   1.340   5.401  0.6856  0.0513  0.8078
   84MOL0     H11531   3.656   1.459   5.354  1.6868  2.4787 -0.1308
   84MOL0     H11532   3.608   1.450   5.518  1.1710  0.0106  3.1048
   84MOL0     H11533   3.793   1.596   5.581 -1.7089 -1.0518  0.1549
   84MOL0     H11534   3.668   1.677   5.488 -0.3728 -0.0998  1.6506
   84MOL0     H11535   3.951   1.597   5.385  0.9395  1.6903 -3.3914
   84MOL0     H11536   3.810   1.639   5.277  1.0327  0.2636 -0.7424
   84MOL0     H11537   3.920   1.825   5.503  3.3618 -0.7571 -0.1869
   84MOL0     H11538   3.802   1.864   5.382 -1.1231 -2.0736  0.3061
   84MOL0     H11539   4.106   1.828   5.356 -1.0796 -1.8355  1.7001
   84MOL0     H11540   4.019   1.791   5.216  0.9624 -0.7905 -0.0915
   84MOL0     H11541   3.843   2.004   5.107  0.9278  0.8936 -2.9914
   84MOL0     H11542   3.756   2.332   5.191 -0.9893 -1.3000 -0.2338
   84MOL0     H11543   3.764   2.220   5.054  1.0688  1.1883 -3.3578
   84MOL0     H11544   4.007   2.337   5.025  1.3909  0.0537  2.1532
   84MOL0     H11545   3.866   2.406   4.953  1.3340 -0.9816  0.1675
   84MOL0     H11546   3.868   2.531   5.196  1.1424 -0.0956  1.2363
   84MOL0     H11547   4.040   2.496   5.179 -1.8138 -1.3323  2.2376
   84MOL0     H11548   4.039   2.595   4.955  1.2338 -1.4523  0.7900
   84MOL0     H11549   3.880   2.661   4.978  0.5390 -3.1379 -1.0719
   84MOL0     H11550   4.217   2.897   5.196 -2.1153  0.3051  0.1676
   84MOL0     H11551   4.348   3.071   5.198 -0.5923 -1.8390 -0.9222
   84MOL0     H11552   4.306   3.222   5.096 -1.8564 -0.0827  0.0530
   84MOL0     H11553   4.428   3.092   5.048 -0.2747 -0.6425  0.8316
   84MOL0     H11554   4.009   3.452   4.684  0.5599 -1.8964  0.5835
   84MOL0     H11555   4.056   3.624   4.512 -0.0303 -0.5459 -3.0320
   84MOL0     H11556   4.173   3.499   4.187 -0.3442  1.8891 -2.7063
   84MOL0     H11557   4.055   3.610   4.280  0.2121  2.1855 -0.3504
   84MOL0     H11558   4.078   3.707   4.084  0.4809 -0.9348 -2.8785
   84MOL0     H11559   4.211   3.789   4.161 -1.5687  0.1386 -0.1993
   84MOL0     H11560   4.346   3.580   4.068  0.9462  0.3640 -0.5493
   84MOL0     H11561   4.323   3.726   3.964  0.9153  0.1057  1.7080
   84MOL0     H11562   4.123   3.623   3.874  0.5732  0.3789  0.9305
   84MOL0     H11563   4.186   3.473   3.949  0.2912 -0.3224 -1.9073
   84MOL0     H11564   4.364   3.638   3.765 -1.4561  0.9307  2.2097
   84MOL0     H11565   4.407   3.504   3.862 -1.4082 -0.5080  1.1060
   84MOL0     H11566   4.201   3.445   3.640  0.5022 -2.2025 -1.6166
   84MOL0     H11567   4.268   3.339   3.754  0.3536  1.7322  3.6673
   84MOL0     H11568   4.457   3.303   3.606  0.7715  0.5555 -0.6005
   84MOL0     H11569   4.483   3.473   3.573  0.4235 -0.3552 -1.3310
   84MOL0     H11570   4.232   3.360   3.461 -0.2617  2.4312  0.7224
   84MOL0     H11571   4.402   3.318   3.388  2.1459  1.1775 -0.1139
   84MOL0     H11572   4.404   3.404   4.393  1.5906 -0.6946  0.6524
   84MOL0     H11573   4.334   3.234   4.571 -2.6644 -1.3757 -0.6188
   84MOL0     H11574   3.987   3.060   4.780 -0.5392  1.6988  0.7697
   84MOL0     H11575   3.931   2.844   4.882 -1.1490  0.5170  1.4773
   84MOL0     H11576   4.143   1.078   5.654  0.1470  0.9309 -1.0933
   84MOL0     H11577   4.338   0.946   5.587  0.0108 -4.9017  0.3381
   84MOL0     H11578   4.747   0.786   5.464 -0.4419  1.2935 -0.6492
   84MOL0     H11579   4.941   0.714   5.328 -1.1983 -1.8266  2.4482
   84MOL0     H11580   4.926   0.822   4.963  2.4080  3.3494  1.4731
   84MOL0     H11581   5.081   0.788   5.020 -0.9063  1.1223 -0.3665
   84MOL0     H11582   5.055   0.726   4.776 -1.8488 -2.0701 -1.3302
   84MOL0     H11583   4.931   0.617   4.817 -0.9087  0.8537  0.0813
   84MOL0     H11584   5.223   0.601   4.901  0.7641 -0.2579 -1.4579
   84MOL0     H11585   5.094   0.484   4.954 -0.9762 -0.3209 -1.0873
   84MOL0     H11586   5.260   0.439   4.765 -0.3204  3.4449  2.4597
   84MOL0     H11587   5.167   0.543   4.654  0.0527 -0.2360 -0.6344
   84MOL0     H11588   4.903   0.199   4.689 -1.6764  0.9920 -1.6900
   84MOL0     H11589   4.698   0.658   4.986  0.2226 -3.9636  0.8834
   84MOL0     H11590   4.502   0.734   4.980  0.9446  0.8561 -0.1328
   84MOL0     H11591   4.393   0.676   5.113 -0.3588  0.4719  0.5746
   84MOL0     H11592   4.430   0.845   5.085 -3.0452 -0.7403  1.4052
   85MOL0     O11593   7.091   3.299   7.028 -0.5391  0.5219  0.1776
   85MOL0     C11594   6.977   3.253   7.048  0.0301  0.0438 -0.2728
   85MOL0     O11595   6.943   3.126   7.088 -0.0829  0.2283  0.1237
   85MOL0     C11596   7.044   3.041   7.130  0.8161 -0.1350 -0.0747
   85MOL0     C11597   6.997   2.935   7.213  0.6188 -0.3587  0.4649
   85MOL0     C11598   7.083   2.842   7.273  0.1019 -0.2436  0.1713
   85MOL0     C11599   7.225   2.846   7.260  0.0698 -1.0806  0.6348
   85MOL0     O11600   7.315   2.757   7.311  0.0079 -0.6935  0.4751
   85MOL0     C11601   7.257   2.628   7.348 -0.1246 -0.2186  1.0836
   85MOL0     C11602   7.348   2.534   7.425  0.0144 -0.3268 -0.2463
   85MOL0     C11603   7.374   2.581   7.567 -0.7073 -0.7904  0.6228
   85MOL0     C11604   7.460   2.473   7.644  0.0712 -0.0355 -0.5384
   85MOL0     C11605   7.591   2.425   7.573 -0.2842 -0.9560  0.7950
   85MOL0     C11606   7.679   2.363   7.673 -0.3806 -0.0437 -0.3163
   85MOL0     C11607   7.822   2.337   7.621  0.2524 -0.1525 -0.7707
   85MOL0     C11608   7.912   2.249   7.717 -0.3802  0.0416  0.0592
   85MOL0     N11609   8.042   2.208   7.655 -0.0976 -0.6019 -0.4267
   85MOL0     C11610   8.129   2.137   7.729  0.0507  0.1720  0.1769
   85MOL0     C11611   8.243   2.144   7.649  0.8103  0.2980  0.6133
   85MOL0     C11612   8.377   2.086   7.682  0.0981 -0.3538 -0.0430
   85MOL0     C11613   8.510   2.161   7.663  0.4526 -0.3251 -0.3940
   85MOL0     C11614   8.628   2.050   7.640 -1.5164 -0.0441  0.0371
   85MOL0     C11615   8.763   2.118   7.623 -1.3062  0.5950  0.0418
   85MOL0     O11616   8.868   2.024   7.626  0.0820  0.4896 -0.1378
   85MOL0     C11617   8.928   1.975   7.743 -1.1922  0.2136 -0.5333
   85MOL0     C11618   8.921   2.056   7.862 -0.0279 -0.2102 -1.0162
   85MOL0     C11619   8.988   2.011   7.983 -0.0848 -0.5020 -1.0614
   85MOL0     C11620   8.966   2.075   8.117 -0.4403 -1.2798 -0.3721
   85MOL0     C11621   9.082   1.901   7.965  0.0577  0.4249  0.1611
   85MOL0     C11622   9.151   1.832   8.080  0.0583 -0.5930 -0.4762
   85MOL0     O11623   9.172   1.695   8.060  0.1900 -0.7824  0.5438
   85MOL0     C11624   9.245   1.645   8.159 -0.2230  0.2454 -0.2307
   85MOL0     C11625   9.365   1.575   8.142 -0.7304  1.0397  0.5591
   85MOL0     C11626   9.447   1.511   8.236  1.5674  0.7932 -0.4609
   85MOL0     C11627   9.399   1.511   8.370 -0.1689  0.2936  0.3069
   85MOL0     O11628   9.477   1.464   8.471 -0.0709 -0.0654  0.2596
   85MOL0     C11629   9.548   1.339   8.456  0.9202  0.9636 -0.0151
   85MOL0     C11630   9.568   1.276   8.596 -0.0324 -0.3342  0.0988
   85MOL0     C11631   9.428   1.237   8.662  0.5727  0.0666 -0.5800
   85MOL0     C11632   9.390   1.094   8.632  0.9949  1.3583 -0.2813
   85MOL0     C11633   9.316   1.021   8.738 -0.5218 -0.2395 -0.5982
   85MOL0     C11634   9.394   0.919   8.820 -0.4739  0.6193  0.1317
   85MOL0     C11635   9.308   0.799   8.872  0.0722 -0.1191 -0.1146
   85MOL0     C11636   9.391   0.678   8.902 -0.1440 -0.2847 -0.2892
   85MOL0    Cl11637   9.516   0.715   9.028  0.1571 -0.5628 -0.0658
   85MOL0     C11638   9.275   1.568   8.389  0.7386  0.7613 -0.0419
   85MOL0     C11639   9.190   1.622   8.287 -0.3133  0.4306  0.7705
   85MOL0     O11640   9.204   1.903   8.170  0.6545  0.0644  0.8462
   85MOL0     C11641   9.096   1.827   7.843  0.0371 -0.0863  0.5561
   85MOL0     C11642   9.013   1.864   7.731  0.9662 -0.2043  0.6327
   85MOL0     N11643   8.219   2.223   7.535  0.4814  0.4591  0.3846
   85MOL0     N11644   8.098   2.255   7.539  0.9181  0.0122 -0.7231
   85MOL0     C11645   7.273   2.951   7.180  0.4961 -0.0055  0.3109
   85MOL0     C11646   7.185   3.044   7.114 -1.0081  0.3032 -0.1575
   85MOL0     C11647   6.869   3.349   7.033  0.5076 -0.3803 -0.0453
   85MOL0     C11648   6.785   3.360   7.141 -1.4534 -1.1997 -0.2745
   85MOL0     C11649   6.682   3.448   7.135  0.5142 -0.3061  0.4984
   85MOL0     C11650   6.650   3.533   7.028 -0.3545 -0.5266  1.4244
   85MOL0     O11651   6.529   3.608   7.040  0.2014  1.1086  1.0491
   85MOL0     C11652   6.562   3.752   7.008  0.1486  0.2857 -0.2769
   85MOL0     C11653   6.492   3.849   7.104 -0.4055 -0.4037  0.0239
   85MOL0     C11654   6.344   3.851   7.052  0.5492 -0.7568  0.0081
   85MOL0     C11655   6.250   3.957   7.133  0.4178  0.4296  1.1349
   85MOL0     C11656   6.270   3.929   7.272  0.2923 -0.1698 -0.3336
   85MOL0     C11657   6.276   3.905   7.394 -0.1581 -0.0817  0.7197
   85MOL0     C11658   6.736   3.533   6.918 -0.4639  0.2320  0.8273
   85MOL0     C11659   6.846   3.440   6.922 -0.5668 -0.4047 -0.2343
   85MOL0     C11660   6.937   3.451   6.805  0.6052 -0.7669  0.4926
   85MOL0     H11661   6.891   2.927   7.230 -0.3222  3.9682 -1.7183
   85MOL0     H11662   7.039   2.769   7.341  1.0675  1.0718  2.3226
   85MOL0     H11663   7.231   2.582   7.252  3.8804  3.1394 -2.0307
   85MOL0     H11664   7.168   2.642   7.410  0.8979  3.1474  2.0087
   85MOL0     H11665   7.297   2.438   7.435 -3.7026  1.6415  1.9688
   85MOL0     H11666   7.445   2.513   7.380 -0.1706 -1.1996 -0.2552
   85MOL0     H11667   7.435   2.671   7.573  4.0615 -3.5834 -0.7096
   85MOL0     H11668   7.278   2.597   7.617  0.0828 -1.4184  2.4342
   85MOL0     H11669   7.484   2.524   7.738 -0.4694 -0.2662 -0.2691
   85MOL0     H11670   7.390   2.390   7.661 -2.0112  1.9953  1.6497
   85MOL0     H11671   7.646   2.508   7.528 -2.0079 -1.2711 -2.1870
   85MOL0     H11672   7.554   2.354   7.498 -0.2825 -0.0248 -0.1148
   85MOL0     H11673   7.686   2.435   7.755 -3.8054 -0.6985  0.7036
   85MOL0     H11674   7.637   2.267   7.704 -0.2977  0.3918  1.2560
   85MOL0     H11675   7.879   2.430   7.610  0.3380 -0.4293 -2.9611
   85MOL0     H11676   7.817   2.289   7.523 -0.2540 -3.2939  0.6767
   85MOL0     H11677   7.934   2.318   7.799 -0.2478 -1.2935  1.1715
   85MOL0     H11678   7.872   2.157   7.759  0.1901 -0.3002 -0.1303
   85MOL0     H11679   8.111   2.087   7.824 -0.2890  0.4594  0.2674
   85MOL0     H11680   8.389   1.994   7.623 -0.0453 -0.0760 -0.5063
   85MOL0     H11681   8.377   2.045   7.784 -0.2370  0.7347  0.4023
   85MOL0     H11682   8.503   2.220   7.572  3.8464  2.5977  0.9999
   85MOL0     H11683   8.536   2.225   7.748 -2.1357 -2.4859  2.2467
   85MOL0     H11684   8.628   1.991   7.732 -0.8768  1.5380  1.0916
   85MOL0     H11685   8.603   1.987   7.555  1.0385  1.8987 -2.3566
   85MOL0     H11686   8.763   2.174   7.529 -0.1880  2.8915  1.3186
   85MOL0     H11687   8.777   2.196   7.698 -0.6701  0.0220  0.5339
   85MOL0     H11688   8.870   2.152   7.871 -1.3456 -0.8501 -1.3701
   85MOL0     H11689   9.017   2.172   8.107  0.2806 -1.5935  0.2226
   85MOL0     H11690   9.005   2.021   8.203 -0.6573  2.6859  2.5004
   85MOL0     H11691   8.858   2.086   8.130 -0.2831 -1.2520  1.0544
   85MOL0     H11692   9.414   1.563   8.046 -1.3796 -0.2615  0.3643
   85MOL0     H11693   9.537   1.454   8.218  0.6380 -0.8208 -0.2467
   85MOL0     H11694   9.480   1.266   8.411  0.0123  0.2285  2.3461
   85MOL0     H11695   9.647   1.351   8.411  1.0640 -0.2257 -0.0587
   85MOL0     H11696   9.630   1.188   8.579 -1.7238 -1.4030 -0.9414
   85MOL0     H11697   9.619   1.341   8.666 -4.7095  2.1661  1.6156
   85MOL0     H11698   9.344   1.303   8.637 -0.0147 -0.0722  0.9190
   85MOL0     H11699   9.445   1.247   8.769 -0.8982  4.5936 -0.5542
   85MOL0     H11700   9.481   1.042   8.601  1.3128  1.3391  0.6654
   85MOL0     H11701   9.326   1.078   8.544  0.5766 -4.5708  0.7494
   85MOL0     H11702   9.263   1.085   8.809 -0.4914 -1.9417  1.0631
   85MOL0     H11703   9.237   0.955   8.699  1.3247 -1.7958 -1.9021
   85MOL0     H11704   9.450   0.966   8.902  1.8879  0.3116 -1.2239
   85MOL0     H11705   9.462   0.868   8.751 -3.3845 -2.0479 -0.9774
   85MOL0     H11706   9.225   0.774   8.805 -1.0988 -0.7955  1.5227
   85MOL0     H11707   9.271   0.837   8.968  0.1120  0.7770 -0.4410
   85MOL0     H11708   9.442   0.644   8.812 -1.1748  1.6068 -1.6556
   85MOL0     H11709   9.327   0.592   8.924 -0.8030 -0.2279 -1.8374
   85MOL0     H11710   9.235   1.558   8.489 -1.1848 -1.6795 -0.9391
   85MOL0     H11711   9.091   1.652   8.321 -1.8182 -0.0675 -2.7676
   85MOL0     H11712   9.163   1.742   7.831  0.3597  0.1924  0.3686
   85MOL0     H11713   9.019   1.823   7.630  1.4618  0.9713  0.1775
   85MOL0     H11714   7.380   2.946   7.158  0.1641  1.1729 -1.9317
   85MOL0     H11715   7.230   3.118   7.049 -1.4966  3.3095  2.6817
   85MOL0     H11716   6.795   3.298   7.229  0.5028  0.5788  0.8503
   85MOL0     H11717   6.622   3.460   7.225 -2.2776  0.3206 -1.2838
   85MOL0     H11718   6.668   3.780   7.015  0.4858 -1.2513  1.7618
   85MOL0     H11719   6.535   3.765   6.903  0.4660  0.3780 -0.3495
   85MOL0     H11720   6.538   3.946   7.083  0.5758 -0.5809  1.2235
   85MOL0     H11721   6.500   3.821   7.210 -1.4821  2.6604  1.0300
   85MOL0     H11722   6.340   3.875   6.945 -1.5396 -1.2869 -0.0904
   85MOL0     H11723   6.304   3.752   7.079 -2.5252  0.7873  1.6963
   85MOL0     H11724   6.150   3.951   7.089  0.9666  1.8484 -0.4270
   85MOL0     H11725   6.271   4.061   7.106  2.4079 -0.8295 -3.0782
   85MOL0     H11726   6.299   3.883   7.496 -0.3945  2.9014  1.5277
   85MOL0     H11727   6.720   3.601   6.835  2.5271  0.8596  0.6475
   85MOL0     H11728   7.039   3.489   6.823  0.9473 -1.1013 -0.6708
   85MOL0     H11729   6.937   3.349   6.766 -1.4458 -1.1551  1.3724
   85MOL0     H11730   6.890   3.515   6.730  0.9178  0.4839  1.3340
   86MOL0     O11731   8.334   9.198   2.816  0.4284  0.4806  0.3901
   86MOL0     C11732   8.419   9.263   2.869 -0.2015  0.8110  0.7846
   86MOL0     O11733   8.394   9.357   2.970  0.8210 -0.8462 -0.2490
   86MOL0     C11734   8.269   9.398   3.012  0.0494  0.5562 -0.5343
   86MOL0     C11735   8.244   9.420   3.153  0.6640 -0.6868  0.3968
   86MOL0     C11736   8.117   9.459   3.198  0.5015 -0.4895 -0.0777
   86MOL0     C11737   8.012   9.474   3.107  0.1271 -0.5128 -0.4635
   86MOL0     O11738   7.883   9.511   3.140 -0.6667 -0.2123 -0.2851
   86MOL0     C11739   7.794   9.401   3.101 -1.0034  0.1255  1.4125
   86MOL0     C11740   7.646   9.456   3.096 -1.1333  0.0043  0.1230
   86MOL0     C11741   7.597   9.495   2.954 -0.7567 -0.0147 -0.0504
   86MOL0     C11742   7.448   9.500   2.939 -0.2693 -0.7858  0.7317
   86MOL0     C11743   7.397   9.543   2.799 -0.1221 -0.6275 -0.8687
   86MOL0     C11744   7.384   9.434   2.708  0.2980 -0.4972  1.3499
   86MOL0     C11745   7.343   9.466   2.566 -0.0742  0.0142 -0.9826
   86MOL0     C11746   7.375   9.347   2.485 -0.2391 -0.0731  0.0684
   86MOL0     N11747   7.290   9.228   2.505 -0.1806  0.3900 -0.5200
   86MOL0     C11748   7.155   9.212   2.496 -0.0514 -0.1083 -0.1122
   86MOL0     C11749   7.122   9.083   2.504  0.3948 -0.2350  0.2837
   86MOL0     C11750   6.987   9.019   2.496  1.0017  0.6337 -0.0557
   86MOL0     C11751   6.970   8.929   2.375  0.3298  0.2848  0.6139
   86MOL0     C11752   6.838   8.849   2.376 -0.7074  0.0854 -0.2976
   86MOL0     C11753   6.805   8.817   2.230 -0.5806 -0.0829  0.3980
   86MOL0     O11754   6.702   8.711   2.215 -0.7238 -0.2079  0.1807
   86MOL0     C11755   6.690   8.670   2.082  0.3479  0.7761 -0.4258
   86MOL0     C11756   6.792   8.673   1.977  0.7897 -0.7256 -0.1496
   86MOL0     C11757   6.769   8.640   1.845  0.2512  0.2473  0.3218
   86MOL0     C11758   6.881   8.669   1.747  1.0351  0.3911 -0.2302
   86MOL0     C11759   6.638   8.596   1.814 -0.0116 -0.3997 -0.6445
   86MOL0     C11760   6.593   8.561   1.679  0.8215 -0.6011 -0.3484
   86MOL0     O11761   6.649   8.626   1.572  0.5290  0.5312  0.4539
   86MOL0     C11762   6.625   8.575   1.448 -0.5928  0.4287  0.4801
   86MOL0     C11763   6.676   8.453   1.413  0.7230  0.0472  0.3199
   86MOL0     C11764   6.646   8.409   1.283  0.5037  0.0979 -0.6632
   86MOL0     C11765   6.561   8.478   1.189 -1.2287  0.2325 -0.8867
   86MOL0     O11766   6.541   8.415   1.066  0.3148  0.0601 -0.1840
   86MOL0     C11767   6.472   8.500   0.969  0.0084  0.5389  0.1315
   86MOL0     C11768   6.461   8.422   0.834 -0.3828  0.5423  0.1924
   86MOL0     C11769   6.356   8.311   0.851 -0.0765  0.2733 -0.3698
   86MOL0     C11770   6.323   8.242   0.716  0.8317  0.7258 -0.0309
   86MOL0     C11771   6.445   8.166   0.662 -0.2720  0.6745 -0.4411
   86MOL0     C11772   6.398   8.047   0.569 -0.0467  0.1460  0.2066
   86MOL0     C11773   6.305   8.072   0.449  0.0002  0.3059 -0.3612
   86MOL0     C11774   6.260   7.948   0.365  0.3634  0.2338  0.7123
   86MOL0    Cl11775   6.139   8.001   0.226  0.1084 -0.5882 -0.0546
   86MOL0     C11776   6.525   8.605   1.227  0.0680 -0.0451  0.1512
   86MOL0     C11777   6.554   8.649   1.356  1.4660 -0.0467  0.2144
   86MOL0     O11778   6.514   8.476   1.671  0.1634  1.0286  0.4550
   86MOL0     C11779   6.538   8.588   1.914 -0.4609 -1.0525  0.5830
   86MOL0     C11780   6.560   8.623   2.046 -0.7336 -0.5754 -0.1206
   86MOL0     N11781   7.243   9.008   2.523 -0.4867 -0.7299  0.6444
   86MOL0     N11782   7.340   9.103   2.526  0.5230  0.3622  0.6179
   86MOL0     C11783   8.044   9.473   2.974  0.1981 -1.4456  0.7329
   86MOL0     C11784   8.172   9.438   2.924  0.0908 -0.0954 -0.5748
   86MOL0     C11785   8.559   9.239   2.831 -0.6440  0.3981  0.8301
   86MOL0     C11786   8.666   9.297   2.907  0.9001 -0.1791  0.7440
   86MOL0     C11787   8.793   9.281   2.879 -0.1517 -0.5359  0.7825
   86MOL0     C11788   8.835   9.210   2.768 -0.1543  0.6681  0.4872
   86MOL0     O11789   8.965   9.173   2.748  0.2294 -0.4038  0.8681
   86MOL0     C11790   9.055   9.151   2.855  0.1614  0.8007 -0.7186
   86MOL0     C11791   9.153   9.044   2.799 -0.2342 -0.4127 -0.6739
   86MOL0     C11792   9.086   8.909   2.771 -0.5398  0.0905  0.2695
   86MOL0     C11793   9.162   8.801   2.690 -0.4999 -0.0786 -0.2810
   86MOL0     C11794   9.267   8.765   2.789 -0.7797  0.6328  0.1363
   86MOL0     C11795   9.336   8.722   2.880 -0.7561 -0.7247 -0.5864
   86MOL0     C11796   8.737   9.146   2.691 -0.2110  0.1344  0.0511
   86MOL0     C11797   8.598   9.161   2.713  0.1191 -0.8205  0.5937
   86MOL0     C11798   8.510   9.113   2.604  0.0427 -0.2641 -0.5156
   86MOL0     H11799   8.328   9.420   3.222  0.7265  1.0632  0.3622
   86MOL0     H11800   8.101   9.473   3.304  1.9281 -1.6632  0.3348
   86MOL0     H11801   7.806   9.319   3.172  0.7541  1.1371  2.3636
   86MOL0     H11802   7.820   9.353   3.006 -0.4641  2.2180  0.4323
   86MOL0     H11803   7.569   9.390   3.137 -1.4158 -0.9914 -1.8773
   86MOL0     H11804   7.647   9.541   3.164 -1.0681  0.9998 -1.0859
   86MOL0     H11805   7.650   9.588   2.930 -1.8417  0.6580  0.0611
   86MOL0     H11806   7.637   9.422   2.883 -1.6203 -0.5239 -0.0251
   86MOL0     H11807   7.408   9.398   2.947 -2.7190  0.0558  0.0591
   86MOL0     H11808   7.411   9.566   3.018  3.5973  2.2302  0.2975
   86MOL0     H11809   7.456   9.624   2.754  1.4086 -0.8209  0.6677
   86MOL0     H11810   7.295   9.580   2.812 -0.5489 -2.3569  1.2452
   86MOL0     H11811   7.486   9.398   2.694 -0.0343 -0.9239 -0.0874
   86MOL0     H11812   7.323   9.357   2.756 -1.5067  0.5911  0.9162
   86MOL0     H11813   7.398   9.551   2.526  0.1415  0.5286  0.3822
   86MOL0     H11814   7.234   9.476   2.558 -0.1629 -1.3931 -2.0300
   86MOL0     H11815   7.358   9.366   2.378  1.3257  1.1167  0.0023
   86MOL0     H11816   7.478   9.318   2.504 -0.1930 -0.0604 -0.1527
   86MOL0     H11817   7.085   9.293   2.476 -2.3706 -1.5314  1.7407
   86MOL0     H11818   6.914   9.101   2.494  1.7896  1.3389 -1.4413
   86MOL0     H11819   6.964   8.958   2.584 -4.4351  1.9677 -0.1794
   86MOL0     H11820   6.966   8.990   2.284 -2.2925 -3.1965 -1.8637
   86MOL0     H11821   7.063   8.873   2.378 -0.5554 -1.4300 -1.7569
   86MOL0     H11822   6.846   8.750   2.421  1.3374  0.8320  1.1257
   86MOL0     H11823   6.762   8.909   2.427  2.6026  1.5321  3.3836
   86MOL0     H11824   6.760   8.896   2.169 -0.8166 -1.4636 -1.2974
   86MOL0     H11825   6.896   8.777   2.185  1.2246  1.6395  2.3711
   86MOL0     H11826   6.896   8.703   1.991  1.3615 -2.4099 -0.4698
   86MOL0     H11827   6.973   8.677   1.805  3.3342 -0.3800 -3.5211
   86MOL0     H11828   6.865   8.769   1.705 -2.7378  0.5704  1.1991
   86MOL0     H11829   6.898   8.588   1.675 -1.1263 -2.1098  1.8786
   86MOL0     H11830   6.726   8.391   1.487 -2.2295 -0.7906  1.7584
   86MOL0     H11831   6.693   8.313   1.262  2.5556  0.7058  0.8342
   86MOL0     H11832   6.373   8.538   0.995 -1.6298 -2.2566 -1.6209
   86MOL0     H11833   6.532   8.588   0.943  0.2129  0.6309  0.8971
   86MOL0     H11834   6.419   8.486   0.756 -2.3380 -0.5515  0.2650
   86MOL0     H11835   6.561   8.387   0.810 -1.0774 -1.9884  0.6882
   86MOL0     H11836   6.264   8.346   0.900 -0.1058  0.5079 -0.5925
   86MOL0     H11837   6.402   8.230   0.908 -1.3633  0.3325  0.8165
   86MOL0     H11838   6.288   8.318   0.646  1.5885  0.9481 -0.1774
   86MOL0     H11839   6.247   8.164   0.733  1.7175  0.0802  1.1228
   86MOL0     H11840   6.508   8.242   0.613  1.6796 -1.3785 -1.2810
   86MOL0     H11841   6.512   8.127   0.739 -0.3575 -0.4833 -0.9361
   86MOL0     H11842   6.351   7.973   0.634  2.3574  0.7471  2.8558
   86MOL0     H11843   6.478   7.987   0.524  0.3372  0.4270  0.5131
   86MOL0     H11844   6.361   8.133   0.378  0.9427 -1.0642 -0.8294
   86MOL0     H11845   6.219   8.130   0.484  1.1989  0.4093  2.7481
   86MOL0     H11846   6.225   7.865   0.426  0.2487 -0.5759 -0.4309
   86MOL0     H11847   6.349   7.919   0.308 -1.1398  0.8220 -2.1318
   86MOL0     H11848   6.477   8.669   1.153  0.7700  0.2271 -0.0757
   86MOL0     H11849   6.509   8.744   1.383 -0.9085 -1.4101  1.4359
   86MOL0     H11850   6.441   8.542   1.900 -2.1123  2.3757 -0.2421
   86MOL0     H11851   6.482   8.623   2.122  1.5907  0.9089  2.4689
   86MOL0     H11852   7.977   9.510   2.896  1.7823  0.8283  0.3464
   86MOL0     H11853   8.187   9.433   2.817 -0.2631  1.2000 -0.6953
   86MOL0     H11854   8.635   9.362   2.989 -0.8066 -2.1176  1.7293
   86MOL0     H11855   8.862   9.348   2.930 -3.2782  2.1131  1.9169
   86MOL0     H11856   9.115   9.236   2.887 -1.7651  2.5532 -1.5350
   86MOL0     H11857   9.004   9.122   2.947  2.8403 -0.8113  0.3836
   86MOL0     H11858   9.229   9.038   2.878  0.2143 -0.2268 -1.0858
   86MOL0     H11859   9.203   9.086   2.712 -1.3921  0.8795 -0.7406
   86MOL0     H11860   9.047   8.866   2.863 -2.6618 -3.8392 -2.1830
   86MOL0     H11861   8.999   8.911   2.704 -0.2786  0.8909 -0.0628
   86MOL0     H11862   9.225   8.843   2.610  1.2520 -0.9647  0.5726
   86MOL0     H11863   9.099   8.720   2.653  0.3690  0.0120 -2.1146
   86MOL0     H11864   9.382   8.675   2.964  1.6927 -1.8457 -2.4350
   86MOL0     H11865   8.766   9.095   2.599 -1.6723  2.0814 -1.5807
   86MOL0     H11866   8.551   9.060   2.518  1.4830  1.6014 -1.0608
   86MOL0     H11867   8.427   9.063   2.655  0.5916  1.3652  2.2342
   86MOL0     H11868   8.467   9.204   2.561 -0.8731 -0.2383  0.4222
   87MOL0     O11869   1.388   0.364   1.581 -0.2841 -0.2854 -0.4259
   87MOL0     C11870   1.413   0.252   1.620 -0.6127 -0.6135  0.1593
   87MOL0     O11871   1.386   0.139   1.555  0.2356  0.8599 -0.2481
   87MOL0     C11872   1.371   0.136   1.421 -0.8476 -0.0206 -0.0682
   87MOL0     C11873   1.469   0.192   1.334  0.2441 -0.3608  1.4307
   87MOL0     C11874   1.456   0.195   1.197 -0.5871 -1.0117  0.2298
   87MOL0     C11875   1.354   0.126   1.140  0.2871  0.0912 -0.6860
   87MOL0     O11876   1.332   0.122   1.000  0.6516 -0.4720 -0.0756
   87MOL0     C11877   1.373   0.240   0.933  0.5346  0.6519  0.4806
   87MOL0     C11878   1.330   0.237   0.792 -0.1536  0.3100  0.1574
   87MOL0     C11879   1.425   0.166   0.704 -0.0626  0.0790  0.9879
   87MOL0     C11880   1.399   0.163   0.547 -0.3652 -0.5648 -0.2705
   87MOL0     C11881   1.511   0.101   0.468 -0.4964 -0.0777  0.3619
   87MOL0     C11882   1.633   0.205   0.450  0.2890  0.4377 -0.3101
   87MOL0     C11883   1.709   0.150   0.329  0.3711 -0.0179 -0.1061
   87MOL0     C11884   1.819   0.253   0.277 -0.1813  0.2469  0.4716
   87MOL0     N11885   1.868   0.235   0.140  0.4046  0.5612  0.9975
   87MOL0     C11886   1.813   0.313   0.040  0.4183 -0.9827 -1.2114
   87MOL0     C11887   1.854   0.277  -0.082 -0.2155  0.4259 -0.7836
   87MOL0     C11888   1.805   0.305  -0.224 -0.3019  0.2495 -0.8998
   87MOL0     C11889   1.689   0.214  -0.258  0.2364 -0.1192 -0.6116
   87MOL0     C11890   1.635   0.267  -0.391 -0.3429 -0.1713  0.2871
   87MOL0     C11891   1.517   0.177  -0.432  0.4008  0.1784  0.2048
   87MOL0     O11892   1.400   0.176  -0.350 -0.2933  0.6798  0.0253
   87MOL0     C11893   1.297   0.096  -0.401  0.9592  0.3641 -0.2072
   87MOL0     C11894   1.220   0.023  -0.305 -0.1829 -0.6755  1.1438
   87MOL0     C11895   1.124  -0.077  -0.340 -0.2863  0.4039 -0.5312
   87MOL0     C11896   1.036  -0.125  -0.232  0.6350  0.9475 -0.3984
   87MOL0     C11897   1.108  -0.114  -0.468  0.1674 -0.1276  1.0017
   87MOL0     C11898   1.023  -0.234  -0.520 -0.6041  0.5255  0.2766
   87MOL0     O11899   0.947  -0.311  -0.433 -1.0890 -0.0210 -0.4800
   87MOL0     C11900   0.843  -0.383  -0.479 -0.2928  0.8473 -0.3457
   87MOL0     C11901   0.855  -0.481  -0.582  0.3719  0.2067  0.5041
   87MOL0     C11902   0.751  -0.558  -0.615 -0.3057  0.9010  0.6654
   87MOL0     C11903   0.629  -0.557  -0.554 -0.0806  1.2905 -0.3321
   87MOL0     O11904   0.531  -0.630  -0.609 -0.6033 -0.6994  0.6467
   87MOL0     C11905   0.391  -0.575  -0.596 -0.8981 -0.2664  0.0783
   87MOL0     C11906   0.321  -0.634  -0.717  0.3121  0.9112 -0.3900
   87MOL0     C11907   0.167  -0.602  -0.713 -0.3683  0.7228  1.0383
   87MOL0     C11908   0.097  -0.686  -0.600  0.8249  0.1114  0.5436
   87MOL0     C11909  -0.053  -0.683  -0.605  0.3631  0.2058 -0.7619
   87MOL0     C11910  -0.103  -0.769  -0.490  1.0457  1.0557 -0.3999
   87MOL0     C11911  -0.252  -0.775  -0.481 -0.6662 -0.2875  0.0077
   87MOL0     C11912  -0.322  -0.848  -0.588 -0.3121 -0.5406  0.1223
   87MOL0    Cl11913  -0.500  -0.886  -0.544  0.1467  0.4938 -0.0874
   87MOL0     C11914   0.615  -0.470  -0.445  0.1676  0.6376  0.3624
   87MOL0     C11915   0.717  -0.383  -0.411  1.1778  0.4059 -1.0010
   87MOL0     O11916   1.042  -0.277  -0.637 -0.3394 -0.7108  0.0044
   87MOL0     C11917   1.177  -0.032  -0.568  0.2915 -0.4482  0.3519
   87MOL0     C11918   1.271   0.068  -0.536  1.4128 -0.6277 -1.0901
   87MOL0     N11919   1.946   0.180  -0.047 -0.3375  0.6395 -0.7940
   87MOL0     N11920   1.957   0.157   0.084  0.1361  0.3290  0.0898
   87MOL0     C11921   1.260   0.058   1.227  0.8676  0.0526  1.4072
   87MOL0     C11922   1.274   0.056   1.366  0.1911  0.4308  0.1488
   87MOL0     C11923   1.463   0.215   1.755  0.7144 -0.3796  0.2050
   87MOL0     C11924   1.400   0.109   1.822 -0.6476  0.0280  0.2587
   87MOL0     C11925   1.431   0.089   1.955 -0.3839  0.0993  0.3877
   87MOL0     C11926   1.522   0.157   2.019 -0.0749 -0.5047 -0.6691
   87MOL0     O11927   1.555   0.148   2.152 -0.5633  0.9689 -0.3042
   87MOL0     C11928   1.473   0.069   2.233  0.4361  0.9746  0.3731
   87MOL0     C11929   1.519   0.084   2.378  0.5132  0.4184 -0.6883
   87MOL0     C11930   1.397   0.073   2.465 -0.1892 -0.9581 -0.3944
   87MOL0     C11931   1.453   0.099   2.608  0.3475 -0.0435 -0.0145
   87MOL0     C11932   1.355   0.054   2.704  0.6864  1.3754  0.1863
   87MOL0     C11933   1.287  -0.017   2.774  1.0879 -0.5144  0.6872
   87MOL0     C11934   1.607   0.245   1.952 -0.7158 -0.0380 -0.0215
   87MOL0     C11935   1.571   0.278   1.823 -0.0559 -0.2107 -0.0653
   87MOL0     C11936   1.665   0.375   1.755 -0.6598  0.4237  0.0963
   87MOL0     H11937   1.550   0.245   1.383  2.7552 -1.7238 -0.9773
   87MOL0     H11938   1.542   0.240   1.148 -3.0029  1.8800 -1.6320
   87MOL0     H11939   1.481   0.255   0.932  0.3862  1.8640  0.5668
   87MOL0     H11940   1.322   0.320   0.988 -1.6771  0.2790 -0.9055
   87MOL0     H11941   1.227   0.206   0.771  0.4118 -0.0871 -2.4303
   87MOL0     H11942   1.314   0.341   0.760 -4.4826  0.2871  1.5981
   87MOL0     H11943   1.525   0.209   0.715 -0.4510  1.5798 -0.8568
   87MOL0     H11944   1.435   0.061   0.735  1.2766 -0.0094  0.3306
   87MOL0     H11945   1.305   0.113   0.525 -0.5094  0.5779 -2.4761
   87MOL0     H11946   1.386   0.265   0.511 -0.7363  0.0673  1.5115
   87MOL0     H11947   1.460   0.063   0.379 -0.8468 -1.8182  1.2765
   87MOL0     H11948   1.557   0.018   0.522 -1.1099 -0.5930  0.0964
   87MOL0     H11949   1.589   0.302   0.425  2.2862  1.3555 -0.4545
   87MOL0     H11950   1.689   0.206   0.544 -2.5553  0.3860  1.5068
   87MOL0     H11951   1.644   0.110   0.251  1.3231  1.0420 -1.4690
   87MOL0     H11952   1.765   0.063   0.366  0.7626  0.6049  0.8192
   87MOL0     H11953   1.768   0.349   0.288 -3.9150 -1.1451 -2.4017
   87MOL0     H11954   1.901   0.245   0.349 -1.5442 -0.8100  2.0108
   87MOL0     H11955   1.727   0.375   0.061  0.4497 -1.2530 -0.2312
   87MOL0     H11956   1.888   0.286  -0.293  2.8500  0.8138  2.4208
   87MOL0     H11957   1.774   0.410  -0.221 -0.6041  0.1492  1.1836
   87MOL0     H11958   1.709   0.107  -0.262 -2.4727 -0.7102 -0.2088
   87MOL0     H11959   1.622   0.241  -0.175 -1.2852 -4.0754 -0.3589
   87MOL0     H11960   1.581   0.362  -0.392 -0.6818 -0.3372 -1.4784
   87MOL0     H11961   1.716   0.263  -0.464 -1.2635 -1.0476 -0.7220
   87MOL0     H11962   1.492   0.198  -0.537  0.6249 -3.4759 -0.6988
   87MOL0     H11963   1.554   0.075  -0.437  0.7247  0.0207  3.6034
   87MOL0     H11964   1.244   0.058  -0.205 -1.4432  0.8011  0.9801
   87MOL0     H11965   0.940  -0.078  -0.254 -0.6860 -1.1494  0.4886
   87MOL0     H11966   1.068  -0.087  -0.134  3.2084  0.1079 -0.8223
   87MOL0     H11967   1.025  -0.234  -0.223  3.6415  0.7418  4.5247
   87MOL0     H11968   0.953  -0.509  -0.620  1.7348 -1.1787  4.4439
   87MOL0     H11969   0.760  -0.633  -0.692  1.0087  0.4008  1.2790
   87MOL0     H11970   0.337  -0.596  -0.503 -0.2554 -0.1296  0.4916
   87MOL0     H11971   0.393  -0.467  -0.611  0.0084 -0.5171 -2.0971
   87MOL0     H11972   0.351  -0.589  -0.812  1.0719 -1.4825 -1.3485
   87MOL0     H11973   0.340  -0.741  -0.712 -1.4787  0.6115  2.6536
   87MOL0     H11974   0.123  -0.637  -0.806  0.1702 -1.1974  1.4596
   87MOL0     H11975   0.146  -0.496  -0.698 -0.1282  0.8989  0.1490
   87MOL0     H11976   0.132  -0.655  -0.502  0.2653 -1.5437  1.2983
   87MOL0     H11977   0.127  -0.790  -0.615 -1.3501 -1.2772  4.3921
   87MOL0     H11978  -0.078  -0.577  -0.590  0.0916  0.0962 -0.4104
   87MOL0     H11979  -0.096  -0.710  -0.701 -1.5481  1.7352 -0.3955
   87MOL0     H11980  -0.061  -0.748  -0.392 -1.8134 -0.4028  1.2803
   87MOL0     H11981  -0.072  -0.873  -0.510 -1.3910 -0.2780  2.0834
   87MOL0     H11982  -0.290  -0.675  -0.463 -0.0351  0.0906 -0.6830
   87MOL0     H11983  -0.277  -0.833  -0.392 -0.0540  0.9397  0.9993
   87MOL0     H11984  -0.277  -0.947  -0.603 -1.1235 -0.9619  0.3992
   87MOL0     H11985  -0.325  -0.791  -0.681  0.2415 -0.2275  0.2898
   87MOL0     H11986   0.529  -0.468  -0.379 -0.2243  3.6006 -0.1028
   87MOL0     H11987   0.699  -0.310  -0.332 -1.2867 -1.3351  0.1722
   87MOL0     H11988   1.154  -0.046  -0.673 -3.3842  1.2197  0.7976
   87MOL0     H11989   1.314   0.124  -0.618  1.2512  2.2263  0.6486
   87MOL0     H11990   1.176   0.011   1.178  0.4668  0.4512  1.7080
   87MOL0     H11991   1.195   0.007   1.421  1.1818 -2.4020 -0.7642
   87MOL0     H11992   1.325   0.058   1.763 -0.6380  1.2061 -0.8203
   87MOL0     H11993   1.367   0.012   1.997 -3.5518  3.0779  1.4364
   87MOL0     H11994   1.367   0.094   2.221  0.2163 -0.1353 -0.0414
   87MOL0     H11995   1.490  -0.036   2.210  0.6310  0.6387  1.9054
   87MOL0     H11996   1.553   0.186   2.397 -0.2774  0.9961 -2.1681
   87MOL0     H11997   1.598   0.013   2.401 -0.3788 -0.5273 -0.4680
   87MOL0     H11998   1.326   0.148   2.428  0.8247  1.5490  2.3130
   87MOL0     H11999   1.361  -0.029   2.454  0.6651 -2.2202  5.4289
   87MOL0     H12000   1.472   0.206   2.620  0.1969  0.0441 -0.5271
   87MOL0     H12001   1.545   0.041   2.618  1.3845  1.2650 -1.5721
   87MOL0     H12002   1.221  -0.075   2.836  0.4646  0.2196  0.7213
   87MOL0     H12003   1.695   0.299   1.987 -1.8102  1.4002  0.6395
   87MOL0     H12004   1.625   0.476   1.770 -1.9246 -0.1969  1.1917
   87MOL0     H12005   1.760   0.376   1.810 -0.6588  2.9051  0.1805
   87MOL0     H12006   1.684   0.340   1.654  2.4241  0.1310  0.6976
   88MOL0     O12007   5.699   1.259   8.854  0.4882 -0.0921 -0.6834
   88MOL0     C12008   5.795   1.338   8.858  0.7812 -0.0050 -0.3287
   88MOL0     O12009   5.886   1.357   8.965 -0.3893  0.6856 -0.0359
   88MOL0     C12010   5.867   1.291   9.088  0.9097 -0.1582  0.7813
   88MOL0     C12011   5.749   1.288   9.169 -0.6237 -1.0398  0.1715
   88MOL0     C12012   5.750   1.219   9.287 -0.3359  0.4633  0.6934
   88MOL0     C12013   5.871   1.157   9.325 -0.9058  0.2710  0.1291
   88MOL0     O12014   5.878   1.066   9.430  0.1026 -0.3643  0.5181
   88MOL0     C12015   5.821   1.128   9.552 -0.5060  0.4100  0.6400
   88MOL0     C12016   5.904   1.078   9.673 -0.2643 -0.5799  0.3291
   88MOL0     C12017   6.003   1.184   9.722 -1.1861  0.1562  0.4288
   88MOL0     C12018   6.087   1.115   9.824  0.5762  0.0123 -0.3216
   88MOL0     C12019   6.196   1.204   9.881 -0.4542  1.1285  0.2680
   88MOL0     C12020   6.137   1.307   9.974 -0.2159  0.1748 -0.2743
   88MOL0     C12021   6.249   1.401  10.017 -0.1169  0.2665  0.2160
   88MOL0     C12022   6.292   1.388  10.167  0.1160 -0.0761  0.7270
   88MOL0     N12023   6.191   1.396  10.270  0.0704  0.0198 -0.9028
   88MOL0     C12024   6.110   1.503  10.293  0.8478 -0.2965  0.5522
   88MOL0     C12025   6.002   1.453  10.368 -0.2468 -0.0915  0.4371
   88MOL0     C12026   5.860   1.502  10.368  0.0060 -0.1598  0.3086
   88MOL0     C12027   5.787   1.483  10.234 -0.4092  0.4208 -0.2263
   88MOL0     C12028   5.806   1.346  10.163 -0.7031 -0.3707  0.2182
   88MOL0     C12029   5.749   1.357  10.012  0.1744  0.7530 -0.5900
   88MOL0     O12030   5.803   1.466   9.934 -0.0296  0.0279 -0.0933
   88MOL0     C12031   5.757   1.482   9.806 -0.0709  0.4350  0.7551
   88MOL0     C12032   5.667   1.389   9.747  0.2949 -0.4470 -0.2141
   88MOL0     C12033   5.610   1.415   9.613  0.0426 -0.3522  0.7182
   88MOL0     C12034   5.495   1.318   9.575 -0.7934  0.1051 -0.2439
   88MOL0     C12035   5.662   1.525   9.536  0.6279  1.0045  0.4816
   88MOL0     C12036   5.613   1.560   9.399 -0.6103 -0.4178 -0.1459
   88MOL0     O12037   5.676   1.678   9.358  0.1905  0.9104  0.4611
   88MOL0     C12038   5.679   1.718   9.222  0.4997  0.3219  0.4250
   88MOL0     C12039   5.801   1.720   9.163  0.3892  0.0013  0.4785
   88MOL0     C12040   5.812   1.751   9.027  0.6683 -0.1981 -0.4723
   88MOL0     C12041   5.701   1.793   8.953 -0.0367 -0.3892 -0.0411
   88MOL0     O12042   5.704   1.840   8.824 -0.5899 -0.0354  0.0863
   88MOL0     C12043   5.827   1.909   8.772  0.5250  0.1301  0.4865
   88MOL0     C12044   5.781   1.974   8.629  0.0610  0.2951 -1.6439
   88MOL0     C12045   5.703   2.109   8.629  1.4377 -0.1798 -0.3909
   88MOL0     C12046   5.692   2.185   8.487  0.4006  0.2506 -0.4761
   88MOL0     C12047   5.614   2.097   8.394  0.4784  0.0452 -0.0223
   88MOL0     C12048   5.565   2.162   8.263  0.0370 -0.3572  0.4736
   88MOL0     C12049   5.478   2.049   8.187  0.6287 -0.3725 -1.1243
   88MOL0     C12050   5.451   2.083   8.037 -0.9676  0.6841 -0.2896
   88MOL0    Cl12051   5.324   2.199   8.001  0.2610  0.2254 -0.1546
   88MOL0     C12052   5.574   1.781   9.014 -0.2796 -0.8542 -0.4303
   88MOL0     C12053   5.559   1.731   9.146 -0.4837 -0.8936 -0.2651
   88MOL0     O12054   5.528   1.500   9.332  0.2304 -0.1705  0.2633
   88MOL0     C12055   5.765   1.605   9.596 -0.9882 -1.0546 -0.7179
   88MOL0     C12056   5.799   1.582   9.730  0.0474  0.0318 -0.1546
   88MOL0     N12057   6.034   1.322  10.404  0.5935  0.0273 -0.7689
   88MOL0     N12058   6.147   1.292  10.350  0.8276  0.3566 -1.0684
   88MOL0     C12059   5.984   1.175   9.251  0.1357 -0.2346  0.6593
   88MOL0     C12060   5.990   1.241   9.133  0.2303 -0.7713 -0.5734
   88MOL0     C12061   5.832   1.414   8.735 -0.2396 -0.1260 -0.0909
   88MOL0     C12062   5.964   1.391   8.683  0.7713 -0.2319  0.4347
   88MOL0     C12063   6.005   1.471   8.571  0.9289  0.4769  0.7713
   88MOL0     C12064   5.912   1.550   8.498 -0.2166  0.5930  0.7192
   88MOL0     O12065   5.953   1.615   8.393 -1.0767 -0.1531 -0.5887
   88MOL0     C12066   6.053   1.562   8.306  0.5794 -0.2608 -0.3094
   88MOL0     C12067   6.028   1.611   8.158 -0.2357 -0.5762  0.7489
   88MOL0     C12068   5.878   1.601   8.099 -0.5651 -0.1290  0.3030
   88MOL0     C12069   5.803   1.733   8.126 -0.1922  0.3901 -1.0031
   88MOL0     C12070   5.671   1.718   8.067  0.2725 -0.3952 -0.1051
   88MOL0     C12071   5.553   1.698   8.040 -0.0840 -0.7439  0.1733
   88MOL0     C12072   5.784   1.574   8.556 -0.3894  0.4288  0.2777
   88MOL0     C12073   5.743   1.507   8.668 -0.7703  0.0656  0.0652
   88MOL0     C12074   5.601   1.529   8.712  0.7734  0.1433  0.4642
   88MOL0     H12075   5.660   1.343   9.139 -0.8205  0.2235  2.7757
   88MOL0     H12076   5.657   1.205   9.342 -1.1194 -0.8297 -0.8692
   88MOL0     H12077   5.714   1.109   9.560 -0.2286 -1.2672  0.7604
   88MOL0     H12078   5.826   1.237   9.552 -0.3895  0.4051  0.6434
   88MOL0     H12079   5.841   1.066   9.761 -0.5261  0.2228  0.2607
   88MOL0     H12080   5.952   0.987   9.634 -0.2608  0.4110 -2.1830
   88MOL0     H12081   6.071   1.202   9.638  1.6213 -4.2994  1.4278
   88MOL0     H12082   5.945   1.273   9.750 -0.8563  0.6840 -0.5104
   88MOL0     H12083   6.019   1.079   9.901 -0.8522 -0.1105 -1.5972
   88MOL0     H12084   6.143   1.031   9.781  2.4063  0.7465  0.5199
   88MOL0     H12085   6.262   1.247   9.805  0.1412 -0.6793 -0.2819
   88MOL0     H12086   6.257   1.134   9.939  0.5114  0.2262 -1.7412
   88MOL0     H12087   6.067   1.371   9.919  2.1686  1.0816 -2.4691
   88MOL0     H12088   6.094   1.274  10.069 -3.2363  4.0216 -0.0509
   88MOL0     H12089   6.226   1.507  10.002  0.1602  0.2804 -0.1216
   88MOL0     H12090   6.338   1.375   9.959 -0.6318  0.2722 -0.5917
   88MOL0     H12091   6.349   1.296  10.183  2.4891  1.1872 -0.0420
   88MOL0     H12092   6.361   1.469  10.188 -0.5590  1.0543 -1.2417
   88MOL0     H12093   6.122   1.592  10.231  1.2714 -1.4344 -1.0685
   88MOL0     H12094   5.855   1.603  10.408 -0.7824 -0.2137  0.3598
   88MOL0     H12095   5.794   1.448  10.437 -2.0811  2.4305  0.4859
   88MOL0     H12096   5.682   1.483  10.264 -0.1439 -0.0523  0.7432
   88MOL0     H12097   5.796   1.564  10.162 -1.2351  0.3933 -0.3633
   88MOL0     H12098   5.911   1.315  10.164 -0.2907  0.9686  0.4712
   88MOL0     H12099   5.750   1.272  10.221 -1.7328  0.9650  0.9946
   88MOL0     H12100   5.775   1.259   9.972  0.5072  0.2224  0.8819
   88MOL0     H12101   5.641   1.362  10.030 -0.2069 -0.2678 -2.4006
   88MOL0     H12102   5.633   1.294   9.788  0.0444 -0.1837  0.1880
   88MOL0     H12103   5.538   1.233   9.522 -2.8026 -1.9364  1.1971
   88MOL0     H12104   5.420   1.376   9.520  1.4015  1.3587 -2.0506
   88MOL0     H12105   5.454   1.281   9.669  0.8551 -1.0124  0.0787
   88MOL0     H12106   5.884   1.694   9.228  0.6894  2.4206  1.1923
   88MOL0     H12107   5.910   1.731   8.987  0.9255 -1.8154  0.8225
   88MOL0     H12108   5.871   1.989   8.832  0.7928  2.1904 -2.2566
   88MOL0     H12109   5.902   1.831   8.757  0.4054  0.2376 -0.7721
   88MOL0     H12110   5.874   2.002   8.579  0.9663  1.5420  0.6086
   88MOL0     H12111   5.715   1.901   8.580  0.5076 -2.1837  1.1392
   88MOL0     H12112   5.750   2.186   8.691 -2.5545  1.0930  1.4435
   88MOL0     H12113   5.599   2.098   8.662  1.3743  1.1927 -0.0552
   88MOL0     H12114   5.783   2.233   8.448  0.7356 -0.2111 -0.2724
   88MOL0     H12115   5.622   2.266   8.510  0.5676  0.2058  0.2158
   88MOL0     H12116   5.674   2.008   8.371  1.3071  0.9114 -1.3574
   88MOL0     H12117   5.532   2.065   8.459  1.9693  0.2474  2.0536
   88MOL0     H12118   5.643   2.197   8.195 -0.6174  0.0552 -0.0836
   88MOL0     H12119   5.506   2.248   8.297 -1.0113 -1.1111  0.6264
   88MOL0     H12120   5.389   2.032   8.248  2.2519 -3.2650  0.6758
   88MOL0     H12121   5.527   1.951   8.180  5.0725  1.6636 -2.3651
   88MOL0     H12122   5.442   1.986   7.988  2.8729 -0.4112  0.8345
   88MOL0     H12123   5.547   2.100   7.989 -1.4904 -2.6541 -2.9041
   88MOL0     H12124   5.483   1.806   8.961 -1.2120  0.5439  1.6859
   88MOL0     H12125   5.463   1.731   9.197  0.3969 -1.4857  1.4852
   88MOL0     H12126   5.802   1.689   9.537 -4.1437 -0.5418 -2.1908
   88MOL0     H12127   5.867   1.651   9.780  1.5144 -0.2445 -1.6518
   88MOL0     H12128   6.074   1.147   9.305 -1.8780  0.7494  4.9649
   88MOL0     H12129   6.080   1.260   9.076 -0.9195 -3.1257 -3.4907
   88MOL0     H12130   6.040   1.330   8.731  0.2808 -0.8604  0.4253
   88MOL0     H12131   6.104   1.464   8.526  2.7130 -0.7129  4.4908
   88MOL0     H12132   6.151   1.577   8.352 -0.1835 -3.3522  2.7737
   88MOL0     H12133   6.027   1.456   8.302  0.3880 -0.4157  2.5019
   88MOL0     H12134   6.079   1.530   8.105 -1.0925  1.0358 -2.8543
   88MOL0     H12135   6.078   1.705   8.130 -0.4652 -0.7969 -0.4954
   88MOL0     H12136   5.892   1.590   7.991 -1.1446  1.3158  0.0607
   88MOL0     H12137   5.821   1.513   8.131 -1.1765  1.5186  4.2951
   88MOL0     H12138   5.860   1.822   8.098 -0.9156  0.9252 -0.8279
   88MOL0     H12139   5.787   1.736   8.234  2.8662 -0.7323 -0.4214
   88MOL0     H12140   5.450   1.676   8.018 -0.3673  0.8755 -0.2701
   88MOL0     H12141   5.716   1.644   8.508 -3.0872 -0.7933  2.0609
   88MOL0     H12142   5.545   1.567   8.626  1.9113 -0.4301 -0.5580
   88MOL0     H12143   5.561   1.429   8.731 -1.6696  1.1525  1.0017
   88MOL0     H12144   5.583   1.598   8.794  0.1595  0.3583  0.1610
   89MOL0     O12145   3.739  10.217   7.049  0.5751 -0.8005 -0.6385
   89MOL0     C12146   3.653  10.299   7.089 -0.5101 -0.7198  0.0829
   89MOL0     O12147   3.685  10.400   7.178  0.3996 -0.6039 -0.1946
   89MOL0     C12148   3.807  10.415   7.234 -0.6138  0.3596  0.0602
   89MOL0     C12149   3.813  10.414   7.378 -0.5623 -1.2390  0.1905
   89MOL0     C12150   3.938  10.387   7.434  1.0977 -0.7931 -0.0947
   89MOL0     C12151   4.055  10.369   7.360  0.0615 -0.1503  1.2083
   89MOL0     O12152   4.179  10.345   7.400  0.8594  1.1640  0.1108
   89MOL0     C12153   4.215  10.356   7.540  0.1494  0.1676 -0.4850
   89MOL0     C12154   4.335  10.280   7.562  0.6024  0.2813 -0.4959
   89MOL0     C12155   4.445  10.332   7.470  0.1624 -0.5166  0.1333
   89MOL0     C12156   4.586  10.328   7.534  0.2681  0.2446 -0.5577
   89MOL0     C12157   4.672  10.449   7.467 -0.2242  1.3622 -0.4639
   89MOL0     C12158   4.817  10.427   7.510  0.3218  0.2313  0.7975
   89MOL0     C12159   4.914  10.535   7.453 -0.0091  0.2298 -0.2148
   89MOL0     C12160   5.029  10.560   7.549  0.0305  0.6772 -0.0736
   89MOL0     N12161   5.119  10.444   7.545 -0.2578  0.4215  0.1053
   89MOL0     C12162   5.220  10.429   7.452  0.3381  0.2677 -0.6095
   89MOL0     C12163   5.261  10.305   7.467 -0.3141 -0.2696 -0.4282
   89MOL0     C12164   5.373  10.232   7.393  0.5744  0.6263  0.5843
   89MOL0     C12165   5.491  10.302   7.433 -0.3292 -1.4487  0.0097
   89MOL0     C12166   5.605  10.253   7.347 -1.4092 -0.3287 -0.2431
   89MOL0     C12167   5.743  10.331   7.356  0.7548  0.1804  0.5148
   89MOL0     O12168   5.729  10.436   7.265  0.2830 -0.5583 -0.7243
   89MOL0     C12169   5.832  10.460   7.172 -0.4104  1.2803  0.3643
   89MOL0     C12170   5.959  10.471   7.220  0.1175 -0.3641  0.2046
   89MOL0     C12171   6.068  10.486   7.132  0.0186  0.8393 -1.2956
   89MOL0     C12172   6.199  10.493   7.202 -0.5390  1.0298  0.4545
   89MOL0     C12173   6.047  10.487   6.989  0.1034 -0.2468 -0.2732
   89MOL0     C12174   6.155  10.507   6.895  0.1808  0.1482 -0.1599
   89MOL0     O12175   6.138  10.607   6.804  0.3778  0.3878  0.2393
   89MOL0     C12176   6.238  10.636   6.721  0.1942  0.2959 -0.6073
   89MOL0     C12177   6.284  10.538   6.630 -0.9071  0.3585  0.1432
   89MOL0     C12178   6.402  10.569   6.549  0.1057  0.0008 -0.1332
   89MOL0     C12179   6.472  10.688   6.556  0.6674 -0.3590 -0.5406
   89MOL0     O12180   6.586  10.704   6.473 -0.5287 -0.1482 -0.4563
   89MOL0     C12181   6.698  10.799   6.498 -0.4140  1.2434 -1.0199
   89MOL0     C12182   6.708  10.903   6.394  0.0038  0.3853 -0.2022
   89MOL0     C12183   6.786  11.025   6.440  0.0047  0.6965 -0.4267
   89MOL0     C12184   6.808  11.137   6.335 -0.6708 -0.0795  0.2007
   89MOL0     C12185   6.943  11.110   6.263 -0.1833  0.0212 -0.4178
   89MOL0     C12186   7.070  11.190   6.330  0.1494  0.6563  0.3202
   89MOL0     C12187   7.192  11.155   6.247  0.6024  0.5779  0.1695
   89MOL0     C12188   7.316  11.194   6.318  0.5101  0.1582  0.3582
   89MOL0    Cl12189   7.423  11.288   6.212 -0.6435  0.1640 -0.0163
   89MOL0     C12190   6.416  10.775   6.657 -1.1131  1.0573 -0.0967
   89MOL0     C12191   6.298  10.754   6.731  0.3096  0.0826  0.2367
   89MOL0     O12192   6.252  10.432   6.908 -0.8709  0.2789  0.2893
   89MOL0     C12193   5.912  10.489   6.942  0.1162 -0.2825 -0.2519
   89MOL0     C12194   5.801  10.475   7.034 -0.2001 -0.0380 -0.1429
   89MOL0     N12195   5.188  10.242   7.569  0.2791  0.0112  0.7234
   89MOL0     N12196   5.101  10.320   7.601  0.4606  0.8955  0.1078
   89MOL0     C12197   4.046  10.379   7.218  0.6153  0.4839  0.0797
   89MOL0     C12198   3.930  10.412   7.159 -0.6061 -0.8450  0.2581
   89MOL0     C12199   3.514  10.294   7.032 -0.5089  0.4548 -0.2387
   89MOL0     C12200   3.434  10.171   7.036 -0.7187 -0.7837 -0.1667
   89MOL0     C12201   3.307  10.170   6.980 -0.4085  0.3903 -0.8328
   89MOL0     C12202   3.251  10.281   6.924  0.0995 -0.0437 -0.0310
   89MOL0     O12203   3.125  10.283   6.870  0.3504 -0.6282  0.4418
   89MOL0     C12204   3.053  10.168   6.853  0.9191  0.4140  0.2527
   89MOL0     C12205   2.935  10.187   6.751  0.3577  0.0333  0.3468
   89MOL0     C12206   2.990  10.217   6.626  0.4950  0.2617 -0.4090
   89MOL0     C12207   2.884  10.232   6.521 -1.4213 -0.1690  0.4215
   89MOL0     C12208   2.853  10.103   6.452 -0.9113  0.1321  0.1289
   89MOL0     C12209   2.809  10.001   6.411 -0.6618  0.4400  0.3084
   89MOL0     C12210   3.316  10.402   6.929  0.0614  0.3401 -0.1177
   89MOL0     C12211   3.447  10.408   6.975  0.1589  1.0039 -1.0926
   89MOL0     C12212   3.527  10.540   6.963  0.2169  0.3024 -0.0390
   89MOL0     H12213   3.729  10.438   7.442  1.6003  4.5005  1.4911
   89MOL0     H12214   3.940  10.377   7.542  1.9455  1.3952  0.1508
   89MOL0     H12215   4.137  10.310   7.602  1.0434 -4.5285 -2.4760
   89MOL0     H12216   4.229  10.458   7.578  1.3791 -0.5523  1.1055
   89MOL0     H12217   4.364  10.276   7.667  0.3096 -1.4769 -0.4528
   89MOL0     H12218   4.318  10.176   7.531  1.7067  0.3455 -1.4272
   89MOL0     H12219   4.428  10.282   7.374  0.2654  0.0153 -0.1676
   89MOL0     H12220   4.426  10.439   7.459 -3.7565 -1.2244 -1.6404
   89MOL0     H12221   4.582  10.336   7.643 -0.2666 -1.3664 -0.4348
   89MOL0     H12222   4.627  10.229   7.511 -0.3630 -0.8349  2.4979
   89MOL0     H12223   4.637  10.544   7.507 -2.1388 -0.0219  1.3893
   89MOL0     H12224   4.665  10.455   7.358 -1.0425 -0.0411 -0.5160
   89MOL0     H12225   4.821  10.415   7.619 -2.6601  2.3626  1.2532
   89MOL0     H12226   4.852  10.334   7.464 -0.1014 -0.3038  1.5270
   89MOL0     H12227   4.877  10.638   7.453  2.2031  1.1105  1.9011
   89MOL0     H12228   4.950  10.530   7.350  0.3374  1.9741 -0.2076
   89MOL0     H12229   5.070  10.660   7.534  0.9992  0.2842 -0.1206
   89MOL0     H12230   4.997  10.563   7.654  2.0387 -1.5131  0.6747
   89MOL0     H12231   5.264  10.502   7.386  2.0654 -0.1993 -0.0144
   89MOL0     H12232   5.377  10.238   7.283  4.0022  0.0012  0.5471
   89MOL0     H12233   5.363  10.127   7.423 -1.1282 -0.1810 -2.4114
   89MOL0     H12234   5.485  10.411   7.421  1.1760 -1.1113  1.8330
   89MOL0     H12235   5.528  10.273   7.532  2.7828 -1.1804 -0.9871
   89MOL0     H12236   5.629  10.150   7.376 -2.6161 -0.4036  0.5822
   89MOL0     H12237   5.577  10.256   7.241  2.5314 -0.6181 -1.4507
   89MOL0     H12238   5.778  10.363   7.454 -0.4358  0.4078  0.8743
   89MOL0     H12239   5.820  10.265   7.313 -0.4464  1.4734 -4.2816
   89MOL0     H12240   5.972  10.468   7.328 -3.3470 -2.9066  0.7305
   89MOL0     H12241   6.263  10.408   7.180 -1.2785  0.3550  0.8260
   89MOL0     H12242   6.198  10.482   7.311  1.6872 -0.9922  0.3494
   89MOL0     H12243   6.240  10.586   7.162 -1.9552  1.9356  1.0153
   89MOL0     H12244   6.230  10.445   6.619 -0.0895 -0.0223 -0.7025
   89MOL0     H12245   6.433  10.512   6.462  2.4118  1.4080 -0.2955
   89MOL0     H12246   6.690  10.838   6.600 -1.1165  1.2094 -1.0515
   89MOL0     H12247   6.790  10.742   6.485 -2.8770 -3.3024 -0.8767
   89MOL0     H12248   6.765  10.878   6.304  2.3920  1.9155  0.7773
   89MOL0     H12249   6.607  10.941   6.381 -0.2399  0.1924  1.0702
   89MOL0     H12250   6.874  11.000   6.500 -0.7596  0.2012  0.5232
   89MOL0     H12251   6.722  11.080   6.509 -0.0923  0.0511  0.0028
   89MOL0     H12252   6.814  11.232   6.388 -2.0488  0.6343 -0.8744
   89MOL0     H12253   6.728  11.135   6.261  1.0004  0.2694 -1.7294
   89MOL0     H12254   6.961  11.002   6.261  1.1195  0.2212 -0.5576
   89MOL0     H12255   6.934  11.147   6.161  0.0302  2.2814  0.3289
   89MOL0     H12256   7.081  11.149   6.431  0.0025 -0.7737 -0.2116
   89MOL0     H12257   7.047  11.296   6.329 -0.4343  0.5330  0.3665
   89MOL0     H12258   7.194  11.209   6.152  0.5046  1.9691  0.9423
   89MOL0     H12259   7.192  11.054   6.205 -0.0042  1.9523 -3.4970
   89MOL0     H12260   7.371  11.101   6.335  5.2723  2.3988 -1.1823
   89MOL0     H12261   7.294  11.259   6.403 -1.6808  1.2028 -0.9353
   89MOL0     H12262   6.460  10.874   6.663 -0.0006  0.6258 -0.7996
   89MOL0     H12263   6.278  10.827   6.808  0.9521  1.7681 -1.1192
   89MOL0     H12264   5.904  10.492   6.833  1.6963  1.8775 -0.3728
   89MOL0     H12265   5.701  10.472   6.994  0.3410 -0.3883 -1.5083
   89MOL0     H12266   4.139  10.367   7.164  1.0771 -0.6061  1.0740
   89MOL0     H12267   3.918  10.399   7.052 -2.9806 -4.1503  0.7715
   89MOL0     H12268   3.473  10.078   7.075  0.5063  0.5578  1.9964
   89MOL0     H12269   3.240  10.087   7.001  0.7684 -0.3743  0.0111
   89MOL0     H12270   3.109  10.075   6.837 -0.1717 -0.3063  0.4880
   89MOL0     H12271   2.993  10.146   6.942 -0.1423  1.2437 -0.2416
   89MOL0     H12272   2.859  10.262   6.774 -0.5365 -0.8443  0.3215
   89MOL0     H12273   2.890  10.089   6.730  1.9478 -0.5983 -0.2948
   89MOL0     H12274   3.040  10.315   6.620  1.8352 -0.2731  1.2997
   89MOL0     H12275   3.068  10.146   6.599  1.1470 -0.3860  2.7892
   89MOL0     H12276   2.918  10.287   6.433 -2.1136 -4.1287 -2.5886
   89MOL0     H12277   2.794  10.284   6.556 -0.4815  1.1811  0.9012
   89MOL0     H12278   2.781   9.921   6.345  0.9580 -0.4423  0.6408
   89MOL0     H12279   3.289  10.491   6.873 -1.0309  0.7445  1.0139
   89MOL0     H12280   3.553  10.572   7.064 -1.8367 -1.2736  1.0646
   89MOL0     H12281   3.619  10.521   6.906 -1.1812  0.9517 -2.6579
   89MOL0     H12282   3.465  10.606   6.902  2.8618  0.0491 -3.2895
   90MOL0     O12283   0.552   0.160   3.964  0.4191 -0.4931  0.4019
   90MOL0     C12284   0.660   0.104   3.979  0.1558 -1.4145 -0.5033
   90MOL0     O12285   0.686  -0.030   4.007  0.2693 -0.6015 -0.5439
   90MOL0     C12286   0.575  -0.108   4.026  0.5733  0.0988 -0.0220
   90MOL0     C12287   0.492  -0.097   4.141 -0.9149 -0.2175  0.1995
   90MOL0     C12288   0.390  -0.196   4.154  0.5078 -0.5635 -0.1672
   90MOL0     C12289   0.387  -0.308   4.067  0.2926  0.5863  0.6180
   90MOL0     O12290   0.300  -0.418   4.085 -0.4748  0.2844 -0.6112
   90MOL0     C12291   0.216  -0.429   4.200  0.2469 -1.0745 -0.2288
   90MOL0     C12292   0.124  -0.550   4.210 -0.0175  0.2732  0.1930
   90MOL0     C12293   0.067  -0.567   4.070 -0.2373 -0.0769  0.5637
   90MOL0     C12294  -0.014  -0.703   4.053  0.1889  0.2804  0.4122
   90MOL0     C12295  -0.087  -0.716   3.921  0.4359  0.4551  0.2751
   90MOL0     C12296  -0.185  -0.834   3.903  0.3969 -0.1329  0.9601
   90MOL0     C12297  -0.295  -0.839   4.015  0.2530  0.1714 -0.3820
   90MOL0     C12298  -0.417  -0.931   3.997  1.2763  0.2227  0.4130
   90MOL0     N12299  -0.477  -0.910   3.869  0.9588 -0.6602  0.2048
   90MOL0     C12300  -0.587  -0.823   3.828 -0.2959 -0.0348 -1.7562
   90MOL0     C12301  -0.605  -0.825   3.696 -0.2858 -0.5608 -0.4474
   90MOL0     C12302  -0.722  -0.771   3.630 -0.4692  0.0299 -0.8750
   90MOL0     C12303  -0.833  -0.876   3.605  0.1867 -0.0303  0.3068
   90MOL0     C12304  -0.793  -0.975   3.495 -0.0561  0.7624 -0.6252
   90MOL0     C12305  -0.909  -1.079   3.485 -0.1347 -0.9505  0.5969
   90MOL0     O12306  -1.047  -1.038   3.491  0.2756  0.3385 -0.3569
   90MOL0     C12307  -1.088  -0.974   3.378  0.4864  0.1629  0.9275
   90MOL0     C12308  -1.073  -1.024   3.250 -0.2697 -0.0839 -0.8967
   90MOL0     C12309  -1.123  -0.956   3.133 -0.4431 -1.1938 -0.5266
   90MOL0     C12310  -1.090  -1.028   3.009  0.5764 -0.3382  0.8662
   90MOL0     C12311  -1.207  -0.839   3.149  0.2532 -0.1960 -0.6921
   90MOL0     C12312  -1.278  -0.765   3.043 -0.5120 -0.1741  0.3880
   90MOL0     O12313  -1.275  -0.629   3.053 -0.9165  0.2140  0.5096
   90MOL0     C12314  -1.294  -0.547   2.947  1.2823  0.5987 -0.3000
   90MOL0     C12315  -1.402  -0.558   2.854 -0.1861  0.2380  0.2133
   90MOL0     C12316  -1.403  -0.473   2.741  0.1074  1.2144  0.5286
   90MOL0     C12317  -1.299  -0.388   2.708 -0.9772  0.2979 -0.4956
   90MOL0     O12318  -1.294  -0.301   2.603 -0.0305  0.1867  0.3471
   90MOL0     C12319  -1.407  -0.293   2.516 -0.5759  0.5059 -0.5087
   90MOL0     C12320  -1.372  -0.180   2.430  0.9300 -1.1578 -0.0446
   90MOL0     C12321  -1.253  -0.205   2.330 -0.6195 -0.1919  0.5270
   90MOL0     C12322  -1.275  -0.315   2.223 -0.7143  0.0137 -0.2071
   90MOL0     C12323  -1.177  -0.301   2.108 -0.5805 -0.3140  0.1866
   90MOL0     C12324  -1.181  -0.417   2.009  0.2574  0.7867  0.4997
   90MOL0     C12325  -1.051  -0.427   1.933 -0.2207  0.4458  1.2399
   90MOL0     C12326  -1.039  -0.545   1.842 -0.5838 -0.6474  0.0701
   90MOL0    Cl12327  -1.173  -0.553   1.723  0.1390  0.2689 -0.0375
   90MOL0     C12328  -1.190  -0.394   2.791 -1.0603  0.6029 -1.0584
   90MOL0     C12329  -1.186  -0.469   2.915 -0.5840 -0.3621 -0.5348
   90MOL0     O12330  -1.346  -0.823   2.962  0.5508 -0.1543 -0.4256
   90MOL0     C12331  -1.219  -0.788   3.279  0.3572 -0.2423 -0.1843
   90MOL0     C12332  -1.164  -0.859   3.383  0.3023 -0.3232 -1.3671
   90MOL0     N12333  -0.509  -0.914   3.654  0.5037  0.6248 -0.0500
   90MOL0     N12334  -0.428  -0.957   3.749 -0.1058 -0.7845 -0.1224
   90MOL0     C12335   0.480  -0.310   3.959  0.5079 -0.3442  0.4775
   90MOL0     C12336   0.568  -0.215   3.940  0.5484  0.4568 -0.7724
   90MOL0     C12337   0.786   0.184   3.956  0.8314 -0.0035  0.7139
   90MOL0     C12338   0.903   0.118   3.930 -0.4350 -0.7953 -0.2185
   90MOL0     C12339   1.031   0.186   3.912  0.4537  0.6734 -0.5441
   90MOL0     C12340   1.040   0.324   3.932  0.1693  0.4793 -0.0226
   90MOL0     O12341   1.162   0.382   3.949  0.3755 -0.2815 -0.2229
   90MOL0     C12342   1.184   0.509   4.010 -0.2492  0.1876  0.2898
   90MOL0     C12343   1.223   0.618   3.903 -0.3073 -0.1502 -1.4219
   90MOL0     C12344   1.120   0.643   3.797  0.1806 -0.4853 -0.2742
   90MOL0     C12345   1.172   0.752   3.702  0.2589  0.2848  0.0704
   90MOL0     C12346   1.179   0.880   3.775  0.0360  0.0329  0.5821
   90MOL0     C12347   1.200   0.964   3.855 -0.3119  0.4082 -0.7731
   90MOL0     C12348   0.918   0.391   3.944 -0.4911 -0.2515 -0.5355
   90MOL0     C12349   0.795   0.327   3.952  0.8106  0.5024 -0.4947
   90MOL0     C12350   0.675   0.416   3.978 -0.6460  0.1229  0.7195
   90MOL0     H12351   0.500  -0.010   4.206 -1.3945  2.1207 -2.6430
   90MOL0     H12352   0.318  -0.199   4.236  0.1447 -0.4792 -0.4810
   90MOL0     H12353   0.159  -0.336   4.201  1.0134 -0.6022  0.4227
   90MOL0     H12354   0.272  -0.423   4.293  0.5730  1.3454 -0.5129
   90MOL0     H12355   0.178  -0.642   4.238  1.1467  0.4222 -1.4215
   90MOL0     H12356   0.045  -0.529   4.282  0.8054 -0.7367  1.4538
   90MOL0     H12357   0.014  -0.473   4.053  1.6571  1.0056  0.3864
   90MOL0     H12358   0.152  -0.581   4.002 -0.5555 -3.7338  0.6791
   90MOL0     H12359   0.051  -0.791   4.052  1.7752  1.3625 -2.6110
   90MOL0     H12360  -0.089  -0.707   4.133 -2.1877  0.9393 -1.6169
   90MOL0     H12361  -0.013  -0.735   3.843  2.1770 -0.8951  2.1421
   90MOL0     H12362  -0.141  -0.624   3.898 -0.5034 -0.0924  0.2417
   90MOL0     H12363  -0.234  -0.807   3.810 -1.4564  0.7640  2.1267
   90MOL0     H12364  -0.130  -0.928   3.911 -2.0368 -1.4711  4.2197
   90MOL0     H12365  -0.337  -0.739   4.029 -1.7693 -0.5569 -0.9166
   90MOL0     H12366  -0.246  -0.878   4.105 -0.8692 -1.1344 -0.2960
   90MOL0     H12367  -0.389  -1.035   4.020  0.2620 -0.7411 -2.2642
   90MOL0     H12368  -0.483  -0.891   4.075  1.8989  4.4153 -0.9802
   90MOL0     H12369  -0.645  -0.767   3.901  0.1516 -0.3714 -1.1395
   90MOL0     H12370  -0.702  -0.716   3.538  0.8355 -1.0866 -1.2869
   90MOL0     H12371  -0.762  -0.689   3.691 -0.9462  1.0398 -2.4819
   90MOL0     H12372  -0.853  -0.931   3.697 -2.2583 -0.5160 -0.4178
   90MOL0     H12373  -0.928  -0.828   3.579 -0.7713 -0.9337  1.9855
   90MOL0     H12374  -0.777  -0.916   3.404  1.4021 -1.0126 -1.5999
   90MOL0     H12375  -0.695  -1.017   3.520 -0.8792 -0.3631  0.8526
   90MOL0     H12376  -0.891  -1.145   3.401  0.5769  1.0399 -0.8994
   90MOL0     H12377  -0.907  -1.133   3.580  1.3812  0.5368  1.4783
   90MOL0     H12378  -1.020  -1.118   3.239 -0.4372 -0.4655  1.1833
   90MOL0     H12379  -1.103  -1.136   3.018  1.4949 -1.1210 -3.9450
   90MOL0     H12380  -0.983  -1.015   2.987  0.1139  2.2681 -0.1311
   90MOL0     H12381  -1.142  -0.980   2.926 -0.0290  1.6181  2.3121
   90MOL0     H12382  -1.477  -0.632   2.878 -0.1162  0.1241  0.0809
   90MOL0     H12383  -1.495  -0.474   2.684  0.2846  0.3869  0.2444
   90MOL0     H12384  -1.424  -0.379   2.451 -2.1751  0.0763  0.4028
   90MOL0     H12385  -1.497  -0.285   2.578 -0.1049 -4.4855  1.2142
   90MOL0     H12386  -1.463  -0.169   2.370  0.9432  0.1849  0.1604
   90MOL0     H12387  -1.361  -0.095   2.498 -1.5631 -0.2064 -0.6950
   90MOL0     H12388  -1.161  -0.226   2.386 -0.8400 -0.9599  0.6152
   90MOL0     H12389  -1.224  -0.112   2.279  0.0679 -1.4065 -1.4012
   90MOL0     H12390  -1.377  -0.305   2.187 -0.9938  0.8938  0.7944
   90MOL0     H12391  -1.266  -0.416   2.266  0.2570 -0.2299 -0.9279
   90MOL0     H12392  -1.199  -0.210   2.052  0.3859  0.1137  0.4774
   90MOL0     H12393  -1.083  -0.289   2.163 -2.1154 -2.4172  3.6282
   90MOL0     H12394  -1.252  -0.395   1.930  2.3319  1.5246 -1.2602
   90MOL0     H12395  -1.195  -0.510   2.065  2.0547  0.9079  1.2261
   90MOL0     H12396  -0.967  -0.439   2.002  1.4021  1.2825 -0.5114
   90MOL0     H12397  -1.044  -0.334   1.876  2.5945 -1.4249 -1.8545
   90MOL0     H12398  -1.049  -0.639   1.898  1.1441 -1.2633 -0.5921
   90MOL0     H12399  -0.946  -0.537   1.784  1.5762  1.6405  3.4377
   90MOL0     H12400  -1.100  -0.345   2.755 -0.9401 -0.6814 -2.5906
   90MOL0     H12401  -1.094  -0.468   2.973 -1.1070  3.9525  0.5663
   90MOL0     H12402  -1.293  -0.709   3.291  0.7052  0.9654 -4.4297
   90MOL0     H12403  -1.185  -0.822   3.483  0.3110  1.9907 -2.1829
   90MOL0     H12404   0.468  -0.390   3.887  1.6997  1.4237 -1.8200
   90MOL0     H12405   0.640  -0.227   3.860  1.0363  1.5438 -0.5214
   90MOL0     H12406   0.903   0.009   3.921 -0.4546 -0.9292  1.2282
   90MOL0     H12407   1.114   0.125   3.881 -0.2688 -0.0350 -1.1344
   90MOL0     H12408   1.091   0.528   4.064  1.0492  1.8847  2.0412
   90MOL0     H12409   1.261   0.500   4.087 -1.9892  0.6498  2.1675
   90MOL0     H12410   1.313   0.593   3.846 -1.1493  0.3375 -3.0244
   90MOL0     H12411   1.248   0.701   3.969  1.5354 -0.8562 -1.1659
   90MOL0     H12412   1.094   0.551   3.744 -3.7334  0.0167  0.4616
   90MOL0     H12413   1.032   0.679   3.850 -0.0233  1.4228 -1.7903
   90MOL0     H12414   1.104   0.747   3.617  1.9665 -4.4342 -1.3774
   90MOL0     H12415   1.270   0.725   3.663  0.5144 -0.8548  1.4064
   90MOL0     H12416   1.217   1.040   3.929 -0.7671 -0.9828  0.8361
   90MOL0     H12417   0.913   0.499   3.953  0.1030  0.2862 -4.7577
   90MOL0     H12418   0.607   0.400   3.894  0.5314 -0.3874 -0.1592
   90MOL0     H12419   0.626   0.410   4.076  0.7160 -0.1410  1.4076
   90MOL0     H12420   0.691   0.524   3.979 -3.2839  0.5841  0.2620
   91MOL0     O12421   9.926   8.894   2.743 -0.1139  0.0214 -0.3330
   91MOL0     C12422   9.826   8.849   2.802  0.3242 -0.2448 -0.2835
   91MOL0     O12423   9.704   8.913   2.826 -0.2709  0.2601  0.8285
   91MOL0     C12424   9.680   9.043   2.791 -0.6200 -0.0353  0.3580
   91MOL0     C12425   9.548   9.065   2.752  1.3259  0.1177  0.5589
   91MOL0     C12426   9.508   9.198   2.715  0.9494 -0.7592 -0.5193
   91MOL0     C12427   9.591   9.306   2.734 -0.5165  0.0710 -0.8889
   91MOL0     O12428   9.545   9.425   2.703  0.9443 -0.3148  0.1892
   91MOL0     C12429   9.571   9.541   2.796 -0.0294 -0.0832 -0.4740
   91MOL0     C12430   9.527   9.674   2.738 -0.5979 -0.1177  0.7210
   91MOL0     C12431   9.593   9.725   2.603 -0.1875  0.8417  0.2061
   91MOL0     C12432   9.681   9.851   2.611  0.3800  0.4007 -0.1270
   91MOL0     C12433   9.810   9.820   2.675  0.5491 -0.0711 -0.3129
   91MOL0     C12434   9.931   9.757   2.593 -0.2882  1.0358  0.9181
   91MOL0     C12435  10.034   9.739   2.701 -0.0126 -0.3642 -0.0115
   91MOL0     C12436  10.022   9.607   2.784  0.6720 -0.0020 -0.5640
   91MOL0     N12437  10.114   9.621   2.902 -0.5965 -0.0234  1.1209
   91MOL0     C12438  10.237   9.689   2.906 -0.9222 -1.0894  0.4347
   91MOL0     C12439  10.272   9.695   3.035 -0.6399  0.2846 -0.2464
   91MOL0     C12440  10.399   9.749   3.089 -0.1424  0.1143 -0.0162
   91MOL0     C12441  10.435   9.686   3.218 -0.6727  0.5017  0.0703
   91MOL0     C12442  10.570   9.744   3.267  0.1522  0.1073 -0.0782
   91MOL0     C12443  10.615   9.690   3.402  1.4694  0.1980 -0.2527
   91MOL0     O12444  10.494   9.706   3.482 -0.7585 -0.2644 -0.6343
   91MOL0     C12445  10.507   9.741   3.614 -0.1918 -0.8644 -0.0325
   91MOL0     C12446  10.622   9.769   3.688 -0.4723  0.0329 -0.0319
   91MOL0     C12447  10.620   9.812   3.822  0.1177  0.2655 -0.2640
   91MOL0     C12448  10.753   9.852   3.884  0.1770 -0.3785  0.5024
   91MOL0     C12449  10.494   9.806   3.891 -0.1805  0.3426 -0.4035
   91MOL0     C12450  10.483   9.817   4.042 -0.1452 -0.7330 -0.1967
   91MOL0     O12451  10.368   9.890   4.086  0.2199 -0.0360  0.2990
   91MOL0     C12452  10.340   9.929   4.212 -0.0881 -0.8397 -0.1142
   91MOL0     C12453  10.333  10.068   4.223 -0.1826  0.3572  0.2729
   91MOL0     C12454  10.308  10.119   4.353 -0.3247 -0.4472  0.2054
   91MOL0     C12455  10.263  10.036   4.457  0.7426 -0.0314 -0.1677
   91MOL0     O12456  10.212  10.093   4.568 -0.5688  0.4631 -0.2293
   91MOL0     C12457  10.264  10.057   4.698  0.1078 -0.8634  0.0473
   91MOL0     C12458  10.234  10.184   4.781  0.3931  0.1889 -0.0740
   91MOL0     C12459  10.324  10.188   4.904  1.0417 -0.5042 -0.4384
   91MOL0     C12460  10.278  10.297   4.991 -0.3552  0.6193 -0.5654
   91MOL0     C12461  10.354  10.289   5.124 -0.0256 -0.0372 -0.3104
   91MOL0     C12462  10.327  10.407   5.202  0.1812 -0.3100 -0.1502
   91MOL0     C12463  10.416  10.416   5.334  0.2829 -0.2682  0.7966
   91MOL0     C12464  10.344  10.494   5.441 -0.3383 -0.2219 -0.2306
   91MOL0    Cl12465  10.476  10.549   5.552 -0.3820  0.0182 -0.3513
   91MOL0     C12466  10.266   9.894   4.442 -0.6845  0.3302 -0.7396
   91MOL0     C12467  10.316   9.838   4.327 -0.0432 -0.1876  0.6627
   91MOL0     O12468  10.564   9.768   4.113 -0.0682 -0.3062  0.1403
   91MOL0     C12469  10.380   9.779   3.819  0.5397 -0.1017  0.5128
   91MOL0     C12470  10.384   9.751   3.678 -0.1271 -0.0074  0.5259
   91MOL0     N12471  10.169   9.630   3.108  0.5764  0.0364 -0.1786
   91MOL0     N12472  10.072   9.587   3.026 -0.0147 -0.0618  0.4254
   91MOL0     C12473   9.721   9.285   2.770 -0.1556  0.9583  0.0965
   91MOL0     C12474   9.771   9.153   2.800 -0.3510 -0.7675  0.5334
   91MOL0     C12475   9.829   8.705   2.855 -0.2118 -0.1702 -0.2670
   91MOL0     C12476   9.730   8.614   2.816  1.2595  0.3976  0.2664
   91MOL0     C12477   9.729   8.478   2.849  0.0095  0.4250 -0.5531
   91MOL0     C12478   9.839   8.436   2.926  0.0390 -1.3360  0.1025
   91MOL0     O12479   9.845   8.302   2.950 -0.1613 -0.3224  0.9266
   91MOL0     C12480   9.878   8.265   3.086 -0.2296  0.1195  0.3458
   91MOL0     C12481  10.014   8.188   3.105 -0.3328 -0.1200  0.9894
   91MOL0     C12482  10.019   8.127   3.242  0.0300  0.6046 -0.4760
   91MOL0     C12483  10.022   8.231   3.349  0.5709  0.6332  0.2364
   91MOL0     C12484  10.115   8.341   3.326  0.6242  0.4284 -0.0359
   91MOL0     C12485  10.198   8.435   3.321 -0.1132  0.6803 -0.2467
   91MOL0     C12486   9.937   8.525   2.963  0.4714 -0.3036  0.3884
   91MOL0     C12487   9.934   8.661   2.928 -0.3419 -0.0093 -0.5199
   91MOL0     C12488  10.055   8.739   2.983  0.9330 -0.5585  1.3572
   91MOL0     H12489   9.480   8.982   2.734  2.2466 -0.5470  0.0292
   91MOL0     H12490   9.409   9.221   2.678 -0.1528 -0.8228  2.1864
   91MOL0     H12491   9.678   9.551   2.814  0.2722 -0.5336 -1.8971
   91MOL0     H12492   9.518   9.516   2.888 -0.8449 -1.4400 -1.2820
   91MOL0     H12493   9.420   9.684   2.719 -0.6130  0.7588  1.1739
   91MOL0     H12494   9.565   9.756   2.801  0.3608 -0.8540  1.1229
   91MOL0     H12495   9.659   9.643   2.572  0.2328  0.5729  1.7329
   91MOL0     H12496   9.511   9.754   2.538  0.8239  1.4414 -0.8422
   91MOL0     H12497   9.694   9.892   2.511 -0.3119  0.1045 -0.3459
   91MOL0     H12498   9.633   9.937   2.660 -0.0253  0.2351 -0.2245
   91MOL0     H12499   9.790   9.756   2.762 -0.3123 -0.6230 -0.8972
   91MOL0     H12500   9.836   9.918   2.714 -1.4878  0.2670  0.2859
   91MOL0     H12501   9.915   9.659   2.547  1.6503  1.0604  0.1182
   91MOL0     H12502   9.957   9.830   2.516 -1.2318  0.9713  0.5326
   91MOL0     H12503  10.042   9.828   2.764  2.6976 -0.5043 -0.0778
   91MOL0     H12504  10.131   9.737   2.651  0.1646 -2.9088  0.3377
   91MOL0     H12505   9.919   9.585   2.816  0.9926 -2.0346 -0.7803
   91MOL0     H12506  10.054   9.526   2.718  2.0328 -1.4190  1.7192
   91MOL0     H12507  10.301   9.741   2.835 -1.5437 -1.8282 -0.6923
   91MOL0     H12508  10.394   9.856   3.110 -1.9508 -0.2291  1.5078
   91MOL0     H12509  10.485   9.728   3.025  0.4745 -2.2685  1.4457
   91MOL0     H12510  10.363   9.703   3.299  0.9715  0.3575  1.6187
   91MOL0     H12511  10.427   9.579   3.197  0.7072  0.2848  0.5471
   91MOL0     H12512  10.651   9.712   3.202 -0.1881  1.0926 -1.0290
   91MOL0     H12513  10.571   9.854   3.266  1.3909  0.1132 -1.8241
   91MOL0     H12514  10.642   9.584   3.409 -0.6971 -0.5601 -2.2167
   91MOL0     H12515  10.695   9.751   3.446  0.5899 -0.6073  2.6788
   91MOL0     H12516  10.726   9.761   3.657 -0.6496  0.5249 -0.7705
   91MOL0     H12517  10.806   9.909   3.807  1.1438 -1.4029  0.3804
   91MOL0     H12518  10.802   9.756   3.905  1.0790  0.3445  1.8806
   91MOL0     H12519  10.737   9.911   3.974  0.8254 -0.9442  1.0057
   91MOL0     H12520  10.362  10.140   4.147  1.0375 -0.0339  0.3422
   91MOL0     H12521  10.304  10.226   4.371 -1.3698 -0.9516  3.9287
   91MOL0     H12522  10.213   9.968   4.734  0.1366 -1.9615 -2.4231
   91MOL0     H12523  10.371  10.036   4.691 -0.1626 -1.8234 -2.7022
   91MOL0     H12524  10.247  10.278   4.727 -1.2874  0.4479 -0.0962
   91MOL0     H12525  10.125  10.187   4.792 -0.1705  1.0641 -4.2711
   91MOL0     H12526  10.431  10.203   4.895  1.5914 -0.0860  4.1845
   91MOL0     H12527  10.311  10.090   4.952 -1.5864  0.9532  2.1708
   91MOL0     H12528  10.174  10.294   5.023 -0.3679 -2.1684 -0.6365
   91MOL0     H12529  10.289  10.389   4.933  0.0533  1.9549  1.5311
   91MOL0     H12530  10.330  10.202   5.186  3.1167  1.3589  3.2389
   91MOL0     H12531  10.462  10.278   5.111 -0.2601 -1.5574 -1.2668
   91MOL0     H12532  10.220  10.405   5.222  0.2054 -1.2717 -0.0477
   91MOL0     H12533  10.358  10.497   5.148  2.1622 -1.8081 -1.6630
   91MOL0     H12534  10.505  10.474   5.306  0.6751 -0.1078  2.3039
   91MOL0     H12535  10.451  10.317   5.364 -1.3088 -0.3051  2.7651
   91MOL0     H12536  10.287  10.418   5.494  0.7503 -1.0650 -0.2276
   91MOL0     H12537  10.280  10.574   5.402  1.1043  2.4603  2.4693
   91MOL0     H12538  10.233   9.818   4.512 -1.1314 -0.3720 -1.6904
   91MOL0     H12539  10.334   9.732   4.312  1.2790  0.2803 -1.7266
   91MOL0     H12540  10.279   9.770   3.859  0.8253 -2.9048  0.7565
   91MOL0     H12541  10.298   9.723   3.618  0.9081 -0.4095 -0.8294
   91MOL0     H12542   9.779   9.376   2.782  0.6778  0.6768 -1.5114
   91MOL0     H12543   9.875   9.150   2.832 -0.1075  2.2374  0.3962
   91MOL0     H12544   9.655   8.664   2.757 -0.0254  1.1413  2.4452
   91MOL0     H12545   9.655   8.406   2.818 -2.2137  3.1919 -2.2183
   91MOL0     H12546   9.856   8.342   3.161 -0.4024  0.8780 -0.4625
   91MOL0     H12547   9.795   8.200   3.117 -0.3053  1.1250  2.4978
   91MOL0     H12548  10.093   8.262   3.093  0.1005 -0.9650 -2.7089
   91MOL0     H12549  10.030   8.107   3.033  0.4767  0.7698  0.1265
   91MOL0     H12550   9.937   8.057   3.263  1.2210 -0.1309  2.0655
   91MOL0     H12551  10.116   8.077   3.251  0.7378  2.1271  0.7318
   91MOL0     H12552  10.058   8.191   3.444  1.6313 -1.1320 -0.8423
   91MOL0     H12553   9.926   8.281   3.367  1.3176  2.1472  0.1900
   91MOL0     H12554  10.272   8.512   3.316 -1.3018  1.9690  1.1702
   91MOL0     H12555  10.034   8.496   3.001  0.1255  0.9315  2.3972
   91MOL0     H12556  10.121   8.683   3.050  3.9619 -1.3123 -1.9190
   91MOL0     H12557  10.118   8.759   2.896  1.4426 -2.0076  1.3648
   91MOL0     H12558  10.020   8.833   3.027 -0.0481  0.0044 -0.5175
   92MOL0     O12559   5.778   0.680   4.890  0.7092 -0.5354  0.0138
   92MOL0     C12560   5.734   0.741   4.985  1.0169 -1.1312 -0.0276
   92MOL0     O12561   5.687   0.684   5.095 -0.3009 -0.3957 -0.0345
   92MOL0     C12562   5.594   0.591   5.081 -0.3506  0.6547  0.1972
   92MOL0     C12563   5.461   0.611   5.132 -1.2447 -0.3452  0.0512
   92MOL0     C12564   5.360   0.507   5.113  0.3897 -0.0164 -1.2115
   92MOL0     C12565   5.381   0.384   5.054  0.7341  0.6236 -0.2537
   92MOL0     O12566   5.276   0.297   5.061 -0.3849  0.7073  0.0135
   92MOL0     C12567   5.279   0.173   4.975 -0.3822 -0.0292  0.1822
   92MOL0     C12568   5.156   0.084   4.980 -1.2635 -0.4738 -0.4606
   92MOL0     C12569   5.103   0.067   5.121 -0.0936 -0.0254  0.7797
   92MOL0     C12570   5.196  -0.005   5.219  1.4500  0.0669 -0.4866
   92MOL0     C12571   5.124  -0.058   5.340  0.1654 -0.3049 -0.1199
   92MOL0     C12572   5.089   0.062   5.438 -0.1539 -1.0869 -0.0966
   92MOL0     C12573   5.074   0.010   5.580 -0.1395 -0.2822 -0.4383
   92MOL0     C12574   5.203  -0.007   5.665 -0.2190  0.0768 -0.4120
   92MOL0     N12575   5.179  -0.065   5.793 -0.6769  0.2650 -0.2829
   92MOL0     C12576   5.126  -0.190   5.806  1.1231  0.3236 -0.4745
   92MOL0     C12577   5.105  -0.204   5.941  0.0093 -0.8630 -0.5835
   92MOL0     C12578   5.046  -0.327   6.013 -0.5005 -1.0127 -1.2426
   92MOL0     C12579   5.133  -0.365   6.124  0.5337  0.1973 -0.4752
   92MOL0     C12580   5.061  -0.477   6.207 -0.0631  0.0218  0.3944
   92MOL0     C12581   5.138  -0.512   6.329  0.3808 -0.4446 -0.4643
   92MOL0     O12582   5.057  -0.548   6.443 -0.6055  1.1098 -0.3885
   92MOL0     C12583   5.038  -0.684   6.431  0.7098  0.4650  0.4787
   92MOL0     C12584   4.924  -0.735   6.368 -0.5157 -0.4570  0.5482
   92MOL0     C12585   4.891  -0.869   6.351 -0.6857  0.2211  0.2651
   92MOL0     C12586   4.754  -0.900   6.301  0.0541  0.1849  0.9675
   92MOL0     C12587   4.988  -0.970   6.384  0.5780 -0.1910 -0.1977
   92MOL0     C12588   4.973  -1.113   6.348 -0.2793 -0.1630  0.4731
   92MOL0     O12589   5.057  -1.197   6.405  0.4021 -0.2213  0.3353
   92MOL0     C12590   5.088  -1.320   6.347  0.2431 -0.5947 -0.9937
   92MOL0     C12591   5.022  -1.447   6.370 -0.2515 -0.2583  0.4972
   92MOL0     C12592   5.055  -1.554   6.290  1.0243  0.1147 -0.3895
   92MOL0     C12593   5.151  -1.545   6.193  0.5190  0.7785  0.2621
   92MOL0     O12594   5.187  -1.645   6.106  0.0245  0.0409  0.6532
   92MOL0     C12595   5.086  -1.736   6.061 -0.0084  0.0405  0.0290
   92MOL0     C12596   5.120  -1.823   5.947 -0.0834  0.6978  0.6385
   92MOL0     C12597   5.140  -1.741   5.813  0.2297  0.0201  0.6048
   92MOL0     C12598   5.176  -1.832   5.704  0.2611  0.5996  0.7172
   92MOL0     C12599   5.156  -1.778   5.549  0.2317 -0.7458 -0.0695
   92MOL0     C12600   5.296  -1.747   5.495  0.1754  0.5087  0.3849
   92MOL0     C12601   5.278  -1.685   5.364  0.7586 -0.0945 -0.4801
   92MOL0     C12602   5.226  -1.782   5.255 -0.9068 -0.0923  0.0400
   92MOL0    Cl12603   5.351  -1.886   5.193 -0.4093 -0.0009  0.0513
   92MOL0     C12604   5.229  -1.431   6.173  0.4420  0.0071  0.8661
   92MOL0     C12605   5.188  -1.321   6.249 -0.0409 -0.3431 -0.3220
   92MOL0     O12606   4.902  -1.149   6.251  0.1910 -0.4970  0.6318
   92MOL0     C12607   5.095  -0.925   6.464 -1.1390  0.2935  0.2153
   92MOL0     C12608   5.117  -0.781   6.492 -1.0501  0.3764 -0.0700
   92MOL0     N12609   5.156  -0.092   6.005  0.0829  0.2474 -0.5173
   92MOL0     N12610   5.189  -0.007   5.919  0.1060  0.1929  0.6834
   92MOL0     C12611   5.513   0.362   5.015 -0.4660 -1.0030  1.0068
   92MOL0     C12612   5.615   0.462   5.027  0.4168  0.6553 -0.1892
   92MOL0     C12613   5.729   0.896   4.975  0.7461  0.1869  0.8362
   92MOL0     C12614   5.747   0.953   4.851 -0.3567 -0.3900  0.3740
   92MOL0     C12615   5.731   1.088   4.826 -0.7678  0.0793  0.4344
   92MOL0     C12616   5.718   1.175   4.929  0.3589 -0.2095  0.0861
   92MOL0     O12617   5.693   1.310   4.914 -0.4974  0.4103  0.2966
   92MOL0     C12618   5.603   1.356   4.807 -0.0662  0.3740 -0.9984
   92MOL0     C12619   5.565   1.502   4.828  0.3754  0.5360  0.4773
   92MOL0     C12620   5.688   1.589   4.811  0.3290 -0.2147 -0.3175
   92MOL0     C12621   5.680   1.710   4.899 -0.4594  0.5236  0.5568
   92MOL0     C12622   5.559   1.795   4.897 -1.0645 -0.2248 -0.0998
   92MOL0     C12623   5.480   1.879   4.923  0.0892 -0.5469 -0.1680
   92MOL0     C12624   5.704   1.118   5.058  0.0783 -0.9815 -0.4674
   92MOL0     C12625   5.704   0.984   5.085  0.2518  1.2555  0.3203
   92MOL0     C12626   5.669   0.928   5.227  0.3136 -0.4457  1.0083
   92MOL0     H12627   5.444   0.693   5.201  4.4249  2.3482 -1.1360
   92MOL0     H12628   5.259   0.536   5.142 -0.4895 -1.8438 -2.2321
   92MOL0     H12629   5.359   0.114   5.021 -0.4087 -1.8617 -1.9437
   92MOL0     H12630   5.309   0.199   4.873 -2.1443 -0.6483 -0.5398
   92MOL0     H12631   5.077   0.139   4.928 -0.3261  3.0311  1.5079
   92MOL0     H12632   5.171  -0.015   4.936  0.2407  0.2447 -1.6485
   92MOL0     H12633   5.080   0.163   5.168 -3.4944  0.2001 -0.9932
   92MOL0     H12634   5.011   0.007   5.114  0.9975 -1.7609  0.7129
   92MOL0     H12635   5.237  -0.092   5.166 -0.2625 -2.8630  2.5582
   92MOL0     H12636   5.266   0.075   5.245  0.9718 -0.1455  1.6237
   92MOL0     H12637   5.182  -0.127   5.403  2.5917  2.2824  0.6942
   92MOL0     H12638   5.034  -0.117   5.321  0.6777 -0.7352 -1.2489
   92MOL0     H12639   5.177   0.126   5.446  0.7859 -2.2054 -1.1286
   92MOL0     H12640   5.001   0.121   5.409  0.0041 -0.3150  0.9570
   92MOL0     H12641   5.024  -0.086   5.568 -1.3138  0.2747 -0.1651
   92MOL0     H12642   4.999   0.073   5.628 -0.5538 -0.0310 -1.3862
   92MOL0     H12643   5.278  -0.054   5.601  0.1869  2.2980 -1.6873
   92MOL0     H12644   5.249   0.089   5.691 -0.4784 -0.5973  2.9796
   92MOL0     H12645   5.097  -0.254   5.723 -0.3360  0.8455 -0.3972
   92MOL0     H12646   5.045  -0.406   5.937  3.1887 -0.4924 -2.0404
   92MOL0     H12647   4.945  -0.305   6.046  1.1443  1.3048  3.0142
   92MOL0     H12648   5.231  -0.393   6.082  1.8245  1.4564  1.5411
   92MOL0     H12649   5.154  -0.287   6.197  1.2656 -0.8307  0.4411
   92MOL0     H12650   4.960  -0.439   6.217  0.0049  1.7995 -3.7328
   92MOL0     H12651   5.054  -0.565   6.143  1.6579 -0.0749  0.2768
   92MOL0     H12652   5.207  -0.591   6.298  2.6841  1.5359 -0.6625
   92MOL0     H12653   5.211  -0.434   6.354  1.5270 -0.5597 -3.1548
   92MOL0     H12654   4.845  -0.668   6.334  0.9509  0.4420 -1.3108
   92MOL0     H12655   4.711  -0.994   6.336  0.7065 -0.4334  0.1626
   92MOL0     H12656   4.754  -0.898   6.192 -1.1652  1.0889  0.9665
   92MOL0     H12657   4.679  -0.825   6.327  0.2623  0.4604  0.7798
   92MOL0     H12658   4.948  -1.447   6.449  0.1169 -2.8093  0.8975
   92MOL0     H12659   4.985  -1.636   6.307  0.4959  0.5675 -0.3368
   92MOL0     H12660   5.061  -1.810   6.137 -0.0332 -1.8599 -1.7448
   92MOL0     H12661   4.996  -1.682   6.032 -1.1070 -0.4229  2.3468
   92MOL0     H12662   5.216  -1.868   5.974 -0.5165 -1.5484 -1.3268
   92MOL0     H12663   5.047  -1.904   5.946  1.6601 -0.9352 -0.1586
   92MOL0     H12664   5.223  -1.670   5.816  0.8283 -0.3038 -3.0130
   92MOL0     H12665   5.055  -1.677   5.786 -0.4437 -1.4464 -0.9706
   92MOL0     H12666   5.102  -1.912   5.713 -2.7969  3.1963  0.6979
   92MOL0     H12667   5.275  -1.875   5.721 -0.5157 -1.4907  0.2544
   92MOL0     H12668   5.090  -1.847   5.496 -2.9736  2.4697 -0.6564
   92MOL0     H12669   5.094  -1.688   5.553 -0.8632 -1.5160  1.7254
   92MOL0     H12670   5.354  -1.839   5.482  0.9879  1.1964 -1.1483
   92MOL0     H12671   5.338  -1.667   5.556 -2.0498  5.1717 -3.5286
   92MOL0     H12672   5.352  -1.617   5.322  2.0954 -0.4292  1.2549
   92MOL0     H12673   5.203  -1.608   5.386  1.2343 -0.0670  1.1589
   92MOL0     H12674   5.190  -1.718   5.173  2.1844  0.2005 -1.2143
   92MOL0     H12675   5.137  -1.838   5.287 -0.2773 -1.4888 -0.5921
   92MOL0     H12676   5.316  -1.419   6.109 -0.9025 -0.6378 -1.1774
   92MOL0     H12677   5.246  -1.231   6.234 -0.5635  0.1635  0.6540
   92MOL0     H12678   5.162  -0.998   6.509 -1.6286  0.2830  0.9370
   92MOL0     H12679   5.190  -0.758   6.570  0.2736 -0.5282 -0.9870
   92MOL0     H12680   5.540   0.265   4.976  0.6025 -1.0474  1.7793
   92MOL0     H12681   5.712   0.430   4.990  0.1810  1.2471 -1.3909
   92MOL0     H12682   5.798   0.895   4.775  2.6530  0.5229  1.5814
   92MOL0     H12683   5.744   1.114   4.721 -1.1737 -3.0433 -0.5109
   92MOL0     H12684   5.641   1.336   4.706  0.4444 -1.0253 -0.5551
   92MOL0     H12685   5.509   1.303   4.820 -0.2528  0.7699 -0.7211
   92MOL0     H12686   5.521   1.511   4.928 -0.5031  2.6980 -0.0562
   92MOL0     H12687   5.493   1.543   4.756  3.0882  2.7346 -1.1823
   92MOL0     H12688   5.781   1.531   4.815 -0.4055 -1.8485 -3.4445
   92MOL0     H12689   5.699   1.616   4.705  0.2399 -2.7787 -1.0421
   92MOL0     H12690   5.774   1.763   4.884  1.1885 -2.8618 -2.3979
   92MOL0     H12691   5.691   1.657   4.995  2.0586  0.3835  0.2475
   92MOL0     H12692   5.417   1.964   4.940  1.3761  0.1867  1.1319
   92MOL0     H12693   5.674   1.181   5.141  1.6297 -0.9979  0.1419
   92MOL0     H12694   5.585   0.859   5.226  0.5284 -0.7311  1.6651
   92MOL0     H12695   5.754   0.879   5.276  2.2660 -0.8485 -2.4865
   92MOL0     H12696   5.629   1.002   5.297  0.7604  0.9665 -0.1698
   93MOL0     O12697   9.640  10.167   7.980  1.3377  0.3654 -0.2143
   93MOL0     C12698   9.631  10.288   7.979  0.3632 -0.9212 -0.0070
   93MOL0     O12699   9.603  10.374   8.084  0.1782  0.2194  0.9392
   93MOL0     C12700   9.582  10.316   8.203 -0.0363 -0.0120 -0.2589
   93MOL0     C12701   9.682  10.284   8.296  0.1504 -0.8193 -0.5296
   93MOL0     C12702   9.667  10.230   8.421  0.3263  1.0555  0.3004
   93MOL0     C12703   9.534  10.209   8.464  0.2245 -0.3204 -0.1922
   93MOL0     O12704   9.496  10.176   8.595  0.6912 -0.2009 -0.3611
   93MOL0     C12705   9.592  10.114   8.679  0.6292 -0.1307 -0.1011
   93MOL0     C12706   9.527  10.003   8.761  0.5922  0.1697  0.2247
   93MOL0     C12707   9.475   9.885   8.672 -0.9323  0.0405 -0.1234
   93MOL0     C12708   9.348   9.921   8.599  0.4693  1.3886  0.3821
   93MOL0     C12709   9.314   9.800   8.511  0.0386 -0.1833 -0.3380
   93MOL0     C12710   9.172   9.795   8.463 -0.0045 -0.2085 -0.0553
   93MOL0     C12711   9.115   9.917   8.394  0.2399  0.5763  1.1034
   93MOL0     C12712   9.199   9.951   8.273  0.5818 -0.2394 -0.0286
   93MOL0     N12713   9.133  10.052   8.179  0.2702 -0.0137 -0.0718
   93MOL0     C12714   9.072  10.031   8.051 -0.6099  0.0760 -0.4355
   93MOL0     C12715   9.002  10.143   8.032  0.2789 -0.3774 -0.2244
   93MOL0     C12716   8.905  10.189   7.918 -0.4658  0.5182 -0.4943
   93MOL0     C12717   8.812  10.070   7.900  0.5555  0.8606 -0.2859
   93MOL0     C12718   8.692  10.108   7.808 -0.6375  0.1211  0.5269
   93MOL0     C12719   8.715  10.096   7.663 -0.3100 -0.2438 -0.3500
   93MOL0     O12720   8.749   9.955   7.630 -0.5543 -0.2216  0.0157
   93MOL0     C12721   8.843   9.925   7.540  0.4955 -0.2331  0.1121
   93MOL0     C12722   8.865  10.004   7.421 -0.7836  0.0459  0.1075
   93MOL0     C12723   8.966   9.956   7.330 -0.1514  0.0518 -0.2964
   93MOL0     C12724   8.965  10.014   7.191 -0.2695 -0.0233 -0.1078
   93MOL0     C12725   9.050   9.852   7.370  0.1601  0.3614  0.1914
   93MOL0     C12726   9.182   9.830   7.310 -0.2267  0.0958 -1.2979
   93MOL0     O12727   9.235   9.924   7.238 -0.6138  0.1929 -0.3132
   93MOL0     C12728   9.339   9.891   7.152  0.6271  0.0277  0.1832
   93MOL0     C12729   9.297   9.850   7.020 -0.6585 -0.2143  0.7178
   93MOL0     C12730   9.394   9.840   6.915 -0.4163 -0.1077 -0.5050
   93MOL0     C12731   9.527   9.873   6.940  0.3363 -0.2805  0.3356
   93MOL0     O12732   9.625   9.871   6.844  0.3910 -0.3139  0.7853
   93MOL0     C12733   9.589   9.866   6.712 -0.3003 -0.5578  0.0493
   93MOL0     C12734   9.703   9.875   6.604  0.7809  0.2281  0.4469
   93MOL0     C12735   9.809   9.762   6.616 -0.0549 -0.0002  0.6743
   93MOL0     C12736   9.943   9.803   6.685  0.0996  0.2333 -0.5718
   93MOL0     C12737  10.037   9.680   6.707 -0.0210 -0.1325 -0.6045
   93MOL0     C12738  10.115   9.642   6.584 -0.2731  0.8158 -0.8848
   93MOL0     C12739  10.157   9.503   6.586 -0.8863  0.8285 -0.3693
   93MOL0     C12740  10.293   9.481   6.505  0.2982 -0.6764 -0.8358
   93MOL0    Cl12741  10.336   9.312   6.477 -0.4332 -0.2252 -0.0570
   93MOL0     C12742   9.575   9.905   7.073 -0.0401 -1.1920  1.0834
   93MOL0     C12743   9.483   9.910   7.176  0.7210 -0.0479  0.0200
   93MOL0     O12744   9.232   9.717   7.328  0.4595 -0.7631 -0.3938
   93MOL0     C12745   9.022   9.787   7.496  0.0080 -0.1513 -0.1719
   93MOL0     C12746   8.911   9.814   7.573  0.5671  0.6417 -0.4154
   93MOL0     N12747   9.016  10.229   8.139  0.7454  0.4219 -0.3297
   93MOL0     N12748   9.084  10.169   8.225 -0.5905  0.2662 -1.6195
   93MOL0     C12749   9.426  10.252   8.377 -0.5400  0.4467  0.0729
   93MOL0     C12750   9.445  10.312   8.256 -0.0860 -0.2728  0.0472
   93MOL0     C12751   9.688  10.357   7.867 -0.5485  1.1583  0.5311
   93MOL0     C12752   9.723  10.498   7.883  0.7632 -0.1215  0.4701
   93MOL0     C12753   9.779  10.572   7.781  0.2091  0.1979 -0.0577
   93MOL0     C12754   9.813  10.507   7.669  0.8394 -0.3310  0.0729
   93MOL0     O12755   9.873  10.562   7.558 -0.4488 -0.1748 -0.0462
   93MOL0     C12756   9.921  10.695   7.562 -0.2913 -0.3230  0.3952
   93MOL0     C12757   9.981  10.713   7.420 -0.7587  0.1170  0.1063
   93MOL0     C12758   9.864  10.727   7.326 -0.1847 -0.2767  0.5775
   93MOL0     C12759   9.789  10.858   7.335 -0.3458  0.6043 -0.3478
   93MOL0     C12760   9.861  10.988   7.311  0.4639 -1.3151  0.1168
   93MOL0     C12761   9.910  11.098   7.274 -0.8110  0.2007  0.3826
   93MOL0     C12762   9.781  10.371   7.641 -0.0703  0.0358 -1.2958
   93MOL0     C12763   9.714  10.298   7.739  0.8699 -0.2335 -0.3258
   93MOL0     C12764   9.674  10.147   7.689 -0.3410 -0.1637  0.7291
   93MOL0     H12765   9.783  10.318   8.277  1.1866 -3.8247 -0.9859
   93MOL0     H12766   9.757  10.204   8.476 -0.2188  0.0782  0.7515
   93MOL0     H12767   9.636  10.187   8.747 -1.7296  0.2242  1.1665
   93MOL0     H12768   9.678  10.074   8.624 -0.8782  1.0733 -3.6373
   93MOL0     H12769   9.590   9.953   8.835 -1.6919 -2.2545  0.6576
   93MOL0     H12770   9.448  10.041   8.826  1.9890  0.0676  2.0726
   93MOL0     H12771   9.547   9.846   8.600 -2.5868 -2.5283 -0.4962
   93MOL0     H12772   9.446   9.799   8.734  1.2970 -0.3027  0.5245
   93MOL0     H12773   9.272   9.952   8.671  0.2078  0.4043  0.5390
   93MOL0     H12774   9.351  10.002   8.525 -1.9661 -0.0354 -1.4175
   93MOL0     H12775   9.334   9.711   8.571  1.5148 -0.5097 -1.2763
   93MOL0     H12776   9.377   9.780   8.424 -1.7473  1.2626 -2.0388
   93MOL0     H12777   9.166   9.707   8.399 -5.1607 -1.4554  1.6074
   93MOL0     H12778   9.118   9.773   8.555  2.9058 -1.8546  1.3944
   93MOL0     H12779   9.094   9.999   8.464  1.4841 -0.1505  2.3642
   93MOL0     H12780   9.017   9.900   8.348  1.9541 -1.5927 -2.1075
   93MOL0     H12781   9.291  10.004   8.301  1.9539 -3.3778  1.9935
   93MOL0     H12782   9.215   9.861   8.213  2.4162  0.6561 -0.9918
   93MOL0     H12783   9.079   9.941   7.992  1.7498 -0.1837  0.1455
   93MOL0     H12784   8.960  10.209   7.825 -2.1238 -2.4269 -2.2714
   93MOL0     H12785   8.845  10.278   7.941 -1.7190 -0.0894 -1.2990
   93MOL0     H12786   8.870   9.985   7.865 -0.6310 -0.2933  0.4482
   93MOL0     H12787   8.765  10.050   7.997 -1.2886 -0.0039 -1.3092
   93MOL0     H12788   8.603  10.052   7.835 -1.6761  2.3143  1.9897
   93MOL0     H12789   8.660  10.212   7.817  0.6536  0.5450  0.4503
   93MOL0     H12790   8.627  10.129   7.608 -3.2399 -2.5023  2.5502
   93MOL0     H12791   8.805  10.157   7.648 -0.0775 -0.3621  0.4645
   93MOL0     H12792   8.800  10.090   7.407  1.2587  1.2405 -3.6149
   93MOL0     H12793   8.950   9.930   7.123 -2.6395 -0.9243  1.3916
   93MOL0     H12794   9.059  10.069   7.176 -0.9417  1.5561  1.1524
   93MOL0     H12795   8.875  10.076   7.183 -1.6268 -1.8884  0.0015
   93MOL0     H12796   9.196   9.831   6.987  0.8209  1.0860 -5.9864
   93MOL0     H12797   9.365   9.805   6.816 -2.1042  0.2714 -0.1712
   93MOL0     H12798   9.535   9.772   6.695  0.3219 -0.8495 -0.3413
   93MOL0     H12799   9.509   9.937   6.688 -0.4132 -0.8499 -0.4706
   93MOL0     H12800   9.644   9.858   6.514  0.5700 -2.2246  0.9664
   93MOL0     H12801   9.742   9.977   6.607  0.5201  0.3241  0.5663
   93MOL0     H12802   9.844   9.712   6.526  0.6554 -0.1275  1.0100
   93MOL0     H12803   9.771   9.683   6.681  0.9148 -1.1506 -0.1364
   93MOL0     H12804   9.922   9.849   6.782  0.2099  0.8678 -0.8450
   93MOL0     H12805  10.000   9.880   6.633 -0.6131  1.3891  0.3240
   93MOL0     H12806  10.103   9.698   6.792 -0.8879  1.9597 -0.3268
   93MOL0     H12807   9.975   9.594   6.734  0.2455  0.3857  1.8374
   93MOL0     H12808  10.206   9.700   6.568  0.0736 -0.3442 -3.7227
   93MOL0     H12809  10.047   9.654   6.498 -1.1451 -0.8260 -0.4724
   93MOL0     H12810  10.085   9.431   6.546  0.3631 -0.4336 -0.4382
   93MOL0     H12811  10.178   9.468   6.688  4.3980 -0.0324 -1.4477
   93MOL0     H12812  10.380   9.532   6.545 -0.1303 -0.7254  0.1861
   93MOL0     H12813  10.271   9.532   6.410 -1.9310 -0.4215 -0.2446
   93MOL0     H12814   9.679   9.929   7.093 -0.9350  1.8387  2.8914
   93MOL0     H12815   9.522   9.931   7.274  1.3234 -3.5183  0.6603
   93MOL0     H12816   9.084   9.708   7.538 -0.2528 -0.3989 -0.2519
   93MOL0     H12817   8.899   9.762   7.667  0.4089  2.0457  0.3706
   93MOL0     H12818   9.327  10.243   8.420 -0.9321  0.5049 -0.7933
   93MOL0     H12819   9.358  10.351   8.204  1.4069  3.4107  0.0567
   93MOL0     H12820   9.708  10.552   7.976  2.3966  0.1492  0.5951
   93MOL0     H12821   9.806  10.676   7.796  0.1479 -0.1885  3.6321
   93MOL0     H12822   9.843  10.766   7.588 -2.9771 -3.4758  1.6964
   93MOL0     H12823   9.999  10.694   7.639  0.1696 -0.2756 -0.0655
   93MOL0     H12824  10.044  10.626   7.401  1.6348  2.1308 -1.8770
   93MOL0     H12825  10.059  10.791   7.422  1.4860 -1.9972  0.1272
   93MOL0     H12826   9.920  10.717   7.232  1.8968 -3.1493  1.9920
   93MOL0     H12827   9.799  10.639   7.330  2.5280 -2.3630  2.2156
   93MOL0     H12828   9.729  10.861   7.426  0.7067  2.1472  0.3240
   93MOL0     H12829   9.715  10.856   7.255  0.3526 -2.5614 -1.0703
   93MOL0     H12830   9.933  11.191   7.226  4.1509 -0.7660  0.3063
   93MOL0     H12831   9.814  10.322   7.550  3.7235  1.1422 -0.6670
   93MOL0     H12832   9.579  10.118   7.737 -0.2989 -1.9006 -0.1488
   93MOL0     H12833   9.654  10.137   7.582 -0.7682 -4.2521  1.0246
   93MOL0     H12834   9.752  10.079   7.725  0.5515  1.6786  2.4754
   94MOL0     O12835   7.259   0.151   6.314  0.6470 -0.1273 -0.4963
   94MOL0     C12836   7.233   0.229   6.220  0.2084  0.4943  0.3446
   94MOL0     O12837   7.114   0.282   6.192  0.1741 -0.3937 -0.4611
   94MOL0     C12838   7.003   0.217   6.237  0.0625  0.0024 -0.1372
   94MOL0     C12839   6.982   0.082   6.192 -0.5365  0.0518 -0.2368
   94MOL0     C12840   6.873   0.004   6.231 -0.4181  0.4767 -0.1275
   94MOL0     C12841   6.771   0.071   6.305 -0.6264 -0.1939  1.0102
   94MOL0     O12842   6.647   0.017   6.339 -0.1810 -0.8007 -0.1532
   94MOL0     C12843   6.547   0.035   6.241  1.1213  0.1640  0.5070
   94MOL0     C12844   6.447  -0.083   6.237 -0.3272  0.3490  0.2396
   94MOL0     C12845   6.521  -0.221   6.214 -0.5236  0.8813  0.5483
   94MOL0     C12846   6.438  -0.351   6.192  0.2490 -0.6585  0.3773
   94MOL0     C12847   6.353  -0.402   6.306 -0.2035 -0.3926  0.4125
   94MOL0     C12848   6.263  -0.522   6.281 -0.1589 -0.1223 -0.2741
   94MOL0     C12849   6.183  -0.577   6.398  0.1327  0.0778  0.0658
   94MOL0     C12850   6.078  -0.471   6.423 -0.3663 -0.0529  0.6595
   94MOL0     N12851   5.986  -0.521   6.521  0.0406 -0.1427 -0.0159
   94MOL0     C12852   6.001  -0.497   6.660  0.1752  0.7107 -0.0865
   94MOL0     C12853   5.914  -0.589   6.707  0.4069 -0.3958 -0.3059
   94MOL0     C12854   5.916  -0.629   6.858 -0.0061  0.2230  0.0697
   94MOL0     C12855   5.791  -0.588   6.930  0.9474 -0.2997  0.0275
   94MOL0     C12856   5.767  -0.655   7.064  0.1880  0.2081 -0.2605
   94MOL0     C12857   5.881  -0.651   7.171 -0.1450  0.2212 -0.9904
   94MOL0     O12858   5.896  -0.522   7.235 -0.5557 -0.8498  0.3321
   94MOL0     C12859   6.010  -0.450   7.203  0.8633 -0.3762 -0.6112
   94MOL0     C12860   6.003  -0.334   7.132  0.3100 -0.4083 -0.1746
   94MOL0     C12861   6.118  -0.260   7.117 -0.5794 -0.4701  0.7891
   94MOL0     C12862   6.126  -0.128   7.046  0.4836  0.1713  0.4487
   94MOL0     C12863   6.249  -0.304   7.170 -0.4575 -0.1834 -0.3049
   94MOL0     C12864   6.383  -0.237   7.151  0.4969 -0.3670 -0.0708
   94MOL0     O12865   6.472  -0.277   7.243 -0.3688 -0.1111 -0.0578
   94MOL0     C12866   6.591  -0.209   7.245 -0.0101  0.1719  0.4443
   94MOL0     C12867   6.697  -0.259   7.175  0.6860 -0.1168  0.0829
   94MOL0     C12868   6.819  -0.185   7.159 -0.0029  0.2419  0.7845
   94MOL0     C12869   6.831  -0.057   7.209 -0.5575 -0.0824 -0.0899
   94MOL0     O12870   6.946   0.018   7.200 -0.0292  0.0391 -0.3217
   94MOL0     C12871   7.070  -0.037   7.244 -0.5144  0.0089  0.7830
   94MOL0     C12872   7.102  -0.043   7.400 -0.1719  0.6245  0.2400
   94MOL0     C12873   7.071   0.099   7.463  0.2031 -0.4196 -0.1238
   94MOL0     C12874   7.102   0.110   7.611  0.1559  0.0561 -0.3839
   94MOL0     C12875   7.034   0.232   7.668  0.6917 -0.1229  0.0265
   94MOL0     C12876   7.088   0.356   7.605  0.1343 -0.4759 -0.3667
   94MOL0     C12877   7.065   0.481   7.685  0.6778  0.0282  0.3213
   94MOL0     C12878   7.151   0.586   7.623  0.4821 -1.5160  0.3915
   94MOL0    Cl12879   7.110   0.611   7.447 -0.0777 -0.0238  0.1291
   94MOL0     C12880   6.723  -0.010   7.295  0.1048 -0.0778 -0.3007
   94MOL0     C12881   6.600  -0.083   7.306 -0.1286 -0.3934  0.1203
   94MOL0     O12882   6.411  -0.166   7.052 -0.1296 -0.1897 -0.0462
   94MOL0     C12883   6.255  -0.434   7.218 -0.3528 -0.1766  0.1813
   94MOL0     C12884   6.135  -0.499   7.246  0.9607 -0.0140  0.7485
   94MOL0     N12885   5.842  -0.641   6.605 -0.6628  0.7282 -0.4909
   94MOL0     N12886   5.881  -0.606   6.487 -0.0529 -0.0912 -0.1470
   94MOL0     C12887   6.786   0.208   6.342 -0.1138 -0.2052  0.5184
   94MOL0     C12888   6.899   0.283   6.306  0.7044 -0.3517  0.1769
   94MOL0     C12889   7.345   0.277   6.127 -0.5361 -0.4488 -0.3181
   94MOL0     C12890   7.359   0.415   6.092  0.6215 -1.0413  0.1920
   94MOL0     C12891   7.443   0.470   5.999 -0.2785  0.0045 -0.5494
   94MOL0     C12892   7.535   0.389   5.945  0.4988 -0.2574  0.4208
   94MOL0     O12893   7.613   0.449   5.846  0.3005 -0.2442  0.1360
   94MOL0     C12894   7.721   0.378   5.776  0.2384  0.0634 -0.7330
   94MOL0     C12895   7.669   0.269   5.677  0.4044 -0.5189 -0.6874
   94MOL0     C12896   7.624   0.329   5.543 -0.3443 -0.4929 -0.8093
   94MOL0     C12897   7.575   0.229   5.446 -0.3325  1.0224 -0.0722
   94MOL0     C12898   7.452   0.163   5.492 -0.9320 -0.3247 -0.0618
   94MOL0     C12899   7.372   0.087   5.540 -0.4946  0.7754  0.1300
   94MOL0     C12900   7.529   0.251   5.973 -0.9081  0.9294 -0.3875
   94MOL0     C12901   7.431   0.195   6.057 -1.7048 -0.7543  0.2783
   94MOL0     C12902   7.433   0.049   6.083  0.0691 -0.8277 -0.2978
   94MOL0     H12903   7.064   0.045   6.132 -1.4359  1.7828 -2.7286
   94MOL0     H12904   6.854  -0.101   6.216 -1.7310  0.5514  0.8011
   94MOL0     H12905   6.592   0.035   6.141 -1.4142  1.8427 -0.7423
   94MOL0     H12906   6.507   0.131   6.273  0.4634 -0.9183  3.2117
   94MOL0     H12907   6.391  -0.086   6.331  4.1321  0.4774  3.2019
   94MOL0     H12908   6.377  -0.070   6.154 -0.5694  0.3029  0.4368
   94MOL0     H12909   6.585  -0.224   6.125 -3.5415  0.8047 -1.7916
   94MOL0     H12910   6.580  -0.230   6.306 -1.3940 -2.0468  0.9140
   94MOL0     H12911   6.371  -0.337   6.107  1.4213  0.8842 -0.3462
   94MOL0     H12912   6.493  -0.440   6.160  1.9934 -0.1177  1.6914
   94MOL0     H12913   6.282  -0.319   6.315 -0.9169 -0.9913  0.4195
   94MOL0     H12914   6.411  -0.417   6.397  2.0751  1.2255 -0.6667
   94MOL0     H12915   6.211  -0.492   6.189 -1.3557 -0.6293  0.2146
   94MOL0     H12916   6.325  -0.602   6.238 -1.3876 -0.4095 -1.6039
   94MOL0     H12917   6.246  -0.583   6.487 -0.2319 -0.6238  0.2853
   94MOL0     H12918   6.141  -0.677   6.386  0.3282  0.0399 -0.3332
   94MOL0     H12919   6.117  -0.377   6.465 -3.2656  1.7039 -0.3206
   94MOL0     H12920   6.013  -0.461   6.336  0.1440 -1.0829  0.1438
   94MOL0     H12921   6.078  -0.436   6.706  2.8691 -2.2109 -0.4211
   94MOL0     H12922   6.002  -0.580   6.904  3.0683 -3.4504 -1.2510
   94MOL0     H12923   5.935  -0.736   6.865  1.8143  0.5921  1.5487
   94MOL0     H12924   5.790  -0.480   6.951 -0.3084 -0.2731 -0.0917
   94MOL0     H12925   5.707  -0.604   6.861 -0.5070 -2.4773  2.1260
   94MOL0     H12926   5.671  -0.621   7.105 -0.5579 -3.2970  1.2772
   94MOL0     H12927   5.754  -0.763   7.057 -2.7334  0.5781 -2.2010
   94MOL0     H12928   5.846  -0.725   7.243 -0.3956 -1.9852 -3.2659
   94MOL0     H12929   5.975  -0.698   7.140  0.4444  1.1797 -0.7137
   94MOL0     H12930   5.906  -0.295   7.104 -0.1023 -1.3412 -0.0822
   94MOL0     H12931   6.193  -0.140   6.960  2.9226  0.5597  2.1958
   94MOL0     H12932   6.162  -0.058   7.122  0.2882 -2.1338  2.8251
   94MOL0     H12933   6.028  -0.086   7.023  1.5763  1.7626 -1.6774
   94MOL0     H12934   6.677  -0.344   7.111  0.9936 -0.3108  0.2430
   94MOL0     H12935   6.894  -0.218   7.088 -1.2888  1.7918 -1.4307
   94MOL0     H12936   7.075  -0.140   7.208  0.6681 -0.3331  1.8692
   94MOL0     H12937   7.157   0.014   7.201 -1.2876  0.2325 -0.6009
   94MOL0     H12938   7.037  -0.119   7.444  0.3672 -1.9486 -2.9646
   94MOL0     H12939   7.204  -0.071   7.427 -0.6502  0.5873  2.1195
   94MOL0     H12940   6.964   0.114   7.450 -0.1915 -3.1174 -0.6109
   94MOL0     H12941   7.121   0.173   7.400 -2.2313  1.2781 -0.2079
   94MOL0     H12942   7.210   0.109   7.632 -0.1134 -2.2592  1.4311
   94MOL0     H12943   7.080   0.017   7.665  3.0323 -0.1380  0.6547
   94MOL0     H12944   6.925   0.228   7.658  0.5680 -1.9461  1.5527
   94MOL0     H12945   7.056   0.231   7.775 -3.2955  1.0189  1.0364
   94MOL0     H12946   7.041   0.377   7.508 -0.0403 -2.9991 -0.8769
   94MOL0     H12947   7.197   0.349   7.595  0.2169 -3.0149  1.4513
   94MOL0     H12948   7.088   0.467   7.791  3.3830  0.6192 -0.1091
   94MOL0     H12949   6.961   0.511   7.672  0.4261 -0.6260  0.7496
   94MOL0     H12950   7.255   0.563   7.644  0.8920  0.2037  0.3375
   94MOL0     H12951   7.128   0.685   7.662  0.7268 -0.4345 -2.0207
   94MOL0     H12952   6.731   0.080   7.355  1.1559  2.8512 -4.3905
   94MOL0     H12953   6.518  -0.042   7.364  2.3927  0.8867  3.0660
   94MOL0     H12954   6.347  -0.485   7.244  0.3807  0.2439 -1.4828
   94MOL0     H12955   6.133  -0.601   7.284  2.8021  0.8307  3.4205
   94MOL0     H12956   6.703   0.253   6.396  0.3990 -1.2017  2.2290
   94MOL0     H12957   6.911   0.381   6.352 -2.1160  1.3753 -2.4086
   94MOL0     H12958   7.291   0.475   6.151  1.0150  0.5946 -0.9445
   94MOL0     H12959   7.437   0.577   5.981  1.0694  0.0973 -0.5380
   94MOL0     H12960   7.782   0.448   5.718 -0.3769  0.9876 -0.2859
   94MOL0     H12961   7.784   0.334   5.853 -1.0734  1.2796  1.1134
   94MOL0     H12962   7.589   0.214   5.726  0.7600 -0.1962  0.2714
   94MOL0     H12963   7.750   0.197   5.668  2.0466  0.9542  1.2775
   94MOL0     H12964   7.551   0.409   5.563  1.1156  0.3583  1.6541
   94MOL0     H12965   7.713   0.375   5.498  1.0788 -2.3911 -0.0543
   94MOL0     H12966   7.649   0.156   5.412 -1.6709 -2.2436  3.4200
   94MOL0     H12967   7.549   0.290   5.358  1.6509  0.3287 -1.2213
   94MOL0     H12968   7.286   0.040   5.584  0.6853 -0.4233  1.2196
   94MOL0     H12969   7.602   0.174   5.948 -1.2571  0.4638  0.0089
   94MOL0     H12970   7.479  -0.002   5.998  2.8203  1.1774 -0.1775
   94MOL0     H12971   7.500   0.010   6.160 -1.5016 -5.0256 -0.8207
   94MOL0     H12972   7.334   0.014   6.111  0.0068 -0.7356 -0.4021
   95MOL0     O12973   4.628   0.788   0.933 -0.9687 -0.6123 -0.1820
   95MOL0     C12974   4.568   0.688   0.992 -0.1092 -0.8066  0.3358
   95MOL0     O12975   4.582   0.562   0.960  0.1322 -0.4504  0.0443
   95MOL0     C12976   4.687   0.510   0.902  0.0825 -0.3896  0.5233
   95MOL0     C12977   4.675   0.418   0.798  0.3286 -0.0660  0.3319
   95MOL0     C12978   4.789   0.378   0.730 -0.7649 -0.0406  0.8709
   95MOL0     C12979   4.906   0.397   0.780  0.3382 -0.7187 -0.4757
   95MOL0     O12980   5.010   0.333   0.711  1.1985  0.1934  0.1010
   95MOL0     C12981   5.146   0.369   0.741  0.3846 -0.5914 -0.3697
   95MOL0     C12982   5.202   0.296   0.852  0.4342  0.6853 -0.6508
   95MOL0     C12983   5.354   0.328   0.884  1.2953 -0.1025 -0.3075
   95MOL0     C12984   5.454   0.278   0.782 -0.2764 -0.5360 -0.2260
   95MOL0     C12985   5.594   0.288   0.858 -0.4019  0.1008 -0.6381
   95MOL0     C12986   5.722   0.276   0.764  0.7283  0.5430 -0.3314
   95MOL0     C12987   5.856   0.300   0.834 -0.2409  0.4426 -0.4027
   95MOL0     C12988   5.900   0.179   0.917  0.0814  0.1446 -0.5753
   95MOL0     N12989   5.981   0.083   0.844  0.0578  0.1298  0.2023
   95MOL0     C12990   6.108   0.045   0.891 -0.1491  0.4507 -0.3831
   95MOL0     C12991   6.132  -0.060   0.808  0.0964  0.8997 -0.1877
   95MOL0     C12992   6.262  -0.132   0.816  0.1771 -0.5937  0.0496
   95MOL0     C12993   6.270  -0.255   0.725 -0.0198 -0.4111  0.8755
   95MOL0     C12994   6.184  -0.369   0.764 -0.2533 -0.4384 -0.1774
   95MOL0     C12995   6.233  -0.497   0.700  0.1270  0.7836  0.1828
   95MOL0     O12996   6.359  -0.537   0.761 -0.0068  0.2958  0.3777
   95MOL0     C12997   6.354  -0.614   0.873  0.1975 -0.2249  0.6666
   95MOL0     C12998   6.347  -0.554   0.995 -0.1420  0.2816 -0.1284
   95MOL0     C12999   6.336  -0.629   1.114 -0.0938 -0.6127 -0.2066
   95MOL0     C13000   6.294  -0.562   1.242  0.5796 -0.1402 -0.6441
   95MOL0     C13001   6.345  -0.770   1.111  0.5892  0.2789 -0.2230
   95MOL0     C13002   6.353  -0.855   1.230  0.0673  0.1133  0.4916
   95MOL0     O13003   6.312  -0.981   1.204 -0.2716  0.2946  0.0715
   95MOL0     C13004   6.320  -1.089   1.286  0.4874 -0.0159  0.3560
   95MOL0     C13005   6.435  -1.140   1.337  0.3769 -0.1699  0.4402
   95MOL0     C13006   6.434  -1.254   1.422 -0.2143  0.3552  0.2000
   95MOL0     C13007   6.308  -1.307   1.463  0.5573 -0.9645  0.0993
   95MOL0     O13008   6.300  -1.422   1.544 -0.4848 -0.7232  0.4282
   95MOL0     C13009   6.291  -1.554   1.472 -0.1233  0.1436  0.1657
   95MOL0     C13010   6.263  -1.661   1.584 -0.1420 -0.1165 -0.3684
   95MOL0     C13011   6.237  -1.797   1.514  0.0852 -1.0102  0.8814
   95MOL0     C13012   6.190  -1.902   1.609 -0.3458 -0.3839 -0.6472
   95MOL0     C13013   6.155  -2.036   1.543 -0.4970 -0.0531  0.4968
   95MOL0     C13014   6.062  -2.121   1.630 -0.4652  0.4385 -0.0386
   95MOL0     C13015   6.030  -2.252   1.557 -0.2357  0.5640 -0.3835
   95MOL0     C13016   6.006  -2.360   1.658  0.4156 -0.2509  0.1495
   95MOL0    Cl13017   5.925  -2.494   1.591 -0.0689  0.0954 -0.2938
   95MOL0     C13018   6.190  -1.242   1.420  0.9127  0.3171  0.3784
   95MOL0     C13019   6.197  -1.136   1.334 -0.4620 -0.3757 -0.1430
   95MOL0     O13020   6.414  -0.818   1.330  0.0808 -0.3821  0.3481
   95MOL0     C13021   6.350  -0.830   0.978  0.7208 -0.1592  0.1014
   95MOL0     C13022   6.355  -0.748   0.865  0.2123  0.9464 -0.3302
   95MOL0     N13023   6.028  -0.084   0.711 -0.1475 -1.0814 -0.1770
   95MOL0     N13024   5.933   0.004   0.752  0.1174  0.0434  0.3797
   95MOL0     C13025   4.923   0.479   0.886  0.3625  0.0245 -0.0580
   95MOL0     C13026   4.821   0.544   0.946  0.7965  0.1803  0.2402
   95MOL0     C13027   4.459   0.707   1.095  0.3588 -0.2120 -0.5188
   95MOL0     C13028   4.357   0.795   1.062 -0.3977  0.6819  1.7109
   95MOL0     C13029   4.255   0.816   1.152 -0.4316 -0.9308  0.2959
   95MOL0     C13030   4.250   0.755   1.276  0.2882  0.1998 -0.1146
   95MOL0     O13031   4.156   0.785   1.367  0.2940  0.2520 -0.0254
   95MOL0     C13032   4.031   0.839   1.317  0.0460  0.0996 -0.1006
   95MOL0     C13033   3.920   0.833   1.422  0.7450 -0.4387  0.5250
   95MOL0     C13034   3.801   0.919   1.381  0.6051  0.3074  0.1505
   95MOL0     C13035   3.695   0.966   1.477 -0.3687 -0.1684 -0.2565
   95MOL0     C13036   3.645   1.092   1.453 -0.3626 -0.3991 -0.2593
   95MOL0     C13037   3.610   1.205   1.427 -0.2659 -0.2523  0.6025
   95MOL0     C13038   4.353   0.676   1.315  0.0512 -0.6949  0.4715
   95MOL0     C13039   4.456   0.647   1.220 -0.2409 -0.6115  0.0190
   95MOL0     C13040   4.571   0.567   1.278  0.0728 -0.5765  0.0125
   95MOL0     H13041   4.576   0.388   0.763  0.5805 -0.7978  0.2328
   95MOL0     H13042   4.780   0.308   0.648  1.9541 -0.2854  0.7019
   95MOL0     H13043   5.145   0.479   0.738 -5.7641 -0.3430 -0.6813
   95MOL0     H13044   5.198   0.347   0.648 -2.2383  3.1256 -3.0143
   95MOL0     H13045   5.146   0.314   0.945  0.7856 -2.4553  0.2832
   95MOL0     H13046   5.182   0.192   0.826  0.3079  1.0845 -2.2371
   95MOL0     H13047   5.364   0.431   0.918 -2.5188  0.5382 -0.7031
   95MOL0     H13048   5.373   0.266   0.973 -1.6787 -2.4696 -1.1613
   95MOL0     H13049   5.429   0.178   0.746 -0.5929 -0.0075 -1.5372
   95MOL0     H13050   5.459   0.349   0.699  1.0241  2.0954  1.9583
   95MOL0     H13051   5.592   0.206   0.930  1.0334  0.7203  0.1599
   95MOL0     H13052   5.595   0.380   0.918 -3.8473  1.0914 -1.8476
   95MOL0     H13053   5.726   0.181   0.709  2.8649  1.0830 -1.2203
   95MOL0     H13054   5.706   0.357   0.693 -2.1341  1.0525  0.7659
   95MOL0     H13055   5.839   0.385   0.901  2.4589  2.4620 -2.0501
   95MOL0     H13056   5.932   0.335   0.763  0.9555  2.1014  1.5873
   95MOL0     H13057   5.965   0.222   0.994 -0.2314 -0.9521  0.3276
   95MOL0     H13058   5.825   0.132   0.981  1.6606 -1.6803  0.0208
   95MOL0     H13059   6.162   0.085   0.976 -1.2626  0.6831  0.2218
   95MOL0     H13060   6.282  -0.154   0.921  0.9484  2.0700  0.5281
   95MOL0     H13061   6.329  -0.055   0.776  0.3375 -1.1391 -0.7703
   95MOL0     H13062   6.245  -0.226   0.623 -0.2651 -2.1660  0.4125
   95MOL0     H13063   6.372  -0.294   0.734 -0.0217 -1.5153 -2.6137
   95MOL0     H13064   6.153  -0.383   0.868  0.5265 -0.8515  0.0010
   95MOL0     H13065   6.090  -0.343   0.714 -0.3844  0.0800  0.3288
   95MOL0     H13066   6.158  -0.575   0.717  1.8629 -1.0503 -0.2991
   95MOL0     H13067   6.243  -0.500   0.591 -1.2018 -1.9504  0.0643
   95MOL0     H13068   6.356  -0.446   0.985  2.1305 -0.0155 -2.3350
   95MOL0     H13069   6.375  -0.504   1.287  3.5841 -1.6255 -3.7075
   95MOL0     H13070   6.276  -0.636   1.321  2.4655 -0.0936 -0.1283
   95MOL0     H13071   6.206  -0.500   1.225  0.3776 -0.2441  0.0074
   95MOL0     H13072   6.523  -1.087   1.302  0.9377 -2.1378 -1.3558
   95MOL0     H13073   6.532  -1.287   1.454 -0.7756 -0.6903  0.9109
   95MOL0     H13074   6.212  -1.563   1.397 -0.3079 -2.3909  0.5537
   95MOL0     H13075   6.388  -1.569   1.423 -0.1071  0.8172 -0.0160
   95MOL0     H13076   6.349  -1.654   1.651 -0.0773  1.3206 -0.5542
   95MOL0     H13077   6.175  -1.641   1.647 -0.5782 -2.9730  0.0545
   95MOL0     H13078   6.334  -1.826   1.472 -0.0420 -0.1687 -0.0139
   95MOL0     H13079   6.156  -1.769   1.446 -0.8609  0.2844  2.4833
   95MOL0     H13080   6.109  -1.856   1.667  1.4707 -1.4439  3.0171
   95MOL0     H13081   6.251  -1.934   1.694 -3.3586 -2.6484  0.8619
   95MOL0     H13082   6.117  -2.031   1.441  1.4463  0.2806 -0.2627
   95MOL0     H13083   6.252  -2.082   1.520 -1.4855 -0.6458 -2.9615
   95MOL0     H13084   5.967  -2.070   1.648 -0.7691  1.4618 -3.6915
   95MOL0     H13085   6.116  -2.131   1.725  1.9210  2.0401 -1.1305
   95MOL0     H13086   6.121  -2.290   1.510 -1.9427 -2.5633 -1.4454
   95MOL0     H13087   5.946  -2.234   1.490 -0.5029 -2.4185 -0.9910
   95MOL0     H13088   5.925  -2.323   1.722 -2.3033  1.8368 -4.1054
   95MOL0     H13089   6.096  -2.381   1.717  1.7559  0.6462 -1.5115
   95MOL0     H13090   6.098  -1.276   1.469  1.7180 -1.8960  0.4812
   95MOL0     H13091   6.100  -1.100   1.301  0.5998  1.5591 -1.3339
   95MOL0     H13092   6.346  -0.936   0.956 -1.1214 -0.0865 -0.0120
   95MOL0     H13093   6.376  -0.792   0.768  1.1676  3.1865 -1.2062
   95MOL0     H13094   5.021   0.489   0.931  0.4593 -2.1031  0.3070
   95MOL0     H13095   4.846   0.605   1.031  1.6714 -0.9746  0.8398
   95MOL0     H13096   4.375   0.841   0.966 -1.7786 -3.5093 -0.7945
   95MOL0     H13097   4.187   0.896   1.127  2.0327  2.4049  3.1520
   95MOL0     H13098   4.041   0.946   1.294  2.9186 -0.2491 -0.8376
   95MOL0     H13099   3.990   0.779   1.235  0.8052  2.6095 -2.4550
   95MOL0     H13100   3.962   0.862   1.519 -4.3251  0.6909  2.6707
   95MOL0     H13101   3.881   0.731   1.430  0.9766 -0.6665 -0.9941
   95MOL0     H13102   3.834   1.002   1.318  2.8970 -0.5006  0.2180
   95MOL0     H13103   3.746   0.860   1.306 -0.0491  0.7023  0.3089
   95MOL0     H13104   3.747   0.977   1.572 -0.3024  0.9512 -0.4113
   95MOL0     H13105   3.612   0.895   1.478 -1.1222  0.6676 -1.2531
   95MOL0     H13106   3.581   1.306   1.408  1.0330 -0.1957 -1.4152
   95MOL0     H13107   4.351   0.647   1.419  0.8442 -1.9722  0.1553
   95MOL0     H13108   4.611   0.638   1.352 -0.3122 -1.5525  1.1792
   95MOL0     H13109   4.532   0.480   1.331  0.0619 -1.4100 -1.3187
   95MOL0     H13110   4.655   0.539   1.213 -0.4880 -3.0543  0.2927
   96MOL0     O13111  10.529   2.592  10.980  0.4998 -1.2512 -0.2326
   96MOL0     C13112  10.439   2.522  10.941  0.0791 -0.0852  0.3048
   96MOL0     O13113  10.429   2.475  10.808 -0.1441 -0.0582  0.4614
   96MOL0     C13114  10.529   2.495  10.713  0.1529  0.2659 -0.2136
   96MOL0     C13115  10.495   2.502  10.579  0.5047  0.9707 -0.2025
   96MOL0     C13116  10.596   2.504  10.484 -1.6435 -0.2161 -0.0869
   96MOL0     C13117  10.741   2.500  10.511 -0.2194  0.0827 -0.1259
   96MOL0     O13118  10.827   2.496  10.401  1.4048  0.1526 -0.3121
   96MOL0     C13119  10.960   2.521  10.431  0.0116 -0.7684 -0.4857
   96MOL0     C13120  11.042   2.584  10.311 -0.4615  0.4138 -0.0743
   96MOL0     C13121  11.066   2.467  10.211 -0.3448 -0.0121 -0.7323
   96MOL0     C13122  11.132   2.506  10.087 -0.9692 -0.2684 -0.2194
   96MOL0     C13123  11.265   2.565  10.126 -0.2083  0.1506  0.8251
   96MOL0     C13124  11.360   2.590  10.004  1.7996  0.1057 -0.0090
   96MOL0     C13125  11.495   2.645  10.051  0.6313 -0.2152 -0.4254
   96MOL0     C13126  11.570   2.677   9.926  0.7735 -0.2394 -0.0918
   96MOL0     N13127  11.689   2.750   9.962  0.4873  0.4028 -0.3037
   96MOL0     C13128  11.699   2.889   9.943 -0.9491 -1.2227 -1.0243
   96MOL0     C13129  11.825   2.914   9.990 -0.4513 -0.1054 -0.3188
   96MOL0     C13130  11.878   3.052  10.024  0.0724  0.2500  0.0190
   96MOL0     C13131  11.892   3.078  10.174 -0.6839  0.1181  0.4178
   96MOL0     C13132  11.944   3.225  10.203  0.0736  0.1059 -0.3916
   96MOL0     C13133  11.989   3.232  10.354 -0.5388 -0.4706 -0.2642
   96MOL0     O13134  12.045   3.355  10.401 -0.0055  0.1765  0.3702
   96MOL0     C13135  12.174   3.378  10.365  0.5673  0.4488  0.6102
   96MOL0     C13136  12.251   3.305  10.272  0.4162  0.1833 -0.7124
   96MOL0     C13137  12.380   3.326  10.241  0.1454 -0.1662 -0.0392
   96MOL0     C13138  12.456   3.222  10.164  0.3767  0.1850  0.4696
   96MOL0     C13139  12.442   3.449  10.291  0.0779 -0.8378  0.7649
   96MOL0     C13140  12.591   3.489  10.286 -0.1236  0.7352 -0.3027
   96MOL0     O13141  12.683   3.395  10.236 -0.3264  0.5215  0.3351
   96MOL0     C13142  12.815   3.434  10.248 -0.8510 -0.3439  0.3159
   96MOL0     C13143  12.897   3.398  10.366  0.0890  0.8713 -0.6200
   96MOL0     C13144  13.022   3.443  10.381  0.3280 -0.5332  0.0734
   96MOL0     C13145  13.082   3.521  10.284  0.3501 -1.3070  0.2275
   96MOL0     O13146  13.213   3.560  10.289  0.4969 -0.4005 -0.1561
   96MOL0     C13147  13.282   3.570  10.409 -0.7251 -0.1792  0.7732
   96MOL0     C13148  13.409   3.652  10.418 -0.7653  0.4417  0.2377
   96MOL0     C13149  13.394   3.799  10.381 -0.7735  0.4891  0.2375
   96MOL0     C13150  13.307   3.865  10.487 -0.1826 -0.0601 -0.9142
   96MOL0     C13151  13.262   4.008  10.436 -0.0280  0.3802  0.7027
   96MOL0     C13152  13.143   3.995  10.337 -0.4353  0.0986  0.2717
   96MOL0     C13153  13.110   4.129  10.271 -0.3178 -0.3978  0.1140
   96MOL0     C13154  12.971   4.129  10.209 -0.3349  0.3669  0.6026
   96MOL0    Cl13155  12.964   4.006  10.084 -0.2584  0.0829 -0.1684
   96MOL0     C13156  13.007   3.565  10.166  0.2095 -0.2516  0.3445
   96MOL0     C13157  12.873   3.524  10.150 -0.8066 -0.3237 -0.4031
   96MOL0     O13158  12.623   3.598  10.338 -0.2927 -0.7358 -0.3847
   96MOL0     C13159  12.365   3.532  10.370  0.5364 -1.4623  0.5672
   96MOL0     C13160  12.234   3.499  10.405  0.3662  0.5903  0.5124
   96MOL0     N13161  11.885   2.796  10.023  0.4697  0.6991 -0.5939
   96MOL0     N13162  11.805   2.694  10.008  0.5540  0.3434  0.9074
   96MOL0     C13163  10.767   2.492  10.653 -0.7982 -0.1760  0.7264
   96MOL0     C13164  10.663   2.485  10.746  0.2867  1.1848 -0.2659
   96MOL0     C13165  10.336   2.481  11.030  0.3052  0.0620  0.3216
   96MOL0     C13166  10.292   2.567  11.137 -1.0711 -0.7013 -0.5583
   96MOL0     C13167  10.187   2.533  11.225  0.3237 -1.3412  0.4647
   96MOL0     C13168  10.118   2.415  11.207  0.4283 -0.1398 -0.4961
   96MOL0     O13169  10.011   2.368  11.285  0.0423 -0.2272 -0.0520
   96MOL0     C13170  10.021   2.401  11.420 -1.4286  0.3015 -0.0577
   96MOL0     C13171   9.934   2.309  11.506 -0.0865  0.1064  0.7657
   96MOL0     C13172   9.929   2.353  11.658  1.2851  1.3978 -1.3182
   96MOL0     C13173   9.856   2.242  11.736 -0.2438 -0.3878  0.0561
   96MOL0     C13174   9.838   2.257  11.878 -0.8731  0.1405  0.4686
   96MOL0     C13175   9.819   2.273  11.994 -0.5429 -0.7537 -0.6146
   96MOL0     C13176  10.158   2.332  11.105 -0.5542  0.1143  0.6572
   96MOL0     C13177  10.264   2.360  11.017  0.7009  0.0950 -0.6329
   96MOL0     C13178  10.289   2.250  10.913  0.2874 -0.0603 -0.9508
   96MOL0     H13179  10.388   2.514  10.561 -0.8978 -2.5703  3.9896
   96MOL0     H13180  10.567   2.508  10.380  0.6069 -4.0088 -1.0222
   96MOL0     H13181  11.005   2.426  10.459 -0.2875 -0.7604  0.0252
   96MOL0     H13182  10.967   2.593  10.513 -1.5507  0.4055 -1.3360
   96MOL0     H13183  10.982   2.659  10.259 -2.0712 -0.8099 -0.0898
   96MOL0     H13184  11.134   2.631  10.346 -0.8418 -0.8076  2.8832
   96MOL0     H13185  11.125   2.386  10.252 -0.8070 -0.3386 -0.7051
   96MOL0     H13186  10.968   2.424  10.189  0.2518 -1.1272 -1.3015
   96MOL0     H13187  11.149   2.413  10.031 -2.1942  0.2687 -1.5514
   96MOL0     H13188  11.071   2.577  10.030  0.9326  0.1235 -1.8857
   96MOL0     H13189  11.319   2.495  10.192  1.5234 -0.6374 -1.2883
   96MOL0     H13190  11.249   2.666  10.165  0.9203  1.8588 -2.6918
   96MOL0     H13191  11.375   2.492   9.957  3.8129 -0.5833  1.9067
   96MOL0     H13192  11.322   2.665   9.933  1.9929 -0.7294 -1.0177
   96MOL0     H13193  11.533   2.564  10.114 -1.5629  0.2343  1.5972
   96MOL0     H13194  11.480   2.731  10.116 -1.8194 -0.2276 -0.8758
   96MOL0     H13195  11.590   2.590   9.863 -1.4983 -1.5648  0.8891
   96MOL0     H13196  11.506   2.743   9.865  1.8758  1.6691  0.7315
   96MOL0     H13197  11.624   2.961   9.912 -1.6946 -1.0020  1.1638
   96MOL0     H13198  11.820   3.129   9.972  2.5406  0.0239 -3.4331
   96MOL0     H13199  11.975   3.058   9.973  1.2718 -0.4926  2.0497
   96MOL0     H13200  11.795   3.064  10.223 -1.1929 -3.8774 -1.2495
   96MOL0     H13201  11.970   3.017  10.220  2.4094  1.9686 -1.9912
   96MOL0     H13202  12.034   3.255  10.148  1.7471 -0.9218  1.6702
   96MOL0     H13203  11.875   3.307  10.181 -1.7844 -1.0417  0.8934
   96MOL0     H13204  11.904   3.196  10.413  1.5512 -4.1019  0.8854
   96MOL0     H13205  12.060   3.150  10.365 -2.1347 -2.0279 -0.9882
   96MOL0     H13206  12.212   3.216  10.222 -1.1801  0.9693 -0.9202
   96MOL0     H13207  12.499   3.265  10.072  1.7689 -3.8633 -0.9974
   96MOL0     H13208  12.400   3.133  10.135 -0.4911  1.1465 -0.9415
   96MOL0     H13209  12.541   3.191  10.226  0.6683  0.2336  0.1045
   96MOL0     H13210  12.849   3.330  10.435 -2.7514  0.8174 -2.4645
   96MOL0     H13211  13.068   3.414  10.475 -1.3462  1.9705  1.7993
   96MOL0     H13212  13.210   3.606  10.482 -1.0466 -0.5780  0.6576
   96MOL0     H13213  13.307   3.469  10.444 -0.7144 -0.4827 -0.0897
   96MOL0     H13214  13.450   3.636  10.518 -2.0398 -2.0573  0.4357
   96MOL0     H13215  13.482   3.612  10.348  0.2829 -1.8047  2.4371
   96MOL0     H13216  13.358   3.807  10.278 -2.0031  2.2993  0.7748
   96MOL0     H13217  13.487   3.857  10.384 -0.5993  0.1919  1.2024
   96MOL0     H13218  13.368   3.882  10.576 -2.9903 -3.8435  2.0948
   96MOL0     H13219  13.220   3.813  10.528 -0.1168  1.4803  1.3280
   96MOL0     H13220  13.226   4.063  10.523 -1.9556  1.8948 -0.9609
   96MOL0     H13221  13.339   4.060  10.378 -0.4946 -0.1253 -0.3834
   96MOL0     H13222  13.050   3.969  10.388 -0.5491  2.4387  1.3938
   96MOL0     H13223  13.162   3.909  10.272 -2.0812  1.6905 -2.4616
   96MOL0     H13224  13.184   4.144  10.192  0.3550 -3.3588  0.0635
   96MOL0     H13225  13.121   4.217  10.336  4.7624 -0.2971 -0.5409
   96MOL0     H13226  12.967   4.226  10.160  0.5500  0.9621  1.6560
   96MOL0     H13227  12.887   4.131  10.279 -2.9688  0.6727 -2.3432
   96MOL0     H13228  13.054   3.646  10.111 -0.6423  0.8074  1.1384
   96MOL0     H13229  12.807   3.553  10.069 -2.9456 -0.9002  1.0672
   96MOL0     H13230  12.402   3.632  10.392  0.5325 -1.4329  0.4409
   96MOL0     H13231  12.173   3.569  10.462  0.9090  1.1683  0.3933
   96MOL0     H13232  10.870   2.483  10.686 -0.4954 -1.0642 -0.3821
   96MOL0     H13233  10.699   2.461  10.845  1.1012  0.3624 -0.7430
   96MOL0     H13234  10.339   2.664  11.151 -1.6045 -0.3092 -1.4627
   96MOL0     H13235  10.159   2.607  11.299  0.3500 -0.6632 -0.2034
   96MOL0     H13236  10.119   2.379  11.464  0.2162  4.9462 -0.8741
   96MOL0     H13237   9.990   2.505  11.435 -0.3148  0.9774 -2.0399
   96MOL0     H13238   9.968   2.205  11.502  0.9096  0.3040  2.6857
   96MOL0     H13239   9.837   2.310  11.456 -0.6972  0.4127  1.9230
   96MOL0     H13240  10.028   2.349  11.705 -1.0185 -0.7209  4.1597
   96MOL0     H13241   9.866   2.441  11.671  1.0319  1.0403  0.0231
   96MOL0     H13242   9.917   2.152  11.729  0.0411 -0.5810  3.3146
   96MOL0     H13243   9.757   2.230  11.691 -0.3476  1.6232 -0.3384
   96MOL0     H13244   9.796   2.309  12.092  1.6756  4.5438 -1.6591
   96MOL0     H13245  10.099   2.243  11.086  3.0251 -2.0921 -1.4075
   96MOL0     H13246  10.255   2.276  10.812  0.0278 -1.3285 -1.2057
   96MOL0     H13247  10.395   2.225  10.904  0.5565  0.4824  0.5475
   96MOL0     H13248  10.232   2.160  10.938 -2.1209  1.6708  0.1220
   97MOL0     O13249   3.917   4.553   4.418  0.1634  0.2978 -0.2628
   97MOL0     C13250   3.895   4.668   4.372  0.1016 -0.5082  0.0420
   97MOL0     O13251   3.985   4.775   4.381 -0.1237  0.1988  0.4355
   97MOL0     C13252   4.117   4.748   4.421 -0.3809 -0.3648  0.1447
   97MOL0     C13253   4.218   4.823   4.356  0.6228  0.4955 -0.1559
   97MOL0     C13254   4.353   4.824   4.402 -1.1800 -0.5718 -0.7073
   97MOL0     C13255   4.380   4.760   4.521  0.1845 -0.8162  0.7483
   97MOL0     O13256   4.493   4.801   4.590 -0.7887 -0.2078 -0.2641
   97MOL0     C13257   4.577   4.692   4.640  0.2121  0.2884 -0.6736
   97MOL0     C13258   4.670   4.632   4.536 -0.0011  0.3891 -0.2021
   97MOL0     C13259   4.756   4.525   4.595 -1.0382  0.1337 -0.9515
   97MOL0     C13260   4.906   4.567   4.590  0.3886  0.9338 -0.5206
   97MOL0     C13261   5.006   4.459   4.647 -0.9784  0.2417  0.2771
   97MOL0     C13262   4.965   4.395   4.777 -0.2297  0.1709  0.9733
   97MOL0     C13263   5.091   4.316   4.834  0.9244 -0.2072 -0.4403
   97MOL0     C13264   5.184   4.239   4.734 -0.0570  0.1428 -0.1137
   97MOL0     N13265   5.311   4.201   4.796  0.3004  0.8190  0.5493
   97MOL0     C13266   5.338   4.082   4.860 -0.1678  0.1425  0.1526
   97MOL0     C13267   5.457   4.106   4.928 -0.1798  0.5143  1.3051
   97MOL0     C13268   5.522   4.012   5.033 -0.5343 -0.5553  0.3928
   97MOL0     C13269   5.622   3.922   4.951  0.3251  0.1686  0.4187
   97MOL0     C13270   5.724   3.864   5.051  0.8182 -0.1655  0.7233
   97MOL0     C13271   5.826   3.771   4.971  0.6855  0.5725  0.2580
   97MOL0     O13272   5.757   3.643   4.953  0.0123  0.1602 -1.3142
   97MOL0     C13273   5.826   3.548   4.886 -0.3805  0.3840  0.3949
   97MOL0     C13274   5.752   3.434   4.850 -0.6626  1.2554  0.5524
   97MOL0     C13275   5.813   3.337   4.767 -0.2509  0.1540  0.5609
   97MOL0     C13276   5.726   3.215   4.747  0.3272  0.8045 -0.8722
   97MOL0     C13277   5.951   3.350   4.724  0.0973  0.4577 -0.0050
   97MOL0     C13278   6.029   3.239   4.657  0.6412 -0.1342 -0.0008
   97MOL0     O13279   6.150   3.285   4.623 -0.2990 -0.0035 -0.2935
   97MOL0     C13280   6.237   3.187   4.568  0.8785 -0.0901 -0.5021
   97MOL0     C13281   6.221   3.103   4.455 -0.3208  0.4305 -0.1534
   97MOL0     C13282   6.327   3.024   4.412 -0.8704 -0.2175  0.5764
   97MOL0     C13283   6.457   3.033   4.471  0.1136 -0.2398  0.1268
   97MOL0     O13284   6.568   2.961   4.425 -0.2660  0.6397 -0.0715
   97MOL0     C13285   6.550   2.819   4.425  0.0787  0.5552 -0.4492
   97MOL0     C13286   6.587   2.768   4.574  0.1933 -0.9013  0.2475
   97MOL0     C13287   6.721   2.820   4.621 -0.0243 -0.0421  0.6494
   97MOL0     C13288   6.782   2.735   4.738  0.4253  0.6230  0.5619
   97MOL0     C13289   6.682   2.710   4.849  0.7690  0.0746  0.2129
   97MOL0     C13290   6.745   2.652   4.969  0.2065 -0.1180  0.3334
   97MOL0     C13291   6.635   2.620   5.071  0.5336 -0.1582 -0.6680
   97MOL0     C13292   6.688   2.600   5.218 -0.3639 -0.3268 -0.7060
   97MOL0    Cl13293   6.561   2.547   5.347  0.2424  0.1791 -0.0183
   97MOL0     C13294   6.473   3.118   4.583 -1.5549  1.2254  0.6807
   97MOL0     C13295   6.364   3.185   4.632 -0.8051  0.6636 -0.1543
   97MOL0     O13296   5.994   3.120   4.668 -0.1194 -0.4248  0.4794
   97MOL0     C13297   6.014   3.478   4.758 -0.0936  0.1603  0.9892
   97MOL0     C13298   5.953   3.571   4.831  1.1525 -0.2951  0.5063
   97MOL0     N13299   5.492   4.230   4.903  0.7190 -0.6318  0.8204
   97MOL0     N13300   5.413   4.293   4.819  0.4073  1.0122  0.5732
   97MOL0     C13301   4.291   4.677   4.578  0.9904  0.3415 -1.3398
   97MOL0     C13302   4.154   4.668   4.529 -0.3858  0.3617  0.1822
   97MOL0     C13303   3.766   4.701   4.297  0.1241  0.7987  0.3027
   97MOL0     C13304   3.760   4.828   4.237  0.1255 -0.5335 -0.5529
   97MOL0     C13305   3.649   4.869   4.171  0.5176  0.8493 -0.8726
   97MOL0     C13306   3.530   4.784   4.179  0.3549  0.3530 -0.5161
   97MOL0     O13307   3.410   4.819   4.117 -1.7523 -0.5174  0.3234
   97MOL0     C13308   3.365   4.953   4.107 -0.6669 -0.1679  0.3152
   97MOL0     C13309   3.275   4.980   3.985 -0.5847  0.0802 -0.0345
   97MOL0     C13310   3.162   4.876   3.966  0.0121 -0.3208 -1.2590
   97MOL0     C13311   3.031   4.929   3.937 -0.1136 -1.0392 -0.0094
   97MOL0     C13312   3.048   4.990   3.799  0.0858 -0.3281 -1.1972
   97MOL0     C13313   3.056   5.049   3.696  0.1415 -0.3575  0.4554
   97MOL0     C13314   3.534   4.655   4.234  0.0092 -0.3131 -0.8789
   97MOL0     C13315   3.643   4.619   4.306 -0.4269 -0.0908  0.2884
   97MOL0     C13316   3.638   4.490   4.378 -0.0467 -0.1885  1.0437
   97MOL0     H13317   4.183   4.877   4.269  1.7606  3.4515  1.0485
   97MOL0     H13318   4.428   4.879   4.346 -2.3814 -0.7396 -2.5828
   97MOL0     H13319   4.516   4.610   4.677 -2.2628  2.2627 -0.1366
   97MOL0     H13320   4.642   4.738   4.715 -0.0872  2.9524 -1.9215
   97MOL0     H13321   4.611   4.592   4.454 -0.4274 -0.5815  0.5645
   97MOL0     H13322   4.730   4.716   4.500  0.3842 -0.3635 -1.3690
   97MOL0     H13323   4.716   4.490   4.691 -0.3562 -0.0827 -0.7382
   97MOL0     H13324   4.741   4.435   4.534 -1.7336 -0.1215 -0.4190
   97MOL0     H13325   4.938   4.596   4.489 -0.5055  1.3087 -0.7028
   97MOL0     H13326   4.916   4.655   4.655  0.6968  0.3278  0.2702
   97MOL0     H13327   5.098   4.515   4.666 -1.9203  0.4771  5.3432
   97MOL0     H13328   5.010   4.372   4.581 -1.7177 -1.4090  2.3137
   97MOL0     H13329   4.936   4.470   4.851  0.3339  1.4370 -0.0598
   97MOL0     H13330   4.873   4.336   4.769 -1.3259  1.9323  0.1302
   97MOL0     H13331   5.053   4.236   4.898  2.1737  1.1291  2.1343
   97MOL0     H13332   5.155   4.388   4.886  0.3366 -0.3034  0.4381
   97MOL0     H13333   5.127   4.157   4.691 -0.0248 -0.3653  0.7923
   97MOL0     H13334   5.217   4.306   4.654 -2.1445  0.5999 -0.6540
   97MOL0     H13335   5.283   3.989   4.863 -0.8408  0.5495  2.5093
   97MOL0     H13336   5.439   3.950   5.069 -2.2815  0.0587 -2.3448
   97MOL0     H13337   5.568   4.067   5.116  0.6399 -1.9305  0.7040
   97MOL0     H13338   5.563   3.851   4.892  0.4586  1.0832 -0.8576
   97MOL0     H13339   5.683   3.973   4.876  0.8187 -1.8831 -0.6539
   97MOL0     H13340   5.774   3.953   5.090 -1.8375  2.6723 -1.8254
   97MOL0     H13341   5.679   3.815   5.138 -0.0137 -0.5488  0.0961
   97MOL0     H13342   5.853   3.819   4.877  1.5013 -0.0074  0.1909
   97MOL0     H13343   5.917   3.762   5.031  0.9646  2.3715  0.1638
   97MOL0     H13344   5.652   3.416   4.888 -0.0198  1.2240  2.3132
   97MOL0     H13345   5.733   3.172   4.847 -3.0914  1.7515 -0.0809
   97MOL0     H13346   5.754   3.141   4.672 -0.5046 -2.5903  1.8836
   97MOL0     H13347   5.623   3.243   4.721  0.1293 -1.2608 -2.5646
   97MOL0     H13348   6.124   3.115   4.408  0.0283 -0.1596 -1.0433
   97MOL0     H13349   6.298   2.966   4.325 -0.4964 -2.1282  1.6852
   97MOL0     H13350   6.448   2.791   4.398  0.2672 -0.9715  0.2857
   97MOL0     H13351   6.627   2.782   4.356  1.7819  1.6000  0.8081
   97MOL0     H13352   6.511   2.808   4.642 -1.4535 -0.0002 -1.9991
   97MOL0     H13353   6.584   2.659   4.570 -2.4803 -0.9273  0.6711
   97MOL0     H13354   6.711   2.924   4.651  1.9642  0.4975 -0.3633
   97MOL0     H13355   6.798   2.831   4.544  0.4348 -2.6155  0.6317
   97MOL0     H13356   6.870   2.787   4.778  0.0990  2.3183 -0.7983
   97MOL0     H13357   6.823   2.642   4.699  3.0660  1.2259  1.6809
   97MOL0     H13358   6.646   2.810   4.876 -2.3115 -1.0239  0.5015
   97MOL0     H13359   6.600   2.650   4.811  2.1156 -1.2419 -0.7284
   97MOL0     H13360   6.813   2.731   5.002 -0.5778  1.4123 -1.5285
   97MOL0     H13361   6.800   2.558   4.955 -0.4280 -0.4333 -0.1070
   97MOL0     H13362   6.591   2.525   5.040  0.2772 -0.2908  0.0847
   97MOL0     H13363   6.554   2.694   5.064 -0.6229 -1.4555 -1.6847
   97MOL0     H13364   6.720   2.699   5.253 -3.6852  1.3582 -1.9817
   97MOL0     H13365   6.772   2.530   5.220  2.2112  2.4394 -2.8924
   97MOL0     H13366   6.572   3.117   4.627  0.0946 -4.5787 -2.1959
   97MOL0     H13367   6.386   3.266   4.701  0.2918 -0.8611  1.3562
   97MOL0     H13368   6.115   3.490   4.721  0.0484  1.3186  1.7021
   97MOL0     H13369   6.002   3.668   4.838 -3.8160  2.5052  1.4336
   97MOL0     H13370   4.306   4.636   4.678 -3.6119 -0.5149 -0.7638
   97MOL0     H13371   4.083   4.602   4.578 -0.1061  1.0599  1.5914
   97MOL0     H13372   3.844   4.896   4.240 -0.2696 -0.0858  1.2197
   97MOL0     H13373   3.654   4.971   4.134  0.7141  1.0207 -0.3821
   97MOL0     H13374   3.296   4.971   4.189 -1.7504 -0.1561 -0.5762
   97MOL0     H13375   3.447   5.026   4.110 -0.2756 -0.4786 -1.3719
   97MOL0     H13376   3.340   4.988   3.897 -2.4950  1.8400 -1.3746
   97MOL0     H13377   3.226   5.077   3.995  1.8502  1.2371  2.0419
   97MOL0     H13378   3.188   4.803   3.888  0.8304  0.8784 -2.1458
   97MOL0     H13379   3.156   4.822   4.061 -1.2987 -0.6538 -1.5017
   97MOL0     H13380   2.993   4.989   4.020 -1.3182 -2.2623  0.3600
   97MOL0     H13381   2.951   4.855   3.935 -1.8681  0.7359 -2.1622
   97MOL0     H13382   3.040   5.098   3.602 -1.1303 -0.2107  0.7201
   97MOL0     H13383   3.453   4.588   4.208  1.1868 -2.1801  0.0868
   97MOL0     H13384   3.713   4.418   4.346  0.1703 -1.2360  3.6268
   97MOL0     H13385   3.657   4.506   4.485  1.6054 -0.6290  0.8474
   97MOL0     H13386   3.542   4.438   4.373  0.1499 -0.4453 -1.8076
   98MOL0     O13387   6.469  10.902   0.501 -0.4061  0.1286  0.4684
   98MOL0     C13388   6.518  10.877   0.389 -0.6427 -0.3643 -1.0829
   98MOL0     O13389   6.495  10.946   0.288 -0.9562 -0.6403  0.0693
   98MOL0     C13390   6.417  11.057   0.281 -0.0649 -0.7277  0.3379
   98MOL0     C13391   6.462  11.167   0.364 -0.0573 -0.1510  0.8188
   98MOL0     C13392   6.388  11.287   0.370 -0.0550  0.1456 -0.3809
   98MOL0     C13393   6.277  11.301   0.289  0.3051  1.1300 -0.8389
   98MOL0     O13394   6.196  11.409   0.299 -0.3477  0.8580  0.1173
   98MOL0     C13395   6.072  11.393   0.371 -0.7727  0.5814 -0.1186
   98MOL0     C13396   6.003  11.533   0.373  0.1663  0.3033 -0.4265
   98MOL0     C13397   6.099  11.637   0.422  0.8720 -1.5143  0.1983
   98MOL0     C13398   6.039  11.766   0.472  0.0135 -0.3889  0.5051
   98MOL0     C13399   6.134  11.855   0.553 -0.0165  0.1608 -0.2092
   98MOL0     C13400   6.246  11.919   0.464  0.2312  0.4049  1.1689
   98MOL0     C13401   6.326  12.022   0.544  0.0171 -0.5767 -0.2362
   98MOL0     C13402   6.428  12.096   0.452 -0.7280  0.2455  0.1030
   98MOL0     N13403   6.517  12.012   0.375  0.0127 -0.8443  0.0622
   98MOL0     C13404   6.516  11.983   0.240 -0.1105  1.0858 -1.2913
   98MOL0     C13405   6.635  11.936   0.203  0.0883  0.1988 -0.7115
   98MOL0     C13406   6.667  11.882   0.067 -0.2142  0.4265 -0.3416
   98MOL0     C13407   6.596  11.754   0.037  0.1399  0.0803 -0.4416
   98MOL0     C13408   6.613  11.631   0.123  0.7121 -0.2226  0.4286
   98MOL0     C13409   6.526  11.513   0.065 -0.3729  0.3123 -0.2253
   98MOL0     O13410   6.570  11.470  -0.068 -0.2031 -0.4954  0.4097
   98MOL0     C13411   6.475  11.392  -0.130  0.8819 -0.0915 -1.2757
   98MOL0     C13412   6.506  11.368  -0.257  0.1737  0.2629  0.7875
   98MOL0     C13413   6.415  11.297  -0.339  0.2475  0.2103  0.0593
   98MOL0     C13414   6.437  11.294  -0.493  0.4506  0.4207 -0.4018
   98MOL0     C13415   6.312  11.225  -0.276  0.2299 -0.1295 -0.7727
   98MOL0     C13416   6.212  11.149  -0.346  0.2210 -0.9960  0.2508
   98MOL0     O13417   6.182  11.036  -0.280 -0.0065 -0.0084  0.2217
   98MOL0     C13418   6.120  10.943  -0.360 -1.5551 -0.4304  0.0823
   98MOL0     C13419   5.993  10.965  -0.405 -0.4082 -0.4331  0.0101
   98MOL0     C13420   5.929  10.862  -0.472 -0.0406 -0.8566  0.1479
   98MOL0     C13421   6.000  10.747  -0.516  0.0483 -0.2765 -1.0986
   98MOL0     O13422   5.939  10.657  -0.595 -0.2518 -0.5573  0.6726
   98MOL0     C13423   5.977  10.515  -0.572 -0.0891 -0.0781 -0.3245
   98MOL0     C13424   6.071  10.464  -0.685 -0.3075  0.0309 -0.4200
   98MOL0     C13425   6.000  10.448  -0.821 -0.1725 -0.4334 -0.0954
   98MOL0     C13426   5.923  10.312  -0.833 -0.2991 -0.4481 -0.0992
   98MOL0     C13427   6.004  10.208  -0.912  0.6049  0.5407  0.0772
   98MOL0     C13428   5.933  10.075  -0.942  0.6857 -0.0377 -0.0682
   98MOL0     C13429   5.882   9.999  -0.821  0.1267  0.9518  0.1456
   98MOL0     C13430   5.829   9.855  -0.843  0.8834  0.7825  0.6702
   98MOL0    Cl13431   5.731   9.865  -0.998 -0.1520  0.3396  0.0993
   98MOL0     C13432   6.138  10.738  -0.476 -0.0426 -0.4314  0.1609
   98MOL0     C13433   6.204  10.839  -0.406  0.6413 -0.5794 -0.8935
   98MOL0     O13434   6.156  11.196  -0.449  0.1523  1.4620 -0.4690
   98MOL0     C13435   6.292  11.235  -0.139  0.5086 -0.0694  1.0666
   98MOL0     C13436   6.358  11.340  -0.069 -0.3072 -0.5829  0.2095
   98MOL0     N13437   6.706  11.939   0.324 -0.2292  0.0595  0.1290
   98MOL0     N13438   6.635  11.981   0.419 -0.5098  0.3998  0.5265
   98MOL0     C13439   6.237  11.193   0.203 -0.3408  0.6410  0.1300
   98MOL0     C13440   6.311  11.074   0.197 -0.6348  0.0901  0.8962
   98MOL0     C13441   6.602  10.750   0.364 -0.7016 -0.2655 -0.3525
   98MOL0     C13442   6.659  10.722   0.239  0.1767 -0.0979  0.2490
   98MOL0     C13443   6.751  10.621   0.214 -0.4954  0.7436 -0.2533
   98MOL0     C13444   6.798  10.538   0.314  0.3193  0.2589 -0.2793
   98MOL0     O13445   6.899  10.443   0.307 -0.7522 -0.0673 -0.1284
   98MOL0     C13446   6.852  10.310   0.292  0.4543 -0.7498  0.7472
   98MOL0     C13447   6.795  10.283   0.158  0.2750  0.0132  0.4807
   98MOL0     C13448   6.644  10.234   0.157 -1.0448 -0.7472  0.7170
   98MOL0     C13449   6.592  10.236   0.017 -0.4717  0.7563  1.3919
   98MOL0     C13450   6.672  10.140  -0.065 -0.1020 -0.2797 -0.7516
   98MOL0     C13451   6.713  10.083  -0.162  0.4268  0.7937  0.1791
   98MOL0     C13452   6.733  10.547   0.442 -0.7584  0.4568  0.0637
   98MOL0     C13453   6.637  10.652   0.469 -0.4119  0.3438  0.8080
   98MOL0     C13454   6.600  10.673   0.616  0.3153 -0.0379 -0.3216
   98MOL0     H13455   6.550  11.159   0.427 -1.0091 -2.5478  1.9580
   98MOL0     H13456   6.418  11.360   0.445  0.9259 -0.6774  0.0476
   98MOL0     H13457   6.084  11.357   0.473  0.7376 -0.1800 -0.5378
   98MOL0     H13458   6.003  11.331   0.313 -1.6040  0.6655  0.7485
   98MOL0     H13459   5.956  11.551   0.276 -1.8765 -1.5101  0.1482
   98MOL0     H13460   5.921  11.531   0.446 -2.5589  0.4794 -3.3138
   98MOL0     H13461   6.148  11.599   0.512  3.2070 -1.9735 -1.1683
   98MOL0     H13462   6.168  11.672   0.344 -0.6575  0.0266 -0.5308
   98MOL0     H13463   6.001  11.820   0.385 -0.2676  0.2272  0.9993
   98MOL0     H13464   5.958  11.740   0.541 -0.2584  0.3516  0.4709
   98MOL0     H13465   6.182  11.805   0.638 -0.4195 -1.7057 -1.0208
   98MOL0     H13466   6.086  11.949   0.580  3.4818  1.6030  1.6228
   98MOL0     H13467   6.312  11.847   0.415  2.5426  3.8252 -1.2406
   98MOL0     H13468   6.209  11.981   0.382 -1.0097 -1.3722  0.3227
   98MOL0     H13469   6.374  11.965   0.624  0.4856 -0.4546 -0.4250
   98MOL0     H13470   6.264  12.103   0.581  0.5227 -1.0684  1.7860
   98MOL0     H13471   6.371  12.165   0.390 -2.0959 -0.2837  0.7439
   98MOL0     H13472   6.491  12.163   0.512 -0.7605  3.4505 -3.0808
   98MOL0     H13473   6.422  11.984   0.185 -1.6716  0.7074  1.1947
   98MOL0     H13474   6.775  11.865   0.073 -0.3278 -0.0026  0.9483
   98MOL0     H13475   6.653  11.963  -0.005  1.6345 -1.0043 -2.4422
   98MOL0     H13476   6.491  11.782   0.023  1.0053  2.2733 -3.8655
   98MOL0     H13477   6.635  11.729  -0.062  0.7305 -2.1281  0.2853
   98MOL0     H13478   6.720  11.612   0.136  0.8538  2.0073  4.0398
   98MOL0     H13479   6.583  11.634   0.228  1.7288  0.1182  0.7171
   98MOL0     H13480   6.534  11.431   0.138  0.5386  0.9709  0.4378
   98MOL0     H13481   6.422  11.545   0.067 -1.7419 -3.4919 -0.7001
   98MOL0     H13482   6.586  11.431  -0.294 -0.7891 -0.9072 -4.0854
   98MOL0     H13483   6.533  11.337  -0.523 -0.7237  2.2650 -1.7253
   98MOL0     H13484   6.350  11.335  -0.545  0.5876 -0.0929 -1.0561
   98MOL0     H13485   6.443  11.188  -0.519  0.4444  0.8436 -2.3258
   98MOL0     H13486   5.932  11.053  -0.383  0.7001  1.6099 -4.1085
   98MOL0     H13487   5.823  10.868  -0.496  0.1085 -2.2923 -0.9739
   98MOL0     H13488   6.015  10.496  -0.472  0.9195 -1.9945 -1.0267
   98MOL0     H13489   5.882  10.460  -0.582  0.8324 -1.5219 -1.5638
   98MOL0     H13490   6.154  10.534  -0.697  0.1942 -0.8087 -2.2221
   98MOL0     H13491   6.118  10.373  -0.647  1.3476  0.2413 -1.8448
   98MOL0     H13492   6.077  10.468  -0.896 -0.2917  1.1989  0.1787
   98MOL0     H13493   5.934  10.536  -0.815  1.1509  0.7102 -1.5408
   98MOL0     H13494   5.828  10.324  -0.887  0.2919  1.8861 -0.7429
   98MOL0     H13495   5.904  10.274  -0.732 -1.5168 -0.1991 -0.2204
   98MOL0     H13496   6.021  10.259  -1.008 -2.9601  1.2466 -0.3315
   98MOL0     H13497   6.092  10.171  -0.859 -1.0032  2.3302  4.5131
   98MOL0     H13498   6.000  10.007  -0.997 -0.8421 -1.5093 -0.2040
   98MOL0     H13499   5.859  10.092  -1.021  1.9945 -0.2800 -1.4001
   98MOL0     H13500   5.802  10.054  -0.772 -1.7686 -3.7200  2.9213
   98MOL0     H13501   5.961   9.998  -0.745  1.2827 -3.4101 -0.7763
   98MOL0     H13502   5.778   9.812  -0.757 -0.0391  3.0891  1.3673
   98MOL0     H13503   5.904   9.780  -0.869 -0.9025 -0.2079 -2.0650
   98MOL0     H13504   6.205  10.661  -0.513  1.5735  0.3042  1.4161
   98MOL0     H13505   6.308  10.822  -0.379 -0.1122 -2.5767  1.1268
   98MOL0     H13506   6.222  11.178  -0.079 -0.2008 -0.0950  0.2359
   98MOL0     H13507   6.335  11.365   0.034  3.5855 -2.4234  1.7051
   98MOL0     H13508   6.152  11.207   0.137  0.1517 -2.1798 -1.2242
   98MOL0     H13509   6.271  11.008   0.121 -2.4979  3.2259 -1.0347
   98MOL0     H13510   6.632  10.792   0.160  0.1659  2.1002  2.1076
   98MOL0     H13511   6.789  10.601   0.114  3.6199 -0.4576  1.3521
   98MOL0     H13512   6.936  10.249   0.327  0.4377 -1.2402 -0.0313
   98MOL0     H13513   6.773  10.300   0.367  0.4752 -1.4313  0.6838
   98MOL0     H13514   6.857  10.208   0.109 -0.8486  0.1877 -1.3123
   98MOL0     H13515   6.809  10.374   0.097 -0.2981  0.0777  0.4396
   98MOL0     H13516   6.637  10.137   0.209 -1.4232 -1.2503 -0.2469
   98MOL0     H13517   6.596  10.303   0.227  0.7083 -0.2019  1.4294
   98MOL0     H13518   6.591  10.327  -0.043  0.3272 -0.3275 -0.3391
   98MOL0     H13519   6.490  10.196   0.015  0.1433 -0.9257 -1.7513
   98MOL0     H13520   6.747  10.050  -0.258  1.2605  1.6683  0.1593
   98MOL0     H13521   6.783  10.497   0.524 -0.9567 -0.6757 -0.4898
   98MOL0     H13522   6.608  10.776   0.654 -1.1450 -0.8339  2.3583
   98MOL0     H13523   6.501  10.636   0.646  0.4589  0.5775  0.9800
   98MOL0     H13524   6.667  10.613   0.678  1.4176 -0.6897 -2.0642
   99MOL0     O13525   6.582  10.729   5.651  0.2994 -0.3960 -0.3592
   99MOL0     C13526   6.665  10.644   5.680 -0.1324  0.4183 -0.3526
   99MOL0     O13527   6.784  10.669   5.745 -0.6214 -0.8589 -1.0159
   99MOL0     C13528   6.814  10.793   5.778 -0.0534 -1.3347 -0.7331
   99MOL0     C13529   6.773  10.856   5.898  0.4066  0.0599  0.6677
   99MOL0     C13530   6.820  10.981   5.939 -0.6187 -0.2924  0.9032
   99MOL0     C13531   6.918  11.045   5.856 -0.6273 -0.1493 -0.5066
   99MOL0     O13532   6.958  11.166   5.909 -0.8873 -1.0115  0.2244
   99MOL0     C13533   7.095  11.201   5.868 -0.3172 -0.4174 -0.5297
   99MOL0     C13534   7.127  11.350   5.886  0.4233  0.2925  0.2232
   99MOL0     C13535   7.046  11.442   5.797 -0.1612  0.4416  0.0065
   99MOL0     C13536   7.062  11.588   5.829 -0.1585 -1.3110  0.4492
   99MOL0     C13537   7.026  11.668   5.699  0.1938  0.2501  0.1659
   99MOL0     C13538   7.059  11.824   5.687  0.0633 -0.1148  0.3065
   99MOL0     C13539   7.000  11.916   5.792  0.1359 -0.4233 -0.5914
   99MOL0     C13540   7.102  12.022   5.840 -0.3789  0.8488  1.0298
   99MOL0     N13541   7.033  12.113   5.932 -0.3768 -0.0649  0.1365
   99MOL0     C13542   6.914  12.176   5.903 -0.6090 -0.1913 -0.8856
   99MOL0     C13543   6.894  12.249   6.009  0.5929  0.0232 -0.8296
   99MOL0     C13544   6.765  12.325   6.019 -0.3461  0.1229  0.4549
   99MOL0     C13545   6.795  12.474   6.015 -0.7563  0.1095 -0.1055
   99MOL0     C13546   6.671  12.551   6.058  0.1278 -0.4418  1.0210
   99MOL0     C13547   6.597  12.518   6.189 -0.2527  0.1455  0.7595
   99MOL0     O13548   6.695  12.515   6.281 -0.2898  0.2434 -1.3654
   99MOL0     C13549   6.757  12.630   6.318  1.0765  0.3833 -0.1004
   99MOL0     C13550   6.885  12.612   6.363 -0.3117  0.0572  0.4034
   99MOL0     C13551   6.957  12.725   6.415  0.1629  1.2182 -0.2024
   99MOL0     C13552   7.096  12.696   6.469  0.8421 -0.0338  0.9680
   99MOL0     C13553   6.897  12.853   6.402  0.1157 -0.0054 -0.8481
   99MOL0     C13554   6.964  12.979   6.436 -0.0069 -0.9748  0.4392
   99MOL0     O13555   6.889  13.090   6.425 -0.0510 -0.0273  0.3779
   99MOL0     C13556   6.940  13.225   6.434  0.6742  0.5962 -0.1604
   99MOL0     C13557   6.842  13.320   6.473  0.5524 -0.6892  0.2219
   99MOL0     C13558   6.880  13.455   6.479 -0.2313 -0.4078 -0.6091
   99MOL0     C13559   7.005  13.496   6.438 -0.1303  0.3457  0.1572
   99MOL0     O13560   7.038  13.627   6.441  0.4534  0.3326 -0.8189
   99MOL0     C13561   6.979  13.695   6.333  0.3635 -0.3965 -0.7859
   99MOL0     C13562   7.047  13.831   6.309  0.6014  0.3536  0.9918
   99MOL0     C13563   7.039  13.924   6.432  0.0581  0.1396 -0.1924
   99MOL0     C13564   7.183  13.972   6.494  0.6513  0.3954  0.3141
   99MOL0     C13565   7.152  14.039   6.629 -0.2919  0.0919  0.7249
   99MOL0     C13566   7.279  14.091   6.696 -1.0323  0.7578  0.3844
   99MOL0     C13567   7.330  14.216   6.616  0.1049 -0.8856 -0.1542
   99MOL0     C13568   7.476  14.239   6.651  0.1076 -0.4152  1.1926
   99MOL0    Cl13569   7.471  14.288   6.829  0.1655 -0.2033  0.0322
   99MOL0     C13570   7.098  13.401   6.388  0.0280  0.4915 -0.5709
   99MOL0     C13571   7.069  13.267   6.405 -0.0166 -0.4034 -0.1807
   99MOL0     O13572   7.088  12.974   6.460  0.0644 -0.6328  0.1341
   99MOL0     C13573   6.769  12.874   6.341  0.5718  1.1251  0.0671
   99MOL0     C13574   6.707  12.760   6.304 -0.1392  0.4567 -0.5607
   99MOL0     N13575   6.995  12.230   6.105  0.6292  0.4389 -0.5424
   99MOL0     N13576   7.083  12.148   6.062 -0.5530 -0.1844  0.7024
   99MOL0     C13577   6.963  10.979   5.736 -0.9372 -0.1088 -0.1162
   99MOL0     C13578   6.916  10.856   5.703 -0.1566  0.0286 -0.7607
   99MOL0     C13579   6.635  10.499   5.651 -0.0022  0.0778  0.5025
   99MOL0     C13580   6.662  10.412   5.757 -0.5170 -1.2781 -0.1790
   99MOL0     C13581   6.634  10.270   5.745  1.7322  0.4157 -0.5737
   99MOL0     C13582   6.559  10.228   5.634 -0.0124  0.4118  0.5443
   99MOL0     O13583   6.517  10.102   5.618 -0.7979  0.9340  0.3813
   99MOL0     C13584   6.598   9.984   5.654  1.0613 -0.3972 -0.1479
   99MOL0     C13585   6.531   9.904   5.772 -1.1929  0.2020 -0.1555
   99MOL0     C13586   6.597   9.782   5.830  0.7962 -0.3929 -0.0284
   99MOL0     C13587   6.725   9.812   5.909  0.1849 -0.2291  0.6119
   99MOL0     C13588   6.797   9.693   5.954  0.0483 -0.1786  0.6113
   99MOL0     C13589   6.863   9.596   5.994 -0.2153  0.2784  1.7571
   99MOL0     C13590   6.534  10.318   5.531  0.3268 -0.0140 -0.4581
   99MOL0     C13591   6.562  10.454   5.540  0.1663  0.5406  0.0593
   99MOL0     C13592   6.514  10.538   5.424 -0.3994  0.5532 -0.1719
   99MOL0     H13593   6.693  10.802   5.947  2.1811 -1.3122  2.2322
   99MOL0     H13594   6.784  11.030   6.029 -3.9018 -0.0763 -0.3893
   99MOL0     H13595   7.126  11.174   5.766 -0.9889 -0.7342 -0.6496
   99MOL0     H13596   7.160  11.138   5.930 -1.0238  0.9831  1.7594
   99MOL0     H13597   7.110  11.378   5.990 -1.6190  5.5163 -1.1937
   99MOL0     H13598   7.233  11.371   5.865  0.7006 -0.6583  0.6318
   99MOL0     H13599   7.081  11.419   5.696 -2.2070 -2.3289 -0.1876
   99MOL0     H13600   6.940  11.414   5.791 -0.1022  0.5184 -2.3193
   99MOL0     H13601   6.990  11.622   5.905  0.6830  3.0068 -0.4136
   99MOL0     H13602   7.160  11.617   5.869 -1.2456  1.7836  1.1772
   99MOL0     H13603   6.919  11.650   5.684  0.4611 -0.9952 -0.3781
   99MOL0     H13604   7.071  11.627   5.608 -0.1914  0.5063 -0.1402
   99MOL0     H13605   7.167  11.844   5.690 -0.6750  5.9600  0.1851
   99MOL0     H13606   7.023  11.871   5.595  1.9571  2.2248  0.6410
   99MOL0     H13607   6.950  11.886   5.884 -1.7041  1.9663 -0.7117
   99MOL0     H13608   6.921  11.976   5.746  2.2624  4.0111  0.9324
   99MOL0     H13609   7.190  11.978   5.889 -0.6742 -0.4077  0.4713
   99MOL0     H13610   7.136  12.074   5.750 -0.2408 -1.8420 -0.5784
   99MOL0     H13611   6.868  12.189   5.806 -0.9223  2.4807 -0.4632
   99MOL0     H13612   6.729  12.293   6.117  2.1548  1.0953  1.7788
   99MOL0     H13613   6.695  12.296   5.939 -0.1237 -1.5821  0.8402
   99MOL0     H13614   6.878  12.493   6.084 -0.3340 -0.9699 -0.2967
   99MOL0     H13615   6.814  12.498   5.910  0.4362  2.1057  0.5076
   99MOL0     H13616   6.706  12.655   6.056 -1.4304  0.1247 -1.1552
   99MOL0     H13617   6.595  12.554   5.980 -0.3268 -1.0261  1.4288
   99MOL0     H13618   6.521  12.597   6.195  2.1717  2.6755  0.0935
   99MOL0     H13619   6.546  12.421   6.178  3.3201 -1.7779 -0.4553
   99MOL0     H13620   6.929  12.514   6.378  0.6805  0.8197  2.8890
   99MOL0     H13621   7.177  12.751   6.421  0.5796 -1.9519 -1.9330
   99MOL0     H13622   7.114  12.590   6.445  1.1390  0.5832 -1.9772
   99MOL0     H13623   7.107  12.727   6.573 -1.5014 -0.3432  1.3744
   99MOL0     H13624   6.750  13.270   6.499  1.7326 -2.2065  1.7272
   99MOL0     H13625   6.806  13.529   6.508  0.0262  0.3397 -1.7655
   99MOL0     H13626   6.994  13.631   6.246  0.4339  0.3778 -1.3576
   99MOL0     H13627   6.871  13.706   6.349  0.1559 -0.7649 -1.8615
   99MOL0     H13628   7.148  13.817   6.268 -0.4351 -0.7385 -1.3232
   99MOL0     H13629   6.997  13.875   6.222 -1.3824  0.8550  2.3310
   99MOL0     H13630   6.976  13.880   6.510 -2.5807  1.6636 -1.3279
   99MOL0     H13631   6.979  14.011   6.405 -2.2855 -1.1714  0.5557
   99MOL0     H13632   7.228  14.032   6.414 -1.7778  0.4868 -1.1047
   99MOL0     H13633   7.247  13.887   6.519 -1.7955 -1.1598  1.7392
   99MOL0     H13634   7.078  14.117   6.608  0.5150  0.7820  0.4268
   99MOL0     H13635   7.112  13.956   6.688 -0.3337 -0.6604 -0.3322
   99MOL0     H13636   7.355  14.013   6.709 -1.3664  0.5168  0.9640
   99MOL0     H13637   7.254  14.111   6.801 -2.0929 -0.7019  0.4298
   99MOL0     H13638   7.273  14.307   6.636 -0.3188 -1.4673  1.3757
   99MOL0     H13639   7.337  14.195   6.508  3.7548 -1.3433  0.0632
   99MOL0     H13640   7.508  14.326   6.593 -2.4799 -0.9807 -1.2914
   99MOL0     H13641   7.539  14.151   6.633  0.6432  0.1153  0.4517
   99MOL0     H13642   7.195  13.429   6.347  1.5856 -0.7309  2.0029
   99MOL0     H13643   7.152  13.202   6.378  1.0401  1.6387 -2.2000
   99MOL0     H13644   6.712  12.965   6.325 -1.5774 -0.6430 -3.6824
   99MOL0     H13645   6.609  12.765   6.259  0.0345  0.2263 -0.9788
   99MOL0     H13646   7.032  11.028   5.669 -1.8980  2.4680  0.6600
   99MOL0     H13647   6.972  10.807   5.624  1.4516  0.4728  0.0439
   99MOL0     H13648   6.700  10.449   5.852 -1.0944 -0.6720 -0.1749
   99MOL0     H13649   6.651  10.206   5.832 -0.5547  1.0343  0.4204
   99MOL0     H13650   6.612   9.928   5.561  1.9189  3.6301 -2.6941
   99MOL0     H13651   6.699  10.012   5.682  0.8929  1.0492 -0.9296
   99MOL0     H13652   6.433   9.894   5.726 -0.5994  2.6474 -2.1226
   99MOL0     H13653   6.528   9.969   5.860 -1.7021 -0.5393  0.3848
   99MOL0     H13654   6.523   9.731   5.892  1.3054 -2.0353 -0.7384
   99MOL0     H13655   6.629   9.714   5.751  0.5302 -0.3189 -0.1998
   99MOL0     H13656   6.686   9.864   5.997 -0.3726  1.2928 -0.4891
   99MOL0     H13657   6.795   9.888   5.873 -0.9743  0.4639 -0.2554
   99MOL0     H13658   6.923   9.512   6.025  0.9508  1.8989  4.2265
   99MOL0     H13659   6.484  10.279   5.443  1.8616  0.0162 -1.3946
   99MOL0     H13660   6.435  10.601   5.466  0.7072  1.8308  0.0617
   99MOL0     H13661   6.590  10.604   5.381  1.0086 -0.9048 -0.0012
   99MOL0     H13662   6.487  10.468   5.343  2.2127 -0.7736  0.0005
  100MOL0     O13663   3.963   0.680   0.449 -0.2309 -0.1857 -0.5361
  100MOL0     C13664   3.920   0.611   0.533  0.1175  0.6208  0.2756
  100MOL0     O13665   3.910   0.644   0.667 -0.3908 -0.3867  0.0698
  100MOL0     C13666   3.961   0.759   0.725  0.3834 -0.3764  0.8617
  100MOL0     C13667   4.066   0.844   0.679  0.3269 -0.1883 -0.8697
  100MOL0     C13668   4.120   0.938   0.771 -0.0480  0.0841  0.8281
  100MOL0     C13669   4.076   0.956   0.895  0.1165  0.1852 -0.3666
  100MOL0     O13670   4.115   1.057   0.976 -0.7096  0.2748 -0.0261
  100MOL0     C13671   4.204   1.163   0.939 -0.5320  0.1549 -0.1288
  100MOL0     C13672   4.254   1.216   1.073 -0.3233 -0.3938 -0.2971
  100MOL0     C13673   4.366   1.325   1.062 -0.1247 -0.2092 -0.1758
  100MOL0     C13674   4.310   1.435   0.965  0.1703  0.2827 -0.0236
  100MOL0     C13675   4.380   1.571   0.986  0.3318 -0.0150 -0.1263
  100MOL0     C13676   4.351   1.663   0.859  0.4285 -0.0815  0.1934
  100MOL0     C13677   4.316   1.808   0.888  0.1494  1.0379  0.4345
  100MOL0     C13678   4.278   1.888   0.758  0.2204  1.0097 -1.0469
  100MOL0     N13679   4.240   2.021   0.783  1.2007 -0.4331  0.2327
  100MOL0     C13680   4.121   2.084   0.789  0.0219 -0.3081  0.9078
  100MOL0     C13681   4.144   2.216   0.807 -0.6320  0.0845  0.1484
  100MOL0     C13682   4.058   2.337   0.842 -0.5381  0.7797 -0.2277
  100MOL0     C13683   4.112   2.472   0.808  0.3775 -1.6996  1.5327
  100MOL0     C13684   4.012   2.580   0.852  0.1930  0.7446 -0.5603
  100MOL0     C13685   4.048   2.714   0.803 -0.6321  0.8634  0.1712
  100MOL0     O13686   4.113   2.781   0.905 -0.1843 -0.0550 -0.7610
  100MOL0     C13687   4.243   2.832   0.877 -0.0849 -0.6950  0.5290
  100MOL0     C13688   4.263   2.923   0.774  0.3286 -0.0388  0.1838
  100MOL0     C13689   4.397   2.972   0.747  0.2145  0.4182  1.0518
  100MOL0     C13690   4.417   3.088   0.643  0.1663 -0.9649  0.8264
  100MOL0     C13691   4.503   2.914   0.823  0.8428 -0.7423 -0.2060
  100MOL0     C13692   4.648   2.956   0.816  0.6722  0.2705 -0.6113
  100MOL0     O13693   4.731   2.935   0.915  0.5588  0.1611 -0.7947
  100MOL0     C13694   4.867   2.978   0.906 -0.7271 -0.3432 -0.2566
  100MOL0     C13695   4.901   3.087   0.983 -0.0606 -0.0531  0.4099
  100MOL0     C13696   5.037   3.128   0.987 -0.1326  0.8063 -0.6470
  100MOL0     C13697   5.139   3.051   0.921  0.1205 -0.5333 -0.4098
  100MOL0     O13698   5.267   3.089   0.944 -0.2769 -0.8589  0.5881
  100MOL0     C13699   5.376   3.031   0.875  0.0663 -0.3787  0.5278
  100MOL0     C13700   5.505   3.024   0.959 -0.0921  0.7766  0.0148
  100MOL0     C13701   5.572   3.156   0.979  0.0229 -0.7409 -0.3721
  100MOL0     C13702   5.529   3.266   1.076  0.2692  0.3975 -0.2906
  100MOL0     C13703   5.656   3.332   1.138 -0.0420  0.3549  0.0398
  100MOL0     C13704   5.621   3.445   1.238  1.4860 -0.5660 -0.0675
  100MOL0     C13705   5.740   3.538   1.286  0.6203  0.2578  0.0552
  100MOL0     C13706   5.695   3.642   1.392  0.4528  0.1261  0.3209
  100MOL0    Cl13707   5.824   3.722   1.488 -0.3457  0.0144 -0.8759
  100MOL0     C13708   5.095   2.943   0.834  0.0518 -0.7445  0.2131
  100MOL0     C13709   4.960   2.908   0.837  0.0372 -0.0668  0.0402
  100MOL0     O13710   4.672   3.020   0.714  0.0355  0.5206 -0.1150
  100MOL0     C13711   4.473   2.835   0.935 -0.7005 -0.8898 -0.3151
  100MOL0     C13712   4.345   2.789   0.958  0.2487  0.2895  0.2717
  100MOL0     N13713   4.284   2.230   0.798 -1.2733  0.1845 -0.3875
  100MOL0     N13714   4.343   2.117   0.789  0.0749  0.2738  0.4245
  100MOL0     C13715   3.979   0.871   0.947  0.2409  1.1294 -0.8696
  100MOL0     C13716   3.919   0.773   0.859  0.1308 -0.4054 -0.3590
  100MOL0     C13717   3.871   0.481   0.489  0.2540 -0.0534 -0.3557
  100MOL0     C13718   3.932   0.420   0.377  0.7290  0.4096 -0.4808
  100MOL0     C13719   3.894   0.294   0.334 -0.2066  0.2271 -0.1635
  100MOL0     C13720   3.790   0.228   0.393 -0.0915  0.2736 -0.0479
  100MOL0     O13721   3.764   0.099   0.356 -0.4245  0.2362 -0.7343
  100MOL0     C13722   3.797  -0.010   0.445  0.3737  0.6455 -0.5893
  100MOL0     C13723   3.798  -0.140   0.370  0.1736  0.6555 -0.5012
  100MOL0     C13724   3.655  -0.200   0.370 -0.0167  0.5582  0.8053
  100MOL0     C13725   3.657  -0.341   0.292 -1.0602 -0.2783  0.5660
  100MOL0     C13726   3.533  -0.403   0.303 -0.2168  0.1967 -0.9904
  100MOL0     C13727   3.426  -0.455   0.290  0.6473  0.8609  0.5777
  100MOL0     C13728   3.719   0.288   0.499  0.2901 -0.4358  0.3855
  100MOL0     C13729   3.766   0.412   0.548  0.4002  0.3642  0.0303
  100MOL0     C13730   3.693   0.458   0.673  0.9897  0.3443 -0.0929
  100MOL0     H13731   4.119   0.836   0.584  0.0077  1.0151 -1.1680
  100MOL0     H13732   4.197   1.003   0.731 -2.0487  2.1594  0.1376
  100MOL0     H13733   4.155   1.240   0.879  0.9437  3.1941  2.2948
  100MOL0     H13734   4.299   1.137   0.891  1.5783  1.7861  2.8250
  100MOL0     H13735   4.173   1.249   1.138  0.5256  1.4772 -0.1219
  100MOL0     H13736   4.289   1.126   1.124 -2.9395 -0.3964  1.6770
  100MOL0     H13737   4.381   1.370   1.161  0.4908  0.5361 -0.6050
  100MOL0     H13738   4.462   1.284   1.029 -0.7547 -0.5484 -1.6582
  100MOL0     H13739   4.327   1.404   0.862  1.9027  2.3040 -0.4306
  100MOL0     H13740   4.208   1.467   0.987  1.8295  4.7988  2.7325
  100MOL0     H13741   4.486   1.554   1.005 -0.0286 -1.0384  1.1007
  100MOL0     H13742   4.343   1.618   1.077 -2.2205 -0.6994 -0.7356
  100MOL0     H13743   4.427   1.650   0.783 -0.7176  0.2975 -1.0630
  100MOL0     H13744   4.259   1.621   0.816  1.2670  0.8676 -2.7417
  100MOL0     H13745   4.408   1.840   0.937  3.5349 -3.8551 -1.9237
  100MOL0     H13746   4.236   1.822   0.961 -1.3680  1.8729 -1.2923
  100MOL0     H13747   4.363   1.892   0.689 -1.0397  0.1134 -2.7277
  100MOL0     H13748   4.200   1.838   0.702 -1.4580  0.3680  1.6844
  100MOL0     H13749   4.025   2.034   0.794  1.1759 -2.7255  0.1687
  100MOL0     H13750   4.039   2.341   0.950  0.5021 -0.9414  0.0611
  100MOL0     H13751   3.954   2.320   0.811 -0.9517  3.7341 -0.7176
  100MOL0     H13752   4.206   2.479   0.863  1.0668 -0.8905  0.2826
  100MOL0     H13753   4.120   2.470   0.699 -1.4351  0.3325  1.3100
  100MOL0     H13754   3.913   2.551   0.817 -0.5241  0.0939  1.8173
  100MOL0     H13755   4.002   2.572   0.961 -0.5393 -0.1566 -0.6826
  100MOL0     H13756   4.108   2.710   0.711 -0.0822 -2.2169  0.5585
  100MOL0     H13757   3.952   2.763   0.788 -0.8559 -0.0192 -1.5519
  100MOL0     H13758   4.194   2.964   0.701 -0.2171 -1.7316 -0.2928
  100MOL0     H13759   4.476   3.055   0.557  0.4644  1.6593 -0.0625
  100MOL0     H13760   4.470   3.174   0.686 -1.6600  1.6303 -1.8143
  100MOL0     H13761   4.322   3.120   0.601  0.3441 -0.8514  0.5037
  100MOL0     H13762   4.816   3.141   1.024 -1.2686  0.9131 -2.9841
  100MOL0     H13763   5.069   3.217   1.041 -1.2906 -0.2929  2.0448
  100MOL0     H13764   5.347   2.927   0.856  0.4802 -1.0738  3.2071
  100MOL0     H13765   5.397   3.083   0.782  2.1094 -1.0494  0.5743
  100MOL0     H13766   5.486   2.973   1.054 -0.4744 -0.0638 -0.4966
  100MOL0     H13767   5.568   2.948   0.912 -2.0216  0.9930 -3.2782
  100MOL0     H13768   5.585   3.206   0.882  1.2049  4.4145  2.1254
  100MOL0     H13769   5.675   3.131   1.008  0.5931  0.1228 -1.5449
  100MOL0     H13770   5.464   3.227   1.155 -0.1537  1.3318 -0.1639
  100MOL0     H13771   5.470   3.336   1.016 -0.5358 -0.8868 -1.0521
  100MOL0     H13772   5.724   3.257   1.179  1.0913  0.7307 -1.0466
  100MOL0     H13773   5.714   3.386   1.062 -0.8215  1.6576  0.3339
  100MOL0     H13774   5.577   3.400   1.328  1.0862  0.3944  0.2299
  100MOL0     H13775   5.548   3.504   1.182  3.3088  0.4464 -1.4962
  100MOL0     H13776   5.797   3.587   1.207 -0.0096  0.4461 -0.2889
  100MOL0     H13777   5.805   3.469   1.341 -0.0500 -0.2407  0.2267
  100MOL0     H13778   5.627   3.595   1.463  2.2131 -2.2971  0.5219
  100MOL0     H13779   5.638   3.725   1.349  1.3748  0.7878  0.3386
  100MOL0     H13780   5.165   2.887   0.773  0.0757 -2.3053  1.6072
  100MOL0     H13781   4.928   2.821   0.781  0.3139  0.2326 -0.5872
  100MOL0     H13782   4.556   2.806   0.999 -1.0775 -2.7740 -0.6174
  100MOL0     H13783   4.327   2.721   1.041  0.9662 -0.1565  0.0733
  100MOL0     H13784   3.936   0.904   1.040 -0.9626  2.8048 -1.9695
  100MOL0     H13785   3.853   0.696   0.898  1.1724 -0.9447  0.3822
  100MOL0     H13786   4.014   0.472   0.329 -0.3559  2.1518 -0.5411
  100MOL0     H13787   3.958   0.235   0.269 -0.7050 -2.2168  1.4113
  100MOL0     H13788   3.897   0.000   0.489  0.8357  2.4893 -1.9158
  100MOL0     H13789   3.728  -0.018   0.529  3.1991  0.0268  1.8616
  100MOL0     H13790   3.880  -0.204   0.401  1.1246  0.7691 -2.5804
  100MOL0     H13791   3.832  -0.115   0.269 -0.1277  0.0974 -0.7458
  100MOL0     H13792   3.624  -0.211   0.474  2.9637 -2.1147  1.5804
  100MOL0     H13793   3.591  -0.129   0.317  2.1304  2.7692  0.9789
  100MOL0     H13794   3.740  -0.402   0.327  1.1632  2.7384  0.9727
  100MOL0     H13795   3.677  -0.332   0.185  1.4630  0.3079  1.0345
  100MOL0     H13796   3.329  -0.491   0.264  0.2747  2.2700 -0.0834
  100MOL0     H13797   3.633   0.242   0.545  0.3033  0.0182  0.8815
  100MOL0     H13798   3.670   0.565   0.664  0.0816  0.5309  3.1950
  100MOL0     H13799   3.592   0.418   0.673  1.3034 -1.2334 -5.6541
  100MOL0     H13800   3.742   0.440   0.769 -1.9036 -0.6156  1.3173
  101MOL0     O13801   1.436  11.025   7.796  0.4525 -0.1453  0.4223
  101MOL0     C13802   1.551  11.056   7.821 -1.0006 -0.6259  0.1173
  101MOL0     O13803   1.617  11.163   7.761  0.6376  0.4675  0.5308
  101MOL0     C13804   1.549  11.252   7.674 -0.1631 -0.1394  0.2690
  101MOL0     C13805   1.639  11.319   7.588 -0.2599 -0.0454 -1.2853
  101MOL0     C13806   1.592  11.428   7.506  0.0861  0.0732 -0.3504
  101MOL0     C13807   1.462  11.463   7.512 -0.4213  0.7021 -0.1702
  101MOL0     O13808   1.421  11.561   7.426  0.2933  0.3979  0.8009
  101MOL0     C13809   1.343  11.663   7.485 -0.3746 -0.2522  0.6048
  101MOL0     C13810   1.283  11.746   7.374  0.3617  0.6932 -0.7511
  101MOL0     C13811   1.213  11.856   7.429 -0.2504 -0.6751  0.4956
  101MOL0     C13812   1.159  11.957   7.333 -0.6691  0.2128 -0.2488
  101MOL0     C13813   1.033  11.923   7.249 -0.3207  0.7073 -0.0762
  101MOL0     C13814   1.001  12.047   7.162  0.4661  0.6089  0.5098
  101MOL0     C13815   0.897  12.016   7.062 -0.0885 -0.1038  0.2062
  101MOL0     C13816   0.956  11.953   6.928  0.5582 -0.5642 -0.1185
  101MOL0     N13817   0.864  11.933   6.813 -0.1165 -0.3365  0.3876
  101MOL0     C13818   0.776  12.027   6.771  0.5880  0.3811  0.8307
  101MOL0     C13819   0.682  11.968   6.693 -0.1008 -0.0346 -0.3988
  101MOL0     C13820   0.553  12.013   6.633 -0.2622  0.6165 -0.6841
  101MOL0     C13821   0.443  11.970   6.736 -0.8603 -0.2289 -0.4998
  101MOL0     C13822   0.301  12.034   6.736 -0.6249  0.2454 -0.0390
  101MOL0     C13823   0.289  12.185   6.727  0.4969  0.0504  0.1399
  101MOL0     O13824   0.402  12.262   6.762 -0.6947  0.1323  0.1729
  101MOL0     C13825   0.452  12.278   6.895  0.9899  0.5349 -0.9242
  101MOL0     C13826   0.568  12.342   6.921  0.2221  0.7563  0.2639
  101MOL0     C13827   0.623  12.346   7.049 -0.3349  0.3013  0.4817
  101MOL0     C13828   0.756  12.420   7.059 -0.0965  0.0033 -0.5636
  101MOL0     C13829   0.549  12.289   7.158 -0.5168 -0.1497 -0.2351
  101MOL0     C13830   0.594  12.286   7.303 -0.5942 -0.3065  0.0690
  101MOL0     O13831   0.495  12.287   7.406  0.1768  0.1036  0.0794
  101MOL0     C13832   0.554  12.296   7.530  0.3000  0.0157  0.4833
  101MOL0     C13833   0.506  12.212   7.635 -0.3790  0.2076  0.7375
  101MOL0     C13834   0.566  12.218   7.758 -0.0085 -1.2141  0.5707
  101MOL0     C13835   0.664  12.322   7.792  1.0251  0.3192  0.6252
  101MOL0     O13836   0.726  12.334   7.914  0.2050  0.5439 -0.0788
  101MOL0     C13837   0.747  12.217   7.992  1.3650 -0.1045 -0.4960
  101MOL0     C13838   0.734  12.265   8.134  0.5017  1.0097  0.6739
  101MOL0     C13839   0.708  12.150   8.230 -0.2376 -0.1965 -0.2019
  101MOL0     C13840   0.698  12.221   8.370  1.2274  0.6907 -1.1974
  101MOL0     C13841   0.628  12.136   8.481 -1.0380  0.1414  0.3769
  101MOL0     C13842   0.714  12.002   8.519  0.0019 -0.1601 -0.5486
  101MOL0     C13843   0.641  11.912   8.627  0.7263 -0.1778  0.0656
  101MOL0     C13844   0.680  11.770   8.614 -0.7037 -0.0823  0.5379
  101MOL0    Cl13845   0.574  11.675   8.509  0.3948  0.2984  0.0307
  101MOL0     C13846   0.693  12.412   7.693 -0.2164 -1.0550 -0.2580
  101MOL0     C13847   0.649  12.397   7.561 -0.2896 -0.7556 -0.6467
  101MOL0     O13848   0.720  12.290   7.319  0.7140  0.1369 -0.5575
  101MOL0     C13849   0.434  12.218   7.132  0.2554  0.3763  0.0536
  101MOL0     C13850   0.395  12.206   6.999 -0.2230 -0.1496 -0.2876
  101MOL0     N13851   0.724  11.832   6.680  0.1110  0.4620 -0.7608
  101MOL0     N13852   0.830  11.817   6.751  0.3444  0.1401 -0.6336
  101MOL0     C13853   1.371  11.389   7.598 -0.7763  0.2085  0.4195
  101MOL0     C13854   1.413  11.282   7.672  0.3792 -0.3871 -0.2793
  101MOL0     C13855   1.636  10.947   7.893  0.7407  0.5722 -0.1553
  101MOL0     C13856   1.775  10.956   7.877  0.1151 -1.6668 -0.1421
  101MOL0     C13857   1.858  10.872   7.941 -0.6437  0.0969 -0.0713
  101MOL0     C13858   1.807  10.764   8.007 -0.1457 -0.5183  0.0196
  101MOL0     O13859   1.888  10.684   8.076 -0.2314 -0.4246 -1.0734
  101MOL0     C13860   1.943  10.562   8.016 -0.3328  0.4012  0.4801
  101MOL0     C13861   2.079  10.522   8.076  0.1358  0.6946 -0.8910
  101MOL0     C13862   2.055  10.422   8.208  0.4518  0.1845  0.2495
  101MOL0     C13863   1.987  10.284   8.178  0.9291  0.3160  0.1639
  101MOL0     C13864   2.040  10.219   8.054  0.0075  0.0176 -0.2668
  101MOL0     C13865   2.092  10.182   7.947 -0.1751 -0.2889 -0.4300
  101MOL0     C13866   1.673  10.744   8.012  0.3446  1.1826  0.2281
  101MOL0     C13867   1.590  10.833   7.961  0.4717 -1.0457  0.0490
  101MOL0     C13868   1.441  10.805   7.973  0.3114  0.1055 -0.1856
  101MOL0     H13869   1.745  11.299   7.590 -0.3101 -0.2679 -0.0169
  101MOL0     H13870   1.662  11.487   7.448 -0.1166  0.4841 -0.1773
  101MOL0     H13871   1.407  11.719   7.553 -0.4661  0.8431 -0.1858
  101MOL0     H13872   1.256  11.624   7.538  0.8037  0.5409  3.3358
  101MOL0     H13873   1.368  11.790   7.320  2.3501 -1.3795  0.5490
  101MOL0     H13874   1.215  11.692   7.308  1.4779 -0.0787 -1.2928
  101MOL0     H13875   1.120  11.826   7.479 -2.2569  0.8551 -2.0394
  101MOL0     H13876   1.282  11.907   7.498  0.5551 -1.8357  0.5618
  101MOL0     H13877   1.138  12.050   7.387  1.0275  0.8241 -0.5688
  101MOL0     H13878   1.247  11.964   7.268  0.3056 -2.1538  0.6660
  101MOL0     H13879   0.946  11.897   7.311 -2.0135  1.5838 -1.9727
  101MOL0     H13880   1.060  11.830   7.198 -2.5813 -0.7507  1.1968
  101MOL0     H13881   0.959  12.128   7.222 -0.8111  0.2850  0.0889
  101MOL0     H13882   1.093  12.083   7.116 -0.3291 -0.0038 -1.6956
  101MOL0     H13883   0.849  12.112   7.042 -0.9978 -0.7579 -0.8038
  101MOL0     H13884   0.825  11.945   7.103  1.7406 -1.4302  1.2949
  101MOL0     H13885   1.027  12.025   6.887 -0.3383  2.2843  2.8384
  101MOL0     H13886   1.010  11.861   6.952  0.7859 -0.2023  0.7839
  101MOL0     H13887   0.769  12.131   6.804  0.3812 -0.0472  2.1934
  101MOL0     H13888   0.544  11.978   6.530  2.1457  0.3473 -0.8650
  101MOL0     H13889   0.559  12.122   6.619 -0.0710  0.6899 -0.0801
  101MOL0     H13890   0.434  11.861   6.738  1.8433 -0.5379  1.4440
  101MOL0     H13891   0.488  11.987   6.834  2.5882 -2.5861 -1.4618
  101MOL0     H13892   0.239  11.999   6.653 -1.1154  0.3148  0.2963
  101MOL0     H13893   0.262  12.002   6.833 -0.0122 -0.0471  0.1174
  101MOL0     H13894   0.257  12.216   6.627 -2.4525  2.6185  1.6723
  101MOL0     H13895   0.207  12.223   6.790  0.9814  0.2514  0.6546
  101MOL0     H13896   0.619  12.391   6.840  0.0917 -0.2931 -0.4672
  101MOL0     H13897   0.837  12.353   7.088 -0.1582  0.8172  1.6745
  101MOL0     H13898   0.745  12.500   7.134 -3.0429 -0.0984 -0.7748
  101MOL0     H13899   0.792  12.468   6.968  0.8353  0.5731  0.0880
  101MOL0     H13900   0.449  12.123   7.612 -1.4310  0.4656  2.1631
  101MOL0     H13901   0.539  12.143   7.833 -2.1538  1.6101  2.8456
  101MOL0     H13902   0.672  12.140   7.974 -1.1476  1.8518  0.8799
  101MOL0     H13903   0.847  12.177   7.970  1.2926 -0.6262  0.0983
  101MOL0     H13904   0.829  12.317   8.149  0.9323  0.6649 -0.7052
  101MOL0     H13905   0.655  12.341   8.137 -0.3631  0.1044  1.6530
  101MOL0     H13906   0.785  12.074   8.221 -1.0719 -1.0736 -0.1431
  101MOL0     H13907   0.615  12.104   8.196 -0.2004 -0.7443  0.4155
  101MOL0     H13908   0.633  12.308   8.355 -1.7991 -1.2236 -0.1372
  101MOL0     H13909   0.798  12.254   8.399  2.2350 -1.2699 -2.2169
  101MOL0     H13910   0.612  12.189   8.575  0.3375 -1.9839  1.9050
  101MOL0     H13911   0.533  12.099   8.441  1.0027 -2.9855 -2.1400
  101MOL0     H13912   0.808  12.030   8.567  0.6028 -2.3661 -0.3189
  101MOL0     H13913   0.744  11.950   8.427 -1.1178 -1.8280 -0.0187
  101MOL0     H13914   0.533  11.927   8.623  0.7492  1.2647  2.9340
  101MOL0     H13915   0.672  11.960   8.720  3.2057  0.9743 -1.2598
  101MOL0     H13916   0.670  11.704   8.701 -0.0651 -3.8556 -2.0224
  101MOL0     H13917   0.782  11.768   8.575  0.0487 -1.0518  2.4315
  101MOL0     H13918   0.770  12.487   7.705 -2.5756  2.4339 -4.3168
  101MOL0     H13919   0.693  12.469   7.493 -2.9032  0.9098 -0.7298
  101MOL0     H13920   0.378  12.168   7.211 -2.9980  0.6057 -1.9346
  101MOL0     H13921   0.301  12.152   6.989 -0.1333 -0.2996 -0.3223
  101MOL0     H13922   1.265  11.411   7.596 -1.1108  0.0890  4.9841
  101MOL0     H13923   1.336  11.224   7.723 -1.4840  0.5743 -1.8270
  101MOL0     H13924   1.821  11.036   7.820 -0.8960 -0.8639  0.1396
  101MOL0     H13925   1.965  10.883   7.926 -0.6003 -1.5091 -1.3134
  101MOL0     H13926   1.874  10.482   8.046 -0.9101  0.2272 -1.2360
  101MOL0     H13927   1.954  10.579   7.909 -0.8128  2.0342  0.6666
  101MOL0     H13928   2.139  10.610   8.099  1.1594 -0.5383  1.5106
  101MOL0     H13929   2.150  10.476   8.006  0.4695  2.3887 -1.7259
  101MOL0     H13930   2.151  10.426   8.260 -0.2997  0.8258  1.6125
  101MOL0     H13931   2.001  10.477   8.285 -0.3932 -0.7790  0.3770
  101MOL0     H13932   1.879  10.299   8.162  0.9544 -0.6889 -1.1277
  101MOL0     H13933   2.005  10.222   8.266  0.4316  0.5076  0.4095
  101MOL0     H13934   2.137  10.143   7.858  1.5052  3.2673 -1.3240
  101MOL0     H13935   1.637  10.660   8.071  1.2068  1.2642  0.8925
  101MOL0     H13936   1.416  10.744   8.060 -0.7532 -1.4053 -1.5001
  101MOL0     H13937   1.379  10.895   7.986  0.5551  1.0789 -4.3608
  101MOL0     H13938   1.400  10.750   7.889 -0.5537  0.1718  0.1866
  102MOL0     O13939   1.585  11.513  10.153 -0.3003 -0.0271 -0.1822
  102MOL0     C13940   1.655  11.560  10.238  0.2133 -0.3838 -0.3434
  102MOL0     O13941   1.691  11.696  10.247  0.1157 -0.5252  0.2045
  102MOL0     C13942   1.642  11.778  10.145 -0.2673  0.5607 -0.1214
  102MOL0     C13943   1.740  11.855  10.075 -0.3878 -1.1912  1.0356
  102MOL0     C13944   1.696  11.951   9.978 -0.0715  0.4757 -0.5200
  102MOL0     C13945   1.563  11.977   9.959  0.3486  0.8979  0.0254
  102MOL0     O13946   1.532  12.072   9.866  0.0487  0.0711  0.6501
  102MOL0     C13947   1.552  12.060   9.722 -0.7808  0.7945  0.8543
  102MOL0     C13948   1.477  12.164   9.639  0.4355 -0.5319 -0.5851
  102MOL0     C13949   1.500  12.310   9.676 -0.3749 -0.4055 -0.2105
  102MOL0     C13950   1.393  12.400   9.600 -0.2208 -0.6240 -0.7495
  102MOL0     C13951   1.449  12.543   9.578  0.4985 -0.0312  0.2012
  102MOL0     C13952   1.357  12.634   9.503  0.1513 -0.8878 -0.2831
  102MOL0     C13953   1.411  12.773   9.510  0.3970  0.2121 -0.8140
  102MOL0     C13954   1.305  12.883   9.485 -0.8762  0.4099 -0.4400
  102MOL0     N13955   1.294  12.899   9.339  0.6928 -0.3342 -0.5954
  102MOL0     C13956   1.399  12.933   9.252  0.4695 -0.0022 -0.9723
  102MOL0     C13957   1.341  12.939   9.130 -1.3178  0.4320 -0.8737
  102MOL0     C13958   1.420  12.990   9.015  0.3227 -0.4352  0.6712
  102MOL0     C13959   1.512  12.887   8.945  0.7284 -0.0137 -0.1219
  102MOL0     C13960   1.641  12.855   9.022 -0.4759 -0.9944  0.4497
  102MOL0     C13961   1.752  12.799   8.942  0.4494 -0.4307  0.3582
  102MOL0     O13962   1.879  12.814   9.006  0.0361 -0.4083  0.0933
  102MOL0     C13963   1.956  12.713   9.046  0.7615 -0.3215  0.4895
  102MOL0     C13964   1.970  12.590   8.974 -0.2310 -0.9099 -0.1102
  102MOL0     C13965   2.058  12.497   9.022  0.2075 -0.0246 -0.0254
  102MOL0     C13966   2.044  12.362   8.956 -0.3810 -0.4771  0.3087
  102MOL0     C13967   2.147  12.531   9.130  0.5490 -0.1646  0.1642
  102MOL0     C13968   2.266  12.457   9.154  0.5118  0.2976  0.1283
  102MOL0     O13969   2.299  12.442   9.281  0.1597 -0.5102 -0.4518
  102MOL0     C13970   2.349  12.322   9.309  1.0030 -0.9218 -1.1164
  102MOL0     C13971   2.264  12.212   9.316 -0.1913  0.7971 -0.2889
  102MOL0     C13972   2.318  12.082   9.317  0.5373 -0.7534  0.2674
  102MOL0     C13973   2.455  12.054   9.323 -0.1188 -0.1178 -0.2277
  102MOL0     O13974   2.500  11.931   9.352 -0.2801  0.0025  0.1791
  102MOL0     C13975   2.632  11.898   9.310 -0.1529  0.4416  0.3691
  102MOL0     C13976   2.650  11.752   9.277  0.0900  0.3348 -0.0600
  102MOL0     C13977   2.557  11.711   9.156  0.2581  0.0642 -0.0479
  102MOL0     C13978   2.551  11.556   9.149  0.0534 -0.9431 -0.3174
  102MOL0     C13979   2.507  11.499   9.017  0.1362  0.8978 -0.5371
  102MOL0     C13980   2.451  11.360   9.013 -0.0185 -0.2434  0.1450
  102MOL0     C13981   2.406  11.341   8.864  0.4500 -0.0468  0.1629
  102MOL0     C13982   2.321  11.207   8.857 -1.1843 -0.7805 -0.1642
  102MOL0    Cl13983   2.249  11.180   8.705  0.3000 -0.1738 -0.6063
  102MOL0     C13984   2.537  12.167   9.332 -0.8778  0.1795  0.2972
  102MOL0     C13985   2.486  12.297   9.309  0.3278  0.4038 -0.1714
  102MOL0     O13986   2.308  12.397   9.054  0.6976  0.0598  0.0230
  102MOL0     C13987   2.128  12.648   9.194  0.2646 -0.3786 -0.2757
  102MOL0     C13988   2.023  12.740   9.163 -0.0418 -0.6935  0.7613
  102MOL0     N13989   1.208  12.917   9.146 -0.2990 -0.2234  0.7172
  102MOL0     N13990   1.181  12.878   9.264  0.5753  0.1700  0.4585
  102MOL0     C13991   1.468  11.884  10.013 -0.7986 -0.3917 -0.1840
  102MOL0     C13992   1.512  11.792  10.106 -0.8021  0.7492 -0.5964
  102MOL0     C13993   1.705  11.469  10.345 -0.2642  0.3136 -0.3193
  102MOL0     C13994   1.828  11.502  10.408 -0.2138 -1.0630 -0.1135
  102MOL0     C13995   1.898  11.413  10.489  0.4294 -0.8861 -0.3522
  102MOL0     C13996   1.845  11.281  10.511 -0.7174 -0.3126 -0.3382
  102MOL0     O13997   1.921  11.187  10.580 -0.0323  0.6436 -0.4488
  102MOL0     C13998   2.066  11.193  10.591  0.7035  0.1293 -0.3976
  102MOL0     C13999   2.121  11.251  10.719  0.3266  1.2184  0.1887
  102MOL0     C14000   2.276  11.213  10.719  0.0512  0.8916 -0.1654
  102MOL0     C14001   2.337  11.283  10.840 -0.2284  0.9647 -0.1952
  102MOL0     C14002   2.471  11.242  10.862  0.4667  1.8099 -0.3820
  102MOL0     C14003   2.589  11.217  10.869  0.3024 -0.0143  0.4311
  102MOL0     C14004   1.715  11.249  10.460  0.2166 -0.9613 -0.1425
  102MOL0     C14005   1.651  11.336  10.376 -0.0235  0.1912 -0.0361
  102MOL0     C14006   1.524  11.285  10.317 -0.4467  0.7743 -0.4721
  102MOL0     H14007   1.844  11.828  10.090 -0.2331 -1.8483 -0.9332
  102MOL0     H14008   1.765  12.004   9.913 -0.3261  1.0379 -0.3318
  102MOL0     H14009   1.523  11.963   9.680 -1.0626 -0.0662  2.9210
  102MOL0     H14010   1.660  12.075   9.714 -0.6530 -0.1441  0.6635
  102MOL0     H14011   1.509  12.156   9.534 -0.2865 -2.6394 -0.7056
  102MOL0     H14012   1.371  12.136   9.642 -0.3174  1.6491 -3.0504
  102MOL0     H14013   1.488  12.325   9.783 -0.5028  0.6365 -0.3650
  102MOL0     H14014   1.599  12.333   9.635 -1.5381  1.7326 -2.0671
  102MOL0     H14015   1.356  12.355   9.508 -1.1618 -1.6059  0.0731
  102MOL0     H14016   1.305  12.398   9.665  0.2168 -0.7166 -0.1460
  102MOL0     H14017   1.544  12.526   9.527 -0.5414  0.1614 -1.9418
  102MOL0     H14018   1.470  12.584   9.677  0.6006 -0.5002  0.3718
  102MOL0     H14019   1.355  12.598   9.399  2.3411 -1.2858 -0.2315
  102MOL0     H14020   1.266  12.632   9.564  0.4421  1.2945  0.3123
  102MOL0     H14021   1.492  12.768   9.437  1.0877  1.2709 -0.1446
  102MOL0     H14022   1.460  12.807   9.601 -1.5655  0.2156  0.3022
  102MOL0     H14023   1.211  12.861   9.537 -1.5645  3.6496 -0.0987
  102MOL0     H14024   1.335  12.978   9.530  0.1675 -0.5352  0.9400
  102MOL0     H14025   1.501  12.950   9.285 -0.0128  0.8560  0.1258
  102MOL0     H14026   1.471  13.079   9.052 -2.7477  2.9293 -2.3713
  102MOL0     H14027   1.346  13.018   8.940 -1.3110  0.2445  2.4546
  102MOL0     H14028   1.458  12.793   8.934 -0.4834  0.5021  1.1905
  102MOL0     H14029   1.540  12.924   8.845  1.2055 -0.9399 -0.3440
  102MOL0     H14030   1.676  12.956   9.044 -2.7472  0.4799 -2.2280
  102MOL0     H14031   1.623  12.800   9.115  2.4520  1.7694  2.8914
  102MOL0     H14032   1.738  12.695   8.912 -3.0454 -0.2397  0.8918
  102MOL0     H14033   1.762  12.858   8.851 -1.6449  2.3935  1.7661
  102MOL0     H14034   1.906  12.567   8.889 -1.3355 -3.5822  1.3358
  102MOL0     H14035   2.061  12.379   8.849  0.3709  0.7674  0.6125
  102MOL0     H14036   1.945  12.324   8.984  1.2738 -3.5182  2.5983
  102MOL0     H14037   2.116  12.285   8.985 -3.2209 -2.5428  2.4613
  102MOL0     H14038   2.156  12.217   9.323 -0.2176  2.0121 -1.2355
  102MOL0     H14039   2.251  11.996   9.316  1.2291 -1.3723  1.9252
  102MOL0     H14040   2.656  11.950   9.217  0.0423 -3.0026 -1.6794
  102MOL0     H14041   2.705  11.920   9.388  0.3092  0.3713 -0.0374
  102MOL0     H14042   2.751  11.727   9.242 -0.1135 -0.2844 -0.2078
  102MOL0     H14043   2.639  11.681   9.359  1.0180 -1.0905 -1.1122
  102MOL0     H14044   2.605  11.739   9.062 -2.4553  1.7829 -1.0318
  102MOL0     H14045   2.465  11.768   9.143  0.6361  0.0405 -4.0782
  102MOL0     H14046   2.479  11.536   9.229  0.0132 -0.5512 -0.2531
  102MOL0     H14047   2.649  11.509   9.154 -0.3199 -2.5382 -4.2165
  102MOL0     H14048   2.426  11.560   8.976 -0.0688  0.3255 -1.0121
  102MOL0     H14049   2.594  11.503   8.951 -0.2624 -1.8355 -1.3699
  102MOL0     H14050   2.365  11.366   9.080  0.1543 -1.5555  0.5178
  102MOL0     H14051   2.520  11.284   9.052 -0.1306  0.6768  2.2853
  102MOL0     H14052   2.492  11.348   8.797 -0.0595 -0.1888 -0.5168
  102MOL0     H14053   2.326  11.411   8.837 -0.4579 -0.6369  1.2359
  102MOL0     H14054   2.237  11.216   8.927 -0.6694  0.4982  0.3211
  102MOL0     H14055   2.396  11.135   8.892  0.8472  2.5120  3.0877
  102MOL0     H14056   2.645  12.170   9.342 -0.8624  0.8305  0.0064
  102MOL0     H14057   2.557  12.376   9.290 -0.5037  1.1103 -0.4337
  102MOL0     H14058   2.195  12.669   9.276 -1.2382 -2.9130  1.8020
  102MOL0     H14059   2.003  12.833   9.216 -2.2885  0.2378 -1.5183
  102MOL0     H14060   1.363  11.902   9.993 -0.5763  1.4214  0.0821
  102MOL0     H14061   1.448  11.722  10.157  0.4138 -0.3512 -0.5307
  102MOL0     H14062   1.876  11.592  10.373 -4.7185  1.2952 -1.0183
  102MOL0     H14063   1.998  11.437  10.524  0.8051  0.9196 -2.4291
  102MOL0     H14064   2.095  11.087  10.592  0.0685 -0.0617 -0.8746
  102MOL0     H14065   2.109  11.238  10.501  1.5245  4.0721  1.7390
  102MOL0     H14066   2.055  11.205  10.793 -2.3844 -2.1761 -3.8944
  102MOL0     H14067   2.102  11.359  10.725  0.9674  1.2912  1.3404
  102MOL0     H14068   2.282  11.105  10.734  2.4523  0.5583 -2.6607
  102MOL0     H14069   2.318  11.241  10.622 -1.9137 -0.2970 -1.4523
  102MOL0     H14070   2.277  11.245  10.923  0.8193 -1.0016 -0.2655
  102MOL0     H14071   2.313  11.389  10.832 -0.5731  0.7943 -1.7174
  102MOL0     H14072   2.689  11.183  10.883 -0.1065 -2.3760 -1.7558
  102MOL0     H14073   1.677  11.155  10.498  0.9962 -0.3530  2.3233
  102MOL0     H14074   1.524  11.268  10.209 -0.3090  1.7883 -0.6428
  102MOL0     H14075   1.493  11.195  10.371 -0.1201  2.3968  2.6790
  102MOL0     H14076   1.449  11.361  10.341  1.4677  2.4557  0.4485
  103MOL0     O14077   7.885   7.296   3.903 -0.7383 -0.4765  0.5314
  103MOL0     C14078   7.924   7.237   3.804 -0.3478  0.1490 -0.6770
  103MOL0     O14079   7.895   7.274   3.671 -0.3534 -0.6002  0.5831
  103MOL0     C14080   7.834   7.400   3.640  0.0857  0.8982 -0.0471
  103MOL0     C14081   7.907   7.483   3.552 -0.0308  0.0173 -0.4521
  103MOL0     C14082   7.851   7.609   3.516 -0.1502  0.4632 -0.3047
  103MOL0     C14083   7.729   7.654   3.569  0.9503 -0.4231  0.5996
  103MOL0     O14084   7.652   7.764   3.538 -0.4304  0.5099  0.2206
  103MOL0     C14085   7.676   7.836   3.416 -0.2838 -0.6352  0.4884
  103MOL0     C14086   7.608   7.980   3.425 -0.9146  0.3709 -0.5729
  103MOL0     C14087   7.642   8.072   3.556 -0.1797 -0.2518  0.6539
  103MOL0     C14088   7.771   8.147   3.530 -0.3825 -0.0444 -1.0889
  103MOL0     C14089   7.836   8.226   3.646  0.1706 -0.3700 -0.2615
  103MOL0     C14090   7.746   8.329   3.709  0.7729 -0.5060  0.5246
  103MOL0     C14091   7.819   8.413   3.812 -0.1701  0.2653  0.0062
  103MOL0     C14092   7.763   8.547   3.804 -0.0309 -0.1253 -0.7083
  103MOL0     N14093   7.819   8.628   3.912 -0.4069 -0.1581 -0.3342
  103MOL0     C14094   7.795   8.621   4.047 -0.3837  0.7861  0.3474
  103MOL0     C14095   7.844   8.729   4.104 -1.3561 -0.3001  0.2680
  103MOL0     C14096   7.830   8.753   4.245  0.1403  0.2210  0.6747
  103MOL0     C14097   7.889   8.883   4.295 -0.2245  0.2257  0.0106
  103MOL0     C14098   7.830   8.918   4.430 -0.7069  0.8772 -1.1695
  103MOL0     C14099   7.922   9.028   4.485 -0.0164  0.5755 -1.2954
  103MOL0     O14100   7.878   9.076   4.614  0.3511 -0.4209  0.2349
  103MOL0     C14101   7.937   9.177   4.682 -0.5877 -0.2368 -0.1908
  103MOL0     C14102   7.852   9.234   4.782  0.6053 -0.3784  0.3743
  103MOL0     C14103   7.902   9.336   4.867 -0.1174 -0.2966  0.1264
  103MOL0     C14104   7.799   9.392   4.960 -0.2846  0.3483  0.4449
  103MOL0     C14105   8.042   9.373   4.867 -0.1413  0.0918  0.8587
  103MOL0     C14106   8.104   9.463   4.964 -0.6965  0.2295 -0.8157
  103MOL0     O14107   8.031   9.508   5.068  0.7201 -0.7405  0.8419
  103MOL0     C14108   8.046   9.638   5.106 -0.3417  0.4946  0.2867
  103MOL0     C14109   7.967   9.744   5.056  1.4532 -0.0608  0.3997
  103MOL0     C14110   7.967   9.874   5.104  0.3560  0.4242 -0.2165
  103MOL0     C14111   8.067   9.909   5.190 -0.0938  0.6361  1.2505
  103MOL0     O14112   8.080  10.037   5.229  0.8216 -0.2302  0.4655
  103MOL0     C14113   8.210  10.091   5.206 -0.1659  0.2078  1.2723
  103MOL0     C14114   8.229  10.097   5.053 -0.3866  0.1310 -1.1694
  103MOL0     C14115   8.119  10.188   4.993 -0.3095  1.1442 -0.9526
  103MOL0     C14116   8.097  10.172   4.844 -0.2618  0.4273  0.3341
  103MOL0     C14117   7.970  10.240   4.795 -0.2876 -0.7556 -0.2583
  103MOL0     C14118   7.964  10.236   4.644  0.4274 -0.8545  0.7670
  103MOL0     C14119   7.907  10.104   4.597 -0.0376 -0.0876 -1.1073
  103MOL0     C14120   7.894  10.113   4.442  0.1652  1.0186 -1.1078
  103MOL0    Cl14121   7.740  10.189   4.379 -0.2526  0.2248 -0.1549
  103MOL0     C14122   8.149   9.802   5.242 -0.4824  0.4128  0.3573
  103MOL0     C14123   8.143   9.668   5.204 -0.1424  0.8892 -0.6069
  103MOL0     O14124   8.225   9.492   4.950  0.0882 -0.2104 -0.0949
  103MOL0     C14125   8.128   9.305   4.770  0.2875 -0.8039 -0.6065
  103MOL0     C14126   8.073   9.208   4.685  0.0891 -0.4243  0.8660
  103MOL0     N14127   7.889   8.807   4.003 -0.6305  0.1889  0.3433
  103MOL0     N14128   7.892   8.746   3.889 -0.4925 -0.0007  0.0087
  103MOL0     C14129   7.665   7.574   3.663 -0.1984 -0.4426 -0.0892
  103MOL0     C14130   7.709   7.442   3.692 -0.4163  0.0860 -0.3481
  103MOL0     C14131   8.005   7.118   3.828 -0.5913 -0.7438 -0.1658
  103MOL0     C14132   8.060   7.062   3.710 -0.1006 -0.1383  0.2615
  103MOL0     C14133   8.160   6.958   3.720 -0.0431  0.0347 -0.2240
  103MOL0     C14134   8.214   6.922   3.841 -0.5414  0.5916  0.1191
  103MOL0     O14135   8.312   6.827   3.854  0.4023 -0.2606  0.1137
  103MOL0     C14136   8.346   6.749   3.741 -0.9031  0.4816  0.2737
  103MOL0     C14137   8.462   6.659   3.784 -0.7312  0.1133  0.0401
  103MOL0     C14138   8.478   6.533   3.700  0.2423 -0.8634  0.2765
  103MOL0     C14139   8.582   6.443   3.767  0.3853 -0.6735 -0.2859
  103MOL0     C14140   8.613   6.327   3.691  0.1827 -0.1293 -0.6394
  103MOL0     C14141   8.637   6.219   3.643 -0.0461 -0.5083  0.2888
  103MOL0     C14142   8.155   6.975   3.958  0.0103  0.0035 -0.2557
  103MOL0     C14143   8.043   7.058   3.952  0.3243  0.1121  0.3737
  103MOL0     C14144   7.981   7.102   4.088 -0.1517  0.4032  0.3121
  103MOL0     H14145   7.987   7.435   3.498 -1.3783 -0.6005 -1.9925
  103MOL0     H14146   7.903   7.673   3.445  0.3232  0.3864 -0.0313
  103MOL0     H14147   7.618   7.790   3.336  1.4195  1.3628 -2.0515
  103MOL0     H14148   7.783   7.852   3.396 -0.5093  0.1873 -0.1071
  103MOL0     H14149   7.630   8.043   3.338  0.1154  0.0469 -0.5522
  103MOL0     H14150   7.500   7.961   3.419 -0.8050 -1.0562  1.1900
  103MOL0     H14151   7.563   8.146   3.569 -1.1553 -1.3563  1.1615
  103MOL0     H14152   7.665   8.016   3.647 -0.2931  3.2560  3.0434
  103MOL0     H14153   7.841   8.071   3.495  0.4978 -0.4576  1.3627
  103MOL0     H14154   7.753   8.219   3.449 -3.7811 -0.9838 -1.3104
  103MOL0     H14155   7.922   8.283   3.611  1.5122  0.3137  3.7060
  103MOL0     H14156   7.880   8.157   3.719 -0.2277  0.1628  0.4933
  103MOL0     H14157   7.712   8.393   3.627  1.7013 -0.7675 -0.0780
  103MOL0     H14158   7.656   8.278   3.747 -1.1528  1.5632 -0.9944
  103MOL0     H14159   7.927   8.416   3.796  0.4211  0.9453  3.3515
  103MOL0     H14160   7.812   8.371   3.913 -1.5165 -0.1433 -0.2258
  103MOL0     H14161   7.792   8.604   3.715 -0.0077  4.0714  1.7107
  103MOL0     H14162   7.654   8.544   3.814  0.1012  2.1590  5.1207
  103MOL0     H14163   7.737   8.539   4.090 -0.0630  0.3090 -0.1214
  103MOL0     H14164   7.875   8.676   4.308 -0.4645 -0.9148 -0.2380
  103MOL0     H14165   7.721   8.743   4.256 -0.0797 -0.3475 -1.4729
  103MOL0     H14166   7.998   8.877   4.297 -0.3077 -1.6057  0.7715
  103MOL0     H14167   7.861   8.964   4.226  2.5351 -0.4559 -2.0950
  103MOL0     H14168   7.728   8.956   4.415 -1.7520 -0.8053  1.1266
  103MOL0     H14169   7.841   8.832   4.497 -2.9923  1.8993  0.6628
  103MOL0     H14170   8.028   9.006   4.503 -0.4728  1.1226  3.0360
  103MOL0     H14171   7.918   9.112   4.415  2.4100  0.8181 -1.2594
  103MOL0     H14172   7.750   9.196   4.780  1.0990 -1.7044 -0.8886
  103MOL0     H14173   7.806   9.502   4.957 -0.6503  0.3595 -0.9629
  103MOL0     H14174   7.802   9.359   5.064  0.5617 -0.3100  0.2250
  103MOL0     H14175   7.700   9.361   4.928  0.9888 -1.5501 -2.0135
  103MOL0     H14176   7.897   9.710   4.981  0.2471  0.8156  1.0858
  103MOL0     H14177   7.898   9.948   5.065  0.7669  0.5569 -0.7196
  103MOL0     H14178   8.220  10.192   5.247 -1.5191  2.5002 -3.3746
  103MOL0     H14179   8.278  10.033   5.269  1.1495  0.6701  0.3160
  103MOL0     H14180   8.333  10.116   5.024 -0.1551  1.1851  0.2405
  103MOL0     H14181   8.201   9.997   5.018  1.0792  0.1005 -2.3413
  103MOL0     H14182   8.144  10.292   5.019  4.3793 -0.3289  1.7126
  103MOL0     H14183   8.025  10.158   5.039  2.2581 -1.9301  3.0766
  103MOL0     H14184   8.078  10.068   4.819 -1.4285  0.8010 -0.4537
  103MOL0     H14185   8.193  10.207   4.806  2.5094 -2.5404  3.9338
  103MOL0     H14186   7.886  10.191   4.846  1.3076 -1.2740  1.9981
  103MOL0     H14187   7.979  10.343   4.831 -0.4216 -1.4933  1.9981
  103MOL0     H14188   8.064  10.229   4.599 -0.4845 -1.2318 -1.3068
  103MOL0     H14189   7.903  10.317   4.604 -2.2933 -2.6169  1.1105
  103MOL0     H14190   7.815  10.077   4.648  0.9743 -0.0389  0.8312
  103MOL0     H14191   7.986  10.035   4.629  0.5371  1.0378 -0.0065
  103MOL0     H14192   7.894  10.009   4.408  0.4034  0.2026  1.2078
  103MOL0     H14193   7.980  10.173   4.410  0.4827  2.0969  1.5578
  103MOL0     H14194   8.227   9.832   5.311 -0.1132 -1.9363  1.0583
  103MOL0     H14195   8.200   9.592   5.258  0.4122  1.1836 -0.7703
  103MOL0     H14196   8.235   9.323   4.782 -0.0736 -0.0472  2.3070
  103MOL0     H14197   8.129   9.150   4.613 -0.1318 -1.6227  1.6379
  103MOL0     H14198   7.576   7.621   3.705  0.8540  0.6105  1.0664
  103MOL0     H14199   7.652   7.385   3.765  0.3757 -0.5508 -0.1988
  103MOL0     H14200   8.038   7.101   3.611 -0.5381  0.4664  0.5883
  103MOL0     H14201   8.203   6.919   3.629  2.5337 -4.6105  2.5771
  103MOL0     H14202   8.258   6.690   3.713  0.2169  0.3439 -3.5499
  103MOL0     H14203   8.382   6.806   3.655  2.3043 -0.0362  1.1747
  103MOL0     H14204   8.454   6.634   3.890 -1.8713 -1.8445 -0.4646
  103MOL0     H14205   8.556   6.714   3.779 -0.9766  0.5980  0.6081
  103MOL0     H14206   8.387   6.472   3.699 -0.4653  0.1579  1.0412
  103MOL0     H14207   8.499   6.585   3.606 -2.9885  1.7861  0.8493
  103MOL0     H14208   8.542   6.406   3.862 -0.3157 -0.4238 -0.4803
  103MOL0     H14209   8.673   6.500   3.792  0.1863 -0.3672 -0.2507
  103MOL0     H14210   8.655   6.130   3.586  0.0526 -0.6137  0.4847
  103MOL0     H14211   8.193   6.954   4.058  2.9301  0.2735 -1.2187
  103MOL0     H14212   8.031   7.058   4.175  0.9178  1.0552  0.0407
  103MOL0     H14213   7.985   7.209   4.111 -2.3900  1.2625 -2.6907
  103MOL0     H14214   7.876   7.072   4.098  0.6969 -2.2916  2.5841
  104MOL0     O14215   9.829   2.402   1.951 -0.2184 -0.5643 -0.7941
  104MOL0     C14216   9.727   2.341   1.904  0.3180 -0.3960  0.5822
  104MOL0     O14217   9.668   2.372   1.782  0.3572 -0.0253 -0.4743
  104MOL0     C14218   9.725   2.463   1.695  0.2819  0.8922 -0.4593
  104MOL0     C14219   9.817   2.419   1.604  0.0802 -0.4186  0.4577
  104MOL0     C14220   9.878   2.509   1.512  0.2234 -0.0747 -0.5976
  104MOL0     C14221   9.818   2.634   1.493  0.1879  0.6684  0.2418
  104MOL0     O14222   9.873   2.714   1.401 -0.3779 -0.0700  0.7062
  104MOL0     C14223  10.019   2.734   1.398 -0.0626 -0.1635 -0.4207
  104MOL0     C14224  10.062   2.873   1.349  0.1528  0.6957 -0.2965
  104MOL0     C14225  10.010   2.906   1.202 -0.2487 -0.9510  0.2707
  104MOL0     C14226   9.970   3.057   1.209  0.3092  0.1500  0.5370
  104MOL0     C14227   9.929   3.121   1.074  0.4415 -0.0062 -0.2850
  104MOL0     C14228   9.845   3.023   0.991 -0.6600 -1.4661 -0.0240
  104MOL0     C14229   9.793   3.068   0.853 -0.3322 -1.0385 -0.4744
  104MOL0     C14230   9.672   3.155   0.853 -1.1304  0.4060 -0.3574
  104MOL0     N14231   9.572   3.122   0.951  1.0839  0.2144  0.3814
  104MOL0     C14232   9.527   2.994   0.959  0.2482  0.0890  0.7730
  104MOL0     C14233   9.426   3.002   1.054  0.1595  0.3366 -0.1285
  104MOL0     C14234   9.339   2.897   1.130 -0.6416 -0.0216  0.0102
  104MOL0     C14235   9.193   2.921   1.153 -0.3344  0.7052 -0.6217
  104MOL0     C14236   9.125   2.798   1.224 -0.8286 -1.0251  0.6616
  104MOL0     C14237   9.186   2.744   1.352  0.1273  0.2059  0.3326
  104MOL0     O14238   9.148   2.824   1.460  0.8980 -0.9793 -0.5105
  104MOL0     C14239   9.130   2.767   1.586 -0.3720  0.7826  1.0786
  104MOL0     C14240   9.240   2.687   1.640 -0.7605  0.5318  0.6397
  104MOL0     C14241   9.229   2.614   1.759  0.1612  0.0632 -0.3354
  104MOL0     C14242   9.347   2.516   1.792 -0.0948  0.8954 -0.4231
  104MOL0     C14243   9.104   2.614   1.823  0.1357 -0.1718 -0.4112
  104MOL0     C14244   9.075   2.527   1.951  0.3631 -0.1855  0.5645
  104MOL0     O14245   9.184   2.481   2.016 -0.9580  0.6521  0.4515
  104MOL0     C14246   9.164   2.402   2.128  0.3026  0.3366  0.3634
  104MOL0     C14247   9.122   2.268   2.113 -0.2335  0.3615 -0.1301
  104MOL0     C14248   9.111   2.183   2.217  1.0715 -0.5316  0.7466
  104MOL0     C14249   9.146   2.231   2.343  0.9594 -0.3328 -1.0330
  104MOL0     O14250   9.150   2.158   2.459 -0.4572  0.2912  0.5346
  104MOL0     C14251   9.066   2.038   2.464  0.1775  0.7015 -0.3261
  104MOL0     C14252   9.038   2.001   2.611 -0.7253 -0.3931 -0.2422
  104MOL0     C14253   9.014   1.852   2.633  0.1786  0.3054 -0.2481
  104MOL0     C14254   8.973   1.820   2.776 -0.3690 -0.3861  1.1696
  104MOL0     C14255   8.920   1.681   2.789  0.7519 -0.5463 -0.7822
  104MOL0     C14256   9.010   1.568   2.745 -0.5287  0.1818  0.0836
  104MOL0     C14257   8.958   1.422   2.740 -0.7313  0.0417 -0.0593
  104MOL0     C14258   8.934   1.373   2.882  0.1660  1.1223 -0.4997
  104MOL0    Cl14259   8.899   1.196   2.874  0.0621  0.0866 -0.0585
  104MOL0     C14260   9.182   2.359   2.367  0.1652 -0.5102 -0.5111
  104MOL0     C14261   9.199   2.448   2.258  1.0567  0.4158  0.5120
  104MOL0     O14262   8.959   2.497   1.976  0.2403  0.3072 -0.3391
  104MOL0     C14263   9.000   2.692   1.770 -0.3759 -0.7702  0.1656
  104MOL0     C14264   9.016   2.779   1.657  0.2364 -0.4689  0.9681
  104MOL0     N14265   9.412   3.140   1.090  0.9044  0.4272  0.8219
  104MOL0     N14266   9.498   3.208   1.030 -0.0056  0.6164  0.1548
  104MOL0     C14267   9.721   2.679   1.586 -0.2144 -0.1742 -0.1978
  104MOL0     C14268   9.682   2.596   1.691 -0.8359 -0.1755 -0.0643
  104MOL0     C14269   9.674   2.238   1.992 -0.2311  0.1029  0.4392
  104MOL0     C14270   9.541   2.239   2.013  0.0220  0.8170  2.2733
  104MOL0     C14271   9.484   2.153   2.105 -0.1114 -0.8478  0.1651
  104MOL0     C14272   9.554   2.048   2.156 -0.2616 -0.5677  0.0374
  104MOL0     O14273   9.492   1.961   2.235  0.4202  0.3351  0.1227
  104MOL0     C14274   9.491   2.003   2.374 -0.6712 -0.4507 -1.2959
  104MOL0     C14275   9.564   1.900   2.461 -0.0888 -0.2142 -0.6562
  104MOL0     C14276   9.546   1.932   2.611 -1.3283  0.1612 -0.5694
  104MOL0     C14277   9.417   1.876   2.672 -0.1496 -0.0017  0.4670
  104MOL0     C14278   9.442   1.758   2.751 -0.1190 -0.5382 -0.4742
  104MOL0     C14279   9.455   1.655   2.821 -0.5100 -0.6043  1.0909
  104MOL0     C14280   9.694   2.048   2.139 -0.2097 -0.7862 -0.1310
  104MOL0     C14281   9.758   2.147   2.065 -0.3654  0.2357  0.1051
  104MOL0     C14282   9.913   2.145   2.050  0.2436 -0.0680 -1.1426
  104MOL0     H14283   9.859   2.319   1.613  2.5718  0.3739 -1.3141
  104MOL0     H14284   9.953   2.471   1.444 -1.3456  1.2371 -3.1918
  104MOL0     H14285  10.060   2.656   1.334 -0.1072 -1.1082  0.6753
  104MOL0     H14286  10.047   2.715   1.502 -0.8859 -2.5937 -0.5877
  104MOL0     H14287  10.024   2.940   1.426 -3.1358 -2.4567  1.1177
  104MOL0     H14288  10.172   2.874   1.354  0.2108 -2.4452  1.4124
  104MOL0     H14289  10.093   2.879   1.136  0.9569 -2.7457  2.3601
  104MOL0     H14290   9.922   2.846   1.179  1.4904 -3.8248  0.7318
  104MOL0     H14291   9.882   3.068   1.272 -0.3387  0.0217 -0.3219
  104MOL0     H14292  10.042   3.117   1.265 -0.0550  2.0604 -0.9370
  104MOL0     H14293  10.014   3.138   1.007 -1.4242 -1.4264 -3.1891
  104MOL0     H14294   9.871   3.212   1.089 -0.3660 -0.4930 -0.4094
  104MOL0     H14295   9.920   2.951   0.957  1.4191  0.9458 -0.9060
  104MOL0     H14296   9.767   2.986   1.057 -1.4602 -2.2014 -1.3501
  104MOL0     H14297   9.778   2.982   0.787 -0.1294 -0.1880 -1.6703
  104MOL0     H14298   9.873   3.128   0.808  0.0946 -0.8939  0.4509
  104MOL0     H14299   9.696   3.259   0.879  0.9765 -0.1734  0.2073
  104MOL0     H14300   9.630   3.150   0.752 -0.2891  0.0449 -0.6929
  104MOL0     H14301   9.553   2.902   0.908  1.3424 -0.4947  2.3162
  104MOL0     H14302   9.383   2.888   1.230 -1.3338 -1.5669  0.2182
  104MOL0     H14303   9.347   2.796   1.088  1.1658 -0.7310  1.8409
  104MOL0     H14304   9.192   3.003   1.226  0.9499  2.3849 -2.4035
  104MOL0     H14305   9.148   2.941   1.056 -0.1411 -3.0098 -1.6086
  104MOL0     H14306   9.027   2.837   1.251 -1.6468 -3.0824  0.8029
  104MOL0     H14307   9.121   2.713   1.155  2.4438 -1.5765  0.9758
  104MOL0     H14308   9.147   2.643   1.368 -0.4081  0.5629  1.3590
  104MOL0     H14309   9.295   2.748   1.343  0.1887 -0.3835  0.7621
  104MOL0     H14310   9.339   2.691   1.596  0.2425  1.8842  2.8224
  104MOL0     H14311   9.401   2.503   1.698 -1.1694  1.2971 -1.1102
  104MOL0     H14312   9.311   2.425   1.841 -0.2484  0.7966 -0.7191
  104MOL0     H14313   9.425   2.558   1.857 -0.3693  2.4597 -1.0484
  104MOL0     H14314   9.089   2.238   2.013 -0.7848  0.7167 -0.0623
  104MOL0     H14315   9.089   2.079   2.195  2.4290 -0.1194 -3.2920
  104MOL0     H14316   8.976   2.047   2.404 -0.7486 -0.3137  0.8620
  104MOL0     H14317   9.131   1.958   2.427  0.9828  0.9789  0.4393
  104MOL0     H14318   9.135   2.013   2.659 -1.6407 -1.5096  2.0119
  104MOL0     H14319   8.956   2.064   2.646 -1.6080  0.1124 -2.9490
  104MOL0     H14320   9.114   1.817   2.606  1.2546  4.2136 -2.1936
  104MOL0     H14321   8.931   1.814   2.573 -1.1996 -3.9121  3.7783
  104MOL0     H14322   8.907   1.897   2.817 -1.4233  0.6140 -2.1029
  104MOL0     H14323   9.057   1.821   2.846 -0.7404  2.4145  1.7222
  104MOL0     H14324   8.902   1.659   2.894  3.1299 -2.5210 -0.7020
  104MOL0     H14325   8.836   1.679   2.719  0.4298  0.4899 -0.4470
  104MOL0     H14326   9.092   1.561   2.817 -0.6592 -2.6525  0.0440
  104MOL0     H14327   9.038   1.593   2.642  2.7553  0.4353  0.9159
  104MOL0     H14328   9.041   1.370   2.690  0.2108  1.1032  0.3523
  104MOL0     H14329   8.867   1.414   2.680 -1.4102  1.9274  0.6451
  104MOL0     H14330   8.841   1.420   2.913 -1.9336 -1.8366 -1.8489
  104MOL0     H14331   9.009   1.393   2.960 -1.6205  3.1188  0.8026
  104MOL0     H14332   9.203   2.398   2.465 -0.5886  1.0392 -0.9375
  104MOL0     H14333   9.225   2.553   2.267 -4.0916  1.8293  2.2993
  104MOL0     H14334   8.902   2.696   1.817  1.0282  1.1570  3.2550
  104MOL0     H14335   8.933   2.842   1.629  1.9621  1.3822 -0.2273
  104MOL0     H14336   9.666   2.773   1.587  0.5896  0.3015  0.4088
  104MOL0     H14337   9.622   2.630   1.774  0.5946 -0.6801  1.2320
  104MOL0     H14338   9.480   2.308   1.955 -0.6129 -1.5181 -0.0562
  104MOL0     H14339   9.378   2.162   2.123 -0.4434 -2.6427 -0.6719
  104MOL0     H14340   9.536   2.100   2.395  3.8595 -2.4665 -0.6787
  104MOL0     H14341   9.388   1.993   2.412  1.3850 -2.7739  4.9137
  104MOL0     H14342   9.670   1.903   2.432 -0.4980  2.3474 -2.1942
  104MOL0     H14343   9.516   1.804   2.442  0.8855 -1.0145  0.7338
  104MOL0     H14344   9.636   1.906   2.667 -2.1258  1.9310  1.6740
  104MOL0     H14345   9.541   2.041   2.621  0.0525  0.2191 -0.4347
  104MOL0     H14346   9.361   1.838   2.586  0.7324 -0.2916  0.0043
  104MOL0     H14347   9.359   1.945   2.733 -2.5046 -1.2120 -0.2771
  104MOL0     H14348   9.462   1.564   2.877 -2.0041 -2.5256 -1.6329
  104MOL0     H14349   9.759   1.974   2.185  1.5850 -1.2632 -3.1167
  104MOL0     H14350   9.948   2.096   2.142 -0.3675 -0.8739 -1.3240
  104MOL0     H14351   9.934   2.092   1.957  0.7212  0.7478 -1.5069
  104MOL0     H14352   9.967   2.240   2.052 -0.0222  0.1133  1.2085
  105MOL0     O14353  10.978   2.093  10.450  0.2671 -0.0765  0.7794
  105MOL0     C14354  10.890   2.143  10.524  0.4926 -0.4499  0.7672
  105MOL0     O14355  10.910   2.190  10.642  0.0432 -0.8947 -0.2537
  105MOL0     C14356  11.035   2.183  10.708  0.1204 -0.5512 -0.5734
  105MOL0     C14357  11.148   2.094  10.691  0.3955 -0.5094  0.5928
  105MOL0     C14358  11.265   2.097  10.769  0.2517 -0.5339  0.2047
  105MOL0     C14359  11.287   2.201  10.856 -1.0708 -0.6056 -0.5026
  105MOL0     O14360  11.418   2.211  10.903 -0.5338 -0.2267  0.7963
  105MOL0     C14361  11.460   2.312  10.992  0.1290 -0.3910 -0.8233
  105MOL0     C14362  11.616   2.339  10.989  0.1236 -0.4758  0.0760
  105MOL0     C14363  11.660   2.455  11.086  0.1040  0.0344 -0.0896
  105MOL0     C14364  11.798   2.521  11.044 -0.2840  0.7142 -0.6019
  105MOL0     C14365  11.825   2.657  11.117  0.8380  0.3630 -0.8231
  105MOL0     C14366  11.946   2.732  11.076  0.2721 -0.4701 -0.4325
  105MOL0     C14367  12.076   2.652  11.043  0.2900  1.1296 -0.2034
  105MOL0     C14368  12.140   2.572  11.150 -0.5839  0.0882 -0.3619
  105MOL0     N14369  12.188   2.633  11.278  0.3875  0.4521 -0.3632
  105MOL0     C14370  12.107   2.660  11.391 -0.7221 -0.0891  0.8879
  105MOL0     C14371  12.195   2.681  11.495 -1.0771 -0.3038 -0.1154
  105MOL0     C14372  12.173   2.723  11.642 -0.1503 -0.6978  0.1837
  105MOL0     C14373  12.153   2.878  11.659  0.3932  0.7630  0.0038
  105MOL0     C14374  12.134   2.905  11.817 -0.6034 -0.0875  0.1990
  105MOL0     C14375  12.143   3.057  11.826  0.2944  0.2746  0.7744
  105MOL0     O14376  12.141   3.102  11.959 -1.5454 -0.2629  0.1889
  105MOL0     C14377  12.025   3.126  12.030  0.4918  0.6650  0.2793
  105MOL0     C14378  11.900   3.102  11.972  0.3877 -0.6821  0.9183
  105MOL0     C14379  11.783   3.162  12.024  0.5522 -0.4171 -0.6880
  105MOL0     C14380  11.654   3.147  11.954 -0.9533  0.4477 -0.4215
  105MOL0     C14381  11.799   3.231  12.149  0.0275  0.5783  0.7917
  105MOL0     C14382  11.691   3.305  12.216 -0.1679 -0.8778 -0.0436
  105MOL0     O14383  11.720   3.371  12.333 -0.0956  0.0855  0.0874
  105MOL0     C14384  11.608   3.401  12.417  0.7263  0.1616 -0.5600
  105MOL0     C14385  11.589   3.538  12.448  0.0164 -0.4836  0.8248
  105MOL0     C14386  11.467   3.575  12.519 -0.3265  0.3999  0.0605
  105MOL0     C14387  11.376   3.482  12.560  0.3343 -0.0938  1.1125
  105MOL0     O14388  11.260   3.529  12.614 -0.1890  0.7024  0.2772
  105MOL0     C14389  11.162   3.436  12.657 -0.4218 -0.5899 -0.2057
  105MOL0     C14390  11.037   3.528  12.682 -0.1419  0.3056 -0.1201
  105MOL0     C14391  10.926   3.472  12.782  0.6082  0.6939  0.3569
  105MOL0     C14392  10.818   3.379  12.720 -0.1140 -0.3470  0.2269
  105MOL0     C14393  10.708   3.341  12.815  0.8004  0.1689  0.8531
  105MOL0     C14394  10.619   3.455  12.868 -0.3072  0.7698  0.8925
  105MOL0     C14395  10.522   3.409  12.976 -0.5142  1.4919  0.3291
  105MOL0     C14396  10.434   3.514  13.019  1.2508 -0.7565 -0.4354
  105MOL0    Cl14397  10.304   3.448  13.127  0.1473  0.4178 -0.0909
  105MOL0     C14398  11.406   3.343  12.544 -0.0965 -0.8016  0.1171
  105MOL0     C14399  11.519   3.311  12.467 -0.7708 -0.4811  0.2072
  105MOL0     O14400  11.574   3.286  12.174 -0.2690  0.0667  0.6481
  105MOL0     C14401  11.926   3.234  12.212 -0.0421  0.6405  0.2064
  105MOL0     C14402  12.034   3.185  12.146 -0.0838 -0.5287 -0.5413
  105MOL0     N14403  12.320   2.682  11.432 -0.1544 -0.4230  0.5005
  105MOL0     N14404  12.319   2.654  11.303  0.2189 -0.1759 -0.3810
  105MOL0     C14405  11.183   2.289  10.884  0.6276 -0.2329  0.7639
  105MOL0     C14406  11.058   2.274  10.815 -0.3757  0.1106  1.1575
  105MOL0     C14407  10.748   2.155  10.478  1.1280 -0.2101  0.3627
  105MOL0     C14408  10.721   2.175  10.343  0.1421 -0.6358  0.0624
  105MOL0     C14409  10.590   2.204  10.301 -0.3745 -0.8538  0.3482
  105MOL0     C14410  10.492   2.209  10.391  0.1464 -0.2207  0.2419
  105MOL0     O14411  10.362   2.253  10.361  0.3968 -0.1718 -0.0488
  105MOL0     C14412  10.304   2.243  10.230  0.9209  0.6040  0.2214
  105MOL0     C14413  10.285   2.388  10.180  0.5927 -0.1466  0.3798
  105MOL0     C14414  10.222   2.472  10.283 -0.2250  0.1107 -0.2111
  105MOL0     C14415  10.208   2.620  10.248  0.2948  0.1995  0.5718
  105MOL0     C14416  10.334   2.696  10.239 -0.1045  0.3970 -0.2114
  105MOL0     C14417  10.442   2.750  10.240  0.1625  0.1358  0.1408
  105MOL0     C14418  10.517   2.184  10.525 -0.2285  0.0781 -0.1258
  105MOL0     C14419  10.640   2.156  10.573  0.3438  0.6077 -0.0019
  105MOL0     C14420  10.647   2.108  10.717 -0.7614 -0.5207 -0.9376
  105MOL0     H14421  11.132   2.021  10.613 -2.6060  1.1201 -0.4826
  105MOL0     H14422  11.337   2.015  10.767 -0.2134 -0.9835  1.1017
  105MOL0     H14423  11.422   2.278  11.089 -0.8605  3.7829  0.4256
  105MOL0     H14424  11.404   2.403  10.970 -0.1402  0.2298  2.0209
  105MOL0     H14425  11.678   2.250  11.002 -0.1810 -0.5543  1.0450
  105MOL0     H14426  11.657   2.367  10.891  0.4611 -0.4879  0.2141
  105MOL0     H14427  11.578   2.527  11.079 -1.4758 -1.8356 -3.3168
  105MOL0     H14428  11.675   2.409  11.184  2.5337  0.5228 -0.1830
  105MOL0     H14429  11.881   2.455  11.070 -0.1558  0.8439 -0.6827
  105MOL0     H14430  11.805   2.543  10.937  1.1628  2.3119 -0.2333
  105MOL0     H14431  11.839   2.623  11.221  0.5704 -0.7743 -1.1398
  105MOL0     H14432  11.740   2.726  11.118  3.2739  3.5524 -0.0719
  105MOL0     H14433  11.918   2.787  10.986  1.4932  2.1411  0.6781
  105MOL0     H14434  11.970   2.812  11.147  1.6570  0.4141 -1.8306
  105MOL0     H14435  12.152   2.724  11.012  0.1308  1.3941  0.0214
  105MOL0     H14436  12.067   2.594  10.951 -0.6923  1.2451 -0.1831
  105MOL0     H14437  12.066   2.497  11.180  0.0873 -0.0194  1.1253
  105MOL0     H14438  12.225   2.530  11.096 -1.8632  0.6447 -2.9612
  105MOL0     H14439  12.000   2.646  11.402 -0.4524 -1.0739  2.6998
  105MOL0     H14440  12.256   2.682  11.701 -0.4179 -1.5374 -0.0204
  105MOL0     H14441  12.081   2.670  11.668 -1.4271  0.0060 -2.5170
  105MOL0     H14442  12.238   2.936  11.624  0.9195 -0.8981 -1.6016
  105MOL0     H14443  12.066   2.920  11.608 -1.1634 -0.0704  1.8354
  105MOL0     H14444  12.039   2.865  11.855 -1.5045  0.4218 -1.3907
  105MOL0     H14445  12.222   2.860  11.863 -0.0155  0.7590 -0.0760
  105MOL0     H14446  12.241   3.081  11.782  0.5240  1.7368  2.0162
  105MOL0     H14447  12.062   3.098  11.765 -1.3425  0.1591  2.7616
  105MOL0     H14448  11.897   3.055  11.874 -0.1222  2.2792 -0.5727
  105MOL0     H14449  11.607   3.243  11.934 -1.6356  0.1857 -0.1127
  105MOL0     H14450  11.584   3.086  12.013 -1.9430  1.8875 -0.0738
  105MOL0     H14451  11.672   3.093  11.860  2.2235 -0.5054  0.5904
  105MOL0     H14452  11.656   3.619  12.420 -2.8741  1.4842 -0.8412
  105MOL0     H14453  11.436   3.676  12.545 -0.0101  0.3521  0.6233
  105MOL0     H14454  11.138   3.369  12.574  0.6181  0.1095 -1.1115
  105MOL0     H14455  11.191   3.385  12.748 -0.9955  1.8774  1.4684
  105MOL0     H14456  11.067   3.615  12.741 -3.8396  0.9977  1.0129
  105MOL0     H14457  10.992   3.565  12.589 -1.6203 -0.1181  0.3887
  105MOL0     H14458  10.890   3.561  12.834  4.1634  1.7960  1.2174
  105MOL0     H14459  10.971   3.417  12.865  0.4768  2.3479  1.5580
  105MOL0     H14460  10.864   3.289  12.676  1.5536  1.6930 -2.5332
  105MOL0     H14461  10.773   3.442  12.644 -0.9110  1.6832  2.2587
  105MOL0     H14462  10.632   3.274  12.775 -1.1153  1.8980  1.4439
  105MOL0     H14463  10.748   3.287  12.902 -0.5223  0.4649  1.6666
  105MOL0     H14464  10.559   3.503  12.790  1.3781  0.4701 -0.6817
  105MOL0     H14465  10.684   3.537  12.901 -2.5567  2.8749  0.4055
  105MOL0     H14466  10.575   3.374  13.065 -0.8123  0.9819  0.3055
  105MOL0     H14467  10.456   3.334  12.932  0.2133  0.2178  1.3522
  105MOL0     H14468  10.393   3.564  12.931 -2.7170  1.6506  2.4233
  105MOL0     H14469  10.497   3.589  13.068  0.5363  1.6346 -2.9107
  105MOL0     H14470  11.362   3.257  12.594  1.5314 -1.2258  0.8971
  105MOL0     H14471  11.531   3.206  12.440  1.5949  0.3585 -2.5388
  105MOL0     H14472  11.931   3.270  12.314 -0.5365  1.1297  0.0608
  105MOL0     H14473  12.127   3.173  12.201 -0.2129 -1.1303 -0.4412
  105MOL0     H14474  11.201   2.371  10.953  0.8812  0.9165 -0.6267
  105MOL0     H14475  10.976   2.337  10.846 -2.7380 -0.8065 -2.5959
  105MOL0     H14476  10.809   2.174  10.280  2.8280 -3.0431  3.4864
  105MOL0     H14477  10.584   2.245  10.201 -0.9904  1.6896  1.3617
  105MOL0     H14478  10.370   2.188  10.162  1.1956  1.2694 -0.0523
  105MOL0     H14479  10.208   2.190  10.241  0.5223  1.5700  1.5435
  105MOL0     H14480  10.225   2.380  10.089  1.2016 -0.0963 -0.0310
  105MOL0     H14481  10.381   2.434  10.156 -0.3566  1.6178 -0.2554
  105MOL0     H14482  10.126   2.424  10.305 -0.2921  0.5500  0.4794
  105MOL0     H14483  10.283   2.458  10.373 -1.2518 -1.4289  0.3006
  105MOL0     H14484  10.125   2.670  10.300  1.4613  4.7614 -1.4335
  105MOL0     H14485  10.171   2.615  10.145  1.1336 -1.4821  0.3121
  105MOL0     H14486  10.535   2.800  10.259 -0.3788  0.8751  0.9316
  105MOL0     H14487  10.431   2.193  10.591  0.4773 -1.2254  1.0281
  105MOL0     H14488  10.569   2.037  10.746 -0.8073  0.6895  2.4486
  105MOL0     H14489  10.737   2.049  10.736 -0.4416  0.0605 -0.6337
  105MOL0     H14490  10.647   2.198  10.780  2.7447 -0.8059 -0.3260
  106MOL0     O14491   4.125   2.849   2.169  0.4334  0.3295 -0.5882
  106MOL0     C14492   4.200   2.942   2.198 -0.1386  0.5930 -0.0140
  106MOL0     O14493   4.272   3.013   2.102  0.1246  0.4010  0.0026
  106MOL0     C14494   4.277   2.976   1.970  0.9285 -0.1942 -0.0551
  106MOL0     C14495   4.228   2.866   1.902  0.7790 -0.3054 -0.4162
  106MOL0     C14496   4.268   2.837   1.771 -0.9158 -0.1380  0.2576
  106MOL0     C14497   4.356   2.922   1.702  0.0681 -0.4979 -0.4235
  106MOL0     O14498   4.394   2.903   1.577 -0.4441 -0.4144 -0.3283
  106MOL0     C14499   4.299   2.954   1.481 -0.5090 -0.7760  0.8579
  106MOL0     C14500   4.232   2.848   1.385 -0.2732  0.1106 -0.2261
  106MOL0     C14501   4.139   2.910   1.277  0.1481 -0.8342  0.1746
  106MOL0     C14502   4.011   2.971   1.331 -0.2175  0.0394 -1.2291
  106MOL0     C14503   3.887   2.958   1.245  0.1423 -0.3547 -0.2738
  106MOL0     C14504   3.895   3.049   1.117  0.0773 -0.3643  0.1332
  106MOL0     C14505   3.903   3.201   1.142  0.0745  0.5253  0.1117
  106MOL0     C14506   3.800   3.254   1.242  0.4574  0.4178  0.8410
  106MOL0     N14507   3.661   3.258   1.193 -0.3001  0.1015  0.3426
  106MOL0     C14508   3.591   3.378   1.154 -0.2178  0.1174  0.0986
  106MOL0     C14509   3.468   3.335   1.121 -0.4994  0.3611  0.3458
  106MOL0     C14510   3.347   3.412   1.093 -0.1604 -0.6502 -0.0607
  106MOL0     C14511   3.332   3.424   0.937 -0.1139  0.5099 -0.3294
  106MOL0     C14512   3.233   3.544   0.917 -0.2082 -0.0396 -0.2769
  106MOL0     C14513   3.206   3.590   0.776 -0.2992  0.7155  0.1803
  106MOL0     O14514   3.140   3.719   0.777 -0.3382  0.2287 -0.5486
  106MOL0     C14515   3.073   3.748   0.661 -0.6311  0.4371 -0.0858
  106MOL0     C14516   2.972   3.843   0.660  0.0163 -0.3583  0.8112
  106MOL0     C14517   2.924   3.892   0.536  0.1982 -0.2324  0.9125
  106MOL0     C14518   2.825   3.996   0.542  0.0970  0.2201  0.8089
  106MOL0     C14519   2.976   3.851   0.406 -0.4482 -0.1925 -1.3494
  106MOL0     C14520   2.948   3.909   0.271  0.1880 -1.2079  0.4554
  106MOL0     O14521   3.021   3.865   0.166 -0.8825  0.4440 -0.2497
  106MOL0     C14522   2.995   3.925   0.051 -0.7749  0.5304  0.4528
  106MOL0     C14523   3.104   3.989  -0.012 -0.7621 -0.3620 -0.1653
  106MOL0     C14524   3.097   4.042  -0.136  0.2295  0.6403  1.1381
  106MOL0     C14525   2.966   4.051  -0.192  0.0118  0.2606 -0.2934
  106MOL0     O14526   2.938   4.109  -0.312 -0.3201  0.0392  0.2898
  106MOL0     C14527   3.043   4.167  -0.391  0.7922  0.2815 -0.5921
  106MOL0     C14528   2.985   4.239  -0.516 -0.0869 -0.3671  0.7205
  106MOL0     C14529   2.954   4.128  -0.619  0.2072  0.8641 -0.2475
  106MOL0     C14530   2.942   4.171  -0.768  0.0029 -0.2530 -0.3139
  106MOL0     C14531   2.905   4.055  -0.854  0.0180  0.7233 -0.0840
  106MOL0     C14532   2.913   4.068  -1.004 -0.4580  0.0245  0.5949
  106MOL0     C14533   2.782   4.113  -1.082 -0.5949 -0.6179 -0.4066
  106MOL0     C14534   2.817   4.204  -1.193  0.3080 -0.1670  0.8719
  106MOL0    Cl14535   2.886   4.350  -1.131  0.1666  0.1778  0.4599
  106MOL0     C14536   2.857   3.989  -0.130  0.1381 -0.1468 -0.2744
  106MOL0     C14537   2.868   3.919  -0.015 -0.3268 -0.2908  0.4795
  106MOL0     O14538   2.869   4.001   0.264 -0.3651 -0.6699 -0.3386
  106MOL0     C14539   3.081   3.759   0.417 -0.0395  0.2298 -1.0228
  106MOL0     C14540   3.126   3.708   0.532 -1.0484 -0.1430 -0.6117
  106MOL0     N14541   3.455   3.197   1.130  0.3456 -0.1603  1.0696
  106MOL0     N14542   3.575   3.152   1.177 -0.4007 -0.2723 -0.4107
  106MOL0     C14543   4.409   3.030   1.763 -0.6304  0.2894  0.2917
  106MOL0     C14544   4.374   3.055   1.898  0.4138 -0.1963  0.0004
  106MOL0     C14545   4.248   2.961   2.344  0.7872  0.6889  0.6039
  106MOL0     C14546   4.339   3.067   2.371  0.5907 -0.9302 -0.7304
  106MOL0     C14547   4.391   3.090   2.505 -0.6333 -0.1313 -0.1531
  106MOL0     C14548   4.343   3.017   2.614 -0.8151  0.2131 -0.1459
  106MOL0     O14549   4.363   3.045   2.748 -0.8129 -0.5382  0.4233
  106MOL0     C14550   4.433   3.169   2.782  0.4096 -0.0025  0.2016
  106MOL0     C14551   4.585   3.144   2.769 -0.1672 -0.4337  0.7853
  106MOL0     C14552   4.620   3.054   2.879 -0.3631 -0.4591 -1.2359
  106MOL0     C14553   4.772   3.039   2.898 -0.3488  0.5003  0.4002
  106MOL0     C14554   4.799   2.980   3.027  0.9488 -0.1978 -0.3978
  106MOL0     C14555   4.830   2.940   3.137  0.4400  1.1273  0.2971
  106MOL0     C14556   4.252   2.920   2.586  0.4563 -0.0660 -0.5424
  106MOL0     C14557   4.209   2.885   2.460 -0.3915 -0.5122 -0.3168
  106MOL0     C14558   4.126   2.757   2.437  1.0210 -0.2439 -0.4511
  106MOL0     H14559   4.160   2.798   1.951  1.2271  0.8248  1.9313
  106MOL0     H14560   4.224   2.746   1.730  0.6552 -1.3753  1.2180
  106MOL0     H14561   4.354   3.027   1.422 -2.6271 -2.3174 -3.4064
  106MOL0     H14562   4.215   3.011   1.523 -0.3995  0.1848 -0.1993
  106MOL0     H14563   4.309   2.789   1.334 -0.8099 -1.7663  1.0369
  106MOL0     H14564   4.174   2.773   1.438 -0.0190  0.9279  1.2512
  106MOL0     H14565   4.192   2.992   1.229 -2.4024  1.3532  0.8444
  106MOL0     H14566   4.096   2.841   1.203 -0.5652  0.3907 -0.5832
  106MOL0     H14567   3.987   2.918   1.424  4.2177 -1.9102 -0.9339
  106MOL0     H14568   4.044   3.071   1.358  1.9059 -1.2380  1.4220
  106MOL0     H14569   3.800   2.999   1.297 -0.2035 -0.1386 -1.0111
  106MOL0     H14570   3.861   2.856   1.215 -0.0487 -0.3680 -0.0660
  106MOL0     H14571   3.981   3.009   1.064  0.9218 -1.3812  2.1678
  106MOL0     H14572   3.808   3.023   1.057  0.9411 -0.3597 -1.1477
  106MOL0     H14573   3.896   3.263   1.052 -3.8368  0.4007  0.1573
  106MOL0     H14574   4.005   3.215   1.180  0.3798 -0.4348 -0.3188
  106MOL0     H14575   3.805   3.205   1.340  2.2601 -0.0048  0.5833
  106MOL0     H14576   3.833   3.357   1.254 -0.3270  1.0529 -1.8319
  106MOL0     H14577   3.624   3.481   1.152  2.5181 -0.6793 -0.2707
  106MOL0     H14578   3.367   3.507   1.143  1.0407  0.6620 -2.8100
  106MOL0     H14579   3.257   3.369   1.139 -0.5597 -1.3584 -1.4374
  106MOL0     H14580   3.410   3.461   0.870  0.8207 -1.9070 -0.6590
  106MOL0     H14581   3.295   3.327   0.904  1.1760  0.3184 -1.2922
  106MOL0     H14582   3.137   3.506   0.953 -1.7713  1.7779 -2.2605
  106MOL0     H14583   3.264   3.631   0.974 -1.8188  0.3001  0.1304
  106MOL0     H14584   3.299   3.593   0.719 -0.6605  0.6591 -0.4302
  106MOL0     H14585   3.145   3.517   0.721 -1.3751  2.5355 -1.1711
  106MOL0     H14586   2.923   3.888   0.745  0.5439 -0.8265  1.3737
  106MOL0     H14587   2.846   4.085   0.482  0.7631  0.9114  2.0473
  106MOL0     H14588   2.811   4.021   0.647  0.7748 -0.9654  1.1953
  106MOL0     H14589   2.721   3.964   0.525 -0.1133 -0.2786  2.8039
  106MOL0     H14590   3.194   3.975   0.047 -0.7871  2.3720  0.6653
  106MOL0     H14591   3.190   4.076  -0.182 -0.6906  0.6049 -0.8221
  106MOL0     H14592   3.093   4.235  -0.321 -2.5197  2.5549 -0.1963
  106MOL0     H14593   3.122   4.094  -0.413  0.0596 -1.7539  2.8818
  106MOL0     H14594   2.890   4.290  -0.500 -0.9687 -2.2308  1.6639
  106MOL0     H14595   3.054   4.313  -0.557  0.0067 -2.0636 -2.5594
  106MOL0     H14596   2.871   4.059  -0.599  3.1383 -4.0039 -2.7141
  106MOL0     H14597   3.039   4.059  -0.623 -0.9304 -0.9786  3.1424
  106MOL0     H14598   3.034   4.221  -0.799  0.9430 -3.3072 -3.0564
  106MOL0     H14599   2.863   4.246  -0.779  1.4809  1.4367  0.1905
  106MOL0     H14600   2.954   3.966  -0.813  0.4955  0.6565 -0.7816
  106MOL0     H14601   2.807   4.019  -0.823  1.1999 -0.3915  2.6702
  106MOL0     H14602   2.940   3.975  -1.056 -1.5710 -0.6676  1.2280
  106MOL0     H14603   2.985   4.147  -1.030 -2.5332  2.2260  1.1500
  106MOL0     H14604   2.710   4.162  -1.016 -1.0293 -2.5479  0.6140
  106MOL0     H14605   2.717   4.028  -1.102 -2.6838  0.3309  1.8444
  106MOL0     H14606   2.730   4.226  -1.256  1.7688  1.6705 -0.6458
  106MOL0     H14607   2.893   4.168  -1.262 -0.0503  3.1598 -1.5010
  106MOL0     H14608   2.758   3.973  -0.172  0.2748 -0.1100 -0.6109
  106MOL0     H14609   2.786   3.876   0.042  0.6896 -1.2654  1.2644
  106MOL0     H14610   3.132   3.720   0.329  0.0852  0.6778 -1.1503
  106MOL0     H14611   3.207   3.635   0.526 -1.5419 -1.5445  4.8214
  106MOL0     H14612   4.479   3.096   1.713 -2.2149  0.4547 -1.8566
  106MOL0     H14613   4.424   3.125   1.964 -0.1699 -0.0463  0.2801
  106MOL0     H14614   4.374   3.136   2.295 -2.7243  0.8536 -0.8169
  106MOL0     H14615   4.452   3.180   2.508 -0.0243 -0.5251 -0.5232
  106MOL0     H14616   4.399   3.249   2.716  1.1439 -0.2788 -0.5351
  106MOL0     H14617   4.407   3.192   2.886  2.4962 -1.2648  1.0753
  106MOL0     H14618   4.638   3.239   2.777  1.8245 -1.4400  0.0354
  106MOL0     H14619   4.617   3.101   2.674  0.3105 -0.7321  1.0767
  106MOL0     H14620   4.587   3.102   2.972  1.4125 -1.7133  0.1214
  106MOL0     H14621   4.589   2.949   2.873 -0.2966 -0.5776  0.1923
  106MOL0     H14622   4.816   3.138   2.879 -0.9262  0.7428  0.3248
  106MOL0     H14623   4.806   2.970   2.820  1.1228 -2.3944  3.3700
  106MOL0     H14624   4.859   2.883   3.224  0.5170 -1.7093 -1.4748
  106MOL0     H14625   4.209   2.882   2.678  1.3972  1.5925  0.6398
  106MOL0     H14626   4.045   2.777   2.367  0.0132  0.6679  0.9256
  106MOL0     H14627   4.188   2.672   2.407  0.1862 -1.6601  1.6281
  106MOL0     H14628   4.074   2.734   2.530  1.5072 -0.5862 -0.2587
  107MOL0     O14629   0.433  11.461   7.537  0.9736  0.6778  0.3148
  107MOL0     C14630   0.398  11.346   7.514  0.2113 -1.0363  0.2509
  107MOL0     O14631   0.431  11.245   7.583  0.6105 -0.4294  0.4617
  107MOL0     C14632   0.451  11.256   7.720  0.3880 -0.6593  0.0013
  107MOL0     C14633   0.405  11.148   7.794 -0.1663 -0.5747  0.1044
  107MOL0     C14634   0.410  11.147   7.929 -0.1996 -0.9874 -0.2445
  107MOL0     C14635   0.479  11.254   7.994  0.3848  0.7567 -0.1362
  107MOL0     O14636   0.484  11.243   8.136 -0.1988 -0.0590 -0.1364
  107MOL0     C14637   0.599  11.285   8.204  0.2644  0.0170  0.7779
  107MOL0     C14638   0.598  11.223   8.344 -0.3534  0.0602 -0.1845
  107MOL0     C14639   0.665  11.324   8.437 -0.3839  0.2667  0.4133
  107MOL0     C14640   0.803  11.380   8.401  0.1783  0.6512 -0.1790
  107MOL0     C14641   0.902  11.267   8.438  0.3462 -0.6186  0.1489
  107MOL0     C14642   1.039  11.320   8.427  0.1474  0.7171 -1.1758
  107MOL0     C14643   1.156  11.238   8.475 -0.2214 -0.1443 -0.0846
  107MOL0     C14644   1.138  11.083   8.500  0.7131 -0.2622  0.6567
  107MOL0     N14645   1.233  11.054   8.598  0.2263  0.0378  0.0340
  107MOL0     C14646   1.212  11.066   8.739 -0.9123 -0.0993 -0.4573
  107MOL0     C14647   1.328  11.005   8.796  0.5798  0.2670  0.7067
  107MOL0     C14648   1.377  10.988   8.937  0.0109  0.5997 -0.4060
  107MOL0     C14649   1.337  10.860   9.002 -0.3729 -0.0887  0.2062
  107MOL0     C14650   1.433  10.819   9.115 -0.5989 -0.4931  0.1519
  107MOL0     C14651   1.393  10.681   9.168  1.1597  0.1324 -0.1813
  107MOL0     O14652   1.503  10.592   9.184  0.3041 -0.1328  0.4520
  107MOL0     C14653   1.592  10.621   9.278  0.1941  0.1975  1.2964
  107MOL0     C14654   1.723  10.589   9.249 -0.5677 -0.0078 -0.5140
  107MOL0     C14655   1.830  10.608   9.335 -0.4296  0.4786  0.1497
  107MOL0     C14656   1.966  10.565   9.280 -0.1193  0.6412 -0.5418
  107MOL0     C14657   1.806  10.665   9.458  0.9165  0.4650  0.9590
  107MOL0     C14658   1.898  10.685   9.580  0.7316 -0.0784 -0.5861
  107MOL0     O14659   1.838  10.718   9.698 -1.5189  0.2927  0.1376
  107MOL0     C14660   1.901  10.732   9.820 -0.2892 -0.6658  0.8635
  107MOL0     C14661   2.034  10.758   9.840  0.6773  0.5025 -0.7257
  107MOL0     C14662   2.071  10.796   9.974 -1.3412 -0.3590  0.3588
  107MOL0     C14663   1.984  10.796  10.084 -0.0446 -0.7439 -1.1331
  107MOL0     O14664   2.011  10.839  10.213 -0.0291 -0.3236  0.3993
  107MOL0     C14665   2.145  10.843  10.250 -0.1386  0.7870  0.1389
  107MOL0     C14666   2.135  10.879  10.400 -0.4835 -0.1991  0.1813
  107MOL0     C14667   2.280  10.904  10.470  0.1492  0.1253 -0.2927
  107MOL0     C14668   2.367  11.010  10.401 -0.3098 -0.3827 -0.1718
  107MOL0     C14669   2.506  11.038  10.476 -0.0181  0.8576 -0.4990
  107MOL0     C14670   2.560  11.171  10.431 -0.2792 -0.4527 -0.3910
  107MOL0     C14671   2.657  11.232  10.535  0.1526 -0.2636 -0.0708
  107MOL0     C14672   2.762  11.313  10.471 -0.4147 -0.4309 -0.4246
  107MOL0    Cl14673   2.886  11.336  10.596 -0.6046 -0.4617 -0.1843
  107MOL0     C14674   1.849  10.769  10.047  0.9594 -0.1312  1.1975
  107MOL0     C14675   1.806  10.735   9.914 -0.0652 -0.6171  0.9907
  107MOL0     O14676   2.021  10.656   9.560  0.6052 -0.3595  0.2226
  107MOL0     C14677   1.678  10.717   9.478  0.3211  0.2108 -0.5646
  107MOL0     C14678   1.571  10.696   9.391  0.7523  0.7293  0.1419
  107MOL0     N14679   1.394  10.955   8.685  0.0802  0.1734  0.2204
  107MOL0     N14680   1.350  10.988   8.573 -0.1524 -0.0488 -0.3728
  107MOL0     C14681   0.543  11.357   7.920  0.5411 -0.0984 -0.5056
  107MOL0     C14682   0.533  11.357   7.787  0.2731  0.1032  1.1339
  107MOL0     C14683   0.315  11.328   7.387  0.0055 -1.2760 -1.0859
  107MOL0     C14684   0.304  11.201   7.341 -0.0515  0.3200  0.0583
  107MOL0     C14685   0.235  11.177   7.222 -0.3755  0.2350 -0.1726
  107MOL0     C14686   0.180  11.275   7.137  0.0783  0.3375 -0.1436
  107MOL0     O14687   0.102  11.246   7.027  0.7537  0.5947 -0.1208
  107MOL0     C14688   0.123  11.123   6.956 -0.7301  0.2144 -0.2889
  107MOL0     C14689   0.114  11.154   6.810  0.2734  0.1717 -0.8322
  107MOL0     C14690   0.213  11.250   6.746 -0.0730 -0.1147 -0.0618
  107MOL0     C14691   0.361  11.224   6.783  1.1442 -0.1688 -0.1379
  107MOL0     C14692   0.403  11.085   6.756  0.1087 -0.7809 -0.0775
  107MOL0     C14693   0.435  10.968   6.755 -0.3348 -0.4405 -0.0146
  107MOL0     C14694   0.180  11.399   7.197 -0.1404 -0.4833 -0.3431
  107MOL0     C14695   0.240  11.429   7.324 -0.9485  0.4962  0.2200
  107MOL0     C14696   0.234  11.563   7.369  0.9627  0.7864  0.1564
  107MOL0     H14697   0.345  11.077   7.738  0.8322 -0.4696 -1.1414
  107MOL0     H14698   0.358  11.080   7.997 -0.0294  0.4636  1.3491
  107MOL0     H14699   0.594  11.394   8.213  1.2742  0.3794 -1.9306
  107MOL0     H14700   0.696  11.259   8.160  0.5716 -0.4762  1.7407
  107MOL0     H14701   0.495  11.204   8.377  0.1432  0.9911  2.0868
  107MOL0     H14702   0.656  11.132   8.333  2.7620  1.6634  1.6495
  107MOL0     H14703   0.585  11.398   8.449 -2.0075 -1.1379 -1.1361
  107MOL0     H14704   0.676  11.275   8.534  0.7262 -1.9394 -0.7521
  107MOL0     H14705   0.815  11.410   8.297 -0.5312  0.8401 -0.2176
  107MOL0     H14706   0.823  11.460   8.473 -0.4986  0.0136  0.7423
  107MOL0     H14707   0.903  11.180   8.371  0.8054 -2.3864  2.3441
  107MOL0     H14708   0.891  11.239   8.543 -2.1889 -3.4589 -0.7165
  107MOL0     H14709   1.059  11.344   8.322 -1.7194  0.5610 -1.6100
  107MOL0     H14710   1.052  11.415   8.481  1.2836 -0.1097  0.0676
  107MOL0     H14711   1.179  11.281   8.573 -1.1921  2.3397 -0.8769
  107MOL0     H14712   1.244  11.247   8.411  2.5072 -0.7602  3.2981
  107MOL0     H14713   1.038  11.051   8.531 -0.9111  0.5826 -3.1250
  107MOL0     H14714   1.162  11.026   8.410 -1.0729 -1.6010  0.9663
  107MOL0     H14715   1.136  11.108   8.804  1.2797  1.4131  1.2977
  107MOL0     H14716   1.324  11.066   8.992 -2.0416  0.4297 -2.0098
  107MOL0     H14717   1.485  11.002   8.933  0.0441  0.9207  0.9789
  107MOL0     H14718   1.239  10.866   9.050 -1.6411 -1.9351 -1.9286
  107MOL0     H14719   1.325  10.785   8.923  4.2609 -0.0679 -0.7899
  107MOL0     H14720   1.532  10.798   9.073 -0.4619 -2.5754  1.3779
  107MOL0     H14721   1.443  10.897   9.191 -1.9476  0.7035 -0.8613
  107MOL0     H14722   1.326  10.684   9.254 -0.5721 -1.6748 -1.3939
  107MOL0     H14723   1.323  10.628   9.104  1.0068 -0.2840  0.3213
  107MOL0     H14724   1.724  10.538   9.153 -1.6328 -0.1729 -0.4547
  107MOL0     H14725   1.957  10.470   9.226  1.8743  1.8076 -3.1315
  107MOL0     H14726   2.044  10.530   9.348 -0.1262  1.9397  0.1596
  107MOL0     H14727   2.007  10.640   9.213  3.2836 -0.7877 -0.2787
  107MOL0     H14728   2.101  10.769   9.756 -0.1865  3.2214 -1.1507
  107MOL0     H14729   2.177  10.816   9.983 -0.9661 -2.8238  2.2723
  107MOL0     H14730   2.199  10.749  10.232  2.2767  1.8377  1.3881
  107MOL0     H14731   2.211  10.918  10.204  2.6749  0.1764  2.8218
  107MOL0     H14732   2.073  10.966  10.423  1.7638  2.0241 -1.5882
  107MOL0     H14733   2.088  10.788  10.438 -1.3945 -0.5700 -1.7258
  107MOL0     H14734   2.335  10.810  10.454  0.9292  0.4383  0.5169
  107MOL0     H14735   2.262  10.934  10.573  0.9500  1.3274 -0.4854
  107MOL0     H14736   2.301  11.095  10.380  0.0358  0.7058  2.7330
  107MOL0     H14737   2.389  10.959  10.306  2.3026 -2.5889  1.4786
  107MOL0     H14738   2.489  11.043  10.584  2.5361 -1.7011  0.1587
  107MOL0     H14739   2.575  10.954  10.463  1.1080  0.9944  3.2809
  107MOL0     H14740   2.471  11.234  10.421 -1.9210 -2.1073  2.3229
  107MOL0     H14741   2.612  11.159  10.336  2.6965  3.4341  0.5165
  107MOL0     H14742   2.696  11.151  10.597 -0.4898  0.4705  1.3422
  107MOL0     H14743   2.594  11.295  10.599 -0.4093  0.3325 -1.1789
  107MOL0     H14744   2.719  11.410  10.444 -1.7120 -0.4368  1.4019
  107MOL0     H14745   2.803  11.258  10.386 -0.3683  1.9574 -2.0301
  107MOL0     H14746   1.775  10.783  10.125 -0.2151  3.5104 -0.3984
  107MOL0     H14747   1.702  10.717   9.892  0.0767 -2.0777  1.4147
  107MOL0     H14748   1.667  10.792   9.556  2.9930 -0.0700  0.1834
  107MOL0     H14749   1.475  10.741   9.413 -0.7550 -0.3045 -3.5981
  107MOL0     H14750   0.591  11.435   7.979  0.3727 -0.2432 -0.1712
  107MOL0     H14751   0.592  11.422   7.724 -0.2277 -1.2598 -0.8288
  107MOL0     H14752   0.342  11.111   7.388 -0.5493 -0.6628 -1.3374
  107MOL0     H14753   0.231  11.072   7.195  1.3005  0.6734 -2.3533
  107MOL0     H14754   0.218  11.071   6.968  0.5189  1.9267 -2.0381
  107MOL0     H14755   0.042  11.054   6.982 -2.6840  1.8143 -1.7434
  107MOL0     H14756   0.018  11.204   6.800  1.2172  2.8660  1.8959
  107MOL0     H14757   0.116  11.061   6.752 -0.5136 -2.2083  2.6637
  107MOL0     H14758   0.191  11.247   6.639 -1.2053 -0.3270  0.1648
  107MOL0     H14759   0.191  11.347   6.790  0.8569 -1.1432  2.9507
  107MOL0     H14760   0.372  11.231   6.892  1.0373 -2.8333  0.1124
  107MOL0     H14761   0.429  11.303   6.750  1.1124  0.9654  2.2726
  107MOL0     H14762   0.467  10.865   6.756  1.4524  0.0762 -0.5485
  107MOL0     H14763   0.126  11.476   7.143 -3.0443 -1.0667  1.4745
  107MOL0     H14764   0.152  11.614   7.317 -1.9937 -2.2421  1.5026
  107MOL0     H14765   0.204  11.562   7.474 -4.7742  0.5160 -1.1442
  107MOL0     H14766   0.331  11.610   7.352  2.1509 -1.3464  0.7339
  108MOL0     O14767   7.339   4.240   9.669 -0.3402  0.1392 -0.5677
  108MOL0     C14768   7.260   4.260   9.582  0.1045 -0.0768  0.9611
  108MOL0     O14769   7.176   4.163   9.534 -0.2204  0.1078 -0.1626
  108MOL0     C14770   7.053   4.181   9.595  0.0176 -0.5125 -0.0421
  108MOL0     C14771   6.991   4.066   9.666 -0.6696 -0.4706  0.6206
  108MOL0     C14772   6.862   4.075   9.711  0.0739 -0.9871  0.1886
  108MOL0     C14773   6.800   4.200   9.724 -0.0058 -0.4257  0.1874
  108MOL0     O14774   6.678   4.190   9.788  0.3434  1.4110 -0.6707
  108MOL0     C14775   6.613   4.317   9.815  0.3825  0.1317 -0.3018
  108MOL0     C14776   6.469   4.284   9.840 -1.0616 -0.4964 -0.5822
  108MOL0     C14777   6.399   4.423   9.882  0.3582  0.3222 -0.1562
  108MOL0     C14778   6.253   4.418   9.938 -0.2898 -0.3790 -0.1233
  108MOL0     C14779   6.177   4.548   9.929  0.3273  0.4866 -0.3916
  108MOL0     C14780   6.258   4.673   9.965 -0.2666  0.4714 -0.5590
  108MOL0     C14781   6.184   4.807   9.943 -0.8373 -0.1083 -0.0272
  108MOL0     C14782   6.285   4.925   9.942  0.6988  0.1475 -0.4775
  108MOL0     N14783   6.377   4.941   9.836 -0.2592 -0.0530  0.4693
  108MOL0     C14784   6.496   4.992   9.866  1.1913  0.2390 -0.8939
  108MOL0     C14785   6.570   4.970   9.751 -0.4783 -0.9321 -0.6587
  108MOL0     C14786   6.714   4.994   9.713 -0.1253  0.0255  0.7235
  108MOL0     C14787   6.783   4.854   9.710 -0.8272 -1.0044  0.1727
  108MOL0     C14788   6.934   4.861   9.703  0.3809  0.3984  0.2081
  108MOL0     C14789   6.988   4.716   9.691 -0.3567 -0.0763 -0.0362
  108MOL0     O14790   6.959   4.632   9.804 -0.9066 -0.2355 -0.6212
  108MOL0     C14791   7.062   4.592   9.893 -0.5042  0.1685  0.4549
  108MOL0     C14792   7.069   4.455   9.920  0.1662  0.0813 -0.7157
  108MOL0     C14793   7.173   4.395   9.997 -0.4287  0.8516  0.3578
  108MOL0     C14794   7.170   4.242   9.998 -0.5690  0.0600  0.4634
  108MOL0     C14795   7.271   4.484  10.061  0.0069 -0.6926  0.2471
  108MOL0     C14796   7.383   4.429  10.139  1.3828  0.2683  0.8293
  108MOL0     O14797   7.472   4.523  10.176  0.1386  0.0075 -0.2751
  108MOL0     C14798   7.594   4.498  10.244  1.0099 -0.8578  0.0048
  108MOL0     C14799   7.673   4.399  10.203  0.1093 -0.0467 -0.0624
  108MOL0     C14800   7.798   4.375  10.250 -0.7163 -0.6295 -0.4371
  108MOL0     C14801   7.850   4.460  10.355  0.3324  1.5452  0.3547
  108MOL0     O14802   7.967   4.439  10.409 -0.1306 -0.5216  0.0243
  108MOL0     C14803   8.014   4.306  10.429 -0.4640 -0.0499  0.4413
  108MOL0     C14804   7.925   4.226  10.519 -0.2737  0.2654  0.2064
  108MOL0     C14805   7.947   4.223  10.671 -0.4878  0.1685  0.3499
  108MOL0     C14806   7.983   4.368  10.720 -0.8883  0.9473  0.5125
  108MOL0     C14807   7.985   4.374  10.870  0.5773 -0.1892  0.6023
  108MOL0     C14808   8.058   4.496  10.920 -0.2992  0.5820  0.6701
  108MOL0     C14809   7.986   4.631  10.885  0.8409 -0.2894  0.0394
  108MOL0     C14810   8.078   4.758  10.899  0.1511  0.1867  0.1053
  108MOL0    Cl14811   8.190   4.745  10.758  0.0869 -0.0111 -0.2882
  108MOL0     C14812   7.771   4.564  10.403  0.3843  0.6894  0.6854
  108MOL0     C14813   7.637   4.591  10.343 -0.5234  0.5242  0.5239
  108MOL0     O14814   7.398   4.311  10.160  0.1687  0.4575 -0.5867
  108MOL0     C14815   7.258   4.626  10.036 -0.2441 -1.0957 -0.0700
  108MOL0     C14816   7.157   4.677   9.953 -0.0788  0.1400 -0.1025
  108MOL0     N14817   6.494   4.914   9.659 -0.5128 -0.4489  0.7823
  108MOL0     N14818   6.371   4.906   9.706  1.0401 -0.0417  0.4259
  108MOL0     C14819   6.846   4.303   9.648  0.6864 -0.1423  0.4812
  108MOL0     C14820   6.974   4.305   9.592  0.6198  0.9023  0.4432
  108MOL0     C14821   7.289   4.382   9.500  1.0386  0.2622 -0.3821
  108MOL0     C14822   7.249   4.379   9.368  0.0244  0.1901 -0.6776
  108MOL0     C14823   7.266   4.487   9.281 -1.0388  0.5778  0.0448
  108MOL0     C14824   7.326   4.597   9.329  0.4555 -0.8936 -0.4767
  108MOL0     O14825   7.334   4.699   9.236  0.5289 -0.1962 -0.1966
  108MOL0     C14826   7.471   4.748   9.206 -0.4062 -0.3362 -1.2038
  108MOL0     C14827   7.449   4.874   9.118 -0.0394  0.4091 -0.5842
  108MOL0     C14828   7.372   4.990   9.195 -0.1186  0.2138  0.2801
  108MOL0     C14829   7.330   5.108   9.102 -0.7409  0.2536  0.2469
  108MOL0     C14830   7.256   5.201   9.180 -0.3678 -0.0375  0.5450
  108MOL0     C14831   7.183   5.284   9.221 -0.4754 -0.2824  0.1917
  108MOL0     C14832   7.359   4.613   9.463  0.0174  0.4070  0.2222
  108MOL0     C14833   7.343   4.505   9.549  0.3657 -0.0507 -0.2759
  108MOL0     C14834   7.382   4.528   9.693  0.3257  0.6166  0.1542
  108MOL0     H14835   7.053   3.977   9.663 -0.7690 -0.5126 -0.9953
  108MOL0     H14836   6.821   3.990   9.764 -2.8116  1.1455  1.6395
  108MOL0     H14837   6.619   4.384   9.728 -2.1692  2.5987  1.2605
  108MOL0     H14838   6.651   4.371   9.902  0.4376  0.6265 -0.6253
  108MOL0     H14839   6.410   4.240   9.758  1.5177 -5.1093 -0.2812
  108MOL0     H14840   6.471   4.218   9.927  1.6880 -0.5728 -0.6273
  108MOL0     H14841   6.468   4.468   9.954 -0.3586  1.1552  0.0182
  108MOL0     H14842   6.423   4.487   9.796  4.6152  1.4542  1.6013
  108MOL0     H14843   6.194   4.347   9.878 -0.8492  0.4413 -0.5721
  108MOL0     H14844   6.244   4.382  10.041 -1.3526  3.0283  1.1053
  108MOL0     H14845   6.089   4.541   9.995  3.3382  2.1809  4.2921
  108MOL0     H14846   6.134   4.565   9.830 -1.4172  0.0453  0.2501
  108MOL0     H14847   6.295   4.659  10.067  2.3201  3.0245 -0.9976
  108MOL0     H14848   6.336   4.686   9.890 -2.2116 -1.1520 -2.9935
  108MOL0     H14849   6.116   4.826  10.027  1.3741  2.0213  1.4066
  108MOL0     H14850   6.122   4.809   9.853 -0.1432  1.7653 -0.5018
  108MOL0     H14851   6.221   5.014   9.939 -1.0248 -1.0423 -0.4238
  108MOL0     H14852   6.351   4.913  10.029 -0.3896 -1.9968  0.1234
  108MOL0     H14853   6.538   5.031   9.958  1.1248 -0.9339 -0.3479
  108MOL0     H14854   6.762   5.052   9.792  0.3714 -0.3641  0.7153
  108MOL0     H14855   6.723   5.059   9.625  0.1212 -3.4787 -2.0897
  108MOL0     H14856   6.762   4.803   9.805 -0.6393 -0.8182  0.3135
  108MOL0     H14857   6.741   4.789   9.632 -1.4647 -0.5963  0.1714
  108MOL0     H14858   6.968   4.902   9.608 -0.0586 -0.1560 -0.1908
  108MOL0     H14859   6.980   4.917   9.785  2.3423 -0.1657 -0.4627
  108MOL0     H14860   6.948   4.673   9.599  0.0642 -0.1680 -0.1751
  108MOL0     H14861   7.095   4.722   9.672 -0.4240 -0.2758 -0.5026
  108MOL0     H14862   6.981   4.401   9.886 -1.4117  1.6255  0.6929
  108MOL0     H14863   7.225   4.204   9.911  0.3879  2.1882  0.0596
  108MOL0     H14864   7.070   4.199  10.000  0.0434 -1.4859  3.4993
  108MOL0     H14865   7.209   4.202  10.092 -1.3599 -1.0739  0.3274
  108MOL0     H14866   7.643   4.320  10.134 -2.9896  1.0735 -0.1683
  108MOL0     H14867   7.856   4.288  10.221  0.5012 -0.3872  1.1323
  108MOL0     H14868   8.033   4.251  10.336  1.6335  0.2216  0.6741
  108MOL0     H14869   8.113   4.323  10.471 -0.1827  1.4147 -0.7134
  108MOL0     H14870   7.820   4.255  10.508 -0.3226  1.2937  2.7398
  108MOL0     H14871   7.932   4.122  10.485 -3.4434 -0.6205  1.9614
  108MOL0     H14872   8.027   4.151  10.691 -1.6912 -0.9247  1.4302
  108MOL0     H14873   7.857   4.182  10.717  0.9660 -2.3753  1.1594
  108MOL0     H14874   7.919   4.443  10.673 -0.3968  2.2214  1.8167
  108MOL0     H14875   8.085   4.397  10.691 -1.6161  2.8517 -0.3038
  108MOL0     H14876   7.879   4.378  10.894  0.3507  1.8118 -0.4485
  108MOL0     H14877   8.043   4.289  10.907 -0.3668 -1.8126 -1.4301
  108MOL0     H14878   8.157   4.500  10.874 -0.8989 -0.6300 -0.8408
  108MOL0     H14879   8.066   4.498  11.029 -2.7005  1.8039  0.9012
  108MOL0     H14880   7.909   4.656  10.959  2.1551  3.5904  0.3741
  108MOL0     H14881   7.947   4.628  10.783  0.4925 -2.2661  0.1941
  108MOL0     H14882   8.131   4.766  10.995  1.2066 -1.4640 -0.3008
  108MOL0     H14883   8.007   4.841  10.891  1.8346  1.8245  1.2733
  108MOL0     H14884   7.817   4.629  10.477  0.9570  0.2955  0.6874
  108MOL0     H14885   7.576   4.673  10.379 -4.1455 -1.5302 -0.3631
  108MOL0     H14886   7.322   4.703  10.077 -0.1854 -0.7008 -0.8697
  108MOL0     H14887   7.128   4.778   9.924  0.1228 -0.4238 -2.4276
  108MOL0     H14888   6.796   4.396   9.624  3.0935  1.4270  1.2383
  108MOL0     H14889   7.006   4.397   9.544  1.8224  0.1630 -0.2237
  108MOL0     H14890   7.206   4.287   9.330  0.9073  0.6652 -3.0054
  108MOL0     H14891   7.239   4.478   9.176  1.4291  1.2949 -0.7228
  108MOL0     H14892   7.521   4.773   9.300 -2.5166 -0.9994  0.1776
  108MOL0     H14893   7.524   4.676   9.143  1.3356 -1.1972  1.1066
  108MOL0     H14894   7.396   4.848   9.025 -3.8540  0.9185  1.2395
  108MOL0     H14895   7.553   4.902   9.098 -0.3544  0.5912 -2.0641
  108MOL0     H14896   7.274   4.952   9.225 -1.2578  0.7233 -2.4106
  108MOL0     H14897   7.434   5.029   9.276 -3.1519  3.5844  1.2538
  108MOL0     H14898   7.259   5.057   9.037 -4.6231  0.9505  3.5513
  108MOL0     H14899   7.422   5.151   9.061  0.1812 -3.6932 -2.2933
  108MOL0     H14900   7.123   5.363   9.261  1.3771 -0.2902  3.3684
  108MOL0     H14901   7.411   4.701   9.499  1.5627 -0.2666 -0.3240
  108MOL0     H14902   7.387   4.636   9.714  0.4318  0.8118 -0.8449
  108MOL0     H14903   7.306   4.499   9.766  0.2961  1.8872  0.6600
  108MOL0     H14904   7.472   4.472   9.720  0.3856  0.4155 -0.4436
  109MOL0     O14905  10.267   1.752   6.514  0.3651  0.2707 -0.0308
  109MOL0     C14906  10.231   1.857   6.454  0.2006 -0.4164  0.0375
  109MOL0     O14907  10.262   1.886   6.321  0.4297  0.3244 -0.5503
  109MOL0     C14908  10.308   1.773   6.250  0.4121 -0.2448 -0.6600
  109MOL0     C14909  10.237   1.737   6.130  0.1319 -0.0047  0.1428
  109MOL0     C14910  10.305   1.651   6.051 -0.1089 -0.3316  0.0603
  109MOL0     C14911  10.432   1.595   6.067 -0.0338 -0.4786  0.0600
  109MOL0     O14912  10.499   1.515   5.975  0.0719 -0.6790  0.3853
  109MOL0     C14913  10.602   1.423   6.006  0.5610  0.2148  0.5713
  109MOL0     C14914  10.665   1.337   5.890 -0.2578 -0.9975 -0.6344
  109MOL0     C14915  10.732   1.413   5.777 -0.2601 -0.2757  0.2226
  109MOL0     C14916  10.638   1.479   5.672 -0.0369  0.5227 -1.1635
  109MOL0     C14917  10.545   1.379   5.610 -0.6495  0.6996 -0.3412
  109MOL0     C14918  10.468   1.446   5.494  0.6694  0.3611 -0.2532
  109MOL0     C14919  10.370   1.553   5.536  0.1409 -1.0428  0.1839
  109MOL0     C14920  10.279   1.507   5.657 -0.1162  0.7245  0.0874
  109MOL0     N14921  10.167   1.591   5.654  0.5846 -0.4076  0.1136
  109MOL0     C14922  10.055   1.578   5.575  0.0112  0.5244  1.1335
  109MOL0     C14923   9.957   1.656   5.632 -0.8014  0.0806 -0.1927
  109MOL0     C14924   9.820   1.684   5.578  0.4836  0.7987 -0.0661
  109MOL0     C14925   9.694   1.671   5.672 -0.2362  0.3045 -0.9937
  109MOL0     C14926   9.672   1.802   5.757  0.5402  0.1757  0.4003
  109MOL0     C14927   9.524   1.822   5.781  0.0062  0.6103  0.4392
  109MOL0     O14928   9.470   1.703   5.837 -0.1216 -0.5306 -0.1400
  109MOL0     C14929   9.341   1.658   5.828 -0.0290 -0.6051 -0.7934
  109MOL0     C14930   9.246   1.717   5.746  0.0849  0.4423  0.0488
  109MOL0     C14931   9.108   1.685   5.753 -0.3050 -0.0498 -0.1008
  109MOL0     C14932   9.019   1.756   5.651 -0.8137  0.0024  0.6060
  109MOL0     C14933   9.070   1.577   5.840 -0.8868 -0.5753  0.4387
  109MOL0     C14934   8.925   1.536   5.837  0.4290  0.3065  0.6129
  109MOL0     O14935   8.912   1.401   5.856 -0.2318 -0.8390 -0.2678
  109MOL0     C14936   8.796   1.339   5.823  0.2755  0.4074  0.4929
  109MOL0     C14937   8.722   1.379   5.707  0.9327  0.1143  0.2598
  109MOL0     C14938   8.601   1.313   5.679 -0.3557 -0.0022  0.3938
  109MOL0     C14939   8.557   1.212   5.763  1.7230  1.0697  0.5763
  109MOL0     O14940   8.443   1.134   5.739 -0.7213 -0.1773  0.8853
  109MOL0     C14941   8.328   1.200   5.686  0.4471  0.6284  0.3110
  109MOL0     C14942   8.202   1.119   5.712  0.0630 -0.3617  0.8120
  109MOL0     C14943   8.176   1.068   5.850  0.4996 -0.6286  0.5705
  109MOL0     C14944   8.212   0.923   5.852  0.8319  0.2270  0.0795
  109MOL0     C14945   8.196   0.854   5.986  0.0885  1.0413 -0.5872
  109MOL0     C14946   8.259   0.942   6.092 -0.1663  0.3042 -1.2762
  109MOL0     C14947   8.277   0.867   6.225  0.1736 -0.5830  0.3083
  109MOL0     C14948   8.318   0.956   6.349 -0.8224  0.5603  0.9555
  109MOL0    Cl14949   8.462   1.059   6.320  0.1634 -0.0612  0.0053
  109MOL0     C14950   8.641   1.157   5.858 -0.2459  0.3042  0.0552
  109MOL0     C14951   8.760   1.219   5.881 -0.2075  0.1415 -0.9365
  109MOL0     O14952   8.836   1.623   5.830 -0.2834  0.4801 -0.0527
  109MOL0     C14953   9.164   1.509   5.918 -0.3250  0.5454 -0.6197
  109MOL0     C14954   9.309   1.548   5.905 -0.6434  0.6295  0.6596
  109MOL0     N14955  10.015   1.724   5.741  0.2549 -0.4968  0.9808
  109MOL0     N14956  10.137   1.687   5.754  0.5054  0.0426  0.7403
  109MOL0     C14957  10.495   1.640   6.189 -0.2105 -0.5033  0.0892
  109MOL0     C14958  10.435   1.727   6.280 -0.2296  0.2713 -0.0374
  109MOL0     C14959  10.171   1.967   6.540 -0.3199 -0.9821  0.6224
  109MOL0     C14960  10.169   2.098   6.467 -0.1043 -0.5092 -0.1427
  109MOL0     C14961  10.120   2.215   6.533 -0.3256  0.5168  0.1304
  109MOL0     C14962  10.073   2.204   6.658  0.1930  0.5887  0.0822
  109MOL0     O14963  10.022   2.313   6.727 -0.4294  0.5557 -0.2912
  109MOL0     C14964   9.893   2.283   6.772 -0.0878 -0.7992 -0.4074
  109MOL0     C14965   9.810   2.412   6.807  1.0815  0.0067 -0.2125
  109MOL0     C14966   9.675   2.389   6.892 -0.8892  0.4249  0.8169
  109MOL0     C14967   9.626   2.526   6.929  0.6042 -0.2659 -0.2416
  109MOL0     C14968   9.600   2.628   6.823  0.4463 -0.0509  0.0617
  109MOL0     C14969   9.583   2.710   6.737 -0.3521 -0.8749 -0.2929
  109MOL0     C14970  10.090   2.086   6.725  0.3562 -0.1120 -0.3204
  109MOL0     C14971  10.127   1.968   6.675 -1.0084  0.6863 -0.7426
  109MOL0     C14972  10.139   1.841   6.762  0.8423 -1.2911  0.2407
  109MOL0     H14973  10.143   1.788   6.109  0.0903 -0.1616 -0.0620
  109MOL0     H14974  10.256   1.624   5.957 -1.8496  1.0852  0.5174
  109MOL0     H14975  10.562   1.352   6.079  0.5697 -1.3328 -0.8657
  109MOL0     H14976  10.681   1.477   6.060  0.7686 -1.2286  1.7677
  109MOL0     H14977  10.749   1.283   5.936  0.8658  1.3633  0.2723
  109MOL0     H14978  10.589   1.267   5.853 -2.0069  0.5353 -0.0849
  109MOL0     H14979  10.802   1.488   5.816 -2.3802  3.6609 -2.8146
  109MOL0     H14980  10.790   1.335   5.728  3.2824 -0.2038  3.7436
  109MOL0     H14981  10.584   1.555   5.730  0.3883  1.8253 -2.4118
  109MOL0     H14982  10.707   1.522   5.600  1.7216 -2.1804 -1.2414
  109MOL0     H14983  10.472   1.344   5.683 -1.3322  3.2163  0.2865
  109MOL0     H14984  10.602   1.292   5.578 -1.1204  1.2363 -2.8532
  109MOL0     H14985  10.542   1.480   5.421  0.6888 -0.5601 -0.6795
  109MOL0     H14986  10.419   1.358   5.451  4.3665 -1.6493 -0.7367
  109MOL0     H14987  10.315   1.581   5.446  2.6332 -0.4339 -1.2786
  109MOL0     H14988  10.412   1.642   5.584 -3.5557 -0.3568  2.5369
  109MOL0     H14989  10.249   1.404   5.638 -2.7078  1.3991  0.1586
  109MOL0     H14990  10.350   1.513   5.741  1.0625  0.0705 -0.8301
  109MOL0     H14991  10.037   1.501   5.500 -2.1699  0.3543  1.7634
  109MOL0     H14992   9.814   1.601   5.507 -0.3753 -1.0910  2.1078
  109MOL0     H14993   9.810   1.780   5.525  0.8262  0.7534 -0.2187
  109MOL0     H14994   9.606   1.660   5.608  0.2278 -2.1085 -1.3171
  109MOL0     H14995   9.704   1.575   5.724 -2.8030 -1.5679 -3.6058
  109MOL0     H14996   9.730   1.813   5.849  0.1054  3.5195  0.3812
  109MOL0     H14997   9.689   1.895   5.703 -1.1220  1.6106  2.2066
  109MOL0     H14998   9.510   1.915   5.836  1.5669  1.2287 -0.1419
  109MOL0     H14999   9.481   1.852   5.685  0.9737  2.0993  0.4447
  109MOL0     H15000   9.260   1.796   5.673  0.7727 -1.1769 -1.6617
  109MOL0     H15001   9.071   1.798   5.564 -1.9683 -0.2398 -0.2171
  109MOL0     H15002   8.972   1.840   5.702 -1.8463 -2.0130  3.1397
  109MOL0     H15003   8.941   1.691   5.611 -1.8990  2.4744 -1.6249
  109MOL0     H15004   8.737   1.465   5.643 -0.8956 -0.2281 -0.7107
  109MOL0     H15005   8.532   1.356   5.608  0.6505 -0.0480 -0.6591
  109MOL0     H15006   8.313   1.300   5.728 -1.3812  1.1243 -1.3442
  109MOL0     H15007   8.332   1.217   5.578 -1.5922  0.5816  0.1817
  109MOL0     H15008   8.117   1.183   5.688 -1.4034 -1.4531  2.8150
  109MOL0     H15009   8.207   1.044   5.633 -2.3656 -0.7033  0.9058
  109MOL0     H15010   8.067   1.071   5.855  0.2730  2.1278 -2.6622
  109MOL0     H15011   8.231   1.129   5.923  0.4090 -1.2764  1.2002
  109MOL0     H15012   8.316   0.913   5.820  1.1779  3.1078  0.1136
  109MOL0     H15013   8.151   0.871   5.777  1.3351  0.0423 -0.2095
  109MOL0     H15014   8.099   0.814   6.017  0.7869  1.4609  2.4422
  109MOL0     H15015   8.260   0.765   5.984 -3.1455 -1.4959  0.5106
  109MOL0     H15016   8.190   1.022   6.120 -0.3926 -0.5437  0.7990
  109MOL0     H15017   8.356   0.982   6.062 -0.0293 -1.0813 -2.7966
  109MOL0     H15018   8.351   0.788   6.212 -2.2761 -3.0725  0.4367
  109MOL0     H15019   8.184   0.811   6.241 -0.2692 -0.1982 -0.8149
  109MOL0     H15020   8.338   0.875   6.419 -2.7161 -1.6442 -0.8709
  109MOL0     H15021   8.238   1.000   6.408  0.7303  0.2718  3.3997
  109MOL0     H15022   8.617   1.062   5.904 -0.2324  0.8495  1.2109
  109MOL0     H15023   8.811   1.184   5.970 -1.0130  1.4653  0.0800
  109MOL0     H15024   9.151   1.425   5.985 -1.1513 -0.3373 -1.8523
  109MOL0     H15025   9.383   1.481   5.947 -0.5370  1.5529  2.0074
  109MOL0     H15026  10.599   1.610   6.198  0.4106  1.8562  1.7529
  109MOL0     H15027  10.480   1.751   6.376  0.0742 -1.5252  0.3081
  109MOL0     H15028  10.201   2.096   6.363 -1.3512 -4.7737 -0.6203
  109MOL0     H15029  10.108   2.309   6.479  2.9056  0.0547 -1.6474
  109MOL0     H15030   9.840   2.223   6.697 -2.9133  0.3114  0.5493
  109MOL0     H15031   9.888   2.218   6.860  0.3196  0.4838  0.5984
  109MOL0     H15032   9.765   2.458   6.718 -1.0618  0.0150  0.7965
  109MOL0     H15033   9.856   2.489   6.870  0.4156  0.1243  0.1399
  109MOL0     H15034   9.605   2.342   6.822  0.5237  0.6579 -0.8175
  109MOL0     H15035   9.690   2.333   6.985 -0.6751 -0.4970  0.2478
  109MOL0     H15036   9.688   2.572   7.007 -0.8273 -3.7598  3.2962
  109MOL0     H15037   9.532   2.520   6.985 -0.4059 -2.1910 -1.9858
  109MOL0     H15038   9.570   2.780   6.657  1.4327  0.8052  0.8130
  109MOL0     H15039  10.078   2.089   6.833  0.9065 -0.5368 -0.2453
  109MOL0     H15040  10.244   1.844   6.793  1.2947  2.1106 -1.1881
  109MOL0     H15041  10.063   1.834   6.841  1.2333  0.2296  0.7790
  109MOL0     H15042  10.130   1.747   6.706  0.0545 -0.3576 -1.2530
  110MOL0     O15043   5.441   5.354   3.845 -0.5124 -0.3550 -0.2626
  110MOL0     C15044   5.554   5.400   3.879  0.4476 -0.9875 -0.5674
  110MOL0     O15045   5.583   5.470   3.994  0.1658 -0.3655 -0.1943
  110MOL0     C15046   5.491   5.483   4.089 -0.5077  0.5183 -0.6220
  110MOL0     C15047   5.366   5.546   4.073  0.1074 -0.6733  0.5805
  110MOL0     C15048   5.280   5.573   4.189 -0.5562 -0.8826 -0.0433
  110MOL0     C15049   5.330   5.548   4.321 -0.3533 -0.1000  0.5693
  110MOL0     O15050   5.242   5.582   4.414 -0.6359 -0.1291 -0.8344
  110MOL0     C15051   5.258   5.532   4.550 -0.5679 -0.0112 -0.4444
  110MOL0     C15052   5.135   5.579   4.628  0.1891 -0.1615 -0.6883
  110MOL0     C15053   5.011   5.510   4.585  0.6674 -0.2292 -0.1835
  110MOL0     C15054   4.881   5.554   4.658  1.1918  0.1558 -0.7647
  110MOL0     C15055   4.751   5.494   4.594 -0.0185 -0.3286  0.1637
  110MOL0     C15056   4.752   5.340   4.601 -0.0775 -0.3897 -0.7107
  110MOL0     C15057   4.621   5.273   4.548  0.4228 -0.8803 -0.4168
  110MOL0     C15058   4.619   5.129   4.616  0.6407  0.5331 -1.0628
  110MOL0     N15059   4.753   5.061   4.614  0.8653 -0.1313  0.1676
  110MOL0     C15060   4.812   5.016   4.497  0.6211  1.3224 -0.2681
  110MOL0     C15061   4.941   5.007   4.536  0.4702 -0.0115 -0.3079
  110MOL0     C15062   5.048   4.987   4.432 -1.0695  0.1197 -0.0532
  110MOL0     C15063   5.134   5.112   4.451  0.3252  0.4618  0.1191
  110MOL0     C15064   5.251   5.139   4.348 -0.5130 -0.2351 -0.1578
  110MOL0     C15065   5.188   5.203   4.223 -0.2744  0.1535 -0.4984
  110MOL0     O15066   5.116   5.103   4.153  0.0058 -1.2464  0.2552
  110MOL0     C15067   5.181   5.043   4.047 -0.0026  0.6004 -0.1728
  110MOL0     C15068   5.097   4.975   3.952  0.8111 -0.8541 -0.6053
  110MOL0     C15069   5.137   4.911   3.830 -0.2841 -0.3991 -0.1149
  110MOL0     C15070   5.036   4.823   3.761  0.3152 -0.2177 -0.0540
  110MOL0     C15071   5.278   4.930   3.801 -0.2308  0.5194  0.4261
  110MOL0     C15072   5.346   4.870   3.679 -0.3176 -0.0037  0.2887
  110MOL0     O15073   5.479   4.897   3.647  0.4151 -0.5104 -0.6262
  110MOL0     C15074   5.548   4.819   3.551  0.3358 -0.6187  0.4611
  110MOL0     C15075   5.517   4.842   3.422 -0.2485  0.3638 -0.4071
  110MOL0     C15076   5.585   4.782   3.313  0.2033 -1.0117 -0.0824
  110MOL0     C15077   5.678   4.690   3.340 -0.3662  0.9003  0.1839
  110MOL0     O15078   5.760   4.633   3.247  0.4742 -0.0519  0.5341
  110MOL0     C15079   5.833   4.721   3.158 -0.8849  0.3131 -0.5057
  110MOL0     C15080   5.945   4.794   3.231  0.3091  0.0874 -0.0569
  110MOL0     C15081   6.014   4.725   3.354  0.2166  0.1914 -0.0794
  110MOL0     C15082   6.161   4.752   3.390 -0.1797 -0.1292  0.3589
  110MOL0     C15083   6.212   4.638   3.489  0.7723 -0.1058  0.9282
  110MOL0     C15084   6.350   4.692   3.524 -0.6911  1.0404  0.4301
  110MOL0     C15085   6.410   4.621   3.652 -1.2376 -0.2184  0.4041
  110MOL0     C15086   6.342   4.700   3.770  0.7412  0.5110 -0.0858
  110MOL0    Cl15087   6.403   4.861   3.798 -0.2121 -0.2840  0.2442
  110MOL0     C15088   5.712   4.668   3.471  0.3936  0.5203 -0.6052
  110MOL0     C15089   5.644   4.725   3.580  0.1042 -0.6961  0.1542
  110MOL0     O15090   5.275   4.803   3.606 -0.1525 -0.1138 -0.3678
  110MOL0     C15091   5.366   4.989   3.893  1.0762  0.8018 -0.1486
  110MOL0     C15092   5.316   5.048   4.009 -0.2340  0.2853  0.0973
  110MOL0     N15093   4.963   5.031   4.673  0.6149  0.2044  0.6030
  110MOL0     N15094   4.844   5.069   4.713  0.0536 -0.0082  0.7885
  110MOL0     C15095   5.457   5.502   4.335 -0.4074  0.0483 -0.2429
  110MOL0     C15096   5.542   5.466   4.219 -0.0268 -1.0148 -0.5689
  110MOL0     C15097   5.656   5.433   3.779 -0.5267  0.4443 -0.3094
  110MOL0     C15098   5.714   5.555   3.762 -0.1688 -1.2599  1.1980
  110MOL0     C15099   5.815   5.568   3.667  0.0578 -1.0940 -0.5792
  110MOL0     C15100   5.852   5.469   3.585 -0.7154 -0.1150  1.0552
  110MOL0     O15101   5.953   5.487   3.481  0.2862 -0.4528 -0.6095
  110MOL0     C15102   5.883   5.492   3.359  0.0751 -0.3194  0.7611
  110MOL0     C15103   5.968   5.441   3.246 -0.0160 -0.2853  0.3759
  110MOL0     C15104   5.892   5.475   3.106 -0.3337 -0.4895  0.5607
  110MOL0     C15105   5.841   5.349   3.031  0.8955 -0.5217  0.7753
  110MOL0     C15106   5.788   5.243   3.121 -0.7302 -0.1957  0.5933
  110MOL0     C15107   5.764   5.159   3.213 -1.0702  0.9751  0.6044
  110MOL0     C15108   5.780   5.343   3.590  0.6562  0.1470 -0.1410
  110MOL0     C15109   5.684   5.326   3.687 -0.3480 -0.6413 -0.1400
  110MOL0     C15110   5.619   5.191   3.697 -0.3577 -0.2801 -1.0361
  110MOL0     H15111   5.337   5.563   3.970  0.1390 -2.5446  0.2092
  110MOL0     H15112   5.181   5.612   4.170 -1.0717 -1.9226  0.4262
  110MOL0     H15113   5.347   5.568   4.602 -1.8632  1.7595  0.6336
  110MOL0     H15114   5.262   5.423   4.543 -1.4149 -0.0838  0.0974
  110MOL0     H15115   5.165   5.565   4.732 -0.8508 -2.2264 -0.6289
  110MOL0     H15116   5.127   5.686   4.606  0.7622 -0.2344 -1.2846
  110MOL0     H15117   4.983   5.536   4.483  1.7642 -2.2427 -1.0535
  110MOL0     H15118   5.022   5.401   4.594 -3.7175 -0.9488 -1.4589
  110MOL0     H15119   4.886   5.512   4.759 -0.3910  0.8646 -0.3611
  110MOL0     H15120   4.856   5.660   4.654 -0.2681 -0.0772  0.8217
  110MOL0     H15121   4.739   5.520   4.489 -3.1654  1.3238  0.7883
  110MOL0     H15122   4.661   5.528   4.646 -1.5109 -2.3785 -0.9140
  110MOL0     H15123   4.835   5.299   4.542  0.3558  0.7902 -0.9526
  110MOL0     H15124   4.761   5.314   4.707 -0.3950  2.5965  0.1523
  110MOL0     H15125   4.619   5.264   4.439 -3.0311  1.0408 -0.6337
  110MOL0     H15126   4.530   5.322   4.585  0.9135 -1.4737  1.7453
  110MOL0     H15127   4.585   5.137   4.720  2.2034  1.6084 -0.5931
  110MOL0     H15128   4.556   5.061   4.558 -0.9122  0.2352  0.8883
  110MOL0     H15129   4.774   5.014   4.395  0.0945  2.7976 -0.1237
  110MOL0     H15130   5.003   4.978   4.333 -0.3203 -3.9786 -0.2178
  110MOL0     H15131   5.106   4.897   4.455 -1.1230 -0.4772 -2.0917
  110MOL0     H15132   5.061   5.193   4.458 -2.9701 -2.2496  0.0207
  110MOL0     H15133   5.172   5.106   4.553 -2.9449 -0.7552  1.3964
  110MOL0     H15134   5.323   5.202   4.401  1.0628 -1.4235 -0.8289
  110MOL0     H15135   5.303   5.046   4.326 -1.1066 -0.3398 -1.1479
  110MOL0     H15136   5.114   5.278   4.250  0.1119  0.2596  0.2696
  110MOL0     H15137   5.272   5.240   4.163 -0.3129  2.2584  0.6795
  110MOL0     H15138   4.995   4.964   3.989  1.6325 -0.2603  2.0762
  110MOL0     H15139   5.004   4.864   3.664  1.9941 -0.5291 -0.7774
  110MOL0     H15140   4.952   4.790   3.823 -0.4421 -4.4828 -2.8966
  110MOL0     H15141   5.082   4.728   3.734 -2.9776 -2.3998  1.3953
  110MOL0     H15142   5.425   4.898   3.409 -2.7840 -3.2849  0.2214
  110MOL0     H15143   5.572   4.802   3.207  3.7810 -1.0711 -0.6381
  110MOL0     H15144   5.872   4.671   3.069 -0.4663 -0.0009 -0.1451
  110MOL0     H15145   5.762   4.792   3.113 -1.7248 -1.1973 -1.6639
  110MOL0     H15146   6.022   4.814   3.155  1.5037 -0.6938  0.8991
  110MOL0     H15147   5.898   4.885   3.268 -0.3689  1.1171 -3.1541
  110MOL0     H15148   6.012   4.616   3.341 -0.2689  0.1911  0.0053
  110MOL0     H15149   5.956   4.753   3.442 -0.4549  0.4202 -0.5831
  110MOL0     H15150   6.170   4.846   3.446  0.1412 -0.9340  1.7084
  110MOL0     H15151   6.224   4.776   3.304 -1.4383 -0.9002 -0.8267
  110MOL0     H15152   6.147   4.637   3.577  0.5251 -0.9785  0.7423
  110MOL0     H15153   6.203   4.535   3.454 -3.0783  0.6799 -0.8757
  110MOL0     H15154   6.360   4.800   3.528 -0.6132  1.0046  1.3325
  110MOL0     H15155   6.412   4.661   3.439  0.4216  3.4058  0.3208
  110MOL0     H15156   6.520   4.618   3.650 -1.0778  1.7936  2.3255
  110MOL0     H15157   6.377   4.517   3.654  2.0358 -1.3861  0.3208
  110MOL0     H15158   6.330   4.646   3.864  1.2281  3.1601  1.6262
  110MOL0     H15159   6.239   4.718   3.737  0.6174 -1.2098 -0.7379
  110MOL0     H15160   5.787   4.594   3.496 -2.0712 -2.8439 -2.2982
  110MOL0     H15161   5.666   4.706   3.685  0.5465  2.3018  0.6828
  110MOL0     H15162   5.471   4.981   3.865  1.6620 -2.7275  2.4761
  110MOL0     H15163   5.381   5.113   4.065  0.2150  0.4364 -0.5947
  110MOL0     H15164   5.513   5.502   4.428 -0.4005  0.4699 -0.2464
  110MOL0     H15165   5.645   5.435   4.228  1.3350  3.3082  1.0234
  110MOL0     H15166   5.691   5.643   3.822  2.7811 -0.7282  1.6709
  110MOL0     H15167   5.869   5.662   3.660 -0.4877 -0.2668  3.6348
  110MOL0     H15168   5.785   5.443   3.363 -1.2169  1.9515 -0.7040
  110MOL0     H15169   5.861   5.598   3.346  0.5365 -0.2148  0.8294
  110MOL0     H15170   6.003   5.339   3.263  1.2874  0.1301  0.3267
  110MOL0     H15171   6.057   5.504   3.247  0.4431 -0.8205 -1.7003
  110MOL0     H15172   5.802   5.533   3.125 -0.5844 -0.5358 -0.4392
  110MOL0     H15173   5.964   5.518   3.036 -1.1717 -2.0594 -1.3644
  110MOL0     H15174   5.924   5.297   2.984  1.5088  1.7006 -0.8027
  110MOL0     H15175   5.763   5.372   2.958  1.1719 -0.8832  0.3631
  110MOL0     H15176   5.746   5.086   3.289  0.1698  2.1231  2.0666
  110MOL0     H15177   5.817   5.256   3.536  3.2947 -1.0714  3.2372
  110MOL0     H15178   5.520   5.186   3.652  0.0130 -1.8888 -1.7224
  110MOL0     H15179   5.679   5.111   3.652 -1.6363 -0.0988 -3.2014
  110MOL0     H15180   5.612   5.168   3.804 -1.8471 -0.1434 -1.0840
  111MOL0     O15181  10.467   3.701   8.695 -0.0338  0.1032 -0.6221
  111MOL0     C15182  10.417   3.811   8.725 -0.3823  0.5663  0.2095
  111MOL0     O15183  10.290   3.845   8.760 -0.0048  0.4442 -0.6524
  111MOL0     C15184  10.199   3.749   8.789 -0.0549  0.3221  0.0643
  111MOL0     C15185  10.228   3.632   8.861 -0.5440  0.1369 -0.6886
  111MOL0     C15186  10.126   3.557   8.918  0.1228  0.1736 -0.1156
  111MOL0     C15187   9.997   3.581   8.892  0.3174 -1.0097 -0.3298
  111MOL0     O15188   9.908   3.486   8.911  0.2851  0.0642  0.3196
  111MOL0     C15189   9.773   3.502   8.856 -0.8744 -0.2613 -0.2478
  111MOL0     C15190   9.703   3.363   8.871 -0.2710 -0.2029 -0.0089
  111MOL0     C15191   9.772   3.261   8.774 -0.0506 -0.4624 -0.2800
  111MOL0     C15192   9.700   3.121   8.752 -0.1425 -0.4167 -0.3174
  111MOL0     C15193   9.723   3.027   8.866 -0.1603  0.4541 -0.4765
  111MOL0     C15194   9.667   2.884   8.833  0.0263 -0.4803  0.2880
  111MOL0     C15195   9.645   2.814   8.966  0.8525  0.6014 -0.0021
  111MOL0     C15196   9.657   2.666   8.950  0.5024  0.8490 -0.4666
  111MOL0     N15197   9.640   2.594   9.080  0.2089  0.1229  0.6208
  111MOL0     C15198   9.519   2.563   9.138  0.8514 -0.0116 -0.1513
  111MOL0     C15199   9.553   2.545   9.266  0.0217  0.2639 -0.4750
  111MOL0     C15200   9.454   2.506   9.376 -0.1146  1.0273  1.2851
  111MOL0     C15201   9.470   2.578   9.507 -0.4087 -0.8575 -0.1282
  111MOL0     C15202   9.461   2.731   9.488 -0.0336  0.7281 -0.0601
  111MOL0     C15203   9.485   2.794   9.627 -0.0832  1.0911  0.3757
  111MOL0     O15204   9.376   2.760   9.709  0.3693  0.0809  0.5439
  111MOL0     C15205   9.300   2.868   9.753  0.1518  0.0040  0.3951
  111MOL0     C15206   9.338   2.959   9.854 -0.8158 -0.0870  0.6110
  111MOL0     C15207   9.256   3.067   9.895 -0.5550 -0.1751 -0.1055
  111MOL0     C15208   9.314   3.157  10.002 -0.6962  0.3654  0.4758
  111MOL0     C15209   9.135   3.101   9.839  0.0616  0.5650  0.2501
  111MOL0     C15210   9.052   3.213   9.880 -0.2571 -0.8097  0.0955
  111MOL0     O15211   8.921   3.181   9.897 -0.4263 -0.4364  0.2066
  111MOL0     C15212   8.863   3.260   9.986  0.8488 -0.3437 -0.6137
  111MOL0     C15213   8.832   3.206  10.112  1.3671  0.0430  0.4184
  111MOL0     C15214   8.760   3.292  10.198 -0.9946  0.7918 -0.1058
  111MOL0     C15215   8.731   3.425  10.160 -0.5634 -0.1144  0.1375
  111MOL0     O15216   8.678   3.494  10.257  1.2248  0.0986 -1.0056
  111MOL0     C15217   8.549   3.438  10.307  0.1116  0.2084 -0.0475
  111MOL0     C15218   8.483   3.540  10.397  1.2834  0.0374  0.3429
  111MOL0     C15219   8.364   3.491  10.471 -0.0392 -0.0688  0.2010
  111MOL0     C15220   8.405   3.410  10.594  0.0411 -0.4178 -0.2892
  111MOL0     C15221   8.279   3.390  10.688 -0.1800 -0.2113  1.0575
  111MOL0     C15222   8.246   3.504  10.789 -0.9334 -0.3431  0.2866
  111MOL0     C15223   8.132   3.457  10.879 -0.0335 -0.2004 -0.1643
  111MOL0     C15224   8.101   3.564  10.975 -1.0309 -0.1376 -0.7486
  111MOL0    Cl15225   8.068   3.714  10.897  0.0402 -0.1469 -0.2532
  111MOL0     C15226   8.756   3.482  10.029 -0.3609 -0.4501  0.3422
  111MOL0     C15227   8.811   3.387   9.946 -0.7634 -0.1750 -0.2509
  111MOL0     O15228   9.092   3.326   9.888  0.1541  0.1562  0.6986
  111MOL0     C15229   9.089   3.001   9.746 -0.3419  0.8362 -0.6349
  111MOL0     C15230   9.171   2.887   9.709  0.7338  0.2671  0.0974
  111MOL0     N15231   9.688   2.546   9.280 -0.2611 -0.1779 -0.1623
  111MOL0     N15232   9.742   2.576   9.167  0.2593  0.2754  0.2692
  111MOL0     C15233   9.970   3.705   8.826 -0.2714  0.2454  0.0682
  111MOL0     C15234  10.070   3.793   8.776  0.7016 -0.1023 -0.3285
  111MOL0     C15235  10.506   3.935   8.700  0.2887  0.0813  0.2352
  111MOL0     C15236  10.559   3.951   8.563 -0.0999  0.4044 -0.9607
  111MOL0     C15237  10.632   4.070   8.534  1.1618 -1.6583  0.1788
  111MOL0     C15238  10.657   4.160   8.643 -0.3838 -1.2002  0.5780
  111MOL0     O15239  10.728   4.282   8.623  0.0541 -0.3108  0.7747
  111MOL0     C15240  10.797   4.321   8.494  1.1182  0.8134 -0.6994
  111MOL0     C15241  10.725   4.447   8.435 -0.4206  0.4169 -0.4419
  111MOL0     C15242  10.764   4.580   8.505 -0.6858  0.7592 -1.4112
  111MOL0     C15243  10.667   4.699   8.481 -0.0960  0.3261  0.0397
  111MOL0     C15244  10.717   4.822   8.539 -0.1647 -0.5889 -0.8446
  111MOL0     C15245  10.751   4.918   8.600 -0.2459 -0.2585  0.6273
  111MOL0     C15246  10.631   4.133   8.773  0.3575  1.1134 -0.2865
  111MOL0     C15247  10.543   4.024   8.799 -0.2768  0.1805 -0.6334
  111MOL0     C15248  10.492   4.004   8.939 -0.1755 -0.3349  0.0641
  111MOL0     H15249  10.331   3.605   8.883 -1.1315 -0.6365  1.3503
  111MOL0     H15250  10.163   3.467   8.968  3.6420  0.4292 -1.9642
  111MOL0     H15251   9.768   3.536   8.752  3.3580  2.3262  0.1839
  111MOL0     H15252   9.714   3.580   8.905 -0.7464  2.0617 -3.5184
  111MOL0     H15253   9.712   3.325   8.973  1.2542 -0.1887 -0.1069
  111MOL0     H15254   9.598   3.369   8.843 -1.3962 -0.4859  3.5693
  111MOL0     H15255   9.784   3.314   8.679  2.6096 -1.9717 -0.8803
  111MOL0     H15256   9.874   3.248   8.813  0.2609  1.4925 -0.3433
  111MOL0     H15257   9.597   3.112   8.718 -0.1498 -2.1885  0.0936
  111MOL0     H15258   9.759   3.088   8.666 -1.7691  0.3501 -1.7988
  111MOL0     H15259   9.677   3.061   8.959 -1.4038  1.0402 -1.2851
  111MOL0     H15260   9.829   3.004   8.879  0.1594  2.4755  1.1244
  111MOL0     H15261   9.570   2.903   8.787  0.8041  2.4739 -0.3337
  111MOL0     H15262   9.738   2.834   8.766  0.0887  2.0834 -1.7115
  111MOL0     H15263   9.544   2.838   9.001  0.1217  0.9728 -2.2497
  111MOL0     H15264   9.725   2.834   9.038  1.4092  2.0184 -0.9558
  111MOL0     H15265   9.579   2.627   8.885  1.2511 -3.3510  0.8369
  111MOL0     H15266   9.753   2.634   8.907  0.2924 -1.2700  0.4921
  111MOL0     H15267   9.423   2.551   9.088  1.5226 -1.9767 -1.0520
  111MOL0     H15268   9.445   2.399   9.400 -0.6892  1.0183  1.0308
  111MOL0     H15269   9.354   2.534   9.342  0.3551  0.8632 -0.3139
  111MOL0     H15270   9.394   2.537   9.575 -1.8753 -1.6036 -2.1308
  111MOL0     H15271   9.563   2.562   9.561 -2.2356 -0.3067  3.5277
  111MOL0     H15272   9.550   2.749   9.428  1.5108 -0.7355  1.6816
  111MOL0     H15273   9.366   2.762   9.443 -0.0905  1.6994  0.6940
  111MOL0     H15274   9.571   2.747   9.676 -1.3768 -3.1389 -1.0008
  111MOL0     H15275   9.514   2.898   9.610  2.1483 -0.0617 -4.3148
  111MOL0     H15276   9.431   2.956   9.910 -1.3917  1.2485  1.6842
  111MOL0     H15277   9.350   3.248   9.953 -1.0122 -0.4061 -1.2578
  111MOL0     H15278   9.392   3.097  10.051  2.0948  1.5607 -2.1759
  111MOL0     H15279   9.236   3.176  10.077  0.7425 -0.3531  2.2367
  111MOL0     H15280   8.854   3.106  10.148 -0.4710 -0.1415  1.1269
  111MOL0     H15281   8.725   3.253  10.293 -1.5421 -1.4538 -1.1820
  111MOL0     H15282   8.474   3.406  10.233 -0.3679  0.4884  0.3161
  111MOL0     H15283   8.561   3.341  10.356  2.6313 -0.9203 -2.5808
  111MOL0     H15284   8.555   3.582  10.468  1.7576  3.2893 -1.8641
  111MOL0     H15285   8.451   3.625  10.337 -1.4134 -0.1642  1.3315
  111MOL0     H15286   8.308   3.430  10.400  3.1176  0.3972 -2.9810
  111MOL0     H15287   8.301   3.578  10.492 -0.4190  0.5716 -3.0523
  111MOL0     H15288   8.470   3.471  10.657 -2.8566  1.9047  0.7113
  111MOL0     H15289   8.432   3.305  10.579 -1.0688 -0.4483 -2.3981
  111MOL0     H15290   8.195   3.380  10.619  0.7952 -0.8963 -0.0596
  111MOL0     H15291   8.281   3.297  10.746 -0.5698  0.6418  2.4917
  111MOL0     H15292   8.215   3.592  10.732 -0.2493  3.0509  4.6458
  111MOL0     H15293   8.332   3.536  10.848 -0.8323 -0.3835  0.1613
  111MOL0     H15294   8.150   3.362  10.929  0.4681 -0.5612 -1.0077
  111MOL0     H15295   8.051   3.464  10.806  2.9766  0.7406 -3.7314
  111MOL0     H15296   8.186   3.569  11.044  2.7381 -1.2774 -4.8632
  111MOL0     H15297   8.016   3.536  11.038  0.4666 -2.6927  0.3085
  111MOL0     H15298   8.732   3.582   9.993 -2.3413 -1.8144 -2.5024
  111MOL0     H15299   8.828   3.415   9.842  3.6275 -1.5113 -0.0959
  111MOL0     H15300   8.995   3.006   9.691  1.5752  0.3873 -4.1941
  111MOL0     H15301   9.124   2.816   9.641  1.4399 -0.5132  0.4041
  111MOL0     H15302   9.868   3.737   8.805 -0.5129  0.2664  1.2045
  111MOL0     H15303  10.035   3.894   8.754  2.0468  1.1044  2.5723
  111MOL0     H15304  10.544   3.872   8.490  1.8380 -1.0100  0.0677
  111MOL0     H15305  10.665   4.093   8.434 -1.5263 -0.4385 -0.5126
  111MOL0     H15306  10.904   4.336   8.508  1.2481 -0.8484  0.3845
  111MOL0     H15307  10.787   4.238   8.423  1.2400 -1.1090  1.4437
  111MOL0     H15308  10.618   4.433   8.446 -1.5535  4.5223 -3.7502
  111MOL0     H15309  10.744   4.454   8.327  3.3990 -4.1925 -0.4134
  111MOL0     H15310  10.765   4.563   8.613 -0.2771  2.4983 -1.1043
  111MOL0     H15311  10.869   4.598   8.477  1.0178 -3.0994  1.5392
  111MOL0     H15312  10.572   4.672   8.527 -1.4433  0.3410 -2.5385
  111MOL0     H15313  10.661   4.708   8.372 -2.2198  0.1557  0.0995
  111MOL0     H15314  10.796   4.998   8.655 -0.1269 -1.0455  1.6975
  111MOL0     H15315  10.673   4.184   8.859 -0.6968 -1.4557  1.8867
  111MOL0     H15316  10.527   3.904   8.966  2.4427  0.5817  0.3520
  111MOL0     H15317  10.542   4.074   9.006 -1.7786 -1.0692  2.1098
  111MOL0     H15318  10.383   4.013   8.945  0.0147  3.9773 -0.1022
  112MOL0     O15319  10.958   7.949   8.536  0.7647  0.3874  0.0570
  112MOL0     C15320  11.029   8.037   8.497 -0.0117  1.4118  0.1465
  112MOL0     O15321  11.019   8.091   8.370  0.0017 -0.5050 -0.0998
  112MOL0     C15322  10.929   8.035   8.285 -0.2178 -0.0540  0.0907
  112MOL0     C15323  10.803   8.081   8.281  0.6926 -0.2461  0.0600
  112MOL0     C15324  10.713   8.051   8.177 -0.4432  0.2100 -0.0277
  112MOL0     C15325  10.754   7.974   8.071 -0.0754 -0.1139 -0.3745
  112MOL0     O15326  10.657   7.941   7.973 -0.9159  0.3861 -1.0479
  112MOL0     C15327  10.681   7.895   7.837  0.3035  0.8454 -0.8881
  112MOL0     C15328  10.603   7.762   7.808  0.3361 -0.0740 -0.4962
  112MOL0     C15329  10.668   7.641   7.869 -0.2848 -0.0079  0.5977
  112MOL0     C15330  10.674   7.508   7.795  0.4854  0.4631  0.8854
  112MOL0     C15331  10.730   7.395   7.884 -0.5814  0.3876  0.3788
  112MOL0     C15332  10.744   7.274   7.799  0.2376 -0.2049  0.0270
  112MOL0     C15333  10.774   7.141   7.868 -1.2235  0.1440  0.5594
  112MOL0     C15334  10.677   7.113   7.979 -0.2296  0.2123  0.0470
  112MOL0     N15335  10.683   6.963   8.010 -0.2252 -1.1753  0.2524
  112MOL0     C15336  10.803   6.901   8.048  0.3242  0.3452 -0.1495
  112MOL0     C15337  10.760   6.773   8.062  1.3574  0.7678 -0.3248
  112MOL0     C15338  10.850   6.657   8.096 -0.3776  0.0845 -0.7157
  112MOL0     C15339  10.850   6.543   7.989 -0.4643 -0.5337 -0.5710
  112MOL0     C15340  10.958   6.567   7.873  0.6570  0.5337 -0.6543
  112MOL0     C15341  10.957   6.706   7.799 -0.1699 -0.0174 -0.2573
  112MOL0     O15342  11.043   6.794   7.872 -0.1236 -0.3742  0.1044
  112MOL0     C15343  11.075   6.916   7.824 -0.1221 -0.4170  0.4071
  112MOL0     C15344  11.026   6.971   7.699  0.1255  0.3250 -0.2930
  112MOL0     C15345  11.053   7.105   7.667 -0.2685  0.5507 -0.2483
  112MOL0     C15346  11.021   7.150   7.525 -0.3858  0.4056  0.1500
  112MOL0     C15347  11.132   7.184   7.753  0.1430  0.5653 -0.6627
  112MOL0     C15348  11.162   7.326   7.718  0.0196  0.7430  0.0912
  112MOL0     O15349  11.089   7.394   7.634  0.3484 -0.6588  0.3807
  112MOL0     C15350  11.053   7.530   7.655  0.7553 -1.1489 -0.0748
  112MOL0     C15351  10.973   7.605   7.560  0.3102 -0.1303  0.6133
  112MOL0     C15352  10.961   7.742   7.568 -1.0073 -0.5953  0.2850
  112MOL0     C15353  11.016   7.807   7.673 -0.7805  0.5061  0.5496
  112MOL0     O15354  11.021   7.943   7.687 -0.2938 -0.0474 -0.3763
  112MOL0     C15355  11.140   7.991   7.614 -0.1215 -0.0799 -0.8929
  112MOL0     C15356  11.166   8.138   7.655  0.4127  0.9376 -0.1098
  112MOL0     C15357  11.232   8.161   7.794 -0.2299  0.3562  0.0131
  112MOL0     C15358  11.144   8.144   7.911 -0.5738 -0.2085  0.6734
  112MOL0     C15359  11.210   8.187   8.041  1.0094 -0.7676 -0.8725
  112MOL0     C15360  11.335   8.100   8.078  0.1247 -0.8253 -0.0265
  112MOL0     C15361  11.417   8.142   8.201  0.1089  1.4238  0.8479
  112MOL0     C15362  11.370   8.096   8.336 -0.5051 -0.1791 -0.0748
  112MOL0    Cl15363  11.505   8.157   8.452 -0.1167 -0.1617  0.3417
  112MOL0     C15364  11.081   7.738   7.771  0.2665 -0.0762  0.5111
  112MOL0     C15365  11.100   7.604   7.770  0.6393  0.9603  0.5946
  112MOL0     O15366  11.268   7.368   7.764  0.3939 -0.7791  0.5584
  112MOL0     C15367  11.175   7.132   7.877  0.1706 -1.1842 -0.0736
  112MOL0     C15368  11.145   7.002   7.914 -0.4003 -0.6468 -0.3128
  112MOL0     N15369  10.628   6.764   8.035 -0.1162 -0.4633  0.5643
  112MOL0     N15370  10.585   6.874   7.998  0.4327 -0.3136 -0.3841
  112MOL0     C15371  10.888   7.933   8.073  1.0113 -0.3795 -0.1947
  112MOL0     C15372  10.973   7.962   8.176  0.8612  0.2458  0.5820
  112MOL0     C15373  11.119   8.104   8.596 -0.5958  1.0297 -0.7288
  112MOL0     C15374  11.142   8.238   8.573  0.2079 -0.0165 -0.0610
  112MOL0     C15375  11.244   8.301   8.645  0.9343  0.4163  0.0995
  112MOL0     C15376  11.308   8.248   8.760 -0.4158  0.4696 -0.3483
  112MOL0     O15377  11.377   8.332   8.836 -0.5760 -0.3179  0.6198
  112MOL0     C15378  11.409   8.291   8.968  0.1570  1.6908 -0.6182
  112MOL0     C15379  11.513   8.385   9.015 -0.7879  1.0493 -0.0275
  112MOL0     C15380  11.568   8.331   9.151 -0.3517 -0.1785  0.1345
  112MOL0     C15381  11.475   8.374   9.261  0.2152  0.1522  0.4248
  112MOL0     C15382  11.515   8.317   9.389 -0.0843  0.5895  0.4991
  112MOL0     C15383  11.566   8.268   9.483 -0.5216  0.2001  0.4059
  112MOL0     C15384  11.269   8.117   8.791 -0.4960 -0.0800 -0.1177
  112MOL0     C15385  11.187   8.037   8.710  0.3298  0.1214  0.0639
  112MOL0     C15386  11.167   7.892   8.745  0.2957 -1.0078 -0.9163
  112MOL0     H15387  10.761   8.133   8.367 -2.9601 -2.4248 -0.1656
  112MOL0     H15388  10.610   8.078   8.194  0.6746  3.6815  2.4427
  112MOL0     H15389  10.782   7.867   7.804  0.5880  0.4148  0.2912
  112MOL0     H15390  10.647   7.971   7.766 -2.2417  0.3898 -0.2346
  112MOL0     H15391  10.507   7.765   7.861  1.2205  0.7622  1.1580
  112MOL0     H15392  10.595   7.751   7.700 -0.6174 -1.0965 -0.3407
  112MOL0     H15393  10.771   7.666   7.897 -0.9438  0.3829  2.9362
  112MOL0     H15394  10.617   7.635   7.966 -0.7954 -2.5564  0.2463
  112MOL0     H15395  10.574   7.478   7.762 -0.0126  1.3168  1.5645
  112MOL0     H15396  10.733   7.531   7.706 -1.0329  1.5726  0.1152
  112MOL0     H15397  10.657   7.369   7.962 -1.7385 -0.9620 -1.0992
  112MOL0     H15398  10.824   7.423   7.932  0.5888 -0.4534 -1.3692
  112MOL0     H15399  10.647   7.270   7.749  0.1835  0.1325  0.1055
  112MOL0     H15400  10.813   7.291   7.716 -1.5687  1.0631 -1.2799
  112MOL0     H15401  10.865   7.154   7.927 -1.5467 -0.5399  1.2236
  112MOL0     H15402  10.767   7.055   7.801  4.5831 -2.2078  2.3157
  112MOL0     H15403  10.702   7.173   8.067  1.2899  0.6507 -0.6621
  112MOL0     H15404  10.577   7.152   7.957  0.1333  1.0001 -0.2050
  112MOL0     H15405  10.906   6.929   8.070  0.6483 -1.2681  0.5636
  112MOL0     H15406  10.809   6.621   8.191  0.1907 -1.4584 -1.0395
  112MOL0     H15407  10.950   6.691   8.126 -1.1551  1.0954  0.8688
  112MOL0     H15408  10.868   6.446   8.036  6.3607 -1.1328 -3.2403
  112MOL0     H15409  10.750   6.530   7.947 -1.4408  1.6809  0.8678
  112MOL0     H15410  11.050   6.559   7.932  0.1445  1.9308  0.4084
  112MOL0     H15411  10.952   6.487   7.799  0.9601 -0.0760 -0.0403
  112MOL0     H15412  10.989   6.699   7.694 -0.0157 -1.1936 -0.1505
  112MOL0     H15413  10.852   6.735   7.799 -0.2831 -0.3478  1.1694
  112MOL0     H15414  10.971   6.910   7.628 -0.1517  0.8698 -0.5582
  112MOL0     H15415  11.112   7.189   7.479 -0.2092  0.4255  0.5127
  112MOL0     H15416  10.948   7.232   7.525  1.9420  2.6079 -0.8683
  112MOL0     H15417  10.997   7.056   7.474 -0.3112  1.3558 -1.7029
  112MOL0     H15418  10.927   7.536   7.489 -0.5776 -0.2606  1.2846
  112MOL0     H15419  10.918   7.800   7.486 -1.8103 -1.5584  0.0057
  112MOL0     H15420  11.230   7.931   7.631 -0.9582 -1.3332 -0.8024
  112MOL0     H15421  11.116   7.994   7.508 -2.8846 -1.4471 -0.3936
  112MOL0     H15422  11.231   8.177   7.576 -0.1622  2.7604  0.2636
  112MOL0     H15423  11.071   8.192   7.646  0.2062  0.2541 -3.6411
  112MOL0     H15424  11.275   8.261   7.803  0.3367  0.0857  0.3825
  112MOL0     H15425  11.314   8.089   7.802 -1.5262 -1.4724 -2.0803
  112MOL0     H15426  11.127   8.036   7.917 -2.6070 -0.0084 -0.6226
  112MOL0     H15427  11.052   8.202   7.895 -0.0318  0.1068 -1.6336
  112MOL0     H15428  11.231   8.295   8.041 -0.0697 -0.3646  3.3043
  112MOL0     H15429  11.139   8.177   8.124  2.3844  0.9149  0.6041
  112MOL0     H15430  11.397   8.105   7.989 -3.1349  0.6308 -2.4059
  112MOL0     H15431  11.309   7.994   8.093 -0.5586 -0.6774 -0.1493
  112MOL0     H15432  11.421   8.252   8.204  2.2860  1.4216 -0.0312
  112MOL0     H15433  11.519   8.105   8.186  0.4417  3.2547 -2.3757
  112MOL0     H15434  11.374   7.987   8.334  0.9273 -0.1502 -2.0120
  112MOL0     H15435  11.274   8.139   8.365 -1.1193 -1.5866  0.0416
  112MOL0     H15436  11.100   7.800   7.858  0.0550 -1.4109  1.5479
  112MOL0     H15437  11.138   7.557   7.861 -0.0976  0.9807  0.9225
  112MOL0     H15438  11.238   7.196   7.938  1.0732 -1.7896 -0.3532
  112MOL0     H15439  11.184   6.959   8.006 -1.0223  0.8275  0.6734
  112MOL0     H15440  10.918   7.893   7.977 -2.9062  1.3245 -2.4024
  112MOL0     H15441  11.075   7.927   8.168  0.8251  0.1555  0.5226
  112MOL0     H15442  11.086   8.291   8.497 -1.6737  0.8634  1.8413
  112MOL0     H15443  11.272   8.403   8.623  0.0908  0.8353  0.8688
  112MOL0     H15444  11.317   8.291   9.027  0.8013 -2.1615  0.6651
  112MOL0     H15445  11.452   8.191   8.968 -1.8290  0.7937 -1.5999
  112MOL0     H15446  11.467   8.483   9.024 -0.5964  1.0159  1.7019
  112MOL0     H15447  11.596   8.380   8.943 -1.8357 -5.6437 -1.4032
  112MOL0     H15448  11.589   8.225   9.133  3.2952  0.5808 -0.9660
  112MOL0     H15449  11.670   8.360   9.180 -0.0655 -2.9798  2.3841
  112MOL0     H15450  11.370   8.359   9.234  0.4874  1.7897 -1.8932
  112MOL0     H15451  11.469   8.482   9.279 -1.4331  0.2266 -0.3189
  112MOL0     H15452  11.616   8.235   9.572  0.5438 -1.7045 -0.8092
  112MOL0     H15453  11.304   8.072   8.883  0.6205 -0.4730 -0.7095
  112MOL0     H15454  11.154   7.815   8.667  3.3306 -1.5760 -0.9796
  112MOL0     H15455  11.260   7.868   8.796  1.0187 -0.1025 -1.7849
  112MOL0     H15456  11.081   7.888   8.813 -0.3001  1.3316 -1.4470
  113MOL0     O15457   6.945   7.124  10.302  0.0382 -0.2772  0.0965
  113MOL0     C15458   6.944   7.123  10.173  1.0298 -0.2817 -1.1504
  113MOL0     O15459   6.911   7.230  10.095  0.4199 -0.6089 -0.0258
  113MOL0     C15460   6.854   7.339  10.171 -0.0969  0.3899  0.6810
  113MOL0     C15461   6.941   7.446  10.209 -0.0847 -0.8043  0.6644
  113MOL0     C15462   6.898   7.552  10.286 -0.7110 -0.4449  0.2022
  113MOL0     C15463   6.761   7.555  10.316  0.1423  0.4232  0.4433
  113MOL0     O15464   6.707   7.638  10.399  0.3087 -0.2667  0.0491
  113MOL0     C15465   6.754   7.769  10.385 -1.2898 -0.2427  0.4078
  113MOL0     C15466   6.648   7.874  10.440  0.2445  0.6650  0.2206
  113MOL0     C15467   6.712   7.945  10.555  0.3332 -0.5896  0.2731
  113MOL0     C15468   6.604   8.045  10.598  0.2155  0.1956  0.4820
  113MOL0     C15469   6.609   8.095  10.739 -0.3249 -0.3932 -0.9082
  113MOL0     C15470   6.478   8.168  10.778  0.6620 -0.1481 -0.6160
  113MOL0     C15471   6.491   8.255  10.899 -0.4241  0.3531 -0.6039
  113MOL0     C15472   6.573   8.389  10.863  0.2564 -0.3667  0.2913
  113MOL0     N15473   6.582   8.455  11.001 -0.1465  0.5661 -0.1720
  113MOL0     C15474   6.610   8.389  11.122 -0.6246  0.0318 -0.6257
  113MOL0     C15475   6.633   8.497  11.210 -0.9446 -0.1266 -0.5546
  113MOL0     C15476   6.669   8.480  11.362 -0.8607  0.7054  0.3462
  113MOL0     C15477   6.816   8.543  11.400 -0.1236 -0.1137  0.7210
  113MOL0     C15478   6.847   8.510  11.534  0.7362  0.4150 -0.1844
  113MOL0     C15479   6.771   8.608  11.633 -0.5474  0.6349  0.6250
  113MOL0     O15480   6.822   8.580  11.762  0.6277  0.1886 -0.1062
  113MOL0     C15481   6.783   8.644  11.873  0.1970 -0.3204 -0.7333
  113MOL0     C15482   6.689   8.744  11.888 -0.0452 -0.3059  0.1027
  113MOL0     C15483   6.663   8.806  12.012 -0.1498 -0.0560 -0.3579
  113MOL0     C15484   6.573   8.922  11.990 -0.2583 -0.7510 -0.4480
  113MOL0     C15485   6.714   8.758  12.129  0.5866  0.0846  0.7808
  113MOL0     C15486   6.690   8.816  12.263 -0.1337 -0.2447  0.1528
  113MOL0     O15487   6.767   8.762  12.358  0.0417  0.2704  0.5460
  113MOL0     C15488   6.791   8.820  12.474 -0.7950  0.5579  0.4760
  113MOL0     C15489   6.832   8.733  12.578 -0.5722 -0.0386  0.4247
  113MOL0     C15490   6.891   8.791  12.696 -0.2991  0.2713  0.2462
  113MOL0     C15491   6.912   8.930  12.723 -0.6448 -0.0398  0.6182
  113MOL0     O15492   6.971   8.984  12.837 -0.7682 -0.1213 -0.2320
  113MOL0     C15493   7.016   9.117  12.830  0.1316  0.2906 -0.3108
  113MOL0     C15494   7.105   9.155  12.945 -0.3847  0.4492 -0.3200
  113MOL0     C15495   7.070   9.297  12.992  0.4598 -1.0696  0.1432
  113MOL0     C15496   7.145   9.310  13.130  0.0180  0.3441  0.3557
  113MOL0     C15497   7.176   9.458  13.166  0.9191  0.0688 -0.2214
  113MOL0     C15498   7.281   9.461  13.282 -0.8630  0.3134 -0.3173
  113MOL0     C15499   7.319   9.611  13.314  1.2829  0.4996  0.5780
  113MOL0     C15500   7.439   9.609  13.406  0.2904 -0.4746  0.2375
  113MOL0    Cl15501   7.388   9.607  13.580  0.0696 -0.4209  0.2044
  113MOL0     C15502   6.853   9.010  12.617  0.8584 -0.1406 -0.3284
  113MOL0     C15503   6.810   8.960  12.491  0.4842  0.1695  0.1007
  113MOL0     O15504   6.604   8.897  12.289 -0.5097  0.6668  0.2396
  113MOL0     C15505   6.811   8.652  12.116  0.4418  0.2355  0.0972
  113MOL0     C15506   6.843   8.600  11.991  0.5723  0.7247 -0.4177
  113MOL0     N15507   6.581   8.609  11.152 -0.2146 -0.0134 -0.8606
  113MOL0     N15508   6.553   8.587  11.028 -0.0696 -0.2875  0.1478
  113MOL0     C15509   6.672   7.448  10.273 -0.0069  0.4154 -0.4972
  113MOL0     C15510   6.716   7.343  10.204 -0.2001  0.4465  0.2184
  113MOL0     C15511   6.973   6.998  10.103 -0.7469  0.3425 -0.1188
  113MOL0     C15512   6.938   6.990   9.964 -0.4810  0.2695  0.4518
  113MOL0     C15513   6.957   6.878   9.883  0.1377  0.1817 -0.4690
  113MOL0     C15514   6.997   6.765   9.941  0.0427 -0.1942 -0.2444
  113MOL0     O15515   7.027   6.654   9.871  0.2063  0.4743 -0.2615
  113MOL0     C15516   7.160   6.606   9.861 -0.1256  0.4458 -0.1606
  113MOL0     C15517   7.166   6.527   9.731  0.1786  0.4831  0.7945
  113MOL0     C15518   7.315   6.481   9.715 -0.2358 -0.0638  0.5317
  113MOL0     C15519   7.417   6.590   9.664  0.5686  0.5097  0.1467
  113MOL0     C15520   7.376   6.630   9.527  0.1967  0.1805  0.1990
  113MOL0     C15521   7.339   6.648   9.415 -0.2537  0.7788 -0.9376
  113MOL0     C15522   7.039   6.761  10.074 -0.5693 -0.4332 -0.6018
  113MOL0     C15523   7.018   6.872  10.157  0.1694  1.2058  0.8407
  113MOL0     C15524   7.075   6.866  10.295  0.7206  0.2593 -0.7504
  113MOL0     H15525   7.043   7.446  10.173  0.1605  1.6960  1.1874
  113MOL0     H15526   6.969   7.626  10.320  0.3470 -1.2869 -0.1193
  113MOL0     H15527   6.777   7.802  10.283 -1.0992 -3.8873 -0.8882
  113MOL0     H15528   6.846   7.792  10.440  0.1349 -2.2623 -0.9792
  113MOL0     H15529   6.623   7.937  10.354 -2.9255  0.7546  1.0637
  113MOL0     H15530   6.547   7.836  10.462 -0.8451  3.2224  0.0269
  113MOL0     H15531   6.727   7.874  10.637 -0.0266 -0.3819  0.5264
  113MOL0     H15532   6.808   7.986  10.522 -0.5328  1.3142 -0.0123
  113MOL0     H15533   6.622   8.126  10.527  2.2671  0.5750  1.3694
  113MOL0     H15534   6.503   8.003  10.601  0.5088 -0.5657  0.1016
  113MOL0     H15535   6.691   8.163  10.765  0.5657 -0.8704 -2.3329
  113MOL0     H15536   6.602   8.007  10.804 -1.0867  0.6901  0.5304
  113MOL0     H15537   6.452   8.231  10.692 -4.2731 -0.8605  0.0545
  113MOL0     H15538   6.394   8.098  10.791 -0.4356  1.3081  0.5574
  113MOL0     H15539   6.548   8.202  10.976 -0.5869 -0.7830 -1.2566
  113MOL0     H15540   6.399   8.288  10.948  0.6897  0.3073  1.6537
  113MOL0     H15541   6.671   8.384  10.815 -0.4515  0.0837 -1.2602
  113MOL0     H15542   6.514   8.447  10.791 -0.6592 -3.3883 -1.5798
  113MOL0     H15543   6.622   8.285  11.152 -0.8038 -0.4465 -2.1209
  113MOL0     H15544   6.660   8.373  11.383 -1.7320 -0.1071 -3.3155
  113MOL0     H15545   6.597   8.546  11.412 -0.6473  1.3081 -0.1277
  113MOL0     H15546   6.894   8.496  11.340  0.1817 -1.7364  2.3076
  113MOL0     H15547   6.816   8.651  11.384  0.8746 -0.2387 -0.1739
  113MOL0     H15548   6.830   8.402  11.544  0.0185  0.5061 -0.3233
  113MOL0     H15549   6.951   8.532  11.558  0.4066  0.8108  0.9940
  113MOL0     H15550   6.796   8.710  11.603  2.5258  0.1679  1.3078
  113MOL0     H15551   6.670   8.565  11.625  0.9285 -2.7572 -2.9512
  113MOL0     H15552   6.651   8.775  11.791 -0.4149 -0.5939  0.1555
  113MOL0     H15553   6.570   8.949  11.884 -0.3874 -0.9964 -0.5066
  113MOL0     H15554   6.613   9.010  12.041  1.2856 -1.9761  0.5776
  113MOL0     H15555   6.471   8.909  12.026  0.4374 -1.2217  1.4790
  113MOL0     H15556   6.833   8.624  12.576 -0.8158 -0.0720  1.6125
  113MOL0     H15557   6.942   8.731  12.771  2.4705  2.3045  0.1227
  113MOL0     H15558   7.068   9.144  12.737  1.7512  0.9473  0.7340
  113MOL0     H15559   6.930   9.184  12.835  0.3964  0.5565  2.7972
  113MOL0     H15560   7.083   9.079  13.020  1.4622  1.0086  0.8432
  113MOL0     H15561   7.212   9.142  12.925 -0.5598 -1.0333 -0.4149
  113MOL0     H15562   6.962   9.307  13.001 -0.0421 -2.9173 -2.6672
  113MOL0     H15563   7.120   9.367  12.924  0.1421  2.6259  3.3464
  113MOL0     H15564   7.240   9.256  13.124  1.2251  2.2707  1.1831
  113MOL0     H15565   7.080   9.267  13.206  0.9320 -0.5600  0.6514
  113MOL0     H15566   7.209   9.514  13.077  0.2335 -0.8068 -1.0517
  113MOL0     H15567   7.083   9.506  13.199 -0.7226 -2.1251 -1.3763
  113MOL0     H15568   7.369   9.398  13.267 -1.3441 -0.4203 -0.1036
  113MOL0     H15569   7.241   9.427  13.378  0.6826 -0.0421  0.2310
  113MOL0     H15570   7.235   9.678  13.336  0.5291 -0.0797 -0.4515
  113MOL0     H15571   7.356   9.652  13.220 -1.3718  0.5843 -0.5458
  113MOL0     H15572   7.504   9.694  13.386 -0.1732 -0.3301 -0.7179
  113MOL0     H15573   7.499   9.521  13.385  0.8111  0.3245 -1.8582
  113MOL0     H15574   6.845   9.118  12.613  0.9734 -0.1590 -1.2855
  113MOL0     H15575   6.778   9.022  12.408  1.8279  0.8028  0.0329
  113MOL0     H15576   6.869   8.619  12.202  2.8632  0.7439 -1.2438
  113MOL0     H15577   6.911   8.515  11.991 -1.6519 -1.1613  0.1262
  113MOL0     H15578   6.571   7.461  10.312 -1.0682  2.9224 -3.6089
  113MOL0     H15579   6.654   7.267  10.156  1.0975 -0.5016 -0.0254
  113MOL0     H15580   6.904   7.075   9.907 -1.1945 -0.8391 -0.8270
  113MOL0     H15581   6.930   6.864   9.779  1.1729 -2.2502 -0.4847
  113MOL0     H15582   7.223   6.696   9.865 -1.7834  1.6729  3.9437
  113MOL0     H15583   7.187   6.548   9.950  0.2845  2.6869  1.2650
  113MOL0     H15584   7.137   6.587   9.644 -0.4314 -0.4956  0.3036
  113MOL0     H15585   7.099   6.441   9.724  0.6798  0.2233 -4.5032
  113MOL0     H15586   7.361   6.432   9.802  2.3634 -1.2376 -1.3681
  113MOL0     H15587   7.324   6.405   9.637  3.1414 -0.7423  1.4056
  113MOL0     H15588   7.518   6.550   9.652  1.2278  2.6410 -2.5697
  113MOL0     H15589   7.408   6.681   9.725  1.4570  1.9221 -1.7015
  113MOL0     H15590   7.309   6.654   9.312 -1.5623  1.5209 -0.5395
  113MOL0     H15591   7.073   6.665  10.110  0.3805  0.4941  1.0722
  113MOL0     H15592   6.996   6.865  10.370  1.5842 -0.4523  0.1860
  113MOL0     H15593   7.141   6.779  10.308  2.6178  2.0207  2.7269
  113MOL0     H15594   7.136   6.954  10.315  1.8914 -0.2350 -2.0078
  114MOL0     O15595   8.653   2.927   4.835 -0.2319  0.0137 -0.3348
  114MOL0     C15596   8.577   2.835   4.826 -0.0699 -0.8788  0.1207
  114MOL0     O15597   8.600   2.705   4.862 -0.0277  0.6966 -0.7735
  114MOL0     C15598   8.730   2.669   4.883  0.8240  0.1104 -0.0384
  114MOL0     C15599   8.779   2.660   5.015  0.5044 -0.6923 -0.3402
  114MOL0     C15600   8.908   2.608   5.036  0.5029 -1.0099 -0.9668
  114MOL0     C15601   8.984   2.550   4.930  0.3483 -0.3065 -0.5378
  114MOL0     O15602   9.106   2.496   4.966 -0.7020 -0.1075 -0.3354
  114MOL0     C15603   9.222   2.556   4.908 -0.1914  0.6387 -1.0291
  114MOL0     C15604   9.340   2.545   5.008  0.6495 -0.2366 -0.1173
  114MOL0     C15605   9.475   2.556   4.931 -0.2181  0.0949 -0.2899
  114MOL0     C15606   9.588   2.651   4.989  0.8058 -0.5793  0.0678
  114MOL0     C15607   9.720   2.655   4.910  0.2382  0.3754  0.3011
  114MOL0     C15608   9.822   2.732   4.994 -1.0514  0.4231 -0.4102
  114MOL0     C15609   9.795   2.883   4.994 -0.3742 -0.2065  0.0956
  114MOL0     C15610   9.927   2.957   4.981 -0.6660 -0.3623  0.9614
  114MOL0     N15611   9.918   3.101   4.999  0.5160  0.0783  0.0838
  114MOL0     C15612   9.825   3.189   4.938 -0.5341  0.7467 -0.0945
  114MOL0     C15613   9.859   3.309   4.983  1.1818 -0.1048 -0.1687
  114MOL0     C15614   9.779   3.444   4.967  0.7267  1.6511 -0.3739
  114MOL0     C15615   9.642   3.448   5.038 -0.2492 -0.3398  0.5718
  114MOL0     C15616   9.642   3.347   5.163 -0.9420  0.2647  0.6595
  114MOL0     C15617   9.534   3.366   5.273  0.0906  0.2044 -0.2619
  114MOL0     O15618   9.537   3.495   5.337  1.2204 -0.5716  0.0193
  114MOL0     C15619   9.607   3.533   5.450  0.2734 -0.6459 -0.4393
  114MOL0     C15620   9.699   3.453   5.511 -0.4241  0.1343  0.5897
  114MOL0     C15621   9.743   3.495   5.639  0.3712  0.3565  0.0422
  114MOL0     C15622   9.832   3.395   5.705 -0.1312 -0.8069  0.3335
  114MOL0     C15623   9.715   3.626   5.691  0.1462 -0.1602 -0.4057
  114MOL0     C15624   9.779   3.688   5.815  0.3709  0.3178  0.1269
  114MOL0     O15625   9.731   3.809   5.851 -0.8035  1.0043 -0.6255
  114MOL0     C15626   9.780   3.860   5.970 -0.2633  0.3468 -0.6923
  114MOL0     C15627   9.900   3.936   5.977 -0.2527 -0.4103 -0.0108
  114MOL0     C15628   9.943   3.984   6.103 -0.0086 -0.0625 -0.4696
  114MOL0     C15629   9.881   3.966   6.224  0.1781  0.3708 -0.5536
  114MOL0     O15630   9.941   4.014   6.337  0.0711 -0.4775 -0.1843
  114MOL0     C15631   9.871   4.021   6.459 -0.4067 -1.0380  0.1872
  114MOL0     C15632   9.934   3.944   6.560  0.1690  0.4950  0.1169
  114MOL0     C15633   9.879   3.806   6.565 -1.1080  1.1219 -0.3648
  114MOL0     C15634   9.750   3.788   6.635 -0.3479 -0.8777  0.0356
  114MOL0     C15635   9.711   3.640   6.651  0.2759 -0.6422 -0.6455
  114MOL0     C15636   9.575   3.624   6.717  0.3751  0.0172 -0.5890
  114MOL0     C15637   9.558   3.480   6.768 -0.6185 -0.4411 -0.4522
  114MOL0     C15638   9.430   3.461   6.844 -1.1145  0.8756  0.0367
  114MOL0    Cl15639   9.417   3.586   6.980  0.5653 -0.3485  0.4235
  114MOL0     C15640   9.760   3.896   6.220  0.2575  0.1259  0.9343
  114MOL0     C15641   9.716   3.844   6.097  0.3269  0.2562 -0.9502
  114MOL0     O15642   9.861   3.622   5.879 -0.1716  0.3059  0.1292
  114MOL0     C15643   9.629   3.708   5.615 -0.4134  0.5659  0.5668
  114MOL0     C15644   9.574   3.658   5.502 -0.4428  0.0668  0.5395
  114MOL0     N15645   9.976   3.295   5.059  0.4075 -0.1623 -0.6440
  114MOL0     N15646  10.011   3.170   5.068 -0.9810  0.3755 -0.6074
  114MOL0     C15647   8.940   2.565   4.807  0.5292  0.8598  0.2446
  114MOL0     C15648   8.819   2.629   4.781  1.3204  0.6708  0.2077
  114MOL0     C15649   8.470   2.852   4.729  0.0453  0.5827  0.6673
  114MOL0     C15650   8.433   2.738   4.642  0.2193 -0.3358  0.0511
  114MOL0     C15651   8.325   2.748   4.555  0.3099  0.4849  0.4699
  114MOL0     C15652   8.270   2.877   4.541  0.4689 -0.6096  0.4691
  114MOL0     O15653   8.191   2.888   4.425 -0.3169 -0.4017  0.3998
  114MOL0     C15654   8.079   2.980   4.418 -0.0024  0.1071 -0.2040
  114MOL0     C15655   8.096   3.123   4.355 -0.0876  0.5109  0.4104
  114MOL0     C15656   8.145   3.099   4.214 -0.2604  0.3524 -0.1676
  114MOL0     C15657   8.128   3.224   4.129  0.2726  0.1849  0.3898
  114MOL0     C15658   8.165   3.220   3.986  0.3700  0.3442 -0.1339
  114MOL0     C15659   8.190   3.206   3.864  0.0522 -0.3846 -0.7659
  114MOL0     C15660   8.302   2.983   4.631 -0.3096 -0.0496  0.6576
  114MOL0     C15661   8.401   2.973   4.718 -0.1860 -0.6144 -1.7429
  114MOL0     C15662   8.425   3.090   4.818  0.4310  0.3113 -0.4097
  114MOL0     H15663   8.714   2.701   5.092  0.0286 -0.5621 -0.8082
  114MOL0     H15664   8.930   2.588   5.140 -0.8900  0.7514 -0.2862
  114MOL0     H15665   9.185   2.657   4.889 -4.3442 -0.8968 -2.1220
  114MOL0     H15666   9.248   2.508   4.813 -3.3090  0.3759 -1.8583
  114MOL0     H15667   9.326   2.624   5.082 -1.2533 -1.0942  0.4922
  114MOL0     H15668   9.343   2.460   5.077  0.5379  2.1760  3.0613
  114MOL0     H15669   9.518   2.456   4.934  2.1123  1.0334  2.6232
  114MOL0     H15670   9.461   2.598   4.830  3.0758  2.2249 -0.0174
  114MOL0     H15671   9.551   2.754   4.992  0.3829 -0.6616 -1.5731
  114MOL0     H15672   9.612   2.620   5.091 -0.1636 -0.6869  0.2730
  114MOL0     H15673   9.706   2.698   4.811 -0.1304  1.6180  0.8787
  114MOL0     H15674   9.743   2.549   4.895 -2.1423  0.0070 -1.3548
  114MOL0     H15675   9.828   2.697   5.097  0.1958 -1.6440 -1.1463
  114MOL0     H15676   9.909   2.707   4.933 -1.9032 -3.3500 -0.3210
  114MOL0     H15677   9.761   2.910   5.094 -0.4665 -0.5462  0.1565
  114MOL0     H15678   9.724   2.908   4.915  0.5536 -1.2391 -1.1279
  114MOL0     H15679   9.996   2.919   5.056  3.2090  3.0684 -0.4543
  114MOL0     H15680   9.966   2.930   4.882  0.0569 -0.5211  1.2835
  114MOL0     H15681   9.735   3.156   4.887  0.3087  1.5149 -2.1620
  114MOL0     H15682   9.767   3.449   4.858 -1.1239 -2.1134 -0.5082
  114MOL0     H15683   9.841   3.525   5.007 -1.0371  1.8420  2.1875
  114MOL0     H15684   9.620   3.551   5.069 -1.3911 -0.6901  1.0158
  114MOL0     H15685   9.567   3.411   4.968  0.9127  1.3962 -1.6992
  114MOL0     H15686   9.627   3.249   5.117 -0.5388  1.0913 -1.3431
  114MOL0     H15687   9.738   3.339   5.215 -1.6415 -4.5850  1.6257
  114MOL0     H15688   9.439   3.351   5.220  0.2675 -1.4103 -0.1675
  114MOL0     H15689   9.544   3.291   5.352  3.2749  0.7807  0.0031
  114MOL0     H15690   9.730   3.366   5.454 -1.8155  1.0593 -1.7253
  114MOL0     H15691   9.834   3.295   5.659 -2.4720 -0.7589  0.0135
  114MOL0     H15692   9.793   3.369   5.804 -1.8698 -1.3409 -0.4516
  114MOL0     H15693   9.928   3.447   5.709 -1.0051  0.7855  1.7789
  114MOL0     H15694   9.953   3.959   5.885 -2.5179 -0.9497 -1.5273
  114MOL0     H15695  10.042   4.028   6.102  0.0373 -0.1692 -1.3946
  114MOL0     H15696   9.877   4.127   6.485 -0.5077 -1.2522  1.1218
  114MOL0     H15697   9.762   4.016   6.468 -0.6760  0.6748 -1.4023
  114MOL0     H15698  10.036   3.934   6.521 -0.8628  0.1091 -2.7247
  114MOL0     H15699   9.941   3.997   6.656  1.2489  0.2668  0.1739
  114MOL0     H15700   9.970   3.754   6.597 -0.1477  1.7991 -1.8275
  114MOL0     H15701   9.863   3.777   6.461 -1.3252  0.4092 -0.1392
  114MOL0     H15702   9.672   3.843   6.581  0.7029 -0.4455 -1.0666
  114MOL0     H15703   9.746   3.829   6.737 -0.6206  0.2590 -0.4208
  114MOL0     H15704   9.700   3.593   6.552 -1.4209  1.7035 -1.6725
  114MOL0     H15705   9.794   3.599   6.709 -1.3008 -1.5694  1.0833
  114MOL0     H15706   9.502   3.659   6.644  0.9146  2.2350 -0.1513
  114MOL0     H15707   9.565   3.689   6.804 -2.0896  1.0263 -1.5392
  114MOL0     H15708   9.645   3.446   6.825 -0.3646 -2.1676 -1.7855
  114MOL0     H15709   9.559   3.419   6.677 -2.5347  1.2157 -1.6486
  114MOL0     H15710   9.433   3.358   6.880  0.6659  0.5610 -0.8779
  114MOL0     H15711   9.350   3.477   6.771  1.8403 -1.1731 -4.0214
  114MOL0     H15712   9.704   3.879   6.311  1.6237 -0.7929  1.6426
  114MOL0     H15713   9.625   3.786   6.086  0.7100 -0.4368 -0.5383
  114MOL0     H15714   9.591   3.805   5.646  1.5378  2.0282 -1.3692
  114MOL0     H15715   9.502   3.708   5.439 -0.8465 -0.4953  0.5459
  114MOL0     H15716   8.998   2.517   4.730 -1.9717 -0.2666 -1.0575
  114MOL0     H15717   8.792   2.641   4.677  0.9513  2.5454  0.4937
  114MOL0     H15718   8.492   2.647   4.646  1.6978  0.6358  1.4242
  114MOL0     H15719   8.274   2.675   4.492  1.9911  0.4154 -0.8528
  114MOL0     H15720   8.005   2.921   4.362  0.2933 -1.0390  0.5718
  114MOL0     H15721   8.036   2.987   4.518 -0.1999  0.2187 -0.2958
  114MOL0     H15722   8.162   3.188   4.413  1.5999 -1.0248  0.3407
  114MOL0     H15723   7.997   3.169   4.358 -0.0383  0.5762  1.3917
  114MOL0     H15724   8.251   3.075   4.217  0.1820  2.0880 -0.7200
  114MOL0     H15725   8.093   3.016   4.166 -2.9529  1.6847  0.2077
  114MOL0     H15726   8.178   3.308   4.178 -0.1013  0.6250  0.0238
  114MOL0     H15727   8.025   3.262   4.138  1.3750  3.0011  2.9603
  114MOL0     H15728   8.210   3.197   3.759 -1.7415 -0.5094 -1.1328
  114MOL0     H15729   8.250   3.077   4.620 -1.4311 -0.7652 -0.3687
  114MOL0     H15730   8.417   3.053   4.920 -1.4323  3.3378  0.6783
  114MOL0     H15731   8.522   3.137   4.801  0.5904  0.3700  0.6240
  114MOL0     H15732   8.351   3.171   4.812 -2.4920 -1.7036  3.5667
  115MOL0     O15733   1.254   8.435   9.091 -0.6508 -0.5418 -0.6893
  115MOL0     C15734   1.316   8.535   9.087 -0.3211  0.4414  0.9468
  115MOL0     O15735   1.294   8.654   9.150  0.4155  0.2780 -0.4638
  115MOL0     C15736   1.185   8.666   9.236  0.1241  0.0732 -0.2474
  115MOL0     C15737   1.070   8.742   9.199  0.5281  0.2742  0.0283
  115MOL0     C15738   0.958   8.739   9.290 -0.5853 -1.0446  0.3539
  115MOL0     C15739   0.961   8.674   9.407 -0.1850  0.3462  1.2671
  115MOL0     O15740   0.845   8.653   9.481  0.1421 -0.3878  1.0908
  115MOL0     C15741   0.747   8.570   9.422 -1.3844 -0.3175 -0.3221
  115MOL0     C15742   0.609   8.603   9.477  0.0414  1.0652  0.8974
  115MOL0     C15743   0.493   8.519   9.408 -0.9494  0.7603 -0.5596
  115MOL0     C15744   0.518   8.365   9.435  0.1815 -0.7552 -0.6132
  115MOL0     C15745   0.380   8.297   9.407 -0.3604  1.1727  0.3514
  115MOL0     C15746   0.381   8.144   9.422 -0.1532  1.0757  0.5919
  115MOL0     C15747   0.415   8.103   9.568 -0.3580  0.6426  0.1428
  115MOL0     C15748   0.392   7.952   9.592  0.6421 -0.4360 -1.0806
  115MOL0     N15749   0.458   7.858   9.510 -0.5518  0.4247  0.0234
  115MOL0     C15750   0.584   7.812   9.531 -0.6691  1.0771  0.0907
  115MOL0     C15751   0.602   7.714   9.433 -0.3414  1.1667  0.0051
  115MOL0     C15752   0.726   7.648   9.417 -0.2702 -0.0939  0.2645
  115MOL0     C15753   0.729   7.497   9.443 -0.3248  0.2986 -0.2504
  115MOL0     C15754   0.661   7.407   9.343  0.4198 -0.2653  0.1683
  115MOL0     C15755   0.721   7.410   9.196 -1.6470 -0.2654 -0.4071
  115MOL0     O15756   0.829   7.319   9.195  0.0213  0.1149  0.1391
  115MOL0     C15757   0.896   7.303   9.075 -0.2893  0.0331 -0.5008
  115MOL0     C15758   0.887   7.195   9.007  1.0675 -0.8742 -0.0130
  115MOL0     C15759   0.950   7.178   8.881  0.5879 -0.6733  0.3779
  115MOL0     C15760   0.920   7.055   8.799 -0.4421 -0.5265 -0.0184
  115MOL0     C15761   1.030   7.285   8.824 -0.3338  0.6312 -0.3099
  115MOL0     C15762   1.111   7.279   8.701 -0.1083 -0.0295 -0.4476
  115MOL0     O15763   1.176   7.394   8.672  0.0067  0.3683  0.1656
  115MOL0     C15764   1.280   7.400   8.577  0.0363  0.2004 -0.0303
  115MOL0     C15765   1.298   7.332   8.455 -0.2729 -0.8430 -0.4160
  115MOL0     C15766   1.418   7.346   8.376 -0.4809  0.2246 -0.7141
  115MOL0     C15767   1.524   7.422   8.430  0.0546  0.4720  0.2608
  115MOL0     O15768   1.649   7.445   8.377  0.9400 -0.2303  0.4418
  115MOL0     C15769   1.710   7.335   8.312 -0.1429  0.0967  0.5151
  115MOL0     C15770   1.864   7.337   8.306 -0.3514 -0.7112 -0.2280
  115MOL0     C15771   1.911   7.225   8.213  0.1146 -0.1744 -0.1227
  115MOL0     C15772   2.065   7.238   8.211  0.2824  0.1698 -0.5865
  115MOL0     C15773   2.115   7.128   8.117 -0.0829 -0.3061  0.2313
  115MOL0     C15774   2.260   7.151   8.072 -0.2710  0.1043  0.2465
  115MOL0     C15775   2.276   7.287   8.004  1.2906  0.3540  0.1304
  115MOL0     C15776   2.403   7.300   7.922 -0.3168 -1.3719  0.3678
  115MOL0    Cl15777   2.394   7.219   7.763 -0.2649 -0.3875  0.0740
  115MOL0     C15778   1.504   7.496   8.546  0.2282 -0.5185  0.2867
  115MOL0     C15779   1.386   7.487   8.624  0.0394  0.7730 -0.2227
  115MOL0     O15780   1.115   7.176   8.634  0.3938 -0.3928 -0.0515
  115MOL0     C15781   1.039   7.395   8.908 -0.0591  0.8392  0.3614
  115MOL0     C15782   0.977   7.402   9.036 -0.2221  1.0938 -0.4246
  115MOL0     N15783   0.487   7.698   9.358 -0.5046  0.1298  0.0974
  115MOL0     N15784   0.403   7.789   9.401 -0.1104 -0.6232  0.6280
  115MOL0     C15785   1.080   8.611   9.448  0.1307  0.1849 -0.0402
  115MOL0     C15786   1.193   8.613   9.365 -0.8297 -0.6050 -0.6304
  115MOL0     C15787   1.424   8.540   8.979 -0.1428  0.1981  1.1591
  115MOL0     C15788   1.386   8.513   8.846 -0.1439  0.5682 -0.5027
  115MOL0     C15789   1.480   8.509   8.747  0.2297 -0.6241  0.0167
  115MOL0     C15790   1.619   8.544   8.778 -0.0722  0.9631  0.4470
  115MOL0     O15791   1.705   8.556   8.672 -0.3487 -0.0922  0.0068
  115MOL0     C15792   1.840   8.563   8.700 -0.6385  0.1214  0.8344
  115MOL0     C15793   1.920   8.564   8.570  0.0811 -0.5402  0.1546
  115MOL0     C15794   2.065   8.619   8.593 -0.5168  0.0441 -0.2122
  115MOL0     C15795   2.166   8.603   8.484 -0.4738  0.6223  0.8353
  115MOL0     C15796   2.285   8.696   8.484 -0.2833 -0.3099 -0.3517
  115MOL0     C15797   2.389   8.760   8.500 -0.4371 -0.6926  0.0799
  115MOL0     C15798   1.657   8.546   8.917 -0.0516 -0.4921  0.3195
  115MOL0     C15799   1.557   8.535   9.017  0.3083  0.8650 -0.2351
  115MOL0     C15800   1.607   8.533   9.151  0.8788 -0.1665 -0.8117
  115MOL0     H15801   1.073   8.799   9.106  1.1257  0.4425  0.1471
  115MOL0     H15802   0.866   8.791   9.266  0.6688  1.1713  0.1128
  115MOL0     H15803   0.779   8.465   9.429  1.6920  0.6112  1.8106
  115MOL0     H15804   0.731   8.591   9.316 -2.4413 -2.2338 -0.5824
  115MOL0     H15805   0.607   8.580   9.584  0.4918 -1.4850  0.4174
  115MOL0     H15806   0.588   8.707   9.450 -2.4280 -0.1897 -2.7498
  115MOL0     H15807   0.399   8.555   9.450 -1.0554  1.4050 -1.3342
  115MOL0     H15808   0.480   8.536   9.301  1.8224 -0.8765 -1.2792
  115MOL0     H15809   0.597   8.325   9.372  1.2562 -1.6299  1.2205
  115MOL0     H15810   0.546   8.358   9.540  1.7757 -5.2326 -1.1236
  115MOL0     H15811   0.351   8.314   9.303  4.0672 -0.9659 -1.4841
  115MOL0     H15812   0.299   8.341   9.465 -1.0563  1.5440 -0.8538
  115MOL0     H15813   0.279   8.117   9.396 -0.4091 -0.8876  3.2361
  115MOL0     H15814   0.438   8.092   9.345 -0.7652  2.8850 -1.1765
  115MOL0     H15815   0.353   8.159   9.639 -0.3712 -1.9096  2.3402
  115MOL0     H15816   0.518   8.129   9.593 -0.3060 -0.4963  1.2181
  115MOL0     H15817   0.412   7.934   9.698 -1.0784  0.5651 -0.5536
  115MOL0     H15818   0.283   7.946   9.586  0.5171 -2.4207  1.4704
  115MOL0     H15819   0.645   7.855   9.610 -1.5358  1.3019  0.6520
  115MOL0     H15820   0.785   7.691   9.499  1.1529 -1.2151 -0.1350
  115MOL0     H15821   0.769   7.683   9.323 -1.0130 -1.9535 -0.8296
  115MOL0     H15822   0.831   7.458   9.439 -1.0798 -1.7060 -1.7682
  115MOL0     H15823   0.703   7.474   9.546  1.2195 -1.1209 -0.1314
  115MOL0     H15824   0.669   7.303   9.374  3.7990 -0.3166 -0.5176
  115MOL0     H15825   0.554   7.430   9.347  0.9365  2.9454  5.5617
  115MOL0     H15826   0.659   7.395   9.108  0.9030  1.2172 -2.5850
  115MOL0     H15827   0.753   7.515   9.195  2.4692 -1.2912  1.6313
  115MOL0     H15828   0.849   7.101   9.046  0.9180 -1.8011 -2.2279
  115MOL0     H15829   0.853   6.986   8.851 -1.5448  1.7727  1.7899
  115MOL0     H15830   1.017   7.007   8.787 -0.0035  0.0130  1.2478
  115MOL0     H15831   0.878   7.099   8.707 -0.8870 -2.0201 -0.5583
  115MOL0     H15832   1.216   7.271   8.421  0.1256 -0.5280 -1.9990
  115MOL0     H15833   1.416   7.305   8.275  0.6495 -0.1984 -0.5797
  115MOL0     H15834   1.686   7.240   8.359  2.3214 -0.2710  1.1482
  115MOL0     H15835   1.661   7.340   8.214 -1.2993 -0.0755  1.0633
  115MOL0     H15836   1.891   7.438   8.274 -0.1088  0.2036  2.6021
  115MOL0     H15837   1.898   7.329   8.409 -1.5261  1.1958  0.3538
  115MOL0     H15838   1.854   7.225   8.120 -1.9766 -3.8027  0.9591
  115MOL0     H15839   1.892   7.126   8.256 -0.2803 -0.6261 -1.3237
  115MOL0     H15840   2.115   7.215   8.306 -0.1377 -0.9735 -0.6266
  115MOL0     H15841   2.088   7.340   8.179 -1.7223  0.7051 -0.4145
  115MOL0     H15842   2.099   7.031   8.164  3.9011 -0.6521  1.2786
  115MOL0     H15843   2.057   7.125   8.025  0.6038  1.0504 -0.2773
  115MOL0     H15844   2.290   7.070   8.006 -3.4398 -0.1498 -1.0492
  115MOL0     H15845   2.330   7.133   8.155  0.6182  0.0615 -0.4952
  115MOL0     H15846   2.265   7.369   8.077 -0.4837  1.3040 -1.1214
  115MOL0     H15847   2.188   7.309   7.944  0.7476 -4.1500 -1.0374
  115MOL0     H15848   2.491   7.266   7.977 -1.4107  0.8561  3.7925
  115MOL0     H15849   2.422   7.405   7.899  2.2359 -1.8399  0.1105
  115MOL0     H15850   1.583   7.565   8.575  1.4317 -1.7681  0.0875
  115MOL0     H15851   1.383   7.544   8.716  1.3397  0.8014 -0.1899
  115MOL0     H15852   1.096   7.483   8.879  0.6054  0.3990  0.3047
  115MOL0     H15853   0.985   7.494   9.094 -1.3199  0.6545  0.4356
  115MOL0     H15854   1.101   8.567   9.545  2.6826 -0.1809 -0.6845
  115MOL0     H15855   1.278   8.551   9.391 -0.3837 -0.8037 -2.4670
  115MOL0     H15856   1.278   8.505   8.830 -0.5104  2.0363  0.9981
  115MOL0     H15857   1.449   8.483   8.646 -1.9903  0.7958  0.2539
  115MOL0     H15858   1.875   8.657   8.743  1.6189  0.3783 -1.3230
  115MOL0     H15859   1.871   8.471   8.750 -3.2745  0.0061  2.4634
  115MOL0     H15860   1.861   8.631   8.506  0.9286 -0.7456 -0.8635
  115MOL0     H15861   1.931   8.467   8.521  1.9518 -0.5118  0.4775
  115MOL0     H15862   2.049   8.725   8.616  0.5773  0.3686 -0.9141
  115MOL0     H15863   2.102   8.576   8.687  0.5303  0.3628 -0.4686
  115MOL0     H15864   2.113   8.629   8.392  1.4636  0.4863 -0.3779
  115MOL0     H15865   2.201   8.500   8.475  0.3851  0.9521  0.2160
  115MOL0     H15866   2.481   8.814   8.509  0.1172 -1.4432 -0.8718
  115MOL0     H15867   1.762   8.562   8.939  0.6758 -2.6522 -1.2211
  115MOL0     H15868   1.577   8.627   9.198 -1.0798 -0.6260 -1.0325
  115MOL0     H15869   1.567   8.448   9.208 -2.3593  0.7963 -1.4133
  115MOL0     H15870   1.712   8.504   9.159  1.4932  1.9580 -0.4238
  116MOL0     O15871   2.840  11.453   2.955  0.1313 -0.1683  0.0651
  116MOL0     C15872   2.856  11.573   2.977  0.4475 -0.0131 -0.3554
  116MOL0     O15873   2.963  11.629   3.049 -0.1225  0.5605 -0.0580
  116MOL0     C15874   3.053  11.544   3.112 -0.3849 -0.7800  0.4137
  116MOL0     C15875   3.016  11.446   3.207  0.1630 -0.9095  0.6769
  116MOL0     C15876   3.112  11.375   3.281 -0.0257 -0.2999 -0.2388
  116MOL0     C15877   3.250  11.391   3.246 -0.0832  0.0675 -1.0891
  116MOL0     O15878   3.353  11.315   3.308 -0.4824 -0.0170  0.1455
  116MOL0     C15879   3.372  11.309   3.446 -1.2205 -0.9877 -0.3020
  116MOL0     C15880   3.460  11.426   3.491 -0.8069 -0.0479  0.5370
  116MOL0     C15881   3.502  11.425   3.630  0.2035  0.7943  0.4229
  116MOL0     C15882   3.597  11.532   3.668  0.2881  0.4817  0.1610
  116MOL0     C15883   3.639  11.521   3.822 -0.5610 -0.1796  0.5752
  116MOL0     C15884   3.752  11.620   3.858  0.6028 -1.5749  0.6060
  116MOL0     C15885   3.711  11.764   3.829 -0.3118 -0.5197 -0.5427
  116MOL0     C15886   3.810  11.855   3.900 -0.5979  1.0219  0.3060
  116MOL0     N15887   3.843  11.965   3.804  0.3317 -0.0838 -0.2803
  116MOL0     C15888   3.943  11.950   3.711 -0.4326 -0.3088 -1.4285
  116MOL0     C15889   3.952  12.072   3.656 -0.6530 -0.3216 -0.2232
  116MOL0     C15890   4.057  12.117   3.553  0.2747  0.0806  0.0179
  116MOL0     C15891   4.176  12.032   3.533  0.0229 -0.6258  0.3846
  116MOL0     C15892   4.253  12.074   3.403 -0.9637  0.2645  0.5078
  116MOL0     C15893   4.341  11.983   3.327 -0.6542  0.2225 -0.3378
  116MOL0     O15894   4.418  11.925   3.433  0.1865  0.4913  0.5597
  116MOL0     C15895   4.543  11.958   3.476  0.2558 -0.1095 -0.5498
  116MOL0     C15896   4.572  11.937   3.606  1.0012 -0.5367  0.4495
  116MOL0     C15897   4.694  11.953   3.666 -0.7525  0.9865  0.5987
  116MOL0     C15898   4.718  11.943   3.807  0.7834 -0.4673 -0.2856
  116MOL0     C15899   4.807  11.983   3.580  0.0439 -0.3639 -0.3114
  116MOL0     C15900   4.954  11.994   3.630  0.9046  0.2390 -0.5227
  116MOL0     O15901   5.034  12.095   3.581 -0.1515 -0.2318 -0.2615
  116MOL0     C15902   5.165  12.080   3.609  0.9610 -0.1000  0.6564
  116MOL0     C15903   5.250  11.986   3.537  0.8243 -0.2588 -0.5411
  116MOL0     C15904   5.374  11.961   3.585 -0.8234  0.1006  0.7372
  116MOL0     C15905   5.425  12.029   3.692  0.0569  0.2691  0.6469
  116MOL0     O15906   5.550  12.000   3.729 -0.1975 -0.5446  0.0690
  116MOL0     C15907   5.631  12.101   3.798 -0.5187 -0.0230 -0.0125
  116MOL0     C15908   5.762  12.044   3.796 -0.2175 -0.4891  0.5973
  116MOL0     C15909   5.786  11.912   3.872 -0.0732 -0.2758  0.0411
  116MOL0     C15910   5.894  11.909   3.977  0.2720  1.1643 -0.1714
  116MOL0     C15911   5.914  11.775   4.049 -0.1688 -0.6346 -0.1157
  116MOL0     C15912   5.983  11.673   3.968 -0.4964  0.0805 -0.1478
  116MOL0     C15913   6.016  11.532   4.039  0.7780 -0.1242 -0.5618
  116MOL0     C15914   5.880  11.462   4.094 -0.3861  0.7681 -0.2075
  116MOL0    Cl15915   5.767  11.430   3.964  0.1746  0.2711  0.0896
  116MOL0     C15916   5.350  12.136   3.738  0.3720  0.2445 -0.5176
  116MOL0     C15917   5.227  12.160   3.701 -0.2802 -0.2533 -0.1464
  116MOL0     O15918   4.993  11.903   3.699  0.3995  0.3411  0.8503
  116MOL0     C15919   4.786  12.004   3.448 -0.6662  0.0294 -0.2037
  116MOL0     C15920   4.655  11.989   3.401 -0.9141  0.5798 -0.0791
  116MOL0     N15921   3.872  12.161   3.721  0.5152  1.0865 -0.0402
  116MOL0     N15922   3.809  12.100   3.811  0.9448 -1.2755  0.3941
  116MOL0     C15923   3.281  11.491   3.158  0.4808  0.2163  0.3742
  116MOL0     C15924   3.185  11.562   3.084  0.1682 -1.2140 -0.3872
  116MOL0     C15925   2.742  11.658   2.949 -0.7696  0.1645  0.1699
  116MOL0     C15926   2.647  11.604   2.859  0.1133 -0.2710 -0.8065
  116MOL0     C15927   2.551  11.681   2.800 -0.0388 -0.6427 -0.0819
  116MOL0     C15928   2.524  11.809   2.848 -0.5727 -0.5577 -0.3287
  116MOL0     O15929   2.425  11.888   2.804  0.6334  0.8268 -0.3203
  116MOL0     C15930   2.304  11.823   2.763 -0.7783  0.2224  0.7611
  116MOL0     C15931   2.195  11.920   2.725  0.5701 -0.4217 -0.7639
  116MOL0     C15932   2.184  12.026   2.843 -0.9762  0.1595  0.7046
  116MOL0     C15933   2.034  12.046   2.873  0.0311  0.1404  1.1768
  116MOL0     C15934   2.014  12.159   2.962  0.3264  0.2178  0.2649
  116MOL0     C15935   2.004  12.239   3.053 -0.4451  0.2400  0.0917
  116MOL0     C15936   2.611  11.855   2.943 -0.1513 -0.1695 -0.2924
  116MOL0     C15937   2.726  11.787   2.994  0.0533 -0.4511 -0.7854
  116MOL0     C15938   2.812  11.863   3.094  0.3463 -1.0502 -0.2604
  116MOL0     H15939   2.909  11.434   3.220 -0.3007  0.3797 -1.4086
  116MOL0     H15940   3.092  11.301   3.358 -0.2898 -1.6279 -1.5409
  116MOL0     H15941   3.444  11.230   3.471 -1.8253 -1.4846 -0.0985
  116MOL0     H15942   3.276  11.291   3.496 -1.1699 -1.7135 -0.4428
  116MOL0     H15943   3.542  11.434   3.419 -1.2376 -4.6367 -0.7369
  116MOL0     H15944   3.387  11.507   3.479 -1.3354 -0.3109  1.8584
  116MOL0     H15945   3.417  11.428   3.699  0.1831 -0.8695  0.5308
  116MOL0     H15946   3.558  11.333   3.649  0.9820  1.3364  0.8050
  116MOL0     H15947   3.692  11.531   3.613 -0.7034 -0.3004 -1.6577
  116MOL0     H15948   3.560  11.631   3.640  3.3808  1.9612  0.8717
  116MOL0     H15949   3.671  11.419   3.846  1.8720  0.0452 -1.3950
  116MOL0     H15950   3.565  11.551   3.897  1.1310 -1.4158  2.8877
  116MOL0     H15951   3.751  11.594   3.964 -1.7396 -0.6439  0.8868
  116MOL0     H15952   3.848  11.601   3.810 -0.5999 -3.3562 -1.3145
  116MOL0     H15953   3.612  11.783   3.872  0.4989  1.2345  0.6640
  116MOL0     H15954   3.701  11.799   3.726 -1.6161  0.0653 -0.2345
  116MOL0     H15955   3.788  11.892   4.001  3.1346  1.2609  1.1642
  116MOL0     H15956   3.902  11.806   3.932  2.2481  6.2526  1.2344
  116MOL0     H15957   4.008  11.864   3.700 -1.0757 -0.8744 -0.9191
  116MOL0     H15958   4.085  12.221   3.574 -3.1203  1.1597 -0.1999
  116MOL0     H15959   3.996  12.119   3.463  2.9224  0.3080 -1.8639
  116MOL0     H15960   4.244  12.035   3.619  0.7824 -0.7927 -0.1968
  116MOL0     H15961   4.156  11.924   3.528  0.9754 -0.7620 -2.6668
  116MOL0     H15962   4.185  12.116   3.328  1.0377  3.2104  0.1939
  116MOL0     H15963   4.309  12.166   3.420  0.3724  0.3534 -3.4275
  116MOL0     H15964   4.285  11.902   3.279  0.2671  0.2400 -1.5182
  116MOL0     H15965   4.405  12.028   3.250 -0.5474  0.0428 -0.3544
  116MOL0     H15966   4.485  11.914   3.668  0.8214 -0.2786  0.2913
  116MOL0     H15967   4.757  12.037   3.847  1.5996 -0.7368 -0.4233
  116MOL0     H15968   4.786  11.860   3.828 -0.0652 -1.1282 -0.0793
  116MOL0     H15969   4.621  11.914   3.850  0.3479 -0.6215 -1.3487
  116MOL0     H15970   5.212  11.933   3.450  1.2147 -4.6712  1.6860
  116MOL0     H15971   5.438  11.886   3.540 -1.4530 -0.7137  1.1595
  116MOL0     H15972   5.628  12.198   3.748 -0.6494 -0.6343 -1.2474
  116MOL0     H15973   5.583  12.113   3.896 -1.7518 -1.8306 -0.3370
  116MOL0     H15974   5.790  12.035   3.691 -0.2922 -4.0596  0.7311
  116MOL0     H15975   5.830  12.123   3.827  0.2804 -0.8090  0.3295
  116MOL0     H15976   5.809  11.834   3.799 -2.8990 -1.6552  0.4579
  116MOL0     H15977   5.695  11.884   3.927  0.4685  1.0325  1.6970
  116MOL0     H15978   5.877  11.986   4.052 -0.4652  1.0289 -0.1918
  116MOL0     H15979   5.990  11.929   3.928  0.1465 -0.0810 -0.9943
  116MOL0     H15980   5.979  11.794   4.134 -0.5422  1.6833 -0.2844
  116MOL0     H15981   5.818  11.732   4.079 -2.5546  2.5986 -2.3675
  116MOL0     H15982   6.076  11.718   3.930 -0.2711  0.0727  0.3870
  116MOL0     H15983   5.931  11.658   3.873  0.6837  1.2735 -1.0205
  116MOL0     H15984   6.083  11.544   4.124  0.9276 -3.0247 -0.1632
  116MOL0     H15985   6.065  11.466   3.967  1.7869  0.4651 -0.4298
  116MOL0     H15986   5.828  11.511   4.177 -2.8953 -2.3297  0.2110
  116MOL0     H15987   5.914  11.368   4.138  0.7216  0.8738 -0.8014
  116MOL0     H15988   5.390  12.206   3.811  0.3339  0.4864 -0.7275
  116MOL0     H15989   5.164  12.227   3.758 -0.2518  1.5184 -2.0766
  116MOL0     H15990   4.860  12.033   3.374 -0.8590  1.4927  0.1599
  116MOL0     H15991   4.647  12.009   3.295  0.2533 -2.1713 -0.7790
  116MOL0     H15992   3.382  11.511   3.124  0.2191 -3.7528 -3.5416
  116MOL0     H15993   3.217  11.642   3.018  0.9521 -1.1659  0.0431
  116MOL0     H15994   2.654  11.502   2.823 -3.1451 -0.6719 -0.6025
  116MOL0     H15995   2.474  11.647   2.731 -1.2739  0.9285  0.4566
  116MOL0     H15996   2.326  11.764   2.674  1.4004 -1.0514  2.0726
  116MOL0     H15997   2.275  11.753   2.841  1.0915  1.5771  2.7897
  116MOL0     H15998   2.101  11.865   2.718 -0.8694  1.8699 -0.7143
  116MOL0     H15999   2.209  11.968   2.628  3.3003  0.5981  0.0138
  116MOL0     H16000   2.228  11.980   2.932 -0.5658 -3.5738 -1.2171
  116MOL0     H16001   2.230  12.123   2.819  1.4397 -1.2044 -0.5665
  116MOL0     H16002   1.996  11.956   2.922  0.6594 -1.2250 -0.7171
  116MOL0     H16003   1.982  12.069   2.780  0.6253  1.5899  1.1722
  116MOL0     H16004   1.996  12.314   3.129 -2.6080  0.7967 -0.6081
  116MOL0     H16005   2.581  11.950   2.987 -2.3141 -0.2868 -1.3775
  116MOL0     H16006   2.912  11.879   3.052 -0.2000 -0.0707 -1.2598
  116MOL0     H16007   2.760  11.958   3.113 -0.1289 -1.6698  1.7753
  116MOL0     H16008   2.815  11.805   3.186  1.1631 -0.8311 -0.1422
  117MOL0     O16009  10.407  10.319  10.132  0.4146  0.1040 -0.1810
  117MOL0     C16010  10.403  10.199  10.104 -0.1998  0.5146  0.1342
  117MOL0     O16011  10.431  10.138   9.986  0.0765 -0.3074 -0.5206
  117MOL0     C16012  10.433  10.224   9.878  0.3348 -0.4142 -0.8717
  117MOL0     C16013  10.552  10.261   9.824  0.5295  0.0544 -0.1396
  117MOL0     C16014  10.561  10.341   9.711  0.0546 -0.0565 -1.4901
  117MOL0     C16015  10.443  10.383   9.651 -0.0871  0.0830 -0.0516
  117MOL0     O16016  10.426  10.458   9.533  0.3559 -0.1079 -0.3560
  117MOL0     C16017  10.532  10.465   9.444 -0.5382  0.4899  0.3272
  117MOL0     C16018  10.621  10.578   9.481  1.3370 -0.0924  1.0782
  117MOL0     C16019  10.733  10.595   9.380 -0.0790 -0.4039  0.0887
  117MOL0     C16020  10.832  10.705   9.428 -0.0885 -0.1809 -0.7862
  117MOL0     C16021  10.949  10.713   9.328  0.0563  0.4698  0.1639
  117MOL0     C16022  11.066  10.616   9.347 -0.3589  0.4627 -0.5137
  117MOL0     C16023  11.173  10.603   9.228 -0.4378 -0.1960  0.0069
  117MOL0     C16024  11.278  10.700   9.240 -0.3529 -0.2231  1.3194
  117MOL0     N16025  11.366  10.695   9.122  0.3441 -0.6602  0.1311
  117MOL0     C16026  11.490  10.637   9.106  0.0948  0.7932 -0.0626
  117MOL0     C16027  11.553  10.711   9.008 -0.1138 -1.1877 -0.4429
  117MOL0     C16028  11.702  10.700   8.984  0.0614 -0.0944 -0.1342
  117MOL0     C16029  11.795  10.753   9.095  0.2446 -0.9248 -0.4275
  117MOL0     C16030  11.796  10.665   9.216  0.4818 -0.4187 -0.3563
  117MOL0     C16031  11.907  10.712   9.301  0.2700 -0.7145 -0.3736
  117MOL0     O16032  12.029  10.664   9.248  0.7402  0.3182  0.4077
  117MOL0     C16033  12.147  10.675   9.324  0.0400  0.0011  0.4834
  117MOL0     C16034  12.155  10.757   9.440  0.4364  1.1808 -0.4501
  117MOL0     C16035  12.275  10.787   9.499 -0.1129 -0.1624  0.2205
  117MOL0     C16036  12.281  10.867   9.630 -0.0448  0.7147 -0.5525
  117MOL0     C16037  12.396  10.726   9.448 -0.1540 -0.0067 -0.2862
  117MOL0     C16038  12.532  10.743   9.509 -0.0281  0.0585 -0.0900
  117MOL0     O16039  12.547  10.813   9.616  1.1449  0.1635 -0.7374
  117MOL0     C16040  12.650  10.797   9.703  0.7315  0.0017 -0.2268
  117MOL0     C16041  12.664  10.904   9.795  0.6208  0.5693 -0.2330
  117MOL0     C16042  12.769  10.909   9.888  0.3212 -1.0260  0.7791
  117MOL0     C16043  12.857  10.804   9.892 -0.5616  1.1309  0.0084
  117MOL0     O16044  12.970  10.805   9.979  0.4355 -0.1920  0.2906
  117MOL0     C16045  12.961  10.879  10.104 -0.0018 -0.4660  0.0123
  117MOL0     C16046  12.861  10.823  10.199  0.0366 -0.3333 -0.3201
  117MOL0     C16047  12.887  10.689  10.247  0.8009 -0.1220 -0.0803
  117MOL0     C16048  13.010  10.683  10.336  0.2246 -0.4042  0.1534
  117MOL0     C16049  13.110  10.570  10.309  0.6384 -0.8457 -0.1743
  117MOL0     C16050  13.232  10.575  10.394  0.5200 -0.8047 -1.0783
  117MOL0     C16051  13.316  10.454  10.355 -0.0128  0.0927 -0.2032
  117MOL0     C16052  13.447  10.442  10.434  0.1850  0.4713 -0.0098
  117MOL0    Cl16053  13.447  10.333  10.588  0.3469 -0.4292 -0.1641
  117MOL0     C16054  12.835  10.690   9.806 -0.6230 -0.6646 -0.3629
  117MOL0     C16055  12.733  10.687   9.710  0.4625  0.1761 -0.5416
  117MOL0     O16056  12.628  10.694   9.450  0.9479 -0.8841  0.7582
  117MOL0     C16057  12.382  10.649   9.335  0.3595 -1.0755  0.6772
  117MOL0     C16058  12.259  10.624   9.273 -0.8014  0.2890  0.2885
  117MOL0     N16059  11.464  10.813   8.973 -0.4154  1.1984 -0.5446
  117MOL0     N16060  11.353  10.797   9.036 -0.0460 -0.5509 -0.2877
  117MOL0     C16061  10.318  10.355   9.713  0.1859  0.2452  0.1767
  117MOL0     C16062  10.316  10.278   9.826 -0.5311  0.5394  0.2582
  117MOL0     C16063  10.392  10.106  10.229 -0.4404 -0.6233  0.5339
  117MOL0     C16064  10.402  10.168  10.357  0.1222 -0.5021 -0.0379
  117MOL0     C16065  10.410  10.098  10.475  0.1981 -0.7672  0.3392
  117MOL0     C16066  10.400   9.958  10.469  0.4786 -0.3298  1.0491
  117MOL0     O16067  10.394   9.897  10.591  0.0588  0.2498 -0.3813
  117MOL0     C16068  10.324   9.770  10.609  0.1776 -0.6416 -0.2399
  117MOL0     C16069  10.175   9.798  10.592  0.1724 -0.1008 -0.3757
  117MOL0     C16070  10.125   9.894  10.701  0.4623  0.1848  0.3757
  117MOL0     C16071  10.065   9.822  10.828 -0.4785 -0.3372  0.4147
  117MOL0     C16072  10.154   9.776  10.925 -0.3319  0.8645 -0.8849
  117MOL0     C16073  10.233   9.724  11.000 -0.0814  0.3650 -0.4351
  117MOL0     C16074  10.376   9.892  10.344 -0.3950  0.4468 -0.0557
  117MOL0     C16075  10.386   9.969  10.221 -0.5086 -0.6703 -1.3251
  117MOL0     C16076  10.401   9.885  10.096 -1.1074  0.0544  0.2807
  117MOL0     H16077  10.647  10.226   9.865  0.1441  0.7579  1.3977
  117MOL0     H16078  10.655  10.350   9.657 -0.3346 -0.1077 -2.1980
  117MOL0     H16079  10.473  10.485   9.354  0.0694  0.7604 -0.0252
  117MOL0     H16080  10.589  10.371   9.444  1.1813  1.4799  1.2412
  117MOL0     H16081  10.557  10.667   9.484 -0.1069 -1.0268 -0.2725
  117MOL0     H16082  10.669  10.578   9.579  0.2190  0.8199  1.6617
  117MOL0     H16083  10.782  10.498   9.375  2.0229  0.6748 -1.6035
  117MOL0     H16084  10.710  10.628   9.278 -2.3773 -2.9870 -0.3572
  117MOL0     H16085  10.783  10.803   9.439  1.4422  0.6614 -1.1129
  117MOL0     H16086  10.868  10.698   9.531  0.2955  1.1254 -0.8073
  117MOL0     H16087  10.991  10.813   9.341  2.5993 -0.4476 -0.4390
  117MOL0     H16088  10.908  10.702   9.227 -1.6633 -3.1734  1.0711
  117MOL0     H16089  11.121  10.638   9.440 -1.6323  0.2326  0.3201
  117MOL0     H16090  11.015  10.521   9.365 -0.8931  0.8795  0.2139
  117MOL0     H16091  11.126  10.628   9.132  0.1792  2.0009  0.2130
  117MOL0     H16092  11.216  10.503   9.216  0.8852  0.1290  1.5915
  117MOL0     H16093  11.245  10.800   9.269  0.2241  0.5119 -0.4281
  117MOL0     H16094  11.341  10.668   9.323  3.3937  0.4041 -1.0748
  117MOL0     H16095  11.532  10.551   9.158  2.3608  1.5178 -0.5818
  117MOL0     H16096  11.718  10.756   8.892 -0.1855 -2.1622 -1.5068
  117MOL0     H16097  11.721  10.593   8.968  0.1889 -0.1879  0.6182
  117MOL0     H16098  11.897  10.766   9.057  0.8023 -1.1114  0.9404
  117MOL0     H16099  11.758  10.852   9.122 -0.0945 -0.7708 -1.4003
  117MOL0     H16100  11.699  10.670   9.267  0.4817 -0.6550 -0.3299
  117MOL0     H16101  11.818  10.561   9.190  0.1791 -0.8999  1.1813
  117MOL0     H16102  11.906  10.820   9.319  1.2732 -0.8660  0.7522
  117MOL0     H16103  11.879  10.667   9.397  1.6097 -0.6843  0.0624
  117MOL0     H16104  12.082  10.827   9.479  0.4370 -0.0803  2.0206
  117MOL0     H16105  12.332  10.963   9.622  0.3300  0.4902 -0.9673
  117MOL0     H16106  12.320  10.810   9.715 -0.8080 -1.2921 -1.4941
  117MOL0     H16107  12.176  10.889   9.648 -0.8648 -2.5776 -0.6250
  117MOL0     H16108  12.592  10.986   9.792 -2.2071 -1.7541 -0.4256
  117MOL0     H16109  12.768  10.992   9.958 -2.0230  2.7988 -3.2629
  117MOL0     H16110  13.060  10.869  10.150  1.6418  1.9772 -2.5706
  117MOL0     H16111  12.956  10.987  10.086 -1.0127 -0.0431  2.5498
  117MOL0     H16112  12.841  10.888  10.285 -1.5035  1.5860 -2.0449
  117MOL0     H16113  12.766  10.830  10.146  0.9473  3.0356 -1.7913
  117MOL0     H16114  12.916  10.628  10.160  2.2434 -0.7078  0.7764
  117MOL0     H16115  12.803  10.650  10.305 -0.8466  3.1827 -0.0236
  117MOL0     H16116  12.976  10.669  10.438  1.2874 -1.2516  0.4195
  117MOL0     H16117  13.073  10.772  10.340 -0.3822  0.0003  0.8711
  117MOL0     H16118  13.063  10.472  10.319  0.0023 -0.6993 -1.5771
  117MOL0     H16119  13.147  10.576  10.207  0.8593  1.5944 -0.0184
  117MOL0     H16120  13.216  10.573  10.502  3.2983  0.9594 -0.5298
  117MOL0     H16121  13.282  10.671  10.377 -0.1545 -0.1091  0.5789
  117MOL0     H16122  13.343  10.458  10.249  0.7206  1.8164  0.0132
  117MOL0     H16123  13.261  10.364  10.385  1.5293 -0.7509  0.2093
  117MOL0     H16124  13.487  10.540  10.463 -0.1532  0.2848  1.1400
  117MOL0     H16125  13.513  10.407  10.353 -0.1472  3.9075 -1.9460
  117MOL0     H16126  12.919  10.621   9.800  2.4466  2.7859 -0.6967
  117MOL0     H16127  12.719  10.602   9.644 -0.2733 -0.3731  0.2975
  117MOL0     H16128  12.473  10.606   9.296  1.0727  0.9410  0.0108
  117MOL0     H16129  12.254  10.552   9.191  0.7230  2.0862 -1.5172
  117MOL0     H16130  10.228  10.407   9.682  0.4969  0.5664 -0.1792
  117MOL0     H16131  10.220  10.239   9.860 -0.4747  0.4564  0.3213
  117MOL0     H16132  10.433  10.271  10.371  0.2519 -0.5421 -0.0232
  117MOL0     H16133  10.434  10.146  10.569 -2.0867  0.8349  0.2111
  117MOL0     H16134  10.356   9.682  10.552  1.4648 -0.6839  0.5124
  117MOL0     H16135  10.340   9.743  10.713 -2.0915  1.8621  0.8770
  117MOL0     H16136  10.121   9.703  10.596 -1.8518  1.0188  0.6962
  117MOL0     H16137  10.159   9.829  10.489  0.0560 -1.3132 -0.7404
  117MOL0     H16138  10.201   9.963  10.738 -1.2066  1.0316  2.5076
  117MOL0     H16139  10.047   9.956  10.656 -0.0409 -0.0974  0.8311
  117MOL0     H16140  10.001   9.738  10.797 -1.2634  0.7661 -1.0964
  117MOL0     H16141   9.992   9.892  10.869 -2.0379 -1.2150 -0.7221
  117MOL0     H16142  10.305   9.682  11.068 -0.8016  1.2787  0.9292
  117MOL0     H16143  10.366   9.785  10.331 -0.1891  0.5425 -1.1365
  117MOL0     H16144  10.496   9.909  10.048 -0.7015  0.3366  1.2131
  117MOL0     H16145  10.403   9.776  10.110 -0.2438  0.2521  1.8645
  117MOL0     H16146  10.322   9.913  10.026  1.9561  1.1738 -3.0609
  118MOL0     O16147   9.873  11.227  11.366 -0.2214  0.0653 -0.0494
  118MOL0     C16148   9.781  11.152  11.382  0.7414 -0.4673  0.3915
  118MOL0     O16149   9.646  11.186  11.370 -0.6188  0.1345  0.3640
  118MOL0     C16150   9.623  11.281  11.277 -0.0902  0.7482 -0.2992
  118MOL0     C16151   9.523  11.374  11.311  0.2573  0.1123  0.8890
  118MOL0     C16152   9.493  11.479  11.224  0.5802 -0.6717 -0.1032
  118MOL0     C16153   9.544  11.484  11.105  0.4266 -0.2365  0.7591
  118MOL0     O16154   9.511  11.583  11.006  0.0947 -0.8759 -0.7984
  118MOL0     C16155   9.374  11.615  10.987  0.6212  0.3634 -0.3790
  118MOL0     C16156   9.333  11.746  11.063  0.0146 -0.7075  0.1354
  118MOL0     C16157   9.198  11.738  11.136  0.2422  0.2461 -0.0371
  118MOL0     C16158   9.099  11.837  11.081 -0.2668 -0.8393 -1.4759
  118MOL0     C16159   9.044  11.831  10.935  0.2778 -0.1018 -0.6683
  118MOL0     C16160   8.971  11.701  10.902  0.6875  0.8642 -0.3364
  118MOL0     C16161   8.963  11.673  10.756  0.9575 -1.2757  0.0516
  118MOL0     C16162   8.892  11.794  10.689 -0.9745  0.7992 -0.6996
  118MOL0     N16163   8.909  11.796  10.548  0.2561  0.3771  0.0370
  118MOL0     C16164   9.023  11.787  10.470 -0.5836 -0.3986  0.1651
  118MOL0     C16165   8.990  11.801  10.345 -0.5441 -0.1369 -0.6708
  118MOL0     C16166   9.092  11.786  10.228 -0.3052  0.3251 -0.3423
  118MOL0     C16167   9.116  11.905  10.138  0.7539 -0.6010  0.7569
  118MOL0     C16168   9.225  11.887  10.023 -0.8382 -0.6224  0.0482
  118MOL0     C16169   9.184  11.776   9.939  0.0491  0.4408  0.4007
  118MOL0     O16170   9.053  11.793   9.879  0.0942  0.1827 -0.2173
  118MOL0     C16171   9.031  11.891   9.781 -0.1615 -0.5727  0.7722
  118MOL0     C16172   8.903  11.933   9.761 -0.3802 -0.2729  0.2187
  118MOL0     C16173   8.861  12.027   9.663  0.7366  0.3741 -0.0852
  118MOL0     C16174   8.727  12.087   9.660  0.1337 -0.1225  0.2952
  118MOL0     C16175   8.958  12.056   9.565 -0.4095 -0.1136 -0.5003
  118MOL0     C16176   8.929  12.132   9.445  0.5297  0.3019 -0.8334
  118MOL0     O16177   9.011  12.099   9.338  0.0214 -1.0790 -0.9498
  118MOL0     C16178   8.972  12.138   9.215 -0.1016 -0.3786 -0.2586
  118MOL0     C16179   8.871  12.069   9.144  0.7784  0.0299 -0.0421
  118MOL0     C16180   8.822  12.120   9.024 -0.6474 -0.1207  0.8807
  118MOL0     C16181   8.878  12.243   8.967  0.3229 -0.1925  0.2349
  118MOL0     O16182   8.825  12.278   8.844  0.6769  0.1053 -0.0549
  118MOL0     C16183   8.906  12.359   8.761 -0.4073 -0.8968 -0.5831
  118MOL0     C16184   8.862  12.368   8.614  0.4226 -0.2047 -1.2005
  118MOL0     C16185   8.713  12.413   8.605 -0.3509  0.4088  0.2897
  118MOL0     C16186   8.668  12.394   8.473 -0.4607  0.4762  0.9261
  118MOL0     C16187   8.514  12.415   8.463  0.8605  0.7285 -0.5057
  118MOL0     C16188   8.472  12.380   8.318  0.5574  0.5284  0.1925
  118MOL0     C16189   8.316  12.386   8.304  0.2946 -0.1490  0.4593
  118MOL0     C16190   8.280  12.436   8.161  0.3814 -0.3373  0.1278
  118MOL0    Cl16191   8.107  12.486   8.156  0.5026 -0.2179 -0.0856
  118MOL0     C16192   8.985  12.306   9.036  0.9284 -0.8268  0.3249
  118MOL0     C16193   9.032  12.249   9.156 -0.3072 -0.6738 -0.0685
  118MOL0     O16194   8.843  12.223   9.446 -0.7987  0.3138 -0.2985
  118MOL0     C16195   9.090  12.003   9.577  0.6324  0.0009  0.6113
  118MOL0     C16196   9.133  11.923   9.686 -0.1934 -0.6580 -0.2999
  118MOL0     N16197   8.857  11.818  10.344 -0.1671  0.6327 -0.2351
  118MOL0     N16198   8.806  11.807  10.466 -0.1025 -0.5626 -0.7834
  118MOL0     C16199   9.627  11.385  11.060 -0.4788 -0.1556  0.4864
  118MOL0     C16200   9.671  11.283  11.144  1.4034 -0.1455  0.3201
  118MOL0     C16201   9.796  11.011  11.427  0.6853  0.2740 -0.7801
  118MOL0     C16202   9.709  10.974  11.535  0.2892  0.6185 -0.2704
  118MOL0     C16203   9.710  10.842  11.579 -0.1203  0.3899  0.1549
  118MOL0     C16204   9.798  10.747  11.515 -0.1081  0.8505  0.6165
  118MOL0     O16205   9.793  10.615  11.557  0.4748 -0.1350  0.3109
  118MOL0     C16206   9.912  10.580  11.624 -0.4796  0.2340 -0.5198
  118MOL0     C16207   9.882  10.567  11.780  0.0915 -0.9362  0.7328
  118MOL0     C16208   9.771  10.459  11.797 -0.6673  0.7610 -1.4444
  118MOL0     C16209   9.769  10.404  11.939 -0.6776  0.8357 -0.6258
  118MOL0     C16210   9.651  10.332  11.981 -0.4305 -0.1693  0.1393
  118MOL0     C16211   9.542  10.289  12.004  0.0859 -0.1960 -0.3489
  118MOL0     C16212   9.882  10.788  11.412 -0.3631  0.3012 -0.4490
  118MOL0     C16213   9.892  10.925  11.365 -0.0675 -1.2848  0.7661
  118MOL0     C16214   9.985  10.971  11.270 -0.1926  0.0913  0.1383
  118MOL0     H16215   9.480  11.375  11.411  0.2963 -2.4896  0.9905
  118MOL0     H16216   9.428  11.555  11.267 -1.8212 -3.7969  2.3308
  118MOL0     H16217   9.314  11.531  11.025 -0.2566  1.6968  1.2956
  118MOL0     H16218   9.342  11.623  10.883 -0.4107  3.8689  0.0870
  118MOL0     H16219   9.404  11.755  11.146 -0.7413  0.6138  0.6657
  118MOL0     H16220   9.336  11.829  10.992  0.4449 -0.1760  0.7731
  118MOL0     H16221   9.166  11.634  11.148  2.8053 -0.7821 -1.2520
  118MOL0     H16222   9.221  11.781  11.233  0.9387  2.4939 -1.1275
  118MOL0     H16223   9.011  11.838  11.147 -1.4922  0.1338 -3.0444
  118MOL0     H16224   9.142  11.936  11.097 -2.5641 -0.1466  1.2934
  118MOL0     H16225   9.122  11.846  10.860 -1.1879 -2.8992 -2.9386
  118MOL0     H16226   8.971  11.911  10.920  2.1186  2.1734  1.5866
  118MOL0     H16227   9.012  11.611  10.950 -1.4801  0.9465  1.8636
  118MOL0     H16228   8.868  11.706  10.939  0.6061 -0.5038 -0.2939
  118MOL0     H16229   8.903  11.583  10.738  0.8027 -1.5224  1.6529
  118MOL0     H16230   9.056  11.653  10.702  0.3453 -2.2981 -0.6632
  118MOL0     H16231   8.787  11.778  10.714 -1.1910 -3.2528 -3.2384
  118MOL0     H16232   8.936  11.889  10.719 -2.2847  1.4785 -0.8674
  118MOL0     H16233   9.125  11.790  10.507 -0.1779  2.7518 -0.8929
  118MOL0     H16234   9.051  11.700  10.173  1.6382 -1.0070  0.1796
  118MOL0     H16235   9.192  11.757  10.260  0.8379  2.1673 -2.0506
  118MOL0     H16236   9.027  11.934  10.081  0.6726 -1.5473  0.3797
  118MOL0     H16237   9.134  11.995  10.197 -1.7005 -0.1548  0.9330
  118MOL0     H16238   9.236  11.974   9.958 -0.0873 -0.2721  0.6284
  118MOL0     H16239   9.319  11.876  10.077 -1.2904 -0.9930  0.7812
  118MOL0     H16240   9.263  11.774   9.863  1.1049 -3.1188  1.4430
  118MOL0     H16241   9.180  11.685   9.999 -3.3811  0.6512  0.6531
  118MOL0     H16242   8.839  11.902   9.843  0.6081 -1.6409  0.4976
  118MOL0     H16243   8.663  12.093   9.749 -3.3787 -1.5243 -1.9171
  118MOL0     H16244   8.669  12.045   9.577 -1.4333  2.0066  0.2007
  118MOL0     H16245   8.737  12.195   9.644 -5.2207  0.4396 -1.4632
  118MOL0     H16246   8.851  11.966   9.172  2.2423 -0.3335 -0.2583
  118MOL0     H16247   8.749  12.064   8.966 -1.2968  2.1915 -0.6303
  118MOL0     H16248   8.889  12.453   8.813  0.1435 -1.2801  0.3177
  118MOL0     H16249   9.014  12.340   8.767 -0.1666  0.2755 -1.0379
  118MOL0     H16250   8.913  12.449   8.561  0.4989  2.5978  2.7353
  118MOL0     H16251   8.877  12.270   8.566 -1.8092 -0.6403 -1.1030
  118MOL0     H16252   8.714  12.518   8.636 -1.4961 -0.2353  2.7443
  118MOL0     H16253   8.642  12.357   8.666 -3.7773  4.2891  0.2466
  118MOL0     H16254   8.688  12.291   8.445 -1.3432  0.3331  0.8146
  118MOL0     H16255   8.722  12.458   8.403  0.2633  0.3264  1.3343
  118MOL0     H16256   8.459  12.341   8.522  3.4054  0.1604  1.3186
  118MOL0     H16257   8.488  12.513   8.504  2.2810  0.9469 -0.0490
  118MOL0     H16258   8.502  12.282   8.278  0.3801  2.7116 -6.4773
  118MOL0     H16259   8.519  12.452   8.251  1.6140 -2.0400 -2.0142
  118MOL0     H16260   8.278  12.459   8.377  3.5899  2.6535 -0.3425
  118MOL0     H16261   8.278  12.287   8.328 -2.4046  0.4723 -0.8723
  118MOL0     H16262   8.302  12.361   8.085 -0.7645 -1.9435  1.3087
  118MOL0     H16263   8.353  12.513   8.134  1.7906 -1.2799  1.1341
  118MOL0     H16264   9.039  12.389   8.992  1.2200 -1.5741 -0.7596
  118MOL0     H16265   9.102  12.309   9.214 -3.2310  2.4722  0.5532
  118MOL0     H16266   9.172  12.040   9.516  1.3422 -1.4332  0.6546
  118MOL0     H16267   9.237  11.894   9.700  0.4193  0.9550 -1.2337
  118MOL0     H16268   9.669  11.398  10.961  0.3358  0.9257  0.9582
  118MOL0     H16269   9.735  11.210  11.095 -0.2048 -2.9393  2.1069
  118MOL0     H16270   9.665  11.052  11.596  1.1506  0.9439 -0.0542
  118MOL0     H16271   9.650  10.804  11.661 -1.2785  0.8350 -0.4596
  118MOL0     H16272   9.929  10.482  11.579  1.8723  0.4251 -0.1401
  118MOL0     H16273   9.990  10.649  11.594 -0.3290 -0.2803 -1.3652
  118MOL0     H16274   9.851  10.665  11.817 -0.1643 -0.4563 -0.6981
  118MOL0     H16275   9.971  10.535  11.836  0.5750  2.2039  1.9270
  118MOL0     H16276   9.675  10.504  11.770  0.6520  5.5419  0.7427
  118MOL0     H16277   9.781  10.378  11.725  0.7487 -1.7859  1.3772
  118MOL0     H16278   9.788  10.486  12.009 -3.1197  1.5034 -0.6763
  118MOL0     H16279   9.856  10.338  11.941 -0.5748  0.9466 -1.1893
  118MOL0     H16280   9.446  10.242  12.008  0.7139 -1.6405 -1.3766
  118MOL0     H16281   9.938  10.713  11.357 -1.0105  1.7751 -3.3102
  118MOL0     H16282   9.937  11.032  11.193  0.6804  0.9180  0.2237
  118MOL0     H16283  10.055  11.040  11.318  0.5418 -0.8684  0.4858
  118MOL0     H16284  10.042  10.887  11.227 -2.2356 -0.8977 -0.7739
  119MOL0     O16285   0.431   3.385   4.261  0.4141  0.9071  0.7865
  119MOL0     C16286   0.403   3.460   4.351  0.2262 -0.4817 -0.3070
  119MOL0     O16287   0.405   3.432   4.490 -0.4865 -0.0036  0.6920
  119MOL0     C16288   0.420   3.298   4.513  0.0729  0.9055  0.6060
  119MOL0     C16289   0.319   3.203   4.485  0.3725 -1.1113 -0.7933
  119MOL0     C16290   0.331   3.069   4.491 -0.1353  0.2262  0.2058
  119MOL0     C16291   0.452   3.018   4.543  0.6622  0.4930  0.7790
  119MOL0     O16292   0.481   2.882   4.566 -0.0251  0.6951  0.4948
  119MOL0     C16293   0.375   2.792   4.535  0.5724  0.5797 -0.5875
  119MOL0     C16294   0.430   2.639   4.543  0.2644 -0.2144  0.2264
  119MOL0     C16295   0.486   2.596   4.680 -0.0366  0.0355 -0.3155
  119MOL0     C16296   0.519   2.453   4.699 -0.0395 -0.0965 -0.2664
  119MOL0     C16297   0.624   2.413   4.812 -0.1131 -0.4250 -0.1027
  119MOL0     C16298   0.712   2.524   4.870  0.4363 -1.0169  0.1631
  119MOL0     C16299   0.807   2.479   4.982 -1.1520  0.1125 -0.1079
  119MOL0     C16300   0.926   2.388   4.938  0.1699 -0.4421  0.2721
  119MOL0     N16301   1.011   2.389   5.050  0.0838 -0.7576 -1.1563
  119MOL0     C16302   0.994   2.291   5.142 -0.2665  0.1182 -1.3240
  119MOL0     C16303   1.120   2.282   5.196 -0.4003 -0.0660 -0.7190
  119MOL0     C16304   1.163   2.182   5.298  0.1588  0.0809  1.1545
  119MOL0     C16305   1.312   2.209   5.332 -0.0073  0.5396  1.0646
  119MOL0     C16306   1.358   2.132   5.458  0.6707  0.1847 -0.2448
  119MOL0     C16307   1.343   1.982   5.443 -0.8798 -0.3226 -0.5375
  119MOL0     O16308   1.207   1.928   5.455 -0.1697 -0.3936  0.2145
  119MOL0     C16309   1.224   1.793   5.437 -0.2052  0.3241 -0.8500
  119MOL0     C16310   1.228   1.744   5.304  0.2687 -0.0104 -0.4817
  119MOL0     C16311   1.219   1.610   5.280 -0.3366 -0.2788  0.1905
  119MOL0     C16312   1.215   1.573   5.131 -0.0270  0.2724  0.1105
  119MOL0     C16313   1.211   1.515   5.378 -0.7723 -0.6783 -0.6166
  119MOL0     C16314   1.213   1.371   5.350 -0.5789 -0.3515  0.1580
  119MOL0     O16315   1.107   1.304   5.412 -0.1775  0.0607 -0.2266
  119MOL0     C16316   1.086   1.176   5.378  0.3012  0.6118 -0.1093
  119MOL0     C16317   1.192   1.084   5.399  0.6040 -0.0667  0.3809
  119MOL0     C16318   1.178   0.949   5.360  0.3299 -0.4018  0.5750
  119MOL0     C16319   1.054   0.911   5.311 -0.3492 -0.1527  0.5903
  119MOL0     O16320   1.025   0.775   5.291  0.3127  0.1425 -0.1663
  119MOL0     C16321   1.111   0.710   5.190  0.4586  0.0066  0.0010
  119MOL0     C16322   1.188   0.613   5.280 -0.6032  0.5512  0.5736
  119MOL0     C16323   1.121   0.479   5.318 -0.1650  0.0954 -0.6047
  119MOL0     C16324   1.150   0.384   5.206  0.2982  1.1379 -0.9783
  119MOL0     C16325   1.100   0.239   5.221  0.4272  0.2029 -0.7418
  119MOL0     C16326   1.168   0.151   5.120 -0.0816  0.6361 -0.6171
  119MOL0     C16327   1.135  -0.002   5.134  0.1572  0.2105 -0.1084
  119MOL0     C16328   1.224  -0.098   5.057 -0.3472  0.5206  0.3839
  119MOL0    Cl16329   1.377  -0.113   5.159 -0.2039 -0.0859  0.1252
  119MOL0     C16330   0.948   1.002   5.304 -0.4577 -0.0537 -0.4898
  119MOL0     C16331   0.962   1.136   5.332 -0.1460 -0.6791 -0.3746
  119MOL0     O16332   1.302   1.329   5.281  0.0328  0.0638 -0.3266
  119MOL0     C16333   1.214   1.558   5.519  0.2663  0.2842  0.3267
  119MOL0     C16334   1.212   1.696   5.542 -1.2469  0.1640  0.0489
  119MOL0     N16335   1.213   2.371   5.139 -0.0326  0.3538  0.2315
  119MOL0     N16336   1.138   2.436   5.057  0.1382 -0.2918  0.1614
  119MOL0     C16337   0.551   3.118   4.578  0.4164 -0.2207  0.0722
  119MOL0     C16338   0.539   3.252   4.561  0.1161 -0.3125  0.3807
  119MOL0     C16339   0.337   3.593   4.319 -0.4854 -0.2942  0.1997
  119MOL0     C16340   0.324   3.694   4.415 -0.6702 -0.8916  0.0459
  119MOL0     C16341   0.259   3.808   4.389 -0.4488  0.1841 -0.0705
  119MOL0     C16342   0.204   3.844   4.269 -0.6712 -0.2588  0.3098
  119MOL0     O16343   0.145   3.969   4.246 -0.7978  0.2959  0.4652
  119MOL0     C16344   0.200   4.078   4.310  0.1116  0.5045  0.8790
  119MOL0     C16345   0.121   4.200   4.265 -0.1193 -0.6190 -1.0289
  119MOL0     C16346   0.121   4.243   4.117  0.2130 -0.4546 -0.2601
  119MOL0     C16347   0.055   4.379   4.102 -0.5762  0.4136 -0.1103
  119MOL0     C16348   0.059   4.439   3.966  0.2227  0.4755  0.1963
  119MOL0     C16349   0.065   4.485   3.861  0.8221 -0.5253  0.6648
  119MOL0     C16350   0.220   3.747   4.166  0.0144 -0.4713 -0.5234
  119MOL0     C16351   0.279   3.617   4.193  0.0305  0.5576  0.5469
  119MOL0     C16352   0.247   3.509   4.093  0.2157  0.7296  0.3994
  119MOL0     H16353   0.229   3.240   4.438  1.0523  0.1188 -1.1875
  119MOL0     H16354   0.249   3.003   4.462  0.2684  0.2783 -1.1099
  119MOL0     H16355   0.341   2.813   4.433  0.5858 -1.5548 -1.0686
  119MOL0     H16356   0.300   2.793   4.615 -0.8157  0.5822 -1.8436
  119MOL0     H16357   0.346   2.575   4.515  0.4683 -0.1587 -0.5144
  119MOL0     H16358   0.519   2.630   4.480 -0.1119 -0.3142 -0.2945
  119MOL0     H16359   0.576   2.657   4.688 -1.1542  1.8975 -1.1008
  119MOL0     H16360   0.414   2.622   4.758 -3.0526  0.5266 -3.0179
  119MOL0     H16361   0.430   2.393   4.718 -0.7342  0.1185 -2.5064
  119MOL0     H16362   0.573   2.418   4.610  1.0295  0.5950  0.0841
  119MOL0     H16363   0.680   2.327   4.775 -0.1244  0.8319 -3.4269
  119MOL0     H16364   0.568   2.382   4.900 -0.3648  1.3681  0.4178
  119MOL0     H16365   0.769   2.557   4.782 -1.9339  1.3115 -0.6558
  119MOL0     H16366   0.660   2.614   4.905  1.8794 -0.7413  1.6857
  119MOL0     H16367   0.746   2.433   5.059 -1.4610  2.3599  1.0828
  119MOL0     H16368   0.859   2.566   5.024  0.8501 -1.3389  0.6012
  119MOL0     H16369   0.893   2.289   4.908  1.5249 -0.6346 -0.6718
  119MOL0     H16370   0.982   2.439   4.858  1.3109 -0.7442  0.8681
  119MOL0     H16371   0.901   2.239   5.160  0.5016 -1.0202 -0.5191
  119MOL0     H16372   1.145   2.090   5.242  0.2561  1.9840 -2.2639
  119MOL0     H16373   1.100   2.174   5.386  1.8185 -0.2097  2.3719
  119MOL0     H16374   1.376   2.194   5.245 -0.4671 -1.2158  1.0070
  119MOL0     H16375   1.316   2.317   5.352 -0.5884  1.4366 -2.8190
  119MOL0     H16376   1.463   2.163   5.466  1.0008 -1.1776  1.1246
  119MOL0     H16377   1.312   2.170   5.550  5.2203  0.9571  2.0358
  119MOL0     H16378   1.379   1.963   5.342  1.9579  0.7345  0.2007
  119MOL0     H16379   1.412   1.944   5.519 -2.3526 -3.1512 -0.4740
  119MOL0     H16380   1.250   1.820   5.229 -0.9316  3.1212  2.1042
  119MOL0     H16381   1.318   1.560   5.095  1.6052  1.3255  3.8681
  119MOL0     H16382   1.165   1.653   5.076  0.1763  0.0922 -0.3440
  119MOL0     H16383   1.153   1.486   5.109  1.1222 -0.6560  0.4078
  119MOL0     H16384   1.286   1.113   5.445  0.5597 -0.3386  0.6454
  119MOL0     H16385   1.265   0.884   5.357  0.7508  0.1735 -2.4531
  119MOL0     H16386   1.055   0.667   5.107 -1.7922  1.0457  0.8787
  119MOL0     H16387   1.183   0.780   5.149  1.4914 -1.9319 -1.6536
  119MOL0     H16388   1.285   0.604   5.231 -0.4917 -0.7039  0.9926
  119MOL0     H16389   1.218   0.670   5.369 -1.4342 -0.4305  1.4983
  119MOL0     H16390   1.013   0.491   5.330  0.0588  0.7832  0.9450
  119MOL0     H16391   1.161   0.449   5.415  0.9503  0.8034 -0.8277
  119MOL0     H16392   1.256   0.386   5.179  0.8467  2.3376  1.0774
  119MOL0     H16393   1.112   0.422   5.110 -1.1282  0.3885 -0.7443
  119MOL0     H16394   1.106   0.198   5.323  0.8490 -0.9552 -1.2097
  119MOL0     H16395   0.991   0.235   5.209  0.1696 -4.1990  0.9553
  119MOL0     H16396   1.275   0.163   5.137  0.5020  0.3866 -3.5888
  119MOL0     H16397   1.147   0.196   5.022  0.2083  0.0478 -0.9535
  119MOL0     H16398   1.030  -0.009   5.104 -0.3230 -2.7778  1.8372
  119MOL0     H16399   1.149  -0.048   5.232 -1.8006 -2.0415 -0.7731
  119MOL0     H16400   1.252  -0.057   4.960  1.0378  3.1073  1.7757
  119MOL0     H16401   1.183  -0.199   5.048 -1.5658  0.9144  1.2393
  119MOL0     H16402   0.851   0.963   5.276 -0.5564  1.9978 -3.4556
  119MOL0     H16403   0.879   1.206   5.332 -0.3604 -0.8015  2.4494
  119MOL0     H16404   1.212   1.476   5.590 -0.7376  2.1900  2.6508
  119MOL0     H16405   1.220   1.729   5.645  0.0229 -1.9887  0.7194
  119MOL0     H16406   0.640   3.091   4.633  0.4299 -0.6897 -0.1782
  119MOL0     H16407   0.617   3.314   4.604  1.1020 -1.0578 -0.3096
  119MOL0     H16408   0.364   3.674   4.513  2.6931  1.2720 -0.7271
  119MOL0     H16409   0.255   3.866   4.480 -5.2235 -0.0278  0.0728
  119MOL0     H16410   0.206   4.072   4.419  0.6521  2.0519  0.9573
  119MOL0     H16411   0.302   4.101   4.280  0.0399  1.2838  1.2162
  119MOL0     H16412   0.154   4.286   4.324  1.9794 -0.0488 -2.8766
  119MOL0     H16413   0.016   4.195   4.296 -0.1721  0.4980 -0.9780
  119MOL0     H16414   0.220   4.254   4.073  0.1323  3.9002  0.2296
  119MOL0     H16415   0.055   4.168   4.071 -0.5612 -1.1907  1.9425
  119MOL0     H16416   0.111   4.447   4.167 -1.3876  0.9240  0.0715
  119MOL0     H16417  -0.047   4.373   4.143  0.5220  1.6647  3.1564
  119MOL0     H16418   0.062   4.514   3.758 -2.3893 -2.7964 -0.0504
  119MOL0     H16419   0.169   3.766   4.072 -0.1748  1.3147 -0.0984
  119MOL0     H16420   0.236   3.416   4.149  0.8981 -1.5094 -2.9210
  119MOL0     H16421   0.150   3.528   4.046  0.7957  0.5596 -0.9089
  119MOL0     H16422   0.319   3.488   4.013  0.1147 -2.0224  0.9471
  120MOL0     O16423   0.923  10.957   6.152 -0.2065 -0.1217  0.7115
  120MOL0     C16424   0.987  10.881   6.090 -0.8103 -0.2492  0.0526
  120MOL0     O16425   1.061  10.778   6.140 -0.3117  0.3589 -0.3708
  120MOL0     C16426   1.053  10.749   6.275  0.9187  0.5007  0.1992
  120MOL0     C16427   1.122  10.812   6.381  1.1512  0.4152 -0.5523
  120MOL0     C16428   1.119  10.765   6.512 -0.8466  0.7022 -0.0761
  120MOL0     C16429   1.054  10.644   6.542  0.4117 -0.5912  0.7088
  120MOL0     O16430   1.061  10.604   6.674  0.0025  0.4487 -0.7556
  120MOL0     C16431   1.026  10.466   6.696  0.7435  0.6177 -0.0238
  120MOL0     C16432   1.071  10.414   6.841  0.5727 -0.0179 -0.0811
  120MOL0     C16433   1.217  10.411   6.868 -1.0127  0.5849 -0.2075
  120MOL0     C16434   1.250  10.338   6.998 -0.6929 -0.3177  0.2503
  120MOL0     C16435   1.391  10.350   7.052  0.8201  0.7378 -0.5522
  120MOL0     C16436   1.440  10.494   7.075  0.3411  0.4203  0.2789
  120MOL0     C16437   1.578  10.528   7.131 -0.5295 -0.7582 -0.4095
  120MOL0     C16438   1.691  10.493   7.024 -0.4183 -0.0653  0.2106
  120MOL0     N16439   1.823  10.535   7.085  0.2939  0.6906  0.6244
  120MOL0     C16440   1.874  10.665   7.087  0.1058 -0.1357 -0.7056
  120MOL0     C16441   2.000  10.648   7.137  0.3436 -0.2118 -0.5455
  120MOL0     C16442   2.108  10.741   7.160 -0.0915 -0.7506 -0.5300
  120MOL0     C16443   2.232  10.698   7.241  0.5049  0.8349  0.2755
  120MOL0     C16444   2.344  10.795   7.221  0.6007  0.0195  0.3715
  120MOL0     C16445   2.437  10.758   7.336 -0.0232 -0.4626  0.4189
  120MOL0     O16446   2.547  10.862   7.339  1.2839 -0.0789 -0.0859
  120MOL0     C16447   2.666  10.812   7.394  1.3366 -1.0157  0.5124
  120MOL0     C16448   2.685  10.697   7.464  0.3429 -0.8617 -0.5341
  120MOL0     C16449   2.808  10.661   7.527 -0.4974  0.4551 -0.4943
  120MOL0     C16450   2.809  10.531   7.603  0.3755 -0.7038 -0.4598
  120MOL0     C16451   2.925  10.736   7.505  0.1146 -0.0800  0.2126
  120MOL0     C16452   3.062  10.703   7.557 -0.0358  0.5958 -0.0868
  120MOL0     O16453   3.161  10.758   7.484  0.1442 -0.2715  0.0023
  120MOL0     C16454   3.296  10.730   7.502 -0.4844  0.4088 -0.3146
  120MOL0     C16455   3.368  10.652   7.601  0.4702 -0.7459 -1.3308
  120MOL0     C16456   3.504  10.651   7.618  0.6083  1.4783  0.4358
  120MOL0     C16457   3.584  10.719   7.513 -0.9698 -0.1561 -1.0498
  120MOL0     O16458   3.710  10.737   7.555  0.0997  0.7572  0.5629
  120MOL0     C16459   3.806  10.765   7.451 -0.2248 -0.1063  0.2437
  120MOL0     C16460   3.944  10.742   7.513  0.3581  0.5232  1.0491
  120MOL0     C16461   4.059  10.766   7.420  0.8317  0.2200 -0.4703
  120MOL0     C16462   4.102  10.911   7.429 -0.1441 -0.3291  0.7065
  120MOL0     C16463   4.222  10.926   7.322  0.0210 -0.3345 -0.0111
  120MOL0     C16464   4.348  10.843   7.366  0.1869  0.3890  0.0668
  120MOL0     C16465   4.473  10.872   7.283 -0.5736  0.5625 -0.9428
  120MOL0     C16466   4.585  10.770   7.294  0.5042  0.2524 -0.1380
  120MOL0    Cl16467   4.718  10.860   7.206  0.1656 -0.2865  0.5088
  120MOL0     C16468   3.519  10.771   7.393 -0.9954 -0.0309 -0.7382
  120MOL0     C16469   3.380  10.784   7.408  0.0931 -0.3993  0.2230
  120MOL0     O16470   3.073  10.634   7.659 -0.2474  0.3033  0.5169
  120MOL0     C16471   2.901  10.862   7.442  1.2240  0.2911  0.1046
  120MOL0     C16472   2.780  10.891   7.379  0.0960 -0.1631  0.0960
  120MOL0     N16473   2.014  10.511   7.176  0.3791 -0.8412 -0.3860
  120MOL0     N16474   1.912  10.443   7.155  0.5683  0.2993 -0.5979
  120MOL0     C16475   0.976  10.590   6.437 -0.0897  0.3886  0.7979
  120MOL0     C16476   0.964  10.647   6.314  1.0855  0.4135 -0.7053
  120MOL0     C16477   1.000  10.915   5.948  0.2219 -0.4236 -0.2256
  120MOL0     C16478   1.129  10.903   5.895  0.2554 -0.3901 -0.0276
  120MOL0     C16479   1.155  10.936   5.764  0.3360 -0.7175 -0.8306
  120MOL0     C16480   1.060  10.980   5.678 -0.3068  0.1621 -0.3557
  120MOL0     O16481   1.094  11.014   5.548  0.0193  0.4988 -0.5418
  120MOL0     C16482   1.002  11.072   5.450 -0.2972  1.1023 -0.6808
  120MOL0     C16483   1.059  11.101   5.313 -1.3830  0.6545 -0.2431
  120MOL0     C16484   1.084  10.973   5.234 -0.1141 -0.5776 -1.0977
  120MOL0     C16485   1.178  11.005   5.121 -0.4420 -0.5717  0.0300
  120MOL0     C16486   1.206  10.893   5.032  0.2978  0.1133 -1.0388
  120MOL0     C16487   1.231  10.805   4.955 -0.0789  0.3215  0.2900
  120MOL0     C16488   0.928  10.990   5.730 -0.3116  0.2568  0.3854
  120MOL0     C16489   0.899  10.960   5.866 -0.1296  0.2870 -0.4252
  120MOL0     C16490   0.757  10.984   5.908  0.3435  0.5253  0.1792
  120MOL0     H16491   1.188  10.894   6.356  1.9091  0.2587  0.8330
  120MOL0     H16492   1.171  10.815   6.592  1.6180 -1.7327  0.0012
  120MOL0     H16493   1.065  10.404   6.615 -3.9227 -0.8832 -1.4612
  120MOL0     H16494   0.919  10.447   6.685  0.5703  0.1631  1.9712
  120MOL0     H16495   1.024  10.477   6.917 -3.4152 -0.3047 -2.0630
  120MOL0     H16496   1.034  10.312   6.856  3.7430 -1.0263  2.0851
  120MOL0     H16497   1.266  10.359   6.785 -2.1650  1.5592 -1.5389
  120MOL0     H16498   1.250  10.515   6.877  0.8377 -0.1350  4.4784
  120MOL0     H16499   1.182  10.376   7.075  1.6157  0.4944  1.9875
  120MOL0     H16500   1.234  10.230   6.986 -2.6576 -0.0921  0.5160
  120MOL0     H16501   1.457  10.306   6.976 -3.0207 -2.5281 -2.3097
  120MOL0     H16502   1.398  10.296   7.147  2.4680  1.5734 -0.1510
  120MOL0     H16503   1.424  10.556   6.986  0.6829  1.0918  0.6735
  120MOL0     H16504   1.369  10.540   7.145 -2.1524 -0.1268 -1.7324
  120MOL0     H16505   1.602  10.472   7.222  1.2625  0.0384 -0.3313
  120MOL0     H16506   1.580  10.631   7.168 -0.6937 -0.9305  0.0816
  120MOL0     H16507   1.702  10.384   7.016  1.7802 -0.0201  1.6693
  120MOL0     H16508   1.674  10.542   6.928 -4.9981 -2.0767 -0.2842
  120MOL0     H16509   1.824  10.755   7.051  0.9848  1.6056  2.0675
  120MOL0     H16510   2.069  10.834   7.204  3.1134  0.2318  0.5169
  120MOL0     H16511   2.130  10.775   7.058  1.4478 -0.2061 -0.0379
  120MOL0     H16512   2.193  10.682   7.342  1.8924  0.3052  0.7411
  120MOL0     H16513   2.269  10.600   7.212  1.4060  0.9435  1.0243
  120MOL0     H16514   2.396  10.787   7.125  0.4638 -0.5469  0.3397
  120MOL0     H16515   2.305  10.897   7.235 -2.6486 -0.8596 -1.2047
  120MOL0     H16516   2.400  10.746   7.438  2.0372 -0.0520  1.2693
  120MOL0     H16517   2.473  10.657   7.313  1.3465 -0.1031  0.8624
  120MOL0     H16518   2.599  10.636   7.489 -0.7965  1.1940  0.9178
  120MOL0     H16519   2.705  10.499   7.617 -0.1352  1.6629  2.1428
  120MOL0     H16520   2.850  10.541   7.704 -0.2763 -1.5023 -0.1058
  120MOL0     H16521   2.871  10.453   7.559 -1.7422 -0.8026 -3.5803
  120MOL0     H16522   3.306  10.613   7.681 -1.5615  1.5634 -1.6558
  120MOL0     H16523   3.556  10.616   7.706 -0.9660 -1.5831  0.3007
  120MOL0     H16524   3.797  10.701   7.363 -3.9384 -1.6989  1.5598
  120MOL0     H16525   3.790  10.868   7.419 -1.1999 -0.1098  0.6616
  120MOL0     H16526   3.960  10.793   7.608 -0.1378  1.5818  0.5777
  120MOL0     H16527   3.951  10.636   7.538  1.9803  0.1830 -0.6231
  120MOL0     H16528   4.040  10.750   7.313  1.9987  1.9191 -0.9694
  120MOL0     H16529   4.142  10.701   7.450 -1.7461 -3.4953 -0.7137
  120MOL0     H16530   4.146  10.943   7.524 -1.1787  3.9558 -0.0276
  120MOL0     H16531   4.024  10.984   7.403  1.2608  0.9799  0.0282
  120MOL0     H16532   4.188  10.905   7.221 -1.2749  0.5334  0.2321
  120MOL0     H16533   4.259  11.029   7.315 -1.1292  0.0896  0.0451
  120MOL0     H16534   4.326  10.735   7.368  0.9030  0.0846 -3.2605
  120MOL0     H16535   4.376  10.866   7.469  1.4765  0.1113 -0.2104
  120MOL0     H16536   4.503  10.972   7.315 -0.8142  1.0723 -2.2910
  120MOL0     H16537   4.452  10.886   7.177  2.6769  1.0496 -1.6238
  120MOL0     H16538   4.562  10.675   7.244  3.9978 -1.9581  1.9836
  120MOL0     H16539   4.629  10.743   7.391 -1.2259  1.1642  0.9569
  120MOL0     H16540   3.581  10.821   7.320  1.5770  0.9017  1.8752
  120MOL0     H16541   3.330  10.861   7.349  1.3903  0.7828  0.6169
  120MOL0     H16542   2.976  10.940   7.436 -0.5516  2.1339  0.6884
  120MOL0     H16543   2.769  10.982   7.320  1.8388  0.6447  0.9452
  120MOL0     H16544   0.911  10.505   6.454  0.9169 -0.5086  0.2723
  120MOL0     H16545   0.893  10.598   6.248  1.3480 -2.6772  1.1001
  120MOL0     H16546   1.206  10.884   5.969 -0.0652 -0.7233  0.2222
  120MOL0     H16547   1.258  10.939   5.730  0.3990  2.9735 -0.6572
  120MOL0     H16548   0.913  11.009   5.440  1.2035 -0.9188 -2.5805
  120MOL0     H16549   0.961  11.166   5.487 -3.2457 -1.8717  4.9582
  120MOL0     H16550   1.160  11.142   5.323 -1.8277  1.4479  1.4149
  120MOL0     H16551   0.990  11.165   5.258 -4.9067 -1.6349  1.1221
  120MOL0     H16552   1.139  10.912   5.307  0.3462  1.3325  0.2273
  120MOL0     H16553   0.996  10.913   5.207 -0.4355 -0.9928  0.7253
  120MOL0     H16554   1.275  11.039   5.158 -1.5158  1.0498  1.5827
  120MOL0     H16555   1.122  11.082   5.066 -1.0879 -1.4496 -0.5695
  120MOL0     H16556   1.245  10.719   4.894 -1.5760  0.4059 -0.2160
  120MOL0     H16557   0.851  11.026   5.663  1.4669  1.1843 -1.2887
  120MOL0     H16558   0.737  11.090   5.923  2.5087  1.0851 -0.5347
  120MOL0     H16559   0.695  10.934   5.833  0.4492 -0.3865  0.6835
  120MOL0     H16560   0.740  10.926   6.000  1.3498 -2.4393 -1.3586
  121MOL0     O16561   1.506   2.051   2.927  0.6882 -0.0817 -0.4377
  121MOL0     C16562   1.607   2.029   2.854 -0.0595  0.1790 -0.3439
  121MOL0     O16563   1.600   1.997   2.718  0.1103 -0.4446 -0.1363
  121MOL0     C16564   1.476   2.018   2.653 -0.4889  0.7102 -0.4885
  121MOL0     C16565   1.426   2.151   2.638 -0.1349 -0.1234 -0.9747
  121MOL0     C16566   1.306   2.168   2.564  1.0605  0.1714 -0.4414
  121MOL0     C16567   1.232   2.057   2.514 -0.2601 -0.2374 -0.9502
  121MOL0     O16568   1.109   2.080   2.442 -1.4641  0.0697 -0.3898
  121MOL0     C16569   1.012   2.154   2.517 -0.1861 -0.5367 -0.7712
  121MOL0     C16570   0.899   2.073   2.586  0.2533  0.7398  0.2505
  121MOL0     C16571   0.935   2.006   2.732 -0.9009 -0.0432 -0.3959
  121MOL0     C16572   0.832   1.918   2.796  0.4493 -0.1488  0.7242
  121MOL0     C16573   0.884   1.837   2.916  0.3343  0.1081 -0.2338
  121MOL0     C16574   0.767   1.754   2.973 -0.4898 -0.2889 -0.2653
  121MOL0     C16575   0.797   1.676   3.099 -0.5302  0.0823 -0.4843
  121MOL0     C16576   0.913   1.571   3.093  0.4339  1.1926 -0.5068
  121MOL0     N16577   0.933   1.514   3.227 -0.8618  0.0993 -0.6498
  121MOL0     C16578   1.031   1.556   3.319  0.0348 -1.1049 -0.4628
  121MOL0     C16579   0.995   1.486   3.433 -0.3755  0.3668  1.0932
  121MOL0     C16580   1.058   1.504   3.569 -0.4816  0.0458 -0.7232
  121MOL0     C16581   1.187   1.420   3.588  0.4903 -0.4362  0.5394
  121MOL0     C16582   1.320   1.492   3.546  1.2576 -0.1686 -0.4713
  121MOL0     C16583   1.448   1.434   3.596  0.3763  0.1523  0.1170
  121MOL0     O16584   1.435   1.293   3.567 -0.4930  0.0230 -0.5202
  121MOL0     C16585   1.518   1.250   3.472  0.2939 -0.2545 -0.9815
  121MOL0     C16586   1.660   1.254   3.480  0.2750 -0.5765 -0.8414
  121MOL0     C16587   1.741   1.209   3.374 -0.5682 -1.4010  0.0202
  121MOL0     C16588   1.883   1.236   3.394  0.0085 -0.5744 -0.0559
  121MOL0     C16589   1.684   1.159   3.258  0.5302  0.6119  0.0423
  121MOL0     C16590   1.759   1.105   3.142  0.1065  0.3980  0.2926
  121MOL0     O16591   1.704   1.112   3.016  0.1641 -0.1181  0.7671
  121MOL0     C16592   1.767   1.062   2.897 -0.0156 -0.0556 -0.0382
  121MOL0     C16593   1.773   0.918   2.875  0.0795 -0.1165 -0.8603
  121MOL0     C16594   1.849   0.872   2.767 -0.0243 -0.5317  0.8634
  121MOL0     C16595   1.912   0.965   2.675 -0.1884  0.0482 -0.5191
  121MOL0     O16596   1.988   0.934   2.565  0.4441  0.5774  0.1374
  121MOL0     C16597   1.933   0.969   2.442  0.2082  0.1294 -0.0768
  121MOL0     C16598   1.783   0.929   2.433  0.7682 -0.5259  0.1611
  121MOL0     C16599   1.742   0.919   2.286 -0.0131  0.2011  0.1444
  121MOL0     C16600   1.619   0.829   2.303 -0.1777 -0.6998 -0.1700
  121MOL0     C16601   1.542   0.793   2.178 -0.2525 -0.4608 -0.4721
  121MOL0     C16602   1.462   0.906   2.108  0.2256 -0.4880  0.4076
  121MOL0     C16603   1.387   0.856   1.979 -0.1038 -0.6676 -0.4278
  121MOL0     C16604   1.273   0.955   1.960 -0.6917 -0.6168  0.3717
  121MOL0    Cl16605   1.341   1.117   1.915  0.3949  0.0544 -0.3526
  121MOL0     C16606   1.902   1.108   2.700  0.5561  0.1443 -0.7616
  121MOL0     C16607   1.826   1.146   2.809 -0.1101  0.4321  0.6158
  121MOL0     O16608   1.864   1.050   3.169 -1.0763  0.0602  0.1744
  121MOL0     C16609   1.541   1.162   3.245  0.3446  0.6784 -1.0916
  121MOL0     C16610   1.463   1.203   3.353  0.2397 -0.2817  0.0105
  121MOL0     N16611   0.878   1.408   3.404 -0.6020  0.8283 -0.3429
  121MOL0     N16612   0.839   1.437   3.289 -0.0187  0.0799  0.5292
  121MOL0     C16613   1.279   1.922   2.549  0.2694 -0.2192  0.0178
  121MOL0     C16614   1.403   1.900   2.622  1.3025 -0.0529  0.2693
  121MOL0     C16615   1.740   2.041   2.918  0.5436 -0.2661  0.0864
  121MOL0     C16616   1.849   2.003   2.840 -0.0287  0.3128 -0.3304
  121MOL0     C16617   1.977   1.991   2.891 -0.4338  0.0869  0.8639
  121MOL0     C16618   2.007   2.022   3.019  0.3505  0.2119 -0.5200
  121MOL0     O16619   2.138   2.003   3.068  0.3331 -0.4820 -0.3599
  121MOL0     C16620   2.171   2.002   3.206  0.3211 -0.1605 -0.1665
  121MOL0     C16621   2.130   1.865   3.265  0.5503 -0.2014  0.2701
  121MOL0     C16622   2.200   1.741   3.213 -0.3684  0.5844 -0.0279
  121MOL0     C16623   2.282   1.665   3.322  0.6464  0.2299  0.3166
  121MOL0     C16624   2.402   1.729   3.366 -0.0870  0.5543  0.2318
  121MOL0     C16625   2.488   1.802   3.417  1.0681 -1.0669 -0.3366
  121MOL0     C16626   1.892   2.068   3.096  0.0446 -0.7770  0.3726
  121MOL0     C16627   1.762   2.083   3.045  0.2408  0.3196 -0.4904
  121MOL0     C16628   1.658   2.147   3.143 -0.1144 -0.4462  1.1135
  121MOL0     H16629   1.478   2.233   2.687  2.3785 -0.6523 -2.5742
  121MOL0     H16630   1.259   2.265   2.557  0.8556 -0.0376 -2.9540
  121MOL0     H16631   0.973   2.229   2.448  0.9789 -0.7002 -1.6440
  121MOL0     H16632   1.060   2.213   2.596 -0.4196  0.0415 -1.0498
  121MOL0     H16633   0.815   2.141   2.605  0.3987  0.7130  1.0166
  121MOL0     H16634   0.861   1.992   2.524  1.9437  1.2296 -1.4975
  121MOL0     H16635   1.017   1.934   2.727 -1.2743 -0.4825 -0.3283
  121MOL0     H16636   0.964   2.084   2.802 -0.1630  0.0401 -0.7886
  121MOL0     H16637   0.752   1.984   2.829 -0.3558 -0.3112 -0.7942
  121MOL0     H16638   0.787   1.853   2.719 -0.6374  1.0107  0.3454
  121MOL0     H16639   0.914   1.905   2.996 -0.6112 -0.0778  0.2854
  121MOL0     H16640   0.970   1.775   2.887  0.2686 -0.6384  1.0609
  121MOL0     H16641   0.686   1.822   3.001  0.0714  0.6885 -0.9368
  121MOL0     H16642   0.724   1.684   2.902 -1.3882  2.5663 -2.7711
  121MOL0     H16643   0.707   1.615   3.115 -1.5504  2.0715  2.3198
  121MOL0     H16644   0.799   1.747   3.182 -0.5466  0.4178 -0.7670
  121MOL0     H16645   0.882   1.490   3.027  0.5047  1.0453 -0.3584
  121MOL0     H16646   1.003   1.616   3.050  1.2612  1.3323  1.2774
  121MOL0     H16647   1.113   1.626   3.314 -3.5404  3.5631 -0.8567
  121MOL0     H16648   0.990   1.458   3.642  1.4737  2.0846  2.6235
  121MOL0     H16649   1.070   1.609   3.596  3.2816 -0.5845  0.6664
  121MOL0     H16650   1.199   1.400   3.695  4.6401  0.8602  0.4807
  121MOL0     H16651   1.160   1.325   3.540 -0.0861 -0.9642  1.8567
  121MOL0     H16652   1.311   1.516   3.439 -3.5798 -0.0262 -0.2612
  121MOL0     H16653   1.304   1.589   3.593 -0.0782 -1.2079  1.3294
  121MOL0     H16654   1.527   1.487   3.542  1.1906  2.9462  3.7055
  121MOL0     H16655   1.459   1.463   3.701 -1.8733  1.4870  0.0349
  121MOL0     H16656   1.701   1.302   3.568 -0.1988  1.2909 -1.6016
  121MOL0     H16657   1.948   1.149   3.410 -0.3721 -1.1861 -1.6158
  121MOL0     H16658   1.900   1.307   3.475  0.6778  0.2094 -0.8563
  121MOL0     H16659   1.927   1.289   3.309  1.1232 -3.2849 -1.2986
  121MOL0     H16660   1.725   0.843   2.937 -0.7850  1.9861  1.1585
  121MOL0     H16661   1.869   0.766   2.755 -4.1230 -1.3438 -0.2557
  121MOL0     H16662   1.948   1.074   2.416  1.5038 -0.8158 -3.8192
  121MOL0     H16663   1.981   0.917   2.358  1.2670  0.9048  0.0307
  121MOL0     H16664   1.767   0.843   2.499 -1.8074  1.7056  2.7415
  121MOL0     H16665   1.716   1.005   2.472  0.0780 -0.7705 -0.5134
  121MOL0     H16666   1.807   0.854   2.226  0.7786  0.1968  0.9870
  121MOL0     H16667   1.718   1.013   2.235 -1.5793 -0.6360 -0.7389
  121MOL0     H16668   1.549   0.895   2.355 -1.3589 -3.1521  1.5912
  121MOL0     H16669   1.633   0.737   2.361  0.3348  0.4937  1.6608
  121MOL0     H16670   1.607   0.738   2.108  0.1213 -1.0142  0.2949
  121MOL0     H16671   1.470   0.716   2.207 -0.2429  0.1082  1.1538
  121MOL0     H16672   1.522   0.989   2.070 -2.2380  2.3056  2.1490
  121MOL0     H16673   1.402   0.959   2.183 -1.5010  2.1292 -2.5633
  121MOL0     H16674   1.343   0.756   1.985 -2.7263  0.0740 -3.7727
  121MOL0     H16675   1.439   0.871   1.884  0.4886 -1.8642 -0.3151
  121MOL0     H16676   1.216   0.960   2.053 -1.5243  1.6068 -0.1998
  121MOL0     H16677   1.216   0.915   1.875 -0.8465  2.1407 -0.9570
  121MOL0     H16678   1.924   1.175   2.618 -0.9496  1.1970 -0.3567
  121MOL0     H16679   1.820   1.254   2.817  4.2777  0.9834 -0.7042
  121MOL0     H16680   1.483   1.122   3.163 -2.6510  1.4249  0.5168
  121MOL0     H16681   1.355   1.187   3.344  0.5773 -3.2375  0.0005
  121MOL0     H16682   1.207   1.845   2.522  0.7634 -0.9804  0.8005
  121MOL0     H16683   1.434   1.804   2.660 -0.9568 -0.7208  0.5725
  121MOL0     H16684   1.832   1.971   2.738 -2.0291 -1.7007  0.5586
  121MOL0     H16685   2.062   1.965   2.828  1.7640 -0.3310  3.7835
  121MOL0     H16686   2.278   2.017   3.221  0.2317 -1.0292  1.5573
  121MOL0     H16687   2.110   2.077   3.258  1.3314  0.6044 -0.0645
  121MOL0     H16688   2.021   1.862   3.250  0.7654  2.9466 -3.3045
  121MOL0     H16689   2.157   1.874   3.371 -0.1208 -0.4396  0.4723
  121MOL0     H16690   2.125   1.684   3.157 -0.3260  0.9213 -0.4320
  121MOL0     H16691   2.276   1.767   3.140  1.1852  0.0308  1.3291
  121MOL0     H16692   2.305   1.565   3.285  2.8562 -0.4558  3.1534
  121MOL0     H16693   2.215   1.654   3.408  1.2686  1.8436  1.0594
  121MOL0     H16694   2.564   1.875   3.436 -1.4961  0.9997  3.0428
  121MOL0     H16695   1.909   2.121   3.189  1.0823  3.0002 -1.7668
  121MOL0     H16696   1.610   2.066   3.199 -1.2261 -2.0998 -1.9883
  121MOL0     H16697   1.701   2.223   3.209 -0.9142  2.3579 -1.3302
  121MOL0     H16698   1.582   2.203   3.086  1.4861  0.6116 -0.0604
  122MOL0     O16699   8.717   3.325   3.247  0.0934 -1.4221  0.7405
  122MOL0     C16700   8.758   3.248   3.338  0.2909 -0.8626  0.6539
  122MOL0     O16701   8.690   3.143   3.395  0.3560  0.4929  0.2418
  122MOL0     C16702   8.555   3.126   3.371  0.4953 -0.6696  0.1747
  122MOL0     C16703   8.450   3.223   3.386 -0.2420 -0.4116 -0.3818
  122MOL0     C16704   8.316   3.185   3.361 -0.4993 -0.3397 -0.8668
  122MOL0     C16705   8.280   3.054   3.314 -0.2247 -0.3889 -0.4359
  122MOL0     O16706   8.153   3.015   3.291  0.7276  0.2002  0.3362
  122MOL0     C16707   8.044   3.080   3.364 -0.3349  0.2338 -0.0668
  122MOL0     C16708   8.000   3.209   3.290  0.4169  0.3343  0.3816
  122MOL0     C16709   7.902   3.302   3.374 -1.0228  0.4026 -0.5129
  122MOL0     C16710   7.762   3.248   3.373  0.1160 -0.3095 -0.3290
  122MOL0     C16711   7.655   3.329   3.453  0.5766  0.5877  1.0134
  122MOL0     C16712   7.591   3.449   3.378 -0.3629  0.9364  0.1915
  122MOL0     C16713   7.453   3.491   3.428  0.8726  0.5774 -0.4795
  122MOL0     C16714   7.464   3.587   3.555 -0.3757 -0.1250 -0.0221
  122MOL0     N16715   7.354   3.554   3.648 -0.3135  0.8026 -0.6793
  122MOL0     C16716   7.356   3.433   3.721  0.4123  0.2622 -0.2441
  122MOL0     C16717   7.235   3.440   3.783  0.4661  0.0511  0.6775
  122MOL0     C16718   7.184   3.327   3.857  0.0876  0.8486 -0.3742
  122MOL0     C16719   7.225   3.337   4.005  0.3806 -0.7649  0.5017
  122MOL0     C16720   7.260   3.203   4.072  0.4689  0.4934  0.1191
  122MOL0     C16721   7.295   3.239   4.227  0.2203  1.2927 -0.3663
  122MOL0     O16722   7.166   3.244   4.292 -0.8577 -0.0174 -0.8165
  122MOL0     C16723   7.138   3.246   4.427  0.5261  0.4906  0.4441
  122MOL0     C16724   7.004   3.260   4.469  0.3017 -0.8065  0.4474
  122MOL0     C16725   6.978   3.247   4.610  0.0979  0.3892  0.4165
  122MOL0     C16726   6.831   3.251   4.637 -0.8017  0.0925 -0.1134
  122MOL0     C16727   7.072   3.224   4.707  0.5694  0.3121 -0.2295
  122MOL0     C16728   7.052   3.189   4.859  0.7740 -0.2685  0.1938
  122MOL0     O16729   7.144   3.230   4.952 -0.6152 -0.2735  0.3489
  122MOL0     C16730   7.155   3.165   5.070  1.2524  0.5149 -0.5114
  122MOL0     C16731   7.057   3.173   5.173 -0.5254 -0.6952 -0.2278
  122MOL0     C16732   7.077   3.131   5.304 -0.1508 -0.4169  0.6473
  122MOL0     C16733   7.202   3.078   5.340 -0.4283  0.5284 -0.2974
  122MOL0     O16734   7.227   3.041   5.471 -0.0694  0.3301 -0.5446
  122MOL0     C16735   7.362   2.997   5.506 -1.4305 -0.3041  0.1543
  122MOL0     C16736   7.410   2.943   5.646  0.0415 -0.3011 -1.3096
  122MOL0     C16737   7.314   2.830   5.698  0.0294  0.4778  0.3250
  122MOL0     C16738   7.342   2.689   5.633 -0.0271 -0.7580  0.1547
  122MOL0     C16739   7.444   2.601   5.716  0.1104  0.6159  0.1765
  122MOL0     C16740   7.414   2.449   5.680 -0.1808 -1.1957 -0.2706
  122MOL0     C16741   7.554   2.369   5.698 -0.2513 -0.5763  0.3511
  122MOL0     C16742   7.533   2.227   5.661  0.2235  0.1986 -0.3494
  122MOL0    Cl16743   7.665   2.130   5.695 -0.0630  0.1695 -0.0204
  122MOL0     C16744   7.301   3.062   5.239  0.4330  0.3244 -0.4061
  122MOL0     C16745   7.277   3.105   5.106 -0.3240 -0.4105 -0.8761
  122MOL0     O16746   6.961   3.114   4.876  0.8208  0.1853 -0.2970
  122MOL0     C16747   7.208   3.223   4.657  0.2409 -0.3926 -0.4207
  122MOL0     C16748   7.238   3.247   4.525 -0.0799  0.5409 -0.5762
  122MOL0     N16749   7.169   3.560   3.748 -0.1295 -0.5346  0.8812
  122MOL0     N16750   7.249   3.633   3.673 -0.1914 -0.8378 -0.0609
  122MOL0     C16751   8.386   2.970   3.287  0.6471 -0.5937 -0.9512
  122MOL0     C16752   8.517   3.004   3.314 -0.0005  1.1178  0.4430
  122MOL0     C16753   8.876   3.294   3.418 -0.7679  0.1176  0.2941
  122MOL0     C16754   8.894   3.242   3.545 -0.2332 -0.1803 -0.2429
  122MOL0     C16755   9.024   3.253   3.613 -0.2628 -0.1576  0.1804
  122MOL0     C16756   9.129   3.329   3.569 -0.2601  0.1520 -0.1302
  122MOL0     O16757   9.248   3.356   3.636 -0.0487  0.9904  0.3487
  122MOL0     C16758   9.268   3.288   3.759 -0.6839 -0.0309 -0.7838
  122MOL0     C16759   9.400   3.319   3.832  0.3319 -0.6551  1.2835
  122MOL0     C16760   9.518   3.273   3.751 -0.6858  0.9775 -0.0649
  122MOL0     C16761   9.660   3.295   3.804 -0.0134  0.2819  0.2533
  122MOL0     C16762   9.765   3.233   3.723 -0.0104 -0.1183  0.1953
  122MOL0     C16763   9.856   3.199   3.652 -1.1094  0.1418  1.0080
  122MOL0     C16764   9.111   3.383   3.442  0.1936 -0.7095  0.3383
  122MOL0     C16765   8.995   3.365   3.365  0.8818 -0.5839 -1.0292
  122MOL0     C16766   8.990   3.421   3.227 -0.6300 -0.5900  0.3417
  122MOL0     H16767   8.477   3.322   3.422 -3.2452  1.1707 -2.1349
  122MOL0     H16768   8.239   3.261   3.373  0.1071  0.2675 -0.7521
  122MOL0     H16769   8.077   3.101   3.466 -0.6893  0.9009 -0.0855
  122MOL0     H16770   7.957   3.014   3.373  0.8033 -1.2580  0.2600
  122MOL0     H16771   8.074   3.277   3.248  0.2459  0.4118  0.2038
  122MOL0     H16772   7.933   3.177   3.209  0.3954 -1.5300  1.0843
  122MOL0     H16773   7.950   3.311   3.472  2.1538  1.2022 -1.9911
  122MOL0     H16774   7.898   3.404   3.334 -0.2027  0.0519 -1.5331
  122MOL0     H16775   7.735   3.244   3.267 -0.5386  0.5028 -0.2086
  122MOL0     H16776   7.761   3.144   3.406 -3.1497 -0.0985  0.5018
  122MOL0     H16777   7.703   3.361   3.546 -1.4407 -0.0103  2.3248
  122MOL0     H16778   7.572   3.264   3.482 -2.5031  2.7768 -2.0602
  122MOL0     H16779   7.657   3.535   3.365  0.6130  0.2777  0.7080
  122MOL0     H16780   7.578   3.415   3.275 -1.4702 -2.4878  1.3202
  122MOL0     H16781   7.395   3.400   3.447  1.0265  0.3524 -1.0643
  122MOL0     H16782   7.399   3.548   3.352 -1.7534 -0.9233  0.1289
  122MOL0     H16783   7.561   3.586   3.606 -0.7484 -2.6695  0.8006
  122MOL0     H16784   7.449   3.691   3.523  0.4387  0.2132  0.6671
  122MOL0     H16785   7.431   3.355   3.714  0.0625 -0.6559  3.8409
  122MOL0     H16786   7.216   3.225   3.835 -0.2537  0.4712  0.7893
  122MOL0     H16787   7.076   3.339   3.842  0.3312  0.8736 -2.3867
  122MOL0     H16788   7.319   3.391   3.992  2.4165 -3.9569  0.8848
  122MOL0     H16789   7.155   3.397   4.065  1.7861  1.0423  0.4435
  122MOL0     H16790   7.184   3.125   4.073 -1.6570  2.2587 -3.5732
  122MOL0     H16791   7.349   3.161   4.023 -1.3832 -1.8146 -1.4460
  122MOL0     H16792   7.345   3.152   4.271  1.6947  0.3253 -3.6486
  122MOL0     H16793   7.334   3.340   4.235  2.7284  0.5133 -1.7989
  122MOL0     H16794   6.925   3.273   4.397 -0.5579 -0.6803  1.3877
  122MOL0     H16795   6.802   3.223   4.739  0.6957 -1.1657  0.0081
  122MOL0     H16796   6.772   3.183   4.574 -1.4000  0.4909  0.0070
  122MOL0     H16797   6.801   3.355   4.625  3.0789  1.5828  1.4255
  122MOL0     H16798   6.963   3.224   5.151 -0.0237  1.4173  2.0956
  122MOL0     H16799   7.009   3.145   5.388  1.1744 -1.5450  1.9771
  122MOL0     H16800   7.381   2.907   5.447 -0.1835 -0.7410  1.1704
  122MOL0     H16801   7.431   3.074   5.470 -0.2871 -0.8244  1.1656
  122MOL0     H16802   7.511   2.901   5.640 -0.4934 -1.7068 -0.7072
  122MOL0     H16803   7.423   3.022   5.720  3.2785 -1.1145 -0.8492
  122MOL0     H16804   7.209   2.856   5.684 -0.1141  0.3002  1.0327
  122MOL0     H16805   7.320   2.818   5.807 -1.6422  0.6111  0.4596
  122MOL0     H16806   7.384   2.700   5.533  2.9655  0.8751  1.4475
  122MOL0     H16807   7.239   2.652   5.634 -1.7977  3.6113  1.3636
  122MOL0     H16808   7.543   2.627   5.678  0.7121  1.0605  1.9293
  122MOL0     H16809   7.451   2.618   5.824  1.2510  0.0797  0.1990
  122MOL0     H16810   7.375   2.445   5.578  0.3109  0.8767 -0.5917
  122MOL0     H16811   7.336   2.415   5.748 -1.9894  1.7897 -0.6630
  122MOL0     H16812   7.586   2.392   5.800 -0.8147  2.5988 -0.0539
  122MOL0     H16813   7.624   2.423   5.633 -0.0772 -1.8748 -0.5634
  122MOL0     H16814   7.505   2.218   5.555 -0.5226  0.3052 -0.1716
  122MOL0     H16815   7.446   2.190   5.716 -1.3963  0.6481 -2.4627
  122MOL0     H16816   7.399   3.020   5.260  0.1546  0.2736  0.8311
  122MOL0     H16817   7.368   3.102   5.047 -0.0730  4.1512 -1.1004
  122MOL0     H16818   7.288   3.211   4.730  0.9527 -2.6612 -1.4670
  122MOL0     H16819   7.344   3.255   4.503  1.1470 -0.2119  4.0762
  122MOL0     H16820   8.375   2.869   3.249 -0.3749 -1.4139  1.3587
  122MOL0     H16821   8.598   2.940   3.280 -1.5935 -1.8791  1.9693
  122MOL0     H16822   8.816   3.209   3.613  2.0162  0.9522  3.1994
  122MOL0     H16823   9.032   3.188   3.700 -1.1950 -3.3891 -1.9430
  122MOL0     H16824   9.190   3.307   3.833 -0.7839 -2.0764 -0.3019
  122MOL0     H16825   9.268   3.180   3.745 -0.6463 -0.2760  0.8900
  122MOL0     H16826   9.391   3.256   3.921 -1.4259  0.4100  1.9169
  122MOL0     H16827   9.408   3.424   3.860  3.3845 -1.0219  2.1889
  122MOL0     H16828   9.504   3.166   3.735 -2.5271  1.1398  0.1635
  122MOL0     H16829   9.520   3.329   3.657  1.5039  2.0854  0.5830
  122MOL0     H16830   9.667   3.259   3.907 -0.9751 -3.6144 -0.8716
  122MOL0     H16831   9.674   3.403   3.798 -1.0960  0.3870 -0.4512
  122MOL0     H16832   9.927   3.152   3.587  2.9810  2.1990  3.5709
  122MOL0     H16833   9.187   3.452   3.405 -0.7084 -0.9622 -2.1587
  122MOL0     H16834   8.926   3.508   3.213  0.0792 -0.1885 -0.5062
  122MOL0     H16835   9.094   3.431   3.194 -0.0817 -4.4609  0.3588
  122MOL0     H16836   8.959   3.348   3.152  2.6363  2.0460 -4.0440
  123MOL0     O16837  10.016   7.253   6.961 -0.2339 -0.5735  0.0953
  123MOL0     C16838  10.081   7.150   6.949 -0.0962  0.7066  0.3659
  123MOL0     O16839  10.106   7.072   7.056  0.2461 -0.2348  0.1447
  123MOL0     C16840  10.052   7.105   7.173  0.3104 -0.1530  0.6207
  123MOL0     C16841   9.953   7.024   7.230 -0.2785 -0.3479 -1.0684
  123MOL0     C16842   9.896   7.060   7.352 -0.0481 -0.5951  0.8393
  123MOL0     C16843   9.947   7.173   7.425  0.5104  0.0269 -0.3898
  123MOL0     O16844   9.897   7.222   7.543  0.1146 -0.1575 -0.3308
  123MOL0     C16845   9.821   7.143   7.636 -0.2149 -0.4163  0.9853
  123MOL0     C16846   9.906   7.045   7.714 -0.2441  0.2126 -0.1151
  123MOL0     C16847   9.824   6.972   7.818  0.1368 -0.7617 -0.3628
  123MOL0     C16848   9.713   6.887   7.752 -0.2015 -0.5426 -0.0179
  123MOL0     C16849   9.606   6.845   7.852 -0.4036 -0.2647 -0.0058
  123MOL0     C16850   9.657   6.780   7.987  0.2090 -0.9991 -0.0466
  123MOL0     C16851   9.538   6.703   8.041 -0.0220  0.2547 -0.4968
  123MOL0     C16852   9.586   6.617   8.155  0.7415  0.9157  0.5880
  123MOL0     N16853   9.646   6.696   8.263 -0.3804 -0.1399  0.1714
  123MOL0     C16854   9.774   6.679   8.315 -0.6187  0.3273 -0.0603
  123MOL0     C16855   9.779   6.743   8.430  0.4603  0.2710 -0.5890
  123MOL0     C16856   9.888   6.760   8.536 -0.4768 -0.2205  0.1000
  123MOL0     C16857   9.833   6.715   8.669 -0.8637 -1.1020 -0.4237
  123MOL0     C16858   9.747   6.588   8.677  0.7458  0.4452 -1.6312
  123MOL0     C16859   9.767   6.457   8.590  0.0332 -0.9570  0.4951
  123MOL0     O16860   9.838   6.355   8.668 -0.5660 -0.7938  0.4469
  123MOL0     C16861   9.781   6.272   8.761  0.4475 -0.1506  0.3569
  123MOL0     C16862   9.639   6.250   8.769  0.2371  0.5854 -0.9816
  123MOL0     C16863   9.581   6.154   8.859  0.9084 -0.1634 -1.0337
  123MOL0     C16864   9.432   6.118   8.851  0.2650  1.0574  0.9231
  123MOL0     C16865   9.667   6.084   8.948 -0.5533  0.3926 -0.1847
  123MOL0     C16866   9.633   5.979   9.052 -1.3458 -0.1678 -0.2764
  123MOL0     O16867   9.741   5.906   9.098  0.1359  0.4711  0.3905
  123MOL0     C16868   9.698   5.807   9.190 -0.0323 -0.7772  0.3151
  123MOL0     C16869   9.679   5.673   9.155  0.3860 -0.2195 -0.0127
  123MOL0     C16870   9.616   5.577   9.239 -0.1562 -1.6048  0.8048
  123MOL0     C16871   9.598   5.607   9.376  0.5212  0.1135 -0.0890
  123MOL0     O16872   9.542   5.527   9.470 -0.0846 -0.4634 -0.1736
  123MOL0     C16873   9.508   5.398   9.435  0.3146  0.8781 -0.4606
  123MOL0     C16874   9.430   5.317   9.549  0.0971 -0.0501 -0.1040
  123MOL0     C16875   9.302   5.385   9.584 -0.3513 -0.6364 -0.7800
  123MOL0     C16876   9.219   5.308   9.692  0.0207 -1.4639  0.3350
  123MOL0     C16877   9.084   5.373   9.704 -0.6283 -0.6860 -0.1369
  123MOL0     C16878   8.990   5.316   9.798  0.1006  0.1342  0.4423
  123MOL0     C16879   8.952   5.173   9.764 -0.2068 -0.9614 -1.2107
  123MOL0     C16880   8.813   5.135   9.806 -0.3869  0.1719 -0.0025
  123MOL0    Cl16881   8.769   5.195   9.969 -0.0567 -0.2106 -0.2387
  123MOL0     C16882   9.632   5.737   9.414  0.2069 -0.0607  0.5057
  123MOL0     C16883   9.677   5.837   9.330 -0.1962 -0.1840 -0.1751
  123MOL0     O16884   9.517   5.978   9.101 -0.0079 -0.0592  0.6130
  123MOL0     C16885   9.804   6.114   8.932 -1.0988 -0.4323  0.8472
  123MOL0     C16886   9.866   6.205   8.847  0.9379 -0.0384 -0.4683
  123MOL0     N16887   9.652   6.792   8.447  0.3011 -0.0529 -0.4606
  123MOL0     N16888   9.576   6.755   8.356 -0.6855  0.5213  0.0953
  123MOL0     C16889  10.046   7.253   7.365 -0.0355  0.4152  0.6865
  123MOL0     C16890  10.096   7.220   7.239  0.7179 -0.8357  0.5769
  123MOL0     C16891  10.142   7.113   6.819  0.0436 -0.1745 -0.5824
  123MOL0     C16892  10.267   7.039   6.827  0.1678  0.0102 -0.0222
  123MOL0     C16893  10.328   6.993   6.709 -1.3876  0.0955 -0.3558
  123MOL0     C16894  10.260   7.006   6.585 -0.5987  0.2042 -1.2226
  123MOL0     O16895  10.304   6.955   6.467  0.2004  0.1437 -0.2925
  123MOL0     C16896  10.356   6.824   6.483  0.4009 -0.3012  1.0886
  123MOL0     C16897  10.294   6.760   6.361  0.2219  1.0889 -0.7325
  123MOL0     C16898  10.362   6.633   6.316 -0.0672  0.7067  0.6548
  123MOL0     C16899  10.331   6.611   6.166 -0.5575  0.7575  0.5817
  123MOL0     C16900  10.434   6.514   6.110 -0.1637 -0.7252 -0.1998
  123MOL0     C16901  10.502   6.429   6.054  0.7239 -0.1250 -0.3835
  123MOL0     C16902  10.140   7.089   6.578  0.6333 -0.1101  0.5929
  123MOL0     C16903  10.082   7.137   6.694 -0.5827  0.0951 -0.0713
  123MOL0     C16904   9.953   7.213   6.677 -0.6898 -0.9153  0.3991
  123MOL0     H16905   9.908   6.946   7.170 -1.0151 -0.8177  0.0649
  123MOL0     H16906   9.814   6.993   7.377  1.3297 -2.5358  0.4284
  123MOL0     H16907   9.749   7.092   7.572 -1.1196  2.5336 -0.5617
  123MOL0     H16908   9.778   7.219   7.702 -0.4216  2.4618 -2.1905
  123MOL0     H16909   9.948   6.968   7.650  1.0919 -0.2378  1.2491
  123MOL0     H16910   9.994   7.090   7.759  1.0077 -4.5012  2.9650
  123MOL0     H16911   9.896   6.911   7.873 -0.0128 -1.0406 -0.4699
  123MOL0     H16912   9.771   7.043   7.882 -0.7126 -2.4831  0.9415
  123MOL0     H16913   9.663   6.943   7.672 -0.0681 -0.2897  0.0766
  123MOL0     H16914   9.757   6.797   7.710  0.4545 -0.2210 -0.0200
  123MOL0     H16915   9.544   6.776   7.794  1.7167 -0.2842 -2.3914
  123MOL0     H16916   9.542   6.932   7.871  0.6336  0.6293 -0.5206
  123MOL0     H16917   9.738   6.707   7.982 -0.6956 -1.9450 -3.6369
  123MOL0     H16918   9.692   6.855   8.058  0.9827 -2.1442  0.8277
  123MOL0     H16919   9.514   6.629   7.964 -0.9055 -1.9695  1.7634
  123MOL0     H16920   9.451   6.764   8.066  1.2755  0.8560  3.3396
  123MOL0     H16921   9.505   6.554   8.193 -1.3901  1.8573 -2.0575
  123MOL0     H16922   9.649   6.538   8.113 -3.9698 -1.8233 -2.2028
  123MOL0     H16923   9.858   6.620   8.280  0.9984  2.9843 -0.8968
  123MOL0     H16924   9.919   6.865   8.533  1.8767 -0.7828  1.9935
  123MOL0     H16925   9.965   6.689   8.505 -2.7969 -2.5502 -0.7397
  123MOL0     H16926   9.917   6.701   8.738 -0.0720 -0.8812 -1.3184
  123MOL0     H16927   9.785   6.801   8.715 -0.4108 -1.4727  0.7932
  123MOL0     H16928   9.751   6.559   8.783 -1.3890 -2.1361 -2.1535
  123MOL0     H16929   9.641   6.610   8.666  0.7535  2.2412  0.9149
  123MOL0     H16930   9.669   6.422   8.555  0.8389 -3.2901  0.4273
  123MOL0     H16931   9.824   6.482   8.501 -2.6350 -3.0709 -2.0338
  123MOL0     H16932   9.582   6.305   8.695  1.6640  2.1174 -1.0042
  123MOL0     H16933   9.410   6.022   8.804 -2.3126  2.5534 -1.1878
  123MOL0     H16934   9.385   6.197   8.793  0.3394  0.2532 -0.2677
  123MOL0     H16935   9.378   6.123   8.945 -0.9899  3.5909  0.1554
  123MOL0     H16936   9.712   5.638   9.058 -0.3871 -0.5334 -0.1698
  123MOL0     H16937   9.597   5.480   9.194  3.5970 -0.8480 -3.0895
  123MOL0     H16938   9.434   5.407   9.356 -0.7808  0.2424  0.4684
  123MOL0     H16939   9.601   5.345   9.409  1.2467  2.3991 -0.3326
  123MOL0     H16940   9.409   5.211   9.533 -0.2926 -0.3496  2.0535
  123MOL0     H16941   9.495   5.330   9.637  2.1851 -0.4113 -1.5256
  123MOL0     H16942   9.234   5.392   9.498 -3.8440  1.4531  1.9100
  123MOL0     H16943   9.323   5.486   9.618  2.8272 -0.9399 -1.5578
  123MOL0     H16944   9.265   5.316   9.791 -0.4116  0.5885  0.4170
  123MOL0     H16945   9.208   5.201   9.668 -0.4963 -1.3927  0.2398
  123MOL0     H16946   9.093   5.480   9.724 -0.4981 -0.3751 -1.6907
  123MOL0     H16947   9.049   5.375   9.600  0.4050 -3.3033 -0.6101
  123MOL0     H16948   8.906   5.385   9.790  0.4315  0.3239 -2.8040
  123MOL0     H16949   9.021   5.315   9.903 -0.7767  1.0394  0.7282
  123MOL0     H16950   9.023   5.109   9.816  0.1948  0.8648  0.5957
  123MOL0     H16951   8.956   5.163   9.655 -2.0109 -0.2554 -1.3766
  123MOL0     H16952   8.808   5.025   9.807 -0.0936  0.1594  0.8386
  123MOL0     H16953   8.732   5.167   9.740 -2.6261 -2.0128  1.4804
  123MOL0     H16954   9.598   5.756   9.515 -1.2090 -2.1301  0.4729
  123MOL0     H16955   9.676   5.943   9.356 -2.6492 -0.6880  2.1225
  123MOL0     H16956   9.882   6.067   8.992  0.1630 -0.1188 -0.5127
  123MOL0     H16957   9.972   6.225   8.833  1.1710 -1.6532 -1.1227
  123MOL0     H16958  10.081   7.343   7.416 -1.4777  4.5853 -4.7764
  123MOL0     H16959  10.175   7.286   7.203 -0.1774 -0.3477 -0.5515
  123MOL0     H16960  10.303   7.012   6.926 -0.2035 -2.1945 -0.4566
  123MOL0     H16961  10.425   6.947   6.719 -2.3310 -1.5487  2.0497
  123MOL0     H16962  10.465   6.826   6.475  0.2565  0.0378 -3.7721
  123MOL0     H16963  10.334   6.763   6.571 -0.7236 -1.8128 -0.2064
  123MOL0     H16964  10.323   6.823   6.277  3.4784  1.6149  0.6310
  123MOL0     H16965  10.186   6.744   6.366  0.2384  0.6129 -1.8213
  123MOL0     H16966  10.470   6.647   6.311  0.1357 -0.8666 -4.0496
  123MOL0     H16967  10.349   6.544   6.378  1.5675 -1.9426 -2.5441
  123MOL0     H16968  10.345   6.704   6.108 -0.8140  1.0474  0.9820
  123MOL0     H16969  10.229   6.572   6.160 -1.3199  2.6678  0.3198
  123MOL0     H16970  10.554   6.355   5.996 -2.1165 -3.2146  0.7083
  123MOL0     H16971  10.102   7.091   6.476  0.8926  0.1565  0.5016
  123MOL0     H16972   9.983   7.316   6.696 -0.4706 -0.6995 -1.0184
  123MOL0     H16973   9.906   7.199   6.579 -0.0993  1.7890 -0.3548
  123MOL0     H16974   9.874   7.189   6.749 -0.1604 -0.0142  1.3075
  124MOL0     O16975   1.968   8.431   9.781  0.4424  0.6659  0.0852
  124MOL0     C16976   1.912   8.329   9.732  0.3929  0.5926  0.6799
  124MOL0     O16977   1.838   8.329   9.617 -0.0646 -0.1695  0.3227
  124MOL0     C16978   1.853   8.437   9.533 -0.0098 -0.9937  0.9756
  124MOL0     C16979   1.964   8.445   9.450 -0.3075 -0.2459  0.0512
  124MOL0     C16980   1.988   8.561   9.361  0.4594 -0.5323  0.5174
  124MOL0     C16981   1.893   8.660   9.364 -0.7199  0.8531  0.1880
  124MOL0     O16982   1.909   8.761   9.266  0.0340  0.8247 -0.5521
  124MOL0     C16983   2.040   8.782   9.206 -0.8029  0.7372 -0.0716
  124MOL0     C16984   2.041   8.893   9.104 -0.4276  0.3159 -0.2425
  124MOL0     C16985   2.001   9.028   9.163 -0.3743 -0.2903  0.1256
  124MOL0     C16986   1.850   9.056   9.155  0.2338 -0.1552  0.0727
  124MOL0     C16987   1.827   9.208   9.134 -0.2565 -0.7910 -0.4946
  124MOL0     C16988   1.679   9.236   9.152 -0.2688 -0.1778  0.6302
  124MOL0     C16989   1.649   9.386   9.132  0.0789 -0.2920 -0.7499
  124MOL0     C16990   1.494   9.420   9.108 -0.5013  0.4535 -0.0719
  124MOL0     N16991   1.413   9.392   9.230 -0.0115 -0.6202 -0.0345
  124MOL0     C16992   1.428   9.444   9.358  1.2544  0.1202 -0.7360
  124MOL0     C16993   1.306   9.401   9.409  0.3126  1.0022  1.1671
  124MOL0     C16994   1.268   9.428   9.554  0.1810  0.1638  0.1720
  124MOL0     C16995   1.267   9.293   9.624 -0.4239 -0.6768  0.4361
  124MOL0     C16996   1.222   9.322   9.758 -0.5459  0.0714 -0.0649
  124MOL0     C16997   1.227   9.189   9.843  0.2664  0.0323 -0.4311
  124MOL0     O16998   1.214   9.240   9.979 -0.2011  1.2495  0.2765
  124MOL0     C16999   1.188   9.143  10.079  0.8929 -0.1469  0.2759
  124MOL0     C17000   1.176   9.193  10.204  0.0079  0.1190  0.1178
  124MOL0     C17001   1.161   9.115  10.323  0.2658  0.4764 -0.2076
  124MOL0     C17002   1.148   9.189  10.460 -0.1749  0.0212 -0.5235
  124MOL0     C17003   1.156   8.978  10.301  0.3588 -0.1137 -0.6810
  124MOL0     C17004   1.152   8.881  10.424 -1.4234  0.0388 -0.1326
  124MOL0     O17005   1.130   8.754  10.379  0.5836 -0.3154  0.0866
  124MOL0     C17006   1.125   8.649  10.469  0.3252 -0.6246  0.1415
  124MOL0     C17007   1.138   8.643  10.609 -0.0706  0.2507  0.7342
  124MOL0     C17008   1.129   8.523  10.679 -0.4453  0.3428 -0.2077
  124MOL0     C17009   1.116   8.399  10.602 -0.1195 -0.0344 -0.1166
  124MOL0     O17010   1.114   8.284  10.677 -0.4814  0.8509  0.2089
  124MOL0     C17011   1.062   8.174  10.604  0.7364 -1.0284 -0.2086
  124MOL0     C17012   1.026   8.058  10.699  0.0562  0.2917 -0.0909
  124MOL0     C17013   1.154   8.002  10.771  0.2344  0.9482 -0.1180
  124MOL0     C17014   1.269   7.949  10.683  0.9262 -0.8576  0.5943
  124MOL0     C17015   1.373   7.892  10.768  0.6453 -0.0705 -0.9253
  124MOL0     C17016   1.512   7.900  10.722 -0.4675  0.9757  0.2257
  124MOL0     C17017   1.611   7.836  10.827 -0.5196 -0.7278  1.0418
  124MOL0     C17018   1.756   7.854  10.779 -0.4129 -0.3060  0.4326
  124MOL0    Cl17019   1.811   8.016  10.741  0.0703 -0.0295 -0.0439
  124MOL0     C17020   1.090   8.407  10.466  0.8339  0.1777 -0.1105
  124MOL0     C17021   1.086   8.527  10.400 -0.4107 -1.0029  0.5320
  124MOL0     O17022   1.153   8.915  10.540  0.5920 -0.8966 -0.4478
  124MOL0     C17023   1.179   8.919  10.176 -0.2437 -0.1633  0.9458
  124MOL0     C17024   1.192   9.007  10.069  0.7135  0.0024 -0.2677
  124MOL0     N17025   1.236   9.320   9.328 -0.2646  0.0028  0.0881
  124MOL0     N17026   1.294   9.331   9.211  0.4460  0.4135  0.2599
  124MOL0     C17027   1.778   8.652   9.450 -0.3244  1.0123  0.1620
  124MOL0     C17028   1.765   8.545   9.535 -0.3569 -0.9453 -0.0154
  124MOL0     C17029   1.900   8.200   9.803  0.3784  0.7845  0.8583
  124MOL0     C17030   1.821   8.096   9.746  0.6280  0.8111 -0.3526
  124MOL0     C17031   1.824   7.968   9.801 -0.8366 -0.1783  0.3999
  124MOL0     C17032   1.919   7.927   9.897 -0.5754  0.4551  0.2775
  124MOL0     O17033   1.932   7.794   9.924  0.3788 -0.5179 -0.2104
  124MOL0     C17034   1.978   7.754  10.053 -0.9235  0.7745 -0.1625
  124MOL0     C17035   1.866   7.749  10.153 -0.0884  0.4469 -0.1505
  124MOL0     C17036   1.918   7.714  10.293 -0.5696  0.4697 -0.0338
  124MOL0     C17037   1.812   7.707  10.396 -0.0178 -0.4042 -0.3282
  124MOL0     C17038   1.858   7.632  10.514 -0.4875 -0.6736 -0.0245
  124MOL0     C17039   1.897   7.574  10.615  1.0772  0.4692 -0.6560
  124MOL0     C17040   1.979   8.033   9.958 -1.1698 -1.0978  0.6667
  124MOL0     C17041   1.979   8.165   9.916  0.3865 -0.1968 -0.2159
  124MOL0     C17042   2.071   8.265   9.988  0.5968  0.1906  0.6571
  124MOL0     H17043   2.035   8.365   9.462 -0.9522 -0.4704  3.1990
  124MOL0     H17044   2.080   8.560   9.304 -0.2513 -0.0782 -0.6769
  124MOL0     H17045   2.065   8.690   9.152 -3.4147 -0.0860 -0.0454
  124MOL0     H17046   2.104   8.788   9.295  0.8043 -6.0387 -0.2523
  124MOL0     H17047   2.143   8.901   9.066 -0.1120  2.7107  0.8849
  124MOL0     H17048   1.975   8.873   9.020  0.4700  0.9563 -1.1347
  124MOL0     H17049   2.041   9.052   9.262  0.2673  2.7886 -0.7545
  124MOL0     H17050   2.047   9.101   9.096 -2.5270 -0.3509 -1.5284
  124MOL0     H17051   1.795   9.000   9.078 -1.3481  1.4621 -0.0176
  124MOL0     H17052   1.803   9.018   9.246 -1.2514 -1.4338 -1.1693
  124MOL0     H17053   1.862   9.240   9.036  2.5939  2.7197  1.4097
  124MOL0     H17054   1.894   9.265   9.198 -0.2421 -0.3653 -0.8864
  124MOL0     H17055   1.637   9.187   9.064  0.5288  2.8231 -1.5878
  124MOL0     H17056   1.649   9.201   9.251  1.3332 -0.2993  1.1070
  124MOL0     H17057   1.702   9.420   9.043  1.0984 -0.8032 -0.3522
  124MOL0     H17058   1.691   9.452   9.209 -1.0583  0.6279 -0.8975
  124MOL0     H17059   1.483   9.526   9.083  0.6121  1.0241  1.7292
  124MOL0     H17060   1.458   9.372   9.016  3.4833 -2.4234 -0.3899
  124MOL0     H17061   1.485   9.526   9.398  0.9504 -0.8916  1.9942
  124MOL0     H17062   1.173   9.484   9.556  1.8406  3.2035  1.9485
  124MOL0     H17063   1.343   9.490   9.604 -0.7226  0.1143  1.6481
  124MOL0     H17064   1.203   9.226   9.565 -2.2295  0.8491  0.5826
  124MOL0     H17065   1.371   9.259   9.629  0.0992  0.4970 -1.3820
  124MOL0     H17066   1.283   9.400   9.804  1.4328 -0.6494 -1.3215
  124MOL0     H17067   1.119   9.354   9.740 -0.2787 -0.4197 -3.2090
  124MOL0     H17068   1.150   9.116   9.816 -0.9528 -0.0314  2.7811
  124MOL0     H17069   1.320   9.131   9.838 -0.3858 -0.9799 -1.4075
  124MOL0     H17070   1.182   9.301  10.207  2.0148  0.0113  1.5782
  124MOL0     H17071   1.224   9.169  10.537 -0.4005  3.6487  0.8059
  124MOL0     H17072   1.048   9.172  10.502 -1.0656  0.9262 -2.2033
  124MOL0     H17073   1.160   9.296  10.447  0.0214 -0.1276 -1.6622
  124MOL0     H17074   1.155   8.735  10.664 -0.7136 -0.5137  2.2616
  124MOL0     H17075   1.149   8.522  10.786  1.9760  2.7571 -0.5144
  124MOL0     H17076   0.971   8.203  10.552  0.6290 -3.0327 -1.2268
  124MOL0     H17077   1.135   8.149  10.526 -0.1807  1.2046 -1.8732
  124MOL0     H17078   0.944   8.089  10.765  0.0645  2.5041 -1.0482
  124MOL0     H17079   0.986   7.967  10.652  2.3113 -1.1636  0.6727
  124MOL0     H17080   1.124   7.916  10.833 -1.4425  1.1887 -0.5422
  124MOL0     H17081   1.197   8.074  10.840  1.6705 -0.9234  1.0442
  124MOL0     H17082   1.308   8.027  10.616 -1.5008  0.5754  0.7238
  124MOL0     H17083   1.236   7.863  10.624  1.8291  1.1015 -3.1079
  124MOL0     H17084   1.364   7.943  10.865  2.2838 -1.3925 -0.0107
  124MOL0     H17085   1.356   7.787  10.793  0.0498  0.9196  3.9652
  124MOL0     H17086   1.536   8.005  10.702  1.6978  0.6987  1.1206
  124MOL0     H17087   1.520   7.844  10.629 -2.0003  1.0375  0.0286
  124MOL0     H17088   1.587   7.731  10.845  1.3338 -0.8830  3.0125
  124MOL0     H17089   1.600   7.881  10.926  1.5760 -0.5626  1.2436
  124MOL0     H17090   1.759   7.807  10.680  2.3527  1.1587 -0.3052
  124MOL0     H17091   1.831   7.807  10.843  1.0682 -1.5389 -2.0332
  124MOL0     H17092   1.093   8.326  10.394  0.6893  0.2303 -0.1747
  124MOL0     H17093   1.072   8.533  10.293  2.7943  1.3523  0.1301
  124MOL0     H17094   1.188   8.811  10.168  2.5755  0.1172 -1.5444
  124MOL0     H17095   1.210   8.962   9.972 -0.7987 -0.6855 -0.2494
  124MOL0     H17096   1.698   8.724   9.439  1.0746  2.4891 -0.7652
  124MOL0     H17097   1.677   8.541   9.598 -0.7248  1.9342 -0.1885
  124MOL0     H17098   1.751   8.113   9.665  1.3730 -0.2008 -1.2261
  124MOL0     H17099   1.762   7.899   9.744 -1.5415  1.6622 -1.2142
  124MOL0     H17100   2.022   7.654  10.041 -1.7319  0.5819 -1.8508
  124MOL0     H17101   2.061   7.811  10.095 -1.2513  2.8556 -2.1408
  124MOL0     H17102   1.811   7.662  10.117 -0.0008 -0.9784  2.8292
  124MOL0     H17103   1.810   7.843  10.149 -1.4707 -0.3728 -0.5572
  124MOL0     H17104   1.989   7.631  10.287 -0.2762  0.8268 -3.0979
  124MOL0     H17105   1.990   7.794  10.312  0.0498  0.7198 -2.9572
  124MOL0     H17106   1.724   7.651  10.362 -1.0023  0.3431  0.9272
  124MOL0     H17107   1.777   7.808  10.418  3.3036  0.4702  1.7135
  124MOL0     H17108   1.942   7.519  10.695  0.1219  2.5761  1.4551
  124MOL0     H17109   2.050   8.014  10.039  0.0486 -1.9524 -0.5432
  124MOL0     H17110   2.017   8.359  10.004 -0.3094 -0.3818  0.9789
  124MOL0     H17111   2.115   8.237  10.084  1.7751  1.1022  0.4112
  124MOL0     H17112   2.163   8.286   9.931  1.2508  2.5220  2.4283
  125MOL0     O17113   6.141   9.953  11.483 -0.0157 -0.6147 -0.7526
  125MOL0     C17114   6.260   9.925  11.507 -1.0074 -0.3288 -0.0153
  125MOL0     O17115   6.366   9.959  11.429  0.4317  0.3109 -0.8572
  125MOL0     C17116   6.341  10.025  11.307 -1.6451  0.4923 -0.2156
  125MOL0     C17117   6.276  10.150  11.294 -0.3262 -0.5466 -0.3409
  125MOL0     C17118   6.290  10.220  11.163 -0.1877 -0.2388 -0.6559
  125MOL0     C17119   6.352  10.163  11.054 -0.3920  1.0033 -0.2199
  125MOL0     O17120   6.349  10.228  10.929 -0.0397  0.2926  0.6944
  125MOL0     C17121   6.481  10.262  10.883 -0.5553 -0.5905 -0.4288
  125MOL0     C17122   6.474  10.379  10.780 -0.0789  0.1734  0.2260
  125MOL0     C17123   6.443  10.526  10.829  0.3944  0.9127  0.0023
  125MOL0     C17124   6.429  10.616  10.709  0.7137  0.3559  0.6759
  125MOL0     C17125   6.422  10.763  10.756 -0.2894  0.9463 -0.7251
  125MOL0     C17126   6.566  10.819  10.777 -0.0869  0.2446  0.0656
  125MOL0     C17127   6.565  10.972  10.789 -0.6375  0.7709 -0.8571
  125MOL0     C17128   6.694  11.024  10.860 -0.2804  0.1172 -0.5482
  125MOL0     N17129   6.700  10.979  11.002  0.5383  0.1318 -0.5138
  125MOL0     C17130   6.809  10.941  11.069  0.6068  0.1656  0.0012
  125MOL0     C17131   6.772  10.953  11.198  0.4252  0.5044  0.1173
  125MOL0     C17132   6.882  10.924  11.296  0.3931  0.3608  0.0688
  125MOL0     C17133   6.961  11.057  11.325  0.1829 -0.4980  0.6111
  125MOL0     C17134   7.105  11.033  11.292 -0.1512 -0.5825  0.0124
  125MOL0     C17135   7.177  10.991  11.428  0.1252 -0.8246 -0.4138
  125MOL0     O17136   7.125  10.867  11.471  0.1353  0.9942 -0.9282
  125MOL0     C17137   7.166  10.760  11.408 -0.7743  0.4017  0.1394
  125MOL0     C17138   7.093  10.651  11.447  0.7150  1.0345 -0.0042
  125MOL0     C17139   7.117  10.519  11.414  0.9860  0.1528  0.4137
  125MOL0     C17140   7.006  10.413  11.437 -0.6858  0.0986 -0.0370
  125MOL0     C17141   7.241  10.491  11.351  0.5761  0.3987 -0.4549
  125MOL0     C17142   7.276  10.353  11.316 -0.3366 -0.5231  0.0799
  125MOL0     O17143   7.217  10.252  11.383  0.2601  0.0643  0.6473
  125MOL0     C17144   7.224  10.117  11.352 -0.0782  0.1926 -0.3843
  125MOL0     C17145   7.348  10.059  11.346  0.2549 -1.0117  0.1772
  125MOL0     C17146   7.360   9.930  11.297  0.1409  0.0509 -0.0167
  125MOL0     C17147   7.252   9.847  11.269  0.0253  0.4489  1.1153
  125MOL0     O17148   7.271   9.718  11.228 -0.2703  1.3532  0.5817
  125MOL0     C17149   7.375   9.633  11.291  0.1909 -1.2311 -0.7622
  125MOL0     C17150   7.338   9.487  11.280  0.1914 -0.0823 -0.6023
  125MOL0     C17151   7.226   9.445  11.380  0.3617  0.8483 -0.5180
  125MOL0     C17152   7.265   9.464  11.522 -0.2293  0.1591 -0.1759
  125MOL0     C17153   7.143   9.502  11.606 -0.3335  0.3886  0.7248
  125MOL0     C17154   7.096   9.650  11.580 -0.3128  0.1929  0.4884
  125MOL0     C17155   7.036   9.708  11.709  0.0398 -0.2759 -0.8640
  125MOL0     C17156   6.942   9.821  11.678  0.2189 -0.2646  0.2796
  125MOL0    Cl17157   6.886   9.900  11.831 -0.1248  0.3183 -0.0382
  125MOL0     C17158   7.121   9.913  11.276 -0.9651  0.2625  0.4082
  125MOL0     C17159   7.110  10.047  11.307  0.2775 -0.8420  0.0162
  125MOL0     O17160   7.341  10.342  11.219  0.3158  0.6303  0.0543
  125MOL0     C17161   7.320  10.600  11.308 -0.6702 -0.4128  0.6373
  125MOL0     C17162   7.289  10.733  11.344  0.3982 -0.5408 -0.0483
  125MOL0     N17163   6.640  10.992  11.210  0.5461 -0.1993  0.1463
  125MOL0     N17164   6.592  10.993  11.094  0.1089  0.0229 -0.3048
  125MOL0     C17165   6.413  10.033  11.064  0.0933 -0.4598  0.6725
  125MOL0     C17166   6.401   9.967  11.197  0.6288  0.3607  0.4205
  125MOL0     C17167   6.308   9.888  11.640  1.1373  0.2021 -0.6295
  125MOL0     C17168   6.445   9.916  11.673 -0.7543 -0.1910 -0.1536
  125MOL0     C17169   6.499   9.893  11.794  0.5310  0.2359 -0.8979
  125MOL0     C17170   6.421   9.843  11.905 -0.0637 -0.2962  1.2895
  125MOL0     O17171   6.493   9.824  12.018 -0.9021  0.0047 -0.3151
  125MOL0     C17172   6.445   9.752  12.121 -0.6747 -0.3699 -0.6480
  125MOL0     C17173   6.533   9.752  12.249 -0.6796  0.3127  0.7629
  125MOL0     C17174   6.663   9.677  12.226  0.3025 -0.2798  0.2459
  125MOL0     C17175   6.777   9.776  12.183 -0.8356  0.1822 -0.8718
  125MOL0     C17176   6.901   9.711  12.156  1.0897  0.7110 -0.7937
  125MOL0     C17177   7.010   9.662  12.125  0.2540 -0.4745 -0.0521
  125MOL0     C17178   6.283   9.831  11.878  0.2326 -0.6609 -0.6572
  125MOL0     C17179   6.226   9.847  11.751  0.1709  0.0215 -0.8913
  125MOL0     C17180   6.081   9.817  11.736  0.7577 -0.1480 -0.0701
  125MOL0     H17181   6.220  10.182  11.381 -0.6009  0.3149 -0.8173
  125MOL0     H17182   6.256  10.323  11.153  0.5010  0.0986  0.2683
  125MOL0     H17183   6.529  10.171  10.844 -0.8566 -0.2446 -1.6256
  125MOL0     H17184   6.542  10.304  10.964  0.6356  0.3045 -1.7519
  125MOL0     H17185   6.576  10.375  10.740  0.8601 -0.8980  2.5203
  125MOL0     H17186   6.396  10.351  10.709 -1.7851  1.0318  1.6703
  125MOL0     H17187   6.349  10.524  10.885  0.0038  1.0992 -0.6383
  125MOL0     H17188   6.529  10.555  10.890  3.3461 -0.1020 -3.3464
  125MOL0     H17189   6.507  10.601  10.635  0.3059  2.0711 -0.1485
  125MOL0     H17190   6.332  10.611  10.659  2.0973 -1.4736 -2.0667
  125MOL0     H17191   6.375  10.786  10.852  0.9231  2.8548 -0.5375
  125MOL0     H17192   6.365  10.823  10.684  1.0802 -1.3185 -3.9607
  125MOL0     H17193   6.609  10.779  10.870 -2.9858  3.8342  3.2836
  125MOL0     H17194   6.617  10.785  10.686 -3.2137  1.5830 -2.3571
  125MOL0     H17195   6.484  10.994  10.859  1.8372  2.2907  1.7642
  125MOL0     H17196   6.532  11.019  10.697 -2.0174 -1.0616 -1.3568
  125MOL0     H17197   6.781  11.002  10.799 -1.3380 -0.2800 -1.9615
  125MOL0     H17198   6.698  11.134  10.858  1.1684  0.1308  0.9717
  125MOL0     H17199   6.897  10.918  11.009  1.1996  3.4086 -0.5337
  125MOL0     H17200   6.947  10.844  11.259 -1.0111 -1.0696  0.5893
  125MOL0     H17201   6.830  10.880  11.381 -1.7481 -0.1336 -1.4185
  125MOL0     H17202   6.933  11.147  11.269  0.8879  0.8807  2.3757
  125MOL0     H17203   6.940  11.086  11.428 -3.7115 -0.6312 -0.0144
  125MOL0     H17204   7.118  10.968  11.206  1.9761  1.0918 -1.0397
  125MOL0     H17205   7.144  11.129  11.256  3.1645 -1.5025  0.7960
  125MOL0     H17206   7.286  10.993  11.423  0.1797 -0.5056  0.5947
  125MOL0     H17207   7.155  11.062  11.508 -1.1650 -1.5220 -0.1312
  125MOL0     H17208   6.997  10.676  11.491 -0.3376 -0.5452 -1.2818
  125MOL0     H17209   7.004  10.329  11.367 -3.5680  0.5470 -0.6318
  125MOL0     H17210   6.913  10.470  11.431  0.9434  3.0161  0.7888
  125MOL0     H17211   7.024  10.360  11.531 -0.7339 -1.3439 -0.8201
  125MOL0     H17212   7.436  10.121  11.359 -0.3020  0.7686 -3.3562
  125MOL0     H17213   7.460   9.897  11.272 -0.7405 -2.7583 -0.1567
  125MOL0     H17214   7.456   9.654  11.222 -2.2437  0.4976 -3.3231
  125MOL0     H17215   7.406   9.671  11.389 -1.8051  2.4410 -1.3702
  125MOL0     H17216   7.312   9.455  11.179  0.6585 -1.4737 -0.3042
  125MOL0     H17217   7.423   9.421  11.304 -0.2516  0.1280  1.8358
  125MOL0     H17218   7.188   9.344  11.362 -1.8902  1.6834 -0.7772
  125MOL0     H17219   7.143   9.507  11.344  1.1964  1.6294 -1.1185
  125MOL0     H17220   7.335   9.549  11.532 -2.0422  1.5356  1.8626
  125MOL0     H17221   7.323   9.372  11.537 -0.2557 -0.0433 -1.2483
  125MOL0     H17222   7.067   9.424  11.592 -0.7721  0.8082  0.7353
  125MOL0     H17223   7.163   9.492  11.713 -2.0163 -0.4121  1.0083
  125MOL0     H17224   7.023   9.652  11.499 -1.8657 -1.6637  1.7348
  125MOL0     H17225   7.170   9.721  11.542  0.9177 -2.0739 -1.6709
  125MOL0     H17226   7.109   9.744  11.783 -1.2237  0.4676  0.0556
  125MOL0     H17227   6.978   9.623  11.745 -2.3475  1.3627 -0.6322
  125MOL0     H17228   6.850   9.787  11.627  0.7675 -0.3565 -0.6792
  125MOL0     H17229   6.994   9.894  11.614 -4.6097  1.5563 -2.1903
  125MOL0     H17230   7.036   9.855  11.239 -0.1016 -2.2364  2.0821
  125MOL0     H17231   7.014  10.097  11.310  1.2598  1.1355 -0.3961
  125MOL0     H17232   7.409  10.571  11.254 -1.2109 -2.5515  0.8139
  125MOL0     H17233   7.360  10.813  11.329  0.3692 -0.3843  0.6428
  125MOL0     H17234   6.461   9.990  10.977 -1.4594 -1.3451  0.2218
  125MOL0     H17235   6.461   9.877  11.208  1.6547  1.3195  3.9569
  125MOL0     H17236   6.516   9.943  11.595 -1.7205  0.9176 -0.6687
  125MOL0     H17237   6.599   9.919  11.826 -0.7708  4.2745  0.5284
  125MOL0     H17238   6.341   9.758  12.152 -0.8604  1.8132 -1.5520
  125MOL0     H17239   6.444   9.649  12.083  0.0481 -0.3457 -0.7539
  125MOL0     H17240   6.481   9.706  12.334 -0.8694 -0.5118  0.2188
  125MOL0     H17241   6.549   9.854  12.283  0.3322 -1.2625  5.8932
  125MOL0     H17242   6.693   9.630  12.320 -1.3311 -1.4802  0.2069
  125MOL0     H17243   6.644   9.596  12.156 -0.5556  0.5296 -0.4748
  125MOL0     H17244   6.797   9.847  12.264  0.6129  1.7746 -2.5227
  125MOL0     H17245   6.739   9.837  12.100  1.0807  2.2668 -0.3322
  125MOL0     H17246   7.107   9.632  12.091 -0.3429 -0.3380 -2.0217
  125MOL0     H17247   6.224   9.800  11.963  1.3535 -1.8961 -0.2900
  125MOL0     H17248   6.026   9.904  11.773 -1.1701 -0.9591 -0.8796
  125MOL0     H17249   6.045   9.782  11.639  0.6252 -3.1301  0.9410
  125MOL0     H17250   6.054   9.728  11.794  1.8747 -0.7058 -0.3750
  126MOL0     O17251   9.211   7.982   9.306 -0.3249  0.2283 -0.5305
  126MOL0     C17252   9.254   7.889   9.236  0.1512  0.3299  0.4333
  126MOL0     O17253   9.331   7.905   9.123  0.3563  0.0360 -0.2194
  126MOL0     C17254   9.363   8.031   9.069 -0.6087  0.7688  0.2111
  126MOL0     C17255   9.299   8.146   9.055 -0.6300 -1.1787  1.0439
  126MOL0     C17256   9.358   8.267   8.999 -0.4113 -0.2769  0.6981
  126MOL0     C17257   9.492   8.258   8.969 -0.5094 -0.6203 -0.8377
  126MOL0     O17258   9.559   8.375   8.947  0.2589  0.4771 -0.0002
  126MOL0     C17259   9.529   8.427   8.812  0.0468 -0.5056  0.0609
  126MOL0     C17260   9.604   8.573   8.811 -0.3149  0.6212  0.4006
  126MOL0     C17261   9.755   8.560   8.817 -0.9511 -0.7609  0.4409
  126MOL0     C17262   9.800   8.705   8.797  0.0064  0.0156  0.4842
  126MOL0     C17263   9.948   8.732   8.832 -0.1349 -1.8029  0.2877
  126MOL0     C17264   9.975   8.881   8.809 -0.3135 -0.4136  0.2932
  126MOL0     C17265  10.124   8.913   8.826  0.2448  0.4429  0.9534
  126MOL0     C17266  10.155   9.059   8.837  0.3415 -0.2064 -0.6042
  126MOL0     N17267  10.122   9.125   8.706  0.4800  0.5723 -0.2315
  126MOL0     C17268  10.210   9.161   8.611 -0.3484 -0.5162  0.1988
  126MOL0     C17269  10.141   9.226   8.515  0.7058  0.1250 -0.8800
  126MOL0     C17270  10.187   9.254   8.375 -0.0333 -0.4329 -0.6208
  126MOL0     C17271  10.071   9.307   8.289 -0.5951 -0.5007 -0.3121
  126MOL0     C17272  10.118   9.340   8.146 -0.2437 -0.3739  0.0324
  126MOL0     C17273   9.990   9.362   8.046  0.4407  0.3329 -0.0993
  126MOL0     O17274   9.914   9.476   8.082  0.4400 -0.9802 -0.0571
  126MOL0     C17275   9.915   9.580   7.990 -0.0264  0.2751 -0.3011
  126MOL0     C17276   9.839   9.563   7.870 -0.0702  0.4075 -1.0025
  126MOL0     C17277   9.855   9.659   7.769  0.5867 -1.4757 -0.1618
  126MOL0     C17278   9.765   9.644   7.647 -0.5379 -0.5744 -0.6910
  126MOL0     C17279   9.957   9.761   7.776  0.5406  0.0108  0.0895
  126MOL0     C17280   9.990   9.856   7.665 -0.5941  1.0903 -0.0227
  126MOL0     O17281  10.109   9.935   7.688  0.1219  1.0422  0.0593
  126MOL0     C17282  10.143  10.032   7.602 -0.0914  0.0305 -0.2772
  126MOL0     C17283  10.082  10.157   7.620  0.7149 -0.4991 -0.3540
  126MOL0     C17284  10.109  10.255   7.533 -0.1653 -0.5893  0.3892
  126MOL0     C17285  10.181  10.236   7.418  0.2235  1.0883  1.0137
  126MOL0     O17286  10.189  10.343   7.328  0.4946  0.2345  0.0719
  126MOL0     C17287  10.153  10.322   7.189 -0.6543 -0.2928 -0.5482
  126MOL0     C17288  10.203  10.437   7.117 -0.0127 -0.4981 -0.2600
  126MOL0     C17289  10.191  10.424   6.967 -0.1051 -0.1166  0.3423
  126MOL0     C17290  10.306  10.338   6.893 -0.1852  0.7579  0.3160
  126MOL0     C17291  10.268  10.312   6.750  0.3669 -0.1676 -0.1290
  126MOL0     C17292  10.367  10.229   6.669 -0.6519 -0.7759 -0.1161
  126MOL0     C17293  10.411  10.079   6.719 -0.0299 -0.1379  0.4525
  126MOL0     C17294  10.518  10.004   6.624 -0.5697 -0.8148 -0.3587
  126MOL0    Cl17295  10.674  10.089   6.652  0.0394  0.0887  0.1658
  126MOL0     C17296  10.248  10.117   7.400 -0.9441 -0.0778  0.5443
  126MOL0     C17297  10.226  10.011   7.489  0.5112  0.4855 -0.1937
  126MOL0     O17298   9.935   9.855   7.555 -0.4783  0.5930 -0.6153
  126MOL0     C17299  10.037   9.768   7.893 -1.4214  0.1033 -0.4057
  126MOL0     C17300  10.011   9.685   8.001 -0.5114 -0.6518  0.3187
  126MOL0     N17301  10.000   9.229   8.557 -0.0147  0.2559  0.2571
  126MOL0     N17302   9.996   9.163   8.662 -0.5539 -0.1056 -0.0644
  126MOL0     C17303   9.562   8.142   8.988  0.1402 -0.2009  0.0381
  126MOL0     C17304   9.497   8.028   9.031  0.9105 -0.0974 -0.0010
  126MOL0     C17305   9.209   7.757   9.283  0.6534  0.6903  0.1912
  126MOL0     C17306   9.302   7.652   9.288 -0.1275 -0.7489  0.2998
  126MOL0     C17307   9.272   7.517   9.331  0.1542  0.0797 -0.1631
  126MOL0     C17308   9.135   7.489   9.365 -0.6686 -0.5764  0.6207
  126MOL0     O17309   9.090   7.373   9.406 -0.2505 -0.3112 -0.0777
  126MOL0     C17310   9.177   7.252   9.425 -0.5988  0.3887  0.6351
  126MOL0     C17311   9.265   7.280   9.553  0.1130  0.9475 -0.4223
  126MOL0     C17312   9.335   7.145   9.587 -0.2071  0.3126 -0.2900
  126MOL0     C17313   9.370   7.120   9.732 -0.5261  0.1256 -0.4270
  126MOL0     C17314   9.446   6.995   9.739 -0.7021 -0.1985 -1.1834
  126MOL0     C17315   9.519   6.902   9.723 -1.0318 -0.0366 -0.4997
  126MOL0     C17316   9.050   7.593   9.366 -0.5125  0.6747 -0.1602
  126MOL0     C17317   9.081   7.724   9.326  0.3557  0.2085  0.3907
  126MOL0     C17318   8.969   7.821   9.308 -0.3763  0.0328  0.0513
  126MOL0     H17319   9.191   8.158   9.064 -1.0054  2.2902 -3.8681
  126MOL0     H17320   9.301   8.358   8.977  0.4042  0.1298  0.2350
  126MOL0     H17321   9.424   8.456   8.810  0.5772  1.5717 -0.3295
  126MOL0     H17322   9.564   8.351   8.742 -0.2128 -0.3681 -0.2191
  126MOL0     H17323   9.575   8.626   8.719 -0.2765  2.1634  1.2458
  126MOL0     H17324   9.556   8.635   8.887  0.7371  2.8503 -0.6768
  126MOL0     H17325   9.792   8.530   8.915  1.0067  1.7370  0.5754
  126MOL0     H17326   9.805   8.499   8.743 -2.8809  0.4548 -2.0356
  126MOL0     H17327   9.787   8.736   8.693 -0.6221  2.7474  1.2912
  126MOL0     H17328   9.741   8.775   8.857  1.8647  1.4324  0.7243
  126MOL0     H17329  10.011   8.670   8.767  1.5844  2.1388 -2.1095
  126MOL0     H17330   9.977   8.715   8.937  4.6345  1.6849 -0.1567
  126MOL0     H17331   9.935   8.920   8.714 -0.6275 -0.4318  0.4151
  126MOL0     H17332   9.931   8.944   8.887  1.1806  1.8624 -0.5939
  126MOL0     H17333  10.174   8.865   8.742 -0.0972  1.1363  0.3360
  126MOL0     H17334  10.167   8.863   8.913 -0.4908  0.8772  1.5871
  126MOL0     H17335  10.098   9.107   8.916  3.0796 -0.6995  1.8357
  126MOL0     H17336  10.259   9.062   8.871 -0.0088 -0.8995  0.5531
  126MOL0     H17337  10.314   9.133   8.600 -0.7146 -2.0628  0.4078
  126MOL0     H17338  10.243   9.171   8.331  0.0261 -0.1799 -1.0224
  126MOL0     H17339  10.255   9.340   8.381 -2.3982  1.8486 -3.5577
  126MOL0     H17340   9.981   9.245   8.288 -0.6104 -0.4989  0.5120
  126MOL0     H17341  10.046   9.401   8.339 -0.6940 -0.3917 -0.5670
  126MOL0     H17342  10.192   9.420   8.147 -0.8703  0.2222  0.4523
  126MOL0     H17343  10.172   9.250   8.117  1.7642  0.1144  1.9766
  126MOL0     H17344  10.023   9.363   7.941  1.3521 -0.0066  0.1676
  126MOL0     H17345   9.927   9.273   8.057  1.5555 -0.2112  2.9532
  126MOL0     H17346   9.778   9.474   7.878  0.1780  0.4047  2.2157
  126MOL0     H17347   9.719   9.739   7.621  1.9177  1.2891  1.2283
  126MOL0     H17348   9.688   9.569   7.666 -0.7618 -0.3482 -0.7110
  126MOL0     H17349   9.831   9.610   7.567  1.9885  1.7249  0.2513
  126MOL0     H17350  10.012  10.174   7.701 -1.0139  0.7458 -2.0477
  126MOL0     H17351  10.055  10.345   7.561  1.1015  0.0088  0.9627
  126MOL0     H17352  10.199  10.231   7.148  0.5185 -0.2051  0.5259
  126MOL0     H17353  10.045  10.314   7.174 -0.8321 -2.5157  1.4241
  126MOL0     H17354  10.130  10.509   7.155 -1.6906 -3.2872  2.1535
  126MOL0     H17355  10.304  10.461   7.151 -1.2512  0.6632  2.9282
  126MOL0     H17356  10.186  10.524   6.923  1.3752 -0.7742 -1.4485
  126MOL0     H17357  10.091  10.391   6.938 -0.1913  1.7661 -1.7779
  126MOL0     H17358  10.314  10.237   6.935  1.3376  1.1189  0.9663
  126MOL0     H17359  10.406  10.383   6.887 -0.9198  2.3763 -0.1298
  126MOL0     H17360  10.178  10.254   6.771  1.1507 -1.0247  0.9909
  126MOL0     H17361  10.250  10.408   6.701  0.4427 -0.3024 -0.4229
  126MOL0     H17362  10.453  10.296   6.662  0.2201 -1.0131  4.8304
  126MOL0     H17363  10.316  10.206   6.575 -0.1462 -1.7743 -0.1589
  126MOL0     H17364  10.316  10.026   6.715 -0.7173  1.0507  0.6855
  126MOL0     H17365  10.450  10.085   6.821  1.8025 -2.0293 -0.0732
  126MOL0     H17366  10.491   9.990   6.519 -1.2942 -1.8383 -0.0512
  126MOL0     H17367  10.521   9.909   6.679  0.7575  1.0875  3.1586
  126MOL0     H17368  10.326  10.115   7.325 -0.3037  2.6441  1.0335
  126MOL0     H17369  10.271   9.912   7.495  0.2490  0.2018 -2.1307
  126MOL0     H17370  10.111   9.844   7.914 -1.6350  0.4739 -0.9669
  126MOL0     H17371  10.071   9.686   8.092 -1.5691 -0.3005  1.0271
  126MOL0     H17372   9.667   8.148   8.961  0.6536  3.9053  2.0438
  126MOL0     H17373   9.561   7.940   9.032  0.0741 -1.1517 -5.4513
  126MOL0     H17374   9.401   7.688   9.264 -0.6357  3.6121  3.4664
  126MOL0     H17375   9.351   7.443   9.340 -0.3907 -0.7839 -1.9094
  126MOL0     H17376   9.106   7.170   9.439  1.6821 -2.5686 -3.1143
  126MOL0     H17377   9.242   7.227   9.341  0.7361 -1.4905  2.1412
  126MOL0     H17378   9.212   7.334   9.633 -4.0503 -1.0626 -1.5293
  126MOL0     H17379   9.346   7.353   9.553  1.9679 -1.0212 -0.1652
  126MOL0     H17380   9.270   7.067   9.544 -3.8978  2.5091  0.8529
  126MOL0     H17381   9.429   7.159   9.532 -2.3626  0.9822 -4.1981
  126MOL0     H17382   9.282   7.122   9.797 -1.9272 -1.6034 -2.1375
  126MOL0     H17383   9.437   7.200   9.765  0.4563 -0.5410 -0.7629
  126MOL0     H17384   9.580   6.814   9.718 -0.1201  0.4662  1.1328
  126MOL0     H17385   8.949   7.579   9.405 -0.7418  1.6759 -0.3531
  126MOL0     H17386   8.943   7.842   9.412  2.0164 -1.9969  1.1770
  126MOL0     H17387   8.997   7.910   9.250  0.0195  0.9300  1.5641
  126MOL0     H17388   8.884   7.775   9.256 -1.4353  1.4333  0.4770
  127MOL0     O17389   4.757  10.052  10.650 -0.0899 -1.0614  0.8207
  127MOL0     C17390   4.858  10.005  10.696  0.4038 -0.6160  0.2998
  127MOL0     O17391   4.864   9.903  10.775  1.0775  0.2182 -0.1924
  127MOL0     C17392   4.769   9.853  10.859 -0.6878  0.4498  0.1048
  127MOL0     C17393   4.736   9.721  10.864  0.6997 -0.1165 -0.3067
  127MOL0     C17394   4.643   9.674  10.955  1.0063 -0.4273  0.5639
  127MOL0     C17395   4.588   9.754  11.045  0.8502 -0.7847 -0.3062
  127MOL0     O17396   4.488   9.723  11.132  0.1571  0.0530 -0.2073
  127MOL0     C17397   4.525   9.621  11.225  0.1303  0.0088  0.2220
  127MOL0     C17398   4.388   9.606  11.305 -0.0186  0.6018 -0.2067
  127MOL0     C17399   4.268   9.576  11.217  0.7405  0.0000  0.0835
  127MOL0     C17400   4.134   9.562  11.310 -0.7056 -0.9774  0.1502
  127MOL0     C17401   4.029   9.487  11.233  1.0382  1.2373  1.0122
  127MOL0     C17402   3.891   9.452  11.311 -0.9645 -0.3300  0.0353
  127MOL0     C17403   3.814   9.359  11.230 -0.3901 -0.2661  0.2413
  127MOL0     C17404   3.698   9.298  11.313  0.5215  0.0448 -1.2606
  127MOL0     N17405   3.615   9.212  11.228  0.0276  0.7533 -0.9753
  127MOL0     C17406   3.537   9.243  11.117 -0.0709 -0.6149  0.0922
  127MOL0     C17407   3.499   9.118  11.072 -0.0508 -0.3414 -0.2452
  127MOL0     C17408   3.402   9.080  10.966  0.2316 -0.7799  0.4956
  127MOL0     C17409   3.261   9.105  11.009  0.0093  0.1008 -0.0970
  127MOL0     C17410   3.219   9.003  11.116 -0.1155  1.1795 -1.0330
  127MOL0     C17411   3.083   9.024  11.188 -0.6115 -0.4080  0.7431
  127MOL0     O17412   3.090   9.004  11.328  0.2755 -0.2621  0.6760
  127MOL0     C17413   2.963   8.992  11.391 -0.9915  0.5241  0.2381
  127MOL0     C17414   2.937   8.885  11.469  0.9771  0.0186 -0.5256
  127MOL0     C17415   2.805   8.849  11.511  0.1729  0.5565  0.9703
  127MOL0     C17416   2.799   8.723  11.590  0.9271 -0.3892 -0.1785
  127MOL0     C17417   2.691   8.935  11.475  0.1623  0.4867 -0.7549
  127MOL0     C17418   2.540   8.910  11.500  0.8692  0.5169  0.8696
  127MOL0     O17419   2.454   8.998  11.441  0.3151  0.0692  0.6870
  127MOL0     C17420   2.327   8.949  11.433  0.2219 -0.2201 -1.2362
  127MOL0     C17421   2.229   9.027  11.500  0.2704  0.0852 -0.6000
  127MOL0     C17422   2.096   8.998  11.483 -0.7659 -0.5085  0.0800
  127MOL0     C17423   2.060   8.903  11.391 -0.5388  0.7800 -1.1344
  127MOL0     O17424   1.931   8.867  11.366  0.2999 -0.0301  0.3824
  127MOL0     C17425   1.814   8.957  11.381  0.2897  0.2660  0.2070
  127MOL0     C17426   1.689   8.878  11.352 -0.3095  0.3429  0.5642
  127MOL0     C17427   1.559   8.965  11.350 -0.0246  0.2171  0.2247
  127MOL0     C17428   1.428   8.882  11.349  0.3835 -0.2055  0.1755
  127MOL0     C17429   1.296   8.966  11.362 -0.0081 -0.8096  0.0135
  127MOL0     C17430   1.177   8.879  11.399  0.1880 -0.5910 -0.6764
  127MOL0     C17431   1.035   8.936  11.377 -0.1514  0.0246 -0.8302
  127MOL0     C17432   0.936   8.820  11.350  0.2208 -0.0194 -0.2687
  127MOL0    Cl17433   0.961   8.686  11.486  0.4080  0.2697  0.5691
  127MOL0     C17434   2.157   8.830  11.315  0.2187  0.4736  0.2727
  127MOL0     C17435   2.291   8.866  11.337 -0.4916  0.8308 -0.0162
  127MOL0     O17436   2.515   8.829  11.591  0.5121  0.0346  0.1054
  127MOL0     C17437   2.729   9.050  11.399  0.2438 -0.4332 -0.6862
  127MOL0     C17438   2.861   9.081  11.369  0.7595 -0.5668 -0.2429
  127MOL0     N17439   3.555   9.020  11.152 -0.1163 -0.7342 -0.4013
  127MOL0     N17440   3.627   9.080  11.240 -0.1980 -0.1451 -0.5467
  127MOL0     C17441   4.615   9.892  11.036 -0.4221  0.1748 -0.0777
  127MOL0     C17442   4.709   9.943  10.956  0.4630  0.5237 -0.4464
  127MOL0     C17443   4.985  10.068  10.653 -0.8816 -0.0381  0.2341
  127MOL0     C17444   5.105   9.995  10.668  0.7738 -0.1049 -0.3045
  127MOL0     C17445   5.223  10.025  10.601 -0.5487 -0.1493 -0.3199
  127MOL0     C17446   5.225  10.149  10.527 -1.0660  1.0695  0.7969
  127MOL0     O17447   5.345  10.189  10.464 -0.3044 -0.6265 -0.2015
  127MOL0     C17448   5.462  10.106  10.460 -0.0271 -0.2468 -0.4871
  127MOL0     C17449   5.551  10.182  10.363  0.1270 -0.0727  0.8152
  127MOL0     C17450   5.482  10.210  10.222 -0.1750  0.1174  0.4278
  127MOL0     C17451   5.441  10.358  10.223 -1.2006 -0.6801  0.2168
  127MOL0     C17452   5.370  10.386  10.099  0.4580 -1.0858  0.7586
  127MOL0     C17453   5.317  10.433   9.994  0.3900  0.1656  0.3533
  127MOL0     C17454   5.116  10.230  10.524 -0.6645 -0.6960  0.3697
  127MOL0     C17455   5.005  10.201  10.592  0.6526  0.5486 -0.6453
  127MOL0     C17456   4.896  10.300  10.587 -0.4514  0.1681 -0.7794
  127MOL0     H17457   4.779   9.659  10.786 -0.7556 -3.0265  1.0472
  127MOL0     H17458   4.605   9.574  10.971 -0.1132  0.0367  0.9010
  127MOL0     H17459   4.610   9.641  11.291  1.8284  1.0074 -2.1263
  127MOL0     H17460   4.543   9.528  11.171 -2.9537 -0.3877 -0.3332
  127MOL0     H17461   4.401   9.524  11.376 -0.3221 -1.6773 -2.6157
  127MOL0     H17462   4.367   9.697  11.361 -1.4392  0.8733 -1.1047
  127MOL0     H17463   4.256   9.646  11.133  0.3084  1.4366  1.2994
  127MOL0     H17464   4.302   9.485  11.168  2.7200  0.1033  1.1901
  127MOL0     H17465   4.164   9.505  11.398  2.1444 -2.9866 -1.9337
  127MOL0     H17466   4.105   9.662  11.342 -1.2344 -0.9285 -0.4737
  127MOL0     H17467   4.065   9.404  11.171  0.7504 -1.4627  4.1324
  127MOL0     H17468   3.992   9.549  11.151 -4.5081  0.2284  2.3623
  127MOL0     H17469   3.912   9.400  11.404 -1.6166 -1.7132 -0.5626
  127MOL0     H17470   3.843   9.546  11.339  0.1383 -0.0707  1.1190
  127MOL0     H17471   3.881   9.287  11.183  2.3244  2.1478  0.1365
  127MOL0     H17472   3.766   9.421  11.154 -0.8578  1.3683  1.7915
  127MOL0     H17473   3.739   9.232  11.391  1.3060  1.9453  0.0184
  127MOL0     H17474   3.640   9.380  11.357  2.5212  0.9039 -0.0789
  127MOL0     H17475   3.504   9.337  11.074 -1.2970 -1.5068 -0.9850
  127MOL0     H17476   3.423   8.983  10.919  0.4669  0.2759 -1.7030
  127MOL0     H17477   3.422   9.145  10.880  3.3409 -0.3175  1.4340
  127MOL0     H17478   3.257   9.210  11.038  2.8962  0.6017 -1.1322
  127MOL0     H17479   3.200   9.090  10.919  0.9543 -1.2911 -0.5557
  127MOL0     H17480   3.218   8.905  11.067  0.4116  0.9485 -0.5941
  127MOL0     H17481   3.289   9.012  11.200 -2.2643  2.6278  0.7142
  127MOL0     H17482   3.048   9.126  11.169 -2.4407 -0.9294  1.1223
  127MOL0     H17483   3.000   8.967  11.145 -1.4140  1.8681 -0.9395
  127MOL0     H17484   3.008   8.806  11.491  1.6547  0.9840  0.8705
  127MOL0     H17485   2.730   8.653  11.541  2.3797 -2.0645  0.0416
  127MOL0     H17486   2.767   8.742  11.693 -1.5491 -0.2698 -0.8919
  127MOL0     H17487   2.894   8.670  11.591  0.4970 -1.1775  0.3628
  127MOL0     H17488   2.266   9.101  11.571 -0.4833  1.3576 -1.4936
  127MOL0     H17489   2.018   9.061  11.524 -0.6409  0.2675 -0.8325
  127MOL0     H17490   1.797   9.003  11.480 -0.4031 -0.4807  0.4465
  127MOL0     H17491   1.817   9.040  11.309  1.3458  1.5681  1.6748
  127MOL0     H17492   1.699   8.829  11.255  0.3722  0.8122  0.3980
  127MOL0     H17493   1.684   8.806  11.435  1.0380 -0.1183  0.2743
  127MOL0     H17494   1.565   9.039  11.269 -0.0365  2.3125  2.0364
  127MOL0     H17495   1.562   9.039  11.431 -0.0317 -0.1845  0.5949
  127MOL0     H17496   1.428   8.813  11.434  0.8274 -4.7916 -3.1792
  127MOL0     H17497   1.425   8.824  11.256 -2.5753  0.2222 -0.0907
  127MOL0     H17498   1.311   9.041  11.440  1.7821  0.1143 -1.1380
  127MOL0     H17499   1.279   9.017  11.267 -4.4995 -0.9472  0.5410
  127MOL0     H17500   1.178   8.851  11.505 -2.3481  2.6602  0.3937
  127MOL0     H17501   1.183   8.790  11.335 -0.9776 -0.3890 -1.0991
  127MOL0     H17502   1.036   9.013  11.300  0.9271  3.3606  2.2356
  127MOL0     H17503   1.003   8.980  11.471 -1.7351 -0.1004 -1.2848
  127MOL0     H17504   0.947   8.766  11.255  2.7702  1.4309 -0.8913
  127MOL0     H17505   0.836   8.860  11.332  0.5919  0.5084 -1.2466
  127MOL0     H17506   2.128   8.750  11.248  1.8192 -0.3715  0.5280
  127MOL0     H17507   2.363   8.834  11.263  0.2301  0.5539  0.7861
  127MOL0     H17508   2.654   9.128  11.388 -1.8028 -2.3911 -1.4589
  127MOL0     H17509   2.883   9.174  11.318 -0.9313 -0.5430 -1.0109
  127MOL0     H17510   4.569   9.953  11.113  2.2562  2.3029 -0.0642
  127MOL0     H17511   4.718  10.049  10.974  0.4783  0.4955 -0.2856
  127MOL0     H17512   5.110   9.902  10.725 -2.9202  0.2482  0.8422
  127MOL0     H17513   5.304   9.955  10.617 -3.2321 -3.4821 -0.2514
  127MOL0     H17514   5.495  10.103  10.565  0.8455 -0.5965 -0.7666
  127MOL0     H17515   5.447  10.001  10.436 -1.4905 -0.0693 -0.4424
  127MOL0     H17516   5.640  10.124  10.338  0.1743  1.2345 -2.4970
  127MOL0     H17517   5.579  10.281  10.400 -1.0476  0.4186  0.4551
  127MOL0     H17518   5.554  10.193  10.141 -0.4133  0.6926  0.0916
  127MOL0     H17519   5.396  10.146  10.199  0.6849  0.3955 -4.5425
  127MOL0     H17520   5.532  10.417  10.227 -0.2348 -2.1793  3.2730
  127MOL0     H17521   5.372  10.389  10.302 -1.7420 -1.4403  0.0639
  127MOL0     H17522   5.285  10.458   9.895 -0.8369  1.1526  0.9836
  127MOL0     H17523   5.132  10.321  10.466  1.2437 -1.3614 -0.2396
  127MOL0     H17524   4.949  10.393  10.567  0.7349 -0.0408  1.2160
  127MOL0     H17525   4.836  10.260  10.504 -0.8251 -0.6227 -0.1420
  127MOL0     H17526   4.841  10.297  10.681 -0.9667  1.8745 -0.9977
  128MOL0     O17527   7.085   7.691   9.712 -0.9359 -0.1816  0.1373
  128MOL0     C17528   7.156   7.698   9.606 -0.4162 -0.4997  0.2078
  128MOL0     O17529   7.123   7.760   9.483 -0.0113  0.0170 -1.1431
  128MOL0     C17530   7.011   7.843   9.483  0.2702 -0.4700  0.6604
  128MOL0     C17531   6.938   7.903   9.591 -0.3835  0.9934  0.2987
  128MOL0     C17532   6.822   7.981   9.580 -1.4943  0.3379  1.1081
  128MOL0     C17533   6.778   8.008   9.450 -0.3772 -0.1475  0.4312
  128MOL0     O17534   6.675   8.087   9.435  0.3425 -0.0100 -0.1465
  128MOL0     C17535   6.607   8.138   9.322 -0.9329  0.9713 -0.2292
  128MOL0     C17536   6.697   8.228   9.233  0.2090 -0.5631  0.0471
  128MOL0     C17537   6.760   8.331   9.318 -0.3333 -0.6949  0.8263
  128MOL0     C17538   6.839   8.432   9.227 -0.7568  0.3930  0.2134
  128MOL0     C17539   6.917   8.538   9.307 -0.2898  0.1294 -0.6341
  128MOL0     C17540   6.821   8.633   9.379  1.6777 -1.1919 -0.4439
  128MOL0     C17541   6.904   8.768   9.410  0.6475 -0.0136 -0.1082
  128MOL0     C17542   6.838   8.857   9.516 -0.1253  0.3758  0.2558
  128MOL0     N17543   6.694   8.897   9.483  0.7387  0.5048  0.3454
  128MOL0     C17544   6.579   8.850   9.541 -0.1496  0.2030  0.1326
  128MOL0     C17545   6.475   8.923   9.485  0.4498  0.0873  0.4642
  128MOL0     C17546   6.330   8.910   9.527 -0.7992 -0.3824 -0.0655
  128MOL0     C17547   6.264   8.780   9.461  0.2508  0.3615  0.1245
  128MOL0     C17548   6.183   8.700   9.564  1.1066  0.1123 -0.1899
  128MOL0     C17549   6.258   8.638   9.673 -0.3385 -0.9771 -0.1279
  128MOL0     O17550   6.354   8.551   9.620 -0.2377  0.0663 -0.0305
  128MOL0     C17551   6.449   8.494   9.698 -0.3696 -0.3253 -1.2073
  128MOL0     C17552   6.473   8.518   9.835  0.0756 -0.0031  0.6297
  128MOL0     C17553   6.570   8.434   9.906 -0.1119 -0.2030 -0.0732
  128MOL0     C17554   6.592   8.456  10.054 -0.3531  0.1583 -1.0035
  128MOL0     C17555   6.637   8.336   9.834  0.1105  0.7749  0.6431
  128MOL0     C17556   6.741   8.245   9.897  0.0755  0.2462  0.1906
  128MOL0     O17557   6.732   8.194  10.022 -0.7193 -0.4702  0.2890
  128MOL0     C17558   6.835   8.108  10.069  0.0768 -0.4149  0.1686
  128MOL0     C17559   6.874   7.987  10.001 -1.2197 -1.1732  0.2149
  128MOL0     C17560   6.966   7.901  10.051 -0.9019 -0.3209  0.0762
  128MOL0     C17561   7.033   7.921  10.173 -1.0873 -0.4588 -0.3227
  128MOL0     O17562   7.138   7.849  10.230  0.2904  0.1782 -0.0417
  128MOL0     C17563   7.248   7.807  10.141  0.3859  0.8044 -0.5584
  128MOL0     C17564   7.372   7.802  10.229 -0.8702 -0.2861 -0.3719
  128MOL0     C17565   7.512   7.819  10.160  0.8570  0.0446 -0.1110
  128MOL0     C17566   7.602   7.921  10.229  0.0563 -1.1065 -0.0635
  128MOL0     C17567   7.746   7.932  10.175 -0.0829  0.6628 -0.0517
  128MOL0     C17568   7.836   8.046  10.244 -0.1014  0.3381  0.7530
  128MOL0     C17569   7.847   8.170  10.153  0.0936 -0.3909 -1.1555
  128MOL0     C17570   7.941   8.162  10.036 -0.8743  0.4187  0.7343
  128MOL0    Cl17571   8.105   8.201  10.088  0.1380  0.5747 -0.2294
  128MOL0     C17572   6.984   8.040  10.237 -0.6119  0.2334  0.1900
  128MOL0     C17573   6.886   8.134  10.193 -0.6497 -0.0103  1.0690
  128MOL0     O17574   6.831   8.215   9.819  0.7287 -0.2674 -0.1577
  128MOL0     C17575   6.614   8.322   9.702  0.0729 -0.1474  1.0428
  128MOL0     C17576   6.531   8.405   9.629 -0.8620  0.9610  0.0689
  128MOL0     N17577   6.531   9.010   9.390 -0.9792  0.6804 -0.7669
  128MOL0     N17578   6.661   8.984   9.380  0.0113  0.5132 -0.0619
  128MOL0     C17579   6.838   7.942   9.342 -0.1668  0.3292  0.0268
  128MOL0     C17580   6.952   7.865   9.355 -0.6760  0.1250  0.0125
  128MOL0     C17581   7.285   7.618   9.598 -0.2681  0.4485  0.6023
  128MOL0     C17582   7.358   7.616   9.476  0.0461 -0.6522  0.1151
  128MOL0     C17583   7.477   7.554   9.467 -0.1287  0.7884  0.1959
  128MOL0     C17584   7.527   7.480   9.575 -0.0894 -0.3925  0.1704
  128MOL0     O17585   7.645   7.415   9.549 -0.1511  0.4427  0.2621
  128MOL0     C17586   7.679   7.316   9.643  0.3583  0.2323  0.9410
  128MOL0     C17587   7.801   7.231   9.611 -0.2216 -0.2214  1.3604
  128MOL0     C17588   7.817   7.121   9.719  0.7461  0.8979 -0.3711
  128MOL0     C17589   7.949   7.053   9.721  0.2349  0.7027  0.6897
  128MOL0     C17590   7.959   6.969   9.599  0.2113 -0.0111  0.1834
  128MOL0     C17591   7.985   6.912   9.494  0.7152  0.2782  0.2791
  128MOL0     C17592   7.453   7.469   9.689  0.1286 -0.2810  0.1096
  128MOL0     C17593   7.341   7.550   9.711 -0.1195  0.2827  0.1435
  128MOL0     C17594   7.297   7.581   9.855  0.4504 -0.0740  0.0528
  128MOL0     H17595   6.980   7.900   9.691  0.7352  2.8311 -0.0742
  128MOL0     H17596   6.763   8.014   9.665 -0.9058  0.1387  1.5959
  128MOL0     H17597   6.516   8.185   9.361  0.0292  2.4477  0.3517
  128MOL0     H17598   6.576   8.050   9.266 -2.8956  1.8035 -0.5483
  128MOL0     H17599   6.774   8.177   9.175  0.3685 -2.6379  1.9426
  128MOL0     H17600   6.629   8.275   9.161  1.4229 -0.1828 -0.8698
  128MOL0     H17601   6.699   8.383   9.394 -0.2269 -0.6057  0.8518
  128MOL0     H17602   6.840   8.284   9.375  2.2003  2.5567  0.2717
  128MOL0     H17603   6.917   8.379   9.171 -0.2100  0.0007  1.3209
  128MOL0     H17604   6.771   8.481   9.156  0.3854 -0.0487 -1.2562
  128MOL0     H17605   6.980   8.586   9.232 -0.2737 -3.0973 -2.8880
  128MOL0     H17606   6.985   8.494   9.380 -0.3354  1.5475  0.2945
  128MOL0     H17607   6.739   8.651   9.308  2.7093 -1.0549 -1.6424
  128MOL0     H17608   6.783   8.584   9.469  0.6510  0.4477  0.0630
  128MOL0     H17609   6.910   8.826   9.318 -2.0463  0.5068 -0.0326
  128MOL0     H17610   7.004   8.738   9.441  0.5671 -0.5376 -0.3387
  128MOL0     H17611   6.828   8.803   9.611 -2.8972  0.8297  0.3265
  128MOL0     H17612   6.890   8.952   9.526 -1.4494  1.0134  1.5383
  128MOL0     H17613   6.577   8.770   9.614 -1.9615 -1.6319 -1.7905
  128MOL0     H17614   6.261   8.991   9.500  0.4251 -0.1093 -2.7536
  128MOL0     H17615   6.332   8.914   9.636 -0.8827  1.4269 -0.1073
  128MOL0     H17616   6.179   8.811   9.399  0.9912  0.8296 -0.6884
  128MOL0     H17617   6.329   8.717   9.399  0.6978 -0.2464  1.1892
  128MOL0     H17618   6.118   8.770   9.617 -0.3026  0.1697 -1.9322
  128MOL0     H17619   6.114   8.631   9.515 -1.8386  4.1142 -2.2610
  128MOL0     H17620   6.304   8.723   9.723  0.1232  0.5603 -2.9500
  128MOL0     H17621   6.191   8.587   9.742  0.9877 -0.8882  1.2810
  128MOL0     H17622   6.435   8.610   9.880  3.2419  1.0993  1.3029
  128MOL0     H17623   6.545   8.374  10.110  2.9102  0.5449  2.6931
  128MOL0     H17624   6.542   8.547  10.090 -1.5475 -0.2809 -1.4801
  128MOL0     H17625   6.699   8.451  10.075 -0.4746 -2.8352 -0.5973
  128MOL0     H17626   6.833   7.974   9.901  1.8583 -3.0709 -0.9275
  128MOL0     H17627   7.002   7.822   9.986  2.3321  1.4075 -0.4251
  128MOL0     H17628   7.232   7.706  10.102  0.3738 -0.4832  2.4368
  128MOL0     H17629   7.266   7.874  10.057 -0.2052 -0.7398 -1.9758
  128MOL0     H17630   7.365   7.898  10.281  3.2459  0.3873 -0.6744
  128MOL0     H17631   7.378   7.718  10.299 -0.2426  0.6029  0.6795
  128MOL0     H17632   7.496   7.848  10.056  1.0010  1.6185  0.2703
  128MOL0     H17633   7.549   7.718  10.178  0.8343 -0.3509 -2.1267
  128MOL0     H17634   7.604   7.905  10.337 -0.7182  0.5421  0.2243
  128MOL0     H17635   7.558   8.018  10.203  1.7612 -0.8364 -2.1760
  128MOL0     H17636   7.795   7.834  10.170 -4.9626 -2.1948  1.5835
  128MOL0     H17637   7.718   7.955  10.072  1.2964 -0.2049 -0.6545
  128MOL0     H17638   7.939   8.009  10.243 -0.5364 -0.9122 -0.9280
  128MOL0     H17639   7.799   8.073  10.344 -1.2224 -0.9624  0.7069
  128MOL0     H17640   7.876   8.242  10.231 -2.3704  2.1188 -2.3874
  128MOL0     H17641   7.753   8.192  10.102  0.0153  4.0428  0.3969
  128MOL0     H17642   7.920   8.249   9.974 -1.3614 -0.2402 -0.0409
  128MOL0     H17643   7.946   8.065   9.985 -0.7187 -1.9163  4.6900
  128MOL0     H17644   7.026   8.068  10.333  1.5605 -0.5129 -0.4746
  128MOL0     H17645   6.851   8.217  10.254 -1.6984 -0.1174  0.6301
  128MOL0     H17646   6.676   8.256   9.642 -2.3223 -2.3207  0.7354
  128MOL0     H17647   6.523   8.394   9.521  0.5441  1.8074 -0.1434
  128MOL0     H17648   6.780   7.964   9.253 -2.2289  0.2823  1.2992
  128MOL0     H17649   6.999   7.815   9.271  1.3730 -1.6689  2.0782
  128MOL0     H17650   7.329   7.659   9.381 -0.3232  2.8919  1.6729
  128MOL0     H17651   7.535   7.552   9.375  1.2642  3.5282  0.9359
  128MOL0     H17652   7.696   7.371   9.735 -2.7100  1.7071  0.7425
  128MOL0     H17653   7.593   7.249   9.652 -2.6203  3.5446 -0.4649
  128MOL0     H17654   7.898   7.282   9.606 -0.5906  0.5575  1.9108
  128MOL0     H17655   7.778   7.193   9.511 -3.0635  1.7745  1.1172
  128MOL0     H17656   7.793   7.174   9.812 -1.2718 -0.6942  0.0953
  128MOL0     H17657   7.733   7.051   9.720 -1.3453  3.2174  0.4381
  128MOL0     H17658   7.964   6.988   9.807  1.1758  0.2865  0.2151
  128MOL0     H17659   8.034   7.122   9.719 -0.1376  1.2724 -2.9302
  128MOL0     H17660   7.988   6.868   9.397  1.4049  2.2494 -0.6517
  128MOL0     H17661   7.486   7.410   9.774 -3.0498 -0.6398  1.2290
  128MOL0     H17662   7.195   7.544   9.867 -0.5617  2.2587 -0.7727
  128MOL0     H17663   7.365   7.546   9.934  1.9197  2.7695  0.2007
  128MOL0     H17664   7.297   7.691   9.851 -2.1636 -0.0622 -2.0891
  129MOL0     O17665   3.199   6.028  10.869 -0.1685  0.3412  0.4807
  129MOL0     C17666   3.256   6.053  10.978  0.1007 -0.7408 -0.7073
  129MOL0     O17667   3.368   5.993  11.023  0.0065 -0.0723 -0.0433
  129MOL0     C17668   3.437   5.900  10.946  0.2926 -0.5427  0.2234
  129MOL0     C17669   3.493   5.795  11.011 -0.3462  0.0876 -0.2332
  129MOL0     C17670   3.572   5.698  10.944  1.0798  0.9570 -0.1435
  129MOL0     C17671   3.612   5.726  10.814  0.0297 -0.6280 -0.0264
  129MOL0     O17672   3.693   5.653  10.737 -0.1197  0.5053 -0.2430
  129MOL0     C17673   3.648   5.522  10.733 -1.0037  0.6181  0.5316
  129MOL0     C17674   3.742   5.463  10.624 -0.4446 -0.7800  0.4480
  129MOL0     C17675   3.694   5.317  10.587  0.5652  0.5236  0.3776
  129MOL0     C17676   3.810   5.228  10.604 -1.4092 -0.8061  0.4928
  129MOL0     C17677   3.785   5.084  10.555 -0.0079 -0.3423 -0.1184
  129MOL0     C17678   3.929   5.022  10.545 -0.3820  0.4525  0.7783
  129MOL0     C17679   3.919   4.866  10.542 -0.3115  0.7218  0.8625
  129MOL0     C17680   3.838   4.801  10.650  0.8205  0.4037 -0.0103
  129MOL0     N17681   3.844   4.654  10.655  0.4212  0.2109 -0.1711
  129MOL0     C17682   3.955   4.590  10.682  0.5693  0.1844  0.2278
  129MOL0     C17683   3.915   4.457  10.670 -0.7138 -0.4855 -0.3256
  129MOL0     C17684   4.006   4.341  10.718 -0.0432 -0.8860 -0.2437
  129MOL0     C17685   4.073   4.265  10.599  1.0238 -0.5517 -0.0206
  129MOL0     C17686   4.222   4.270  10.633  0.3225  0.6485  0.1389
  129MOL0     C17687   4.286   4.408  10.618 -0.5250 -0.7411 -0.4421
  129MOL0     O17688   4.293   4.456  10.754  0.1659  0.3508 -0.1307
  129MOL0     C17689   4.422   4.476  10.816 -0.5064  1.3479  0.6089
  129MOL0     C17690   4.513   4.570  10.775  0.5072  1.0554 -1.1405
  129MOL0     C17691   4.640   4.581  10.837 -0.2231 -0.2803 -0.2495
  129MOL0     C17692   4.735   4.683  10.780 -0.1633  0.0238 -0.9299
  129MOL0     C17693   4.680   4.508  10.951  0.1717 -0.3765 -0.2732
  129MOL0     C17694   4.822   4.517  11.017 -0.5645 -0.2954  0.7657
  129MOL0     O17695   4.877   4.402  11.069 -0.0452  0.2265 -0.5627
  129MOL0     C17696   4.997   4.389  11.136 -1.3492 -0.5629  1.0859
  129MOL0     C17697   5.051   4.260  11.140  0.0751  0.0429 -0.7334
  129MOL0     C17698   5.168   4.245  11.209 -0.4930 -0.4772 -0.0877
  129MOL0     C17699   5.243   4.342  11.269  0.3927 -0.6792 -0.4131
  129MOL0     O17700   5.348   4.319  11.353 -0.5992  0.4424 -0.1777
  129MOL0     C17701   5.435   4.202  11.341 -0.6179 -1.0940  0.6925
  129MOL0     C17702   5.579   4.251  11.310  0.0987 -0.3544 -0.4399
  129MOL0     C17703   5.581   4.362  11.202 -0.7256 -0.0748 -0.1247
  129MOL0     C17704   5.709   4.360  11.122 -1.1669  1.1966  0.1967
  129MOL0     C17705   5.710   4.470  11.021 -0.2399  0.7425  0.3703
  129MOL0     C17706   5.824   4.468  10.920  0.4440  0.6422  0.2069
  129MOL0     C17707   5.960   4.459  10.979 -0.7868 -0.4818  0.0003
  129MOL0     C17708   6.081   4.456  10.894 -0.8014 -0.1569  0.0933
  129MOL0    Cl17709   6.233   4.429  10.987 -0.1336 -0.2657 -0.3101
  129MOL0     C17710   5.193   4.474  11.258  0.0647 -0.1573  0.7034
  129MOL0     C17711   5.066   4.500  11.203  0.1293 -0.3172 -0.3216
  129MOL0     O17712   4.883   4.629  11.022  0.8119  0.0235  0.2997
  129MOL0     C17713   4.580   4.419  10.995 -0.4556  0.9386  0.2774
  129MOL0     C17714   4.457   4.397  10.929  1.3355 -1.1764  0.5096
  129MOL0     N17715   3.792   4.448  10.612  0.2796  0.6998 -0.4756
  129MOL0     N17716   3.757   4.574  10.600 -0.5024 -0.3220  0.4242
  129MOL0     C17717   3.557   5.840  10.747 -0.2457 -1.0346 -0.3387
  129MOL0     C17718   3.480   5.926  10.821 -0.3588  0.3419  0.4137
  129MOL0     C17719   3.196   6.171  11.055 -1.1334  1.0893  0.3926
  129MOL0     C17720   3.282   6.259  11.117 -0.7121  0.0975 -0.4369
  129MOL0     C17721   3.244   6.379  11.175 -0.2140  1.0684 -0.1581
  129MOL0     C17722   3.112   6.410  11.175  0.6367 -1.1021  0.2134
  129MOL0     O17723   3.065   6.533  11.227 -0.2246 -0.4444  0.9143
  129MOL0     C17724   3.141   6.615  11.311 -0.4002 -0.6241  0.0446
  129MOL0     C17725   3.087   6.757  11.327  0.5503  0.1958  0.7219
  129MOL0     C17726   2.944   6.761  11.366  0.0419 -0.1885 -0.4878
  129MOL0     C17727   2.912   6.911  11.395 -0.1545  0.7735 -0.8434
  129MOL0     C17728   2.958   7.014  11.304 -0.6812  0.1733  0.6765
  129MOL0     C17729   3.004   7.102  11.227 -0.3700  0.4144 -0.7107
  129MOL0     C17730   3.021   6.325  11.107 -0.3308 -0.6912  1.4918
  129MOL0     C17731   3.063   6.203  11.045 -1.2078 -0.4847 -0.3009
  129MOL0     C17732   2.952   6.130  10.976  0.9697 -0.1667  0.4756
  129MOL0     H17733   3.468   5.775  11.115 -2.0751 -1.3381 -0.8684
  129MOL0     H17734   3.617   5.618  11.001 -0.0032  2.2520  2.7300
  129MOL0     H17735   3.541   5.519  10.707 -0.9011 -3.6048 -0.2261
  129MOL0     H17736   3.658   5.464  10.825 -0.5400 -0.4737 -0.1802
  129MOL0     H17737   3.743   5.527  10.536 -3.3687  1.4298  1.8361
  129MOL0     H17738   3.839   5.455  10.673 -0.2650 -1.8642 -0.0494
  129MOL0     H17739   3.617   5.293  10.662 -1.8040 -1.1548 -2.3895
  129MOL0     H17740   3.648   5.304  10.489  0.1271  0.9852  0.5136
  129MOL0     H17741   3.890   5.272  10.545 -1.7803  1.3913  1.5413
  129MOL0     H17742   3.836   5.228  10.711  0.3169 -0.6438  0.0992
  129MOL0     H17743   3.732   5.077  10.460  1.9469 -3.6754 -1.1410
  129MOL0     H17744   3.721   5.033  10.628 -0.4421 -0.8547 -0.8429
  129MOL0     H17745   3.988   5.053  10.458  1.8333 -3.3233  0.6773
  129MOL0     H17746   3.999   5.057  10.622  1.7470  0.7958 -1.1928
  129MOL0     H17747   4.012   4.809  10.547 -1.8334 -2.2397 -1.1706
  129MOL0     H17748   3.872   4.835  10.448  2.5141 -1.3296 -0.0357
  129MOL0     H17749   3.856   4.840  10.750  0.6806 -2.7986  1.3889
  129MOL0     H17750   3.731   4.817  10.634  0.9100 -0.3224 -1.5837
  129MOL0     H17751   4.053   4.620  10.719  0.2178 -2.3083  3.6403
  129MOL0     H17752   3.947   4.268  10.774  0.7565 -0.7737  0.7787
  129MOL0     H17753   4.075   4.380  10.793 -2.2444  0.6815  1.0953
  129MOL0     H17754   4.014   4.173  10.592 -1.5887  1.1398 -2.5468
  129MOL0     H17755   4.058   4.311  10.501  1.0246 -0.0835  0.1927
  129MOL0     H17756   4.247   4.232  10.733  2.7734  0.7929 -0.3579
  129MOL0     H17757   4.268   4.202  10.561  1.0273  1.7144 -0.4412
  129MOL0     H17758   4.385   4.409  10.572  1.6488 -0.4188  3.7582
  129MOL0     H17759   4.221   4.465  10.552 -0.0687  0.3222  0.0002
  129MOL0     H17760   4.501   4.624  10.682 -4.8088 -0.5171 -1.6961
  129MOL0     H17761   4.822   4.630  10.741  1.0959  1.4755 -0.1661
  129MOL0     H17762   4.764   4.765  10.846 -0.3699  0.7594 -1.7287
  129MOL0     H17763   4.688   4.725  10.690 -0.8936 -0.7224 -0.9061
  129MOL0     H17764   5.010   4.166  11.102 -0.7131 -2.1430  4.6198
  129MOL0     H17765   5.214   4.148  11.223  3.7515  1.3834  0.3217
  129MOL0     H17766   5.429   4.157  11.441 -4.3874 -0.7684  0.7559
  129MOL0     H17767   5.400   4.121  11.276 -0.3458 -1.0413  0.4796
  129MOL0     H17768   5.619   4.302  11.398  1.9097 -1.9303 -0.2603
  129MOL0     H17769   5.636   4.165  11.273  1.0388  0.3829 -0.7655
  129MOL0     H17770   5.559   4.461  11.244 -1.2778 -0.1752 -0.1691
  129MOL0     H17771   5.502   4.347  11.127 -0.5082 -0.7081 -0.2350
  129MOL0     H17772   5.716   4.263  11.073  0.1484  0.5325  1.6216
  129MOL0     H17773   5.795   4.370  11.189  1.4299 -0.3201 -2.6393
  129MOL0     H17774   5.616   4.489  10.968  1.9483  2.3788 -3.2799
  129MOL0     H17775   5.741   4.558  11.078 -0.4513  1.3488 -0.4437
  129MOL0     H17776   5.823   4.563  10.866  0.1621  1.1441  1.0770
  129MOL0     H17777   5.806   4.384  10.853 -1.5487  1.1761  0.0131
  129MOL0     H17778   5.961   4.362  11.030  0.6750 -0.3348  0.2694
  129MOL0     H17779   5.981   4.545  11.043  2.3931 -0.3548 -1.0829
  129MOL0     H17780   6.084   4.547  10.833 -1.2912 -0.3195 -0.1805
  129MOL0     H17781   6.075   4.382  10.813  1.7893  2.0708 -2.3570
  129MOL0     H17782   5.245   4.549  11.317  2.0635 -1.5645  0.8389
  129MOL0     H17783   5.024   4.600  11.210  1.9468  0.4253  0.5377
  129MOL0     H17784   4.589   4.350  11.079 -1.6645  0.9864  0.4629
  129MOL0     H17785   4.379   4.321  10.940  0.8732 -1.0041 -1.2404
  129MOL0     H17786   3.598   5.867  10.651 -0.6959  1.9100  0.1887
  129MOL0     H17787   3.461   6.014  10.760  3.3719  1.4890  0.6095
  129MOL0     H17788   3.386   6.230  11.125 -0.5095  1.1984  1.2192
  129MOL0     H17789   3.329   6.435  11.214 -0.3476  0.5924  0.8344
  129MOL0     H17790   3.150   6.562  11.406  0.5100 -0.0919  0.2731
  129MOL0     H17791   3.244   6.625  11.274 -1.3317  0.8530 -2.4058
  129MOL0     H17792   3.109   6.810  11.234  2.4468 -0.4222  0.7702
  129MOL0     H17793   3.160   6.809  11.390  1.0111  0.2644  0.1475
  129MOL0     H17794   2.888   6.731  11.277  1.1445  1.0868 -1.6585
  129MOL0     H17795   2.915   6.697  11.449 -0.1925  2.3300  1.4814
  129MOL0     H17796   2.952   6.929  11.495 -0.0079 -0.8735 -0.5715
  129MOL0     H17797   2.808   6.933  11.420  1.1447  5.8317  1.3677
  129MOL0     H17798   3.031   7.180  11.158  1.4225  2.0968  1.7292
  129MOL0     H17799   2.917   6.355  11.111 -0.0536  0.4454  0.6870
  129MOL0     H17800   2.854   6.145  11.022 -0.1569 -1.2360 -1.4396
  129MOL0     H17801   2.944   6.163  10.873 -1.0178 -3.5940 -0.6392
  129MOL0     H17802   2.960   6.021  10.963 -0.5471 -0.3415  0.7802
  130MOL0     O17803   8.417  10.646   8.333 -0.4561 -0.0996 -0.1756
  130MOL0     C17804   8.394  10.654   8.460  0.0085 -0.2135  0.8653
  130MOL0     O17805   8.357  10.556   8.535  0.6102 -0.1523  0.1204
  130MOL0     C17806   8.356  10.558   8.669  0.4524  0.6958 -0.5120
  130MOL0     C17807   8.242  10.517   8.727  0.1787  0.1295 -0.9668
  130MOL0     C17808   8.232  10.494   8.868 -0.4582  0.6406 -0.1845
  130MOL0     C17809   8.350  10.517   8.946  0.0220 -0.4885  0.8936
  130MOL0     O17810   8.358  10.494   9.084 -0.2986 -0.1123 -0.7627
  130MOL0     C17811   8.248  10.422   9.144 -0.7928 -0.4722  0.7866
  130MOL0     C17812   8.281  10.363   9.287 -0.8571  0.4556 -0.6267
  130MOL0     C17813   8.331  10.479   9.385  0.6113  0.7854 -0.1538
  130MOL0     C17814   8.480  10.490   9.383  0.0151  0.2621  0.1091
  130MOL0     C17815   8.519  10.607   9.468 -0.2697 -0.5681 -0.2398
  130MOL0     C17816   8.486  10.613   9.619 -0.9672 -0.4434  1.4521
  130MOL0     C17817   8.541  10.483   9.696 -0.1437 -0.8928 -0.2871
  130MOL0     C17818   8.538  10.496   9.856  0.1767 -0.0320  0.7615
  130MOL0     N17819   8.630  10.591   9.927 -0.2504 -0.5825 -0.5527
  130MOL0     C17820   8.765  10.598   9.912 -0.7705  0.0694 -0.6170
  130MOL0     C17821   8.803  10.696   9.996  0.2855 -0.1713 -0.6422
  130MOL0     C17822   8.942  10.745  10.017 -0.1212  0.0671 -0.0598
  130MOL0     C17823   9.009  10.673  10.140 -0.3647 -0.2164 -0.5939
  130MOL0     C17824   9.000  10.762  10.274  0.6537  0.2926  0.0293
  130MOL0     C17825   9.062  10.689  10.396  0.0817  0.5743 -0.8462
  130MOL0     O17826   9.200  10.662  10.367 -0.7889  0.3282 -0.5525
  130MOL0     C17827   9.259  10.540  10.394 -0.0163 -0.0412  0.4100
  130MOL0     C17828   9.224  10.437  10.485  0.5278  0.1479 -0.7386
  130MOL0     C17829   9.316  10.330  10.506 -0.4178  0.8773  0.3788
  130MOL0     C17830   9.263  10.210  10.583 -0.5050  0.1414  0.3612
  130MOL0     C17831   9.434  10.328  10.432 -0.0583  0.1151 -0.7962
  130MOL0     C17832   9.532  10.224  10.467  0.4883 -0.7549  0.3034
  130MOL0     O17833   9.557  10.129  10.371 -0.2298  0.7362  0.4679
  130MOL0     C17834   9.610  10.008  10.411  0.3212  0.4765 -0.6680
  130MOL0     C17835   9.747   9.981  10.408  0.4362 -0.6395  0.4340
  130MOL0     C17836   9.801   9.862  10.456  0.7032  0.4536  0.0281
  130MOL0     C17837   9.719   9.765  10.509 -0.0103  0.2211 -0.7629
  130MOL0     O17838   9.764   9.640  10.554 -0.1724  0.4264 -0.3615
  130MOL0     C17839   9.718   9.526  10.486  0.6563 -0.7887  1.1129
  130MOL0     C17840   9.702   9.404  10.584  0.1368 -0.4668  0.4260
  130MOL0     C17841   9.811   9.378  10.678  0.6904  0.4529  0.1369
  130MOL0     C17842   9.802   9.250  10.755 -0.4161  0.7316  0.2818
  130MOL0     C17843   9.936   9.193  10.800  0.8734  0.0412  0.2995
  130MOL0     C17844   9.906   9.061  10.876 -1.3923  0.2297 -0.3927
  130MOL0     C17845  10.036   9.004  10.929  0.8551 -0.0481 -1.2819
  130MOL0     C17846  10.008   8.900  11.039  0.2509 -1.0118 -0.5057
  130MOL0    Cl17847  10.155   8.799  11.056 -0.4348 -0.2907  0.1594
  130MOL0     C17848   9.585   9.795  10.522 -0.3945 -0.3513  0.0348
  130MOL0     C17849   9.526   9.909  10.473 -0.5833 -0.4800  0.8405
  130MOL0     O17850   9.574  10.226  10.583 -0.3962  0.5233  0.1985
  130MOL0     C17851   9.475  10.431  10.351  0.4457  0.1422  0.6369
  130MOL0     C17852   9.383  10.532  10.325  0.0697  0.8776 -0.3687
  130MOL0     N17853   8.694  10.729  10.079 -0.3330 -0.2377  0.3563
  130MOL0     N17854   8.588  10.660  10.037  0.9575  0.4338  0.2604
  130MOL0     C17855   8.461  10.571   8.887  0.0070 -0.4359  0.0996
  130MOL0     C17856   8.473  10.574   8.751 -0.6356  0.8543 -0.0548
  130MOL0     C17857   8.414  10.793   8.508  1.1813  0.1339  0.4146
  130MOL0     C17858   8.545  10.849   8.508 -0.9066  1.2217 -0.4392
  130MOL0     C17859   8.564  10.978   8.527 -0.1529  0.3099 -0.4725
  130MOL0     C17860   8.457  11.057   8.589  0.4685 -0.2602 -0.0498
  130MOL0     O17861   8.463  11.189   8.623 -0.2454  0.5735 -0.3564
  130MOL0     C17862   8.588  11.249   8.653 -1.1955  0.2717  0.0029
  130MOL0     C17863   8.566  11.380   8.745 -0.4140  0.7345 -0.0291
  130MOL0     C17864   8.641  11.380   8.878  0.1597  0.9059  0.2996
  130MOL0     C17865   8.576  11.267   8.960  0.2191 -0.5286  0.1273
  130MOL0     C17866   8.577  11.294   9.107  0.2269  0.8436 -0.3950
  130MOL0     C17867   8.555  11.307   9.226  0.3708 -0.6807  0.5826
  130MOL0     C17868   8.331  11.007   8.590 -0.4177 -0.1415  0.2311
  130MOL0     C17869   8.299  10.871   8.552  0.2852  0.6534 -0.1936
  130MOL0     C17870   8.155  10.821   8.556 -0.2527 -0.0979  0.9037
  130MOL0     H17871   8.160  10.508   8.656  1.1669 -1.2165 -1.9948
  130MOL0     H17872   8.140  10.452   8.908  0.5544 -0.8069  0.6977
  130MOL0     H17873   8.212  10.339   9.083 -2.1281  1.3848 -1.1098
  130MOL0     H17874   8.165  10.493   9.153  0.7223  1.7768 -1.6635
  130MOL0     H17875   8.192  10.310   9.323  0.7369 -1.1828  1.1778
  130MOL0     H17876   8.361  10.290   9.270  0.6312  2.4535 -2.8151
  130MOL0     H17877   8.280  10.572   9.360 -1.6724 -0.6172 -1.1540
  130MOL0     H17878   8.309  10.456   9.490  0.3648 -3.0087 -0.8884
  130MOL0     H17879   8.523  10.398   9.424 -1.7177 -1.0120 -0.8177
  130MOL0     H17880   8.509  10.509   9.279 -2.3474 -1.0409 -0.8757
  130MOL0     H17881   8.464  10.697   9.440 -1.8142 -1.2974  0.3593
  130MOL0     H17882   8.625  10.623   9.444 -0.3716 -0.6868 -0.7895
  130MOL0     H17883   8.538  10.700   9.661  1.4582 -1.4946  0.8071
  130MOL0     H17884   8.379  10.608   9.643 -0.7355 -1.5630  2.3827
  130MOL0     H17885   8.641  10.465   9.656  0.6139 -0.0638  1.1303
  130MOL0     H17886   8.485  10.393   9.672  1.7949 -2.2825  0.1700
  130MOL0     H17887   8.437  10.522   9.891 -0.7225 -1.1392 -0.9218
  130MOL0     H17888   8.572  10.399   9.894  0.8291 -1.9648 -4.1122
  130MOL0     H17889   8.828  10.551   9.836 -0.5300 -0.1515 -0.2816
  130MOL0     H17890   8.946  10.852  10.041 -1.2415  0.5534 -1.8779
  130MOL0     H17891   8.998  10.715   9.928 -0.8191 -0.9094 -0.1800
  130MOL0     H17892   8.966  10.573  10.152 -1.8603  0.2674 -1.6196
  130MOL0     H17893   9.115  10.657  10.120 -0.2901 -2.6871  1.2960
  130MOL0     H17894   9.047  10.858  10.252 -0.6275  0.5563 -1.8038
  130MOL0     H17895   8.893  10.771  10.294 -0.0615  1.7924 -3.6078
  130MOL0     H17896   9.048  10.743  10.490 -0.1026  1.5490 -1.4268
  130MOL0     H17897   8.996  10.601  10.402 -0.6717  1.2197  0.8762
  130MOL0     H17898   9.127  10.437  10.533  0.3437 -3.1117 -0.8564
  130MOL0     H17899   9.330  10.123  10.581 -0.3577  0.1565  2.5788
  130MOL0     H17900   9.168  10.173  10.544 -1.6741  0.9410  2.3440
  130MOL0     H17901   9.245  10.238  10.687 -3.4281 -0.9258  0.2329
  130MOL0     H17902   9.809  10.051  10.354  1.5662 -1.0330  1.1812
  130MOL0     H17903   9.908   9.855  10.437  0.2695 -1.3241 -2.1109
  130MOL0     H17904   9.628   9.549  10.427  2.3321  3.0910 -0.2818
  130MOL0     H17905   9.800   9.485  10.426  1.6960 -3.1358  3.9259
  130MOL0     H17906   9.611   9.423  10.642 -0.1794 -0.9295  0.0940
  130MOL0     H17907   9.686   9.310  10.529  2.3081 -0.5870 -0.0857
  130MOL0     H17908   9.803   9.459  10.751  0.0514  1.1776 -0.7094
  130MOL0     H17909   9.906   9.380  10.625  0.7699 -0.4876  0.2279
  130MOL0     H17910   9.747   9.175  10.698  1.8250 -1.3381  0.6803
  130MOL0     H17911   9.735   9.264  10.841  0.0241 -0.5527  0.8607
  130MOL0     H17912   9.989   9.169  10.707 -2.0482  1.6569 -1.9678
  130MOL0     H17913   9.980   9.274  10.859  1.4032  2.4628 -3.0646
  130MOL0     H17914   9.859   8.990  10.807 -1.2008  0.2917 -0.5880
  130MOL0     H17915   9.847   9.091  10.963 -2.0648 -1.0728 -0.3746
  130MOL0     H17916  10.092   9.094  10.959 -2.3034  1.3114  1.2336
  130MOL0     H17917  10.083   8.954  10.845  0.9083  0.0078 -1.2863
  130MOL0     H17918   9.913   8.854  11.012 -0.0805 -0.9836  0.5594
  130MOL0     H17919   9.987   8.959  11.128 -1.9831  0.1942 -1.7415
  130MOL0     H17920   9.527   9.723  10.578  2.3662 -1.5745  1.5013
  130MOL0     H17921   9.419   9.918  10.483 -0.6038 -1.7909  2.0507
  130MOL0     H17922   9.576  10.443  10.314  0.9505  1.9897  2.4208
  130MOL0     H17923   9.411  10.602  10.246  2.7979  0.7253  0.3576
  130MOL0     H17924   8.541  10.596   8.956  0.2872  4.3995 -1.6125
  130MOL0     H17925   8.571  10.596   8.711 -0.7669  0.1163 -0.8157
  130MOL0     H17926   8.633  10.790   8.485  1.0787  2.9594  2.2327
  130MOL0     H17927   8.664  11.019   8.517  0.2009 -0.4121  0.0393
  130MOL0     H17928   8.662  11.180   8.694  2.4965  2.6014 -2.2141
  130MOL0     H17929   8.629  11.278   8.556  2.5498  2.4700  2.0383
  130MOL0     H17930   8.461  11.399   8.770 -0.9359 -0.5560 -1.1339
  130MOL0     H17931   8.607  11.464   8.687  2.1006 -1.6266 -1.9313
  130MOL0     H17932   8.743  11.357   8.846 -0.3150  0.4855 -0.9644
  130MOL0     H17933   8.630  11.476   8.928 -4.3942  0.4053  0.6533
  130MOL0     H17934   8.632  11.175   8.941  3.0003  1.6168 -3.1237
  130MOL0     H17935   8.474  11.249   8.927  0.1547  1.6337 -1.0175
  130MOL0     H17936   8.525  11.295   9.329  1.9956 -2.0237  0.9353
  130MOL0     H17937   8.266  11.092   8.605  0.7232  0.8671 -0.4143
  130MOL0     H17938   8.085  10.904   8.547 -1.3372 -1.1891 -1.8726
  130MOL0     H17939   8.150  10.761   8.464  1.4958  2.6059 -1.1246
  130MOL0     H17940   8.134  10.756   8.641  0.8534 -0.0522  1.2355
  131MOL0     O17941   7.644   5.665   9.182  0.3678 -0.4634 -0.0524
  131MOL0     C17942   7.581   5.561   9.213  1.4651 -0.1668 -0.0659
  131MOL0     O17943   7.542   5.467   9.123 -0.1604 -0.2802 -0.9875
  131MOL0     C17944   7.541   5.490   8.999  0.7988 -0.7597  1.2888
  131MOL0     C17945   7.416   5.477   8.943  0.5535 -0.5026  0.6835
  131MOL0     C17946   7.402   5.484   8.807  0.2125 -0.5610  1.0589
  131MOL0     C17947   7.513   5.510   8.715  0.3437  0.0035 -0.5928
  131MOL0     O17948   7.494   5.522   8.579 -0.4295 -0.0239 -0.3164
  131MOL0     C17949   7.452   5.406   8.501  0.0681  0.6417 -0.1092
  131MOL0     C17950   7.335   5.444   8.424  0.3764 -0.0522 -0.2870
  131MOL0     C17951   7.356   5.496   8.284 -0.4183 -0.2173 -0.0581
  131MOL0     C17952   7.223   5.550   8.239  0.4746 -0.5476 -0.3922
  131MOL0     C17953   7.237   5.599   8.093  0.5407  0.5408 -0.3028
  131MOL0     C17954   7.209   5.488   7.990 -0.6172  0.8856  0.4930
  131MOL0     C17955   7.244   5.535   7.846  0.7278  0.3498 -0.2002
  131MOL0     C17956   7.259   5.419   7.754  1.0285  0.1585  0.1880
  131MOL0     N17957   7.237   5.459   7.610 -0.9333  0.7899  0.3716
  131MOL0     C17958   7.318   5.540   7.537  0.0997  0.4678 -0.9218
  131MOL0     C17959   7.237   5.577   7.437  0.1731 -0.0317 -0.0063
  131MOL0     C17960   7.287   5.679   7.342 -0.0154  0.3539 -0.5970
  131MOL0     C17961   7.168   5.759   7.303  1.2583 -0.5502  0.8497
  131MOL0     C17962   7.198   5.855   7.194  0.1251 -0.6697  0.2692
  131MOL0     C17963   7.072   5.931   7.155  0.2557  0.0294  0.1357
  131MOL0     O17964   7.097   6.073   7.119  0.1291  0.4121 -0.2141
  131MOL0     C17965   7.182   6.094   7.017  0.3782  0.3198 -0.4850
  131MOL0     C17966   7.259   6.213   7.021  0.3048  0.5827 -0.5090
  131MOL0     C17967   7.339   6.256   6.913 -0.3930  0.3895  0.5376
  131MOL0     C17968   7.414   6.390   6.941  0.2336  0.2893  0.2250
  131MOL0     C17969   7.343   6.183   6.797  0.4571  0.3005  0.3507
  131MOL0     C17970   7.413   6.223   6.670 -0.1578  0.4987  0.3372
  131MOL0     O17971   7.418   6.352   6.639  0.4721  0.3185 -0.2518
  131MOL0     C17972   7.499   6.394   6.523 -0.2707  0.9950 -1.3223
  131MOL0     C17973   7.435   6.491   6.455 -0.6300  0.1741  0.2586
  131MOL0     C17974   7.504   6.564   6.355 -0.2649  0.0421  0.9415
  131MOL0     C17975   7.635   6.536   6.321  0.2616 -0.3692  0.5672
  131MOL0     O17976   7.694   6.607   6.224  0.0997  0.3392  0.3468
  131MOL0     C17977   7.833   6.589   6.174 -0.3672  0.3947  1.6397
  131MOL0     C17978   7.920   6.691   6.258  0.0443  0.4072  0.5798
  131MOL0     C17979   7.868   6.825   6.211 -0.3983  0.7557 -1.0179
  131MOL0     C17980   7.911   6.935   6.307  0.4009  0.5235 -0.1319
  131MOL0     C17981   7.882   7.077   6.246  0.5166  0.3847  0.8697
  131MOL0     C17982   7.957   7.178   6.329 -0.6835 -0.6866  0.5177
  131MOL0     C17983   7.917   7.313   6.277 -0.0678  0.1887 -0.7088
  131MOL0     C17984   7.997   7.343   6.145 -0.0932  0.2737  0.0577
  131MOL0    Cl17985   8.025   7.531   6.134  0.5992  0.1146 -0.2176
  131MOL0     C17986   7.708   6.445   6.398 -0.0518  0.0603  0.2651
  131MOL0     C17987   7.632   6.372   6.495  0.2743  0.2977 -0.7051
  131MOL0     O17988   7.460   6.136   6.601  0.3610  1.2390 -0.7150
  131MOL0     C17989   7.258   6.068   6.787 -0.1488  0.5026  0.0888
  131MOL0     C17990   7.183   6.019   6.899  0.5279  0.1152  0.2448
  131MOL0     N17991   7.118   5.514   7.436  0.4869 -0.3188  0.0077
  131MOL0     N17992   7.117   5.449   7.543  0.5398 -0.5798 -0.6469
  131MOL0     C17993   7.635   5.544   8.780 -0.2614  0.8966  0.3277
  131MOL0     C17994   7.646   5.527   8.913 -0.1400  0.2182  0.1207
  131MOL0     C17995   7.561   5.531   9.356 -0.8025  0.2278  0.6939
  131MOL0     C17996   7.520   5.403   9.380 -0.6933 -0.4386  0.4165
  131MOL0     C17997   7.507   5.349   9.510 -0.2050 -0.1169 -0.4755
  131MOL0     C17998   7.506   5.434   9.621 -0.0720 -0.1050 -0.0671
  131MOL0     O17999   7.457   5.388   9.743  0.5140 -0.2094 -0.0897
  131MOL0     C18000   7.442   5.482   9.858 -0.6535  0.2255 -0.4278
  131MOL0     C18001   7.403   5.396   9.979  0.0857  1.0607 -0.6925
  131MOL0     C18002   7.368   5.484  10.095 -0.3012  0.2189 -0.4266
  131MOL0     C18003   7.336   5.405  10.221  0.0753 -0.3378  0.2605
  131MOL0     C18004   7.335   5.498  10.331 -0.6076 -0.0119 -0.0193
  131MOL0     C18005   7.322   5.566  10.430 -0.4063  0.1196 -0.4913
  131MOL0     C18006   7.541   5.569   9.597  0.1122  0.1607  0.4257
  131MOL0     C18007   7.577   5.619   9.469 -0.5139 -0.8114  0.6509
  131MOL0     C18008   7.632   5.763   9.460  0.8219 -0.2672 -0.1939
  131MOL0     H18009   7.323   5.449   8.992 -1.0785  0.3422 -1.7304
  131MOL0     H18010   7.304   5.484   8.759  1.0557  4.2316 -1.2622
  131MOL0     H18011   7.426   5.318   8.562 -5.6310  1.2652 -1.0353
  131MOL0     H18012   7.537   5.387   8.436  1.2308  1.7529  1.0453
  131MOL0     H18013   7.285   5.348   8.414  0.2282 -0.1334  0.9958
  131MOL0     H18014   7.278   5.516   8.483  0.3474  0.9967 -1.5549
  131MOL0     H18015   7.432   5.576   8.281  0.7213 -1.2946 -2.0030
  131MOL0     H18016   7.409   5.412   8.238  0.0012 -0.9658  1.7166
  131MOL0     H18017   7.140   5.480   8.245 -2.7554  2.5600 -3.7830
  131MOL0     H18018   7.190   5.630   8.306 -1.6532 -2.5938  1.1561
  131MOL0     H18019   7.339   5.638   8.084  1.3559 -1.2568  0.5204
  131MOL0     H18020   7.162   5.673   8.066 -0.8945 -1.8454 -3.5285
  131MOL0     H18021   7.277   5.405   8.010 -1.1136 -0.1154 -1.7083
  131MOL0     H18022   7.108   5.446   7.998 -0.6980  0.8874 -0.4265
  131MOL0     H18023   7.341   5.584   7.846  3.2052 -3.9929  0.8361
  131MOL0     H18024   7.171   5.606   7.806 -1.4605 -1.1843  0.8213
  131MOL0     H18025   7.361   5.380   7.759  0.6438 -1.0263 -0.7314
  131MOL0     H18026   7.188   5.343   7.789  0.5214 -0.8671 -2.7713
  131MOL0     H18027   7.426   5.555   7.541  0.3447 -1.0504 -1.0071
  131MOL0     H18028   7.332   5.633   7.253 -1.0002 -1.2949 -0.2860
  131MOL0     H18029   7.371   5.731   7.389  1.5871 -1.4376 -1.3198
  131MOL0     H18030   7.090   5.693   7.263  3.6326 -2.0488 -1.6850
  131MOL0     H18031   7.130   5.810   7.392  1.7403  2.2728 -0.4696
  131MOL0     H18032   7.273   5.929   7.224 -1.1818  0.7426  0.1610
  131MOL0     H18033   7.241   5.808   7.104  1.7880  0.3632  0.4718
  131MOL0     H18034   7.031   5.887   7.063  1.8797 -0.9850 -0.1629
  131MOL0     H18035   6.999   5.926   7.235  1.7356  3.6895  1.9231
  131MOL0     H18036   7.269   6.261   7.118 -0.0523  0.8669 -0.6112
  131MOL0     H18037   7.389   6.418   7.044 -0.7524 -1.2975  0.4545
  131MOL0     H18038   7.382   6.469   6.873 -0.2886 -1.5860 -1.8305
  131MOL0     H18039   7.522   6.378   6.928  0.4878 -1.4093  2.9405
  131MOL0     H18040   7.330   6.509   6.478 -1.3601 -1.5651 -1.4472
  131MOL0     H18041   7.461   6.637   6.288  1.0317  2.3456  2.4690
  131MOL0     H18042   7.868   6.487   6.193 -0.2208  0.4093  1.4562
  131MOL0     H18043   7.849   6.613   6.068 -3.2313 -2.3089  0.4531
  131MOL0     H18044   7.916   6.666   6.364  1.4868 -2.0685  0.1210
  131MOL0     H18045   8.020   6.673   6.218 -0.7547  0.2710 -1.5208
  131MOL0     H18046   7.759   6.832   6.204 -0.5900 -1.0631 -0.4109
  131MOL0     H18047   7.900   6.852   6.110  0.6587 -1.1313 -1.2343
  131MOL0     H18048   8.019   6.929   6.321  0.2608 -0.6200  0.6653
  131MOL0     H18049   7.871   6.916   6.407  0.0315  2.1747  0.0496
  131MOL0     H18050   7.925   7.084   6.146  0.6456 -0.4139  0.8715
  131MOL0     H18051   7.775   7.103   6.248  0.1393 -1.1367  1.1595
  131MOL0     H18052   8.065   7.165   6.316 -0.3097  1.9063  0.5563
  131MOL0     H18053   7.923   7.168   6.432  0.1257 -2.6948  0.6264
  131MOL0     H18054   7.949   7.383   6.355 -1.6520  0.9264 -0.6667
  131MOL0     H18055   7.808   7.322   6.277 -0.0693  0.6508  1.1697
  131MOL0     H18056   7.928   7.316   6.065  0.8619  1.9527 -1.4254
  131MOL0     H18057   8.086   7.281   6.132  0.5560  1.5299 -2.2589
  131MOL0     H18058   7.813   6.428   6.379 -0.6044 -4.0752  0.0304
  131MOL0     H18059   7.670   6.288   6.554 -3.0262  0.2984  1.7190
  131MOL0     H18060   7.257   6.012   6.694  3.4378  1.7816 -0.9014
  131MOL0     H18061   7.134   5.923   6.887  1.4507 -0.6853  2.3703
  131MOL0     H18062   7.714   5.584   8.716  0.4027 -0.8477 -0.0017
  131MOL0     H18063   7.744   5.549   8.954  1.4438 -0.6020 -2.9015
  131MOL0     H18064   7.507   5.331   9.300  1.6025 -0.6130  0.1238
  131MOL0     H18065   7.478   5.246   9.526 -1.2812 -0.0236 -1.6453
  131MOL0     H18066   7.533   5.543   9.862 -1.3451  1.2741 -0.1375
  131MOL0     H18067   7.361   5.555   9.849  3.1662  4.9150 -0.7560
  131MOL0     H18068   7.492   5.340  10.010  0.2323 -0.1279 -3.1133
  131MOL0     H18069   7.322   5.335   9.939 -1.7782  3.7957 -1.3951
  131MOL0     H18070   7.457   5.546  10.108 -0.6615  0.9016 -1.1299
  131MOL0     H18071   7.286   5.547  10.060  1.7484  3.0918 -0.3677
  131MOL0     H18072   7.404   5.322  10.240  0.1378 -0.8414 -1.8898
  131MOL0     H18073   7.234   5.369  10.208  0.0859  0.4986 -3.0245
  131MOL0     H18074   7.294   5.632  10.509 -5.0251 -1.3151 -0.6359
  131MOL0     H18075   7.564   5.640   9.676 -1.8767  0.9981  0.3339
  131MOL0     H18076   7.561   5.823   9.401  2.3419  2.0345  0.1640
  131MOL0     H18077   7.649   5.824   9.549  3.5900 -0.2350 -0.6419
  131MOL0     H18078   7.729   5.762   9.409  1.9325  1.3480  1.7091
  132MOL0     O18079   7.555   1.711   0.636  0.1390 -0.1341  0.5142
  132MOL0     C18080   7.587   1.810   0.569  0.9254  0.1815  0.1938
  132MOL0     O18081   7.710   1.845   0.538  0.2280  0.2259 -0.3596
  132MOL0     C18082   7.806   1.769   0.608  0.5442 -0.2196 -0.2164
  132MOL0     C18083   7.896   1.822   0.704  0.1077  0.0705  0.6748
  132MOL0     C18084   8.004   1.749   0.746 -0.4027  0.2159  0.1349
  132MOL0     C18085   8.029   1.619   0.689  0.4771 -0.6690 -0.2227
  132MOL0     O18086   8.144   1.544   0.708  0.6008 -0.6564  0.3633
  132MOL0     C18087   8.272   1.606   0.734 -0.0532  0.6201 -0.2814
  132MOL0     C18088   8.391   1.510   0.710  0.3661 -0.4388  0.6418
  132MOL0     C18089   8.391   1.393   0.806  0.0137 -0.1706  0.9468
  132MOL0     C18090   8.478   1.279   0.741 -0.3735  1.1916  0.3145
  132MOL0     C18091   8.465   1.153   0.826 -0.5014 -0.3383 -0.0334
  132MOL0     C18092   8.533   1.154   0.965  0.0422  0.3934 -0.2864
  132MOL0     C18093   8.497   1.039   1.063 -0.0745  0.3074 -0.2708
  132MOL0     C18094   8.594   1.038   1.185  0.1636 -0.8718 -0.2111
  132MOL0     N18095   8.734   1.027   1.144  0.3131  0.4614  0.5304
  132MOL0     C18096   8.784   0.906   1.096  0.3167 -1.0892  0.1980
  132MOL0     C18097   8.918   0.924   1.077 -0.2339 -0.0171  0.0123
  132MOL0     C18098   9.016   0.819   1.030 -0.6530  0.4273 -0.0091
  132MOL0     C18099   8.984   0.792   0.881 -0.2113 -0.4350  0.4021
  132MOL0     C18100   9.000   0.923   0.799 -0.4433  0.5330 -0.0151
  132MOL0     C18101   9.132   0.991   0.821 -0.8135  0.1564 -0.6103
  132MOL0     O18102   9.148   1.103   0.731 -0.1235 -0.7816  0.4215
  132MOL0     C18103   9.262   1.180   0.737  0.1889 -0.1746 -0.4607
  132MOL0     C18104   9.363   1.157   0.839  0.8055  0.1823 -0.1541
  132MOL0     C18105   9.482   1.226   0.827  0.2044 -0.1922 -0.8251
  132MOL0     C18106   9.590   1.213   0.945  0.4075 -0.2524 -0.4417
  132MOL0     C18107   9.505   1.318   0.724  0.4634  0.3602 -0.4278
  132MOL0     C18108   9.629   1.408   0.714  0.5053 -0.1364 -0.6468
  132MOL0     O18109   9.616   1.512   0.623  0.3547 -0.3012  0.6011
  132MOL0     C18110   9.725   1.595   0.601 -0.8419 -0.4469 -0.7321
  132MOL0     C18111   9.772   1.680   0.703  0.2076  0.5814  0.4495
  132MOL0     C18112   9.890   1.746   0.697 -0.0653 -0.4245  0.0206
  132MOL0     C18113   9.968   1.735   0.575  0.2556 -0.8100 -0.5780
  132MOL0     O18114  10.099   1.784   0.561  0.5098  0.2556 -0.7484
  132MOL0     C18115  10.115   1.882   0.458 -0.1843 -0.5146 -0.4647
  132MOL0     C18116  10.253   1.844   0.395  0.5437  0.5812 -0.6864
  132MOL0     C18117  10.376   1.872   0.482 -0.5113  0.4816  0.2335
  132MOL0     C18118  10.505   1.808   0.438  0.0157 -0.0746 -0.0824
  132MOL0     C18119  10.641   1.873   0.488  0.5631 -0.6534 -0.3944
  132MOL0     C18120  10.647   1.865   0.643 -0.3076 -0.0274 -0.6602
  132MOL0     C18121  10.734   1.742   0.680  0.5960  0.2018  0.4613
  132MOL0     C18122  10.737   1.710   0.832  0.1779  0.3169  0.2581
  132MOL0    Cl18123  10.856   1.582   0.869 -0.4636 -0.3400 -0.4912
  132MOL0     C18124   9.919   1.664   0.466  0.3215 -0.4768  0.6008
  132MOL0     C18125   9.801   1.594   0.485 -0.2717  0.1037 -0.5358
  132MOL0     O18126   9.731   1.375   0.768  0.6415  0.2715 -1.2132
  132MOL0     C18127   9.398   1.340   0.631  0.3262  0.3282 -0.1869
  132MOL0     C18128   9.277   1.267   0.639  0.7953 -0.7196  0.2371
  132MOL0     N18129   8.945   1.053   1.122 -0.2825 -0.4062  0.0493
  132MOL0     N18130   8.834   1.119   1.145  0.0806  0.5919 -0.1608
  132MOL0     C18131   7.938   1.562   0.610 -0.4433  0.9578  0.1562
  132MOL0     C18132   7.835   1.638   0.556  0.9805  0.0046 -0.6610
  132MOL0     C18133   7.471   1.903   0.540  0.2250 -0.2166  0.3180
  132MOL0     C18134   7.339   1.876   0.587  1.3166  0.3603  1.2011
  132MOL0     C18135   7.241   1.969   0.563 -0.6944  0.1564 -0.1773
  132MOL0     C18136   7.266   2.093   0.509  1.2790 -0.1749  0.5531
  132MOL0     O18137   7.151   2.170   0.527  0.2307 -0.4377  0.5071
  132MOL0     C18138   7.165   2.311   0.500 -0.1137  0.0407 -0.3147
  132MOL0     C18139   7.033   2.392   0.504  0.1623 -0.0446  0.2436
  132MOL0     C18140   6.951   2.374   0.375  0.0701  0.0420 -0.4269
  132MOL0     C18141   6.804   2.430   0.371 -0.4405 -1.4290 -0.1696
  132MOL0     C18142   6.797   2.557   0.436  0.0980  0.1000 -0.5807
  132MOL0     C18143   6.782   2.666   0.490  0.8979 -0.0630  0.4301
  132MOL0     C18144   7.383   2.124   0.459 -0.0992 -0.2932 -0.1008
  132MOL0     C18145   7.488   2.033   0.476 -0.5876 -0.2162 -0.2252
  132MOL0     C18146   7.618   2.084   0.407 -0.4603 -0.2703  0.2194
  132MOL0     H18147   7.900   1.923   0.744  1.7086  1.3109 -2.2934
  132MOL0     H18148   8.075   1.787   0.819  1.4163  1.2783 -2.0503
  132MOL0     H18149   8.287   1.650   0.833 -0.0434  2.2123 -0.9645
  132MOL0     H18150   8.274   1.698   0.676 -0.6033  0.6677 -0.2327
  132MOL0     H18151   8.408   1.491   0.604  2.2163  0.9038  0.6577
  132MOL0     H18152   8.477   1.575   0.727 -0.8249  1.2595  0.3773
  132MOL0     H18153   8.435   1.415   0.904  1.6223  0.1073  0.1831
  132MOL0     H18154   8.287   1.367   0.830  0.1814  0.6856  2.8793
  132MOL0     H18155   8.441   1.255   0.641  0.7918 -1.7061  0.4704
  132MOL0     H18156   8.579   1.318   0.728 -0.2489  0.0651 -2.9849
  132MOL0     H18157   8.522   1.075   0.774 -2.7214 -2.1816  0.1773
  132MOL0     H18158   8.360   1.125   0.829 -0.2167 -1.3959  1.2215
  132MOL0     H18159   8.635   1.138   0.930 -0.1967  0.3274 -0.9683
  132MOL0     H18160   8.523   1.254   1.008 -0.3250  0.5505 -0.7268
  132MOL0     H18161   8.493   0.947   1.004  3.8332  1.4471 -2.7123
  132MOL0     H18162   8.398   1.060   1.102 -0.4330  0.8003 -1.4012
  132MOL0     H18163   8.588   1.137   1.232 -1.5482  0.0263 -2.2043
  132MOL0     H18164   8.557   0.966   1.259 -0.7999  2.1129  2.4085
  132MOL0     H18165   8.729   0.813   1.082 -2.6580  0.3022  1.7612
  132MOL0     H18166   9.015   0.732   1.096  2.6911 -1.0964 -1.7185
  132MOL0     H18167   9.119   0.856   1.042  0.6657 -3.0076  0.3040
  132MOL0     H18168   9.037   0.706   0.839 -0.7463 -0.0430 -1.1428
  132MOL0     H18169   8.878   0.763   0.874 -0.4741  0.8923 -2.3813
  132MOL0     H18170   8.988   0.910   0.691  0.8098 -0.6248 -0.0450
  132MOL0     H18171   8.918   0.989   0.829 -1.5355  0.4910 -2.6204
  132MOL0     H18172   9.142   1.026   0.924  1.5052 -1.5568 -0.1482
  132MOL0     H18173   9.204   0.911   0.800 -0.4423 -0.0037  1.1456
  132MOL0     H18174   9.347   1.096   0.927 -3.0899  1.0969 -0.0362
  132MOL0     H18175   9.551   1.172   1.039  0.6405  1.5738  0.4851
  132MOL0     H18176   9.607   1.318   0.969 -0.1004  0.5486 -3.2930
  132MOL0     H18177   9.686   1.171   0.913  0.4723  1.3265 -2.4523
  132MOL0     H18178   9.733   1.673   0.803  0.6318 -0.3603  0.5563
  132MOL0     H18179   9.936   1.810   0.771  1.2107 -1.2822  0.0213
  132MOL0     H18180  10.046   1.878   0.373  0.8024 -0.9163 -1.2704
  132MOL0     H18181  10.095   1.982   0.498  0.7292  0.8929 -3.2943
  132MOL0     H18182  10.248   1.737   0.373 -1.0579  0.8348 -1.7649
  132MOL0     H18183  10.262   1.900   0.301 -0.2412 -0.0723 -1.1659
  132MOL0     H18184  10.360   1.868   0.590 -1.1726  2.6427  0.2618
  132MOL0     H18185  10.387   1.979   0.462  1.2333 -0.1960 -3.0800
  132MOL0     H18186  10.518   1.793   0.331  0.2609  0.8427 -0.1853
  132MOL0     H18187  10.507   1.711   0.489 -1.8622 -0.5442 -0.8393
  132MOL0     H18188  10.731   1.835   0.439  0.0698 -1.5440 -0.6499
  132MOL0     H18189  10.634   1.978   0.457 -2.5336 -1.3029 -2.3924
  132MOL0     H18190  10.549   1.854   0.690  0.5414 -1.1721  0.9623
  132MOL0     H18191  10.702   1.955   0.672 -1.2066 -0.4996  3.0134
  132MOL0     H18192  10.842   1.752   0.664  1.5881 -2.5620  3.9866
  132MOL0     H18193  10.697   1.651   0.633 -2.9005  1.7384 -0.0567
  132MOL0     H18194  10.639   1.681   0.870  0.5297  0.4865  1.3349
  132MOL0     H18195  10.772   1.800   0.884  1.3740 -1.0042  1.8345
  132MOL0     H18196   9.966   1.627   0.375  1.5457  1.6838  0.2639
  132MOL0     H18197   9.766   1.522   0.411 -2.7218  0.3780  0.2653
  132MOL0     H18198   9.396   1.406   0.545 -1.7374 -2.3527 -2.3748
  132MOL0     H18199   9.201   1.287   0.564  0.1512 -0.1995  1.0217
  132MOL0     H18200   7.950   1.466   0.560  1.1975  2.6538 -2.9847
  132MOL0     H18201   7.763   1.596   0.487 -1.4067 -0.9616  2.2171
  132MOL0     H18202   7.307   1.784   0.635  2.1685 -0.2543  0.6303
  132MOL0     H18203   7.148   1.953   0.617  0.6876 -0.7719  2.0278
  132MOL0     H18204   7.217   2.351   0.588 -1.7207  1.2053  0.1537
  132MOL0     H18205   7.231   2.334   0.416 -1.4944 -1.3938 -1.8620
  132MOL0     H18206   7.048   2.500   0.507 -4.6690  0.8425 -0.0384
  132MOL0     H18207   6.975   2.347   0.585 -4.3182  1.0580 -2.0492
  132MOL0     H18208   7.015   2.427   0.304  2.6954 -0.6026  1.2831
  132MOL0     H18209   6.939   2.269   0.345  2.3049  0.0217 -1.5038
  132MOL0     H18210   6.734   2.362   0.420  1.3184 -1.3899  2.5869
  132MOL0     H18211   6.768   2.445   0.268  0.6396  0.4209 -0.3316
  132MOL0     H18212   6.776   2.760   0.541 -1.4079 -1.4225  2.9583
  132MOL0     H18213   7.405   2.218   0.410 -0.5649 -0.9400 -1.6143
  132MOL0     H18214   7.690   2.084   0.488 -1.5568 -4.2071  1.4427
  132MOL0     H18215   7.654   2.009   0.335 -0.7977 -0.5399  0.3264
  132MOL0     H18216   7.609   2.172   0.343  0.8169 -0.5876 -0.4346
  133MOL0     O18217   9.115   2.349   1.118 -0.0716  0.6972  0.5435
  133MOL0     C18218   9.076   2.257   1.048  0.2244 -0.7605  0.5074
  133MOL0     O18219   9.039   2.268   0.914 -0.1041  0.5321 -1.0463
  133MOL0     C18220   9.080   2.387   0.856  0.3504 -0.4760  1.0325
  133MOL0     C18221   9.026   2.507   0.888  0.2954  0.2645  0.3081
  133MOL0     C18222   9.063   2.618   0.820  0.3788  0.3052 -0.3207
  133MOL0     C18223   9.151   2.614   0.715 -0.5292 -0.2688  0.3998
  133MOL0     O18224   9.200   2.726   0.643 -0.0059  0.0560  0.1351
  133MOL0     C18225   9.169   2.861   0.684  0.3260  0.6291 -0.6051
  133MOL0     C18226   9.223   2.963   0.593 -0.2594 -0.5222 -0.3607
  133MOL0     C18227   9.371   2.920   0.550  0.7876  0.1636  0.4043
  133MOL0     C18228   9.425   3.050   0.486  0.2583 -0.2299 -0.3660
  133MOL0     C18229   9.530   3.022   0.377  0.2189 -1.0656 -0.4349
  133MOL0     C18230   9.665   3.008   0.440  0.3432  0.5111 -0.0053
  133MOL0     C18231   9.765   2.965   0.326  0.7086 -0.2545 -0.3510
  133MOL0     C18232   9.906   2.930   0.380 -0.7719 -0.0566 -0.7153
  133MOL0     N18233   9.968   3.044   0.454  0.3970  0.2856 -0.0500
  133MOL0     C18234   9.993   3.168   0.400  0.2071 -0.7585  0.5787
  133MOL0     C18235  10.043   3.241   0.496  0.5509  0.0675  0.7774
  133MOL0     C18236  10.092   3.380   0.470 -0.0929  0.0126  0.1184
  133MOL0     C18237  10.212   3.384   0.367 -0.3464  0.1899 -0.4842
  133MOL0     C18238  10.344   3.338   0.436 -0.0415  0.9098  0.6911
  133MOL0     C18239  10.398   3.432   0.543 -0.3407  0.0109 -0.5622
  133MOL0     O18240  10.453   3.551   0.484  0.0929 -0.4583 -0.2713
  133MOL0     C18241  10.576   3.539   0.422  0.4917  0.3203  1.0499
  133MOL0     C18242  10.664   3.421   0.408  0.4588  0.3703  0.8464
  133MOL0     C18243  10.797   3.432   0.348  0.3793 -0.4655 -0.4250
  133MOL0     C18244  10.873   3.304   0.332 -0.4927 -0.3552  0.1592
  133MOL0     C18245  10.843   3.560   0.298  0.3454 -0.1798 -0.6563
  133MOL0     C18246  10.982   3.589   0.246 -0.1665  0.5187 -0.3957
  133MOL0     O18247  11.008   3.719   0.209 -0.4142  0.0711 -0.6911
  133MOL0     C18248  11.131   3.755   0.170  0.2384  0.7441 -0.5342
  133MOL0     C18249  11.229   3.792   0.264  0.4601 -1.3759 -0.0990
  133MOL0     C18250  11.354   3.836   0.223 -0.1240 -0.1442 -0.4046
  133MOL0     C18251  11.380   3.859   0.089 -0.6868 -0.4399  0.1845
  133MOL0     O18252  11.497   3.916   0.039 -0.7564  0.2204  0.5573
  133MOL0     C18253  11.611   3.940   0.118 -0.3004  0.7343 -0.0642
  133MOL0     C18254  11.734   3.951   0.046 -0.7285  0.6229  0.6692
  133MOL0     C18255  11.794   3.816  -0.005  0.1300 -0.0475  0.4294
  133MOL0     C18256  11.939   3.817  -0.036 -0.8234 -0.9372  0.0857
  133MOL0     C18257  11.972   3.703  -0.138 -0.3907  0.3009  0.2642
  133MOL0     C18258  12.129   3.691  -0.149  0.1652 -0.3910  0.2554
  133MOL0     C18259  12.203   3.804  -0.220  0.0870 -0.7191 -0.4603
  133MOL0     C18260  12.287   3.754  -0.332 -0.3892 -0.3102  0.2864
  133MOL0    Cl18261  12.424   3.670  -0.246  0.0011  0.2855 -0.4422
  133MOL0     C18262  11.279   3.846  -0.003 -0.0101 -0.2435  0.7971
  133MOL0     C18263  11.154   3.799   0.039 -0.8173 -0.4850  0.5602
  133MOL0     O18264  11.059   3.497   0.230 -0.3422 -0.3715  0.0706
  133MOL0     C18265  10.749   3.668   0.314  0.0842  0.1316 -0.4079
  133MOL0     C18266  10.624   3.660   0.374 -0.3189  0.4654 -0.2111
  133MOL0     N18267  10.052   3.158   0.611 -1.2098  0.1478  0.9655
  133MOL0     N18268  10.014   3.043   0.584 -0.3468  1.0153  0.0845
  133MOL0     C18269   9.222   2.497   0.687  0.6559 -0.3503  0.6065
  133MOL0     C18270   9.187   2.385   0.766  0.1641 -1.0116  0.4021
  133MOL0     C18271   9.073   2.125   1.113 -1.2522 -0.4958 -0.0501
  133MOL0     C18272   9.133   2.110   1.240 -0.0992 -0.9947  0.1175
  133MOL0     C18273   9.128   2.002   1.331  0.5509  0.3194  0.4908
  133MOL0     C18274   9.039   1.895   1.292 -0.0701  0.8646 -0.5940
  133MOL0     O18275   9.009   1.782   1.363 -0.0522 -0.0929 -0.8357
  133MOL0     C18276   9.088   1.754   1.477 -0.2095 -0.1443 -0.2445
  133MOL0     C18277   9.029   1.614   1.513 -0.4995  0.7070 -0.0449
  133MOL0     C18278   9.099   1.556   1.631 -0.0178  0.2670  0.2683
  133MOL0     C18279   9.019   1.428   1.685  0.1030  0.3815 -0.1772
  133MOL0     C18280   9.113   1.362   1.781 -0.1183 -0.4269  0.5329
  133MOL0     C18281   9.173   1.302   1.862  0.2469  0.2745  0.7709
  133MOL0     C18282   8.989   1.898   1.156 -0.4185 -0.2841  0.3783
  133MOL0     C18283   9.009   2.007   1.069 -0.2133  0.1886 -0.0623
  133MOL0     C18284   8.936   1.990   0.940  0.4600 -0.4109  0.3355
  133MOL0     H18285   8.976   2.519   0.983  1.6458  3.3979  0.7137
  133MOL0     H18286   9.016   2.713   0.843  0.8816  0.1890  1.3159
  133MOL0     H18287   9.205   2.869   0.787 -1.2794 -0.4330  0.0820
  133MOL0     H18288   9.060   2.871   0.688  0.2399 -0.4645  0.4413
  133MOL0     H18289   9.159   2.967   0.504  0.0961  2.0846 -0.5819
  133MOL0     H18290   9.222   3.061   0.642  1.2805 -1.0041  0.7283
  133MOL0     H18291   9.422   2.871   0.633  1.1437 -1.1185 -0.5369
  133MOL0     H18292   9.368   2.845   0.470 -2.9651 -1.2447  1.6118
  133MOL0     H18293   9.347   3.092   0.421 -1.6803 -1.0110  1.3716
  133MOL0     H18294   9.456   3.129   0.555  0.0467 -0.1015 -0.4151
  133MOL0     H18295   9.525   3.110   0.312  0.6658 -1.5963 -1.1931
  133MOL0     H18296   9.497   2.938   0.315  2.7187  0.6069 -4.4702
  133MOL0     H18297   9.698   3.103   0.484  3.8271 -1.2755  1.6118
  133MOL0     H18298   9.673   2.926   0.512  3.2039  0.0189 -0.7701
  133MOL0     H18299   9.774   3.042   0.249  1.6952  0.7273  0.7009
  133MOL0     H18300   9.721   2.872   0.288  0.0615 -0.0124 -0.1960
  133MOL0     H18301   9.902   2.845   0.449  0.7107 -0.8579 -1.5711
  133MOL0     H18302   9.980   2.903   0.304  1.1758  0.2422  0.9630
  133MOL0     H18303   9.989   3.212   0.301  1.9354 -0.9979  0.3600
  133MOL0     H18304  10.119   3.427   0.565  3.1687  1.8913 -1.5654
  133MOL0     H18305  10.006   3.425   0.420 -0.2254 -0.7709 -0.3784
  133MOL0     H18306  10.191   3.317   0.283 -0.3837  0.2436 -0.5179
  133MOL0     H18307  10.233   3.489   0.340  0.3172  0.3764  0.6995
  133MOL0     H18308  10.314   3.243   0.482  1.7357  0.2920  0.6232
  133MOL0     H18309  10.424   3.326   0.363  3.0828  1.2224  3.8249
  133MOL0     H18310  10.324   3.456   0.619 -0.9629  0.7943 -1.3857
  133MOL0     H18311  10.484   3.381   0.587  1.3869 -1.2587 -4.8048
  133MOL0     H18312  10.625   3.327   0.445  1.8190  0.0120  1.4433
  133MOL0     H18313  10.892   3.294   0.224 -1.6004  0.3706 -0.1210
  133MOL0     H18314  10.818   3.212   0.350 -0.5745 -0.6833 -1.5300
  133MOL0     H18315  10.968   3.305   0.386 -1.0235  0.2134  1.1050
  133MOL0     H18316  11.214   3.773   0.370  0.9232 -2.1205 -0.1546
  133MOL0     H18317  11.438   3.847   0.291 -1.7624  0.0388  1.6975
  133MOL0     H18318  11.606   4.025   0.188 -1.7222  0.6468 -0.0348
  133MOL0     H18319  11.626   3.855   0.186 -0.4057 -0.4262 -1.4679
  133MOL0     H18320  11.718   4.018  -0.039  0.5218  1.8347  1.3455
  133MOL0     H18321  11.813   3.995   0.108  1.9179  2.3120 -3.4203
  133MOL0     H18322  11.734   3.803  -0.096 -2.8509 -0.7877  2.3836
  133MOL0     H18323  11.763   3.731   0.057  1.3083  0.1879  1.3789
  133MOL0     H18324  11.983   3.800   0.062 -2.9397 -0.3861  1.1766
  133MOL0     H18325  11.967   3.916  -0.074 -0.9594 -0.5317  1.0200
  133MOL0     H18326  11.935   3.610  -0.094  0.9426 -0.0909  0.6141
  133MOL0     H18327  11.939   3.707  -0.242  2.9029 -2.8799 -1.1349
  133MOL0     H18328  12.151   3.604  -0.211 -2.8268 -0.2073 -1.2837
  133MOL0     H18329  12.170   3.668  -0.050  0.4283  1.0926  0.5145
  133MOL0     H18330  12.265   3.858  -0.149 -0.9292  2.6295 -1.8905
  133MOL0     H18331  12.134   3.878  -0.261 -0.0835 -0.4169  0.3649
  133MOL0     H18332  12.321   3.843  -0.385 -2.5022 -0.2206 -1.0056
  133MOL0     H18333  12.246   3.690  -0.410  1.0533  2.0869 -2.6036
  133MOL0     H18334  11.300   3.880  -0.104  2.5916  0.3378  1.4488
  133MOL0     H18335  11.075   3.788  -0.035  1.1262 -0.8586 -1.5806
  133MOL0     H18336  10.768   3.768   0.277 -3.1617  1.9881  2.2707
  133MOL0     H18337  10.574   3.756   0.381 -1.7462  0.5650 -6.4719
  133MOL0     H18338   9.296   2.490   0.608 -2.4705  1.7840 -2.8337
  133MOL0     H18339   9.241   2.290   0.764 -1.9740 -2.3045  0.1365
  133MOL0     H18340   9.191   2.194   1.275  3.0654 -3.4510  1.2110
  133MOL0     H18341   9.167   2.007   1.432 -0.9866  0.9611  1.0737
  133MOL0     H18342   9.196   1.760   1.462 -0.4531  4.5978 -1.7150
  133MOL0     H18343   9.061   1.816   1.563 -0.1526 -1.5851  0.8717
  133MOL0     H18344   9.060   1.553   1.428 -3.5007 -0.7747 -0.2044
  133MOL0     H18345   8.922   1.612   1.535 -0.5965  1.9135 -0.3482
  133MOL0     H18346   9.200   1.528   1.601 -1.2543 -1.6907 -2.4835
  133MOL0     H18347   9.102   1.640   1.701  2.2632 -0.1045  0.6878
  133MOL0     H18348   8.990   1.361   1.603 -1.3956 -0.0582  0.6624
  133MOL0     H18349   8.924   1.460   1.729 -1.3122 -0.0677 -2.6600
  133MOL0     H18350   9.218   1.259   1.949 -0.8740  0.1995  1.3300
  133MOL0     H18351   8.939   1.805   1.129 -2.1277  1.2337 -2.0788
  133MOL0     H18352   8.857   1.915   0.950  0.5341 -0.7172 -1.1818
  133MOL0     H18353   8.888   2.080   0.901 -0.8130  0.0034  2.6975
  133MOL0     H18354   9.001   1.949   0.862 -1.6145 -0.3450 -1.5180
  134MOL0     O18355   4.912  10.391   4.486 -0.1189  0.2349 -0.4782
  134MOL0     C18356   4.883  10.282   4.443  0.0668  0.2150  0.3728
  134MOL0     O18357   4.836  10.269   4.316  0.5227  0.3529  0.8741
  134MOL0     C18358   4.858  10.363   4.220 -0.8892 -0.8560  0.2873
  134MOL0     C18359   4.762  10.413   4.139 -0.2512 -0.2612  0.6391
  134MOL0     C18360   4.780  10.519   4.046 -0.0404 -0.0704 -0.2282
  134MOL0     C18361   4.902  10.586   4.034 -0.4691 -0.1647 -0.4537
  134MOL0     O18362   4.928  10.703   3.966 -0.0859 -0.9896 -0.7361
  134MOL0     C18363   4.861  10.726   3.843  0.4804 -0.2092  0.9159
  134MOL0     C18364   4.806  10.865   3.862  0.9016 -0.3065 -0.1817
  134MOL0     C18365   4.913  10.977   3.856 -0.8038 -0.6120 -0.3768
  134MOL0     C18366   4.842  11.113   3.847  0.2183  0.7639 -0.8527
  134MOL0     C18367   4.943  11.221   3.875  0.7208 -0.4327 -0.1304
  134MOL0     C18368   4.855  11.341   3.860  0.4248  0.0116 -0.6990
  134MOL0     C18369   4.937  11.457   3.907  0.0711  0.1994  0.0930
  134MOL0     C18370   4.865  11.599   3.900 -0.1010  1.0107  0.7990
  134MOL0     N18371   4.866  11.664   4.029 -0.3892  0.2234  0.9158
  134MOL0     C18372   4.989  11.706   4.083  0.0861 -0.0687 -0.5342
  134MOL0     C18373   4.980  11.706   4.211  0.1483 -0.5986  0.2032
  134MOL0     C18374   5.073  11.743   4.316 -0.7686 -0.5947 -0.0716
  134MOL0     C18375   5.083  11.627   4.434  0.9107 -0.3322  0.4498
  134MOL0     C18376   5.123  11.497   4.364 -0.1707 -0.2490 -0.5202
  134MOL0     C18377   5.105  11.386   4.470  0.1264  0.1228  0.5227
  134MOL0     O18378   4.964  11.344   4.488  0.2923  0.1048 -0.1149
  134MOL0     C18379   4.908  11.395   4.604  0.0068  0.1577  0.4048
  134MOL0     C18380   4.805  11.490   4.599  0.1296 -0.6694 -0.6715
  134MOL0     C18381   4.735  11.525   4.715  1.2466  0.2555  0.3535
  134MOL0     C18382   4.610  11.619   4.686  0.1742  0.5069  0.1514
  134MOL0     C18383   4.765  11.470   4.835  0.4019  0.0140  0.4660
  134MOL0     C18384   4.692  11.494   4.963 -0.3877 -0.4812 -0.5985
  134MOL0     O18385   4.758  11.446   5.080 -0.0057 -0.1435  0.1871
  134MOL0     C18386   4.707  11.475   5.202 -0.4926  0.1224 -0.6228
  134MOL0     C18387   4.774  11.572   5.278  0.2504 -1.0369 -0.2294
  134MOL0     C18388   4.721  11.594   5.401  0.2579 -0.3840  0.0993
  134MOL0     C18389   4.599  11.536   5.448 -0.5811  0.3779 -0.5898
  134MOL0     O18390   4.559  11.561   5.573  0.1145 -0.0431  0.2762
  134MOL0     C18391   4.498  11.685   5.596 -0.2568  0.3274 -1.6026
  134MOL0     C18392   4.575  11.746   5.710  1.0678 -1.3952 -1.0573
  134MOL0     C18393   4.510  11.873   5.774 -0.2054  0.1684  0.3770
  134MOL0     C18394   4.458  11.971   5.668 -0.7609 -0.1451 -0.4564
  134MOL0     C18395   4.435  12.107   5.725  0.9401 -0.3753  0.3702
  134MOL0     C18396   4.354  12.099   5.858  0.8289  0.0755 -0.1740
  134MOL0     C18397   4.309  12.227   5.930 -0.8124  0.3168  0.0689
  134MOL0     C18398   4.206  12.294   5.849  1.2347 -0.0749  0.9427
  134MOL0    Cl18399   4.123  12.405   5.950  0.5071 -0.0313  0.5739
  134MOL0     C18400   4.549  11.433   5.369  0.2721  0.4135 -0.9683
  134MOL0     C18401   4.595  11.398   5.248  0.4218 -0.6871 -1.1924
  134MOL0     O18402   4.587  11.554   4.966  0.3689  0.3444  0.3379
  134MOL0     C18403   4.871  11.377   4.838  0.7306  0.0641  0.2915
  134MOL0     C18404   4.941  11.342   4.721 -0.4789  0.8564 -0.7804
  134MOL0     N18405   4.848  11.678   4.244  0.3301 -0.4061  0.2781
  134MOL0     N18406   4.777  11.651   4.132 -0.6661 -0.2837 -0.0703
  134MOL0     C18407   5.005  10.532   4.104 -0.4411  0.6317 -0.0034
  134MOL0     C18408   4.986  10.426   4.196  0.0557  0.0703 -0.3356
  134MOL0     C18409   4.859  10.161   4.533  0.0267  0.0937  0.4647
  134MOL0     C18410   4.768  10.072   4.488  0.5975  0.2904 -0.5899
  134MOL0     C18411   4.734   9.956   4.571 -0.1676 -0.5154  0.2594
  134MOL0     C18412   4.791   9.930   4.696  0.1733  0.0923 -0.4337
  134MOL0     O18413   4.757   9.820   4.766  0.3690  0.3566 -0.1355
  134MOL0     C18414   4.750   9.826   4.908  0.1222  0.8038 -0.1035
  134MOL0     C18415   4.879   9.783   4.968  0.1285  0.9531 -0.3129
  134MOL0     C18416   4.904   9.637   4.945  0.1345  0.1342  0.2676
  134MOL0     C18417   5.036   9.591   4.995  0.2611  0.4344  0.8326
  134MOL0     C18418   5.047   9.443   4.967 -0.4848 -0.4669 -0.0162
  134MOL0     C18419   5.053   9.326   4.939  0.5496  0.4951 -0.5134
  134MOL0     C18420   4.890  10.020   4.736 -0.2415 -0.3616  0.1903
  134MOL0     C18421   4.922  10.134   4.660  0.0250  0.4886  0.0522
  134MOL0     C18422   5.023  10.229   4.713 -0.4193 -0.0749 -0.6466
  134MOL0     H18423   4.660  10.380   4.158 -0.9975  1.7927  0.4885
  134MOL0     H18424   4.694  10.556   3.991 -1.7861 -0.2852  2.2158
  134MOL0     H18425   4.778  10.663   3.810  0.6313  0.6569 -1.3153
  134MOL0     H18426   4.932  10.718   3.761  0.2200 -0.1484  0.6820
  134MOL0     H18427   4.727  10.867   3.787  1.4640  0.9880 -0.7649
  134MOL0     H18428   4.745  10.861   3.953 -0.0713  0.7581 -0.7688
  134MOL0     H18429   4.980  10.979   3.943 -3.2445 -2.0323  1.6616
  134MOL0     H18430   4.974  10.959   3.767 -0.8147 -0.7547 -0.3554
  134MOL0     H18431   4.792  11.125   3.751 -0.5686  0.0065 -0.5569
  134MOL0     H18432   4.762  11.115   3.922  0.1443 -1.1365 -0.8191
  134MOL0     H18433   5.030  11.218   3.809  0.6141  2.5171 -0.5579
  134MOL0     H18434   4.975  11.213   3.980 -3.2043  0.5418  1.3481
  134MOL0     H18435   4.837  11.355   3.753  1.2902  1.0675 -0.7184
  134MOL0     H18436   4.760  11.323   3.913  0.5979 -1.2617 -0.7936
  134MOL0     H18437   5.028  11.469   3.848 -0.9712  1.1934 -1.3903
  134MOL0     H18438   4.958  11.432   4.011  0.4876  1.7639  0.3994
  134MOL0     H18439   4.923  11.658   3.828 -0.2066 -0.9447 -0.9977
  134MOL0     H18440   4.765  11.592   3.854 -0.0959 -0.5937  0.9803
  134MOL0     H18441   5.085  11.717   4.033  2.9709 -1.8987  4.0687
  134MOL0     H18442   5.040  11.836   4.363 -0.8826 -1.3046  1.3103
  134MOL0     H18443   5.175  11.762   4.281 -0.7553 -0.7082 -0.0946
  134MOL0     H18444   5.154  11.658   4.511 -0.5061  0.1237  1.6004
  134MOL0     H18445   4.985  11.616   4.480  1.0776 -2.2508  0.4230
  134MOL0     H18446   5.059  11.472   4.279 -4.6184 -2.1626  2.9513
  134MOL0     H18447   5.227  11.518   4.340  0.1144 -1.4659 -0.4021
  134MOL0     H18448   5.168  11.300   4.446 -1.4267 -1.4010  1.6805
  134MOL0     H18449   5.140  11.417   4.570 -1.9072  0.8691  1.0470
  134MOL0     H18450   4.783  11.529   4.501  2.0921  0.1908 -0.8176
  134MOL0     H18451   4.612  11.717   4.733 -3.0180  0.6952  0.0945
  134MOL0     H18452   4.517  11.563   4.699 -0.0071  1.1420  1.6658
  134MOL0     H18453   4.611  11.641   4.579  1.3695  0.7081  0.1839
  134MOL0     H18454   4.858  11.633   5.246 -0.7869  1.0488  0.8211
  134MOL0     H18455   4.781  11.662   5.460  3.1835 -1.2418 -1.6807
  134MOL0     H18456   4.502  11.753   5.510  0.2932  3.6211  0.8305
  134MOL0     H18457   4.395  11.677   5.632  0.3403 -2.9841 -0.3274
  134MOL0     H18458   4.581  11.672   5.791 -2.1008 -0.4818  0.1454
  134MOL0     H18459   4.679  11.768   5.685  2.2367 -0.6604  3.4613
  134MOL0     H18460   4.576  11.919   5.848  0.1179 -0.4318  0.4779
  134MOL0     H18461   4.431  11.847   5.844  2.6547 -2.4709  2.9452
  134MOL0     H18462   4.363  11.944   5.620 -0.4929  1.4272 -1.9701
  134MOL0     H18463   4.531  11.978   5.587 -0.1890 -0.7548 -0.0161
  134MOL0     H18464   4.534  12.153   5.736  0.2232  1.8050 -1.3650
  134MOL0     H18465   4.369  12.165   5.660 -0.9370 -1.1444  1.5076
  134MOL0     H18466   4.415  12.040   5.927  1.1047 -3.7635 -3.3131
  134MOL0     H18467   4.265  12.036   5.848  0.7651  0.3617 -1.5330
  134MOL0     H18468   4.400  12.287   5.945 -0.5491 -0.4778  2.0119
  134MOL0     H18469   4.277  12.197   6.031  0.9293 -1.0465  0.2589
  134MOL0     H18470   4.129  12.226   5.811  0.1536  3.2814 -3.7481
  134MOL0     H18471   4.243  12.340   5.757 -0.5847 -1.1537 -0.3858
  134MOL0     H18472   4.467  11.380   5.416  2.3585 -1.2703  1.0410
  134MOL0     H18473   4.549  11.319   5.191  0.0534 -0.1212 -1.6920
  134MOL0     H18474   4.887  11.330   4.934  0.2285 -0.1342  0.2801
  134MOL0     H18475   5.023  11.271   4.724 -1.1243  0.0267 -1.8642
  134MOL0     H18476   5.099  10.586   4.095  0.1780 -0.4447 -0.1346
  134MOL0     H18477   5.065  10.398   4.265  1.2743 -0.3806 -1.8581
  134MOL0     H18478   4.723  10.082   4.390 -0.1486 -1.4927 -0.4584
  134MOL0     H18479   4.666   9.879   4.537 -1.0272 -0.8725  2.5921
  134MOL0     H18480   4.717   9.925   4.939 -0.8411  0.7127 -0.7938
  134MOL0     H18481   4.681   9.748   4.941  1.5885 -1.6736 -2.3993
  134MOL0     H18482   4.868   9.809   5.073 -1.0436  1.8956 -0.6459
  134MOL0     H18483   4.961   9.839   4.922 -0.5013  1.8437 -0.3691
  134MOL0     H18484   4.812   9.591   4.983 -0.9758  0.6749 -1.6270
  134MOL0     H18485   4.917   9.629   4.837  1.3283  2.4429  0.1782
  134MOL0     H18486   5.048   9.603   5.103 -3.5047  0.0128  1.4331
  134MOL0     H18487   5.114   9.644   4.941  0.3339 -1.7529 -1.3897
  134MOL0     H18488   5.071   9.224   4.910  0.1843  0.6649 -1.3647
  134MOL0     H18489   4.934  10.013   4.835  1.7875 -1.1783 -0.7223
  134MOL0     H18490   4.970  10.317   4.750 -0.1946 -1.0194  2.1133
  134MOL0     H18491   5.072  10.179   4.797 -0.3928  0.2482 -0.4719
  134MOL0     H18492   5.104  10.246   4.641 -0.3381 -4.1646 -1.8042
  135MOL0     O18493   5.028   9.444   8.000 -0.0941 -0.1671 -0.0360
  135MOL0     C18494   4.917   9.433   7.946  0.1845  0.4796  0.0115
  135MOL0     O18495   4.802   9.484   8.000 -0.1094  0.3484  0.1504
  135MOL0     C18496   4.794   9.591   8.086 -0.3184  0.1405 -0.2863
  135MOL0     C18497   4.858   9.716   8.064  0.1699  0.8407  0.4420
  135MOL0     C18498   4.849   9.812   8.167  0.3575  1.0941 -0.6839
  135MOL0     C18499   4.767   9.796   8.279 -0.7099 -0.2605  0.3502
  135MOL0     O18500   4.757   9.884   8.378 -0.5434  0.3171  0.0854
  135MOL0     C18501   4.770  10.018   8.331 -0.3955 -0.3678 -0.8011
  135MOL0     C18502   4.742  10.114   8.440  0.1857  0.1632  0.5080
  135MOL0     C18503   4.779  10.260   8.400 -1.0906 -0.3875 -0.2207
  135MOL0     C18504   4.715  10.342   8.515 -0.9949 -0.0216 -0.4276
  135MOL0     C18505   4.680  10.489   8.473 -0.4408 -1.1050  0.1010
  135MOL0     C18506   4.625  10.572   8.592  0.3663  0.6508  0.6027
  135MOL0     C18507   4.542  10.700   8.540 -0.4924  0.0833 -0.2207
  135MOL0     C18508   4.507  10.792   8.663  0.2556  0.2471  0.2775
  135MOL0     N18509   4.490  10.929   8.605  0.9945  0.4142  0.8317
  135MOL0     C18510   4.378  10.955   8.531 -0.2297  0.2521  0.4295
  135MOL0     C18511   4.396  11.092   8.505  0.0311 -0.4390 -0.7384
  135MOL0     C18512   4.295  11.169   8.421 -0.1142 -0.0579  0.4658
  135MOL0     C18513   4.288  11.326   8.452  0.1149  0.4899 -0.2894
  135MOL0     C18514   4.188  11.395   8.366  0.0682  0.4317 -0.1563
  135MOL0     C18515   4.044  11.358   8.397  0.5093 -0.3284  0.2747
  135MOL0     O18516   3.975  11.465   8.345  0.1171  0.7271  0.0200
  135MOL0     C18517   3.838  11.446   8.316 -0.8984  0.4979 -0.2204
  135MOL0     C18518   3.754  11.336   8.312  0.0405 -0.5067  1.1158
  135MOL0     C18519   3.618  11.338   8.265 -0.0017 -0.4522  0.1157
  135MOL0     C18520   3.518  11.221   8.288 -0.6299 -0.1130  0.5609
  135MOL0     C18521   3.566  11.461   8.225  1.0978 -0.9931  0.9594
  135MOL0     C18522   3.431  11.496   8.175 -0.4830 -0.5238  0.3665
  135MOL0     O18523   3.365  11.398   8.111 -0.4693  0.2165  0.1540
  135MOL0     C18524   3.279  11.423   8.014 -0.0248 -0.3549 -0.5593
  135MOL0     C18525   3.150  11.444   8.045  0.3207 -0.4375 -0.5223
  135MOL0     C18526   3.060  11.470   7.939 -0.1201 -1.3926 -0.0318
  135MOL0     C18527   3.099  11.490   7.811  0.4162  0.8185 -0.1544
  135MOL0     O18528   2.998  11.516   7.719 -0.3253 -0.1431  0.3196
  135MOL0     C18529   3.032  11.587   7.598 -0.2837 -0.4294 -0.8226
  135MOL0     C18530   2.896  11.609   7.536  0.3749  0.0831  0.9823
  135MOL0     C18531   2.905  11.709   7.423  0.7839 -0.7541 -0.3454
  135MOL0     C18532   2.772  11.737   7.364 -0.5601  0.9263  0.5719
  135MOL0     C18533   2.766  11.870   7.300 -0.3762  0.2139  0.6095
  135MOL0     C18534   2.690  11.883   7.167  1.6705 -0.9748 -0.3508
  135MOL0     C18535   2.647  12.032   7.145 -0.5778  0.7660  0.5029
  135MOL0     C18536   2.594  12.065   7.001  0.3755  0.5123  0.1112
  135MOL0    Cl18537   2.456  11.965   6.939  0.1762  0.3050 -0.3392
  135MOL0     C18538   3.232  11.468   7.780  0.2091 -0.0326 -0.0628
  135MOL0     C18539   3.326  11.427   7.878 -0.3565  0.3247  0.8998
  135MOL0     O18540   3.388  11.611   8.177 -0.7980  0.0662  0.3962
  135MOL0     C18541   3.650  11.580   8.239 -0.0227 -0.3073 -1.6680
  135MOL0     C18542   3.779  11.565   8.288 -0.0856 -0.0092 -0.2571
  135MOL0     N18543   4.520  11.131   8.558  0.6317 -0.5731 -1.2133
  135MOL0     N18544   4.578  11.028   8.613  0.1394 -0.7601 -0.4632
  135MOL0     C18545   4.696   9.677   8.294  0.7866  0.9071  0.2629
  135MOL0     C18546   4.703   9.578   8.194 -0.3319 -1.1741 -0.6164
  135MOL0     C18547   4.909   9.370   7.810  0.1030  0.4116 -0.0517
  135MOL0     C18548   4.811   9.419   7.722  0.4165  0.5465 -0.5001
  135MOL0     C18549   4.798   9.373   7.589 -0.4239 -0.6380  0.1741
  135MOL0     C18550   4.892   9.282   7.535 -0.5123 -0.6549 -0.5201
  135MOL0     O18551   4.887   9.219   7.414 -0.0225  0.1775 -0.0024
  135MOL0     C18552   4.759   9.228   7.338 -1.3354 -0.2529  0.1196
  135MOL0     C18553   4.765   9.315   7.213 -0.4999 -0.0835  0.0514
  135MOL0     C18554   4.625   9.337   7.163  0.2993  0.4413 -0.0232
  135MOL0     C18555   4.598   9.221   7.066 -0.1085  0.9276 -0.5478
  135MOL0     C18556   4.474   9.216   6.993  0.1919  0.6031  0.2415
  135MOL0     C18557   4.379   9.233   6.916 -0.6180  0.2906  0.3880
  135MOL0     C18558   4.998   9.250   7.622 -0.6080 -0.4936  0.9517
  135MOL0     C18559   5.011   9.286   7.755 -0.3725 -0.4799 -0.6110
  135MOL0     C18560   5.139   9.259   7.825  0.4826 -0.5622 -0.3787
  135MOL0     H18561   4.920   9.722   7.976 -0.0898  0.8676  0.2585
  135MOL0     H18562   4.894   9.910   8.151 -1.2486  1.9059 -0.4755
  135MOL0     H18563   4.709  10.042   8.244  1.0116  0.4322 -1.6061
  135MOL0     H18564   4.872  10.035   8.297  0.1083 -0.1128  0.7255
  135MOL0     H18565   4.636  10.106   8.466  0.6173 -2.2291  1.8440
  135MOL0     H18566   4.797  10.090   8.532  1.0169  1.6708  0.4369
  135MOL0     H18567   4.886  10.272   8.386 -1.3656 -0.9912 -3.6880
  135MOL0     H18568   4.740  10.293   8.303 -1.2437 -1.2032 -0.4468
  135MOL0     H18569   4.628  10.295   8.562 -0.2292 -1.7677 -0.6843
  135MOL0     H18570   4.791  10.340   8.594 -0.6280 -2.6954 -0.7613
  135MOL0     H18571   4.611  10.473   8.390  1.6551 -0.8967 -1.7709
  135MOL0     H18572   4.766  10.544   8.433  0.3594 -2.8894 -0.7397
  135MOL0     H18573   4.551  10.516   8.649 -0.7557  1.0771 -0.3912
  135MOL0     H18574   4.710  10.603   8.654  1.4642  2.1514 -1.4771
  135MOL0     H18575   4.445  10.678   8.494 -2.2828  0.8306  2.9364
  135MOL0     H18576   4.598  10.762   8.469 -1.1390  0.4878 -0.3905
  135MOL0     H18577   4.414  10.753   8.706  1.6516  0.1052  3.3745
  135MOL0     H18578   4.588  10.791   8.736 -0.6555  3.5444  1.4686
  135MOL0     H18579   4.295  10.898   8.492  2.4278 -1.6235 -2.9432
  135MOL0     H18580   4.196  11.123   8.427 -0.7431  1.4415  3.2524
  135MOL0     H18581   4.325  11.156   8.317 -1.4151 -0.7815  0.1516
  135MOL0     H18582   4.262  11.335   8.558 -1.1284  0.2960 -0.5583
  135MOL0     H18583   4.384  11.374   8.430  0.8019 -1.2147 -1.2403
  135MOL0     H18584   4.202  11.504   8.372 -0.5588  0.6107 -1.5719
  135MOL0     H18585   4.214  11.369   8.263  1.1251  0.6280  0.0478
  135MOL0     H18586   4.013  11.266   8.346 -4.0055  0.5727  0.9521
  135MOL0     H18587   4.022  11.345   8.504  1.2898 -0.9365  0.3755
  135MOL0     H18588   3.802  11.241   8.333  1.0393  0.2679  2.5253
  135MOL0     H18589   3.577  11.139   8.332  1.3492 -0.0483 -1.7609
  135MOL0     H18590   3.503  11.173   8.191 -0.6998 -1.0334  1.0143
  135MOL0     H18591   3.425  11.251   8.336 -0.5023 -0.4856  1.0516
  135MOL0     H18592   3.121  11.429   8.149  0.9473 -1.1764 -0.4515
  135MOL0     H18593   2.959  11.500   7.964 -0.1795 -1.0634 -0.6409
  135MOL0     H18594   3.081  11.682   7.621  1.0051 -0.6191 -2.5870
  135MOL0     H18595   3.100  11.537   7.529  1.0588 -0.6981  0.6433
  135MOL0     H18596   2.872  11.513   7.489 -0.5823  0.4195  0.7693
  135MOL0     H18597   2.822  11.640   7.610 -0.3107  0.0058  0.3404
  135MOL0     H18598   2.975  11.672   7.347  1.3489 -1.1926  0.3663
  135MOL0     H18599   2.945  11.797   7.473  0.0013 -2.4528  3.6868
  135MOL0     H18600   2.706  11.727   7.450 -0.7232 -2.7906  0.1871
  135MOL0     H18601   2.741  11.661   7.292  0.1151  1.4962 -0.3413
  135MOL0     H18602   2.706  11.931   7.368  1.7395  3.0242  0.1351
  135MOL0     H18603   2.861  11.922   7.286 -0.7880  0.8188  0.0252
  135MOL0     H18604   2.602  11.819   7.180 -0.8446  2.0790 -0.9782
  135MOL0     H18605   2.746  11.834   7.087 -1.7680 -3.3999 -1.5253
  135MOL0     H18606   2.729  12.096   7.179  0.2885 -1.2709  2.5133
  135MOL0     H18607   2.562  12.046   7.213 -0.1406 -0.0573  1.2422
  135MOL0     H18608   2.670  12.046   6.925 -1.0227 -0.5012 -1.0781
  135MOL0     H18609   2.565  12.170   6.996  0.2146  0.5313  1.2961
  135MOL0     H18610   3.274  11.465   7.679 -1.7094 -0.8757 -0.8787
  135MOL0     H18611   3.428  11.392   7.863 -0.5783  0.5688 -1.5035
  135MOL0     H18612   3.616  11.680   8.212  0.8041  1.3807  2.6148
  135MOL0     H18613   3.826  11.662   8.288 -4.3109  2.3093 -1.3710
  135MOL0     H18614   4.628   9.668   8.378  0.0960 -1.3013 -0.4490
  135MOL0     H18615   4.649   9.487   8.218 -2.3984  0.1708  0.0716
  135MOL0     H18616   4.742   9.495   7.757  1.3679  0.9470  0.5768
  135MOL0     H18617   4.715   9.417   7.536  0.2845  0.0444 -0.4002
  135MOL0     H18618   4.737   9.122   7.322  0.8614 -0.4516 -2.1694
  135MOL0     H18619   4.677   9.269   7.397  0.0496  1.2252  1.1206
  135MOL0     H18620   4.829   9.258   7.144 -1.1192 -0.1634 -0.4651
  135MOL0     H18621   4.812   9.410   7.241 -1.8610  1.3897 -2.3075
  135MOL0     H18622   4.553   9.359   7.243  1.4753 -0.6376  1.4111
  135MOL0     H18623   4.630   9.430   7.106  1.0364 -0.4001 -1.3520
  135MOL0     H18624   4.611   9.126   7.117  2.9496 -0.1701 -3.0505
  135MOL0     H18625   4.679   9.219   6.992  0.7304 -0.8720  0.3528
  135MOL0     H18626   4.289   9.241   6.859  0.1250  0.5141 -0.8160
  135MOL0     H18627   5.063   9.182   7.568 -0.6014  0.1196  0.1737
  135MOL0     H18628   5.194   9.352   7.840 -1.7740  0.5671  1.7650
  135MOL0     H18629   5.128   9.212   7.924 -0.8907 -2.2716 -1.2852
  135MOL0     H18630   5.189   9.174   7.778  0.7544 -1.2245  1.0568
  136MOL0     O18631   4.123   8.395   3.552 -0.2668  0.0942 -0.1540
  136MOL0     C18632   4.099   8.289   3.594  0.0501 -0.6339 -0.2328
  136MOL0     O18633   4.021   8.188   3.531  0.0360 -0.4932  0.0585
  136MOL0     C18634   3.963   8.202   3.416 -0.4799  0.2674  0.5164
  136MOL0     C18635   3.858   8.115   3.379  1.0914 -0.1058  0.8969
  136MOL0     C18636   3.776   8.132   3.269  1.2734 -0.5304 -0.4278
  136MOL0     C18637   3.803   8.235   3.176  0.2336  0.4561 -0.2605
  136MOL0     O18638   3.717   8.238   3.069 -0.3870 -0.6349 -0.3144
  136MOL0     C18639   3.765   8.297   2.942 -0.2483 -0.0560  0.2889
  136MOL0     C18640   3.714   8.213   2.818 -0.0723 -0.8616  0.2889
  136MOL0     C18641   3.788   8.234   2.681  0.2294 -0.1259 -0.4888
  136MOL0     C18642   3.745   8.369   2.620 -0.0340  0.3819  0.4983
  136MOL0     C18643   3.803   8.381   2.470  0.6960 -1.1671 -0.2418
  136MOL0     C18644   3.735   8.511   2.415 -0.0480  0.8020 -0.7967
  136MOL0     C18645   3.788   8.559   2.279 -0.5619 -0.1108  0.4251
  136MOL0     C18646   3.797   8.482   2.145 -0.1389  0.0519  0.4944
  136MOL0     N18647   3.668   8.421   2.108 -0.4345  0.1500  0.4523
  136MOL0     C18648   3.581   8.469   2.011 -0.9807  0.3131 -0.7364
  136MOL0     C18649   3.487   8.375   2.011 -0.0445  0.0476  0.0233
  136MOL0     C18650   3.365   8.376   1.918  0.0744  0.0597 -0.2414
  136MOL0     C18651   3.385   8.271   1.803 -0.2441  0.4569  0.7284
  136MOL0     C18652   3.264   8.263   1.715  0.6127 -1.0030 -0.1674
  136MOL0     C18653   3.256   8.126   1.653 -0.5379 -1.6969  0.2549
  136MOL0     O18654   3.372   8.095   1.579 -0.0767  0.0184  0.4977
  136MOL0     C18655   3.398   7.968   1.530 -0.4932 -0.0457 -0.4184
  136MOL0     C18656   3.314   7.859   1.571  1.2584 -0.1442  0.4789
  136MOL0     C18657   3.348   7.728   1.523  0.2896 -0.5707  0.1806
  136MOL0     C18658   3.244   7.624   1.554 -1.2188 -0.3677  0.1343
  136MOL0     C18659   3.465   7.707   1.447  0.0345 -0.0465 -0.1967
  136MOL0     C18660   3.493   7.576   1.387 -0.3740  0.1613  0.0054
  136MOL0     O18661   3.496   7.467   1.468 -0.0829  0.0578 -0.3736
  136MOL0     C18662   3.494   7.335   1.417  0.7412 -0.2245  0.5906
  136MOL0     C18663   3.382   7.263   1.370  0.2550  0.1413 -0.4762
  136MOL0     C18664   3.386   7.131   1.324 -0.0336 -0.0008  0.0116
  136MOL0     C18665   3.506   7.057   1.323  0.1499 -0.4209  0.5292
  136MOL0     O18666   3.526   6.935   1.261 -0.3227 -0.1096 -0.0694
  136MOL0     C18667   3.443   6.836   1.325  0.3193  0.3443  0.0415
  136MOL0     C18668   3.476   6.702   1.260 -1.1281 -0.5469 -0.3029
  136MOL0     C18669   3.624   6.670   1.274  0.8487  0.4504 -0.4973
  136MOL0     C18670   3.666   6.537   1.199 -0.2031  0.5283  0.1363
  136MOL0     C18671   3.817   6.530   1.199  0.5648 -0.7750 -0.1661
  136MOL0     C18672   3.878   6.414   1.133  0.7672  0.0636 -0.7472
  136MOL0     C18673   4.030   6.399   1.163  0.0980 -0.7260  0.5196
  136MOL0     C18674   4.084   6.263   1.121  0.6557 -0.3162 -0.8568
  136MOL0    Cl18675   4.104   6.242   0.943  0.5049  0.6776  0.1230
  136MOL0     C18676   3.615   7.118   1.378 -0.3071  0.7881 -0.5348
  136MOL0     C18677   3.609   7.256   1.425  0.4855  0.1052 -1.2734
  136MOL0     O18678   3.506   7.572   1.266  0.1282  0.1624 -0.3840
  136MOL0     C18679   3.549   7.815   1.419 -1.1554  0.1979  0.4432
  136MOL0     C18680   3.514   7.946   1.457 -0.6372  0.9035 -0.3350
  136MOL0     N18681   3.508   8.289   2.118 -0.2476 -0.0858  0.4408
  136MOL0     N18682   3.621   8.310   2.172  1.2921 -0.5423 -0.5578
  136MOL0     C18683   3.920   8.311   3.195 -0.4143  0.3684 -0.0822
  136MOL0     C18684   3.994   8.288   3.318 -0.0764  0.3272  0.6701
  136MOL0     C18685   4.148   8.261   3.728  0.1462 -0.4932  0.1616
  136MOL0     C18686   4.266   8.321   3.774 -0.5631  0.0252 -0.6217
  136MOL0     C18687   4.317   8.297   3.904  0.5535  0.5259 -0.6610
  136MOL0     C18688   4.251   8.209   3.986  0.0238  0.1057  0.5183
  136MOL0     O18689   4.293   8.184   4.112  0.3525 -0.3245 -0.4980
  136MOL0     C18690   4.432   8.138   4.116  0.9072 -0.4335  0.9413
  136MOL0     C18691   4.452   8.043   4.240 -0.3510 -0.0932 -0.4421
  136MOL0     C18692   4.460   8.117   4.370  0.0271 -0.0129  0.6892
  136MOL0     C18693   4.598   8.170   4.413  0.1387  0.3111  0.8666
  136MOL0     C18694   4.691   8.214   4.308 -0.6078  0.1672  0.5747
  136MOL0     C18695   4.767   8.230   4.219 -0.4362 -0.7249 -0.3482
  136MOL0     C18696   4.134   8.141   3.941  0.0121  0.1059  0.2302
  136MOL0     C18697   4.076   8.172   3.818  0.1398 -0.6026  0.9856
  136MOL0     C18698   3.949   8.107   3.785 -0.1649  0.0416  0.2497
  136MOL0     H18699   3.834   8.034   3.447  1.7234  0.8372  2.2815
  136MOL0     H18700   3.699   8.057   3.249 -1.3907  1.6964  0.7631
  136MOL0     H18701   3.874   8.296   2.942 -0.0953 -0.9096 -4.0593
  136MOL0     H18702   3.720   8.396   2.936  2.6526  1.7200  3.9706
  136MOL0     H18703   3.730   8.109   2.848  2.0261 -1.0786 -1.3511
  136MOL0     H18704   3.605   8.225   2.814  0.1620  1.3553 -1.1245
  136MOL0     H18705   3.896   8.242   2.698  0.1126  4.3832 -0.5812
  136MOL0     H18706   3.766   8.149   2.617 -0.0807 -0.9867  0.7219
  136MOL0     H18707   3.636   8.377   2.624 -0.3291 -0.9411 -2.3523
  136MOL0     H18708   3.792   8.445   2.682  0.7475  0.4326 -0.1279
  136MOL0     H18709   3.767   8.295   2.413 -3.9834 -0.7673  1.6696
  136MOL0     H18710   3.909   8.395   2.451  0.1453 -0.8313 -3.5717
  136MOL0     H18711   3.627   8.493   2.418 -0.1007  1.0227  3.0484
  136MOL0     H18712   3.764   8.583   2.491  2.7278 -0.8967 -0.1049
  136MOL0     H18713   3.896   8.561   2.300 -0.1611 -2.7307 -0.9068
  136MOL0     H18714   3.757   8.661   2.255 -1.2775 -0.9294 -2.6510
  136MOL0     H18715   3.837   8.540   2.061  1.3506  0.0650  1.1863
  136MOL0     H18716   3.877   8.408   2.147 -0.9575 -0.8330  1.3300
  136MOL0     H18717   3.600   8.531   1.924  1.7461  0.6783  0.0258
  136MOL0     H18718   3.330   8.470   1.875 -2.0265 -0.9543 -0.8439
  136MOL0     H18719   3.288   8.323   1.974 -0.3771 -2.5005 -3.0611
  136MOL0     H18720   3.477   8.299   1.752  0.2815 -1.1083  0.7743
  136MOL0     H18721   3.395   8.180   1.864  2.0394  0.7021  0.8045
  136MOL0     H18722   3.173   8.287   1.770  1.4903 -2.3859  2.0108
  136MOL0     H18723   3.264   8.347   1.645 -1.4454 -1.0218 -0.2530
  136MOL0     H18724   3.251   8.051   1.732 -1.9682  0.4820  2.3682
  136MOL0     H18725   3.172   8.119   1.583  0.1317 -0.3747 -0.7269
  136MOL0     H18726   3.229   7.863   1.638 -1.4036 -0.7230 -2.6132
  136MOL0     H18727   3.148   7.672   1.574 -1.7011 -0.0007 -2.7489
  136MOL0     H18728   3.287   7.570   1.639  0.3180  0.0769 -0.3259
  136MOL0     H18729   3.222   7.560   1.469 -2.9152 -0.9343  0.9555
  136MOL0     H18730   3.283   7.307   1.374  0.5309  0.6602  2.3838
  136MOL0     H18731   3.295   7.082   1.292 -0.0400 -0.9400  1.3858
  136MOL0     H18732   3.475   6.830   1.429  1.3073  0.6942 -0.2300
  136MOL0     H18733   3.335   6.850   1.322 -0.1420 -2.5855  0.5863
  136MOL0     H18734   3.423   6.626   1.318  0.1786 -0.1788  1.4906
  136MOL0     H18735   3.447   6.698   1.155 -1.3597 -3.7255 -0.2262
  136MOL0     H18736   3.650   6.662   1.380 -1.8570  1.4099  0.3280
  136MOL0     H18737   3.688   6.752   1.238  3.8505 -0.2395  2.7498
  136MOL0     H18738   3.639   6.532   1.093  1.7121  3.6883 -0.6212
  136MOL0     H18739   3.624   6.447   1.246  2.0224  0.2669  1.7894
  136MOL0     H18740   3.856   6.623   1.155  1.9074 -1.0093  0.4765
  136MOL0     H18741   3.849   6.532   1.304 -0.2612 -1.5023  0.1188
  136MOL0     H18742   3.847   6.430   1.030 -4.4669 -2.8502  0.0112
  136MOL0     H18743   3.825   6.324   1.164 -1.0473  2.0735  2.5097
  136MOL0     H18744   4.065   6.402   1.267  2.5154 -2.9963 -0.0996
  136MOL0     H18745   4.080   6.480   1.108  4.5200 -2.9832  0.7614
  136MOL0     H18746   4.030   6.178   1.164  0.8779 -2.5762 -4.5797
  136MOL0     H18747   4.179   6.248   1.172 -1.4621 -2.7647  2.9165
  136MOL0     H18748   3.702   7.054   1.370 -1.7988 -1.4018  0.0089
  136MOL0     H18749   3.707   7.293   1.454 -0.1241  3.6284 -3.1071
  136MOL0     H18750   3.637   7.797   1.358 -1.8515  1.1784 -0.8893
  136MOL0     H18751   3.563   8.039   1.429 -5.1515  3.1348 -1.8550
  136MOL0     H18752   3.951   8.382   3.119 -2.0793  0.1654 -1.0023
  136MOL0     H18753   4.083   8.350   3.325 -0.3909  1.3392 -2.6130
  136MOL0     H18754   4.332   8.396   3.732  1.6834  0.9871  3.9957
  136MOL0     H18755   4.408   8.346   3.939 -0.5528  0.8347  2.0232
  136MOL0     H18756   4.449   8.072   4.030 -2.8526  0.5872 -0.7822
  136MOL0     H18757   4.511   8.212   4.101  0.2983  0.1218  0.4010
  136MOL0     H18758   4.540   7.980   4.226 -1.0304 -1.2100  0.1721
  136MOL0     H18759   4.366   7.976   4.236 -0.7706  0.4799 -2.0829
  136MOL0     H18760   4.406   8.212   4.356  1.2052  0.5206 -0.3762
  136MOL0     H18761   4.417   8.062   4.454 -0.1255 -0.3427  0.3969
  136MOL0     H18762   4.645   8.095   4.478  1.6466  1.4812  1.1844
  136MOL0     H18763   4.579   8.252   4.482 -1.4104 -0.7874  1.8057
  136MOL0     H18764   4.820   8.257   4.130 -0.1077  2.4442  0.6828
  136MOL0     H18765   4.088   8.071   4.011 -2.0255  1.5391  0.4172
  136MOL0     H18766   3.895   8.085   3.878  0.5421 -0.7916  0.4674
  136MOL0     H18767   3.881   8.178   3.737  0.7619  0.3021 -0.6948
  136MOL0     H18768   3.962   8.020   3.721 -0.9533  1.4914 -2.0014
  137MOL0     O18769   9.067   1.527   7.645  0.2228  0.7528  0.0077
  137MOL0     C18770   9.091   1.481   7.753 -0.3937 -0.2251  0.0819
  137MOL0     O18771   9.003   1.481   7.860 -0.6107 -0.0693  0.4778
  137MOL0     C18772   8.878   1.506   7.820  0.6382 -0.2092 -0.4264
  137MOL0     C18773   8.820   1.412   7.736  0.2982  0.7292  0.2457
  137MOL0     C18774   8.689   1.442   7.680  0.3523 -0.4137 -0.2739
  137MOL0     C18775   8.627   1.560   7.718  0.8469 -0.0442  0.3774
  137MOL0     O18776   8.506   1.594   7.661 -0.0754 -0.9112 -0.3724
  137MOL0     C18777   8.466   1.528   7.541 -0.0904  0.4441 -0.0991
  137MOL0     C18778   8.327   1.582   7.499 -0.1146 -0.1087  0.0838
  137MOL0     C18779   8.305   1.529   7.365 -0.3471 -0.1559 -0.7626
  137MOL0     C18780   8.182   1.575   7.294  0.2339  0.1570  0.0251
  137MOL0     C18781   8.158   1.478   7.176 -0.4680 -0.6948 -0.0968
  137MOL0     C18782   8.079   1.535   7.062 -0.8639 -0.0635  0.1958
  137MOL0     C18783   7.931   1.543   7.086 -0.2450  0.2883 -0.1568
  137MOL0     C18784   7.854   1.576   6.957  0.4392 -0.4445 -0.1917
  137MOL0     N18785   7.747   1.668   6.989  0.6358 -0.5624 -0.7181
  137MOL0     C18786   7.641   1.648   7.082  0.6967  0.2569  0.0169
  137MOL0     C18787   7.575   1.768   7.092 -0.3572  0.0157 -0.0429
  137MOL0     C18788   7.454   1.817   7.163 -0.4144  0.0337 -0.4489
  137MOL0     C18789   7.514   1.904   7.271  0.0195 -0.0809 -0.0247
  137MOL0     C18790   7.415   1.994   7.353 -0.5700  0.2287  0.5000
  137MOL0     C18791   7.281   1.931   7.409 -0.0539 -0.4764  0.6069
  137MOL0     O18792   7.280   1.960   7.548 -0.2960 -0.0285 -0.1982
  137MOL0     C18793   7.211   2.067   7.599 -0.4613 -0.0584 -0.3142
  137MOL0     C18794   7.231   2.109   7.725  0.4802 -0.3762  0.2043
  137MOL0     C18795   7.173   2.225   7.783  0.3373  0.1179 -1.0374
  137MOL0     C18796   7.213   2.264   7.921  0.3602 -0.6478  0.5795
  137MOL0     C18797   7.094   2.309   7.695 -0.8272  0.2364 -0.3993
  137MOL0     C18798   7.030   2.436   7.733 -0.2799 -0.6749  0.8325
  137MOL0     O18799   6.915   2.473   7.663 -0.9457 -0.1688 -0.0450
  137MOL0     C18800   6.852   2.593   7.687 -0.1240  0.2859 -0.1591
  137MOL0     C18801   6.723   2.596   7.751  0.1964 -0.2322 -0.8587
  137MOL0     C18802   6.669   2.723   7.777 -0.5330  0.1679  0.4181
  137MOL0     C18803   6.743   2.841   7.744  0.1340 -0.2403  0.0486
  137MOL0     O18804   6.683   2.957   7.776  0.2531  0.7382  0.1198
  137MOL0     C18805   6.753   3.082   7.771 -0.3256  0.1482  0.5938
  137MOL0     C18806   6.665   3.182   7.837  1.0397  0.1400 -0.4567
  137MOL0     C18807   6.725   3.314   7.854 -0.2877  0.1462  0.0620
  137MOL0     C18808   6.686   3.408   7.733  0.1318 -0.5335 -0.1762
  137MOL0     C18809   6.793   3.521   7.721  0.1964 -0.4958 -0.5957
  137MOL0     C18810   6.733   3.632   7.630  0.5544  0.1108  0.6888
  137MOL0     C18811   6.708   3.590   7.481 -0.5453  0.3819  0.3575
  137MOL0     C18812   6.633   3.698   7.401 -0.3490  0.6714  0.5675
  137MOL0    Cl18813   6.727   3.848   7.376 -0.4858  0.6510 -0.3454
  137MOL0     C18814   6.861   2.839   7.683  0.3764 -0.5755  0.9047
  137MOL0     C18815   6.923   2.716   7.659  0.4681  0.1001  0.4986
  137MOL0     O18816   7.089   2.503   7.820  0.6237 -0.6996  0.1918
  137MOL0     C18817   7.066   2.263   7.569  0.5162 -0.9348 -0.6538
  137MOL0     C18818   7.127   2.148   7.521 -0.0300  0.5261 -0.2508
  137MOL0     N18819   7.635   1.853   6.993 -0.2707 -0.9215  0.0332
  137MOL0     N18820   7.748   1.805   6.949 -0.3155 -0.3404  0.3457
  137MOL0     C18821   8.690   1.656   7.803 -0.3870 -0.3797  0.5364
  137MOL0     C18822   8.819   1.627   7.854 -1.0060  0.1057 -0.3188
  137MOL0     C18823   9.233   1.443   7.773 -0.3038 -0.7144  0.7612
  137MOL0     C18824   9.328   1.471   7.672 -0.1303  0.1186 -0.3858
  137MOL0     C18825   9.460   1.435   7.686 -0.1931  0.8285 -0.5648
  137MOL0     C18826   9.510   1.355   7.788  0.0673 -0.4577 -0.3990
  137MOL0     O18827   9.644   1.320   7.810  0.6888  0.1749 -0.1036
  137MOL0     C18828   9.748   1.376   7.727 -0.1549  0.2712 -0.0351
  137MOL0     C18829   9.769   1.288   7.610 -0.5110 -0.5982  0.7984
  137MOL0     C18830   9.867   1.170   7.629 -0.3379  0.1397 -0.7803
  137MOL0     C18831   9.902   1.109   7.491 -0.2438  0.1347  0.3569
  137MOL0     C18832   9.986   0.987   7.524  0.1345 -0.3223  0.2754
  137MOL0     C18833  10.028   0.878   7.532 -0.4999 -0.3171 -0.2224
  137MOL0     C18834   9.413   1.315   7.877 -0.6900  1.1745 -0.8407
  137MOL0     C18835   9.280   1.362   7.875 -0.2904 -0.2050  0.0912
  137MOL0     C18836   9.198   1.297   7.977 -0.3716 -0.0866 -0.6817
  137MOL0     H18837   8.879   1.325   7.709  0.3867  0.2405  1.9190
  137MOL0     H18838   8.644   1.362   7.621 -1.3722 -0.7188  1.3528
  137MOL0     H18839   8.449   1.420   7.552 -2.6088  0.8183  0.4001
  137MOL0     H18840   8.545   1.541   7.467  0.2606  0.8967  0.3464
  137MOL0     H18841   8.248   1.545   7.565 -2.0219 -0.1111 -2.0834
  137MOL0     H18842   8.308   1.690   7.499 -2.7965 -0.4573 -2.3193
  137MOL0     H18843   8.386   1.564   7.300  0.9528 -1.6224 -0.0084
  137MOL0     H18844   8.311   1.421   7.377  2.9044  0.0804  1.1025
  137MOL0     H18845   8.097   1.561   7.362 -0.8255 -0.5951 -1.4109
  137MOL0     H18846   8.187   1.677   7.256 -1.9302  0.8340  1.3819
  137MOL0     H18847   8.124   1.377   7.203 -0.4354 -1.3514 -2.2773
  137MOL0     H18848   8.255   1.456   7.131 -0.3840 -1.8856  0.6057
  137MOL0     H18849   8.118   1.630   7.023 -0.4953 -0.0840  0.5076
  137MOL0     H18850   8.095   1.464   6.980 -1.7306  0.2220 -0.2380
  137MOL0     H18851   7.909   1.622   7.159 -1.0180  0.6425 -0.7610
  137MOL0     H18852   7.888   1.453   7.131 -0.7866  0.2736 -0.6961
  137MOL0     H18853   7.919   1.613   6.878  3.6219 -2.8578  1.0542
  137MOL0     H18854   7.813   1.484   6.914  1.5979  1.0606 -5.1169
  137MOL0     H18855   7.608   1.559   7.133 -1.9980  1.4641  0.5465
  137MOL0     H18856   7.395   1.729   7.192 -0.9367  1.4173  3.1057
  137MOL0     H18857   7.398   1.894   7.109  1.7368  0.7771 -1.7836
  137MOL0     H18858   7.562   1.843   7.348 -0.2546 -0.4969 -0.1769
  137MOL0     H18859   7.594   1.961   7.223  0.4844 -0.7414 -0.0446
  137MOL0     H18860   7.469   2.037   7.438 -3.3474  0.7431  2.1204
  137MOL0     H18861   7.394   2.084   7.293  0.6690 -0.7700 -1.5391
  137MOL0     H18862   7.193   1.946   7.346  0.0632 -0.7565  0.3726
  137MOL0     H18863   7.292   1.823   7.403  0.0654 -0.4157 -0.7879
  137MOL0     H18864   7.298   2.046   7.783  0.2826 -0.3804  0.4263
  137MOL0     H18865   7.132   2.314   7.974 -1.3392  0.5655 -2.8466
  137MOL0     H18866   7.285   2.346   7.909  1.1698 -1.5167 -0.7613
  137MOL0     H18867   7.272   2.190   7.976  0.9658  0.0692  0.9166
  137MOL0     H18868   6.664   2.505   7.764 -1.4259  0.8095 -0.6001
  137MOL0     H18869   6.572   2.735   7.825 -2.3223  0.8838 -3.0546
  137MOL0     H18870   6.850   3.075   7.820  0.4165  1.4294 -0.6184
  137MOL0     H18871   6.769   3.105   7.666 -0.1428 -0.0816  0.5714
  137MOL0     H18872   6.568   3.188   7.787 -0.0452  0.6523  1.6003
  137MOL0     H18873   6.645   3.148   7.939 -2.6133 -2.6882 -1.8841
  137MOL0     H18874   6.833   3.298   7.854 -0.1744  0.0435 -3.3856
  137MOL0     H18875   6.686   3.341   7.952 -0.4903 -1.7160  0.5225
  137MOL0     H18876   6.585   3.445   7.753  0.5597 -0.8515  3.2231
  137MOL0     H18877   6.681   3.352   7.640 -0.0935 -0.6631 -0.0868
  137MOL0     H18878   6.813   3.564   7.819 -3.1424 -0.8470  0.3718
  137MOL0     H18879   6.886   3.479   7.682  1.3365  1.5725 -0.2219
  137MOL0     H18880   6.807   3.712   7.630 -0.2277  0.9410 -2.3319
  137MOL0     H18881   6.637   3.667   7.670 -0.8618 -0.1883 -2.1594
  137MOL0     H18882   6.645   3.501   7.482  1.6624 -1.3791  4.4491
  137MOL0     H18883   6.808   3.579   7.438 -0.7247  2.7506 -0.8508
  137MOL0     H18884   6.542   3.728   7.455 -0.7365  0.7716 -0.1318
  137MOL0     H18885   6.586   3.657   7.311  2.0716 -0.0422 -0.4356
  137MOL0     H18886   6.912   2.931   7.659  1.3705 -1.4359 -0.4069
  137MOL0     H18887   7.014   2.706   7.601 -0.5432 -0.3508 -1.0735
  137MOL0     H18888   6.993   2.316   7.508 -1.2975 -1.1427  1.2178
  137MOL0     H18889   7.087   2.125   7.423 -1.4808 -0.5423  0.5539
  137MOL0     H18890   8.637   1.748   7.823  1.3599  0.6876  0.4500
  137MOL0     H18891   8.877   1.701   7.907 -0.8132 -0.4397  0.2493
  137MOL0     H18892   9.292   1.517   7.580  1.4940 -1.0829 -1.6871
  137MOL0     H18893   9.519   1.452   7.597 -1.7307  1.2146 -1.5453
  137MOL0     H18894   9.744   1.482   7.698  3.6231 -0.0092 -2.0837
  137MOL0     H18895   9.834   1.388   7.793 -2.5661  0.6072  3.3333
  137MOL0     H18896   9.807   1.353   7.531 -0.8499 -0.6113  0.6198
  137MOL0     H18897   9.670   1.252   7.579  0.3377 -1.2425 -1.3855
  137MOL0     H18898   9.954   1.202   7.687 -1.4205 -1.5016  1.9088
  137MOL0     H18899   9.814   1.091   7.682  0.9157  0.0670  0.4490
  137MOL0     H18900   9.957   1.169   7.418  1.1154 -2.3069 -0.7569
  137MOL0     H18901   9.815   1.070   7.437  0.6643  2.1667 -2.9007
  137MOL0     H18902  10.076   0.782   7.529  2.9577  1.2351  0.5749
  137MOL0     H18903   9.456   1.244   7.948  0.9584  0.4524 -2.4877
  137MOL0     H18904   9.254   1.246   8.056  2.9615  1.1698 -2.0299
  137MOL0     H18905   9.129   1.362   8.032 -2.8027 -2.9840 -0.0694
  137MOL0     H18906   9.133   1.222   7.933 -0.6141 -1.2577  1.5338
  138MOL0     O18907   8.707   8.242   2.781  0.0742 -0.5713  0.2987
  138MOL0     C18908   8.637   8.157   2.835 -0.4530  0.6143  0.4888
  138MOL0     O18909   8.615   8.146   2.964  0.0091  0.1083 -0.3881
  138MOL0     C18910   8.612   8.254   3.050 -0.3125  0.0600 -0.8445
  138MOL0     C18911   8.521   8.356   3.045  0.6294  0.7458  0.7117
  138MOL0     C18912   8.497   8.444   3.155 -0.8699 -0.1692 -0.4814
  138MOL0     C18913   8.571   8.427   3.270 -1.5046 -0.2812  0.5440
  138MOL0     O18914   8.570   8.507   3.381 -0.9459  0.1031  0.5639
  138MOL0     C18915   8.470   8.610   3.379 -0.4647  0.2154 -0.4590
  138MOL0     C18916   8.494   8.682   3.519 -0.0557  0.3300  0.1478
  138MOL0     C18917   8.624   8.752   3.525 -0.5793  0.6899 -1.5034
  138MOL0     C18918   8.622   8.813   3.666  0.2481 -0.9745 -0.0485
  138MOL0     C18919   8.757   8.881   3.684  0.1733  0.1381 -0.2356
  138MOL0     C18920   8.775   9.018   3.614  0.3790  0.1989 -0.2739
  138MOL0     C18921   8.878   9.110   3.676 -0.3466  0.1920 -0.3329
  138MOL0     C18922   9.020   9.101   3.611  0.2239  0.6735 -0.1594
  138MOL0     N18923   9.129   9.061   3.709  0.2299  0.2275 -0.2985
  138MOL0     C18924   9.196   9.145   3.788  0.4078  0.4797 -0.2201
  138MOL0     C18925   9.282   9.057   3.858 -0.2105 -0.2555  0.8045
  138MOL0     C18926   9.382   9.080   3.969 -0.2911 -1.0419  1.1340
  138MOL0     C18927   9.323   9.152   4.088 -0.3450 -0.1841 -0.0263
  138MOL0     C18928   9.355   9.303   4.091 -0.1859 -0.1075  0.4348
  138MOL0     C18929   9.317   9.373   4.223  0.6888 -0.6365  0.5495
  138MOL0     O18930   9.394   9.321   4.327  0.6907 -1.0231  1.4105
  138MOL0     C18931   9.401   9.381   4.449  0.6121  0.1191  0.1759
  138MOL0     C18932   9.317   9.494   4.481  0.6747 -0.8360 -0.4529
  138MOL0     C18933   9.314   9.553   4.609 -0.0938  0.6394 -0.0059
  138MOL0     C18934   9.212   9.672   4.634 -0.3679  0.2726  0.3144
  138MOL0     C18935   9.396   9.494   4.716  0.1508 -0.3213  0.0639
  138MOL0     C18936   9.418   9.554   4.847  0.6904 -0.7173  0.7778
  138MOL0     O18937   9.425   9.688   4.845 -0.4917 -0.6638  0.7723
  138MOL0     C18938   9.437   9.773   4.953  0.1073 -0.1946  0.3622
  138MOL0     C18939   9.362   9.758   5.066 -0.9899  0.6238 -1.5039
  138MOL0     C18940   9.357   9.859   5.167  0.0263  0.2043 -0.8568
  138MOL0     C18941   9.412   9.989   5.149  0.4069 -0.0959 -0.9291
  138MOL0     O18942   9.413  10.090   5.237 -0.4401 -0.4143 -0.2668
  138MOL0     C18943   9.391  10.090   5.377  0.6364  0.0206 -0.2176
  138MOL0     C18944   9.382  10.229   5.430  0.4417  0.6873  0.4802
  138MOL0     C18945   9.523  10.293   5.414 -0.6197 -0.5299  0.0362
  138MOL0     C18946   9.653  10.223   5.460  0.3354 -0.4265  0.4591
  138MOL0     C18947   9.773  10.309   5.406  0.9361  0.1690  0.6022
  138MOL0     C18948   9.829  10.412   5.516 -0.1079  0.0726  1.7939
  138MOL0     C18949   9.969  10.444   5.464  0.0428 -1.2398  0.0420
  138MOL0     C18950   9.974  10.541   5.352 -1.0575 -0.9862  0.2177
  138MOL0    Cl18951   9.850  10.675   5.364  0.5080  0.1063 -0.5531
  138MOL0     C18952   9.489  10.009   5.036 -1.1659  0.1490 -0.4665
  138MOL0     C18953   9.508   9.898   4.941  0.2573 -0.4979 -0.0805
  138MOL0     O18954   9.424   9.492   4.945 -0.0554  0.5888  0.7578
  138MOL0     C18955   9.472   9.375   4.681  0.0995  0.1776  0.4061
  138MOL0     C18956   9.475   9.325   4.553  0.7533 -0.0940  0.7541
  138MOL0     N18957   9.273   8.935   3.804 -0.2908 -0.1692  0.7577
  138MOL0     N18958   9.174   8.934   3.721 -0.5051  0.0002  0.3992
  138MOL0     C18959   8.676   8.341   3.270  0.8800  0.1775  0.9120
  138MOL0     C18960   8.695   8.254   3.163 -0.4270 -0.0872  0.0923
  138MOL0     C18961   8.580   8.040   2.755 -0.4075  0.1969 -0.0935
  138MOL0     C18962   8.576   8.071   2.613  0.0951 -0.7802  0.5447
  138MOL0     C18963   8.537   7.973   2.529  0.2554 -0.5237 -0.0654
  138MOL0     C18964   8.480   7.851   2.572  0.6908  0.0783 -0.6940
  138MOL0     O18965   8.439   7.753   2.484 -0.4059  0.0919 -1.1034
  138MOL0     C18966   8.378   7.627   2.529  0.7016 -0.2014 -0.4171
  138MOL0     C18967   8.479   7.514   2.561  0.4591  0.7122  0.3333
  138MOL0     C18968   8.540   7.442   2.432  0.4746  0.3553 -0.4038
  138MOL0     C18969   8.593   7.304   2.478 -0.3988  0.1670  0.1291
  138MOL0     C18970   8.672   7.302   2.603  1.0132  0.4298  0.3102
  138MOL0     C18971   8.756   7.293   2.686 -0.4621 -0.0018 -0.6240
  138MOL0     C18972   8.484   7.828   2.709  0.1472 -0.0098 -0.1611
  138MOL0     C18973   8.533   7.918   2.805  0.6350  0.3270 -0.2988
  138MOL0     C18974   8.537   7.885   2.948  0.0709  0.3357 -0.5484
  138MOL0     H18975   8.468   8.368   2.951  0.5430  1.4598  0.8419
  138MOL0     H18976   8.422   8.520   3.139 -0.2768 -0.0117 -2.8569
  138MOL0     H18977   8.369   8.568   3.377  0.0668 -1.0975 -0.6604
  138MOL0     H18978   8.492   8.690   3.307 -0.6090  0.2217 -0.4971
  138MOL0     H18979   8.407   8.748   3.528 -1.9657 -1.9338 -0.5602
  138MOL0     H18980   8.479   8.610   3.600 -2.1386  1.3127  0.7103
  138MOL0     H18981   8.706   8.680   3.513 -0.1223  0.5654  1.4293
  138MOL0     H18982   8.622   8.826   3.445 -0.3039 -0.8652 -3.0240
  138MOL0     H18983   8.544   8.889   3.671  0.6270 -0.5461 -0.5404
  138MOL0     H18984   8.619   8.739   3.747  0.7938 -0.4953  0.4199
  138MOL0     H18985   8.836   8.812   3.653  0.0296 -0.3463  0.4558
  138MOL0     H18986   8.777   8.896   3.791 -1.4501 -3.0320  0.6390
  138MOL0     H18987   8.795   8.992   3.510 -0.0828  0.2710 -0.3816
  138MOL0     H18988   8.683   9.078   3.615  0.5877  0.5289  0.2377
  138MOL0     H18989   8.880   9.099   3.785 -1.8969 -2.0633 -0.4638
  138MOL0     H18990   8.846   9.214   3.666  0.5786  0.9353  3.0502
  138MOL0     H18991   9.031   9.042   3.519  0.1659 -1.5338  1.1925
  138MOL0     H18992   9.045   9.203   3.577 -2.4263  1.2084 -0.7286
  138MOL0     H18993   9.174   9.252   3.786  2.6418  0.9926 -0.7697
  138MOL0     H18994   9.471   9.137   3.940 -1.8113  0.0025 -2.0016
  138MOL0     H18995   9.439   8.989   3.989  2.3999 -0.1277 -1.4951
  138MOL0     H18996   9.214   9.154   4.079 -0.2508  0.5355 -1.3958
  138MOL0     H18997   9.354   9.096   4.176  0.9764  3.6314  2.1626
  138MOL0     H18998   9.463   9.319   4.082 -0.2024  0.2187  0.7873
  138MOL0     H18999   9.292   9.354   4.017 -0.3715 -3.7036 -2.1335
  138MOL0     H19000   9.340   9.478   4.205  2.8427 -1.0654  0.4941
  138MOL0     H19001   9.211   9.356   4.241  0.5425  1.2912  1.7693
  138MOL0     H19002   9.251   9.540   4.408  0.1668  0.9372  1.0455
  138MOL0     H19003   9.243   9.768   4.592 -2.2851  0.8665  0.1656
  138MOL0     H19004   9.199   9.687   4.742  0.3871 -1.0417  0.6162
  138MOL0     H19005   9.114   9.657   4.588 -0.3557 -1.0028  0.6668
  138MOL0     H19006   9.311   9.667   5.096  1.8505 -0.2649  1.1569
  138MOL0     H19007   9.329   9.836   5.269  1.0521 -3.3082 -1.2255
  138MOL0     H19008   9.304  10.027   5.398  2.8708 -2.4957  2.5182
  138MOL0     H19009   9.473  10.038   5.427  0.4535 -0.5062 -0.4535
  138MOL0     H19010   9.303  10.285   5.378 -0.2637 -1.7280 -1.2502
  138MOL0     H19011   9.361  10.238   5.537 -0.4607  1.3764  0.2645
  138MOL0     H19012   9.530  10.387   5.470  2.9513 -1.7095  1.8904
  138MOL0     H19013   9.540  10.319   5.309  0.0846 -2.5400 -0.3973
  138MOL0     H19014   9.665  10.132   5.400  0.3042 -1.2910  1.7449
  138MOL0     H19015   9.661  10.201   5.566  1.2109  0.4314  0.5786
  138MOL0     H19016   9.860  10.246   5.387  1.7816  1.1396  1.1305
  138MOL0     H19017   9.748  10.367   5.316  0.2165 -0.6987  0.2243
  138MOL0     H19018   9.832  10.363   5.614 -4.6794 -1.2416  1.4788
  138MOL0     H19019   9.776  10.507   5.526  1.8262  1.7586 -1.7505
  138MOL0     H19020  10.039  10.363   5.441  2.3818  1.5137 -3.5915
  138MOL0     H19021  10.020  10.492   5.548 -0.2937 -0.6586 -0.0824
  138MOL0     H19022   9.958  10.488   5.258  1.6055 -1.5887  0.0301
  138MOL0     H19023  10.072  10.589   5.342 -0.6176 -1.9851 -0.4832
  138MOL0     H19024   9.536  10.105   5.017  0.1808  0.0573  1.9687
  138MOL0     H19025   9.559   9.921   4.849 -2.6330 -2.7095 -2.4417
  138MOL0     H19026   9.518   9.328   4.767  0.7883  1.3375  0.6939
  138MOL0     H19027   9.538   9.238   4.537  1.2538  0.4100 -0.1093
  138MOL0     H19028   8.738   8.323   3.357  2.2973 -0.2037 -0.1293
  138MOL0     H19029   8.781   8.189   3.150 -2.3364 -2.3690 -2.2269
  138MOL0     H19030   8.609   8.166   2.574 -1.5114 -0.5519 -0.3557
  138MOL0     H19031   8.549   7.985   2.422  2.2317 -3.0628 -0.2426
  138MOL0     H19032   8.306   7.647   2.609  3.0970  0.7780  1.6335
  138MOL0     H19033   8.328   7.604   2.434  2.0071  1.2035 -1.4871
  138MOL0     H19034   8.422   7.441   2.619  0.8105 -1.2631 -1.6819
  138MOL0     H19035   8.561   7.555   2.621 -0.7558  3.9407 -0.0164
  138MOL0     H19036   8.459   7.428   2.360 -2.7337  2.1717  2.5222
  138MOL0     H19037   8.621   7.500   2.387  1.2746 -0.3506  0.0848
  138MOL0     H19038   8.664   7.264   2.405 -0.0186  0.8285  0.1309
  138MOL0     H19039   8.504   7.241   2.487 -1.4911  1.9082  2.5366
  138MOL0     H19040   8.842   7.287   2.751  0.8476  0.7472 -2.1974
  138MOL0     H19041   8.439   7.740   2.755 -1.6425  1.1202  0.3172
  138MOL0     H19042   8.458   7.936   3.004 -2.2090 -4.1865  0.8186
  138MOL0     H19043   8.521   7.778   2.958 -2.4493  0.7400  0.3630
  138MOL0     H19044   8.628   7.906   3.006 -0.3088  1.5166 -0.3334
  139MOL0     O19045   2.828  10.882   8.137 -0.6340  0.5086  0.9543
  139MOL0     C19046   2.824  10.858   8.017  0.1166 -0.5235 -0.1228
  139MOL0     O19047   2.824  10.733   7.961 -0.6057  0.4556  0.5049
  139MOL0     C19048   2.877  10.632   8.038  1.3474  0.6387  0.1238
  139MOL0     C19049   2.998  10.575   8.003 -0.6939 -0.5538 -1.1017
  139MOL0     C19050   3.055  10.479   8.094 -0.4756 -1.0783  0.8934
  139MOL0     C19051   2.986  10.428   8.204  0.3927 -0.0479  0.0119
  139MOL0     O19052   3.047  10.334   8.284  0.1799  0.2060 -0.2326
  139MOL0     C19053   3.053  10.204   8.226  0.7524  0.9738 -0.9108
  139MOL0     C19054   3.173  10.124   8.284 -0.5190  0.0388 -0.3171
  139MOL0     C19055   3.222  10.014   8.193 -0.2547  0.6750  0.7036
  139MOL0     C19056   3.317   9.931   8.265  0.7176  0.0412 -0.0698
  139MOL0     C19057   3.251   9.844   8.373 -0.3262  0.3706  0.5382
  139MOL0     C19058   3.328   9.882   8.506  1.1353 -1.0764  1.1865
  139MOL0     C19059   3.275   9.804   8.634  0.0371  0.3045  0.4695
  139MOL0     C19060   3.119   9.790   8.660  0.1709  0.2058 -0.2126
  139MOL0     N19061   3.064   9.925   8.676  1.1910 -1.1276 -0.5514
  139MOL0     C19062   2.992   9.993   8.578  0.3221 -0.0647  0.3887
  139MOL0     C19063   2.959  10.114   8.633  0.8149  0.0798  1.2929
  139MOL0     C19064   2.900  10.239   8.564 -0.0062  0.5093  0.2127
  139MOL0     C19065   2.781  10.318   8.632 -0.1480 -0.5666 -0.0472
  139MOL0     C19066   2.669  10.227   8.696  0.5686 -0.3835 -0.0077
  139MOL0     C19067   2.567  10.308   8.783  0.3802 -0.6717  0.4206
  139MOL0     O19068   2.476  10.237   8.864 -0.4182 -0.2781  0.7582
  139MOL0     C19069   2.415  10.132   8.803 -0.3399  0.2468 -0.3202
  139MOL0     C19070   2.364  10.147   8.673 -0.4143 -0.3504 -0.2456
  139MOL0     C19071   2.295  10.037   8.623 -0.5085 -0.0901 -0.0773
  139MOL0     C19072   2.252  10.061   8.486 -0.2764  0.5436  0.0757
  139MOL0     C19073   2.268   9.916   8.697  0.0403  0.8545  0.2449
  139MOL0     C19074   2.191   9.800   8.630 -0.6720  0.2452 -0.3249
  139MOL0     O19075   2.204   9.681   8.711 -0.9380  0.5770  0.6218
  139MOL0     C19076   2.144   9.557   8.682  1.3168  0.2327 -0.3030
  139MOL0     C19077   2.084   9.508   8.570  0.3240 -0.2918 -0.3404
  139MOL0     C19078   2.038   9.379   8.554  0.1418  0.4534 -0.9423
  139MOL0     C19079   2.045   9.292   8.657  0.5483  0.8903  0.1587
  139MOL0     O19080   1.982   9.172   8.630  0.0589  0.3977 -0.7038
  139MOL0     C19081   1.957   9.083   8.744  0.5491  1.1204  0.5875
  139MOL0     C19082   1.849   8.980   8.705  0.0812 -0.3534 -0.0026
  139MOL0     C19083   1.710   9.040   8.684 -0.3604  0.0352 -0.5323
  139MOL0     C19084   1.605   8.924   8.700  0.7005 -0.1290 -0.4799
  139MOL0     C19085   1.462   8.980   8.694  0.2198  0.7901  0.2620
  139MOL0     C19086   1.368   8.888   8.769 -0.5522 -0.7169  0.2991
  139MOL0     C19087   1.215   8.911   8.764 -0.2478 -0.4730 -0.2449
  139MOL0     C19088   1.171   9.036   8.836 -0.4820 -0.5516  0.3779
  139MOL0    Cl19089   0.998   9.024   8.868  0.4750 -0.1098  0.3958
  139MOL0     C19090   2.109   9.332   8.772  0.7988  0.2101 -0.0788
  139MOL0     C19091   2.159   9.468   8.787 -0.7856  0.0643 -0.2314
  139MOL0     O19092   2.129   9.807   8.531 -0.8505 -0.1930  0.8597
  139MOL0     C19093   2.341   9.906   8.814  1.1738 -0.2653 -0.9938
  139MOL0     C19094   2.414  10.012   8.865  0.4812  0.3908 -0.4932
  139MOL0     N19095   3.010  10.120   8.763  0.0033  0.0866  0.1547
  139MOL0     N19096   3.073  10.012   8.780  0.4253 -0.1385  0.0758
  139MOL0     C19097   2.860  10.473   8.223 -0.1948 -0.7257 -0.2214
  139MOL0     C19098   2.809  10.576   8.144  0.3052  0.0872 -0.6599
  139MOL0     C19099   2.792  10.976   7.926 -0.5856 -0.4845  0.4113
  139MOL0     C19100   2.742  10.955   7.799  0.2808  0.5138  0.4886
  139MOL0     C19101   2.700  11.053   7.713  0.9309 -0.0367 -0.4261
  139MOL0     C19102   2.716  11.189   7.746 -0.7750  0.0562  0.6186
  139MOL0     O19103   2.690  11.300   7.677  0.4695  0.3610 -0.1827
  139MOL0     C19104   2.646  11.285   7.542 -0.1501  0.4694 -0.0465
  139MOL0     C19105   2.568  11.406   7.492  0.6942 -0.2719 -0.2564
  139MOL0     C19106   2.493  11.384   7.354  0.0446 -0.1301  0.0389
  139MOL0     C19107   2.380  11.486   7.318  1.0659  0.1259  0.0757
  139MOL0     C19108   2.401  11.559   7.192 -1.2991 -0.4707  1.0329
  139MOL0     C19109   2.421  11.619   7.082  0.4325  0.1801 -0.3724
  139MOL0     C19110   2.766  11.211   7.877  0.8037 -0.2361 -0.2298
  139MOL0     C19111   2.805  11.113   7.968 -0.3334  1.1003  0.3523
  139MOL0     C19112   2.852  11.169   8.099  0.0300 -0.1842 -0.3722
  139MOL0     H19113   3.054  10.613   7.918  4.0871 -2.0023  1.0789
  139MOL0     H19114   3.155  10.440   8.076  0.1901  1.0034 -0.2061
  139MOL0     H19115   3.058  10.210   8.116  0.2400 -0.6580 -1.0485
  139MOL0     H19116   2.958  10.155   8.249  1.6647 -1.3612 -1.8022
  139MOL0     H19117   3.253  10.193   8.308 -2.0581  1.4715  0.9581
  139MOL0     H19118   3.155  10.085   8.385 -2.1041  1.2130 -0.1031
  139MOL0     H19119   3.140   9.949   8.161 -1.6501  1.6861  2.0886
  139MOL0     H19120   3.275  10.047   8.103 -0.7103 -2.8230 -1.0228
  139MOL0     H19121   3.366   9.859   8.199  2.4522  0.8007  0.3265
  139MOL0     H19122   3.401   9.998   8.287  3.0853 -1.6226 -3.3245
  139MOL0     H19123   3.255   9.741   8.336 -2.0969  1.1434 -2.1008
  139MOL0     H19124   3.144   9.863   8.383 -0.2830  1.6741 -1.0432
  139MOL0     H19125   3.430   9.853   8.480  1.0266 -0.2760 -0.2338
  139MOL0     H19126   3.315   9.989   8.522  0.8879 -0.8028 -0.6230
  139MOL0     H19127   3.317   9.848   8.724  1.5817 -0.2322  0.0428
  139MOL0     H19128   3.311   9.702   8.615 -0.6789 -0.0295  0.8818
  139MOL0     H19129   3.067   9.740   8.578  2.0852 -0.2565 -1.1998
  139MOL0     H19130   3.098   9.727   8.746 -1.0134 -1.7989 -1.8936
  139MOL0     H19131   2.941   9.946   8.494  0.4509 -4.1279  2.3178
  139MOL0     H19132   2.867  10.206   8.465 -1.4721  3.7585 -0.5227
  139MOL0     H19133   2.972  10.318   8.538 -2.3358  1.6435 -3.7572
  139MOL0     H19134   2.827  10.390   8.700  1.4850  1.0441 -2.7058
  139MOL0     H19135   2.735  10.378   8.554 -1.6703 -3.0455 -1.2057
  139MOL0     H19136   2.619  10.169   8.618 -2.3135 -0.6622  1.8773
  139MOL0     H19137   2.710  10.156   8.768 -2.5993 -2.3961  0.0410
  139MOL0     H19138   2.625  10.375   8.847  1.4076  2.0098 -2.9866
  139MOL0     H19139   2.507  10.375   8.721 -0.9158 -3.0785 -1.0602
  139MOL0     H19140   2.369  10.242   8.621 -4.8500  0.4582  0.3972
  139MOL0     H19141   2.287   9.974   8.431  1.0658  1.7808 -1.1174
  139MOL0     H19142   2.280  10.158   8.443 -0.1402  1.0631  1.2840
  139MOL0     H19143   2.143  10.052   8.480 -0.2577 -0.9416  1.4259
  139MOL0     H19144   2.081   9.585   8.494 -0.9711  0.2209  0.2102
  139MOL0     H19145   1.993   9.358   8.458  2.1205 -0.5653 -1.7048
  139MOL0     H19146   2.054   9.036   8.762  0.0852 -0.6152 -1.1562
  139MOL0     H19147   1.921   9.135   8.833  0.9980  3.2664 -0.4001
  139MOL0     H19148   1.891   8.914   8.628  1.5814 -0.2839  0.7252
  139MOL0     H19149   1.838   8.924   8.798 -0.3413  0.4356  0.4352
  139MOL0     H19150   1.710   9.079   8.581  0.4947 -1.0478 -0.9616
  139MOL0     H19151   1.692   9.110   8.766 -0.1689  0.6799 -1.0280
  139MOL0     H19152   1.628   8.887   8.800 -0.0007  1.8886  0.4945
  139MOL0     H19153   1.622   8.847   8.624 -0.9341  0.3854 -1.4250
  139MOL0     H19154   1.459   9.081   8.736  1.6783  0.0572  2.2769
  139MOL0     H19155   1.435   8.974   8.588 -1.6936 -1.3378  0.7903
  139MOL0     H19156   1.403   8.894   8.872  2.3766 -2.8542 -0.4402
  139MOL0     H19157   1.396   8.787   8.738 -1.4115 -1.4413  1.7835
  139MOL0     H19158   1.183   8.830   8.830 -0.7300  1.7517  2.3861
  139MOL0     H19159   1.167   8.901   8.666 -2.8338 -3.4234  1.1405
  139MOL0     H19160   1.191   9.127   8.779 -1.7300  0.5423  1.6256
  139MOL0     H19161   1.235   9.064   8.920  0.3393  1.7294 -0.9025
  139MOL0     H19162   2.118   9.263   8.855  1.7664  1.2315  0.6975
  139MOL0     H19163   2.211   9.498   8.877  1.0766 -1.8829 -0.5937
  139MOL0     H19164   2.341   9.812   8.869  3.1587  1.0440  1.4065
  139MOL0     H19165   2.478  10.005   8.952 -0.6455 -4.1218  0.1810
  139MOL0     H19166   2.809  10.433   8.310  0.9240 -1.6025  0.0469
  139MOL0     H19167   2.710  10.613   8.171 -1.7105 -4.9795 -0.0382
  139MOL0     H19168   2.721  10.852   7.772 -2.1414  0.6043  1.7745
  139MOL0     H19169   2.666  11.020   7.615  0.8473 -0.2774 -0.3168
  139MOL0     H19170   2.740  11.275   7.487  1.0567 -0.6559  2.1063
  139MOL0     H19171   2.580  11.198   7.535 -2.5240  1.9274  2.2777
  139MOL0     H19172   2.634  11.489   7.468  0.8651  0.7328  3.0837
  139MOL0     H19173   2.504  11.431   7.577  1.9222 -1.6397  1.1424
  139MOL0     H19174   2.557  11.356   7.270 -0.1303 -3.0729  0.7681
  139MOL0     H19175   2.435  11.291   7.362 -1.9788  1.0189 -0.5435
  139MOL0     H19176   2.359  11.568   7.387 -1.3046  4.0216 -4.5814
  139MOL0     H19177   2.285  11.433   7.308  0.7264  0.9152 -1.0894
  139MOL0     H19178   2.418  11.679   6.994 -1.4186  0.9440  0.1715
  139MOL0     H19179   2.759  11.314   7.911 -0.9427  0.2711 -1.9573
  139MOL0     H19180   2.958  11.147   8.113 -0.4410 -2.8069 -0.2515
  139MOL0     H19181   2.855  11.278   8.095  1.3827 -0.1099  1.2614
  139MOL0     H19182   2.802  11.148   8.194  0.3663  1.5435  0.2111
  140MOL0     O19183   4.597   5.871   7.071  0.4686  0.4825  0.2109
  140MOL0     C19184   4.617   5.992   7.088  0.4430  0.7047 -1.2901
  140MOL0     O19185   4.647   6.088   6.987 -0.0246  1.0592  0.2326
  140MOL0     C19186   4.645   6.052   6.858  0.1997 -0.2356 -0.8904
  140MOL0     C19187   4.740   6.117   6.787 -0.8809  0.2226  0.3805
  140MOL0     C19188   4.739   6.125   6.641 -0.5016 -0.4318 -0.7453
  140MOL0     C19189   4.642   6.058   6.576 -0.3910  0.3172 -0.7170
  140MOL0     O19190   4.652   6.081   6.440  0.3775  0.0358  0.3499
  140MOL0     C19191   4.576   5.999   6.355  0.5934 -0.4889 -0.2829
  140MOL0     C19192   4.646   6.001   6.221  0.7584 -0.5819  0.8909
  140MOL0     C19193   4.567   5.915   6.123 -0.7129  0.9968  0.3417
  140MOL0     C19194   4.632   5.897   5.986  0.6527  0.4936 -1.1975
  140MOL0     C19195   4.546   5.806   5.891 -0.2458 -0.8122 -0.4275
  140MOL0     C19196   4.609   5.803   5.754 -0.6557 -0.6142 -0.1342
  140MOL0     C19197   4.521   5.696   5.678 -0.3451 -0.7912 -0.5092
  140MOL0     C19198   4.600   5.616   5.575 -1.8091 -0.0421  0.5857
  140MOL0     N19199   4.663   5.715   5.485  0.1155  0.3726 -0.3754
  140MOL0     C19200   4.594   5.790   5.397 -0.2921 -0.4585  0.5335
  140MOL0     C19201   4.699   5.860   5.346 -0.2647  0.1844 -0.4470
  140MOL0     C19202   4.681   5.969   5.236 -0.2210  0.6836  0.2291
  140MOL0     C19203   4.757   6.100   5.267 -0.2171  0.8677 -0.3468
  140MOL0     C19204   4.701   6.220   5.201 -0.6625  1.0646  0.6610
  140MOL0     C19205   4.790   6.346   5.197  0.6997  0.6361 -0.7429
  140MOL0     O19206   4.903   6.300   5.112  0.1154  0.0973 -0.4089
  140MOL0     C19207   4.977   6.395   5.066 -1.4203 -0.9011  0.1378
  140MOL0     C19208   4.982   6.524   5.121  0.3135 -0.6498  0.5048
  140MOL0     C19209   5.063   6.621   5.057  0.1334  0.1818  0.6029
  140MOL0     C19210   5.048   6.768   5.104 -0.1759 -0.0583  0.1901
  140MOL0     C19211   5.143   6.586   4.944  0.3143 -0.8997  0.0493
  140MOL0     C19212   5.235   6.677   4.873 -1.2256  0.9757 -0.2592
  140MOL0     O19213   5.318   6.617   4.784 -0.0326 -0.0159  0.3591
  140MOL0     C19214   5.398   6.672   4.682  0.0199  0.0924 -0.3201
  140MOL0     C19215   5.468   6.586   4.600  0.4780 -1.0146 -0.3123
  140MOL0     C19216   5.579   6.624   4.517  0.1756 -0.2959  0.5298
  140MOL0     C19217   5.614   6.756   4.512 -0.2649  0.0782 -0.6607
  140MOL0     O19218   5.708   6.787   4.415  0.1719 -0.3458 -0.8311
  140MOL0     C19219   5.793   6.903   4.423  1.2222 -0.4646  0.6005
  140MOL0     C19220   5.896   6.891   4.532 -0.4002  0.2656  0.2719
  140MOL0     C19221   5.993   6.778   4.519  0.3181 -0.3112 -0.8001
  140MOL0     C19222   6.051   6.775   4.376 -0.7028 -0.2356 -0.9621
  140MOL0     C19223   6.181   6.694   4.370  0.8110  0.6818  0.8536
  140MOL0     C19224   6.198   6.652   4.223  0.3009 -0.2809  0.4948
  140MOL0     C19225   6.345   6.593   4.226 -0.4591 -0.0275 -0.7784
  140MOL0     C19226   6.418   6.586   4.092  0.2273 -0.0465 -0.7133
  140MOL0    Cl19227   6.353   6.454   3.991 -0.4446  0.1038 -0.1076
  140MOL0     C19228   5.550   6.852   4.597 -0.0738  0.1480 -0.3146
  140MOL0     C19229   5.442   6.805   4.675  0.1410  0.0085  0.4876
  140MOL0     O19230   5.237   6.798   4.894 -0.7647 -0.0483 -0.0641
  140MOL0     C19231   5.144   6.456   4.894  0.3804  0.7600 -0.3369
  140MOL0     C19232   5.065   6.360   4.961  0.1561  0.0600 -0.1838
  140MOL0     N19233   4.821   5.829   5.403 -0.3761 -1.2969  0.5253
  140MOL0     N19234   4.789   5.746   5.499 -0.7521  0.2048 -0.0941
  140MOL0     C19235   4.549   5.983   6.654 -0.3319  0.2029 -0.5374
  140MOL0     C19236   4.550   5.983   6.791 -0.2428  0.2781  0.1159
  140MOL0     C19237   4.591   6.052   7.221 -0.5347 -0.5413 -0.1448
  140MOL0     C19238   4.691   6.142   7.274 -0.5303 -0.1518  0.6005
  140MOL0     C19239   4.698   6.184   7.412  0.0493  0.7019  0.2788
  140MOL0     C19240   4.601   6.138   7.497  0.1779 -0.3799  0.0381
  140MOL0     O19241   4.608   6.175   7.632 -0.8100 -0.5966 -0.1401
  140MOL0     C19242   4.540   6.101   7.730 -0.7576  0.3464  0.2928
  140MOL0     C19243   4.429   6.186   7.781  0.3012  0.3249  0.7542
  140MOL0     C19244   4.356   6.094   7.887 -0.0994  0.0570  0.4092
  140MOL0     C19245   4.238   6.161   7.956  0.1092  0.6822  0.0718
  140MOL0     C19246   4.112   6.171   7.873 -0.4271  0.5787 -0.7769
  140MOL0     C19247   3.999   6.181   7.828 -0.1904  0.2394  1.1234
  140MOL0     C19248   4.501   6.046   7.451 -0.3846 -0.2355  1.0756
  140MOL0     C19249   4.494   6.002   7.315 -0.4590  0.6879  0.2208
  140MOL0     C19250   4.397   5.900   7.272 -1.2093 -0.3080  0.3673
  140MOL0     H19251   4.812   6.156   6.858  0.0973 -0.3890 -0.2465
  140MOL0     H19252   4.815   6.178   6.586  0.0112 -0.0502  0.3145
  140MOL0     H19253   4.472   6.031   6.341  0.9639  0.5280 -0.8498
  140MOL0     H19254   4.569   5.898   6.395  1.6209  0.5219  2.7495
  140MOL0     H19255   4.635   6.098   6.173 -0.3260 -0.7560  0.7622
  140MOL0     H19256   4.748   5.963   6.234  0.7609 -1.0155 -0.2568
  140MOL0     H19257   4.565   5.814   6.164  1.7536  0.5105 -0.5469
  140MOL0     H19258   4.467   5.950   6.095 -1.4053 -0.8385  0.3756
  140MOL0     H19259   4.631   5.999   5.947  2.4207  1.8169  1.8997
  140MOL0     H19260   4.732   5.853   5.986  0.9508  1.1623 -1.3880
  140MOL0     H19261   4.446   5.850   5.886  0.4083  0.5991 -3.2394
  140MOL0     H19262   4.533   5.701   5.918  0.3998 -0.8972 -0.4325
  140MOL0     H19263   4.617   5.894   5.694 -2.0913  1.1583  2.1825
  140MOL0     H19264   4.711   5.763   5.745 -0.5447 -0.8731  1.8111
  140MOL0     H19265   4.443   5.756   5.631  0.7134  0.5327 -0.6321
  140MOL0     H19266   4.476   5.610   5.728 -2.7631 -1.3507 -3.3777
  140MOL0     H19267   4.670   5.549   5.627 -1.3155  1.1119  1.4521
  140MOL0     H19268   4.534   5.554   5.513  1.8107 -1.8562 -1.8730
  140MOL0     H19269   4.490   5.807   5.369  0.3466  3.1797 -0.0987
  140MOL0     H19270   4.573   5.983   5.224 -0.6592 -0.9074  1.8155
  140MOL0     H19271   4.709   5.921   5.141 -0.8706 -0.5859  0.6492
  140MOL0     H19272   4.776   6.114   5.374 -0.1911 -4.3912  0.5964
  140MOL0     H19273   4.846   6.060   5.218 -4.0596 -2.9422 -5.3001
  140MOL0     H19274   4.675   6.192   5.099 -1.2262 -3.1708  1.7979
  140MOL0     H19275   4.607   6.237   5.254  0.1006 -0.0268  2.4565
  140MOL0     H19276   4.735   6.436   5.170 -0.5254  0.1556  0.0690
  140MOL0     H19277   4.827   6.356   5.299 -1.7378 -0.1805  0.3011
  140MOL0     H19278   4.917   6.569   5.196  0.8484  0.5262  0.2780
  140MOL0     H19279   5.150   6.798   5.128 -0.2172  0.3856 -0.1735
  140MOL0     H19280   4.981   6.778   5.190 -1.3896 -1.5528 -0.5241
  140MOL0     H19281   5.005   6.838   5.030 -2.4588  0.5038  1.9257
  140MOL0     H19282   5.457   6.479   4.618 -4.2039 -0.2659  2.9458
  140MOL0     H19283   5.630   6.544   4.465  0.1726  0.9847 -1.5838
  140MOL0     H19284   5.840   6.931   4.328  1.7459  0.0048  0.9866
  140MOL0     H19285   5.723   6.985   4.442 -1.0966 -2.2416  0.1831
  140MOL0     H19286   5.950   6.987   4.532 -1.2972  0.7833 -0.2488
  140MOL0     H19287   5.849   6.876   4.629 -0.2545 -0.8583  0.1791
  140MOL0     H19288   5.933   6.693   4.553  0.1392  0.5150  1.1298
  140MOL0     H19289   6.079   6.790   4.585 -0.2892 -2.8005  0.5682
  140MOL0     H19290   6.075   6.875   4.338 -0.6609 -0.5598 -1.8241
  140MOL0     H19291   5.972   6.737   4.311  0.2219  0.4277 -2.5396
  140MOL0     H19292   6.260   6.755   4.415  0.1602  2.2832 -0.0663
  140MOL0     H19293   6.170   6.600   4.423 -1.1371  0.4644  0.1646
  140MOL0     H19294   6.187   6.747   4.170 -3.8303 -0.5206  0.5752
  140MOL0     H19295   6.125   6.577   4.191 -0.5431  1.2455 -1.4238
  140MOL0     H19296   6.348   6.491   4.264  1.7446 -0.6340 -2.3969
  140MOL0     H19297   6.408   6.645   4.299 -1.1186  2.1008 -1.6360
  140MOL0     H19298   6.518   6.554   4.125 -0.6340 -2.3611 -0.1382
  140MOL0     H19299   6.412   6.687   4.052 -0.3882 -0.8053 -2.6421
  140MOL0     H19300   5.571   6.959   4.593  0.3369  0.0835  0.0053
  140MOL0     H19301   5.399   6.884   4.736  1.1574  0.4019  0.7098
  140MOL0     H19302   5.210   6.424   4.814 -0.9512 -2.1157 -0.4238
  140MOL0     H19303   5.078   6.256   4.932  0.0018 -0.3715  1.2399
  140MOL0     H19304   4.469   5.926   6.605 -2.0736  1.9499  0.1530
  140MOL0     H19305   4.468   5.930   6.838 -0.4220 -0.2828 -0.8103
  140MOL0     H19306   4.775   6.165   7.210  1.7257  0.7249  3.6229
  140MOL0     H19307   4.782   6.242   7.448  1.0607 -1.0364  0.8154
  140MOL0     H19308   4.512   6.001   7.694  2.2842 -0.0981 -1.1241
  140MOL0     H19309   4.607   6.076   7.813  0.9435 -2.0807 -1.6828
  140MOL0     H19310   4.363   6.211   7.697  1.3333  4.6215  1.0302
  140MOL0     H19311   4.469   6.274   7.832  3.8368  0.1055 -1.3115
  140MOL0     H19312   4.335   5.994   7.846 -2.1765 -0.2550  2.0098
  140MOL0     H19313   4.429   6.063   7.963  0.8153  2.0331  0.3867
  140MOL0     H19314   4.275   6.258   7.990  0.7561  0.0501  1.2174
  140MOL0     H19315   4.219   6.104   8.047  0.5205 -0.2542 -0.4190
  140MOL0     H19316   3.897   6.187   7.797 -0.2772  2.5080  1.6559
  140MOL0     H19317   4.416   6.004   7.504 -1.5143 -1.8358 -1.7684
  140MOL0     H19318   4.435   5.798   7.287 -3.0978 -0.6859  3.2126
  140MOL0     H19319   4.305   5.902   7.331 -1.8917 -0.8669 -0.6447
  140MOL0     H19320   4.373   5.909   7.166 -0.2708 -2.2797 -0.0593
  141MOL0     O19321   2.218   5.700  10.212  0.7468  0.5490  0.1361
  141MOL0     C19322   2.130   5.667  10.288 -0.0757  0.9206  0.1108
  141MOL0     O19323   2.001   5.710  10.277  0.5836  0.2074  0.2369
  141MOL0     C19324   1.949   5.814  10.197 -0.2317 -0.7218 -1.1689
  141MOL0     C19325   1.806   5.820  10.191 -0.6420 -0.0165 -0.9056
  141MOL0     C19326   1.738   5.897  10.101  0.7260 -0.3819 -0.0689
  141MOL0     C19327   1.812   5.974  10.008  0.2587 -0.7517  0.4653
  141MOL0     O19328   1.753   6.048   9.901 -0.0628 -0.4187  0.1859
  141MOL0     C19329   1.620   6.010   9.872  0.2584 -1.2457 -0.9396
  141MOL0     C19330   1.512   6.073   9.959  0.2931 -0.0130  0.0268
  141MOL0     C19331   1.566   6.201  10.027 -0.0422 -0.5710 -1.0210
  141MOL0     C19332   1.559   6.326   9.949  0.5569 -0.4856 -0.0060
  141MOL0     C19333   1.424   6.381   9.898 -0.5536  0.1010  0.2488
  141MOL0     C19334   1.356   6.483   9.995  0.3356 -0.2603 -0.5006
  141MOL0     C19335   1.258   6.419  10.099 -0.3926  0.0190 -0.2491
  141MOL0     C19336   1.324   6.428  10.246 -0.5046  0.1128  0.1366
  141MOL0     N19337   1.311   6.570  10.279  0.7761  0.4778 -0.3546
  141MOL0     C19338   1.406   6.673  10.271  1.0759 -0.0294 -0.3036
  141MOL0     C19339   1.337   6.784  10.315  1.4696  0.0902  0.6861
  141MOL0     C19340   1.399   6.926  10.342  1.6859 -0.4540  0.1751
  141MOL0     C19341   1.279   7.026  10.333 -0.4283  0.1397  0.0854
  141MOL0     C19342   1.316   7.176  10.346  0.9318 -0.2418  0.2898
  141MOL0     C19343   1.191   7.265  10.308 -0.1600  1.2095  0.2360
  141MOL0     O19344   1.246   7.399  10.298  0.5663 -0.2009 -0.0686
  141MOL0     C19345   1.279   7.451  10.181  0.1222  0.3032 -0.7661
  141MOL0     C19346   1.356   7.565  10.184  0.3155 -0.7280 -0.9227
  141MOL0     C19347   1.417   7.618  10.075 -0.0420 -0.3590 -0.4773
  141MOL0     C19348   1.507   7.737  10.105 -0.6047 -0.1288  0.4724
  141MOL0     C19349   1.397   7.559   9.951  0.0419  0.8445 -0.0970
  141MOL0     C19350   1.468   7.607   9.824 -0.2069  0.1324 -0.9550
  141MOL0     O19351   1.535   7.513   9.760  0.0692  0.1063 -0.9972
  141MOL0     C19352   1.625   7.551   9.652  0.1579  0.0247  0.2901
  141MOL0     C19353   1.566   7.591   9.535 -0.2270 -0.0531 -0.2082
  141MOL0     C19354   1.656   7.619   9.430 -0.2073 -0.2628  0.2609
  141MOL0     C19355   1.799   7.631   9.448  0.7447  0.0443  0.1764
  141MOL0     O19356   1.890   7.657   9.346 -0.2851 -0.2290 -0.5271
  141MOL0     C19357   1.867   7.768   9.267 -0.0106  0.0334 -0.2017
  141MOL0     C19358   1.988   7.793   9.173  0.0069  0.3067 -0.0741
  141MOL0     C19359   2.099   7.885   9.231 -0.7205 -0.4472  0.2502
  141MOL0     C19360   2.215   7.917   9.135  1.0975 -0.6870  0.2780
  141MOL0     C19361   2.282   8.051   9.175 -0.0721  0.2816  1.1429
  141MOL0     C19362   2.360   8.101   9.049  0.5305  0.0633 -0.0824
  141MOL0     C19363   2.465   7.998   8.998  0.3701  0.1433  0.3736
  141MOL0     C19364   2.570   7.956   9.101 -0.5000  0.4641 -0.2592
  141MOL0    Cl19365   2.723   7.914   9.011  0.1562 -0.0463 -0.1110
  141MOL0     C19366   1.852   7.594   9.572 -1.0973  1.0281 -0.6562
  141MOL0     C19367   1.761   7.549   9.675 -0.8625 -0.3772  0.3463
  141MOL0     O19368   1.461   7.730   9.796  0.2960  0.4582  0.4190
  141MOL0     C19369   1.308   7.451   9.932  0.2365 -0.7661  0.0180
  141MOL0     C19370   1.240   7.400  10.045  0.4365  0.2153  0.6741
  141MOL0     N19371   1.206   6.746  10.336 -0.4158 -0.0202 -0.4208
  141MOL0     N19372   1.187   6.621  10.324  0.1351  0.6435 -0.6266
  141MOL0     C19373   1.950   5.983  10.024  0.3880 -0.2062  0.6452
  141MOL0     C19374   2.017   5.907  10.122 -0.1123  0.5055  0.1239
  141MOL0     C19375   2.175   5.560  10.394 -0.2802 -1.0638  0.8053
  141MOL0     C19376   2.315   5.521  10.406 -0.4506 -0.4844  0.8687
  141MOL0     C19377   2.353   5.429  10.499 -0.3579 -0.1859 -0.5721
  141MOL0     C19378   2.259   5.385  10.593 -0.2122 -0.0772  0.0795
  141MOL0     O19379   2.302   5.287  10.689 -0.2404 -0.4396  0.1739
  141MOL0     C19380   2.419   5.218  10.683 -0.1231  0.2611 -0.1891
  141MOL0     C19381   2.405   5.088  10.760 -0.3415 -0.0642 -0.8963
  141MOL0     C19382   2.386   5.117  10.905  0.0579  0.1521  0.5604
  141MOL0     C19383   2.386   4.998  11.004 -0.5073  0.6232 -0.1421
  141MOL0     C19384   2.524   4.942  11.034  0.5609  0.4603  0.3056
  141MOL0     C19385   2.633   4.888  11.047  1.1798 -0.8693 -0.5897
  141MOL0     C19386   2.129   5.427  10.593 -0.6179  0.0560  0.5604
  141MOL0     C19387   2.086   5.513  10.496 -0.0328 -0.1202 -0.1835
  141MOL0     C19388   1.945   5.560  10.510 -0.2136 -0.0099 -0.0017
  141MOL0     H19389   1.753   5.758  10.262 -0.0804  0.3917 -0.1111
  141MOL0     H19390   1.629   5.893  10.093  0.6831  0.1686  0.2703
  141MOL0     H19391   1.613   5.901   9.868  2.4909 -1.4216 -4.5565
  141MOL0     H19392   1.601   6.055   9.774  0.9558  2.2978  0.3989
  141MOL0     H19393   1.428   6.085   9.890 -0.8812 -1.0601  1.2021
  141MOL0     H19394   1.473   6.008  10.039 -1.2768  0.2870 -0.4488
  141MOL0     H19395   1.491   6.205  10.106 -2.0708 -1.3363 -2.8232
  141MOL0     H19396   1.663   6.195  10.078  0.3587  0.0343 -1.6857
  141MOL0     H19397   1.604   6.402  10.013 -3.0447  2.0771 -0.1849
  141MOL0     H19398   1.617   6.307   9.858 -2.9665 -3.6715 -1.8673
  141MOL0     H19399   1.355   6.303   9.866  0.3722 -0.1495 -1.1923
  141MOL0     H19400   1.446   6.433   9.805  1.1497 -2.7770 -1.0950
  141MOL0     H19401   1.439   6.537  10.043  1.2914 -0.7386 -1.5595
  141MOL0     H19402   1.295   6.555   9.938  0.3959  0.9630  0.9173
  141MOL0     H19403   1.236   6.319  10.061  0.5047 -0.6086  0.8304
  141MOL0     H19404   1.159   6.466  10.103  0.1520  1.5294 -2.6387
  141MOL0     H19405   1.262   6.380  10.322 -3.2817  3.0593 -0.0546
  141MOL0     H19406   1.430   6.403  10.252  0.0961  1.7797 -2.1625
  141MOL0     H19407   1.512   6.673  10.248  1.0123 -0.8666 -0.6310
  141MOL0     H19408   1.472   6.950  10.264 -0.0638  1.0481 -1.0847
  141MOL0     H19409   1.431   6.930  10.446  0.3004 -0.0347  0.6033
  141MOL0     H19410   1.230   7.019  10.236  1.0326 -0.9303 -0.6206
  141MOL0     H19411   1.219   7.008  10.423  0.2684  2.3388  1.0512
  141MOL0     H19412   1.341   7.197  10.450 -0.1640 -1.8232  0.9177
  141MOL0     H19413   1.399   7.201  10.280  1.7269  0.7379  1.6312
  141MOL0     H19414   1.137   7.228  10.220 -0.4244 -3.0249  1.9174
  141MOL0     H19415   1.114   7.274  10.385 -0.6912 -0.7685  0.0006
  141MOL0     H19416   1.373   7.609  10.282  0.1177  2.8955 -2.3560
  141MOL0     H19417   1.528   7.742  10.212 -2.5665 -0.1931  0.8828
  141MOL0     H19418   1.470   7.837  10.080  0.5044 -0.3880 -2.7785
  141MOL0     H19419   1.603   7.728  10.052  0.9576  0.0073  3.1076
  141MOL0     H19420   1.458   7.598   9.528 -0.6135 -2.0064  2.3938
  141MOL0     H19421   1.614   7.645   9.333 -0.0584 -0.4691  0.1396
  141MOL0     H19422   1.781   7.756   9.200 -1.1310  3.2897  0.4699
  141MOL0     H19423   1.844   7.861   9.321  2.7719  0.4850  0.3269
  141MOL0     H19424   2.028   7.701   9.131 -0.7741 -0.4014  0.7069
  141MOL0     H19425   1.960   7.845   9.081  0.7876 -0.3603 -0.6981
  141MOL0     H19426   2.132   7.835   9.323 -0.4740 -0.6800  0.0350
  141MOL0     H19427   2.055   7.979   9.267 -1.1318 -0.4754 -0.1726
  141MOL0     H19428   2.172   7.907   9.035  0.3235 -2.2992  0.7368
  141MOL0     H19429   2.292   7.843   9.156  2.0024  0.7111  2.2357
  141MOL0     H19430   2.214   8.134   9.197 -0.7143  1.1280 -3.0945
  141MOL0     H19431   2.355   8.024   9.252 -0.4727 -0.9757  1.0942
  141MOL0     H19432   2.406   8.196   9.078  1.0398 -0.1732 -0.1066
  141MOL0     H19433   2.283   8.125   8.975  0.9531  0.9607 -0.2479
  141MOL0     H19434   2.527   8.039   8.918  1.9238  0.8781  1.8915
  141MOL0     H19435   2.417   7.906   8.962  0.6659  0.4606 -0.8886
  141MOL0     H19436   2.544   7.870   9.164  2.7915  1.4274  2.7332
  141MOL0     H19437   2.581   8.046   9.163  0.0656 -0.2093  0.6513
  141MOL0     H19438   1.956   7.573   9.597 -1.3517 -1.4662 -1.4040
  141MOL0     H19439   1.797   7.508   9.769 -1.1086 -1.8400 -0.1675
  141MOL0     H19440   1.275   7.435   9.830 -0.6923  5.2419 -1.0317
  141MOL0     H19441   1.168   7.320  10.028  1.8429 -0.9783  0.0936
  141MOL0     H19442   2.005   6.055   9.964  3.3417 -0.6800  2.5573
  141MOL0     H19443   2.121   5.920  10.149 -0.0508  2.1606 -0.7507
  141MOL0     H19444   2.389   5.553  10.332  0.3444 -2.0717  0.9417
  141MOL0     H19445   2.460   5.410  10.507 -0.4650 -0.7216 -0.3870
  141MOL0     H19446   2.453   5.193  10.582  2.1284 -1.8293  0.9777
  141MOL0     H19447   2.500   5.279  10.725 -0.9177  0.0246  1.8012
  141MOL0     H19448   2.490   5.022  10.739  0.8192  0.7420  1.0147
  141MOL0     H19449   2.317   5.038  10.718 -0.9700  1.9462 -2.0758
  141MOL0     H19450   2.459   5.190  10.940 -0.1825  0.9355 -0.5107
  141MOL0     H19451   2.285   5.157  10.922 -0.2321  0.6029 -1.8740
  141MOL0     H19452   2.316   4.924  10.962  2.4739 -2.2236 -0.5334
  141MOL0     H19453   2.337   5.031  11.095 -2.5212 -1.3019 -0.4251
  141MOL0     H19454   2.734   4.855  11.056  1.0892 -0.9057  0.5325
  141MOL0     H19455   2.063   5.396  10.673 -1.3938 -0.3216 -0.2151
  141MOL0     H19456   1.896   5.512  10.595  1.9197 -1.0829  0.7045
  141MOL0     H19457   1.950   5.667  10.531 -0.4946  0.1945 -0.9200
  141MOL0     H19458   1.886   5.543  10.419  1.0998  0.2474 -0.9405
  142MOL0     O19459   9.903   5.817   2.601 -0.4840 -0.2274 -0.4928
  142MOL0     C19460   9.948   5.865   2.704  0.2548  0.5796  0.4174
  142MOL0     O19461  10.030   5.797   2.795  0.4123 -0.0087 -0.7580
  142MOL0     C19462  10.068   5.677   2.759 -0.5679 -1.7371  0.4036
  142MOL0     C19463   9.990   5.566   2.790 -0.3162 -0.2872  0.6814
  142MOL0     C19464  10.048   5.442   2.756  0.1007 -1.1132  0.1931
  142MOL0     C19465  10.171   5.424   2.700  0.5644 -0.2645 -0.1163
  142MOL0     O19466  10.211   5.293   2.674  0.7018 -0.4878  0.0030
  142MOL0     C19467  10.344   5.263   2.657 -0.8942  0.3202 -0.4133
  142MOL0     C19468  10.385   5.112   2.678 -0.0751 -0.1802  0.9245
  142MOL0     C19469  10.381   5.078   2.829 -0.1352 -0.0309  0.2785
  142MOL0     C19470  10.421   4.933   2.851  0.2840 -0.0020  0.2413
  142MOL0     C19471  10.421   4.868   2.996 -0.4533 -0.7318  0.2605
  142MOL0     C19472  10.378   4.716   3.001  0.1212  0.2191  0.8089
  142MOL0     C19473  10.490   4.621   2.972 -1.2542  0.5351 -0.7525
  142MOL0     C19474  10.478   4.480   3.019 -0.2358  0.9780 -0.5471
  142MOL0     N19475  10.407   4.407   2.918  0.4665  0.4108 -0.4410
  142MOL0     C19476  10.466   4.360   2.804 -0.2536  0.3596  0.8127
  142MOL0     C19477  10.379   4.292   2.734  0.5845  0.3349 -0.1501
  142MOL0     C19478  10.378   4.209   2.603 -0.1360 -0.6140 -0.9182
  142MOL0     C19479  10.384   4.062   2.635  0.0251  0.5962 -1.1756
  142MOL0     C19480  10.530   4.027   2.675 -0.2478 -0.2581 -0.4890
  142MOL0     C19481  10.542   3.881   2.739 -0.0134 -0.3844  0.6226
  142MOL0     O19482  10.671   3.868   2.784  0.2037 -0.1902  0.3447
  142MOL0     C19483  10.701   3.775   2.891  0.4439 -0.3390  0.0540
  142MOL0     C19484  10.613   3.681   2.946  0.1971 -0.1718  0.2354
  142MOL0     C19485  10.647   3.597   3.051 -0.0527 -0.0987  0.8281
  142MOL0     C19486  10.531   3.517   3.098 -0.1867  0.1412 -0.3059
  142MOL0     C19487  10.777   3.597   3.095  0.8020  0.3833 -0.0054
  142MOL0     C19488  10.824   3.510   3.212 -0.2713 -0.4548  0.3685
  142MOL0     O19489  10.754   3.524   3.327 -0.5629  0.4749  0.8570
  142MOL0     C19490  10.793   3.458   3.439 -0.8934  0.0722  0.9280
  142MOL0     C19491  10.754   3.331   3.473  0.6866 -0.3478  0.0382
  142MOL0     C19492  10.773   3.281   3.601  0.7649  0.2635 -0.6110
  142MOL0     C19493  10.852   3.348   3.694 -0.5193 -0.8618  0.9508
  142MOL0     O19494  10.890   3.274   3.799  0.6664 -0.8335  0.1447
  142MOL0     C19495  11.029   3.296   3.827  0.7466 -0.3796 -0.8466
  142MOL0     C19496  11.082   3.152   3.851 -0.5158  0.7775 -0.1124
  142MOL0     C19497  11.154   3.090   3.732  0.1040  0.7337  0.1428
  142MOL0     C19498  11.196   2.949   3.758  0.7352  0.5562  0.0984
  142MOL0     C19499  11.228   2.869   3.635 -0.5579 -0.1735 -0.3404
  142MOL0     C19500  11.113   2.829   3.553 -0.3213  0.3414  0.4580
  142MOL0     C19501  11.153   2.775   3.412  0.0087 -0.1278  1.2831
  142MOL0     C19502  11.033   2.715   3.351 -0.4857 -0.3515 -0.4013
  142MOL0    Cl19503  11.064   2.672   3.169 -0.5560  0.3052 -0.5230
  142MOL0     C19504  10.892   3.472   3.656 -0.7161 -0.3267  0.5974
  142MOL0     C19505  10.867   3.523   3.529  0.1830 -0.0440  0.1352
  142MOL0     O19506  10.915   3.430   3.191  0.1620  0.1489  0.0072
  142MOL0     C19507  10.861   3.678   3.028  0.2021 -0.4122 -0.1547
  142MOL0     C19508  10.829   3.773   2.936 -0.5608  0.9247  0.6022
  142MOL0     N19509  10.266   4.289   2.809 -0.2068 -0.1327 -0.7836
  142MOL0     N19510  10.279   4.368   2.917  1.3538  0.5427 -0.0726
  142MOL0     C19511  10.234   5.538   2.662 -0.7139 -0.6328  0.5683
  142MOL0     C19512  10.184   5.664   2.685 -0.0624  0.2095  0.3238
  142MOL0     C19513   9.922   6.012   2.723 -0.1619  0.0739  0.1288
  142MOL0     C19514   9.853   6.087   2.623  0.7935 -0.1280  0.0092
  142MOL0     C19515   9.820   6.220   2.633 -0.2613 -0.3968  0.3596
  142MOL0     C19516   9.840   6.288   2.755  0.6828  1.1400 -0.9872
  142MOL0     O19517   9.809   6.421   2.780  0.2815  0.1113 -0.5851
  142MOL0     C19518   9.750   6.501   2.677  0.2162  0.5918  0.2110
  142MOL0     C19519   9.686   6.625   2.742  0.0159 -0.3546 -0.7714
  142MOL0     C19520   9.617   6.717   2.646 -0.6126 -0.1479  0.3271
  142MOL0     C19521   9.551   6.832   2.731  0.3032 -0.2284  0.2805
  142MOL0     C19522   9.652   6.932   2.756  0.5128  0.3047 -0.1767
  142MOL0     C19523   9.716   7.031   2.784 -0.8077 -0.2903 -0.1143
  142MOL0     C19524   9.899   6.224   2.859 -0.4466  0.5629 -0.1008
  142MOL0     C19525   9.938   6.082   2.846 -0.4277 -0.2420  0.7109
  142MOL0     C19526   9.994   6.018   2.969  0.5278  0.6161 -0.9725
  142MOL0     H19527   9.896   5.579   2.841 -1.7501 -0.0916 -1.8385
  142MOL0     H19528   9.997   5.349   2.778 -0.4795 -1.1096 -1.0720
  142MOL0     H19529  10.401   5.316   2.734 -0.7227 -0.6069  0.1123
  142MOL0     H19530  10.364   5.288   2.553  1.3988 -1.7518 -0.5821
  142MOL0     H19531  10.326   5.042   2.618 -2.0651  2.1548 -0.0015
  142MOL0     H19532  10.489   5.111   2.646 -0.4921  0.0421 -0.4792
  142MOL0     H19533  10.461   5.144   2.865  2.3172 -3.0862  0.8854
  142MOL0     H19534  10.277   5.091   2.860 -1.0946 -2.6610 -1.5019
  142MOL0     H19535  10.353   4.874   2.789  1.9401  0.6136 -2.3017
  142MOL0     H19536  10.521   4.925   2.808  0.5487 -2.5165  1.1509
  142MOL0     H19537  10.360   4.933   3.060  1.0594  0.8677  0.1770
  142MOL0     H19538  10.521   4.879   3.037 -0.3893  3.3552 -0.4855
  142MOL0     H19539  10.333   4.688   3.096 -1.1683  1.1085  0.4787
  142MOL0     H19540  10.298   4.698   2.929 -0.1090  0.7692  0.9248
  142MOL0     H19541  10.574   4.666   3.026  1.5235 -2.1510 -2.5063
  142MOL0     H19542  10.518   4.636   2.867 -1.9520 -1.5505 -1.2839
  142MOL0     H19543  10.574   4.428   3.022 -0.7139  0.1243  2.2471
  142MOL0     H19544  10.433   4.461   3.117 -1.9808 -3.2036 -1.9377
  142MOL0     H19545  10.570   4.371   2.775 -0.9698 -0.9038 -2.7427
  142MOL0     H19546  10.462   4.238   2.539  1.2582  1.8448  1.7751
  142MOL0     H19547  10.286   4.227   2.548 -2.0052  0.3190  2.2393
  142MOL0     H19548  10.304   4.034   2.704  0.9437 -0.6416 -0.5821
  142MOL0     H19549  10.369   4.011   2.540  1.5335  0.0571 -1.1495
  142MOL0     H19550  10.601   4.048   2.595 -0.0150  0.4407 -0.1049
  142MOL0     H19551  10.558   4.095   2.756 -1.9464 -0.7616  0.5855
  142MOL0     H19552  10.464   3.856   2.812 -1.7118  3.0154  0.1539
  142MOL0     H19553  10.539   3.798   2.667 -0.7067 -0.2843  0.5288
  142MOL0     H19554  10.519   3.667   2.895  0.0011  1.0793  0.2127
  142MOL0     H19555  10.507   3.550   3.200  2.5896 -2.1034  1.2039
  142MOL0     H19556  10.556   3.411   3.085 -1.4300 -0.0227 -1.5778
  142MOL0     H19557  10.442   3.537   3.038  1.3298 -1.3946 -3.2873
  142MOL0     H19558  10.699   3.272   3.401 -2.2606  0.4200  1.4735
  142MOL0     H19559  10.753   3.175   3.613 -1.0829  0.4531 -1.5206
  142MOL0     H19560  11.081   3.354   3.750 -0.3927  0.4960 -0.9974
  142MOL0     H19561  11.045   3.343   3.925 -2.1993 -2.2021  0.6649
  142MOL0     H19562  11.160   3.171   3.925 -0.0041  0.5898 -0.5957
  142MOL0     H19563  11.002   3.089   3.893 -0.9866  1.2223 -0.3246
  142MOL0     H19564  11.245   3.149   3.717  2.8613 -2.6818  2.0295
  142MOL0     H19565  11.089   3.098   3.645 -0.5932 -2.9235  0.1814
  142MOL0     H19566  11.116   2.891   3.806 -0.5554  1.9276 -0.3211
  142MOL0     H19567  11.277   2.956   3.831  0.8207  0.2096  0.0371
  142MOL0     H19568  11.289   2.925   3.563 -2.1475 -0.3273 -1.8625
  142MOL0     H19569  11.283   2.779   3.666  1.2706 -0.3746 -3.6921
  142MOL0     H19570  11.046   2.916   3.548 -2.0535 -0.9881 -2.1832
  142MOL0     H19571  11.059   2.747   3.602 -0.9348  0.0054 -0.7189
  142MOL0     H19572  11.220   2.688   3.421  0.3480 -0.1559 -0.9386
  142MOL0     H19573  11.194   2.843   3.337 -2.1329 -1.3140 -1.1064
  142MOL0     H19574  10.957   2.794   3.355 -0.2421 -0.1723  1.5681
  142MOL0     H19575  11.004   2.628   3.411 -1.6992  0.4608  0.2330
  142MOL0     H19576  10.956   3.529   3.723  0.2968 -0.5140 -0.2004
  142MOL0     H19577  10.907   3.619   3.500 -2.0749  0.7573 -0.5133
  142MOL0     H19578  10.964   3.683   3.064 -0.8496  1.8268  3.0036
  142MOL0     H19579  10.899   3.828   2.874 -1.1497  0.1614 -0.7850
  142MOL0     H19580  10.330   5.533   2.611 -1.8771  2.7918 -2.4113
  142MOL0     H19581  10.247   5.749   2.659  0.1080 -0.0994 -0.2851
  142MOL0     H19582   9.833   6.024   2.537 -1.6140 -1.3065  1.3411
  142MOL0     H19583   9.769   6.259   2.546  0.4195 -1.5402 -0.5760
  142MOL0     H19584   9.827   6.519   2.602  2.4752 -1.5589  1.8529
  142MOL0     H19585   9.673   6.439   2.629  1.3274 -0.0154 -0.8384
  142MOL0     H19586   9.763   6.681   2.796 -0.8869 -0.4127  0.6305
  142MOL0     H19587   9.609   6.611   2.819  0.2166  0.1005 -0.4869
  142MOL0     H19588   9.682   6.768   2.574 -1.2039 -1.1981 -0.9965
  142MOL0     H19589   9.538   6.657   2.599 -1.4055 -1.0779  2.6713
  142MOL0     H19590   9.511   6.798   2.827 -1.9543  2.1302  0.2970
  142MOL0     H19591   9.461   6.880   2.691  0.1439  2.6882  3.6229
  142MOL0     H19592   9.758   7.126   2.813  0.4077 -1.5599  2.6996
  142MOL0     H19593   9.889   6.279   2.952  0.4209  2.1508 -0.9216
  142MOL0     H19594  10.100   6.000   2.948  0.3903 -1.1311 -0.3193
  142MOL0     H19595   9.999   6.082   3.058 -2.1204 -2.0185  1.2684
  142MOL0     H19596   9.936   5.929   2.995 -0.1561  0.9103 -1.4457
  143MOL0     O19597   1.913   0.069   7.530 -0.2455 -0.0919  0.8784
  143MOL0     C19598   1.855   0.169   7.564  0.3375 -0.4450  0.0277
  143MOL0     O19599   1.834   0.210   7.694 -0.0122 -0.5097  0.6626
  143MOL0     C19600   1.885   0.127   7.787 -0.3508 -0.7554 -0.4996
  143MOL0     C19601   1.823   0.005   7.821  0.1406  0.3989 -0.2886
  143MOL0     C19602   1.874  -0.080   7.931 -1.2047 -0.8045 -0.0327
  143MOL0     C19603   1.988  -0.046   8.002  0.3896  0.1726  0.7181
  143MOL0     O19604   2.051  -0.131   8.094  0.3728  0.3130  0.5655
  143MOL0     C19605   1.963  -0.224   8.149 -0.3738 -0.3056 -0.2488
  143MOL0     C19606   2.055  -0.298   8.251  0.3342  0.8134  1.0724
  143MOL0     C19607   1.980  -0.424   8.288 -0.5543  0.1442 -1.4168
  143MOL0     C19608   2.062  -0.508   8.391 -0.3690  0.6229  0.2508
  143MOL0     C19609   2.169  -0.586   8.301  0.2462  0.0035 -1.2234
  143MOL0     C19610   2.272  -0.660   8.385  0.5552  0.1937  0.2794
  143MOL0     C19611   2.358  -0.744   8.298  0.1736  0.4565 -0.1039
  143MOL0     C19612   2.462  -0.811   8.385 -0.0462 -0.3841  0.6509
  143MOL0     N19613   2.463  -0.959   8.358  0.0869 -0.0710 -0.0765
  143MOL0     C19614   2.431  -1.021   8.242  0.6328  0.5799  0.1150
  143MOL0     C19615   2.457  -1.152   8.265  0.2929  0.6279 -0.2161
  143MOL0     C19616   2.432  -1.264   8.157  0.3940  0.0603 -1.0326
  143MOL0     C19617   2.552  -1.356   8.127 -1.1222 -0.2931  0.1291
  143MOL0     C19618   2.628  -1.414   8.249  0.0334  0.2556  0.3401
  143MOL0     C19619   2.559  -1.533   8.321  0.0034  0.3686 -0.0168
  143MOL0     O19620   2.632  -1.568   8.436 -0.1565 -0.1049  0.4959
  143MOL0     C19621   2.596  -1.676   8.516  0.1852  0.1506  0.2761
  143MOL0     C19622   2.660  -1.696   8.646 -0.1590 -0.5877  0.5357
  143MOL0     C19623   2.644  -1.805   8.726 -0.3667 -0.3361 -0.1458
  143MOL0     C19624   2.701  -1.791   8.865 -0.7009  0.7167  0.0567
  143MOL0     C19625   2.558  -1.913   8.677  0.2369 -0.2636  0.6603
  143MOL0     C19626   2.525  -2.037   8.752  0.2318  0.6492  0.5354
  143MOL0     O19627   2.496  -2.145   8.669  0.5719  0.0858 -0.0839
  143MOL0     C19628   2.465  -2.269   8.715 -0.2585  0.1578 -0.1037
  143MOL0     C19629   2.381  -2.351   8.642 -0.9079 -0.5354 -0.4742
  143MOL0     C19630   2.338  -2.469   8.700  0.8392 -0.7823 -0.1235
  143MOL0     C19631   2.391  -2.526   8.817  0.1848 -0.0804 -0.6980
  143MOL0     O19632   2.334  -2.643   8.859  0.0925  0.4726  0.7919
  143MOL0     C19633   2.432  -2.744   8.880  1.0949 -0.7887 -0.5779
  143MOL0     C19634   2.367  -2.886   8.889 -1.0700  0.9124  0.2192
  143MOL0     C19635   2.468  -2.996   8.848 -0.5354 -0.0357  0.0170
  143MOL0     C19636   2.595  -3.002   8.941 -1.0270  1.2191 -0.1980
  143MOL0     C19637   2.653  -3.139   8.914 -0.2621 -0.0684 -0.4014
  143MOL0     C19638   2.781  -3.163   8.984 -0.2045  0.6037  0.4522
  143MOL0     C19639   2.850  -3.290   8.930 -0.2402  0.1645 -1.1263
  143MOL0     C19640   2.963  -3.346   9.022  0.2191  0.9165 -0.0746
  143MOL0    Cl19641   2.897  -3.416   9.164 -0.6865  0.0640 -0.0854
  143MOL0     C19642   2.490  -2.461   8.884  0.7083  0.4099 -0.4101
  143MOL0     C19643   2.525  -2.332   8.838  0.0738  0.4968  0.7872
  143MOL0     O19644   2.527  -2.042   8.880 -0.4528 -0.0421 -0.3882
  143MOL0     C19645   2.506  -1.900   8.548 -0.0286 -0.5325 -0.7280
  143MOL0     C19646   2.517  -1.779   8.469  0.8129 -0.9927  0.0988
  143MOL0     N19647   2.473  -1.166   8.397 -0.3228  0.2817 -0.2744
  143MOL0     N19648   2.477  -1.048   8.454 -1.0085  0.0712 -0.3888
  143MOL0     C19649   2.046   0.084   7.966 -0.9029  0.6662  0.0566
  143MOL0     C19650   1.999   0.165   7.856  0.0357  0.0197 -0.9369
  143MOL0     C19651   1.786   0.248   7.458  0.2895  0.2332 -0.1219
  143MOL0     C19652   1.700   0.352   7.498 -0.3709 -0.3917  0.0057
  143MOL0     C19653   1.627   0.435   7.414  0.2338  0.0325  0.6626
  143MOL0     C19654   1.636   0.416   7.279 -0.3351 -0.1516 -1.0443
  143MOL0     O19655   1.574   0.499   7.190  0.1244 -0.1443  0.0416
  143MOL0     C19656   1.494   0.431   7.088 -0.3690  0.4061  0.2985
  143MOL0     C19657   1.424   0.537   7.002  0.8387  0.3190 -0.1983
  143MOL0     C19658   1.309   0.481   6.915 -0.2018  0.3886 -0.3147
  143MOL0     C19659   1.354   0.394   6.799 -0.0289  0.7092  0.2052
  143MOL0     C19660   1.246   0.379   6.706  0.2815 -0.3775 -0.0606
  143MOL0     C19661   1.143   0.373   6.635 -0.1265  0.7726 -0.7246
  143MOL0     C19662   1.717   0.312   7.230 -0.5350 -0.9322 -0.3933
  143MOL0     C19663   1.800   0.240   7.316 -0.2533  0.5439 -0.2449
  143MOL0     C19664   1.893   0.139   7.251 -0.0186 -0.6950  0.6636
  143MOL0     H19665   1.732  -0.015   7.766 -0.1707  1.4824 -0.1906
  143MOL0     H19666   1.821  -0.174   7.937  0.3905 -1.7633 -0.5321
  143MOL0     H19667   1.926  -0.293   8.072 -2.5190 -0.0385  0.4697
  143MOL0     H19668   1.877  -0.177   8.198  0.8104  0.6940  0.9205
  143MOL0     H19669   2.154  -0.325   8.213 -1.0616 -1.9527 -0.9768
  143MOL0     H19670   2.058  -0.233   8.339 -1.7840 -0.4816  2.1880
  143MOL0     H19671   1.890  -0.395   8.342  0.4948 -3.5612  2.9007
  143MOL0     H19672   1.955  -0.484   8.200  0.1777  1.5679 -2.6583
  143MOL0     H19673   2.110  -0.437   8.459 -0.6383  1.2380 -0.1828
  143MOL0     H19674   2.002  -0.582   8.446 -0.1516 -1.5092 -2.2135
  143MOL0     H19675   2.236  -0.508   8.262  2.1376  0.3035  2.1792
  143MOL0     H19676   2.126  -0.643   8.219  2.6027  0.5357 -2.9724
  143MOL0     H19677   2.327  -0.591   8.449  3.4419 -0.1283 -1.6618
  143MOL0     H19678   2.222  -0.731   8.451 -0.8996  0.6104 -0.3186
  143MOL0     H19679   2.406  -0.686   8.219  1.1079 -0.4439 -0.2326
  143MOL0     H19680   2.289  -0.815   8.252 -1.0971  1.9382 -0.5555
  143MOL0     H19681   2.560  -0.764   8.378  0.5350 -1.6897 -0.6939
  143MOL0     H19682   2.432  -0.800   8.489 -1.4427  6.0225 -0.0315
  143MOL0     H19683   2.417  -0.967   8.149  1.8829  5.2979  2.3741
  143MOL0     H19684   2.420  -1.213   8.062  1.3267  2.0970 -0.1189
  143MOL0     H19685   2.345  -1.322   8.190 -0.6490  2.2271  0.2974
  143MOL0     H19686   2.525  -1.430   8.051  1.9160 -1.1257 -0.2708
  143MOL0     H19687   2.627  -1.295   8.075 -0.2713 -1.1359  0.3424
  143MOL0     H19688   2.725  -1.438   8.206  0.3108  0.5117  0.8200
  143MOL0     H19689   2.646  -1.325   8.309  1.6410  0.6655 -0.6959
  143MOL0     H19690   2.458  -1.505   8.354  0.3305 -0.2233  1.6154
  143MOL0     H19691   2.544  -1.619   8.256  0.5308 -1.9904  2.7399
  143MOL0     H19692   2.720  -1.613   8.683 -0.4811  1.8850 -3.7498
  143MOL0     H19693   2.734  -1.890   8.899  1.1205  0.3029 -2.5907
  143MOL0     H19694   2.634  -1.743   8.937  0.6261 -0.2363  2.0122
  143MOL0     H19695   2.792  -1.731   8.875  1.5885 -1.8973 -3.0261
  143MOL0     H19696   2.350  -2.326   8.541  0.0903  1.0479 -0.4351
  143MOL0     H19697   2.263  -2.531   8.652  0.4804 -0.8083  0.4507
  143MOL0     H19698   2.518  -2.746   8.812  1.7017  0.2142  0.1322
  143MOL0     H19699   2.473  -2.714   8.977  1.8471 -2.3296 -0.3931
  143MOL0     H19700   2.329  -2.910   8.988  1.8348 -0.8211  1.0386
  143MOL0     H19701   2.284  -2.888   8.817 -0.0182  0.9214 -1.0364
  143MOL0     H19702   2.511  -2.975   8.750  0.7505  1.7359  0.9114
  143MOL0     H19703   2.405  -3.086   8.855 -1.0490  0.4153  2.3270
  143MOL0     H19704   2.561  -2.986   9.044  0.5872  1.2365  0.3548
  143MOL0     H19705   2.664  -2.923   8.912  2.7719 -1.5516  0.5367
  143MOL0     H19706   2.573  -3.208   8.941 -0.6326  1.3110  2.3135
  143MOL0     H19707   2.675  -3.147   8.807  1.5935  0.6537 -0.1173
  143MOL0     H19708   2.751  -3.194   9.084  1.6348 -2.3462  0.2326
  143MOL0     H19709   2.840  -3.071   8.985 -0.1837  1.1233 -5.9361
  143MOL0     H19710   2.904  -3.264   8.838 -0.1027  1.2249 -0.7632
  143MOL0     H19711   2.782  -3.374   8.911  1.1503 -1.3179  0.1378
  143MOL0     H19712   3.028  -3.262   9.046 -1.9481  2.6644  0.0085
  143MOL0     H19713   3.020  -3.423   8.970  2.0812  0.1129  2.9382
  143MOL0     H19714   2.509  -2.507   8.980 -2.9714  1.3498  0.9089
  143MOL0     H19715   2.611  -2.283   8.883  1.6218  2.9043 -4.0916
  143MOL0     H19716   2.448  -1.982   8.506  0.6172 -0.7489 -1.2119
  143MOL0     H19717   2.454  -1.765   8.382 -0.2183  3.1433  1.3258
  143MOL0     H19718   2.130   0.115   8.028  0.4828 -1.1452 -0.8166
  143MOL0     H19719   2.053   0.258   7.845 -1.6962  1.1189 -0.5043
  143MOL0     H19720   1.683   0.371   7.603 -1.9614 -1.5348 -0.0162
  143MOL0     H19721   1.563   0.516   7.447  2.7896  1.6127  2.0610
  143MOL0     H19722   1.554   0.367   7.023 -0.6981 -0.8139  1.1590
  143MOL0     H19723   1.427   0.365   7.145  0.2583 -2.3140 -1.9216
  143MOL0     H19724   1.497   0.590   6.939 -0.1407  2.9235  0.7056
  143MOL0     H19725   1.376   0.607   7.071  2.1890 -0.5211  1.6878
  143MOL0     H19726   1.242   0.421   6.978  3.0893 -0.5706  2.5650
  143MOL0     H19727   1.266   0.569   6.865  3.5914  1.7214 -1.5556
  143MOL0     H19728   1.389   0.293   6.825 -1.2963  0.6282  1.7749
  143MOL0     H19729   1.432   0.448   6.745 -0.5996 -2.1254 -3.9680
  143MOL0     H19730   1.075   0.372   6.553 -0.5380 -1.0489 -0.4119
  143MOL0     H19731   1.738   0.302   7.123 -0.6507 -5.4055 -0.2015
  143MOL0     H19732   1.889   0.131   7.142  1.1712 -1.8855  0.6817
  143MOL0     H19733   1.998   0.160   7.274 -0.3172  1.2448  0.3772
  143MOL0     H19734   1.858   0.041   7.286 -0.6597 -0.0052  2.0321
  144MOL0     O19735   8.281   8.293   9.514 -0.0684 -0.0040 -0.8658
  144MOL0     C19736   8.340   8.403   9.520  0.6715 -0.5341  0.4256
  144MOL0     O19737   8.368   8.475   9.406 -0.1894 -0.0371 -0.0947
  144MOL0     C19738   8.338   8.431   9.277 -0.0762  0.8862 -0.6606
  144MOL0     C19739   8.248   8.498   9.189  0.1938  0.4239 -0.6852
  144MOL0     C19740   8.224   8.454   9.061 -0.0660  0.0445 -0.4333
  144MOL0     C19741   8.294   8.344   9.008 -0.3850 -0.0714 -1.1182
  144MOL0     O19742   8.261   8.337   8.876 -0.5622  0.3292  0.3173
  144MOL0     C19743   8.334   8.247   8.788 -0.2666  0.5247  0.3718
  144MOL0     C19744   8.277   8.112   8.799  0.5420 -0.4442  0.4412
  144MOL0     C19745   8.143   8.100   8.719  0.3753 -0.4434  0.9011
  144MOL0     C19746   8.083   7.961   8.720 -0.1773 -0.4764 -0.4404
  144MOL0     C19747   7.932   7.951   8.678 -0.6694 -0.1931 -0.0024
  144MOL0     C19748   7.895   7.807   8.662  0.4328 -0.6544 -0.0315
  144MOL0     C19749   7.751   7.780   8.626 -0.8189  0.4938  1.1587
  144MOL0     C19750   7.634   7.825   8.717  0.8980  0.6763  0.2602
  144MOL0     N19751   7.634   7.771   8.853 -0.3212  0.5389 -0.5073
  144MOL0     C19752   7.725   7.818   8.942 -0.6174 -0.0537 -0.1612
  144MOL0     C19753   7.718   7.721   9.038  0.2610  0.9936  0.8628
  144MOL0     C19754   7.792   7.705   9.163  0.1449  0.3024 -0.1367
  144MOL0     C19755   7.914   7.618   9.132 -0.2534 -0.1269 -0.6814
  144MOL0     C19756   8.017   7.615   9.240 -0.1397  0.1780  0.3946
  144MOL0     C19757   7.979   7.563   9.381  0.4596  0.1881 -0.6629
  144MOL0     O19758   8.050   7.625   9.486  0.8390  0.9497 -0.7358
  144MOL0     C19759   7.989   7.597   9.610 -0.4077  0.5749 -0.2918
  144MOL0     C19760   7.882   7.673   9.664 -0.2387 -0.3331 -0.3294
  144MOL0     C19761   7.817   7.646   9.790 -0.0443 -0.3714  0.0028
  144MOL0     C19762   7.702   7.735   9.840 -0.5071 -0.5043  0.3480
  144MOL0     C19763   7.861   7.535   9.860  0.1316 -0.4407 -1.0063
  144MOL0     C19764   7.797   7.497   9.993  0.1174 -0.1294 -0.7208
  144MOL0     O19765   7.780   7.365  10.025 -0.8418 -0.8102  0.1848
  144MOL0     C19766   7.694   7.330  10.135  0.2751 -0.1224 -0.5965
  144MOL0     C19767   7.566   7.279  10.103 -0.2513  0.5435 -0.1809
  144MOL0     C19768   7.471   7.257  10.203  0.1025  0.4506  0.7341
  144MOL0     C19769   7.503   7.270  10.337 -0.4330 -0.6998  0.0541
  144MOL0     O19770   7.412   7.249  10.442  0.1855  0.5004 -0.7654
  144MOL0     C19771   7.273   7.216  10.413  0.8920 -0.0872  0.2185
  144MOL0     C19772   7.186   7.245  10.535  0.0033  0.1352 -0.2549
  144MOL0     C19773   7.174   7.122  10.628  0.5117  0.0797  0.1475
  144MOL0     C19774   7.129   7.156  10.771  1.0278  0.3452 -0.2728
  144MOL0     C19775   7.065   7.028  10.836 -0.2408 -0.7971 -0.0100
  144MOL0     C19776   7.035   7.038  10.981 -0.1372 -0.3095 -0.1985
  144MOL0     C19777   6.971   6.908  11.022  1.3471  0.7895  0.3318
  144MOL0     C19778   6.923   6.914  11.168 -0.9394 -0.3104  0.4362
  144MOL0    Cl19779   6.785   7.032  11.166  0.2777  0.0471 -0.5559
  144MOL0     C19780   7.631   7.315  10.376  0.2724  0.2214 -0.0190
  144MOL0     C19781   7.721   7.342  10.275 -0.4827  0.4738 -0.2363
  144MOL0     O19782   7.762   7.591  10.070 -1.1543 -0.1358 -0.1694
  144MOL0     C19783   7.972   7.464   9.812  0.5772 -0.3556  0.1542
  144MOL0     C19784   8.036   7.493   9.690 -0.5080 -0.8917  0.1110
  144MOL0     N19785   7.633   7.621   8.993  0.0981 -0.1259  0.1681
  144MOL0     N19786   7.568   7.662   8.896 -0.6583 -0.0148  0.8202
  144MOL0     C19787   8.392   8.274   9.089  0.3050  0.6558 -0.5538
  144MOL0     C19788   8.409   8.316   9.224  0.1027 -0.0514 -0.7358
  144MOL0     C19789   8.377   8.462   9.657  0.3526 -0.2574  0.2272
  144MOL0     C19790   8.323   8.390   9.765  0.1542 -0.1554 -0.5332
  144MOL0     C19791   8.329   8.443   9.894 -1.0616  0.0295  0.1294
  144MOL0     C19792   8.391   8.572   9.910  0.2997  0.2789 -0.3386
  144MOL0     O19793   8.408   8.637  10.031 -0.0743  0.2214  0.3599
  144MOL0     C19794   8.411   8.561  10.154 -0.1861  0.0130 -0.3891
  144MOL0     C19795   8.523   8.618  10.252  0.5967 -0.7178  0.1459
  144MOL0     C19796   8.528   8.783  10.246  0.2238 -0.4308  1.1449
  144MOL0     C19797   8.389   8.843  10.277 -0.9027  0.6203  0.2513
  144MOL0     C19798   8.352   8.802  10.409  0.7182 -0.1167 -0.8977
  144MOL0     C19799   8.303   8.766  10.509  0.1924  2.0081 -0.3176
  144MOL0     C19800   8.430   8.646   9.800  0.1241 -0.5362 -0.5712
  144MOL0     C19801   8.439   8.585   9.675  0.4062 -0.5355 -0.1762
  144MOL0     C19802   8.490   8.675   9.561  0.4194  0.0568  0.0116
  144MOL0     H19803   8.202   8.590   9.223  2.2743  0.8874  1.0608
  144MOL0     H19804   8.154   8.501   8.992  0.6225 -0.8172 -1.7493
  144MOL0     H19805   8.440   8.251   8.811 -0.5579 -0.7289  2.0939
  144MOL0     H19806   8.316   8.284   8.686 -0.3717  0.9298  0.5335
  144MOL0     H19807   8.342   8.048   8.738  1.1605  2.3786 -2.1580
  144MOL0     H19808   8.270   8.087   8.905 -0.8705 -0.2819  0.3950
  144MOL0     H19809   8.060   8.166   8.747  0.4640 -0.9308  2.3898
  144MOL0     H19810   8.164   8.120   8.614 -0.3157  1.3544  1.0571
  144MOL0     H19811   8.142   7.905   8.647 -0.2154 -0.2886 -0.6135
  144MOL0     H19812   8.086   7.929   8.825  0.3729 -1.6967 -0.8143
  144MOL0     H19813   7.911   8.010   8.588  0.5115  0.5431  0.1927
  144MOL0     H19814   7.862   7.987   8.754  0.0263  1.6350 -0.1794
  144MOL0     H19815   7.946   7.770   8.573  2.1790  0.3060  0.5278
  144MOL0     H19816   7.916   7.740   8.746 -0.7015  0.1525  0.9294
  144MOL0     H19817   7.742   7.672   8.638  0.5628  0.3747  1.2509
  144MOL0     H19818   7.722   7.803   8.523 -1.4098 -3.4025  0.3239
  144MOL0     H19819   7.646   7.932   8.737  0.1030  0.4499  2.2127
  144MOL0     H19820   7.539   7.814   8.664  1.3083  3.0029 -1.1050
  144MOL0     H19821   7.777   7.913   8.950 -0.9918  0.0699  0.9393
  144MOL0     H19822   7.723   7.649   9.227 -2.7658  1.5552 -1.9912
  144MOL0     H19823   7.824   7.802   9.200  1.7548 -0.4266  0.4804
  144MOL0     H19824   7.871   7.518   9.119  0.8014 -0.8764  1.2109
  144MOL0     H19825   7.955   7.641   9.033 -4.1184 -3.3327 -3.3640
  144MOL0     H19826   8.091   7.545   9.200 -2.7071 -0.2993 -4.2140
  144MOL0     H19827   8.059   7.716   9.249 -3.1735  1.4462  1.6556
  144MOL0     H19828   7.873   7.575   9.406 -1.1782 -2.9895 -4.8193
  144MOL0     H19829   7.985   7.454   9.388 -0.3924  0.1832  0.3432
  144MOL0     H19830   7.857   7.764   9.610 -1.1327 -0.6797 -0.5144
  144MOL0     H19831   7.725   7.788   9.932 -0.6926 -0.5628  0.4300
  144MOL0     H19832   7.615   7.669   9.853 -2.1772  1.6002  0.4908
  144MOL0     H19833   7.674   7.812   9.767  4.0122  1.1549  0.0563
  144MOL0     H19834   7.538   7.262  10.000  1.6549  0.8387 -0.7868
  144MOL0     H19835   7.369   7.227  10.184  0.7435 -1.3679 -0.0639
  144MOL0     H19836   7.229   7.277  10.334 -3.0581  0.5570  2.6113
  144MOL0     H19837   7.267   7.112  10.382  0.5972 -0.3041  0.9830
  144MOL0     H19838   7.220   7.336  10.587  0.8511  1.3757 -2.8266
  144MOL0     H19839   7.090   7.278  10.495  0.3038  0.8982 -0.3665
  144MOL0     H19840   7.267   7.066  10.619 -0.8245 -2.1918 -0.2378
  144MOL0     H19841   7.095   7.063  10.580  1.0196  2.1747 -3.6701
  144MOL0     H19842   7.045   7.225  10.760  1.5882  0.9157 -1.1508
  144MOL0     H19843   7.213   7.186  10.834 -0.0880 -1.0072  1.9753
  144MOL0     H19844   6.970   7.006  10.787 -2.1959  0.3749  3.0058
  144MOL0     H19845   7.131   6.942  10.820 -0.2834 -1.1410  1.5039
  144MOL0     H19846   6.982   7.133  10.995  0.8986  0.3656 -0.6674
  144MOL0     H19847   7.135   7.047  11.026 -0.4908  0.1963  0.5059
  144MOL0     H19848   7.025   6.814  11.003  0.7481  0.6780 -0.9103
  144MOL0     H19849   6.879   6.902  10.963 -0.8546 -2.3783  3.6447
  144MOL0     H19850   7.003   6.942  11.238 -2.7426  0.7142  2.1718
  144MOL0     H19851   6.892   6.815  11.201  1.0483 -0.3607  2.3894
  144MOL0     H19852   7.658   7.300  10.480  3.3957 -1.8639 -0.9876
  144MOL0     H19853   7.817   7.382  10.305  0.1766 -3.1804  3.3428
  144MOL0     H19854   8.014   7.391   9.880 -0.4083 -0.8241  0.2775
  144MOL0     H19855   8.115   7.431   9.650 -0.9869 -0.5251 -1.4533
  144MOL0     H19856   8.446   8.186   9.054 -1.4867 -0.8294  0.2668
  144MOL0     H19857   8.480   8.267   9.290  1.7981  2.2360 -0.7111
  144MOL0     H19858   8.288   8.289   9.748 -0.3568 -0.0546 -0.0965
  144MOL0     H19859   8.305   8.381   9.980  2.8967 -1.5256  0.3078
  144MOL0     H19860   8.312   8.559  10.199 -1.0073 -0.7127 -2.1549
  144MOL0     H19861   8.441   8.458  10.132  1.4336 -0.2664  2.5259
  144MOL0     H19862   8.623   8.579  10.231  1.0438  0.6110 -0.2662
  144MOL0     H19863   8.502   8.591  10.355  0.7324 -0.7958  0.1540
  144MOL0     H19864   8.607   8.828  10.307  1.2551 -0.8305  0.1477
  144MOL0     H19865   8.554   8.811  10.143  3.6986 -0.9712  1.7669
  144MOL0     H19866   8.313   8.818  10.203  0.2151 -1.1273 -0.3644
  144MOL0     H19867   8.387   8.952  10.265  0.1011  0.4249 -2.2311
  144MOL0     H19868   8.262   8.739  10.604 -2.9762 -1.0268 -2.2957
  144MOL0     H19869   8.476   8.743   9.818  0.6962 -1.1770  1.6643
  144MOL0     H19870   8.556   8.622   9.492 -3.3337 -2.3191 -2.1234
  144MOL0     H19871   8.405   8.717   9.506 -2.4141 -1.1284  3.1047
  144MOL0     H19872   8.539   8.763   9.604 -1.3560  1.8301 -1.4278
  145MOL0     O19873   0.895   9.608   3.380 -0.7201  0.7632 -0.1017
  145MOL0     C19874   0.908   9.541   3.283 -0.1064 -0.9397 -0.1056
  145MOL0     O19875   0.800   9.485   3.220 -0.5536  0.6548  0.0124
  145MOL0     C19876   0.682   9.460   3.288  0.4714  0.2487 -0.2583
  145MOL0     C19877   0.633   9.512   3.413  0.1575 -0.1719  0.2161
  145MOL0     C19878   0.500   9.483   3.451  0.3265  0.7622 -0.0271
  145MOL0     C19879   0.432   9.384   3.388 -0.3678 -0.0714  0.3792
  145MOL0     O19880   0.326   9.338   3.458  0.6595 -0.6556  0.3745
  145MOL0     C19881   0.262   9.214   3.433 -0.0111  0.8900  0.7521
  145MOL0     C19882   0.356   9.085   3.437  0.8926 -0.1901 -0.0289
  145MOL0     C19883   0.281   8.946   3.445 -0.1261  0.0643 -0.1442
  145MOL0     C19884   0.388   8.833   3.454 -0.0944 -0.0004  0.2982
  145MOL0     C19885   0.495   8.844   3.556  0.1365 -0.6587 -0.6034
  145MOL0     C19886   0.448   8.853   3.702  0.3504  0.2743 -0.5093
  145MOL0     C19887   0.403   8.709   3.753  0.5327  0.1313  0.6545
  145MOL0     C19888   0.341   8.723   3.891 -0.5169 -0.3066  0.9077
  145MOL0     N19889   0.208   8.784   3.894  0.7240 -0.0416 -0.3856
  145MOL0     C19890   0.143   8.795   4.009  0.3586 -0.3341  0.7675
  145MOL0     C19891   0.014   8.820   3.978  0.0484 -0.5206  0.0291
  145MOL0     C19892  -0.093   8.846   4.076 -0.0159  0.4027 -0.4780
  145MOL0     C19893  -0.128   8.718   4.156 -0.2452  0.5601 -0.4873
  145MOL0     C19894  -0.224   8.631   4.078  1.0645 -0.5580 -0.5707
  145MOL0     C19895  -0.271   8.510   4.167  0.4729 -0.7087 -0.1841
  145MOL0     O19896  -0.383   8.445   4.094 -0.3657 -0.8558 -0.2973
  145MOL0     C19897  -0.445   8.341   4.160 -0.2989 -0.0514  0.4859
  145MOL0     C19898  -0.523   8.250   4.087  1.0704 -0.3795  0.2525
  145MOL0     C19899  -0.598   8.151   4.149 -0.0972  0.3533  0.6929
  145MOL0     C19900  -0.655   8.044   4.053 -0.2238 -0.0659  0.2503
  145MOL0     C19901  -0.608   8.143   4.293  0.2626 -0.2288  0.4825
  145MOL0     C19902  -0.701   8.060   4.367  0.0534  0.1627 -0.2844
  145MOL0     O19903  -0.663   8.047   4.490  0.1631  0.0175  0.6006
  145MOL0     C19904  -0.726   7.948   4.560  0.3782 -0.7199  0.8728
  145MOL0     C19905  -0.685   7.811   4.564 -0.1981  0.0114  0.7705
  145MOL0     C19906  -0.740   7.715   4.647  0.5522  0.5844 -0.2866
  145MOL0     C19907  -0.848   7.753   4.728  0.1074 -0.1548 -0.6636
  145MOL0     O19908  -0.917   7.672   4.820 -0.4538  0.1837  0.2551
  145MOL0     C19909  -0.859   7.538   4.839 -0.7722  0.6668 -0.6171
  145MOL0     C19910  -0.932   7.454   4.945 -0.3010 -0.2543  0.8261
  145MOL0     C19911  -1.082   7.427   4.902  0.0621 -0.3095 -0.5852
  145MOL0     C19912  -1.104   7.283   4.851 -0.0531  0.4772  0.3741
  145MOL0     C19913  -1.246   7.239   4.819 -0.8271  0.3727 -0.1459
  145MOL0     C19914  -1.254   7.093   4.777  0.7829  1.1277 -0.8223
  145MOL0     C19915  -1.146   7.048   4.682 -0.3021  0.6801  0.3595
  145MOL0     C19916  -1.190   6.911   4.627 -0.2888 -0.4303 -0.1251
  145MOL0    Cl19917  -1.245   6.796   4.755 -0.4819  0.1144  0.1022
  145MOL0     C19918  -0.889   7.884   4.730  0.7388 -1.1349  0.8061
  145MOL0     C19919  -0.829   7.976   4.647 -0.5236 -0.0285 -0.5629
  145MOL0     O19920  -0.812   8.017   4.325 -0.2425  0.0848  0.1868
  145MOL0     C19921  -0.518   8.231   4.362  0.9816  0.6354 -0.4074
  145MOL0     C19922  -0.437   8.323   4.296  0.0498  0.0382  0.3338
  145MOL0     N19923  -0.003   8.789   3.848 -0.2097 -0.6048 -0.2258
  145MOL0     N19924   0.113   8.767   3.803 -0.8835  1.3513  0.4884
  145MOL0     C19925   0.478   9.329   3.267  0.3025 -0.5162 -0.7435
  145MOL0     C19926   0.602   9.378   3.216 -0.3331  0.3166 -1.0748
  145MOL0     C19927   1.031   9.545   3.212 -0.5561  0.2944 -0.1135
  145MOL0     C19928   1.087   9.671   3.179  0.0563 -0.0487 -0.0668
  145MOL0     C19929   1.194   9.681   3.089 -0.6968  0.3034  0.6247
  145MOL0     C19930   1.266   9.569   3.050  0.6653  0.4075 -0.5580
  145MOL0     O19931   1.378   9.593   2.969  0.4965 -0.2078 -0.0444
  145MOL0     C19932   1.472   9.482   2.961 -0.8482  0.2579  0.6397
  145MOL0     C19933   1.610   9.530   2.953  0.6479  0.0337  0.9712
  145MOL0     C19934   1.649   9.646   3.044 -0.2715 -0.8603 -0.2430
  145MOL0     C19935   1.738   9.608   3.160  0.0504  0.3655  0.0379
  145MOL0     C19936   1.773   9.728   3.238  0.8954 -1.0544 -0.1003
  145MOL0     C19937   1.812   9.839   3.270 -0.5633  0.2990 -0.8522
  145MOL0     C19938   1.210   9.444   3.090  0.2157 -0.1660 -0.3656
  145MOL0     C19939   1.097   9.428   3.164  0.2483  0.0719 -0.4289
  145MOL0     C19940   1.047   9.285   3.195  0.5450  0.7513 -1.0621
  145MOL0     H19941   0.690   9.587   3.468  1.8274  0.0650 -1.7062
  145MOL0     H19942   0.460   9.551   3.526  1.4528  3.5876 -1.7889
  145MOL0     H19943   0.207   9.221   3.339 -1.2070  0.0239  1.3630
  145MOL0     H19944   0.186   9.200   3.510 -0.1158 -5.0006  0.0342
  145MOL0     H19945   0.418   9.073   3.347 -0.1017 -1.9992 -0.5190
  145MOL0     H19946   0.431   9.111   3.512  1.4859  0.7175 -0.8995
  145MOL0     H19947   0.200   8.932   3.517 -1.5170  0.9812 -1.4380
  145MOL0     H19948   0.228   8.950   3.349 -0.5249  1.2806  0.1075
  145MOL0     H19949   0.335   8.738   3.447  0.2207 -0.0510 -2.1276
  145MOL0     H19950   0.446   8.822   3.362  0.3924 -0.6054  0.6692
  145MOL0     H19951   0.541   8.940   3.532 -2.8213  1.1339  0.3329
  145MOL0     H19952   0.580   8.777   3.541  0.1063 -0.7053 -0.5635
  145MOL0     H19953   0.521   8.902   3.766 -2.1744 -0.9350  3.7149
  145MOL0     H19954   0.355   8.909   3.710 -0.4373 -0.1532 -4.4933
  145MOL0     H19955   0.493   8.647   3.749  0.5898  0.2592 -1.9002
  145MOL0     H19956   0.331   8.658   3.688  3.1724 -0.2583 -2.2399
  145MOL0     H19957   0.332   8.620   3.926 -4.8654 -1.1724 -2.0011
  145MOL0     H19958   0.411   8.785   3.948  0.2527  0.5454 -0.8556
  145MOL0     H19959   0.174   8.783   4.112  1.3213 -0.3350  0.4920
  145MOL0     H19960  -0.184   8.881   4.025 -1.5550 -0.0015  1.8018
  145MOL0     H19961  -0.061   8.930   4.138  3.2594  0.6883 -2.3453
  145MOL0     H19962  -0.033   8.663   4.163 -0.4969 -0.1709 -2.3388
  145MOL0     H19963  -0.172   8.754   4.249 -0.1101  0.2660 -0.3068
  145MOL0     H19964  -0.309   8.692   4.045 -0.9481 -3.0580 -0.3949
  145MOL0     H19965  -0.184   8.587   3.986  0.3228  0.5471 -1.4539
  145MOL0     H19966  -0.190   8.441   4.195  2.8413  1.6864 -0.7681
  145MOL0     H19967  -0.307   8.561   4.257  1.3960  1.4584 -0.9830
  145MOL0     H19968  -0.543   8.270   3.983  1.6661  0.3497  0.2691
  145MOL0     H19969  -0.576   7.972   4.029  1.0825  1.2593  0.3781
  145MOL0     H19970  -0.690   8.090   3.959 -4.2852 -3.2282 -0.0407
  145MOL0     H19971  -0.753   8.002   4.074 -0.1435  0.5158  1.9141
  145MOL0     H19972  -0.599   7.792   4.501 -0.9587  1.8475 -0.9098
  145MOL0     H19973  -0.698   7.615   4.647  2.6571  1.3721  1.7701
  145MOL0     H19974  -0.848   7.485   4.744  0.0214  0.0630 -0.1895
  145MOL0     H19975  -0.757   7.550   4.877 -0.4637 -3.0685  0.0729
  145MOL0     H19976  -0.889   7.356   4.965  0.1588 -0.5224 -1.3247
  145MOL0     H19977  -0.932   7.519   5.034  0.3127  0.3338  0.4097
  145MOL0     H19978  -1.116   7.493   4.822 -0.1747 -0.9277 -1.0044
  145MOL0     H19979  -1.139   7.452   4.991  2.0022  1.3379  0.2783
  145MOL0     H19980  -1.069   7.211   4.925  0.8164  0.5486  0.0422
  145MOL0     H19981  -1.033   7.276   4.768 -1.8086  0.6404 -1.2180
  145MOL0     H19982  -1.302   7.241   4.912 -1.3270 -2.7131 -0.2687
  145MOL0     H19983  -1.285   7.312   4.748  1.1473  1.5538 -0.0748
  145MOL0     H19984  -1.354   7.090   4.732  0.9092  0.4013 -1.0708
  145MOL0     H19985  -1.258   7.032   4.868  2.4582 -0.0981 -1.5118
  145MOL0     H19986  -1.044   7.043   4.722  0.4099 -0.7633 -1.4766
  145MOL0     H19987  -1.150   7.120   4.600  1.1842 -0.6085 -0.9061
  145MOL0     H19988  -1.115   6.854   4.573 -0.6165 -2.0109  1.0335
  145MOL0     H19989  -1.262   6.938   4.549 -0.3882  2.6060  0.8557
  145MOL0     H19990  -0.978   7.911   4.786  0.4268 -2.1086  0.8048
  145MOL0     H19991  -0.851   8.082   4.644 -0.3213 -0.0054 -2.1740
  145MOL0     H19992  -0.523   8.231   4.470  2.0001 -2.0487 -0.2887
  145MOL0     H19993  -0.374   8.383   4.362  0.8849 -1.0165  0.5218
  145MOL0     H19994   0.424   9.251   3.215 -1.9628  0.0803  0.5824
  145MOL0     H19995   0.631   9.340   3.118  0.8379  2.1163 -1.4576
  145MOL0     H19996   1.044   9.764   3.214  0.4233  0.1728 -0.2046
  145MOL0     H19997   1.246   9.774   3.069  0.5582 -0.4546  0.2329
  145MOL0     H19998   1.468   9.425   3.054 -0.1633 -2.4785 -0.9067
  145MOL0     H19999   1.455   9.407   2.883  1.5915 -1.0970  1.3010
  145MOL0     H20000   1.613   9.552   2.846  1.3530  1.4155  1.2459
  145MOL0     H20001   1.689   9.455   2.966  1.1108  0.3226 -0.0696
  145MOL0     H20002   1.697   9.724   2.984 -1.8620  1.5041  1.3854
  145MOL0     H20003   1.554   9.691   3.074 -0.0832 -0.1174 -0.7421
  145MOL0     H20004   1.826   9.562   3.115 -0.3826 -1.1509  0.6793
  145MOL0     H20005   1.692   9.531   3.222  2.0805 -0.3369  0.7567
  145MOL0     H20006   1.848   9.933   3.306  0.8042 -0.2798 -0.6323
  145MOL0     H20007   1.261   9.353   3.060  1.9203  1.6323 -3.4566
  145MOL0     H20008   0.969   9.243   3.131 -0.1126 -2.0801  1.4014
  145MOL0     H20009   1.123   9.206   3.198 -1.3634 -1.1464 -0.5466
  145MOL0     H20010   1.003   9.285   3.295  3.7236 -2.0416  0.5470
  146MOL0     O20011  10.011   6.183   7.489  0.0702  0.6091  0.0960
  146MOL0     C20012  10.008   6.066   7.449 -0.3752 -0.5782 -0.3172
  146MOL0     O20013   9.952   5.960   7.521  0.4796  0.4589  0.1962
  146MOL0     C20014   9.879   5.970   7.634  0.1475 -0.2468  0.6641
  146MOL0     C20015   9.940   6.003   7.756  0.0835  0.3869  0.9859
  146MOL0     C20016   9.863   6.015   7.870  0.5126 -0.3008  0.2462
  146MOL0     C20017   9.721   6.007   7.872  0.3576 -0.2321 -0.7065
  146MOL0     O20018   9.636   6.016   7.984  0.0432 -0.4927 -0.2878
  146MOL0     C20019   9.710   6.031   8.111 -0.5471  0.0583  0.1298
  146MOL0     C20020   9.619   6.032   8.243 -0.3211  0.2447  0.8467
  146MOL0     C20021   9.585   5.897   8.302 -0.3325  0.1850 -0.1558
  146MOL0     C20022   9.700   5.836   8.386  0.3852  0.1076 -0.6975
  146MOL0     C20023   9.651   5.704   8.449 -0.0104  0.4278 -0.8252
  146MOL0     C20024   9.775   5.642   8.527  0.4018 -0.1727  0.1000
  146MOL0     C20025   9.871   5.572   8.434  1.0692  0.8981  0.7019
  146MOL0     C20026   9.805   5.451   8.360 -0.9456  0.1850 -0.5585
  146MOL0     N20027   9.914   5.360   8.321  0.1493 -0.1101  0.2315
  146MOL0     C20028  10.039   5.388   8.265  0.0585  0.3459 -0.1281
  146MOL0     C20029  10.094   5.257   8.244  1.0303  0.0770 -1.4638
  146MOL0     C20030  10.210   5.211   8.162 -0.5969  0.3126  0.5158
  146MOL0     C20031  10.304   5.324   8.112  0.3452 -0.2733  0.2693
  146MOL0     C20032  10.393   5.255   7.998 -0.3192  0.4961  0.2965
  146MOL0     C20033  10.526   5.331   7.981  0.2603  0.3663 -0.6340
  146MOL0     O20034  10.511   5.470   7.962 -0.4485  0.3512  0.7105
  146MOL0     C20035  10.568   5.523   7.848 -0.0780 -0.4099  0.9539
  146MOL0     C20036  10.550   5.474   7.717  0.6437  0.1167 -0.0487
  146MOL0     C20037  10.615   5.519   7.601  0.1738 -1.0579 -0.5984
  146MOL0     C20038  10.584   5.446   7.476  0.0118  0.2799 -1.4655
  146MOL0     C20039  10.711   5.624   7.614  0.0329  1.5828 -0.3227
  146MOL0     C20040  10.788   5.678   7.506 -0.6660  0.3066 -0.4121
  146MOL0     O20041  10.734   5.668   7.380  0.4278  0.3851  0.0288
  146MOL0     C20042  10.820   5.702   7.280 -0.2069  0.7739 -0.0704
  146MOL0     C20043  10.784   5.802   7.196 -0.1954 -0.7913 -0.2657
  146MOL0     C20044  10.870   5.847   7.102  1.1878  0.9337  0.2958
  146MOL0     C20045  10.987   5.774   7.084 -0.2718 -0.4407 -0.6058
  146MOL0     O20046  11.080   5.806   6.991  0.2188  0.1669 -0.8186
  146MOL0     C20047  11.038   5.887   6.882  0.0759 -0.3990 -0.8485
  146MOL0     C20048  11.170   5.932   6.803 -0.1175  0.4125  0.0664
  146MOL0     C20049  11.120   6.049   6.699  0.3172 -0.0043 -0.7191
  146MOL0     C20050  11.029   6.003   6.591  0.7367  0.3031  0.2837
  146MOL0     C20051  11.003   6.117   6.495 -0.5301 -0.3399  0.0231
  146MOL0     C20052  11.011   6.073   6.350  0.7729 -0.2963  0.1256
  146MOL0     C20053  11.159   6.059   6.284  0.2330 -0.5316 -0.0531
  146MOL0     C20054  11.155   6.026   6.132 -0.2775 -0.7433  0.1114
  146MOL0    Cl20055  11.071   5.865   6.093 -0.3637 -0.2107 -0.5614
  146MOL0     C20056  11.021   5.662   7.158  0.0241 -0.2573 -0.6070
  146MOL0     C20057  10.932   5.614   7.251  0.7943  0.1901  0.4846
  146MOL0     O20058  10.891   5.737   7.536  0.8432 -0.1011 -0.2097
  146MOL0     C20059  10.725   5.676   7.744  0.2630  0.5805 -0.5117
  146MOL0     C20060  10.653   5.634   7.858  0.2066 -0.1490  0.2979
  146MOL0     N20061  10.012   5.164   8.297  1.0380 -0.7228  0.6969
  146MOL0     N20062   9.910   5.229   8.355  0.0795  0.9450  0.3612
  146MOL0     C20063   9.662   5.982   7.747  0.3809 -0.2989 -0.6281
  146MOL0     C20064   9.735   5.958   7.635 -0.4222  0.0098  0.4621
  146MOL0     C20065  10.068   6.051   7.313  0.3026  0.6761 -0.0314
  146MOL0     C20066  10.015   5.943   7.246 -0.2837 -0.1328 -0.4330
  146MOL0     C20067  10.051   5.900   7.120 -1.2235  0.2072  0.4532
  146MOL0     C20068  10.158   5.958   7.057 -0.4356  0.3931  1.1109
  146MOL0     O20069  10.178   5.919   6.924 -0.1234 -0.3471  0.3012
  146MOL0     C20070  10.210   5.787   6.892 -0.2022 -0.2818  0.3977
  146MOL0     C20071  10.323   5.724   6.976  0.2939 -0.1344 -0.0712
  146MOL0     C20072  10.448   5.810   6.988 -0.4411 -1.1848 -1.1727
  146MOL0     C20073  10.521   5.822   6.860  0.8449 -0.2903 -0.0926
  146MOL0     C20074  10.600   5.948   6.864  0.5861 -0.3004  0.0538
  146MOL0     C20075  10.658   6.050   6.866 -0.3181 -0.7622 -0.3521
  146MOL0     C20076  10.220   6.068   7.115  0.1986 -0.2248 -0.3690
  146MOL0     C20077  10.183   6.109   7.246 -0.3461  0.0985  0.6123
  146MOL0     C20078  10.255   6.227   7.309  0.1091  0.5561  1.2803
  146MOL0     H20079  10.048   6.005   7.757  0.1211 -0.4548  0.2325
  146MOL0     H20080   9.919   6.027   7.962 -3.9767 -1.7132  3.5225
  146MOL0     H20081   9.761   6.128   8.114  2.3762 -1.3169 -1.0348
  146MOL0     H20082   9.799   5.968   8.120  3.1209  4.6320 -0.3786
  146MOL0     H20083   9.676   6.090   8.315 -0.2229 -0.1724  1.1057
  146MOL0     H20084   9.529   6.087   8.210  0.0164 -2.2901 -5.8559
  146MOL0     H20085   9.488   5.908   8.351 -0.6747  1.4611 -1.0814
  146MOL0     H20086   9.573   5.825   8.220  2.0738 -2.3422  1.5071
  146MOL0     H20087   9.781   5.828   8.314 -1.9924  0.4684 -3.6007
  146MOL0     H20088   9.732   5.901   8.468 -0.7308 -2.3208  1.8524
  146MOL0     H20089   9.608   5.631   8.379 -2.5006  1.8236 -0.8739
  146MOL0     H20090   9.573   5.725   8.523 -0.4690 -0.7102 -0.9585
  146MOL0     H20091   9.822   5.728   8.576  0.2460 -0.5884  1.0049
  146MOL0     H20092   9.750   5.564   8.599  0.9147 -0.3875  0.0503
  146MOL0     H20093   9.959   5.540   8.491  0.7371 -2.6194 -0.5110
  146MOL0     H20094   9.908   5.645   8.361  2.9430 -0.5737  0.1077
  146MOL0     H20095   9.732   5.394   8.418  0.1984  0.8845  1.6828
  146MOL0     H20096   9.751   5.481   8.269 -0.1110 -0.7868 -1.3918
  146MOL0     H20097  10.102   5.474   8.243  1.8839 -0.6986  0.7519
  146MOL0     H20098  10.175   5.145   8.083  0.9838  0.3741 -0.2662
  146MOL0     H20099  10.281   5.154   8.223  1.1910  1.1688 -0.6858
  146MOL0     H20100  10.257   5.406   8.057 -0.3748 -1.4212 -0.9015
  146MOL0     H20101  10.365   5.376   8.186 -0.8052 -0.1946  1.1997
  146MOL0     H20102  10.411   5.150   8.021 -2.5778 -0.4319 -1.7930
  146MOL0     H20103  10.336   5.256   7.905 -0.4121 -0.4058  0.3390
  146MOL0     H20104  10.587   5.319   8.071 -1.8215 -0.0466  0.7935
  146MOL0     H20105  10.586   5.280   7.906  1.1057 -1.3184  1.1000
  146MOL0     H20106  10.478   5.398   7.689  0.5455  0.6715 -1.3790
  146MOL0     H20107  10.683   5.412   7.442  1.0713  1.8542 -0.1138
  146MOL0     H20108  10.527   5.502   7.401 -2.1762 -3.0896 -2.5196
  146MOL0     H20109  10.515   5.363   7.491  0.2074  0.0587 -1.7709
  146MOL0     H20110  10.695   5.861   7.215 -1.2771 -2.3233 -0.3737
  146MOL0     H20111  10.845   5.937   7.049  0.3469  0.4717 -0.1042
  146MOL0     H20112  10.960   5.839   6.822 -0.8054 -0.4606  0.3103
  146MOL0     H20113  10.988   5.976   6.918 -0.8032 -0.8698 -0.8877
  146MOL0     H20114  11.242   5.981   6.869  1.6320 -0.4662 -1.0898
  146MOL0     H20115  11.230   5.853   6.756  3.4317  2.2735  1.0600
  146MOL0     H20116  11.208   6.093   6.651  0.5453 -0.5088 -0.7716
  146MOL0     H20117  11.079   6.129   6.762  0.7860  0.1068 -0.5449
  146MOL0     H20118  10.934   5.973   6.637  2.0202 -1.8896  1.7241
  146MOL0     H20119  11.071   5.912   6.546  1.7052  0.7744  0.2251
  146MOL0     H20120  10.899   6.149   6.506  0.1524  1.9797  0.2939
  146MOL0     H20121  11.059   6.211   6.504 -2.4419  0.8428  0.1020
  146MOL0     H20122  10.962   6.145   6.284 -0.9509  0.7094  2.3464
  146MOL0     H20123  10.962   5.978   6.328 -0.8523  1.0415 -2.5385
  146MOL0     H20124  11.219   5.988   6.341  4.0094  1.3207 -1.4041
  146MOL0     H20125  11.213   6.153   6.290  0.7202 -0.8899  1.9230
  146MOL0     H20126  11.261   6.016   6.105 -0.5378  0.0244 -1.2682
  146MOL0     H20127  11.105   6.102   6.072  0.4091 -1.5661 -1.5665
  146MOL0     H20128  11.115   5.611   7.138  1.4111  0.8603  2.4894
  146MOL0     H20129  10.970   5.532   7.310 -0.6919 -1.4783 -0.7934
  146MOL0     H20130  10.791   5.762   7.756  1.8594 -0.4081 -1.7089
  146MOL0     H20131  10.667   5.676   7.957  0.9770 -1.4521  0.7725
  146MOL0     H20132   9.555   5.976   7.733  0.2934 -2.3850  0.5710
  146MOL0     H20133   9.684   5.938   7.542  0.8673 -0.0829 -0.2583
  146MOL0     H20134   9.938   5.889   7.301 -0.8397  2.3350  1.4418
  146MOL0     H20135   9.992   5.814   7.087  1.2785 -0.6209 -2.3705
  146MOL0     H20136  10.121   5.725   6.904  0.2580 -0.5463  2.9861
  146MOL0     H20137  10.230   5.780   6.785  1.7473  3.2566  0.3557
  146MOL0     H20138  10.341   5.620   6.947 -1.1382 -0.2868 -0.5042
  146MOL0     H20139  10.288   5.714   7.080  1.2859 -1.7692  0.1507
  146MOL0     H20140  10.430   5.912   7.022 -1.7430 -1.7547 -0.0729
  146MOL0     H20141  10.513   5.765   7.064 -1.1395 -1.8015 -0.9182
  146MOL0     H20142  10.446   5.813   6.780 -0.0420 -2.4029  0.8825
  146MOL0     H20143  10.581   5.731   6.864 -0.6762 -1.3123  0.5490
  146MOL0     H20144  10.721   6.136   6.872  2.8650 -2.9642  0.4414
  146MOL0     H20145  10.291   6.130   7.061  0.5452 -0.3995 -0.1134
  146MOL0     H20146  10.342   6.252   7.247 -1.0608  1.8542  0.0815
  146MOL0     H20147  10.186   6.312   7.307 -1.6837 -0.7335 -2.3577
  146MOL0     H20148  10.305   6.199   7.402  4.5053 -1.1415 -1.3214
  147MOL0     O20149   6.024   6.360   6.671  0.9537  0.0463  0.1365
  147MOL0     C20150   6.036   6.236   6.646  0.5258  0.0942 -0.4608
  147MOL0     O20151   6.117   6.185   6.555  0.4677 -0.0968 -0.2826
  147MOL0     C20152   6.188   6.272   6.486 -0.0455  0.1851  0.1373
  147MOL0     C20153   6.121   6.356   6.392  0.5221 -0.4437  0.2502
  147MOL0     C20154   6.191   6.434   6.306  0.3522 -0.8881 -0.1377
  147MOL0     C20155   6.329   6.447   6.325 -0.3179 -0.6859 -0.3992
  147MOL0     O20156   6.396   6.523   6.235 -0.2709  0.3285  0.4904
  147MOL0     C20157   6.538   6.542   6.226  0.2858 -0.2497  0.4438
  147MOL0     C20158   6.578   6.672   6.276  0.8810 -0.3219  0.4633
  147MOL0     C20159   6.732   6.692   6.250 -0.3448  0.8103 -0.4383
  147MOL0     C20160   6.798   6.816   6.325  0.3229 -0.1578  0.3096
  147MOL0     C20161   6.858   6.780   6.457  0.2839  0.3238  0.4109
  147MOL0     C20162   6.751   6.757   6.563  0.9858  0.7415  0.8475
  147MOL0     C20163   6.817   6.768   6.712  0.7398 -0.5352  0.8362
  147MOL0     C20164   6.723   6.850   6.803 -0.0255 -0.4485  0.3006
  147MOL0     N20165   6.775   6.852   6.943 -0.1155  0.2702  1.2625
  147MOL0     C20166   6.705   6.785   7.044  0.8984 -0.7873  0.5093
  147MOL0     C20167   6.760   6.835   7.157  0.2441  0.2331 -0.3299
  147MOL0     C20168   6.726   6.791   7.298 -0.7172  1.0560 -0.4279
  147MOL0     C20169   6.825   6.677   7.341  1.2569  0.3673 -0.3157
  147MOL0     C20170   6.955   6.723   7.402 -0.4705 -0.2282  0.1229
  147MOL0     C20171   6.944   6.828   7.506  0.0445 -0.4605  0.1748
  147MOL0     O20172   6.848   6.791   7.608 -0.2491 -0.3903  0.1465
  147MOL0     C20173   6.887   6.693   7.691  0.3639  0.4710  0.3280
  147MOL0     C20174   6.787   6.630   7.763  0.7435 -1.4317 -0.1739
  147MOL0     C20175   6.799   6.534   7.865 -0.3533  1.0511  0.2267
  147MOL0     C20176   6.679   6.496   7.957 -0.2433 -0.7404 -0.1439
  147MOL0     C20177   6.931   6.484   7.877 -0.7403 -0.9456 -0.0770
  147MOL0     C20178   6.969   6.373   7.955  0.0111 -0.6187  0.9743
  147MOL0     O20179   7.098   6.376   8.012  0.1401 -0.1639  0.6829
  147MOL0     C20180   7.149   6.282   8.098  0.0056  0.5202  0.9635
  147MOL0     C20181   7.071   6.177   8.159  0.0706 -0.0564  0.5629
  147MOL0     C20182   7.129   6.094   8.260  0.2160 -0.0564 -0.2380
  147MOL0     C20183   7.260   6.106   8.302 -0.4730 -0.2785 -0.6549
  147MOL0     O20184   7.312   6.044   8.412 -0.4900  0.6216  0.1124
  147MOL0     C20185   7.345   5.909   8.388 -0.2836 -0.1249 -0.1807
  147MOL0     C20186   7.472   5.870   8.460 -1.0457  0.5479 -0.1103
  147MOL0     C20187   7.484   5.903   8.613 -0.3817  0.8015 -0.2646
  147MOL0     C20188   7.621   5.915   8.676 -1.0969 -0.0061  0.1502
  147MOL0     C20189   7.709   6.026   8.603  0.7007  1.4541 -0.7523
  147MOL0     C20190   7.836   6.066   8.679  0.1139 -0.4627  0.2741
  147MOL0     C20191   7.815   6.107   8.832  1.0219 -0.6678 -0.2599
  147MOL0     C20192   7.923   6.212   8.873  0.4261  0.6823  0.8430
  147MOL0    Cl20193   8.079   6.124   8.854 -0.0098  0.1109 -0.0045
  147MOL0     C20194   7.335   6.208   8.242  0.2634  0.1344 -1.3891
  147MOL0     C20195   7.285   6.293   8.142 -0.1240 -0.2317  0.0324
  147MOL0     O20196   6.895   6.277   7.952  0.2552  0.1428 -0.3695
  147MOL0     C20197   7.041   6.538   7.799  0.7622  0.9177  0.1227
  147MOL0     C20198   7.015   6.647   7.715  0.0311 -0.2690 -0.8806
  147MOL0     N20199   6.841   6.950   7.121  0.1848 -0.5341  0.6828
  147MOL0     N20200   6.853   6.961   6.994 -1.1283  0.2445  0.2961
  147MOL0     C20201   6.400   6.384   6.423 -0.2695  0.4617  0.7291
  147MOL0     C20202   6.331   6.295   6.511 -0.0870 -0.9706  0.4877
  147MOL0     C20203   5.947   6.139   6.734 -1.9476 -0.4175  0.2838
  147MOL0     C20204   5.956   6.004   6.704  0.0410  0.2112 -0.7586
  147MOL0     C20205   5.874   5.914   6.771  0.0388  0.3442 -0.0379
  147MOL0     C20206   5.778   5.953   6.867  1.3071 -0.8508  0.4950
  147MOL0     O20207   5.701   5.846   6.917 -0.3130 -0.5218  0.0293
  147MOL0     C20208   5.627   5.867   7.042 -0.3655 -0.3070  0.2123
  147MOL0     C20209   5.533   5.755   7.083  0.2015  0.4576  0.4089
  147MOL0     C20210   5.401   5.752   7.005  0.1577  0.0884  0.3360
  147MOL0     C20211   5.431   5.769   6.854 -0.6315 -0.1217  0.2456
  147MOL0     C20212   5.331   5.699   6.774  0.0866  0.8504  0.6702
  147MOL0     C20213   5.242   5.640   6.722 -0.2868  0.4872  0.0041
  147MOL0     C20214   5.771   6.088   6.895  0.5713  0.1945 -0.7198
  147MOL0     C20215   5.877   6.174   6.851  0.4713 -0.0332 -0.2457
  147MOL0     C20216   5.871   6.313   6.905 -0.3361  0.5578  0.1203
  147MOL0     H20217   6.013   6.363   6.389  0.1066 -3.5241  2.3309
  147MOL0     H20218   6.145   6.498   6.231  1.6508  1.7735  1.2013
  147MOL0     H20219   6.560   6.533   6.119  0.1551 -0.0589  0.4022
  147MOL0     H20220   6.602   6.462   6.266  1.3718  0.1535 -0.4668
  147MOL0     H20221   6.525   6.755   6.229 -2.2669  0.6192  4.9836
  147MOL0     H20222   6.555   6.657   6.382 -0.7344 -1.7790 -0.0366
  147MOL0     H20223   6.780   6.601   6.285 -1.5488  0.6568  0.9060
  147MOL0     H20224   6.740   6.697   6.141  0.3717 -1.7559 -0.5626
  147MOL0     H20225   6.886   6.842   6.265  1.1051  1.6182  2.0830
  147MOL0     H20226   6.741   6.909   6.321 -0.5992 -0.4584  3.7044
  147MOL0     H20227   6.926   6.859   6.491  2.6143 -1.2304 -0.3885
  147MOL0     H20228   6.921   6.691   6.448 -2.2360 -1.3626 -2.7487
  147MOL0     H20229   6.668   6.823   6.535 -2.1139 -3.1332  0.0460
  147MOL0     H20230   6.704   6.659   6.554  1.0726  0.6350  1.4939
  147MOL0     H20231   6.911   6.823   6.714  0.6210 -0.3430  1.1677
  147MOL0     H20232   6.842   6.666   6.744 -0.3972 -0.5024  1.9231
  147MOL0     H20233   6.719   6.955   6.774 -1.3785 -0.6602 -0.3788
  147MOL0     H20234   6.624   6.804   6.792 -0.1472  0.2883 -2.2982
  147MOL0     H20235   6.630   6.708   7.037  0.4137 -0.6159  2.8060
  147MOL0     H20236   6.625   6.750   7.294 -0.1795 -0.2379 -1.7788
  147MOL0     H20237   6.724   6.883   7.356 -1.6573  1.9880 -1.8800
  147MOL0     H20238   6.770   6.623   7.418  2.3961 -0.7092 -0.2380
  147MOL0     H20239   6.842   6.607   7.259  1.8262 -0.1153  0.2052
  147MOL0     H20240   7.010   6.636   7.438  3.8250  2.5835  1.0371
  147MOL0     H20241   7.017   6.758   7.318  3.2767 -4.4233  0.7916
  147MOL0     H20242   7.039   6.859   7.552 -1.3351  2.8697  1.1248
  147MOL0     H20243   6.916   6.924   7.461 -0.2363  0.7536  2.7052
  147MOL0     H20244   6.690   6.674   7.747  1.2847 -0.7299 -1.6460
  147MOL0     H20245   6.617   6.586   7.951  1.2459  0.2544 -1.4963
  147MOL0     H20246   6.718   6.468   8.055  2.4928 -1.5899 -1.3519
  147MOL0     H20247   6.620   6.411   7.921 -0.3812 -1.7509  2.3009
  147MOL0     H20248   6.968   6.161   8.129  0.1546  0.6013 -0.1120
  147MOL0     H20249   7.075   6.013   8.308 -1.3880  1.6588  0.9851
  147MOL0     H20250   7.267   5.843   8.427 -0.0315 -0.4941 -0.2845
  147MOL0     H20251   7.352   5.886   8.281 -0.0838  0.9826 -0.4169
  147MOL0     H20252   7.492   5.763   8.444  2.5809  1.1328 -0.4265
  147MOL0     H20253   7.549   5.927   8.407  0.9887 -0.5626  1.4910
  147MOL0     H20254   7.438   5.822   8.670 -1.2367  0.2211 -1.7375
  147MOL0     H20255   7.435   5.999   8.636 -0.0182  0.5432  1.7638
  147MOL0     H20256   7.668   5.818   8.661  0.2429  0.8161 -1.1845
  147MOL0     H20257   7.616   5.925   8.785  0.5206 -3.5034  0.6775
  147MOL0     H20258   7.737   5.983   8.506 -2.3631  0.3066 -1.2434
  147MOL0     H20259   7.655   6.116   8.572  3.5216  3.6879  0.3800
  147MOL0     H20260   7.880   6.152   8.628  1.6590 -0.6864  1.1754
  147MOL0     H20261   7.908   5.984   8.668 -2.2447 -2.3324 -3.5286
  147MOL0     H20262   7.816   6.021   8.901  2.3237 -0.6249 -0.2122
  147MOL0     H20263   7.719   6.156   8.851  0.5868 -0.7955 -1.9780
  147MOL0     H20264   7.915   6.248   8.976  0.6013  1.2110  0.6726
  147MOL0     H20265   7.924   6.299   8.808 -0.8945 -0.2338 -0.4664
  147MOL0     H20266   7.433   6.214   8.287  0.3527  0.4506 -1.6186
  147MOL0     H20267   7.339   6.381   8.109 -0.1675  0.2768  1.2919
  147MOL0     H20268   7.142   6.504   7.817  0.2165 -0.4668  0.6886
  147MOL0     H20269   7.107   6.698   7.688  2.2718 -3.6936 -0.3843
  147MOL0     H20270   6.502   6.413   6.443  0.2953 -1.3977  0.7753
  147MOL0     H20271   6.373   6.239   6.594  0.3921  0.0661  0.9666
  147MOL0     H20272   6.032   5.967   6.636 -0.9111 -0.9176 -1.2521
  147MOL0     H20273   5.887   5.808   6.751  2.3337  0.7743 -1.2025
  147MOL0     H20274   5.702   5.862   7.121  0.1817 -1.0138 -0.3352
  147MOL0     H20275   5.576   5.964   7.047  3.0537  1.7402 -0.8931
  147MOL0     H20276   5.523   5.762   7.192 -0.1748 -1.2129  0.5142
  147MOL0     H20277   5.584   5.659   7.069  1.1892  0.9400  0.6183
  147MOL0     H20278   5.350   5.658   7.027 -0.8302  0.1407 -1.5556
  147MOL0     H20279   5.336   5.838   7.024  0.6224  0.9744 -1.7972
  147MOL0     H20280   5.527   5.720   6.833 -0.7646 -0.6731  0.8933
  147MOL0     H20281   5.437   5.874   6.823  1.7625 -0.7776 -1.9167
  147MOL0     H20282   5.159   5.592   6.675 -3.3103  3.6717  1.7057
  147MOL0     H20283   5.695   6.123   6.964 -2.1259 -2.3778 -2.1411
  147MOL0     H20284   5.964   6.370   6.893 -0.1314  0.3340  0.5887
  147MOL0     H20285   5.794   6.375   6.859  0.1851  0.5881 -0.7419
  147MOL0     H20286   5.858   6.312   7.014 -3.3293  0.3696 -0.1588
  148MOL0     O20287   9.881   7.895   2.988  0.1249 -0.1396  0.0022
  148MOL0     C20288   9.816   7.879   2.883  0.7119 -0.1784  0.1696
  148MOL0     O20289   9.675   7.894   2.875  0.4713  0.3695 -0.0261
  148MOL0     C20290   9.601   7.915   2.993  0.5592 -0.3146  0.2859
  148MOL0     C20291   9.555   7.816   3.078  0.8648 -0.0367 -0.1886
  148MOL0     C20292   9.485   7.860   3.192 -0.4260  0.2930  0.4532
  148MOL0     C20293   9.448   7.990   3.209 -0.3397  0.1216  0.6657
  148MOL0     O20294   9.383   8.033   3.320 -0.2462  0.3539  0.0693
  148MOL0     C20295   9.251   8.088   3.299  0.2259 -1.0351  0.6353
  148MOL0     C20296   9.175   8.052   3.433  0.5224  0.1734 -0.4660
  148MOL0     C20297   9.033   8.105   3.431  1.3828  0.3968 -0.9584
  148MOL0     C20298   8.985   8.141   3.572 -0.3321  0.0311  0.2483
  148MOL0     C20299   8.982   8.032   3.677 -0.1377  0.3534 -0.0601
  148MOL0     C20300   8.973   8.076   3.819  0.0173 -0.3437  0.2406
  148MOL0     C20301   8.984   7.960   3.919  0.2645 -0.6762  0.2770
  148MOL0     C20302   8.941   7.997   4.055  0.2142  0.4014  0.0575
  148MOL0     N20303   8.983   8.115   4.121  0.0259 -0.8252 -0.5699
  148MOL0     C20304   9.113   8.149   4.150 -0.4349 -0.5614 -0.3880
  148MOL0     C20305   9.113   8.249   4.246  0.0282 -0.5482 -0.1808
  148MOL0     C20306   9.232   8.318   4.304  0.2250  0.1159 -0.2548
  148MOL0     C20307   9.244   8.285   4.460 -0.2996  0.2340  0.4976
  148MOL0     C20308   9.326   8.396   4.527 -0.1938  0.0585 -0.2162
  148MOL0     C20309   9.336   8.372   4.680  0.5345 -0.2435  0.5640
  148MOL0     O20310   9.298   8.493   4.750  0.2152 -0.0288  0.3930
  148MOL0     C20311   9.165   8.509   4.791  0.1278 -0.1615  0.0995
  148MOL0     C20312   9.151   8.621   4.882 -0.8837  0.5392  0.3718
  148MOL0     C20313   9.029   8.661   4.922  0.6588 -0.4546 -0.2562
  148MOL0     C20314   9.013   8.797   4.993  0.0035  0.2997 -0.2612
  148MOL0     C20315   8.921   8.583   4.908  0.5300  0.3712  0.2816
  148MOL0     C20316   8.791   8.620   4.958  0.5231 -0.0160  0.3236
  148MOL0     O20317   8.734   8.544   5.062 -0.5024 -0.0373  0.0486
  148MOL0     C20318   8.632   8.594   5.141 -0.0848  0.9419  0.8067
  148MOL0     C20319   8.495   8.578   5.108 -0.6457 -0.2263  0.2910
  148MOL0     C20320   8.405   8.600   5.214  0.0917 -0.3320  0.4207
  148MOL0     C20321   8.441   8.683   5.323  0.0958  0.7970 -0.1168
  148MOL0     O20322   8.351   8.727   5.417  0.5891 -0.5214  0.1366
  148MOL0     C20323   8.223   8.783   5.367  0.1127 -0.5905 -0.0012
  148MOL0     C20324   8.170   8.880   5.467 -0.2412 -0.3031 -0.9922
  148MOL0     C20325   8.243   9.020   5.450  0.6322  0.1493  0.3343
  148MOL0     C20326   8.279   9.067   5.585  0.1695 -0.2309  0.0382
  148MOL0     C20327   8.354   9.200   5.581 -0.1528  0.4209  0.4726
  148MOL0     C20328   8.496   9.207   5.632 -1.7083 -0.4954  0.6164
  148MOL0     C20329   8.595   9.110   5.558 -0.5302 -0.4030  0.1197
  148MOL0     C20330   8.735   9.113   5.619 -0.3245  0.9629  1.3092
  148MOL0    Cl20331   8.840   8.970   5.557  0.0201 -0.2482 -0.4466
  148MOL0     C20332   8.577   8.715   5.335 -0.1167  0.0162  0.0078
  148MOL0     C20333   8.677   8.663   5.256  0.5989 -0.2438  0.6419
  148MOL0     O20334   8.738   8.721   4.905  0.8061  0.5549 -0.6833
  148MOL0     C20335   8.935   8.462   4.835 -0.3400  0.0924 -0.6801
  148MOL0     C20336   9.054   8.426   4.776  0.2734  0.4581  0.8205
  148MOL0     N20337   8.978   8.262   4.284 -0.8209 -0.1650 -0.2369
  148MOL0     N20338   8.904   8.190   4.203 -1.2057 -0.2322 -0.7440
  148MOL0     C20339   9.496   8.089   3.124  0.8096 -1.1784 -0.5616
  148MOL0     C20340   9.576   8.050   3.025 -0.2972 -0.6863  1.1963
  148MOL0     C20341   9.889   7.857   2.752 -0.3749  0.9778  1.1660
  148MOL0     C20342   9.819   7.882   2.631 -0.0969  0.2144 -0.8435
  148MOL0     C20343   9.866   7.844   2.509  0.5296  0.1715 -0.1117
  148MOL0     C20344   9.996   7.790   2.494  0.0187 -0.9994  0.7546
  148MOL0     O20345  10.062   7.742   2.385 -0.7121  0.6602  0.7246
  148MOL0     C20346   9.987   7.691   2.273  0.7199  0.4048 -0.3755
  148MOL0     C20347  10.070   7.602   2.185 -0.8311 -0.9319  0.1908
  148MOL0     C20348   9.984   7.543   2.068 -0.1759 -0.0192 -0.1574
  148MOL0     C20349  10.056   7.506   1.932 -0.8072 -0.4492  0.5409
  148MOL0     C20350  10.107   7.627   1.859 -0.7213  1.2667 -1.5605
  148MOL0     C20351  10.154   7.726   1.811  0.3403 -0.4604  0.5333
  148MOL0     C20352  10.073   7.774   2.606 -0.4706 -1.2257  0.3335
  148MOL0     C20353  10.017   7.793   2.732 -0.9375  0.5462  0.1630
  148MOL0     C20354  10.121   7.774   2.844  0.1485 -0.4618 -0.2647
  148MOL0     H20355   9.586   7.714   3.058  0.0977 -0.5996  1.3237
  148MOL0     H20356   9.454   7.791   3.270  0.4616  0.4637  0.9728
  148MOL0     H20357   9.197   8.028   3.226 -3.6314  1.0248  1.5092
  148MOL0     H20358   9.242   8.196   3.285 -0.0493 -1.4944 -4.2931
  148MOL0     H20359   9.175   7.943   3.439  1.5115  0.1180 -1.1872
  148MOL0     H20360   9.226   8.095   3.520 -0.7244  0.3933  0.1678
  148MOL0     H20361   9.021   8.187   3.360 -0.5724  2.0098  1.0796
  148MOL0     H20362   8.964   8.028   3.395  1.4905  0.4604 -1.3105
  148MOL0     H20363   9.057   8.216   3.606  2.0518 -1.3483 -1.4480
  148MOL0     H20364   8.893   8.199   3.582  2.2346  4.0843  3.0827
  148MOL0     H20365   9.059   7.957   3.657 -1.0432 -0.2871 -1.3007
  148MOL0     H20366   8.890   7.976   3.655 -0.6789  1.4292 -0.5775
  148MOL0     H20367   9.063   8.136   3.832 -0.4850  0.4405  0.1388
  148MOL0     H20368   8.886   8.140   3.833  0.3514  0.1191  0.2191
  148MOL0     H20369   9.087   7.923   3.920  1.6397  2.8001  0.6386
  148MOL0     H20370   8.912   7.883   3.890 -1.3640  0.5121  1.0521
  148MOL0     H20371   8.832   8.000   4.058  0.1184 -1.6479  3.2894
  148MOL0     H20372   8.973   7.910   4.112  1.0767 -1.0349 -2.4535
  148MOL0     H20373   9.201   8.110   4.101  1.2478  2.2362  0.1998
  148MOL0     H20374   9.222   8.426   4.293  0.9874  0.3493  1.0679
  148MOL0     H20375   9.319   8.277   4.252  1.0832  1.6535 -0.0888
  148MOL0     H20376   9.138   8.282   4.487 -0.9852 -3.2967 -1.8705
  148MOL0     H20377   9.289   8.186   4.473  1.3254  1.0759  1.5947
  148MOL0     H20378   9.426   8.383   4.484 -1.2695 -0.5263 -2.6785
  148MOL0     H20379   9.298   8.499   4.504 -2.2000  0.0501  1.8230
  148MOL0     H20380   9.277   8.286   4.714  0.6767 -0.3290  0.5939
  148MOL0     H20381   9.440   8.345   4.702  1.4923  2.3959 -0.3134
  148MOL0     H20382   9.239   8.682   4.900 -0.9219  0.6351  0.2431
  148MOL0     H20383   8.929   8.852   4.950  1.7028  1.7180 -1.9587
  148MOL0     H20384   9.103   8.859   4.979  2.1855 -2.1802  1.6145
  148MOL0     H20385   9.003   8.780   5.101 -4.8196 -1.8007 -0.8084
  148MOL0     H20386   8.449   8.532   5.021 -1.1152 -0.7009  0.7767
  148MOL0     H20387   8.304   8.561   5.214 -0.0331 -0.0914  1.9896
  148MOL0     H20388   8.250   8.836   5.275  2.2418 -1.6207 -0.0427
  148MOL0     H20389   8.147   8.708   5.343  0.5065 -0.4581 -1.8002
  148MOL0     H20390   8.066   8.900   5.441  0.1665  0.5494 -2.0566
  148MOL0     H20391   8.165   8.827   5.563  1.0927 -0.5486 -1.0327
  148MOL0     H20392   8.168   9.088   5.410 -0.3993 -1.7059 -1.0780
  148MOL0     H20393   8.328   9.017   5.381 -1.4372 -1.5056 -2.3514
  148MOL0     H20394   8.325   8.984   5.640  0.6727  1.2962  2.0385
  148MOL0     H20395   8.185   9.076   5.641  0.7042 -1.0297  1.1153
  148MOL0     H20396   8.364   9.243   5.481  0.4276  0.9440  0.7485
  148MOL0     H20397   8.292   9.255   5.652  1.1652 -0.8589  2.7554
  148MOL0     H20398   8.493   9.176   5.737  3.4796 -1.6743  0.6675
  148MOL0     H20399   8.542   9.306   5.628 -1.6689 -0.4718  1.5376
  148MOL0     H20400   8.591   9.132   5.451  0.6656  1.1191  0.3606
  148MOL0     H20401   8.559   9.007   5.569  1.3931 -1.1519 -0.1995
  148MOL0     H20402   8.729   9.105   5.728  1.9483 -0.4681  1.3954
  148MOL0     H20403   8.786   9.202   5.580  1.5872 -0.7619 -0.3181
  148MOL0     H20404   8.616   8.781   5.412  2.3214 -0.6185 -0.5968
  148MOL0     H20405   8.782   8.686   5.267  0.6999  1.8424 -3.1040
  148MOL0     H20406   8.858   8.386   4.823  2.6224 -2.7473 -4.1534
  148MOL0     H20407   9.055   8.336   4.714 -1.4782  0.7056  0.3799
  148MOL0     H20408   9.463   8.192   3.136  0.7597 -1.2948  0.3370
  148MOL0     H20409   9.603   8.121   2.948 -1.5197 -0.4698  0.9530
  148MOL0     H20410   9.720   7.924   2.644  0.5260  1.9580 -1.4435
  148MOL0     H20411   9.790   7.854   2.433 -0.2606 -1.1643  0.4528
  148MOL0     H20412   9.894   7.641   2.299 -0.3067  2.6238  0.4346
  148MOL0     H20413   9.949   7.770   2.208 -1.2671  0.6611  1.0031
  148MOL0     H20414  10.105   7.515   2.241 -1.6929  1.2166  4.5032
  148MOL0     H20415  10.155   7.657   2.146  0.4694 -4.4493 -2.5075
  148MOL0     H20416   9.963   7.446   2.113 -0.0229 -0.4694 -1.0202
  148MOL0     H20417   9.896   7.603   2.043  0.2239  0.7400  0.2224
  148MOL0     H20418   9.969   7.471   1.876 -1.7381 -0.1467  1.7719
  148MOL0     H20419  10.137   7.435   1.949 -0.3694 -0.5032 -1.4962
  148MOL0     H20420  10.206   7.812   1.773  1.6344 -1.3296  0.2765
  148MOL0     H20421  10.174   7.734   2.599  0.4481  1.0643 -0.1708
  148MOL0     H20422  10.119   7.868   2.899 -0.2486  0.3230 -1.5898
  148MOL0     H20423  10.090   7.694   2.913 -0.8329 -0.3519 -0.5676
  148MOL0     H20424  10.223   7.751   2.812  0.7055  1.9560 -0.3698
  149MOL0     O20425   9.674   9.739   4.310 -0.1125 -0.6647  0.4300
  149MOL0     C20426   9.710   9.797   4.205 -0.1500 -0.1676 -1.2656
  149MOL0     O20427   9.692   9.931   4.174  0.1433 -0.8459  0.4736
  149MOL0     C20428   9.629  10.017   4.268 -0.4980  0.5699  0.3476
  149MOL0     C20429   9.711  10.110   4.346 -0.4582  0.8943 -0.1424
  149MOL0     C20430   9.651  10.175   4.449 -0.2890 -0.3651 -0.4733
  149MOL0     C20431   9.508  10.168   4.484 -0.4788  0.3614 -0.5473
  149MOL0     O20432   9.459  10.249   4.585  0.0716  0.0854  0.5910
  149MOL0     C20433   9.321  10.223   4.610  0.2398 -0.1095  0.4260
  149MOL0     C20434   9.275  10.305   4.732  0.1026  0.6829  0.5437
  149MOL0     C20435   9.282  10.454   4.704  0.4607  1.3282  0.2884
  149MOL0     C20436   9.149  10.521   4.650 -0.5891  0.7062  0.2533
  149MOL0     C20437   9.177  10.656   4.579  0.0801  0.3108 -1.0265
  149MOL0     C20438   9.050  10.746   4.552 -0.5873  0.3951 -0.2057
  149MOL0     C20439   8.963  10.697   4.432 -0.7152 -0.4808 -0.3389
  149MOL0     C20440   8.827  10.768   4.436 -0.4040  0.5613 -1.0323
  149MOL0     N20441   8.831  10.904   4.391 -0.7900  0.8129  0.0181
  149MOL0     C20442   8.857  11.016   4.463 -0.2189 -0.1632 -0.0094
  149MOL0     C20443   8.837  11.130   4.388 -0.5151 -0.0120  1.0559
  149MOL0     C20444   8.840  11.273   4.430  0.1600  0.0161  0.1757
  149MOL0     C20445   8.703  11.310   4.496 -0.4137  0.1582  0.2584
  149MOL0     C20446   8.680  11.243   4.633  0.8744 -1.2511 -0.0686
  149MOL0     C20447   8.590  11.332   4.724 -0.6077  0.0888 -0.3887
  149MOL0     O20448   8.453  11.338   4.677 -0.4197 -0.5092 -0.3229
  149MOL0     C20449   8.371  11.399   4.764 -0.1582  1.0188 -0.4563
  149MOL0     C20450   8.299  11.331   4.858  0.1293  0.3715 -0.5873
  149MOL0     C20451   8.211  11.386   4.957 -0.2502  0.1901  0.4642
  149MOL0     C20452   8.130  11.287   5.045  0.4236 -0.5593 -0.4599
  149MOL0     C20453   8.197  11.529   4.950 -0.4782  0.3784  0.2001
  149MOL0     C20454   8.114  11.611   5.040 -0.1869 -0.4951  0.4043
  149MOL0     O20455   8.161  11.740   5.060  0.0423  0.3349  0.2102
  149MOL0     C20456   8.094  11.836   5.134  1.1625 -0.1274  0.4793
  149MOL0     C20457   8.068  11.954   5.078 -0.3755 -0.4749  0.0951
  149MOL0     C20458   7.999  12.053   5.148 -0.4980  1.1651 -0.2481
  149MOL0     C20459   7.959  12.036   5.282  0.2584 -0.2398 -0.1581
  149MOL0     O20460   7.900  12.129   5.360 -0.0561  0.4776 -0.1394
  149MOL0     C20461   7.947  12.267   5.353 -0.0363  0.0947 -0.3401
  149MOL0     C20462   7.886  12.356   5.449  0.4387  0.3084  0.2705
  149MOL0     C20463   7.900  12.305   5.594  0.6464  0.5585 -0.1805
  149MOL0     C20464   7.872  12.430   5.686  0.5881 -0.6307  0.8025
  149MOL0     C20465   7.835  12.392   5.826  0.1467  0.0994 -0.2087
  149MOL0     C20466   7.793  12.515   5.900  0.3065 -0.1143 -0.0458
  149MOL0     C20467   7.817  12.499   6.044  0.0086  0.4706  0.3406
  149MOL0     C20468   7.788  12.632   6.111 -0.6203 -0.3231 -0.2077
  149MOL0    Cl20469   7.784  12.620   6.288  0.3150 -0.6572  0.5788
  149MOL0     C20470   7.988  11.918   5.351 -0.8236 -1.6889 -0.4770
  149MOL0     C20471   8.060  11.820   5.274  0.9343  0.2420  0.4251
  149MOL0     O20472   8.030  11.546   5.107 -0.6197  0.5502 -0.3513
  149MOL0     C20473   8.275  11.602   4.856 -0.3301 -0.0314  0.0482
  149MOL0     C20474   8.367  11.535   4.773  0.2632 -0.5574  0.6175
  149MOL0     N20475   8.795  11.081   4.269  0.6147  0.2381 -0.3061
  149MOL0     N20476   8.783  10.953   4.278  0.3588  0.4868 -0.3381
  149MOL0     C20477   9.437  10.074   4.408  0.2962 -0.2680  0.5043
  149MOL0     C20478   9.494   9.998   4.306 -0.6055  0.6228  0.1692
  149MOL0     C20479   9.775   9.712   4.092  0.5619  0.1163  0.6541
  149MOL0     C20480   9.687   9.625   4.012  0.1695 -1.3240  0.0864
  149MOL0     C20481   9.736   9.551   3.913 -0.1580  0.3830 -0.2316
  149MOL0     C20482   9.871   9.568   3.868 -1.3134  0.9895 -0.0179
  149MOL0     O20483   9.938   9.505   3.759  0.3225 -0.2673 -0.0491
  149MOL0     C20484   9.846   9.422   3.674  0.0832  0.5402 -0.3607
  149MOL0     C20485   9.861   9.275   3.722 -0.8285  0.5592  0.5222
  149MOL0     C20486   9.785   9.232   3.843  0.5336 -0.6186 -0.9496
  149MOL0     C20487   9.803   9.079   3.853 -0.5751 -0.1465 -0.0665
  149MOL0     C20488   9.722   9.003   3.753  0.1649 -1.0573 -0.7804
  149MOL0     C20489   9.656   8.941   3.680  0.4905  0.1959  0.8898
  149MOL0     C20490   9.952   9.661   3.932 -0.0116  0.6510 -0.0470
  149MOL0     C20491   9.908   9.718   4.047 -0.5495 -0.7487  0.8373
  149MOL0     C20492  10.007   9.806   4.126 -0.1163  0.1980 -0.4600
  149MOL0     H20493   9.817  10.115   4.326 -0.4443 -0.2778 -0.3917
  149MOL0     H20494   9.702  10.245   4.514 -4.1580  0.8740  1.5394
  149MOL0     H20495   9.309  10.116   4.627  0.9567  0.0125  1.9542
  149MOL0     H20496   9.254  10.250   4.528 -0.2785 -0.1164  0.8418
  149MOL0     H20497   9.173  10.273   4.755  0.0773  0.0821 -0.3279
  149MOL0     H20498   9.331  10.271   4.819  0.4113  1.7264  0.7574
  149MOL0     H20499   9.316  10.514   4.790  2.5609 -1.8716  1.8881
  149MOL0     H20500   9.361  10.463   4.629 -0.3876  1.7300 -0.5744
  149MOL0     H20501   9.088  10.449   4.596  1.1614 -0.0260 -0.8547
  149MOL0     H20502   9.099  10.551   4.743  1.2183  0.0170  1.5301
  149MOL0     H20503   9.225  10.630   4.484 -1.7285 -0.7203 -1.7142
  149MOL0     H20504   9.248  10.712   4.640 -1.2016  0.7260  0.1342
  149MOL0     H20505   8.987  10.746   4.642  0.8738 -0.9222  0.8665
  149MOL0     H20506   9.086  10.848   4.538  1.3353  0.0051  1.3912
  149MOL0     H20507   8.950  10.588   4.441 -1.2668 -0.3437  0.5822
  149MOL0     H20508   9.016  10.708   4.337  2.4993 -0.7010  1.2937
  149MOL0     H20509   8.768  10.720   4.357  2.6449 -1.9566 -2.0071
  149MOL0     H20510   8.777  10.756   4.533  0.1349 -0.3374 -0.8566
  149MOL0     H20511   8.886  11.027   4.567 -1.1652 -1.2788  0.4005
  149MOL0     H20512   8.871  11.340   4.349  2.8083 -0.7182  0.4948
  149MOL0     H20513   8.917  11.292   4.505  0.6747 -0.7994 -0.1286
  149MOL0     H20514   8.703  11.420   4.497  0.9189  0.2177 -1.2245
  149MOL0     H20515   8.613  11.289   4.438 -3.0250  5.4262  1.7599
  149MOL0     H20516   8.643  11.140   4.632  1.4021 -1.5461 -4.0133
  149MOL0     H20517   8.779  11.239   4.678  0.6490 -0.8218  0.4755
  149MOL0     H20518   8.599  11.302   4.828 -3.1949  1.4487  0.3159
  149MOL0     H20519   8.647  11.425   4.717  3.0645 -1.9376 -0.1238
  149MOL0     H20520   8.293  11.224   4.842 -0.2953  0.8818 -5.2513
  149MOL0     H20521   8.169  11.186   5.030 -2.7360 -2.3511  2.2337
  149MOL0     H20522   8.023  11.294   5.024  0.3843  0.8943  0.0819
  149MOL0     H20523   8.136  11.315   5.151 -1.4070  1.1417 -0.7509
  149MOL0     H20524   8.103  11.980   4.979 -1.9802  0.4047 -0.2864
  149MOL0     H20525   7.960  12.133   5.085 -2.5947 -1.1982 -2.1383
  149MOL0     H20526   8.055  12.273   5.375  0.3285  2.1722 -2.3544
  149MOL0     H20527   7.935  12.309   5.253  0.8636  0.3039 -0.3724
  149MOL0     H20528   7.934  12.454   5.439  1.5283  0.0028  1.9968
  149MOL0     H20529   7.778  12.362   5.433  0.3369  0.8695  1.0933
  149MOL0     H20530   7.996  12.258   5.619 -1.7329 -4.8109  0.2250
  149MOL0     H20531   7.823  12.229   5.609 -0.2302  1.8920  2.9103
  149MOL0     H20532   7.784  12.483   5.649 -0.0517 -1.5211  1.0059
  149MOL0     H20533   7.957  12.497   5.672  0.1913 -0.6896 -2.8170
  149MOL0     H20534   7.744  12.332   5.814  0.8641 -0.8245 -1.2021
  149MOL0     H20535   7.911  12.328   5.872  1.4996  1.9096  0.1934
  149MOL0     H20536   7.686  12.533   5.882  0.0998  0.7637  1.8150
  149MOL0     H20537   7.848  12.604   5.871 -0.6944  0.2016 -1.0467
  149MOL0     H20538   7.919  12.469   6.071  0.3844  2.2790  1.0933
  149MOL0     H20539   7.746  12.423   6.077 -2.3408  2.1044 -0.6657
  149MOL0     H20540   7.709  12.695   6.071  2.3191  2.4216 -2.1460
  149MOL0     H20541   7.871  12.692   6.074  0.1667 -1.4004 -0.2469
  149MOL0     H20542   7.952  11.898   5.452 -0.4919  0.2966  0.0619
  149MOL0     H20543   8.088  11.726   5.319 -2.2138 -1.6447 -1.1964
  149MOL0     H20544   8.280  11.710   4.858 -2.7616  0.1812 -1.6908
  149MOL0     H20545   8.426  11.596   4.706 -0.0088 -1.6615 -0.6772
  149MOL0     H20546   9.330  10.065   4.423 -0.7571  5.3023 -1.1337
  149MOL0     H20547   9.431   9.927   4.253  0.7759 -1.1447  0.7730
  149MOL0     H20548   9.584   9.623   4.048  0.0274 -1.0266 -0.3001
  149MOL0     H20549   9.663   9.480   3.876 -0.2564 -1.5180  3.2234
  149MOL0     H20550   9.744   9.462   3.669  0.3337  1.3885  0.9145
  149MOL0     H20551   9.889   9.427   3.573 -0.7775 -1.1005 -0.8443
  149MOL0     H20552   9.966   9.251   3.739 -1.5570 -1.8647  2.0744
  149MOL0     H20553   9.844   9.220   3.629  3.4045 -0.1393 -0.0306
  149MOL0     H20554   9.830   9.275   3.933  0.3475 -3.5745  0.6910
  149MOL0     H20555   9.679   9.258   3.837  0.2853 -0.8859  1.5717
  149MOL0     H20556   9.781   9.037   3.951 -0.2772 -1.7628 -0.6582
  149MOL0     H20557   9.908   9.058   3.830  0.1396  2.3684  0.5732
  149MOL0     H20558   9.604   8.876   3.613  1.3907  0.6740 -0.3067
  149MOL0     H20559  10.058   9.661   3.908  0.4658 -0.1219  1.8464
  149MOL0     H20560  10.077   9.850   4.054  2.6402 -1.1220  1.2337
  149MOL0     H20561   9.965   9.887   4.186  0.0990  2.4139 -3.1160
  149MOL0     H20562  10.054   9.733   4.192 -0.7309 -0.3085 -0.5759
  150MOL0     O20563   8.180   9.882   6.157 -0.0433  0.8780  0.4261
  150MOL0     C20564   8.234   9.921   6.254 -0.1184 -0.9431 -0.5651
  150MOL0     O20565   8.199  10.034   6.321 -0.0822 -0.3146  0.6433
  150MOL0     C20566   8.086  10.103   6.301  0.1577 -0.2796 -0.2561
  150MOL0     C20567   7.969  10.066   6.236  0.3728  0.0243  0.3181
  150MOL0     C20568   7.856  10.141   6.228 -0.3984 -0.4403  0.7561
  150MOL0     C20569   7.853  10.242   6.315  0.6781  0.2050  0.1048
  150MOL0     O20570   7.736  10.307   6.320  0.4000  1.1287  0.0665
  150MOL0     C20571   7.666  10.291   6.445  0.7828  0.1008  0.0083
  150MOL0     C20572   7.520  10.317   6.405 -0.8084  0.4086 -1.1159
  150MOL0     C20573   7.428  10.310   6.531 -0.3371 -0.0436 -0.4545
  150MOL0     C20574   7.446  10.415   6.635  0.9405 -0.0417 -0.1447
  150MOL0     C20575   7.354  10.398   6.758 -0.5499  1.0435  0.6651
  150MOL0     C20576   7.223  10.468   6.757  0.2331  0.4242  0.5211
  150MOL0     C20577   7.225  10.616   6.793 -0.3283  1.6304  0.3157
  150MOL0     C20578   7.098  10.693   6.734  0.0399 -0.1359 -0.2309
  150MOL0     N20579   7.124  10.750   6.599 -0.2712 -0.3446 -0.3076
  150MOL0     C20580   7.071  10.686   6.489 -0.2872  0.5121 -0.5000
  150MOL0     C20581   7.094  10.775   6.388 -0.5737 -1.0645  0.5941
  150MOL0     C20582   7.072  10.763   6.245 -0.0406 -0.8319  0.4560
  150MOL0     C20583   7.097  10.624   6.188  0.9793 -0.0890 -0.0387
  150MOL0     C20584   6.994  10.597   6.074 -0.4332 -0.6568  0.0026
  150MOL0     C20585   7.002  10.451   6.020 -0.4428 -0.5032  0.0391
  150MOL0     O20586   7.137  10.420   6.010  0.2003  0.6801 -0.5299
  150MOL0     C20587   7.169  10.290   6.022  0.3808  0.4663 -0.3910
  150MOL0     C20588   7.303  10.263   6.055  0.4777  0.7164  0.1482
  150MOL0     C20589   7.341  10.127   6.083 -0.0318 -0.0606  0.1906
  150MOL0     C20590   7.491  10.097   6.100  0.8998 -0.4619  0.0463
  150MOL0     C20591   7.245  10.022   6.068 -0.1646 -0.5863  0.1385
  150MOL0     C20592   7.271   9.884   6.111 -0.3795  0.0048 -1.6454
  150MOL0     O20593   7.165   9.805   6.105  0.1965 -0.0839 -0.2818
  150MOL0     C20594   7.190   9.666   6.128 -1.0037 -0.0344  0.8435
  150MOL0     C20595   7.176   9.617   6.258 -0.6621 -0.1033 -0.0597
  150MOL0     C20596   7.221   9.491   6.295  0.1971 -0.0164  0.1067
  150MOL0     C20597   7.278   9.402   6.200  0.1796  0.4131 -0.3091
  150MOL0     O20598   7.333   9.276   6.230  0.3237 -0.1628 -0.0220
  150MOL0     C20599   7.441   9.288   6.331  0.8211  0.3974 -0.0735
  150MOL0     C20600   7.575   9.291   6.258 -0.1686  0.5905  0.5424
  150MOL0     C20601   7.603   9.165   6.178  0.3682  0.5751 -0.1973
  150MOL0     C20602   7.748   9.181   6.130 -0.3489  1.1220  0.2888
  150MOL0     C20603   7.768   9.079   6.013  0.0303 -0.4138 -0.0561
  150MOL0     C20604   7.907   9.107   5.949  0.5691 -1.3681 -0.6918
  150MOL0     C20605   7.941   9.027   5.823  0.8347 -0.5637  0.0585
  150MOL0     C20606   7.871   9.074   5.688  0.0575  0.1234 -0.2909
  150MOL0    Cl20607   7.900   9.252   5.658 -0.0755  0.2429 -0.1579
  150MOL0     C20608   7.283   9.453   6.065  0.2393  0.2163 -0.3042
  150MOL0     C20609   7.241   9.578   6.031  0.3217 -1.0910  0.2787
  150MOL0     O20610   7.380   9.846   6.129  0.4579  0.3134  0.0343
  150MOL0     C20611   7.116  10.058   6.025 -0.5137  0.1997  0.0223
  150MOL0     C20612   7.076  10.185   6.003  0.7281 -0.3692  0.3449
  150MOL0     N20613   7.169  10.889   6.446 -0.2042 -0.6163 -0.4967
  150MOL0     N20614   7.181  10.874   6.569 -0.0625  0.8100  0.1201
  150MOL0     C20615   7.965  10.289   6.382 -0.1594  0.5402  0.7447
  150MOL0     C20616   8.087  10.228   6.359  0.3022  0.0878 -0.2534
  150MOL0     C20617   8.343   9.841   6.322  0.1658  0.1544  0.0297
  150MOL0     C20618   8.373   9.709   6.272 -0.3276  0.2437  0.7872
  150MOL0     C20619   8.464   9.626   6.325 -0.4972  0.4968  0.5278
  150MOL0     C20620   8.534   9.656   6.431 -0.8746  0.6743 -0.6149
  150MOL0     O20621   8.623   9.576   6.492  0.1674 -0.3263 -0.7887
  150MOL0     C20622   8.656   9.444   6.449 -0.1204  0.1178 -0.0773
  150MOL0     C20623   8.780   9.402   6.536  0.7084  0.8029 -0.3452
  150MOL0     C20624   8.813   9.255   6.504  0.6447 -0.0674  0.5333
  150MOL0     C20625   8.951   9.233   6.571  0.9753  0.1585 -0.0943
  150MOL0     C20626   9.012   9.103   6.530 -0.3651 -0.1801 -0.3869
  150MOL0     C20627   9.055   8.987   6.510  0.0586  0.5185 -0.6055
  150MOL0     C20628   8.522   9.787   6.490  0.4364 -0.2308  0.0169
  150MOL0     C20629   8.426   9.871   6.436 -0.6846  0.0282 -0.0841
  150MOL0     C20630   8.413  10.005   6.510 -1.3679  0.4565  0.6220
  150MOL0     H20631   7.964   9.973   6.182 -0.7881 -0.0422  0.5175
  150MOL0     H20632   7.771  10.120   6.164 -1.2637  1.0747  1.3408
  150MOL0     H20633   7.705  10.349   6.528 -3.1808  1.2800  1.2670
  150MOL0     H20634   7.681  10.186   6.472  0.2077 -0.0918 -0.3857
  150MOL0     H20635   7.509  10.409   6.347  1.0315  1.9162  0.7411
  150MOL0     H20636   7.493  10.239   6.334 -0.4905  0.0765 -0.8804
  150MOL0     H20637   7.322  10.318   6.505 -0.3988  0.2761 -0.1061
  150MOL0     H20638   7.452  10.211   6.572 -1.3614  0.1851  0.7601
  150MOL0     H20639   7.544  10.399   6.682 -0.4950  1.1319  3.6756
  150MOL0     H20640   7.435  10.518   6.601  1.0909  0.4975  1.3510
  150MOL0     H20641   7.411  10.422   6.849 -0.0932  1.9140  0.1646
  150MOL0     H20642   7.326  10.293   6.765 -1.4289  1.2218 -0.0265
  150MOL0     H20643   7.176  10.447   6.660 -0.8383 -1.2758  1.3634
  150MOL0     H20644   7.160  10.416   6.830 -1.5510  0.1974 -1.0898
  150MOL0     H20645   7.318  10.657   6.754  0.9932 -1.8915 -0.5946
  150MOL0     H20646   7.229  10.620   6.902  0.8114  1.5085  0.2845
  150MOL0     H20647   7.012  10.626   6.741 -0.6967  0.9647  2.3787
  150MOL0     H20648   7.078  10.774   6.804  0.8270 -0.0777 -0.0680
  150MOL0     H20649   7.036  10.584   6.484  1.2726 -0.3165  2.9076
  150MOL0     H20650   7.124  10.842   6.190  0.6668 -1.2921  0.4453
  150MOL0     H20651   6.966  10.789   6.235 -0.6566 -2.5478  1.9868
  150MOL0     H20652   7.197  10.626   6.144  0.9796  0.9295 -0.0201
  150MOL0     H20653   7.094  10.538   6.256 -5.6822 -0.2617  0.1385
  150MOL0     H20654   6.888  10.611   6.093 -0.5756 -1.0093 -0.5010
  150MOL0     H20655   7.016  10.654   5.983 -0.4039 -0.1371  0.3382
  150MOL0     H20656   6.951  10.387   6.092  0.3898  2.0655  3.1431
  150MOL0     H20657   6.962  10.429   5.920  1.7021 -4.0706 -0.1682
  150MOL0     H20658   7.385  10.334   6.060  1.8376 -0.8372  3.5001
  150MOL0     H20659   7.563  10.180   6.105  0.5326 -0.1987  1.5070
  150MOL0     H20660   7.517  10.037   6.013  1.0389  1.6194 -1.4406
  150MOL0     H20661   7.507  10.040   6.192 -0.6025  1.2025  1.4077
  150MOL0     H20662   7.113   9.678   6.321 -0.1199 -0.4824  0.8712
  150MOL0     H20663   7.207   9.455   6.397  2.5962 -3.4116 -0.5951
  150MOL0     H20664   7.427   9.377   6.393 -0.2771  0.3971 -0.3055
  150MOL0     H20665   7.432   9.199   6.394  0.7939  0.3844 -0.0957
  150MOL0     H20666   7.580   9.372   6.185  0.6690 -1.7297 -2.1186
  150MOL0     H20667   7.655   9.296   6.333  0.8926 -0.1443 -0.5080
  150MOL0     H20668   7.536   9.156   6.092  2.4770  1.1777 -2.0310
  150MOL0     H20669   7.588   9.074   6.236 -0.0417  0.6013 -0.2619
  150MOL0     H20670   7.813   9.162   6.216 -2.1974 -2.1001  1.1481
  150MOL0     H20671   7.775   9.280   6.092 -0.5987  1.2340  0.3972
  150MOL0     H20672   7.766   8.978   6.056 -2.0283 -1.9502 -3.3179
  150MOL0     H20673   7.689   9.080   5.937 -0.1702 -0.6859  0.1443
  150MOL0     H20674   7.979   9.098   6.031  0.0698  2.0263  0.2597
  150MOL0     H20675   7.907   9.213   5.921  0.3765 -1.0704  0.3935
  150MOL0     H20676   7.909   8.924   5.838 -1.2604 -0.2988 -2.0468
  150MOL0     H20677   8.049   9.031   5.808  0.6578 -1.3794 -1.7070
  150MOL0     H20678   7.763   9.060   5.694 -0.3838  2.2575 -2.1611
  150MOL0     H20679   7.897   9.001   5.611  1.3093 -0.5800  0.7404
  150MOL0     H20680   7.318   9.386   5.987 -0.0235 -0.8049  0.4304
  150MOL0     H20681   7.248   9.609   5.927  2.7817  2.2014  1.2676
  150MOL0     H20682   7.053   9.972   6.006  0.0691 -0.1240 -0.5148
  150MOL0     H20683   6.982  10.205   5.952  0.8699 -0.9992 -0.1738
  150MOL0     H20684   7.945  10.368   6.455 -0.3177 -0.6079  1.9756
  150MOL0     H20685   8.174  10.250   6.420 -0.6437 -1.8291  1.9200
  150MOL0     H20686   8.324   9.674   6.182 -0.0719  0.8501  0.4068
  150MOL0     H20687   8.479   9.531   6.275  1.8689  2.5917 -3.1208
  150MOL0     H20688   8.568   9.381   6.460 -1.4092  1.8003 -0.2928
  150MOL0     H20689   8.687   9.432   6.345  0.7377 -1.3048  0.3183
  150MOL0     H20690   8.763   9.411   6.644  3.3811 -2.8429  0.5912
  150MOL0     H20691   8.865   9.469   6.518  0.1419  0.9894 -2.5252
  150MOL0     H20692   8.738   9.190   6.551  0.0155  0.7848  0.7487
  150MOL0     H20693   8.815   9.238   6.396  0.2699  1.5054  0.2439
  150MOL0     H20694   8.935   9.218   6.678 -2.1454 -1.7109 -0.6736
  150MOL0     H20695   9.017   9.319   6.560  1.1933  0.4783  2.8951
  150MOL0     H20696   9.091   8.886   6.497  1.6429  0.8424  0.9595
  150MOL0     H20697   8.575   9.817   6.579  0.2571  0.6800 -0.1721
  150MOL0     H20698   8.312  10.043   6.527 -2.3918 -0.9958 -1.6361
  150MOL0     H20699   8.470  10.023   6.601  0.0607  0.3181 -0.2029
  150MOL0     H20700   8.448  10.073   6.431 -0.9903  0.1214  0.4923
  151MOL0     O20701   6.805   9.454   3.246 -0.3426 -0.1727 -0.2706
  151MOL0     C20702   6.767   9.572   3.266 -0.1850 -0.1108 -1.4029
  151MOL0     O20703   6.709   9.613   3.384 -0.0256 -0.2187  0.7383
  151MOL0     C20704   6.657   9.514   3.470  0.1649  0.0981 -0.8893
  151MOL0     C20705   6.527   9.477   3.479  0.2503 -0.1663  0.7560
  151MOL0     C20706   6.478   9.386   3.570  0.3071 -0.9430  0.1574
  151MOL0     C20707   6.575   9.324   3.652 -0.6746 -0.8716 -0.1231
  151MOL0     O20708   6.555   9.239   3.751 -0.0016 -0.0244  0.4244
  151MOL0     C20709   6.442   9.161   3.755 -1.4498  0.7014 -0.6850
  151MOL0     C20710   6.342   9.204   3.864 -0.5241  0.2300  0.9620
  151MOL0     C20711   6.418   9.202   4.001  0.7921  0.1516  0.7864
  151MOL0     C20712   6.328   9.191   4.124  0.7367 -0.6552  0.1207
  151MOL0     C20713   6.390   9.115   4.240  0.4263 -0.0128 -0.3447
  151MOL0     C20714   6.514   9.190   4.284  0.1098 -0.4496  1.0730
  151MOL0     C20715   6.554   9.147   4.417 -0.9197 -0.1414 -0.2453
  151MOL0     C20716   6.645   9.023   4.426 -0.7158 -0.3622  0.2406
  151MOL0     N20717   6.572   8.900   4.394  0.5320  0.4641 -0.0027
  151MOL0     C20718   6.630   8.781   4.354 -0.5251 -0.1811  0.5868
  151MOL0     C20719   6.543   8.685   4.394 -0.2835  0.8557  0.0053
  151MOL0     C20720   6.565   8.533   4.383 -0.4243  1.0969  0.6702
  151MOL0     C20721   6.669   8.491   4.270  0.6933  0.4178  0.2101
  151MOL0     C20722   6.691   8.334   4.278  0.3793 -0.0791 -0.0466
  151MOL0     C20723   6.809   8.283   4.196 -0.7348  0.1828  0.5622
  151MOL0     O20724   6.773   8.286   4.062 -0.3603  0.2784 -0.2754
  151MOL0     C20725   6.867   8.313   3.962 -0.1335  0.0654 -0.8613
  151MOL0     C20726   6.818   8.368   3.844  0.0880  0.5404 -0.5908
  151MOL0     C20727   6.899   8.424   3.748  0.2995  0.1855  0.2495
  151MOL0     C20728   6.807   8.478   3.632  0.4180  0.2799 -0.1919
  151MOL0     C20729   7.042   8.404   3.758  0.2474  1.5433 -1.2515
  151MOL0     C20730   7.130   8.426   3.649 -0.5718  0.2358  0.9075
  151MOL0     O20731   7.267   8.406   3.666  0.4082  0.8671 -0.5848
  151MOL0     C20732   7.355   8.430   3.567 -0.6342 -0.1972  0.8903
  151MOL0     C20733   7.376   8.340   3.465 -0.1063 -0.6359  0.0650
  151MOL0     C20734   7.465   8.367   3.366 -0.1143 -0.2464 -0.4096
  151MOL0     C20735   7.551   8.480   3.372 -0.6042 -0.6113  0.0108
  151MOL0     O20736   7.626   8.502   3.257 -0.6919 -0.0899  0.1927
  151MOL0     C20737   7.687   8.628   3.238  0.0572  0.1163  0.1595
  151MOL0     C20738   7.744   8.633   3.095  0.0766 -0.5326 -0.1511
  151MOL0     C20739   7.647   8.603   2.982  0.4875 -0.0931  0.8617
  151MOL0     C20740   7.535   8.712   2.966  0.1384  0.4986 -1.2664
  151MOL0     C20741   7.401   8.668   2.900 -0.4362 -0.1763 -0.0568
  151MOL0     C20742   7.429   8.609   2.761  0.9701  1.0477 -0.1851
  151MOL0     C20743   7.285   8.586   2.692 -1.0669 -0.7545 -0.4609
  151MOL0     C20744   7.320   8.547   2.545  0.6770 -0.4014  0.8429
  151MOL0    Cl20745   7.166   8.546   2.449 -0.0995  0.1402  0.0486
  151MOL0     C20746   7.541   8.565   3.482 -0.4444 -0.5749 -0.7115
  151MOL0     C20747   7.437   8.536   3.570 -0.2794 -0.7225  0.4190
  151MOL0     O20748   7.088   8.482   3.543 -0.0615 -0.7072 -0.0326
  151MOL0     C20749   7.092   8.347   3.875 -0.1381 -0.0744  0.8338
  151MOL0     C20750   7.007   8.310   3.975  0.3872  0.8720 -0.5263
  151MOL0     N20751   6.432   8.743   4.457 -0.4890 -0.3681  0.1180
  151MOL0     N20752   6.450   8.870   4.449  0.5345 -1.0090 -0.6165
  151MOL0     C20753   6.704   9.364   3.652 -0.7371 -0.0444  0.7582
  151MOL0     C20754   6.738   9.470   3.565  0.0696  0.7380  0.7707
  151MOL0     C20755   6.783   9.665   3.154 -0.0827 -0.1588 -1.4794
  151MOL0     C20756   6.726   9.622   3.034  0.5943  0.6648  0.0103
  151MOL0     C20757   6.709   9.711   2.927 -0.2213 -0.3448 -0.4308
  151MOL0     C20758   6.755   9.841   2.933  0.1835  0.5666  0.4510
  151MOL0     O20759   6.735   9.908   2.820 -0.0868  0.2555  0.1728
  151MOL0     C20760   6.743  10.050   2.818  0.7581 -0.3489  0.1155
  151MOL0     C20761   6.675  10.086   2.693  1.1015 -0.6825  0.0289
  151MOL0     C20762   6.691  10.233   2.651 -0.1592 -0.2024  0.0472
  151MOL0     C20763   6.825  10.255   2.572  0.7854  0.5466  0.0638
  151MOL0     C20764   6.931  10.273   2.673  0.6298 -1.3956  0.2448
  151MOL0     C20765   7.019  10.287   2.753  0.3116  0.6074 -0.7616
  151MOL0     C20766   6.814   9.883   3.055 -0.3541 -0.0146 -0.5274
  151MOL0     C20767   6.832   9.801   3.165  0.2835  0.0169  0.6010
  151MOL0     C20768   6.901   9.851   3.285 -1.0105 -0.8055 -0.9004
  151MOL0     H20769   6.457   9.527   3.413  1.0404 -0.5829 -0.4417
  151MOL0     H20770   6.375   9.356   3.589 -0.0822 -0.0375 -0.4310
  151MOL0     H20771   6.480   9.059   3.765  0.0915  1.3098 -0.0062
  151MOL0     H20772   6.386   9.148   3.662 -1.4690 -2.5364 -0.3286
  151MOL0     H20773   6.328   9.312   3.853  1.4543  0.8212  3.3424
  151MOL0     H20774   6.245   9.154   3.860 -0.4303  0.0948  0.3118
  151MOL0     H20775   6.476   9.110   3.993  0.1148 -0.1239 -2.1189
  151MOL0     H20776   6.488   9.286   4.007 -1.1688  2.0018 -0.5867
  151MOL0     H20777   6.310   9.292   4.162 -3.2748 -1.3607  0.5614
  151MOL0     H20778   6.229   9.149   4.101  0.8257 -3.1122  3.3881
  151MOL0     H20779   6.409   9.011   4.214 -0.5218 -0.5264  0.9176
  151MOL0     H20780   6.320   9.120   4.324 -0.5587  0.1053 -1.1574
  151MOL0     H20781   6.585   9.160   4.206 -0.5086  0.0386  0.3083
  151MOL0     H20782   6.494   9.297   4.274 -0.6068 -0.5661  1.2486
  151MOL0     H20783   6.472   9.136   4.488 -1.3138  0.3001 -0.6222
  151MOL0     H20784   6.608   9.233   4.459 -3.3153  0.1241  2.5849
  151MOL0     H20785   6.727   9.033   4.353 -3.4170  1.0365 -2.8564
  151MOL0     H20786   6.695   9.002   4.521  0.1876 -5.0316 -1.0140
  151MOL0     H20787   6.729   8.764   4.315 -0.6730 -2.4095  1.0451
  151MOL0     H20788   6.467   8.484   4.374 -0.0475  0.7463 -2.5720
  151MOL0     H20789   6.592   8.485   4.477 -0.9647 -3.4346 -1.2324
  151MOL0     H20790   6.634   8.522   4.171  4.2554  0.3362 -1.2181
  151MOL0     H20791   6.767   8.530   4.297  1.5515 -1.1937 -0.4397
  151MOL0     H20792   6.709   8.308   4.383  0.1370  0.5658  0.1595
  151MOL0     H20793   6.594   8.285   4.261 -1.4559  0.9829  5.3234
  151MOL0     H20794   6.897   8.343   4.222  0.1439 -1.4139  1.5009
  151MOL0     H20795   6.838   8.184   4.233  1.0694  1.7436  3.8302
  151MOL0     H20796   6.711   8.382   3.831  0.1204 -1.4178 -4.6599
  151MOL0     H20797   6.799   8.408   3.548 -1.6302  0.2818 -0.0335
  151MOL0     H20798   6.845   8.574   3.597 -0.2564  2.2406  3.9097
  151MOL0     H20799   6.703   8.496   3.661  0.7033 -0.3628  1.2771
  151MOL0     H20800   7.320   8.247   3.454 -1.4408  0.2043 -0.5645
  151MOL0     H20801   7.476   8.303   3.279 -0.5170 -0.0051 -0.6413
  151MOL0     H20802   7.614   8.707   3.258  0.8986  0.8460  0.4362
  151MOL0     H20803   7.769   8.642   3.309  0.6557 -0.1444 -0.4655
  151MOL0     H20804   7.791   8.732   3.097 -2.2740  0.6435  1.4312
  151MOL0     H20805   7.832   8.568   3.088  4.9298  4.9378  1.9312
  151MOL0     H20806   7.608   8.503   3.003 -1.9638  0.5316 -0.4013
  151MOL0     H20807   7.703   8.587   2.889 -0.6208  2.6093 -0.3484
  151MOL0     H20808   7.579   8.801   2.921  3.1092  0.3517  1.0526
  151MOL0     H20809   7.520   8.738   3.071  1.3798 -0.1535 -0.9085
  151MOL0     H20810   7.338   8.608   2.967 -1.1703  0.1297 -0.4633
  151MOL0     H20811   7.344   8.759   2.878  0.6491  0.3820 -0.6305
  151MOL0     H20812   7.496   8.522   2.764 -1.1684 -0.7910 -2.3157
  151MOL0     H20813   7.487   8.684   2.706 -2.3995  1.1750 -3.9593
  151MOL0     H20814   7.216   8.670   2.706 -0.8971  0.1183 -3.9423
  151MOL0     H20815   7.230   8.499   2.731 -5.0798  2.2299  1.1857
  151MOL0     H20816   7.356   8.444   2.533  1.4948 -0.2018  1.4792
  151MOL0     H20817   7.381   8.612   2.482 -0.6971 -1.7469 -2.1215
  151MOL0     H20818   7.602   8.655   3.489  2.0923 -2.3498  2.7323
  151MOL0     H20819   7.404   8.602   3.650 -4.2605 -0.3918 -1.2402
  151MOL0     H20820   7.198   8.334   3.892 -0.0803 -1.8606 -0.5202
  151MOL0     H20821   7.035   8.257   4.065  1.5126  0.4540 -1.1013
  151MOL0     H20822   6.788   9.344   3.718 -0.3978  1.2531  0.7537
  151MOL0     H20823   6.833   9.523   3.560 -1.0933  2.9239  0.4234
  151MOL0     H20824   6.695   9.518   3.024  0.9445  0.5739 -0.1340
  151MOL0     H20825   6.677   9.673   2.831 -1.9274  1.5172 -0.6636
  151MOL0     H20826   6.692  10.100   2.901 -1.0848  0.1467 -1.2409
  151MOL0     H20827   6.849  10.075   2.817  0.1689  2.4770 -0.0671
  151MOL0     H20828   6.569  10.067   2.709  0.8663  1.3946  1.1374
  151MOL0     H20829   6.699  10.027   2.603  0.6384 -2.1792  0.8499
  151MOL0     H20830   6.604  10.262   2.591  0.5499  3.3205  0.4903
  151MOL0     H20831   6.691  10.300   2.738 -4.8690  3.0645 -2.0160
  151MOL0     H20832   6.824  10.335   2.498 -2.4752  1.1137  0.5428
  151MOL0     H20833   6.851  10.162   2.521 -1.0277 -0.5855  1.1064
  151MOL0     H20834   7.096  10.294   2.827 -2.8063 -1.3710  2.9794
  151MOL0     H20835   6.853   9.985   3.054  0.8295 -0.4496 -1.9756
  151MOL0     H20836   6.981   9.918   3.255 -0.6588 -0.8557 -0.0977
  151MOL0     H20837   6.833   9.901   3.355  2.0330  1.7588  0.4587
  151MOL0     H20838   6.941   9.762   3.335  0.3439 -0.2474 -0.9677
  152MOL0     O20839   4.017   1.482   7.005  0.3006  0.4003  0.2726
  152MOL0     C20840   4.004   1.591   6.958  1.1305 -0.1426  0.5335
  152MOL0     O20841   3.888   1.651   6.921 -0.0448 -0.0216  0.2466
  152MOL0     C20842   3.777   1.589   6.968 -0.3784 -0.8459  0.1038
  152MOL0     C20843   3.736   1.456   6.922  0.8386  0.1851 -1.0897
  152MOL0     C20844   3.625   1.399   6.980  0.5008 -0.0680  0.0077
  152MOL0     C20845   3.556   1.455   7.101 -0.4565  0.4241  1.0179
  152MOL0     O20846   3.452   1.387   7.152  0.2489  1.2573 -1.2859
  152MOL0     C20847   3.398   1.421   7.287 -0.3909 -0.3271 -1.0731
  152MOL0     C20848   3.307   1.311   7.331  0.5542 -0.4019  0.4128
  152MOL0     C20849   3.233   1.341   7.457  0.5101 -0.3258 -0.6262
  152MOL0     C20850   3.132   1.222   7.479 -0.0860  0.3703 -0.8132
  152MOL0     C20851   3.047   1.243   7.599 -0.2446  0.4132 -0.1400
  152MOL0     C20852   2.951   1.118   7.613  0.4914 -0.7707  0.5755
  152MOL0     C20853   2.878   1.126   7.754 -0.4645  0.5669  0.0577
  152MOL0     C20854   2.778   1.247   7.777  0.0395 -0.3557 -0.1923
  152MOL0     N20855   2.736   1.246   7.917  0.6594  0.5299  0.4573
  152MOL0     C20856   2.683   1.134   7.982 -1.3476  0.1862 -0.3775
  152MOL0     C20857   2.687   1.167   8.110  0.4641 -0.2440  0.4771
  152MOL0     C20858   2.642   1.073   8.225  0.1895  0.2317 -0.0073
  152MOL0     C20859   2.491   1.047   8.201 -0.4979 -1.4265 -0.7098
  152MOL0     C20860   2.441   0.938   8.308 -0.2615 -0.5238  0.8542
  152MOL0     C20861   2.328   0.847   8.252  0.3658 -0.5263 -0.0895
  152MOL0     O20862   2.236   0.927   8.170  0.6405  0.0715  0.0710
  152MOL0     C20863   2.131   0.858   8.109 -0.7944  0.0612 -0.2479
  152MOL0     C20864   2.132   0.731   8.067 -0.5053  0.4580 -0.8411
  152MOL0     C20865   2.010   0.672   8.018  1.0211 -0.2621  1.1699
  152MOL0     C20866   2.019   0.524   7.996  0.7838  0.9653  0.4571
  152MOL0     C20867   1.890   0.760   7.988 -0.6717  0.7588 -0.6356
  152MOL0     C20868   1.764   0.711   7.931  0.5576  0.4123 -0.2529
  152MOL0     O20869   1.750   0.576   7.882 -1.0102 -0.0517  0.5095
  152MOL0     C20870   1.637   0.506   7.877  0.1681 -0.7803 -0.1581
  152MOL0     C20871   1.630   0.380   7.930 -0.5015 -0.4696  0.8752
  152MOL0     C20872   1.525   0.297   7.912 -0.0986  1.3820  0.1580
  152MOL0     C20873   1.416   0.340   7.831  0.4502  0.5562  0.4524
  152MOL0     O20874   1.291   0.270   7.803 -0.6384  0.7456 -0.0239
  152MOL0     C20875   1.282   0.130   7.852 -0.5416 -0.9678  0.1973
  152MOL0     C20876   1.139   0.081   7.823  0.6316  0.5084  0.6850
  152MOL0     C20877   1.108  -0.040   7.903 -0.8109 -0.1047 -0.6096
  152MOL0     C20878   0.996  -0.118   7.830 -0.0899  1.0696 -1.5012
  152MOL0     C20879   0.898  -0.186   7.933  0.4626 -0.4911  0.2890
  152MOL0     C20880   0.979  -0.271   8.031  0.1542 -0.0661 -0.3889
  152MOL0     C20881   1.060  -0.379   7.961  0.9183  0.6436  0.4699
  152MOL0     C20882   1.103  -0.490   8.060 -0.3654 -0.5187 -0.4130
  152MOL0    Cl20883   1.220  -0.402   8.163  0.1254  0.1886  0.0980
  152MOL0     C20884   1.417   0.464   7.768 -0.3042  0.1423  0.0366
  152MOL0     C20885   1.535   0.549   7.783  0.0143  0.1068 -0.5696
  152MOL0     O20886   1.671   0.793   7.942 -0.3112  0.7309  0.1442
  152MOL0     C20887   1.916   0.894   8.001  0.6488  0.1072 -0.0077
  152MOL0     C20888   2.022   0.936   8.081 -0.2854  0.8138  0.7621
  152MOL0     N20889   2.755   1.290   8.132  0.1507  0.4985  0.5921
  152MOL0     N20890   2.781   1.337   8.008  0.1233 -0.2781 -0.0023
  152MOL0     C20891   3.606   1.577   7.146 -0.9480  0.7346  0.6011
  152MOL0     C20892   3.720   1.645   7.086 -0.3270  0.3041 -0.4214
  152MOL0     C20893   4.138   1.657   6.924 -0.5256 -0.1072 -0.3757
  152MOL0     C20894   4.125   1.795   6.896 -0.4500 -0.7765  0.8624
  152MOL0     C20895   4.229   1.869   6.845  0.0735  0.3055 -0.0411
  152MOL0     C20896   4.358   1.806   6.834  0.8671  0.0537  0.8695
  152MOL0     O20897   4.459   1.888   6.800  1.0520 -0.6801  0.6303
  152MOL0     C20898   4.576   1.848   6.721 -0.3784  0.0874 -0.5056
  152MOL0     C20899   4.695   1.943   6.763  0.2252  0.6366  0.3964
  152MOL0     C20900   4.835   1.918   6.699 -0.7660  0.3462  0.5804
  152MOL0     C20901   4.941   2.005   6.758 -0.1831  0.2569  0.4231
  152MOL0     C20902   5.057   2.015   6.667 -1.0111  0.6164  0.3947
  152MOL0     C20903   5.138   2.039   6.591 -0.1309 -0.7996  0.7818
  152MOL0     C20904   4.377   1.674   6.869 -0.1070 -0.6938 -0.0758
  152MOL0     C20905   4.272   1.593   6.918 -0.4501 -0.3025 -0.9044
  152MOL0     C20906   4.301   1.447   6.941 -0.3355 -0.0380 -0.5525
  152MOL0     H20907   3.786   1.394   6.848  0.4281 -1.5026 -0.0082
  152MOL0     H20908   3.581   1.310   6.936  2.5580 -2.0496  1.6640
  152MOL0     H20909   3.353   1.521   7.290 -2.3158 -1.1817  0.7124
  152MOL0     H20910   3.486   1.410   7.351  0.6812  0.8046 -2.2860
  152MOL0     H20911   3.230   1.291   7.256 -1.2706 -2.2343  2.6600
  152MOL0     H20912   3.373   1.226   7.351  1.2390  0.2419  0.9598
  152MOL0     H20913   3.300   1.356   7.543 -1.6574  1.9839  0.7894
  152MOL0     H20914   3.177   1.435   7.452  0.8782 -0.1156 -0.8746
  152MOL0     H20915   3.066   1.213   7.391  1.2538  0.7507 -1.8938
  152MOL0     H20916   3.194   1.133   7.493 -0.0785  0.2807 -1.3844
  152MOL0     H20917   2.993   1.338   7.592  1.6351  1.7702  2.2641
  152MOL0     H20918   3.107   1.249   7.690  0.0879 -0.1884 -0.3166
  152MOL0     H20919   2.866   1.121   7.544  0.1283 -0.3487  1.0322
  152MOL0     H20920   3.007   1.026   7.595  2.5529  0.5172  0.1422
  152MOL0     H20921   2.955   1.119   7.832  0.2951  0.5236 -0.6795
  152MOL0     H20922   2.814   1.038   7.761  0.3299 -0.4020 -3.0595
  152MOL0     H20923   2.816   1.338   7.729 -0.0392 -1.1121 -1.7341
  152MOL0     H20924   2.693   1.215   7.716 -0.0490  1.3920 -1.0530
  152MOL0     H20925   2.644   1.046   7.933  2.2310 -2.4360  1.0072
  152MOL0     H20926   2.668   1.115   8.323 -2.6959  0.8150  0.6055
  152MOL0     H20927   2.686   0.974   8.211 -0.3674 -0.0912  0.4846
  152MOL0     H20928   2.433   1.139   8.206 -1.3885 -2.0137  0.2318
  152MOL0     H20929   2.477   1.003   8.102  0.2566  2.1053 -2.5318
  152MOL0     H20930   2.514   0.868   8.350 -3.4247 -4.8389 -0.1181
  152MOL0     H20931   2.394   0.996   8.388 -0.1956  0.6730  0.0583
  152MOL0     H20932   2.376   0.758   8.210 -1.1344 -1.5740  0.3027
  152MOL0     H20933   2.271   0.807   8.336 -0.3644 -4.6581 -2.2961
  152MOL0     H20934   2.224   0.673   8.070  0.2234  1.5138  3.1293
  152MOL0     H20935   2.001   0.503   7.890 -0.9865 -1.7663  1.1784
  152MOL0     H20936   1.946   0.467   8.054  1.5194 -2.6291 -1.8195
  152MOL0     H20937   2.116   0.477   8.016  2.0350  0.7958 -4.6106
  152MOL0     H20938   1.716   0.345   7.985  1.3946  0.8052 -1.0954
  152MOL0     H20939   1.525   0.195   7.948 -0.4596  1.0494 -0.7281
  152MOL0     H20940   1.364   0.077   7.804 -1.4867 -4.1827  1.8625
  152MOL0     H20941   1.289   0.126   7.961  1.1039  0.3302  0.1812
  152MOL0     H20942   1.061   0.156   7.840  2.3105  2.0705  1.8538
  152MOL0     H20943   1.139   0.051   7.717 -2.5649  0.8186  0.4995
  152MOL0     H20944   1.089  -0.007   8.006  4.2887  1.0019  0.2469
  152MOL0     H20945   1.182  -0.118   7.922 -1.2789 -0.3056  0.4845
  152MOL0     H20946   1.046  -0.192   7.767 -1.2383 -1.5436  0.4537
  152MOL0     H20947   0.935  -0.043   7.778 -0.0544  1.2777 -1.2459
  152MOL0     H20948   0.844  -0.108   7.988  1.6818  1.6762 -1.4388
  152MOL0     H20949   0.827  -0.244   7.875  0.0847  1.0859 -0.8864
  152MOL0     H20950   0.910  -0.310   8.106  0.9443 -1.6061 -0.4286
  152MOL0     H20951   1.047  -0.203   8.083  0.9115 -0.2994 -1.0580
  152MOL0     H20952   1.146  -0.347   7.901  2.6250 -0.3306  2.2648
  152MOL0     H20953   0.987  -0.428   7.896 -1.8385  3.2265  1.4040
  152MOL0     H20954   1.148  -0.575   8.008  1.6502 -0.1543  0.6247
  152MOL0     H20955   1.013  -0.519   8.114 -0.6985  1.3324  0.0852
  152MOL0     H20956   1.334   0.486   7.702 -1.8884 -1.8658  1.2214
  152MOL0     H20957   1.558   0.640   7.728  2.5638  1.5849  2.5974
  152MOL0     H20958   1.845   0.965   7.960  0.6801 -0.3508 -0.8792
  152MOL0     H20959   2.043   1.041   8.101  2.1395  0.7392 -0.8991
  152MOL0     H20960   3.554   1.616   7.232 -2.1557  1.3822 -0.3929
  152MOL0     H20961   3.755   1.730   7.145 -2.2314  1.9689 -1.5588
  152MOL0     H20962   4.036   1.853   6.918  3.0151  5.1741  1.3447
  152MOL0     H20963   4.223   1.975   6.827  0.2248  0.4047  0.4800
  152MOL0     H20964   4.613   1.748   6.744 -1.8894 -0.5088 -0.6234
  152MOL0     H20965   4.556   1.861   6.615 -3.3665  2.5136  0.2139
  152MOL0     H20966   4.700   1.955   6.871 -2.7008 -0.6977  0.7749
  152MOL0     H20967   4.664   2.041   6.724 -0.8676  1.2005  2.5168
  152MOL0     H20968   4.870   1.816   6.716 -1.1696 -0.1109 -1.1391
  152MOL0     H20969   4.828   1.916   6.590 -0.6877 -0.2148  0.5836
  152MOL0     H20970   4.968   1.956   6.852  0.0260 -1.7484 -0.6427
  152MOL0     H20971   4.911   2.104   6.795  0.5914 -0.0555  1.9851
  152MOL0     H20972   5.216   2.068   6.524  2.0462  1.5629  4.0235
  152MOL0     H20973   4.480   1.639   6.858  0.1905  0.5052 -1.2120
  152MOL0     H20974   4.253   1.427   7.038  0.8540  0.7849  0.2380
  152MOL0     H20975   4.254   1.380   6.868 -0.9503 -0.7779  0.4887
  152MOL0     H20976   4.409   1.433   6.953 -0.2996  0.7979  0.2069
  153MOL0     O20977   3.157  10.794  11.121 -0.2363 -0.0354  0.7531
  153MOL0     C20978   3.093  10.871  11.195 -0.1278  0.9340  0.4374
  153MOL0     O20979   3.043  10.835  11.316  0.0267 -0.0696 -0.1219
  153MOL0     C20980   3.106  10.729  11.378 -0.3558  0.3998  0.5087
  153MOL0     C20981   3.053  10.604  11.350 -0.2011 -0.1032  0.7349
  153MOL0     C20982   3.088  10.503  11.437 -0.7678  0.1500  0.3589
  153MOL0     C20983   3.183  10.525  11.539 -0.8819  0.1100  0.4511
  153MOL0     O20984   3.211  10.427  11.630 -0.0977 -0.1098  0.1385
  153MOL0     C20985   3.153  10.293  11.625  0.4737  0.0846  0.1657
  153MOL0     C20986   3.004  10.280  11.677  0.5805  0.2378 -0.6255
  153MOL0     C20987   2.983  10.320  11.825  0.3132 -0.2515 -0.1035
  153MOL0     C20988   2.980  10.473  11.834 -0.1151  0.1850  0.6578
  153MOL0     C20989   2.902  10.541  11.961 -0.3312  0.2814  0.4347
  153MOL0     C20990   2.987  10.547  12.096  0.6974 -0.2147  0.2168
  153MOL0     C20991   2.904  10.580  12.210 -0.0897  0.5264  0.2237
  153MOL0     C20992   2.829  10.715  12.213 -0.3807 -0.7457 -0.3448
  153MOL0     N20993   2.800  10.753  12.347  0.5612 -0.1923  0.2613
  153MOL0     C20994   2.673  10.743  12.403  0.1811 -0.5708  0.3026
  153MOL0     C20995   2.683  10.766  12.531 -0.2170 -0.1176 -0.2009
  153MOL0     C20996   2.558  10.760  12.620  0.1345  0.1477  0.0220
  153MOL0     C20997   2.567  10.660  12.732 -0.9633 -0.0325 -0.9890
  153MOL0     C20998   2.432  10.595  12.775 -0.7969 -0.6213  0.0998
  153MOL0     C20999   2.354  10.675  12.875 -0.4608  0.2570 -0.1666
  153MOL0     O21000   2.214  10.640  12.855  0.3857  0.8639 -0.4295
  153MOL0     C21001   2.156  10.546  12.942 -0.0733 -0.5916 -0.1184
  153MOL0     C21002   2.235  10.471  13.034 -0.3097 -0.4504 -0.5453
  153MOL0     C21003   2.178  10.376  13.120  0.7666  0.4485  0.0058
  153MOL0     C21004   2.273  10.287  13.206 -0.1302  0.4027  0.2831
  153MOL0     C21005   2.041  10.365  13.117  0.2900  0.5437 -0.0050
  153MOL0     C21006   1.967  10.262  13.192  0.2235  0.9927 -0.2109
  153MOL0     O21007   1.995  10.254  13.329 -0.3780 -0.8817 -0.0647
  153MOL0     C21008   1.929  10.168  13.409  0.3080 -0.6444 -0.2904
  153MOL0     C21009   1.968  10.182  13.539  0.7830 -0.2304 -0.4553
  153MOL0     C21010   1.903  10.112  13.645  0.1094  0.5669  0.6989
  153MOL0     C21011   1.794  10.024  13.617 -0.2137 -0.3707  0.3376
  153MOL0     O21012   1.733   9.954  13.719  0.5194 -0.1117 -0.2314
  153MOL0     C21013   1.803   9.916  13.839 -0.4958 -0.5364  0.8898
  153MOL0     C21014   1.752   9.780  13.898  0.0373 -0.1522  0.2097
  153MOL0     C21015   1.602   9.773  13.921  0.0188 -0.1854 -0.6385
  153MOL0     C21016   1.575   9.814  14.065  0.3197 -0.4331  0.1357
  153MOL0     C21017   1.428   9.804  14.102  0.7379 -0.6285 -0.5417
  153MOL0     C21018   1.376   9.671  14.155  0.4564 -0.1817 -0.2241
  153MOL0     C21019   1.227   9.681  14.189 -0.5475  0.4948  0.3335
  153MOL0     C21020   1.150   9.547  14.191 -0.0798 -0.4228 -0.0427
  153MOL0    Cl21021   0.978   9.570  14.252 -0.1302 -0.2508  0.2692
  153MOL0     C21022   1.764  10.000  13.481  0.2700 -0.6846  0.1319
  153MOL0     C21023   1.831  10.068  13.379  0.2762  0.0640  0.4317
  153MOL0     O21024   1.891  10.189  13.130  0.6633 -0.7080  0.5199
  153MOL0     C21025   1.963  10.435  13.028 -0.4661  0.6555  0.2657
  153MOL0     C21026   2.025  10.523  12.944 -0.0979  0.3991  0.5196
  153MOL0     N21027   2.809  10.809  12.549  0.3311  0.9318  0.0380
  153MOL0     N21028   2.884  10.801  12.438  0.1994  0.2638 -0.8280
  153MOL0     C21029   3.237  10.647  11.555  0.4963 -0.0212 -0.3563
  153MOL0     C21030   3.202  10.748  11.475 -0.6478 -0.0533 -1.1834
  153MOL0     C21031   3.049  10.999  11.133 -0.0892  0.3117  0.0600
  153MOL0     C21032   2.937  11.054  11.186 -0.2411 -0.8160 -0.1668
  153MOL0     C21033   2.880  11.170  11.136  0.4277 -0.2163 -0.2655
  153MOL0     C21034   2.941  11.237  11.030  0.5314 -0.3659 -0.1471
  153MOL0     O21035   2.880  11.349  10.987 -0.4162 -0.5209  0.3989
  153MOL0     C21036   2.957  11.468  10.939 -0.1289  0.6846 -0.1507
  153MOL0     C21037   3.064  11.529  11.038  1.3298  0.7119  0.1754
  153MOL0     C21038   3.104  11.672  11.003 -0.0901  0.0108  0.6111
  153MOL0     C21039   3.221  11.737  11.082 -0.2290  0.0162  0.4894
  153MOL0     C21040   3.186  11.752  11.221 -0.4183 -0.1906  0.6946
  153MOL0     C21041   3.176  11.741  11.339  1.1578  0.1560 -1.2659
  153MOL0     C21042   3.066  11.194  10.990  0.7062  0.4357  0.6254
  153MOL0     C21043   3.115  11.071  11.032 -0.7980  0.5621  0.3523
  153MOL0     C21044   3.237  11.017  10.953 -0.7203  0.2412 -0.1916
  153MOL0     H21045   2.989  10.599  11.263  2.2425 -0.7968 -1.1293
  153MOL0     H21046   3.049  10.404  11.419  1.3475 -0.7343  0.3716
  153MOL0     H21047   3.203  10.231  11.700 -1.2089  1.1834  2.2926
  153MOL0     H21048   3.173  10.258  11.523 -5.9556  0.2351 -1.5426
  153MOL0     H21049   2.938  10.342  11.616  0.1952 -0.6438 -1.1312
  153MOL0     H21050   2.976  10.175  11.662 -1.7200  0.8965 -1.3232
  153MOL0     H21051   2.885  10.293  11.865  0.0131 -1.4038 -1.5222
  153MOL0     H21052   3.053  10.268  11.891  1.5555  2.0964  0.5304
  153MOL0     H21053   3.074  10.524  11.815 -0.0505  0.1817  0.9543
  153MOL0     H21054   2.925  10.502  11.744 -1.5161  0.4885  1.5710
  153MOL0     H21055   2.814  10.476  11.961  1.8622 -2.8804  0.3465
  153MOL0     H21056   2.880  10.646  11.938 -2.1874  1.5964  6.3479
  153MOL0     H21057   3.054  10.462  12.113  0.9069 -0.5945 -2.1564
  153MOL0     H21058   3.060  10.626  12.080  1.2833 -0.8782 -0.4857
  153MOL0     H21059   2.977  10.587  12.291  1.6904  2.3786 -1.4313
  153MOL0     H21060   2.844  10.496  12.246  0.2954 -0.6561 -1.7457
  153MOL0     H21061   2.885  10.797  12.167 -2.7094  0.6601 -0.7809
  153MOL0     H21062   2.734  10.722  12.160 -1.0848  3.8565  1.1468
  153MOL0     H21063   2.579  10.716  12.355 -0.9181 -0.0409  2.0711
  153MOL0     H21064   2.487  10.728  12.543  2.0537 -1.1976 -1.2487
  153MOL0     H21065   2.532  10.863  12.648  2.4452  1.2369 -1.5080
  153MOL0     H21066   2.628  10.580  12.690 -1.5715  0.7497 -3.4855
  153MOL0     H21067   2.616  10.709  12.817 -0.5437 -1.3437 -0.4514
  153MOL0     H21068   2.382  10.586  12.678  1.1801 -2.0091 -0.8395
  153MOL0     H21069   2.432  10.490  12.805 -1.0486 -1.5678 -2.9131
  153MOL0     H21070   2.397  10.661  12.974  0.2598  1.2278 -0.3262
  153MOL0     H21071   2.379  10.777  12.846  0.9594 -0.4757 -1.6575
  153MOL0     H21072   2.343  10.471  13.022 -0.4418  1.0164 -2.2118
  153MOL0     H21073   2.260  10.183  13.176  1.5475  0.6139 -1.3703
  153MOL0     H21074   2.245  10.294  13.312 -2.6561  0.4707 -0.3232
  153MOL0     H21075   2.377  10.319  13.196 -0.1374  0.1794 -0.5367
  153MOL0     H21076   2.051  10.247  13.566  0.6196 -0.3685  0.4304
  153MOL0     H21077   1.933  10.131  13.748 -1.6074 -0.4124  1.4273
  153MOL0     H21078   1.909   9.904  13.816 -0.1720  1.6104  1.0647
  153MOL0     H21079   1.809   9.987  13.923  1.3794  0.7080 -0.2197
  153MOL0     H21080   1.776   9.701  13.827 -2.5211 -1.0972  0.2829
  153MOL0     H21081   1.811   9.757  13.987  3.7234  0.5438 -1.8461
  153MOL0     H21082   1.571   9.669  13.910 -3.5973  0.6675  0.2412
  153MOL0     H21083   1.549   9.830  13.844 -0.7577 -0.6483 -0.4606
  153MOL0     H21084   1.599   9.920  14.075 -3.3390  1.0552 -3.7494
  153MOL0     H21085   1.633   9.745  14.127 -1.0205 -2.7319 -1.0609
  153MOL0     H21086   1.407   9.879  14.179  2.5984 -0.5435 -0.0714
  153MOL0     H21087   1.374   9.836  14.013 -2.1440 -1.5278  0.7475
  153MOL0     H21088   1.420   9.647  14.252  2.5525  1.3550 -0.7296
  153MOL0     H21089   1.399   9.585  14.092  0.8932  0.5892 -1.1400
  153MOL0     H21090   1.170   9.761  14.142 -0.3988  0.0835 -0.5618
  153MOL0     H21091   1.222   9.715  14.293 -1.3185  0.9530  0.1518
  153MOL0     H21092   1.186   9.480  14.269 -0.2347  1.8201  2.0676
  153MOL0     H21093   1.137   9.495  14.095 -1.4055  2.2286 -1.4302
  153MOL0     H21094   1.693   9.921  13.459 -0.5433 -0.0440  0.3775
  153MOL0     H21095   1.803  10.041  13.278 -1.8808 -4.3446  1.9807
  153MOL0     H21096   1.855  10.423  13.039 -0.4296  2.2275  3.2145
  153MOL0     H21097   1.963  10.586  12.882  3.0726  1.6530 -1.6285
  153MOL0     H21098   3.295  10.666  11.645 -0.6722 -2.1405  0.9067
  153MOL0     H21099   3.238  10.848  11.496  0.9300 -1.0631  1.3715
  153MOL0     H21100   2.888  11.017  11.275 -1.1230  0.2637 -0.1877
  153MOL0     H21101   2.788  11.206  11.181  0.0759  0.3328 -1.3734
  153MOL0     H21102   3.017  11.452  10.849 -0.8064  1.3000 -0.7309
  153MOL0     H21103   2.874  11.535  10.914 -1.3474  0.4139  2.7493
  153MOL0     H21104   3.150  11.462  11.027  1.3402  0.5683  1.0790
  153MOL0     H21105   3.039  11.515  11.143 -2.6999 -2.4457 -0.9664
  153MOL0     H21106   3.142  11.658  10.902  0.3213 -2.5818  1.0569
  153MOL0     H21107   3.014  11.733  10.995 -0.6393 -0.9598 -0.7967
  153MOL0     H21108   3.241  11.839  11.050  0.5448  0.1797  1.4350
  153MOL0     H21109   3.309  11.672  11.072  0.1678  0.5802  0.3020
  153MOL0     H21110   3.156  11.726  11.443  2.6927  1.5863 -0.7227
  153MOL0     H21111   3.124  11.255  10.923  1.4218 -1.0494 -0.1712
  153MOL0     H21112   3.221  10.917  10.912  1.0638 -0.1561  0.0137
  153MOL0     H21113   3.269  11.098  10.886 -1.3276  2.5780  2.1571
  153MOL0     H21114   3.321  11.008  11.022  0.4022  0.0360 -1.5494
  154MOL0     O21115   4.823   2.615   7.197  0.0481  0.2062  0.5233
  154MOL0     C21116   4.898   2.565   7.278 -0.0806 -0.7665  1.0618
  154MOL0     O21117   4.959   2.642   7.376 -0.2336  0.6236  0.1463
  154MOL0     C21118   4.919   2.765   7.402 -0.0935 -0.1629  0.1590
  154MOL0     C21119   4.981   2.869   7.329  0.0928 -0.4966  0.8956
  154MOL0     C21120   4.947   3.010   7.359  0.0934 -0.7715  0.8753
  154MOL0     C21121   4.852   3.032   7.464 -0.2587 -0.5398  0.1903
  154MOL0     O21122   4.839   3.166   7.503 -0.7566  0.1715  0.3364
  154MOL0     C21123   4.712   3.205   7.561  0.2703 -0.0583  0.4822
  154MOL0     C21124   4.659   3.323   7.485  0.1488 -0.9734 -0.3309
  154MOL0     C21125   4.632   3.284   7.339  0.4123  0.0565  0.1035
  154MOL0     C21126   4.663   3.393   7.235  0.1609  0.6925 -0.2970
  154MOL0     C21127   4.572   3.363   7.110  0.1818  0.7011  0.3858
  154MOL0     C21128   4.621   3.439   6.988  0.7646  0.7799 -1.2955
  154MOL0     C21129   4.757   3.379   6.936 -0.6488  0.2867  0.3505
  154MOL0     C21130   4.818   3.457   6.820  1.4096 -0.0126  0.2880
  154MOL0     N21131   4.721   3.471   6.712 -0.3104  0.7173 -0.1604
  154MOL0     C21132   4.652   3.579   6.679  0.7549  0.7165 -0.4364
  154MOL0     C21133   4.567   3.524   6.579 -0.3155 -0.4116 -0.6228
  154MOL0     C21134   4.461   3.598   6.504 -0.1351 -0.1317  0.1991
  154MOL0     C21135   4.318   3.564   6.570 -0.1450 -0.7123 -0.2678
  154MOL0     C21136   4.293   3.618   6.714 -0.0806  0.3034 -0.8276
  154MOL0     C21137   4.153   3.591   6.742  1.0689 -0.7571  0.1076
  154MOL0     O21138   4.128   3.614   6.882 -0.2042  0.5617  0.5005
  154MOL0     C21139   3.998   3.609   6.919 -0.0289  0.1806  0.9668
  154MOL0     C21140   3.960   3.679   7.038  0.8368 -0.0681 -0.4414
  154MOL0     C21141   3.837   3.684   7.092  0.1460 -0.2872 -0.1860
  154MOL0     C21142   3.823   3.771   7.214  0.6300 -0.1215  0.2249
  154MOL0     C21143   3.732   3.626   7.017 -0.2238  0.5386  0.7072
  154MOL0     C21144   3.593   3.646   7.045  0.2739  0.7339  0.1276
  154MOL0     O21145   3.509   3.626   6.945  0.3869 -0.0991  0.1149
  154MOL0     C21146   3.379   3.602   6.977  0.2809  0.3828  0.1019
  154MOL0     C21147   3.320   3.519   7.076  0.0191  0.0631  0.8566
  154MOL0     C21148   3.183   3.515   7.101 -0.1024 -0.0008  0.0541
  154MOL0     C21149   3.091   3.579   7.024  0.0614  0.7703 -0.3061
  154MOL0     O21150   2.961   3.557   7.051  0.3430 -0.1522  0.0315
  154MOL0     C21151   2.859   3.582   6.946  0.0406 -0.0174 -0.3502
  154MOL0     C21152   2.728   3.513   7.005 -0.2463 -0.2882  0.0637
  154MOL0     C21153   2.618   3.518   6.895 -0.2845  0.1786  0.2778
  154MOL0     C21154   2.500   3.422   6.928 -0.1971 -0.9402 -0.8776
  154MOL0     C21155   2.416   3.474   7.044 -0.2874  1.3024  0.1148
  154MOL0     C21156   2.280   3.398   7.060 -0.4154 -0.8592  0.5495
  154MOL0     C21157   2.211   3.465   7.179  0.1340  0.3680  0.1272
  154MOL0     C21158   2.062   3.429   7.195 -0.7130  0.6003 -0.1023
  154MOL0    Cl21159   1.962   3.477   7.058 -0.1845 -0.2550 -0.3336
  154MOL0     C21160   3.149   3.654   6.914  0.2627  0.0154 -0.3470
  154MOL0     C21161   3.284   3.673   6.900  0.6931 -0.4844 -0.0475
  154MOL0     O21162   3.560   3.684   7.157 -0.2281 -0.3430  0.8461
  154MOL0     C21163   3.756   3.562   6.892 -0.5295 -0.3534 -0.7536
  154MOL0     C21164   3.887   3.563   6.837 -0.1487  0.2707  0.3898
  154MOL0     N21165   4.607   3.397   6.553 -0.5737 -0.1230  0.6908
  154MOL0     N21166   4.700   3.362   6.633 -0.1418  0.0766  0.8907
  154MOL0     C21167   4.797   2.926   7.531 -0.8896 -0.1395  0.5351
  154MOL0     C21168   4.838   2.796   7.512 -1.1871  0.6601  1.1151
  154MOL0     C21169   4.923   2.421   7.268 -0.7517 -0.1849  0.1295
  154MOL0     C21170   5.024   2.373   7.355 -0.2598  0.5993  0.2034
  154MOL0     C21171   5.059   2.238   7.363  0.2259 -0.3259  0.0059
  154MOL0     C21172   4.980   2.154   7.288  0.0166  0.0842 -0.1209
  154MOL0     O21173   5.018   2.018   7.299  0.5874 -0.1135  0.0638
  154MOL0     C21174   4.952   1.908   7.230  0.3709  0.5222  0.2031
  154MOL0     C21175   5.048   1.799   7.205 -0.1814 -0.6220  0.2845
  154MOL0     C21176   5.186   1.847   7.144  0.0799  0.1255 -0.2810
  154MOL0     C21177   5.278   1.730   7.085  0.2011  0.1475 -0.2623
  154MOL0     C21178   5.314   1.624   7.183 -0.3612  1.3497  0.4080
  154MOL0     C21179   5.376   1.535   7.233  0.4518 -0.0954  0.6900
  154MOL0     C21180   4.897   2.203   7.194 -0.7263  0.2759  1.0171
  154MOL0     C21181   4.862   2.333   7.182  0.2223  1.1954  0.8225
  154MOL0     C21182   4.762   2.358   7.061  0.0691  0.0072 -0.7023
  154MOL0     H21183   5.066   2.837   7.269 -1.0581  1.0172 -1.7092
  154MOL0     H21184   5.006   3.090   7.317 -0.7386  0.0656  1.2723
  154MOL0     H21185   4.731   3.218   7.668  1.5459 -2.5928  0.6503
  154MOL0     H21186   4.635   3.127   7.557  1.4251 -1.3143  1.5599
  154MOL0     H21187   4.579   3.375   7.539  1.2341 -1.9780  2.4170
  154MOL0     H21188   4.743   3.393   7.483  0.8617 -1.7044  1.7085
  154MOL0     H21189   4.674   3.186   7.312  0.9007  0.0733  0.7679
  154MOL0     H21190   4.526   3.258   7.332  0.7475 -1.7678  1.1278
  154MOL0     H21191   4.642   3.490   7.281  1.4269 -0.0650  2.1037
  154MOL0     H21192   4.770   3.379   7.219 -0.3248 -3.2885 -1.0852
  154MOL0     H21193   4.468   3.393   7.126 -0.2093  0.3859 -1.3618
  154MOL0     H21194   4.573   3.255   7.089  0.3644  0.5185  1.2557
  154MOL0     H21195   4.548   3.418   6.910 -0.2673 -2.8519  0.4414
  154MOL0     H21196   4.637   3.543   7.017 -0.1714  0.1598  1.8163
  154MOL0     H21197   4.739   3.280   6.896  1.2568  0.7202 -1.7793
  154MOL0     H21198   4.820   3.363   7.024 -0.4722  2.1189  0.5984
  154MOL0     H21199   4.861   3.551   6.854 -0.4043  0.0318  2.7207
  154MOL0     H21200   4.902   3.398   6.784 -0.9821 -2.6036 -1.5573
  154MOL0     H21201   4.649   3.686   6.701 -0.4119  0.7580 -0.7257
  154MOL0     H21202   4.458   3.557   6.403  0.9461  1.3453 -0.4762
  154MOL0     H21203   4.484   3.705   6.506 -1.1217  0.1402  3.4863
  154MOL0     H21204   4.240   3.613   6.510 -0.1484  1.3406  1.3009
  154MOL0     H21205   4.295   3.457   6.573 -1.2202 -0.5401 -1.5894
  154MOL0     H21206   4.351   3.553   6.781 -2.3192  0.5718  1.5319
  154MOL0     H21207   4.315   3.724   6.728 -1.5719  0.3142  2.6103
  154MOL0     H21208   4.098   3.663   6.681  2.6748  1.0966  0.7463
  154MOL0     H21209   4.131   3.490   6.707  3.1972 -2.1634  2.4653
  154MOL0     H21210   4.036   3.742   7.084  1.7333 -1.8011  0.5407
  154MOL0     H21211   3.770   3.718   7.294 -1.4324  0.6284 -0.5807
  154MOL0     H21212   3.740   3.835   7.183 -1.6417 -1.9378  2.1957
  154MOL0     H21213   3.902   3.825   7.266 -0.7610  0.8760  1.3762
  154MOL0     H21214   3.394   3.461   7.131  1.6257 -0.3179 -1.5657
  154MOL0     H21215   3.155   3.464   7.193 -0.2223  1.7498  1.0260
  154MOL0     H21216   2.829   3.686   6.926  0.7862 -0.1241 -2.2681
  154MOL0     H21217   2.900   3.542   6.852  1.5378  0.2596  0.1510
  154MOL0     H21218   2.760   3.410   7.022 -1.6325 -0.9854 -1.3474
  154MOL0     H21219   2.700   3.562   7.099 -2.4639 -1.3499  0.0186
  154MOL0     H21220   2.657   3.500   6.794 -0.3364 -0.5769  0.3884
  154MOL0     H21221   2.580   3.620   6.906 -1.7016  0.1341 -2.9802
  154MOL0     H21222   2.538   3.324   6.960  3.0530  0.2559 -0.7872
  154MOL0     H21223   2.440   3.411   6.837  0.0806 -0.1234 -1.1661
  154MOL0     H21224   2.473   3.470   7.138  2.1683 -1.1309 -1.3420
  154MOL0     H21225   2.390   3.579   7.029 -0.6796  1.3197  0.8767
  154MOL0     H21226   2.303   3.292   7.075  1.0115 -0.6532 -0.0240
  154MOL0     H21227   2.224   3.419   6.969 -1.2247  0.1250  1.2475
  154MOL0     H21228   2.221   3.573   7.167 -1.7884  0.8249  1.9420
  154MOL0     H21229   2.269   3.442   7.269 -0.3166 -2.5532 -0.2091
  154MOL0     H21230   2.015   3.472   7.284 -1.1434  0.3280 -0.1960
  154MOL0     H21231   2.057   3.320   7.189  0.7420  0.5191 -0.2858
  154MOL0     H21232   3.091   3.705   6.837 -0.1554 -0.0881 -0.1046
  154MOL0     H21233   3.320   3.726   6.812 -1.8486  1.7083  0.1083
  154MOL0     H21234   3.672   3.540   6.826 -0.9937 -0.0998 -0.2604
  154MOL0     H21235   3.894   3.522   6.737 -0.7690 -2.2705  1.2830
  154MOL0     H21236   4.733   2.947   7.616  1.6926  1.2855  2.2446
  154MOL0     H21237   4.805   2.712   7.572  0.4124  0.9914  2.5352
  154MOL0     H21238   5.091   2.441   7.408  1.2072 -0.4022 -0.3091
  154MOL0     H21239   5.143   2.211   7.426  0.7476  2.7883  0.8143
  154MOL0     H21240   4.879   1.872   7.303 -0.5372  2.5978  0.3982
  154MOL0     H21241   4.906   1.945   7.138  1.8298 -1.2469 -1.3022
  154MOL0     H21242   5.015   1.727   7.129  0.6382  0.9615 -1.6910
  154MOL0     H21243   5.061   1.756   7.304  0.3330 -0.2316  0.3912
  154MOL0     H21244   5.174   1.917   7.060 -2.5385 -1.5978 -1.4947
  154MOL0     H21245   5.239   1.907   7.218  1.2172  2.1648 -2.5898
  154MOL0     H21246   5.373   1.755   7.036  0.4072 -1.2710 -0.6505
  154MOL0     H21247   5.219   1.672   7.012  0.7396 -0.3465 -0.3166
  154MOL0     H21248   5.439   1.455   7.266 -2.3257 -1.9082  2.0113
  154MOL0     H21249   4.835   2.142   7.129 -1.1869 -1.1927  2.7390
  154MOL0     H21250   4.821   2.390   6.975 -1.7447  0.7817 -1.7142
  154MOL0     H21251   4.707   2.272   7.022 -1.0190  0.9994 -1.3848
  154MOL0     H21252   4.689   2.429   7.101 -0.8281 -1.0072 -0.4876
  155MOL0     O21253   8.960   9.126   4.613  0.2915 -0.5241  0.0756
  155MOL0     C21254   9.078   9.136   4.654 -0.2128 -0.0314  0.4523
  155MOL0     O21255   9.184   9.058   4.614  1.0256  1.1292 -0.0397
  155MOL0     C21256   9.149   8.963   4.512  0.0578 -0.3766  0.2212
  155MOL0     C21257   9.082   8.844   4.545  0.6597  0.4387  0.2151
  155MOL0     C21258   9.047   8.747   4.441  0.1521  0.5652 -1.0197
  155MOL0     C21259   9.089   8.774   4.307  0.1412  1.0785 -0.3390
  155MOL0     O21260   9.065   8.669   4.224  0.6275 -0.6384 -0.7196
  155MOL0     C21261   9.066   8.694   4.082 -0.5218  0.0945 -0.4564
  155MOL0     C21262   9.027   8.576   4.000  0.7016 -0.1011  0.0079
  155MOL0     C21263   8.877   8.546   3.995 -0.5732  0.0212  0.1053
  155MOL0     C21264   8.832   8.491   3.864  0.3879 -0.0234  0.2527
  155MOL0     C21265   8.674   8.471   3.861 -0.0671 -0.3965  0.4967
  155MOL0     C21266   8.625   8.363   3.956 -0.2096 -0.7823 -0.2675
  155MOL0     C21267   8.470   8.350   3.947 -0.0129 -0.0386  0.2849
  155MOL0     C21268   8.407   8.237   4.028 -0.2224  0.3876  0.0428
  155MOL0     N21269   8.264   8.206   4.011 -0.0439  0.3997  0.5928
  155MOL0     C21270   8.182   8.127   4.090  0.3458  0.3757 -0.5235
  155MOL0     C21271   8.060   8.138   4.035 -0.2160 -0.4226 -0.3945
  155MOL0     C21272   7.931   8.093   4.089  0.3410  1.2861 -0.3256
  155MOL0     C21273   7.948   8.018   4.228 -0.2084  0.3063 -0.7397
  155MOL0     C21274   7.813   7.981   4.293  0.6220  0.3881 -0.6662
  155MOL0     C21275   7.829   7.893   4.416 -0.3670  0.0382 -0.6939
  155MOL0     O21276   7.719   7.813   4.457 -0.2879 -0.0997 -0.6395
  155MOL0     C21277   7.601   7.873   4.476  0.5324  0.4571 -0.2492
  155MOL0     C21278   7.482   7.801   4.464  0.4694 -0.5141 -0.1363
  155MOL0     C21279   7.355   7.862   4.476  0.1458 -0.5207 -0.9246
  155MOL0     C21280   7.223   7.797   4.444  0.1131 -0.0129 -0.2255
  155MOL0     C21281   7.346   7.990   4.527  0.5674 -0.7825  0.4260
  155MOL0     C21282   7.220   8.055   4.551  0.1904 -0.6488 -0.0012
  155MOL0     O21283   7.156   8.030   4.671  0.9545  0.2083  0.3039
  155MOL0     C21284   7.024   8.061   4.686  0.9415 -0.0329 -0.1241
  155MOL0     C21285   6.919   8.067   4.586 -0.8063  0.1969  0.6112
  155MOL0     C21286   6.788   8.081   4.627  0.1809  0.8680  0.0274
  155MOL0     C21287   6.743   8.085   4.753  0.6352 -0.1922 -0.5125
  155MOL0     O21288   6.602   8.090   4.780  1.4669 -0.8148 -0.1610
  155MOL0     C21289   6.528   7.962   4.752 -0.3530 -0.7430  0.8993
  155MOL0     C21290   6.537   7.862   4.866 -0.8214 -0.8882 -0.3870
  155MOL0     C21291   6.521   7.719   4.821  0.4400 -0.5757 -0.5381
  155MOL0     C21292   6.566   7.619   4.924  0.4821 -0.1801 -0.0237
  155MOL0     C21293   6.465   7.577   5.025  0.3451 -0.1546  0.2565
  155MOL0     C21294   6.528   7.445   5.088  0.8095 -0.1290 -0.0210
  155MOL0     C21295   6.419   7.373   5.178  1.0244 -0.3444  0.0534
  155MOL0     C21296   6.466   7.240   5.223  0.1385 -0.2093 -0.2367
  155MOL0    Cl21297   6.346   7.178   5.346 -0.4322 -0.1379 -0.2189
  155MOL0     C21298   6.834   8.087   4.845 -0.2346  0.6622  0.5247
  155MOL0     C21299   6.976   8.069   4.818 -0.2762  0.3561 -0.2583
  155MOL0     O21300   7.175   8.126   4.467  0.1677  0.3631 -0.4673
  155MOL0     C21301   7.461   8.067   4.534 -0.7489  0.0181  0.7959
  155MOL0     C21302   7.592   8.010   4.517  0.3645 -0.5570  0.5732
  155MOL0     N21303   8.070   8.219   3.922 -0.5504  0.3055 -0.0257
  155MOL0     N21304   8.193   8.251   3.905  0.2555  0.7199 -0.2359
  155MOL0     C21305   9.161   8.893   4.282  0.0530  0.9131 -0.2298
  155MOL0     C21306   9.184   8.982   4.381  0.1065 -0.4679 -0.5552
  155MOL0     C21307   9.103   9.234   4.766  1.4609 -0.6337  0.7643
  155MOL0     C21308   9.211   9.214   4.850 -0.0464 -0.9040  0.1299
  155MOL0     C21309   9.242   9.293   4.962  0.9257  0.2906 -0.5307
  155MOL0     C21310   9.155   9.389   5.004 -0.1756  0.0429 -0.2571
  155MOL0     O21311   9.191   9.464   5.115  0.4056  0.4424  0.1965
  155MOL0     C21312   9.273   9.412   5.222 -0.6016  0.2753 -0.6322
  155MOL0     C21313   9.241   9.494   5.348 -0.1086  0.9366 -0.3358
  155MOL0     C21314   9.368   9.478   5.443 -0.3569  0.4285  0.5994
  155MOL0     C21315   9.376   9.544   5.580 -0.0105  0.3927 -0.2978
  155MOL0     C21316   9.357   9.691   5.571 -0.9636 -0.4196 -0.4437
  155MOL0     C21317   9.363   9.811   5.570  0.3334  0.0639 -0.5229
  155MOL0     C21318   9.038   9.417   4.930 -0.3885 -0.2615  1.3104
  155MOL0     C21319   9.033   9.356   4.794  0.6442 -0.9717  0.5341
  155MOL0     C21320   8.948   9.418   4.696 -0.5333 -0.2474  0.5796
  155MOL0     H21321   9.043   8.833   4.646  0.5853 -2.2725 -0.0498
  155MOL0     H21322   8.994   8.658   4.473  0.0956  0.9054 -0.1403
  155MOL0     H21323   9.162   8.735   4.049 -1.9071  4.9921  0.7633
  155MOL0     H21324   8.997   8.773   4.052 -2.6595 -0.9081  1.4623
  155MOL0     H21325   9.058   8.580   3.895 -0.8300  0.4763 -0.4448
  155MOL0     H21326   9.077   8.492   4.050 -0.2975 -1.4013 -1.0685
  155MOL0     H21327   8.848   8.479   4.077  1.9514 -1.3931 -0.0682
  155MOL0     H21328   8.830   8.644   4.010  1.8882  1.1322  1.0362
  155MOL0     H21329   8.845   8.563   3.783 -2.3415  1.4880  1.0336
  155MOL0     H21330   8.887   8.402   3.832  1.7633  1.3403 -1.2995
  155MOL0     H21331   8.634   8.454   3.761 -0.1598  1.0584  0.2695
  155MOL0     H21332   8.624   8.562   3.894 -4.7628 -2.5918  0.4072
  155MOL0     H21333   8.668   8.267   3.926 -1.1889 -0.2230 -4.0513
  155MOL0     H21334   8.643   8.379   4.062 -2.1177 -3.3583  0.5379
  155MOL0     H21335   8.442   8.334   3.843 -1.6659  0.0621  0.6873
  155MOL0     H21336   8.425   8.446   3.974 -0.6424  0.1684 -1.4066
  155MOL0     H21337   8.466   8.147   4.008 -2.7708 -1.3944  0.1375
  155MOL0     H21338   8.416   8.254   4.136 -0.7449 -3.2328  0.7857
  155MOL0     H21339   8.216   8.083   4.183  1.8748 -3.1448 -2.5383
  155MOL0     H21340   7.885   8.018   4.025 -0.4114  1.3539  0.1183
  155MOL0     H21341   7.858   8.174   4.099 -3.2812 -1.9623  3.1172
  155MOL0     H21342   8.007   7.928   4.207 -0.3804  0.3835 -1.5774
  155MOL0     H21343   7.997   8.085   4.299  0.4188 -0.3428 -0.5458
  155MOL0     H21344   7.766   8.075   4.324 -0.1654  0.4061 -1.8511
  155MOL0     H21345   7.752   7.924   4.223  0.0302  0.1758  0.0063
  155MOL0     H21346   7.898   7.809   4.400  2.4209  1.8257  0.9969
  155MOL0     H21347   7.884   7.948   4.493  0.7611  1.3987 -2.4123
  155MOL0     H21348   7.474   7.698   4.433 -1.2447 -0.6023  0.4838
  155MOL0     H21349   7.145   7.801   4.521  1.0912 -0.9067  0.8527
  155MOL0     H21350   7.238   7.690   4.424  1.6996 -0.1618  1.4769
  155MOL0     H21351   7.177   7.840   4.355  0.9004  0.1531 -0.5624
  155MOL0     H21352   6.952   8.065   4.483  3.4528  2.5533  1.7074
  155MOL0     H21353   6.712   8.069   4.551  1.4995  0.8502 -1.3246
  155MOL0     H21354   6.423   7.986   4.732 -0.1641  0.0899  0.8890
  155MOL0     H21355   6.564   7.909   4.663 -0.0594 -0.1564  0.6614
  155MOL0     H21356   6.641   7.867   4.901 -0.5107 -0.0824 -1.3726
  155MOL0     H21357   6.465   7.888   4.945  0.2491 -1.7990  0.9358
  155MOL0     H21358   6.566   7.696   4.723  2.4464  2.9034 -0.6105
  155MOL0     H21359   6.414   7.707   4.803  0.0266  2.8919 -1.0886
  155MOL0     H21360   6.650   7.659   4.982 -2.1338  0.6117  3.5919
  155MOL0     H21361   6.607   7.540   4.861  3.9368  2.4035 -1.3712
  155MOL0     H21362   6.443   7.662   5.091 -0.9797 -0.2565 -0.0359
  155MOL0     H21363   6.369   7.549   4.982  0.5530  0.2063 -0.4567
  155MOL0     H21364   6.602   7.472   5.164 -1.1307  2.0228  1.2614
  155MOL0     H21365   6.570   7.381   5.010  0.0757 -0.4061 -0.1927
  155MOL0     H21366   6.322   7.372   5.128  0.6702  5.2365  0.0605
  155MOL0     H21367   6.404   7.425   5.272  2.5673  1.3159 -0.5622
  155MOL0     H21368   6.562   7.256   5.273  0.5151 -1.0127 -0.6865
  155MOL0     H21369   6.490   7.158   5.154 -0.6590 -1.8163  1.3041
  155MOL0     H21370   6.804   8.094   4.949  1.4631  1.3722  1.0089
  155MOL0     H21371   7.054   8.076   4.893 -0.0298 -0.0343 -0.4694
  155MOL0     H21372   7.449   8.173   4.552 -0.2920  0.6447 -2.0885
  155MOL0     H21373   7.675   8.074   4.545  0.7018 -0.6837 -0.1271
  155MOL0     H21374   9.198   8.918   4.183  2.3853  2.3293  0.9050
  155MOL0     H21375   9.238   9.075   4.362 -0.2189 -0.4612 -1.4944
  155MOL0     H21376   9.277   9.131   4.826  3.4508  1.1694  1.7500
  155MOL0     H21377   9.332   9.286   5.022  0.5293  0.6768  0.1199
  155MOL0     H21378   9.246   9.309   5.244  2.6941 -1.2497 -2.8564
  155MOL0     H21379   9.378   9.405   5.191 -1.2520 -0.7012 -2.7653
  155MOL0     H21380   9.154   9.455   5.402  0.8025 -1.9937 -0.8253
  155MOL0     H21381   9.216   9.597   5.320 -0.3770  1.3502  1.3403
  155MOL0     H21382   9.366   9.370   5.459  1.8361  0.5578  2.2269
  155MOL0     H21383   9.461   9.499   5.390  1.0967 -2.9228  1.5852
  155MOL0     H21384   9.474   9.516   5.621  0.7485  2.3287 -0.7192
  155MOL0     H21385   9.287   9.504   5.629 -1.8545  2.2928 -1.9025
  155MOL0     H21386   9.371   9.918   5.571 -2.3607  0.4324  2.8642
  155MOL0     H21387   8.969   9.486   4.978  0.9434  1.3700  0.9803
  155MOL0     H21388   8.862   9.360   4.660  0.7437  0.1154 -3.5491
  155MOL0     H21389   8.909   9.513   4.733  0.7432  0.8793 -0.8580
  155MOL0     H21390   8.999   9.431   4.601 -0.6215 -2.4778  0.1594
  156MOL0     O21391   3.283   8.824   9.756 -0.1953 -0.2468 -0.8281
  156MOL0     C21392   3.248   8.935   9.703  0.6897 -1.2678  0.0841
  156MOL0     O21393   3.332   9.030   9.654  0.0212  0.2312  0.0899
  156MOL0     C21394   3.468   8.997   9.649 -0.3601 -0.6560  0.2913
  156MOL0     C21395   3.527   8.871   9.614  0.4991 -0.5926 -0.7039
  156MOL0     C21396   3.668   8.860   9.597 -0.3859 -0.2362  0.3159
  156MOL0     C21397   3.751   8.961   9.627 -0.6572 -0.0466 -1.1234
  156MOL0     O21398   3.885   8.954   9.611 -0.6449 -0.4758 -0.3611
  156MOL0     C21399   3.947   8.831   9.605  0.0061  0.5323 -0.1751
  156MOL0     C21400   4.096   8.846   9.666  0.7068 -0.3626 -0.0792
  156MOL0     C21401   4.087   8.867   9.815 -1.2670 -0.2839  0.2975
  156MOL0     C21402   4.236   8.857   9.871  0.4167 -0.6934 -0.5089
  156MOL0     C21403   4.322   8.982   9.851 -0.6618  0.2891 -0.5959
  156MOL0     C21404   4.446   8.994   9.943  0.4070  0.0596 -0.8228
  156MOL0     C21405   4.535   9.107   9.885  0.3836 -0.0249  0.6577
  156MOL0     C21406   4.648   9.147   9.984 -0.6047 -0.0391  0.2175
  156MOL0     N21407   4.734   9.237   9.904 -0.0748 -0.2050  0.0337
  156MOL0     C21408   4.850   9.192   9.846  0.1542 -1.4552  0.0478
  156MOL0     C21409   4.910   9.304   9.785  0.3934  1.3511 -0.4342
  156MOL0     C21410   5.043   9.303   9.712 -0.2638  0.1953 -0.1896
  156MOL0     C21411   5.023   9.319   9.556  0.4811  0.0071  0.4770
  156MOL0     C21412   5.153   9.298   9.473 -0.0690 -0.6003  0.3544
  156MOL0     C21413   5.123   9.255   9.334 -0.4449  0.0339  0.3865
  156MOL0     O21414   5.109   9.115   9.328  0.4690  0.1349  0.6091
  156MOL0     C21415   5.222   9.052   9.291  0.0194  0.3038 -0.0565
  156MOL0     C21416   5.244   8.932   9.365  0.3548  0.2586 -0.6952
  156MOL0     C21417   5.362   8.856   9.357  0.5481  0.0498 -0.0340
  156MOL0     C21418   5.383   8.743   9.451 -0.1316  0.6296 -0.1411
  156MOL0     C21419   5.456   8.888   9.250 -0.1776  0.1281  0.1010
  156MOL0     C21420   5.587   8.831   9.223  0.0109 -0.7036 -0.4568
  156MOL0     O21421   5.684   8.926   9.191 -0.0258 -0.5748  0.0681
  156MOL0     C21422   5.803   8.870   9.159 -0.4846  0.6136 -0.6004
  156MOL0     C21423   5.871   8.897   9.041 -0.2313 -0.1943  0.3245
  156MOL0     C21424   5.988   8.827   9.009 -0.6844 -0.3116  0.7485
  156MOL0     C21425   6.039   8.733   9.095 -0.9776 -0.1876 -0.3438
  156MOL0     O21426   6.158   8.666   9.064  0.1972 -0.3825 -0.5951
  156MOL0     C21427   6.264   8.745   9.018  0.4182  0.0773  0.2700
  156MOL0     C21428   6.393   8.661   9.037  0.0064 -0.4120 -0.4848
  156MOL0     C21429   6.511   8.754   9.043 -0.3148 -0.1591  0.3566
  156MOL0     C21430   6.535   8.837   8.914 -0.1675  0.7786  0.1859
  156MOL0     C21431   6.661   8.921   8.922  0.0181  0.2749  0.5728
  156MOL0     C21432   6.793   8.846   8.954 -0.2519  0.1289  0.9769
  156MOL0     C21433   6.911   8.943   8.954  0.3650 -0.3752  1.0026
  156MOL0     C21434   7.021   8.890   8.850  0.6190  0.4281 -0.0019
  156MOL0    Cl21435   7.035   8.710   8.893 -0.2232 -0.1483  0.1672
  156MOL0     C21436   5.975   8.710   9.213 -0.9298 -0.1557  0.7086
  156MOL0     C21437   5.865   8.781   9.250 -0.1084 -0.1530 -0.8505
  156MOL0     O21438   5.601   8.710   9.215  0.2110 -0.1257  0.0345
  156MOL0     C21439   5.424   9.004   9.165 -0.0760  0.7246 -0.0627
  156MOL0     C21440   5.318   9.084   9.193  0.5836  0.0276  0.0914
  156MOL0     N21441   4.837   9.415   9.813  0.5958  0.0892 -0.3677
  156MOL0     N21442   4.731   9.371   9.881  0.8495  0.3116  0.7847
  156MOL0     C21443   3.695   9.088   9.659  0.4403  0.2197  0.2078
  156MOL0     C21444   3.554   9.107   9.677 -0.5987  0.5240  0.7177
  156MOL0     C21445   3.111   8.978   9.718  0.6451 -0.0458 -0.2083
  156MOL0     C21446   3.010   8.898   9.668  0.9525  0.4527  0.3266
  156MOL0     C21447   2.875   8.933   9.681  0.2429 -1.4196  0.5058
  156MOL0     C21448   2.840   9.052   9.740 -0.9372  0.2026  0.4044
  156MOL0     O21449   2.708   9.084   9.764 -0.0436  0.1717 -0.2335
  156MOL0     C21450   2.656   9.013   9.878  0.2014  0.1378  0.3885
  156MOL0     C21451   2.628   9.116   9.993  0.6041  0.8180 -0.4130
  156MOL0     C21452   2.551   9.057  10.114  0.3922  1.0671  0.8192
  156MOL0     C21453   2.527   9.169  10.225 -0.3571  0.0323  0.7402
  156MOL0     C21454   2.457   9.292  10.173 -0.2305  0.2478  0.6214
  156MOL0     C21455   2.393   9.373  10.110 -0.6260  0.3630  0.2168
  156MOL0     C21456   2.940   9.137   9.794 -0.5099  0.2815  0.0594
  156MOL0     C21457   3.076   9.094   9.789 -0.1494  0.6120  0.0787
  156MOL0     C21458   3.175   9.176   9.878  0.1209  0.6508  0.3028
  156MOL0     H21459   3.459   8.790   9.589  1.8460 -2.7252  1.9287
  156MOL0     H21460   3.705   8.770   9.547  1.5831  1.3627 -1.2740
  156MOL0     H21461   3.971   8.794   9.504  0.8877 -2.2981  0.9641
  156MOL0     H21462   3.893   8.757   9.664  0.5714 -0.4828 -0.8877
  156MOL0     H21463   4.161   8.767   9.628 -0.7294 -1.0317 -1.2446
  156MOL0     H21464   4.137   8.938   9.625  0.9417 -0.0239  0.8736
  156MOL0     H21465   4.039   8.963   9.836  0.7014  1.1006 -1.2164
  156MOL0     H21466   4.019   8.784   9.836 -1.4523 -0.4144 -0.7673
  156MOL0     H21467   4.237   8.834   9.978 -0.4626 -0.3617 -0.4188
  156MOL0     H21468   4.279   8.765   9.830  0.3956 -1.2571  0.6954
  156MOL0     H21469   4.265   9.074   9.865 -1.7499 -0.4570  0.0529
  156MOL0     H21470   4.354   8.979   9.746 -0.0243 -3.5481 -0.4587
  156MOL0     H21471   4.425   9.012  10.048  0.0303 -1.1482 -0.6791
  156MOL0     H21472   4.503   8.901   9.940 -1.2034 -0.9785 -4.2763
  156MOL0     H21473   4.482   9.197   9.854  4.3639  1.7936 -1.6555
  156MOL0     H21474   4.578   9.074   9.790 -5.3858 -2.2403 -1.6088
  156MOL0     H21475   4.609   9.201  10.071 -2.4674  0.7708 -1.0559
  156MOL0     H21476   4.701   9.060  10.024 -0.8317  0.1062  0.8462
  156MOL0     H21477   4.888   9.090   9.844 -2.4960 -2.5200  0.0402
  156MOL0     H21478   5.094   9.209   9.737 -1.6722 -0.8807 -1.1388
  156MOL0     H21479   5.097   9.391   9.746 -3.1315  2.7935 -1.8191
  156MOL0     H21480   4.957   9.237   9.527 -0.5390  1.5203 -1.6676
  156MOL0     H21481   4.984   9.419   9.539  1.4846  0.6943  1.9561
  156MOL0     H21482   5.198   9.398   9.467  0.2384 -0.8166 -3.3579
  156MOL0     H21483   5.228   9.231   9.516  1.6439 -0.9640 -2.8974
  156MOL0     H21484   5.024   9.294   9.308  0.1362  0.5523 -1.1776
  156MOL0     H21485   5.193   9.303   9.266 -1.4076 -0.4448 -1.0038
  156MOL0     H21486   5.184   8.894   9.447  1.5322  1.1615  0.6412
  156MOL0     H21487   5.298   8.674   9.461  0.8349 -0.4579  0.7776
  156MOL0     H21488   5.411   8.786   9.547 -1.9035  4.8804 -1.3027
  156MOL0     H21489   5.463   8.677   9.416 -0.1937  1.2894 -1.5976
  156MOL0     H21490   5.828   8.971   8.974  0.6955  0.2892  0.2436
  156MOL0     H21491   6.039   8.855   8.918 -0.8244 -1.7835  0.1955
  156MOL0     H21492   6.258   8.781   8.914  1.9307  2.2143  0.8464
  156MOL0     H21493   6.256   8.833   9.083  0.1667  1.1547 -1.1450
  156MOL0     H21494   6.394   8.604   9.130  0.5612  2.9121  1.7172
  156MOL0     H21495   6.392   8.592   8.953 -3.2994 -2.4774  1.0597
  156MOL0     H21496   6.595   8.686   9.058  0.2162 -0.0283 -1.6791
  156MOL0     H21497   6.504   8.829   9.122 -2.8685  1.3888 -1.1563
  156MOL0     H21498   6.446   8.895   8.889 -0.4807  0.0579 -0.3945
  156MOL0     H21499   6.550   8.773   8.827  0.3971 -1.4103  1.8014
  156MOL0     H21500   6.679   8.965   8.824  2.7626  0.6489  1.1683
  156MOL0     H21501   6.646   9.009   8.985 -1.4016  1.6262 -1.5243
  156MOL0     H21502   6.804   8.782   8.866 -0.6084  1.3673 -0.0071
  156MOL0     H21503   6.787   8.786   9.045  0.2275  1.0474  1.6384
  156MOL0     H21504   6.953   8.941   9.055  2.5314 -0.6685  0.1553
  156MOL0     H21505   6.894   9.043   8.915  1.5924 -0.6613 -0.3428
  156MOL0     H21506   7.118   8.939   8.859  1.1472 -0.3000 -1.3919
  156MOL0     H21507   6.982   8.896   8.748  3.1587  1.2504 -0.9828
  156MOL0     H21508   6.009   8.651   9.297 -0.8048  0.3837  1.0400
  156MOL0     H21509   5.816   8.753   9.343 -1.1365 -0.6918 -1.5361
  156MOL0     H21510   5.491   9.022   9.082 -0.4485  0.5035 -0.4103
  156MOL0     H21511   5.299   9.179   9.146 -0.4471  0.3744  1.1607
  156MOL0     H21512   3.752   9.178   9.682 -1.3912  0.4993  4.9145
  156MOL0     H21513   3.514   9.207   9.695  0.2768  1.0186  0.0103
  156MOL0     H21514   3.038   8.804   9.621  0.9294  1.1743 -1.2013
  156MOL0     H21515   2.792   8.870   9.650 -0.9572  1.1348 -1.8783
  156MOL0     H21516   2.569   8.956   9.845  1.5669 -1.0943 -1.2395
  156MOL0     H21517   2.725   8.941   9.922  0.2083  1.9891  3.7073
  156MOL0     H21518   2.567   9.197   9.951 -1.0879 -1.0748 -1.7991
  156MOL0     H21519   2.720   9.162  10.030  0.5750 -1.0078  2.2758
  156MOL0     H21520   2.457   9.026  10.067  1.2185  0.4452 -0.4756
  156MOL0     H21521   2.615   8.977  10.152 -0.1407  0.0673 -0.2886
  156MOL0     H21522   2.622   9.192  10.275  0.7533  0.6285 -1.4972
  156MOL0     H21523   2.468   9.129  10.308 -0.5297 -1.4697 -0.0648
  156MOL0     H21524   2.320   9.430  10.055 -1.3409 -0.2421  0.5150
  156MOL0     H21525   2.920   9.229   9.848  3.1175 -0.0758  2.3285
  156MOL0     H21526   3.278   9.139   9.872  0.3027  1.1640  0.2407
  156MOL0     H21527   3.198   9.278   9.847  2.7830 -0.7938 -3.2885
  156MOL0     H21528   3.153   9.164   9.984 -1.2524 -2.2221 -0.1956
  157MOL0     O21529   7.938   4.432   2.282 -0.5362 -0.6035 -0.8289
  157MOL0     C21530   7.849   4.425   2.370 -0.6406 -0.3262  0.4297
  157MOL0     O21531   7.770   4.311   2.400  0.4900  1.1274 -0.2956
  157MOL0     C21532   7.791   4.200   2.322  0.0142 -0.9410 -0.1279
  157MOL0     C21533   7.673   4.144   2.272 -1.1472 -0.3341  0.0299
  157MOL0     C21534   7.672   4.028   2.193 -0.4720 -0.8143  0.1123
  157MOL0     C21535   7.791   3.969   2.156  1.0362 -0.6807  0.5225
  157MOL0     O21536   7.780   3.865   2.067 -0.4400 -0.2453 -0.0228
  157MOL0     C21537   7.905   3.801   2.036 -0.0678  0.9865 -0.3911
  157MOL0     C21538   7.887   3.682   1.940  0.2163 -0.5231 -0.5093
  157MOL0     C21539   7.751   3.609   1.947 -0.0099  0.9911  0.2353
  157MOL0     C21540   7.732   3.508   1.839 -0.3774 -0.4717 -0.0504
  157MOL0     C21541   7.598   3.431   1.848 -0.4346 -0.9786 -0.5831
  157MOL0     C21542   7.473   3.529   1.855  0.1141  1.0617  1.4443
  157MOL0     C21543   7.340   3.459   1.852 -0.6649  0.1540  0.3671
  157MOL0     C21544   7.226   3.543   1.897  0.5207  0.2137 -0.2898
  157MOL0     N21545   7.196   3.657   1.812  0.4272 -0.2350  0.8615
  157MOL0     C21546   7.166   3.652   1.672  0.8300  0.4427 -0.7284
  157MOL0     C21547   7.175   3.779   1.637  0.0551 -0.1351  0.3773
  157MOL0     C21548   7.135   3.838   1.505 -0.2613 -0.3039  0.0132
  157MOL0     C21549   7.252   3.932   1.444  0.3877  0.3406  0.3800
  157MOL0     C21550   7.203   3.985   1.308  0.1122  0.6952 -0.2849
  157MOL0     C21551   7.290   4.091   1.249  0.0373  0.7012  1.3922
  157MOL0     O21552   7.231   4.125   1.120 -0.3967 -0.0568 -0.6526
  157MOL0     C21553   7.324   4.190   1.047 -0.6248  0.3051  0.1234
  157MOL0     C21554   7.384   4.129   0.939  0.5334  0.1610 -0.7518
  157MOL0     C21555   7.477   4.193   0.851 -0.6365  0.1926 -1.8372
  157MOL0     C21556   7.550   4.109   0.744  0.1775 -0.0732  0.4162
  157MOL0     C21557   7.510   4.327   0.885  0.0588  0.2044  0.3442
  157MOL0     C21558   7.605   4.403   0.796  0.7252  0.8041  0.1189
  157MOL0     O21559   7.711   4.331   0.745  0.9388  0.3815 -0.0658
  157MOL0     C21560   7.809   4.385   0.671 -0.0392  0.8704 -0.6127
  157MOL0     C21561   7.850   4.321   0.555  0.8696 -0.3654 -0.3314
  157MOL0     C21562   7.966   4.360   0.484 -0.4141  0.0603  0.7426
  157MOL0     C21563   8.038   4.472   0.537 -0.6477  0.4000 -0.3257
  157MOL0     O21564   8.153   4.513   0.481 -0.3368 -0.2153  1.0295
  157MOL0     C21565   8.160   4.536   0.331 -0.0231  0.3073 -0.5858
  157MOL0     C21566   8.188   4.683   0.297  0.7346  0.6184 -0.7760
  157MOL0     C21567   8.090   4.774   0.378 -0.1356  0.1284 -0.3829
  157MOL0     C21568   8.101   4.921   0.350  0.0950 -1.1158  0.0712
  157MOL0     C21569   8.025   5.013   0.437  0.0690 -0.6366 -0.7822
  157MOL0     C21570   8.061   5.163   0.459  0.3556  0.1537  1.2495
  157MOL0     C21571   7.956   5.237   0.542 -0.6829  0.8369 -0.7254
  157MOL0     C21572   8.000   5.384   0.573 -0.2364  0.7093  0.4996
  157MOL0    Cl21573   7.886   5.422   0.706 -0.3146 -0.1958  0.0522
  157MOL0     C21574   7.990   4.540   0.648  0.8442 -0.0064  0.1464
  157MOL0     C21575   7.875   4.491   0.720 -0.7073 -0.1031  0.0787
  157MOL0     O21576   7.594   4.525   0.791 -0.4031  0.3102  0.5815
  157MOL0     C21577   7.450   4.385   1.004  0.6906 -0.5502  0.3469
  157MOL0     C21578   7.364   4.315   1.089 -0.4138  0.5896 -0.1906
  157MOL0     N21579   7.225   3.855   1.743  0.1656 -0.5945 -0.3137
  157MOL0     N21580   7.243   3.780   1.845  0.5683 -0.9561  0.7020
  157MOL0     C21581   7.915   4.018   2.215  0.1029 -0.7704  1.0295
  157MOL0     C21582   7.911   4.133   2.299 -0.3441 -0.7144 -0.1127
  157MOL0     C21583   7.815   4.559   2.438 -0.1669 -0.0470  1.1511
  157MOL0     C21584   7.920   4.652   2.446 -0.2043  0.1062 -0.1870
  157MOL0     C21585   7.902   4.775   2.504  0.7423 -0.2034  0.5832
  157MOL0     C21586   7.776   4.802   2.566 -1.0437 -0.9262 -0.0830
  157MOL0     O21587   7.769   4.930   2.617  0.5168  0.5828 -0.4901
  157MOL0     C21588   7.642   4.985   2.623  0.1115  0.3993  0.0319
  157MOL0     C21589   7.647   5.136   2.617  0.0209 -0.0806  0.6762
  157MOL0     C21590   7.724   5.198   2.490  1.3593 -0.1372 -0.6243
  157MOL0     C21591   7.655   5.256   2.366  0.7411 -0.3216 -0.5438
  157MOL0     C21592   7.568   5.372   2.399  0.7185  0.1491 -0.2222
  157MOL0     C21593   7.476   5.449   2.421  0.3324  0.1906  0.2200
  157MOL0     C21594   7.674   4.713   2.554  0.4953 -0.2942  0.2392
  157MOL0     C21595   7.690   4.588   2.498 -0.2904 -0.4971  0.8867
  157MOL0     C21596   7.567   4.500   2.482  0.0176  0.2281  0.0964
  157MOL0     H21597   7.583   4.198   2.300 -1.3287 -0.4744 -0.2715
  157MOL0     H21598   7.570   4.003   2.168 -0.5223 -0.0275 -0.5356
  157MOL0     H21599   7.941   3.767   2.133 -1.3373 -0.2358 -0.3164
  157MOL0     H21600   7.985   3.871   2.011  2.0789 -1.1026  0.2233
  157MOL0     H21601   7.898   3.722   1.839 -5.2049 -0.8179 -1.5262
  157MOL0     H21602   7.965   3.611   1.966  0.1008 -0.2524  0.6686
  157MOL0     H21603   7.727   3.566   2.044 -2.2891 -0.4107 -0.8762
  157MOL0     H21604   7.678   3.687   1.923  0.0369  1.7721  2.3771
  157MOL0     H21605   7.758   3.552   1.742  3.8560  0.0015  1.1103
  157MOL0     H21606   7.812   3.436   1.860 -0.9095 -2.3399 -3.5537
  157MOL0     H21607   7.601   3.372   1.940  1.7006 -0.3713 -0.2060
  157MOL0     H21608   7.576   3.358   1.770 -0.5537 -2.5828  0.8975
  157MOL0     H21609   7.468   3.571   1.956 -1.4161  0.3635  1.6967
  157MOL0     H21610   7.471   3.608   1.778 -3.7377  0.6541  0.8970
  157MOL0     H21611   7.346   3.371   1.917  0.2193  0.1775  0.3350
  157MOL0     H21612   7.318   3.432   1.748  2.5082  0.3993 -0.4784
  157MOL0     H21613   7.133   3.486   1.909 -0.6223  2.1153  0.3200
  157MOL0     H21614   7.238   3.591   1.995  0.2151  1.2665 -0.7497
  157MOL0     H21615   7.104   3.584   1.615 -0.8624  2.1760 -1.1015
  157MOL0     H21616   7.048   3.903   1.504 -0.1942 -0.1655 -2.2364
  157MOL0     H21617   7.118   3.757   1.433 -3.0707  1.3225 -1.2900
  157MOL0     H21618   7.267   4.023   1.503 -1.2465  1.3889 -0.7359
  157MOL0     H21619   7.346   3.878   1.430 -0.3145 -1.3187  1.7824
  157MOL0     H21620   7.184   3.918   1.223 -1.7067  2.7941 -1.6291
  157MOL0     H21621   7.102   4.021   1.329 -0.6574  0.8506 -3.6732
  157MOL0     H21622   7.292   4.181   1.311  1.5525 -1.1166  4.1982
  157MOL0     H21623   7.390   4.048   1.233  0.6175  2.6791 -0.8329
  157MOL0     H21624   7.347   4.032   0.907 -1.4004  0.6542 -0.1631
  157MOL0     H21625   7.653   4.084   0.769  0.9253  0.4127 -1.9326
  157MOL0     H21626   7.551   4.158   0.646  0.2559 -1.8237 -0.4827
  157MOL0     H21627   7.494   4.016   0.732  2.2397 -1.1166 -2.1399
  157MOL0     H21628   7.786   4.238   0.526 -0.3411  0.0106  1.1391
  157MOL0     H21629   7.995   4.292   0.405  1.6101 -0.7067  2.0684
  157MOL0     H21630   8.232   4.465   0.289  1.8464  0.8774  1.4502
  157MOL0     H21631   8.060   4.507   0.299  0.4187 -2.9932  0.6347
  157MOL0     H21632   8.292   4.711   0.316 -0.0008  4.1474 -1.2887
  157MOL0     H21633   8.164   4.700   0.191 -1.2176  0.8362 -0.3338
  157MOL0     H21634   8.103   4.768   0.487  1.6316 -0.3371 -0.5925
  157MOL0     H21635   7.986   4.742   0.365 -0.6706  1.3368  0.6984
  157MOL0     H21636   8.071   4.947   0.248  1.7867 -1.2845 -0.5075
  157MOL0     H21637   8.206   4.947   0.361 -0.2807  0.2620  0.6203
  157MOL0     H21638   7.918   4.993   0.423 -0.4350 -0.5532  2.2026
  157MOL0     H21639   8.024   4.971   0.539 -0.6844 -0.6783 -0.8049
  157MOL0     H21640   8.060   5.212   0.360 -5.5219  0.2341  0.9789
  157MOL0     H21641   8.154   5.181   0.512 -0.5049  2.0455  2.2201
  157MOL0     H21642   7.960   5.186   0.638  1.9133  0.2425 -1.0609
  157MOL0     H21643   7.862   5.239   0.486 -0.6321  1.6673 -0.7888
  157MOL0     H21644   7.997   5.457   0.491  2.1192  3.5342  2.7047
  157MOL0     H21645   8.102   5.389   0.612 -0.7276 -1.3182  2.2127
  157MOL0     H21646   8.031   4.630   0.693  0.7441 -1.3247  3.1641
  157MOL0     H21647   7.830   4.550   0.800 -1.9382  0.3104 -0.8981
  157MOL0     H21648   7.479   4.488   1.023  1.5873 -0.1287 -2.7913
  157MOL0     H21649   7.323   4.361   1.178 -3.2472 -3.1515  0.7075
  157MOL0     H21650   8.012   3.972   2.202  0.9473 -0.1171  4.2214
  157MOL0     H21651   8.003   4.177   2.337 -0.1935  0.3090 -1.5502
  157MOL0     H21652   8.020   4.645   2.406  0.5828 -0.1086  1.7132
  157MOL0     H21653   7.983   4.846   2.514 -1.6782  2.5825  2.0224
  157MOL0     H21654   7.579   4.956   2.538 -1.5127  3.2414  0.1603
  157MOL0     H21655   7.596   4.956   2.718 -0.0478 -0.0900 -0.1896
  157MOL0     H21656   7.690   5.175   2.710  2.9833 -0.0152 -0.5919
  157MOL0     H21657   7.542   5.162   2.605  0.0905 -0.4055 -0.8116
  157MOL0     H21658   7.774   5.282   2.538  2.6264 -2.4514  2.3944
  157MOL0     H21659   7.790   5.117   2.457 -0.8371 -1.3076 -2.4410
  157MOL0     H21660   7.600   5.182   2.307 -1.2963  0.6139  0.0773
  157MOL0     H21661   7.729   5.297   2.297 -0.7283 -1.9890 -3.2941
  157MOL0     H21662   7.398   5.517   2.450 -0.1487 -0.9932  1.8359
  157MOL0     H21663   7.576   4.736   2.595  0.7297 -1.0090  1.2396
  157MOL0     H21664   7.569   4.424   2.561  1.7957  2.3062  2.1801
  157MOL0     H21665   7.482   4.566   2.499  0.5832  0.2047  3.8116
  157MOL0     H21666   7.577   4.446   2.387  3.5238  0.0749  0.4091
  158MOL0     O21667   3.992  10.658   3.651 -0.0795 -0.3917  0.5107
  158MOL0     C21668   3.994  10.545   3.610 -0.7353 -0.0460 -0.1544
  158MOL0     O21669   3.892  10.482   3.541  1.2934  0.6611  0.5559
  158MOL0     C21670   3.781  10.557   3.493 -0.5110 -0.1134 -0.3428
  158MOL0     C21671   3.793  10.699   3.454 -0.1358  0.1976 -0.1472
  158MOL0     C21672   3.681  10.773   3.415  0.8554  0.2198 -1.0123
  158MOL0     C21673   3.561  10.712   3.402  0.6000  0.8660  0.8069
  158MOL0     O21674   3.454  10.772   3.340 -0.2512 -0.5180  0.8148
  158MOL0     C21675   3.383  10.857   3.432 -0.0961  0.8492  0.2398
  158MOL0     C21676   3.275  10.932   3.360 -0.3717 -0.9962 -0.1552
  158MOL0     C21677   3.151  10.841   3.345  0.3430  0.3702 -0.3344
  158MOL0     C21678   3.163  10.755   3.220  0.5254  0.1434 -0.6952
  158MOL0     C21679   3.026  10.688   3.195  0.7443 -0.1552 -0.5464
  158MOL0     C21680   3.009  10.618   3.063  0.0818  0.2709 -0.2186
  158MOL0     C21681   2.870  10.562   3.042  1.4460  0.0244  1.0122
  158MOL0     C21682   2.843  10.512   2.897  0.2456 -0.3008 -0.7138
  158MOL0     N21683   2.700  10.478   2.879 -0.3864  0.2741 -1.6304
  158MOL0     C21684   2.642  10.364   2.927  0.6682  0.2149 -0.8136
  158MOL0     C21685   2.506  10.387   2.932  0.7323 -0.7148  0.4166
  158MOL0     C21686   2.401  10.291   2.978 -0.7020 -0.4366  0.1312
  158MOL0     C21687   2.338  10.199   2.872 -0.6640  0.2356  0.0492
  158MOL0     C21688   2.391  10.060   2.863  0.4558  0.2997 -0.5732
  158MOL0     C21689   2.363   9.968   2.992 -0.7936  0.1540  0.2574
  158MOL0     O21690   2.227   9.926   2.999 -0.7899 -1.1048 -0.7786
  158MOL0     C21691   2.180   9.818   2.923  0.3955 -0.5791 -0.6882
  158MOL0     C21692   2.243   9.753   2.823  0.5362 -0.4357 -0.4715
  158MOL0     C21693   2.186   9.657   2.731 -0.4755  0.7923  0.3113
  158MOL0     C21694   2.284   9.594   2.629  0.4430 -0.5556  0.3026
  158MOL0     C21695   2.057   9.625   2.743 -0.1185 -0.6449  0.2464
  158MOL0     C21696   1.993   9.527   2.653  0.2951 -0.7976 -0.3132
  158MOL0     O21697   1.878   9.480   2.712 -0.2752  0.2671  0.2831
  158MOL0     C21698   1.818   9.385   2.645  0.5109  0.1980 -0.4256
  158MOL0     C21699   1.751   9.417   2.528  0.4578 -0.2556 -0.1689
  158MOL0     C21700   1.694   9.318   2.446  0.4096 -0.7343 -0.2086
  158MOL0     C21701   1.702   9.185   2.486  0.0015  0.5250 -0.2752
  158MOL0     O21702   1.669   9.079   2.409  0.5407  0.9497  0.3203
  158MOL0     C21703   1.535   9.077   2.354 -0.9090 -0.4948  0.2756
  158MOL0     C21704   1.464   8.973   2.443  0.8032 -0.4621 -0.0073
  158MOL0     C21705   1.422   9.017   2.594 -0.3526  0.1864  0.7332
  158MOL0     C21706   1.330   9.141   2.598  0.0359 -0.4803  1.1248
  158MOL0     C21707   1.268   9.163   2.733  0.8381  0.2479  0.5518
  158MOL0     C21708   1.141   9.071   2.755 -0.6321 -0.3615 -0.0317
  158MOL0     C21709   1.053   9.106   2.871 -0.4474  0.4398  0.3313
  158MOL0     C21710   0.932   9.012   2.900 -0.0937  0.2229  0.6869
  158MOL0    Cl21711   0.796   9.097   2.816  0.4555 -0.0537  0.0373
  158MOL0     C21712   1.757   9.151   2.606 -0.1984 -0.3540  0.8780
  158MOL0     C21713   1.804   9.251   2.689 -1.0914 -0.0868 -0.7310
  158MOL0     O21714   2.033   9.503   2.539  0.4596 -0.1537  0.3668
  158MOL0     C21715   1.986   9.690   2.852 -0.4245 -0.2715 -0.0088
  158MOL0     C21716   2.039   9.793   2.934 -0.6548 -0.0765 -0.4694
  158MOL0     N21717   2.488  10.502   2.864  0.3408  0.2383 -0.1091
  158MOL0     N21718   2.600  10.563   2.843  0.8184 -0.0945 -0.1599
  158MOL0     C21719   3.545  10.573   3.431 -1.0904 -0.1972  1.1295
  158MOL0     C21720   3.660  10.496   3.471  1.1834 -0.1144 -0.0350
  158MOL0     C21721   4.128  10.481   3.614  0.5498 -0.4443  0.9718
  158MOL0     C21722   4.235  10.543   3.677 -0.7944 -0.6151 -0.9890
  158MOL0     C21723   4.362  10.490   3.703 -0.0732  0.6962 -0.6972
  158MOL0     C21724   4.393  10.361   3.649  0.3103  0.8596  0.2295
  158MOL0     O21725   4.515  10.303   3.665 -0.3712  0.3405  0.6299
  158MOL0     C21726   4.579  10.253   3.550 -0.3935  0.1052 -0.5660
  158MOL0     C21727   4.728  10.299   3.538  0.4230 -1.0826  0.4783
  158MOL0     C21728   4.744  10.453   3.523  1.4436  0.7785  0.1627
  158MOL0     C21729   4.880  10.501   3.473 -0.8027 -0.5706 -0.0112
  158MOL0     C21730   4.894  10.652   3.469  0.9570 -1.2705  0.7846
  158MOL0     C21731   4.909  10.777   3.461  0.3478  0.8007 -0.2485
  158MOL0     C21732   4.289  10.302   3.575  0.0329 -0.0643  0.2010
  158MOL0     C21733   4.156  10.355   3.561  0.1884  0.6434  0.3037
  158MOL0     C21734   4.048  10.256   3.502  0.1910  0.4336  0.5490
  158MOL0     H21735   3.895  10.738   3.455 -0.4327  1.1015 -1.7995
  158MOL0     H21736   3.701  10.868   3.368 -0.4549  0.3957 -1.2397
  158MOL0     H21737   3.449  10.937   3.465  0.5142  1.5981 -2.4898
  158MOL0     H21738   3.342  10.804   3.518  0.1508 -1.8549 -1.1920
  158MOL0     H21739   3.260  11.026   3.415  0.5406 -0.9803  0.0956
  158MOL0     H21740   3.325  10.959   3.266 -0.0135 -0.0264  0.2995
  158MOL0     H21741   3.117  10.782   3.431 -4.5318  2.0289 -0.7969
  158MOL0     H21742   3.067  10.907   3.322  1.7653  2.7291  0.8915
  158MOL0     H21743   3.181  10.822   3.135 -5.1619  2.6569 -0.4219
  158MOL0     H21744   3.242  10.681   3.233  0.8125  0.8429  2.2240
  158MOL0     H21745   2.946  10.762   3.202  0.8002 -0.0376 -1.1267
  158MOL0     H21746   3.005  10.609   3.268  2.6956 -2.5494 -2.3896
  158MOL0     H21747   3.003  10.700   2.990 -1.2590  1.7600  1.4664
  158MOL0     H21748   3.094  10.553   3.041 -0.5800 -1.0232  0.8728
  158MOL0     H21749   2.800  10.634   3.084  0.4705  0.4501 -1.1800
  158MOL0     H21750   2.847  10.469   3.093  0.6549 -0.7843 -0.7475
  158MOL0     H21751   2.871  10.600   2.838  2.0463 -0.0963  0.3626
  158MOL0     H21752   2.905  10.425   2.873  0.8438  0.1027 -0.6552
  158MOL0     H21753   2.687  10.273   2.964  0.5423 -0.4073 -2.1283
  158MOL0     H21754   2.323  10.358   3.018  0.8674  1.4375  0.1920
  158MOL0     H21755   2.437  10.230   3.061 -0.6704 -4.0520 -2.3373
  158MOL0     H21756   2.232  10.190   2.897 -1.0431 -2.5193 -2.0335
  158MOL0     H21757   2.350  10.247   2.774 -3.2126  0.1799 -0.3650
  158MOL0     H21758   2.341  10.020   2.774  0.2055 -1.4786  0.3168
  158MOL0     H21759   2.498  10.051   2.844  0.3753 -2.9423 -0.0373
  158MOL0     H21760   2.432   9.883   2.987  1.0779  1.5655  0.9800
  158MOL0     H21761   2.388  10.009   3.091 -3.0514 -2.6951  2.1836
  158MOL0     H21762   2.350   9.764   2.808  0.3110 -0.9317 -2.7562
  158MOL0     H21763   2.276   9.486   2.616 -0.7306 -0.3091 -1.3680
  158MOL0     H21764   2.384   9.637   2.640 -0.4061  2.2597 -1.8245
  158MOL0     H21765   2.256   9.634   2.530  0.0366  2.3948  1.5059
  158MOL0     H21766   1.742   9.520   2.494 -6.7579 -0.1714  0.5947
  158MOL0     H21767   1.645   9.344   2.352 -1.1593  1.4183  1.1267
  158MOL0     H21768   1.477   9.170   2.353 -0.6839 -0.3343  1.2091
  158MOL0     H21769   1.536   9.040   2.251 -0.5095 -0.7609  0.3752
  158MOL0     H21770   1.374   8.943   2.389  0.7902 -0.8354  0.2168
  158MOL0     H21771   1.535   8.890   2.438  1.1537 -0.1282 -0.7825
  158MOL0     H21772   1.511   9.032   2.656  0.5085  2.6084 -0.9425
  158MOL0     H21773   1.372   8.927   2.633 -0.6109 -0.9627 -2.0038
  158MOL0     H21774   1.251   9.122   2.525  2.1003  0.8784 -1.6968
  158MOL0     H21775   1.387   9.228   2.562 -2.3883  0.7133 -0.0492
  158MOL0     H21776   1.349   9.133   2.801  2.2307  2.3451 -0.1097
  158MOL0     H21777   1.252   9.269   2.755  0.2778  0.3852 -0.4683
  158MOL0     H21778   1.154   8.963   2.764 -2.6045 -0.6518 -0.2365
  158MOL0     H21779   1.077   9.089   2.668 -0.7780  3.7515  0.7043
  158MOL0     H21780   1.011   9.207   2.870 -2.5621 -0.2723 -3.5067
  158MOL0     H21781   1.120   9.100   2.957 -1.6729  0.1444  1.2871
  158MOL0     H21782   0.913   8.996   3.007  0.2883 -0.7950  0.6142
  158MOL0     H21783   0.956   8.913   2.859 -2.4482  0.8376 -2.5608
  158MOL0     H21784   1.757   9.048   2.643 -2.3619 -0.3507  1.0492
  158MOL0     H21785   1.848   9.213   2.781 -1.4288  1.8725  0.2888
  158MOL0     H21786   1.881   9.664   2.859 -0.6181  0.7505  4.9247
  158MOL0     H21787   1.972   9.838   3.006 -0.1045 -1.2320  0.7953
  158MOL0     H21788   3.453  10.521   3.407  0.6240 -3.3694  0.7749
  158MOL0     H21789   3.657  10.390   3.494  4.9129 -0.3654 -0.1077
  158MOL0     H21790   4.216  10.639   3.724  0.8559 -1.6190  1.9996
  158MOL0     H21791   4.427  10.545   3.770  2.5081 -2.8104 -0.0478
  158MOL0     H21792   4.587  10.144   3.557 -2.6658  0.0150  1.5296
  158MOL0     H21793   4.523  10.285   3.462 -1.9810  0.4081  0.5223
  158MOL0     H21794   4.749  10.247   3.444 -0.6342 -0.1666 -0.2942
  158MOL0     H21795   4.796  10.269   3.619 -0.0337 -0.1164  1.2405
  158MOL0     H21796   4.665  10.475   3.450  1.2565 -1.0833 -0.2499
  158MOL0     H21797   4.717  10.502   3.617  0.8309  2.1063 -0.6685
  158MOL0     H21798   4.900  10.460   3.373  0.1848  0.4723 -0.2681
  158MOL0     H21799   4.954  10.468   3.545 -0.0671 -0.4226 -0.6846
  158MOL0     H21800   4.932  10.881   3.452  1.9121  0.8960  3.1084
  158MOL0     H21801   4.330  10.214   3.528  1.0220  1.5545 -2.1324
  158MOL0     H21802   4.094  10.157   3.496 -0.1825  0.1060  2.5535
  158MOL0     H21803   3.969  10.242   3.576 -1.8312 -2.5863 -1.9369
  158MOL0     H21804   4.009  10.287   3.404 -3.8888 -3.1670  0.7531
  159MOL0     O21805  10.239   0.536   7.324  0.4002  0.0832  0.0790
  159MOL0     C21806  10.210   0.422   7.285 -0.4119  0.0828  0.9942
  159MOL0     O21807  10.087   0.377   7.266  0.0520  0.0830 -0.3422
  159MOL0     C21808   9.987   0.441   7.328  0.1087  0.8206 -0.4507
  159MOL0     C21809   9.893   0.521   7.256  0.2333 -0.2549  0.8927
  159MOL0     C21810   9.785   0.586   7.317  0.1160  0.0205  0.5891
  159MOL0     C21811   9.772   0.568   7.455  0.2235  0.5238  0.1547
  159MOL0     O21812   9.661   0.601   7.535 -0.2083 -0.5112 -0.4885
  159MOL0     C21813   9.534   0.571   7.485 -0.5002 -0.7055  0.2187
  159MOL0     C21814   9.469   0.452   7.555 -0.1966 -0.0711  0.1249
  159MOL0     C21815   9.451   0.489   7.701  0.3291  0.0901 -1.1029
  159MOL0     C21816   9.436   0.364   7.789  1.2483 -0.3151 -0.9763
  159MOL0     C21817   9.315   0.287   7.749 -0.3545 -0.6488 -1.1072
  159MOL0     C21818   9.264   0.195   7.866 -0.1809 -0.0883 -0.2289
  159MOL0     C21819   9.164   0.091   7.828 -1.6899  0.1278  0.1037
  159MOL0     C21820   9.038   0.145   7.775  0.3474 -1.4320 -0.1307
  159MOL0     N21821   8.975   0.246   7.867  0.2713  0.0121  0.0058
  159MOL0     C21822   8.929   0.234   8.000 -0.1124  0.3232 -0.2884
  159MOL0     C21823   8.876   0.349   8.033 -0.1364 -0.6473  0.0538
  159MOL0     C21824   8.784   0.375   8.151 -0.1038  0.0646  0.3537
  159MOL0     C21825   8.788   0.278   8.273 -0.2452 -0.1407  0.9515
  159MOL0     C21826   8.667   0.267   8.357  0.4281 -0.9913 -0.6384
  159MOL0     C21827   8.629   0.397   8.436  0.1317  0.1537 -0.7079
  159MOL0     O21828   8.744   0.447   8.500  0.5353 -0.0829 -0.1890
  159MOL0     C21829   8.787   0.396   8.623  0.4713 -0.1728  0.9044
  159MOL0     C21830   8.910   0.445   8.662 -0.7067 -0.0936 -0.0975
  159MOL0     C21831   8.964   0.396   8.782  0.1052  0.9599 -1.0251
  159MOL0     C21832   9.100   0.455   8.820  0.3878 -0.0891 -0.0838
  159MOL0     C21833   8.895   0.295   8.857  0.8790 -0.0982  0.3874
  159MOL0     C21834   8.941   0.229   8.989  0.1455 -0.7802  0.0116
  159MOL0     O21835   8.846   0.139   9.041  0.0433  0.2406 -0.3161
  159MOL0     C21836   8.877   0.079   9.160  0.5678  0.3279 -0.7430
  159MOL0     C21837   8.866  -0.059   9.157 -0.1212 -0.0860 -0.0488
  159MOL0     C21838   8.890  -0.139   9.271  0.1698  0.1691  0.3568
  159MOL0     C21839   8.911  -0.080   9.395  0.0923 -0.0068  0.6809
  159MOL0     O21840   8.918  -0.157   9.513 -0.2512 -0.5796  0.9155
  159MOL0     C21841   8.984  -0.106   9.628  0.2763  0.0819 -0.4740
  159MOL0     C21842   9.122  -0.051   9.593 -0.4041 -0.8720 -0.5728
  159MOL0     C21843   9.225  -0.023   9.705  0.4949  0.4783 -0.4372
  159MOL0     C21844   9.362  -0.082   9.667 -0.8225 -0.0005 -0.3094
  159MOL0     C21845   9.476  -0.045   9.759  1.0350 -0.1481  1.0420
  159MOL0     C21846   9.462  -0.122   9.882 -0.4005  0.2954  1.2397
  159MOL0     C21847   9.593  -0.143   9.954 -0.3211 -1.0162 -0.0185
  159MOL0     C21848   9.576  -0.193  10.097 -0.2655 -0.7605  0.3667
  159MOL0    Cl21849   9.450  -0.088  10.190 -0.1762  0.3243 -0.0884
  159MOL0     C21850   8.897   0.064   9.404  0.0372 -0.1221  0.7180
  159MOL0     C21851   8.875   0.145   9.290  0.0241  1.1215 -0.2040
  159MOL0     O21852   9.043   0.258   9.054  0.6324  0.1667  0.5528
  159MOL0     C21853   8.767   0.258   8.806 -0.2313 -0.4418 -1.4390
  159MOL0     C21854   8.707   0.306   8.698  0.1468 -1.0449 -0.0002
  159MOL0     N21855   8.904   0.436   7.933 -0.3637 -0.0960 -0.2600
  159MOL0     N21856   8.958   0.373   7.826  0.7665  0.0267 -0.4617
  159MOL0     C21857   9.869   0.492   7.525 -0.2283  0.1674 -0.3776
  159MOL0     C21858   9.982   0.434   7.465  0.1092  0.1466 -0.0204
  159MOL0     C21859  10.321   0.340   7.239 -0.0447  0.1520 -0.8609
  159MOL0     C21860  10.291   0.243   7.136 -0.6843 -0.0462 -0.8923
  159MOL0     C21861  10.394   0.152   7.104  0.2107 -1.8243 -0.6952
  159MOL0     C21862  10.528   0.175   7.158  0.1431 -0.8281  0.1288
  159MOL0     O21863  10.615   0.082   7.109  0.0344  0.0283 -1.2500
  159MOL0     C21864  10.755   0.089   7.142  0.5310 -0.0194  0.1040
  159MOL0     C21865  10.809  -0.048   7.131 -0.3349  0.4571  0.0828
  159MOL0     C21866  10.820  -0.102   6.975 -0.5543 -0.6078 -0.1595
  159MOL0     C21867  10.762  -0.241   6.973 -0.7473 -0.4067 -0.2869
  159MOL0     C21868  10.765  -0.293   6.841 -0.4297 -0.3003  0.8841
  159MOL0     C21869  10.752  -0.348   6.731  0.0546 -0.2983 -0.0583
  159MOL0     C21870  10.551   0.266   7.256  1.1457 -0.2282 -0.5033
  159MOL0     C21871  10.449   0.351   7.306  0.5881 -0.0182  0.0013
  159MOL0     C21872  10.479   0.417   7.435  0.2865 -0.4341 -0.8539
  159MOL0     H21873   9.903   0.521   7.148 -2.0638 -1.4772  0.6008
  159MOL0     H21874   9.719   0.647   7.256  0.8381  1.0558  0.8161
  159MOL0     H21875   9.542   0.554   7.377  1.8696  3.0490 -0.3538
  159MOL0     H21876   9.468   0.655   7.506 -2.2399 -1.9817  0.0304
  159MOL0     H21877   9.375   0.432   7.502  1.0320  0.9133 -2.6519
  159MOL0     H21878   9.529   0.362   7.543 -2.1767 -1.5833  0.9250
  159MOL0     H21879   9.541   0.531   7.747 -1.6159 -0.6917  4.0275
  159MOL0     H21880   9.369   0.560   7.711 -0.4429 -1.0251  0.9468
  159MOL0     H21881   9.521   0.295   7.787 -1.0026 -3.3095 -0.7586
  159MOL0     H21882   9.444   0.402   7.891  0.1249  0.9734 -1.3469
  159MOL0     H21883   9.336   0.220   7.665  0.2128 -1.1403 -0.5849
  159MOL0     H21884   9.236   0.359   7.726 -0.4011  1.4071  4.0827
  159MOL0     H21885   9.352   0.149   7.912  0.4911  0.9193 -0.4943
  159MOL0     H21886   9.227   0.270   7.936  2.8729  2.7015 -1.4013
  159MOL0     H21887   9.145   0.029   7.916 -1.0600 -1.1297 -0.6169
  159MOL0     H21888   9.211   0.025   7.755 -0.1926 -0.0418  1.1734
  159MOL0     H21889   9.057   0.189   7.676  1.6269 -0.1951  0.6272
  159MOL0     H21890   8.977   0.055   7.770 -0.9285 -0.5348 -1.6470
  159MOL0     H21891   8.930   0.149   8.068 -0.0251  1.8765  1.7539
  159MOL0     H21892   8.684   0.383   8.108 -0.9728  0.9050  2.4098
  159MOL0     H21893   8.798   0.476   8.192  2.2621 -0.4730  1.0488
  159MOL0     H21894   8.823   0.176   8.257  1.4032 -0.2808  4.3923
  159MOL0     H21895   8.878   0.298   8.332  0.8493  1.7971 -1.2062
  159MOL0     H21896   8.585   0.237   8.291 -1.8362  0.2394  1.4202
  159MOL0     H21897   8.683   0.189   8.432  2.1196 -0.5625 -0.5164
  159MOL0     H21898   8.597   0.473   8.364 -0.9178 -0.5570 -1.0080
  159MOL0     H21899   8.552   0.372   8.509  0.5320  1.7172  0.2995
  159MOL0     H21900   8.955   0.526   8.606 -2.3070 -0.8626 -2.6625
  159MOL0     H21901   9.078   0.498   8.918 -0.8031 -3.1833  1.1237
  159MOL0     H21902   9.133   0.540   8.760  1.9053 -2.1117 -2.2949
  159MOL0     H21903   9.179   0.379   8.820  0.5089  0.0318  0.4573
  159MOL0     H21904   8.856  -0.109   9.060  0.7159  2.0362 -1.2927
  159MOL0     H21905   8.888  -0.248   9.264  1.5736  0.0665  1.3457
  159MOL0     H21906   8.917  -0.037   9.680  0.9882  0.0302  0.5301
  159MOL0     H21907   8.999  -0.190   9.695 -0.1316  0.4047  0.0337
  159MOL0     H21908   9.173  -0.120   9.525  1.5126  0.6744 -0.7825
  159MOL0     H21909   9.109   0.045   9.542  2.4747  0.7519  1.4952
  159MOL0     H21910   9.185  -0.070   9.796 -1.2575  2.1368 -0.2916
  159MOL0     H21911   9.231   0.083   9.729 -1.3999  0.6280 -0.4882
  159MOL0     H21912   9.409  -0.047   9.575 -0.0321  3.7884  1.3543
  159MOL0     H21913   9.355  -0.191   9.657 -1.2795 -0.3692  2.8919
  159MOL0     H21914   9.572  -0.078   9.717 -0.3626 -1.6446 -1.1276
  159MOL0     H21915   9.481   0.064   9.773 -1.4916  0.6923 -3.1211
  159MOL0     H21916   9.436  -0.218   9.838 -1.3504  1.1803 -0.2178
  159MOL0     H21917   9.388  -0.080   9.952 -0.9454  2.4889 -0.5295
  159MOL0     H21918   9.664  -0.060   9.943 -1.0966 -0.1427  1.2323
  159MOL0     H21919   9.658  -0.214   9.902  1.2863 -0.0515  0.5845
  159MOL0     H21920   9.674  -0.190  10.145 -0.1434 -0.6937  0.1184
  159MOL0     H21921   9.541  -0.297  10.095  2.2739 -1.6859  0.2489
  159MOL0     H21922   8.890   0.117   9.498 -2.0280  1.7328 -0.3872
  159MOL0     H21923   8.870   0.252   9.309  0.7499  0.9093  1.2417
  159MOL0     H21924   8.701   0.193   8.863 -1.4324  0.6394 -1.5412
  159MOL0     H21925   8.620   0.254   8.661  1.4211 -2.1425 -1.5909
  159MOL0     H21926   9.858   0.480   7.632  0.0700 -0.4296 -0.4104
  159MOL0     H21927  10.052   0.371   7.520  0.7638  1.6128  0.8816
  159MOL0     H21928  10.192   0.240   7.091 -0.3478  2.0032 -1.8928
  159MOL0     H21929  10.389   0.070   7.033 -3.0207 -2.3022 -0.0426
  159MOL0     H21930  10.797   0.162   7.072  0.3515  0.8327  0.8606
  159MOL0     H21931  10.777   0.120   7.245  2.1938 -1.2363  0.1658
  159MOL0     H21932  10.748  -0.116   7.191 -1.2392 -1.1249 -2.4233
  159MOL0     H21933  10.906  -0.042   7.181 -1.0796 -0.1591  1.6532
  159MOL0     H21934  10.758  -0.035   6.915  1.8196  2.0994  0.1719
  159MOL0     H21935  10.926  -0.096   6.949 -0.8537 -2.6263 -2.1043
  159MOL0     H21936  10.659  -0.247   7.012 -1.4143 -2.5095 -2.1559
  159MOL0     H21937  10.832  -0.313   7.015  0.5408  0.3353 -1.0922
  159MOL0     H21938  10.738  -0.398   6.637  0.7756 -0.0701 -0.2916
  159MOL0     H21939  10.639   0.259   7.319  0.8549 -0.5140 -0.1234
  159MOL0     H21940  10.412   0.390   7.518 -0.1442  1.0212 -0.6857
  159MOL0     H21941  10.582   0.407   7.471 -0.0867  1.5837  1.0750
  159MOL0     H21942  10.460   0.524   7.423 -0.7791 -0.5195 -0.0971
  160MOL0     O21943   0.885   4.634  10.092  0.6020  0.4066  1.1450
  160MOL0     C21944   0.969   4.655  10.179  0.2746  0.1490 -0.2579
  160MOL0     O21945   1.021   4.560  10.270 -0.1806 -1.1619  0.1448
  160MOL0     C21946   0.997   4.433  10.238  0.1140 -0.2659  0.3117
  160MOL0     C21947   1.093   4.333  10.192 -0.2013  0.1999 -0.8732
  160MOL0     C21948   1.070   4.197  10.179  0.6851  0.2323 -0.5795
  160MOL0     C21949   0.935   4.148  10.188  0.4053 -0.8242 -0.1054
  160MOL0     O21950   0.912   4.009  10.167 -0.3248 -0.2338 -0.4937
  160MOL0     C21951   1.013   3.908  10.202  0.7195 -0.0886 -0.1519
  160MOL0     C21952   1.094   3.856  10.085  0.0787 -0.4290  0.7374
  160MOL0     C21953   1.024   3.792   9.964 -0.3842  0.3880  0.9537
  160MOL0     C21954   0.966   3.661  10.004  0.1530  0.7260  0.5843
  160MOL0     C21955   0.871   3.612   9.883 -0.3962 -0.1267  0.1553
  160MOL0     C21956   0.803   3.479   9.897  0.0867 -0.1427  0.2859
  160MOL0     C21957   0.720   3.440   9.778 -0.0792 -0.9281  0.8719
  160MOL0     C21958   0.626   3.319   9.792 -0.1800 -0.0334 -0.5465
  160MOL0     N21959   0.687   3.189   9.782  0.3138  0.4459  0.2613
  160MOL0     C21960   0.662   3.094   9.678  0.2106  0.1743 -0.1410
  160MOL0     C21961   0.733   2.981   9.714  0.4565  0.4581  0.8440
  160MOL0     C21962   0.731   2.851   9.642  0.2824 -0.9044 -0.2315
  160MOL0     C21963   0.715   2.736   9.733 -0.0245 -0.2972  0.1274
  160MOL0     C21964   0.567   2.719   9.769 -0.6366  0.2919  0.3366
  160MOL0     C21965   0.547   2.583   9.815 -0.1453  0.7589 -0.0267
  160MOL0     O21966   0.553   2.491   9.705  0.2859 -0.5254 -0.0679
  160MOL0     C21967   0.537   2.356   9.720 -1.1305 -0.0198 -0.5375
  160MOL0     C21968   0.538   2.272   9.609  0.9770  0.2165 -0.2416
  160MOL0     C21969   0.540   2.125   9.625 -0.2870 -1.2083  0.4140
  160MOL0     C21970   0.569   2.045   9.492  0.0802  0.3544  0.3881
  160MOL0     C21971   0.529   2.068   9.753  0.2343 -0.2302  0.3553
  160MOL0     C21972   0.527   1.921   9.769  0.9247  0.1918 -0.2748
  160MOL0     O21973   0.464   1.852   9.665 -0.4250 -0.0811  0.7968
  160MOL0     C21974   0.469   1.718   9.687 -0.4284 -0.4995  0.2838
  160MOL0     C21975   0.374   1.648   9.756  0.1067  0.3708 -0.8959
  160MOL0     C21976   0.400   1.513   9.784  0.0010  0.0090 -0.4801
  160MOL0     C21977   0.514   1.443   9.745  0.1657 -0.3053 -0.7442
  160MOL0     O21978   0.517   1.306   9.773 -0.0928  0.5089 -0.0627
  160MOL0     C21979   0.557   1.221   9.668 -0.1513 -0.0059  0.2377
  160MOL0     C21980   0.535   1.072   9.709 -0.2813 -0.3064  0.0668
  160MOL0     C21981   0.584   0.978   9.606 -0.7293  0.5036 -0.8773
  160MOL0     C21982   0.531   0.835   9.621  0.1186  0.1238  0.7343
  160MOL0     C21983   0.631   0.722   9.569  0.5908  0.2954  0.4067
  160MOL0     C21984   0.557   0.593   9.529  0.7872  0.0032 -0.4924
  160MOL0     C21985   0.470   0.521   9.633 -0.1377 -1.0162 -0.3061
  160MOL0     C21986   0.550   0.423   9.725  0.1926 -0.1513  0.8333
  160MOL0    Cl21987   0.597   0.274   9.636  0.6453  0.0920  0.1821
  160MOL0     C21988   0.603   1.517   9.675 -0.2907 -0.4024  0.0952
  160MOL0     C21989   0.580   1.655   9.643 -0.0195 -0.4590  0.2242
  160MOL0     O21990   0.572   1.868   9.867 -0.8376 -0.7918 -0.8701
  160MOL0     C21991   0.529   2.152   9.865  0.2363  0.4465  0.8551
  160MOL0     C21992   0.531   2.294   9.850  0.4521  0.1216  0.3609
  160MOL0     N21993   0.790   3.010   9.837 -0.4736 -0.1219 -0.5801
  160MOL0     N21994   0.766   3.132   9.874 -0.0634 -0.6732 -1.0640
  160MOL0     C21995   0.834   4.238  10.214  0.6662  0.3603  0.3556
  160MOL0     C21996   0.866   4.380  10.241  0.2982  0.6735 -0.3013
  160MOL0     C21997   1.012   4.797  10.201 -0.8463 -0.5348  0.1743
  160MOL0     C21998   0.915   4.900  10.199  0.1528  0.6344 -0.6044
  160MOL0     C21999   0.954   5.035  10.206  0.4743 -0.1430  0.1756
  160MOL0     C22000   1.080   5.069  10.232 -0.8568 -0.3494  0.2339
  160MOL0     O22001   1.113   5.199  10.210 -1.0108  0.7929  0.4767
  160MOL0     C22002   1.150   5.269  10.330  0.2518 -0.0480  0.1697
  160MOL0     C22003   1.202   5.404  10.301 -0.2028  0.2356 -0.0013
  160MOL0     C22004   1.349   5.403  10.229  1.4816  0.5335 -0.3007
  160MOL0     C22005   1.373   5.545  10.171 -0.4947  0.3380  0.2926
  160MOL0     C22006   1.514   5.555  10.125  0.0788  0.2262 -0.1387
  160MOL0     C22007   1.626   5.559  10.075 -0.4663 -0.7828  0.1018
  160MOL0     C22008   1.175   4.969  10.247  0.0258 -0.3386 -0.7814
  160MOL0     C22009   1.144   4.837  10.245  0.9645  0.8257 -0.1950
  160MOL0     C22010   1.255   4.746  10.274 -0.2670 -0.3131 -0.4866
  160MOL0     H22011   1.193   4.368  10.166  0.4774 -0.9320  0.1344
  160MOL0     H22012   1.155   4.131  10.166 -0.1557 -1.2431  0.9707
  160MOL0     H22013   0.964   3.828  10.257 -1.0603 -0.3207 -1.9563
  160MOL0     H22014   1.082   3.933  10.283 -1.0207 -2.6459  2.2841
  160MOL0     H22015   1.153   3.936  10.039  1.4043 -1.3668  0.7395
  160MOL0     H22016   1.173   3.793  10.126  2.2109  1.2164 -0.6209
  160MOL0     H22017   0.947   3.851   9.913  0.3536  1.0144  0.5465
  160MOL0     H22018   1.099   3.776   9.886 -0.1911  3.1362  0.4827
  160MOL0     H22019   1.044   3.585  10.014 -0.1951  0.2532 -0.1688
  160MOL0     H22020   0.921   3.675  10.102  0.9993  0.3729  1.0393
  160MOL0     H22021   0.906   3.630   9.780 -0.5818 -1.0324 -0.0737
  160MOL0     H22022   0.783   3.677   9.887 -1.5899 -1.7651  3.0964
  160MOL0     H22023   0.876   3.399   9.909  0.4382  0.2258  0.6383
  160MOL0     H22024   0.746   3.503   9.987  1.5497  2.2301  0.6840
  160MOL0     H22025   0.775   3.430   9.684 -0.3337 -0.0227  0.6197
  160MOL0     H22026   0.643   3.515   9.765 -1.0042 -2.1535 -1.2952
  160MOL0     H22027   0.575   3.334   9.888 -3.5577 -1.6360 -1.8832
  160MOL0     H22028   0.534   3.339   9.735  0.0280  3.1223  0.0691
  160MOL0     H22029   0.619   3.114   9.580  2.4519  1.2273 -0.9954
  160MOL0     H22030   0.821   2.841   9.580  1.1566  4.8629 -0.4352
  160MOL0     H22031   0.648   2.857   9.571 -0.3220 -1.2417  0.4328
  160MOL0     H22032   0.752   2.644   9.687  1.2104 -0.2807  1.0160
  160MOL0     H22033   0.783   2.748   9.819  0.4144  0.5816 -0.3256
  160MOL0     H22034   0.533   2.796   9.838 -0.2235  0.2961  0.5364
  160MOL0     H22035   0.508   2.746   9.681  0.1752  2.3195  0.3674
  160MOL0     H22036   0.618   2.560   9.895 -0.9576  3.0539  1.4968
  160MOL0     H22037   0.448   2.582   9.862 -0.9293 -0.5388 -1.6169
  160MOL0     H22038   0.542   2.320   9.512 -0.5368  2.3663  0.6862
  160MOL0     H22039   0.632   2.097   9.419  1.5387 -2.3382 -0.4027
  160MOL0     H22040   0.472   2.018   9.448 -0.4231 -1.2850  2.3532
  160MOL0     H22041   0.625   1.957   9.526  3.2912  1.1134 -2.3915
  160MOL0     H22042   0.280   1.690   9.793 -0.6833 -1.5187 -0.6707
  160MOL0     H22043   0.327   1.459   9.842  1.0991 -0.7360  0.2505
  160MOL0     H22044   0.492   1.243   9.583  1.9919 -1.7388 -2.0194
  160MOL0     H22045   0.659   1.256   9.649 -0.2029 -0.0813 -0.1901
  160MOL0     H22046   0.584   1.040   9.801 -0.3939 -1.0618 -0.1329
  160MOL0     H22047   0.427   1.055   9.704 -0.0370 -2.1343  0.4773
  160MOL0     H22048   0.692   0.982   9.596 -0.5807  0.3948  0.4278
  160MOL0     H22049   0.539   1.016   9.514 -2.8796  2.2600  0.7752
  160MOL0     H22050   0.434   0.830   9.572 -0.9602 -4.0059  2.7892
  160MOL0     H22051   0.508   0.794   9.721  3.0044 -1.1333  0.9874
  160MOL0     H22052   0.680   0.762   9.479  0.2323  0.5517  0.3237
  160MOL0     H22053   0.707   0.702   9.644  2.0056  1.1032 -0.7472
  160MOL0     H22054   0.622   0.513   9.493  1.0127 -0.3061  0.5592
  160MOL0     H22055   0.488   0.618   9.447  0.7106 -1.2886 -0.8403
  160MOL0     H22056   0.389   0.466   9.585  0.6826 -0.3525 -2.5917
  160MOL0     H22057   0.428   0.591   9.706 -0.0448  0.4785 -1.6456
  160MOL0     H22058   0.492   0.395   9.814  0.6859 -2.7793  0.3975
  160MOL0     H22059   0.641   0.473   9.759 -1.2307  1.6897  2.1911
  160MOL0     H22060   0.692   1.472   9.633  0.1013 -0.2346  0.7359
  160MOL0     H22061   0.652   1.712   9.586  0.5123 -0.8031  0.5431
  160MOL0     H22062   0.520   2.101   9.960 -0.2324 -2.1482 -0.4955
  160MOL0     H22063   0.544   2.354   9.940  4.0355  1.1746 -0.7015
  160MOL0     H22064   0.730   4.205  10.218  1.0846 -1.3150 -1.0655
  160MOL0     H22065   0.785   4.438  10.284  1.9439  1.7520  1.5001
  160MOL0     H22066   0.819   4.858  10.170  0.8164 -0.0096 -1.9065
  160MOL0     H22067   0.886   5.119  10.191 -0.2912 -0.7883 -0.0394
  160MOL0     H22068   1.064   5.293  10.393  1.6756  5.1816  0.5568
  160MOL0     H22069   1.220   5.219  10.398 -0.1609  0.7810  1.2481
  160MOL0     H22070   1.208   5.456  10.397  1.6813 -2.3038  1.3769
  160MOL0     H22071   1.142   5.455  10.225  2.3392  0.6974 -1.8319
  160MOL0     H22072   1.422   5.367  10.301 -0.6180 -3.5095  0.1077
  160MOL0     H22073   1.349   5.342  10.138  1.4928  3.1353 -2.1498
  160MOL0     H22074   1.358   5.617  10.252 -2.0647  1.4194 -0.8971
  160MOL0     H22075   1.304   5.578  10.093  0.6524 -0.4827 -1.1249
  160MOL0     H22076   1.728   5.575  10.048 -1.0578  0.1704 -1.7347
  160MOL0     H22077   1.277   5.000  10.267  1.0690 -2.1941 -2.8905
  160MOL0     H22078   1.353   4.789  10.299  0.9526 -2.8207 -0.6400
  160MOL0     H22079   1.221   4.694  10.365 -4.1162  0.8943 -1.0425
  160MOL0     H22080   1.265   4.661  10.206 -2.3697 -2.1251  1.2966
  161MOL0     O22081   7.137   5.434   1.476  0.2211  0.2397 -0.0168
  161MOL0     C22082   7.112   5.316   1.504 -0.0756 -0.7426  0.4305
  161MOL0     O22083   7.157   5.209   1.439 -0.8115 -0.2600 -0.0922
  161MOL0     C22084   7.269   5.221   1.377 -0.4484 -0.2250 -0.1418
  161MOL0     C22085   7.271   5.190   1.243  0.2516 -1.1845 -0.5474
  161MOL0     C22086   7.390   5.204   1.170 -0.8089 -1.2777  0.0435
  161MOL0     C22087   7.506   5.242   1.233 -0.5871 -0.4270 -0.1936
  161MOL0     O22088   7.628   5.253   1.168  1.1288 -0.5694  0.0987
  161MOL0     C22089   7.646   5.389   1.119 -0.3739 -0.1288  0.8529
  161MOL0     C22090   7.778   5.408   1.040  0.0971 -0.1569  0.7192
  161MOL0     C22091   7.839   5.547   1.043  0.0944 -0.0816  0.7641
  161MOL0     C22092   7.742   5.639   0.984  0.4109 -0.5807  0.7767
  161MOL0     C22093   7.684   5.733   1.090 -0.5343 -0.1590 -0.2827
  161MOL0     C22094   7.595   5.851   1.053 -0.3384  0.2526 -0.3281
  161MOL0     C22095   7.456   5.815   1.010 -0.5456 -0.6392 -0.3692
  161MOL0     C22096   7.359   5.795   1.130 -0.3282  0.2994  0.1236
  161MOL0     N22097   7.223   5.797   1.091 -0.2782 -0.1098 -0.7422
  161MOL0     C22098   7.127   5.703   1.125  0.9430 -0.3790  0.2746
  161MOL0     C22099   7.010   5.748   1.078 -0.1263 -0.7618 -0.9219
  161MOL0     C22100   6.881   5.668   1.067  0.0275 -0.9796 -0.8378
  161MOL0     C22101   6.811   5.635   1.203  0.7226  0.4784 -0.2807
  161MOL0     C22102   6.696   5.537   1.172  0.2920 -0.9405  0.6620
  161MOL0     C22103   6.616   5.503   1.296 -1.0719 -0.2794 -0.0124
  161MOL0     O22104   6.510   5.402   1.275  0.2419  0.0329 -0.0953
  161MOL0     C22105   6.535   5.274   1.322  0.2446 -0.3958 -0.0521
  161MOL0     C22106   6.644   5.203   1.278 -0.1482  0.2363  0.1050
  161MOL0     C22107   6.677   5.078   1.329 -0.4684  1.2075  0.3957
  161MOL0     C22108   6.798   5.000   1.257  0.8985  0.4707  0.1401
  161MOL0     C22109   6.597   5.010   1.423  0.9399 -0.0802  1.0874
  161MOL0     C22110   6.609   4.875   1.468 -0.0133  0.0402 -0.9492
  161MOL0     O22111   6.634   4.774   1.377  0.7493 -0.3091  0.3461
  161MOL0     C22112   6.552   4.658   1.381  0.1727 -0.1261  0.2715
  161MOL0     C22113   6.420   4.635   1.323  0.0988 -0.8834 -1.1578
  161MOL0     C22114   6.357   4.515   1.349  0.3821  0.4782 -0.4357
  161MOL0     C22115   6.428   4.406   1.415  0.4590 -0.2108 -1.0171
  161MOL0     O22116   6.379   4.281   1.429  0.2988  0.0919  0.6937
  161MOL0     C22117   6.265   4.254   1.362  0.6829  0.7530 -0.6177
  161MOL0     C22118   6.206   4.116   1.385 -0.4299 -1.1021 -0.4796
  161MOL0     C22119   6.210   4.083   1.533 -0.1113 -0.1147 -0.5240
  161MOL0     C22120   6.112   4.177   1.603  0.1026 -0.3293 -0.2741
  161MOL0     C22121   6.110   4.147   1.757 -0.1792  0.5291  0.2546
  161MOL0     C22122   6.060   4.000   1.801  0.0875 -0.0415 -1.2764
  161MOL0     C22123   5.915   3.979   1.740 -0.1265 -0.2086  0.6118
  161MOL0     C22124   5.833   3.877   1.812  0.4254  0.4335 -0.1235
  161MOL0    Cl22125   5.727   3.954   1.938 -0.5299 -0.2967 -0.0233
  161MOL0     C22126   6.559   4.428   1.465  0.2125 -0.0602  0.0352
  161MOL0     C22127   6.619   4.554   1.448 -0.4046  0.7090  0.9731
  161MOL0     O22128   6.601   4.860   1.591 -0.4113  0.4662 -0.0599
  161MOL0     C22129   6.491   5.088   1.474  0.5415 -0.0220  0.2134
  161MOL0     C22130   6.468   5.218   1.430  0.4051 -0.0027 -0.0167
  161MOL0     N22131   7.028   5.873   1.025 -0.7300 -0.1503 -0.4137
  161MOL0     N22132   7.157   5.899   1.034  0.6012  0.5143  0.2137
  161MOL0     C22133   7.511   5.274   1.365  0.3516 -0.0826 -1.1418
  161MOL0     C22134   7.393   5.272   1.442  1.5243 -0.3166 -0.8510
  161MOL0     C22135   6.995   5.288   1.594  0.2787  0.3666  0.0089
  161MOL0     C22136   6.893   5.391   1.612  0.0624  0.0058 -0.5298
  161MOL0     C22137   6.777   5.365   1.684  0.2457 -0.1271 -0.3992
  161MOL0     C22138   6.763   5.248   1.756  0.0815  0.0728 -0.0812
  161MOL0     O22139   6.651   5.226   1.836  0.3907  0.0702  0.0124
  161MOL0     C22140   6.576   5.104   1.835 -0.6250  0.1461  1.1074
  161MOL0     C22141   6.439   5.126   1.896  1.0038 -0.0105 -0.7478
  161MOL0     C22142   6.323   5.043   1.836  0.6763  1.1348  0.4182
  161MOL0     C22143   6.267   4.921   1.919  0.1172 -0.6895 -0.1068
  161MOL0     C22144   6.379   4.830   1.975  1.1610 -0.4459  0.6626
  161MOL0     C22145   6.478   4.764   2.001  0.6395 -0.4763 -0.1915
  161MOL0     C22146   6.860   5.153   1.742  0.3760  0.4986  0.5707
  161MOL0     C22147   6.979   5.166   1.666 -0.3123 -1.2017  0.4577
  161MOL0     C22148   7.074   5.053   1.665  0.3358 -0.0451  0.6269
  161MOL0     H22149   7.183   5.141   1.201 -2.3789 -0.2989  3.3660
  161MOL0     H22150   7.422   5.192   1.067  4.5068 -0.8714  1.3445
  161MOL0     H22151   7.642   5.476   1.186  0.8453  2.8096 -2.5703
  161MOL0     H22152   7.565   5.391   1.046 -0.4444 -0.3390  0.9277
  161MOL0     H22153   7.844   5.341   1.096  3.1480  1.7508 -0.3429
  161MOL0     H22154   7.769   5.373   0.937 -0.6940 -0.6289  0.9407
  161MOL0     H22155   7.849   5.567   1.150 -2.7991  2.1566  0.7327
  161MOL0     H22156   7.940   5.551   1.000  0.9485  1.5431  2.7623
  161MOL0     H22157   7.801   5.699   0.914  0.8179 -3.2050 -1.2738
  161MOL0     H22158   7.660   5.593   0.930  0.2860  0.0028  0.4604
  161MOL0     H22159   7.769   5.769   1.148 -0.1128 -1.4691 -0.0402
  161MOL0     H22160   7.631   5.672   1.163 -2.0965 -0.4025 -1.5703
  161MOL0     H22161   7.594   5.914   1.142 -1.1201 -0.7990  0.4393
  161MOL0     H22162   7.648   5.906   0.975  3.6230  0.5659  2.3378
  161MOL0     H22163   7.441   5.737   0.934 -1.7280  0.5511 -1.4234
  161MOL0     H22164   7.429   5.912   0.967 -1.5881 -0.9591 -0.4863
  161MOL0     H22165   7.380   5.703   1.185  0.8501  0.1569 -0.5313
  161MOL0     H22166   7.363   5.866   1.213 -3.6490  0.4807  0.2715
  161MOL0     H22167   7.142   5.607   1.175 -0.2343 -1.7616 -1.8325
  161MOL0     H22168   6.904   5.587   0.997  0.2402 -0.5431 -1.2798
  161MOL0     H22169   6.809   5.730   1.013  0.1781  1.0324  1.1276
  161MOL0     H22170   6.882   5.585   1.269 -1.0184 -2.5640 -0.5298
  161MOL0     H22171   6.768   5.713   1.267  0.3642 -1.0755  1.4422
  161MOL0     H22172   6.633   5.587   1.098 -0.4680  0.1616  2.0092
  161MOL0     H22173   6.742   5.448   1.129  0.5183 -1.6989  2.3924
  161MOL0     H22174   6.682   5.468   1.376  1.6593  2.0868 -1.0539
  161MOL0     H22175   6.577   5.596   1.336  1.3740  0.9815 -0.3684
  161MOL0     H22176   6.690   5.238   1.186  1.0303 -1.4929 -0.0235
  161MOL0     H22177   6.900   5.038   1.264  1.2252 -0.3525 -0.0613
  161MOL0     H22178   6.778   4.987   1.151 -0.8409 -4.2359  0.7992
  161MOL0     H22179   6.804   4.903   1.307  0.5377  0.2542 -0.2355
  161MOL0     H22180   6.374   4.717   1.268  0.9528  1.1631  1.0241
  161MOL0     H22181   6.266   4.485   1.299 -0.3292  0.6284  0.7310
  161MOL0     H22182   6.178   4.317   1.387 -1.0104 -0.8161 -2.2143
  161MOL0     H22183   6.281   4.268   1.255 -0.2726  0.6751 -0.7852
  161MOL0     H22184   6.108   4.117   1.337  0.8591 -2.0792 -3.3971
  161MOL0     H22185   6.264   4.048   1.322 -1.5288 -0.3956 -2.3481
  161MOL0     H22186   6.306   4.111   1.580 -0.2413  0.6231 -0.6821
  161MOL0     H22187   6.195   3.976   1.546  3.5787 -0.8595 -1.2798
  161MOL0     H22188   6.011   4.152   1.567  0.5560 -3.0285  0.1181
  161MOL0     H22189   6.135   4.284   1.601  3.4281 -0.9438 -0.2538
  161MOL0     H22190   6.208   4.162   1.803  1.3424 -3.1386 -1.3603
  161MOL0     H22191   6.042   4.216   1.808 -2.5121  0.7075 -2.8264
  161MOL0     H22192   6.060   4.008   1.910  0.7280 -1.2211 -1.1744
  161MOL0     H22193   6.124   3.914   1.782  1.5960  0.2131  1.8913
  161MOL0     H22194   5.921   3.928   1.644  2.6205 -2.3931  1.7821
  161MOL0     H22195   5.872   4.080   1.747  4.6908  2.1701 -0.3708
  161MOL0     H22196   5.898   3.808   1.866  2.3878  1.5492 -0.9752
  161MOL0     H22197   5.767   3.820   1.746 -0.2719  1.0337  0.0412
  161MOL0     H22198   6.614   4.348   1.512  1.4233  0.9171  0.3308
  161MOL0     H22199   6.720   4.579   1.477 -0.6104  2.0272  0.6429
  161MOL0     H22200   6.426   5.048   1.551 -0.1331  0.7636  0.0691
  161MOL0     H22201   6.378   5.267   1.466 -2.9891 -4.6144 -1.3600
  161MOL0     H22202   7.607   5.308   1.402  1.3584  0.1266 -3.7522
  161MOL0     H22203   7.400   5.305   1.545 -0.4457 -1.4134 -0.3181
  161MOL0     H22204   6.908   5.479   1.551  2.4511 -1.8633 -2.8891
  161MOL0     H22205   6.702   5.439   1.709  0.3250 -1.0709  2.9924
  161MOL0     H22206   6.577   5.063   1.733  2.1971  1.7806  0.3778
  161MOL0     H22207   6.643   5.041   1.893  0.1351  1.4919  1.7296
  161MOL0     H22208   6.420   5.234   1.895 -0.7280 -0.2646 -2.3284
  161MOL0     H22209   6.447   5.088   1.998  1.1368 -0.4749 -0.9294
  161MOL0     H22210   6.237   5.111   1.827  2.1397  2.9562 -0.5275
  161MOL0     H22211   6.359   4.999   1.742  0.4198 -2.0446  1.6836
  161MOL0     H22212   6.197   4.877   1.847  1.7455  1.2392 -3.0854
  161MOL0     H22213   6.223   4.963   2.010  2.2056  2.0939 -0.2710
  161MOL0     H22214   6.565   4.702   2.003 -1.4036 -3.5500  1.7925
  161MOL0     H22215   6.860   5.077   1.818  1.1450  0.5352  0.6179
  161MOL0     H22216   7.175   5.095   1.655 -0.2758  1.2018 -0.6902
  161MOL0     H22217   7.065   4.984   1.749 -2.9247 -0.8577 -0.2579
  161MOL0     H22218   7.058   4.985   1.581  3.6374  0.1832 -0.3509
  162MOL0     O22219   2.570   0.273   7.642 -0.4853 -0.5099  0.7729
  162MOL0     C22220   2.499   0.216   7.723  0.0674 -0.1806 -0.7378
  162MOL0     O22221   2.360   0.220   7.715  0.6228  1.1091  0.1474
  162MOL0     C22222   2.299   0.333   7.664 -0.1636 -1.1744 -0.0310
  162MOL0     C22223   2.207   0.319   7.566  0.2797 -0.4725  0.5174
  162MOL0     C22224   2.140   0.426   7.501 -0.3634 -0.0934 -0.5925
  162MOL0     C22225   2.170   0.559   7.550  0.2932  1.6056  0.9866
  162MOL0     O22226   2.103   0.671   7.514  0.5323 -0.0515  0.3418
  162MOL0     C22227   1.958   0.672   7.521  0.1453 -0.3804  0.9079
  162MOL0     C22228   1.915   0.817   7.486  0.9906 -0.2724  0.0611
  162MOL0     C22229   1.953   0.920   7.591 -0.4253 -0.2088 -0.8150
  162MOL0     C22230   2.069   1.010   7.548 -0.2190 -0.4024 -0.6777
  162MOL0     C22231   2.136   1.090   7.663 -0.0756  0.3631 -0.1205
  162MOL0     C22232   2.202   1.005   7.764 -0.6581 -0.9105 -0.3870
  162MOL0     C22233   2.294   1.090   7.850  0.1910  0.3217  0.3543
  162MOL0     C22234   2.412   1.143   7.770  0.9226  0.6385  0.2893
  162MOL0     N22235   2.477   1.038   7.685 -0.1101 -0.1546 -0.8791
  162MOL0     C22236   2.469   1.019   7.546  0.9386 -0.4833 -0.6537
  162MOL0     C22237   2.529   0.906   7.520 -0.2569 -0.9420 -0.0045
  162MOL0     C22238   2.540   0.834   7.390 -0.4040 -0.4196  0.1543
  162MOL0     C22239   2.454   0.907   7.278 -0.7426  0.3197 -0.5399
  162MOL0     C22240   2.313   0.866   7.295 -0.3792 -0.4614  0.0908
  162MOL0     C22241   2.268   0.737   7.225 -0.8884 -0.5395 -0.0059
  162MOL0     O22242   2.129   0.726   7.241  0.2004 -0.1581 -0.4301
  162MOL0     C22243   2.059   0.634   7.170  0.5680 -0.1128  0.4770
  162MOL0     C22244   2.106   0.509   7.120 -0.2256 -0.1513 -0.9126
  162MOL0     C22245   2.033   0.448   7.024 -0.3978  0.8612  0.5079
  162MOL0     C22246   2.098   0.332   6.946  0.5418  0.4621 -0.8780
  162MOL0     C22247   1.899   0.491   6.978  0.3430 -0.4978  0.5014
  162MOL0     C22248   1.815   0.426   6.880  0.3373  0.8924 -0.4745
  162MOL0     O22249   1.832   0.295   6.876  0.2689  1.0009  0.0368
  162MOL0     C22250   1.785   0.224   6.766  0.1712  0.9009  0.2021
  162MOL0     C22251   1.875   0.194   6.657  0.3560 -0.1079 -0.1697
  162MOL0     C22252   1.841   0.101   6.565 -0.2249  0.4129 -0.5928
  162MOL0     C22253   1.710   0.044   6.562 -0.4478  0.1966  0.3776
  162MOL0     O22254   1.700  -0.057   6.471 -0.0203 -0.5548 -0.2040
  162MOL0     C22255   1.657  -0.177   6.537  0.3022  0.1003  0.5121
  162MOL0     C22256   1.559  -0.248   6.441  0.9751 -0.7949 -0.3687
  162MOL0     C22257   1.496  -0.363   6.522  0.4939  0.1455  0.8286
  162MOL0     C22258   1.406  -0.458   6.440  0.0814 -0.3009 -0.7460
  162MOL0     C22259   1.321  -0.383   6.325  0.8137  0.3671  0.0858
  162MOL0     C22260   1.193  -0.325   6.387  0.2201  0.4348 -0.6179
  162MOL0     C22261   1.126  -0.226   6.294  0.2104 -0.6534 -0.2628
  162MOL0     C22262   1.039  -0.293   6.196  0.0207  0.3570  0.4262
  162MOL0    Cl22263   0.952  -0.192   6.066 -0.0920  0.3018  0.1141
  162MOL0     C22264   1.615   0.078   6.653 -0.3475  0.1107  0.7166
  162MOL0     C22265   1.656   0.162   6.754  0.0820 -1.0006 -0.7421
  162MOL0     O22266   1.743   0.495   6.802 -0.6364 -0.0225 -0.0284
  162MOL0     C22267   1.853   0.613   7.044 -0.5268  0.8071  0.1886
  162MOL0     C22268   1.931   0.678   7.136  0.6464 -0.2228 -1.0225
  162MOL0     N22269   2.587   0.851   7.634  0.6289  0.7311 -0.1307
  162MOL0     N22270   2.543   0.928   7.728  0.0272 -0.6071  0.6346
  162MOL0     C22271   2.277   0.565   7.633  0.6765  0.0791  0.6643
  162MOL0     C22272   2.336   0.462   7.696 -0.0420  0.4735  0.4233
  162MOL0     C22273   2.557   0.134   7.841  0.2344 -0.2398 -0.3102
  162MOL0     C22274   2.481   0.026   7.883 -0.0539 -0.2979  1.3849
  162MOL0     C22275   2.526  -0.056   7.988  0.2196  0.0729 -0.2255
  162MOL0     C22276   2.646  -0.023   8.061 -0.5852  0.1489 -0.2786
  162MOL0     O22277   2.669  -0.093   8.168  0.0342  0.8768 -0.6980
  162MOL0     C22278   2.592  -0.045   8.284  0.1486  0.3218 -0.4763
  162MOL0     C22279   2.635  -0.136   8.412  0.9941  0.0702 -0.0833
  162MOL0     C22280   2.547  -0.271   8.419  0.2210 -1.4756 -0.1119
  162MOL0     C22281   2.594  -0.370   8.530  0.0932 -0.4814 -0.0766
  162MOL0     C22282   2.683  -0.474   8.472 -0.4742 -0.8124  0.4099
  162MOL0     C22283   2.754  -0.558   8.424  0.5697 -0.0733 -0.5760
  162MOL0     C22284   2.723   0.086   8.025  1.0283  0.1595 -0.1122
  162MOL0     C22285   2.675   0.169   7.914  0.5591  0.0248  0.7148
  162MOL0     C22286   2.766   0.279   7.859  0.4988  0.3402 -0.1430
  162MOL0     H22287   2.174   0.224   7.526  3.1313 -0.4443 -2.2817
  162MOL0     H22288   2.058   0.422   7.430 -0.0961  2.2100 -1.1151
  162MOL0     H22289   1.920   0.644   7.620 -0.5594 -0.6208  0.5756
  162MOL0     H22290   1.906   0.620   7.440  2.3715  1.4857 -1.8701
  162MOL0     H22291   1.953   0.842   7.387  1.5188  0.0389  0.3407
  162MOL0     H22292   1.806   0.809   7.484  1.0746 -1.4328 -1.0268
  162MOL0     H22293   1.868   0.982   7.619  0.9869  1.2669  0.3881
  162MOL0     H22294   1.982   0.866   7.682 -3.7109  2.2101  1.8854
  162MOL0     H22295   2.133   0.937   7.496 -3.1831 -2.4875 -1.6683
  162MOL0     H22296   2.034   1.073   7.466  1.1148  0.1717 -0.8385
  162MOL0     H22297   2.055   1.146   7.711 -2.7544 -2.8084 -0.5231
  162MOL0     H22298   2.201   1.168   7.624 -0.1656  2.9981  4.2882
  162MOL0     H22299   2.116   0.962   7.816 -0.0599  0.5894  1.9996
  162MOL0     H22300   2.260   0.925   7.718 -0.8608 -1.3063  0.0351
  162MOL0     H22301   2.339   1.026   7.927  1.4218 -0.2524 -0.8016
  162MOL0     H22302   2.235   1.163   7.907 -0.7933  2.0861 -2.6650
  162MOL0     H22303   2.389   1.230   7.707 -1.1032  1.7650  2.4206
  162MOL0     H22304   2.485   1.176   7.845 -1.6688  1.0285  2.8428
  162MOL0     H22305   2.411   1.076   7.474  1.7822  1.2593 -0.0149
  162MOL0     H22306   2.511   0.730   7.409  2.7364 -1.5116 -0.4926
  162MOL0     H22307   2.645   0.833   7.361 -0.1792  3.1882  0.3569
  162MOL0     H22308   2.456   1.016   7.286 -0.1290  0.2663  0.1589
  162MOL0     H22309   2.493   0.881   7.179  0.3421 -0.0427 -0.0354
  162MOL0     H22310   2.284   0.850   7.399  0.3302 -0.7370  0.2570
  162MOL0     H22311   2.261   0.954   7.255  1.8513  1.2139  0.6544
  162MOL0     H22312   2.276   0.742   7.116  1.2864  3.3102  0.1463
  162MOL0     H22313   2.321   0.645   7.252 -0.8481 -0.3540  0.5657
  162MOL0     H22314   2.198   0.462   7.154 -0.6890  0.1274  0.8482
  162MOL0     H22315   2.068   0.239   6.996 -3.5455  1.8630 -0.3551
  162MOL0     H22316   2.207   0.341   6.949  0.8499 -1.4310 -3.2147
  162MOL0     H22317   2.059   0.332   6.844 -0.7704  0.2619 -0.4074
  162MOL0     H22318   1.973   0.238   6.667  1.1677 -1.5813 -1.3024
  162MOL0     H22319   1.913   0.075   6.488  0.7326  1.7741 -0.1869
  162MOL0     H22320   1.742  -0.245   6.546  0.9608  0.7842 -0.4795
  162MOL0     H22321   1.610  -0.159   6.634 -1.1727 -2.6672  0.4330
  162MOL0     H22322   1.482  -0.181   6.402 -1.6935 -2.9870  0.7070
  162MOL0     H22323   1.611  -0.291   6.355 -3.6686 -1.4591 -3.1855
  162MOL0     H22324   1.433  -0.323   6.602 -2.1386 -1.6426 -0.2032
  162MOL0     H22325   1.578  -0.417   6.569  1.6580 -0.4820 -1.7497
  162MOL0     H22326   1.336  -0.510   6.507 -1.1669  1.2569 -0.7829
  162MOL0     H22327   1.467  -0.533   6.388  0.6482  0.5386 -1.3205
  162MOL0     H22328   1.376  -0.304   6.273  1.3739 -0.4475 -0.5844
  162MOL0     H22329   1.281  -0.456   6.254 -0.6300 -0.0164  1.2558
  162MOL0     H22330   1.206  -0.264   6.477 -1.0578  1.2266 -0.9474
  162MOL0     H22331   1.128  -0.411   6.408  0.7633  0.0778 -0.3725
  162MOL0     H22332   1.203  -0.177   6.233  1.3756 -0.8104  1.0220
  162MOL0     H22333   1.079  -0.153   6.361  0.5197 -2.9725  2.6948
  162MOL0     H22334   0.966  -0.343   6.260 -0.4061  3.4022  2.5417
  162MOL0     H22335   1.091  -0.368   6.136  2.2581  2.1396 -0.0183
  162MOL0     H22336   1.516   0.035   6.639 -0.7999  0.9939  1.1047
  162MOL0     H22337   1.591   0.192   6.836  3.5723  2.2056  1.1850
  162MOL0     H22338   1.758   0.661   7.023 -1.8236 -1.5304  0.3711
  162MOL0     H22339   1.910   0.776   7.176  3.4764  0.4620 -1.0082
  162MOL0     H22340   2.295   0.667   7.665 -1.2063 -0.1570  2.7167
  162MOL0     H22341   2.400   0.474   7.783  0.0244 -0.1945  0.4753
  162MOL0     H22342   2.390   0.005   7.828  0.2743 -0.0706  0.7402
  162MOL0     H22343   2.467  -0.139   8.026  0.7107 -0.2291 -0.1120
  162MOL0     H22344   2.616   0.060   8.304  0.6980 -0.0455  0.8472
  162MOL0     H22345   2.485  -0.039   8.261 -0.2386  0.5654  1.2779
  162MOL0     H22346   2.609  -0.085   8.505  0.6463  0.9609 -0.6621
  162MOL0     H22347   2.741  -0.161   8.417  0.5801 -1.6273  2.0747
  162MOL0     H22348   2.442  -0.251   8.444  0.0615  3.1689 -3.2356
  162MOL0     H22349   2.553  -0.311   8.318  1.6760 -2.9983  0.5392
  162MOL0     H22350   2.507  -0.411   8.582 -1.7715 -0.0421 -2.6722
  162MOL0     H22351   2.656  -0.305   8.593  0.0664  0.5098 -1.0396
  162MOL0     H22352   2.813  -0.632   8.375  1.1079 -0.9648  1.3052
  162MOL0     H22353   2.810   0.112   8.086  1.0556  2.0106 -0.8538
  162MOL0     H22354   2.829   0.246   7.777  2.6352  3.3192  0.1426
  162MOL0     H22355   2.711   0.368   7.828  1.7182  1.1077 -0.1625
  162MOL0     H22356   2.827   0.322   7.939  1.2367  3.1868 -2.1150
  163MOL0     O22357  10.818   4.048   3.585  1.0637 -0.4141 -0.8878
  163MOL0     C22358  10.799   4.061   3.705  0.2755  0.6871  0.3179
  163MOL0     O22359  10.834   4.179   3.765  0.2215 -0.4125 -0.1164
  163MOL0     C22360  10.935   4.252   3.711  0.7027  0.8978  0.0859
  163MOL0     C22361  11.065   4.215   3.734 -0.5954  0.7641  0.0147
  163MOL0     C22362  11.181   4.292   3.696 -0.5744  0.2517  1.0734
  163MOL0     C22363  11.162   4.396   3.604  0.2413  1.2991 -0.2603
  163MOL0     O22364  11.259   4.477   3.549 -0.0139 -0.4897 -0.4331
  163MOL0     C22365  11.381   4.417   3.510  0.0585  0.6961  0.1889
  163MOL0     C22366  11.366   4.359   3.368  0.1204 -0.6377  0.4810
  163MOL0     C22367  11.488   4.286   3.321 -0.0785 -0.6246 -0.2918
  163MOL0     C22368  11.493   4.146   3.397 -1.1469 -0.1837  0.3467
  163MOL0     C22369  11.602   4.066   3.321 -0.1674  0.1680  0.4237
  163MOL0     C22370  11.661   3.951   3.403 -0.0492 -0.1791  0.2644
  163MOL0     C22371  11.595   3.814   3.398  0.3531 -0.2783  0.1899
  163MOL0     C22372  11.550   3.773   3.251 -0.8862 -0.7663 -0.3989
  163MOL0     N22373  11.641   3.665   3.192  0.7304 -0.3795 -0.1329
  163MOL0     C22374  11.613   3.532   3.199 -0.1348  0.2391 -0.4352
  163MOL0     C22375  11.729   3.473   3.161  0.0519  0.5708  1.2064
  163MOL0     C22376  11.770   3.329   3.157 -1.2163  0.3642  0.3921
  163MOL0     C22377  11.871   3.298   3.271 -0.2450  0.3898  1.3471
  163MOL0     C22378  11.951   3.168   3.233 -0.2808  0.2363  0.5379
  163MOL0     C22379  11.858   3.049   3.212  0.4279 -0.4123 -0.7193
  163MOL0     O22380  11.768   3.024   3.330  0.0550 -1.0691 -0.0677
  163MOL0     C22381  11.726   2.902   3.365  0.1485 -0.4067 -0.0778
  163MOL0     C22382  11.736   2.781   3.304 -0.0088 -0.9481 -0.7585
  163MOL0     C22383  11.674   2.660   3.339 -0.0909  0.0481 -0.0958
  163MOL0     C22384  11.705   2.535   3.274  0.4548  0.8254  0.2107
  163MOL0     C22385  11.589   2.669   3.452  0.9072  0.0468  0.5470
  163MOL0     C22386  11.521   2.546   3.510  0.0757 -0.6563  0.1472
  163MOL0     O22387  11.514   2.543   3.646 -0.1615 -0.2600  0.1012
  163MOL0     C22388  11.450   2.433   3.700  0.1945  1.3162 -0.1858
  163MOL0     C22389  11.316   2.431   3.741 -0.3771  0.0803  0.9997
  163MOL0     C22390  11.252   2.330   3.815 -0.2738  0.2996  0.2444
  163MOL0     C22391  11.333   2.215   3.842  0.9787  0.3951 -0.3672
  163MOL0     O22392  11.272   2.094   3.878  0.0383 -0.7630 -0.4365
  163MOL0     C22393  11.155   2.052   3.810 -0.0610  0.3882  0.5204
  163MOL0     C22394  11.034   2.081   3.905  0.0918 -0.3161  0.4946
  163MOL0     C22395  10.914   2.022   3.828  0.4538 -1.1410 -0.6608
  163MOL0     C22396  10.855   2.129   3.748 -0.3543 -0.9906 -0.4289
  163MOL0     C22397  10.727   2.100   3.664  0.6423  0.9701 -0.6855
  163MOL0     C22398  10.711   2.212   3.566 -0.2085 -0.0628 -0.1104
  163MOL0     C22399  10.582   2.188   3.487 -0.5063 -0.0541 -0.5254
  163MOL0     C22400  10.451   2.230   3.554 -0.0389  0.3033  0.3160
  163MOL0    Cl22401  10.481   2.365   3.661 -0.0831  0.2439 -0.1034
  163MOL0     C22402  11.467   2.210   3.806  0.2973  0.2977  0.6575
  163MOL0     C22403  11.522   2.316   3.730 -0.0033  0.9222 -0.6922
  163MOL0     O22404  11.468   2.470   3.435  1.1419 -0.4830 -0.6700
  163MOL0     C22405  11.572   2.796   3.513 -0.1392  0.4621  0.2300
  163MOL0     C22406  11.637   2.908   3.467  0.0818 -0.9526  0.0254
  163MOL0     N22407  11.823   3.572   3.128  1.1188 -0.0036 -0.8138
  163MOL0     N22408  11.767   3.689   3.154 -0.2909 -0.5745 -0.3066
  163MOL0     C22409  11.024   4.422   3.568 -0.4400 -0.0410  0.3010
  163MOL0     C22410  10.918   4.367   3.628 -0.1125  1.3510 -0.2289
  163MOL0     C22411  10.713   3.969   3.781 -0.2397 -0.2915  1.0599
  163MOL0     C22412  10.694   3.840   3.727 -0.0824 -0.1809  0.1201
  163MOL0     C22413  10.650   3.731   3.802 -0.9345  0.8530 -0.6800
  163MOL0     C22414  10.597   3.755   3.923 -1.2475  0.0281 -0.9571
  163MOL0     O22415  10.555   3.662   4.010  0.2241 -1.3681 -0.6716
  163MOL0     C22416  10.550   3.521   3.980  0.2175 -0.1712  0.1333
  163MOL0     C22417  10.679   3.448   4.024  0.4146  0.3190  0.3857
  163MOL0     C22418  10.660   3.396   4.166  0.4333  0.0810 -0.4984
  163MOL0     C22419  10.781   3.346   4.240 -0.6877 -0.5550 -0.1836
  163MOL0     C22420  10.731   3.299   4.370 -0.8882 -0.7315 -0.8571
  163MOL0     C22421  10.704   3.275   4.486  0.8721  0.3265 -0.2866
  163MOL0     C22422  10.611   3.883   3.975  0.3484  0.3672 -0.3507
  163MOL0     C22423  10.671   3.994   3.909  0.4875  0.1175 -0.7826
  163MOL0     C22424  10.684   4.125   3.984  0.9135 -0.8250  0.0468
  163MOL0     H22425  11.080   4.124   3.792 -2.2962 -0.7167 -1.7328
  163MOL0     H22426  11.279   4.257   3.725 -0.9307 -2.6583 -0.8642
  163MOL0     H22427  11.432   4.352   3.581 -1.4777 -0.3181  0.4117
  163MOL0     H22428  11.451   4.497   3.485  1.0190 -0.3508 -0.5157
  163MOL0     H22429  11.279   4.295   3.351 -0.6229  0.6531 -0.7973
  163MOL0     H22430  11.340   4.438   3.297 -0.2646 -3.7066 -3.1284
  163MOL0     H22431  11.490   4.276   3.212 -0.0328  0.1937 -0.3775
  163MOL0     H22432  11.577   4.349   3.334 -1.3870  1.5101 -1.2411
  163MOL0     H22433  11.524   4.160   3.501 -0.3708  4.4480 -0.3075
  163MOL0     H22434  11.399   4.090   3.393 -1.3166  0.0745  0.7173
  163MOL0     H22435  11.686   4.133   3.302 -0.5824  1.1112  1.7700
  163MOL0     H22436  11.554   4.039   3.226 -0.0527 -2.1003  0.9393
  163MOL0     H22437  11.760   3.941   3.356  0.1737 -0.1556  0.7274
  163MOL0     H22438  11.650   3.976   3.508 -1.5512  0.5915 -0.0497
  163MOL0     H22439  11.509   3.819   3.466 -2.2430  0.3179 -2.8512
  163MOL0     H22440  11.664   3.736   3.432 -1.8497 -1.0956  3.1964
  163MOL0     H22441  11.451   3.728   3.260 -1.0661 -0.8532 -2.3316
  163MOL0     H22442  11.531   3.856   3.183 -2.9305  1.3865  2.5102
  163MOL0     H22443  11.524   3.485   3.239 -1.6863  1.9936 -1.6834
  163MOL0     H22444  11.822   3.310   3.063  0.1341 -0.0642  1.2030
  163MOL0     H22445  11.681   3.265   3.161 -0.1722 -1.2440 -0.9268
  163MOL0     H22446  11.939   3.382   3.285 -0.8113  1.2520 -0.7566
  163MOL0     H22447  11.826   3.274   3.368  0.7634 -1.5866  1.3794
  163MOL0     H22448  11.989   3.187   3.132 -0.2793  1.6997  0.7952
  163MOL0     H22449  12.031   3.144   3.304 -1.3110 -1.9874  1.0294
  163MOL0     H22450  11.802   3.053   3.119  0.0122 -2.1289 -0.5673
  163MOL0     H22451  11.929   2.965   3.205 -2.9689 -3.6551  0.5988
  163MOL0     H22452  11.812   2.793   3.227  2.2373  1.5704  1.6303
  163MOL0     H22453  11.700   2.543   3.165  1.7235 -1.8750 -0.1250
  163MOL0     H22454  11.642   2.450   3.301  0.0145  1.3590  0.9154
  163MOL0     H22455  11.803   2.501   3.307  0.1684  1.4710  1.8342
  163MOL0     H22456  11.254   2.518   3.720 -0.0555 -0.0661 -0.7517
  163MOL0     H22457  11.149   2.342   3.845 -1.8026 -1.6229 -3.5365
  163MOL0     H22458  11.150   2.095   3.710 -2.5829  1.8627  1.1888
  163MOL0     H22459  11.176   1.945   3.805  1.6002  0.7488 -1.7318
  163MOL0     H22460  11.053   2.020   3.993  1.3295  1.2379  1.3613
  163MOL0     H22461  11.024   2.185   3.938  0.3886 -0.6514  1.6829
  163MOL0     H22462  10.842   1.981   3.900 -0.1994  2.1269  0.7722
  163MOL0     H22463  10.933   1.939   3.760 -0.5474 -1.5541 -0.4626
  163MOL0     H22464  10.922   2.182   3.680  0.3398 -0.3622  0.7128
  163MOL0     H22465  10.837   2.217   3.811  1.7784  0.7298 -2.0333
  163MOL0     H22466  10.746   2.004   3.615  3.0895  0.1155  1.6892
  163MOL0     H22467  10.638   2.079   3.724  3.0066 -1.0116  2.4177
  163MOL0     H22468  10.795   2.208   3.495 -1.6113  2.1139 -2.0219
  163MOL0     H22469  10.716   2.309   3.615 -2.9234 -0.1137  0.4263
  163MOL0     H22470  10.571   2.083   3.460  0.5554 -1.3589  3.5366
  163MOL0     H22471  10.601   2.257   3.404  3.0600  1.8540  1.6157
  163MOL0     H22472  10.418   2.142   3.611  1.1920 -3.0837 -3.6490
  163MOL0     H22473  10.379   2.257   3.476 -1.0123 -1.6820  0.4534
  163MOL0     H22474  11.531   2.126   3.827 -1.2701 -1.0448  0.2502
  163MOL0     H22475  11.623   2.311   3.691 -0.3085 -1.8863 -1.3509
  163MOL0     H22476  11.506   2.810   3.598 -0.0288 -0.4353  0.4758
  163MOL0     H22477  11.606   2.999   3.518 -3.1916 -2.4900  1.0432
  163MOL0     H22478  10.990   4.502   3.502 -2.8738 -1.6319 -0.4929
  163MOL0     H22479  10.816   4.404   3.617 -0.7633  0.5000  2.1726
  163MOL0     H22480  10.736   3.821   3.629  0.2545  1.4462 -0.0875
  163MOL0     H22481  10.654   3.638   3.746 -1.5798  0.6482 -0.3979
  163MOL0     H22482  10.463   3.480   4.033  1.6812  0.9815  3.7847
  163MOL0     H22483  10.531   3.512   3.873  0.5094  0.2424  0.0451
  163MOL0     H22484  10.762   3.519   4.016  0.1005  0.8711  1.7429
  163MOL0     H22485  10.689   3.360   3.959  0.7482  0.1226  0.7018
  163MOL0     H22486  10.622   3.484   4.218 -2.5780 -1.1158 -0.5165
  163MOL0     H22487  10.576   3.328   4.182  1.2065 -0.0790  4.3711
  163MOL0     H22488  10.857   3.424   4.240 -3.1607  2.2367 -4.0090
  163MOL0     H22489  10.830   3.257   4.199  0.9144  0.6710 -1.0292
  163MOL0     H22490  10.672   3.262   4.587  1.3451 -1.8134 -0.3564
  163MOL0     H22491  10.563   3.904   4.070  0.9414  1.0233 -0.1866
  163MOL0     H22492  10.619   4.124   4.072  0.6177  1.9044 -0.0766
  163MOL0     H22493  10.788   4.142   4.013  1.0122 -0.0594 -0.7367
  163MOL0     H22494  10.644   4.210   3.928  2.0479  0.9415  1.7927
  164MOL0     O22495   8.336   1.203  10.283  0.7489 -0.6645 -0.1753
  164MOL0     C22496   8.235   1.156  10.337 -0.2809  0.6386  0.1363
  164MOL0     O22497   8.127   1.114  10.263 -0.1522  0.1456  0.1259
  164MOL0     C22498   8.105   1.127  10.127 -0.3324  0.5198  0.4508
  164MOL0     C22499   8.016   1.030  10.072 -0.6680  1.1428  0.7955
  164MOL0     C22500   7.988   1.039   9.936 -0.7994 -0.2957  0.3179
  164MOL0     C22501   8.040   1.139   9.855 -0.5593 -0.5215  1.4092
  164MOL0     O22502   8.001   1.133   9.719 -0.0292 -0.1827  0.2496
  164MOL0     C22503   7.917   1.243   9.676 -0.1081  0.0791 -0.1225
  164MOL0     C22504   7.866   1.224   9.542  0.2646 -0.5568  1.0319
  164MOL0     C22505   7.767   1.101   9.542 -0.5353 -0.8533  0.8419
  164MOL0     C22506   7.703   1.093   9.404 -0.3307  0.1738 -0.1787
  164MOL0     C22507   7.601   0.985   9.385 -0.5404  0.7183  0.4544
  164MOL0     C22508   7.526   0.984   9.239  0.5883  0.7213  0.4743
  164MOL0     C22509   7.604   0.900   9.149 -0.2762  0.1003 -0.0875
  164MOL0     C22510   7.558   0.922   9.006  0.2347  0.2363 -0.3852
  164MOL0     N22511   7.600   0.813   8.915 -0.6281 -0.0065 -0.2279
  164MOL0     C22512   7.515   0.750   8.829  0.1671 -0.0515 -0.2605
  164MOL0     C22513   7.601   0.682   8.749 -0.5651  0.3074 -0.5896
  164MOL0     C22514   7.554   0.601   8.632  0.2080 -0.7973 -0.3516
  164MOL0     C22515   7.674   0.530   8.564 -0.0383 -0.4280 -0.8820
  164MOL0     C22516   7.630   0.452   8.434 -0.0410 -0.7247  0.1074
  164MOL0     C22517   7.568   0.547   8.335  0.0201  0.7555  0.7787
  164MOL0     O22518   7.573   0.494   8.202  0.3683  0.1346  0.8613
  164MOL0     C22519   7.528   0.563   8.095  1.0437 -0.0241 -0.0605
  164MOL0     C22520   7.565   0.506   7.972  0.0086 -0.0630  0.0883
  164MOL0     C22521   7.520   0.553   7.850 -0.7447  0.5467 -0.9189
  164MOL0     C22522   7.546   0.459   7.726  0.2811  0.6669 -0.2199
  164MOL0     C22523   7.482   0.684   7.846 -0.7945 -0.1200  0.3508
  164MOL0     C22524   7.493   0.770   7.725 -0.9362  0.1483  0.6000
  164MOL0     O22525   7.508   0.702   7.596 -0.3513  0.1990 -0.1884
  164MOL0     C22526   7.531   0.773   7.486  0.0639 -0.0605  1.3704
  164MOL0     C22527   7.654   0.797   7.430  0.2508  0.1667  1.1927
  164MOL0     C22528   7.664   0.855   7.300 -0.5870 -0.5295 -0.0790
  164MOL0     C22529   7.553   0.881   7.222 -0.2984  0.1416 -0.3046
  164MOL0     O22530   7.560   0.925   7.098  0.9532  0.0754  0.7811
  164MOL0     C22531   7.669   1.003   7.047  0.0852 -0.6411 -1.3162
  164MOL0     C22532   7.773   0.944   6.954 -0.4376  0.3732 -0.3916
  164MOL0     C22533   7.905   1.025   6.946 -0.0218 -0.4008  0.4699
  164MOL0     C22534   7.990   1.009   7.058 -0.1442  0.2838 -0.5113
  164MOL0     C22535   8.140   1.055   7.028  0.4776  0.3949  0.2375
  164MOL0     C22536   8.248   1.011   7.140 -0.6502 -0.9471 -0.1482
  164MOL0     C22537   8.232   1.080   7.274  0.9157 -0.0038 -0.3152
  164MOL0     C22538   8.364   1.049   7.350  0.0464  0.4144  0.8353
  164MOL0    Cl22539   8.431   1.202   7.405 -0.2629 -0.2757 -0.5675
  164MOL0     C22540   7.433   0.858   7.281 -0.5359 -0.7553 -0.0331
  164MOL0     C22541   7.422   0.812   7.418 -0.2063  1.5754  0.7271
  164MOL0     O22542   7.513   0.898   7.740  0.3865  0.6124  0.7925
  164MOL0     C22543   7.453   0.757   7.966  0.4177  0.6498 -0.8236
  164MOL0     C22544   7.471   0.691   8.092  0.0309 -0.3075  0.5404
  164MOL0     N22545   7.731   0.710   8.792 -0.4381 -0.6679 -0.2716
  164MOL0     N22546   7.730   0.778   8.890 -0.0088  0.2140 -1.2618
  164MOL0     C22547   8.119   1.243   9.910  0.4064  0.7636  0.2635
  164MOL0     C22548   8.148   1.236  10.051  0.1294 -0.7740  0.2052
  164MOL0     C22549   8.253   1.106  10.475  0.0199 -0.6336  0.5942
  164MOL0     C22550   8.373   1.051  10.520  0.1931 -0.2672  0.6687
  164MOL0     C22551   8.385   0.987  10.643  0.2811 -0.4548 -0.5871
  164MOL0     C22552   8.273   0.978  10.734  0.0043  0.0685  0.2921
  164MOL0     O22553   8.285   0.909  10.852  0.6638 -0.2782 -0.2175
  164MOL0     C22554   8.210   0.793  10.842 -0.0657  0.2827  0.4302
  164MOL0     C22555   8.210   0.719  10.967 -0.6005  0.3501 -0.6074
  164MOL0     C22556   8.360   0.686  10.997  0.0248  0.4923 -0.0093
  164MOL0     C22557   8.368   0.629  11.137  0.3869  0.5466 -0.0928
  164MOL0     C22558   8.291   0.511  11.160  0.2686  0.6121 -0.3252
  164MOL0     C22559   8.235   0.414  11.213  0.5586  0.1840 -0.4653
  164MOL0     C22560   8.155   1.038  10.686 -0.0896 -0.6485 -0.9123
  164MOL0     C22561   8.143   1.103  10.565  0.5593 -0.3413  0.0941
  164MOL0     C22562   8.003   1.174  10.533 -0.1834  0.2453 -0.3678
  164MOL0     H22563   7.974   0.948  10.131 -1.3858 -0.5178 -1.8440
  164MOL0     H22564   7.919   0.976   9.880 -0.7438  1.1150 -1.4492
  164MOL0     H22565   7.971   1.338   9.677 -0.4200  0.2571 -0.2253
  164MOL0     H22566   7.827   1.244   9.739  0.8739  0.0819  1.3412
  164MOL0     H22567   7.813   1.316   9.517  1.1430  0.3901  2.4639
  164MOL0     H22568   7.953   1.212   9.476  0.0152  0.2323  0.5481
  164MOL0     H22569   7.814   1.007   9.571 -0.6134 -1.7852 -1.7916
  164MOL0     H22570   7.684   1.128   9.609 -4.5101 -3.1370 -2.6455
  164MOL0     H22571   7.662   1.193   9.389 -0.1825  0.4671  1.2327
  164MOL0     H22572   7.776   1.071   9.326 -2.2910  0.8518 -2.3235
  164MOL0     H22573   7.529   1.008   9.465  0.6813  4.6190  0.6103
  164MOL0     H22574   7.642   0.885   9.403 -1.5308  0.3214  0.5907
  164MOL0     H22575   7.422   0.952   9.248  0.4184  1.0386 -0.2677
  164MOL0     H22576   7.520   1.083   9.192 -3.7232  0.6152  0.3554
  164MOL0     H22577   7.586   0.794   9.169 -1.3525  0.4727  1.0254
  164MOL0     H22578   7.712   0.919   9.160 -0.1735 -0.2166 -0.5230
  164MOL0     H22579   7.449   0.916   8.993  0.3990  0.5257 -2.0036
  164MOL0     H22580   7.600   1.015   8.967 -0.8964 -0.0495 -2.4029
  164MOL0     H22581   7.407   0.748   8.825  0.0172 -0.8495  2.3903
  164MOL0     H22582   7.516   0.671   8.557  0.5660  0.0301  0.2173
  164MOL0     H22583   7.478   0.530   8.665  1.7053 -1.7079  1.3257
  164MOL0     H22584   7.749   0.609   8.551 -2.2510  2.0255  0.4034
  164MOL0     H22585   7.720   0.470   8.643 -0.0155  0.0316 -0.5437
  164MOL0     H22586   7.723   0.426   8.382 -0.4907 -0.6878 -0.7294
  164MOL0     H22587   7.563   0.368   8.453 -3.4804  0.9622 -3.2560
  164MOL0     H22588   7.463   0.570   8.356 -0.1219  0.3121  0.5677
  164MOL0     H22589   7.637   0.631   8.340  1.7555 -0.6404  1.4434
  164MOL0     H22590   7.610   0.407   7.977 -0.1312 -0.0655  2.9156
  164MOL0     H22591   7.611   0.493   7.646 -2.1124 -0.2217 -2.6983
  164MOL0     H22592   7.450   0.451   7.674  0.9437 -0.2878 -1.3444
  164MOL0     H22593   7.588   0.362   7.753  3.4961  2.2019  0.8061
  164MOL0     H22594   7.744   0.781   7.488  1.6115  0.2789 -0.8144
  164MOL0     H22595   7.769   0.866   7.272 -0.4231  1.3250  1.1274
  164MOL0     H22596   7.608   1.079   6.997 -1.8353 -0.0454  1.6289
  164MOL0     H22597   7.723   1.048   7.131  2.0029 -0.3585 -2.6538
  164MOL0     H22598   7.799   0.844   6.991  0.1684  1.0225  0.9931
  164MOL0     H22599   7.728   0.933   6.855  0.3791 -1.7303 -0.5808
  164MOL0     H22600   7.880   1.131   6.941  3.3041  0.6539  2.7786
  164MOL0     H22601   7.956   0.996   6.853  0.9594 -1.1985  1.2330
  164MOL0     H22602   7.993   0.904   7.088 -2.6143  0.8015  1.9396
  164MOL0     H22603   7.946   1.057   7.147  1.5412  3.1277 -1.0820
  164MOL0     H22604   8.170   1.004   6.936  3.2630 -1.3419  1.9872
  164MOL0     H22605   8.138   1.163   7.010 -0.8642 -0.1227 -3.8857
  164MOL0     H22606   8.348   1.034   7.102  0.0461 -2.7638  0.4409
  164MOL0     H22607   8.244   0.902   7.154 -0.4125 -1.3547 -2.7379
  164MOL0     H22608   8.151   1.030   7.329  0.9580 -0.4860 -0.6831
  164MOL0     H22609   8.213   1.187   7.276  1.8200  0.3667  5.3738
  164MOL0     H22610   8.445   1.006   7.290 -2.0112 -0.9224 -1.1196
  164MOL0     H22611   8.358   0.975   7.429  2.0351 -1.8653 -0.9765
  164MOL0     H22612   7.345   0.894   7.229  0.1397  1.1659  0.1010
  164MOL0     H22613   7.320   0.813   7.455 -1.4540  2.4759 -2.3259
  164MOL0     H22614   7.414   0.858   7.959 -0.9718  0.0787 -1.9238
  164MOL0     H22615   7.438   0.728   8.188 -2.4154  0.3098 -0.4509
  164MOL0     H22616   8.133   1.332   9.850 -2.9149  2.2814  1.4982
  164MOL0     H22617   8.219   1.308  10.091  1.7296 -1.8937 -0.4999
  164MOL0     H22618   8.453   1.055  10.447 -0.2015  1.8617  0.2885
  164MOL0     H22619   8.473   0.935  10.678 -0.7852 -1.3546  0.8496
  164MOL0     H22620   8.107   0.830  10.834  0.3659  1.8897  1.7302
  164MOL0     H22621   8.235   0.720  10.764 -1.9057 -1.7102  1.5929
  164MOL0     H22622   8.144   0.632  10.965  1.8858 -1.6374 -3.0475
  164MOL0     H22623   8.170   0.791  11.040 -3.2758  0.6850 -2.2521
  164MOL0     H22624   8.392   0.613  10.922  1.6336  1.0678  0.0739
  164MOL0     H22625   8.426   0.773  10.998  0.6914  0.0213  1.8980
  164MOL0     H22626   8.341   0.705  11.211  2.1816  0.6275  0.5361
  164MOL0     H22627   8.468   0.589  11.159  0.0181  0.6127  1.8811
  164MOL0     H22628   8.192   0.342  11.279 -1.3642  0.2366 -1.5929
  164MOL0     H22629   8.076   1.059  10.758 -1.1037  0.1056 -2.2053
  164MOL0     H22630   8.022   1.278  10.503  0.6096  0.5728  1.1754
  164MOL0     H22631   7.960   1.128  10.443 -2.2529 -2.7113  1.9458
  164MOL0     H22632   7.937   1.170  10.620 -0.6614  0.2712 -0.7236
  165MOL0     O22633   7.370   3.018   2.511  0.4030  0.0089 -0.6786
  165MOL0     C22634   7.261   3.030   2.560  0.8132 -0.6162  0.0896
  165MOL0     O22635   7.159   3.109   2.501 -0.1231 -0.3133 -0.2518
  165MOL0     C22636   7.158   3.125   2.363 -0.6812 -0.4052  0.5104
  165MOL0     C22637   7.083   3.231   2.310 -0.2668 -0.3900  0.5632
  165MOL0     C22638   7.078   3.260   2.169  0.2321 -0.5126 -0.9729
  165MOL0     C22639   7.142   3.179   2.081  0.8639  0.8251 -0.5535
  165MOL0     O22640   7.128   3.193   1.948 -0.0874 -0.5706  0.5600
  165MOL0     C22641   7.000   3.126   1.901  0.2071 -0.2445  1.2890
  165MOL0     C22642   6.943   3.197   1.769  0.3235  0.6633  0.0098
  165MOL0     C22643   6.879   3.341   1.799  0.0088 -0.1531  0.2752
  165MOL0     C22644   6.788   3.343   1.916 -0.1377  0.2723  0.2659
  165MOL0     C22645   6.717   3.482   1.924 -0.0095  0.7364 -0.5574
  165MOL0     C22646   6.824   3.597   1.920  0.3392 -0.6953  0.3033
  165MOL0     C22647   6.760   3.736   1.941 -0.5361  0.0274  0.2808
  165MOL0     C22648   6.863   3.852   1.962  0.2037  0.7232 -0.5985
  165MOL0     N22649   6.814   3.984   1.982 -0.1139  0.0287 -0.1085
  165MOL0     C22650   6.687   4.020   1.971  0.2592  0.1219 -0.8564
  165MOL0     C22651   6.672   4.136   2.033 -0.3037 -0.3910  0.3596
  165MOL0     C22652   6.547   4.205   2.029 -0.8245 -0.9194  0.0040
  165MOL0     C22653   6.570   4.363   2.003  0.0119 -1.1912  0.6997
  165MOL0     C22654   6.556   4.400   1.860 -0.1754 -0.3523  0.8239
  165MOL0     C22655   6.414   4.378   1.802  0.9939 -0.3251  0.6468
  165MOL0     O22656   6.329   4.484   1.864  0.0479  1.6039  0.6520
  165MOL0     C22657   6.268   4.562   1.768  0.6486  0.0800 -0.1468
  165MOL0     C22658   6.124   4.548   1.747 -0.2492 -0.5080 -0.1132
  165MOL0     C22659   6.058   4.646   1.669  0.1919 -1.1096  0.4919
  165MOL0     C22660   5.907   4.623   1.659  0.8643  0.1092 -0.4111
  165MOL0     C22661   6.130   4.750   1.598 -1.1799  0.6098 -0.8692
  165MOL0     C22662   6.074   4.868   1.532  0.2131 -0.4432 -0.4795
  165MOL0     O22663   6.154   4.973   1.491  0.0302  0.5097 -0.3519
  165MOL0     C22664   6.097   5.087   1.441  1.0354 -0.7255 -0.1339
  165MOL0     C22665   6.092   5.211   1.513 -0.5498 -0.7244 -0.7178
  165MOL0     C22666   6.014   5.313   1.460 -0.3969 -0.1305 -0.4589
  165MOL0     C22667   5.967   5.320   1.329  0.4849  0.0706 -0.0588
  165MOL0     O22668   5.894   5.424   1.279  0.0722 -1.5452 -0.3223
  165MOL0     C22669   5.837   5.519   1.373 -1.1987  1.0584 -0.3498
  165MOL0     C22670   5.767   5.623   1.297 -0.1892  0.1750 -0.8796
  165MOL0     C22671   5.866   5.737   1.254 -0.1839  0.6158 -0.1324
  165MOL0     C22672   5.798   5.818   1.148 -1.0057  0.8043 -0.5513
  165MOL0     C22673   5.874   5.954   1.128  0.6890  0.6262 -0.8929
  165MOL0     C22674   5.826   6.051   1.239  0.4444  0.0368  0.5667
  165MOL0     C22675   5.913   6.180   1.232 -0.3061  0.7046  0.3971
  165MOL0     C22676   5.821   6.299   1.201  0.9082 -0.1786 -0.7611
  165MOL0    Cl22677   5.761   6.364   1.361 -0.3233 -0.0589 -0.7374
  165MOL0     C22678   5.988   5.206   1.252  0.7835 -0.2026 -0.5029
  165MOL0     C22679   6.043   5.087   1.310 -0.2136 -0.4537 -0.5911
  165MOL0     O22680   5.951   4.871   1.514  0.0165  0.9443 -0.5105
  165MOL0     C22681   6.266   4.741   1.607  0.5691 -0.4561  0.5818
  165MOL0     C22682   6.338   4.651   1.696 -0.1717  0.1178  0.4164
  165MOL0     N22683   6.786   4.166   2.105 -0.2174  0.5058  0.0454
  165MOL0     N22684   6.875   4.067   2.076  1.1451 -0.6774 -0.1615
  165MOL0     C22685   7.205   3.065   2.135 -0.4456 -0.3345  0.4464
  165MOL0     C22686   7.214   3.038   2.271  0.2446 -0.5644 -0.0784
  165MOL0     C22687   7.233   2.978   2.698  0.7780  0.4065  0.0775
  165MOL0     C22688   7.114   3.011   2.761  0.5896 -0.4335  0.0041
  165MOL0     C22689   7.091   2.972   2.893  1.0332 -0.4907  0.4895
  165MOL0     C22690   7.185   2.905   2.965 -0.4912 -0.8624 -0.7144
  165MOL0     O22691   7.189   2.887   3.100 -0.6422 -0.0309  0.6121
  165MOL0     C22692   7.073   2.927   3.172  0.5852  0.1637 -0.0448
  165MOL0     C22693   6.954   2.827   3.178  0.1520 -0.0671 -0.3377
  165MOL0     C22694   6.991   2.678   3.220  0.1127 -0.1068 -0.6328
  165MOL0     C22695   7.035   2.676   3.371 -0.4252  0.0486 -0.1464
  165MOL0     C22696   7.095   2.545   3.403  1.0172  0.3478 -0.0410
  165MOL0     C22697   7.129   2.429   3.418 -0.0206 -0.5001 -0.4932
  165MOL0     C22698   7.297   2.860   2.907  0.5110 -0.0508  0.2454
  165MOL0     C22699   7.324   2.884   2.770  0.6529  0.8281 -0.9684
  165MOL0     C22700   7.437   2.812   2.707  0.1972  0.6046 -0.2458
  165MOL0     H22701   7.018   3.297   2.366 -0.0760  0.9154 -0.6765
  165MOL0     H22702   7.023   3.345   2.131 -0.0184 -0.8369 -1.3499
  165MOL0     H22703   6.927   3.126   1.982  1.1007 -2.8270  2.1737
  165MOL0     H22704   7.023   3.020   1.891 -2.4024 -1.1747  3.8078
  165MOL0     H22705   7.031   3.208   1.706  1.4059  1.4425  1.5728
  165MOL0     H22706   6.879   3.123   1.721  2.4849 -2.7089  1.9160
  165MOL0     H22707   6.970   3.399   1.820  1.8138 -3.3538  2.0436
  165MOL0     H22708   6.827   3.370   1.707 -0.8346 -1.5780  0.2813
  165MOL0     H22709   6.706   3.270   1.910  0.3340 -0.1803 -1.2087
  165MOL0     H22710   6.847   3.325   2.006 -2.7070  1.9086  2.4180
  165MOL0     H22711   6.659   3.483   2.017  1.5177 -1.1635  0.4901
  165MOL0     H22712   6.644   3.495   1.844 -2.0394 -1.5945  0.7709
  165MOL0     H22713   6.886   3.573   2.006  0.4791 -0.9049  0.1443
  165MOL0     H22714   6.885   3.602   1.829 -0.4492  1.1277 -0.1705
  165MOL0     H22715   6.705   3.738   2.035  1.0629 -0.7296  1.2897
  165MOL0     H22716   6.689   3.761   1.862 -0.0532  3.2134  0.7059
  165MOL0     H22717   6.928   3.825   2.045 -0.9551  1.0029  0.4389
  165MOL0     H22718   6.930   3.848   1.876  3.2336  2.2084  1.5206
  165MOL0     H22719   6.609   3.981   1.906 -0.1049 -0.3730 -0.1346
  165MOL0     H22720   6.491   4.190   2.122 -3.2559  1.2944 -0.9755
  165MOL0     H22721   6.487   4.174   1.943 -0.0242 -1.4662 -0.3706
  165MOL0     H22722   6.488   4.413   2.055 -2.1219 -0.8156 -2.7240
  165MOL0     H22723   6.666   4.398   2.043  0.2197 -1.4809  0.4619
  165MOL0     H22724   6.589   4.504   1.850  1.3867 -0.8575  0.3665
  165MOL0     H22725   6.629   4.343   1.801  1.3240  1.7151  0.5473
  165MOL0     H22726   6.421   4.395   1.694 -1.4411  1.5425  0.7207
  165MOL0     H22727   6.379   4.274   1.806  2.0804 -0.6643  2.5904
  165MOL0     H22728   6.076   4.474   1.811  0.7470 -0.6763  0.4628
  165MOL0     H22729   5.884   4.570   1.566  0.0207  1.7850 -1.2093
  165MOL0     H22730   5.843   4.708   1.636 -2.4174 -2.4483 -1.5529
  165MOL0     H22731   5.876   4.581   1.755  2.3340 -0.1763 -0.0363
  165MOL0     H22732   6.127   5.214   1.615  0.5772 -0.5640 -1.1015
  165MOL0     H22733   5.995   5.400   1.522  2.4444  0.8095 -0.7725
  165MOL0     H22734   5.773   5.474   1.449  0.1173  2.7697  1.9132
  165MOL0     H22735   5.918   5.576   1.420 -2.8738  0.8733  3.0657
  165MOL0     H22736   5.725   5.568   1.212  1.8046 -2.2094 -0.4525
  165MOL0     H22737   5.689   5.658   1.365  0.5215 -3.0456  1.8895
  165MOL0     H22738   5.953   5.687   1.212 -0.1027  2.1548 -1.9445
  165MOL0     H22739   5.894   5.790   1.345 -2.0229 -2.5821  2.4977
  165MOL0     H22740   5.693   5.834   1.174 -1.0788 -0.3550 -0.0680
  165MOL0     H22741   5.812   5.752   1.062 -0.1297  0.4314 -0.1386
  165MOL0     H22742   5.982   5.944   1.116  0.6593 -0.6857 -0.2756
  165MOL0     H22743   5.839   5.998   1.035 -1.5973  0.3407 -0.2187
  165MOL0     H22744   5.835   6.016   1.343 -0.0446 -1.1555  0.2237
  165MOL0     H22745   5.721   6.081   1.228 -0.7944 -2.8604  2.7816
  165MOL0     H22746   5.975   6.158   1.144 -4.0059 -2.0315 -1.8471
  165MOL0     H22747   5.987   6.199   1.310  2.1886  0.0339 -1.6697
  165MOL0     H22748   5.733   6.276   1.140  0.0018 -0.3659  0.5610
  165MOL0     H22749   5.884   6.382   1.167  0.0585  0.3315 -1.1410
  165MOL0     H22750   5.961   5.213   1.147 -3.8495 -1.6111  0.3565
  165MOL0     H22751   6.055   5.001   1.244 -0.2918 -0.3974 -0.6787
  165MOL0     H22752   6.328   4.804   1.544 -1.3382 -0.9148 -1.9030
  165MOL0     H22753   6.447   4.649   1.701 -0.0141 -2.8906 -1.4723
  165MOL0     H22754   7.253   2.998   2.065 -3.7990 -1.8728 -0.6053
  165MOL0     H22755   7.271   2.953   2.308 -0.3627 -0.0669  2.2139
  165MOL0     H22756   7.042   3.073   2.709  2.5074 -0.0794 -2.4281
  165MOL0     H22757   7.004   3.016   2.940 -0.1239 -1.1529 -0.9626
  165MOL0     H22758   7.108   2.955   3.272 -1.3443 -0.3241  0.8189
  165MOL0     H22759   7.027   3.022   3.143 -1.7282 -0.7944  0.2111
  165MOL0     H22760   6.904   2.831   3.081 -0.4899  2.3323  0.0205
  165MOL0     H22761   6.883   2.867   3.250  1.0225  1.6896 -0.3889
  165MOL0     H22762   6.907   2.609   3.210  0.8572 -0.9854 -0.9195
  165MOL0     H22763   7.073   2.648   3.153  1.3505 -1.5455  1.4078
  165MOL0     H22764   6.953   2.708   3.436 -1.4649  3.1821 -2.7180
  165MOL0     H22765   7.127   2.735   3.373  0.9648 -1.9968  0.4190
  165MOL0     H22766   7.158   2.330   3.443 -0.1558 -1.2554 -3.0190
  165MOL0     H22767   7.363   2.788   2.954  2.7732 -1.7287 -4.8163
  165MOL0     H22768   7.412   2.725   2.645  3.0616 -0.4669 -0.0416
  165MOL0     H22769   7.503   2.883   2.655 -1.1276  1.4247 -0.8550
  165MOL0     H22770   7.511   2.776   2.779  1.9133  2.0687 -1.1733
  166MOL0     O22771   4.930   3.507   2.864  0.3525 -0.4573  0.0752
  166MOL0     C22772   4.879   3.501   2.976  0.3729 -0.3656 -0.4916
  166MOL0     O22773   4.946   3.485   3.093  0.3791 -0.0662 -0.2388
  166MOL0     C22774   5.074   3.425   3.088  1.2884 -0.3272 -0.0588
  166MOL0     C22775   5.166   3.468   3.192  0.5716 -0.5963  0.5313
  166MOL0     C22776   5.293   3.425   3.200 -0.0401 -0.5908 -0.5006
  166MOL0     C22777   5.342   3.332   3.108 -0.8325 -0.4211 -0.1741
  166MOL0     O22778   5.470   3.287   3.106 -0.6674 -0.0625  0.1715
  166MOL0     C22779   5.567   3.317   3.211 -0.2006  0.2484  0.3558
  166MOL0     C22780   5.698   3.247   3.198  0.3104 -0.0261  0.6689
  166MOL0     C22781   5.689   3.102   3.141 -0.1070  0.2521  0.8930
  166MOL0     C22782   5.836   3.053   3.143 -0.4505 -0.6960  0.5627
  166MOL0     C22783   5.869   2.902   3.109 -0.2245  0.5039  1.7023
  166MOL0     C22784   5.805   2.798   3.193  0.4438  0.4607 -0.2019
  166MOL0     C22785   5.876   2.737   3.319  0.3244 -0.4171 -0.6008
  166MOL0     C22786   5.896   2.841   3.435  0.9324 -1.0008  0.2393
  166MOL0     N22787   5.780   2.924   3.475 -0.2435  0.0216 -0.3798
  166MOL0     C22788   5.646   2.895   3.491 -0.4728 -0.2238  0.2809
  166MOL0     C22789   5.598   2.991   3.575 -0.0467 -0.0348 -0.3369
  166MOL0     C22790   5.460   2.981   3.633  0.0464  0.3939  0.3582
  166MOL0     C22791   5.391   2.835   3.635 -0.2471  0.0421 -0.1227
  166MOL0     C22792   5.260   2.845   3.715 -0.1724 -0.5904  0.2622
  166MOL0     C22793   5.170   2.732   3.698 -0.1352 -0.4864 -0.1850
  166MOL0     O22794   5.070   2.738   3.798 -0.2874  0.1900  0.3366
  166MOL0     C22795   5.030   2.624   3.857  0.0237  0.2038  0.2052
  166MOL0     C22796   4.976   2.519   3.780 -0.8480  0.8807  0.5872
  166MOL0     C22797   4.928   2.404   3.839  0.1180  0.0740 -0.2384
  166MOL0     C22798   4.854   2.311   3.743 -0.8141 -0.5495 -0.8985
  166MOL0     C22799   4.918   2.393   3.980  0.4271  0.1113  0.7380
  166MOL0     C22800   4.852   2.280   4.043 -0.1832  0.3676 -0.5356
  166MOL0     O22801   4.820   2.293   4.175  0.3083  0.0544  0.7474
  166MOL0     C22802   4.780   2.181   4.249 -0.1964 -0.0814  0.1205
  166MOL0     C22803   4.659   2.110   4.241  0.0230  1.0163 -0.5492
  166MOL0     C22804   4.637   2.006   4.336  0.1648 -0.9398  0.5184
  166MOL0     C22805   4.733   1.975   4.436 -0.5126 -0.2044  0.1718
  166MOL0     O22806   4.719   1.873   4.526 -0.0783 -0.2797  0.3876
  166MOL0     C22807   4.716   1.740   4.472 -0.6692  0.1804 -0.1193
  166MOL0     C22808   4.767   1.643   4.586  0.5842 -0.0731  0.6890
  166MOL0     C22809   4.653   1.597   4.673 -0.0339 -0.3254  0.7168
  166MOL0     C22810   4.684   1.477   4.758 -1.7039 -0.9821  0.4535
  166MOL0     C22811   4.572   1.441   4.846 -0.0602  0.3768 -0.1759
  166MOL0     C22812   4.588   1.303   4.912 -0.3537  0.4513 -0.3247
  166MOL0     C22813   4.462   1.255   4.986 -0.2946  0.5075  1.1202
  166MOL0     C22814   4.432   1.111   4.959 -0.1931 -0.7846  0.4692
  166MOL0    Cl22815   4.259   1.074   5.013  0.3234 -0.4312  0.4799
  166MOL0     C22816   4.847   2.053   4.434  1.0253 -0.3343  0.8529
  166MOL0     C22817   4.869   2.157   4.352 -0.6715 -1.0099  0.0830
  166MOL0     O22818   4.850   2.175   3.985  0.2549 -0.1722  0.0989
  166MOL0     C22819   4.974   2.502   4.050  0.0797  0.4818  0.1442
  166MOL0     C22820   5.036   2.607   3.993 -0.3450  0.6180  0.8385
  166MOL0     N22821   5.700   3.079   3.607  0.0345  0.5095 -0.8402
  166MOL0     N22822   5.808   3.037   3.539  0.6772  0.9894 -0.1817
  166MOL0     C22823   5.263   3.294   3.007  0.2068 -0.5203 -0.1441
  166MOL0     C22824   5.127   3.335   2.999  0.0630 -0.6755 -0.3111
  166MOL0     C22825   4.723   3.503   2.982  0.2043  0.1110  0.2819
  166MOL0     C22826   4.651   3.610   2.922 -0.0218 -0.7542 -0.1310
  166MOL0     C22827   4.517   3.612   2.928 -0.7400  0.1838  0.8751
  166MOL0     C22828   4.444   3.513   3.002  0.0983 -0.6988  0.0865
  166MOL0     O22829   4.307   3.512   3.017 -0.4701 -0.5343  0.1917
  166MOL0     C22830   4.227   3.611   2.952  0.7710  0.5066 -0.0743
  166MOL0     C22831   4.215   3.607   2.794  0.2741 -0.6978  0.2553
  166MOL0     C22832   4.191   3.747   2.737  0.0247  0.2899  0.8886
  166MOL0     C22833   4.143   3.727   2.585  0.0844 -0.5379  0.1031
  166MOL0     C22834   4.247   3.654   2.503  0.4197 -0.1338 -0.0959
  166MOL0     C22835   4.331   3.615   2.425  0.7814  0.9976 -0.5602
  166MOL0     C22836   4.518   3.423   3.070  0.0760 -0.0070 -0.5945
  166MOL0     C22837   4.657   3.414   3.061  0.1084 -0.2909 -0.3029
  166MOL0     C22838   4.713   3.306   3.149 -0.8870  0.3160 -0.0975
  166MOL0     H22839   5.128   3.542   3.262 -1.4469  2.2348 -3.1736
  166MOL0     H22840   5.341   3.468   3.288 -4.2708 -0.5845  2.0982
  166MOL0     H22841   5.518   3.273   3.298  0.9873 -3.5142 -0.7083
  166MOL0     H22842   5.578   3.425   3.225  0.3461  0.0753  1.2568
  166MOL0     H22843   5.770   3.298   3.134  1.2320 -3.5848 -1.4158
  166MOL0     H22844   5.740   3.246   3.299  2.1631 -2.2281 -0.0458
  166MOL0     H22845   5.625   3.041   3.205 -0.1267 -2.6308 -1.6487
  166MOL0     H22846   5.649   3.101   3.039  2.6570 -0.4890 -0.2834
  166MOL0     H22847   5.892   3.115   3.072  1.9837 -0.9790  2.1263
  166MOL0     H22848   5.877   3.089   3.238 -0.8715  5.2940 -1.1225
  166MOL0     H22849   5.978   2.908   3.121 -0.1286  0.4599  0.9114
  166MOL0     H22850   5.863   2.878   3.003  2.5673 -2.4074  2.0799
  166MOL0     H22851   5.708   2.837   3.226  0.3544  0.1236 -0.0557
  166MOL0     H22852   5.785   2.717   3.123  2.7031 -0.1960 -0.1685
  166MOL0     H22853   5.971   2.687   3.297  0.5333 -0.9822  1.3732
  166MOL0     H22854   5.813   2.658   3.361  1.6229 -0.7684  0.8228
  166MOL0     H22855   5.931   2.791   3.526  0.1734 -0.8006  0.6463
  166MOL0     H22856   5.977   2.909   3.406 -0.4750  1.6813  2.1609
  166MOL0     H22857   5.590   2.807   3.462 -3.8448  1.7800  0.2098
  166MOL0     H22858   5.398   3.047   3.572  1.5095  3.5400  2.0344
  166MOL0     H22859   5.454   3.028   3.731 -0.0916  2.3175 -0.5303
  166MOL0     H22860   5.373   2.798   3.534  1.7179  1.0187 -0.8888
  166MOL0     H22861   5.462   2.756   3.663  0.6602  0.5031 -1.0481
  166MOL0     H22862   5.291   2.863   3.818  4.4019 -2.5871 -0.4989
  166MOL0     H22863   5.220   2.943   3.689 -0.4956 -0.4437  1.2879
  166MOL0     H22864   5.137   2.717   3.595  0.9618 -3.0933 -0.2471
  166MOL0     H22865   5.236   2.650   3.728  1.2060  0.7529  0.3419
  166MOL0     H22866   4.964   2.521   3.672  0.7066  0.6636  0.3846
  166MOL0     H22867   4.748   2.314   3.771 -1.4460  2.6673 -2.9850
  166MOL0     H22868   4.881   2.206   3.749 -1.4450 -0.7425 -1.3083
  166MOL0     H22869   4.887   2.343   3.643  3.1576 -1.0714  0.1234
  166MOL0     H22870   4.580   2.153   4.179  1.0186  1.6518 -1.3997
  166MOL0     H22871   4.544   1.951   4.339  1.7348 -3.8586 -0.4476
  166MOL0     H22872   4.616   1.718   4.433  0.3346  1.0283 -3.5040
  166MOL0     H22873   4.777   1.733   4.381  2.4643  2.0849  1.6695
  166MOL0     H22874   4.827   1.556   4.557 -0.1383  0.0825 -1.4507
  166MOL0     H22875   4.832   1.702   4.651 -0.5694  2.2274 -0.1414
  166MOL0     H22876   4.573   1.556   4.611 -0.3815  0.2977  0.7458
  166MOL0     H22877   4.610   1.674   4.738  0.8999 -1.1874  2.4413
  166MOL0     H22878   4.774   1.503   4.814 -1.1111 -0.5513 -0.6702
  166MOL0     H22879   4.703   1.393   4.691 -1.1148 -1.5844  1.3488
  166MOL0     H22880   4.552   1.512   4.927  1.5264  1.5907 -0.7926
  166MOL0     H22881   4.483   1.439   4.783  0.5582  0.2759 -1.0539
  166MOL0     H22882   4.668   1.299   4.987 -0.6577 -2.8151 -0.0464
  166MOL0     H22883   4.624   1.229   4.841  0.9202  0.3936  0.3382
  166MOL0     H22884   4.384   1.331   4.971  0.3875  1.2811  1.4674
  166MOL0     H22885   4.471   1.258   5.094 -3.1164 -2.8611  1.6523
  166MOL0     H22886   4.507   1.057   5.018 -0.2683 -0.6212  0.7149
  166MOL0     H22887   4.436   1.088   4.852  1.9863 -3.7855  1.0648
  166MOL0     H22888   4.917   2.039   4.515  0.5535  3.7529  2.2264
  166MOL0     H22889   4.962   2.212   4.345 -0.1395 -2.0608 -2.5462
  166MOL0     H22890   4.977   2.502   4.158 -0.0172 -0.6518  0.1588
  166MOL0     H22891   5.089   2.675   4.059  2.7089 -3.4248  3.0084
  166MOL0     H22892   5.289   3.219   2.932 -1.3823 -1.5715  0.3041
  166MOL0     H22893   5.078   3.292   2.912  1.4270 -2.9948 -0.0214
  166MOL0     H22894   4.700   3.683   2.858 -1.5687  1.5963  1.1979
  166MOL0     H22895   4.457   3.674   2.862 -3.5127 -1.2443  1.8459
  166MOL0     H22896   4.123   3.596   2.983  0.1829 -1.1009 -2.5922
  166MOL0     H22897   4.256   3.705   2.998 -0.7068  0.2957  1.3875
  166MOL0     H22898   4.144   3.527   2.772  0.8110 -1.4374  1.1631
  166MOL0     H22899   4.312   3.574   2.756  1.6698 -0.0418  3.0107
  166MOL0     H22900   4.110   3.802   2.787  0.8073  2.0617  0.2954
  166MOL0     H22901   4.276   3.816   2.736 -1.1557  1.9049 -1.7414
  166MOL0     H22902   4.121   3.819   2.531 -2.2527 -1.1861 -0.1885
  166MOL0     H22903   4.045   3.679   2.598  1.7917 -4.7326 -0.8656
  166MOL0     H22904   4.398   3.577   2.350 -0.6466  1.3434 -2.0616
  166MOL0     H22905   4.464   3.355   3.136  2.1615 -0.3368  0.8510
  166MOL0     H22906   4.636   3.240   3.190  0.1470 -1.3199 -0.7064
  166MOL0     H22907   4.794   3.252   3.100 -0.0002  1.5001  0.0096
  166MOL0     H22908   4.758   3.347   3.239 -0.3611 -1.0745  0.2943
  167MOL0     O22909   8.563   8.154   5.264 -0.1599 -0.1278  0.2536
  167MOL0     C22910   8.617   8.230   5.352 -0.6110  0.3017  0.2967
  167MOL0     O22911   8.561   8.271   5.469  1.1947  0.0225 -0.2392
  167MOL0     C22912   8.445   8.213   5.502  0.2114 -0.0974 -0.7034
  167MOL0     C22913   8.432   8.086   5.568 -0.5242 -1.0141 -0.1097
  167MOL0     C22914   8.306   8.039   5.607 -1.3006 -0.2171 -1.0860
  167MOL0     C22915   8.185   8.111   5.584 -1.1732 -0.2067  0.5043
  167MOL0     O22916   8.069   8.071   5.648  0.1135 -0.3968 -0.0769
  167MOL0     C22917   7.938   8.123   5.614 -0.2934 -0.1791  0.1589
  167MOL0     C22918   7.822   8.078   5.699  0.7678  0.3723  0.3462
  167MOL0     C22919   7.798   7.937   5.654 -0.2198  0.3049 -0.0893
  167MOL0     C22920   7.665   7.875   5.682 -0.7492  0.4546  0.0025
  167MOL0     C22921   7.642   7.745   5.605  0.8341 -0.0997  0.1964
  167MOL0     C22922   7.539   7.663   5.669  0.6680  0.5194  0.0924
  167MOL0     C22923   7.492   7.537   5.591 -0.7269  0.0041  0.8790
  167MOL0     C22924   7.379   7.472   5.651  0.2101  0.1169 -0.5283
  167MOL0     N22925   7.256   7.552   5.649  0.3125  0.3296  0.6101
  167MOL0     C22926   7.179   7.565   5.536  0.6061 -0.2923  0.0074
  167MOL0     C22927   7.075   7.639   5.577 -0.0012  0.1394  0.0259
  167MOL0     C22928   6.951   7.672   5.497 -0.7405  0.5002  0.3852
  167MOL0     C22929   6.985   7.760   5.377 -0.9652 -0.1014 -0.4581
  167MOL0     C22930   6.928   7.752   5.241 -0.0320  0.3434 -1.1395
  167MOL0     C22931   6.984   7.624   5.168  0.2432 -0.2232 -0.3167
  167MOL0     O22932   6.941   7.483   5.207 -0.4127  0.1479 -0.5110
  167MOL0     C22933   7.005   7.379   5.146  0.0971 -0.1161 -0.4600
  167MOL0     C22934   7.121   7.385   5.078 -0.2797 -0.0369  0.1729
  167MOL0     C22935   7.207   7.273   5.042 -0.2873 -0.4725  0.7686
  167MOL0     C22936   7.338   7.300   4.978 -0.5068 -0.2584 -0.7589
  167MOL0     C22937   7.150   7.144   5.054  0.8406 -0.1998 -0.0489
  167MOL0     C22938   7.197   7.014   4.998 -0.4943  0.0538 -0.4004
  167MOL0     O22939   7.098   6.917   4.983  0.4130 -0.9062  0.3862
  167MOL0     C22940   7.124   6.785   4.949 -1.1625  0.2080  0.6144
  167MOL0     C22941   7.249   6.733   4.898  0.4487 -0.2744 -0.2344
  167MOL0     C22942   7.251   6.606   4.859 -0.1069  1.8519  1.5915
  167MOL0     C22943   7.148   6.524   4.882 -0.5018  0.0280 -0.0391
  167MOL0     O22944   7.144   6.393   4.849  0.1836 -0.0441  0.2992
  167MOL0     C22945   7.240   6.321   4.925 -0.9467  0.0498 -0.1502
  167MOL0     C22946   7.191   6.166   4.923 -0.4018 -0.5069 -0.0992
  167MOL0     C22947   7.069   6.158   5.018 -0.1183 -0.4993 -0.6916
  167MOL0     C22948   7.088   6.159   5.166 -1.2389  0.2102  0.1573
  167MOL0     C22949   6.968   6.103   5.243  0.5072  0.4576  0.0653
  167MOL0     C22950   6.960   5.955   5.249  0.5970  0.0834  0.5609
  167MOL0     C22951   6.836   5.904   5.318 -0.3098 -0.0948 -0.0183
  167MOL0     C22952   6.851   5.909   5.468  0.2803 -1.2421 -0.4803
  167MOL0    Cl22953   6.691   5.900   5.554  0.3076 -0.0659  0.6028
  167MOL0     C22954   7.038   6.567   4.947 -0.0050  0.2353  0.7290
  167MOL0     C22955   7.021   6.701   4.980 -0.1603  1.0212  1.1955
  167MOL0     O22956   7.316   6.994   4.991 -0.1351 -0.0012  0.0226
  167MOL0     C22957   7.017   7.142   5.103  0.0706 -0.6887 -0.6616
  167MOL0     C22958   6.949   7.251   5.154  0.2590  0.1587  0.8366
  167MOL0     N22959   7.083   7.653   5.719 -0.1305  0.0874  0.1077
  167MOL0     N22960   7.200   7.604   5.761 -0.1604 -0.1212 -0.5731
  167MOL0     C22961   8.203   8.233   5.515  0.1949 -0.2992 -0.0491
  167MOL0     C22962   8.329   8.283   5.478 -0.5554  0.7482  0.3351
  167MOL0     C22963   8.746   8.289   5.336 -0.5873  0.5308 -0.6203
  167MOL0     C22964   8.798   8.373   5.437  0.7745  1.0038 -0.4832
  167MOL0     C22965   8.917   8.434   5.425  0.4420 -0.2320 -0.0374
  167MOL0     C22966   8.990   8.436   5.307  0.0877 -0.4333  0.5744
  167MOL0     O22967   9.101   8.512   5.292  0.2981 -0.8447 -0.0555
  167MOL0     C22968   9.117   8.644   5.354 -0.1933 -0.5262  0.1845
  167MOL0     C22969   9.242   8.693   5.283  0.7457  0.1833 -0.2434
  167MOL0     C22970   9.266   8.839   5.302 -1.1932 -0.2253 -0.1157
  167MOL0     C22971   9.388   8.856   5.401 -0.0224  0.2890 -0.5156
  167MOL0     C22972   9.439   8.999   5.397  0.3712  0.3308  0.7138
  167MOL0     C22973   9.491   9.106   5.387 -0.4572  0.3690  0.2352
  167MOL0     C22974   8.942   8.370   5.200  0.3273  0.1308 -1.2134
  167MOL0     C22975   8.828   8.279   5.216 -0.1675  0.1322 -0.2034
  167MOL0     C22976   8.779   8.210   5.100 -0.7590 -0.3251  0.2146
  167MOL0     H22977   8.526   8.035   5.586 -0.5371 -1.4902 -1.2765
  167MOL0     H22978   8.297   7.947   5.664 -0.0117  0.6767  0.6330
  167MOL0     H22979   7.910   8.097   5.512 -4.9968 -0.6065  1.3230
  167MOL0     H22980   7.952   8.231   5.628 -2.1381  0.8264 -4.1550
  167MOL0     H22981   7.857   8.075   5.803  1.9734  1.0564 -0.0216
  167MOL0     H22982   7.738   8.141   5.668  0.6614 -0.8367 -2.0601
  167MOL0     H22983   7.819   7.924   5.548 -0.9597 -0.4485 -0.1509
  167MOL0     H22984   7.877   7.877   5.701 -0.1242 -0.3030 -1.0078
  167MOL0     H22985   7.660   7.864   5.791 -2.2132  0.4005 -0.0545
  167MOL0     H22986   7.580   7.937   5.653 -0.5898 -1.2238 -4.8083
  167MOL0     H22987   7.737   7.691   5.595  0.5874 -0.3315 -1.1910
  167MOL0     H22988   7.618   7.767   5.500  5.0714  2.3329 -0.5081
  167MOL0     H22989   7.582   7.626   5.763  0.9589  0.4810 -0.0538
  167MOL0     H22990   7.451   7.727   5.683 -0.7862 -1.3787  0.0197
  167MOL0     H22991   7.573   7.464   5.595  1.1627  1.5760 -3.0904
  167MOL0     H22992   7.484   7.559   5.484 -0.3190  1.3995  1.1070
  167MOL0     H22993   7.362   7.372   5.611  0.9308  0.6676 -2.3057
  167MOL0     H22994   7.412   7.458   5.754  2.4351  0.7559 -1.1084
  167MOL0     H22995   7.203   7.529   5.437 -0.2910 -2.0660  0.3794
  167MOL0     H22996   6.880   7.725   5.562 -1.6312  1.0081 -0.9758
  167MOL0     H22997   6.900   7.578   5.473 -0.8774 -0.2283  3.1741
  167MOL0     H22998   6.961   7.860   5.414  3.5673  1.0385 -0.0426
  167MOL0     H22999   7.093   7.767   5.361 -1.1819  0.7739 -1.7326
  167MOL0     H23000   6.819   7.761   5.252  0.0607 -0.2600  0.5981
  167MOL0     H23001   6.957   7.839   5.181 -1.8877  1.2116 -0.8709
  167MOL0     H23002   6.975   7.633   5.060  2.6995 -0.6831 -0.6239
  167MOL0     H23003   7.092   7.636   5.177  0.7424 -2.7365 -1.9480
  167MOL0     H23004   7.165   7.483   5.065  2.1375 -0.4120  3.9689
  167MOL0     H23005   7.331   7.399   4.933  1.3826  0.6837  0.8472
  167MOL0     H23006   7.359   7.221   4.905 -0.6550 -0.7518 -0.2787
  167MOL0     H23007   7.410   7.320   5.059 -0.5828 -0.2459 -0.6951
  167MOL0     H23008   7.339   6.794   4.893  0.0219  0.3507 -0.3528
  167MOL0     H23009   7.343   6.575   4.810 -2.1112  1.0121 -2.0216
  167MOL0     H23010   7.337   6.345   4.880 -1.4741  0.3633 -1.1413
  167MOL0     H23011   7.248   6.354   5.029  2.5586 -1.1250  0.0875
  167MOL0     H23012   7.181   6.127   4.822  2.2637  1.1465 -1.1336
  167MOL0     H23013   7.273   6.108   4.967  0.6033  0.2163 -0.9489
  167MOL0     H23014   7.020   6.062   5.001  1.2665 -1.4935  0.5991
  167MOL0     H23015   6.998   6.235   4.987 -1.6164 -1.4996  0.0964
  167MOL0     H23016   7.118   6.258   5.202 -2.4299  1.0247 -1.0103
  167MOL0     H23017   7.178   6.103   5.195  0.5241  1.4542 -2.4970
  167MOL0     H23018   6.986   6.141   5.344  2.0549 -2.3252  0.9278
  167MOL0     H23019   6.871   6.141   5.209 -0.2203 -1.8962 -0.6393
  167MOL0     H23020   7.049   5.915   5.299 -0.7537 -3.7141  0.2645
  167MOL0     H23021   6.951   5.923   5.145  1.4064  1.2918  0.0928
  167MOL0     H23022   6.830   5.797   5.297  3.7622 -0.2566 -1.1578
  167MOL0     H23023   6.742   5.957   5.300 -1.5164 -2.1084 -0.0083
  167MOL0     H23024   6.891   6.006   5.499 -2.4328  0.3347 -1.5641
  167MOL0     H23025   6.907   5.824   5.509 -0.0896 -0.3974  1.9317
  167MOL0     H23026   6.968   6.487   4.971 -0.9154  1.4345  2.2088
  167MOL0     H23027   6.926   6.734   5.023 -1.3812 -2.4098  1.4166
  167MOL0     H23028   6.967   7.047   5.084 -0.5436  0.0152 -2.8566
  167MOL0     H23029   6.853   7.236   5.203 -0.1399 -0.3145 -0.0719
  167MOL0     H23030   8.119   8.292   5.480  0.2519  2.3379  3.7263
  167MOL0     H23031   8.339   8.380   5.430 -3.3133  1.9058  1.8732
  167MOL0     H23032   8.748   8.381   5.533 -1.1980  0.1700 -1.4014
  167MOL0     H23033   8.943   8.491   5.514 -3.2932 -0.0698  1.1290
  167MOL0     H23034   9.036   8.713   5.329  0.2260 -0.1143 -0.0504
  167MOL0     H23035   9.134   8.647   5.462 -1.3040  0.6116  0.3557
  167MOL0     H23036   9.252   8.672   5.176  1.1525  1.5387 -0.4885
  167MOL0     H23037   9.320   8.631   5.328  1.3030  0.3823 -0.9243
  167MOL0     H23038   9.297   8.874   5.203  3.2144 -1.9368  0.4312
  167MOL0     H23039   9.173   8.886   5.337 -0.6508  1.0651 -0.3459
  167MOL0     H23040   9.479   8.805   5.366  1.0651  3.3044 -2.5401
  167MOL0     H23041   9.353   8.835   5.502 -3.4446  0.6674 -1.4979
  167MOL0     H23042   9.539   9.202   5.385  1.9799 -0.6915  2.6282
  167MOL0     H23043   9.001   8.371   5.109 -1.9314 -0.0686 -2.7464
  167MOL0     H23044   8.849   8.235   5.019  1.8663  0.3367  2.5253
  167MOL0     H23045   8.786   8.101   5.102 -0.3306 -0.4544 -2.8728
  167MOL0     H23046   8.684   8.233   5.052  0.4802  4.6976 -0.4276
  168MOL0     O23047   4.978   9.008   2.510  0.5881  0.0965 -0.0250
  168MOL0     C23048   4.922   8.899   2.539 -0.4464  0.1308 -0.3696
  168MOL0     O23049   4.983   8.786   2.580  0.9257  0.5291  0.2858
  168MOL0     C23050   5.118   8.777   2.582  0.4062 -0.1440 -0.8402
  168MOL0     C23051   5.187   8.736   2.466 -0.7869 -0.1791 -0.6912
  168MOL0     C23052   5.331   8.727   2.461  0.1826  0.6074 -0.6374
  168MOL0     C23053   5.395   8.757   2.580 -0.3180  0.4069  1.1044
  168MOL0     O23054   5.530   8.751   2.592 -0.0315 -0.3973 -0.5549
  168MOL0     C23055   5.612   8.715   2.484  0.0557  0.0037  0.0709
  168MOL0     C23056   5.760   8.722   2.531  0.0175 -0.2522  0.0694
  168MOL0     C23057   5.864   8.751   2.417  0.3974  0.2041  0.3849
  168MOL0     C23058   6.007   8.772   2.472  0.4220  0.6796  0.6032
  168MOL0     C23059   6.112   8.791   2.353  0.0561 -0.1875 -0.4842
  168MOL0     C23060   6.239   8.864   2.402  0.3737 -0.4912  0.1383
  168MOL0     C23061   6.320   8.769   2.487 -1.2537  0.3831 -0.1638
  168MOL0     C23062   6.470   8.822   2.506  0.4076  0.1602 -0.2819
  168MOL0     N23063   6.483   8.967   2.533  0.4299  0.5817  0.0936
  168MOL0     C23064   6.509   9.058   2.440 -1.0278 -0.7041  0.5219
  168MOL0     C23065   6.491   9.177   2.500  0.2280 -0.2021 -0.2459
  168MOL0     C23066   6.503   9.315   2.441  0.4960 -0.0599  0.8327
  168MOL0     C23067   6.650   9.361   2.441 -0.8487 -1.0866 -0.0737
  168MOL0     C23068   6.714   9.374   2.576  0.5219 -1.1320 -0.7709
  168MOL0     C23069   6.799   9.504   2.589 -1.1284 -0.6002  0.1142
  168MOL0     O23070   6.902   9.492   2.488 -0.8803 -0.1309 -0.3214
  168MOL0     C23071   6.991   9.595   2.469  0.6900 -1.1121 -0.2437
  168MOL0     C23072   7.008   9.704   2.558  0.1915  0.1847 -0.2452
  168MOL0     C23073   7.073   9.819   2.521 -0.7223 -0.6762  0.3836
  168MOL0     C23074   7.058   9.919   2.631 -0.5960  0.4477  0.9777
  168MOL0     C23075   7.144   9.829   2.396 -0.0478 -0.6613 -0.1895
  168MOL0     C23076   7.209   9.947   2.344 -0.2304 -0.3408  0.1242
  168MOL0     O23077   7.262   9.952   2.214 -0.2567  0.1058 -0.0599
  168MOL0     C23078   7.355  10.041   2.169  0.8713 -0.9901  1.2179
  168MOL0     C23079   7.372  10.177   2.200  0.3819 -0.3375 -0.4290
  168MOL0     C23080   7.477  10.261   2.155  1.5545 -0.1738  0.2094
  168MOL0     C23081   7.560  10.214   2.057 -0.4206 -0.4172  0.0299
  168MOL0     O23082   7.667  10.289   2.006 -0.0119 -0.0837 -0.4956
  168MOL0     C23083   7.766  10.229   1.929 -0.2606 -0.3416 -0.4430
  168MOL0     C23084   7.874  10.338   1.933  0.0548 -1.1468 -0.7649
  168MOL0     C23085   7.850  10.458   1.822 -0.1218  0.6998 -0.1032
  168MOL0     C23086   7.792  10.591   1.891 -0.2789  0.0229 -0.4028
  168MOL0     C23087   7.904  10.694   1.906  0.1721  1.2370 -0.0787
  168MOL0     C23088   7.931  10.744   1.765  0.4848  0.6765 -0.5459
  168MOL0     C23089   8.025  10.864   1.768  0.9608  0.2658  0.3081
  168MOL0     C23090   8.066  10.900   1.625 -0.5737 -0.6116 -0.0967
  168MOL0    Cl23091   8.209  10.815   1.572 -0.0839  0.2842  0.0719
  168MOL0     C23092   7.539  10.081   2.013  0.1430 -0.1517 -0.2950
  168MOL0     C23093   7.449   9.988   2.076  0.8334 -0.5279  0.0001
  168MOL0     O23094   7.226  10.035   2.429  0.2804 -0.0497 -0.2858
  168MOL0     C23095   7.136   9.716   2.319  0.0529 -1.4669  0.4002
  168MOL0     C23096   7.067   9.597   2.353  0.5207  0.3362  0.1628
  168MOL0     N23097   6.476   9.156   2.634  0.5331 -0.0384  0.0179
  168MOL0     N23098   6.471   9.032   2.655 -0.1502 -0.2172 -0.5574
  168MOL0     C23099   5.326   8.804   2.691 -0.6960 -0.4284  0.2286
  168MOL0     C23100   5.184   8.804   2.700 -0.2246  0.1226  0.2741
  168MOL0     C23101   4.775   8.899   2.540 -1.1171 -0.9180  0.3002
  168MOL0     C23102   4.715   8.794   2.482  0.0820 -0.5656 -0.1568
  168MOL0     C23103   4.576   8.781   2.492  0.1439 -0.4788  0.0561
  168MOL0     C23104   4.500   8.880   2.559 -0.5141 -0.3558  0.6945
  168MOL0     O23105   4.362   8.889   2.569  0.3398  0.2316  0.2064
  168MOL0     C23106   4.292   8.783   2.503  0.3926 -0.6512  0.9175
  168MOL0     C23107   4.146   8.791   2.522  0.4000 -0.0655  0.4069
  168MOL0     C23108   4.091   8.909   2.435  0.1982  1.8677 -0.5991
  168MOL0     C23109   3.941   8.922   2.461 -0.8124 -0.3000 -0.3936
  168MOL0     C23110   3.880   9.055   2.438 -0.7727  0.5894  0.1122
  168MOL0     C23111   3.812   9.150   2.420  0.4676 -0.5237  0.1729
  168MOL0     C23112   4.560   8.980   2.626 -1.6379 -0.3758  0.7227
  168MOL0     C23113   4.705   8.994   2.624 -0.2036 -0.4575  0.2847
  168MOL0     C23114   4.777   9.108   2.692  0.1723 -0.2214 -0.3292
  168MOL0     H23115   5.144   8.723   2.367  2.0041 -0.1004 -1.9861
  168MOL0     H23116   5.383   8.677   2.379 -1.1102 -1.8212 -0.0773
  168MOL0     H23117   5.580   8.782   2.403 -5.3688 -1.4612  0.6218
  168MOL0     H23118   5.591   8.614   2.448 -2.0981 -1.0054  3.7341
  168MOL0     H23119   5.756   8.802   2.605  0.1312  1.1729 -1.4084
  168MOL0     H23120   5.787   8.629   2.581  1.6429  0.2349  0.1791
  168MOL0     H23121   5.864   8.664   2.350 -1.5198 -0.0272  0.6160
  168MOL0     H23122   5.832   8.835   2.354 -2.5340 -0.5399  0.7292
  168MOL0     H23123   6.006   8.849   2.549 -0.7481 -0.4538  1.7755
  168MOL0     H23124   6.039   8.682   2.525  2.4392  1.6268  1.1225
  168MOL0     H23125   6.074   8.861   2.278  0.4704 -0.1300 -0.6444
  168MOL0     H23126   6.137   8.693   2.312 -1.3005 -0.3164 -1.0617
  168MOL0     H23127   6.301   8.896   2.317 -0.3929 -1.6679 -0.9003
  168MOL0     H23128   6.206   8.957   2.448 -1.0354 -0.7019 -0.4057
  168MOL0     H23129   6.325   8.673   2.434  2.4503  0.4290 -0.1602
  168MOL0     H23130   6.284   8.756   2.589  1.5150  2.3052  1.1591
  168MOL0     H23131   6.529   8.783   2.590 -0.8629  0.8990  1.0122
  168MOL0     H23132   6.523   8.799   2.414 -2.8242 -1.4844 -1.8916
  168MOL0     H23133   6.515   9.037   2.334 -1.4872  2.0056 -0.1304
  168MOL0     H23134   6.437   9.384   2.495 -0.2275 -0.4960  0.5137
  168MOL0     H23135   6.467   9.305   2.339  2.3325 -0.8935  0.2260
  168MOL0     H23136   6.708   9.294   2.378  1.3154  1.8019 -1.4110
  168MOL0     H23137   6.669   9.454   2.386 -0.8686 -0.3887  1.0485
  168MOL0     H23138   6.636   9.375   2.653  0.0723 -1.0226 -1.2260
  168MOL0     H23139   6.780   9.290   2.601  1.4610 -0.9108 -2.3704
  168MOL0     H23140   6.736   9.593   2.577 -1.2995 -1.0372 -3.3231
  168MOL0     H23141   6.846   9.517   2.687  0.0377  1.1716 -0.6394
  168MOL0     H23142   6.957   9.711   2.653  0.8950 -0.4581  0.1953
  168MOL0     H23143   7.100  10.018   2.610  2.2190 -1.2571 -2.4343
  168MOL0     H23144   7.107   9.880   2.721  1.3430  1.8722  0.6281
  168MOL0     H23145   6.952   9.933   2.654  0.1192  3.3877  3.1069
  168MOL0     H23146   7.307  10.214   2.280 -0.9338 -2.6351 -0.3388
  168MOL0     H23147   7.491  10.363   2.188  2.1381 -0.4383  0.7947
  168MOL0     H23148   7.812  10.136   1.966  1.6675  0.2676 -1.1864
  168MOL0     H23149   7.730  10.203   1.829 -2.3210 -0.8302  0.3719
  168MOL0     H23150   7.860  10.387   2.030 -0.0153  1.5108 -2.0270
  168MOL0     H23151   7.971  10.288   1.939  0.2234 -0.6993  0.6628
  168MOL0     H23152   7.791  10.417   1.739 -0.0803 -0.4880  0.4222
  168MOL0     H23153   7.942  10.469   1.764  0.4884  0.6640  0.8350
  168MOL0     H23154   7.750  10.577   1.991  3.7712  1.5511  1.7533
  168MOL0     H23155   7.717  10.645   1.834  0.5920 -1.2394 -2.8998
  168MOL0     H23156   7.874  10.775   1.973  4.4557  3.2163 -0.2482
  168MOL0     H23157   7.992  10.646   1.951 -0.9003 -2.4002 -1.5147
  168MOL0     H23158   7.831  10.779   1.738 -0.0242  1.6318  2.2638
  168MOL0     H23159   7.967  10.675   1.688  2.1866 -0.4188  1.1408
  168MOL0     H23160   8.117  10.850   1.826  0.6475  0.9538  0.9851
  168MOL0     H23161   7.971  10.945   1.818  1.3227  0.8420 -0.2246
  168MOL0     H23162   8.102  11.003   1.637  0.5313 -1.2191  2.4410
  168MOL0     H23163   7.985  10.897   1.551 -0.8512 -4.6148  0.1514
  168MOL0     H23164   7.595  10.044   1.928  1.7290  2.3740 -0.4640
  168MOL0     H23165   7.440   9.886   2.043 -0.6107  0.0694 -1.5830
  168MOL0     H23166   7.173   9.723   2.217  3.6484  0.4798  1.6909
  168MOL0     H23167   7.057   9.521   2.277  3.5281 -2.2963  2.1251
  168MOL0     H23168   5.390   8.836   2.772 -3.0657  1.8440  1.3289
  168MOL0     H23169   5.138   8.849   2.787  2.2019 -0.5852  2.0201
  168MOL0     H23170   4.770   8.707   2.447  0.2669 -1.1226  1.4632
  168MOL0     H23171   4.537   8.702   2.428 -1.4536  0.1657  0.1975
  168MOL0     H23172   4.311   8.798   2.396 -0.1480 -1.7893  0.6496
  168MOL0     H23173   4.318   8.680   2.529 -0.6231 -1.1022  0.1864
  168MOL0     H23174   4.113   8.778   2.626 -3.3919 -0.4765 -0.7015
  168MOL0     H23175   4.108   8.702   2.471  0.5512  0.9985 -1.6792
  168MOL0     H23176   4.151   8.997   2.459  2.9898 -0.1923  0.6110
  168MOL0     H23177   4.114   8.892   2.329  0.7289 -1.3258 -0.0785
  168MOL0     H23178   3.925   8.903   2.567 -0.5458  0.9023 -0.1319
  168MOL0     H23179   3.882   8.850   2.402  0.7184  1.9448 -5.2110
  168MOL0     H23180   3.745   9.233   2.406 -0.1906 -0.8885  1.0741
  168MOL0     H23181   4.510   9.049   2.694  0.9136  5.1126 -2.3232
  168MOL0     H23182   4.850   9.070   2.763 -1.4716  0.8158  2.0526
  168MOL0     H23183   4.836   9.171   2.624  2.9898 -1.2727  0.9936
  168MOL0     H23184   4.715   9.185   2.739 -2.0899 -1.7430 -0.6418
  169MOL0     O23185   6.766  10.704   8.071  0.2781  0.5788 -0.4850
  169MOL0     C23186   6.650  10.731   8.101  0.3693  0.8814 -0.3489
  169MOL0     O23187   6.576  10.668   8.199 -0.0498  0.2613  0.2636
  169MOL0     C23188   6.599  10.540   8.242  0.3401  0.1796 -1.0495
  169MOL0     C23189   6.550  10.504   8.368  0.3839 -0.7796 -0.4274
  169MOL0     C23190   6.587  10.395   8.441 -0.6897  1.1567 -0.1277
  169MOL0     C23191   6.662  10.301   8.376 -0.1551 -0.2763  0.7368
  169MOL0     O23192   6.687  10.173   8.428 -0.1930  0.2398 -0.5898
  169MOL0     C23193   6.647  10.133   8.561 -0.4656 -0.3307  0.6120
  169MOL0     C23194   6.671   9.990   8.577 -0.4344 -0.4296 -0.1635
  169MOL0     C23195   6.828   9.967   8.548  0.9968 -0.4339  0.1616
  169MOL0     C23196   6.881   9.825   8.530  0.2950  0.4935  0.2610
  169MOL0     C23197   6.845   9.760   8.396  0.3179 -0.2729 -0.4235
  169MOL0     C23198   6.920   9.636   8.389  0.0813  0.0033 -0.9095
  169MOL0     C23199   6.874   9.556   8.264  0.9763 -0.7784  0.1084
  169MOL0     C23200   6.940   9.422   8.266  0.3901  0.3296 -0.2362
  169MOL0     N23201   7.065   9.418   8.193 -0.0890  0.3249  0.3180
  169MOL0     C23202   7.176   9.503   8.206 -0.8801  0.0652  1.5764
  169MOL0     C23203   7.268   9.438   8.114  0.0966 -0.9524 -0.5291
  169MOL0     C23204   7.399   9.505   8.073 -0.3263 -0.1489 -0.1678
  169MOL0     C23205   7.489   9.415   7.981  0.2079  0.3649  0.0116
  169MOL0     C23206   7.572   9.306   8.047  0.0226  0.6503  0.6257
  169MOL0     C23207   7.689   9.268   7.954  0.0229 -0.9104 -0.4216
  169MOL0     O23208   7.758   9.161   8.016 -0.8775  0.5614 -0.3305
  169MOL0     C23209   7.878   9.115   7.955 -0.1861 -0.7468  0.1641
  169MOL0     C23210   7.959   9.026   8.020 -0.2359  0.2146  0.0200
  169MOL0     C23211   8.086   8.976   7.972  0.7074 -0.7241  0.7212
  169MOL0     C23212   8.174   8.885   8.056  0.8259  0.3115  0.6510
  169MOL0     C23213   8.123   9.021   7.844 -0.3991  0.4696  0.4908
  169MOL0     C23214   8.267   9.014   7.790  0.5613  0.0838  0.4533
  169MOL0     O23215   8.304   9.113   7.700 -0.7413 -0.0299  0.0288
  169MOL0     C23216   8.428   9.096   7.635 -0.2134 -0.2788 -0.5231
  169MOL0     C23217   8.442   9.090   7.502  0.2962  0.4850  0.5993
  169MOL0     C23218   8.566   9.092   7.445 -0.2576  0.0615 -0.1832
  169MOL0     C23219   8.681   9.093   7.531 -0.1976 -0.5514  0.7819
  169MOL0     O23220   8.805   9.103   7.475  0.0627 -0.3867  0.7398
  169MOL0     C23221   8.809   9.087   7.325  0.7123  0.2152  0.1638
  169MOL0     C23222   8.953   9.091   7.288 -0.4768 -0.3536  0.9359
  169MOL0     C23223   8.972   9.018   7.158 -0.6660 -0.3253  0.6582
  169MOL0     C23224   9.091   9.076   7.064  0.2628  0.2100 -0.2269
  169MOL0     C23225   9.068   9.017   6.921  0.4405  0.4505  0.4741
  169MOL0     C23226   9.208   9.022   6.850  0.1362 -0.4435 -0.5779
  169MOL0     C23227   9.294   8.906   6.912  0.8973  0.4683  0.4731
  169MOL0     C23228   9.426   8.896   6.821  0.0313 -0.1410 -0.7157
  169MOL0    Cl23229   9.390   8.832   6.649 -0.0101  0.1347  0.2042
  169MOL0     C23230   8.667   9.103   7.660  0.2910 -0.0911 -0.5511
  169MOL0     C23231   8.543   9.102   7.722 -0.2068  1.1864 -0.0172
  169MOL0     O23232   8.334   8.918   7.823  0.5170 -0.4018  0.1912
  169MOL0     C23233   8.039   9.111   7.774  0.7042 -0.9192 -0.5584
  169MOL0     C23234   7.920   9.165   7.828  0.0678  0.2026  0.1993
  169MOL0     N23235   7.224   9.312   8.073  0.8672  0.3296 -0.1407
  169MOL0     N23236   7.105   9.310   8.117 -0.0337  0.9669 -0.0393
  169MOL0     C23237   6.725  10.323   8.248 -0.2997 -0.3324  0.5897
  169MOL0     C23238   6.689  10.448   8.183  0.1882 -0.4776 -0.1245
  169MOL0     C23239   6.586  10.857   8.071  0.2834  0.3230  0.2855
  169MOL0     C23240   6.448  10.882   8.108  0.1268 -0.9252  0.9095
  169MOL0     C23241   6.395  11.008   8.069 -0.3669  0.1491 -0.1806
  169MOL0     C23242   6.456  11.094   7.992 -0.7511  0.3058 -0.3686
  169MOL0     O23243   6.388  11.212   7.973 -0.1029 -0.0996 -0.1487
  169MOL0     C23244   6.419  11.295   7.854 -0.1946  0.2305 -0.4527
  169MOL0     C23245   6.367  11.221   7.732  0.6557  0.3617  0.6435
  169MOL0     C23246   6.214  11.198   7.731  0.6555  0.0533  0.4811
  169MOL0     C23247   6.170  11.127   7.603 -0.0072 -0.1661 -0.1089
  169MOL0     C23248   6.024  11.099   7.601 -0.6544  0.1215  0.0674
  169MOL0     C23249   5.914  11.046   7.587  0.7417 -0.0084 -0.1680
  169MOL0     C23250   6.583  11.065   7.948 -0.2788 -0.0763 -0.0248
  169MOL0     C23251   6.651  10.949   7.981  0.7440 -0.4551 -0.2907
  169MOL0     C23252   6.781  10.935   7.911 -0.1318  0.5330 -0.4313
  169MOL0     H23253   6.495  10.578   8.426 -3.0830 -3.1891 -0.3203
  169MOL0     H23254   6.547  10.383   8.541 -2.4039  2.4231 -0.6179
  169MOL0     H23255   6.542  10.159   8.578 -0.4442  0.0187  0.2096
  169MOL0     H23256   6.704  10.190   8.635  0.1234  0.3731 -0.3694
  169MOL0     H23257   6.641   9.958   8.678  0.4881  2.5268  1.1657
  169MOL0     H23258   6.607   9.931   8.511 -0.6654 -1.6019  1.0491
  169MOL0     H23259   6.865  10.041   8.477 -0.7913 -0.4919 -0.9002
  169MOL0     H23260   6.868  10.002   8.644 -0.9191 -0.5435  1.0541
  169MOL0     H23261   6.990   9.816   8.541  0.1894 -0.7422  0.4105
  169MOL0     H23262   6.835   9.764   8.608 -1.0289 -0.3844 -1.1286
  169MOL0     H23263   6.880   9.834   8.324  0.0706  1.8089  1.4838
  169MOL0     H23264   6.738   9.742   8.382  0.6544 -1.2130 -1.9652
  169MOL0     H23265   7.029   9.648   8.378  0.0824 -0.1797 -1.0902
  169MOL0     H23266   6.885   9.581   8.476  2.8105  0.8245  0.8466
  169MOL0     H23267   6.899   9.604   8.169  2.4804  1.1578  1.3910
  169MOL0     H23268   6.765   9.548   8.266  0.8717  0.5504  2.1255
  169MOL0     H23269   6.946   9.388   8.370  0.1182  0.2104 -0.2597
  169MOL0     H23270   6.864   9.357   8.222 -1.0444  1.3807  0.6118
  169MOL0     H23271   7.194   9.596   8.259 -1.9317  0.4786  1.2260
  169MOL0     H23272   7.463   9.535   8.157 -0.7162 -0.9856  0.4383
  169MOL0     H23273   7.377   9.590   8.008  1.3924 -0.1869 -0.8461
  169MOL0     H23274   7.418   9.376   7.907  1.3722 -1.6472 -0.1287
  169MOL0     H23275   7.557   9.472   7.917 -0.6448 -0.1730 -1.4144
  169MOL0     H23276   7.598   9.337   8.148  0.8849 -2.7186  1.5706
  169MOL0     H23277   7.511   9.217   8.064 -0.2709  0.5913 -0.6201
  169MOL0     H23278   7.649   9.247   7.854  2.6022  0.8185 -1.9259
  169MOL0     H23279   7.764   9.346   7.943 -0.8289  0.2196  1.2941
  169MOL0     H23280   7.925   8.985   8.115 -1.4570 -1.7107 -1.1816
  169MOL0     H23281   8.141   8.891   8.160  3.6843 -1.2698  1.7538
  169MOL0     H23282   8.275   8.926   8.068  0.3027  1.0930  2.7054
  169MOL0     H23283   8.171   8.783   8.016 -1.2488  0.2101  0.9757
  169MOL0     H23284   8.350   9.086   7.444 -0.6142 -3.3071  1.9883
  169MOL0     H23285   8.564   9.091   7.336 -1.6054 -2.7971 -0.2437
  169MOL0     H23286   8.773   8.987   7.297 -0.2847 -0.2232  2.7887
  169MOL0     H23287   8.762   9.175   7.281  0.2142  0.6923  1.6188
  169MOL0     H23288   8.986   9.196   7.292 -1.8790  0.0978  1.3821
  169MOL0     H23289   9.014   9.033   7.359 -2.9869 -3.2826  0.8918
  169MOL0     H23290   8.887   9.035   7.092  1.3519  1.4427 -1.6659
  169MOL0     H23291   8.982   8.910   7.168 -0.4448 -0.2216  1.7713
  169MOL0     H23292   9.190   9.051   7.103 -0.7167 -0.7324  1.8114
  169MOL0     H23293   9.081   9.185   7.063 -1.9607  0.0495 -1.7989
  169MOL0     H23294   9.024   8.917   6.923 -0.2489  0.6767 -1.2183
  169MOL0     H23295   8.999   9.080   6.863  1.5870 -0.4022 -1.9569
  169MOL0     H23296   9.265   9.116   6.850 -1.3593  0.7147 -5.0117
  169MOL0     H23297   9.200   9.009   6.742 -0.4264 -0.0503 -0.5878
  169MOL0     H23298   9.243   8.809   6.916  3.2043 -0.7759  1.5553
  169MOL0     H23299   9.320   8.937   7.013 -0.5878  0.9398  0.7370
  169MOL0     H23300   9.493   8.826   6.871  0.5807  1.2659  0.5920
  169MOL0     H23301   9.475   8.994   6.817  0.7006 -0.3850  0.7335
  169MOL0     H23302   8.756   9.113   7.721 -0.9261  2.0530  1.0310
  169MOL0     H23303   8.539   9.111   7.830 -2.0168  2.8317 -0.1602
  169MOL0     H23304   8.072   9.159   7.683 -0.0319 -0.8364 -0.7906
  169MOL0     H23305   7.849   9.227   7.776 -3.8731 -2.5816  1.7367
  169MOL0     H23306   6.795  10.255   8.200  2.1045  0.8438  2.2184
  169MOL0     H23307   6.751  10.465   8.095  0.3141 -4.5107 -1.0093
  169MOL0     H23308   6.384  10.807   8.154  0.5044 -3.8415 -2.8180
  169MOL0     H23309   6.289  11.017   8.094 -0.4406 -1.2119  0.0807
  169MOL0     H23310   6.372  11.394   7.856  0.6981  0.7395 -2.1189
  169MOL0     H23311   6.527  11.309   7.848 -0.1019 -0.0294  0.5221
  169MOL0     H23312   6.405  11.118   7.737 -1.1282 -0.3632  0.0377
  169MOL0     H23313   6.394  11.268   7.637 -3.1510 -1.0264 -1.3250
  169MOL0     H23314   6.186  11.144   7.822  2.2142  1.1099  1.6305
  169MOL0     H23315   6.169  11.298   7.726 -1.1638 -0.6849  1.0834
  169MOL0     H23316   6.221  11.031   7.598 -2.0917 -1.2836 -1.7080
  169MOL0     H23317   6.209  11.178   7.515  2.5965 -0.5475  0.7562
  169MOL0     H23318   5.822  10.994   7.569  0.1784 -0.2063  2.7568
  169MOL0     H23319   6.638  11.127   7.878  0.8787 -1.8382 -0.7616
  169MOL0     H23320   6.813  11.032   7.872 -2.5676  1.0222 -1.3958
  169MOL0     H23321   6.857  10.907   7.983  1.9751  2.6399 -1.6911
  169MOL0     H23322   6.780  10.855   7.836  3.1083 -1.6947  1.6714
  170MOL0     O23323   9.378   4.427   6.303  0.1929 -0.1571 -0.5866
  170MOL0     C23324   9.336   4.449   6.188 -0.6811  0.7528 -0.0548
  170MOL0     O23325   9.222   4.526   6.153 -0.9163 -0.3755  0.1453
  170MOL0     C23326   9.183   4.618   6.245 -0.1558  0.9952 -0.2846
  170MOL0     C23327   9.183   4.751   6.204  0.7588  0.0344  1.3330
  170MOL0     C23328   9.136   4.850   6.283 -0.4419  0.0003 -0.8726
  170MOL0     C23329   9.076   4.832   6.407  0.2083 -0.7940  0.4945
  170MOL0     O23330   9.041   4.955   6.476 -0.3251  0.2599  0.2672
  170MOL0     C23331   9.038   4.948   6.619 -0.1536 -0.0189 -0.4759
  170MOL0     C23332   8.967   5.070   6.680 -0.4445 -1.1671  0.5837
  170MOL0     C23333   9.010   5.208   6.623 -0.4549 -0.5153 -1.6924
  170MOL0     C23334   8.959   5.332   6.695 -0.4141 -0.0552  0.7033
  170MOL0     C23335   8.968   5.465   6.619  0.1607  0.4507  0.0114
  170MOL0     C23336   8.836   5.479   6.539 -0.1708  0.4202  0.6088
  170MOL0     C23337   8.852   5.563   6.413  0.8143 -0.4038  0.3040
  170MOL0     C23338   8.726   5.588   6.327  0.0047 -0.2312  0.1867
  170MOL0     N23339   8.714   5.498   6.216 -0.1319  0.2584  0.3297
  170MOL0     C23340   8.811   5.425   6.144  0.3100  0.1348  1.0395
  170MOL0     C23341   8.751   5.387   6.029 -0.4084 -1.0921  0.3643
  170MOL0     C23342   8.809   5.312   5.915 -0.0146  0.6763 -0.0112
  170MOL0     C23343   8.943   5.243   5.938 -0.2917 -0.5042 -0.4816
  170MOL0     C23344   9.071   5.331   5.948  0.6978 -0.3572 -0.2983
  170MOL0     C23345   9.159   5.305   5.826 -0.9026  0.0925 -0.1843
  170MOL0     O23346   9.292   5.363   5.844 -0.2013 -0.0474  0.6073
  170MOL0     C23347   9.393   5.322   5.763 -0.5823 -0.7785 -0.2157
  170MOL0     C23348   9.376   5.247   5.650  0.1573 -0.3423  0.3980
  170MOL0     C23349   9.483   5.192   5.574 -0.6676 -0.3704  0.1712
  170MOL0     C23350   9.450   5.118   5.443  0.8579 -0.6723 -0.3110
  170MOL0     C23351   9.616   5.231   5.609 -0.1101 -0.9248 -0.2054
  170MOL0     C23352   9.724   5.204   5.520  0.7216 -0.0390 -0.6778
  170MOL0     O23353   9.830   5.131   5.562 -0.1311 -0.4282  0.0977
  170MOL0     C23354   9.939   5.114   5.479 -0.4844 -0.3467 -0.2148
  170MOL0     C23355  10.059   5.097   5.538 -0.8439  0.0627 -0.3576
  170MOL0     C23356  10.177   5.068   5.460  1.0061 -0.6024 -0.2589
  170MOL0     C23357  10.164   5.060   5.326  0.6651  0.2898 -0.0918
  170MOL0     O23358  10.283   5.052   5.261 -0.1329 -0.0095  0.3298
  170MOL0     C23359  10.271   5.021   5.125 -0.0280  0.2880  0.5302
  170MOL0     C23360  10.413   5.032   5.070  0.6706 -0.6217 -0.3150
  170MOL0     C23361  10.421   4.972   4.924 -0.0986 -0.3579  0.6300
  170MOL0     C23362  10.553   4.991   4.852 -0.4833  0.6230  0.2051
  170MOL0     C23363  10.570   4.891   4.723 -0.2054  0.6825  0.3719
  170MOL0     C23364  10.689   4.924   4.640 -0.4676 -0.1154  0.1705
  170MOL0     C23365  10.697   4.838   4.520 -0.4912 -0.0979  0.8554
  170MOL0     C23366  10.745   4.698   4.545  0.8415  0.0846 -0.0274
  170MOL0    Cl23367  10.906   4.686   4.629  0.3621  0.0702 -0.2034
  170MOL0     C23368  10.040   5.067   5.269 -0.9772  0.0198 -0.6053
  170MOL0     C23369   9.928   5.087   5.346  0.2380 -0.2204  0.3379
  170MOL0     O23370   9.715   5.257   5.412  0.0033  0.1154 -0.2601
  170MOL0     C23371   9.633   5.302   5.724 -0.2081 -0.2207  0.5695
  170MOL0     C23372   9.523   5.346   5.798 -0.1606 -0.9301  0.1235
  170MOL0     N23373   8.625   5.436   6.030 -0.3663 -0.5842 -0.1113
  170MOL0     N23374   8.599   5.492   6.147  0.0588 -0.2263  0.4198
  170MOL0     C23375   9.061   4.691   6.445 -0.0899 -0.7779 -1.1471
  170MOL0     C23376   9.122   4.586   6.365 -0.1221  0.1859  0.4440
  170MOL0     C23377   9.419   4.387   6.083 -0.8670  0.1490  0.5525
  170MOL0     C23378   9.367   4.399   5.948 -0.2050 -1.0531 -0.5025
  170MOL0     C23379   9.442   4.368   5.837  0.0685 -0.1178 -0.6765
  170MOL0     C23380   9.566   4.315   5.849 -0.0014  0.3509 -0.3369
  170MOL0     O23381   9.629   4.298   5.734  0.5749  0.7365  0.3477
  170MOL0     C23382   9.697   4.178   5.720  0.9484  0.3521 -1.4224
  170MOL0     C23383   9.680   4.111   5.587  0.3259  0.2698 -0.8295
  170MOL0     C23384   9.734   4.191   5.475  0.6610  1.0558 -0.5629
  170MOL0     C23385   9.664   4.175   5.339  0.0523 -0.4858 -0.4167
  170MOL0     C23386   9.656   4.037   5.288 -0.6235  0.3252 -0.3476
  170MOL0     C23387   9.653   3.923   5.246 -0.6606  0.0122  0.9583
  170MOL0     C23388   9.625   4.290   5.975  0.0925  0.6398 -0.3930
  170MOL0     C23389   9.546   4.325   6.095 -1.1088  0.9553  0.3803
  170MOL0     C23390   9.621   4.283   6.224 -0.0219 -0.3166  0.9463
  170MOL0     H23391   9.207   4.777   6.101  1.5023 -1.4188  1.1010
  170MOL0     H23392   9.153   4.951   6.247  0.5833  0.3125  0.4102
  170MOL0     H23393   9.141   4.932   6.652 -0.7156 -1.3763  0.7695
  170MOL0     H23394   8.974   4.864   6.649  0.6027 -0.5161 -0.2344
  170MOL0     H23395   8.862   5.062   6.650 -0.6690  0.8742  0.6852
  170MOL0     H23396   8.969   5.080   6.788 -0.2094  1.8478  0.3669
  170MOL0     H23397   9.120   5.213   6.628 -0.4119 -2.0585 -0.3931
  170MOL0     H23398   8.986   5.205   6.516  1.9605 -2.0911 -2.2815
  170MOL0     H23399   8.856   5.323   6.730 -1.6911  5.5400 -0.6896
  170MOL0     H23400   9.031   5.349   6.775  0.7495  2.1512 -0.7160
  170MOL0     H23401   9.049   5.470   6.546  0.6951 -0.4405  0.5315
  170MOL0     H23402   8.988   5.544   6.692  1.5185 -1.1221  1.4259
  170MOL0     H23403   8.817   5.379   6.500 -1.9078  1.2529 -0.8270
  170MOL0     H23404   8.764   5.521   6.610  1.2231  0.1416  2.2523
  170MOL0     H23405   8.940   5.528   6.358  0.8517 -0.8341  0.6369
  170MOL0     H23406   8.870   5.668   6.438  1.4808 -0.0226 -1.5699
  170MOL0     H23407   8.628   5.610   6.372  0.5924  2.5429  0.2547
  170MOL0     H23408   8.745   5.678   6.267 -5.0096 -2.2309 -5.5469
  170MOL0     H23409   8.913   5.408   6.177 -0.1181  2.0762  3.7129
  170MOL0     H23410   8.822   5.379   5.829 -0.7724  1.8308  0.7324
  170MOL0     H23411   8.740   5.230   5.893 -0.3378  1.1923 -1.0271
  170MOL0     H23412   8.940   5.194   6.035 -2.3591 -0.0265 -0.2583
  170MOL0     H23413   8.951   5.155   5.874  0.1974 -0.6324 -0.2480
  170MOL0     H23414   9.049   5.438   5.947  0.3572 -0.4279 -0.8931
  170MOL0     H23415   9.127   5.301   6.038  1.2852  2.3226  0.3278
  170MOL0     H23416   9.170   5.196   5.817  0.4082  0.1041  0.9381
  170MOL0     H23417   9.110   5.345   5.737 -0.5030  0.5787 -0.1858
  170MOL0     H23418   9.277   5.225   5.609  0.5222 -2.6161  0.6361
  170MOL0     H23419   9.377   5.044   5.477  2.3251 -2.1985 -0.3672
  170MOL0     H23420   9.533   5.070   5.390 -0.3647 -1.2625 -1.7638
  170MOL0     H23421   9.399   5.189   5.377 -2.6283 -2.1917  0.5253
  170MOL0     H23422  10.057   5.087   5.646 -1.0627  0.3877 -0.3306
  170MOL0     H23423  10.278   5.050   5.496  0.2888 -0.8063  1.8265
  170MOL0     H23424  10.255   4.913   5.115  0.9078  0.2445 -0.9471
  170MOL0     H23425  10.203   5.088   5.072  1.6952  1.9618  0.3375
  170MOL0     H23426  10.426   5.141   5.069 -0.9576 -0.2917  2.8483
  170MOL0     H23427  10.496   4.994   5.130 -1.6925 -0.8733  3.0975
  170MOL0     H23428  10.343   5.014   4.860  1.6156 -0.1977 -1.4420
  170MOL0     H23429  10.394   4.866   4.932 -2.1541  0.0018 -0.6614
  170MOL0     H23430  10.637   4.984   4.922 -1.6962 -0.3191  1.6115
  170MOL0     H23431  10.554   5.096   4.819  2.1651  0.5582 -0.0984
  170MOL0     H23432  10.574   4.784   4.744 -1.5767  0.9178  2.0622
  170MOL0     H23433  10.476   4.908   4.669  0.0466 -2.2014 -1.1270
  170MOL0     H23434  10.789   4.912   4.683 -0.7584 -2.3198  0.3541
  170MOL0     H23435  10.675   5.028   4.608 -3.1600  0.1548  1.9292
  170MOL0     H23436  10.761   4.880   4.443 -1.3558  1.1250  0.7793
  170MOL0     H23437  10.596   4.835   4.479 -0.8379 -2.7734  1.6999
  170MOL0     H23438  10.739   4.652   4.447 -2.3053  3.2876 -1.5630
  170MOL0     H23439  10.677   4.638   4.606 -0.8976  0.2718 -1.6855
  170MOL0     H23440  10.015   5.054   5.165 -2.2858 -2.3969 -0.0513
  170MOL0     H23441   9.827   5.092   5.306  0.8750  2.1474 -1.1824
  170MOL0     H23442   9.732   5.339   5.749  0.7476 -0.1087 -2.8088
  170MOL0     H23443   9.550   5.417   5.876  0.4185 -1.0403  0.0260
  170MOL0     H23444   9.011   4.668   6.539 -4.9206  1.1181 -2.9269
  170MOL0     H23445   9.128   4.484   6.401 -1.5910  0.6180  2.0873
  170MOL0     H23446   9.277   4.455   5.926  0.3832  0.9808  1.7807
  170MOL0     H23447   9.412   4.395   5.736 -0.4605  0.7291 -0.3054
  170MOL0     H23448   9.804   4.188   5.743  0.1552  2.2509  2.1206
  170MOL0     H23449   9.678   4.110   5.803  0.5707  0.1305 -1.6860
  170MOL0     H23450   9.581   4.068   5.572  0.0717  0.4558  0.2798
  170MOL0     H23451   9.746   4.024   5.578  0.8963  0.8254 -2.5792
  170MOL0     H23452   9.723   4.299   5.490 -3.6341  0.5799  1.0456
  170MOL0     H23453   9.839   4.161   5.465  0.3650  0.1848 -1.1966
  170MOL0     H23454   9.725   4.230   5.267 -1.2611  4.4515  1.8637
  170MOL0     H23455   9.566   4.224   5.341 -1.1354 -2.7243  0.7697
  170MOL0     H23456   9.654   3.818   5.226  2.1767 -0.3073  2.2478
  170MOL0     H23457   9.727   4.255   5.975  0.3198  1.2876 -1.0867
  170MOL0     H23458   9.557   4.213   6.279  0.0820 -0.7788  0.4810
  170MOL0     H23459   9.715   4.228   6.213 -0.8066 -1.7778  1.2483
  170MOL0     H23460   9.644   4.374   6.281 -0.8575 -0.9075  2.2896
  171MOL0     O23461   9.084   1.923  11.106 -0.2937  0.4875 -0.5303
  171MOL0     C23462   8.971   1.920  11.059  0.4572  0.0998  0.4272
  171MOL0     O23463   8.943   1.839  10.950 -0.1260 -0.1582  0.3955
  171MOL0     C23464   9.036   1.758  10.891  0.7099  0.6104  0.0005
  171MOL0     C23465   9.043   1.767  10.755 -0.1356  0.9252  0.5648
  171MOL0     C23466   9.152   1.707  10.689 -1.5393  0.4558  0.1419
  171MOL0     C23467   9.244   1.627  10.755 -0.6389  0.2490 -1.4193
  171MOL0     O23468   9.356   1.581  10.692  0.8398 -0.5976 -0.5534
  171MOL0     C23469   9.479   1.586  10.761 -0.1293  0.5853 -0.0548
  171MOL0     C23470   9.537   1.730  10.790  0.2342  1.1548  0.6266
  171MOL0     C23471   9.691   1.723  10.821 -0.7175  0.6107 -0.0578
  171MOL0     C23472   9.706   1.664  10.961 -0.8280 -0.2364  0.0978
  171MOL0     C23473   9.847   1.649  11.014  0.1397 -0.2261 -1.0361
  171MOL0     C23474   9.838   1.640  11.168 -0.0623  0.8863 -0.3866
  171MOL0     C23475   9.977   1.653  11.235 -0.5067 -0.5040  0.0560
  171MOL0     C23476  10.084   1.557  11.181 -0.0863  0.8830 -0.1545
  171MOL0     N23477  10.040   1.418  11.174 -0.5462 -0.1934 -0.7572
  171MOL0     C23478   9.998   1.331  11.276  0.3392  0.2773  1.4582
  171MOL0     C23479   9.918   1.232  11.214 -0.6919 -0.1205 -0.0487
  171MOL0     C23480   9.852   1.108  11.281  0.6595  0.2382  0.6898
  171MOL0     C23481   9.914   0.977  11.244  0.1843 -0.5296  0.9854
  171MOL0     C23482   9.804   0.872  11.234 -0.2339  0.2050 -0.3118
  171MOL0     C23483   9.875   0.740  11.201 -0.3502  0.1025 -0.1064
  171MOL0     O23484   9.972   0.696  11.297 -0.1936 -0.2582 -0.1870
  171MOL0     C23485   9.931   0.633  11.411 -0.3603 -0.4488 -0.2471
  171MOL0     C23486  10.028   0.585  11.499  0.7634  0.6408 -0.2724
  171MOL0     C23487  10.002   0.521  11.620 -0.2332 -0.1388  0.3490
  171MOL0     C23488  10.130   0.464  11.681 -0.2150  1.3739 -0.0307
  171MOL0     C23489   9.870   0.503  11.667  0.3291  0.5747 -0.5147
  171MOL0     C23490   9.824   0.430  11.788  0.5922 -0.5313  0.0113
  171MOL0     O23491   9.917   0.393  11.880 -0.0195 -0.6791  1.0991
  171MOL0     C23492   9.883   0.294  11.962 -1.0995 -0.3406  0.3544
  171MOL0     C23493   9.944   0.174  11.938  0.3856  0.7585 -0.1123
  171MOL0     C23494   9.918   0.072  12.034  0.4027  0.4381  0.1333
  171MOL0     C23495   9.831   0.093  12.145 -1.3276  0.3576 -0.7601
  171MOL0     O23496   9.811  -0.017  12.236 -0.4263 -0.9139 -0.3928
  171MOL0     C23497   9.673  -0.058  12.246  0.4071  0.3854  0.5384
  171MOL0     C23498   9.678  -0.201  12.281  0.8410 -0.3845  0.1232
  171MOL0     C23499   9.719  -0.233  12.427 -0.4697 -0.4932  0.0835
  171MOL0     C23500   9.698  -0.385  12.451  0.2508 -0.1860 -0.2302
  171MOL0     C23501   9.774  -0.439  12.574 -0.1856 -0.4055 -0.2548
  171MOL0     C23502   9.732  -0.372  12.711  0.6127  0.0122  0.3102
  171MOL0     C23503   9.846  -0.367  12.810  0.7174 -0.1653 -0.1811
  171MOL0     C23504   9.961  -0.278  12.776 -0.0073  0.0074  0.7767
  171MOL0    Cl23505   9.901  -0.115  12.808 -0.2284 -0.2890  0.1277
  171MOL0     C23506   9.772   0.216  12.162  0.5017 -1.0114 -0.0483
  171MOL0     C23507   9.798   0.316  12.071 -0.9082  0.4507 -0.2172
  171MOL0     O23508   9.706   0.405  11.804  0.4055  0.4678 -0.4610
  171MOL0     C23509   9.771   0.558  11.575  0.2327  0.3830 -0.2982
  171MOL0     C23510   9.801   0.622  11.451  0.6853  0.5414  0.7024
  171MOL0     N23511   9.932   1.244  11.075  0.6611 -0.7743  0.0382
  171MOL0     N23512   9.996   1.362  11.056  0.0959  0.2877  0.0455
  171MOL0     C23513   9.213   1.601  10.891  0.4926  0.6790  0.0439
  171MOL0     C23514   9.120   1.672  10.965  0.3206  0.3464  0.0803
  171MOL0     C23515   8.852   1.984  11.120  0.1466 -0.0718 -0.4726
  171MOL0     C23516   8.737   1.998  11.045  0.3981  0.7273 -1.0737
  171MOL0     C23517   8.618   2.055  11.101  0.6509 -0.2365  0.8747
  171MOL0     C23518   8.604   2.090  11.235 -0.5479 -0.8002  1.5631
  171MOL0     O23519   8.483   2.128  11.294 -0.8197  0.1067  0.8474
  171MOL0     C23520   8.357   2.079  11.241  0.7428 -1.2448 -0.5900
  171MOL0     C23521   8.266   2.123  11.357 -0.4789  0.3448 -0.3017
  171MOL0     C23522   8.123   2.135  11.313 -0.3080  0.3020  0.9454
  171MOL0     C23523   8.028   2.173  11.429 -0.3416 -0.0514  0.6221
  171MOL0     C23524   7.887   2.151  11.386 -0.0631 -0.3709  0.4673
  171MOL0     C23525   7.764   2.143  11.358 -0.0602 -0.8677  0.6237
  171MOL0     C23526   8.718   2.074  11.314 -0.0850  0.3230  1.0401
  171MOL0     C23527   8.840   2.022  11.256 -0.0743 -0.5006  0.3131
  171MOL0     C23528   8.948   2.013  11.358 -1.3295  0.4182  0.4090
  171MOL0     H23529   8.986   1.832  10.689 -0.3070 -0.2228 -0.4581
  171MOL0     H23530   9.153   1.717  10.581 -0.4831 -1.4190 -0.0553
  171MOL0     H23531   9.549   1.532  10.697  1.3846  1.2116  1.0280
  171MOL0     H23532   9.474   1.526  10.852 -1.7539 -2.0934 -1.7492
  171MOL0     H23533   9.513   1.800  10.709  0.2646  0.9095  0.4036
  171MOL0     H23534   9.479   1.767  10.875 -1.1296 -2.2947  1.3390
  171MOL0     H23535   9.742   1.673  10.738  0.4937  1.9179 -0.1359
  171MOL0     H23536   9.723   1.827  10.818  3.4616 -0.4641  1.3101
  171MOL0     H23537   9.644   1.717  11.034 -0.6660 -1.6422  1.3087
  171MOL0     H23538   9.660   1.565  10.953  0.0916 -0.5840 -1.3404
  171MOL0     H23539   9.910   1.734  10.989 -2.2078  2.0214  0.1855
  171MOL0     H23540   9.881   1.557  10.966 -2.2968 -0.7789 -1.8518
  171MOL0     H23541   9.784   1.728  11.203 -1.4496  0.5951 -1.6451
  171MOL0     H23542   9.785   1.550  11.202 -3.1741  2.6440 -0.2205
  171MOL0     H23543   9.960   1.633  11.341  3.4984  1.9912  1.3898
  171MOL0     H23544  10.000   1.760  11.238 -4.3903  0.5328 -0.7413
  171MOL0     H23545  10.108   1.593  11.080  1.6112  1.6705  0.5015
  171MOL0     H23546  10.174   1.556  11.242 -0.9660  1.8678  1.2343
  171MOL0     H23547  10.026   1.326  11.380 -1.1029  2.0189  1.9863
  171MOL0     H23548   9.754   1.109  11.233  1.0372  1.3244 -0.1100
  171MOL0     H23549   9.821   1.119  11.386 -3.9976 -2.9813 -0.0506
  171MOL0     H23550   9.966   0.994  11.149  1.8410  1.8761  2.2089
  171MOL0     H23551   9.988   0.949  11.319  1.2487  1.9701  0.9620
  171MOL0     H23552   9.762   0.857  11.334  3.3344 -0.6077  1.2176
  171MOL0     H23553   9.724   0.907  11.168 -1.0271  0.9035  0.9882
  171MOL0     H23554   9.795   0.667  11.190 -1.2168  1.1317 -0.8430
  171MOL0     H23555   9.920   0.753  11.102 -0.3522  1.6609  0.0783
  171MOL0     H23556  10.132   0.610  11.479  1.7792  2.0303  5.2101
  171MOL0     H23557  10.197   0.543  11.716  1.7229  0.0352 -0.6215
  171MOL0     H23558  10.189   0.412  11.605  3.2688  1.6150  2.2988
  171MOL0     H23559  10.101   0.402  11.766 -1.9226 -0.0501 -1.5326
  171MOL0     H23560  10.001   0.154  11.848 -0.0400 -1.8558  0.1229
  171MOL0     H23561   9.961  -0.026  12.017  0.0027  0.3075 -0.1318
  171MOL0     H23562   9.619   0.004  12.318 -1.8360  0.7575 -1.3168
  171MOL0     H23563   9.625  -0.046  12.148 -1.2342  1.6389  1.4375
  171MOL0     H23564   9.579  -0.245  12.264  0.2899  1.1740 -0.9577
  171MOL0     H23565   9.752  -0.239  12.210  0.1098  0.0545 -0.9092
  171MOL0     H23566   9.668  -0.177  12.506  0.8019  1.2239 -0.2500
  171MOL0     H23567   9.821  -0.203  12.453 -1.1601  1.4479  0.7392
  171MOL0     H23568   9.729  -0.449  12.369 -1.1854 -0.7669 -0.3399
  171MOL0     H23569   9.591  -0.405  12.453  0.6967 -3.8137 -3.0107
  171MOL0     H23570   9.754  -0.547  12.572 -1.7023 -0.2331  1.8536
  171MOL0     H23571   9.879  -0.415  12.556 -0.6309  2.9292  1.0573
  171MOL0     H23572   9.654  -0.438  12.750  0.1284 -0.6013 -1.5925
  171MOL0     H23573   9.690  -0.273  12.694  1.2173 -0.0632 -2.0202
  171MOL0     H23574   9.896  -0.465  12.814  2.3153  0.6425  1.1783
  171MOL0     H23575   9.804  -0.341  12.908  0.6229  0.2594 -0.3318
  171MOL0     H23576   9.998  -0.282  12.673 -3.4009 -2.4075 -0.5244
  171MOL0     H23577  10.047  -0.299  12.841  3.1758  1.7810 -2.4786
  171MOL0     H23578   9.708   0.243  12.246  1.0383  1.9349 -0.4855
  171MOL0     H23579   9.754   0.414  12.086  0.9609  0.9477  3.0085
  171MOL0     H23580   9.667   0.539  11.600 -0.3871  1.4793 -1.8235
  171MOL0     H23581   9.717   0.652  11.389  0.5697 -0.0689  0.5517
  171MOL0     H23582   9.258   1.518  10.945 -3.1204 -0.9002  0.9126
  171MOL0     H23583   9.099   1.664  11.072 -2.4788  0.4982 -0.3817
  171MOL0     H23584   8.737   1.951  10.947  1.8954  0.4270 -0.9441
  171MOL0     H23585   8.534   2.066  11.033  1.5688 -0.4617 -0.3445
  171MOL0     H23586   8.332   2.136  11.151  0.5872  2.6852  1.7191
  171MOL0     H23587   8.359   1.971  11.224  0.1935 -1.2431 -0.6731
  171MOL0     H23588   8.304   2.220  11.391 -0.3729 -0.0511  0.7350
  171MOL0     H23589   8.284   2.052  11.438 -0.5646 -0.3215 -0.8573
  171MOL0     H23590   8.127   2.200  11.225  3.0620 -0.5619  0.3219
  171MOL0     H23591   8.100   2.040  11.265  2.8190  0.8861 -2.1618
  171MOL0     H23592   8.044   2.276  11.462 -1.2807  0.1676  0.4181
  171MOL0     H23593   8.051   2.111  11.516  1.4645  0.2738  0.4117
  171MOL0     H23594   7.662   2.135  11.326 -0.1622  1.6379  0.1395
  171MOL0     H23595   8.719   2.095  11.420 -2.3651 -2.8050  1.8381
  171MOL0     H23596   9.010   1.925  11.336 -2.0968  0.0378 -0.2698
  171MOL0     H23597   9.011   2.100  11.379  1.0040 -0.8837 -0.7670
  171MOL0     H23598   8.903   1.990  11.454 -1.7032 -0.0288  0.1277
  172MOL0     O23599   0.166   1.339   0.914 -0.1319 -0.8145 -0.0315
  172MOL0     C23600   0.056   1.382   0.946 -0.5958 -0.2894 -0.6919
  172MOL0     O23601   0.003   1.366   1.073 -0.0834 -0.6182 -0.2697
  172MOL0     C23602   0.069   1.303   1.172 -0.0136 -0.7374 -0.1415
  172MOL0     C23603   0.104   1.383   1.284  0.9384  0.8178  0.3520
  172MOL0     C23604   0.187   1.335   1.382 -0.1426  0.3062  0.2488
  172MOL0     C23605   0.226   1.197   1.382  0.0497  0.0265 -0.3730
  172MOL0     O23606   0.302   1.166   1.488 -0.9365  0.4166  1.0194
  172MOL0     C23607   0.376   1.040   1.483  0.8125  0.7040 -0.0143
  172MOL0     C23608   0.476   1.012   1.587 -0.1181  0.0123 -0.2770
  172MOL0     C23609   0.620   1.050   1.536 -0.0074 -0.7602 -0.1557
  172MOL0     C23610   0.653   1.186   1.472 -0.2481 -0.9000  0.2862
  172MOL0     C23611   0.802   1.194   1.422  0.2292  0.3880  0.2205
  172MOL0     C23612   0.819   1.146   1.280  0.0792 -0.2447  0.0034
  172MOL0     C23613   0.962   1.141   1.229  0.5313 -0.1785  0.4113
  172MOL0     C23614   1.056   1.049   1.312  0.7867  0.2178 -0.5277
  172MOL0     N23615   0.995   0.913   1.345  0.8359  0.4270 -0.4443
  172MOL0     C23616   0.935   0.818   1.260  1.1399  0.5785  0.7249
  172MOL0     C23617   0.885   0.712   1.332 -0.1890 -1.3287 -0.4547
  172MOL0     C23618   0.815   0.599   1.285 -0.1446  0.0749  0.4002
  172MOL0     C23619   0.670   0.588   1.329 -0.1583 -0.0902 -0.0762
  172MOL0     C23620   0.608   0.448   1.306 -0.7281 -0.5169  0.4247
  172MOL0     C23621   0.464   0.455   1.374  0.7814 -0.7913 -0.4600
  172MOL0     O23622   0.387   0.546   1.295 -0.2518  0.0768  1.0067
  172MOL0     C23623   0.269   0.595   1.329 -1.0321  0.3268  0.1664
  172MOL0     C23624   0.191   0.574   1.438 -0.3172 -0.3664 -0.2388
  172MOL0     C23625   0.081   0.655   1.465  0.6977  0.5140  1.2263
  172MOL0     C23626   0.004   0.613   1.587 -1.5642 -0.2459  0.8771
  172MOL0     C23627   0.034   0.755   1.374  1.1562  0.3463 -0.0965
  172MOL0     C23628  -0.086   0.846   1.374 -0.2183  0.4883  0.7551
  172MOL0     O23629  -0.124   0.896   1.496  0.1092  0.2346 -0.1332
  172MOL0     C23630  -0.205   1.011   1.494  0.3124 -0.8449 -0.2054
  172MOL0     C23631  -0.201   1.121   1.404  0.7707 -0.1392 -0.0412
  172MOL0     C23632  -0.276   1.235   1.427  0.1761 -0.8556 -0.7259
  172MOL0     C23633  -0.353   1.254   1.546  0.3523 -0.5260  0.9563
  172MOL0     O23634  -0.424   1.370   1.575  0.4873 -0.4584 -0.4793
  172MOL0     C23635  -0.425   1.412   1.716  0.3212  0.6351  0.2079
  172MOL0     C23636  -0.454   1.560   1.726 -0.2163  0.3630 -0.4814
  172MOL0     C23637  -0.442   1.596   1.871  0.0287 -0.2297 -0.4083
  172MOL0     C23638  -0.504   1.739   1.910 -0.3341  0.5370 -0.2068
  172MOL0     C23639  -0.431   1.861   1.862 -0.2299 -0.0696  0.7150
  172MOL0     C23640  -0.353   1.930   1.970  0.2940  0.9240 -0.6115
  172MOL0     C23641  -0.442   2.019   2.052  0.0795  0.2422 -0.5307
  172MOL0     C23642  -0.483   2.158   2.000  0.1773  1.2174 -0.2037
  172MOL0    Cl23643  -0.342   2.258   1.990 -0.1088  0.6212 -0.2568
  172MOL0     C23644  -0.371   1.142   1.621  0.2235 -0.3525 -0.3778
  172MOL0     C23645  -0.305   1.025   1.599  0.0970 -0.8181 -0.4094
  172MOL0     O23646  -0.155   0.860   1.273  0.5116 -0.1337 -0.0851
  172MOL0     C23647   0.102   0.752   1.247 -0.0544 -0.0557  0.1454
  172MOL0     C23648   0.225   0.681   1.226 -0.0445  0.4354 -0.6893
  172MOL0     N23649   0.910   0.751   1.469 -0.2816  0.0474  1.1513
  172MOL0     N23650   0.964   0.868   1.474 -0.5897  0.9839  0.0478
  172MOL0     C23651   0.178   1.112   1.275 -0.0394  0.1458 -0.1133
  172MOL0     C23652   0.100   1.172   1.173  0.2979 -0.1702 -0.4158
  172MOL0     C23653  -0.016   1.478   0.863  0.2013  1.9707  0.3569
  172MOL0     C23654  -0.146   1.516   0.897  0.2182 -0.5799  0.4864
  172MOL0     C23655  -0.223   1.599   0.815  0.0442 -0.2502  0.9017
  172MOL0     C23656  -0.176   1.650   0.692 -0.5904 -0.1366 -0.1999
  172MOL0     O23657  -0.253   1.714   0.601 -0.1100  0.0773 -0.6426
  172MOL0     C23658  -0.396   1.733   0.613 -0.1681  0.4019  0.2870
  172MOL0     C23659  -0.448   1.838   0.513  0.7500 -0.8056  0.6381
  172MOL0     C23660  -0.387   1.973   0.505 -0.2336 -1.1025  0.3977
  172MOL0     C23661  -0.482   2.088   0.482 -0.1778  0.5321 -0.2672
  172MOL0     C23662  -0.543   2.109   0.608 -0.4617 -0.8148  0.0290
  172MOL0     C23663  -0.595   2.144   0.712  0.1555  0.3619  0.5438
  172MOL0     C23664  -0.045   1.607   0.657  0.8302 -0.5529  0.0250
  172MOL0     C23665   0.036   1.530   0.740  0.7255  0.8062  0.6509
  172MOL0     C23666   0.178   1.516   0.694 -0.8681  0.9878  0.6874
  172MOL0     H23667   0.053   1.479   1.289  0.0336  0.4396 -1.0018
  172MOL0     H23668   0.198   1.409   1.460  0.8688 -0.6983  1.0821
  172MOL0     H23669   0.423   1.045   1.384 -3.4017 -2.5180 -2.5156
  172MOL0     H23670   0.301   0.961   1.490  1.7396 -0.0536  2.3296
  172MOL0     H23671   0.457   1.063   1.682  2.5097  2.3744 -0.8889
  172MOL0     H23672   0.477   0.904   1.603  2.3127  0.2837  2.3120
  172MOL0     H23673   0.706   1.024   1.598  1.8972 -2.1680 -3.1660
  172MOL0     H23674   0.636   0.972   1.461  2.6728 -1.1837  0.7712
  172MOL0     H23675   0.582   1.202   1.391 -1.0697 -0.8933  1.0013
  172MOL0     H23676   0.644   1.274   1.535 -0.8467  3.4866 -5.1538
  172MOL0     H23677   0.865   1.140   1.492 -0.3603  1.8872  1.9770
  172MOL0     H23678   0.846   1.293   1.432  1.4036  0.2388 -2.5310
  172MOL0     H23679   0.785   1.042   1.273  1.0736 -0.4982 -1.3241
  172MOL0     H23680   0.761   1.210   1.214 -0.1395 -0.3775  0.0670
  172MOL0     H23681   1.006   1.240   1.234 -0.0082  0.0355  1.1308
  172MOL0     H23682   0.955   1.101   1.127 -2.8473  2.3441 -0.5110
  172MOL0     H23683   1.153   1.038   1.262  2.5684  1.2209  2.4459
  172MOL0     H23684   1.086   1.101   1.404  2.0280 -2.5150  0.7193
  172MOL0     H23685   0.936   0.817   1.151 -0.5299 -3.0558  0.5981
  172MOL0     H23686   0.874   0.518   1.328  4.2521  2.3421 -0.8530
  172MOL0     H23687   0.816   0.582   1.177  1.1585 -1.3094  0.5955
  172MOL0     H23688   0.664   0.614   1.435  0.0137 -0.2260 -0.0316
  172MOL0     H23689   0.627   0.662   1.262 -0.0583  0.6485  0.6589
  172MOL0     H23690   0.595   0.417   1.202 -1.4572  1.4565 -0.1248
  172MOL0     H23691   0.671   0.382   1.365  1.0186  2.0868  1.6559
  172MOL0     H23692   0.413   0.358   1.368 -0.9583 -0.0225  1.0023
  172MOL0     H23693   0.466   0.481   1.481 -5.0357  1.1180 -0.4853
  172MOL0     H23694   0.227   0.503   1.512  0.4432 -0.2571 -0.4927
  172MOL0     H23695   0.042   0.518   1.626  0.6023  1.0644  2.1774
  172MOL0     H23696  -0.101   0.616   1.558 -0.6122 -0.5483 -3.1258
  172MOL0     H23697   0.023   0.687   1.666  0.1170  0.4124 -0.0824
  172MOL0     H23698  -0.128   1.124   1.324  0.3282  0.9698 -0.4238
  172MOL0     H23699  -0.278   1.330   1.375 -4.7091 -0.1919  0.1674
  172MOL0     H23700  -0.504   1.356   1.765  0.9217  0.0474  0.5267
  172MOL0     H23701  -0.328   1.388   1.761 -0.2186 -1.9290  0.1590
  172MOL0     H23702  -0.372   1.616   1.680  2.9066 -2.4066  1.2496
  172MOL0     H23703  -0.549   1.583   1.677 -0.6226 -2.0887 -0.9953
  172MOL0     H23704  -0.335   1.618   1.873 -0.6897  4.2149 -0.6211
  172MOL0     H23705  -0.479   1.510   1.927 -0.7834  0.7479  0.5981
  172MOL0     H23706  -0.509   1.757   2.018 -0.7279  1.3421 -0.3542
  172MOL0     H23707  -0.605   1.737   1.868 -0.0680 -0.8572 -0.8534
  172MOL0     H23708  -0.373   1.825   1.776  2.2324  1.2925  1.7305
  172MOL0     H23709  -0.509   1.926   1.820 -0.6492 -0.6305  0.6104
  172MOL0     H23710  -0.267   1.981   1.925  1.0958 -1.4419 -1.9249
  172MOL0     H23711  -0.315   1.849   2.033  1.9849  3.1819  1.4745
  172MOL0     H23712  -0.384   2.041   2.142  1.2544 -0.0473 -1.1861
  172MOL0     H23713  -0.534   1.965   2.076  0.2096  1.5911  3.9204
  172MOL0     H23714  -0.555   2.208   2.066  0.2047 -0.0370  0.8240
  172MOL0     H23715  -0.526   2.148   1.900  1.9402  1.3352 -1.0104
  172MOL0     H23716  -0.436   1.147   1.708 -1.8316 -0.6036 -1.8317
  172MOL0     H23717  -0.331   0.944   1.666 -0.5863 -1.9115 -1.9441
  172MOL0     H23718   0.065   0.823   1.174 -2.0126  1.1372  2.1451
  172MOL0     H23719   0.272   0.698   1.129 -1.6005  0.1507 -1.5219
  172MOL0     H23720   0.203   1.007   1.277 -1.9635 -0.3673  2.0579
  172MOL0     H23721   0.072   1.122   1.081  1.0269 -3.1761  0.8665
  172MOL0     H23722  -0.198   1.480   0.985  0.2025  1.1639  1.2349
  172MOL0     H23723  -0.317   1.636   0.855  0.0892  2.7277 -1.3350
  172MOL0     H23724  -0.450   1.639   0.599 -1.1922  0.2548  3.9949
  172MOL0     H23725  -0.409   1.762   0.718 -1.9174  0.3333  0.1279
  172MOL0     H23726  -0.555   1.836   0.537  0.7409 -0.3815  0.6264
  172MOL0     H23727  -0.450   1.799   0.411  3.1274 -2.0657  1.0047
  172MOL0     H23728  -0.328   1.987   0.596 -0.8302 -2.1469  0.9554
  172MOL0     H23729  -0.313   1.969   0.425 -0.5797 -2.5353  0.1271
  172MOL0     H23730  -0.552   2.071   0.399  2.5891  0.3886 -2.7544
  172MOL0     H23731  -0.419   2.161   0.432 -1.7409  0.1878 -2.9514
  172MOL0     H23732  -0.638   2.153   0.810  2.1706  0.1505  1.4894
  172MOL0     H23733  -0.010   1.619   0.554 -2.3801 -0.4259 -1.1571
  172MOL0     H23734   0.190   1.521   0.585  0.4710 -3.1514  0.4638
  172MOL0     H23735   0.239   1.593   0.742 -0.5014  1.4157 -0.4155
  172MOL0     H23736   0.230   1.419   0.696  2.2144  2.5216  0.6738
  173MOL0     O23737   4.040   2.458   8.702  0.0893 -0.0446  0.4812
  173MOL0     C23738   4.112   2.459   8.595 -0.3454  0.6925 -0.4305
  173MOL0     O23739   4.205   2.356   8.556  0.1089  0.4746  0.8540
  173MOL0     C23740   4.203   2.239   8.627  0.9729  0.1735 -0.6604
  173MOL0     C23741   4.114   2.125   8.618 -0.5442  0.0782 -0.6823
  173MOL0     C23742   4.137   2.014   8.701  0.9157  0.1743 -0.2220
  173MOL0     C23743   4.236   2.012   8.804 -0.0672 -0.6311 -0.5450
  173MOL0     O23744   4.248   1.914   8.887 -0.0416  0.3238  0.3802
  173MOL0     C23745   4.129   1.813   8.905  0.6479 -2.1350  0.8403
  173MOL0     C23746   4.089   1.801   9.048  0.4873 -0.3517 -0.6797
  173MOL0     C23747   4.044   1.939   9.114 -0.0020 -0.3855 -0.5029
  173MOL0     C23748   4.005   1.938   9.260 -0.1741  0.6363  0.6007
  173MOL0     C23749   4.116   1.963   9.370 -0.8884 -0.6329 -0.5835
  173MOL0     C23750   4.171   2.103   9.379 -1.0783  0.2607  0.4536
  173MOL0     C23751   4.267   2.123   9.503  1.2844  0.6138  0.2911
  173MOL0     C23752   4.375   2.017   9.512 -0.3514 -0.9775 -0.0652
  173MOL0     N23753   4.501   2.061   9.573 -0.0330 -0.0488  0.0382
  173MOL0     C23754   4.584   2.158   9.521 -0.2947 -0.5460  0.2025
  173MOL0     C23755   4.670   2.185   9.633 -2.0428 -0.5045  0.1374
  173MOL0     C23756   4.787   2.278   9.636 -0.3724 -0.4193 -0.4481
  173MOL0     C23757   4.781   2.386   9.527 -0.4427  0.4083 -0.2758
  173MOL0     C23758   4.881   2.505   9.561 -0.7787 -0.3621 -0.0741
  173MOL0     C23759   4.836   2.637   9.479 -0.7713  0.3685  0.2063
  173MOL0     O23760   4.757   2.719   9.569  0.7066  0.5759  0.1804
  173MOL0     C23761   4.719   2.838   9.520 -0.2477 -0.7841 -0.0742
  173MOL0     C23762   4.687   2.878   9.390 -0.1717 -0.3762  0.8099
  173MOL0     C23763   4.664   3.012   9.360 -0.2968  0.0697  0.3007
  173MOL0     C23764   4.646   3.036   9.207 -0.4607  0.1531 -0.0975
  173MOL0     C23765   4.655   3.101   9.470 -0.2706 -0.3649  0.7742
  173MOL0     C23766   4.610   3.243   9.447  1.1642 -0.1021 -0.1239
  173MOL0     O23767   4.507   3.272   9.363 -0.1045  0.4081  0.2448
  173MOL0     C23768   4.508   3.401   9.312  1.4097  0.1080 -0.5656
  173MOL0     C23769   4.565   3.431   9.194 -0.2139  0.9859 -0.5828
  173MOL0     C23770   4.567   3.552   9.125  1.0287  0.6612  1.3067
  173MOL0     C23771   4.509   3.663   9.194 -0.3490  0.8933  0.8146
  173MOL0     O23772   4.501   3.788   9.136  0.1833 -0.6686 -1.0878
  173MOL0     C23773   4.511   3.801   8.996  0.4938 -0.1704 -0.0520
  173MOL0     C23774   4.479   3.943   8.940 -0.7871 -0.8566  0.0375
  173MOL0     C23775   4.585   4.048   8.966 -0.1029 -0.0529  0.0367
  173MOL0     C23776   4.715   4.027   8.874  0.1028  0.6385 -0.1598
  173MOL0     C23777   4.691   4.073   8.734 -0.9453  0.1498 -0.5616
  173MOL0     C23778   4.792   4.041   8.637 -0.4772  1.0533  0.1853
  173MOL0     C23779   4.925   4.113   8.659 -0.3785 -0.3707 -0.3070
  173MOL0     C23780   5.014   4.123   8.537 -0.0855  0.4660  0.6584
  173MOL0    Cl23781   4.951   4.251   8.429  0.1260  0.3348 -0.0272
  173MOL0     C23782   4.449   3.642   9.323 -0.2785  0.1833 -0.3836
  173MOL0     C23783   4.450   3.508   9.377  0.0044 -0.5989  0.1607
  173MOL0     O23784   4.648   3.322   9.529 -0.0484  0.0954 -0.1775
  173MOL0     C23785   4.682   3.054   9.601  0.0238  0.7979 -0.5599
  173MOL0     C23786   4.715   2.928   9.620  0.5345 -0.2700  0.4445
  173MOL0     N23787   4.643   2.095   9.732  0.3371 -0.1337  1.2372
  173MOL0     N23788   4.538   2.032   9.705 -0.0776 -0.6659  0.7199
  173MOL0     C23789   4.312   2.131   8.822  0.0476  0.5524  0.7162
  173MOL0     C23790   4.301   2.232   8.731 -0.4227  0.1355 -0.2203
  173MOL0     C23791   4.108   2.577   8.503 -0.2558  0.0424 -0.8110
  173MOL0     C23792   4.198   2.590   8.395 -0.0100 -0.0050 -0.4283
  173MOL0     C23793   4.227   2.709   8.332  0.4486 -0.4774 -1.1717
  173MOL0     C23794   4.160   2.827   8.373  0.4100 -0.1858  0.7020
  173MOL0     O23795   4.188   2.956   8.325  0.8568 -0.3152 -0.1822
  173MOL0     C23796   4.307   2.971   8.243  0.2325  0.9505 -0.0259
  173MOL0     C23797   4.315   3.106   8.175  0.4556  0.0470  0.1013
  173MOL0     C23798   4.435   3.103   8.088  0.2742  0.7633  0.0956
  173MOL0     C23799   4.446   3.237   8.015 -0.0410  0.3998  0.0358
  173MOL0     C23800   4.407   3.222   7.876  0.4060  0.2904  0.1303
  173MOL0     C23801   4.379   3.189   7.761  0.2165  0.3185 -0.0198
  173MOL0     C23802   4.058   2.811   8.463 -0.5120  0.4487 -0.7539
  173MOL0     C23803   4.037   2.694   8.520  0.7434  0.2270 -0.7342
  173MOL0     C23804   3.919   2.695   8.617  0.2521 -0.3177 -0.1880
  173MOL0     H23805   4.038   2.128   8.542  0.8182  0.0286 -2.0972
  173MOL0     H23806   4.068   1.937   8.668 -1.9528  2.8347 -0.8407
  173MOL0     H23807   4.155   1.719   8.857 -2.5301 -3.3217  1.2233
  173MOL0     H23808   4.036   1.854   8.864  1.5982  1.0289  1.5144
  173MOL0     H23809   3.997   1.743   9.057 -0.8782  1.9362  1.6364
  173MOL0     H23810   4.168   1.753   9.107 -0.3607 -1.4264 -0.3899
  173MOL0     H23811   4.128   2.009   9.102 -0.8599  0.9696  1.0152
  173MOL0     H23812   3.960   1.983   9.059  1.5404  2.3674 -0.8581
  173MOL0     H23813   3.925   2.012   9.273  1.0570  2.0729  0.3227
  173MOL0     H23814   3.962   1.838   9.270  1.2046 -0.1919 -1.1113
  173MOL0     H23815   4.195   1.887   9.364 -0.5352 -0.4590  1.2768
  173MOL0     H23816   4.071   1.933   9.465  4.2008 -0.9817  2.1166
  173MOL0     H23817   4.240   2.113   9.295  0.2770 -3.5083  0.9043
  173MOL0     H23818   4.086   2.172   9.373 -0.7722  0.5096 -2.3271
  173MOL0     H23819   4.195   2.141   9.584  1.2941 -0.3177  0.5099
  173MOL0     H23820   4.304   2.226   9.498 -0.0849  1.0808 -1.1468
  173MOL0     H23821   4.331   1.932   9.565 -2.5698 -3.4332 -5.1752
  173MOL0     H23822   4.404   1.992   9.410  4.6443 -2.0878  1.3781
  173MOL0     H23823   4.605   2.208   9.427  3.6070 -3.1759 -0.5823
  173MOL0     H23824   4.878   2.218   9.641 -1.3909 -2.0589 -0.9189
  173MOL0     H23825   4.793   2.327   9.734 -0.8994 -1.3663  0.0685
  173MOL0     H23826   4.815   2.350   9.430 -2.1194  0.1783 -0.8101
  173MOL0     H23827   4.678   2.423   9.522 -0.3806  0.6574  0.2127
  173MOL0     H23828   4.887   2.527   9.668  1.3012 -3.4780  0.5786
  173MOL0     H23829   4.973   2.462   9.521 -1.9341 -1.8514 -1.2513
  173MOL0     H23830   4.926   2.688   9.441 -1.7123 -1.7651 -6.0747
  173MOL0     H23831   4.778   2.613   9.389 -1.2107  0.0601  0.5710
  173MOL0     H23832   4.687   2.801   9.314 -2.0650 -1.7444  2.1328
  173MOL0     H23833   4.540   3.020   9.184 -0.1824  0.7133 -1.8796
  173MOL0     H23834   4.705   2.962   9.153 -0.8750  0.9161 -1.6523
  173MOL0     H23835   4.683   3.137   9.185  1.3681 -0.5882 -0.5177
  173MOL0     H23836   4.616   3.347   9.148  1.7168  2.2564 -0.8786
  173MOL0     H23837   4.619   3.559   9.030 -0.3425  0.8516  0.5527
  173MOL0     H23838   4.614   3.768   8.977  0.2262 -0.8611 -0.3562
  173MOL0     H23839   4.440   3.737   8.943 -1.1181  2.6886 -1.5857
  173MOL0     H23840   4.466   3.932   8.832  0.9495 -0.4894 -0.2296
  173MOL0     H23841   4.390   3.982   8.991 -0.0538  2.4025 -0.9815
  173MOL0     H23842   4.611   4.034   9.071  1.8189  1.1032 -0.2539
  173MOL0     H23843   4.544   4.147   8.945 -0.2165 -0.4708 -1.9342
  173MOL0     H23844   4.747   3.922   8.871 -0.9698  0.3334 -2.1285
  173MOL0     H23845   4.802   4.081   8.913 -0.9767  1.8230  0.6787
  173MOL0     H23846   4.597   4.033   8.694 -0.1984 -2.5621  0.1825
  173MOL0     H23847   4.688   4.181   8.724  2.7421  0.4636  0.3027
  173MOL0     H23848   4.763   4.075   8.537 -2.0303 -0.6523  0.0229
  173MOL0     H23849   4.823   3.937   8.646  1.1508  1.5544  0.9324
  173MOL0     H23850   4.982   4.068   8.742  1.7943  2.2460 -0.2533
  173MOL0     H23851   4.900   4.217   8.680  0.2834 -0.2354 -0.1572
  173MOL0     H23852   5.020   4.029   8.481  1.6281 -0.3694  2.1439
  173MOL0     H23853   5.118   4.142   8.564 -0.3358  1.9088  0.6828
  173MOL0     H23854   4.413   3.727   9.381  2.1527  1.0614 -0.0630
  173MOL0     H23855   4.402   3.494   9.473  0.9760 -0.3036  0.7013
  173MOL0     H23856   4.678   3.117   9.689  1.5648 -0.3055  0.3610
  173MOL0     H23857   4.730   2.889   9.720 -2.6653 -2.0887  0.3475
  173MOL0     H23858   4.385   2.126   8.902  1.0910 -1.0863 -0.2786
  173MOL0     H23859   4.362   2.323   8.731 -0.3899  0.1135 -0.2485
  173MOL0     H23860   4.248   2.504   8.351  2.4755  0.6104  0.9764
  173MOL0     H23861   4.313   2.705   8.267  2.3451  2.4620  0.9109
  173MOL0     H23862   4.395   2.943   8.300 -0.6787 -1.7780  0.2048
  173MOL0     H23863   4.296   2.905   8.156 -0.8054  4.1748 -2.5247
  173MOL0     H23864   4.315   3.190   8.245  1.8368  0.9015 -0.8656
  173MOL0     H23865   4.225   3.112   8.114 -1.1723  0.1184  2.4018
  173MOL0     H23866   4.518   3.087   8.158 -1.2203 -3.9960  1.1812
  173MOL0     H23867   4.437   3.024   8.012  0.9541 -2.5941  3.3339
  173MOL0     H23868   4.553   3.259   8.025  0.6835 -2.4048 -0.5035
  173MOL0     H23869   4.382   3.313   8.059  0.3496  0.8819 -0.2217
  173MOL0     H23870   4.348   3.159   7.663 -3.3835 -0.9563  1.3790
  173MOL0     H23871   4.002   2.903   8.475  2.5421  2.2245  1.4810
  173MOL0     H23872   3.852   2.778   8.593  0.1836  0.0389  1.1443
  173MOL0     H23873   3.846   2.613   8.617  0.6321 -0.6774  0.9912
  173MOL0     H23874   3.954   2.710   8.719  1.7900  0.1648 -0.7675
  174MOL0     O23875   8.161  11.014   5.343 -0.3453  0.0119  0.1155
  174MOL0     C23876   8.191  11.067   5.452 -0.2130  0.7736  1.2167
  174MOL0     O23877   8.296  11.025   5.537  0.2016 -0.3735  0.5676
  174MOL0     C23878   8.362  10.912   5.494 -0.2405  0.9711  0.0556
  174MOL0     C23879   8.505  10.914   5.518  0.3333 -0.0173 -0.2683
  174MOL0     C23880   8.583  10.800   5.479 -0.3568 -0.1246 -0.4197
  174MOL0     C23881   8.517  10.687   5.431  0.0486  0.8357  0.6278
  174MOL0     O23882   8.596  10.591   5.370  0.0372  0.2993 -0.5185
  174MOL0     C23883   8.577  10.574   5.228 -1.2949  0.3312  0.2983
  174MOL0     C23884   8.648  10.464   5.163  0.0716 -0.3161  0.8057
  174MOL0     C23885   8.642  10.483   5.003  0.1874  0.0666 -1.2692
  174MOL0     C23886   8.707  10.380   4.912  0.8497 -0.1506  0.7298
  174MOL0     C23887   8.659  10.401   4.768  0.3484 -0.5551 -0.0668
  174MOL0     C23888   8.739  10.327   4.661 -0.3264  0.0668  0.1113
  174MOL0     C23889   8.679  10.362   4.524 -0.2475  0.1210 -0.7416
  174MOL0     C23890   8.728  10.279   4.401 -0.0327  0.0409 -0.6583
  174MOL0     N23891   8.860  10.314   4.377 -0.7177 -0.0649 -0.2086
  174MOL0     C23892   8.910  10.393   4.269 -0.9524 -0.2641 -0.2641
  174MOL0     C23893   9.041  10.362   4.263  0.2832  0.4745  0.5513
  174MOL0     C23894   9.152  10.435   4.181 -0.1579  0.3666  0.0445
  174MOL0     C23895   9.238  10.339   4.112  0.2453  0.1452 -0.6489
  174MOL0     C23896   9.341  10.420   4.022 -0.5383  0.1273 -0.1384
  174MOL0     C23897   9.457  10.327   3.962 -0.1095  0.0728  0.6923
  174MOL0     O23898   9.409  10.248   3.854 -0.0173  0.0848 -0.6660
  174MOL0     C23899   9.364  10.124   3.878 -0.2211 -0.2758  0.3854
  174MOL0     C23900   9.244  10.085   3.821 -0.5857  0.2472  0.5394
  174MOL0     C23901   9.195   9.962   3.845  0.2497  0.3321 -1.1470
  174MOL0     C23902   9.074   9.928   3.772  0.5776 -0.0903 -0.4650
  174MOL0     C23903   9.268   9.863   3.917 -0.7131  0.0071 -0.4787
  174MOL0     C23904   9.224   9.719   3.948  0.3444  0.4165 -0.1078
  174MOL0     O23905   9.094   9.687   3.935  0.6532 -0.1392 -0.3079
  174MOL0     C23906   9.047   9.589   4.015 -0.3692 -0.1028 -0.1319
  174MOL0     C23907   9.027   9.463   3.956  0.4371 -0.9763 -0.7662
  174MOL0     C23908   8.977   9.358   4.032 -0.8619  1.1094  0.9220
  174MOL0     C23909   8.947   9.382   4.160  1.2721 -0.4191 -0.0123
  174MOL0     O23910   8.867   9.288   4.232 -0.5156 -0.0858 -0.0362
  174MOL0     C23911   8.933   9.163   4.259  0.6901 -0.1293  0.6687
  174MOL0     C23912   8.823   9.058   4.301 -0.0523  0.3742 -0.0114
  174MOL0     C23913   8.756   8.983   4.186 -0.4786 -1.0596 -1.2221
  174MOL0     C23914   8.645   9.086   4.112 -0.7344  0.7406 -1.1193
  174MOL0     C23915   8.510   9.094   4.170  0.8689  0.1076  0.4840
  174MOL0     C23916   8.418   9.179   4.083 -1.1724  0.1055 -0.6433
  174MOL0     C23917   8.273   9.178   4.146 -0.6240 -0.0170  0.3567
  174MOL0     C23918   8.166   9.195   4.036 -0.2973 -0.5317 -0.0594
  174MOL0    Cl23919   8.008   9.181   4.127 -0.1523  0.1032 -0.0201
  174MOL0     C23920   8.972   9.502   4.219  0.5229  1.0550 -0.0107
  174MOL0     C23921   9.021   9.608   4.150  0.1041  0.3157  0.3336
  174MOL0     O23922   9.316   9.642   3.981 -0.2483 -0.4436  0.3929
  174MOL0     C23923   9.386   9.905   3.963 -0.1369  1.3552  0.1487
  174MOL0     C23924   9.441  10.036   3.953  0.7053 -0.8175 -0.3185
  174MOL0     N23925   9.069  10.270   4.359 -0.1751  0.0066  0.0193
  174MOL0     N23926   8.956  10.242   4.424  0.4701 -0.2227  0.5195
  174MOL0     C23927   8.379  10.686   5.414 -0.8474  0.3209 -0.1036
  174MOL0     C23928   8.303  10.795   5.448 -0.1064  0.7918  0.6249
  174MOL0     C23929   8.143  11.203   5.474 -0.4925 -0.6685 -0.7278
  174MOL0     C23930   8.228  11.309   5.431 -0.5617 -0.3327  0.3776
  174MOL0     C23931   8.187  11.448   5.444  1.1088 -0.2245  1.3985
  174MOL0     C23932   8.064  11.476   5.507  0.4165 -0.7966 -0.3460
  174MOL0     O23933   8.027  11.600   5.544 -0.6506 -0.2211  0.0018
  174MOL0     C23934   8.050  11.619   5.680 -0.1844  0.7351 -0.1890
  174MOL0     C23935   8.180  11.697   5.706  0.2645  0.2899 -0.5797
  174MOL0     C23936   8.177  11.840   5.638 -0.3835 -0.4913  0.2078
  174MOL0     C23937   8.308  11.919   5.682  0.2767  0.1466 -0.2657
  174MOL0     C23938   8.325  12.044   5.600 -0.2022  0.7814  0.5546
  174MOL0     C23939   8.332  12.157   5.551 -0.1623 -0.0610 -0.4593
  174MOL0     C23940   7.985  11.366   5.545 -0.4679  0.1359  0.2158
  174MOL0     C23941   8.019  11.234   5.527 -0.7629 -0.2727  0.3302
  174MOL0     C23942   7.924  11.112   5.544 -0.3528  0.3800 -0.4650
  174MOL0     H23943   8.552  11.000   5.564 -4.5440  0.5346  4.8614
  174MOL0     H23944   8.690  10.805   5.498 -0.5975 -0.7250  1.2486
  174MOL0     H23945   8.618  10.664   5.179 -0.3910 -0.6672 -0.8591
  174MOL0     H23946   8.472  10.568   5.197 -1.5132  1.3363  0.7796
  174MOL0     H23947   8.753  10.461   5.194  0.3877 -0.8684 -0.2431
  174MOL0     H23948   8.590  10.375   5.189 -0.0893  0.1294  1.9950
  174MOL0     H23949   8.538  10.489   4.969 -0.2931 -1.5896 -0.2478
  174MOL0     H23950   8.702  10.573   4.987 -0.3598  0.2289 -2.5835
  174MOL0     H23951   8.815  10.402   4.910  0.4981  1.8015 -1.1855
  174MOL0     H23952   8.687  10.278   4.946  2.1873 -0.1221  1.6988
  174MOL0     H23953   8.657  10.507   4.739  0.5045 -1.2481 -2.8988
  174MOL0     H23954   8.558  10.358   4.766  1.7014 -4.1189  0.6413
  174MOL0     H23955   8.842  10.361   4.675  0.2358 -1.5430  0.1416
  174MOL0     H23956   8.732  10.219   4.672 -0.0204  0.0363  0.0269
  174MOL0     H23957   8.692  10.470   4.512 -0.9742  0.4283  0.8521
  174MOL0     H23958   8.575  10.333   4.542  0.5081 -0.6840  3.2351
  174MOL0     H23959   8.731  10.176   4.437  1.7738  0.4981  0.6604
  174MOL0     H23960   8.656  10.295   4.320  0.3299 -0.4290 -1.0748
  174MOL0     H23961   8.847  10.465   4.217 -0.8725  2.6824  3.3055
  174MOL0     H23962   9.215  10.489   4.253  0.0907 -0.3955  0.4055
  174MOL0     H23963   9.108  10.506   4.111  0.3027 -0.7051 -1.3787
  174MOL0     H23964   9.290  10.286   4.192  1.2198  0.7766 -0.8551
  174MOL0     H23965   9.180  10.268   4.052  1.0576  0.0174 -1.3020
  174MOL0     H23966   9.287  10.466   3.939  2.9228 -1.1479 -3.3844
  174MOL0     H23967   9.393  10.495   4.082 -1.0906 -1.1492  2.0335
  174MOL0     H23968   9.540  10.387   3.923  1.3321 -2.1309  0.1940
  174MOL0     H23969   9.489  10.264   4.045  1.8964 -0.6276 -0.5177
  174MOL0     H23970   9.189  10.165   3.772  1.0742  1.3545  0.3896
  174MOL0     H23971   9.075   9.854   3.691  0.3914  1.1677 -1.6738
  174MOL0     H23972   9.033  10.014   3.717  3.3402  0.8892 -1.1699
  174MOL0     H23973   8.993   9.894   3.837  1.5377  2.8556  2.5563
  174MOL0     H23974   9.055   9.439   3.854 -0.1444 -1.5646 -0.7875
  174MOL0     H23975   8.957   9.262   3.985  0.2079  1.8854 -1.2617
  174MOL0     H23976   8.986   9.111   4.179  0.4666 -1.5273  1.3743
  174MOL0     H23977   9.003   9.174   4.342 -0.6081 -1.9799  2.1274
  174MOL0     H23978   8.870   8.989   4.371  2.1796  0.1426 -1.6384
  174MOL0     H23979   8.742   9.108   4.355  0.0905  0.8060 -0.1915
  174MOL0     H23980   8.698   8.892   4.203 -2.4529 -0.0830 -2.3182
  174MOL0     H23981   8.832   8.950   4.114  3.1438  2.0425  0.7898
  174MOL0     H23982   8.642   9.043   4.012  0.0195  0.0745 -0.8618
  174MOL0     H23983   8.694   9.183   4.100 -2.4612  1.6041 -1.4407
  174MOL0     H23984   8.472   8.993   4.152  2.0669  0.0984 -2.5093
  174MOL0     H23985   8.516   9.109   4.279 -1.2360 -2.2902  1.0342
  174MOL0     H23986   8.421   9.149   3.978 -0.1092  2.5256 -1.3735
  174MOL0     H23987   8.457   9.281   4.077  3.3826 -1.3275  0.9582
  174MOL0     H23988   8.257   9.251   4.225  2.5725  1.2123  0.0058
  174MOL0     H23989   8.250   9.083   4.197 -1.9818 -0.5297 -1.1055
  174MOL0     H23990   8.164   9.134   3.945 -1.0097  2.3720 -2.1345
  174MOL0     H23991   8.182   9.292   3.989 -1.0598  0.0571  0.8566
  174MOL0     H23992   8.939   9.514   4.322  2.2057 -0.8465  0.8206
  174MOL0     H23993   9.045   9.703   4.197 -2.3102  1.8146 -1.2430
  174MOL0     H23994   9.450   9.836   4.017  1.5695  0.9531 -2.2469
  174MOL0     H23995   9.535  10.059   4.003  0.5101  0.2607 -0.4220
  174MOL0     H23996   8.327  10.600   5.371  0.8501 -0.9516  0.2622
  174MOL0     H23997   8.197  10.785   5.430  0.1513  1.8809 -1.8276
  174MOL0     H23998   8.329  11.292   5.395  0.3388  2.1368  1.4458
  174MOL0     H23999   8.250  11.532   5.417 -1.5654  1.6135  0.3994
  174MOL0     H24000   7.959  11.672   5.712 -0.4055  0.2037  0.0709
  174MOL0     H24001   8.043  11.533   5.748  0.9621  1.4821  0.9204
  174MOL0     H24002   8.277  11.661   5.672  1.7632  1.5913  1.9963
  174MOL0     H24003   8.185  11.723   5.812 -1.6093 -1.8157  0.0905
  174MOL0     H24004   8.187  11.823   5.530  0.9374  0.4790  0.1465
  174MOL0     H24005   8.081  11.890   5.654 -0.0780 -0.7812  3.7173
  174MOL0     H24006   8.389  11.846   5.670 -1.7269 -1.9001 -2.3267
  174MOL0     H24007   8.308  11.939   5.790 -2.1345  1.7794 -0.5015
  174MOL0     H24008   8.327  12.258   5.515 -0.9818  0.7287  1.7219
  174MOL0     H24009   7.887  11.383   5.589 -1.0827  1.3201 -1.4998
  174MOL0     H24010   7.828  11.154   5.512  0.9479  1.8527 -2.7170
  174MOL0     H24011   7.947  11.029   5.477 -0.5415  0.2473 -0.3644
  174MOL0     H24012   7.912  11.068   5.643 -0.7478 -3.4858 -2.0608
  175MOL0     O24013   4.201  10.373   6.753 -0.5945 -0.4585  0.1103
  175MOL0     C24014   4.082  10.395   6.766 -0.6795 -0.4279  0.0604
  175MOL0     O24015   4.028  10.516   6.801  0.3148 -0.1824 -0.0140
  175MOL0     C24016   4.109  10.636   6.793 -0.0211  0.9356  0.3978
  175MOL0     C24017   4.133  10.711   6.907  0.5983 -0.2474  0.0130
  175MOL0     C24018   4.211  10.828   6.899  1.1056 -0.5369 -0.4071
  175MOL0     C24019   4.253  10.883   6.776 -0.6468  0.4408 -0.7081
  175MOL0     O24020   4.327  10.998   6.769  0.3392  0.4001  0.0909
  175MOL0     C24021   4.463  10.989   6.818  0.2957  0.1202 -0.4899
  175MOL0     C24022   4.514  11.137   6.834 -0.6054 -0.0304 -0.2774
  175MOL0     C24023   4.658  11.150   6.891  0.9601  1.0216 -0.0404
  175MOL0     C24024   4.661  11.263   7.004 -1.3018 -0.1904 -1.4057
  175MOL0     C24025   4.677  11.404   6.939  0.1047 -0.0104 -0.1433
  175MOL0     C24026   4.695  11.516   7.034 -0.0887 -0.4661 -0.2659
  175MOL0     C24027   4.683  11.651   6.968 -0.4440 -0.5190 -0.2556
  175MOL0     C24028   4.824  11.707   6.932 -0.6832  0.6911 -0.1580
  175MOL0     N24029   4.867  11.668   6.798  0.1955 -0.4829 -0.0653
  175MOL0     C24030   4.936  11.560   6.767  0.0949 -0.3567 -0.8058
  175MOL0     C24031   4.984  11.571   6.647 -0.1579  0.2423 -0.7562
  175MOL0     C24032   5.053  11.452   6.580 -0.2269 -0.1242 -0.0534
  175MOL0     C24033   4.972  11.323   6.558 -0.9010 -0.3988 -0.6225
  175MOL0     C24034   4.839  11.369   6.495  0.2804 -0.2134 -0.2896
  175MOL0     C24035   4.767  11.244   6.459 -0.3548 -0.5010  0.1105
  175MOL0     O24036   4.665  11.276   6.363  0.8634  0.1780  0.2771
  175MOL0     C24037   4.577  11.171   6.321 -0.2173  0.5730  0.5773
  175MOL0     C24038   4.494  11.195   6.218  0.8033 -0.5692  0.5099
  175MOL0     C24039   4.403  11.108   6.163 -0.0925  0.6014 -0.0735
  175MOL0     C24040   4.310  11.163   6.053 -0.4827  0.0246  0.1541
  175MOL0     C24041   4.393  10.977   6.218 -0.1766 -0.6455  0.0044
  175MOL0     C24042   4.297  10.875   6.175 -0.1906  0.5664 -0.4110
  175MOL0     O24043   4.250  10.798   6.270  0.1251 -0.3735  0.1894
  175MOL0     C24044   4.180  10.693   6.220 -0.6418  1.3881 -0.5055
  175MOL0     C24045   4.242  10.588   6.157 -0.8081  0.1204  0.6538
  175MOL0     C24046   4.177  10.468   6.125 -0.4130 -0.7852  0.6205
  175MOL0     C24047   4.039  10.464   6.148 -1.2273  0.5012 -0.3501
  175MOL0     O24048   3.977  10.350   6.117  0.3469 -0.2942 -0.0742
  175MOL0     C24049   3.975  10.252   6.232 -0.0949 -0.2627 -0.2905
  175MOL0     C24050   4.109  10.173   6.254 -0.9801 -0.4530  0.2562
  175MOL0     C24051   4.129  10.059   6.153  0.1980 -0.2682  0.7832
  175MOL0     C24052   4.025   9.947   6.176 -0.6442  0.2788 -0.1842
  175MOL0     C24053   4.057   9.840   6.074  0.1437 -0.5999  0.2747
  175MOL0     C24054   3.956   9.728   6.065  0.3490  1.3192  0.1000
  175MOL0     C24055   3.812   9.766   6.027 -0.8075  0.8125  0.3886
  175MOL0     C24056   3.724   9.640   6.026 -0.0983  0.3272 -0.4502
  175MOL0    Cl24057   3.557   9.687   6.001  0.4209  0.1150  0.2318
  175MOL0     C24058   3.977  10.569   6.208  0.0381 -1.0144  0.3735
  175MOL0     C24059   4.049  10.680   6.246  0.3374 -0.7271  0.6046
  175MOL0     O24060   4.273  10.866   6.050  0.2952  0.8382 -0.0389
  175MOL0     C24061   4.485  10.942   6.325 -0.2736 -0.0374 -0.0548
  175MOL0     C24062   4.573  11.045   6.374  0.7443  1.0227 -0.4205
  175MOL0     N24063   4.945  11.689   6.595  0.0696 -0.2881  0.6953
  175MOL0     N24064   4.859  11.747   6.682 -0.2838  0.1504  0.1368
  175MOL0     C24065   4.247  10.799   6.664 -0.4436 -0.6606 -1.6593
  175MOL0     C24066   4.178  10.674   6.672 -0.8120 -0.1537  0.6740
  175MOL0     C24067   3.987  10.287   6.735 -0.2936  1.2263 -0.7082
  175MOL0     C24068   3.851  10.322   6.749  0.1846  0.3445  0.0259
  175MOL0     C24069   3.757  10.242   6.696  0.2744 -0.8367  0.2393
  175MOL0     C24070   3.776  10.120   6.637 -0.0257  0.1117 -0.3198
  175MOL0     O24071   3.678  10.025   6.594 -0.7824 -0.2792  0.0033
  175MOL0     C24072   3.546  10.037   6.647 -0.8156 -0.3328  0.5954
  175MOL0     C24073   3.456   9.949   6.559 -0.6073  0.1691 -0.4427
  175MOL0     C24074   3.313   9.984   6.582 -0.1805  0.1678  0.0711
  175MOL0     C24075   3.211   9.881   6.515  0.2013  0.0174  0.5735
  175MOL0     C24076   3.208   9.883   6.369  0.7612 -0.0199  0.5394
  175MOL0     C24077   3.203   9.882   6.248 -0.6693  0.5048 -0.2221
  175MOL0     C24078   3.909  10.081   6.626 -0.0968 -0.3762  0.8653
  175MOL0     C24079   4.017  10.161   6.672  0.2886  0.1492 -0.0352
  175MOL0     C24080   4.157  10.103   6.657  0.5536  0.5952  0.5147
  175MOL0     H24081   4.078  10.679   6.994  0.4681  0.1147  0.0666
  175MOL0     H24082   4.232  10.883   6.991 -1.3774  0.2552 -0.2328
  175MOL0     H24083   4.528  10.935   6.747  0.2024  0.7136 -1.0384
  175MOL0     H24084   4.461  10.931   6.910 -5.7460 -1.7251 -1.3460
  175MOL0     H24085   4.513  11.180   6.733 -0.0841  2.9458  0.8779
  175MOL0     H24086   4.451  11.188   6.908  1.4990  1.4661  0.5651
  175MOL0     H24087   4.682  11.048   6.922  2.0966  1.8724  2.0671
  175MOL0     H24088   4.726  11.178   6.810  0.2884 -0.9792 -1.3740
  175MOL0     H24089   4.576  11.253   7.072  0.6249 -0.8011  1.1143
  175MOL0     H24090   4.747  11.250   7.071 -0.6729 -1.3595 -2.3795
  175MOL0     H24091   4.585  11.410   6.881 -1.0699  1.2959  1.7291
  175MOL0     H24092   4.764  11.410   6.873 -0.1506  0.3503 -0.4503
  175MOL0     H24093   4.612  11.504   7.104 -5.5442  1.9362 -5.4713
  175MOL0     H24094   4.787  11.494   7.089 -2.8208 -2.4326  4.0873
  175MOL0     H24095   4.641  11.729   7.032  0.0503  1.4559 -2.2006
  175MOL0     H24096   4.614  11.655   6.882  1.5250 -1.5638 -1.9768
  175MOL0     H24097   4.820  11.816   6.926 -1.4450  0.7182  0.6242
  175MOL0     H24098   4.901  11.683   7.006 -1.1399  1.0146  0.4323
  175MOL0     H24099   4.945  11.472   6.830 -1.8728  1.4512  2.2773
  175MOL0     H24100   5.147  11.432   6.631  0.4928 -1.8919 -1.9105
  175MOL0     H24101   5.072  11.494   6.481  0.9878  1.0196  0.6394
  175MOL0     H24102   5.032  11.251   6.502  1.2904 -0.1496  1.2591
  175MOL0     H24103   4.941  11.272   6.650 -1.6718 -1.9144 -1.6751
  175MOL0     H24104   4.780  11.427   6.566 -1.5634 -1.8922 -0.3567
  175MOL0     H24105   4.857  11.431   6.406  0.4298 -0.5118 -0.4687
  175MOL0     H24106   4.836  11.171   6.415 -0.1100  0.7294 -1.6507
  175MOL0     H24107   4.724  11.216   6.556 -0.4252  1.0544  0.5642
  175MOL0     H24108   4.494  11.292   6.168 -0.9451 -1.9423 -2.3993
  175MOL0     H24109   4.284  11.267   6.074  0.4452  0.5188 -1.0129
  175MOL0     H24110   4.219  11.102   6.049 -0.5645  0.0566  1.3445
  175MOL0     H24111   4.355  11.164   5.953  0.1412  1.9729  0.4061
  175MOL0     H24112   4.350  10.599   6.153 -0.8523  0.4063  0.1062
  175MOL0     H24113   4.237  10.391   6.078 -1.4873 -0.2049 -1.8889
  175MOL0     H24114   3.956  10.315   6.320  1.7120 -0.1082  0.0265
  175MOL0     H24115   3.892  10.181   6.224 -1.0539  1.0209 -2.9265
  175MOL0     H24116   4.187  10.248   6.264 -3.6053  2.4839  0.2268
  175MOL0     H24117   4.107  10.127   6.353 -0.2847  1.3583  1.1469
  175MOL0     H24118   4.232  10.028   6.171  0.4201  0.5782  1.0523
  175MOL0     H24119   4.126  10.090   6.048  5.6474  1.7538  0.8742
  175MOL0     H24120   3.927   9.986   6.151 -0.3950  0.2971 -1.1758
  175MOL0     H24121   4.028   9.909   6.279  2.0081  2.7489  0.7966
  175MOL0     H24122   4.047   9.889   5.976  0.4799 -0.6283  0.2244
  175MOL0     H24123   4.163   9.814   6.077  0.3768  0.4282  1.9074
  175MOL0     H24124   3.950   9.664   6.153 -2.5069 -0.6090 -1.3497
  175MOL0     H24125   3.998   9.652   5.998 -0.6821  0.2791  0.5997
  175MOL0     H24126   3.819   9.808   5.926  0.8179 -0.9410 -0.2836
  175MOL0     H24127   3.771   9.831   6.105 -0.2981 -0.5942  1.8800
  175MOL0     H24128   3.733   9.598   6.127  0.6194  3.1697  0.7762
  175MOL0     H24129   3.755   9.556   5.963  1.5411 -0.3123  1.0993
  175MOL0     H24130   3.875  10.556   6.241 -0.7419  3.6419  0.3963
  175MOL0     H24131   3.975  10.753   6.275 -0.2259 -1.0522  0.0069
  175MOL0     H24132   4.487  10.843   6.368 -1.5477 -1.1544 -2.3795
  175MOL0     H24133   4.643  11.022   6.454 -1.2176 -1.3888  0.7285
  175MOL0     H24134   4.297  10.838   6.576 -1.8418  3.4979 -0.8702
  175MOL0     H24135   4.165  10.604   6.590 -1.1481 -3.4004  3.2414
  175MOL0     H24136   3.823  10.418   6.791  0.3730  0.3628  0.1136
  175MOL0     H24137   3.655  10.276   6.708  0.3616 -0.7003  0.6127
  175MOL0     H24138   3.543  10.008   6.753 -0.1484 -0.9313  0.4566
  175MOL0     H24139   3.510  10.140   6.644 -1.2862 -0.5157 -0.0534
  175MOL0     H24140   3.471   9.847   6.595 -3.3107  0.0417  0.5635
  175MOL0     H24141   3.474   9.943   6.451 -0.1893 -5.1841 -0.3146
  175MOL0     H24142   3.289   9.993   6.689  0.7175  0.3237  0.2683
  175MOL0     H24143   3.310  10.083   6.536 -0.0499 -0.8159 -2.1804
  175MOL0     H24144   3.107   9.908   6.537  0.0390  0.5420 -0.7357
  175MOL0     H24145   3.228   9.782   6.558  0.6862 -0.9130 -1.6090
  175MOL0     H24146   3.186   9.887   6.142  1.3194 -2.9561 -0.8562
  175MOL0     H24147   3.928   9.989   6.572 -2.0477 -1.0414  1.2313
  175MOL0     H24148   4.233  10.124   6.733  0.7885  3.6783 -0.4188
  175MOL0     H24149   4.144   9.995   6.648  3.7383  0.0296  1.5892
  175MOL0     H24150   4.202  10.153   6.571  2.0827  2.2784  2.1964
  176MOL0     O24151   1.793   4.017  11.506  0.5980  0.2366  0.3059
  176MOL0     C24152   1.753   3.969  11.603 -1.1292  0.3935  0.0368
  176MOL0     O24153   1.714   4.038  11.717  0.6371 -0.0597  0.1255
  176MOL0     C24154   1.724   4.173  11.720  0.0681  0.5048  0.0535
  176MOL0     C24155   1.853   4.242  11.735  0.4763  0.0169  0.9936
  176MOL0     C24156   1.856   4.385  11.710 -0.5286  0.1776  0.2621
  176MOL0     C24157   1.733   4.451  11.670 -0.4824 -0.5014 -0.1483
  176MOL0     O24158   1.736   4.593  11.663  0.2229 -0.3576  0.3549
  176MOL0     C24159   1.647   4.669  11.578 -0.3771  0.5250  0.2168
  176MOL0     C24160   1.668   4.635  11.432  0.3971  0.8716  0.1784
  176MOL0     C24161   1.595   4.741  11.352 -0.3522 -0.4096 -0.2638
  176MOL0     C24162   1.624   4.706  11.207  0.7946  0.1214 -0.3509
  176MOL0     C24163   1.578   4.827  11.120 -0.3665  0.5426 -0.5319
  176MOL0     C24164   1.580   4.793  10.965 -0.5910  0.7696 -0.6322
  176MOL0     C24165   1.571   4.926  10.891 -1.2148  0.9496  0.0851
  176MOL0     C24166   1.451   5.011  10.918  0.1785 -0.0619  0.3117
  176MOL0     N24167   1.462   5.091  11.040  0.5463 -0.2625 -0.1038
  176MOL0     C24168   1.568   5.175  11.077  0.5668  0.8988  0.3658
  176MOL0     C24169   1.539   5.220  11.201  0.3219 -0.3735 -0.1103
  176MOL0     C24170   1.632   5.297  11.284 -0.1747 -0.4960 -0.3114
  176MOL0     C24171   1.712   5.221  11.391 -0.2815 -0.1189 -0.1717
  176MOL0     C24172   1.777   5.326  11.483 -0.2610 -0.0911 -0.1489
  176MOL0     C24173   1.868   5.262  11.581  0.5160 -0.0618 -0.0686
  176MOL0     O24174   1.808   5.144  11.655  1.1038  0.2359  0.3666
  176MOL0     C24175   1.820   5.142  11.789 -0.1028  0.7421 -0.2903
  176MOL0     C24176   1.947   5.167  11.857  0.5712  0.8894  0.3672
  176MOL0     C24177   1.957   5.156  11.996 -0.2015  0.3381  0.0958
  176MOL0     C24178   2.095   5.163  12.053 -0.2400  0.3597  0.2645
  176MOL0     C24179   1.840   5.124  12.070 -0.2549 -0.4990  0.8877
  176MOL0     C24180   1.848   5.126  12.218  1.0158 -0.0287 -0.0517
  176MOL0     O24181   1.772   5.036  12.278 -0.1919  0.5293 -0.4502
  176MOL0     C24182   1.749   5.059  12.415 -0.1319 -0.0425  0.3441
  176MOL0     C24183   1.657   5.144  12.468  0.0993 -0.5261  0.5851
  176MOL0     C24184   1.648   5.149  12.610  0.1166 -1.2022  0.6943
  176MOL0     C24185   1.716   5.063  12.695 -0.3395 -0.9755  0.8093
  176MOL0     O24186   1.707   5.064  12.825  0.8329 -0.2437  0.0379
  176MOL0     C24187   1.583   5.108  12.885  0.7246  0.4671 -0.3105
  176MOL0     C24188   1.566   5.026  13.015  0.9905 -0.1285 -0.1311
  176MOL0     C24189   1.590   5.105  13.142 -0.2263  0.3475 -0.5605
  176MOL0     C24190   1.493   5.212  13.155  0.2920 -1.3795 -0.4188
  176MOL0     C24191   1.380   5.175  13.244  0.3573  0.1797 -1.2829
  176MOL0     C24192   1.307   5.297  13.288  0.0685  0.7181  0.6008
  176MOL0     C24193   1.186   5.266  13.374  0.1184 -0.8399  0.0642
  176MOL0     C24194   1.211   5.205  13.506 -0.5480  0.5685 -0.3937
  176MOL0    Cl24195   1.053   5.161  13.563  0.5388 -0.0671 -0.3918
  176MOL0     C24196   1.816   4.989  12.642 -0.3147 -0.1352  0.5633
  176MOL0     C24197   1.828   4.987  12.503  0.0043  0.3675  0.5075
  176MOL0     O24198   1.905   5.222  12.276 -0.0723 -0.4381  0.1029
  176MOL0     C24199   1.717   5.104  12.005 -0.5786  1.0892 -0.3189
  176MOL0     C24200   1.708   5.104  11.867  0.4813 -0.7762  1.0355
  176MOL0     N24201   1.418   5.175  11.239 -0.3478  0.2807 -1.0316
  176MOL0     N24202   1.367   5.099  11.138  0.2996 -0.0873 -0.7771
  176MOL0     C24203   1.611   4.379  11.659 -0.2831 -0.2332 -0.3596
  176MOL0     C24204   1.611   4.242  11.695  0.2660  0.3572 -0.2534
  176MOL0     C24205   1.748   3.815  11.606  0.2530 -0.2692 -0.3633
  176MOL0     C24206   1.695   3.751  11.720 -0.5144 -0.7367 -0.0549
  176MOL0     C24207   1.693   3.610  11.741 -0.5811 -0.2259  0.5523
  176MOL0     C24208   1.717   3.522  11.634 -0.9416 -0.0418 -0.5499
  176MOL0     O24209   1.721   3.388  11.664 -0.8806  0.4848 -0.2114
  176MOL0     C24210   1.737   3.283  11.569  0.0827  0.2308  0.4095
  176MOL0     C24211   1.628   3.178  11.580  0.2610  0.0052 -0.4441
  176MOL0     C24212   1.649   3.033  11.532 -0.7996 -0.3999  0.2150
  176MOL0     C24213   1.662   3.034  11.383  0.6119  1.1377  0.4208
  176MOL0     C24214   1.714   2.900  11.342  1.0024 -0.7558 -1.1304
  176MOL0     C24215   1.769   2.790  11.333  0.1760 -0.1137  0.1027
  176MOL0     C24216   1.776   3.582  11.516  0.2398  0.2820  0.1635
  176MOL0     C24217   1.787   3.722  11.496 -0.2034  0.9738 -0.2548
  176MOL0     C24218   1.858   3.772  11.371  0.8140 -0.3407  0.3151
  176MOL0     H24219   1.954   4.204  11.747 -0.0778 -1.3944  1.3796
  176MOL0     H24220   1.948   4.443  11.705  0.1897 -1.0425 -2.5002
  176MOL0     H24221   1.673   4.775  11.579  0.9607  0.2033  1.5053
  176MOL0     H24222   1.540   4.657  11.600  0.3240  0.0417  3.8219
  176MOL0     H24223   1.774   4.620  11.413  0.3245  1.4160 -0.6871
  176MOL0     H24224   1.631   4.533  11.418 -1.7075  1.2732  2.1601
  176MOL0     H24225   1.487   4.730  11.361 -0.4918  0.1311 -1.1954
  176MOL0     H24226   1.638   4.837  11.384  1.5833 -2.0658  2.5272
  176MOL0     H24227   1.732   4.694  11.199  0.5350 -2.7292 -0.6182
  176MOL0     H24228   1.578   4.612  11.176  1.7541 -0.1005 -1.1367
  176MOL0     H24229   1.649   4.908  11.135 -1.0719  1.0430  0.1572
  176MOL0     H24230   1.476   4.856  11.145 -0.5577 -0.5694  0.0522
  176MOL0     H24231   1.666   4.735  10.929 -1.0509 -1.1682  1.1746
  176MOL0     H24232   1.488   4.743  10.933  0.2877 -1.3077 -0.1218
  176MOL0     H24233   1.566   4.901  10.785  1.9765  0.8364 -0.1167
  176MOL0     H24234   1.655   4.993  10.910 -1.9289  1.8880  0.0089
  176MOL0     H24235   1.435   5.083  10.837 -3.6679 -1.4923 -0.4307
  176MOL0     H24236   1.353   4.963  10.921 -0.8457  1.9416  0.7618
  176MOL0     H24237   1.661   5.183  11.022  1.3551 -1.5870  1.1688
  176MOL0     H24238   1.558   5.359  11.336  0.5269 -0.1241  0.2595
  176MOL0     H24239   1.707   5.354  11.229 -1.0855  2.2123  1.0682
  176MOL0     H24240   1.644   5.152  11.444 -0.8621 -0.4598 -1.3348
  176MOL0     H24241   1.794   5.165  11.346  0.0304  1.1652 -1.2200
  176MOL0     H24242   1.831   5.398  11.419 -1.5487  1.1066  0.0579
  176MOL0     H24243   1.703   5.375  11.547 -1.8978 -3.1933  0.4986
  176MOL0     H24244   1.956   5.223  11.529  0.6143 -1.1686  0.8915
  176MOL0     H24245   1.900   5.346  11.643 -0.9213  0.6870 -0.2978
  176MOL0     H24246   2.037   5.187  11.801  2.0553  0.6239  2.5462
  176MOL0     H24247   2.090   5.206  12.153 -4.1707  1.0158 -0.0481
  176MOL0     H24248   2.160   5.225  11.990 -0.1060 -0.5095 -0.4789
  176MOL0     H24249   2.126   5.058  12.060  0.8840  0.5878 -0.8645
  176MOL0     H24250   1.603   5.208  12.399 -1.1118 -0.5407  1.5049
  176MOL0     H24251   1.565   5.205  12.651 -2.4001 -2.8182 -1.8069
  176MOL0     H24252   1.599   5.216  12.893 -1.4250  0.7925  0.2034
  176MOL0     H24253   1.492   5.088  12.827 -0.9606  2.0635  1.6192
  176MOL0     H24254   1.465   4.983  13.023 -0.1662  2.6574  2.4303
  176MOL0     H24255   1.649   4.955  13.007  2.6756  1.9190 -2.2487
  176MOL0     H24256   1.693   5.140  13.135 -0.2568  0.4748 -0.3681
  176MOL0     H24257   1.597   5.042  13.231  0.8444  1.1216 -0.0784
  176MOL0     H24258   1.468   5.237  13.052  2.4256 -2.5113 -1.2873
  176MOL0     H24259   1.556   5.287  13.204  1.8956  0.6742 -5.0178
  176MOL0     H24260   1.310   5.107  13.194 -0.5749  1.2196 -1.4679
  176MOL0     H24261   1.412   5.119  13.332  0.9584  1.4026 -0.6918
  176MOL0     H24262   1.266   5.348  13.200 -2.5433  0.1857  1.4199
  176MOL0     H24263   1.372   5.361  13.348  1.0078 -2.3637  3.1674
  176MOL0     H24264   1.123   5.201  13.313  1.3587 -3.5889  1.5668
  176MOL0     H24265   1.128   5.358  13.388 -0.4614 -1.0276 -1.0620
  176MOL0     H24266   1.253   5.280  13.574  1.7489 -0.7437 -0.2820
  176MOL0     H24267   1.274   5.117  13.492  2.3297  1.9500  2.6439
  176MOL0     H24268   1.867   4.923  12.711 -3.4286 -4.2983 -0.7462
  176MOL0     H24269   1.897   4.909  12.470  1.9781  1.2684  2.2522
  176MOL0     H24270   1.622   5.091  12.056 -1.2402  1.6759 -1.3759
  176MOL0     H24271   1.617   5.089  11.809  1.4558 -1.0501 -0.4896
  176MOL0     H24272   1.525   4.440  11.632  1.4526  2.4001 -0.3785
  176MOL0     H24273   1.520   4.185  11.684 -0.7542  0.4962  4.7469
  176MOL0     H24274   1.680   3.814  11.808 -0.7850 -0.9444  0.0488
  176MOL0     H24275   1.661   3.573  11.838 -0.2180 -0.6998  0.4932
  176MOL0     H24276   1.732   3.317  11.465  1.1909 -0.0222  0.2654
  176MOL0     H24277   1.841   3.250  11.573  2.1136  5.2771 -1.7683
  176MOL0     H24278   1.527   3.214  11.556  0.1384  1.0735  1.4356
  176MOL0     H24279   1.621   3.165  11.689 -1.2705  0.7614 -0.4228
  176MOL0     H24280   1.743   3.004  11.580 -0.0202  4.8290  2.4844
  176MOL0     H24281   1.557   2.977  11.552 -0.6413 -0.1004  1.9519
  176MOL0     H24282   1.719   3.117  11.342 -0.2906  1.7195  0.3141
  176MOL0     H24283   1.564   3.041  11.336  1.5339  0.5850 -1.6975
  176MOL0     H24284   1.797   2.691  11.303  1.4478  0.7766 -1.7892
  176MOL0     H24285   1.793   3.519  11.429  1.0647  0.3021  0.3044
  176MOL0     H24286   1.789   3.835  11.314  0.8499 -0.7733 -0.2160
  176MOL0     H24287   1.943   3.838  11.391 -1.6753  2.9803  0.8500
  176MOL0     H24288   1.895   3.687  11.313  0.3144 -0.6212  0.4016
  177MOL0     O24289   8.949   4.813   0.245 -0.2295  0.3505 -0.0764
  177MOL0     C24290   8.913   4.721   0.319  0.6137  0.5535 -0.0380
  177MOL0     O24291   8.994   4.629   0.367  0.5987  0.0039 -0.6314
  177MOL0     C24292   9.120   4.606   0.324 -0.0602  0.3403 -0.5259
  177MOL0     C24293   9.221   4.702   0.296  0.2668 -0.5488  0.7398
  177MOL0     C24294   9.351   4.656   0.266  0.5286 -0.3422 -0.3622
  177MOL0     C24295   9.374   4.521   0.235  0.9268 -0.2268  0.2704
  177MOL0     O24296   9.493   4.476   0.184 -0.2760  0.2781 -0.1930
  177MOL0     C24297   9.548   4.545   0.068  0.7357  0.6818 -0.5387
  177MOL0     C24298   9.677   4.602   0.120 -0.7559  0.6684 -0.0379
  177MOL0     C24299   9.774   4.649   0.012  0.1895  0.4043  0.4766
  177MOL0     C24300   9.921   4.681   0.065 -0.5049  0.2886 -0.5897
  177MOL0     C24301   9.992   4.750  -0.053  0.7074 -0.5842 -0.5891
  177MOL0     C24302  10.130   4.811  -0.010  1.1135 -0.0310 -0.0284
  177MOL0     C24303  10.127   4.963  -0.011  0.5185 -0.2981  0.4472
  177MOL0     C24304  10.255   5.045  -0.003 -0.1689  1.1343  0.2618
  177MOL0     N24305  10.337   5.023   0.112  0.2519  0.3040  0.0081
  177MOL0     C24306  10.307   5.074   0.234 -0.1701  1.4502  0.6682
  177MOL0     C24307  10.405   5.013   0.310  0.1531 -0.4465  0.2983
  177MOL0     C24308  10.424   5.025   0.450  0.0943 -0.7575 -0.2931
  177MOL0     C24309  10.567   5.067   0.484 -0.7309 -1.0652 -0.0005
  177MOL0     C24310  10.625   5.014   0.611 -0.1054  0.1254 -0.8306
  177MOL0     C24311  10.558   5.093   0.718 -1.0118  0.6144 -0.5703
  177MOL0     O24312  10.421   5.065   0.752  0.0908  0.1966  0.1770
  177MOL0     C24313  10.346   5.161   0.815  0.4980  0.0999  1.4408
  177MOL0     C24314  10.388   5.257   0.910  0.6548  0.1862 -1.5003
  177MOL0     C24315  10.312   5.351   0.979 -0.2314 -0.1534  0.0587
  177MOL0     C24316  10.386   5.470   1.056 -0.3489 -0.1569  0.6226
  177MOL0     C24317  10.175   5.345   0.960 -0.2773  0.3647  0.8201
  177MOL0     C24318  10.088   5.435   1.030  0.7712  0.4521 -0.9141
  177MOL0     O24319   9.969   5.464   0.969 -0.3723 -0.5446 -0.2052
  177MOL0     C24320   9.871   5.528   1.050 -0.3542 -0.1615  0.3626
  177MOL0     C24321   9.746   5.467   1.039  0.5446 -0.0468  0.6731
  177MOL0     C24322   9.645   5.518   1.117 -0.4457 -0.6286 -0.4039
  177MOL0     C24323   9.661   5.643   1.180 -0.4221  0.1246  0.3287
  177MOL0     O24324   9.559   5.709   1.256 -0.1899 -0.2794  0.2828
  177MOL0     C24325   9.601   5.731   1.391  0.2953  0.8345 -0.1126
  177MOL0     C24326   9.478   5.748   1.477 -0.3264  0.4498 -0.2234
  177MOL0     C24327   9.419   5.615   1.516  0.3403  0.0402 -0.6083
  177MOL0     C24328   9.273   5.606   1.458  0.4459 -0.2452 -0.1919
  177MOL0     C24329   9.197   5.481   1.493 -0.6744 -0.3444  0.7347
  177MOL0     C24330   9.053   5.490   1.448 -0.0624 -0.9965 -0.1684
  177MOL0     C24331   8.966   5.374   1.514  0.8285  0.5302 -0.2409
  177MOL0     C24332   8.849   5.330   1.431  1.1416  0.5545  0.1240
  177MOL0    Cl24333   8.891   5.295   1.260  0.1592 -0.1845  0.4399
  177MOL0     C24334   9.785   5.708   1.179  0.2857 -0.1381  0.3403
  177MOL0     C24335   9.891   5.649   1.114  0.6497 -0.4257 -0.6878
  177MOL0     O24336  10.116   5.466   1.144 -0.6811 -1.0236 -0.6546
  177MOL0     C24337  10.121   5.257   0.859 -0.3825 -0.7355  0.4587
  177MOL0     C24338  10.200   5.173   0.776  0.6796 -0.2865  0.3550
  177MOL0     N24339  10.477   4.934   0.229  0.9393 -0.5213 -0.4501
  177MOL0     N24340  10.446   4.937   0.108 -0.0330 -0.3072  0.0182
  177MOL0     C24341   9.271   4.423   0.253  0.1489 -0.5613 -0.5909
  177MOL0     C24342   9.147   4.467   0.301 -0.6460  0.3404  0.2401
  177MOL0     C24343   8.777   4.740   0.367 -0.0763  1.2362  0.3831
  177MOL0     C24344   8.722   4.864   0.380 -0.5542  0.6448 -0.2403
  177MOL0     C24345   8.589   4.884   0.428 -0.8271  0.2726 -0.4739
  177MOL0     C24346   8.511   4.775   0.475 -0.2410  0.4613  0.3021
  177MOL0     O24347   8.392   4.802   0.544 -0.0978 -0.3555  0.4043
  177MOL0     C24348   8.378   4.748   0.676 -0.8435  0.1560 -0.6052
  177MOL0     C24349   8.450   4.856   0.771  0.0477 -0.2065  0.5917
  177MOL0     C24350   8.373   4.969   0.832  0.5365  0.3888 -0.5781
  177MOL0     C24351   8.291   5.052   0.731 -0.1596  0.3761 -1.2480
  177MOL0     C24352   8.213   5.163   0.801 -0.5970  0.3477  0.1737
  177MOL0     C24353   8.135   5.234   0.855 -1.3316 -1.1023 -0.5707
  177MOL0     C24354   8.566   4.649   0.454  0.1345 -0.0741 -0.3693
  177MOL0     C24355   8.695   4.629   0.404  0.1517 -0.1005 -0.3975
  177MOL0     C24356   8.738   4.490   0.397 -0.3216  0.1428  0.0352
  177MOL0     H24357   9.200   4.808   0.299  3.4679  0.2712 -1.0927
  177MOL0     H24358   9.433   4.727   0.277 -0.6393  0.9575  0.3816
  177MOL0     H24359   9.481   4.617   0.021 -0.9006 -0.1743  0.4253
  177MOL0     H24360   9.588   4.470  -0.000  3.1451  2.9555 -1.8486
  177MOL0     H24361   9.657   4.686   0.187  2.6444 -0.3798  2.5432
  177MOL0     H24362   9.723   4.523   0.179 -3.0505 -1.5403 -1.0367
  177MOL0     H24363   9.780   4.564  -0.057  0.1180  2.1889 -1.8664
  177MOL0     H24364   9.726   4.729  -0.045 -1.2751 -0.9064 -0.1906
  177MOL0     H24365   9.915   4.745   0.153  0.7107  0.3282 -0.5212
  177MOL0     H24366   9.973   4.588   0.090 -0.6234  0.1915 -0.6982
  177MOL0     H24367   9.926   4.829  -0.091  0.7284 -0.8043 -1.1022
  177MOL0     H24368  10.000   4.685  -0.141 -3.6754 -0.0413 -1.6038
  177MOL0     H24369  10.165   4.784   0.091  1.1077  0.9131  0.2323
  177MOL0     H24370  10.207   4.773  -0.077  1.9487  0.0428  0.8614
  177MOL0     H24371  10.071   4.992   0.078  1.0111  2.3049  0.0058
  177MOL0     H24372  10.071   4.997  -0.099 -1.8559 -1.0717  1.5903
  177MOL0     H24373  10.314   5.033  -0.095 -1.3647  0.9907 -0.5169
  177MOL0     H24374  10.219   5.148  -0.001  0.3515  1.3525  3.8224
  177MOL0     H24375  10.221   5.132   0.266 -1.8547  0.1286 -1.2069
  177MOL0     H24376  10.393   4.937   0.507  0.3880  0.4138  1.8262
  177MOL0     H24377  10.362   5.104   0.494  1.7079 -0.1640  1.0555
  177MOL0     H24378  10.638   5.028   0.410 -0.9895 -2.0828  0.2775
  177MOL0     H24379  10.580   5.176   0.483  4.4670 -1.3838 -1.6457
  177MOL0     H24380  10.604   4.908   0.622  2.3432 -0.4065 -0.5645
  177MOL0     H24381  10.733   5.025   0.597 -0.0965  0.0446 -0.8262
  177MOL0     H24382  10.614   5.078   0.811 -0.1238 -0.2515 -1.2266
  177MOL0     H24383  10.560   5.201   0.697  1.1985  0.4238 -1.6319
  177MOL0     H24384  10.492   5.244   0.936 -0.4644 -2.6921  2.5551
  177MOL0     H24385  10.491   5.466   1.027  0.2499  1.4023  2.3427
  177MOL0     H24386  10.385   5.451   1.164 -1.1078  1.8636  1.0082
  177MOL0     H24387  10.343   5.567   1.031  1.4598  0.6972  0.7124
  177MOL0     H24388   9.724   5.382   0.974 -2.1009  1.5423 -0.6585
  177MOL0     H24389   9.548   5.470   1.123 -0.0300 -1.2436  3.3164
  177MOL0     H24390   9.664   5.654   1.436 -1.2608  0.6835  1.9785
  177MOL0     H24391   9.656   5.825   1.401  2.7428 -0.2665 -2.2935
  177MOL0     H24392   9.510   5.788   1.574 -1.5988 -2.9436  1.7723
  177MOL0     H24393   9.413   5.823   1.431  1.6046  2.7227  0.4990
  177MOL0     H24394   9.410   5.622   1.625  5.5026  5.6099 -0.0432
  177MOL0     H24395   9.486   5.538   1.476  4.5705  1.9269  2.0912
  177MOL0     H24396   9.270   5.627   1.351 -1.4788  4.2027  0.4682
  177MOL0     H24397   9.214   5.689   1.499  1.6056  0.1156  0.7959
  177MOL0     H24398   9.251   5.398   1.445 -0.7539 -0.1141  0.2354
  177MOL0     H24399   9.195   5.475   1.602  1.6092  0.1375  0.8483
  177MOL0     H24400   9.040   5.483   1.339  1.1585 -1.5791 -0.2895
  177MOL0     H24401   9.014   5.585   1.486 -1.3111 -0.0646 -3.4391
  177MOL0     H24402   8.929   5.428   1.601  1.7305  1.9420 -0.6912
  177MOL0     H24403   9.032   5.291   1.540  0.7252  0.6201  0.3208
  177MOL0     H24404   8.781   5.415   1.433 -0.5231 -0.7084 -0.0316
  177MOL0     H24405   8.800   5.245   1.480  0.7671  1.8257  2.0323
  177MOL0     H24406   9.798   5.801   1.235 -1.2346  0.2443  0.1073
  177MOL0     H24407   9.983   5.705   1.129  0.5784 -1.0185  2.6055
  177MOL0     H24408  10.014   5.264   0.845 -0.4676 -0.0206  1.3945
  177MOL0     H24409  10.167   5.105   0.699  4.5256 -2.9225  0.7728
  177MOL0     H24410   9.287   4.318   0.233 -1.2165 -0.8288 -0.3791
  177MOL0     H24411   9.073   4.392   0.327  1.8660 -1.6122  2.2771
  177MOL0     H24412   8.777   4.955   0.361 -0.3541  0.5329 -0.2012
  177MOL0     H24413   8.558   4.986   0.449 -0.1685  0.8388 -2.0888
  177MOL0     H24414   8.275   4.736   0.711 -1.0005  2.1527 -0.2213
  177MOL0     H24415   8.432   4.654   0.683  0.9932  1.2173  0.4022
  177MOL0     H24416   8.534   4.903   0.720 -0.4713 -1.2971 -1.3563
  177MOL0     H24417   8.501   4.808   0.855  0.2387 -0.2563  0.4465
  177MOL0     H24418   8.307   4.926   0.908  2.7965  0.4397  1.5329
  177MOL0     H24419   8.450   5.030   0.882  1.6489 -2.0576  0.8980
  177MOL0     H24420   8.231   4.981   0.673  2.4933 -1.3596 -2.0074
  177MOL0     H24421   8.353   5.111   0.663 -0.7024  2.5599  0.0507
  177MOL0     H24422   8.067   5.290   0.916 -0.7065 -1.2202  0.2440
  177MOL0     H24423   8.496   4.578   0.498 -0.1549 -0.1201 -0.8936
  177MOL0     H24424   8.655   4.419   0.404  0.6806 -1.1319 -0.5119
  177MOL0     H24425   8.770   4.473   0.294 -3.0573  0.5846 -0.9880
  177MOL0     H24426   8.821   4.468   0.465 -0.3767 -1.7410 -0.4548
  178MOL0     O24427   9.893   1.825   1.913  0.2814 -0.2250  0.4132
  178MOL0     C24428   9.890   1.725   1.845  0.6708 -0.8273  0.9166
  178MOL0     O24429   9.872   1.721   1.712 -0.3809 -0.6005  0.1128
  178MOL0     C24430   9.882   1.833   1.629 -0.1199  0.5794  0.7937
  178MOL0     C24431   9.971   1.943   1.645  0.6724 -0.2419  0.6917
  178MOL0     C24432   9.987   2.052   1.556  0.0559  0.1058  0.4390
  178MOL0     C24433   9.927   2.043   1.430 -1.1521 -0.4008  0.2362
  178MOL0     O24434   9.961   2.135   1.335  0.5148 -0.2029 -0.1961
  178MOL0     C24435   9.865   2.168   1.225  0.7070  0.2049 -0.3623
  178MOL0     C24436   9.856   2.313   1.202 -0.5359  0.1982  0.4732
  178MOL0     C24437   9.993   2.362   1.147  0.6355  0.1306 -0.4504
  178MOL0     C24438   9.975   2.490   1.070 -0.8301  0.2687 -1.0559
  178MOL0     C24439  10.120   2.535   1.025 -0.2145 -1.2341  0.9150
  178MOL0     C24440  10.129   2.645   0.919 -1.1211  0.3879  0.1971
  178MOL0     C24441  10.128   2.579   0.773 -0.3131 -0.2459 -0.9825
  178MOL0     C24442  10.129   2.696   0.673  0.4660  0.3208 -0.4416
  178MOL0     N24443  10.162   2.657   0.533  0.2268  0.4872  0.5192
  178MOL0     C24444  10.287   2.638   0.487 -0.0805 -0.3858  1.2075
  178MOL0     C24445  10.269   2.613   0.357 -0.4142 -0.0136  1.1473
  178MOL0     C24446  10.393   2.602   0.270 -0.0945  0.6645  0.0219
  178MOL0     C24447  10.375   2.524   0.148  0.3984 -0.1452  1.0398
  178MOL0     C24448  10.511   2.523   0.074 -0.4930 -0.6672 -0.0951
  178MOL0     C24449  10.505   2.494  -0.075 -0.0991 -0.5789  0.3480
  178MOL0     O24450  10.631   2.483  -0.136 -0.1588 -1.0801  0.2523
  178MOL0     C24451  10.655   2.379  -0.204  0.3317 -0.5304 -0.4920
  178MOL0     C24452  10.697   2.270  -0.125 -0.0317  0.7411 -0.8211
  178MOL0     C24453  10.718   2.147  -0.188  0.3475  0.3428 -0.2124
  178MOL0     C24454  10.730   2.031  -0.085  0.1560  0.7652  0.2271
  178MOL0     C24455  10.705   2.143  -0.326  0.9251 -0.0315  0.6802
  178MOL0     C24456  10.713   2.013  -0.405  0.1498 -0.5124  0.4049
  178MOL0     O24457  10.717   1.890  -0.352 -0.2541  0.6487  0.1684
  178MOL0     C24458  10.714   1.772  -0.424 -0.9556 -0.1100  1.0094
  178MOL0     C24459  10.637   1.661  -0.371 -0.1782 -0.1538 -0.8323
  178MOL0     C24460  10.648   1.535  -0.429 -0.0135 -0.5430  0.6923
  178MOL0     C24461  10.725   1.509  -0.547  0.5243  0.3566  0.2121
  178MOL0     O24462  10.741   1.394  -0.617  0.0284 -0.3032  0.0872
  178MOL0     C24463  10.748   1.274  -0.529 -0.4687 -1.0776  0.1960
  178MOL0     C24464  10.781   1.146  -0.606  0.5984 -0.2934 -0.2205
  178MOL0     C24465  10.811   1.037  -0.510 -0.3689  0.3931  0.3276
  178MOL0     C24466  10.708   0.985  -0.414 -0.7873 -0.1758 -0.2388
  178MOL0     C24467  10.769   0.915  -0.290  0.0846 -0.6006  0.4006
  178MOL0     C24468  10.672   0.890  -0.184  0.0522  0.0632 -0.6445
  178MOL0     C24469  10.569   0.773  -0.211  0.3568 -0.9921  0.0352
  178MOL0     C24470  10.463   0.780  -0.101 -0.6496  0.2012 -0.6870
  178MOL0    Cl24471  10.501   0.672   0.042  0.0115 -0.4646 -0.0432
  178MOL0     C24472  10.785   1.628  -0.609 -0.2655  1.0633 -0.7658
  178MOL0     C24473  10.789   1.751  -0.550  0.1270 -0.5971  0.0969
  178MOL0     O24474  10.725   2.033  -0.528 -0.1369 -1.2703 -0.0093
  178MOL0     C24475  10.691   2.263  -0.405  0.0606  0.1003  0.3015
  178MOL0     C24476  10.665   2.383  -0.344  0.1515  0.2095 -0.3293
  178MOL0     N24477  10.133   2.606   0.319  0.6002  0.0966  0.2140
  178MOL0     N24478  10.069   2.633   0.432 -0.0841  1.0381 -0.0428
  178MOL0     C24479   9.843   1.932   1.406  0.5693  0.3934 -0.5124
  178MOL0     C24480   9.815   1.824   1.503 -0.5754  0.2095 -0.2146
  178MOL0     C24481   9.890   1.597   1.923 -0.6825  0.2337  0.8641
  178MOL0     C24482   9.862   1.481   1.849 -0.4396 -0.2152  0.2387
  178MOL0     C24483   9.861   1.351   1.897 -0.6762 -0.0159 -0.8090
  178MOL0     C24484   9.895   1.331   2.034  0.1066 -0.7227  0.8129
  178MOL0     O24485   9.894   1.203   2.091  0.9555  0.2018  0.6465
  178MOL0     C24486   9.768   1.162   2.145 -0.6095 -0.1656  0.1476
  178MOL0     C24487   9.791   1.081   2.265  0.1512  0.1044  0.7525
  178MOL0     C24488   9.660   1.035   2.328 -0.2014 -0.0446 -0.2819
  178MOL0     C24489   9.669   1.065   2.478 -0.0500 -0.2220 -0.4884
  178MOL0     C24490   9.543   1.019   2.546  0.0187  0.4657  0.0774
  178MOL0     C24491   9.458   0.954   2.611 -0.6751 -0.2985  0.2107
  178MOL0     C24492   9.919   1.446   2.110 -0.0393  0.7505 -0.3289
  178MOL0     C24493   9.928   1.577   2.063 -0.1115 -0.3215  0.1820
  178MOL0     C24494   9.970   1.692   2.161 -0.5286 -0.5956 -0.1612
  178MOL0     H24495  10.040   1.933   1.728  3.7738  0.8079 -1.5993
  178MOL0     H24496  10.064   2.126   1.575 -0.0045  1.5571 -3.8897
  178MOL0     H24497   9.760   2.139   1.239  0.8015 -0.8005 -1.5673
  178MOL0     H24498   9.895   2.118   1.133  0.6633 -1.6632  0.6013
  178MOL0     H24499   9.764   2.331   1.145 -0.4866 -0.3355  0.2210
  178MOL0     H24500   9.839   2.356   1.301 -2.2078 -1.0321  0.7771
  178MOL0     H24501  10.078   2.365   1.215  0.2433  1.9381 -0.0023
  178MOL0     H24502  10.013   2.283   1.073 -2.8770 -0.5885 -0.8106
  178MOL0     H24503   9.911   2.484   0.982 -1.3752  2.6494 -0.8816
  178MOL0     H24504   9.943   2.565   1.143  0.0811 -0.5210  0.2014
  178MOL0     H24505  10.173   2.447   0.986  1.1738  0.6608 -1.7980
  178MOL0     H24506  10.172   2.589   1.105  2.1516  1.9182 -2.3977
  178MOL0     H24507  10.047   2.716   0.936 -3.2555 -1.8184 -0.2850
  178MOL0     H24508  10.224   2.698   0.930  1.1139 -2.6496 -2.7472
  178MOL0     H24509  10.047   2.509   0.749 -0.1663 -0.6535 -0.3204
  178MOL0     H24510  10.218   2.520   0.755 -2.3874 -3.1036 -2.9765
  178MOL0     H24511  10.029   2.739   0.659 -0.4576 -1.3329  0.7422
  178MOL0     H24512  10.204   2.771   0.700  0.2670  0.1901  0.5134
  178MOL0     H24513  10.378   2.638   0.547  2.1336 -1.5608 -1.9048
  178MOL0     H24514  10.471   2.541   0.317 -1.3759 -2.7701 -1.9273
  178MOL0     H24515  10.434   2.703   0.268  1.5976  0.1475  2.7684
  178MOL0     H24516  10.342   2.424   0.177 -2.1629  0.5844  0.8613
  178MOL0     H24517  10.291   2.558   0.088 -0.4683 -1.2119  1.6299
  178MOL0     H24518  10.565   2.614   0.100 -0.8186 -0.6437  0.5311
  178MOL0     H24519  10.564   2.440   0.122 -1.9291 -1.4349  0.2155
  178MOL0     H24520  10.437   2.414  -0.106  2.0443 -1.8647 -1.3243
  178MOL0     H24521  10.459   2.582  -0.121 -1.9138 -0.2647  2.5834
  178MOL0     H24522  10.697   2.281  -0.017  0.0300  0.1657 -0.7558
  178MOL0     H24523  10.633   1.979  -0.079  0.3934 -0.0477 -1.9733
  178MOL0     H24524  10.759   2.072   0.012 -0.5452  0.7337  0.4558
  178MOL0     H24525  10.799   1.956  -0.122 -2.5832 -1.8391 -0.0302
  178MOL0     H24526  10.573   1.691  -0.288  0.0322 -0.3631 -0.5965
  178MOL0     H24527  10.588   1.459  -0.379 -3.9414  2.0642  0.3762
  178MOL0     H24528  10.815   1.293  -0.445 -1.8008  1.7005  0.7282
  178MOL0     H24529  10.643   1.260  -0.501 -0.8752 -1.0694 -1.2434
  178MOL0     H24530  10.699   1.119  -0.673 -0.3869  2.5533 -0.2839
  178MOL0     H24531  10.868   1.164  -0.669  0.2522  2.7571  0.0119
  178MOL0     H24532  10.888   1.084  -0.449 -1.1407  1.2164  0.6881
  178MOL0     H24533  10.870   0.957  -0.556  0.6661  1.5153 -0.3500
  178MOL0     H24534  10.632   0.928  -0.469 -1.4065 -1.2182  1.5978
  178MOL0     H24535  10.652   1.071  -0.376 -0.9935  0.1034 -1.1365
  178MOL0     H24536  10.823   0.826  -0.322  1.4159  1.3284 -3.2832
  178MOL0     H24537  10.838   0.984  -0.240 -0.4385 -0.1260  0.4840
  178MOL0     H24538  10.621   0.986  -0.170  0.3007  0.2504 -1.0051
  178MOL0     H24539  10.726   0.885  -0.089  0.0795  1.9850 -0.5167
  178MOL0     H24540  10.617   0.675  -0.206 -0.1453 -1.2933 -0.8095
  178MOL0     H24541  10.518   0.775  -0.308 -1.1920 -1.8823  0.7923
  178MOL0     H24542  10.359   0.763  -0.133 -0.6745  1.7630 -1.5139
  178MOL0     H24543  10.462   0.882  -0.062 -1.7640 -0.5383  1.3568
  178MOL0     H24544  10.834   1.614  -0.705 -0.0312 -1.0088 -0.3927
  178MOL0     H24545  10.859   1.816  -0.602  0.4111 -2.3842 -1.9043
  178MOL0     H24546  10.711   2.279  -0.510  0.2774  3.6099  0.7703
  178MOL0     H24547  10.645   2.473  -0.402 -0.2906  0.0584 -0.4092
  178MOL0     H24548   9.800   1.931   1.306  0.3310 -0.2313 -0.4075
  178MOL0     H24549   9.756   1.737   1.476 -2.1881  0.1211  3.0042
  178MOL0     H24550   9.843   1.488   1.742 -0.7885 -1.2008  0.2222
  178MOL0     H24551   9.836   1.270   1.830  0.0788 -1.5972  0.7225
  178MOL0     H24552   9.693   1.240   2.162 -0.3680  0.2072 -0.4805
  178MOL0     H24553   9.725   1.100   2.065  1.1581  0.6195 -1.4821
  178MOL0     H24554   9.842   1.141   2.341 -0.7296  3.7569 -1.2570
  178MOL0     H24555   9.855   0.994   2.248 -1.7068 -1.4152  1.2049
  178MOL0     H24556   9.576   1.082   2.275  1.2903  0.5942 -2.2212
  178MOL0     H24557   9.638   0.928   2.323 -0.6743  0.1002 -2.3764
  178MOL0     H24558   9.675   1.173   2.496 -1.5361  0.3600 -2.9486
  178MOL0     H24559   9.746   1.008   2.530  1.1008  1.8244  0.1563
  178MOL0     H24560   9.381   0.904   2.666 -1.6671  1.4475  0.4631
  178MOL0     H24561   9.939   1.426   2.215 -1.0560 -2.9670 -0.6948
  178MOL0     H24562   9.887   1.756   2.192 -0.9798 -1.9825  1.7417
  178MOL0     H24563   9.992   1.658   2.263 -0.9258 -0.6001 -0.0718
  178MOL0     H24564  10.045   1.756   2.115 -2.6081 -0.5574 -3.8921
  179MOL0     O24565   0.270   9.066  11.288 -0.2301  0.0913  0.0866
  179MOL0     C24566   0.270   9.003  11.395 -0.6935  0.9071  0.0306
  179MOL0     O24567   0.291   9.056  11.524 -0.2095  0.2376 -0.2301
  179MOL0     C24568   0.235   9.180  11.544  0.4542 -0.7443 -0.0441
  179MOL0     C24569   0.109   9.181  11.605 -0.2540 -0.5929  0.3248
  179MOL0     C24570   0.039   9.298  11.621  0.0004  0.5625  0.1818
  179MOL0     C24571   0.082   9.410  11.558 -0.0544 -1.1619 -0.3996
  179MOL0     O24572   0.015   9.525  11.561  0.0830  0.1785  0.8905
  179MOL0     C24573   0.038   9.611  11.679 -0.0361 -0.3971 -0.1841
  179MOL0     C24574  -0.064   9.578  11.797  0.5573  0.1755  0.8951
  179MOL0     C24575  -0.207   9.631  11.786 -0.9290  1.3578 -0.0947
  179MOL0     C24576  -0.286   9.521  11.713 -0.3170 -0.9017 -0.2014
  179MOL0     C24577  -0.434   9.563  11.678 -1.3669 -0.4469  0.5161
  179MOL0     C24578  -0.501   9.433  11.615 -1.0932 -0.0359 -0.7069
  179MOL0     C24579  -0.442   9.390  11.482 -0.2494 -0.2386  0.2133
  179MOL0     C24580  -0.428   9.507  11.393 -1.0474  0.2543 -0.9924
  179MOL0     N24581  -0.453   9.470  11.255 -0.2567  0.7303 -1.2330
  179MOL0     C24582  -0.348   9.473  11.159  0.7173  0.4444 -0.0692
  179MOL0     C24583  -0.408   9.452  11.036  0.3041  0.3847  0.0055
  179MOL0     C24584  -0.338   9.475  10.903  0.2949 -0.1289  0.6881
  179MOL0     C24585  -0.438   9.437  10.787  0.6416 -1.2523  0.3829
  179MOL0     C24586  -0.358   9.429  10.653 -0.0215  0.0027 -1.1634
  179MOL0     C24587  -0.440   9.393  10.533 -0.2325 -0.3244 -0.4498
  179MOL0     O24588  -0.367   9.434  10.413 -0.0961  0.6017  0.1513
  179MOL0     C24589  -0.392   9.368  10.296  0.3270 -0.4803  0.5181
  179MOL0     C24590  -0.503   9.287  10.276  0.4726 -1.2251  1.1844
  179MOL0     C24591  -0.533   9.240  10.144  0.2838  0.1277 -0.0263
  179MOL0     C24592  -0.670   9.180  10.119  0.2532  0.1849  0.4075
  179MOL0     C24593  -0.441   9.270  10.044  0.4003  0.7634 -0.2863
  179MOL0     C24594  -0.465   9.220   9.916  0.0375  0.4492  0.4439
  179MOL0     O24595  -0.478   9.084   9.890 -0.8442 -0.1045 -0.0496
  179MOL0     C24596  -0.530   9.049   9.769  0.5883 -0.1671  0.1795
  179MOL0     C24597  -0.669   9.048   9.748  0.7945 -0.9034 -0.4969
  179MOL0     C24598  -0.712   9.015   9.614 -0.2493 -0.7037 -0.3104
  179MOL0     C24599  -0.622   8.976   9.520 -1.1874  0.2836  0.3362
  179MOL0     O24600  -0.677   8.939   9.401 -0.0489  0.1291 -0.9227
  179MOL0     C24601  -0.606   8.945   9.281  0.5736 -0.3647 -0.0598
  179MOL0     C24602  -0.701   8.933   9.166  0.2444 -0.8862  0.2841
  179MOL0     C24603  -0.629   8.931   9.028  0.8431 -0.4809 -0.2219
  179MOL0     C24604  -0.595   9.072   8.975 -0.2065 -0.4749 -0.4214
  179MOL0     C24605  -0.513   9.061   8.847 -0.7125  0.8308 -0.1659
  179MOL0     C24606  -0.467   9.197   8.811  0.9017  0.0549 -0.5019
  179MOL0     C24607  -0.353   9.255   8.898  0.2512  0.9414  0.1101
  179MOL0     C24608  -0.286   9.377   8.843  0.6014  0.6024  0.1540
  179MOL0    Cl24609  -0.376   9.530   8.840  0.1928  0.2448 -0.2821
  179MOL0     C24610  -0.483   8.966   9.545 -0.5319  0.3805 -0.6017
  179MOL0     C24611  -0.439   9.002   9.672 -0.2231  0.8091 -0.1474
  179MOL0     O24612  -0.473   9.311   9.826  0.0377  0.4114 -0.5193
  179MOL0     C24613  -0.333   9.352  10.065  0.3485 -0.0952 -0.3743
  179MOL0     C24614  -0.306   9.397  10.193  0.6319 -0.0581 -0.4385
  179MOL0     N24615  -0.542   9.436  11.062 -0.0590  0.0028 -0.4914
  179MOL0     N24616  -0.566   9.429  11.191 -0.2301 -0.0020  0.2815
  179MOL0     C24617   0.204   9.413  11.487  1.0044  0.0215 -0.1541
  179MOL0     C24618   0.284   9.296  11.493 -0.0848  0.5011  0.5902
  179MOL0     C24619   0.269   8.856  11.379 -0.8458  0.2060  0.6851
  179MOL0     C24620   0.147   8.802  11.365 -0.0261  0.7106  0.0729
  179MOL0     C24621   0.136   8.667  11.357 -0.2098  0.4745  0.4081
  179MOL0     C24622   0.241   8.584  11.332 -0.5957  0.1439 -0.9071
  179MOL0     O24623   0.239   8.446  11.317  0.6224 -0.2871  0.0933
  179MOL0     C24624   0.110   8.396  11.289  0.2410 -0.9567 -0.2009
  179MOL0     C24625   0.118   8.269  11.210 -0.2604  0.0914  0.2471
  179MOL0     C24626   0.125   8.148  11.298 -0.1367  0.7516  0.4119
  179MOL0     C24627   0.245   8.125  11.391 -0.0226  1.0338  0.1940
  179MOL0     C24628   0.204   8.027  11.491  0.2198 -0.1235  0.0904
  179MOL0     C24629   0.191   7.950  11.577 -0.7505 -0.2667 -0.7204
  179MOL0     C24630   0.371   8.643  11.358 -0.3456 -0.8629 -0.6960
  179MOL0     C24631   0.386   8.777  11.386  0.6632  0.1530  0.3488
  179MOL0     C24632   0.524   8.835  11.398 -0.0131  0.0958 -0.7153
  179MOL0     H24633   0.076   9.085  11.643  1.0223 -1.8189 -1.4717
  179MOL0     H24634  -0.063   9.293  11.658 -0.6070  4.7104 -0.4360
  179MOL0     H24635   0.029   9.719  11.664  3.7261 -0.0412 -0.7599
  179MOL0     H24636   0.137   9.589  11.718 -0.1493  1.0188  0.9795
  179MOL0     H24637  -0.062   9.469  11.807  0.8880 -0.2725 -2.7018
  179MOL0     H24638  -0.014   9.618  11.886  0.5455  1.2148  0.4524
  179MOL0     H24639  -0.230   9.624  11.893  0.7068 -0.0480  0.2254
  179MOL0     H24640  -0.219   9.735  11.755 -1.2443  1.2116 -0.4678
  179MOL0     H24641  -0.226   9.492  11.627  2.3506 -4.9484  2.6338
  179MOL0     H24642  -0.282   9.429  11.774 -0.9164  0.0628  1.3694
  179MOL0     H24643  -0.439   9.652  11.616  0.7914 -0.6987 -0.0975
  179MOL0     H24644  -0.497   9.585  11.765 -0.6094 -1.5123  1.3673
  179MOL0     H24645  -0.494   9.346  11.681 -0.7418 -1.5599 -2.6487
  179MOL0     H24646  -0.608   9.447  11.599 -1.5643 -0.1627  2.0141
  179MOL0     H24647  -0.515   9.318  11.446 -1.8814  2.1839 -1.6956
  179MOL0     H24648  -0.345   9.343  11.495  0.6338  1.5462  0.4706
  179MOL0     H24649  -0.497   9.584  11.428  1.0427  1.5363  0.6007
  179MOL0     H24650  -0.327   9.549  11.405 -1.5524  1.4327 -0.7192
  179MOL0     H24651  -0.248   9.514  11.167  0.3553  1.6286 -1.1751
  179MOL0     H24652  -0.248   9.414  10.893  1.7972  1.5115  3.2081
  179MOL0     H24653  -0.293   9.574  10.894 -0.1992  0.1383  1.0819
  179MOL0     H24654  -0.487   9.340  10.798 -1.5695 -0.8348 -3.7884
  179MOL0     H24655  -0.517   9.511  10.776 -0.1271 -2.3141 -2.2999
  179MOL0     H24656  -0.303   9.522  10.633 -1.9634  1.3124 -0.7400
  179MOL0     H24657  -0.284   9.348  10.658  2.4698  1.9404 -3.2865
  179MOL0     H24658  -0.452   9.284  10.539  0.2033 -0.3055  1.4230
  179MOL0     H24659  -0.537   9.442  10.534  0.1163  0.3726 -0.5308
  179MOL0     H24660  -0.570   9.272  10.360  2.0344  3.4624  3.6059
  179MOL0     H24661  -0.730   9.175  10.211 -0.3047  3.0415  0.3109
  179MOL0     H24662  -0.647   9.080  10.083  2.6149  1.2151 -1.2315
  179MOL0     H24663  -0.724   9.229  10.037  0.0397  0.1098  0.5016
  179MOL0     H24664  -0.738   9.080   9.826  1.9051 -0.1853  0.2183
  179MOL0     H24665  -0.817   9.032   9.590  0.2263  5.5000  0.3027
  179MOL0     H24666  -0.559   9.044   9.285  0.0105 -0.0298 -1.4255
  179MOL0     H24667  -0.523   8.876   9.267  3.5166  2.8510  0.1031
  179MOL0     H24668  -0.748   8.835   9.179  1.2459 -1.6876 -1.7232
  179MOL0     H24669  -0.773   9.016   9.160  1.5246  0.3633  1.5339
  179MOL0     H24670  -0.704   8.892   8.958 -3.3377  4.1152  1.0988
  179MOL0     H24671  -0.541   8.866   9.023  1.9036  0.9962 -2.8575
  179MOL0     H24672  -0.535   9.113   9.058  1.9516  0.4636 -2.3251
  179MOL0     H24673  -0.686   9.131   8.963  0.3458  0.5950  0.3615
  179MOL0     H24674  -0.435   8.985   8.858 -1.2873  0.1930 -0.4650
  179MOL0     H24675  -0.578   9.015   8.772  0.2079  3.2475 -2.6449
  179MOL0     H24676  -0.557   9.258   8.816 -0.9379 -2.3865 -1.6632
  179MOL0     H24677  -0.432   9.201   8.708 -3.1283 -0.5645 -2.0907
  179MOL0     H24678  -0.283   9.178   8.931  1.1009  2.3611  1.7340
  179MOL0     H24679  -0.393   9.280   8.996  2.5619  1.1498  1.0570
  179MOL0     H24680  -0.241   9.358   8.746 -0.6972 -0.1032 -0.3279
  179MOL0     H24681  -0.206   9.392   8.917  1.1581 -3.8975  0.7369
  179MOL0     H24682  -0.424   8.925   9.464 -0.3416 -2.7084  0.9577
  179MOL0     H24683  -0.333   9.002   9.697  0.0961 -1.2080 -1.2723
  179MOL0     H24684  -0.269   9.380   9.982  0.1287  2.4504  0.2160
  179MOL0     H24685  -0.222   9.465  10.207 -0.0434  0.7084 -0.0706
  179MOL0     H24686   0.243   9.504  11.442 -1.3957  1.0820 -0.2556
  179MOL0     H24687   0.373   9.297  11.432 -1.4011  0.3242 -1.4473
  179MOL0     H24688   0.051   8.850  11.384 -0.3354 -0.3942  1.4439
  179MOL0     H24689   0.035   8.629  11.373 -1.4248  1.7362 -3.1562
  179MOL0     H24690   0.064   8.387  11.388  0.3194  1.1608  0.0879
  179MOL0     H24691   0.054   8.470  11.230  0.4613 -0.7656 -0.1711
  179MOL0     H24692   0.209   8.282  11.152 -0.2904  0.9261  0.3704
  179MOL0     H24693   0.030   8.255  11.147 -0.3807 -0.4369  0.5272
  179MOL0     H24694   0.031   8.164  11.353 -1.3744 -0.2639 -1.3090
  179MOL0     H24695   0.118   8.064  11.229  1.4954  0.1756  0.9127
  179MOL0     H24696   0.263   8.217  11.447 -2.1018  1.5169  0.1859
  179MOL0     H24697   0.330   8.090  11.332  0.1438  1.3697  0.2325
  179MOL0     H24698   0.198   7.880  11.657 -0.0782 -2.3513 -2.4998
  179MOL0     H24699   0.461   8.584  11.365  0.4492  0.1190 -2.1665
  179MOL0     H24700   0.524   8.929  11.454 -2.1305  0.3913 -1.1181
  179MOL0     H24701   0.612   8.786  11.440  0.3051  1.0028 -0.2960
  179MOL0     H24702   0.572   8.857  11.303 -0.4384 -1.8751 -1.4219
  180MOL0     O24703   8.086   9.938   7.025 -0.1872 -0.2091  0.5474
  180MOL0     C24704   7.967   9.902   7.035 -0.7721 -1.2475 -0.2779
  180MOL0     O24705   7.920   9.815   7.127  0.9237  0.0433  0.4576
  180MOL0     C24706   7.997   9.771   7.235 -0.1835 -0.4566 -0.1250
  180MOL0     C24707   7.933   9.763   7.360 -0.0745  0.2732 -1.0344
  180MOL0     C24708   8.009   9.729   7.472 -0.4606  0.2238 -0.0193
  180MOL0     C24709   8.146   9.706   7.466 -0.3039  0.0019  0.2355
  180MOL0     O24710   8.223   9.675   7.570 -0.3347 -0.2937 -0.6580
  180MOL0     C24711   8.319   9.782   7.600  0.8024  0.4621  0.6686
  180MOL0     C24712   8.441   9.730   7.672 -0.9395 -0.0909  0.6500
  180MOL0     C24713   8.567   9.669   7.602  0.5004  0.1160 -0.7032
  180MOL0     C24714   8.544   9.538   7.539  0.6102  0.3485  0.3333
  180MOL0     C24715   8.666   9.478   7.469 -0.9567  0.6704  0.8061
  180MOL0     C24716   8.723   9.566   7.358  0.1557  1.0581 -0.2752
  180MOL0     C24717   8.839   9.505   7.293  0.4553  0.3625  0.6200
  180MOL0     C24718   8.850   9.561   7.148  0.0845  0.2830 -0.1499
  180MOL0     N24719   8.969   9.505   7.079  0.7367 -0.0781 -0.5279
  180MOL0     C24720   9.101   9.505   7.118  1.0292 -0.0433 -0.2242
  180MOL0     C24721   9.167   9.453   7.013 -0.0618  0.0888  0.4417
  180MOL0     C24722   9.305   9.408   7.021 -1.1265 -0.3849 -0.6065
  180MOL0     C24723   9.394   9.452   6.903  0.4565 -0.0323 -0.1572
  180MOL0     C24724   9.534   9.385   6.906  1.0912 -0.4008  0.4828
  180MOL0     C24725   9.641   9.430   6.802 -0.3231 -0.2590  0.0978
  180MOL0     O24726   9.773   9.375   6.814 -0.4975 -0.2089 -0.3636
  180MOL0     C24727   9.859   9.394   6.919 -0.2789 -0.6557 -0.2671
  180MOL0     C24728   9.970   9.308   6.908 -1.0559 -0.1180 -0.9328
  180MOL0     C24729  10.073   9.303   7.005  1.6469 -0.7210  0.1721
  180MOL0     C24730  10.189   9.219   6.980 -0.3778 -0.6051  0.6427
  180MOL0     C24731  10.059   9.385   7.116  0.5183 -0.2599  0.2274
  180MOL0     C24732  10.147   9.394   7.236 -0.5795  0.4433  0.5369
  180MOL0     O24733  10.111   9.485   7.333  0.7115  0.0449  0.4175
  180MOL0     C24734  10.184   9.488   7.448  0.2259  0.1848  0.3096
  180MOL0     C24735  10.126   9.491   7.568  0.4728  0.7383 -0.7584
  180MOL0     C24736  10.184   9.498   7.687  0.8265 -0.5441 -0.2507
  180MOL0     C24737  10.327   9.500   7.686 -1.0358  0.5323  0.7853
  180MOL0     O24738  10.401   9.519   7.801  0.4018  0.1891  0.0713
  180MOL0     C24739  10.365   9.636   7.877  0.1830 -0.7802 -0.6513
  180MOL0     C24740  10.422   9.763   7.821 -0.2257  0.0240  0.1460
  180MOL0     C24741  10.498   9.836   7.929  0.1807 -0.1435 -0.0363
  180MOL0     C24742  10.422   9.904   8.057  0.7314 -0.3793  0.2524
  180MOL0     C24743  10.496  10.022   8.119 -0.1503  0.3584  0.2136
  180MOL0     C24744  10.517  10.141   8.021  0.3101  0.6715 -0.4652
  180MOL0     C24745  10.590  10.252   8.093 -0.0017 -0.6382 -0.3958
  180MOL0     C24746  10.668  10.349   7.997  0.1929 -0.6267  0.4314
  180MOL0    Cl24747  10.694  10.508   8.086 -0.1908  0.0230 -0.3893
  180MOL0     C24748  10.394   9.488   7.562  0.3779 -0.9930 -0.2457
  180MOL0     C24749  10.325   9.497   7.447 -0.3043 -0.4949  0.0203
  180MOL0     O24750  10.233   9.311   7.254 -0.1427  0.1984  0.8240
  180MOL0     C24751   9.945   9.475   7.128 -0.7174  0.5722  0.8138
  180MOL0     C24752   9.846   9.476   7.025  0.7688  0.3564  0.1053
  180MOL0     N24753   9.078   9.424   6.911 -0.2973  0.0785  0.1094
  180MOL0     N24754   8.962   9.466   6.954 -0.0506 -0.0756  0.1595
  180MOL0     C24755   8.204   9.706   7.338  0.2291  0.0818  0.7565
  180MOL0     C24756   8.129   9.743   7.227 -1.0385  0.3270  0.1436
  180MOL0     C24757   7.870   9.935   6.918  0.1201  0.2553 -0.1776
  180MOL0     C24758   7.737   9.934   6.963  0.1014 -0.3490 -0.0424
  180MOL0     C24759   7.629   9.948   6.866 -0.6075  0.0433 -0.7813
  180MOL0     C24760   7.656   9.958   6.728 -0.1808 -0.1509 -0.8049
  180MOL0     O24761   7.557   9.977   6.633 -0.6336 -0.1402  0.7764
  180MOL0     C24762   7.428   9.917   6.629 -0.5637 -0.4908 -0.4464
  180MOL0     C24763   7.403   9.821   6.522  0.3986 -0.0132 -0.0291
  180MOL0     C24764   7.498   9.697   6.523 -0.6855 -0.2800  0.0501
  180MOL0     C24765   7.492   9.613   6.651 -0.9225 -0.0164 -0.4367
  180MOL0     C24766   7.363   9.561   6.668  0.4590 -0.2566  0.8616
  180MOL0     C24767   7.252   9.513   6.696  0.1175 -1.2792  0.4817
  180MOL0     C24768   7.793   9.969   6.692 -0.7368  0.8063  0.5378
  180MOL0     C24769   7.899   9.966   6.783 -0.1970  1.1965  0.0467
  180MOL0     C24770   8.040   9.969   6.743  0.2500  0.4909 -0.4237
  180MOL0     H24771   7.826   9.773   7.375 -0.5016 -1.3863 -2.5903
  180MOL0     H24772   7.957   9.716   7.566  0.8850 -3.1312  0.3815
  180MOL0     H24773   8.280   9.865   7.659  1.7868 -0.1511  2.2206
  180MOL0     H24774   8.352   9.832   7.508 -0.1689 -2.2805 -1.2858
  180MOL0     H24775   8.472   9.822   7.723  2.2542 -0.0134 -1.2005
  180MOL0     H24776   8.416   9.645   7.736 -0.1118 -2.3996 -1.9173
  180MOL0     H24777   8.600   9.750   7.537 -0.6815  2.4957  1.4764
  180MOL0     H24778   8.638   9.656   7.684  0.0138  0.8041 -0.1605
  180MOL0     H24779   8.505   9.464   7.609  0.7120 -0.0467 -0.0229
  180MOL0     H24780   8.460   9.537   7.469 -1.0787  0.3866  2.2806
  180MOL0     H24781   8.640   9.382   7.424  0.9071  1.3095 -1.8605
  180MOL0     H24782   8.746   9.459   7.541  1.3431  0.0375 -1.7632
  180MOL0     H24783   8.634   9.577   7.294 -0.4258 -0.4701  0.2171
  180MOL0     H24784   8.765   9.657   7.401 -1.7479  1.5906  0.6094
  180MOL0     H24785   8.833   9.396   7.287  0.0998  0.4291 -0.3225
  180MOL0     H24786   8.929   9.534   7.349  0.7612  1.8506 -0.5514
  180MOL0     H24787   8.759   9.548   7.090 -0.6409 -2.3889  1.4049
  180MOL0     H24788   8.861   9.670   7.141 -2.9088  0.6640 -0.3021
  180MOL0     H24789   9.143   9.522   7.217  1.5919 -1.7311 -0.1293
  180MOL0     H24790   9.304   9.299   7.026  0.3495 -0.3581  1.2400
  180MOL0     H24791   9.349   9.449   7.113 -1.1978  1.0150 -1.1589
  180MOL0     H24792   9.336   9.445   6.811 -0.5683  0.4671  0.4441
  180MOL0     H24793   9.413   9.559   6.915  1.7464 -0.0127 -1.8719
  180MOL0     H24794   9.578   9.401   7.005  0.9582 -0.8392  0.6146
  180MOL0     H24795   9.502   9.284   6.879 -0.1710  0.3184 -0.8649
  180MOL0     H24796   9.594   9.403   6.707 -1.0404 -0.8429  0.6018
  180MOL0     H24797   9.660   9.536   6.817  0.6074 -0.2233 -1.2019
  180MOL0     H24798   9.973   9.255   6.813  2.8743  2.0445 -2.2456
  180MOL0     H24799  10.278   9.281   6.982 -0.7053 -0.1110  2.5434
  180MOL0     H24800  10.185   9.163   6.886  1.2035 -0.5039  0.4978
  180MOL0     H24801  10.194   9.149   7.065 -0.2571 -0.1207  1.0397
  180MOL0     H24802  10.018   9.485   7.576  0.5720 -1.7630 -0.3720
  180MOL0     H24803  10.115   9.508   7.771 -2.3777 -0.5218 -2.6741
  180MOL0     H24804  10.256   9.651   7.870  0.3895  3.3697  1.7503
  180MOL0     H24805  10.374   9.617   7.985 -0.4457  2.9347  0.2066
  180MOL0     H24806  10.490   9.741   7.738 -1.1420 -2.0232 -0.1158
  180MOL0     H24807  10.340   9.823   7.780 -0.4603 -0.8617 -0.7303
  180MOL0     H24808  10.551   9.922   7.887 -3.3434  2.4179  0.1991
  180MOL0     H24809  10.571   9.773   7.980 -0.8331  0.4350  2.3303
  180MOL0     H24810  10.408   9.826   8.132  0.1959  0.1164  0.6751
  180MOL0     H24811  10.321   9.928   8.024  0.9423  2.2360  1.2566
  180MOL0     H24812  10.438  10.055   8.207 -2.3894  1.4679 -1.5666
  180MOL0     H24813  10.596   9.987   8.145 -0.6093 -0.9615  0.2466
  180MOL0     H24814  10.434  10.184   7.963 -0.8445 -1.7247 -0.6852
  180MOL0     H24815  10.592  10.104   7.951  0.0891 -0.9008  0.0990
  180MOL0     H24816  10.657  10.203   8.165  0.1928 -0.5446 -0.5103
  180MOL0     H24817  10.517  10.309   8.151 -0.2353  0.1156 -1.4132
  180MOL0     H24818  10.609  10.368   7.907  1.9858  2.4369 -0.2644
  180MOL0     H24819  10.767  10.306   7.977  1.5904  2.6872 -0.6758
  180MOL0     H24820  10.499   9.467   7.544  0.2531 -1.1656 -0.7815
  180MOL0     H24821  10.375   9.499   7.350  1.8108 -3.1543  0.9114
  180MOL0     H24822   9.926   9.546   7.207 -0.8361  2.4459 -0.8118
  180MOL0     H24823   9.756   9.535   7.039  0.1628 -0.6578  0.5994
  180MOL0     H24824   8.310   9.689   7.322  0.2579  2.0518 -1.9726
  180MOL0     H24825   8.171   9.737   7.127  0.2176 -1.1818  0.7375
  180MOL0     H24826   7.713   9.911   7.067  2.9543  1.0727  1.0420
  180MOL0     H24827   7.528   9.947   6.907 -0.0896 -2.5622  0.6592
  180MOL0     H24828   7.392   9.881   6.725 -0.8969 -0.5336 -0.5865
  180MOL0     H24829   7.353   9.995   6.609 -0.3167 -0.0680  0.2513
  180MOL0     H24830   7.406   9.869   6.424  1.5043 -1.2082 -0.6170
  180MOL0     H24831   7.299   9.789   6.533  0.0713  0.1483 -2.3243
  180MOL0     H24832   7.483   9.634   6.435  0.1529 -0.6223  0.1423
  180MOL0     H24833   7.589   9.752   6.498  0.0514 -1.9550 -1.1083
  180MOL0     H24834   7.528   9.670   6.737 -1.5814 -1.0956  0.5908
  180MOL0     H24835   7.563   9.530   6.642  2.3288  1.9123  3.8929
  180MOL0     H24836   7.162   9.470   6.736 -1.8825  2.1270  0.0900
  180MOL0     H24837   7.809   9.995   6.588  0.2248 -1.3338  0.1091
  180MOL0     H24838   8.091  10.046   6.802 -0.6755 -0.6605  2.0313
  180MOL0     H24839   8.086   9.875   6.774  0.3933  0.8044  0.3601
  180MOL0     H24840   8.053   9.989   6.637  0.5873 -2.5189 -1.0252
  181MOL0     O24841   0.600   2.607   6.218  0.3486  0.1998  0.1258
  181MOL0     C24842   0.641   2.516   6.286 -0.2932  0.4045 -0.7325
  181MOL0     O24843   0.674   2.537   6.416 -0.3729  0.5413  0.2386
  181MOL0     C24844   0.669   2.658   6.470  0.0504 -0.2509  0.7307
  181MOL0     C24845   0.546   2.725   6.478 -1.0016 -0.2752  0.6975
  181MOL0     C24846   0.541   2.849   6.539  0.0034 -0.7570  0.9487
  181MOL0     C24847   0.647   2.904   6.612  0.2759 -0.7227 -0.0155
  181MOL0     O24848   0.629   3.021   6.681  0.5974 -0.2330  0.4364
  181MOL0     C24849   0.734   3.090   6.741 -0.7976 -0.0452  0.2008
  181MOL0     C24850   0.686   3.193   6.837  0.9177 -0.4501  0.3479
  181MOL0     C24851   0.796   3.297   6.876  0.2681  0.0627  0.6197
  181MOL0     C24852   0.737   3.387   6.984  0.4333 -0.7676  0.2981
  181MOL0     C24853   0.796   3.527   6.986  0.3476 -0.5107  0.5344
  181MOL0     C24854   0.948   3.510   6.990  0.4067 -0.9772  0.2082
  181MOL0     C24855   1.012   3.425   7.096 -0.0578  0.0662 -0.2480
  181MOL0     C24856   0.955   3.457   7.230 -0.4305  0.1014 -0.2772
  181MOL0     N24857   1.026   3.384   7.334  0.0657  0.5470 -0.2593
  181MOL0     C24858   1.158   3.414   7.369  0.7476 -1.0235  0.0781
  181MOL0     C24859   1.180   3.338   7.480 -0.8162 -0.1571  0.6211
  181MOL0     C24860   1.317   3.346   7.538  0.2055  0.3773 -0.2457
  181MOL0     C24861   1.336   3.251   7.660 -0.7478 -0.3530 -0.0492
  181MOL0     C24862   1.472   3.232   7.721 -1.1620 -0.2250  0.0910
  181MOL0     C24863   1.488   3.095   7.800  0.4371 -0.7004 -0.5652
  181MOL0     O24864   1.375   3.096   7.892  0.6205 -1.7260 -1.1135
  181MOL0     C24865   1.358   2.986   7.971  0.2672 -0.2888 -0.3519
  181MOL0     C24866   1.431   2.863   7.971 -0.6630 -0.8837 -0.3685
  181MOL0     C24867   1.389   2.755   8.050 -0.1313  0.2244 -0.4414
  181MOL0     C24868   1.450   2.616   8.026 -0.3324  0.3409  0.6786
  181MOL0     C24869   1.288   2.764   8.147 -0.5917 -0.2169 -0.4070
  181MOL0     C24870   1.253   2.668   8.253 -0.4519 -0.5069 -0.4940
  181MOL0     O24871   1.122   2.651   8.270  0.3909 -0.4981  0.3117
  181MOL0     C24872   1.065   2.574   8.366 -0.2867  0.1030  0.1828
  181MOL0     C24873   1.099   2.583   8.502  0.3261 -0.2537 -0.0146
  181MOL0     C24874   1.032   2.509   8.602  0.2321 -0.1458  0.5570
  181MOL0     C24875   0.948   2.405   8.573 -0.1357  0.3753  0.3771
  181MOL0     O24876   0.892   2.321   8.663 -0.4781  0.4218 -0.2505
  181MOL0     C24877   0.890   2.357   8.800  0.0253 -0.3847 -0.6565
  181MOL0     C24878   0.817   2.265   8.889  0.3115  0.7283 -0.1170
  181MOL0     C24879   0.880   2.120   8.895  0.3188  0.7223  0.6408
  181MOL0     C24880   0.751   2.028   8.920 -0.6089 -0.0144  0.0013
  181MOL0     C24881   0.696   2.041   9.064  0.5262  0.1447  0.0548
  181MOL0     C24882   0.633   1.913   9.113  0.2529  0.1960 -0.1289
  181MOL0     C24883   0.726   1.795   9.136  0.3217  0.5447  0.9678
  181MOL0     C24884   0.713   1.753   9.283 -0.1581  0.5675  0.8526
  181MOL0    Cl24885   0.805   1.614   9.325 -0.6410 -0.2306  0.2740
  181MOL0     C24886   0.910   2.386   8.438 -0.4080  0.0381 -0.3717
  181MOL0     C24887   0.969   2.473   8.334 -0.7349 -0.6385  0.7040
  181MOL0     O24888   1.338   2.622   8.332 -0.3965  0.5152 -0.1455
  181MOL0     C24889   1.221   2.884   8.141 -0.9345 -0.2845 -0.4188
  181MOL0     C24890   1.253   2.995   8.053  0.0283  0.1879 -0.0629
  181MOL0     N24891   1.078   3.245   7.495  0.4577 -1.1223  0.6745
  181MOL0     N24892   0.982   3.286   7.415 -0.0410 -0.0380  0.2044
  181MOL0     C24893   0.765   2.834   6.604 -1.0059 -0.0886 -0.3264
  181MOL0     C24894   0.779   2.716   6.529  0.2918 -0.4723  0.0938
  181MOL0     C24895   0.658   2.387   6.217 -0.5658 -0.5361  0.4257
  181MOL0     C24896   0.756   2.296   6.260  0.7168 -0.6576 -1.1684
  181MOL0     C24897   0.763   2.170   6.214 -0.3637  0.5081  0.5329
  181MOL0     C24898   0.682   2.122   6.109 -0.6146  0.3049  0.4045
  181MOL0     O24899   0.688   1.989   6.070  0.3972 -0.5436  0.0362
  181MOL0     C24900   0.567   1.914   6.053  0.6534 -1.0823 -0.5829
  181MOL0     C24901   0.609   1.772   6.019 -0.1315 -0.0433 -0.2520
  181MOL0     C24902   0.686   1.702   6.132  0.1478  0.6058  0.3227
  181MOL0     C24903   0.725   1.559   6.104 -0.4429  0.4678  1.4094
  181MOL0     C24904   0.608   1.474   6.078  0.0691 -0.8119 -0.1281
  181MOL0     C24905   0.506   1.394   6.070  0.4414 -0.7026  0.2735
  181MOL0     C24906   0.586   2.210   6.055  0.6495 -0.3496 -1.3488
  181MOL0     C24907   0.572   2.341   6.112  0.0874  0.2898 -0.0943
  181MOL0     C24908   0.457   2.418   6.058  0.0452  0.6551 -0.8004
  181MOL0     H24909   0.465   2.675   6.426 -0.4669  0.0467 -0.4704
  181MOL0     H24910   0.445   2.898   6.526  0.1874 -0.8697 -1.2678
  181MOL0     H24911   0.795   3.139   6.664  0.2775 -0.6391  0.6538
  181MOL0     H24912   0.803   3.023   6.793  1.6971  2.5323  0.4920
  181MOL0     H24913   0.599   3.241   6.792  1.1375 -0.5127 -0.1452
  181MOL0     H24914   0.653   3.146   6.930  1.8003  0.3091  1.0729
  181MOL0     H24915   0.880   3.235   6.911 -1.4087 -2.3512  0.6153
  181MOL0     H24916   0.833   3.352   6.789  2.5728 -2.2112  0.0122
  181MOL0     H24917   0.631   3.403   6.961 -0.1949 -3.6960  0.7548
  181MOL0     H24918   0.735   3.326   7.075 -0.5048 -3.4320 -1.3921
  181MOL0     H24919   0.763   3.580   7.076 -2.8079 -2.3688  0.6351
  181MOL0     H24920   0.769   3.579   6.894  0.9023 -0.6896  0.2691
  181MOL0     H24921   0.981   3.479   6.890  2.3441  0.9042  0.1892
  181MOL0     H24922   0.990   3.610   6.999  1.0410 -0.9064 -2.5204
  181MOL0     H24923   1.117   3.454   7.101 -0.6835  2.3065  3.5662
  181MOL0     H24924   0.994   3.319   7.074 -1.7412  0.2958 -0.1483
  181MOL0     H24925   0.967   3.560   7.265  0.6093  0.7202 -2.3022
  181MOL0     H24926   0.851   3.425   7.238 -0.3019  0.0995  2.3477
  181MOL0     H24927   1.220   3.481   7.310 -0.5211  1.0233  0.9489
  181MOL0     H24928   1.340   3.450   7.563  2.6258 -0.6847  2.5037
  181MOL0     H24929   1.384   3.322   7.454  0.5891  4.8408 -1.4942
  181MOL0     H24930   1.268   3.263   7.745  2.9419 -0.8216  3.2043
  181MOL0     H24931   1.320   3.151   7.619 -1.3015  0.3201 -1.5694
  181MOL0     H24932   1.544   3.225   7.639 -1.8592 -0.4495 -0.5113
  181MOL0     H24933   1.492   3.323   7.779  2.5405 -1.9064  1.8160
  181MOL0     H24934   1.481   3.024   7.717 -1.2593  1.2604 -2.2300
  181MOL0     H24935   1.575   3.077   7.864 -0.6274 -0.7435  0.9225
  181MOL0     H24936   1.512   2.852   7.899  0.3801 -0.0084  0.6281
  181MOL0     H24937   1.522   2.593   8.104 -0.7309 -3.1465  0.1614
  181MOL0     H24938   1.516   2.611   7.939  0.7917  2.8682  1.2735
  181MOL0     H24939   1.372   2.540   8.030  0.9686 -1.0012  1.5288
  181MOL0     H24940   1.175   2.643   8.552  3.6584 -2.2460 -2.3488
  181MOL0     H24941   1.043   2.521   8.709 -2.3301  1.8473  0.7088
  181MOL0     H24942   0.994   2.364   8.832  0.4687 -4.2015 -0.8101
  181MOL0     H24943   0.845   2.457   8.806  0.1600 -0.1309 -2.8302
  181MOL0     H24944   0.809   2.301   8.992 -1.4102 -0.4827  0.2137
  181MOL0     H24945   0.715   2.266   8.849 -0.7162  2.9901  2.2767
  181MOL0     H24946   0.960   2.126   8.970 -0.1180  6.0905  1.0841
  181MOL0     H24947   0.920   2.093   8.797  0.1864  0.6396  0.6095
  181MOL0     H24948   0.785   1.925   8.911 -0.2552  0.2787 -4.1477
  181MOL0     H24949   0.672   2.051   8.847  0.3616 -1.1540 -1.4659
  181MOL0     H24950   0.781   2.063   9.130 -1.3565  2.1975  1.9249
  181MOL0     H24951   0.623   2.120   9.080 -1.3056 -1.2739 -0.9600
  181MOL0     H24952   0.556   1.885   9.041 -0.3824  0.2811  0.5082
  181MOL0     H24953   0.588   1.933   9.211  2.7793  0.7778  0.9819
  181MOL0     H24954   0.831   1.821   9.118 -0.1363  1.1784 -0.9870
  181MOL0     H24955   0.691   1.718   9.066 -0.4561  2.6176 -1.0594
  181MOL0     H24956   0.608   1.729   9.301  0.6648 -2.6733  1.9149
  181MOL0     H24957   0.748   1.832   9.350  1.5659 -0.9007  1.7860
  181MOL0     H24958   0.857   2.300   8.398 -1.4873  0.6044 -0.2021
  181MOL0     H24959   0.944   2.455   8.230  1.2286  0.6752 -0.0488
  181MOL0     H24960   1.141   2.902   8.212 -2.2519  4.5346 -2.6429
  181MOL0     H24961   1.198   3.088   8.063 -0.9448 -0.3287 -0.4425
  181MOL0     H24962   0.853   2.880   6.649  0.3977 -1.6357 -1.3540
  181MOL0     H24963   0.876   2.668   6.529 -0.2562 -1.7870  2.7167
  181MOL0     H24964   0.824   2.325   6.339  0.0961 -0.6445 -0.6286
  181MOL0     H24965   0.814   2.093   6.271 -0.2972 -1.1662 -1.6680
  181MOL0     H24966   0.530   1.909   6.156  0.2770  4.1734 -0.2069
  181MOL0     H24967   0.489   1.947   5.984  0.4107  0.8798  0.5592
  181MOL0     H24968   0.674   1.773   5.931  1.3586  1.5508  0.8001
  181MOL0     H24969   0.522   1.709   5.999  0.3037 -1.9342  3.1075
  181MOL0     H24970   0.781   1.755   6.146  0.8154  0.8196 -3.7721
  181MOL0     H24971   0.638   1.700   6.230  0.3023 -0.7627  0.3992
  181MOL0     H24972   0.782   1.520   6.189  3.3878  1.6993 -0.3473
  181MOL0     H24973   0.794   1.553   6.019 -1.4531 -1.2433  0.6631
  181MOL0     H24974   0.410   1.348   6.057 -0.9444  2.7447 -4.2417
  181MOL0     H24975   0.509   2.185   5.983 -2.2865  2.1836  0.6616
  181MOL0     H24976   0.410   2.364   5.975  1.3072  3.4900 -3.5178
  181MOL0     H24977   0.392   2.439   6.144  3.3094 -2.0751  2.7409
  181MOL0     H24978   0.500   2.509   6.015 -0.9408  0.8041 -1.5000
  182MOL0     O24979   2.112   4.990   4.281 -0.3518  0.3064 -0.3790
  182MOL0     C24980   2.160   5.083   4.346 -0.5677 -0.6122  0.9300
  182MOL0     O24981   2.163   5.097   4.487  0.1948 -0.6430  0.1949
  182MOL0     C24982   2.090   5.007   4.562  0.5680 -0.0169  0.0272
  182MOL0     C24983   2.149   4.883   4.569  0.7489  0.4527 -1.2682
  182MOL0     C24984   2.076   4.785   4.635 -0.7460 -0.3205 -0.7227
  182MOL0     C24985   1.956   4.812   4.687  0.2571  0.2580  0.1720
  182MOL0     O24986   1.870   4.712   4.757  0.1339 -0.0392  0.6604
  182MOL0     C24987   1.947   4.645   4.861  0.4315  0.1774  0.4296
  182MOL0     C24988   2.009   4.742   4.969  0.8945  0.5415 -0.7723
  182MOL0     C24989   2.051   4.651   5.084 -0.3431 -1.1076 -0.7102
  182MOL0     C24990   2.172   4.557   5.069  1.1215 -0.5624 -1.1042
  182MOL0     C24991   2.221   4.503   5.203  1.1472 -0.7614 -0.6264
  182MOL0     C24992   2.114   4.457   5.305 -0.0618  0.7876  0.1265
  182MOL0     C24993   2.183   4.411   5.432 -1.7973 -0.7309  0.2176
  182MOL0     C24994   2.280   4.289   5.424 -0.2042 -0.0202 -0.9052
  182MOL0     N24995   2.225   4.160   5.386  1.2182  0.8162  1.0810
  182MOL0     C24996   2.168   4.077   5.473  0.4039  0.5125 -1.2192
  182MOL0     C24997   2.178   3.953   5.417  0.9262  1.3873 -0.1439
  182MOL0     C24998   2.127   3.826   5.476  0.1951  0.5907 -0.9540
  182MOL0     C24999   2.241   3.758   5.560 -0.4940 -0.7587 -0.5031
  182MOL0     C25000   2.215   3.609   5.598 -0.7775  0.2935 -0.3723
  182MOL0     C25001   2.113   3.579   5.715  0.0134  0.0183 -0.3475
  182MOL0     O25002   2.106   3.433   5.736  0.0413 -0.5342 -0.5461
  182MOL0     C25003   2.183   3.378   5.832  0.2158  0.3907 -0.4305
  182MOL0     C25004   2.213   3.236   5.804  0.5598  1.2489  0.2733
  182MOL0     C25005   2.271   3.151   5.896  0.6841 -0.1562  0.7019
  182MOL0     C25006   2.252   3.001   5.875 -0.0842  0.8014  0.2458
  182MOL0     C25007   2.313   3.208   6.017  0.9757 -0.2315  0.4363
  182MOL0     C25008   2.380   3.132   6.126 -0.7241  0.1710 -0.4115
  182MOL0     O25009   2.402   3.001   6.110  0.5570  0.0036 -0.7956
  182MOL0     C25010   2.449   2.921   6.215  0.0579 -0.4475 -0.9265
  182MOL0     C25011   2.567   2.848   6.202  0.6337 -0.2950  0.1504
  182MOL0     C25012   2.603   2.759   6.303 -0.6186  0.7349  0.2371
  182MOL0     C25013   2.533   2.744   6.424 -1.5259  0.8635 -0.7532
  182MOL0     O25014   2.586   2.656   6.521  0.6138  0.2667  0.7271
  182MOL0     C25015   2.496   2.624   6.627 -0.1459 -0.4170  0.3671
  182MOL0     C25016   2.526   2.486   6.698 -0.1146  0.2298 -0.1503
  182MOL0     C25017   2.674   2.460   6.711  0.5447 -0.8220 -0.1027
  182MOL0     C25018   2.732   2.557   6.812 -1.2786  0.0085 -0.1383
  182MOL0     C25019   2.887   2.534   6.821  0.1338 -0.5351 -0.2439
  182MOL0     C25020   2.923   2.403   6.900  0.1412 -0.0579  0.5512
  182MOL0     C25021   2.932   2.424   7.050  0.6331 -0.6245 -0.4221
  182MOL0     C25022   2.932   2.290   7.118 -0.7972  0.0356 -0.3202
  182MOL0    Cl25023   3.047   2.165   7.040 -0.2888  0.1484 -0.2293
  182MOL0     C25024   2.428   2.825   6.441 -0.2266  0.1310  0.1456
  182MOL0     C25025   2.387   2.917   6.349  0.3830  0.6297 -0.3049
  182MOL0     O25026   2.398   3.195   6.229  0.6484 -1.1364 -0.3074
  182MOL0     C25027   2.300   3.351   6.039  0.6760  0.2904 -0.0059
  182MOL0     C25028   2.232   3.434   5.949  0.4709  0.2350 -0.4697
  182MOL0     N25029   2.248   3.956   5.297 -0.6907  0.5956  0.1084
  182MOL0     N25030   2.275   4.086   5.281 -0.4498  0.2392  0.2419
  182MOL0     C25031   1.897   4.935   4.666  0.1592  0.1218 -0.2955
  182MOL0     C25032   1.964   5.030   4.595 -0.6455  0.1506 -0.6404
  182MOL0     C25033   2.236   5.188   4.261  0.8178  0.0772 -0.0248
  182MOL0     C25034   2.341   5.252   4.338  0.1792  0.3310 -0.1492
  182MOL0     C25035   2.419   5.350   4.277  0.8184 -0.2604 -0.2825
  182MOL0     C25036   2.400   5.394   4.143  0.4195  0.5638  0.0627
  182MOL0     O25037   2.459   5.501   4.082 -0.3263 -0.7809  0.1357
  182MOL0     C25038   2.521   5.469   3.957 -1.2904  0.2552  0.2505
  182MOL0     C25039   2.618   5.575   3.911  0.8007 -0.3202 -0.6814
  182MOL0     C25040   2.661   5.542   3.773 -0.0918 -0.4556 -0.4608
  182MOL0     C25041   2.760   5.642   3.708 -0.5841  0.2420  1.0352
  182MOL0     C25042   2.884   5.652   3.785 -0.1310  0.0272 -0.3726
  182MOL0     C25043   2.993   5.649   3.843  0.7409  0.3405 -0.3862
  182MOL0     C25044   2.296   5.328   4.076  0.3313 -0.6023 -0.3125
  182MOL0     C25045   2.208   5.229   4.130 -0.7110  0.2282 -0.2280
  182MOL0     C25046   2.107   5.158   4.053 -0.2313 -0.0230 -0.4680
  182MOL0     H25047   2.251   4.863   4.536 -0.0633  1.3573 -4.6982
  182MOL0     H25048   2.115   4.684   4.639  2.4746  0.8065  0.0493
  182MOL0     H25049   2.029   4.593   4.810  1.4006  0.8812  1.2158
  182MOL0     H25050   1.889   4.564   4.907 -0.2474  0.3215 -0.1714
  182MOL0     H25051   2.093   4.801   4.930 -0.6958  2.1885 -1.8313
  182MOL0     H25052   1.937   4.820   4.997  1.4081  1.0210 -0.7717
  182MOL0     H25053   2.075   4.720   5.166  0.5641 -0.3066 -1.6198
  182MOL0     H25054   1.966   4.590   5.117 -1.8024  1.9140  1.6528
  182MOL0     H25055   2.154   4.480   4.993  3.4062 -2.2924 -0.0333
  182MOL0     H25056   2.246   4.625   5.025  0.5633 -0.8250 -2.5021
  182MOL0     H25057   2.261   4.587   5.260 -3.9990  1.0317  0.8514
  182MOL0     H25058   2.286   4.418   5.179 -0.5993 -2.0456 -1.0169
  182MOL0     H25059   2.037   4.532   5.324 -0.5412  0.6250 -1.1030
  182MOL0     H25060   2.058   4.372   5.264  0.0858  0.1067  1.2781
  182MOL0     H25061   2.109   4.378   5.505 -3.4867 -1.1799 -1.6109
  182MOL0     H25062   2.238   4.491   5.481  0.3954 -2.1678  0.2678
  182MOL0     H25063   2.365   4.325   5.365 -0.8474 -0.7177 -2.2911
  182MOL0     H25064   2.310   4.271   5.528  0.4892 -1.4051 -1.3224
  182MOL0     H25065   2.118   4.096   5.567  1.6046  0.5935 -0.5800
  182MOL0     H25066   2.098   3.760   5.394 -1.4541 -0.9398  0.7829
  182MOL0     H25067   2.043   3.837   5.546  1.7964 -1.5027  1.4872
  182MOL0     H25068   2.340   3.771   5.515  0.3076  1.6419  1.6703
  182MOL0     H25069   2.255   3.815   5.653  2.4363 -2.1443  0.0328
  182MOL0     H25070   2.191   3.559   5.504 -1.3195 -0.5291  0.1915
  182MOL0     H25071   2.308   3.570   5.642 -1.4824 -3.1520 -1.6268
  182MOL0     H25072   2.159   3.634   5.797 -0.7629 -0.9532  0.7710
  182MOL0     H25073   2.011   3.615   5.698 -0.6395 -2.9046 -4.1911
  182MOL0     H25074   2.174   3.181   5.719  3.2772 -2.6586  1.2421
  182MOL0     H25075   2.350   2.954   5.863  2.2982  4.4356  3.2253
  182MOL0     H25076   2.182   2.982   5.793  0.1034 -0.2031  0.3079
  182MOL0     H25077   2.214   2.949   5.963 -3.2573 -2.1017 -2.5084
  182MOL0     H25078   2.617   2.843   6.106  1.7494  1.9213  0.5567
  182MOL0     H25079   2.694   2.700   6.306 -0.7733  0.4938  3.0502
  182MOL0     H25080   2.509   2.705   6.699 -2.3011 -1.5659  2.1675
  182MOL0     H25081   2.395   2.613   6.588 -0.5350 -0.6589  1.4037
  182MOL0     H25082   2.488   2.479   6.800  3.2585  1.8323  1.3523
  182MOL0     H25083   2.484   2.399   6.647 -0.0978  0.1528 -0.0322
  182MOL0     H25084   2.710   2.470   6.608 -0.0476  1.1765 -0.1723
  182MOL0     H25085   2.688   2.357   6.743  2.5610 -0.4461  0.3639
  182MOL0     H25086   2.681   2.529   6.905 -2.1863  0.0671 -0.6165
  182MOL0     H25087   2.711   2.662   6.789 -1.2368  0.3906  1.4302
  182MOL0     H25088   2.929   2.527   6.720 -0.2966  1.4853 -0.6005
  182MOL0     H25089   2.936   2.609   6.885 -2.5434  1.5813 -0.4885
  182MOL0     H25090   3.021   2.362   6.876  0.1768 -1.4119  2.7887
  182MOL0     H25091   2.850   2.325   6.876 -0.8507  0.7573  0.8462
  182MOL0     H25092   2.858   2.494   7.090  0.6000 -1.3579  0.8511
  182MOL0     H25093   3.024   2.474   7.082  0.0773 -1.7473  3.5096
  182MOL0     H25094   2.830   2.251   7.117 -0.8421 -0.3669  3.9023
  182MOL0     H25095   2.954   2.306   7.224 -1.4708 -1.6127  0.0982
  182MOL0     H25096   2.380   2.822   6.539 -0.7797 -1.0920 -0.1335
  182MOL0     H25097   2.306   2.985   6.374 -0.9345 -1.1879  0.5983
  182MOL0     H25098   2.341   3.401   6.126 -0.3111  2.6693 -0.8161
  182MOL0     H25099   2.208   3.533   5.988 -1.0015  0.8413 -2.7400
  182MOL0     H25100   1.797   4.960   4.699 -0.4851 -2.2291 -0.2833
  182MOL0     H25101   1.919   5.125   4.566  0.0320  1.2546  1.6964
  182MOL0     H25102   2.359   5.220   4.440  0.1221  1.4813  0.2311
  182MOL0     H25103   2.496   5.395   4.340  0.8268 -2.3181  1.2953
  182MOL0     H25104   2.575   5.375   3.972  1.6382  2.1299  2.7742
  182MOL0     H25105   2.446   5.458   3.879  0.2049  3.6474 -1.8842
  182MOL0     H25106   2.701   5.570   3.983  1.9827 -1.9054 -2.0847
  182MOL0     H25107   2.567   5.671   3.925  1.2053 -0.2351  0.3163
  182MOL0     H25108   2.711   5.444   3.770 -0.9933 -0.9023 -2.4810
  182MOL0     H25109   2.569   5.531   3.716 -0.4185  1.9303 -0.4708
  182MOL0     H25110   2.716   5.742   3.705 -0.5504  0.2500 -1.6775
  182MOL0     H25111   2.789   5.620   3.604  0.6645  3.1291  0.6708
  182MOL0     H25112   3.075   5.644   3.911  1.2676  0.1429 -1.0272
  182MOL0     H25113   2.272   5.358   3.975  1.7063  1.4727 -0.0991
  182MOL0     H25114   2.073   5.225   3.974  0.2607 -0.5959 -1.1672
  182MOL0     H25115   2.149   5.074   3.997 -1.2714  2.3631 -5.3815
  182MOL0     H25116   2.018   5.128   4.110  0.3780 -1.5521 -0.2694
  183MOL0     O25117   1.305  10.034   9.036 -0.2158 -0.4151  0.1251
  183MOL0     C25118   1.341  10.111   9.127  0.4794  0.7364  1.2465
  183MOL0     O25119   1.256  10.204   9.169  0.0082 -0.5474  0.2136
  183MOL0     C25120   1.126  10.228   9.112 -0.2464 -0.0820  0.8806
  183MOL0     C25121   1.111  10.353   9.053  0.1511 -0.7216  0.0539
  183MOL0     C25122   0.987  10.395   9.013 -0.5128  0.6782 -0.5217
  183MOL0     C25123   0.871  10.311   9.026 -0.3750  0.0399 -0.7428
  183MOL0     O25124   0.750  10.355   8.982 -0.3650 -0.5607 -0.1029
  183MOL0     C25125   0.640  10.297   9.049  0.7657 -0.7781 -0.1691
  183MOL0     C25126   0.501  10.347   9.004  0.4651  0.1274  0.0625
  183MOL0     C25127   0.458  10.316   8.857  0.1592  0.7311 -0.2180
  183MOL0     C25128   0.531  10.395   8.742  0.7452 -0.6809 -0.7098
  183MOL0     C25129   0.464  10.352   8.604  0.1910 -1.1064  0.3775
  183MOL0     C25130   0.551  10.379   8.478 -0.5838  0.0577 -0.1752
  183MOL0     C25131   0.692  10.301   8.491  0.0682 -0.4584 -0.3388
  183MOL0     C25132   0.682  10.149   8.510  0.7919 -0.0366  0.5893
  183MOL0     N25133   0.816  10.096   8.511 -0.1656 -0.9239 -0.2537
  183MOL0     C25134   0.888  10.071   8.621 -0.5478 -0.3340 -0.1540
  183MOL0     C25135   1.002  10.000   8.581  0.7218 -0.0732 -0.4419
  183MOL0     C25136   1.111   9.945   8.679  0.6648 -0.5865  1.0208
  183MOL0     C25137   1.220   9.878   8.597  0.0330 -0.3470 -0.3429
  183MOL0     C25138   1.350   9.958   8.615 -0.4918  0.0021 -0.5285
  183MOL0     C25139   1.461   9.881   8.538 -0.1058  0.1046 -0.1965
  183MOL0     O25140   1.587   9.939   8.546 -0.6561 -0.1478  0.3518
  183MOL0     C25141   1.688   9.881   8.470  0.3343  0.3361  0.0145
  183MOL0     C25142   1.664   9.755   8.402  0.0300 -1.0861 -0.6893
  183MOL0     C25143   1.758   9.697   8.323  0.4275  0.8224 -0.5899
  183MOL0     C25144   1.715   9.566   8.257  0.2845  0.2863 -1.2746
  183MOL0     C25145   1.888   9.759   8.311  0.1497 -1.2596 -0.2055
  183MOL0     C25146   2.008   9.699   8.247 -0.1998  0.7161 -0.1562
  183MOL0     O25147   2.112   9.776   8.210  0.5847 -0.1554 -0.6244
  183MOL0     C25148   2.216   9.721   8.146  0.3410  0.3492  0.1477
  183MOL0     C25149   2.303   9.627   8.209 -0.6292  0.1812 -0.4020
  183MOL0     C25150   2.399   9.564   8.135  0.0384 -0.5585 -0.8156
  183MOL0     C25151   2.430   9.605   8.004 -0.4569 -0.7870  0.1643
  183MOL0     O25152   2.527   9.524   7.939 -0.0077 -0.6877  0.3636
  183MOL0     C25153   2.550   9.545   7.795  0.0375 -0.1123  0.3818
  183MOL0     C25154   2.436   9.513   7.703 -0.0895  0.6082 -0.2174
  183MOL0     C25155   2.393   9.362   7.711  0.0323  0.0602  0.6863
  183MOL0     C25156   2.253   9.344   7.638  0.4143 -0.4108 -0.3639
  183MOL0     C25157   2.195   9.207   7.658  0.7677 -0.6003 -0.2480
  183MOL0     C25158   2.250   9.101   7.550  0.2728  0.2919  0.6269
  183MOL0     C25159   2.223   8.963   7.582 -0.1149 -0.2752  0.0989
  183MOL0     C25160   2.288   8.916   7.714  0.0138  0.3519  0.4183
  183MOL0    Cl25161   2.235   8.745   7.743  0.4428  0.1518 -0.2152
  183MOL0     C25162   2.361   9.715   7.950 -0.9257 -0.7582  0.2130
  183MOL0     C25163   2.253   9.766   8.020 -0.1396 -0.7301 -0.3099
  183MOL0     O25164   2.007   9.578   8.229  0.0158 -0.3044 -0.1915
  183MOL0     C25165   1.908   9.879   8.379 -0.2553  0.5010  0.0641
  183MOL0     C25166   1.813   9.938   8.458 -0.5907 -0.3371  0.5573
  183MOL0     N25167   0.990   9.986   8.442 -0.4171  0.3410 -0.8565
  183MOL0     N25168   0.882  10.048   8.406 -0.1946  0.0537 -0.6674
  183MOL0     C25169   0.894  10.171   9.076  0.7438  0.4033 -0.3858
  183MOL0     C25170   1.026  10.133   9.128 -0.0303 -0.2156 -0.0160
  183MOL0     C25171   1.482  10.096   9.179  0.9136  0.0603  1.0249
  183MOL0     C25172   1.530  10.220   9.212  0.3077  0.6279 -0.6639
  183MOL0     C25173   1.666  10.217   9.262  0.0764 -0.4522 -0.6109
  183MOL0     C25174   1.743  10.102   9.270  0.7803 -0.0955 -0.6499
  183MOL0     O25175   1.876  10.105   9.320  0.0703 -0.2019 -0.4551
  183MOL0     C25176   1.923  10.217   9.392  0.6542 -1.1347  0.0908
  183MOL0     C25177   2.043  10.184   9.484 -0.8829  0.3542  0.5184
  183MOL0     C25178   2.105  10.308   9.545 -0.1435  0.5766 -0.4623
  183MOL0     C25179   2.210  10.256   9.655 -0.3967 -0.1725  0.6024
  183MOL0     C25180   2.303  10.367   9.687  0.3251 -0.1445  0.0051
  183MOL0     C25181   2.390  10.446   9.718 -0.3356 -0.3062  1.0769
  183MOL0     C25182   1.694   9.987   9.222 -0.5230  0.2958 -0.4622
  183MOL0     C25183   1.558   9.977   9.180  0.6797 -0.2253 -0.8815
  183MOL0     C25184   1.506   9.840   9.129 -0.1229  0.1284 -0.0564
  183MOL0     H25185   1.192  10.425   9.045 -3.5025  4.0733  0.8632
  183MOL0     H25186   0.979  10.475   8.940  2.9648 -0.6645 -2.5932
  183MOL0     H25187   0.656  10.326   9.154  1.4988 -1.3050 -0.1271
  183MOL0     H25188   0.632  10.189   9.038  0.7874 -1.2639  3.3342
  183MOL0     H25189   0.417  10.326   9.071 -1.0816 -3.5224 -2.6576
  183MOL0     H25190   0.509  10.456   9.004 -1.3647  0.2876  0.6630
  183MOL0     H25191   0.465  10.207   8.855  1.8321  0.7426  1.9217
  183MOL0     H25192   0.352  10.339   8.846 -0.8331 -2.7744  0.7667
  183MOL0     H25193   0.528  10.503   8.756  1.2238 -0.5214 -1.7189
  183MOL0     H25194   0.633  10.355   8.753  0.3247 -1.5701  0.1150
  183MOL0     H25195   0.374  10.413   8.591  0.9154 -0.3140 -1.3348
  183MOL0     H25196   0.426  10.250   8.607 -0.7612 -0.7939 -0.3763
  183MOL0     H25197   0.493  10.354   8.389 -2.3136 -0.6483  1.1143
  183MOL0     H25198   0.576  10.485   8.464  1.6895 -0.3097  0.7270
  183MOL0     H25199   0.751  10.333   8.578 -1.4171 -0.7390  0.8056
  183MOL0     H25200   0.751  10.326   8.402  0.0748  0.4061 -0.1026
  183MOL0     H25201   0.618  10.116   8.593  1.5820 -0.8435  0.9001
  183MOL0     H25202   0.636  10.110   8.419  0.3725  3.3587 -0.8004
  183MOL0     H25203   0.851  10.113   8.714 -0.6895 -0.6091 -0.0851
  183MOL0     H25204   1.069   9.879   8.756  0.6672  0.3588  1.8472
  183MOL0     H25205   1.143  10.035   8.730 -0.8003  1.1013 -0.8390
  183MOL0     H25206   1.235   9.781   8.644 -1.3991 -0.3388  0.1731
  183MOL0     H25207   1.207   9.864   8.489 -0.5050  0.2096 -0.3588
  183MOL0     H25208   1.339  10.061   8.581  2.1139  0.5130 -0.0560
  183MOL0     H25209   1.382   9.954   8.719 -2.2617 -1.9226  0.0162
  183MOL0     H25210   1.466   9.776   8.571  1.4992 -0.6267 -2.4597
  183MOL0     H25211   1.441   9.881   8.431  2.3781 -0.1059 -0.7413
  183MOL0     H25212   1.571   9.700   8.412 -1.0777  0.7955 -0.0465
  183MOL0     H25213   1.719   9.586   8.149 -0.1538  0.9161 -1.1747
  183MOL0     H25214   1.613   9.533   8.275  1.1107 -0.4592  3.0316
  183MOL0     H25215   1.780   9.489   8.300  1.5291  2.1320  0.2879
  183MOL0     H25216   2.282   9.590   8.309  1.7129 -0.1591  0.0179
  183MOL0     H25217   2.456   9.487   8.187  0.9111  0.7476  0.2139
  183MOL0     H25218   2.575   9.650   7.775  1.6769 -0.7539 -1.2398
  183MOL0     H25219   2.636   9.485   7.763  0.5667  0.4365  0.7594
  183MOL0     H25220   2.349   9.570   7.737 -1.5131 -1.5426 -0.0599
  183MOL0     H25221   2.460   9.542   7.600 -0.4668  1.5939 -0.0391
  183MOL0     H25222   2.382   9.329   7.815  1.2828 -0.6537  0.6151
  183MOL0     H25223   2.470   9.301   7.663  1.2424  1.1072  1.2288
  183MOL0     H25224   2.252   9.376   7.533 -3.1820  1.9881  0.2086
  183MOL0     H25225   2.179   9.412   7.679  0.4198 -0.8478  0.3734
  183MOL0     H25226   2.227   9.153   7.747  2.1554 -0.3159 -0.5598
  183MOL0     H25227   2.085   9.208   7.652  0.7728 -0.7360 -0.3546
  183MOL0     H25228   2.358   9.117   7.536  0.4496  1.7748  2.9536
  183MOL0     H25229   2.197   9.127   7.458 -1.8957 -0.2266  1.6600
  183MOL0     H25230   2.258   8.901   7.499 -3.3433 -2.1890  0.0028
  183MOL0     H25231   2.114   8.961   7.594 -0.1243  1.0343  0.4165
  183MOL0     H25232   2.251   8.976   7.798  0.7440 -0.8530  1.6530
  183MOL0     H25233   2.395   8.936   7.721  0.2638 -0.6791 -0.2962
  183MOL0     H25234   2.388   9.766   7.859  0.1880 -1.5974  0.0451
  183MOL0     H25235   2.184   9.837   7.974 -0.3191 -1.3915 -1.0685
  183MOL0     H25236   2.007   9.921   8.361  0.9468 -2.1100  0.1246
  183MOL0     H25237   1.821  10.044   8.483  0.9552  0.2800 -2.1527
  183MOL0     H25238   0.816  10.098   9.093  1.1585  0.2717  1.0599
  183MOL0     H25239   1.057  10.035   9.164  1.6240  0.9511  1.9140
  183MOL0     H25240   1.468  10.309   9.220  0.5797  0.7188  0.7233
  183MOL0     H25241   1.707  10.314   9.285  1.5339 -1.4007  1.1028
  183MOL0     H25242   1.952  10.290   9.316 -1.5080 -3.0443 -2.8052
  183MOL0     H25243   1.844  10.270   9.446  1.3071 -0.3629  0.3093
  183MOL0     H25244   2.121  10.128   9.431 -2.9720 -3.7048  1.2639
  183MOL0     H25245   2.007  10.116   9.562  1.5847 -2.8707 -0.9144
  183MOL0     H25246   2.149  10.377   9.473 -0.2310  1.4197  0.2615
  183MOL0     H25247   2.026  10.364   9.595  2.9901  3.3556  1.8533
  183MOL0     H25248   2.265  10.172   9.611 -3.0816 -2.7205  1.8109
  183MOL0     H25249   2.168  10.226   9.751  0.0567  2.5391  1.7536
  183MOL0     H25250   2.477  10.505   9.739  0.9855 -0.3360 -3.3118
  183MOL0     H25251   1.749   9.893   9.216 -0.6164  0.2897 -1.3908
  183MOL0     H25252   1.409   9.817   9.175  1.3042  0.9826  3.7678
  183MOL0     H25253   1.484   9.847   9.022  0.2184 -3.2963 -0.4646
  183MOL0     H25254   1.572   9.753   9.139  0.1953  0.5289  1.8025
  184MOL0     O25255   4.448   1.714  10.511 -1.0077 -0.2148  0.0959
  184MOL0     C25256   4.515   1.783  10.429  1.2862  0.0183  0.4428
  184MOL0     O25257   4.636   1.757  10.379  0.0811 -0.3833  0.3796
  184MOL0     C25258   4.719   1.667  10.440  0.0838 -0.0945  1.1958
  184MOL0     C25259   4.853   1.696  10.460  0.3592 -0.5959  0.1819
  184MOL0     C25260   4.937   1.594  10.506  0.0739 -0.5810  0.4293
  184MOL0     C25261   4.893   1.458  10.523  0.2523 -0.5987 -0.0082
  184MOL0     O25262   4.977   1.358  10.566  0.1329  0.2442 -0.2248
  184MOL0     C25263   5.119   1.399  10.577  0.0213 -0.1688 -0.3534
  184MOL0     C25264   5.189   1.272  10.588 -0.5127 -0.2191 -0.9166
  184MOL0     C25265   5.346   1.292  10.595  0.2469 -0.0964  0.1386
  184MOL0     C25266   5.414   1.165  10.622  0.3681  0.1779  0.4628
  184MOL0     C25267   5.555   1.173  10.682  0.2398 -1.0816  0.6576
  184MOL0     C25268   5.665   1.191  10.572 -0.4182 -0.7209 -0.8209
  184MOL0     C25269   5.799   1.167  10.639  0.2887 -0.1653 -0.6774
  184MOL0     C25270   5.857   1.030  10.602 -0.6490  0.4640  0.4850
  184MOL0     N25271   5.992   0.997  10.661  0.4854  0.7279  0.2919
  184MOL0     C25272   6.108   1.068  10.635  0.0349  0.8003 -0.1058
  184MOL0     C25273   6.205   0.995  10.702  0.2493  0.0725 -0.5227
  184MOL0     C25274   6.355   1.017  10.696  1.1402  0.3956 -0.3075
  184MOL0     C25275   6.409   1.026  10.839  0.5769  0.1266 -0.0939
  184MOL0     C25276   6.562   1.048  10.860 -0.6938  0.3261  0.5606
  184MOL0     C25277   6.596   1.055  11.004  0.7707  0.5043 -0.2272
  184MOL0     O25278   6.739   1.037  11.006  0.2672  0.4476 -0.2258
  184MOL0     C25279   6.799   1.033  11.131  0.7553  0.5800  0.2774
  184MOL0     C25280   6.936   1.007  11.133  0.2156 -0.0910  0.3770
  184MOL0     C25281   7.018   1.020  11.247 -0.1143  0.5091  0.1162
  184MOL0     C25282   7.166   1.000  11.221  0.6064  1.2520  0.7877
  184MOL0     C25283   6.953   1.040  11.373 -0.2145  0.5318 -0.5236
  184MOL0     C25284   7.019   1.024  11.513  0.0744  0.3878 -0.2766
  184MOL0     O25285   6.938   1.021  11.622 -0.6871  0.5815 -0.0800
  184MOL0     C25286   6.991   1.014  11.745 -0.3722 -1.1066 -0.1228
  184MOL0     C25287   6.978   1.129  11.831  0.4155  0.1106 -0.4954
  184MOL0     C25288   7.033   1.120  11.961 -0.1309 -0.4334  0.0574
  184MOL0     C25289   7.090   1.002  12.007  0.1402  0.6926  0.5390
  184MOL0     O25290   7.138   0.969  12.127 -0.5030  0.0312 -0.0667
  184MOL0     C25291   7.181   1.072  12.214  0.2212  0.3847  0.6024
  184MOL0     C25292   7.226   1.002  12.347 -0.4852 -0.3584  0.3866
  184MOL0     C25293   7.218   1.104  12.464  0.7639 -0.6933  0.0810
  184MOL0     C25294   7.342   1.172  12.509 -0.7077  0.8532 -0.2768
  184MOL0     C25295   7.331   1.261  12.633 -1.0987  0.1541 -0.3241
  184MOL0     C25296   7.314   1.181  12.764  0.4825 -0.9621 -0.3608
  184MOL0     C25297   7.450   1.125  12.814  0.5935 -0.1203  1.0139
  184MOL0     C25298   7.432   1.088  12.962 -0.6546 -0.3385 -0.2814
  184MOL0    Cl25299   7.299   0.965  12.980 -0.4534 -0.6485  0.4380
  184MOL0     C25300   7.090   0.889  11.926  1.2091  0.7052 -0.0409
  184MOL0     C25301   7.044   0.901  11.796  0.1774  0.9798  0.7444
  184MOL0     O25302   7.143   1.012  11.512  0.5786  0.2311  0.3416
  184MOL0     C25303   6.817   1.044  11.375  0.7732  0.3610  0.2258
  184MOL0     C25304   6.740   1.050  11.257 -0.0976 -0.9136  0.0164
  184MOL0     N25305   6.141   0.885  10.759 -0.0518  1.0119  0.7754
  184MOL0     N25306   6.018   0.887  10.738  0.0372  0.4437  0.4124
  184MOL0     C25307   4.756   1.438  10.503  0.7615  0.7429  0.7261
  184MOL0     C25308   4.673   1.536  10.461  0.2226  0.0754  0.7983
  184MOL0     C25309   4.426   1.878  10.357 -0.3507  1.1918  0.2713
  184MOL0     C25310   4.466   1.921  10.232 -0.1092 -0.3007 -0.0398
  184MOL0     C25311   4.394   2.003  10.149 -0.1357 -0.6634  0.1446
  184MOL0     C25312   4.274   2.049  10.198 -0.5762 -0.0530 -0.1064
  184MOL0     O25313   4.192   2.129  10.128  0.0729  0.3837  0.7480
  184MOL0     C25314   4.248   2.194  10.013 -0.1318 -0.8551  0.1728
  184MOL0     C25315   4.180   2.319   9.999  0.8413 -0.7365 -0.3336
  184MOL0     C25316   4.194   2.372   9.847  0.3064 -0.5419  0.0065
  184MOL0     C25317   4.123   2.504   9.813 -0.0355 -0.6979  0.4064
  184MOL0     C25318   4.151   2.532   9.674  0.4957 -0.0795 -0.0188
  184MOL0     C25319   4.202   2.547   9.563  0.6899  0.3832 -0.2104
  184MOL0     C25320   4.233   2.013  10.322 -0.7994 -0.0864  0.0005
  184MOL0     C25321   4.307   1.929  10.409 -0.4097 -0.4298 -0.0004
  184MOL0     C25322   4.262   1.924  10.552  0.4368  0.3934 -0.6814
  184MOL0     H25323   4.892   1.797  10.468  2.8864 -1.5337  0.5233
  184MOL0     H25324   5.040   1.620  10.528 -0.3832  0.5485  1.3862
  184MOL0     H25325   5.135   1.458  10.667 -0.4757 -3.2689  1.9451
  184MOL0     H25326   5.155   1.460  10.494  1.4220  0.8583  0.9663
  184MOL0     H25327   5.166   1.230  10.686  1.5369 -0.6695 -0.5783
  184MOL0     H25328   5.153   1.211  10.504  0.8186 -2.1677 -0.1441
  184MOL0     H25329   5.383   1.319  10.496  1.0546 -1.8024 -0.0714
  184MOL0     H25330   5.377   1.363  10.672 -2.3843  3.1652 -1.5807
  184MOL0     H25331   5.356   1.097  10.684  0.8027 -0.3587  0.2923
  184MOL0     H25332   5.425   1.117  10.524 -3.3999  1.6192 -0.8373
  184MOL0     H25333   5.573   1.085  10.744 -0.8671 -1.5363  0.3584
  184MOL0     H25334   5.564   1.253  10.755  2.4321 -3.1375  2.8310
  184MOL0     H25335   5.659   1.118  10.491  0.3933  1.0791 -2.5850
  184MOL0     H25336   5.646   1.291  10.531 -0.4291 -0.5965 -0.5179
  184MOL0     H25337   5.792   1.178  10.748  1.7056  0.5386 -0.6358
  184MOL0     H25338   5.865   1.247  10.605 -1.2448  1.1555 -0.6079
  184MOL0     H25339   5.795   0.944  10.627  1.7405 -0.8010  2.6556
  184MOL0     H25340   5.857   1.038  10.493 -1.7663  0.0516  0.4454
  184MOL0     H25341   6.125   1.159  10.579  4.1503 -0.5407 -1.4350
  184MOL0     H25342   6.383   1.110  10.645  0.3733  1.3379  0.9131
  184MOL0     H25343   6.402   0.939  10.636  0.7506  0.6806 -0.9950
  184MOL0     H25344   6.359   1.106  10.894 -1.4243 -0.2417 -1.2908
  184MOL0     H25345   6.385   0.930  10.886 -1.1086  0.4314 -0.2768
  184MOL0     H25346   6.621   0.967  10.814 -1.1552 -1.2622  2.6382
  184MOL0     H25347   6.591   1.136  10.802  0.9101 -0.9272 -0.6381
  184MOL0     H25348   6.563   1.153  11.038 -1.1751  0.0531 -0.6601
  184MOL0     H25349   6.539   0.978  11.058 -0.3321  0.3975 -1.4793
  184MOL0     H25350   6.981   0.996  11.035 -3.8256 -0.0674 -1.6598
  184MOL0     H25351   7.225   1.087  11.251  2.9722  0.4586 -1.2156
  184MOL0     H25352   7.195   0.985  11.117  0.2982 -0.1133  0.8743
  184MOL0     H25353   7.202   0.910  11.272 -1.2928 -1.5227 -2.3576
  184MOL0     H25354   6.935   1.227  11.812  3.0250  2.8788  5.2349
  184MOL0     H25355   7.032   1.203  12.031  1.5388 -2.5985  2.9033
  184MOL0     H25356   7.268   1.126  12.176  0.4741 -1.0580 -0.9978
  184MOL0     H25357   7.098   1.142  12.227 -0.0817 -0.0870  1.2287
  184MOL0     H25358   7.163   0.914  12.365 -1.3085 -0.0619 -0.8834
  184MOL0     H25359   7.327   0.966  12.329 -0.9892 -0.0084 -4.3646
  184MOL0     H25360   7.177   1.051  12.550  1.9791  1.0515  1.8189
  184MOL0     H25361   7.142   1.177  12.433  1.3368  1.5411  3.4116
  184MOL0     H25362   7.390   1.225  12.427  1.2910  0.9066  0.8537
  184MOL0     H25363   7.414   1.092  12.526 -1.9277 -0.3211 -0.5069
  184MOL0     H25364   7.419   1.326  12.637  0.0892 -1.2722 -1.9407
  184MOL0     H25365   7.240   1.320  12.619 -1.5724 -0.5539 -0.2431
  184MOL0     H25366   7.246   1.095  12.756  2.2186 -2.3922 -0.3498
  184MOL0     H25367   7.270   1.255  12.832  0.7914  0.4098 -1.6020
  184MOL0     H25368   7.519   1.209  12.798 -0.7319  1.0402  1.1720
  184MOL0     H25369   7.478   1.041  12.751  4.6104 -1.1796  3.8098
  184MOL0     H25370   7.409   1.185  13.008 -2.1112 -0.6801 -0.2681
  184MOL0     H25371   7.523   1.050  13.010 -0.8025 -1.0132 -0.5219
  184MOL0     H25372   7.132   0.802  11.976  0.0281  0.0142 -0.2257
  184MOL0     H25373   7.058   0.806  11.746  3.0964  0.0453  3.0553
  184MOL0     H25374   6.767   1.060  11.470 -0.2383  1.5700 -0.4786
  184MOL0     H25375   6.632   1.052  11.248 -0.1807 -2.1072  0.5537
  184MOL0     H25376   4.722   1.337  10.525  0.4156  0.3456 -1.3746
  184MOL0     H25377   4.570   1.506  10.443  0.6439 -1.7621  1.3228
  184MOL0     H25378   4.556   1.873  10.193 -0.5095 -1.4466  0.4252
  184MOL0     H25379   4.434   2.018  10.049 -1.4514 -0.6437 -0.4039
  184MOL0     H25380   4.351   2.225  10.033 -1.1842  3.1112  0.2881
  184MOL0     H25381   4.240   2.131   9.924 -1.2884 -0.8914  0.2844
  184MOL0     H25382   4.216   2.392  10.072 -0.0996  1.2208 -1.7400
  184MOL0     H25383   4.075   2.312  10.028  0.7794  1.6369  0.1975
  184MOL0     H25384   4.295   2.387   9.808 -0.2086  2.2355 -0.4770
  184MOL0     H25385   4.145   2.297   9.784 -0.8682 -1.6725  2.1606
  184MOL0     H25386   4.150   2.596   9.866 -4.3514  0.8736  0.3022
  184MOL0     H25387   4.015   2.493   9.821 -0.1168 -0.2022  0.0973
  184MOL0     H25388   4.234   2.572   9.464  1.2825  1.1302  0.1620
  184MOL0     H25389   4.144   2.069  10.351 -0.2672  1.8615 -1.8037
  184MOL0     H25390   4.203   1.837  10.581  0.2619 -0.2735 -2.8965
  184MOL0     H25391   4.345   1.938  10.622 -1.2001  1.1801  1.1914
  184MOL0     H25392   4.198   2.012  10.568 -0.3896 -0.0451 -1.4958
  185MOL0     O25393   5.144   7.086   8.751  0.2685 -0.7850 -0.2667
  185MOL0     C25394   5.015   7.100   8.756  0.4043 -0.6132  0.3667
  185MOL0     O25395   4.924   7.002   8.790 -0.6011 -0.3415  0.4765
  185MOL0     C25396   4.955   6.922   8.894 -0.4728  0.6807  0.8583
  185MOL0     C25397   5.033   6.958   9.007  0.2952 -0.6899  0.0117
  185MOL0     C25398   5.035   6.874   9.125 -0.1263 -0.2245 -0.3311
  185MOL0     C25399   4.960   6.757   9.125  0.4979  0.1488  0.9357
  185MOL0     O25400   4.959   6.686   9.243  0.1389  0.7257 -0.0186
  185MOL0     C25401   5.003   6.755   9.364 -1.5429 -0.5834  0.0122
  185MOL0     C25402   4.974   6.664   9.484 -0.5746 -1.5428 -0.5574
  185MOL0     C25403   5.054   6.727   9.602 -0.9431 -0.1339  0.2001
  185MOL0     C25404   5.016   6.655   9.729  0.3799  0.2778 -0.2773
  185MOL0     C25405   5.102   6.697   9.843 -0.1434 -0.5487 -0.5173
  185MOL0     C25406   5.072   6.616   9.970 -0.4998 -0.1760 -0.0414
  185MOL0     C25407   5.137   6.671  10.094 -0.8237 -0.3096 -0.6107
  185MOL0     C25408   5.132   6.817  10.113  0.2617  0.3272  1.1360
  185MOL0     N25409   4.992   6.862  10.106  1.1914  0.1010  0.5615
  185MOL0     C25410   4.938   6.960  10.018 -0.2147 -0.1596  0.0472
  185MOL0     C25411   4.812   6.986  10.056 -0.2982  0.1880 -0.0373
  185MOL0     C25412   4.714   7.080  10.002  0.3699 -0.3212  0.8942
  185MOL0     C25413   4.587   7.019   9.946 -0.3691  0.8775 -0.8280
  185MOL0     C25414   4.592   6.941   9.811 -0.3702  0.6055  0.4127
  185MOL0     C25415   4.655   7.028   9.704 -0.1407  0.3252  0.2939
  185MOL0     O25416   4.631   6.969   9.575 -0.2179  0.8780 -0.4488
  185MOL0     C25417   4.593   7.044   9.466  0.3552  0.7907 -0.4005
  185MOL0     C25418   4.648   7.005   9.349  0.9792 -0.2878  0.4830
  185MOL0     C25419   4.619   7.072   9.226  0.5829 -0.0333 -0.2000
  185MOL0     C25420   4.679   7.007   9.101 -0.5032  0.5156  0.3720
  185MOL0     C25421   4.541   7.187   9.231 -0.0691  0.1955 -0.2333
  185MOL0     C25422   4.507   7.261   9.103  0.3177 -0.0542  0.6138
  185MOL0     O25423   4.462   7.389   9.134 -0.0687 -0.3509  0.5348
  185MOL0     C25424   4.495   7.494   9.057  0.3791  0.7588 -0.5143
  185MOL0     C25425   4.628   7.513   9.027 -1.1126 -0.1447  0.9478
  185MOL0     C25426   4.661   7.634   8.969 -0.3721 -0.8373  0.5303
  185MOL0     C25427   4.576   7.742   8.933  0.1889  0.5574 -0.9531
  185MOL0     O25428   4.617   7.866   8.895 -0.7525  1.0550 -0.1970
  185MOL0     C25429   4.751   7.906   8.859 -1.0611  1.1470 -0.1184
  185MOL0     C25430   4.755   8.049   8.820 -0.8751 -0.5184  0.5343
  185MOL0     C25431   4.718   8.092   8.677  0.0149 -0.9565  0.0018
  185MOL0     C25432   4.732   8.240   8.663  0.0625  0.0918  0.0111
  185MOL0     C25433   4.712   8.281   8.515 -0.1822  0.4285 -0.0866
  185MOL0     C25434   4.766   8.418   8.484 -0.5216 -0.2334  1.1579
  185MOL0     C25435   4.740   8.457   8.336  0.0796  0.6213 -0.5092
  185MOL0     C25436   4.834   8.561   8.279  0.2539  0.6361 -0.4046
  185MOL0    Cl25437   4.998   8.506   8.297 -0.0277  0.1797 -0.3478
  185MOL0     C25438   4.446   7.713   8.970 -0.2768 -0.9811  0.6247
  185MOL0     C25439   4.400   7.593   9.026 -0.2192  0.2153 -0.3057
  185MOL0     O25440   4.542   7.231   8.990  0.3135  0.4442 -0.2168
  185MOL0     C25441   4.504   7.232   9.354 -0.5609  1.1395  0.1951
  185MOL0     C25442   4.523   7.161   9.469 -0.0235 -0.6785 -0.6854
  185MOL0     N25443   4.797   6.912  10.179 -0.2223  0.0439  0.3290
  185MOL0     N25444   4.899   6.841  10.208 -0.2252  0.3076  0.9791
  185MOL0     C25445   4.892   6.712   9.010 -0.2101  0.0265  0.0394
  185MOL0     C25446   4.892   6.797   8.898 -0.9924 -0.2671  0.4648
  185MOL0     C25447   4.956   7.233   8.725 -0.4941 -0.5959 -0.9917
  185MOL0     C25448   4.819   7.255   8.727  0.4973  0.0156 -0.2923
  185MOL0     C25449   4.760   7.381   8.710 -1.0717 -0.9318 -1.1876
  185MOL0     C25450   4.836   7.486   8.657 -0.2995  0.2851 -0.7601
  185MOL0     O25451   4.783   7.606   8.638 -0.0335 -0.0947  0.1908
  185MOL0     C25452   4.726   7.618   8.506 -1.0874 -0.0315  0.0636
  185MOL0     C25453   4.678   7.767   8.484 -0.9355  0.7940 -0.6376
  185MOL0     C25454   4.583   7.800   8.364 -0.1996 -0.0375 -1.6421
  185MOL0     C25455   4.570   7.955   8.339  1.4656 -0.2310  0.5030
  185MOL0     C25456   4.428   7.980   8.282 -0.0979 -0.2015 -0.5888
  185MOL0     C25457   4.323   7.984   8.225  0.2094 -0.5429  0.6052
  185MOL0     C25458   4.973   7.474   8.655 -0.1400 -0.3926 -0.4620
  185MOL0     C25459   5.031   7.353   8.689  0.3072 -0.1877  0.1662
  185MOL0     C25460   5.182   7.354   8.662  0.5811  0.4007 -0.9539
  185MOL0     H25461   5.076   7.058   9.016  1.0738 -1.1954  4.7785
  185MOL0     H25462   5.075   6.936   9.205  0.5625  0.2240 -1.0054
  185MOL0     H25463   4.960   6.852   9.388 -3.8478 -2.1659  2.8108
  185MOL0     H25464   5.110   6.779   9.375 -1.6125 -1.2018  2.6203
  185MOL0     H25465   4.867   6.657   9.508 -0.6785  1.8629  0.5191
  185MOL0     H25466   5.019   6.567   9.463  1.9722 -1.3316  3.0997
  185MOL0     H25467   5.163   6.726   9.600 -0.7472  3.1092  2.0332
  185MOL0     H25468   5.034   6.833   9.619  1.6866  0.2145  1.5792
  185MOL0     H25469   4.909   6.652   9.751  0.4523 -1.6936 -0.0583
  185MOL0     H25470   5.041   6.555   9.692 -2.6256  0.2362 -2.5674
  185MOL0     H25471   5.080   6.804   9.847 -1.9868 -0.9009 -0.7264
  185MOL0     H25472   5.206   6.682   9.811  0.4847  1.6398  0.2614
  185MOL0     H25473   4.964   6.630   9.985 -0.2307  0.5358  1.4328
  185MOL0     H25474   5.097   6.511   9.958 -0.4455 -0.6389  3.2708
  185MOL0     H25475   5.244   6.649  10.093 -0.0855  2.8566 -0.9924
  185MOL0     H25476   5.083   6.631  10.180 -0.5343  2.4693  0.9786
  185MOL0     H25477   5.173   6.844  10.211  0.6661  2.9401  0.3250
  185MOL0     H25478   5.189   6.849  10.025  1.5667  0.1409  1.8927
  185MOL0     H25479   4.993   7.020   9.946 -0.8637 -0.6277 -0.8636
  185MOL0     H25480   4.753   7.142   9.920 -0.9582  2.4777  2.2518
  185MOL0     H25481   4.684   7.151  10.080  0.5876  0.1505  0.5585
  185MOL0     H25482   4.548   6.944  10.016 -0.9093  0.8783 -1.1218
  185MOL0     H25483   4.512   7.099   9.941 -0.7150  0.9006  2.6718
  185MOL0     H25484   4.654   6.851   9.814  0.2009  0.6801 -3.5298
  185MOL0     H25485   4.489   6.920   9.778 -0.9225  1.3780  1.5787
  185MOL0     H25486   4.609   7.126   9.713 -1.6735 -0.1711 -1.3973
  185MOL0     H25487   4.763   7.032   9.719 -0.1169 -0.7916  0.5467
  185MOL0     H25488   4.714   6.919   9.344  5.8792  3.1375 -1.8742
  185MOL0     H25489   4.780   7.049   9.100  0.0607 -0.7487  1.0087
  185MOL0     H25490   4.644   7.020   8.998 -1.5321 -1.0068  0.4926
  185MOL0     H25491   4.694   6.899   9.108  0.0928  0.2518 -3.1886
  185MOL0     H25492   4.708   7.449   9.062 -0.7660  0.0852  0.5815
  185MOL0     H25493   4.766   7.646   8.944 -0.1652  2.1843  2.4129
  185MOL0     H25494   4.818   7.888   8.943 -0.5737  4.1843  0.2509
  185MOL0     H25495   4.790   7.848   8.775  0.0160 -0.4480  1.4162
  185MOL0     H25496   4.705   8.107   8.898 -2.0340 -0.1282 -0.4583
  185MOL0     H25497   4.857   8.085   8.835  0.1412 -0.9914 -3.8603
  185MOL0     H25498   4.615   8.056   8.665  0.6007 -2.9839  0.5675
  185MOL0     H25499   4.786   8.049   8.603  0.9292  1.8402 -0.9010
  185MOL0     H25500   4.824   8.283   8.705  0.3413 -0.0763 -0.4197
  185MOL0     H25501   4.654   8.271   8.733  1.1417  1.7420  0.5352
  185MOL0     H25502   4.742   8.208   8.440 -0.6430  0.9349 -0.7839
  185MOL0     H25503   4.604   8.284   8.505 -0.2259 -2.6712 -1.4299
  185MOL0     H25504   4.875   8.418   8.498 -0.3565 -4.1297  1.0203
  185MOL0     H25505   4.713   8.491   8.545  0.5697 -0.2569  2.1722
  185MOL0     H25506   4.640   8.500   8.334 -0.6414 -0.6402  2.6391
  185MOL0     H25507   4.745   8.370   8.270  3.0178 -0.4857  1.0063
  185MOL0     H25508   4.817   8.657   8.330  2.9620  0.7079  0.5092
  185MOL0     H25509   4.804   8.576   8.175 -2.8354 -0.3365  0.2370
  185MOL0     H25510   4.366   7.783   8.947  1.1325  0.3688 -0.4137
  185MOL0     H25511   4.300   7.567   9.057  0.5601 -2.5328  0.1221
  185MOL0     H25512   4.464   7.332   9.368 -0.7978  1.9000 -4.5473
  185MOL0     H25513   4.488   7.198   9.565 -0.1807 -0.4586 -0.8260
  185MOL0     H25514   4.835   6.620   9.019 -2.7193  1.5702  0.7090
  185MOL0     H25515   4.844   6.781   8.801 -0.0629  0.3252 -0.1154
  185MOL0     H25516   4.759   7.170   8.760  0.2196  1.5296  3.7603
  185MOL0     H25517   4.654   7.402   8.709 -1.2337 -1.2338  1.6742
  185MOL0     H25518   4.790   7.584   8.424  0.5206  2.3244  0.2282
  185MOL0     H25519   4.639   7.552   8.510 -1.4002  0.2739 -1.2446
  185MOL0     H25520   4.772   7.823   8.473 -0.1531 -0.0880  1.1523
  185MOL0     H25521   4.627   7.800   8.575  1.0038 -0.6254  1.0696
  185MOL0     H25522   4.621   7.744   8.278 -1.6757 -2.6798 -0.7108
  185MOL0     H25523   4.488   7.756   8.395  1.0129 -0.8221  1.3315
  185MOL0     H25524   4.657   7.974   8.277 -0.0982  0.7274 -1.5221
  185MOL0     H25525   4.571   8.006   8.436 -2.2121 -1.2588  1.2417
  185MOL0     H25526   4.242   7.992   8.155  2.6721  1.4256 -2.3332
  185MOL0     H25527   5.037   7.560   8.639  0.1905 -0.7277 -1.0122
  185MOL0     H25528   5.215   7.266   8.606  0.7654  0.0585 -0.3218
  185MOL0     H25529   5.221   7.441   8.608 -1.9794  3.1154  1.1880
  185MOL0     H25530   5.240   7.355   8.755 -1.0206 -3.8669  0.3405
  186MOL0     O25531   5.810   7.994   2.035  0.0272 -0.2630  0.2555
  186MOL0     C25532   5.870   7.888   2.013  0.0435  0.3783  0.2635
  186MOL0     O25533   5.950   7.873   1.897  0.1923  0.3997 -0.2102
  186MOL0     C25534   5.965   7.982   1.822 -0.0585 -0.9963 -0.0219
  186MOL0     C25535   6.075   8.070   1.845 -0.2772  0.0770 -0.8588
  186MOL0     C25536   6.096   8.192   1.774  1.2532  0.0981 -0.4552
  186MOL0     C25537   5.995   8.216   1.681  0.2317 -0.5628 -0.4390
  186MOL0     O25538   6.013   8.330   1.606 -0.2361  0.2863  0.4877
  186MOL0     C25539   5.961   8.451   1.657 -1.1535 -0.1661 -0.2950
  186MOL0     C25540   6.019   8.576   1.584  0.4456 -0.0550  1.1561
  186MOL0     C25541   6.007   8.711   1.667 -0.7279 -0.0491 -0.6647
  186MOL0     C25542   6.115   8.706   1.776 -0.7575 -0.7704  0.1201
  186MOL0     C25543   6.141   8.844   1.829 -0.7349 -0.2004 -0.2039
  186MOL0     C25544   6.215   8.827   1.962 -0.0801 -0.3541 -0.1085
  186MOL0     C25545   6.275   8.963   2.022  0.3241  0.0431 -0.3032
  186MOL0     C25546   6.361   9.039   1.918  0.0368  0.3082 -0.3361
  186MOL0     N25547   6.478   9.101   1.980 -0.0076 -0.1994  0.8820
  186MOL0     C25548   6.603   9.095   1.928  0.9826 -0.7042  0.3035
  186MOL0     C25549   6.674   9.177   2.009  0.3728 -0.0752 -0.5326
  186MOL0     C25550   6.821   9.204   1.995 -0.0486 -0.1737 -0.4650
  186MOL0     C25551   6.843   9.359   2.004 -0.0874 -0.2490 -0.3280
  186MOL0     C25552   6.977   9.411   1.946  0.5795  1.0766  0.2372
  186MOL0     C25553   6.970   9.561   1.919  0.0940  0.4533 -0.1295
  186MOL0     O25554   6.869   9.588   1.820 -0.1700 -0.3850  0.2301
  186MOL0     C25555   6.879   9.709   1.749  1.1144  0.8549 -1.5710
  186MOL0     C25556   6.811   9.719   1.633  0.4229  0.1732  0.7017
  186MOL0     C25557   6.806   9.846   1.563 -0.5014  0.4309  0.1322
  186MOL0     C25558   6.724   9.832   1.439 -0.5376 -0.0705 -0.1791
  186MOL0     C25559   6.875   9.957   1.615 -0.1167 -0.3992  0.5107
  186MOL0     C25560   6.893  10.088   1.538  0.5816  0.3020  0.1278
  186MOL0     O25561   6.940  10.198   1.605  0.1781  0.7830 -0.1801
  186MOL0     C25562   6.914  10.328   1.572  0.2275 -0.0625 -0.3313
  186MOL0     C25563   6.822  10.379   1.480 -0.4594 -0.8909  0.3435
  186MOL0     C25564   6.786  10.512   1.475 -0.2281  0.7490 -0.0877
  186MOL0     C25565   6.854  10.605   1.553 -0.2738 -0.5610  0.0455
  186MOL0     O25566   6.850  10.745   1.531 -0.4904 -0.1529 -0.1439
  186MOL0     C25567   6.724  10.807   1.501  0.8099  0.2132  0.6602
  186MOL0     C25568   6.755  10.954   1.468  0.5943 -0.3848 -0.4531
  186MOL0     C25569   6.837  10.985   1.334 -0.0610 -0.1804  1.0825
  186MOL0     C25570   6.766  10.936   1.208  0.1035 -0.1249  0.8114
  186MOL0     C25571   6.827  10.984   1.078 -0.1364  0.2982  0.2892
  186MOL0     C25572   6.739  10.964   0.958  0.1497 -0.0870 -0.3004
  186MOL0     C25573   6.804  11.019   0.825  0.4164 -0.4023  0.4792
  186MOL0     C25574   6.898  10.916   0.766  0.2535  0.9127  0.2496
  186MOL0    Cl25575   6.917  10.945   0.582 -0.0192 -0.1172 -0.0470
  186MOL0     C25576   6.953  10.564   1.636 -0.0694 -0.0278  0.0103
  186MOL0     C25577   6.976  10.427   1.648 -0.2261  0.2305  0.2269
  186MOL0     O25578   6.859  10.084   1.418 -0.0791  0.0192  0.4508
  186MOL0     C25579   6.925   9.946   1.744  0.2906 -0.1039  0.0802
  186MOL0     C25580   6.924   9.821   1.806 -0.6482 -1.1233 -0.3564
  186MOL0     N25581   6.585   9.220   2.108 -0.9789  0.2024 -1.0251
  186MOL0     N25582   6.477   9.161   2.092  0.7292  0.1214  0.6419
  186MOL0     C25583   5.899   8.132   1.640 -0.6115 -0.6376 -0.2951
  186MOL0     C25584   5.882   8.010   1.712 -0.4440  0.2480 -0.2898
  186MOL0     C25585   5.876   7.774   2.114  0.5145  0.3596  0.2626
  186MOL0     C25586   5.988   7.706   2.120 -0.4185 -0.0027  0.3518
  186MOL0     C25587   6.006   7.598   2.213  0.9271  0.0919  1.1433
  186MOL0     C25588   5.905   7.560   2.305 -0.6196  0.4922 -0.4207
  186MOL0     O25589   5.904   7.465   2.398 -0.2114  0.0321 -0.3663
  186MOL0     C25590   6.006   7.368   2.397  0.3644 -0.2499 -0.1803
  186MOL0     C25591   5.957   7.248   2.477 -0.0146  0.6652 -0.5898
  186MOL0     C25592   5.960   7.296   2.624  0.6877  0.8178  0.0005
  186MOL0     C25593   5.936   7.171   2.706  0.5639  0.1740 -0.3207
  186MOL0     C25594   5.976   7.184   2.841  0.0177  0.1447  0.1219
  186MOL0     C25595   6.019   7.203   2.953 -0.7761 -0.4194  0.1596
  186MOL0     C25596   5.784   7.634   2.298 -0.7417 -0.3040 -0.5243
  186MOL0     C25597   5.770   7.741   2.207 -0.8273  0.6673 -0.1875
  186MOL0     C25598   5.639   7.824   2.223  0.8350  0.5860  0.6419
  186MOL0     H25599   6.138   8.052   1.932 -2.4002 -2.5710  0.2902
  186MOL0     H25600   6.178   8.262   1.787  2.1558 -0.6879 -1.6274
  186MOL0     H25601   5.971   8.476   1.763 -1.7545  3.0664 -0.8865
  186MOL0     H25602   5.852   8.459   1.644 -0.9440  1.7852 -1.3434
  186MOL0     H25603   6.124   8.559   1.558  0.3597  0.2851  0.5570
  186MOL0     H25604   5.970   8.592   1.487  1.4066  0.3204  0.7202
  186MOL0     H25605   6.019   8.795   1.599  0.0945  0.0986 -0.3489
  186MOL0     H25606   5.915   8.722   1.726  0.8003  0.6410  1.7584
  186MOL0     H25607   6.082   8.647   1.862  0.9355 -2.5784 -0.4000
  186MOL0     H25608   6.210   8.673   1.733 -0.9813  1.9793 -2.8477
  186MOL0     H25609   6.044   8.890   1.849 -1.2903 -1.1534 -0.6554
  186MOL0     H25610   6.189   8.906   1.753 -3.0406  0.5049 -1.1706
  186MOL0     H25611   6.147   8.795   2.042  2.5154 -0.5981  2.1564
  186MOL0     H25612   6.296   8.754   1.953  0.9726 -0.2505  5.3110
  186MOL0     H25613   6.342   8.929   2.101  0.2925 -2.1923 -1.1848
  186MOL0     H25614   6.209   9.040   2.065  2.2685  1.6944 -0.1139
  186MOL0     H25615   6.393   8.978   1.833 -1.1038 -0.9388  0.0929
  186MOL0     H25616   6.292   9.115   1.883  1.1023  1.0436 -0.9042
  186MOL0     H25617   6.631   9.029   1.846 -1.6633  0.5844 -1.8018
  186MOL0     H25618   6.843   9.169   1.894 -1.3050 -2.0501 -0.1553
  186MOL0     H25619   6.880   9.149   2.070  0.9075  2.5284  0.8866
  186MOL0     H25620   6.765   9.420   1.957  0.5355  0.3945 -0.5521
  186MOL0     H25621   6.843   9.394   2.107  2.2516  0.4461 -0.4948
  186MOL0     H25622   7.071   9.400   2.001  1.5814 -1.3205 -1.7769
  186MOL0     H25623   7.007   9.358   1.855 -1.4242  1.0461 -0.4544
  186MOL0     H25624   6.941   9.615   2.010 -3.6325  0.3174 -1.0563
  186MOL0     H25625   7.068   9.597   1.887  0.0003  0.6241 -0.2252
  186MOL0     H25626   6.772   9.632   1.580 -1.5788  0.8744  0.9288
  186MOL0     H25627   6.658   9.919   1.439  1.5866  1.6443  0.3007
  186MOL0     H25628   6.667   9.739   1.431 -2.0855 -0.0483  5.5741
  186MOL0     H25629   6.789   9.836   1.351 -1.2183 -1.6431 -0.7844
  186MOL0     H25630   6.780  10.309   1.408  0.6915 -1.0329 -0.2021
  186MOL0     H25631   6.721  10.551   1.397  1.4821  4.9673  0.2834
  186MOL0     H25632   6.685  10.751   1.415 -0.0507  2.6629 -0.6575
  186MOL0     H25633   6.659  10.802   1.589  0.5318 -2.9756  0.3887
  186MOL0     H25634   6.664  11.016   1.466  0.4872 -0.5445 -0.5497
  186MOL0     H25635   6.818  10.996   1.547  0.0228  2.1739 -1.2429
  186MOL0     H25636   6.935  10.938   1.342 -0.7505 -2.4052 -1.8394
  186MOL0     H25637   6.850  11.093   1.341 -0.9479  0.0128  0.0202
  186MOL0     H25638   6.663  10.972   1.219 -0.1335 -0.3345 -0.5328
  186MOL0     H25639   6.769  10.829   1.187  0.0078  0.2637 -1.4612
  186MOL0     H25640   6.850  11.091   1.082 -3.0910  0.9806  1.3989
  186MOL0     H25641   6.919  10.930   1.054  0.8180  1.5740  0.9852
  186MOL0     H25642   6.650  11.026   0.974 -0.7690 -1.4129 -0.0769
  186MOL0     H25643   6.703  10.864   0.935  1.0202 -0.0916 -1.7566
  186MOL0     H25644   6.851  11.116   0.846 -2.6712  2.3447 -3.7657
  186MOL0     H25645   6.722  11.027   0.753 -0.4470  1.6324  1.6089
  186MOL0     H25646   6.844  10.822   0.779  1.6073  0.0394 -0.1687
  186MOL0     H25647   6.994  10.895   0.816 -0.0498 -0.9086  0.1419
  186MOL0     H25648   7.013  10.630   1.698  2.5805  1.4636 -3.7490
  186MOL0     H25649   7.044  10.393   1.725 -2.5548  0.9894  2.7453
  186MOL0     H25650   6.971  10.026   1.801 -0.0180 -1.4300  2.3168
  186MOL0     H25651   6.971   9.816   1.903 -1.5735  0.9844  0.2447
  186MOL0     H25652   5.829   8.165   1.565 -1.2498  1.3590  1.0782
  186MOL0     H25653   5.791   7.955   1.686  0.9689 -1.6311 -1.5659
  186MOL0     H25654   6.072   7.724   2.054 -2.2948  1.3528 -1.8034
  186MOL0     H25655   6.092   7.534   2.202  1.0530 -0.0556  2.7663
  186MOL0     H25656   6.004   7.316   2.301 -3.6115  0.1742 -0.4968
  186MOL0     H25657   6.104   7.408   2.426  1.1046 -1.3801 -1.0247
  186MOL0     H25658   6.031   7.168   2.468 -1.0856 -0.7433  2.2274
  186MOL0     H25659   5.859   7.215   2.440 -1.3113  3.1876  0.3812
  186MOL0     H25660   6.057   7.341   2.648  0.7911  0.4787  0.2104
  186MOL0     H25661   5.875   7.365   2.634  0.9908  1.4321 -1.3950
  186MOL0     H25662   6.009   7.098   2.670  0.9726  0.4823 -0.1254
  186MOL0     H25663   5.837   7.127   2.695  0.9314 -0.8861  0.4908
  186MOL0     H25664   6.050   7.218   3.055  1.1160 -0.3471 -0.3931
  186MOL0     H25665   5.713   7.604   2.374  0.7395 -3.1091 -0.1036
  186MOL0     H25666   5.575   7.806   2.136 -1.6288  0.0386  2.4612
  186MOL0     H25667   5.583   7.781   2.306  1.7163  2.5252  2.3251
  186MOL0     H25668   5.668   7.927   2.245  2.3791  0.1308  0.8516
  187MOL0     O25669   7.035   4.050  11.192  0.0868 -0.6017  0.5577
  187MOL0     C25670   7.082   4.028  11.303  0.4005  0.2749  0.1908
  187MOL0     O25671   7.136   3.910  11.346  0.1661 -0.1722  0.2816
  187MOL0     C25672   7.152   3.807  11.257  0.8097 -0.1272  1.1176
  187MOL0     C25673   7.281   3.744  11.248 -0.1287 -0.9796 -1.4213
  187MOL0     C25674   7.302   3.647  11.150 -1.1422  0.0553  0.1532
  187MOL0     C25675   7.197   3.619  11.057  0.9498  0.3353  0.0698
  187MOL0     O25676   7.222   3.519  10.969  0.4080  0.0460 -0.3178
  187MOL0     C25677   7.201   3.548  10.833 -0.4563 -0.9569  0.3664
  187MOL0     C25678   7.319   3.490  10.749  0.8263 -0.1652  0.4248
  187MOL0     C25679   7.309   3.340  10.743  0.2453 -0.0382  0.3850
  187MOL0     C25680   7.402   3.299  10.632 -0.5018  0.3888 -0.0523
  187MOL0     C25681   7.309   3.254  10.518 -0.7005 -0.5280 -0.1000
  187MOL0     C25682   7.393   3.231  10.399  0.4964 -0.7440  0.5452
  187MOL0     C25683   7.437   3.355  10.330 -0.3076 -0.1087  0.1786
  187MOL0     C25684   7.340   3.475  10.308 -1.0750 -0.8445 -0.3246
  187MOL0     N25685   7.238   3.453  10.205  0.0704  0.5203 -0.4656
  187MOL0     C25686   7.158   3.549  10.151  0.2395 -1.0634  0.4810
  187MOL0     C25687   7.079   3.479  10.069  0.6877 -0.1760 -0.0476
  187MOL0     C25688   6.960   3.526   9.981 -0.6801 -0.0222 -0.0632
  187MOL0     C25689   6.834   3.522  10.070 -0.7350  0.8145  0.8522
  187MOL0     C25690   6.695   3.503  10.003 -0.2580 -0.0532  0.6728
  187MOL0     C25691   6.684   3.588   9.881  0.7775  0.6322  0.7343
  187MOL0     O25692   6.571   3.529   9.809  0.4087 -0.3494  0.0011
  187MOL0     C25693   6.589   3.508   9.673  0.2310  0.2736 -0.1845
  187MOL0     C25694   6.610   3.617   9.594 -0.1323 -0.3521  0.5961
  187MOL0     C25695   6.610   3.611   9.453  0.0789 -0.4189  0.0936
  187MOL0     C25696   6.629   3.739   9.380 -0.6208 -0.8252  0.4906
  187MOL0     C25697   6.602   3.481   9.390 -0.3589  0.1641  0.3420
  187MOL0     C25698   6.618   3.468   9.240  0.3943  0.1448  0.2494
  187MOL0     O25699   6.719   3.545   9.186 -0.1437 -0.0196  0.0898
  187MOL0     C25700   6.816   3.505   9.101  0.3995  0.4859  0.9631
  187MOL0     C25701   6.867   3.380   9.097  0.3751 -0.2051  0.3482
  187MOL0     C25702   6.957   3.342   8.994  0.9004 -0.3769  1.1014
  187MOL0     C25703   6.984   3.439   8.886  0.2615  1.1984  0.0441
  187MOL0     O25704   7.059   3.404   8.777  1.0092 -0.1624  0.0562
  187MOL0     C25705   7.161   3.312   8.792 -0.0288  0.3145  0.4755
  187MOL0     C25706   7.247   3.301   8.674  1.2231  0.2894  0.4201
  187MOL0     C25707   7.353   3.193   8.666 -0.1430  0.0502  0.8321
  187MOL0     C25708   7.453   3.199   8.543 -0.3874  0.3860 -0.0191
  187MOL0     C25709   7.558   3.082   8.511 -0.3847  0.4588 -0.1406
  187MOL0     C25710   7.510   2.939   8.545  0.2588  0.4894  0.2910
  187MOL0     C25711   7.413   2.883   8.444 -0.2127 -0.9090  0.5170
  187MOL0     C25712   7.466   2.751   8.378  0.1487 -0.9255 -0.1047
  187MOL0    Cl25713   7.348   2.690   8.260 -0.0012  0.2832 -0.2664
  187MOL0     C25714   6.932   3.567   8.897 -0.2833 -0.0601 -0.2209
  187MOL0     C25715   6.847   3.599   9.000 -0.9294 -0.0538 -0.3611
  187MOL0     O25716   6.563   3.377   9.178  0.3546  0.4587 -0.1781
  187MOL0     C25717   6.574   3.370   9.474  0.0996 -0.2108  0.0198
  187MOL0     C25718   6.573   3.384   9.610 -0.0776 -1.1227  0.4370
  187MOL0     N25719   7.105   3.348  10.077  0.1962 -0.1010  0.1081
  187MOL0     N25720   7.188   3.333  10.173  0.4349 -0.0428  0.3104
  187MOL0     C25721   7.066   3.667  11.076 -0.4753 -0.6790 -1.0367
  187MOL0     C25722   7.050   3.767  11.168  0.8323 -0.5080 -0.1108
  187MOL0     C25723   7.103   4.151  11.386 -0.0001  0.4494  0.3132
  187MOL0     C25724   7.015   4.257  11.370 -0.6728  0.2259 -0.4872
  187MOL0     C25725   7.037   4.383  11.424 -0.0312  0.3528  0.8668
  187MOL0     C25726   7.151   4.414  11.493 -0.9133  0.6950 -0.6371
  187MOL0     O25727   7.191   4.541  11.523  0.3523 -0.3753  0.3786
  187MOL0     C25728   7.165   4.573  11.667 -0.5233 -0.1464 -0.1099
  187MOL0     C25729   7.125   4.722  11.681  0.9611  0.0868 -0.3140
  187MOL0     C25730   6.976   4.740  11.619  0.3281 -0.0567  0.0899
  187MOL0     C25731   6.920   4.873  11.663 -0.2102 -0.0495 -0.6838
  187MOL0     C25732   7.000   4.987  11.605 -0.6641  0.2220  0.6376
  187MOL0     C25733   7.078   5.075  11.557  0.3128 -0.9806  0.0183
  187MOL0     C25734   7.235   4.310  11.525  0.1033 -0.4513  0.5002
  187MOL0     C25735   7.215   4.178  11.464 -1.0941 -1.6358  0.0243
  187MOL0     C25736   7.329   4.088  11.487  0.3177 -0.2194 -0.4964
  187MOL0     H25737   7.363   3.771  11.314  0.1176  0.8531 -2.3979
  187MOL0     H25738   7.398   3.598  11.151 -0.2557  1.7083  0.1437
  187MOL0     H25739   7.213   3.653  10.806 -0.1837 -0.8050  1.0817
  187MOL0     H25740   7.104   3.506  10.802 -3.1235  3.1365  2.3004
  187MOL0     H25741   7.309   3.541  10.653 -0.2042 -0.7482  0.2036
  187MOL0     H25742   7.414   3.529  10.787  0.0621  0.6691  1.5163
  187MOL0     H25743   7.342   3.293  10.837  3.0915  2.7501  0.9298
  187MOL0     H25744   7.207   3.306  10.722  0.1905 -1.0061  2.0486
  187MOL0     H25745   7.478   3.372  10.604 -0.9033  0.0190 -2.3189
  187MOL0     H25746   7.447   3.211  10.679  0.0439  1.1392  0.8659
  187MOL0     H25747   7.234   3.331  10.496 -1.0349 -0.8386 -0.0562
  187MOL0     H25748   7.251   3.166  10.548 -0.0983 -0.8959  0.0133
  187MOL0     H25749   7.488   3.185  10.425  1.3188  1.5302  1.8278
  187MOL0     H25750   7.331   3.183  10.322  0.4681  0.3189 -0.1174
  187MOL0     H25751   7.471   3.310  10.237 -2.2161 -0.4347 -0.4205
  187MOL0     H25752   7.528   3.389  10.379  0.5923  0.9776 -2.1013
  187MOL0     H25753   7.286   3.502  10.399 -4.1203 -0.8615 -1.9762
  187MOL0     H25754   7.406   3.558  10.279 -0.8002  0.9042  4.4486
  187MOL0     H25755   7.169   3.654  10.176 -1.4994 -0.9536  0.8896
  187MOL0     H25756   6.945   3.456   9.898 -2.2444  2.0755 -1.6587
  187MOL0     H25757   6.976   3.625   9.937 -1.1404  0.4949  0.8961
  187MOL0     H25758   6.837   3.438  10.140  0.9170 -0.9831 -1.2440
  187MOL0     H25759   6.823   3.611  10.134 -3.1472  1.2794 -0.0954
  187MOL0     H25760   6.683   3.401   9.965 -2.6413  0.8256 -1.2075
  187MOL0     H25761   6.609   3.505  10.070 -0.0433  1.2581  0.9364
  187MOL0     H25762   6.656   3.691   9.905  1.2296  2.5527 -5.1572
  187MOL0     H25763   6.773   3.597   9.817  0.8538 -0.0746  0.7349
  187MOL0     H25764   6.639   3.713   9.633  3.0060 -0.9185 -0.0755
  187MOL0     H25765   6.731   3.755   9.344 -0.0327  0.0639  2.3838
  187MOL0     H25766   6.623   3.828   9.443  1.2834  0.1728 -0.6221
  187MOL0     H25767   6.557   3.736   9.298  1.0244 -4.1149 -1.0320
  187MOL0     H25768   6.829   3.304   9.164 -3.7948 -2.1016 -3.5612
  187MOL0     H25769   7.007   3.246   9.002  0.4290 -0.7007  0.2262
  187MOL0     H25770   7.226   3.334   8.877  0.7131  1.0615 -0.2599
  187MOL0     H25771   7.128   3.212   8.820  2.2423 -0.5773  0.2205
  187MOL0     H25772   7.190   3.275   8.584  2.3478  0.5559 -0.3890
  187MOL0     H25773   7.277   3.401   8.642  1.7617  0.2331  0.7314
  187MOL0     H25774   7.309   3.094   8.681  1.8200 -0.7288  2.0026
  187MOL0     H25775   7.418   3.198   8.755  2.0055 -0.3599 -0.6237
  187MOL0     H25776   7.505   3.295   8.544  1.1504 -0.2197 -4.0056
  187MOL0     H25777   7.384   3.196   8.458 -2.9292  0.5998  1.9200
  187MOL0     H25778   7.594   3.087   8.408  0.2208 -0.3948  0.0152
  187MOL0     H25779   7.646   3.092   8.576 -0.0396  0.1194 -0.5464
  187MOL0     H25780   7.457   2.922   8.640 -1.0664  0.0436 -0.4945
  187MOL0     H25781   7.599   2.876   8.557  0.7995  0.9541 -1.1264
  187MOL0     H25782   7.397   2.955   8.364  3.0063  0.0832  0.6414
  187MOL0     H25783   7.313   2.864   8.484 -0.3549  1.1360  1.2711
  187MOL0     H25784   7.471   2.677   8.458 -1.3035 -0.6376  0.2775
  187MOL0     H25785   7.563   2.771   8.333 -0.8515 -1.6045 -2.8274
  187MOL0     H25786   6.944   3.635   8.814  0.5440 -0.4851 -0.4643
  187MOL0     H25787   6.815   3.702   9.012 -0.4582  0.0739 -0.1634
  187MOL0     H25788   6.559   3.274   9.426 -0.8926  1.7475 -3.9986
  187MOL0     H25789   6.539   3.296   9.664 -2.3930 -0.4310  0.2142
  187MOL0     H25790   6.973   3.657  11.020 -3.0523  1.5534  2.4262
  187MOL0     H25791   6.951   3.813  11.171 -0.1260 -2.4367  0.0018
  187MOL0     H25792   6.924   4.241  11.313 -0.1808  0.9448 -1.5032
  187MOL0     H25793   6.967   4.456  11.385  2.3608  2.0574 -0.4953
  187MOL0     H25794   7.085   4.508  11.705 -0.5831 -0.9603 -1.5189
  187MOL0     H25795   7.254   4.554  11.728 -0.6410 -0.2846  0.0200
  187MOL0     H25796   7.194   4.792  11.634 -0.5779  2.7711  1.1619
  187MOL0     H25797   7.128   4.753  11.786 -0.1674  3.8073 -1.2584
  187MOL0     H25798   6.985   4.728  11.511  0.9794 -1.7703  0.2882
  187MOL0     H25799   6.906   4.668  11.662  0.7005 -0.7865 -0.4982
  187MOL0     H25800   6.931   4.881  11.772  1.8164 -1.5316 -0.7147
  187MOL0     H25801   6.814   4.884  11.641 -0.4020 -0.5250 -0.0304
  187MOL0     H25802   7.147   5.142  11.511 -0.7193  0.7063  0.8509
  187MOL0     H25803   7.315   4.330  11.594  0.0945  0.3964  0.2713
  187MOL0     H25804   7.367   4.027  11.404  1.9767 -2.4502  1.7389
  187MOL0     H25805   7.418   4.147  11.512 -2.9898  5.0725  0.2525
  187MOL0     H25806   7.306   4.018  11.568 -2.3323  0.8075 -0.2594
  188MOL0     O25807   9.002   1.599   5.114  0.3407  0.3491  0.8924
  188MOL0     C25808   9.057   1.683   5.183 -0.4317  0.6487 -0.1121
  188MOL0     O25809   9.052   1.823   5.156 -0.5883 -0.1570  0.2912
  188MOL0     C25810   8.953   1.880   5.071 -1.3303 -0.3967  0.7512
  188MOL0     C25811   8.992   2.006   5.018 -0.3867 -0.1543 -0.0328
  188MOL0     C25812   8.896   2.095   4.966 -0.0917  0.0153 -0.3668
  188MOL0     C25813   8.761   2.062   4.971 -1.1851 -0.9010 -0.3728
  188MOL0     O25814   8.671   2.167   4.938 -0.2779  0.0826  0.2459
  188MOL0     C25815   8.536   2.130   4.925 -0.3282 -0.0230  0.3398
  188MOL0     C25816   8.451   2.240   4.866 -0.3808  0.1047 -0.3850
  188MOL0     C25817   8.414   2.350   4.978  1.0725  0.2830  0.8539
  188MOL0     C25818   8.315   2.453   4.905 -0.6673  0.7233  0.2096
  188MOL0     C25819   8.244   2.536   5.009 -0.0460 -0.5578 -0.8706
  188MOL0     C25820   8.337   2.647   5.069 -0.8986 -0.1170 -0.5303
  188MOL0     C25821   8.292   2.693   5.202  0.2346  0.6242 -0.1396
  188MOL0     C25822   8.167   2.787   5.195 -0.3159  0.1217 -0.4964
  188MOL0     N25823   8.209   2.926   5.174 -1.2071  0.9554  0.4425
  188MOL0     C25824   8.267   2.999   5.271 -1.1321  0.3135  0.3348
  188MOL0     C25825   8.261   3.131   5.227 -0.7396  1.0425 -0.8878
  188MOL0     C25826   8.301   3.253   5.296 -0.2447  0.0065 -0.1389
  188MOL0     C25827   8.430   3.307   5.253  0.0126  1.1100  0.8902
  188MOL0     C25828   8.466   3.447   5.316  0.1864  0.7834  1.1657
  188MOL0     C25829   8.362   3.557   5.288  0.4843 -0.0081  0.1529
  188MOL0     O25830   8.325   3.564   5.153 -0.5264  0.3810  0.1676
  188MOL0     C25831   8.279   3.686   5.113  0.2304  0.1256 -0.4262
  188MOL0     C25832   8.186   3.754   5.185  0.4847 -0.3156 -0.3240
  188MOL0     C25833   8.145   3.878   5.150  0.5931  1.3952 -0.3609
  188MOL0     C25834   8.034   3.933   5.240  0.3503 -0.4355  0.2088
  188MOL0     C25835   8.212   3.940   5.042  0.4344  0.1222 -0.0226
  188MOL0     C25836   8.167   4.077   5.006  0.8983 -1.0138 -0.3325
  188MOL0     O25837   8.172   4.178   5.100  0.0374  0.0795 -0.0717
  188MOL0     C25838   8.119   4.300   5.071  1.3274  0.6796  0.4971
  188MOL0     C25839   8.040   4.359   5.171  0.2136 -0.1617 -0.5481
  188MOL0     C25840   7.992   4.486   5.140 -1.1278  0.4961  0.7266
  188MOL0     C25841   8.020   4.554   5.019  0.2822 -0.2741  0.2971
  188MOL0     O25842   7.988   4.693   5.004 -0.2076  0.6248 -0.3732
  188MOL0     C25843   8.013   4.775   5.133 -0.4163  0.7728  0.6989
  188MOL0     C25844   7.975   4.921   5.103 -0.0311  0.3630 -0.8787
  188MOL0     C25845   7.991   5.018   5.221 -0.5117  0.0931  0.6355
  188MOL0     C25846   8.136   5.039   5.242 -0.1493 -1.3234 -0.3288
  188MOL0     C25847   8.156   5.127   5.366  0.3476 -0.8913 -0.4250
  188MOL0     C25848   8.124   5.277   5.328  0.3742  0.2149 -0.0644
  188MOL0     C25849   8.141   5.363   5.449  0.7028 -0.2515 -0.1806
  188MOL0     C25850   8.028   5.355   5.555 -0.2225  0.2436  0.3222
  188MOL0    Cl25851   7.876   5.356   5.465  0.0178  0.0919  0.2486
  188MOL0     C25852   8.093   4.491   4.914 -0.1782  0.5094 -0.7815
  188MOL0     C25853   8.146   4.359   4.940  0.7983 -0.6751 -0.1240
  188MOL0     O25854   8.109   4.086   4.896  0.3605 -0.1823  0.0551
  188MOL0     C25855   8.319   3.872   4.972  0.8350 -0.3207  0.7321
  188MOL0     C25856   8.349   3.743   5.007 -0.1442 -0.2885  0.7759
  188MOL0     N25857   8.198   3.129   5.099 -0.2725 -0.1982  0.3379
  188MOL0     N25858   8.177   3.004   5.064  0.2495 -0.4602 -0.5067
  188MOL0     C25859   8.728   1.925   5.010 -0.4729 -1.1537  0.3990
  188MOL0     C25860   8.825   1.835   5.050 -0.4267  0.3906 -0.0509
  188MOL0     C25861   9.137   1.633   5.293 -0.3656  1.1809 -0.1557
  188MOL0     C25862   9.255   1.703   5.306 -0.3135  0.8015  0.0789
  188MOL0     C25863   9.351   1.658   5.403  0.0007 -0.0995  1.0775
  188MOL0     C25864   9.334   1.538   5.472  0.4773 -0.2366 -0.4415
  188MOL0     O25865   9.425   1.491   5.565  0.3251  0.4490  0.3333
  188MOL0     C25866   9.432   1.352   5.587  0.4558  0.4182  0.3718
  188MOL0     C25867   9.530   1.321   5.699  0.8059  0.0603 -0.0438
  188MOL0     C25868   9.672   1.324   5.636  0.0556  0.5503  0.2182
  188MOL0     C25869   9.761   1.295   5.755  0.2582  0.7452  0.3896
  188MOL0     C25870   9.886   1.234   5.708  0.3728  0.3477 -0.2563
  188MOL0     C25871   9.978   1.198   5.642 -0.8758  0.3226 -1.5496
  188MOL0     C25872   9.211   1.479   5.458  0.2730 -0.6479  0.0242
  188MOL0     C25873   9.109   1.518   5.371 -0.1981  0.5215 -0.6369
  188MOL0     C25874   8.980   1.438   5.376  0.3074  0.1613 -0.1181
  188MOL0     H25875   9.095   2.038   5.033 -0.9993  1.7511  0.3099
  188MOL0     H25876   8.930   2.191   4.929  1.5919 -0.0785  0.8325
  188MOL0     H25877   8.503   2.093   5.022 -3.8603  0.7857 -0.4335
  188MOL0     H25878   8.539   2.045   4.855  0.5234  0.9776 -0.8874
  188MOL0     H25879   8.498   2.275   4.774 -2.3419 -0.6709 -1.7328
  188MOL0     H25880   8.358   2.191   4.838  1.5542 -4.0228 -0.3474
  188MOL0     H25881   8.359   2.300   5.058 -0.4738 -1.3361 -1.1357
  188MOL0     H25882   8.511   2.394   5.005  1.4722  1.6493 -2.3455
  188MOL0     H25883   8.371   2.511   4.831 -1.2774  0.2364 -0.6498
  188MOL0     H25884   8.237   2.400   4.849 -0.0313 -0.5647  0.5224
  188MOL0     H25885   8.206   2.467   5.085 -1.9486 -1.9709 -2.9741
  188MOL0     H25886   8.153   2.581   4.967 -1.1179 -0.8017  1.0589
  188MOL0     H25887   8.440   2.618   5.090 -1.2499  0.9363  3.4338
  188MOL0     H25888   8.348   2.728   4.997  0.6550  0.3351  0.1906
  188MOL0     H25889   8.377   2.732   5.258 -1.1370  0.6970  2.0222
  188MOL0     H25890   8.250   2.612   5.264 -0.5692  0.8691 -0.3485
  188MOL0     H25891   8.105   2.746   5.115  0.9206 -2.6374 -0.1758
  188MOL0     H25892   8.125   2.772   5.295  2.5770 -4.6929  0.3472
  188MOL0     H25893   8.329   2.966   5.354  1.4278  1.7095 -0.9001
  188MOL0     H25894   8.303   3.229   5.403  0.4131  0.6958  0.0147
  188MOL0     H25895   8.218   3.320   5.271  0.0342  0.8653  1.1160
  188MOL0     H25896   8.506   3.228   5.255 -2.3617 -1.3668  0.0942
  188MOL0     H25897   8.422   3.323   5.145 -0.9595  0.6586  0.8853
  188MOL0     H25898   8.480   3.426   5.423  0.9655  1.5763  1.2248
  188MOL0     H25899   8.559   3.486   5.274 -0.6538 -0.0431 -1.6582
  188MOL0     H25900   8.275   3.532   5.349  1.1631 -1.6595  0.4966
  188MOL0     H25901   8.399   3.653   5.326  0.0909 -0.9678  3.1898
  188MOL0     H25902   8.144   3.712   5.275  1.7120 -0.7860  0.0454
  188MOL0     H25903   7.947   3.868   5.250  0.3495 -0.1005  3.2959
  188MOL0     H25904   7.996   4.027   5.198 -0.1322 -0.2466  1.0322
  188MOL0     H25905   8.067   3.959   5.341  0.5130 -0.4477  0.1589
  188MOL0     H25906   8.041   4.306   5.266 -1.1226 -0.0460 -0.4575
  188MOL0     H25907   7.939   4.537   5.220 -2.1565  2.5363 -1.1379
  188MOL0     H25908   7.951   4.742   5.218  2.2425 -0.2276  2.3813
  188MOL0     H25909   8.119   4.767   5.156  0.1572  1.1160 -1.6601
  188MOL0     H25910   8.029   4.949   5.012  0.2217 -1.7726 -1.4571
  188MOL0     H25911   7.871   4.920   5.068 -0.7318  1.8311  0.9830
  188MOL0     H25912   7.945   4.975   5.310 -4.8018  2.8995  0.0781
  188MOL0     H25913   7.931   5.108   5.203 -1.7583 -1.0194 -1.0650
  188MOL0     H25914   8.182   5.085   5.155 -3.0104 -2.4552 -2.6297
  188MOL0     H25915   8.175   4.939   5.267  0.2138 -1.4867 -1.5307
  188MOL0     H25916   8.097   5.098   5.454  0.0839  0.4854 -0.1294
  188MOL0     H25917   8.260   5.120   5.398 -0.4776  1.7112  3.5079
  188MOL0     H25918   8.026   5.295   5.283  0.4426 -2.8607 -1.6951
  188MOL0     H25919   8.195   5.296   5.247 -1.0132  2.5870 -0.8279
  188MOL0     H25920   8.133   5.468   5.419 -0.3584 -0.3958 -0.4320
  188MOL0     H25921   8.243   5.348   5.486  0.3666  1.3053  1.5092
  188MOL0     H25922   8.025   5.453   5.604 -3.4174  2.4641 -3.6813
  188MOL0     H25923   8.054   5.277   5.627  0.7055 -2.6439 -2.8989
  188MOL0     H25924   8.098   4.554   4.826 -5.6120  5.2915  1.6870
  188MOL0     H25925   8.224   4.320   4.876  3.0745  2.2853  0.6366
  188MOL0     H25926   8.364   3.912   4.881  2.2115 -0.3650  1.3792
  188MOL0     H25927   8.427   3.687   4.956 -0.4026  1.0691 -1.2488
  188MOL0     H25928   8.625   1.896   4.994 -1.1061  1.2935 -0.4423
  188MOL0     H25929   8.805   1.740   5.099  0.9346 -0.8658 -1.8188
  188MOL0     H25930   9.264   1.793   5.245  1.7740  0.2762 -0.4980
  188MOL0     H25931   9.429   1.729   5.429  0.0504 -0.7178  2.7847
  188MOL0     H25932   9.336   1.313   5.621  1.5932 -1.4726  1.6040
  188MOL0     H25933   9.456   1.302   5.492 -0.6910 -0.4560  0.5145
  188MOL0     H25934   9.516   1.223   5.745  1.0700  0.1821  0.3020
  188MOL0     H25935   9.513   1.401   5.772  0.4972 -0.2103  0.1799
  188MOL0     H25936   9.675   1.246   5.559  1.0751  1.8900 -1.1452
  188MOL0     H25937   9.682   1.423   5.590 -0.0651  1.2628  1.6856
  188MOL0     H25938   9.715   1.217   5.817 -0.5129 -1.0127 -2.2192
  188MOL0     H25939   9.775   1.386   5.814 -2.0825  0.0805  2.1072
  188MOL0     H25940  10.066   1.155   5.599  2.0787  0.7580  3.3105
  188MOL0     H25941   9.193   1.390   5.519 -2.0215 -0.3209 -0.0901
  188MOL0     H25942   8.928   1.421   5.282  1.8750 -0.4852 -0.9065
  188MOL0     H25943   9.009   1.340   5.415  2.3529  1.0221  0.7002
  188MOL0     H25944   8.917   1.490   5.449 -2.4226 -3.3785  0.2588
  189MOL0     O25945   0.601   7.251   2.150  0.2536 -0.6865  0.1284
  189MOL0     C25946   0.622   7.188   2.250  0.5756  0.5306  0.4280
  189MOL0     O25947   0.579   7.062   2.264 -0.1958 -0.3047  0.4303
  189MOL0     C25948   0.505   7.002   2.161 -0.6384  0.7986  0.5591
  189MOL0     C25949   0.367   6.980   2.176  0.0896  0.1139 -0.4589
  189MOL0     C25950   0.292   6.915   2.077  0.5838  0.2411 -0.6996
  189MOL0     C25951   0.349   6.878   1.950 -0.7213  0.6280 -0.9044
  189MOL0     O25952   0.285   6.824   1.838  0.0986 -0.3783 -0.3699
  189MOL0     C25953   0.150   6.853   1.808  0.6619 -0.1045  0.0342
  189MOL0     C25954   0.122   7.000   1.761 -0.7229 -0.3154  0.2777
  189MOL0     C25955   0.104   7.012   1.604  0.0028  0.0206 -1.3927
  189MOL0     C25956   0.081   7.155   1.560  0.1951  0.1609 -0.8629
  189MOL0     C25957   0.060   7.156   1.410 -0.1538  0.6923  0.5367
  189MOL0     C25958  -0.033   7.060   1.345  0.8276 -0.0171 -0.0596
  189MOL0     C25959  -0.079   7.111   1.205  0.5632  1.0025 -0.1164
  189MOL0     C25960  -0.167   7.008   1.134  0.7025  0.1339 -0.1612
  189MOL0     N25961  -0.082   6.896   1.091  1.3954  0.3813 -0.2248
  189MOL0     C25962   0.018   6.900   0.998 -0.5973  0.6617  0.0356
  189MOL0     C25963   0.075   6.777   0.991 -0.6689 -0.3089 -0.0268
  189MOL0     C25964   0.185   6.738   0.897 -0.4988  0.1761  0.3029
  189MOL0     C25965   0.311   6.820   0.934  0.3054 -0.4862  0.0198
  189MOL0     C25966   0.435   6.761   0.862  0.2048 -1.0858 -0.6373
  189MOL0     C25967   0.567   6.825   0.916  0.5754 -0.5118  0.6762
  189MOL0     O25968   0.585   6.966   0.909  0.2318  0.1034 -0.5153
  189MOL0     C25969   0.559   7.039   0.799  0.2484 -0.1470 -0.2287
  189MOL0     C25970   0.525   7.173   0.820 -0.1992  0.3708  0.3785
  189MOL0     C25971   0.487   7.247   0.711  0.1855 -0.4629  0.2145
  189MOL0     C25972   0.438   7.388   0.741  0.1308 -0.1862 -0.0740
  189MOL0     C25973   0.490   7.201   0.573 -1.0095  0.3397 -0.1894
  189MOL0     C25974   0.455   7.279   0.445  0.7486  0.7832  0.3697
  189MOL0     O25975   0.474   7.222   0.330 -0.2049 -0.1074 -0.3351
  189MOL0     C25976   0.482   7.301   0.218  0.0796 -0.1228 -0.1010
  189MOL0     C25977   0.383   7.392   0.184 -0.7882  0.0464  0.2261
  189MOL0     C25978   0.389   7.469   0.070  0.3199  0.4716 -0.0368
  189MOL0     C25979   0.493   7.444  -0.022 -0.0948  0.2113 -0.1991
  189MOL0     O25980   0.507   7.516  -0.143  0.3353 -0.1490  0.1393
  189MOL0     C25981   0.529   7.651  -0.117 -0.4682 -0.5692 -0.3453
  189MOL0     C25982   0.629   7.700  -0.220 -0.1619 -1.1162 -0.0796
  189MOL0     C25983   0.773   7.638  -0.213 -0.8696 -0.6939 -0.4891
  189MOL0     C25984   0.833   7.694  -0.076 -0.6784  0.0598 -0.2185
  189MOL0     C25985   0.988   7.693  -0.084  0.1560 -0.5518 -0.5334
  189MOL0     C25986   1.029   7.709   0.062 -0.0953 -0.0253 -0.5536
  189MOL0     C25987   1.174   7.693   0.081 -0.4047  0.6027 -0.3063
  189MOL0     C25988   1.205   7.627   0.216  0.9908 -0.1349 -0.6292
  189MOL0    Cl25989   1.147   7.721   0.353  0.1061  0.2527  0.2135
  189MOL0     C25990   0.593   7.347   0.012  0.0905 -0.4195 -0.3705
  189MOL0     C25991   0.582   7.270   0.124 -0.6199  0.1414 -0.5810
  189MOL0     O25992   0.401   7.385   0.464  0.0319  0.0524 -0.5021
  189MOL0     C25993   0.538   7.066   0.554 -0.0997  0.0414 -0.0113
  189MOL0     C25994   0.562   6.986   0.668  0.4798  0.0342 -0.5027
  189MOL0     N25995   0.017   6.694   1.091  0.5318 -0.3711  1.0878
  189MOL0     N25996  -0.077   6.769   1.141 -0.8294 -0.3118 -0.1988
  189MOL0     C25997   0.493   6.896   1.942  0.0242  0.4436  1.0112
  189MOL0     C25998   0.567   6.953   2.042 -0.1953  0.3632 -0.3217
  189MOL0     C25999   0.711   7.244   2.355 -0.1122 -0.8832  0.2888
  189MOL0     C26000   0.790   7.349   2.309 -0.3353 -0.3007 -0.0798
  189MOL0     C26001   0.879   7.408   2.388 -0.3082  0.7799  0.7151
  189MOL0     C26002   0.890   7.377   2.521  0.3379  0.1563 -1.3710
  189MOL0     O26003   0.984   7.422   2.611  0.1937  0.9746  0.0843
  189MOL0     C26004   1.084   7.514   2.576 -0.4590 -0.2110  0.5243
  189MOL0     C26005   1.161   7.570   2.696 -0.2241  1.0938  0.1792
  189MOL0     C26006   1.077   7.653   2.790  0.4434  0.0512 -0.0689
  189MOL0     C26007   1.172   7.690   2.906  1.4730  0.3931 -0.2008
  189MOL0     C26008   1.094   7.774   3.004 -0.7644  0.0370 -0.4837
  189MOL0     C26009   1.034   7.852   3.081  0.3752 -0.5024  0.5573
  189MOL0     C26010   0.813   7.273   2.569 -0.0632  1.0603  0.1217
  189MOL0     C26011   0.715   7.209   2.495 -0.3748  0.5736  0.6625
  189MOL0     C26012   0.614   7.107   2.556 -0.9049  0.0620  0.2342
  189MOL0     H26013   0.324   7.002   2.273  0.6555  0.0654 -0.1969
  189MOL0     H26014   0.188   6.900   2.103  0.7998  2.0931  1.5581
  189MOL0     H26015   0.074   6.825   1.882 -0.5813  0.2023 -1.0656
  189MOL0     H26016   0.118   6.790   1.724  0.2459  0.8006 -0.5204
  189MOL0     H26017   0.023   7.021   1.803 -1.4327 -0.4689 -1.2300
  189MOL0     H26018   0.186   7.079   1.800 -2.2803 -0.3681  3.2091
  189MOL0     H26019   0.195   6.968   1.561  1.6804  1.9991 -0.0818
  189MOL0     H26020   0.020   6.948   1.574  0.5304 -0.2811 -2.2751
  189MOL0     H26021  -0.003   7.200   1.614 -1.7372 -3.0130 -0.9371
  189MOL0     H26022   0.167   7.219   1.582  1.1828 -1.7387  1.2181
  189MOL0     H26023   0.157   7.129   1.367 -1.0512 -0.0573 -1.1182
  189MOL0     H26024   0.027   7.251   1.367  1.4484  2.3332  2.7393
  189MOL0     H26025  -0.004   6.955   1.331  1.2336  0.3382 -2.2371
  189MOL0     H26026  -0.127   7.065   1.399  0.0008 -2.6299 -1.0733
  189MOL0     H26027   0.002   7.143   1.140 -0.8330  1.0895 -1.8722
  189MOL0     H26028  -0.148   7.194   1.226  0.2594  0.6259  0.3947
  189MOL0     H26029  -0.245   6.970   1.201  4.0217 -0.5157  3.7155
  189MOL0     H26030  -0.209   7.052   1.043  2.3902  0.7299 -0.6841
  189MOL0     H26031   0.035   6.980   0.927 -2.2872 -0.6580 -2.0083
  189MOL0     H26032   0.151   6.750   0.794 -0.2349 -0.6641  0.1046
  189MOL0     H26033   0.219   6.634   0.905  1.2866  0.7113  0.2213
  189MOL0     H26034   0.291   6.922   0.903  0.9061  0.2051  1.7785
  189MOL0     H26035   0.328   6.822   1.042 -0.8216  1.5375  0.1939
  189MOL0     H26036   0.436   6.652   0.868  0.7533 -1.2431 -2.8281
  189MOL0     H26037   0.423   6.767   0.754  0.3772 -2.1171 -0.7224
  189MOL0     H26038   0.560   6.792   1.020 -4.0682 -3.5522 -0.2704
  189MOL0     H26039   0.647   6.782   0.855 -1.2461 -2.9440 -0.1596
  189MOL0     H26040   0.534   7.228   0.913 -1.7296  2.1091 -0.4393
  189MOL0     H26041   0.490   7.471   0.691 -2.6040  0.8030 -1.4933
  189MOL0     H26042   0.436   7.403   0.849  3.9526 -0.8117  0.2213
  189MOL0     H26043   0.338   7.408   0.701 -0.4861  0.7378  1.8283
  189MOL0     H26044   0.297   7.398   0.249  0.6967 -2.5991  2.6711
  189MOL0     H26045   0.307   7.533   0.037 -0.4839 -1.0843 -1.1858
  189MOL0     H26046   0.439   7.711  -0.135 -0.9283 -1.9186 -3.0812
  189MOL0     H26047   0.569   7.687  -0.021 -1.3429  0.2704 -0.2843
  189MOL0     H26048   0.587   7.677  -0.318  1.9647 -1.2158 -1.0218
  189MOL0     H26049   0.637   7.809  -0.226 -0.9093 -1.0585 -0.1275
  189MOL0     H26050   0.833   7.667  -0.300 -1.4807  0.0579 -0.6703
  189MOL0     H26051   0.775   7.530  -0.227  1.0533 -0.7307 -0.1503
  189MOL0     H26052   0.802   7.626   0.004  3.0602 -0.3546  1.0694
  189MOL0     H26053   0.796   7.796  -0.062 -1.6447 -0.3394  0.1674
  189MOL0     H26054   1.030   7.598  -0.118  0.1557 -1.0921  0.9373
  189MOL0     H26055   1.023   7.775  -0.149 -1.7990  1.3459  0.6683
  189MOL0     H26056   0.973   7.643   0.129  1.7407 -0.2945  0.8295
  189MOL0     H26057   1.004   7.808   0.101  2.0550  0.0890  0.7486
  189MOL0     H26058   1.220   7.792   0.082 -0.9872  0.8692 -0.1243
  189MOL0     H26059   1.235   7.647   0.002  1.0391  1.2497  0.3895
  189MOL0     H26060   1.313   7.608   0.222  0.7762 -2.9232 -3.3655
  189MOL0     H26061   1.151   7.532   0.220 -3.5616  2.0797 -2.4935
  189MOL0     H26062   0.662   7.320  -0.066 -1.3183  0.5114 -2.0004
  189MOL0     H26063   0.658   7.194   0.138 -1.5357 -0.9036 -1.1526
  189MOL0     H26064   0.566   7.027   0.457 -0.3437  0.0235 -0.0724
  189MOL0     H26065   0.583   6.882   0.645 -2.3524 -0.6033 -0.6343
  189MOL0     H26066   0.544   6.866   1.851  0.1451 -2.7643  2.0102
  189MOL0     H26067   0.674   6.965   2.036 -0.0527 -0.3417  0.5685
  189MOL0     H26068   0.799   7.365   2.202  1.6095 -2.3491 -0.2823
  189MOL0     H26069   0.942   7.484   2.342  0.5543 -0.8321 -0.8788
  189MOL0     H26070   1.159   7.473   2.508  0.1368  0.6719  0.6276
  189MOL0     H26071   1.046   7.598   2.519  0.3540 -1.6408 -2.2922
  189MOL0     H26072   1.238   7.638   2.657 -1.2989  0.5365 -3.2561
  189MOL0     H26073   1.203   7.492   2.761  0.0372  1.2358  0.1848
  189MOL0     H26074   1.044   7.744   2.738  0.0689  0.2925  0.5772
  189MOL0     H26075   0.997   7.590   2.831  1.1919 -0.5049  0.5599
  189MOL0     H26076   1.250   7.751   2.860 -0.6803  3.2446 -0.3646
  189MOL0     H26077   1.211   7.604   2.962  1.9330  0.5977 -0.2037
  189MOL0     H26078   0.989   7.917   3.154 -0.5838  0.4373 -0.8254
  189MOL0     H26079   0.837   7.239   2.669 -1.1393 -0.7246 -0.1776
  189MOL0     H26080   0.510   7.139   2.561 -0.4044  1.5462  2.0626
  189MOL0     H26081   0.628   7.015   2.498 -0.5416  1.5045 -2.1158
  189MOL0     H26082   0.657   7.088   2.655  4.4570  2.6300 -1.2226
  190MOL0     O26083   0.981   8.329   0.956 -0.6324 -0.1203  0.1965
  190MOL0     C26084   0.895   8.391   1.022 -0.2278 -0.2805 -0.4156
  190MOL0     O26085   0.832   8.343   1.139  0.0774 -0.2370 -0.0429
  190MOL0     C26086   0.855   8.215   1.161  0.3512  0.0978  0.2207
  190MOL0     C26087   0.785   8.111   1.097 -0.1626 -0.3336  0.2550
  190MOL0     C26088   0.796   7.979   1.136 -0.4061 -0.3833  0.3445
  190MOL0     C26089   0.887   7.934   1.227  1.0852 -0.3464  0.7453
  190MOL0     O26090   0.916   7.797   1.242 -0.4429  0.0805  0.2001
  190MOL0     C26091   0.860   7.684   1.181  0.1224  0.5005 -0.1733
  190MOL0     C26092   0.909   7.571   1.265 -0.6448  0.6277 -0.0031
  190MOL0     C26093   0.919   7.586   1.419  0.2765 -0.1197 -0.0834
  190MOL0     C26094   0.904   7.441   1.486 -0.1875  0.1375 -0.0319
  190MOL0     C26095   0.926   7.447   1.635  0.1544 -0.3116  0.0555
  190MOL0     C26096   1.073   7.487   1.669  0.2887 -0.4627 -0.7719
  190MOL0     C26097   1.183   7.379   1.631 -0.2785  0.3757  0.2921
  190MOL0     C26098   1.326   7.425   1.689  0.5250  0.7588  0.4980
  190MOL0     N26099   1.311   7.391   1.831  0.5946 -0.3862  1.1507
  190MOL0     C26100   1.337   7.467   1.943  0.4697 -0.7855  0.0065
  190MOL0     C26101   1.316   7.396   2.053  0.6713  0.1358 -0.0702
  190MOL0     C26102   1.294   7.436   2.204  0.1155  0.4331 -0.5591
  190MOL0     C26103   1.419   7.505   2.253 -0.3634  0.7453 -0.3081
  190MOL0     C26104   1.555   7.443   2.223  0.3017  0.1649 -0.6315
  190MOL0     C26105   1.552   7.287   2.234 -0.6102  0.1379  0.3480
  190MOL0     O26106   1.684   7.248   2.197  0.1248 -0.4659  0.4482
  190MOL0     C26107   1.721   7.234   2.068  0.1494  0.0273 -0.2400
  190MOL0     C26108   1.848   7.183   2.039 -0.4168  0.0302  0.1081
  190MOL0     C26109   1.896   7.155   1.906 -0.9685  0.4403 -1.1479
  190MOL0     C26110   2.038   7.080   1.888  0.6661  0.5930 -0.5208
  190MOL0     C26111   1.808   7.180   1.793  1.0702  0.1583  0.1114
  190MOL0     C26112   1.841   7.139   1.650 -0.1888  0.8615 -0.0261
  190MOL0     O26113   1.921   7.025   1.627 -0.0974  0.1356 -0.2284
  190MOL0     C26114   1.934   6.995   1.495 -0.8955 -0.6110 -0.3553
  190MOL0     C26115   2.053   7.012   1.420 -0.0036  0.5430 -0.2851
  190MOL0     C26116   2.051   6.976   1.289 -0.9980  0.7715  0.1650
  190MOL0     C26117   1.941   6.932   1.221 -0.5044 -0.1092  0.1647
  190MOL0     O26118   1.953   6.909   1.083  0.1962 -0.3396 -0.1355
  190MOL0     C26119   1.846   6.968   0.993 -0.6831  0.8677  0.5801
  190MOL0     C26120   1.911   7.042   0.871  0.7513 -0.3549  0.4612
  190MOL0     C26121   1.802   7.067   0.764 -0.1670  0.3383  0.8482
  190MOL0     C26122   1.860   7.143   0.642  1.1110 -0.0451  0.3892
  190MOL0     C26123   1.735   7.211   0.566 -0.6470  0.7282  0.3968
  190MOL0     C26124   1.769   7.344   0.495  0.1129 -0.4454  0.6078
  190MOL0     C26125   1.812   7.325   0.348 -0.1846 -0.7075 -0.5202
  190MOL0     C26126   1.933   7.244   0.342 -0.2708  0.0844  0.2649
  190MOL0    Cl26127   2.030   7.245   0.198 -0.5942  0.2810  0.0585
  190MOL0     C26128   1.824   6.910   1.292 -0.7799  0.2691 -0.1073
  190MOL0     C26129   1.821   6.947   1.427  0.2587  0.2362  0.4529
  190MOL0     O26130   1.796   7.202   1.558  0.1951 -0.3007 -0.2163
  190MOL0     C26131   1.682   7.236   1.819 -0.1634 -0.0312 -0.1404
  190MOL0     C26132   1.638   7.257   1.951 -0.5238 -0.1052 -0.3734
  190MOL0     N26133   1.289   7.273   2.005 -0.5096 -0.0491  0.5168
  190MOL0     N26134   1.302   7.261   1.874 -0.3161  0.2675  0.0318
  190MOL0     C26135   0.954   8.043   1.292  0.2143 -0.2018  1.0401
  190MOL0     C26136   0.948   8.179   1.260  0.1617 -0.1927  0.0169
  190MOL0     C26137   0.875   8.526   0.990  0.1634 -0.6283  0.0235
  190MOL0     C26138   0.818   8.601   1.085  0.2370  1.0110  0.6667
  190MOL0     C26139   0.789   8.732   1.062  0.8599 -0.3232 -0.7919
  190MOL0     C26140   0.796   8.792   0.936 -0.3098  0.1393  0.1517
  190MOL0     O26141   0.748   8.914   0.900 -0.5169 -0.7930  0.0423
  190MOL0     C26142   0.814   8.990   0.801 -1.3474 -0.1692  0.4034
  190MOL0     C26143   0.779   9.144   0.806  0.0244  0.4106 -0.3288
  190MOL0     C26144   0.839   9.235   0.698 -0.5687 -0.6881 -0.5497
  190MOL0     C26145   0.781   9.376   0.720  0.0923 -0.0821  0.4538
  190MOL0     C26146   0.844   9.476   0.639 -1.0360  0.2493  0.3439
  190MOL0     C26147   0.881   9.578   0.585  1.1847 -0.8485  0.1149
  190MOL0     C26148   0.864   8.713   0.838 -0.4067 -0.5058  0.6590
  190MOL0     C26149   0.899   8.583   0.861  0.6313  0.0048  0.2517
  190MOL0     C26150   0.927   8.497   0.737 -0.0002  0.0734  0.4249
  190MOL0     H26151   0.718   8.141   1.017 -0.6602  2.3309  1.5479
  190MOL0     H26152   0.726   7.914   1.084  0.3181 -1.2960  0.5065
  190MOL0     H26153   0.892   7.670   1.078  0.0810  3.2556 -0.6532
  190MOL0     H26154   0.751   7.680   1.180  0.1667 -2.1047 -1.5641
  190MOL0     H26155   0.871   7.473   1.235 -1.4267  2.0378 -4.2440
  190MOL0     H26156   1.014   7.556   1.239 -0.7151 -0.3266  0.2508
  190MOL0     H26157   1.021   7.621   1.436  0.7160 -1.9378  1.4513
  190MOL0     H26158   0.846   7.664   1.442  2.8050  2.3692 -0.0227
  190MOL0     H26159   0.803   7.400   1.475 -0.6356  0.9667  0.9315
  190MOL0     H26160   0.975   7.369   1.443 -1.6484 -3.1029  2.4898
  190MOL0     H26161   0.907   7.346   1.671  1.8017 -0.4694  0.5511
  190MOL0     H26162   0.855   7.517   1.681 -0.1114  0.2832 -1.2168
  190MOL0     H26163   1.100   7.575   1.610 -0.4515 -2.7607 -4.9561
  190MOL0     H26164   1.072   7.512   1.775  0.2054  0.0746 -0.8970
  190MOL0     H26165   1.189   7.367   1.522  0.4926 -1.9865  0.5526
  190MOL0     H26166   1.162   7.279   1.669 -0.6742  0.5893  0.6491
  190MOL0     H26167   1.406   7.372   1.636  0.8041  1.6140  0.0362
  190MOL0     H26168   1.343   7.528   1.657  1.1860 -0.0227 -1.8982
  190MOL0     H26169   1.375   7.569   1.948  0.5501 -0.7373 -1.1618
  190MOL0     H26170   1.279   7.354   2.274  0.2328  1.9164  1.2758
  190MOL0     H26171   1.209   7.505   2.201  0.2261  0.6320  0.4317
  190MOL0     H26172   1.418   7.608   2.218  1.6694  1.6738  2.0780
  190MOL0     H26173   1.404   7.513   2.362 -4.3197  0.5108 -0.6769
  190MOL0     H26174   1.586   7.465   2.121 -0.9358  0.9450 -0.8560
  190MOL0     H26175   1.632   7.482   2.291  0.1390 -0.1798 -0.2471
  190MOL0     H26176   1.536   7.252   2.337 -2.5040  0.6460  0.2575
  190MOL0     H26177   1.476   7.238   2.173  0.4914 -0.3029 -0.7082
  190MOL0     H26178   1.926   7.162   2.112  3.8673  1.8545 -3.4730
  190MOL0     H26179   2.037   6.971   1.883  5.5470  0.3598 -4.5545
  190MOL0     H26180   2.124   7.100   1.953  1.4910  0.4820 -1.5441
  190MOL0     H26181   2.081   7.105   1.791  1.0868 -0.0840 -0.5125
  190MOL0     H26182   2.143   7.047   1.468 -0.6012  0.3100  1.0724
  190MOL0     H26183   2.142   6.988   1.231 -0.4614  2.0365  1.2291
  190MOL0     H26184   1.777   6.887   0.968 -0.3223 -0.5884  3.7919
  190MOL0     H26185   1.778   7.037   1.044 -1.6174  0.6222 -0.2964
  190MOL0     H26186   1.959   7.126   0.923 -0.2371  0.5132  0.0016
  190MOL0     H26187   1.990   6.977   0.832  0.2540 -0.0723 -1.0780
  190MOL0     H26188   1.722   7.119   0.818 -1.5767 -0.6325 -0.2128
  190MOL0     H26189   1.767   6.972   0.720 -2.2484 -0.4026  3.8204
  190MOL0     H26190   1.909   7.068   0.579  0.8822 -1.0795  1.4164
  190MOL0     H26191   1.936   7.215   0.673  1.4516 -0.4130  0.4216
  190MOL0     H26192   1.680   7.145   0.498  0.2321 -0.7923  1.1170
  190MOL0     H26193   1.663   7.227   0.646  1.3087 -0.2153  2.4335
  190MOL0     H26194   1.844   7.401   0.551 -1.2999  1.8699  0.2935
  190MOL0     H26195   1.686   7.416   0.491  0.8348  0.3714 -0.2813
  190MOL0     H26196   1.826   7.424   0.304 -0.7709 -0.3529  0.0691
  190MOL0     H26197   1.729   7.273   0.298  0.5573 -0.1811 -2.3674
  190MOL0     H26198   1.914   7.136   0.345  2.1997 -0.3945  0.6330
  190MOL0     H26199   1.987   7.274   0.432 -0.9753  0.5957  0.5314
  190MOL0     H26200   1.737   6.864   1.246  0.0279 -0.8944 -0.5156
  190MOL0     H26201   1.731   6.947   1.488  0.0160 -1.2770  0.1301
  190MOL0     H26202   1.604   7.258   1.746 -1.0027  2.7539  1.4579
  190MOL0     H26203   1.543   7.307   1.968 -0.1538  0.0207  1.5916
  190MOL0     H26204   1.022   8.011   1.370  1.3872  2.3695  1.1689
  190MOL0     H26205   1.006   8.244   1.325 -3.1709  0.8879  2.1397
  190MOL0     H26206   0.806   8.563   1.187 -0.0792  0.8141  0.5582
  190MOL0     H26207   0.755   8.798   1.141  3.2342  1.5466 -1.2110
  190MOL0     H26208   0.923   8.982   0.805 -1.1023  2.4155  1.7613
  190MOL0     H26209   0.778   8.964   0.702  1.6602  0.2780 -0.9268
  190MOL0     H26210   0.795   9.193   0.902  0.3019  0.6718 -0.5037
  190MOL0     H26211   0.672   9.144   0.784 -0.0485 -3.2814 -0.6128
  190MOL0     H26212   0.946   9.259   0.701 -0.8761  1.1840 -2.1031
  190MOL0     H26213   0.825   9.187   0.601 -0.9789 -1.5783 -0.0662
  190MOL0     H26214   0.783   9.408   0.825  0.8583  0.1269  0.3841
  190MOL0     H26215   0.674   9.374   0.697  0.1011 -1.7881  0.4277
  190MOL0     H26216   0.911   9.673   0.545 -1.4400  1.1375  2.4640
  190MOL0     H26217   0.876   8.749   0.736  3.4761 -0.1166  1.1013
  190MOL0     H26218   0.853   8.417   0.740 -1.0596  0.8758 -2.0474
  190MOL0     H26219   0.908   8.555   0.646  0.2073 -0.3539  0.1014
  190MOL0     H26220   1.031   8.462   0.737 -0.5956 -1.8406 -0.2885
  191MOL0     O26221   8.175   5.142  10.607 -0.2153 -0.7066  0.1836
  191MOL0     C26222   8.114   5.118  10.707  0.1413  0.2013  0.7412
  191MOL0     O26223   8.174   5.121  10.826 -1.0541  0.3157  0.4297
  191MOL0     C26224   8.308   5.100  10.843 -0.7186 -0.8242 -0.3650
  191MOL0     C26225   8.378   5.008  10.783 -0.8879  0.3902  0.5698
  191MOL0     C26226   8.511   4.987  10.824  0.1691  0.9897  0.4983
  191MOL0     C26227   8.573   5.065  10.922 -0.4630 -0.6728 -0.2370
  191MOL0     O26228   8.712   5.071  10.952 -0.3152 -0.1496 -0.4163
  191MOL0     C26229   8.798   4.958  10.920  0.6653 -1.3462 -0.4419
  191MOL0     C26230   8.919   4.972  11.028  0.1775  0.6330 -0.5536
  191MOL0     C26231   8.889   4.900  11.158 -0.7228  0.2214 -0.6087
  191MOL0     C26232   8.923   4.752  11.142  0.6687  0.4563  0.0137
  191MOL0     C26233   8.902   4.683  11.276 -0.4036  0.3003 -0.2633
  191MOL0     C26234   8.947   4.540  11.269  0.0419 -0.3713  0.1697
  191MOL0     C26235   8.908   4.459  11.393  0.6630 -0.4643 -0.8470
  191MOL0     C26236   9.025   4.478  11.498  0.2114 -0.4914  0.4509
  191MOL0     N26237   9.148   4.403  11.458  0.8837 -0.1021  0.4162
  191MOL0     C26238   9.181   4.273  11.490  0.1545  0.8485  0.3853
  191MOL0     C26239   9.316   4.265  11.459 -0.3096 -0.5444 -0.8240
  191MOL0     C26240   9.423   4.162  11.487 -1.1317  0.4851 -0.2640
  191MOL0     C26241   9.440   4.122  11.635  0.1279  0.3573 -0.3011
  191MOL0     C26242   9.529   3.993  11.638 -0.5550  0.0541  0.0861
  191MOL0     C26243   9.445   3.864  11.602  0.5051  0.2004 -0.5683
  191MOL0     O26244   9.340   3.859  11.695 -0.7842  0.1804 -0.2084
  191MOL0     C26245   9.380   3.793  11.811 -0.4747 -0.6773  0.3723
  191MOL0     C26246   9.429   3.658  11.809  1.1295 -0.2667  0.0366
  191MOL0     C26247   9.473   3.602  11.937 -0.3154 -0.2702  0.3483
  191MOL0     C26248   9.511   3.457  11.930  0.3813  0.1986 -0.0124
  191MOL0     C26249   9.479   3.681  12.057  0.3564 -0.1770  0.5538
  191MOL0     C26250   9.560   3.639  12.176  0.7469  0.2016 -0.7296
  191MOL0     O26251   9.542   3.722  12.281 -0.4781  0.1311 -0.1999
  191MOL0     C26252   9.582   3.709  12.416 -0.5275  0.3059  0.0016
  191MOL0     C26253   9.580   3.585  12.479 -0.7300  0.2878  0.8116
  191MOL0     C26254   9.637   3.559  12.609  0.4068 -0.0065 -0.3950
  191MOL0     C26255   9.685   3.665  12.684  0.5200 -0.0505 -0.1444
  191MOL0     O26256   9.731   3.653  12.812  0.0620  0.5639  0.3082
  191MOL0     C26257   9.650   3.583  12.902  0.4363  0.1700 -0.7451
  191MOL0     C26258   9.719   3.574  13.034 -0.2455  0.5511 -0.6959
  191MOL0     C26259   9.671   3.669  13.140  0.7349 -0.5133  0.2167
  191MOL0     C26260   9.753   3.643  13.268 -0.8052  0.3567  0.5605
  191MOL0     C26261   9.679   3.691  13.387 -0.2428  1.1871  1.0532
  191MOL0     C26262   9.772   3.733  13.495  0.3110  0.0605 -0.6992
  191MOL0     C26263   9.699   3.743  13.627 -0.1365 -0.3573 -0.1483
  191MOL0     C26264   9.781   3.831  13.729  0.0073 -0.0433  0.5463
  191MOL0    Cl26265   9.713   4.001  13.729  0.6267  0.4932  0.3012
  191MOL0     C26266   9.688   3.790  12.624 -1.1452 -0.5276 -0.0770
  191MOL0     C26267   9.639   3.809  12.487  0.8512 -1.0678  0.2491
  191MOL0     O26268   9.622   3.539  12.187  0.0498 -0.4469  0.0556
  191MOL0     C26269   9.421   3.802  12.055 -0.2086 -0.3714  0.1106
  191MOL0     C26270   9.369   3.858  11.933 -0.2232  0.2660 -0.1581
  191MOL0     N26271   9.347   4.383  11.382  0.1219 -0.4137 -0.2954
  191MOL0     N26272   9.248   4.461  11.390 -0.0606 -0.5478  0.8733
  191MOL0     C26273   8.492   5.164  10.993  0.6702 -0.0859  0.7106
  191MOL0     C26274   8.361   5.173  10.945  0.9258 -0.3290  0.2052
  191MOL0     C26275   7.978   5.073  10.703  0.1379  0.6985  0.1422
  191MOL0     C26276   7.930   5.011  10.586  0.2445 -0.1500  0.4630
  191MOL0     C26277   7.807   4.940  10.581 -0.3733  0.9977  0.1262
  191MOL0     C26278   7.736   4.930  10.706  0.1050 -0.2016  0.5132
  191MOL0     O26279   7.626   4.861  10.704  0.0678  0.4344  0.2737
  191MOL0     C26280   7.554   4.828  10.829 -0.0633 -1.0889  0.2021
  191MOL0     C26281   7.423   4.748  10.804  0.5516 -0.3396  0.6063
  191MOL0     C26282   7.436   4.630  10.703  0.5382 -0.2669  0.4061
  191MOL0     C26283   7.513   4.520  10.774 -0.5496  1.0405 -0.9313
  191MOL0     C26284   7.530   4.410  10.687  0.5400 -0.1806  0.4396
  191MOL0     C26285   7.554   4.314  10.619 -0.5299 -0.1197 -0.1606
  191MOL0     C26286   7.770   5.020  10.815  0.9463  0.1575  0.2642
  191MOL0     C26287   7.892   5.092  10.815 -1.0820  0.8192  1.3371
  191MOL0     C26288   7.924   5.171  10.941 -1.5171  0.3244 -0.5818
  191MOL0     H26289   8.346   4.946  10.700  0.9021  4.1387 -3.3422
  191MOL0     H26290   8.566   4.907  10.776  1.0966  0.1818  2.7588
  191MOL0     H26291   8.835   4.971  10.818  0.7006 -0.7066 -0.3539
  191MOL0     H26292   8.753   4.859  10.925 -1.4226 -0.4179  0.4976
  191MOL0     H26293   8.994   4.915  10.972  2.6525 -0.6616  3.6471
  191MOL0     H26294   8.950   5.074  11.051  0.3649  0.4267  0.1233
  191MOL0     H26295   8.960   4.926  11.237  2.8665 -3.9703 -2.0165
  191MOL0     H26296   8.784   4.911  11.184 -1.0703 -3.7696  0.3540
  191MOL0     H26297   8.842   4.721  11.076  2.4026 -0.6318 -1.7093
  191MOL0     H26298   9.019   4.725  11.096  0.3455 -2.1217  0.7345
  191MOL0     H26299   8.795   4.689  11.294 -1.1584  0.1123 -3.9089
  191MOL0     H26300   8.959   4.739  11.351 -1.2357 -0.7294  1.1812
  191MOL0     H26301   8.906   4.494  11.179 -1.0113  3.3715 -1.4461
  191MOL0     H26302   9.056   4.549  11.259  0.1034 -1.0305  0.1585
  191MOL0     H26303   8.896   4.353  11.368  0.5136 -1.9464  4.4201
  191MOL0     H26304   8.812   4.495  11.432  1.7918  1.4666  0.2472
  191MOL0     H26305   9.040   4.587  11.504  1.5223 -0.6354  0.1023
  191MOL0     H26306   9.006   4.439  11.598 -2.0950 -1.6944 -0.3876
  191MOL0     H26307   9.113   4.207  11.543  0.1305  1.6328  1.3501
  191MOL0     H26308   9.518   4.205  11.454 -3.4849  4.9489 -2.0805
  191MOL0     H26309   9.406   4.069  11.432 -0.3340 -1.1673  2.1097
  191MOL0     H26310   9.487   4.203  11.691 -1.3814 -1.0688  3.3606
  191MOL0     H26311   9.342   4.112  11.683  0.2377  2.6644  0.5658
  191MOL0     H26312   9.617   3.997  11.573 -1.2589  1.6244 -0.8156
  191MOL0     H26313   9.561   3.989  11.742  1.4886 -1.4014 -0.5443
  191MOL0     H26314   9.395   3.876  11.506 -0.1501  0.6493 -0.1739
  191MOL0     H26315   9.499   3.769  11.610 -2.0460 -1.2719  0.4704
  191MOL0     H26316   9.418   3.596  11.721  1.8531 -1.7361  0.9209
  191MOL0     H26317   9.433   3.410  11.869 -1.3877  3.6694 -0.6716
  191MOL0     H26318   9.517   3.408  12.028  2.0222  2.0981  0.9183
  191MOL0     H26319   9.608   3.441  11.882  0.0924 -0.3992 -0.4094
  191MOL0     H26320   9.548   3.497  12.425  2.4433 -1.2041  1.1091
  191MOL0     H26321   9.641   3.456  12.645  0.7095 -1.3022 -3.7492
  191MOL0     H26322   9.552   3.630  12.911  0.2699 -0.5543  2.2084
  191MOL0     H26323   9.635   3.481  12.865  0.2417  0.5440 -1.7402
  191MOL0     H26324   9.712   3.472  13.073  1.0436  1.1613  1.2654
  191MOL0     H26325   9.826   3.593  13.017  0.4807 -1.5987  1.0963
  191MOL0     H26326   9.564   3.664  13.160  0.9165 -0.0333  1.3839
  191MOL0     H26327   9.681   3.772  13.105 -1.2942  0.1183  1.3404
  191MOL0     H26328   9.842   3.706  13.263 -0.7367  0.3072  1.0967
  191MOL0     H26329   9.786   3.539  13.281  0.4216  0.6993  0.2733
  191MOL0     H26330   9.611   3.770  13.355  0.5954  0.2370 -4.0995
  191MOL0     H26331   9.616   3.605  13.413 -0.0942  0.4732 -0.7665
  191MOL0     H26332   9.813   3.829  13.462  0.2617 -0.1445 -1.3723
  191MOL0     H26333   9.857   3.667  13.512 -1.4703 -1.9191  1.0849
  191MOL0     H26334   9.687   3.646  13.675 -0.6136 -0.4202 -0.3945
  191MOL0     H26335   9.594   3.772  13.620  0.5059  2.2359 -0.1972
  191MOL0     H26336   9.888   3.851  13.725 -0.2664  1.3305 -0.3279
  191MOL0     H26337   9.777   3.781  13.827 -1.0039 -0.8293  0.1278
  191MOL0     H26338   9.733   3.873  12.677 -2.8789 -0.2993  1.1374
  191MOL0     H26339   9.649   3.909  12.444  4.4160 -2.0526 -1.6207
  191MOL0     H26340   9.409   3.856  12.148  1.3490  0.3137 -0.0468
  191MOL0     H26341   9.326   3.958  11.927 -1.8495 -0.3725  0.4053
  191MOL0     H26342   8.535   5.220  11.075 -0.3996  2.5894 -0.4522
  191MOL0     H26343   8.288   5.247  10.977 -1.6782 -2.0354 -1.4435
  191MOL0     H26344   7.981   5.027  10.491 -1.0471 -3.0307 -0.8485
  191MOL0     H26345   7.771   4.901  10.487  2.4820 -1.7372 -0.0132
  191MOL0     H26346   7.614   4.763  10.893 -3.1339 -1.6122  2.8121
  191MOL0     H26347   7.528   4.909  10.898  4.2610 -0.3527  1.2313
  191MOL0     H26348   7.359   4.828  10.764  0.9836 -2.1662 -4.5439
  191MOL0     H26349   7.376   4.712  10.896  0.8385  0.9902  1.3065
  191MOL0     H26350   7.339   4.587  10.674  0.3280 -0.2601  1.0964
  191MOL0     H26351   7.486   4.665  10.611 -0.9344  1.7961  0.3032
  191MOL0     H26352   7.483   4.485  10.873  3.1257  0.7702  0.2583
  191MOL0     H26353   7.611   4.562  10.799  0.0531 -1.3785  1.0992
  191MOL0     H26354   7.556   4.223  10.562 -1.0606 -2.5738  3.3829
  191MOL0     H26355   7.716   5.025  10.909  1.7899 -1.6551  0.8855
  191MOL0     H26356   7.988   5.117  11.011 -0.0996  4.0407  1.2208
  191MOL0     H26357   7.968   5.266  10.911  1.8574 -1.2858 -1.2380
  191MOL0     H26358   7.834   5.197  10.998  0.1433  1.0567  1.8766
  192MOL0     O26359   8.649   4.696   5.205 -0.0978 -0.2263 -0.3532
  192MOL0     C26360   8.713   4.624   5.130 -1.0389  0.3550 -1.1485
  192MOL0     O26361   8.800   4.664   5.029 -0.5971  0.3601  0.5379
  192MOL0     C26362   8.823   4.796   4.999  0.9120  0.1429 -0.5770
  192MOL0     C26363   8.819   4.908   5.083  0.4117  0.7167  0.6721
  192MOL0     C26364   8.859   5.030   5.034 -0.1853 -0.7109 -0.4610
  192MOL0     C26365   8.891   5.055   4.907  0.9046 -0.9136  0.0750
  192MOL0     O26366   8.903   5.188   4.869 -1.1307 -0.1662 -0.5642
  192MOL0     C26367   8.928   5.222   4.731  0.9754  0.4104  0.1351
  192MOL0     C26368   8.906   5.369   4.716  0.2017 -0.1588  0.0663
  192MOL0     C26369   9.019   5.448   4.768 -0.5617 -0.4391 -0.0810
  192MOL0     C26370   8.987   5.601   4.777 -0.0883 -0.1017 -0.5158
  192MOL0     C26371   9.085   5.681   4.860 -0.0587  0.4560 -0.1549
  192MOL0     C26372   9.063   5.669   4.999  0.3202 -1.0876 -0.3959
  192MOL0     C26373   9.125   5.781   5.100  0.0862  0.4655 -0.2467
  192MOL0     C26374   9.238   5.875   5.057 -0.6018  0.5561  0.5293
  192MOL0     N26375   9.239   5.981   5.153 -0.2291  0.8880 -0.6095
  192MOL0     C26376   9.196   6.103   5.123 -1.0100 -0.3141 -0.1117
  192MOL0     C26377   9.234   6.177   5.227 -0.0313  0.3977  0.0642
  192MOL0     C26378   9.234   6.319   5.252 -0.1772  0.0464  0.7382
  192MOL0     C26379   9.366   6.392   5.253 -0.7527 -1.2398 -0.2586
  192MOL0     C26380   9.347   6.548   5.272  0.5812  0.7170  0.8375
  192MOL0     C26381   9.302   6.621   5.140 -0.0870  0.0799 -0.1321
  192MOL0     O26382   9.405   6.606   5.042  0.0663  0.3190  0.7434
  192MOL0     C26383   9.395   6.653   4.914  0.6135  0.1648  0.3728
  192MOL0     C26384   9.460   6.575   4.818  1.4248  0.7530 -0.2220
  192MOL0     C26385   9.460   6.608   4.680 -1.0080  0.9214  0.2781
  192MOL0     C26386   9.528   6.516   4.591 -0.6220 -0.0360 -0.0118
  192MOL0     C26387   9.388   6.723   4.640 -0.1908 -0.5810  0.8609
  192MOL0     C26388   9.374   6.779   4.499 -0.4039  0.0663 -0.7271
  192MOL0     O26389   9.328   6.906   4.478  1.2816 -0.6987 -0.5366
  192MOL0     C26390   9.299   6.962   4.352 -0.2689  0.0633 -0.3147
  192MOL0     C26391   9.258   6.883   4.237 -0.1886 -0.1310  0.5331
  192MOL0     C26392   9.229   6.943   4.119 -0.1514 -0.6011 -0.5268
  192MOL0     C26393   9.259   7.083   4.101 -1.0372 -0.8319 -0.2518
  192MOL0     O26394   9.246   7.135   3.973 -0.5905 -0.8247 -0.1607
  192MOL0     C26395   9.319   7.257   3.953  0.9085  0.2307 -0.1562
  192MOL0     C26396   9.317   7.294   3.804 -0.0789 -0.3689  1.3422
  192MOL0     C26397   9.375   7.175   3.713 -0.4664 -0.6380  0.6471
  192MOL0     C26398   9.369   7.200   3.560 -0.1785 -0.5281 -0.2915
  192MOL0     C26399   9.498   7.144   3.499  0.6309 -1.1312 -0.2263
  192MOL0     C26400   9.469   7.148   3.350 -0.4679 -0.0532  0.5823
  192MOL0     C26401   9.580   7.073   3.274 -0.0402 -0.2748 -0.4750
  192MOL0     C26402   9.569   7.100   3.127 -1.1675  0.9617  0.4148
  192MOL0    Cl26403   9.401   7.079   3.057  0.1391 -0.6162  0.5916
  192MOL0     C26404   9.286   7.159   4.213  0.3389 -0.0573 -0.5521
  192MOL0     C26405   9.304   7.105   4.340 -0.4037  0.5079 -0.1222
  192MOL0     O26406   9.420   6.705   4.410  0.8815  0.0535 -0.0628
  192MOL0     C26407   9.320   6.795   4.740  1.3442  0.2709  0.0982
  192MOL0     C26408   9.319   6.765   4.880  0.2377  0.6821  0.5073
  192MOL0     N26409   9.303   6.098   5.321 -0.2392  0.3338  0.0745
  192MOL0     N26410   9.304   5.978   5.272 -0.3184  0.4014  0.1167
  192MOL0     C26411   8.898   4.950   4.821  0.4104  0.2811  0.7133
  192MOL0     C26412   8.853   4.819   4.865 -1.1351 -0.3643  0.3867
  192MOL0     C26413   8.703   4.480   5.142  0.3908  0.3027  0.4766
  192MOL0     C26414   8.810   4.396   5.091 -0.8750 -0.2302 -0.5975
  192MOL0     C26415   8.798   4.254   5.089  0.7478  0.6895 -0.0173
  192MOL0     C26416   8.688   4.186   5.137  1.2294  0.3165  0.2807
  192MOL0     O26417   8.681   4.047   5.127 -0.2088  0.2645  0.4671
  192MOL0     C26418   8.588   3.977   5.209 -0.1896 -0.0267 -0.1273
  192MOL0     C26419   8.632   3.833   5.249 -0.5799 -0.2502 -0.0896
  192MOL0     C26420   8.693   3.832   5.386  0.5317  0.8861 -0.0641
  192MOL0     C26421   8.763   3.703   5.407  1.4186  0.4514 -0.0009
  192MOL0     C26422   8.804   3.674   5.544  0.4526  0.1993  0.5134
  192MOL0     C26423   8.852   3.650   5.655  0.0807 -0.3997 -0.3611
  192MOL0     C26424   8.581   4.265   5.186 -0.5873  0.5010 -0.5635
  192MOL0     C26425   8.589   4.407   5.185  0.2995  0.3077 -0.7167
  192MOL0     C26426   8.468   4.475   5.243 -0.6869 -0.1512 -0.0790
  192MOL0     H26427   8.787   4.888   5.186  1.0571  0.9997  0.9298
  192MOL0     H26428   8.855   5.122   5.091 -6.4815  0.1337 -1.4845
  192MOL0     H26429   8.853   5.164   4.676 -0.3771 -0.1596  2.4104
  192MOL0     H26430   9.028   5.193   4.697 -0.6342 -1.8485 -3.2693
  192MOL0     H26431   8.879   5.396   4.614  2.1323  0.2603 -0.3728
  192MOL0     H26432   8.815   5.391   4.773  0.3978  0.9912 -0.0485
  192MOL0     H26433   9.050   5.410   4.866 -0.9688 -1.2506 -0.2639
  192MOL0     H26434   9.101   5.437   4.697  0.2714 -1.7317  1.0291
  192MOL0     H26435   8.983   5.634   4.673 -0.5176 -1.6874 -1.0326
  192MOL0     H26436   8.888   5.622   4.818 -1.0951  0.1825 -2.9695
  192MOL0     H26437   9.074   5.788   4.840 -0.9767  1.3183  4.0756
  192MOL0     H26438   9.191   5.655   4.847  0.6939  1.6615  2.7716
  192MOL0     H26439   8.956   5.692   5.012 -0.2613 -2.3558 -2.5751
  192MOL0     H26440   9.071   5.568   5.040 -1.4130 -0.4913  1.6378
  192MOL0     H26441   9.144   5.723   5.191  0.9263 -2.5732 -2.2259
  192MOL0     H26442   9.042   5.849   5.119  1.7419  2.1604  1.2899
  192MOL0     H26443   9.340   5.837   5.050 -0.5308  0.5311  1.6167
  192MOL0     H26444   9.206   5.915   4.960  0.8188 -1.8501 -1.0446
  192MOL0     H26445   9.144   6.134   5.033  0.5058  0.2282 -0.8414
  192MOL0     H26446   9.197   6.324   5.355  4.9388  0.2881  2.8649
  192MOL0     H26447   9.172   6.365   5.174  2.1165 -1.3742 -2.1228
  192MOL0     H26448   9.420   6.376   5.346  0.7107  3.0322 -0.1600
  192MOL0     H26449   9.429   6.366   5.168  1.3764  2.1796  0.0889
  192MOL0     H26450   9.280   6.567   5.356  1.9377  2.2450  1.6359
  192MOL0     H26451   9.444   6.591   5.297  0.0243  3.2663 -1.0235
  192MOL0     H26452   9.210   6.581   5.097 -0.0958 -3.5361  2.7826
  192MOL0     H26453   9.300   6.729   5.159  0.7570  0.4664 -1.9917
  192MOL0     H26454   9.507   6.482   4.846  0.9670  1.3022  2.7234
  192MOL0     H26455   9.455   6.507   4.511  0.6826 -1.8609 -1.0761
  192MOL0     H26456   9.553   6.421   4.639 -1.7032  0.3713  1.4124
  192MOL0     H26457   9.610   6.566   4.539 -1.2721  0.7816 -0.2765
  192MOL0     H26458   9.225   6.779   4.239  1.3781 -0.8297 -2.7256
  192MOL0     H26459   9.192   6.879   4.040 -0.7733  1.0177 -1.5918
  192MOL0     H26460   9.289   7.344   4.012 -0.7912 -1.1008  1.0529
  192MOL0     H26461   9.419   7.237   3.992  0.1439 -4.9776 -0.1431
  192MOL0     H26462   9.213   7.315   3.779 -0.5781 -2.2285  1.7315
  192MOL0     H26463   9.376   7.384   3.786  1.9523 -1.8933 -0.2043
  192MOL0     H26464   9.328   7.082   3.746 -1.0896  0.4766  3.0816
  192MOL0     H26465   9.480   7.161   3.742  0.3715  1.7610 -0.8800
  192MOL0     H26466   9.368   7.309   3.548 -1.1215 -0.6757 -1.7136
  192MOL0     H26467   9.285   7.153   3.510  0.4360 -0.3592 -1.5219
  192MOL0     H26468   9.588   7.204   3.514  0.3913 -1.4785  3.3803
  192MOL0     H26469   9.514   7.045   3.543 -0.4087 -0.2024  2.4859
  192MOL0     H26470   9.456   7.243   3.298  2.3497  0.8209  1.2917
  192MOL0     H26471   9.381   7.085   3.329 -1.3598  1.0168  0.9795
  192MOL0     H26472   9.584   6.966   3.296 -1.6496 -0.6320 -1.7400
  192MOL0     H26473   9.678   7.105   3.310  0.8448  0.6887 -3.4724
  192MOL0     H26474   9.631   7.026   3.077  0.1453 -0.5545  3.9382
  192MOL0     H26475   9.602   7.199   3.095  0.2063  0.0051 -1.2691
  192MOL0     H26476   9.300   7.265   4.196 -0.5995  0.2423  0.4564
  192MOL0     H26477   9.335   7.159   4.429  2.7180  1.9092 -1.9209
  192MOL0     H26478   9.267   6.885   4.710  2.2452  0.5548 -0.7073
  192MOL0     H26479   9.271   6.830   4.953  1.5213  1.3071  0.8166
  192MOL0     H26480   8.943   4.957   4.722 -0.0632 -0.6495  0.4269
  192MOL0     H26481   8.848   4.736   4.796  0.9959  2.3479 -3.4157
  192MOL0     H26482   8.897   4.454   5.059 -0.6803  0.3272  0.8670
  192MOL0     H26483   8.886   4.201   5.053 -0.4336 -1.5641  0.2828
  192MOL0     H26484   8.579   4.031   5.304  3.0378  0.1070  0.2048
  192MOL0     H26485   8.492   3.974   5.155 -0.2663  1.2368 -0.0973
  192MOL0     H26486   8.706   3.801   5.175  0.7391  1.1778  0.5580
  192MOL0     H26487   8.545   3.767   5.260 -1.3553  0.7544 -0.0057
  192MOL0     H26488   8.772   3.907   5.397 -2.1295  3.5353  4.0191
  192MOL0     H26489   8.615   3.852   5.460 -1.0050 -3.5776 -0.1620
  192MOL0     H26490   8.856   3.707   5.348  0.7187  3.0352 -1.0617
  192MOL0     H26491   8.703   3.620   5.369  2.5610  0.6289 -2.4235
  192MOL0     H26492   8.883   3.625   5.754 -1.3090  2.4770  0.9357
  192MOL0     H26493   8.489   4.222   5.223 -1.8536  1.3461 -2.5562
  192MOL0     H26494   8.495   4.527   5.335  0.0556 -0.1975 -0.2600
  192MOL0     H26495   8.423   4.546   5.172 -4.8208  0.4512  2.8005
  192MOL0     H26496   8.398   4.400   5.282  1.2808 -0.8918  2.2705
  193MOL0     O26497   7.777   6.401   0.935 -0.5745 -0.5853 -0.9081
  193MOL0     C26498   7.887   6.460   0.955  0.2915  0.2201  0.3682
  193MOL0     O26499   7.900   6.591   1.011  0.3564  0.7899 -0.3323
  193MOL0     C26500   7.796   6.636   1.095 -1.1925 -0.8394  0.5466
  193MOL0     C26501   7.736   6.765   1.082  0.1097 -0.6416 -0.5077
  193MOL0     C26502   7.639   6.803   1.173  0.3100 -0.3174 -0.5227
  193MOL0     C26503   7.583   6.705   1.257  1.0289  0.8724  0.6117
  193MOL0     O26504   7.472   6.741   1.333  0.6118 -0.4902  0.3978
  193MOL0     C26505   7.347   6.723   1.258  1.0253  1.6566 -0.1105
  193MOL0     C26506   7.236   6.623   1.323 -0.2114 -0.0597  0.1517
  193MOL0     C26507   7.139   6.691   1.412  0.4784  1.0053  0.0234
  193MOL0     C26508   7.008   6.596   1.421  0.2298 -0.7219 -0.1178
  193MOL0     C26509   6.897   6.683   1.489 -1.6427 -0.5817  0.4862
  193MOL0     C26510   6.785   6.600   1.534 -0.2167  0.1762  0.1161
  193MOL0     C26511   6.668   6.688   1.580 -0.5742 -0.3929 -0.0907
  193MOL0     C26512   6.700   6.777   1.697 -0.2018  0.7013 -0.8857
  193MOL0     N26513   6.596   6.866   1.741 -0.4279  0.4678 -0.9756
  193MOL0     C26514   6.592   6.999   1.715  0.1267 -0.8997 -0.1019
  193MOL0     C26515   6.491   7.053   1.786  0.9406 -0.2075  0.0959
  193MOL0     C26516   6.459   7.200   1.788 -0.3029  0.3024  0.1858
  193MOL0     C26517   6.321   7.247   1.731 -0.0565 -1.1771  0.2385
  193MOL0     C26518   6.195   7.189   1.781 -0.5081  0.4133 -1.1443
  193MOL0     C26519   6.065   7.242   1.720  0.7396  0.2767  0.3018
  193MOL0     O26520   6.036   7.368   1.783 -0.1502  0.3339 -0.0062
  193MOL0     C26521   5.919   7.425   1.753 -0.7476  0.7341  0.2608
  193MOL0     C26522   5.803   7.360   1.702 -0.5237 -0.3189  0.1847
  193MOL0     C26523   5.677   7.427   1.721  0.0970  0.1588  0.6383
  193MOL0     C26524   5.559   7.336   1.725 -0.0762 -0.4429 -0.4205
  193MOL0     C26525   5.667   7.565   1.756  0.1593 -0.1441  0.4533
  193MOL0     C26526   5.533   7.643   1.757 -0.0309  0.3385  0.2326
  193MOL0     O26527   5.408   7.581   1.718  0.1533  0.4709 -1.1691
  193MOL0     C26528   5.291   7.646   1.749  0.3974 -0.3331  0.0411
  193MOL0     C26529   5.233   7.612   1.873  0.4177 -0.3461  0.8907
  193MOL0     C26530   5.107   7.663   1.905  0.1262  0.8728 -0.2591
  193MOL0     C26531   5.035   7.740   1.819  0.6014 -0.6175 -0.3874
  193MOL0     O26532   4.907   7.782   1.839  0.7125 -0.9247  0.1400
  193MOL0     C26533   4.837   7.733   1.954  0.5581  0.9908  0.1398
  193MOL0     C26534   4.771   7.592   1.947  0.2401 -0.5961 -0.3169
  193MOL0     C26535   4.711   7.566   1.814  0.6346 -0.1014  0.9065
  193MOL0     C26536   4.626   7.434   1.783  0.5164  0.2839 -1.0948
  193MOL0     C26537   4.654   7.399   1.629 -0.4303 -0.5831 -0.1943
  193MOL0     C26538   4.589   7.257   1.599 -0.2755 -0.7067 -0.1596
  193MOL0     C26539   4.630   7.200   1.463  0.5072 -0.0047 -0.5304
  193MOL0     C26540   4.545   7.079   1.425  1.0987  0.8201  0.1436
  193MOL0    Cl26541   4.529   6.942   1.534  0.2925  0.4140 -0.1482
  193MOL0     C26542   5.085   7.774   1.696 -0.2094  0.3607 -0.1772
  193MOL0     C26543   5.219   7.737   1.667 -0.1294  0.0436  0.6774
  193MOL0     O26544   5.542   7.754   1.803 -0.1221 -0.2925 -0.6794
  193MOL0     C26545   5.789   7.629   1.773  0.3025  0.2609  0.1161
  193MOL0     C26546   5.909   7.565   1.773  0.4440 -0.0963 -0.0978
  193MOL0     N26547   6.437   6.956   1.869 -0.0654 -0.1766 -0.3602
  193MOL0     N26548   6.502   6.842   1.830  0.2826  0.2361  0.1552
  193MOL0     C26549   7.629   6.577   1.263  0.2740  0.1581 -0.1461
  193MOL0     C26550   7.737   6.546   1.186 -0.3484  0.2938  0.7029
  193MOL0     C26551   8.009   6.396   0.916  0.0511  0.8498 -0.2940
  193MOL0     C26552   8.004   6.303   0.805 -0.8349  0.4331 -0.0352
  193MOL0     C26553   8.122   6.245   0.762  0.6102 -0.5169 -0.0086
  193MOL0     C26554   8.250   6.274   0.825  0.2427  0.1163  0.3087
  193MOL0     O26555   8.373   6.213   0.786 -0.0861  0.0396  0.1886
  193MOL0     C26556   8.409   6.257   0.650  0.1540 -0.0516 -1.0928
  193MOL0     C26557   8.557   6.255   0.625 -0.7073  0.3076 -0.5266
  193MOL0     C26558   8.606   6.337   0.502  0.4379 -0.2783 -0.8276
  193MOL0     C26559   8.758   6.367   0.511  0.4526  0.9968  0.6612
  193MOL0     C26560   8.808   6.442   0.394 -0.6716 -0.1796 -0.3100
  193MOL0     C26561   8.843   6.505   0.303 -1.4369 -0.7002 -0.3291
  193MOL0     C26562   8.250   6.367   0.926  0.8213  0.6407  0.2543
  193MOL0     C26563   8.135   6.428   0.976  0.0098 -0.0193  0.5146
  193MOL0     C26564   8.152   6.525   1.093  0.5151 -0.5275  0.4691
  193MOL0     H26565   7.762   6.835   1.003  0.1152 -0.7949 -0.6436
  193MOL0     H26566   7.583   6.894   1.155 -0.2978 -1.0524 -2.5945
  193MOL0     H26567   7.364   6.687   1.156  3.0151 -0.8669  0.9834
  193MOL0     H26568   7.305   6.822   1.242 -2.1614  0.1735 -1.9226
  193MOL0     H26569   7.190   6.578   1.235  0.7209  0.0081 -0.3844
  193MOL0     H26570   7.282   6.542   1.380 -0.6688  0.2925  1.0347
  193MOL0     H26571   7.171   6.702   1.516  0.8672 -2.0534  0.3112
  193MOL0     H26572   7.106   6.784   1.364  1.4882  1.6170  0.4779
  193MOL0     H26573   6.977   6.568   1.320 -0.3881  2.9690 -1.1088
  193MOL0     H26574   7.027   6.509   1.485 -0.2186 -1.4014 -0.8847
  193MOL0     H26575   6.865   6.757   1.414  3.5766  0.4912 -1.1061
  193MOL0     H26576   6.944   6.741   1.568  0.0168 -0.9676 -0.1757
  193MOL0     H26577   6.750   6.537   1.452  0.3469  1.1399 -0.8926
  193MOL0     H26578   6.812   6.534   1.617  2.5392  2.5307  1.2623
  193MOL0     H26579   6.584   6.621   1.601  2.3499 -4.3692  0.1677
  193MOL0     H26580   6.640   6.745   1.490 -1.2559 -0.1235  0.2825
  193MOL0     H26581   6.712   6.707   1.780 -0.0280  1.8943  0.1333
  193MOL0     H26582   6.797   6.828   1.686  0.1098  0.3731  0.1858
  193MOL0     H26583   6.655   7.054   1.646 -0.0893 -2.2751 -1.4617
  193MOL0     H26584   6.543   7.256   1.747 -0.8543  0.8265 -0.2627
  193MOL0     H26585   6.457   7.224   1.894  1.3296  0.7595  0.1337
  193MOL0     H26586   6.315   7.354   1.750 -0.2869 -1.1608  0.0633
  193MOL0     H26587   6.323   7.234   1.622  0.7410 -0.1612  0.1099
  193MOL0     H26588   6.196   7.082   1.756  1.8960  0.7925 -3.0953
  193MOL0     H26589   6.196   7.212   1.888  0.9811  0.7826 -1.2202
  193MOL0     H26590   6.074   7.245   1.611 -0.7309 -0.8871  0.1131
  193MOL0     H26591   5.995   7.161   1.744 -1.9645  3.0555  2.7531
  193MOL0     H26592   5.811   7.259   1.663 -0.6848 -0.3086  0.1223
  193MOL0     H26593   5.505   7.344   1.819  0.5044  1.8556 -0.2237
  193MOL0     H26594   5.596   7.236   1.703 -0.0113 -0.5077 -0.0086
  193MOL0     H26595   5.493   7.368   1.643  1.0726  1.0800 -0.7763
  193MOL0     H26596   5.293   7.540   1.927 -1.1329 -2.3817  0.0627
  193MOL0     H26597   5.068   7.631   2.001  2.3525  1.1032  0.7939
  193MOL0     H26598   4.895   7.746   2.047  1.2272  0.8407 -0.2483
  193MOL0     H26599   4.753   7.802   1.967 -1.6649 -1.0023 -2.6850
  193MOL0     H26600   4.841   7.515   1.980  0.2854  0.3770  2.0305
  193MOL0     H26601   4.690   7.590   2.021  0.7268 -4.1109  0.2603
  193MOL0     H26602   4.799   7.567   1.749 -0.6932  0.8415 -1.0169
  193MOL0     H26603   4.647   7.646   1.775  1.1896 -0.8466 -1.7873
  193MOL0     H26604   4.520   7.448   1.808  0.8926  0.5109  0.4790
  193MOL0     H26605   4.657   7.343   1.834  0.6913 -0.9457 -3.2734
  193MOL0     H26606   4.608   7.473   1.562  1.0161  1.0255  0.5047
  193MOL0     H26607   4.763   7.401   1.622 -0.4866 -0.1782 -1.0599
  193MOL0     H26608   4.479   7.260   1.595 -0.2473 -0.9172 -1.8333
  193MOL0     H26609   4.603   7.184   1.679  2.2348  0.6297  0.7210
  193MOL0     H26610   4.734   7.168   1.477  0.1307 -1.0879 -0.1385
  193MOL0     H26611   4.615   7.267   1.378  1.3299 -0.5632 -1.1256
  193MOL0     H26612   4.587   7.041   1.332  3.2582  2.7528  0.2316
  193MOL0     H26613   4.441   7.105   1.402  0.1014 -3.2597 -0.6928
  193MOL0     H26614   5.031   7.841   1.631  1.8953  0.3970 -1.9786
  193MOL0     H26615   5.269   7.759   1.573 -2.3679 -3.9077 -1.7264
  193MOL0     H26616   5.773   7.735   1.789 -1.0288 -0.2930  3.3685
  193MOL0     H26617   5.995   7.627   1.797  0.3952  0.2515 -0.8167
  193MOL0     H26618   7.591   6.502   1.331  1.6769 -1.3531 -0.9636
  193MOL0     H26619   7.779   6.446   1.188  2.3410  1.3278  0.5038
  193MOL0     H26620   7.909   6.294   0.753  0.2800 -0.2311 -2.0387
  193MOL0     H26621   8.112   6.180   0.676 -1.2200 -1.5153  0.8995
  193MOL0     H26622   8.361   6.197   0.572 -0.5542  0.4020 -1.0157
  193MOL0     H26623   8.380   6.361   0.638  2.3793  0.9712  1.3912
  193MOL0     H26624   8.588   6.152   0.609  2.5578  0.6529  2.4114
  193MOL0     H26625   8.611   6.282   0.717  1.1367 -0.2219 -1.4176
  193MOL0     H26626   8.582   6.289   0.406 -0.3252  0.2975 -0.9344
  193MOL0     H26627   8.573   6.442   0.504  0.3798 -0.3053 -0.3594
  193MOL0     H26628   8.819   6.278   0.533 -0.7577  0.8069  3.7347
  193MOL0     H26629   8.767   6.440   0.591  0.1336  1.2256  0.4891
  193MOL0     H26630   8.880   6.565   0.222  3.0258 -0.2563  1.7863
  193MOL0     H26631   8.339   6.393   0.982  0.9533 -3.0961  2.0479
  193MOL0     H26632   8.115   6.624   1.065 -0.2712 -1.3648 -1.5704
  193MOL0     H26633   8.081   6.486   1.167 -2.2183  1.8152 -0.7260
  193MOL0     H26634   8.252   6.549   1.133  1.0588 -1.2689 -0.4038
  194MOL0     O26635   5.433   7.678   5.391  0.4854 -0.5027  0.1011
  194MOL0     C26636   5.411   7.775   5.314  0.3793 -0.5540 -0.1517
  194MOL0     O26637   5.471   7.896   5.318  0.2714 -0.2412 -0.9738
  194MOL0     C26638   5.529   7.927   5.438 -0.4717  0.0187  0.3845
  194MOL0     C26639   5.671   7.925   5.450  0.4131  0.3519 -0.1733
  194MOL0     C26640   5.732   7.935   5.575 -0.1964 -0.1574 -0.2538
  194MOL0     C26641   5.656   7.974   5.691 -1.0008  0.2758  0.6059
  194MOL0     O26642   5.746   7.974   5.800 -0.4414 -0.2147  0.1560
  194MOL0     C26643   5.691   8.028   5.921  0.0999  0.3267  0.1687
  194MOL0     C26644   5.611   7.930   6.013 -0.3986 -0.2328  0.2667
  194MOL0     C26645   5.702   7.824   6.075 -0.2873  0.2184  0.3927
  194MOL0     C26646   5.652   7.687   6.037  0.1412  0.1508  0.8600
  194MOL0     C26647   5.770   7.585   6.059 -0.5650  0.9998  0.3338
  194MOL0     C26648   5.870   7.582   5.945 -1.0435  0.0501 -0.8576
  194MOL0     C26649   5.824   7.536   5.810 -0.2879 -0.5784  0.0798
  194MOL0     C26650   5.788   7.394   5.804 -0.3737 -0.0473  0.4856
  194MOL0     N26651   5.897   7.295   5.823 -0.7176 -0.2577 -0.4888
  194MOL0     C26652   5.967   7.250   5.712 -0.3235  0.1989 -0.0142
  194MOL0     C26653   6.023   7.137   5.758 -0.6692 -0.6608  0.8927
  194MOL0     C26654   6.111   7.059   5.661  0.2721 -0.3740  0.4221
  194MOL0     C26655   6.252   7.078   5.707 -1.3380  0.0561  0.4721
  194MOL0     C26656   6.287   7.054   5.858 -0.6563  0.4102  0.5253
  194MOL0     C26657   6.439   7.063   5.895  0.3033  0.3951 -1.6205
  194MOL0     O26658   6.452   7.020   6.040  0.3316  0.3036 -0.1054
  194MOL0     C26659   6.568   7.066   6.098  0.1987 -0.0169 -0.4777
  194MOL0     C26660   6.686   7.105   6.033  0.5399 -0.4239 -0.0763
  194MOL0     C26661   6.792   7.176   6.103 -0.3968  1.1799  0.4154
  194MOL0     C26662   6.909   7.232   6.027  0.2945 -0.2759  0.2333
  194MOL0     C26663   6.774   7.206   6.238 -1.7973 -0.0318 -0.5235
  194MOL0     C26664   6.875   7.272   6.330 -0.5016 -0.1391 -0.0928
  194MOL0     O26665   6.921   7.183   6.418  0.6951  0.0821  0.4959
  194MOL0     C26666   7.014   7.215   6.510 -0.3900 -0.4704 -1.7733
  194MOL0     C26667   6.994   7.140   6.626  0.0496  0.1485 -0.6451
  194MOL0     C26668   7.084   7.159   6.731 -0.6436  0.6270  0.3680
  194MOL0     C26669   7.193   7.252   6.724 -0.2240  0.2799  0.1585
  194MOL0     O26670   7.284   7.275   6.824  0.0498  0.1240  0.3875
  194MOL0     C26671   7.297   7.179   6.925  0.0275  0.2681 -0.1423
  194MOL0     C26672   7.426   7.207   6.997 -0.4318  0.2116  0.6868
  194MOL0     C26673   7.543   7.125   6.953  0.2044 -0.1325 -0.0161
  194MOL0     C26674   7.667   7.147   7.040 -0.8682 -0.2346 -0.1026
  194MOL0     C26675   7.770   7.039   7.013  0.6899 -1.2599  0.7844
  194MOL0     C26676   7.842   7.053   6.877  0.1239  0.2974 -1.1712
  194MOL0     C26677   7.962   6.960   6.872  0.5490  0.1364  0.2084
  194MOL0     C26678   7.931   6.815   6.888  0.5426  0.1317 -0.0553
  194MOL0    Cl26679   8.102   6.741   6.880 -0.2793  0.1712  0.1666
  194MOL0     C26680   7.198   7.330   6.612 -0.1426 -0.1343  0.0689
  194MOL0     C26681   7.124   7.307   6.494 -0.1188  0.8281 -0.3544
  194MOL0     O26682   6.912   7.385   6.309  0.2493  0.5273  0.9948
  194MOL0     C26683   6.656   7.162   6.300 -0.3418 -0.1947  0.6202
  194MOL0     C26684   6.557   7.088   6.232 -0.5538 -0.1049 -0.9699
  194MOL0     N26685   5.983   7.109   5.888  0.5826 -0.0942 -0.1355
  194MOL0     N26686   5.905   7.203   5.923  0.3305  0.8221  0.4270
  194MOL0     C26687   5.519   7.975   5.680 -0.3065 -0.5176  0.4939
  194MOL0     C26688   5.454   7.953   5.551 -0.7933 -0.0638 -0.0528
  194MOL0     C26689   5.307   7.745   5.216 -0.1352  0.2598  0.8018
  194MOL0     C26690   5.178   7.735   5.262  0.4324 -0.8715  0.1748
  194MOL0     C26691   5.076   7.712   5.161  0.3641 -0.0454  0.1704
  194MOL0     C26692   5.100   7.705   5.022  0.1557 -0.3111  0.1403
  194MOL0     O26693   5.006   7.693   4.932  0.3332  0.1730 -0.1266
  194MOL0     C26694   4.925   7.569   4.938  0.0819  0.2234 -0.3723
  194MOL0     C26695   5.017   7.447   4.921 -0.6886  0.3615 -0.8793
  194MOL0     C26696   5.079   7.434   4.781  0.2320  0.5172  0.0530
  194MOL0     C26697   5.161   7.307   4.765 -0.0633 -0.6152 -0.5967
  194MOL0     C26698   5.091   7.184   4.791 -0.2645 -0.2630 -0.2709
  194MOL0     C26699   5.027   7.075   4.802  0.2508 -0.6304  0.8736
  194MOL0     C26700   5.232   7.724   4.977  0.2857 -0.0073 -0.4779
  194MOL0     C26701   5.335   7.722   5.078 -0.8817 -0.1623  0.7150
  194MOL0     C26702   5.477   7.734   5.022 -0.5508 -0.2402 -0.5662
  194MOL0     H26703   5.740   7.918   5.366  1.5139  1.5566  0.5918
  194MOL0     H26704   5.840   7.936   5.575 -0.1902  1.0440 -0.5819
  194MOL0     H26705   5.618   8.107   5.902  2.8610  3.6561  2.3935
  194MOL0     H26706   5.770   8.081   5.973  1.0445  2.0437 -2.8007
  194MOL0     H26707   5.553   7.969   6.096  0.5085 -1.1388  1.3569
  194MOL0     H26708   5.531   7.883   5.954  0.1073  2.5277 -2.9519
  194MOL0     H26709   5.806   7.842   6.043 -0.1326  2.1207  1.7688
  194MOL0     H26710   5.689   7.833   6.183 -0.5308  1.0929  0.3005
  194MOL0     H26711   5.574   7.664   6.109 -0.8951 -1.1325 -0.6048
  194MOL0     H26712   5.612   7.675   5.936  0.9307 -2.0857  0.7662
  194MOL0     H26713   5.731   7.483   6.070 -1.7991  1.0482 -2.5855
  194MOL0     H26714   5.822   7.619   6.149 -2.0865 -0.2373  1.7295
  194MOL0     H26715   5.917   7.681   5.938 -1.3245  0.1801 -0.8963
  194MOL0     H26716   5.953   7.516   5.972  0.9484  2.6811 -0.1565
  194MOL0     H26717   5.912   7.538   5.746  1.7421 -1.6180  2.6435
  194MOL0     H26718   5.751   7.609   5.775  0.2653  0.5688  1.2166
  194MOL0     H26719   5.709   7.367   5.876  3.0169 -3.3546  3.3786
  194MOL0     H26720   5.769   7.383   5.697  1.1746  3.3159 -0.2583
  194MOL0     H26721   5.982   7.293   5.614  0.9013 -0.1728 -0.0059
  194MOL0     H26722   6.108   7.105   5.562 -2.0230 -0.7874  0.2453
  194MOL0     H26723   6.079   6.955   5.648  0.1866 -0.3123  0.1337
  194MOL0     H26724   6.307   7.006   5.647 -2.7358 -0.2543 -0.5056
  194MOL0     H26725   6.286   7.180   5.690 -1.4896  0.0330 -0.0021
  194MOL0     H26726   6.229   7.114   5.929 -0.5908  2.0464 -0.7377
  194MOL0     H26727   6.253   6.952   5.879 -2.0093  0.4721 -1.1720
  194MOL0     H26728   6.502   6.999   5.834  1.4596  0.7652 -0.8440
  194MOL0     H26729   6.474   7.167   5.892  1.0209  0.4017  2.0614
  194MOL0     H26730   6.710   7.085   5.929 -1.0717 -2.7096 -0.0588
  194MOL0     H26731   7.001   7.207   6.079  0.0534 -5.3615 -1.2328
  194MOL0     H26732   6.898   7.341   6.025  0.6644 -0.2264  0.6727
  194MOL0     H26733   6.911   7.181   5.930  0.7895 -1.6747  0.9588
  194MOL0     H26734   6.907   7.076   6.631  2.2256 -3.0259  3.2398
  194MOL0     H26735   7.070   7.109   6.826 -0.1495  1.5158  0.9253
  194MOL0     H26736   7.214   7.188   6.995 -1.6536 -0.0104 -2.0124
  194MOL0     H26737   7.294   7.077   6.884  1.3172  1.1195 -2.5421
  194MOL0     H26738   7.448   7.314   6.992  0.2940  0.0590  0.4543
  194MOL0     H26739   7.409   7.193   7.104  2.5886 -1.9727  0.9885
  194MOL0     H26740   7.570   7.159   6.853 -0.3167  1.5910  0.3969
  194MOL0     H26741   7.515   7.019   6.954 -2.1126  0.3679  2.7191
  194MOL0     H26742   7.652   7.143   7.148  0.1551 -2.3128  0.0204
  194MOL0     H26743   7.708   7.247   7.024  2.2508 -1.5903 -1.4253
  194MOL0     H26744   7.850   7.059   7.085  1.7261  2.6501 -1.1653
  194MOL0     H26745   7.731   6.938   7.027  1.8433 -1.6000  1.7319
  194MOL0     H26746   7.876   7.155   6.862  0.8655  0.7715  2.8435
  194MOL0     H26747   7.776   7.035   6.791 -1.3194  1.8608 -0.4515
  194MOL0     H26748   8.043   6.979   6.943  2.0036 -0.0608 -1.3173
  194MOL0     H26749   8.002   6.973   6.771  1.8091  1.0776  0.8001
  194MOL0     H26750   7.866   6.775   6.809  1.0020  0.0135 -0.3787
  194MOL0     H26751   7.896   6.787   6.987  2.4859  2.4573  1.3993
  194MOL0     H26752   7.265   7.415   6.615  0.1502 -0.3767  2.1356
  194MOL0     H26753   7.140   7.368   6.406  0.3493 -0.8212 -1.4446
  194MOL0     H26754   6.645   7.177   6.407  0.7988 -0.2903  0.7664
  194MOL0     H26755   6.461   7.059   6.274 -0.8539  3.3146  1.1212
  194MOL0     H26756   5.467   7.986   5.775 -2.2153 -2.0368 -0.3065
  194MOL0     H26757   5.346   7.950   5.546 -0.8785 -2.5594  1.4881
  194MOL0     H26758   5.148   7.739   5.367 -0.8135  3.1189 -0.1509
  194MOL0     H26759   4.978   7.678   5.192  0.4534 -1.5398 -1.0002
  194MOL0     H26760   4.863   7.552   5.026  0.1919 -0.3896 -0.4045
  194MOL0     H26761   4.857   7.564   4.852 -1.0105 -2.0208  0.5214
  194MOL0     H26762   4.945   7.365   4.934 -2.3030  1.4819 -2.2688
  194MOL0     H26763   5.088   7.443   5.005 -1.5619  3.4853  0.1347
  194MOL0     H26764   4.997   7.447   4.710 -0.7173 -0.0554  1.0189
  194MOL0     H26765   5.139   7.523   4.760  1.8838 -0.5297  0.1139
  194MOL0     H26766   5.253   7.318   4.823  0.1131  2.1747 -1.2589
  194MOL0     H26767   5.196   7.313   4.662  0.7869  0.8237 -0.2540
  194MOL0     H26768   4.985   6.979   4.824 -1.2690 -0.0155  0.8313
  194MOL0     H26769   5.249   7.723   4.870 -0.1809 -2.9630 -0.6113
  194MOL0     H26770   5.488   7.800   4.936 -0.8688  0.2271 -0.2514
  194MOL0     H26771   5.542   7.795   5.086 -2.3463  3.5470 -2.0711
  194MOL0     H26772   5.516   7.633   5.004 -3.0456 -0.7317 -4.3115
  195MOL0     O26773   4.394   6.600   5.156  0.0198  0.2895 -0.2000
  195MOL0     C26774   4.384   6.580   5.277  1.0706  0.0930 -0.1358
  195MOL0     O26775   4.268   6.538   5.340  0.0532 -0.6196 -0.6493
  195MOL0     C26776   4.161   6.501   5.259  0.6010  0.5423 -0.0614
  195MOL0     C26777   4.041   6.554   5.303 -0.6916  0.8889  0.8300
  195MOL0     C26778   3.927   6.543   5.224  0.2987  0.3657  0.3018
  195MOL0     C26779   3.921   6.479   5.099  0.0148 -0.3411 -0.4195
  195MOL0     O26780   3.813   6.465   5.025  0.2119 -0.1128  0.3072
  195MOL0     C26781   3.693   6.420   5.094 -1.1293  0.1158  0.0604
  195MOL0     C26782   3.573   6.412   5.002 -0.3381 -1.1700 -0.2073
  195MOL0     C26783   3.538   6.534   4.926 -1.4119  0.9090  0.3000
  195MOL0     C26784   3.420   6.510   4.831  0.1856  0.6353  0.9267
  195MOL0     C26785   3.344   6.643   4.807 -0.8076  1.0674 -0.2680
  195MOL0     C26786   3.413   6.737   4.722 -0.0564  0.1725  0.0616
  195MOL0     C26787   3.443   6.678   4.586 -0.6731 -0.0004 -0.5130
  195MOL0     C26788   3.491   6.795   4.489  0.4112 -0.1997  0.1270
  195MOL0     N26789   3.492   6.729   4.356 -0.6267 -0.7582  0.2821
  195MOL0     C26790   3.601   6.663   4.301 -0.2017 -0.9998 -0.3819
  195MOL0     C26791   3.547   6.639   4.179 -0.4361  0.3750 -0.0028
  195MOL0     C26792   3.619   6.570   4.067  0.1041  1.1546  0.4391
  195MOL0     C26793   3.680   6.666   3.970  0.1049 -0.2438 -0.6407
  195MOL0     C26794   3.745   6.599   3.852 -0.3342 -0.4287  0.5814
  195MOL0     C26795   3.828   6.696   3.769 -0.8306 -0.8309 -0.6530
  195MOL0     O26796   3.890   6.637   3.657  0.8892  0.3950  0.2449
  195MOL0     C26797   3.991   6.705   3.598 -0.1427 -0.9623 -0.7948
  195MOL0     C26798   3.972   6.824   3.527 -0.6251 -0.3149  0.5519
  195MOL0     C26799   4.076   6.885   3.454  0.4704 -1.1279 -0.6590
  195MOL0     C26800   4.042   7.016   3.392 -0.4144  0.3599 -0.5040
  195MOL0     C26801   4.201   6.828   3.457 -0.0155  0.6999  0.1965
  195MOL0     C26802   4.316   6.876   3.388 -0.3116  0.0769  0.1586
  195MOL0     O26803   4.410   6.783   3.349 -0.1754  0.6052  0.0074
  195MOL0     C26804   4.508   6.832   3.272  0.5293 -0.3199  0.2814
  195MOL0     C26805   4.486   6.832   3.130 -0.4727  0.8889  0.0542
  195MOL0     C26806   4.583   6.884   3.041 -0.7572 -0.6884 -0.1222
  195MOL0     C26807   4.713   6.919   3.089  0.4585  0.4045 -0.0446
  195MOL0     O26808   4.802   6.953   2.994  0.2651  0.2022  0.5828
  195MOL0     C26809   4.934   6.983   3.026  0.7481 -0.5641 -1.0485
  195MOL0     C26810   5.018   7.013   2.908 -0.4250  0.1809 -0.0112
  195MOL0     C26811   5.009   6.891   2.815  0.6585 -0.5574 -0.3520
  195MOL0     C26812   5.115   6.903   2.704 -0.0043  0.1419  0.3561
  195MOL0     C26813   5.137   6.771   2.625 -0.5463 -0.3442 -0.4801
  195MOL0     C26814   5.227   6.804   2.502 -0.1177 -0.2322 -0.1376
  195MOL0     C26815   5.269   6.675   2.422  0.3016 -0.1474  0.4058
  195MOL0     C26816   5.151   6.609   2.356  0.2391 -0.0817 -0.5201
  195MOL0    Cl26817   5.223   6.482   2.240 -0.0113  0.8123 -0.2063
  195MOL0     C26818   4.732   6.925   3.230  0.3112 -0.7339 -0.1781
  195MOL0     C26819   4.633   6.864   3.318 -1.0317 -0.6204 -0.3951
  195MOL0     O26820   4.336   7.002   3.377  0.0212 -0.0633  0.4796
  195MOL0     C26821   4.222   6.705   3.528 -1.0955  0.2332  0.3252
  195MOL0     C26822   4.118   6.649   3.607  0.6033 -0.0475  0.2580
  195MOL0     N26823   3.423   6.688   4.158  0.6865  0.1725 -0.3997
  195MOL0     N26824   3.394   6.753   4.262 -0.3725 -0.2700 -0.4186
  195MOL0     C26825   4.041   6.415   5.052  0.0157 -0.1001  0.0194
  195MOL0     C26826   4.164   6.429   5.136  0.4957  0.5874  0.3671
  195MOL0     C26827   4.505   6.592   5.358  0.2706  0.5497 -0.7946
  195MOL0     C26828   4.539   6.491   5.450 -0.9081  1.0192 -0.1622
  195MOL0     C26829   4.665   6.492   5.505  0.4135 -0.0247  0.1982
  195MOL0     C26830   4.757   6.597   5.490 -0.0399 -0.8727  0.8912
  195MOL0     O26831   4.877   6.605   5.545  0.6870 -0.0778 -0.8030
  195MOL0     C26832   4.916   6.512   5.653 -0.4022  0.3516 -0.0007
  195MOL0     C26833   5.054   6.539   5.703 -0.0848  0.2141 -0.1496
  195MOL0     C26834   5.098   6.441   5.815  1.7578 -0.8258  0.3883
  195MOL0     C26835   5.240   6.475   5.866 -0.3724  0.1306 -0.3879
  195MOL0     C26836   5.294   6.374   5.959  0.1540 -0.4438  1.4088
  195MOL0     C26837   5.334   6.294   6.035 -0.2793  0.7502 -1.1810
  195MOL0     C26838   4.710   6.703   5.416 -0.0083 -0.2564  0.5246
  195MOL0     C26839   4.593   6.705   5.343 -0.8548  0.8149 -0.5679
  195MOL0     C26840   4.561   6.830   5.270  0.7676  1.1033  0.2636
  195MOL0     H26841   4.051   6.597   5.402  2.5904 -1.9318  1.9145
  195MOL0     H26842   3.841   6.597   5.264  1.7853  1.9212  1.5490
  195MOL0     H26843   3.666   6.481   5.181 -2.3686 -3.4266  2.3748
  195MOL0     H26844   3.709   6.316   5.125 -3.9465 -1.5070 -3.3464
  195MOL0     H26845   3.596   6.337   4.925  3.1077 -1.1405  0.5946
  195MOL0     H26846   3.491   6.380   5.066  1.7020 -3.9421  1.2833
  195MOL0     H26847   3.510   6.599   5.010 -1.9226 -2.3864  2.8791
  195MOL0     H26848   3.624   6.582   4.878  0.3672 -0.3847  2.0329
  195MOL0     H26849   3.445   6.452   4.741 -3.6023  2.0814 -1.2786
  195MOL0     H26850   3.350   6.448   4.887  0.3251  0.1431  0.5657
  195MOL0     H26851   3.326   6.702   4.898 -1.4309 -0.1423  0.4320
  195MOL0     H26852   3.242   6.622   4.775 -0.5128  2.2904 -2.1853
  195MOL0     H26853   3.355   6.829   4.710  1.0734  0.8995  0.0134
  195MOL0     H26854   3.500   6.772   4.778 -0.4235  1.0216  0.1134
  195MOL0     H26855   3.355   6.636   4.537  0.6409 -4.5428  0.5318
  195MOL0     H26856   3.527   6.608   4.589 -2.4018 -2.1844 -1.2343
  195MOL0     H26857   3.414   6.873   4.499 -1.5615 -1.9413 -0.6528
  195MOL0     H26858   3.592   6.827   4.517  0.9825  0.5317 -2.5080
  195MOL0     H26859   3.697   6.619   4.330  0.4448  0.0123 -0.9491
  195MOL0     H26860   3.548   6.508   4.012  1.3089 -0.5953  0.7822
  195MOL0     H26861   3.696   6.497   4.094 -0.9675 -0.3878 -0.4887
  195MOL0     H26862   3.601   6.733   3.934 -0.5561 -2.1529 -2.9950
  195MOL0     H26863   3.753   6.726   4.025  2.4274 -2.4761 -1.1280
  195MOL0     H26864   3.814   6.523   3.891  0.3917  0.9095  2.0183
  195MOL0     H26865   3.678   6.539   3.789  0.7561 -2.2115  1.0447
  195MOL0     H26866   3.764   6.780   3.742  0.1092  0.2863  0.4613
  195MOL0     H26867   3.915   6.728   3.828  0.1973 -1.9514 -1.5098
  195MOL0     H26868   3.870   6.862   3.529 -0.6543 -0.3798  0.3740
  195MOL0     H26869   4.098   7.094   3.443 -3.0150  1.5204  0.7305
  195MOL0     H26870   3.935   7.034   3.406 -0.1900 -0.3269  2.9992
  195MOL0     H26871   4.073   7.018   3.287  2.1742 -0.8376  0.1546
  195MOL0     H26872   4.394   6.796   3.085 -0.3179  0.8182 -0.2039
  195MOL0     H26873   4.557   6.887   2.936 -0.4030  0.5557 -0.1851
  195MOL0     H26874   4.934   7.066   3.097 -0.8071  0.9191 -2.6513
  195MOL0     H26875   4.972   6.889   3.066  0.7432 -0.2871 -0.3838
  195MOL0     H26876   4.985   7.094   2.843 -1.3597 -0.2969 -0.1588
  195MOL0     H26877   5.123   7.019   2.936  0.0248  0.5166 -1.6464
  195MOL0     H26878   4.913   6.884   2.762  0.9254 -2.3021 -0.6604
  195MOL0     H26879   5.025   6.800   2.873 -0.3454 -0.3021  0.3533
  195MOL0     H26880   5.212   6.918   2.754 -0.6679  0.8371  1.4848
  195MOL0     H26881   5.090   6.987   2.638 -1.2334 -0.1979  0.3710
  195MOL0     H26882   5.173   6.686   2.682  0.6203  0.1717 -0.4133
  195MOL0     H26883   5.044   6.733   2.583 -0.7196  1.2768 -1.7175
  195MOL0     H26884   5.323   6.847   2.530  0.2103 -1.2644  0.3854
  195MOL0     H26885   5.180   6.866   2.426  0.4807  0.7313  0.2619
  195MOL0     H26886   5.325   6.614   2.493  0.3108 -0.0892  0.4484
  195MOL0     H26887   5.341   6.698   2.343  0.4282 -1.8127 -0.0159
  195MOL0     H26888   5.088   6.680   2.302  0.2111 -1.0231 -1.7728
  195MOL0     H26889   5.083   6.554   2.423  2.4789 -1.0396  1.0784
  195MOL0     H26890   4.829   6.957   3.264  1.2419 -0.7609 -2.6223
  195MOL0     H26891   4.661   6.863   3.423 -1.4768 -1.2888 -0.2770
  195MOL0     H26892   4.310   6.642   3.531 -0.4406  1.1115 -0.0311
  195MOL0     H26893   4.144   6.558   3.660  2.1661  0.0809 -0.2265
  195MOL0     H26894   4.051   6.374   4.952  3.3481 -0.0099  0.2012
  195MOL0     H26895   4.257   6.395   5.092  0.0129  0.0612 -0.2607
  195MOL0     H26896   4.485   6.397   5.454  1.2652 -0.2557  0.8163
  195MOL0     H26897   4.691   6.403   5.561 -3.4538 -1.3098  0.2557
  195MOL0     H26898   4.845   6.506   5.736  1.3716 -0.0643  1.5507
  195MOL0     H26899   4.924   6.412   5.609  2.9322  0.6286 -0.2533
  195MOL0     H26900   5.054   6.640   5.743 -1.4275 -0.5285  1.8499
  195MOL0     H26901   5.123   6.531   5.618 -0.5369 -0.6719 -0.4454
  195MOL0     H26902   5.019   6.444   5.891 -0.9343 -3.3101 -2.0722
  195MOL0     H26903   5.100   6.337   5.780  2.3841 -1.0325  0.9979
  195MOL0     H26904   5.222   6.569   5.918 -1.0726  1.1360 -2.3227
  195MOL0     H26905   5.314   6.486   5.786 -1.7090 -0.1280 -1.7008
  195MOL0     H26906   5.381   6.220   6.097 -0.4887  1.3317 -0.3121
  195MOL0     H26907   4.772   6.791   5.398 -1.7853  0.6103 -1.9322
  195MOL0     H26908   4.508   6.893   5.342 -1.6515  0.6023 -0.9853
  195MOL0     H26909   4.649   6.890   5.244  0.3936  1.7580  0.4906
  195MOL0     H26910   4.489   6.804   5.192 -0.1002 -1.9306  1.9258
  196MOL0     O26911   7.903   9.027  10.628  0.0325 -0.2821  0.5281
  196MOL0     C26912   8.004   9.081  10.587  0.2752  0.3790 -0.2284
  196MOL0     O26913   8.032   9.105  10.452  0.6187  0.1521 -0.4924
  196MOL0     C26914   8.030   8.990  10.367 -0.1368 -0.3309  0.2330
  196MOL0     C26915   8.042   9.028  10.231 -0.1809  0.1523  0.8459
  196MOL0     C26916   8.021   8.928  10.133  0.7267 -0.2391  0.0026
  196MOL0     C26917   7.997   8.797  10.174  0.2021 -0.1136 -1.2564
  196MOL0     O26918   8.017   8.688  10.087 -0.1759 -0.0566 -0.2727
  196MOL0     C26919   7.934   8.569  10.101 -0.3924  0.7326 -0.9134
  196MOL0     C26920   7.855   8.546   9.973  0.0890  0.2648  0.3364
  196MOL0     C26921   7.961   8.521   9.864  0.0773  0.6086 -0.1850
  196MOL0     C26922   7.885   8.464   9.745 -1.3693  0.1210  0.2617
  196MOL0     C26923   7.985   8.453   9.630 -0.3366 -0.3853  1.1225
  196MOL0     C26924   7.912   8.445   9.494  0.7385  0.9548  0.1724
  196MOL0     C26925   7.996   8.464   9.369  0.7839  0.1842 -0.0856
  196MOL0     C26926   7.908   8.509   9.260 -0.6576  0.8566  0.4742
  196MOL0     N26927   7.849   8.643   9.267 -1.0524 -0.3474 -0.1293
  196MOL0     C26928   7.734   8.690   9.204  0.4112  0.7561  0.8114
  196MOL0     C26929   7.723   8.823   9.228  1.2430  1.1720  0.4895
  196MOL0     C26930   7.604   8.903   9.188 -0.7467  0.2066  0.6987
  196MOL0     C26931   7.515   8.955   9.299  0.5906 -0.0180 -0.3783
  196MOL0     C26932   7.410   8.842   9.318 -0.4606 -0.7706 -0.2287
  196MOL0     C26933   7.284   8.877   9.411 -0.4613 -0.3515 -0.4484
  196MOL0     O26934   7.327   8.899   9.549 -0.0827  0.2173  0.2758
  196MOL0     C26935   7.224   8.885   9.635  0.4029  0.8986 -1.3991
  196MOL0     C26936   7.191   8.750   9.671 -0.5228  0.0520 -0.3497
  196MOL0     C26937   7.090   8.721   9.769 -0.0721  0.2291  0.1552
  196MOL0     C26938   7.075   8.581   9.805 -0.0009 -0.7826 -1.0505
  196MOL0     C26939   7.016   8.828   9.822  0.1149  0.2132  0.3747
  196MOL0     C26940   6.899   8.806   9.909  0.1012  0.5307 -0.6166
  196MOL0     O26941   6.810   8.909   9.902  0.4462  0.0504  0.4171
  196MOL0     C26942   6.691   8.918   9.975  0.2017 -0.7348  0.4941
  196MOL0     C26943   6.680   8.914  10.117 -0.3633 -0.4725 -0.2888
  196MOL0     C26944   6.555   8.917  10.172  0.0403  0.4791 -0.3025
  196MOL0     C26945   6.437   8.914  10.098 -0.3446  0.2527 -0.0081
  196MOL0     O26946   6.313   8.897  10.162  0.1723 -0.2016  0.0509
  196MOL0     C26947   6.242   8.784  10.107 -0.3892 -0.2620 -0.2979
  196MOL0     C26948   6.106   8.790  10.173  0.3646  0.3135 -0.3045
  196MOL0     C26949   6.018   8.892  10.086 -0.5736  0.4723 -0.1230
  196MOL0     C26950   5.870   8.885  10.123  0.7339  0.1805 -0.0872
  196MOL0     C26951   5.799   8.997  10.051  0.3426  0.1391 -0.2438
  196MOL0     C26952   5.664   9.037  10.115  0.4046 -0.3552 -0.3357
  196MOL0     C26953   5.578   9.147  10.039 -0.2958  0.5095 -0.1023
  196MOL0     C26954   5.462   9.193  10.140 -0.4298 -0.6727  1.0849
  196MOL0    Cl26955   5.342   9.306  10.055 -0.3084 -0.3499  0.6122
  196MOL0     C26956   6.451   8.937   9.962 -0.7194 -0.2290  0.4419
  196MOL0     C26957   6.569   8.928   9.899 -0.4786 -0.0478 -0.4285
  196MOL0     O26958   6.890   8.704   9.987 -0.4151 -0.6649  0.3438
  196MOL0     C26959   7.040   8.960   9.774 -0.0224  0.2384  0.1965
  196MOL0     C26960   7.143   8.995   9.690 -0.8584 -0.2045  0.5414
  196MOL0     N26961   7.835   8.858   9.311  0.4066 -0.5049  0.0088
  196MOL0     N26962   7.907   8.758   9.324  0.5709  0.2646 -0.0351
  196MOL0     C26963   7.999   8.765  10.308  0.5708  0.2023  0.8488
  196MOL0     C26964   8.019   8.857  10.405 -0.5062  0.1443 -0.0390
  196MOL0     C26965   8.119   9.108  10.687  0.4032  0.0334  1.1341
  196MOL0     C26966   8.237   9.155  10.623 -0.6718  0.8431 -0.7190
  196MOL0     C26967   8.355   9.159  10.705  0.7928 -0.3181  0.0106
  196MOL0     C26968   8.349   9.150  10.842 -0.6661 -0.4273 -0.0481
  196MOL0     O26969   8.456   9.158  10.922  0.2126 -0.0318 -0.2306
  196MOL0     C26970   8.570   9.241  10.885  0.5176 -0.0555 -0.2949
  196MOL0     C26971   8.682   9.223  10.985 -0.5291 -0.7353  0.6941
  196MOL0     C26972   8.811   9.295  10.949  0.8691 -0.7541 -0.8231
  196MOL0     C26973   8.799   9.446  10.961  0.1306  0.6096 -0.2380
  196MOL0     C26974   8.806   9.490  11.100 -0.1567 -1.0614 -0.9344
  196MOL0     C26975   8.823   9.518  11.221 -0.6306  0.3807  0.0851
  196MOL0     C26976   8.228   9.114  10.897  0.5983  0.5578 -0.3320
  196MOL0     C26977   8.114   9.085  10.821 -0.7719  0.5798  0.6674
  196MOL0     C26978   7.993   9.028  10.895  0.5691 -0.0316 -0.3663
  196MOL0     H26979   8.053   9.129  10.192 -1.9838  0.2533  0.4846
  196MOL0     H26980   8.050   8.954  10.031  1.9291 -0.3421  0.2996
  196MOL0     H26981   7.863   8.571  10.185  1.0366 -2.5371  0.5659
  196MOL0     H26982   7.994   8.481  10.127  1.7397  2.6628  1.3217
  196MOL0     H26983   7.786   8.462   9.980 -1.3426  0.9739 -3.3297
  196MOL0     H26984   7.803   8.639   9.949  1.0358  0.9496  0.8380
  196MOL0     H26985   8.018   8.606   9.827  4.1247 -1.1898  1.3864
  196MOL0     H26986   8.038   8.448   9.889  0.2161  1.3150  1.5236
  196MOL0     H26987   7.842   8.368   9.777 -2.0151  1.1320  2.6563
  196MOL0     H26988   7.796   8.524   9.723 -1.6395 -0.6493 -0.8272
  196MOL0     H26989   8.053   8.370   9.649  0.1421  0.0733  1.4512
  196MOL0     H26990   8.045   8.545   9.627 -1.8891  0.6572  0.4896
  196MOL0     H26991   7.858   8.350   9.490  0.7771  0.9001  0.7676
  196MOL0     H26992   7.831   8.518   9.491 -1.6225 -1.3470  2.1325
  196MOL0     H26993   8.048   8.371   9.345  0.1707 -0.1986  0.0380
  196MOL0     H26994   8.064   8.545   9.396  0.5804  0.1999  0.3903
  196MOL0     H26995   7.969   8.502   9.170  0.7292 -2.2429  1.5047
  196MOL0     H26996   7.826   8.437   9.255 -0.7313  0.8867  1.1489
  196MOL0     H26997   7.662   8.632   9.148  0.1099  1.1884  0.7390
  196MOL0     H26998   7.553   8.840   9.114  0.3710  0.1431 -0.0455
  196MOL0     H26999   7.647   8.995   9.146  0.5583 -0.6109  0.1646
  196MOL0     H27000   7.561   8.971   9.397 -1.5781 -0.4064  0.7663
  196MOL0     H27001   7.480   9.049   9.254  3.3537 -0.3281 -3.6356
  196MOL0     H27002   7.375   8.817   9.218  0.8961 -0.2812 -0.8508
  196MOL0     H27003   7.467   8.757   9.357 -0.7800 -1.0883 -0.4493
  196MOL0     H27004   7.236   8.960   9.359  1.2434 -0.2443 -1.9717
  196MOL0     H27005   7.215   8.792   9.402  2.5611 -2.9471 -0.8797
  196MOL0     H27006   7.243   8.662   9.634 -1.1870 -0.8764  0.8467
  196MOL0     H27007   7.117   8.516   9.727  1.9515 -3.3471  1.8796
  196MOL0     H27008   6.972   8.550   9.820 -0.2693  0.3675 -0.4015
  196MOL0     H27009   7.128   8.550   9.896 -1.9343 -2.5608 -0.4682
  196MOL0     H27010   6.760   8.920  10.190 -0.2679 -0.8969 -0.3552
  196MOL0     H27011   6.545   8.911  10.280 -0.2362  0.5669 -0.3219
  196MOL0     H27012   6.236   8.779   9.998  2.5175 -2.2403 -0.4775
  196MOL0     H27013   6.280   8.688  10.144 -2.1909 -1.6899 -1.9216
  196MOL0     H27014   6.057   8.692  10.179  2.8194 -0.9368  1.1793
  196MOL0     H27015   6.116   8.823  10.277 -1.5079  1.7225 -0.5313
  196MOL0     H27016   6.027   8.881   9.977  2.7208  2.1198 -0.1592
  196MOL0     H27017   6.058   8.992  10.108 -0.5905  0.3411  0.5114
  196MOL0     H27018   5.861   8.907  10.230 -2.5159 -0.9332 -0.0082
  196MOL0     H27019   5.820   8.792  10.096 -1.7579  2.4365 -4.5084
  196MOL0     H27020   5.853   9.092  10.042 -1.1303  1.3547  2.5318
  196MOL0     H27021   5.785   8.962   9.948  0.9276 -1.1034  0.0885
  196MOL0     H27022   5.684   9.082  10.212 -2.6344  3.7779 -1.3394
  196MOL0     H27023   5.606   8.947  10.136  2.4566 -1.3440  1.5284
  196MOL0     H27024   5.537   9.111   9.944 -0.0335 -2.2188  0.7452
  196MOL0     H27025   5.642   9.232  10.012 -0.8079  1.1794  0.7763
  196MOL0     H27026   5.517   9.243  10.220  3.3263  1.3177 -2.3547
  196MOL0     H27027   5.407   9.103  10.169 -2.6946  1.0735  2.5548
  196MOL0     H27028   6.363   8.946   9.899  1.1512 -0.3456 -2.4051
  196MOL0     H27029   6.583   8.939   9.792  0.4178  0.3667 -0.2787
  196MOL0     H27030   6.987   9.049   9.803  1.3193  1.2671 -0.3690
  196MOL0     H27031   7.162   9.093   9.647  0.6721 -2.0863 -3.6833
  196MOL0     H27032   7.988   8.664  10.347  0.4236  1.0141  3.0504
  196MOL0     H27033   8.008   8.836  10.511  1.3495  2.1061  0.6345
  196MOL0     H27034   8.230   9.188  10.520 -3.5448  2.0503 -0.2456
  196MOL0     H27035   8.452   9.190  10.667  0.2368  1.5438 -0.0007
  196MOL0     H27036   8.606   9.188  10.797 -0.2174 -0.4034 -0.3956
  196MOL0     H27037   8.538   9.346  10.877  1.1796  0.0910 -1.1875
  196MOL0     H27038   8.723   9.122  10.979  3.3476  0.7376 -2.0721
  196MOL0     H27039   8.665   9.254  11.089  1.0256  0.8435  0.5223
  196MOL0     H27040   8.887   9.272  11.024  0.5884  3.6684  1.1426
  196MOL0     H27041   8.843   9.265  10.848 -0.9291 -1.0279 -1.3475
  196MOL0     H27042   8.711   9.490  10.914  0.1894  2.0817  0.9823
  196MOL0     H27043   8.887   9.492  10.915  0.0776 -0.0478 -1.0335
  196MOL0     H27044   8.839   9.550  11.322  5.6570  1.8660 -1.0002
  196MOL0     H27045   8.215   9.111  11.005  0.8911  0.3886 -0.3001
  196MOL0     H27046   7.895   9.076  10.880 -1.7710 -3.8220  1.3080
  196MOL0     H27047   7.971   8.926  10.861 -0.3451  0.4325 -1.2477
  196MOL0     H27048   8.006   9.017  11.003 -0.5821 -1.3803 -0.3401
  197MOL0     O27049   0.506   1.631   4.378  0.4019  0.0882 -0.9308
  197MOL0     C27050   0.442   1.524   4.397  0.2288  0.5389  0.8488
  197MOL0     O27051   0.315   1.511   4.369  0.3215  0.9344 -0.3204
  197MOL0     C27052   0.238   1.622   4.359 -0.0244  1.2486 -0.6573
  197MOL0     C27053   0.177   1.651   4.232  0.4109  0.5341 -0.8455
  197MOL0     C27054   0.105   1.772   4.213 -0.5373 -0.6890 -0.1809
  197MOL0     C27055   0.088   1.864   4.315 -0.2024 -0.4986 -0.7346
  197MOL0     O27056   0.026   1.987   4.316 -0.1168 -0.1962 -0.2914
  197MOL0     C27057  -0.089   2.000   4.231 -1.0189  0.7660 -1.2341
  197MOL0     C27058  -0.144   2.141   4.227  0.2070 -0.2047  0.3343
  197MOL0     C27059  -0.039   2.247   4.180 -0.1082  0.3007 -0.2078
  197MOL0     C27060  -0.115   2.377   4.162 -0.1281  0.6981  0.9497
  197MOL0     C27061  -0.030   2.495   4.115 -0.7119  0.0600 -0.3411
  197MOL0     C27062  -0.113   2.619   4.111 -0.4772 -0.2108  0.6999
  197MOL0     C27063  -0.022   2.741   4.067 -0.1281 -0.4376  0.2870
  197MOL0     C27064   0.003   2.748   3.915 -0.2005  0.6894 -0.1518
  197MOL0     N27065   0.088   2.855   3.884  0.4738 -0.6231 -0.1309
  197MOL0     C27066   0.223   2.861   3.874 -0.5298  0.9901 -0.1342
  197MOL0     C27067   0.244   2.999   3.860  0.4572  0.1223  0.8994
  197MOL0     C27068   0.385   3.045   3.854  0.3707 -0.2978  0.1397
  197MOL0     C27069   0.425   3.140   3.962 -0.2397 -0.2325  0.3574
  197MOL0     C27070   0.396   3.101   4.101 -0.9928  0.1630 -0.2796
  197MOL0     C27071   0.533   3.048   4.159 -0.0513 -0.2122 -0.1176
  197MOL0     O27072   0.601   2.944   4.090 -0.5805 -0.7361  0.0639
  197MOL0     C27073   0.657   2.838   4.153  0.4640 -0.4317  0.2545
  197MOL0     C27074   0.737   2.761   4.072  0.3787  0.3825 -0.6986
  197MOL0     C27075   0.799   2.647   4.115 -0.5512 -0.8205 -0.7360
  197MOL0     C27076   0.849   2.553   4.004 -0.6220 -0.5628  0.0796
  197MOL0     C27077   0.809   2.621   4.255 -0.4301 -0.2546 -0.8951
  197MOL0     C27078   0.897   2.517   4.328  0.3217 -0.3352 -0.4410
  197MOL0     O27079   0.907   2.515   4.463 -0.4061  0.2270  0.0919
  197MOL0     C27080   0.978   2.411   4.515  0.0875 -0.0372  0.3362
  197MOL0     C27081   1.107   2.436   4.559  0.3076 -0.6269  0.2139
  197MOL0     C27082   1.167   2.344   4.649 -0.5123  0.0747  0.2663
  197MOL0     C27083   1.104   2.228   4.688  0.0876 -0.1131  0.0077
  197MOL0     O27084   1.177   2.149   4.775 -0.7972 -0.1152 -0.8689
  197MOL0     C27085   1.114   2.028   4.813 -2.0167  1.2074  0.0049
  197MOL0     C27086   1.170   1.973   4.943  0.3409 -0.3591 -0.8855
  197MOL0     C27087   1.323   1.938   4.929 -0.9198 -0.9265  0.0686
  197MOL0     C27088   1.403   2.027   5.034  0.7707 -0.6808 -0.7608
  197MOL0     C27089   1.550   2.012   5.003  0.0209  0.2344  0.3036
  197MOL0     C27090   1.592   2.099   4.887  0.6997 -0.1565 -0.4045
  197MOL0     C27091   1.737   2.143   4.904  0.3167 -0.4786  0.1255
  197MOL0     C27092   1.791   2.184   4.775 -1.1849 -1.1376 -0.3532
  197MOL0    Cl27093   1.813   2.053   4.655 -0.4309  0.1490  0.1506
  197MOL0     C27094   0.975   2.192   4.625  0.3052 -0.6766  0.1364
  197MOL0     C27095   0.912   2.289   4.552  0.0742 -0.5429  0.1514
  197MOL0     O27096   0.965   2.449   4.251 -0.1108 -0.2409  0.1418
  197MOL0     C27097   0.750   2.715   4.339  0.4158 -0.3263 -0.9256
  197MOL0     C27098   0.667   2.824   4.293  1.1845  0.4039  0.3438
  197MOL0     N27099   0.125   3.073   3.856  0.0491 -0.4320 -0.6059
  197MOL0     N27100   0.038   2.982   3.876  0.7878 -0.1056  0.8270
  197MOL0     C27101   0.152   1.836   4.435  0.5018 -0.4789 -0.2934
  197MOL0     C27102   0.211   1.713   4.458  0.6143  1.7193 -0.6927
  197MOL0     C27103   0.505   1.399   4.453 -0.7355  0.2013 -1.1285
  197MOL0     C27104   0.426   1.315   4.538 -0.3124 -0.3823 -0.1433
  197MOL0     C27105   0.485   1.199   4.589  0.5817  0.0083 -0.2126
  197MOL0     C27106   0.619   1.165   4.558 -0.5355 -0.3401 -0.0301
  197MOL0     O27107   0.658   1.041   4.608 -0.1798 -0.5019  0.2120
  197MOL0     C27108   0.799   0.992   4.590  0.3065 -0.9946  0.3378
  197MOL0     C27109   0.802   0.882   4.480  0.1016 -0.1814 -0.3923
  197MOL0     C27110   0.945   0.829   4.449 -0.3490 -0.4825  0.0978
  197MOL0     C27111   1.024   0.917   4.342  0.3960 -0.6737  0.6799
  197MOL0     C27112   0.979   0.872   4.213  0.1033  0.3903  0.6495
  197MOL0     C27113   0.942   0.832   4.102  0.0892  0.5769 -0.4979
  197MOL0     C27114   0.698   1.250   4.476  0.4630  0.2420 -0.2983
  197MOL0     C27115   0.640   1.365   4.421 -0.2375  0.1926  0.9741
  197MOL0     C27116   0.721   1.460   4.338 -0.5664  0.7438  0.4573
  197MOL0     H27117   0.184   1.576   4.153 -1.5456 -0.9462  0.2984
  197MOL0     H27118   0.070   1.807   4.117  0.4878 -0.5010 -0.5007
  197MOL0     H27119  -0.170   1.934   4.263  1.0345 -0.6926  1.3072
  197MOL0     H27120  -0.068   1.965   4.129  0.8058  0.3364 -0.7439
  197MOL0     H27121  -0.230   2.131   4.159  0.7039 -2.5403 -0.0360
  197MOL0     H27122  -0.181   2.175   4.324  0.4703  1.7180 -0.1883
  197MOL0     H27123   0.037   2.280   4.251 -0.5303  3.1128 -0.9279
  197MOL0     H27124   0.012   2.218   4.087  0.4268 -1.8315  0.6943
  197MOL0     H27125  -0.186   2.365   4.081  0.2524  1.2647  0.5275
  197MOL0     H27126  -0.176   2.395   4.252 -1.2353 -1.3202  0.6674
  197MOL0     H27127   0.028   2.470   4.025 -1.3212  0.7064 -0.9304
  197MOL0     H27128   0.043   2.507   4.195 -1.5066 -2.5549  0.8845
  197MOL0     H27129  -0.196   2.598   4.043  1.0042  0.1497 -1.3008
  197MOL0     H27130  -0.147   2.626   4.215 -1.4257  1.5596  0.3012
  197MOL0     H27131   0.073   2.738   4.121 -0.3223  1.4340  0.7877
  197MOL0     H27132  -0.072   2.829   4.107 -0.2139 -0.3327 -0.0516
  197MOL0     H27133   0.046   2.653   3.881 -1.2154 -0.2185  1.0306
  197MOL0     H27134  -0.084   2.759   3.851  1.5648  0.9757 -2.6340
  197MOL0     H27135   0.293   2.779   3.875 -0.9917  0.5784 -0.7472
  197MOL0     H27136   0.399   3.084   3.753 -0.5215 -1.3048 -0.3943
  197MOL0     H27137   0.456   2.962   3.865  2.7293  1.2387 -2.3863
  197MOL0     H27138   0.523   3.179   3.933 -1.2692  0.6264 -2.2567
  197MOL0     H27139   0.367   3.233   3.953 -0.5452 -0.5463 -1.1595
  197MOL0     H27140   0.344   3.185   4.150  0.3041  2.0792 -2.0107
  197MOL0     H27141   0.317   3.026   4.107 -1.6373  0.9248  1.9719
  197MOL0     H27142   0.603   3.130   4.181 -1.9686  1.2628  0.8510
  197MOL0     H27143   0.498   3.014   4.257  1.5618 -3.0160 -0.4156
  197MOL0     H27144   0.735   2.773   3.964 -1.7970  0.5933 -0.6802
  197MOL0     H27145   0.949   2.518   4.031  0.1640  2.5435  1.6799
  197MOL0     H27146   0.877   2.615   3.919  1.3376  0.6569  1.5259
  197MOL0     H27147   0.773   2.476   3.984 -1.4296  0.2048  0.1352
  197MOL0     H27148   1.157   2.526   4.525 -1.7427  1.3291  2.0372
  197MOL0     H27149   1.268   2.361   4.684 -0.6959  2.9855 -0.3961
  197MOL0     H27150   1.006   2.040   4.827 -1.6428  5.1362  0.8672
  197MOL0     H27151   1.134   1.970   4.723  2.5538  1.1444  0.8115
  197MOL0     H27152   1.157   2.050   5.019 -2.5899  0.9575 -2.5791
  197MOL0     H27153   1.116   1.881   4.968 -0.4458  0.1952 -0.5083
  197MOL0     H27154   1.352   1.952   4.824 -0.6133 -1.1713  0.1200
  197MOL0     H27155   1.344   1.838   4.968  0.2898  0.9163  4.7733
  197MOL0     H27156   1.371   1.999   5.134 -0.5393 -1.0998 -1.2761
  197MOL0     H27157   1.381   2.134   5.033 -0.0694 -0.8413 -0.2496
  197MOL0     H27158   1.611   2.034   5.091  0.2488  0.7343  0.0279
  197MOL0     H27159   1.577   1.910   4.973  1.3910  1.5741 -3.7452
  197MOL0     H27160   1.535   2.192   4.888  1.6544  0.4912 -2.0450
  197MOL0     H27161   1.579   2.049   4.790  0.7109  1.9034 -1.5182
  197MOL0     H27162   1.806   2.062   4.927  0.8222 -0.0422  0.1554
  197MOL0     H27163   1.761   2.223   4.976  0.8376  0.3919 -0.9889
  197MOL0     H27164   1.891   2.226   4.789 -2.5498  2.4679 -0.3243
  197MOL0     H27165   1.733   2.263   4.725 -1.4707 -1.2399 -0.1837
  197MOL0     H27166   0.921   2.099   4.646  0.4330 -0.9774 -0.8136
  197MOL0     H27167   0.812   2.268   4.517  0.0025  1.5900 -1.0932
  197MOL0     H27168   0.750   2.704   4.447 -1.5335 -0.6560 -0.9235
  197MOL0     H27169   0.629   2.908   4.351 -1.6198  0.2861 -1.1202
  197MOL0     H27170   0.142   1.903   4.520 -1.9666 -2.6428  1.3273
  197MOL0     H27171   0.258   1.700   4.555 -0.7461 -1.9449 -0.3756
  197MOL0     H27172   0.328   1.340   4.577  0.1464 -0.2700  0.9538
  197MOL0     H27173   0.436   1.134   4.661  0.8557  0.9710  0.8565
  197MOL0     H27174   0.877   1.068   4.581 -0.2254 -0.5016 -0.2554
  197MOL0     H27175   0.819   0.943   4.685 -3.3847  1.2821  2.5226
  197MOL0     H27176   0.758   0.913   4.385 -2.0656 -3.2343 -0.5330
  197MOL0     H27177   0.748   0.798   4.524  0.6579 -1.0734 -1.3776
  197MOL0     H27178   1.013   0.826   4.535 -0.3268 -0.5958  0.0756
  197MOL0     H27179   0.942   0.734   4.396  0.7931  0.3859 -1.6196
  197MOL0     H27180   1.130   0.890   4.331  1.0715  1.8464  0.2514
  197MOL0     H27181   1.006   1.023   4.361  0.2804 -0.6341  0.3543
  197MOL0     H27182   0.904   0.789   4.012 -2.1822  0.3376  0.5170
  197MOL0     H27183   0.799   1.228   4.443  0.8333  0.1196  0.8824
  197MOL0     H27184   0.670   1.500   4.250  1.2140  0.8284 -0.5826
  197MOL0     H27185   0.753   1.547   4.397 -1.1591  1.0260  0.3772
  197MOL0     H27186   0.812   1.414   4.300 -0.9495  2.9256 -3.6108
  198MOL0     O27187   9.268   9.402   5.924  1.0141  0.3661  0.0313
  198MOL0     C27188   9.369   9.384   5.988  0.3421  0.0638 -0.4708
  198MOL0     O27189   9.392   9.428   6.112 -0.0781 -0.0962  0.2851
  198MOL0     C27190   9.293   9.500   6.162 -0.3177  0.5396  0.4298
  198MOL0     C27191   9.218   9.442   6.261 -0.2736  0.1140  0.3797
  198MOL0     C27192   9.107   9.508   6.315 -0.2530 -0.0370  0.0005
  198MOL0     C27193   9.081   9.638   6.277  0.4144  0.3617  0.4340
  198MOL0     O27194   8.964   9.694   6.324 -0.0856 -0.4653  0.8222
  198MOL0     C27195   8.945   9.833   6.301  0.4540 -0.2531  0.1195
  198MOL0     C27196   8.804   9.871   6.353 -0.3018  0.2238 -0.0403
  198MOL0     C27197   8.771  10.012   6.329  0.3277 -1.0265 -0.5977
  198MOL0     C27198   8.854  10.103   6.411 -0.2473 -0.6013 -0.0232
  198MOL0     C27199   8.813  10.256   6.379  0.4082 -0.4008 -0.5328
  198MOL0     C27200   8.921  10.346   6.431  0.2059 -0.2448 -0.2638
  198MOL0     C27201   8.866  10.489   6.413  0.1647 -0.7146 -0.5933
  198MOL0     C27202   8.980  10.589   6.442  0.3022  0.3631  0.2173
  198MOL0     N27203   8.943  10.727   6.419 -0.2102 -0.5372  0.6143
  198MOL0     C27204   8.900  10.780   6.298  0.4296 -1.0520 -0.4022
  198MOL0     C27205   8.890  10.911   6.325  0.2292  0.3773  0.1270
  198MOL0     C27206   8.841  11.009   6.225 -0.2128  0.3191 -0.6772
  198MOL0     C27207   8.951  11.070   6.141  0.3846  0.1309 -0.9745
  198MOL0     C27208   9.053  11.151   6.222 -0.4178 -0.1560  0.3573
  198MOL0     C27209   9.153  11.224   6.129 -0.4420  0.7469 -0.4290
  198MOL0     O27210   9.219  11.128   6.042  0.0240  0.5976 -0.1847
  198MOL0     C27211   9.314  11.168   5.963 -0.3895 -0.1436  0.0751
  198MOL0     C27212   9.332  11.294   5.909  0.1130 -0.1922 -0.3228
  198MOL0     C27213   9.407  11.328   5.800  0.7108  0.1337 -0.2789
  198MOL0     C27214   9.400  11.481   5.765  0.1172 -0.5005 -0.2895
  198MOL0     C27215   9.471  11.220   5.726 -0.3063 -0.0695  0.5762
  198MOL0     C27216   9.544  11.231   5.600  0.0703 -0.0483 -1.2919
  198MOL0     O27217   9.562  11.118   5.529 -0.2946 -0.0213 -0.0914
  198MOL0     C27218   9.653  11.112   5.427 -0.5095  0.5000  0.1217
  198MOL0     C27219   9.596  11.111   5.299 -1.4108  0.4224 -0.7450
  198MOL0     C27220   9.692  11.100   5.192  0.2400 -0.0075  0.4922
  198MOL0     C27221   9.828  11.081   5.215 -0.6493 -0.0892 -0.3759
  198MOL0     O27222   9.915  11.056   5.106  0.4248 -0.3123  0.4367
  198MOL0     C27223   9.844  10.994   4.988  0.9113 -0.7030  0.5244
  198MOL0     C27224   9.933  10.912   4.903  0.4795 -0.0858  0.7833
  198MOL0     C27225   9.853  10.818   4.801 -0.9364  0.4544 -0.2379
  198MOL0     C27226   9.801  10.891   4.670 -0.5794  0.1950 -1.0634
  198MOL0     C27227   9.744  10.789   4.573 -0.1134  0.0138 -0.1546
  198MOL0     C27228   9.694  10.865   4.445  1.2426 -0.4451  0.4825
  198MOL0     C27229   9.656  10.788   4.318  0.1441  0.2145 -1.0867
  198MOL0     C27230   9.519  10.706   4.338 -0.0103  0.4309  0.4642
  198MOL0    Cl27231   9.595  10.567   4.420 -0.3056  0.0845 -0.1012
  198MOL0     C27232   9.883  11.083   5.336 -0.1959 -0.3743  0.5840
  198MOL0     C27233   9.792  11.108   5.443  0.0067 -0.2409 -0.4031
  198MOL0     O27234   9.587  11.343   5.567  0.3946 -0.7440 -0.1419
  198MOL0     C27235   9.458  11.088   5.782  0.1639 -1.1668  0.1035
  198MOL0     C27236   9.388  11.068   5.901 -0.2786  0.6573 -0.3907
  198MOL0     N27237   8.922  10.930   6.458  0.7755  0.1723  0.4926
  198MOL0     N27238   8.956  10.820   6.514  0.1358 -0.1256  0.3479
  198MOL0     C27239   9.158   9.697   6.172 -0.1501 -0.0095 -0.6996
  198MOL0     C27240   9.262   9.628   6.119 -0.0379 -0.0192  0.2873
  198MOL0     C27241   9.487   9.333   5.916  0.9111 -0.2269 -0.5003
  198MOL0     C27242   9.613   9.358   5.967 -0.2453 -0.1121  0.0107
  198MOL0     C27243   9.720   9.305   5.893 -0.5690  0.1046 -1.1991
  198MOL0     C27244   9.717   9.219   5.784  0.2650  0.1894  0.1711
  198MOL0     O27245   9.832   9.161   5.738 -0.2219 -0.0016 -0.3835
  198MOL0     C27246   9.879   9.220   5.617  0.0307 -0.4518  0.4729
  198MOL0     C27247   9.836   9.122   5.510 -0.9891 -0.6178  0.1801
  198MOL0     C27248   9.865   9.185   5.375  0.0125  0.4861  0.4609
  198MOL0     C27249   9.852   9.091   5.260  0.0241 -1.0397  0.7538
  198MOL0     C27250   9.825   9.174   5.139 -0.6589  0.7074  0.3552
  198MOL0     C27251   9.815   9.237   5.033 -1.1532 -0.4622 -0.0038
  198MOL0     C27252   9.588   9.182   5.749 -0.0656 -0.7132 -0.5964
  198MOL0     C27253   9.474   9.231   5.812  0.2602 -0.4984 -0.0053
  198MOL0     C27254   9.336   9.186   5.745  0.8894  0.1562  0.2671
  198MOL0     H27255   9.249   9.341   6.285  2.0054  0.2393 -1.6463
  198MOL0     H27256   9.045   9.459   6.389  0.2911  1.7276  1.6954
  198MOL0     H27257   8.949   9.851   6.193 -2.7279 -1.9446 -0.4009
  198MOL0     H27258   9.024   9.878   6.362  1.3141  1.5845 -2.2232
  198MOL0     H27259   8.741   9.812   6.286 -1.0851 -0.6677  1.4314
  198MOL0     H27260   8.783   9.847   6.457 -2.2051  0.7912 -0.2454
  198MOL0     H27261   8.781  10.031   6.221 -1.5577 -1.3719 -0.8653
  198MOL0     H27262   8.666  10.021   6.357  0.5441  1.4064 -0.4009
  198MOL0     H27263   8.834  10.104   6.519  0.0923 -2.9079  0.1035
  198MOL0     H27264   8.962  10.094   6.395  0.2624  1.5809  1.5849
  198MOL0     H27265   8.717  10.285   6.421  0.6941 -0.3218  0.0675
  198MOL0     H27266   8.797  10.267   6.271 -2.5047 -0.1225 -0.1520
  198MOL0     H27267   8.942  10.320   6.536 -2.7316  0.4033  0.5731
  198MOL0     H27268   9.013  10.332   6.373  1.3297 -1.4088  1.6775
  198MOL0     H27269   8.789  10.496   6.491 -1.9259 -1.2074 -2.5313
  198MOL0     H27270   8.831  10.509   6.312  0.5022  1.4280 -0.3422
  198MOL0     H27271   9.017  10.572   6.543 -0.0186  3.3057  0.9156
  198MOL0     H27272   9.065  10.574   6.375 -0.3186 -1.1746 -0.2652
  198MOL0     H27273   8.880  10.732   6.202  1.0041 -1.5371 -0.2809
  198MOL0     H27274   8.777  11.081   6.277 -2.3881 -0.4616 -2.1143
  198MOL0     H27275   8.770  10.955   6.161  0.0969 -2.1871  0.9619
  198MOL0     H27276   9.002  10.993   6.084  1.7249 -0.1391  0.5319
  198MOL0     H27277   8.908  11.143   6.071  2.3792  1.3479 -0.9857
  198MOL0     H27278   8.999  11.220   6.287 -1.6472  0.9105 -1.6629
  198MOL0     H27279   9.105  11.081   6.288 -1.9099 -0.6920  1.0221
  198MOL0     H27280   9.093  11.290   6.067 -0.1283  1.3198 -0.1289
  198MOL0     H27281   9.221  11.275   6.198 -0.1043 -0.5441  0.2239
  198MOL0     H27282   9.268  11.372   5.950  0.6698  0.0885  0.0222
  198MOL0     H27283   9.479  11.540   5.811  0.4075  1.1373 -2.6842
  198MOL0     H27284   9.302  11.515   5.799  0.6020  2.0519 -1.2368
  198MOL0     H27285   9.399  11.496   5.656  2.0864  2.6758  0.0002
  198MOL0     H27286   9.489  11.130   5.289 -1.3233  0.7051 -1.1362
  198MOL0     H27287   9.647  11.094   5.094  0.9486  2.8303 -0.0835
  198MOL0     H27288   9.771  10.926   5.032  0.2431  0.6857  1.6417
  198MOL0     H27289   9.795  11.067   4.923 -1.5181 -1.4718  1.3635
  198MOL0     H27290   9.999  10.978   4.846  1.1023 -1.9227 -0.7558
  198MOL0     H27291   9.976  10.849   4.981 -2.6842 -0.8861  2.0269
  198MOL0     H27292   9.760  10.779   4.844  0.1047 -1.2762  0.5323
  198MOL0     H27293   9.915  10.733   4.770 -2.7112 -1.0260  0.0938
  198MOL0     H27294   9.879  10.948   4.620  0.5929  1.4050  1.8827
  198MOL0     H27295   9.723  10.960   4.705  0.0003 -0.2123  1.2187
  198MOL0     H27296   9.818  10.724   4.526 -0.9148 -1.1234  0.1244
  198MOL0     H27297   9.651  10.737   4.597 -1.2390  2.3888  1.0330
  198MOL0     H27298   9.767  10.941   4.416 -0.8789  0.5198 -2.9340
  198MOL0     H27299   9.606  10.924   4.471  0.7194  0.0402 -2.1149
  198MOL0     H27300   9.740  10.733   4.273 -0.8474 -2.3793  0.0312
  198MOL0     H27301   9.623  10.869   4.252 -2.4267 -1.2772 -1.7499
  198MOL0     H27302   9.473  10.675   4.244  0.1287  0.7085  0.3032
  198MOL0     H27303   9.445  10.747   4.407 -0.7242  1.1661 -0.7219
  198MOL0     H27304   9.991  11.079   5.343 -0.2114 -1.1234  0.4471
  198MOL0     H27305   9.821  11.121   5.547  2.6035 -2.5854 -0.6884
  198MOL0     H27306   9.499  10.999   5.735  1.4405 -2.1626  2.8611
  198MOL0     H27307   9.372  10.970   5.945  0.0523  1.4065  1.5204
  198MOL0     H27308   9.136   9.798   6.139 -1.2829 -0.1982 -0.5610
  198MOL0     H27309   9.337   9.665   6.050 -0.2829 -0.8017 -0.4077
  198MOL0     H27310   9.627   9.435   6.042 -1.9764 -0.5362  0.8230
  198MOL0     H27311   9.818   9.332   5.931  0.1190  0.2325 -2.9840
  198MOL0     H27312   9.837   9.320   5.603  3.2968  1.0963  0.5801
  198MOL0     H27313   9.988   9.232   5.614 -0.0717  0.4760 -0.8898
  198MOL0     H27314   9.730   9.096   5.519 -1.4231  1.2421  0.7997
  198MOL0     H27315   9.895   9.032   5.526 -0.3462  0.0442  1.6833
  198MOL0     H27316   9.798   9.271   5.370 -0.9206 -0.2555 -0.1921
  198MOL0     H27317   9.971   9.209   5.388 -0.0536  1.1215 -0.1386
  198MOL0     H27318   9.781   9.008   5.270  0.3088 -1.2602  0.9724
  198MOL0     H27319   9.949   9.043   5.247  0.2828  0.0035 -1.6818
  198MOL0     H27320   9.804   9.272   4.932 -1.6725 -0.0358  0.2004
  198MOL0     H27321   9.566   9.113   5.669  0.6577 -0.2228 -1.2369
  198MOL0     H27322   9.344   9.110   5.667  0.2262  0.6905 -0.3403
  198MOL0     H27323   9.271   9.150   5.825 -1.1986  0.2149 -1.2942
  198MOL0     H27324   9.291   9.267   5.687 -0.5537 -1.0946 -0.4270
  199MOL0     O27325   3.148  10.905   9.542  0.0454 -0.6633  0.4687
  199MOL0     C27326   3.214  10.901   9.443 -0.8825  0.3188  0.5353
  199MOL0     O27327   3.280  11.005   9.390  0.4398  1.0225 -0.4209
  199MOL0     C27328   3.277  11.110   9.481 -0.9013 -0.3211  0.6793
  199MOL0     C27329   3.201  11.225   9.470 -0.6136  0.2805  0.7037
  199MOL0     C27330   3.197  11.311   9.583 -0.1043 -0.0344  0.2935
  199MOL0     C27331   3.296  11.308   9.680 -0.1600 -0.3060  0.7198
  199MOL0     O27332   3.299  11.377   9.800 -0.1270  0.4299  0.1024
  199MOL0     C27333   3.213  11.490   9.829  0.9659  0.2582 -0.6604
  199MOL0     C27334   3.248  11.616   9.752  0.2739  0.6217 -0.4583
  199MOL0     C27335   3.363  11.701   9.803 -0.6831 -0.1222  0.0369
  199MOL0     C27336   3.508  11.652   9.766  0.0071 -0.0655 -0.1106
  199MOL0     C27337   3.618  11.679   9.871 -0.0010  0.2225 -0.1941
  199MOL0     C27338   3.652  11.828   9.897  0.5354 -0.7897 -0.0309
  199MOL0     C27339   3.706  11.901   9.773 -0.2224 -0.4884  0.9717
  199MOL0     C27340   3.775  12.029   9.813 -0.2520  0.0859  0.6542
  199MOL0     N27341   3.809  12.107   9.690 -0.6499 -0.0909 -0.6814
  199MOL0     C27342   3.925  12.101   9.614  0.5385 -0.1382 -1.4312
  199MOL0     C27343   3.905  12.184   9.511 -0.2609  0.2854  0.2317
  199MOL0     C27344   3.999  12.225   9.395 -0.7327 -0.1978 -0.4221
  199MOL0     C27345   3.960  12.355   9.326 -0.0268 -0.9066  0.5740
  199MOL0     C27346   4.074  12.413   9.249 -0.9979 -0.0986  1.2898
  199MOL0     C27347   4.021  12.533   9.171 -0.1446 -0.7284  0.8635
  199MOL0     O27348   3.997  12.646   9.257 -0.2616  0.4548  0.2918
  199MOL0     C27349   4.075  12.753   9.258  0.6109  0.2054 -0.2614
  199MOL0     C27350   4.039  12.835   9.360  0.0245  0.6073  0.6875
  199MOL0     C27351   4.105  12.955   9.391  0.2820 -0.4420  0.8094
  199MOL0     C27352   4.047  13.024   9.508  0.1912  0.3825 -0.3357
  199MOL0     C27353   4.216  12.992   9.304 -0.1656 -0.6464  0.2946
  199MOL0     C27354   4.304  13.107   9.313 -0.3236 -0.3008  0.0571
  199MOL0     O27355   4.378  13.138   9.204 -0.5556  0.2901  0.1878
  199MOL0     C27356   4.451  13.248   9.212 -0.5654 -0.1701  1.0328
  199MOL0     C27357   4.538  13.282   9.318  0.3044 -0.4339  0.8867
  199MOL0     C27358   4.621  13.393   9.319  0.4117 -0.3106 -0.3515
  199MOL0     C27359   4.636  13.471   9.205 -0.0476  0.3167  0.0550
  199MOL0     O27360   4.735  13.569   9.200 -0.4368 -0.6528  0.7648
  199MOL0     C27361   4.824  13.549   9.083  0.4050 -0.7069 -0.0225
  199MOL0     C27362   4.840  13.679   9.007 -0.2974  1.3850 -0.4562
  199MOL0     C27363   4.920  13.669   8.881  0.1294  0.6143 -0.2355
  199MOL0     C27364   5.038  13.569   8.876  0.6761  0.6769  0.2273
  199MOL0     C27365   5.123  13.584   8.755 -1.0363  0.2516  0.2493
  199MOL0     C27366   5.226  13.465   8.752  0.1661 -0.3826 -1.1642
  199MOL0     C27367   5.312  13.484   8.630 -0.0767  0.4894 -0.1559
  199MOL0     C27368   5.409  13.375   8.598  0.4172  0.1925  0.2950
  199MOL0    Cl27369   5.319  13.221   8.567  0.0258  0.1408 -0.0693
  199MOL0     C27370   4.539  13.446   9.102 -0.4411  0.2090  0.4166
  199MOL0     C27371   4.456  13.333   9.104 -0.3834 -0.0359  0.1804
  199MOL0     O27372   4.289  13.182   9.413  0.2282  0.4508  0.5513
  199MOL0     C27373   4.258  12.891   9.217 -0.0151  0.2972 -0.2613
  199MOL0     C27374   4.192  12.770   9.200 -1.9036 -0.6668 -0.3159
  199MOL0     N27375   3.782  12.245   9.530  0.0213  0.2135  0.2624
  199MOL0     N27376   3.721  12.191   9.632 -0.8743  0.1916 -0.3695
  199MOL0     C27377   3.390  11.205   9.679  0.4521 -1.4944  0.4083
  199MOL0     C27378   3.384  11.109   9.572 -0.3219 -0.8738  0.0488
  199MOL0     C27379   3.238  10.768   9.384 -0.2948  0.1209 -0.5820
  199MOL0     C27380   3.181  10.655   9.449 -1.0103 -0.4549  0.8906
  199MOL0     C27381   3.194  10.524   9.399 -0.7203 -0.7517 -0.7910
  199MOL0     C27382   3.258  10.508   9.276  0.5117  0.9915 -0.4813
  199MOL0     O27383   3.251  10.398   9.206  0.6103  0.0539  0.0971
  199MOL0     C27384   3.215  10.267   9.266 -0.4044  0.1262  0.3238
  199MOL0     C27385   3.205  10.165   9.149  1.3872 -0.6657  0.5427
  199MOL0     C27386   3.220  10.023   9.201  1.5225 -0.5389  0.5005
  199MOL0     C27387   3.198   9.921   9.085  0.1707  0.0373 -0.5414
  199MOL0     C27388   3.188   9.788   9.145 -0.6465 -0.1825  0.6839
  199MOL0     C27389   3.169   9.674   9.168  0.6249 -0.4901 -0.2557
  199MOL0     C27390   3.318  10.615   9.216  0.6885 -0.8966  0.0445
  199MOL0     C27391   3.320  10.746   9.270 -0.0819  0.4540  0.6084
  199MOL0     C27392   3.396  10.845   9.191 -0.7593  0.2259 -0.9287
  199MOL0     H27393   3.122  11.238   9.397  1.2215  0.1001 -1.3896
  199MOL0     H27394   3.119  11.386   9.588  0.6805  0.7698  0.5016
  199MOL0     H27395   3.227  11.505   9.936  2.1833 -3.8185 -0.0604
  199MOL0     H27396   3.111  11.459   9.805  0.6153 -1.2664  2.3134
  199MOL0     H27397   3.244  11.586   9.647 -1.6976  0.5045 -0.3882
  199MOL0     H27398   3.159  11.679   9.750  0.5114  0.9473 -1.2944
  199MOL0     H27399   3.354  11.801   9.758  4.0131  1.0520  1.2199
  199MOL0     H27400   3.348  11.714   9.910  0.9010  0.0860  0.2422
  199MOL0     H27401   3.514  11.543   9.757  1.8977 -0.8581  5.9174
  199MOL0     H27402   3.537  11.697   9.671 -1.3680 -2.1664 -1.5949
  199MOL0     H27403   3.707  11.621   9.847  0.7294  1.1623  0.1788
  199MOL0     H27404   3.562  11.638   9.956  1.3149 -1.3338 -0.0375
  199MOL0     H27405   3.569  11.878   9.947  0.6832 -0.4483 -0.1263
  199MOL0     H27406   3.727  11.830   9.977 -1.9583 -1.2199  2.5053
  199MOL0     H27407   3.624  11.931   9.707 -0.1651  0.8124  1.4717
  199MOL0     H27408   3.785  11.844   9.724 -1.5490 -0.9074 -0.7971
  199MOL0     H27409   3.699  12.085   9.868 -1.5879  1.4216 -2.3470
  199MOL0     H27410   3.859  11.997   9.875 -0.2744  0.2309  0.7602
  199MOL0     H27411   4.016  12.043   9.632  0.9163  0.7698 -0.3154
  199MOL0     H27412   3.994  12.149   9.316  0.2000 -0.0695 -0.6179
  199MOL0     H27413   4.101  12.217   9.435 -0.0912 -2.0775 -2.2636
  199MOL0     H27414   3.878  12.330   9.259 -0.1771  2.2023 -0.5440
  199MOL0     H27415   3.929  12.434   9.395 -0.6755 -0.3143 -0.3765
  199MOL0     H27416   4.154  12.446   9.317  0.7587 -1.3890 -0.0680
  199MOL0     H27417   4.108  12.341   9.174  3.1461  0.7159  2.1164
  199MOL0     H27418   4.089  12.565   9.092 -1.2223 -1.5474 -0.4297
  199MOL0     H27419   3.924  12.512   9.126  1.2792 -1.3680 -2.1118
  199MOL0     H27420   3.958  12.800   9.423 -1.7469  2.2854 -0.5619
  199MOL0     H27421   4.032  13.131   9.494  1.6528  0.4273 -1.9097
  199MOL0     H27422   4.121  13.023   9.589  0.4039 -0.2027 -0.5330
  199MOL0     H27423   3.948  12.990   9.538  0.4577 -0.1729 -0.0600
  199MOL0     H27424   4.558  13.215   9.402  1.3109  0.7118  1.5988
  199MOL0     H27425   4.693  13.407   9.399  1.4213 -0.7821 -1.1470
  199MOL0     H27426   4.924  13.525   9.122  1.0366 -0.7017 -1.5519
  199MOL0     H27427   4.788  13.456   9.037 -0.0658 -2.4718  3.5599
  199MOL0     H27428   4.743  13.723   8.987 -1.6330 -1.3683 -0.4686
  199MOL0     H27429   4.872  13.753   9.082 -1.5633 -0.4106  2.0269
  199MOL0     H27430   4.962  13.768   8.856  1.5216  0.0288 -0.3298
  199MOL0     H27431   4.859  13.646   8.794 -2.3075  2.9211  0.7074
  199MOL0     H27432   5.013  13.464   8.892  0.9420  0.4585 -0.7519
  199MOL0     H27433   5.097  13.591   8.965  0.7953 -0.7821  0.5313
  199MOL0     H27434   5.062  13.574   8.665  1.0653  3.1381 -1.6789
  199MOL0     H27435   5.166  13.684   8.742  0.7994 -0.6226 -0.7429
  199MOL0     H27436   5.186  13.363   8.764  0.6137 -0.6713 -2.0951
  199MOL0     H27437   5.287  13.484   8.841  0.4180 -2.2698 -0.8884
  199MOL0     H27438   5.383  13.567   8.639  0.9232 -0.0681 -2.2687
  199MOL0     H27439   5.245  13.490   8.544  2.4100 -1.1260 -2.3822
  199MOL0     H27440   5.487  13.354   8.671  1.3388  0.1416 -0.6762
  199MOL0     H27441   5.469  13.401   8.510  0.0941 -0.7596 -0.2131
  199MOL0     H27442   4.535  13.510   9.016  1.3818  0.3009  0.3519
  199MOL0     H27443   4.392  13.312   9.019 -3.0308  3.6490  0.9949
  199MOL0     H27444   4.348  12.910   9.158 -0.3865  0.8000 -0.6766
  199MOL0     H27445   4.243  12.697   9.139  1.9322  1.2274  0.2720
  199MOL0     H27446   3.464  11.204   9.758 -0.2948  0.5462  1.2158
  199MOL0     H27447   3.459  11.031   9.578 -1.8463 -2.2988  2.1190
  199MOL0     H27448   3.135  10.673   9.546 -0.3093 -1.9263  1.5329
  199MOL0     H27449   3.147  10.446   9.458  2.3827 -0.0153  3.1223
  199MOL0     H27450   3.306  10.240   9.321 -0.2341  2.8129  1.5378
  199MOL0     H27451   3.129  10.275   9.333  0.0637  6.7117  0.7541
  199MOL0     H27452   3.286  10.188   9.079 -1.6638  0.7008 -2.8157
  199MOL0     H27453   3.110  10.177   9.097  2.0538  0.4125 -0.4922
  199MOL0     H27454   3.322  10.006   9.237  0.9853  0.1697  2.5268
  199MOL0     H27455   3.155  10.009   9.288  0.6620 -3.0292 -0.4550
  199MOL0     H27456   3.285   9.928   9.019  1.8991 -3.6033  1.0642
  199MOL0     H27457   3.112   9.948   9.024  0.6198  2.1839 -0.3149
  199MOL0     H27458   3.151   9.574   9.204  0.8861 -1.0384 -1.5869
  199MOL0     H27459   3.384  10.597   9.131 -0.4909  4.2030 -2.3092
  199MOL0     H27460   3.440  10.804   9.099  0.5432 -2.8039  0.8870
  199MOL0     H27461   3.345  10.938   9.166 -0.1892  0.2448 -2.1150
  199MOL0     H27462   3.482  10.878   9.248  0.1719 -1.0337 -1.5546
  200MOL0     O27463   4.959   8.845   8.650  0.2581 -0.2033  0.5767
  200MOL0     C27464   4.974   8.758   8.731 -0.2729 -0.1279 -0.0086
  200MOL0     O27465   4.909   8.741   8.850  0.1654 -0.5944 -0.2597
  200MOL0     C27466   4.850   8.855   8.900  0.9546  0.0772 -0.5842
  200MOL0     C27467   4.879   8.895   9.030  0.0204  0.0604  0.2680
  200MOL0     C27468   4.826   9.015   9.090 -0.1632  1.2056 -0.4010
  200MOL0     C27469   4.730   9.086   9.015 -0.4857 -0.9773 -0.6070
  200MOL0     O27470   4.648   9.189   9.073  0.1409 -0.0379  0.2929
  200MOL0     C27471   4.677   9.228   9.200  0.2557 -0.4987 -0.0463
  200MOL0     C27472   4.584   9.337   9.250  0.4352 -0.8995  0.0791
  200MOL0     C27473   4.591   9.362   9.406 -0.0321 -0.0286 -0.2631
  200MOL0     C27474   4.580   9.250   9.505  0.2106  0.3507 -0.6796
  200MOL0     C27475   4.468   9.158   9.472  0.6095  0.5625 -0.3591
  200MOL0     C27476   4.329   9.219   9.497 -0.0965  0.4038 -0.0575
  200MOL0     C27477   4.221   9.148   9.420  0.8270 -0.1267 -0.6458
  200MOL0     C27478   4.079   9.200   9.447  0.1085 -0.5348 -0.6649
  200MOL0     N27479   3.974   9.193   9.340 -0.1335 -0.3483 -0.4143
  200MOL0     C27480   3.915   9.074   9.297 -0.7116  0.1164 -0.5171
  200MOL0     C27481   3.810   9.119   9.216  0.5238 -0.2359  0.2826
  200MOL0     C27482   3.698   9.039   9.158 -0.0473 -0.1506  0.2968
  200MOL0     C27483   3.581   9.048   9.260 -0.2249 -0.0126 -1.1264
  200MOL0     C27484   3.501   8.914   9.272  0.6493  0.1390 -0.5942
  200MOL0     C27485   3.421   8.883   9.144 -0.0783  0.4461  0.9321
  200MOL0     O27486   3.364   8.751   9.129  0.5434  0.2138 -0.1967
  200MOL0     C27487   3.302   8.720   9.010 -0.6765 -0.4814 -0.7076
  200MOL0     C27488   3.290   8.807   8.901 -0.4873 -1.3705 -0.0551
  200MOL0     C27489   3.210   8.778   8.788 -0.3682 -0.1534 -0.1534
  200MOL0     C27490   3.204   8.877   8.671 -0.0040 -0.5886  1.0439
  200MOL0     C27491   3.146   8.648   8.780 -0.5929 -0.1779  0.4460
  200MOL0     C27492   3.055   8.600   8.671  0.2145 -0.1180 -0.0065
  200MOL0     O27493   2.972   8.490   8.695 -1.0933  0.1264 -0.1593
  200MOL0     C27494   2.876   8.459   8.604 -0.0793 -0.1955  1.1154
  200MOL0     C27495   2.868   8.329   8.549 -0.3651 -0.0430 -0.2147
  200MOL0     C27496   2.748   8.298   8.465 -0.4027 -0.4316 -0.8430
  200MOL0     C27497   2.660   8.393   8.426 -0.4794  0.6436 -0.8761
  200MOL0     O27498   2.573   8.348   8.334  0.2780  0.0658 -0.3062
  200MOL0     C27499   2.476   8.435   8.279 -0.3716  0.3525  0.0118
  200MOL0     C27500   2.426   8.373   8.138  0.6857  0.8237 -1.2026
  200MOL0     C27501   2.290   8.441   8.087 -0.6686 -0.3055 -0.1334
  200MOL0     C27502   2.289   8.592   8.066  0.3704  0.7195  0.5064
  200MOL0     C27503   2.130   8.622   8.035 -1.1432  0.0567 -0.0385
  200MOL0     C27504   2.060   8.535   7.931  0.2723 -0.2122  0.2173
  200MOL0     C27505   1.936   8.613   7.867 -1.0724  0.9471  0.0434
  200MOL0     C27506   1.849   8.501   7.789  0.3239 -0.7194  0.2966
  200MOL0    Cl27507   1.931   8.448   7.633  0.2509 -0.0552  0.6723
  200MOL0     C27508   2.665   8.522   8.488  0.1772  0.3980  0.9087
  200MOL0     C27509   2.771   8.552   8.576  0.0584  0.0962  0.6916
  200MOL0     O27510   3.073   8.654   8.568 -0.0115 -0.3109  0.7213
  200MOL0     C27511   3.166   8.568   8.890 -0.6018 -0.6379 -0.2437
  200MOL0     C27512   3.238   8.601   8.998  1.3868 -0.2416  0.7844
  200MOL0     N27513   3.816   9.253   9.205 -0.3973 -0.2316  0.2943
  200MOL0     N27514   3.920   9.300   9.272 -0.0858  0.3070  0.2569
  200MOL0     C27515   4.697   9.041   8.889 -0.7405 -0.4212 -1.0096
  200MOL0     C27516   4.754   8.934   8.826 -0.4271 -0.3783  0.8884
  200MOL0     C27517   5.055   8.648   8.689 -0.4388  0.3972 -0.4591
  200MOL0     C27518   5.022   8.520   8.738  0.3693 -0.1728 -0.1450
  200MOL0     C27519   5.099   8.408   8.721 -0.5294  0.0917 -0.0527
  200MOL0     C27520   5.220   8.418   8.645 -0.0275 -0.0902 -0.2520
  200MOL0     O27521   5.299   8.316   8.622 -0.2985 -0.2048  0.1222
  200MOL0     C27522   5.405   8.297   8.721  0.4671  0.2849 -0.0806
  200MOL0     C27523   5.529   8.229   8.662  0.1407 -0.1204 -0.7186
  200MOL0     C27524   5.574   8.118   8.756  0.2054 -0.9587 -0.2517
  200MOL0     C27525   5.712   8.070   8.708  0.4051  0.6184  0.2024
  200MOL0     C27526   5.791   7.986   8.805  0.5135 -0.5842 -1.1566
  200MOL0     C27527   5.855   7.918   8.880  1.0180  0.6615  0.3243
  200MOL0     C27528   5.248   8.541   8.588 -0.1617 -0.3208  0.0085
  200MOL0     C27529   5.170   8.656   8.604 -0.6225  0.8023 -0.9415
  200MOL0     C27530   5.206   8.765   8.501 -0.4694 -0.3209 -0.0102
  200MOL0     H27531   4.961   8.840   9.076  0.6915  0.1627 -0.7763
  200MOL0     H27532   4.856   9.043   9.191  4.6224 -0.3049 -1.1645
  200MOL0     H27533   4.780   9.265   9.202  0.7118 -1.6784 -0.6617
  200MOL0     H27534   4.664   9.136   9.257  0.8420 -0.6261 -0.1092
  200MOL0     H27535   4.616   9.431   9.203  4.0790 -3.2995 -2.8420
  200MOL0     H27536   4.483   9.316   9.215  0.2733  1.4023 -1.0028
  200MOL0     H27537   4.684   9.419   9.399 -1.4250  2.1740 -2.9478
  200MOL0     H27538   4.509   9.433   9.423  1.8411  2.0409  0.6556
  200MOL0     H27539   4.677   9.198   9.513 -0.0905  0.0290  2.2925
  200MOL0     H27540   4.570   9.291   9.606 -2.2709  0.6074 -0.9792
  200MOL0     H27541   4.471   9.070   9.538 -1.4474  1.3212  0.8391
  200MOL0     H27542   4.476   9.132   9.366  1.3694  1.9165 -0.6424
  200MOL0     H27543   4.304   9.224   9.604 -4.4046 -1.3710 -0.7670
  200MOL0     H27544   4.316   9.318   9.452 -0.1523 -0.8147 -2.9127
  200MOL0     H27545   4.201   9.043   9.442 -5.4169  0.8773  0.2047
  200MOL0     H27546   4.245   9.153   9.313 -2.0506  3.3742 -1.3184
  200MOL0     H27547   4.041   9.148   9.536 -0.3747 -2.9314 -2.1794
  200MOL0     H27548   4.081   9.309   9.455 -1.3264 -0.5712  0.6956
  200MOL0     H27549   3.941   8.974   9.332  0.3594  1.6227  3.5025
  200MOL0     H27550   3.729   8.936   9.138  1.1821 -0.0933  1.7754
  200MOL0     H27551   3.656   9.096   9.075 -2.4525 -0.1585  1.4501
  200MOL0     H27552   3.608   9.082   9.360 -0.2976  0.9948 -1.4328
  200MOL0     H27553   3.508   9.120   9.222 -0.7303 -0.1773 -0.4901
  200MOL0     H27554   3.565   8.835   9.311  0.4357  1.3449  2.5348
  200MOL0     H27555   3.424   8.923   9.350  0.5118 -1.4425 -0.5333
  200MOL0     H27556   3.352   8.967   9.126  1.3019  1.2448 -0.9959
  200MOL0     H27557   3.495   8.896   9.064 -1.7332 -1.3712 -1.0428
  200MOL0     H27558   3.346   8.900   8.908  1.7626 -2.4052 -2.5181
  200MOL0     H27559   3.103   8.918   8.669  0.2528  0.0629 -0.9597
  200MOL0     H27560   3.235   8.827   8.579 -1.9403 -0.4511  0.2760
  200MOL0     H27561   3.272   8.962   8.685 -0.3809  0.0099 -0.6329
  200MOL0     H27562   2.944   8.256   8.576  2.3415  1.2236 -3.6506
  200MOL0     H27563   2.739   8.199   8.421 -1.1057 -0.0438 -1.6006
  200MOL0     H27564   2.394   8.444   8.350  0.1829  1.6835  0.5050
  200MOL0     H27565   2.529   8.528   8.256 -0.7412  0.1256 -1.9575
  200MOL0     H27566   2.508   8.372   8.065  1.4496  1.3222 -0.3728
  200MOL0     H27567   2.412   8.266   8.157  3.2972  0.3596 -1.5318
  200MOL0     H27568   2.222   8.405   8.164  0.7102  0.3984  1.4830
  200MOL0     H27569   2.247   8.390   8.001 -1.8865  1.9009 -0.9171
  200MOL0     H27570   2.350   8.637   7.986  0.7775 -0.3001  0.2205
  200MOL0     H27571   2.324   8.637   8.159  3.6781 -1.4135  0.4412
  200MOL0     H27572   2.078   8.609   8.130 -3.3162 -4.7043 -1.5595
  200MOL0     H27573   2.129   8.726   8.000  0.2532  0.6389  1.5454
  200MOL0     H27574   2.016   8.454   7.989 -2.1702  0.9912  0.1912
  200MOL0     H27575   2.131   8.506   7.853 -1.6988  2.2201 -2.7584
  200MOL0     H27576   1.976   8.685   7.795  1.3591  1.6457  1.9476
  200MOL0     H27577   1.883   8.665   7.946  0.8345  1.3399  1.1312
  200MOL0     H27578   1.753   8.549   7.769  0.3170 -0.4093  1.0299
  200MOL0     H27579   1.825   8.411   7.845 -2.8728 -1.7399 -2.4035
  200MOL0     H27580   2.577   8.582   8.464 -0.8629 -1.5714 -0.5915
  200MOL0     H27581   2.772   8.645   8.632  0.6880  2.0417 -2.3483
  200MOL0     H27582   3.111   8.476   8.904 -0.6096 -0.6018 -0.0291
  200MOL0     H27583   3.241   8.533   9.083 -2.6640 -0.5050  0.9144
  200MOL0     H27584   4.617   9.087   8.833 -2.3455 -1.6373  0.1663
  200MOL0     H27585   4.730   8.900   8.726 -2.2786  2.3776  0.2838
  200MOL0     H27586   4.923   8.500   8.778 -0.2920 -1.7846 -2.3907
  200MOL0     H27587   5.059   8.319   8.768 -1.3919  0.7572  0.4864
  200MOL0     H27588   5.428   8.392   8.769  0.3118  2.0942 -3.2996
  200MOL0     H27589   5.370   8.229   8.799  0.3506  0.7010  0.2345
  200MOL0     H27590   5.610   8.301   8.650  0.0927 -0.4520 -3.9352
  200MOL0     H27591   5.500   8.189   8.564 -1.7258 -1.9897  0.4833
  200MOL0     H27592   5.567   8.152   8.860 -1.9630 -0.7622 -0.4219
  200MOL0     H27593   5.513   8.028   8.755  0.1577 -0.9467  0.7337
  200MOL0     H27594   5.771   8.161   8.693  0.4825  0.9362  2.1143
  200MOL0     H27595   5.692   8.012   8.618 -3.6050  3.0442 -0.7017
  200MOL0     H27596   5.921   7.861   8.941  4.5940  2.1344 -1.8564
  200MOL0     H27597   5.335   8.543   8.524 -2.0514 -3.2568 -3.0235
  200MOL0     H27598   5.173   8.865   8.530 -3.6064 -0.4118 -2.7898
  200MOL0     H27599   5.315   8.780   8.496 -0.6908  1.1719 -0.9827
  200MOL0     H27600   5.157   8.734   8.409  0.0774 -2.5719  0.3953
  201MOL0     O27601   0.521   4.242   6.524  0.1195 -0.1285  0.2051
  201MOL0     C27602   0.450   4.296   6.610 -0.5141 -0.0920  0.0161
  201MOL0     O27603   0.324   4.249   6.646 -0.2567 -0.3352 -0.3650
  201MOL0     C27604   0.263   4.159   6.563 -0.4460  0.1299  0.1743
  201MOL0     C27605   0.188   4.208   6.454  0.0693 -0.4666  0.5406
  201MOL0     C27606   0.114   4.129   6.377  0.7054 -0.3719 -0.1142
  201MOL0     C27607   0.104   3.987   6.412  0.4541 -0.8798 -0.2495
  201MOL0     O27608   0.025   3.908   6.327  0.3686  0.2958 -0.2301
  201MOL0     C27609   0.035   3.766   6.340 -0.0206  0.2387 -0.0944
  201MOL0     C27610  -0.086   3.701   6.298  0.0107  0.3927 -0.7584
  201MOL0     C27611  -0.079   3.539   6.306  0.6284  0.3503 -0.7460
  201MOL0     C27612  -0.139   3.486   6.183  0.9264 -0.1629 -0.1146
  201MOL0     C27613  -0.143   3.333   6.199  0.0641  0.3323 -0.8112
  201MOL0     C27614  -0.084   3.275   6.061 -0.2742 -0.3920 -0.0697
  201MOL0     C27615  -0.070   3.123   6.070 -0.2414 -0.0409  0.5150
  201MOL0     C27616  -0.201   3.060   6.034  0.3116  0.8231  0.3524
  201MOL0     N27617  -0.238   3.085   5.893 -0.2284  0.3956 -0.3284
  201MOL0     C27618  -0.160   3.035   5.796  0.1151  0.1668  0.2989
  201MOL0     C27619  -0.200   3.092   5.683  0.1952  0.7893 -0.0696
  201MOL0     C27620  -0.126   3.083   5.552  0.0649  0.8342 -0.7612
  201MOL0     C27621  -0.221   3.087   5.427 -0.5268 -0.1199  0.5677
  201MOL0     C27622  -0.316   2.962   5.421  0.1337 -0.4647  0.6530
  201MOL0     C27623  -0.237   2.837   5.378 -0.2774  0.3293  0.5014
  201MOL0     O27624  -0.273   2.724   5.468 -0.6382 -1.0623 -0.5801
  201MOL0     C27625  -0.156   2.663   5.513 -1.1209  0.1550  0.3530
  201MOL0     C27626  -0.064   2.608   5.425  0.3272 -0.0705 -0.1715
  201MOL0     C27627   0.043   2.528   5.468  0.8942  0.0188  0.1101
  201MOL0     C27628   0.146   2.473   5.371  0.3372  0.6921  0.7397
  201MOL0     C27629   0.067   2.510   5.612 -0.1053  0.5120 -0.4393
  201MOL0     C27630   0.178   2.435   5.678  0.6967 -0.0471 -0.4722
  201MOL0     O27631   0.298   2.441   5.627 -0.3020 -0.0896  0.0362
  201MOL0     C27632   0.399   2.348   5.653  0.0395  0.1901 -0.7605
  201MOL0     C27633   0.524   2.395   5.613  0.5056 -0.7440 -0.4795
  201MOL0     C27634   0.622   2.309   5.613  0.2341  0.0365 -0.3996
  201MOL0     C27635   0.611   2.173   5.658 -0.7409 -0.6645 -0.8383
  201MOL0     O27636   0.713   2.088   5.674 -0.1465 -0.2796 -0.2510
  201MOL0     C27637   0.854   2.121   5.629  0.8622 -0.6179 -0.2076
  201MOL0     C27638   0.934   2.000   5.655 -0.1998  0.5450  0.3221
  201MOL0     C27639   0.866   1.876   5.589 -0.3022 -0.2173  0.5843
  201MOL0     C27640   0.873   1.892   5.431  0.6134  0.1895 -0.2675
  201MOL0     C27641   0.822   1.759   5.370 -0.5136  0.5780  0.0716
  201MOL0     C27642   0.762   1.759   5.229 -0.4664 -0.4197 -0.1998
  201MOL0     C27643   0.876   1.763   5.117 -0.4213 -0.5348 -0.0982
  201MOL0     C27644   0.837   1.830   4.991  0.6001 -0.5905 -0.6695
  201MOL0    Cl27645   0.837   2.002   5.023  0.2638 -0.6255 -0.2450
  201MOL0     C27646   0.490   2.138   5.713 -0.6898 -0.6555  0.0332
  201MOL0     C27647   0.380   2.220   5.701 -0.4437 -0.7688  0.0024
  201MOL0     O27648   0.151   2.382   5.787  0.6494 -0.7883 -0.1417
  201MOL0     C27649  -0.033   2.567   5.704  0.0766  0.6450 -0.2224
  201MOL0     C27650  -0.136   2.644   5.651  0.3038 -0.1599 -0.5372
  201MOL0     N27651  -0.298   3.183   5.718  0.0283  0.8499  0.7025
  201MOL0     N27652  -0.326   3.177   5.842 -0.1903 -0.1717 -0.4623
  201MOL0     C27653   0.174   3.941   6.524  0.2690 -0.5420 -0.3634
  201MOL0     C27654   0.265   4.021   6.586 -0.1371 -0.0719  0.1825
  201MOL0     C27655   0.507   4.424   6.664 -0.2193 -0.4965 -0.1188
  201MOL0     C27656   0.409   4.522   6.703  0.6500  0.3576 -0.7540
  201MOL0     C27657   0.444   4.652   6.749 -0.6097  0.1696 -0.2788
  201MOL0     C27658   0.579   4.680   6.776  0.0569  0.2380 -0.0264
  201MOL0     O27659   0.627   4.799   6.807 -0.1918 -0.4542 -0.4474
  201MOL0     C27660   0.536   4.921   6.816  0.5188 -0.3869  0.7748
  201MOL0     C27661   0.489   4.954   6.671 -0.5182  0.0793  0.3113
  201MOL0     C27662   0.605   4.986   6.573  0.1116  0.0828 -0.4087
  201MOL0     C27663   0.593   4.955   6.428  0.5502 -0.0657 -0.7366
  201MOL0     C27664   0.546   4.818   6.404 -0.3480 -0.5610 -0.3184
  201MOL0     C27665   0.484   4.721   6.378 -1.0415  0.3515  0.5872
  201MOL0     C27666   0.670   4.576   6.762 -0.4643  0.0858 -0.4433
  201MOL0     C27667   0.646   4.449   6.711  0.7466  1.2542 -0.3777
  201MOL0     C27668   0.759   4.353   6.704  0.6906  0.2797  0.2294
  201MOL0     H27669   0.194   4.307   6.410  0.6808 -1.9898 -3.1763
  201MOL0     H27670   0.068   4.182   6.294 -1.7083  1.7097  2.3506
  201MOL0     H27671   0.046   3.732   6.443  0.3952 -0.0070 -0.2189
  201MOL0     H27672   0.122   3.719   6.293  1.7327 -1.8577  4.6892
  201MOL0     H27673  -0.161   3.733   6.371 -0.0834  1.3110 -1.2523
  201MOL0     H27674  -0.116   3.740   6.201  1.1468  1.4976 -0.6866
  201MOL0     H27675   0.023   3.502   6.294  0.0591 -1.1669 -1.1478
  201MOL0     H27676  -0.132   3.498   6.392  2.2971 -1.5847 -0.5813
  201MOL0     H27677  -0.243   3.520   6.174 -0.2366 -3.0061  1.3155
  201MOL0     H27678  -0.071   3.527   6.108  0.4741  2.0401  0.5886
  201MOL0     H27679  -0.248   3.306   6.218  0.6811 -1.0288  1.0307
  201MOL0     H27680  -0.089   3.298   6.288 -1.8733  0.2712  0.4080
  201MOL0     H27681  -0.137   3.323   5.979 -2.0531  0.2933  1.4104
  201MOL0     H27682   0.013   3.312   6.024 -0.4603 -0.4342 -0.6054
  201MOL0     H27683  -0.039   3.090   6.169  1.7123 -0.7482 -0.2795
  201MOL0     H27684   0.014   3.111   6.001 -2.1541 -0.3682 -1.9040
  201MOL0     H27685  -0.186   2.951   6.041 -1.7129  0.4901  0.1637
  201MOL0     H27686  -0.289   3.088   6.091 -0.7365 -0.0564 -0.7762
  201MOL0     H27687  -0.068   2.978   5.800 -0.4786 -0.8674 -0.4405
  201MOL0     H27688  -0.072   2.989   5.538  0.7938  1.3599 -1.5882
  201MOL0     H27689  -0.048   3.160   5.553  2.1916 -1.1490 -2.0337
  201MOL0     H27690  -0.285   3.176   5.430 -1.6403 -0.7656 -1.9365
  201MOL0     H27691  -0.162   3.104   5.336 -2.3891 -0.1884 -0.7120
  201MOL0     H27692  -0.361   2.963   5.521 -2.0938  1.1440 -0.2719
  201MOL0     H27693  -0.397   2.968   5.348  1.1986 -3.5104 -0.9836
  201MOL0     H27694  -0.267   2.798   5.280  1.4571 -0.8033  0.3739
  201MOL0     H27695  -0.132   2.866   5.380 -1.1838  4.0377  2.0111
  201MOL0     H27696  -0.077   2.629   5.319 -1.9959  1.6433  0.3657
  201MOL0     H27697   0.098   2.473   5.272  2.1277  2.4717 -0.2081
  201MOL0     H27698   0.178   2.372   5.398 -0.5088  0.4666  0.9348
  201MOL0     H27699   0.239   2.530   5.362  2.3895 -2.3553  0.8909
  201MOL0     H27700   0.545   2.488   5.562  0.1795  0.7855  1.9726
  201MOL0     H27701   0.713   2.342   5.563  0.6150 -0.3280  0.0363
  201MOL0     H27702   0.846   2.150   5.524 -2.6982  1.5676  0.4888
  201MOL0     H27703   0.894   2.194   5.700  0.7522 -2.3185  1.6913
  201MOL0     H27704   1.039   2.007   5.625  0.6974 -2.5424  2.2940
  201MOL0     H27705   0.936   1.994   5.764 -0.1787  1.7511  0.4002
  201MOL0     H27706   0.769   1.855   5.634  0.6235  1.0795  3.3785
  201MOL0     H27707   0.924   1.789   5.618  4.0614  2.5146  0.8861
  201MOL0     H27708   0.973   1.913   5.391  0.3981  2.4605  0.2854
  201MOL0     H27709   0.800   1.969   5.403 -2.4252 -2.5444 -0.4805
  201MOL0     H27710   0.889   1.674   5.385 -0.8229  0.2250 -0.5026
  201MOL0     H27711   0.738   1.723   5.430 -2.1604 -0.2542 -2.5392
  201MOL0     H27712   0.699   1.848   5.223 -4.1924 -2.9611 -2.1213
  201MOL0     H27713   0.693   1.675   5.220 -1.3397  0.3838 -1.3136
  201MOL0     H27714   0.913   1.662   5.097 -0.1087 -0.8890  2.0887
  201MOL0     H27715   0.952   1.828   5.162  1.7928 -2.6854 -0.5513
  201MOL0     H27716   0.730   1.817   4.972  0.6554 -1.3584 -0.4785
  201MOL0     H27717   0.894   1.797   4.903  1.4498  1.4766 -0.9608
  201MOL0     H27718   0.470   2.044   5.764  2.4542 -0.8949  1.0200
  201MOL0     H27719   0.282   2.183   5.729 -1.9411 -0.1159 -3.7831
  201MOL0     H27720  -0.023   2.547   5.810 -1.5629  0.9251  0.0198
  201MOL0     H27721  -0.198   2.705   5.716  2.0342  0.5758  0.4954
  201MOL0     H27722   0.149   3.842   6.563  0.4998 -1.3183 -2.1075
  201MOL0     H27723   0.319   3.975   6.669  1.0504 -0.8609 -0.9830
  201MOL0     H27724   0.303   4.503   6.696  0.7171 -0.2314 -0.2744
  201MOL0     H27725   0.369   4.729   6.762  0.6555  1.1294  1.9825
  201MOL0     H27726   0.455   4.913   6.890 -2.5352  1.0748 -2.1617
  201MOL0     H27727   0.590   5.006   6.860 -1.9706  0.2578  2.8297
  201MOL0     H27728   0.421   5.039   6.661 -0.5092 -0.2059 -3.7518
  201MOL0     H27729   0.426   4.874   6.631 -0.7993 -0.1253  1.1482
  201MOL0     H27730   0.626   5.093   6.579  0.3175 -0.0275  1.4325
  201MOL0     H27731   0.693   4.926   6.597 -1.0647 -1.9113 -0.8546
  201MOL0     H27732   0.685   4.972   6.371 -0.2033 -0.0336 -1.9810
  201MOL0     H27733   0.525   5.035   6.396  3.2825  2.9628  0.4616
  201MOL0     H27734   0.425   4.634   6.360 -0.9407 -0.2410  2.7845
  201MOL0     H27735   0.771   4.589   6.799 -0.3791  0.3254 -0.7525
  201MOL0     H27736   0.834   4.380   6.629  0.8521  1.7874  0.8888
  201MOL0     H27737   0.808   4.339   6.801 -1.0122 -1.2037  0.9154
  201MOL0     H27738   0.715   4.254   6.694  0.8695 -0.2638  3.5852
  202MOL0     O27739   7.887   7.420   6.637 -0.2909  0.0618  0.3165
  202MOL0     C27740   7.878   7.540   6.599  0.0593  0.4325 -0.3023
  202MOL0     O27741   7.984   7.616   6.562 -0.1511 -0.2309 -0.4383
  202MOL0     C27742   8.116   7.574   6.556  0.2469  0.6310 -0.2315
  202MOL0     C27743   8.217   7.674   6.534  0.2472  0.7071  0.6735
  202MOL0     C27744   8.350   7.642   6.540 -0.2573  0.5395  1.2732
  202MOL0     C27745   8.392   7.505   6.569 -0.2290 -0.0008  1.2383
  202MOL0     O27746   8.517   7.461   6.583 -0.0643 -0.1730  0.1615
  202MOL0     C27747   8.622   7.565   6.606  0.0953  0.1325 -0.3409
  202MOL0     C27748   8.762   7.496   6.634  1.2904 -0.6900 -0.2167
  202MOL0     C27749   8.756   7.405   6.753 -0.2970  0.2456 -1.2443
  202MOL0     C27750   8.724   7.474   6.883  0.3347  0.4260 -0.3604
  202MOL0     C27751   8.690   7.369   6.998 -0.0636  0.1604 -0.0225
  202MOL0     C27752   8.663   7.434   7.141 -0.3196  0.0008 -0.6599
  202MOL0     C27753   8.602   7.347   7.256 -1.0452 -0.0446 -0.3604
  202MOL0     C27754   8.608   7.410   7.404  0.7570 -0.7436 -0.5110
  202MOL0     N27755   8.551   7.544   7.423 -0.1479  0.5853 -0.1310
  202MOL0     C27756   8.420   7.577   7.415 -0.3120  0.6283  0.3312
  202MOL0     C27757   8.414   7.704   7.396 -0.3820  0.3875  0.0582
  202MOL0     C27758   8.282   7.778   7.401 -0.0679 -0.5232 -0.1366
  202MOL0     C27759   8.287   7.879   7.515 -0.3713 -0.4932  0.1419
  202MOL0     C27760   8.339   7.822   7.656 -0.2707 -0.7214  0.8697
  202MOL0     C27761   8.328   7.918   7.771 -0.6360 -0.3408 -0.8377
  202MOL0     O27762   8.201   7.975   7.789 -0.6103  0.2652 -0.0052
  202MOL0     C27763   8.108   7.887   7.827 -0.4411  0.1429  0.0858
  202MOL0     C27764   7.976   7.897   7.768  0.5212 -0.2109  0.1304
  202MOL0     C27765   7.870   7.809   7.808 -0.3156 -0.5341 -0.2640
  202MOL0     C27766   7.736   7.832   7.750 -0.2172 -0.0555 -0.2780
  202MOL0     C27767   7.893   7.706   7.910 -0.1684 -0.1742  0.2679
  202MOL0     C27768   7.797   7.608   7.957 -0.2064  0.3897 -0.2919
  202MOL0     O27769   7.840   7.484   7.976 -0.6327 -0.1879 -0.3113
  202MOL0     C27770   7.762   7.383   8.018 -0.6261  0.0385  0.6195
  202MOL0     C27771   7.674   7.316   7.930 -0.2049  0.8551  0.5761
  202MOL0     C27772   7.591   7.213   7.968  0.5149  0.1673  0.8714
  202MOL0     C27773   7.615   7.152   8.091  0.0339 -0.8517  0.7889
  202MOL0     O27774   7.537   7.057   8.156  0.5942 -0.7314 -0.1500
  202MOL0     C27775   7.392   7.072   8.149 -0.9211 -0.7486  0.1180
  202MOL0     C27776   7.355   7.145   8.277  1.1303 -0.1686 -0.5711
  202MOL0     C27777   7.373   7.045   8.389  0.1947 -0.3456 -1.3000
  202MOL0     C27778   7.335   7.104   8.524 -0.6107  0.1598 -0.8588
  202MOL0     C27779   7.354   7.015   8.637  0.3773  0.5283 -0.1371
  202MOL0     C27780   7.294   7.092   8.763 -1.0649 -0.8168  1.4982
  202MOL0     C27781   7.340   7.011   8.885 -0.2471 -0.5177 -0.3496
  202MOL0     C27782   7.277   6.869   8.896 -0.2963  0.2287  0.4102
  202MOL0    Cl27783   7.266   6.814   9.071 -0.5017  0.2742  0.4238
  202MOL0     C27784   7.704   7.210   8.174  0.0706  0.3610 -0.4481
  202MOL0     C27785   7.785   7.319   8.141  0.3127 -0.7745  1.0923
  202MOL0     O27786   7.692   7.644   8.008  0.1671  0.0406  0.0257
  202MOL0     C27787   8.020   7.699   7.959 -0.1583  0.4718 -0.1192
  202MOL0     C27788   8.126   7.787   7.923  0.8287  0.5620 -0.7274
  202MOL0     N27789   8.541   7.753   7.376 -0.2248 -0.2416 -0.1258
  202MOL0     N27790   8.618   7.662   7.402 -0.2894  0.1797  0.8083
  202MOL0     C27791   8.293   7.406   6.574 -0.4187  0.4593  0.4198
  202MOL0     C27792   8.158   7.439   6.558 -0.5169  0.1011  0.1579
  202MOL0     C27793   7.738   7.599   6.565  0.1286  2.1939  0.7992
  202MOL0     C27794   7.741   7.711   6.488 -1.1873  0.6354  0.2154
  202MOL0     C27795   7.631   7.761   6.417 -0.9308 -0.5096  0.6865
  202MOL0     C27796   7.501   7.709   6.433 -0.0140  0.6681  0.0514
  202MOL0     O27797   7.390   7.756   6.354  0.1916  0.6480 -0.9512
  202MOL0     C27798   7.255   7.706   6.396  0.3186  0.9507  0.0229
  202MOL0     C27799   7.163   7.749   6.287  0.1008 -0.8500 -0.2899
  202MOL0     C27800   7.121   7.893   6.302  0.0861 -0.0452  0.6969
  202MOL0     C27801   7.023   7.954   6.212 -0.6507  0.2551 -0.6137
  202MOL0     C27802   7.083   7.951   6.073  0.1467  0.0512 -0.8127
  202MOL0     C27803   7.147   7.941   5.969 -0.8858 -0.2173 -0.1216
  202MOL0     C27804   7.500   7.605   6.529  0.5034  0.4281  0.8620
  202MOL0     C27805   7.614   7.541   6.591 -0.1034  0.3698 -0.0932
  202MOL0     C27806   7.592   7.417   6.678  0.3027 -0.2120 -0.0336
  202MOL0     H27807   8.181   7.776   6.529 -1.5233  0.1001  0.3220
  202MOL0     H27808   8.426   7.719   6.534  1.9091 -1.5250  0.2943
  202MOL0     H27809   8.594   7.641   6.679  1.4746  2.6714 -2.2770
  202MOL0     H27810   8.633   7.627   6.517 -2.0493 -0.4271 -1.0489
  202MOL0     H27811   8.784   7.433   6.548 -0.7211 -1.8769  0.0663
  202MOL0     H27812   8.841   7.570   6.647  1.5920 -1.3522  2.2318
  202MOL0     H27813   8.685   7.325   6.734 -2.0704  2.1470 -3.0603
  202MOL0     H27814   8.860   7.375   6.768  0.4528  3.8887  3.3642
  202MOL0     H27815   8.807   7.532   6.925 -0.2396  2.1468 -1.5424
  202MOL0     H27816   8.642   7.546   6.876  1.2868  1.6218  0.3902
  202MOL0     H27817   8.765   7.289   7.004 -2.0983 -1.7124  2.9910
  202MOL0     H27818   8.594   7.331   6.962  1.0233 -1.6299 -1.1991
  202MOL0     H27819   8.760   7.465   7.181  0.0220 -2.8143  1.0079
  202MOL0     H27820   8.603   7.525   7.138  0.7387  0.7191 -0.5382
  202MOL0     H27821   8.647   7.249   7.240  0.5717  1.1058 -3.8211
  202MOL0     H27822   8.493   7.339   7.249 -1.1328 -0.0705  0.8412
  202MOL0     H27823   8.566   7.338   7.474 -2.1702  2.7024  1.6112
  202MOL0     H27824   8.715   7.420   7.423 -0.0450  2.7189  3.5990
  202MOL0     H27825   8.344   7.501   7.428  0.6556 -0.4647 -0.2710
  202MOL0     H27826   8.197   7.712   7.422 -0.8683  1.2613  2.8550
  202MOL0     H27827   8.254   7.825   7.306  0.2615 -0.3491 -0.1465
  202MOL0     H27828   8.344   7.968   7.486 -2.2780  1.1058  1.0613
  202MOL0     H27829   8.186   7.921   7.528 -0.4852 -1.0846  1.3475
  202MOL0     H27830   8.270   7.740   7.677 -2.3126  0.8057  0.4630
  202MOL0     H27831   8.438   7.778   7.643 -0.8255 -1.1513 -3.8006
  202MOL0     H27832   8.359   7.873   7.866 -0.5917  0.7892 -0.3105
  202MOL0     H27833   8.407   7.994   7.770 -0.4538 -0.4950  0.2983
  202MOL0     H27834   7.963   7.991   7.716  1.9189  0.5857  1.1621
  202MOL0     H27835   7.704   7.934   7.776  3.6512  1.0225  0.9357
  202MOL0     H27836   7.669   7.750   7.778 -0.3198 -1.0100 -3.0050
  202MOL0     H27837   7.753   7.824   7.642  0.4386  4.9100 -0.7796
  202MOL0     H27838   7.659   7.358   7.831  2.6981 -1.8121 -1.1687
  202MOL0     H27839   7.507   7.188   7.904 -1.5186  1.0989  3.0645
  202MOL0     H27840   7.359   7.123   8.058  2.8342  0.7090 -0.6450
  202MOL0     H27841   7.357   6.969   8.151 -0.3453 -0.9972 -1.1314
  202MOL0     H27842   7.412   7.239   8.279  0.9827 -0.0646 -1.0841
  202MOL0     H27843   7.250   7.176   8.274  1.2420  0.1947 -2.2255
  202MOL0     H27844   7.479   7.021   8.399  0.6122  1.3555 -1.3767
  202MOL0     H27845   7.312   6.955   8.377 -2.3196  0.7200  2.0268
  202MOL0     H27846   7.235   7.149   8.526  0.8134  3.6439 -0.5480
  202MOL0     H27847   7.401   7.189   8.544  0.6122 -0.9240 -0.1919
  202MOL0     H27848   7.304   6.918   8.626  0.9579  0.1717  0.3451
  202MOL0     H27849   7.458   6.992   8.663 -0.6298 -1.1097  2.8593
  202MOL0     H27850   7.186   7.092   8.749 -0.8581 -3.1080 -0.9967
  202MOL0     H27851   7.337   7.193   8.768 -0.3901 -0.9789 -0.2932
  202MOL0     H27852   7.310   7.065   8.976 -1.4436 -2.0753  0.2335
  202MOL0     H27853   7.449   7.010   8.889 -0.2651 -0.2968  0.3329
  202MOL0     H27854   7.344   6.804   8.839 -1.4876 -0.0432 -0.7354
  202MOL0     H27855   7.177   6.865   8.852  0.7732 -3.2355 -2.0576
  202MOL0     H27856   7.708   7.172   8.276 -0.8670 -0.0251 -0.5487
  202MOL0     H27857   7.866   7.372   8.190  0.4632  0.7639 -0.6996
  202MOL0     H27858   8.048   7.624   8.032  1.7907  0.8341 -0.4271
  202MOL0     H27859   8.220   7.763   7.972  1.3819  1.7630 -1.1521
  202MOL0     H27860   8.313   7.306   6.609 -2.9989  0.8220  3.4097
  202MOL0     H27861   8.091   7.354   6.562 -0.4963 -0.0684 -1.8345
  202MOL0     H27862   7.840   7.752   6.470  0.3726 -1.8168  2.5176
  202MOL0     H27863   7.661   7.821   6.332  1.5449  0.6839  2.2897
  202MOL0     H27864   7.254   7.597   6.395  1.5102  0.9284 -0.8708
  202MOL0     H27865   7.216   7.737   6.494 -0.6937 -0.4047  0.0843
  202MOL0     H27866   7.076   7.683   6.280  0.3775 -1.5769  2.2550
  202MOL0     H27867   7.212   7.745   6.189  0.5361 -0.5643 -0.0826
  202MOL0     H27868   7.078   7.905   6.402 -2.4059 -1.1232 -0.1855
  202MOL0     H27869   7.213   7.951   6.289 -1.1578  2.2337  1.5437
  202MOL0     H27870   6.997   8.059   6.230 -2.8184 -0.5857  2.0152
  202MOL0     H27871   6.935   7.891   6.230  0.3596 -1.1336 -0.3260
  202MOL0     H27872   7.200   7.930   5.877  0.1526 -0.1123  0.4547
  202MOL0     H27873   7.401   7.562   6.541  0.6483 -0.0161  0.4834
  202MOL0     H27874   7.484   7.401   6.690 -0.0880  1.2263 -1.2824
  202MOL0     H27875   7.640   7.333   6.626 -1.8211  0.7731 -4.0402
  202MOL0     H27876   7.636   7.433   6.776 -0.5724  1.0604  0.1767
  203MOL0     O27877  11.084   4.205   5.547 -0.1054 -0.3898 -0.3326
  203MOL0     C27878  11.155   4.280   5.615  0.7477  0.4451 -0.4857
  203MOL0     O27879  11.158   4.412   5.606 -0.3147 -0.2166 -0.2727
  203MOL0     C27880  11.105   4.469   5.494 -0.4383 -0.1291  0.6308
  203MOL0     C27881  11.123   4.437   5.359 -0.6577  0.3919  0.8962
  203MOL0     C27882  11.044   4.494   5.260  0.6926  0.3610 -0.0338
  203MOL0     C27883  10.946   4.588   5.292 -0.0898  0.2293  0.6926
  203MOL0     O27884  10.878   4.653   5.190 -0.0004  0.1311  0.2216
  203MOL0     C27885  10.813   4.569   5.097  0.4817 -0.2163  0.4097
  203MOL0     C27886  10.703   4.638   5.010 -0.4111  0.1733 -0.5707
  203MOL0     C27887  10.554   4.620   5.057  0.5425 -1.0254 -0.2869
  203MOL0     C27888  10.525   4.651   5.203  0.4215  0.8248  0.2155
  203MOL0     C27889  10.374   4.614   5.229 -0.5403  0.4037 -0.3898
  203MOL0     C27890  10.343   4.591   5.372  0.2424  0.5571  0.5571
  203MOL0     C27891  10.191   4.549   5.391 -0.0822 -0.2996  0.0262
  203MOL0     C27892  10.105   4.673   5.364  0.1778 -0.2698  0.2996
  203MOL0     N27893   9.973   4.647   5.407 -0.5160 -1.1725  0.2855
  203MOL0     C27894   9.891   4.742   5.464  0.0405  0.6479 -0.1123
  203MOL0     C27895   9.764   4.691   5.462  0.5131 -1.1030 -0.3953
  203MOL0     C27896   9.646   4.772   5.498 -0.3469  0.4233  0.1070
  203MOL0     C27897   9.544   4.683   5.568 -1.2183  0.8076  0.1745
  203MOL0     C27898   9.428   4.762   5.628  0.3162  0.3703  0.2657
  203MOL0     C27899   9.487   4.860   5.724  0.0781  0.6441 -0.8140
  203MOL0     O27900   9.540   4.784   5.834 -0.1812  0.1043  0.5709
  203MOL0     C27901   9.675   4.804   5.863 -1.0501 -0.1334 -0.3088
  203MOL0     C27902   9.739   4.919   5.878 -0.7034 -0.2226  0.5626
  203MOL0     C27903   9.885   4.922   5.886  0.0141  0.3774 -0.5940
  203MOL0     C27904   9.948   5.051   5.923 -0.6578  0.5433 -0.1406
  203MOL0     C27905   9.972   4.813   5.860 -0.4559  0.4946  0.5602
  203MOL0     C27906  10.120   4.810   5.844 -0.5858 -0.0784 -0.3505
  203MOL0     O27907  10.181   4.682   5.831  0.3567 -0.0155  0.5145
  203MOL0     C27908  10.313   4.695   5.833 -0.0317  0.9993  1.0041
  203MOL0     C27909  10.381   4.687   5.957 -0.8903 -0.1632 -0.0642
  203MOL0     C27910  10.523   4.692   5.944  0.0242 -0.0825 -0.6206
  203MOL0     C27911  10.593   4.691   5.816  0.3982  1.0743 -0.2995
  203MOL0     O27912  10.726   4.669   5.821 -0.1924 -0.2787 -0.5133
  203MOL0     C27913  10.798   4.648   5.938  0.0321 -0.1036 -0.1603
  203MOL0     C27914  10.947   4.649   5.892 -1.1037 -0.1002 -0.9837
  203MOL0     C27915  11.063   4.657   5.989  0.7968 -0.7883 -1.0548
  203MOL0     C27916  11.049   4.764   6.099 -0.7090 -0.4046  0.1034
  203MOL0     C27917  11.140   4.745   6.225 -0.3644 -0.9238 -0.2904
  203MOL0     C27918  11.290   4.718   6.187  0.4715 -0.9273 -0.2660
  203MOL0     C27919  11.349   4.830   6.101 -0.2162 -0.4742  0.6435
  203MOL0     C27920  11.500   4.796   6.067 -0.3667  0.0219 -0.5594
  203MOL0    Cl27921  11.530   4.622   6.018 -0.5102 -0.0420 -0.2429
  203MOL0     C27922  10.521   4.707   5.699 -0.2707 -0.1084  0.3917
  203MOL0     C27923  10.377   4.705   5.709 -0.5930  0.0206 -0.7177
  203MOL0     O27924  10.183   4.915   5.847  0.3309  0.5048 -0.1914
  203MOL0     C27925   9.898   4.696   5.844 -1.2721  0.1522 -0.1075
  203MOL0     C27926   9.755   4.691   5.848  0.4599 -0.1699  1.0978
  203MOL0     N27927   9.763   4.569   5.397 -0.8484  0.1465 -0.2678
  203MOL0     N27928   9.889   4.554   5.357  0.4139 -0.0325  0.2341
  203MOL0     C27929  10.937   4.638   5.426 -1.1039  1.9460 -0.2219
  203MOL0     C27930  11.017   4.582   5.518 -0.7447 -0.7438 -0.1383
  203MOL0     C27931  11.274   4.234   5.689  1.1794 -1.0666 -0.0968
  203MOL0     C27932  11.327   4.115   5.641  1.7578  0.0022 -0.3278
  203MOL0     C27933  11.439   4.059   5.704 -1.0317 -0.0856 -0.1495
  203MOL0     C27934  11.519   4.118   5.793 -1.2056 -0.5850 -0.1940
  203MOL0     O27935  11.651   4.077   5.820 -0.3662 -0.2261 -0.2787
  203MOL0     C27936  11.693   4.099   5.952 -0.1215  0.3489  0.2055
  203MOL0     C27937  11.809   3.996   5.985 -0.4651 -0.7144  1.2357
  203MOL0     C27938  11.847   3.991   6.137  0.8773 -0.5496 -0.4437
  203MOL0     C27939  11.926   3.871   6.170  0.6609 -0.2395  1.3200
  203MOL0     C27940  12.007   3.902   6.280  0.3868  0.2970  0.3585
  203MOL0     C27941  12.076   3.936   6.373  0.5967 -0.0140 -0.7120
  203MOL0     C27942  11.465   4.240   5.849  0.8400  0.4493  0.2966
  203MOL0     C27943  11.344   4.295   5.793 -0.1397 -0.7132  0.6335
  203MOL0     C27944  11.296   4.417   5.860  0.4941 -0.1547 -0.1075
  203MOL0     H27945  11.191   4.356   5.331  1.7148  1.8878  1.9977
  203MOL0     H27946  11.068   4.469   5.157  1.1091 -2.2350  0.6331
  203MOL0     H27947  10.769   4.489   5.158 -0.3020  0.4057  0.6719
  203MOL0     H27948  10.877   4.525   5.019  1.2368  2.1820 -0.3901
  203MOL0     H27949  10.728   4.738   4.973  1.2087  0.1384  0.3722
  203MOL0     H27950  10.697   4.586   4.914 -1.2217 -0.5747 -0.1346
  203MOL0     H27951  10.509   4.696   4.992  0.5427  0.3756  1.2921
  203MOL0     H27952  10.520   4.519   5.030 -1.1180 -0.1013 -1.8434
  203MOL0     H27953  10.597   4.590   5.258  1.2589  0.5773 -1.0842
  203MOL0     H27954  10.537   4.755   5.234 -1.5024  1.5665 -1.3161
  203MOL0     H27955  10.350   4.522   5.176  1.7057  0.9669 -2.5232
  203MOL0     H27956  10.308   4.689   5.184  0.0613  0.1921 -1.6661
  203MOL0     H27957  10.406   4.507   5.401 -2.1012 -2.2212 -1.7440
  203MOL0     H27958  10.366   4.677   5.436 -1.5857  0.2089  1.7965
  203MOL0     H27959  10.176   4.523   5.496  0.8019 -1.5647 -0.1386
  203MOL0     H27960  10.162   4.463   5.329  1.9604 -1.3979  0.5069
  203MOL0     H27961  10.148   4.766   5.401  0.9937  0.2599 -1.8541
  203MOL0     H27962  10.091   4.688   5.256 -1.3182  1.2164  0.6695
  203MOL0     H27963   9.929   4.842   5.486  0.5374 -0.0949  2.9059
  203MOL0     H27964   9.593   4.818   5.414  0.6116  0.7184 -0.3504
  203MOL0     H27965   9.688   4.843   5.570 -1.0112 -0.4098  1.3370
  203MOL0     H27966   9.515   4.608   5.494 -0.5633  2.3366 -1.7326
  203MOL0     H27967   9.588   4.627   5.651 -0.0438  2.5988  0.8237
  203MOL0     H27968   9.376   4.811   5.545 -2.5249  1.7635  2.6931
  203MOL0     H27969   9.361   4.692   5.679 -1.4648  0.8042 -1.3234
  203MOL0     H27970   9.557   4.931   5.679  4.4111 -1.4015  1.9754
  203MOL0     H27971   9.405   4.920   5.765  0.6415  1.7184 -1.2198
  203MOL0     H27972   9.687   5.014   5.880 -1.0369 -0.4107  1.6436
  203MOL0     H27973   9.975   5.059   6.029  1.2771  0.3608 -0.5702
  203MOL0     H27974   9.875   5.130   5.905  0.2101  1.4270  0.1078
  203MOL0     H27975  10.042   5.085   5.879 -0.7123  0.7773 -0.0751
  203MOL0     H27976  10.328   4.686   6.052  1.6214 -0.1117  1.4306
  203MOL0     H27977  10.583   4.682   6.035  0.8631  2.0760 -0.8835
  203MOL0     H27978  10.785   4.724   6.015  0.5950  1.5042 -1.5889
  203MOL0     H27979  10.770   4.548   5.971  0.4843  0.3196  1.6295
  203MOL0     H27980  10.958   4.562   5.826  1.0905  0.6918 -1.7318
  203MOL0     H27981  10.961   4.734   5.825  1.6714  0.2096 -0.1212
  203MOL0     H27982  11.147   4.683   5.924  1.5879  2.0020  0.8765
  203MOL0     H27983  11.094   4.564   6.036  1.1388  0.4432  1.3117
  203MOL0     H27984  10.951   4.783   6.142 -1.3443  1.7773 -2.1095
  203MOL0     H27985  11.075   4.852   6.041 -2.3962 -1.2925 -2.1328
  203MOL0     H27986  11.144   4.832   6.290  5.2312  0.4595 -1.9538
  203MOL0     H27987  11.096   4.665   6.285  1.5268 -0.7544  1.4234
  203MOL0     H27988  11.291   4.624   6.131 -1.2126  1.3273 -4.4368
  203MOL0     H27989  11.346   4.713   6.281  0.0911 -3.1890 -0.1107
  203MOL0     H27990  11.346   4.932   6.139  2.1339  0.7531 -2.1457
  203MOL0     H27991  11.283   4.829   6.014  0.0991 -2.0374  0.3755
  203MOL0     H27992  11.553   4.803   6.162 -0.3262  0.4578 -0.6142
  203MOL0     H27993  11.547   4.871   6.003  0.5738  0.2440  0.3684
  203MOL0     H27994  10.579   4.707   5.607  1.2871 -0.8892  1.3262
  203MOL0     H27995  10.310   4.725   5.626 -0.1355 -2.0456 -1.6492
  203MOL0     H27996   9.941   4.599   5.822 -0.7598 -0.3629  2.7955
  203MOL0     H27997   9.703   4.596   5.839 -2.1524  1.2626  0.2126
  203MOL0     H27998  10.882   4.728   5.455 -0.9813  2.2371 -0.8656
  203MOL0     H27999  11.004   4.606   5.623  0.6004 -0.0552 -0.1032
  203MOL0     H28000  11.276   4.060   5.563  1.8702  0.7783 -0.9522
  203MOL0     H28001  11.469   3.959   5.672 -0.3423 -0.0629  0.3914
  203MOL0     H28002  11.736   4.199   5.959  0.1705  0.2531 -0.1770
  203MOL0     H28003  11.613   4.084   6.026 -0.5552  1.6635  0.0255
  203MOL0     H28004  11.898   4.023   5.927 -1.4849  1.3535  0.5441
  203MOL0     H28005  11.777   3.894   5.958  2.2521 -0.8923 -2.0916
  203MOL0     H28006  11.902   4.082   6.159  0.0602  0.4579 -2.3260
  203MOL0     H28007  11.747   4.003   6.180  0.3430 -1.4262 -1.3952
  203MOL0     H28008  11.986   3.833   6.087  0.8422  0.5154  1.0903
  203MOL0     H28009  11.850   3.798   6.198  0.9997 -0.9287  0.5014
  203MOL0     H28010  12.117   3.984   6.460  0.5166 -0.6983 -0.2855
  203MOL0     H28011  11.506   4.298   5.931  3.8557  0.3641 -1.0073
  203MOL0     H28012  11.189   4.426   5.882  1.1049  3.4319  2.4316
  203MOL0     H28013  11.351   4.421   5.955  0.5511 -1.1799 -0.0945
  203MOL0     H28014  11.318   4.512   5.811 -1.1603  1.7689  2.5689
  204MOL0     O28015   9.755   0.389  10.799 -0.3744  0.7976 -0.3171
  204MOL0     C28016   9.817   0.358  10.896  0.5412 -0.1903  0.1817
  204MOL0     O28017   9.791   0.414  11.025  0.4479  0.3917  0.8466
  204MOL0     C28018   9.673   0.488  11.037 -0.3874  0.7012  0.0229
  204MOL0     C28019   9.578   0.466  11.147 -0.4180  0.2202 -0.4197
  204MOL0     C28020   9.479   0.551  11.176  0.5755 -0.3429  1.0530
  204MOL0     C28021   9.457   0.656  11.078  1.2254  0.6926  0.3006
  204MOL0     O28022   9.336   0.713  11.073  0.0845 -0.4725 -0.8750
  204MOL0     C28023   9.320   0.844  11.007  0.8524 -0.3180  1.2198
  204MOL0     C28024   9.180   0.906  11.043 -0.6990  0.4322 -0.6609
  204MOL0     C28025   9.141   1.001  10.921  0.5505  0.1278 -0.3567
  204MOL0     C28026   9.018   1.084  10.947 -0.4689 -0.1058 -1.0758
  204MOL0     C28027   8.892   1.006  10.925 -0.0917  0.4239  0.2946
  204MOL0     C28028   8.770   1.083  10.977  0.2561 -0.0987  0.1116
  204MOL0     C28029   8.630   1.017  10.940  0.3446 -0.5708  0.5638
  204MOL0     C28030   8.507   1.104  10.987 -0.6770 -0.2913 -0.1199
  204MOL0     N28031   8.480   1.091  11.130  0.1178 -0.4394 -0.5048
  204MOL0     C28032   8.370   1.146  11.190  0.3886  0.0319 -0.1870
  204MOL0     C28033   8.386   1.116  11.324 -0.6149  0.2460  0.1124
  204MOL0     C28034   8.263   1.120  11.419  0.3102 -0.0206 -0.4627
  204MOL0     C28035   8.198   0.981  11.448 -0.1458  0.2576  0.2480
  204MOL0     C28036   8.136   0.909  11.329  0.2118  0.1402 -0.7269
  204MOL0     C28037   8.092   0.763  11.358  0.8729 -0.4054 -0.0674
  204MOL0     O28038   7.989   0.772  11.454 -0.1901 -0.5442  0.1523
  204MOL0     C28039   7.943   0.662  11.519  0.0532 -0.5187  0.2579
  204MOL0     C28040   7.982   0.526  11.496  0.8372 -0.2718 -0.2447
  204MOL0     C28041   7.925   0.419  11.554 -0.9406  0.3703  0.4228
  204MOL0     C28042   7.955   0.275  11.518 -0.5694  0.4386 -1.1757
  204MOL0     C28043   7.815   0.444  11.650 -1.3915 -0.3011  0.1238
  204MOL0     C28044   7.731   0.339  11.719  1.1710 -0.1970 -0.4867
  204MOL0     O28045   7.659   0.385  11.828 -0.6991 -0.8504  0.3563
  204MOL0     C28046   7.628   0.294  11.923  0.8418 -0.3950 -0.5756
  204MOL0     C28047   7.717   0.278  12.030 -0.7868  0.6148 -0.4081
  204MOL0     C28048   7.680   0.190  12.136 -0.3083 -0.1214 -0.4505
  204MOL0     C28049   7.556   0.122  12.128 -0.5053 -0.2244 -0.2583
  204MOL0     O28050   7.505   0.037  12.216 -0.3026  0.6004  0.0704
  204MOL0     C28051   7.532  -0.101  12.184  0.7986 -0.6377  0.3413
  204MOL0     C28052   7.386  -0.160  12.167 -0.6244  0.7627 -0.9479
  204MOL0     C28053   7.397  -0.312  12.110 -0.5799 -0.0880 -1.6334
  204MOL0     C28054   7.398  -0.307  11.954  0.0549 -0.3207 -0.5188
  204MOL0     C28055   7.271  -0.242  11.891 -0.5738  0.5181  0.2893
  204MOL0     C28056   7.144  -0.310  11.926 -0.7675  0.2600  0.3144
  204MOL0     C28057   7.033  -0.280  11.825  0.5451 -0.1617 -0.5571
  204MOL0     C28058   6.902  -0.294  11.913  0.0304 -0.0481 -0.7506
  204MOL0    Cl28059   6.748  -0.301  11.822 -0.1411 -0.1163  0.3933
  204MOL0     C28060   7.460   0.148  12.021  0.3078 -0.5411 -0.3676
  204MOL0     C28061   7.511   0.228  11.917  0.2718  0.8837  0.2563
  204MOL0     O28062   7.752   0.220  11.705 -0.1631 -0.0991 -0.3387
  204MOL0     C28063   7.775   0.583  11.672 -0.3514 -0.1091 -0.3997
  204MOL0     C28064   7.836   0.686  11.603  0.7765  0.2696 -0.6818
  204MOL0     N28065   8.495   1.044  11.340 -0.5361 -0.1595  0.3561
  204MOL0     N28066   8.556   1.032  11.225 -0.0844  0.4660  0.1802
  204MOL0     C28067   9.551   0.685  10.976  0.1456 -0.6879 -0.7630
  204MOL0     C28068   9.666   0.607  10.958 -0.2434  0.1966 -1.0353
  204MOL0     C28069   9.917   0.254  10.878 -1.1319 -0.5073 -0.0931
  204MOL0     C28070   9.972   0.226  10.746  0.4883  0.8540 -0.9727
  204MOL0     C28071  10.064   0.129  10.719 -0.5479  0.4481  0.8184
  204MOL0     C28072  10.102   0.043  10.818 -0.0322 -0.4245  0.0952
  204MOL0     O28073  10.189  -0.061  10.790  0.1497  0.3075 -0.1627
  204MOL0     C28074  10.201  -0.174  10.881 -0.6639  0.7632 -0.8428
  204MOL0     C28075  10.245  -0.303  10.821 -0.2726  0.2436 -1.0373
  204MOL0     C28076  10.391  -0.303  10.775 -0.5031  0.0509 -0.1007
  204MOL0     C28077  10.444  -0.429  10.717  0.6494 -0.0657 -0.2607
  204MOL0     C28078  10.389  -0.459  10.589 -0.4069  0.9212  0.3623
  204MOL0     C28079  10.347  -0.486  10.478 -0.1322 -0.0684  0.3588
  204MOL0     C28080  10.059   0.064  10.945  0.4863  1.0505 -0.2614
  204MOL0     C28081   9.971   0.173  10.977  0.7816  0.3461  0.1563
  204MOL0     C28082   9.922   0.164  11.124  0.3772  1.0968  0.1156
  204MOL0     H28083   9.600   0.383  11.213  0.8454 -0.7068 -1.9597
  204MOL0     H28084   9.409   0.521  11.253 -1.5766  2.1126  0.2187
  204MOL0     H28085   9.320   0.831  10.899  0.5500 -3.7313  1.5257
  204MOL0     H28086   9.406   0.907  11.030  0.9052 -0.4673  1.4405
  204MOL0     H28087   9.110   0.823  11.055  0.6736 -0.3820  3.3826
  204MOL0     H28088   9.196   0.966  11.133 -0.4298 -0.6938  0.0669
  204MOL0     H28089   9.216   1.079  10.901 -1.2711  1.5474 -2.0576
  204MOL0     H28090   9.134   0.948  10.825 -1.8455 -1.1018  0.4109
  204MOL0     H28091   9.030   1.131  11.045  0.0844  0.0290 -1.2033
  204MOL0     H28092   9.031   1.149  10.859  1.1827  0.1459 -0.6764
  204MOL0     H28093   8.901   0.909  10.974  0.2703  0.2314 -0.1400
  204MOL0     H28094   8.880   0.980  10.819  1.7366  0.1392  0.1248
  204MOL0     H28095   8.777   1.091  11.085  0.0032 -0.0688  0.1277
  204MOL0     H28096   8.779   1.181  10.928 -0.2977  1.3953  2.8121
  204MOL0     H28097   8.615   0.914  10.973  0.4959 -1.0507 -0.7946
  204MOL0     H28098   8.620   1.022  10.831  1.0807  0.5583  0.5256
  204MOL0     H28099   8.537   1.204  10.954  1.0230 -0.6875  0.0943
  204MOL0     H28100   8.413   1.072  10.943  0.1645 -1.0695 -1.4051
  204MOL0     H28101   8.293   1.205  11.141  0.3993 -0.1098 -0.3762
  204MOL0     H28102   8.182   1.187  11.387 -0.9069 -0.2672  1.8603
  204MOL0     H28103   8.284   1.155  11.520 -1.5141  1.4292 -0.5207
  204MOL0     H28104   8.272   0.926  11.505 -1.2992 -0.9799  0.6050
  204MOL0     H28105   8.121   1.007  11.521 -2.6740 -0.2119 -2.0743
  204MOL0     H28106   8.049   0.969  11.298 -0.8185  0.5170  2.5732
  204MOL0     H28107   8.210   0.901  11.249  1.0979 -0.7575  0.1535
  204MOL0     H28108   8.053   0.711  11.270 -1.2042  3.7363 -1.8822
  204MOL0     H28109   8.184   0.715  11.392 -1.0865 -3.7582  1.0183
  204MOL0     H28110   8.075   0.517  11.441  2.5738 -0.6262  2.5593
  204MOL0     H28111   8.037   0.268  11.446 -0.4599  0.7279 -1.0787
  204MOL0     H28112   7.874   0.211  11.481  1.2448 -2.1586 -0.9874
  204MOL0     H28113   7.988   0.212  11.601  1.3396  0.9750 -1.4838
  204MOL0     H28114   7.806   0.339  12.034  0.3518 -1.0563  2.0971
  204MOL0     H28115   7.742   0.175  12.223 -2.6277 -1.6870  1.0319
  204MOL0     H28116   7.577  -0.113  12.085 -2.0077 -3.3579 -0.7377
  204MOL0     H28117   7.581  -0.149  12.269  3.3610  1.7304  0.3554
  204MOL0     H28118   7.341  -0.168  12.266  1.8415 -1.4349  0.1222
  204MOL0     H28119   7.330  -0.101  12.093  0.3880  0.9871 -1.5649
  204MOL0     H28120   7.306  -0.362  12.146 -0.9669  2.8968  2.2419
  204MOL0     H28121   7.480  -0.357  12.165 -0.8118  2.8185  1.4118
  204MOL0     H28122   7.394  -0.407  11.910  1.8840 -0.2255 -0.9969
  204MOL0     H28123   7.486  -0.252  11.917  0.2979  0.4036  1.0341
  204MOL0     H28124   7.263  -0.135  11.911 -2.9801  0.4758 -0.0807
  204MOL0     H28125   7.286  -0.251  11.783  1.2023  2.3172  0.3253
  204MOL0     H28126   7.109  -0.280  12.026 -0.6667 -0.7927  0.6815
  204MOL0     H28127   7.160  -0.418  11.931  0.6997  0.3396 -1.4863
  204MOL0     H28128   7.040  -0.343  11.736  0.1134 -0.9544 -0.0431
  204MOL0     H28129   7.027  -0.181  11.777  2.6507 -0.3169 -1.2522
  204MOL0     H28130   6.903  -0.216  11.989 -2.3354 -2.3001  1.8277
  204MOL0     H28131   6.915  -0.382  11.976  0.2496  1.3906  1.3138
  204MOL0     H28132   7.358   0.111  12.034 -0.0053  0.9782  2.2797
  204MOL0     H28133   7.442   0.250  11.836  0.1213  1.2007  0.4701
  204MOL0     H28134   7.689   0.611  11.732  0.4075  2.0939 -0.2468
  204MOL0     H28135   7.799   0.788  11.615 -0.8939 -0.6463  3.4367
  204MOL0     H28136   9.548   0.778  10.920 -0.2871 -1.0757 -1.4033
  204MOL0     H28137   9.749   0.637  10.896  1.9229 -2.2370  0.4701
  204MOL0     H28138   9.932   0.291  10.669 -0.2130  0.5012 -0.9078
  204MOL0     H28139  10.094   0.114  10.616 -1.3972  0.2650  0.5853
  204MOL0     H28140  10.270  -0.146  10.961 -0.7609  0.8369 -0.7855
  204MOL0     H28141  10.106  -0.188  10.933  0.7681  0.4812  1.8667
  204MOL0     H28142  10.179  -0.308  10.733 -2.2570  2.5425  0.1918
  204MOL0     H28143  10.232  -0.390  10.885  4.3377  0.3248  0.4108
  204MOL0     H28144  10.419  -0.213  10.720 -1.6339  0.3867 -0.1676
  204MOL0     H28145  10.454  -0.291  10.863 -0.8106  2.0776 -0.0995
  204MOL0     H28146  10.420  -0.516  10.779  0.2545  3.0199  4.4609
  204MOL0     H28147  10.553  -0.431  10.704  0.6860 -0.5079  0.0855
  204MOL0     H28148  10.302  -0.505  10.383 -0.7864  4.3757 -0.4703
  204MOL0     H28149  10.102   0.007  11.026  1.5683  1.9741 -0.1439
  204MOL0     H28150   9.814   0.143  11.123 -0.0051  2.5646  2.3479
  204MOL0     H28151   9.960   0.080  11.183 -0.5381  0.6548  0.0984
  204MOL0     H28152   9.958   0.255  11.172 -0.5465  0.0349  3.0713
  205MOL0     O28153   9.354   7.616   0.045 -0.0239  0.0471  0.2604
  205MOL0     C28154   9.272   7.541  -0.006 -0.2877 -0.0543 -0.3098
  205MOL0     O28155   9.268   7.526  -0.142  0.5597 -0.0406  0.2546
  205MOL0     C28156   9.203   7.425  -0.213 -0.3029  1.3985 -0.8379
  205MOL0     C28157   9.170   7.458  -0.338 -0.2749 -0.3295  0.1511
  205MOL0     C28158   9.081   7.386  -0.413 -0.7533  1.1653 -0.4209
  205MOL0     C28159   9.032   7.263  -0.366 -0.2594 -0.6416  0.3427
  205MOL0     O28160   8.943   7.175  -0.440 -0.0916  0.1507  0.5732
  205MOL0     C28161   8.914   7.204  -0.581 -0.8599 -0.6046 -0.4047
  205MOL0     C28162   8.834   7.091  -0.622  0.2029 -0.0770 -0.1832
  205MOL0     C28163   8.917   6.961  -0.620 -0.5117  0.5863  0.1169
  205MOL0     C28164   8.826   6.848  -0.646 -0.4496  0.5352 -0.4604
  205MOL0     C28165   8.888   6.716  -0.695  0.2588  0.3846  0.4293
  205MOL0     C28166   8.805   6.597  -0.707  0.5853  0.2590  0.2710
  205MOL0     C28167   8.689   6.614  -0.807  0.3933  0.3725 -1.2592
  205MOL0     C28168   8.594   6.496  -0.812 -0.5793 -0.1846 -0.1336
  205MOL0     N28169   8.471   6.548  -0.871  0.2840 -0.1867 -0.2611
  205MOL0     C28170   8.448   6.576  -1.000  1.5788  0.1907 -0.5021
  205MOL0     C28171   8.314   6.606  -1.012  0.5054  1.1061 -0.3938
  205MOL0     C28172   8.222   6.627  -1.122 -0.2152  0.0727  0.5595
  205MOL0     C28173   8.288   6.716  -1.218 -0.0105 -1.0382  0.0839
  205MOL0     C28174   8.245   6.681  -1.358 -0.3473  0.2878  0.0624
  205MOL0     C28175   8.290   6.784  -1.460 -0.4702 -0.4857  0.1413
  205MOL0     O28176   8.238   6.732  -1.579  0.3691 -0.9156 -0.0123
  205MOL0     C28177   8.288   6.776  -1.697 -1.0167 -0.6892  0.5795
  205MOL0     C28178   8.327   6.906  -1.714 -0.3928  1.3246 -0.3162
  205MOL0     C28179   8.341   6.967  -1.837 -0.3810  0.2717 -0.1574
  205MOL0     C28180   8.377   7.118  -1.835  0.0595 -0.9080  0.0317
  205MOL0     C28181   8.316   6.891  -1.952 -0.6721 -0.0488  1.1397
  205MOL0     C28182   8.306   6.949  -2.088  0.1789 -0.9694  0.2182
  205MOL0     O28183   8.286   7.088  -2.103 -0.3965 -0.0266  0.5220
  205MOL0     C28184   8.222   7.129  -2.218 -0.6273  0.3571  0.3925
  205MOL0     C28185   8.096   7.186  -2.214  0.5200  0.0392 -0.4983
  205MOL0     C28186   8.024   7.230  -2.333  0.2409  0.1232 -0.0045
  205MOL0     C28187   8.071   7.190  -2.461 -0.1156  0.3317 -0.3531
  205MOL0     O28188   8.000   7.213  -2.580  0.2859  0.0125 -0.7218
  205MOL0     C28189   7.886   7.122  -2.597 -0.0317  0.3554  0.1909
  205MOL0     C28190   7.762   7.190  -2.637  0.2867 -0.7695 -0.5406
  205MOL0     C28191   7.771   7.247  -2.784 -0.9260  0.0835 -0.3880
  205MOL0     C28192   7.647   7.332  -2.817  0.3146  0.2080  0.4304
  205MOL0     C28193   7.649   7.367  -2.973  0.2836  0.7555 -0.7249
  205MOL0     C28194   7.539   7.472  -3.006 -0.7185  0.2313 -0.0245
  205MOL0     C28195   7.573   7.520  -3.144  0.7071 -1.1632  0.5863
  205MOL0     C28196   7.461   7.596  -3.214  0.4589 -0.4842 -0.9381
  205MOL0    Cl28197   7.446   7.760  -3.154 -0.0296 -0.0432  0.1046
  205MOL0     C28198   8.198   7.129  -2.462  1.1307  0.2157  0.0191
  205MOL0     C28199   8.270   7.103  -2.347  0.3831  0.5498 -1.2921
  205MOL0     O28200   8.302   6.871  -2.181  0.5786 -0.0736 -0.0031
  205MOL0     C28201   8.297   6.759  -1.944 -0.6339  0.0178 -0.6504
  205MOL0     C28202   8.285   6.698  -1.816  0.7413  0.1085  0.6922
  205MOL0     N28203   8.265   6.599  -0.881  0.7174  0.1682 -0.4098
  205MOL0     N28204   8.356   6.558  -0.795 -0.0306  0.2520  0.5604
  205MOL0     C28205   9.069   7.214  -0.234  0.3220 -1.0266  1.0390
  205MOL0     C28206   9.157   7.299  -0.163  0.3918 -1.4384 -0.1109
  205MOL0     C28207   9.194   7.452   0.091  0.7657  0.1706 -0.7197
  205MOL0     C28208   9.052   7.478   0.105 -0.6074  0.1874  0.8765
  205MOL0     C28209   8.981   7.430   0.212  0.4733 -0.7140  0.7757
  205MOL0     C28210   9.040   7.338   0.306 -0.3457 -1.4213 -0.0260
  205MOL0     O28211   8.950   7.300   0.405  0.6577 -0.8009  0.4052
  205MOL0     C28212   8.967   7.169   0.433  1.1697  0.1835  0.2475
  205MOL0     C28213   8.886   7.136   0.558 -0.2522 -0.6193 -0.2909
  205MOL0     C28214   8.911   6.988   0.590 -0.9495  0.0302 -0.9912
  205MOL0     C28215   8.902   6.952   0.736  0.6042  0.4242  0.4646
  205MOL0     C28216   8.911   6.807   0.751  0.6440 -0.5666 -0.6241
  205MOL0     C28217   8.889   6.688   0.759 -0.6160  0.0383 -0.6548
  205MOL0     C28218   9.176   7.306   0.291 -0.1275 -0.2596  0.3873
  205MOL0     C28219   9.255   7.370   0.191 -0.1603 -1.1216  0.0090
  205MOL0     C28220   9.406   7.387   0.222 -0.5488 -0.2982 -0.3813
  205MOL0     H28221   9.222   7.544  -0.378  1.7220 -0.9976  1.1806
  205MOL0     H28222   9.047   7.419  -0.510 -1.9697  0.1380 -0.3719
  205MOL0     H28223   9.004   7.219  -0.640  0.8061  1.0846  2.3401
  205MOL0     H28224   8.862   7.301  -0.575 -0.1950 -0.2565 -0.1612
  205MOL0     H28225   8.759   7.080  -0.544  1.5219  3.7502  1.8717
  205MOL0     H28226   8.795   7.127  -0.718  4.2964 -0.4879 -2.2451
  205MOL0     H28227   8.985   6.973  -0.705 -1.5072  0.9753 -0.6454
  205MOL0     H28228   8.977   6.952  -0.529  0.0895  0.2972 -0.3020
  205MOL0     H28229   8.771   6.824  -0.554  0.1439  1.5719  0.1855
  205MOL0     H28230   8.769   6.886  -0.732  5.1111  1.5434 -4.2270
  205MOL0     H28231   8.967   6.681  -0.627  1.4013 -2.5502 -2.1272
  205MOL0     H28232   8.944   6.732  -0.788  0.6000  1.7554  0.8421
  205MOL0     H28233   8.869   6.512  -0.735  0.7861  0.1992  0.8990
  205MOL0     H28234   8.763   6.571  -0.609  0.0648  2.3025  0.6355
  205MOL0     H28235   8.727   6.629  -0.909  0.9979  2.1476 -0.8220
  205MOL0     H28236   8.629   6.702  -0.781 -0.5129 -0.4470 -0.4957
  205MOL0     H28237   8.634   6.409  -0.864 -0.2589 -1.1179  1.6142
  205MOL0     H28238   8.590   6.452  -0.712  1.1194 -1.4293 -0.5623
  205MOL0     H28239   8.509   6.577  -1.090  1.8772 -0.2900 -0.3124
  205MOL0     H28240   8.126   6.669  -1.090 -0.1505 -0.3930  1.3873
  205MOL0     H28241   8.191   6.529  -1.159  0.7993 -0.0043 -0.1104
  205MOL0     H28242   8.250   6.816  -1.196  4.2702  1.1219 -1.2944
  205MOL0     H28243   8.397   6.723  -1.211 -0.0421  1.8946 -1.0709
  205MOL0     H28244   8.289   6.588  -1.394  1.2378  2.0678 -3.1097
  205MOL0     H28245   8.136   6.679  -1.365 -0.4344 -1.4518  1.4234
  205MOL0     H28246   8.264   6.889  -1.442 -0.4692 -0.5960  0.8293
  205MOL0     H28247   8.400   6.778  -1.455 -0.5460 -1.1451  2.6699
  205MOL0     H28248   8.351   6.967  -1.627 -1.7702 -0.5473  1.4476
  205MOL0     H28249   8.471   7.124  -1.780  0.3844  2.0927 -0.6855
  205MOL0     H28250   8.300   7.186  -1.797  0.9723 -1.5265  3.2926
  205MOL0     H28251   8.406   7.156  -1.933 -0.0675  1.4880  0.8556
  205MOL0     H28252   8.054   7.208  -2.117 -0.6217  1.7260 -1.3235
  205MOL0     H28253   7.936   7.291  -2.315  1.8957  2.6656 -0.0639
  205MOL0     H28254   7.928   7.041  -2.658  1.3604  1.7245 -0.7397
  205MOL0     H28255   7.864   7.087  -2.496 -1.8256 -1.6659 -0.7974
  205MOL0     H28256   7.666   7.140  -2.624  0.7675 -1.7710 -0.7371
  205MOL0     H28257   7.754   7.279  -2.575  1.1735 -0.4712 -0.8421
  205MOL0     H28258   7.788   7.168  -2.858  0.8378  0.1592 -0.1196
  205MOL0     H28259   7.848   7.325  -2.781 -1.0224  0.1894  2.3149
  205MOL0     H28260   7.647   7.418  -2.749 -0.8466  0.8497 -0.3525
  205MOL0     H28261   7.555   7.280  -2.788  1.5382 -1.5226  1.4212
  205MOL0     H28262   7.749   7.398  -3.005 -1.0326  3.1481 -2.9130
  205MOL0     H28263   7.626   7.272  -3.024 -0.3647 -0.5736  1.8617
  205MOL0     H28264   7.534   7.556  -2.936 -0.0222 -1.6613  2.4331
  205MOL0     H28265   7.440   7.424  -3.011 -0.6189  0.1886 -2.2969
  205MOL0     H28266   7.575   7.430  -3.207 -3.7274 -1.6428  0.8064
  205MOL0     H28267   7.663   7.581  -3.154  0.3494 -0.7384 -0.1142
  205MOL0     H28268   7.368   7.541  -3.195  1.5090 -1.5143  1.5636
  205MOL0     H28269   7.482   7.601  -3.321 -0.1063  3.0932 -0.9769
  205MOL0     H28270   8.240   7.091  -2.555 -0.6033 -1.3536 -0.1881
  205MOL0     H28271   8.369   7.059  -2.355  0.0223 -0.1838 -1.8910
  205MOL0     H28272   8.292   6.690  -2.028  2.1351 -2.6742  1.1858
  205MOL0     H28273   8.250   6.595  -1.813  0.4235  0.2261  3.4831
  205MOL0     H28274   9.032   7.116  -0.206 -3.3236  0.4656  2.0031
  205MOL0     H28275   9.174   7.257  -0.064  3.3956  1.0402  0.5732
  205MOL0     H28276   9.005   7.540   0.029  1.4099 -0.5453 -1.0801
  205MOL0     H28277   8.877   7.461   0.213  1.3482  2.8989 -1.2985
  205MOL0     H28278   8.931   7.098   0.357  0.3606  1.6827 -0.8264
  205MOL0     H28279   9.067   7.135   0.460  2.5339  3.2220 -0.5456
  205MOL0     H28280   8.781   7.153   0.533 -0.7335 -1.5615  0.9732
  205MOL0     H28281   8.912   7.206   0.637 -0.1428  1.1537 -1.8223
  205MOL0     H28282   8.831   6.933   0.539 -2.6492  0.6303  0.8841
  205MOL0     H28283   9.007   6.951   0.553 -0.5101  0.0187  0.1161
  205MOL0     H28284   8.809   6.981   0.784 -0.3137 -1.2721 -0.2061
  205MOL0     H28285   8.976   7.009   0.794 -0.9486 -0.6119  3.6323
  205MOL0     H28286   8.881   6.582   0.774 -1.2609  0.4081  2.1288
  205MOL0     H28287   9.227   7.250   0.369  4.2028  2.5682 -0.1178
  205MOL0     H28288   9.458   7.387   0.126  0.3741 -0.5331  0.0980
  205MOL0     H28289   9.423   7.489   0.257 -1.2162  0.1515 -1.3221
  205MOL0     H28290   9.453   7.312   0.286  0.0430  1.7472  1.7263
  206MOL0     O28291   0.614   8.168   5.863  0.3611 -0.0782 -0.5380
  206MOL0     C28292   0.499   8.150   5.843  0.4757  0.5925 -0.0444
  206MOL0     O28293   0.403   8.240   5.825  0.5055 -0.1556 -0.1885
  206MOL0     C28294   0.428   8.369   5.870 -0.1301 -0.7008 -0.9601
  206MOL0     C28295   0.337   8.430   5.963  0.1981  0.9520  0.0038
  206MOL0     C28296   0.373   8.553   6.010  0.8086  0.2835 -0.1365
  206MOL0     C28297   0.480   8.621   5.971 -0.2550  0.7404 -0.4721
  206MOL0     O28298   0.539   8.721   6.042 -0.7627 -0.0484 -1.0150
  206MOL0     C28299   0.471   8.785   6.154  1.2707  1.2960 -1.3997
  206MOL0     C28300   0.580   8.877   6.215 -0.3775  0.2546  0.7327
  206MOL0     C28301   0.538   8.961   6.327  0.4068  0.3533 -0.1519
  206MOL0     C28302   0.654   8.989   6.427 -0.0528  0.1769  0.3903
  206MOL0     C28303   0.765   9.075   6.373  0.2432 -0.6841  0.0724
  206MOL0     C28304   0.832   9.147   6.488 -0.2562 -0.5944  0.1064
  206MOL0     C28305   0.972   9.197   6.437  0.1622  0.4657 -1.5575
  206MOL0     C28306   0.968   9.284   6.311 -0.5211  1.1580  0.3837
  206MOL0     N28307   0.865   9.393   6.313 -0.2590  0.3655 -0.2197
  206MOL0     C28308   0.895   9.505   6.387 -0.0459  0.0892  0.5187
  206MOL0     C28309   0.791   9.589   6.363  0.6742 -0.4137  0.2556
  206MOL0     C28310   0.758   9.731   6.417 -0.0256 -0.5822 -0.5367
  206MOL0     C28311   0.666   9.720   6.545 -0.2724  0.6591 -0.3040
  206MOL0     C28312   0.634   9.861   6.578 -0.5812  0.0682  0.1147
  206MOL0     C28313   0.560   9.871   6.713  0.5124  0.6282 -0.3603
  206MOL0     O28314   0.419   9.838   6.682  0.3489  0.4474 -0.3861
  206MOL0     C28315   0.344   9.813   6.802 -0.3065 -0.5554 -0.0741
  206MOL0     C28316   0.209   9.765   6.782 -0.0845 -0.5665 -0.5393
  206MOL0     C28317   0.125   9.748   6.892 -0.3357  0.6182 -0.8794
  206MOL0     C28318  -0.011   9.696   6.875 -1.1328 -0.5485 -0.3030
  206MOL0     C28319   0.173   9.768   7.026  0.1035  0.4336  0.1203
  206MOL0     C28320   0.104   9.753   7.153  1.5155  0.3208  0.7229
  206MOL0     O28321  -0.028   9.788   7.146  0.3099 -0.1910  0.5247
  206MOL0     C28322  -0.091   9.831   7.262 -1.1078  0.1870  0.1805
  206MOL0     C28323  -0.165   9.737   7.329  0.0963  0.8758 -0.1550
  206MOL0     C28324  -0.239   9.779   7.437  0.2127  1.0668 -0.6303
  206MOL0     C28325  -0.229   9.909   7.484 -0.2472  0.1955  0.6744
  206MOL0     O28326  -0.296   9.948   7.596  0.3294  1.0582 -0.3569
  206MOL0     C28327  -0.261   9.873   7.715  0.4225  0.0512 -0.1961
  206MOL0     C28328  -0.131   9.933   7.772 -0.0094  0.4218 -0.2239
  206MOL0     C28329  -0.093   9.880   7.907 -0.3000 -0.0597 -0.9461
  206MOL0     C28330  -0.216   9.843   8.008  0.2303 -0.4128  0.2794
  206MOL0     C28331  -0.183   9.817   8.150 -0.4140  1.0663 -0.4734
  206MOL0     C28332  -0.135   9.946   8.228 -0.0904  0.5358 -0.0189
  206MOL0     C28333  -0.153   9.945   8.379 -0.3437 -0.0114  0.4701
  206MOL0     C28334  -0.132  10.085   8.448 -0.6925 -0.5596 -0.0248
  206MOL0    Cl28335  -0.144  10.071   8.618 -0.0831  0.0571  0.2440
  206MOL0     C28336  -0.156  10.003   7.418 -0.0419  0.2419  0.4457
  206MOL0     C28337  -0.082   9.971   7.303 -0.1001  0.4695 -0.5659
  206MOL0     O28338   0.157   9.717   7.255 -0.2776 -0.1829 -0.0141
  206MOL0     C28339   0.313   9.800   7.036 -0.8667  0.0935 -0.1417
  206MOL0     C28340   0.394   9.826   6.934  1.3995  1.2865 -0.3608
  206MOL0     N28341   0.701   9.525   6.282  0.0786 -0.0231  0.5081
  206MOL0     N28342   0.744   9.410   6.247 -0.3526 -0.5350  0.0135
  206MOL0     C28343   0.560   8.571   5.870 -0.6187  0.5110  0.1792
  206MOL0     C28344   0.528   8.449   5.814  0.6821  0.0492 -0.2346
  206MOL0     C28345   0.469   8.008   5.850  0.0819  0.4991  0.7579
  206MOL0     C28346   0.338   7.967   5.908  0.1580  0.3965  0.0316
  206MOL0     C28347   0.313   7.833   5.939  0.3921  0.2314 -0.6231
  206MOL0     C28348   0.413   7.738   5.927 -0.5049 -0.5368 -0.0197
  206MOL0     O28349   0.402   7.602   5.943 -0.2421  0.3772  0.0552
  206MOL0     C28350   0.276   7.560   6.004 -0.5771 -0.0493 -0.8866
  206MOL0     C28351   0.292   7.415   6.049 -1.1773 -0.5085 -0.0515
  206MOL0     C28352   0.219   7.388   6.173 -0.0726  0.4270 -0.2555
  206MOL0     C28353   0.272   7.444   6.303 -1.1674 -0.0534 -1.3942
  206MOL0     C28354   0.231   7.579   6.337  0.2235  0.9859 -0.0059
  206MOL0     C28355   0.197   7.694   6.361 -0.0884  0.5768 -0.6015
  206MOL0     C28356   0.532   7.775   5.871  0.5362 -0.4169  1.0825
  206MOL0     C28357   0.556   7.900   5.817  0.9902 -0.2735  0.0459
  206MOL0     C28358   0.677   7.916   5.734  0.2999  0.3930  0.5777
  206MOL0     H28359   0.244   8.377   5.979  0.1844  0.0685 -2.5663
  206MOL0     H28360   0.305   8.596   6.083  0.3263 -0.0920 -0.3606
  206MOL0     H28361   0.433   8.709   6.224  1.6497  2.0545 -0.3430
  206MOL0     H28362   0.390   8.849   6.118  0.7223  1.8523  0.6476
  206MOL0     H28363   0.647   8.806   6.264 -2.1230 -1.1950  1.1175
  206MOL0     H28364   0.646   8.928   6.144 -1.5664 -0.7987 -1.1990
  206MOL0     H28365   0.502   9.059   6.295  0.9272  1.1045  1.4415
  206MOL0     H28366   0.471   8.898   6.387  1.2003 -1.4025 -1.0308
  206MOL0     H28367   0.614   9.041   6.515 -0.7267 -0.5809  0.5423
  206MOL0     H28368   0.698   8.895   6.463 -1.3226  0.1665  2.0704
  206MOL0     H28369   0.725   9.143   6.297  0.0892  1.6246  2.0638
  206MOL0     H28370   0.833   9.002   6.329 -0.7519 -1.6202  0.0216
  206MOL0     H28371   0.765   9.229   6.517 -0.0560 -1.0684  1.9923
  206MOL0     H28372   0.844   9.087   6.578 -0.5302 -0.8255 -0.0097
  206MOL0     H28373   1.040   9.112   6.434 -0.0130  0.2230  0.2568
  206MOL0     H28374   1.019   9.259   6.514 -0.2856 -2.0984  0.9564
  206MOL0     H28375   1.063   9.323   6.275 -1.3377  1.5639 -1.4820
  206MOL0     H28376   0.942   9.223   6.224 -0.7829 -0.3950  1.5186
  206MOL0     H28377   0.981   9.534   6.447 -1.0722 -1.8083  3.1299
  206MOL0     H28378   0.705   9.794   6.345  1.4463  0.2806 -0.9140
  206MOL0     H28379   0.848   9.786   6.446  0.9359 -2.0384 -0.6768
  206MOL0     H28380   0.573   9.667   6.523 -0.6020  1.1330 -0.0749
  206MOL0     H28381   0.713   9.659   6.623 -2.3267  0.7783  1.1167
  206MOL0     H28382   0.726   9.917   6.596 -2.3036  2.1514  3.4863
  206MOL0     H28383   0.591   9.918   6.495 -3.2287  0.9277  1.9343
  206MOL0     H28384   0.605   9.800   6.782  1.4763 -0.8767 -2.4167
  206MOL0     H28385   0.574   9.972   6.753  1.8034  0.4922 -0.4206
  206MOL0     H28386   0.161   9.763   6.685  0.8261 -2.2689 -1.0004
  206MOL0     H28387  -0.087   9.775   6.880 -1.2711 -0.7805  2.3787
  206MOL0     H28388  -0.044   9.618   6.943  0.3697 -1.1151 -0.1958
  206MOL0     H28389  -0.006   9.661   6.771  2.8160 -2.9857  0.5102
  206MOL0     H28390  -0.170   9.635   7.292  1.0986 -0.0128  2.0084
  206MOL0     H28391  -0.292   9.700   7.488  2.2510 -2.3666 -3.3844
  206MOL0     H28392  -0.344   9.879   7.787 -1.3399  0.0770 -2.1260
  206MOL0     H28393  -0.246   9.765   7.705  1.9716 -0.1590  3.1467
  206MOL0     H28394  -0.048   9.914   7.704  0.5093 -0.6963  0.6879
  206MOL0     H28395  -0.144  10.041   7.789  1.6406  0.1889  3.6339
  206MOL0     H28396  -0.032   9.956   7.958 -2.5422 -0.2420  2.3474
  206MOL0     H28397  -0.042   9.787   7.883 -1.0836 -0.1405 -2.4058
  206MOL0     H28398  -0.269   9.756   7.968 -0.2278 -0.8581  1.8135
  206MOL0     H28399  -0.287   9.926   8.005  0.2690 -0.3456  1.0902
  206MOL0     H28400  -0.259   9.768   8.211  1.5950  0.2127  1.4906
  206MOL0     H28401  -0.102   9.744   8.142 -1.8234 -0.3886 -2.3653
  206MOL0     H28402  -0.191  10.032   8.190  0.2623  0.9873  0.4664
  206MOL0     H28403  -0.034   9.970   8.191  0.0834 -2.5268 -1.9018
  206MOL0     H28404  -0.087   9.865   8.412 -3.8771 -3.0107  0.8545
  206MOL0     H28405  -0.258   9.923   8.400 -1.4289 -0.2107 -4.1109
  206MOL0     H28406  -0.201  10.155   8.401 -0.8699  0.8281  2.1856
  206MOL0     H28407  -0.035  10.130   8.426 -1.1027 -0.4912 -1.8479
  206MOL0     H28408  -0.160  10.104   7.459 -0.0239 -0.5625  2.5376
  206MOL0     H28409  -0.021  10.045   7.252 -1.6876  1.4388 -1.1290
  206MOL0     H28410   0.368   9.825   7.126 -0.9963  0.7584 -0.2449
  206MOL0     H28411   0.497   9.854   6.953  0.9564  3.3262 -0.7444
  206MOL0     H28412   0.637   8.633   5.823  0.2132 -0.4515  0.2245
  206MOL0     H28413   0.593   8.410   5.737 -2.6766  0.8321 -3.7468
  206MOL0     H28414   0.263   8.045   5.918 -2.1045 -1.5024 -1.2345
  206MOL0     H28415   0.222   7.805   5.990  0.8115 -0.8987 -0.4726
  206MOL0     H28416   0.253   7.623   6.090 -0.6969 -0.0708 -0.9026
  206MOL0     H28417   0.181   7.568   5.950 -0.9730  1.7188  0.0062
  206MOL0     H28418   0.396   7.389   6.071 -0.8981 -0.5213 -1.3260
  206MOL0     H28419   0.251   7.354   5.967  0.6635  1.6851 -2.7684
  206MOL0     H28420   0.114   7.418   6.162  0.3402  2.2122  0.3725
  206MOL0     H28421   0.223   7.279   6.185  1.3133  0.5057  0.1504
  206MOL0     H28422   0.381   7.439   6.314 -1.3276  0.9603  1.6376
  206MOL0     H28423   0.245   7.365   6.373 -0.9632 -0.6314 -1.9566
  206MOL0     H28424   0.175   7.795   6.389  1.7590  0.4357  1.6936
  206MOL0     H28425   0.606   7.696   5.869 -0.7953 -1.6758 -0.1561
  206MOL0     H28426   0.687   7.833   5.663  0.1674  0.1664  0.8185
  206MOL0     H28427   0.680   8.005   5.671  2.1394 -1.7703 -2.7009
  206MOL0     H28428   0.768   7.921   5.796 -0.4241  0.4457  1.6726
  207MOL0     O28429   4.967   3.661   7.529  0.2926  0.2179  0.2348
  207MOL0     C28430   4.848   3.691   7.563  0.5568 -0.1741 -0.2419
  207MOL0     O28431   4.750   3.742   7.482 -0.1558  0.2373 -0.1846
  207MOL0     C28432   4.785   3.777   7.357  0.7678 -1.6356 -0.0681
  207MOL0     C28433   4.838   3.695   7.256 -0.3278 -0.1186 -0.9362
  207MOL0     C28434   4.880   3.749   7.128  1.0090 -0.1677 -0.2153
  207MOL0     C28435   4.873   3.887   7.102 -0.0003  0.4616 -0.1089
  207MOL0     O28436   4.919   3.958   6.994 -0.1495 -0.4001  0.8774
  207MOL0     C28437   5.018   3.889   6.921 -0.3570 -0.5343  0.6815
  207MOL0     C28438   5.072   3.975   6.799  0.3071 -0.2953 -0.6409
  207MOL0     C28439   5.175   4.076   6.844  0.0305  0.7880 -1.2286
  207MOL0     C28440   5.179   4.200   6.757  0.2039 -0.3188 -0.4468
  207MOL0     C28441   5.252   4.309   6.840  0.0188 -0.4905  0.0721
  207MOL0     C28442   5.256   4.442   6.757  0.3574  0.3503 -0.2278
  207MOL0     C28443   5.307   4.562   6.837 -0.4055 -0.3552  0.0380
  207MOL0     C28444   5.319   4.685   6.754 -0.1055 -0.4804 -0.3156
  207MOL0     N28445   5.318   4.799   6.852  0.6193  0.0578  0.5916
  207MOL0     C28446   5.399   4.818   6.966 -1.0055  0.5275  0.2623
  207MOL0     C28447   5.372   4.943   7.011 -0.0038 -0.1560 -0.7989
  207MOL0     C28448   5.446   5.025   7.109  0.6110  0.0145  0.0942
  207MOL0     C28449   5.540   5.131   7.032  0.2355 -0.1956 -0.2051
  207MOL0     C28450   5.605   5.230   7.130 -0.0710  0.1069  0.4183
  207MOL0     C28451   5.710   5.162   7.208  0.0029 -0.1099  0.8010
  207MOL0     O28452   5.801   5.094   7.117 -0.6464 -0.4688 -0.2096
  207MOL0     C28453   5.881   4.986   7.161 -0.3470  0.9932 -0.1676
  207MOL0     C28454   5.900   4.930   7.285 -0.6400  0.2930  0.7766
  207MOL0     C28455   5.973   4.819   7.322  0.3883 -0.5376 -0.6796
  207MOL0     C28456   5.963   4.766   7.466  0.8433 -0.0841 -0.0360
  207MOL0     C28457   6.056   4.761   7.220 -0.1845 -0.0832  0.2178
  207MOL0     C28458   6.157   4.656   7.234  0.2856 -1.0370  0.3124
  207MOL0     O28459   6.239   4.613   7.128  0.1166  0.1103  0.1908
  207MOL0     C28460   6.358   4.549   7.159 -0.3828 -1.3887 -0.2085
  207MOL0     C28461   6.357   4.405   7.149 -0.1205 -0.0579 -0.2130
  207MOL0     C28462   6.472   4.341   7.188 -0.0932  0.1555  0.1402
  207MOL0     C28463   6.591   4.411   7.222 -1.3535  0.1671 -0.3948
  207MOL0     O28464   6.716   4.354   7.241 -0.4242  0.3355 -0.0945
  207MOL0     C28465   6.732   4.214   7.212 -0.5624 -0.2875  0.5308
  207MOL0     C28466   6.873   4.164   7.245  0.2594 -0.2949  0.5571
  207MOL0     C28467   6.963   4.176   7.110 -0.6314  0.8572 -0.2533
  207MOL0     C28468   6.988   4.324   7.059 -0.0457  0.7335 -0.2981
  207MOL0     C28469   7.067   4.327   6.921 -0.1559 -0.4361 -0.0691
  207MOL0     C28470   7.092   4.466   6.867  0.6596  0.4203  1.3600
  207MOL0     C28471   7.084   4.489   6.711  0.2747  0.5571 -1.1715
  207MOL0     C28472   7.105   4.628   6.673 -0.2930 -0.4015  1.4758
  207MOL0    Cl28473   7.279   4.658   6.654  0.5616  1.0524  0.0394
  207MOL0     C28474   6.583   4.552   7.232 -0.4421 -0.7409  0.4011
  207MOL0     C28475   6.465   4.622   7.207 -0.6128 -0.7691 -0.3063
  207MOL0     O28476   6.152   4.603   7.344 -0.8025  0.6855  0.3464
  207MOL0     C28477   6.041   4.815   7.086  0.3264  0.3271 -0.3435
  207MOL0     C28478   5.944   4.918   7.056  1.0976  0.0575 -0.1969
  207MOL0     N28479   5.269   4.989   6.931  1.1376  0.3077 -0.2944
  207MOL0     N28480   5.229   4.902   6.849 -0.2835  0.4063 -0.4951
  207MOL0     C28481   4.814   3.970   7.203 -1.3125 -0.0261  0.7012
  207MOL0     C28482   4.771   3.912   7.331  0.7727 -0.5796 -0.2481
  207MOL0     C28483   4.799   3.649   7.691 -0.4520  0.4079  1.0553
  207MOL0     C28484   4.674   3.578   7.699 -0.1342  1.1271 -0.1754
  207MOL0     C28485   4.633   3.544   7.826  0.4595 -0.0813 -0.4201
  207MOL0     C28486   4.703   3.574   7.942  0.3255 -0.8072  0.0440
  207MOL0     O28487   4.649   3.550   8.060 -0.0567 -0.4419 -0.4091
  207MOL0     C28488   4.733   3.519   8.173 -0.0179 -0.0605  0.2699
  207MOL0     C28489   4.652   3.447   8.272  0.7368  1.0454 -0.6414
  207MOL0     C28490   4.708   3.435   8.410 -0.5928 -0.1696 -0.4847
  207MOL0     C28491   4.726   3.566   8.487 -0.1282 -0.1877 -0.7549
  207MOL0     C28492   4.601   3.638   8.523  0.0432  0.7311  0.5783
  207MOL0     C28493   4.500   3.691   8.533  0.8008 -0.1897 -0.7322
  207MOL0     C28494   4.820   3.641   7.929  0.0499 -0.6742  0.1183
  207MOL0     C28495   4.877   3.682   7.801  0.2886  0.6301 -0.2828
  207MOL0     C28496   5.001   3.760   7.814 -0.0807 -0.8172  1.4820
  207MOL0     H28497   4.861   3.593   7.287  0.9736 -0.2477 -2.2003
  207MOL0     H28498   4.922   3.682   7.054 -1.3081  0.0861 -1.8791
  207MOL0     H28499   4.972   3.797   6.884  2.6129 -0.8428 -2.7695
  207MOL0     H28500   5.106   3.874   6.985  2.3387  3.5997 -1.5755
  207MOL0     H28501   5.114   3.909   6.722  0.2398 -0.2625 -0.7068
  207MOL0     H28502   4.984   4.020   6.752 -0.2497  0.0787  0.7255
  207MOL0     H28503   5.153   4.106   6.947  4.5688  0.2589  0.1175
  207MOL0     H28504   5.274   4.031   6.855 -0.1566  0.7069  0.3265
  207MOL0     H28505   5.235   4.175   6.667 -1.4100 -2.0555 -1.0489
  207MOL0     H28506   5.077   4.239   6.747  0.3400  0.4280  0.8499
  207MOL0     H28507   5.354   4.278   6.863  0.4547  0.0817 -0.9949
  207MOL0     H28508   5.191   4.315   6.930 -1.8223  0.2994 -1.1658
  207MOL0     H28509   5.316   4.432   6.666  3.2086  1.8984  1.3426
  207MOL0     H28510   5.150   4.463   6.736  0.6121  2.5905  0.4285
  207MOL0     H28511   5.410   4.552   6.875 -0.1493  1.2701 -0.1913
  207MOL0     H28512   5.227   4.568   6.912 -1.4367 -2.9529 -0.7290
  207MOL0     H28513   5.407   4.675   6.691  3.1732 -0.4759  3.7983
  207MOL0     H28514   5.230   4.692   6.692 -1.7856 -1.0706  1.8896
  207MOL0     H28515   5.470   4.748   7.010  0.3754  0.9989 -1.0953
  207MOL0     H28516   5.505   4.970   7.183  0.5393  2.5255  2.1704
  207MOL0     H28517   5.374   5.090   7.159 -0.6341 -1.5787  0.4604
  207MOL0     H28518   5.610   5.081   6.964  1.8988 -3.5455  3.5403
  207MOL0     H28519   5.474   5.194   6.971 -0.2778 -0.1346  0.4089
  207MOL0     H28520   5.635   5.309   7.061 -1.2536 -0.4959 -0.8557
  207MOL0     H28521   5.527   5.265   7.198 -0.9234  0.2109 -0.5768
  207MOL0     H28522   5.763   5.244   7.258  2.4983  0.0258 -1.8209
  207MOL0     H28523   5.664   5.089   7.275  0.9232 -1.0200  0.4599
  207MOL0     H28524   5.855   4.987   7.366 -1.0774  0.6044  0.3199
  207MOL0     H28525   5.928   4.664   7.448 -2.6181  0.9173  0.3508
  207MOL0     H28526   5.886   4.820   7.522  0.7170 -0.7056  0.3957
  207MOL0     H28527   6.053   4.777   7.527 -1.0589  2.6357  2.5570
  207MOL0     H28528   6.261   4.360   7.123 -0.7055  1.2003 -0.3377
  207MOL0     H28529   6.469   4.233   7.184 -0.4824  0.1523  0.4392
  207MOL0     H28530   6.654   4.168   7.274 -0.7084 -2.0099 -0.8612
  207MOL0     H28531   6.707   4.193   7.108  1.8702  2.6812 -0.8228
  207MOL0     H28532   6.912   4.240   7.314  3.9669 -0.4672 -1.1003
  207MOL0     H28533   6.872   4.058   7.270 -2.3598 -0.6366 -0.6161
  207MOL0     H28534   6.917   4.110   7.036  0.0907 -2.6935  2.2258
  207MOL0     H28535   7.060   4.133   7.137 -0.1008  1.4975 -1.0940
  207MOL0     H28536   7.043   4.380   7.135 -0.8896  0.4848  0.5086
  207MOL0     H28537   6.888   4.367   7.055 -0.7825  0.1855  5.0631
  207MOL0     H28538   7.164   4.277   6.914  1.2971  2.1377  0.5818
  207MOL0     H28539   6.996   4.280   6.852  0.2034  0.8479 -1.3550
  207MOL0     H28540   7.194   4.482   6.905  1.0941 -1.0331  0.8842
  207MOL0     H28541   7.041   4.543   6.926  0.6660  1.3055  0.2393
  207MOL0     H28542   6.980   4.468   6.684 -0.1852  0.6480  0.3894
  207MOL0     H28543   7.148   4.425   6.650  1.5096 -2.4041  2.7853
  207MOL0     H28544   7.070   4.697   6.750  3.6370  3.4302  0.2303
  207MOL0     H28545   7.052   4.641   6.578 -2.0625 -0.2418  2.4473
  207MOL0     H28546   6.669   4.615   7.249 -0.2492 -0.8767 -0.0562
  207MOL0     H28547   6.462   4.731   7.212  1.5684 -0.7020  2.1268
  207MOL0     H28548   6.105   4.783   7.004  0.8259 -2.3523  0.9902
  207MOL0     H28549   5.925   4.959   6.957 -1.8587 -0.1213  0.1997
  207MOL0     H28550   4.803   4.078   7.197 -0.5782 -0.0434 -2.2927
  207MOL0     H28551   4.743   3.980   7.410  3.0020  1.7453 -1.2937
  207MOL0     H28552   4.617   3.562   7.608 -2.1834  0.7575  1.1099
  207MOL0     H28553   4.533   3.501   7.828  0.3430  0.2266  1.5272
  207MOL0     H28554   4.819   3.461   8.136  1.1953  0.9840  1.3592
  207MOL0     H28555   4.763   3.619   8.205 -1.5295  0.2996  0.6628
  207MOL0     H28556   4.652   3.349   8.224  1.7031  0.0778  1.2178
  207MOL0     H28557   4.551   3.487   8.274  0.5872  0.9554 -3.3700
  207MOL0     H28558   4.648   3.362   8.466 -0.3513 -0.5119 -0.6646
  207MOL0     H28559   4.810   3.395   8.407  0.2663  1.7012  1.1804
  207MOL0     H28560   4.782   3.645   8.437  1.3672  0.1782  1.3700
  207MOL0     H28561   4.777   3.538   8.579 -3.4193 -3.2357  0.3999
  207MOL0     H28562   4.404   3.736   8.550  1.1592 -0.9008  4.8723
  207MOL0     H28563   4.884   3.662   8.015 -3.0101  1.5336  2.0577
  207MOL0     H28564   4.974   3.866   7.814  1.0647 -0.5122  1.6113
  207MOL0     H28565   5.059   3.745   7.906 -0.2064  3.5156  2.5088
  207MOL0     H28566   5.070   3.726   7.736 -0.8205 -1.6282  1.1602
  208MOL0     O28567  10.519   9.359   9.177 -0.1325  0.2366  0.0342
  208MOL0     C28568  10.609   9.431   9.148  0.5633 -1.1096  0.1808
  208MOL0     O28569  10.605   9.527   9.039 -0.2251  0.4400  0.4479
  208MOL0     C28570  10.493   9.558   8.973  0.5436 -0.5240  1.0422
  208MOL0     C28571  10.365   9.511   8.996  0.1573 -0.7556  0.1361
  208MOL0     C28572  10.258   9.527   8.907 -0.0751 -0.3182  0.4071
  208MOL0     C28573  10.265   9.603   8.789  0.2888 -0.4953  0.0722
  208MOL0     O28574  10.157   9.632   8.717 -0.4521 -0.7640  0.1625
  208MOL0     C28575  10.029   9.567   8.723 -0.3434  0.9423  0.4567
  208MOL0     C28576   9.931   9.655   8.786  0.5345  0.5454  0.2809
  208MOL0     C28577   9.790   9.598   8.778 -0.1291 -0.6656  0.0071
  208MOL0     C28578   9.774   9.451   8.815  0.5960 -0.6585 -0.1626
  208MOL0     C28579   9.639   9.400   8.825  0.7153  0.4120 -0.6510
  208MOL0     C28580   9.645   9.243   8.852 -0.1712 -1.0220 -0.1515
  208MOL0     C28581   9.499   9.208   8.889 -0.5827 -0.1875 -0.4510
  208MOL0     C28582   9.496   9.065   8.926 -0.7891 -0.0532  0.4089
  208MOL0     N28583   9.444   8.971   8.819 -0.1349 -0.5567 -0.1750
  208MOL0     C28584   9.346   8.877   8.841  0.0999 -0.2943  0.3469
  208MOL0     C28585   9.347   8.802   8.725 -0.1798  0.2136 -0.2147
  208MOL0     C28586   9.256   8.681   8.706 -0.9489 -0.3711 -0.2380
  208MOL0     C28587   9.114   8.719   8.673  0.2334 -0.5199 -0.9920
  208MOL0     C28588   9.093   8.821   8.554  0.4327 -0.5617 -0.0012
  208MOL0     C28589   8.950   8.806   8.489  0.3384  0.4012 -0.2235
  208MOL0     O28590   8.922   8.672   8.444  0.2729  0.2989  0.5831
  208MOL0     C28591   8.794   8.641   8.395  0.6689  0.9911 -0.7239
  208MOL0     C28592   8.725   8.734   8.321  0.9597  1.6143 -0.0661
  208MOL0     C28593   8.590   8.712   8.280  0.2761 -0.5141 -0.6281
  208MOL0     C28594   8.528   8.824   8.198  0.4644  1.1337  0.5239
  208MOL0     C28595   8.520   8.594   8.324 -0.6331 -0.1413 -1.1996
  208MOL0     C28596   8.373   8.558   8.305 -0.3868  0.1250 -0.6229
  208MOL0     O28597   8.330   8.445   8.370 -0.6543  0.2021  0.2947
  208MOL0     C28598   8.223   8.374   8.318 -0.0847  1.1510  0.1168
  208MOL0     C28599   8.246   8.260   8.243  0.7611 -0.7484  1.2842
  208MOL0     C28600   8.140   8.180   8.215 -1.0833  1.2094  1.1146
  208MOL0     C28601   8.011   8.208   8.255  0.6724  0.0498 -0.2398
  208MOL0     O28602   7.909   8.124   8.234 -0.0421 -0.4161 -0.3705
  208MOL0     C28603   7.890   8.100   8.098 -0.4292  0.1067  0.5833
  208MOL0     C28604   7.750   8.030   8.074 -0.3525  0.4413  0.1939
  208MOL0     C28605   7.637   8.124   8.103  0.4796 -0.0216  0.0182
  208MOL0     C28606   7.515   8.063   8.158  0.6848 -0.1941  0.9986
  208MOL0     C28607   7.449   7.980   8.047 -0.6940  0.2949  0.5051
  208MOL0     C28608   7.316   7.925   8.100 -0.3800  0.7911  0.1833
  208MOL0     C28609   7.257   7.824   8.008  0.1861 -0.0868 -0.3999
  208MOL0     C28610   7.126   7.764   8.062  0.3783  0.3433 -0.3577
  208MOL0    Cl28611   6.991   7.878   8.089 -0.0043 -0.2200  0.2439
  208MOL0     C28612   7.990   8.320   8.341  0.0008  0.7476 -0.1422
  208MOL0     C28613   8.094   8.398   8.370 -0.1382 -0.5983  0.6245
  208MOL0     O28614   8.319   8.604   8.206 -0.2896 -0.0366 -0.0520
  208MOL0     C28615   8.591   8.499   8.401 -0.7127  0.1906 -0.3417
  208MOL0     C28616   8.728   8.524   8.424 -0.4586  0.1871  0.1030
  208MOL0     N28617   9.449   8.859   8.648 -0.3508 -0.1964  1.3520
  208MOL0     N28618   9.499   8.968   8.695 -0.5384  0.3725 -0.3651
  208MOL0     C28619  10.394   9.660   8.765  0.2332 -0.2571  0.0881
  208MOL0     C28620  10.503   9.636   8.846 -0.3441 -0.0673  0.0879
  208MOL0     C28621  10.744   9.400   9.195  0.4310  0.3107 -0.5894
  208MOL0     C28622  10.847   9.465   9.128  0.7890  0.4302 -0.2621
  208MOL0     C28623  10.983   9.452   9.164 -0.4957 -0.1860  1.4214
  208MOL0     C28624  11.024   9.375   9.268 -0.3726 -0.1519  0.6541
  208MOL0     O28625  11.159   9.358   9.305 -0.2247 -0.2618  0.4203
  208MOL0     C28626  11.193   9.368   9.449 -1.0850  0.2722  0.6076
  208MOL0     C28627  11.245   9.507   9.477  0.4630 -0.6979 -0.4588
  208MOL0     C28628  11.286   9.526   9.622 -0.7806 -0.7085  0.4664
  208MOL0     C28629  11.181   9.597   9.690  0.0967  0.0008 -0.1409
  208MOL0     C28630  11.222   9.626   9.828 -0.4102 -1.4015 -0.0587
  208MOL0     C28631  11.282   9.662   9.931 -1.3595 -0.2862 -0.0661
  208MOL0     C28632  10.923   9.303   9.335  0.1930  0.5250 -0.1311
  208MOL0     C28633  10.780   9.318   9.297 -0.2521 -1.0184 -0.1499
  208MOL0     C28634  10.681   9.244   9.385  0.3382 -1.5259  0.5354
  208MOL0     H28635  10.330   9.461   9.086  0.8365 -0.4178  0.5946
  208MOL0     H28636  10.163   9.489   8.944 -1.0416  2.2776  0.8420
  208MOL0     H28637  10.038   9.474   8.780 -1.5288  0.1866 -0.5377
  208MOL0     H28638  10.005   9.538   8.620  2.3670 -0.6537  0.1697
  208MOL0     H28639   9.954   9.659   8.893 -1.2473 -1.5298  0.8129
  208MOL0     H28640   9.942   9.756   8.746 -0.1292  0.2968 -0.5653
  208MOL0     H28641   9.724   9.660   8.840 -3.0844 -0.7625 -2.7890
  208MOL0     H28642   9.769   9.608   8.671  1.4410 -5.0425 -0.9352
  208MOL0     H28643   9.832   9.386   8.750  0.7240 -2.2647  1.4742
  208MOL0     H28644   9.807   9.443   8.919 -2.2331 -1.6127  0.7572
  208MOL0     H28645   9.589   9.435   8.734  2.1059  2.2513 -0.7553
  208MOL0     H28646   9.586   9.452   8.906 -0.8193  0.8060 -1.8501
  208MOL0     H28647   9.683   9.188   8.765 -0.5615  0.0962 -1.0575
  208MOL0     H28648   9.712   9.239   8.938 -1.0495  2.0671  0.8187
  208MOL0     H28649   9.430   9.215   8.805 -1.1536  0.7543  0.0888
  208MOL0     H28650   9.464   9.270   8.972 -0.8722 -1.8465  0.7234
  208MOL0     H28651   9.583   9.019   8.974  0.8008  0.5596 -1.7633
  208MOL0     H28652   9.419   9.058   9.004 -1.3765  0.8499 -0.0714
  208MOL0     H28653   9.289   8.869   8.933 -0.6022 -0.9135 -0.1317
  208MOL0     H28654   9.254   8.618   8.796  1.3652 -3.0798 -1.9112
  208MOL0     H28655   9.295   8.612   8.631  1.2023  0.3844  0.1267
  208MOL0     H28656   9.066   8.626   8.643  0.7761 -0.6196 -1.5550
  208MOL0     H28657   9.066   8.760   8.763 -0.9507 -2.0773 -0.8689
  208MOL0     H28658   9.108   8.919   8.600 -2.0710  1.1061 -2.4107
  208MOL0     H28659   9.168   8.803   8.476 -1.3985 -2.7228 -1.3596
  208MOL0     H28660   8.869   8.830   8.559 -2.6468 -1.9635 -2.5501
  208MOL0     H28661   8.938   8.867   8.398  1.5623 -2.0853 -2.1729
  208MOL0     H28662   8.772   8.824   8.282  2.9776  0.0562 -1.3831
  208MOL0     H28663   8.496   8.788   8.100 -1.5899  1.4635  1.0283
  208MOL0     H28664   8.590   8.913   8.187  1.1312  0.3988 -2.9691
  208MOL0     H28665   8.432   8.855   8.241 -0.8330 -1.1212 -0.5332
  208MOL0     H28666   8.343   8.236   8.200 -0.7518 -3.1357 -1.0942
  208MOL0     H28667   8.154   8.084   8.166  1.7475  0.9139  2.3002
  208MOL0     H28668   7.898   8.189   8.034 -0.1796  0.3049  0.8845
  208MOL0     H28669   7.958   8.029   8.051  1.1808  1.3972  0.8538
  208MOL0     H28670   7.750   8.008   7.967 -0.2665 -0.4410  0.3629
  208MOL0     H28671   7.747   7.934   8.127  0.4423  2.2359  3.8574
  208MOL0     H28672   7.614   8.178   8.011 -2.2744 -3.1643 -1.3241
  208MOL0     H28673   7.655   8.193   8.186 -1.3997  2.8115 -1.7621
  208MOL0     H28674   7.449   8.144   8.189  0.2237  0.7257 -2.0417
  208MOL0     H28675   7.536   7.993   8.239 -0.0897 -1.1286  0.4117
  208MOL0     H28676   7.447   8.026   7.947  3.5038 -1.1276 -0.4410
  208MOL0     H28677   7.502   7.885   8.033 -0.8512  0.3097 -0.2737
  208MOL0     H28678   7.241   8.005   8.106  0.3655  1.4949  0.3057
  208MOL0     H28679   7.313   7.886   8.202 -1.3996  1.1214  0.2919
  208MOL0     H28680   7.335   7.751   7.983  1.0687  0.3211  1.0232
  208MOL0     H28681   7.236   7.870   7.911  2.0758  2.8940  0.4874
  208MOL0     H28682   7.161   7.718   8.155  3.0938  2.7722 -0.0360
  208MOL0     H28683   7.091   7.687   7.992  1.9281 -1.1512  0.4355
  208MOL0     H28684   7.887   8.325   8.373 -0.2840  0.8793 -1.0486
  208MOL0     H28685   8.085   8.488   8.431  1.9665  1.4535 -1.8820
  208MOL0     H28686   8.550   8.413   8.453  1.0192  0.2534  1.1934
  208MOL0     H28687   8.783   8.438   8.462 -1.3338 -0.7091 -0.6096
  208MOL0     H28688  10.383   9.723   8.678 -1.9990 -0.3903  0.2138
  208MOL0     H28689  10.584   9.704   8.817 -2.0477  1.2214 -1.9597
  208MOL0     H28690  10.837   9.536   9.045  1.4494 -0.1610 -0.8611
  208MOL0     H28691  11.045   9.514   9.099 -1.8609 -1.3804 -1.1789
  208MOL0     H28692  11.102   9.350   9.507 -0.9469  2.2521  1.5157
  208MOL0     H28693  11.272   9.296   9.474 -0.1603  1.0296 -0.0460
  208MOL0     H28694  11.169   9.583   9.456  1.7807  1.3957  1.8527
  208MOL0     H28695  11.320   9.534   9.403 -0.6671  1.7058 -0.8422
  208MOL0     H28696  11.303   9.425   9.661 -1.4243 -0.8849  0.2963
  208MOL0     H28697  11.379   9.584   9.623 -1.1296  0.0101 -2.1014
  208MOL0     H28698  11.083   9.548   9.693  0.4770 -0.8025 -0.7031
  208MOL0     H28699  11.159   9.694   9.644 -0.8570  0.7309  1.7376
  208MOL0     H28700  11.336   9.688  10.020  1.9387  2.5078 -2.5889
  208MOL0     H28701  10.960   9.240   9.415 -1.6178 -1.7697 -1.0084
  208MOL0     H28702  10.646   9.154   9.334  0.7005 -0.0865 -2.5053
  208MOL0     H28703  10.727   9.214   9.480 -1.5460 -3.1628  0.9948
  208MOL0     H28704  10.600   9.316   9.399  1.3363  0.0559 -1.2881
  209MOL0     O28705   7.822   7.932   0.890  0.6016  0.0318 -0.4132
  209MOL0     C28706   7.838   8.016   0.975  0.2880 -0.1403  0.4479
  209MOL0     O28707   7.823   7.998   1.110 -0.2724 -0.2948  0.7213
  209MOL0     C28708   7.810   7.867   1.165  0.3323 -0.5161  0.9525
  209MOL0     C28709   7.894   7.763   1.116  0.0599 -0.3773 -0.5942
  209MOL0     C28710   7.902   7.640   1.191 -1.1552  0.1618  0.1762
  209MOL0     C28711   7.825   7.629   1.311  0.6354  0.3160  0.9231
  209MOL0     O28712   7.832   7.526   1.398  0.5074  0.5094  0.0009
  209MOL0     C28713   7.962   7.493   1.437  0.4068  0.9270  1.3539
  209MOL0     C28714   7.966   7.394   1.559  0.2311  0.8750  0.5357
  209MOL0     C28715   7.904   7.256   1.526 -0.5705 -0.0391 -0.6957
  209MOL0     C28716   7.975   7.178   1.419  0.1782 -0.7242  0.0714
  209MOL0     C28717   7.979   7.024   1.435  0.3113  0.4499 -0.4051
  209MOL0     C28718   8.049   6.947   1.314  0.2381 -0.5668 -0.2860
  209MOL0     C28719   8.075   6.797   1.320  0.7274  0.6553 -0.6241
  209MOL0     C28720   8.125   6.747   1.459 -0.4308  0.0904 -0.9288
  209MOL0     N28721   8.092   6.605   1.477 -0.0299 -0.5358  0.3624
  209MOL0     C28722   8.181   6.507   1.513  0.6451 -0.0262 -0.4235
  209MOL0     C28723   8.139   6.388   1.462  0.4779  0.1125 -0.0555
  209MOL0     C28724   8.209   6.254   1.466  1.4508 -0.7145  0.2751
  209MOL0     C28725   8.318   6.244   1.357 -0.2250  0.1600 -0.7526
  209MOL0     C28726   8.411   6.132   1.405  0.2137  0.1397  0.6757
  209MOL0     C28727   8.550   6.138   1.334  0.6603  0.3873 -0.4969
  209MOL0     O28728   8.527   6.135   1.196 -0.6220  0.1849  0.3924
  209MOL0     C28729   8.640   6.142   1.127 -0.3139 -0.2877  0.5085
  209MOL0     C28730   8.676   6.054   1.029  0.4599 -0.8389 -0.7234
  209MOL0     C28731   8.798   6.050   0.969  0.3204  0.6223  0.4994
  209MOL0     C28732   8.827   5.930   0.881  0.0353  1.0802  0.2974
  209MOL0     C28733   8.898   6.146   1.007 -0.3802  0.8184  0.1680
  209MOL0     C28734   9.047   6.136   0.975  0.6283 -0.5492 -0.3428
  209MOL0     O28735   9.094   6.038   0.898 -0.2781 -0.5947  0.1436
  209MOL0     C28736   9.232   6.018   0.888 -0.8134 -0.8011 -0.1224
  209MOL0     C28737   9.320   6.116   0.829 -0.1006 -1.0088  0.1777
  209MOL0     C28738   9.456   6.093   0.811 -0.5152 -0.1289  0.1077
  209MOL0     C28739   9.510   5.970   0.836  1.0127 -0.2249  0.2549
  209MOL0     O28740   9.634   5.959   0.786  0.8242 -0.3101  0.0914
  209MOL0     C28741   9.709   5.835   0.795  0.0808 -0.1839 -0.1348
  209MOL0     C28742   9.841   5.858   0.723  0.2478 -0.5242  0.5611
  209MOL0     C28743   9.952   5.752   0.739  0.8044 -0.1558 -0.3802
  209MOL0     C28744  10.081   5.796   0.673  0.2771 -0.8643 -0.9598
  209MOL0     C28745  10.185   5.803   0.780 -0.3744  0.1227  0.0478
  209MOL0     C28746  10.331   5.813   0.730 -0.3432  0.6204 -0.4205
  209MOL0     C28747  10.436   5.751   0.837 -0.9064 -0.4545 -0.0341
  209MOL0     C28748  10.575   5.806   0.806 -0.3298 -0.0095 -0.7492
  209MOL0    Cl28749  10.703   5.712   0.903  0.1242  0.0501 -0.0988
  209MOL0     C28750   9.429   5.867   0.899  1.2750 -0.3021 -0.2966
  209MOL0     C28751   9.291   5.896   0.930 -0.3727 -0.0620  0.9052
  209MOL0     O28752   9.121   6.214   1.031 -0.6750 -0.5775 -0.0536
  209MOL0     C28753   8.860   6.250   1.092  0.4982 -0.4344  0.0937
  209MOL0     C28754   8.727   6.251   1.139 -0.0283  0.7615 -1.8454
  209MOL0     N28755   8.016   6.418   1.394  0.3041  0.2905 -0.3695
  209MOL0     N28756   7.987   6.540   1.414  0.5248  0.3831 -0.2583
  209MOL0     C28757   7.745   7.740   1.359  0.1140 -0.6226  0.3699
  209MOL0     C28758   7.732   7.856   1.284  0.0907  0.1536  1.1762
  209MOL0     C28759   7.886   8.153   0.926  0.8604  0.0250  0.6229
  209MOL0     C28760   7.931   8.246   1.028 -0.2564 -0.1915 -0.1556
  209MOL0     C28761   7.951   8.384   0.998  1.1785  0.8108 -0.2642
  209MOL0     C28762   7.948   8.426   0.862  1.7916  0.3679  0.0126
  209MOL0     O28763   7.966   8.558   0.828 -0.6757 -0.6808 -0.4223
  209MOL0     C28764   8.089   8.610   0.879 -0.3714 -1.4522  0.4484
  209MOL0     C28765   8.158   8.665   0.745 -0.6843  0.0065 -0.8264
  209MOL0     C28766   8.270   8.770   0.765  0.4154  0.6837  0.4475
  209MOL0     C28767   8.389   8.719   0.853  1.0653  0.3737  0.4066
  209MOL0     C28768   8.468   8.617   0.789  0.4238  0.2162 -0.1731
  209MOL0     C28769   8.517   8.537   0.724  0.0751 -0.2196  0.3685
  209MOL0     C28770   7.932   8.337   0.763  0.8850 -0.3131 -0.7408
  209MOL0     C28771   7.896   8.200   0.790  0.3638 -0.1127 -0.7400
  209MOL0     C28772   7.844   8.110   0.675  0.0494  0.3851 -0.3442
  209MOL0     H28773   7.944   7.764   1.020 -0.6849 -1.2978 -1.0149
  209MOL0     H28774   7.962   7.556   1.157 -0.4452  2.3393 -4.7461
  209MOL0     H28775   8.006   7.587   1.472 -0.1750  1.5269  0.5090
  209MOL0     H28776   8.017   7.448   1.354  0.2531 -3.1918  3.2510
  209MOL0     H28777   8.071   7.375   1.584  0.4523  2.6695  1.1826
  209MOL0     H28778   7.927   7.439   1.651  1.3389  0.0046  1.4632
  209MOL0     H28779   7.903   7.196   1.617 -2.0085 -0.2534 -0.8381
  209MOL0     H28780   7.798   7.259   1.500 -0.9625 -1.3596  0.6539
  209MOL0     H28781   7.930   7.201   1.322  1.1507 -0.8010 -0.4125
  209MOL0     H28782   8.078   7.215   1.419  0.0035  0.0001  2.9753
  209MOL0     H28783   7.879   6.980   1.439  0.9231 -0.9337  0.7427
  209MOL0     H28784   8.020   6.995   1.533  1.4676 -3.4539 -1.8381
  209MOL0     H28785   8.003   6.985   1.222 -0.5031  1.8313  0.9925
  209MOL0     H28786   8.152   6.981   1.299  0.4583 -1.7167 -1.5313
  209MOL0     H28787   8.142   6.783   1.236  1.9029 -1.2081  0.5588
  209MOL0     H28788   7.982   6.745   1.293  1.2317 -0.4914 -0.1943
  209MOL0     H28789   8.232   6.769   1.464  0.0307 -1.7511 -1.8915
  209MOL0     H28790   8.074   6.795   1.543  3.3916  1.2187  0.9561
  209MOL0     H28791   8.274   6.521   1.568  0.1209 -0.1231  0.5167
  209MOL0     H28792   8.137   6.172   1.462 -1.6638  1.8184 -2.9961
  209MOL0     H28793   8.258   6.252   1.564  0.1413 -0.1881  0.9706
  209MOL0     H28794   8.266   6.222   1.263 -0.9561 -0.2409 -0.2672
  209MOL0     H28795   8.372   6.339   1.356  0.1008  0.0225  1.3255
  209MOL0     H28796   8.434   6.132   1.512  2.9597 -0.7502  0.1646
  209MOL0     H28797   8.351   6.041   1.394  1.5749 -0.7629  0.5410
  209MOL0     H28798   8.605   6.229   1.362 -1.7535  3.0084 -3.4914
  209MOL0     H28799   8.603   6.047   1.362 -0.4180 -0.7699 -2.0529
  209MOL0     H28800   8.601   5.976   1.032 -1.1864  0.7029  2.1169
  209MOL0     H28801   8.876   5.860   0.949 -1.0818 -1.2320 -1.1496
  209MOL0     H28802   8.893   5.945   0.795 -0.0667 -4.1196 -1.0406
  209MOL0     H28803   8.730   5.887   0.853  1.7865 -1.8140 -1.8977
  209MOL0     H28804   9.268   6.210   0.812  2.5763  0.4671 -0.2965
  209MOL0     H28805   9.530   6.164   0.775  2.9944 -1.7894  3.2839
  209MOL0     H28806   9.720   5.815   0.903 -0.1295 -3.7175 -0.6456
  209MOL0     H28807   9.664   5.743   0.757 -1.9117  1.1465 -1.1346
  209MOL0     H28808   9.830   5.860   0.614  2.3127 -0.0806  0.3161
  209MOL0     H28809   9.886   5.952   0.757 -2.3134  0.4205  1.6081
  209MOL0     H28810   9.923   5.653   0.702  0.5359  0.5617 -2.1814
  209MOL0     H28811   9.966   5.746   0.847  2.3962  3.8682 -0.1758
  209MOL0     H28812  10.081   5.901   0.641 -1.9061 -0.3647  0.4804
  209MOL0     H28813  10.106   5.736   0.585  3.8528 -0.1840 -0.5450
  209MOL0     H28814  10.171   5.887   0.848 -2.7614 -0.7489  0.7506
  209MOL0     H28815  10.180   5.710   0.839  2.9572 -0.6492 -0.6681
  209MOL0     H28816  10.351   5.916   0.702  0.0451  0.9115  0.8448
  209MOL0     H28817  10.338   5.746   0.643  1.3448 -2.9000  2.1524
  209MOL0     H28818  10.434   5.642   0.822 -1.8014 -0.2237 -1.9384
  209MOL0     H28819  10.418   5.772   0.943 -1.6690 -1.3516  0.0316
  209MOL0     H28820  10.582   5.914   0.818  0.4957 -0.0337 -1.0076
  209MOL0     H28821  10.598   5.786   0.701 -0.2336 -1.9396 -0.4058
  209MOL0     H28822   9.464   5.768   0.927  1.5308 -0.2599 -0.4564
  209MOL0     H28823   9.218   5.829   0.974 -2.8125 -0.4266 -3.1501
  209MOL0     H28824   8.921   6.328   1.133 -2.1333  2.3701 -0.9347
  209MOL0     H28825   8.705   6.331   1.209 -3.6405  0.6347 -2.6442
  209MOL0     H28826   7.681   7.745   1.447  2.1886  1.0613  1.8708
  209MOL0     H28827   7.679   7.944   1.319  1.2138  1.0593  0.6408
  209MOL0     H28828   7.939   8.213   1.131  1.6669  0.4446 -0.0598
  209MOL0     H28829   7.972   8.451   1.081 -1.3313  0.9029  0.3544
  209MOL0     H28830   8.085   8.679   0.964  1.4186 -1.7564  0.8081
  209MOL0     H28831   8.155   8.533   0.919 -0.2709 -0.2675  2.7311
  209MOL0     H28832   8.095   8.716   0.671  2.6760  2.7251 -2.0989
  209MOL0     H28833   8.202   8.577   0.698  2.7266  0.0085  2.0111
  209MOL0     H28834   8.297   8.777   0.659 -1.7030 -1.6908 -0.3698
  209MOL0     H28835   8.245   8.863   0.816  3.2027  1.7612 -0.0268
  209MOL0     H28836   8.354   8.668   0.943  1.2820 -1.8819 -0.7126
  209MOL0     H28837   8.447   8.805   0.887 -0.1796  1.2970  0.2748
  209MOL0     H28838   8.566   8.473   0.652  1.5609  1.1592  0.0900
  209MOL0     H28839   7.961   8.370   0.665  3.0809 -0.1217 -0.0777
  209MOL0     H28840   7.874   8.161   0.583  0.8126  1.5978  0.5343
  209MOL0     H28841   7.877   8.006   0.674 -1.5123 -0.1420 -2.0105
  209MOL0     H28842   7.736   8.107   0.661 -0.2918  0.9460  1.7562
  210MOL0     O28843   1.826   2.802   8.382 -0.4113  0.6960  0.8495
  210MOL0     C28844   1.722   2.852   8.425  0.1887  0.1376  0.2846
  210MOL0     O28845   1.662   2.836   8.551  0.5852  0.0004  0.1004
  210MOL0     C28846   1.692   2.722   8.619  0.0545 -0.8949 -0.1393
  210MOL0     C28847   1.649   2.600   8.581  0.1293 -0.4143  0.3005
  210MOL0     C28848   1.673   2.487   8.653 -0.1342 -0.5531 -0.3896
  210MOL0     C28849   1.747   2.493   8.777 -0.1864 -0.6116 -0.2485
  210MOL0     O28850   1.766   2.390   8.876  0.5777 -0.4447 -0.0542
  210MOL0     C28851   1.698   2.268   8.849  0.6373 -0.4695  0.1266
  210MOL0     C28852   1.741   2.179   8.965 -0.2707  0.0091 -0.5259
  210MOL0     C28853   1.636   2.064   8.995 -0.4409 -0.4622  0.7406
  210MOL0     C28854   1.499   2.105   9.035  1.0385  1.4894 -0.1800
  210MOL0     C28855   1.415   1.988   9.085 -0.0011  0.0908 -0.4406
  210MOL0     C28856   1.377   1.891   8.977 -0.6325  0.3485 -0.1996
  210MOL0     C28857   1.228   1.855   8.972 -0.7497 -0.4531  0.3483
  210MOL0     C28858   1.189   1.772   9.092  0.9863  0.1998  0.1826
  210MOL0     N28859   1.166   1.861   9.204 -0.4021  0.4068  0.7794
  210MOL0     C28860   1.223   1.840   9.329  0.3227  0.3745 -0.3271
  210MOL0     C28861   1.136   1.909   9.407 -0.2800  1.7795  0.4767
  210MOL0     C28862   1.132   1.927   9.569 -0.3809  0.4921 -0.4331
  210MOL0     C28863   1.021   1.838   9.631 -0.1674  1.4292 -0.4370
  210MOL0     C28864   1.051   1.690   9.661  0.5060 -0.2808  0.2437
  210MOL0     C28865   0.919   1.619   9.695 -0.1535 -0.4453  0.0617
  210MOL0     O28866   0.934   1.495   9.764  0.5740  0.5022 -0.4591
  210MOL0     C28867   0.957   1.374   9.697  0.4640  0.5063 -0.4928
  210MOL0     C28868   0.981   1.269   9.782  0.0842 -0.3202 -0.3721
  210MOL0     C28869   0.985   1.136   9.739  0.3751 -0.5681 -0.2502
  210MOL0     C28870   1.007   1.028   9.842 -0.7091 -1.2415 -0.8429
  210MOL0     C28871   0.963   1.114   9.592  0.1602  0.6144 -0.5325
  210MOL0     C28872   0.955   0.981   9.520  0.6168  0.2931 -1.1000
  210MOL0     O28873   0.987   0.870   9.594  0.1957 -0.9179  1.1385
  210MOL0     C28874   1.019   0.747   9.539 -0.1012  0.2858 -0.1423
  210MOL0     C28875   0.980   0.628   9.605  0.2855  0.5003  0.8147
  210MOL0     C28876   1.009   0.501   9.553  0.2358  0.1711  0.0306
  210MOL0     C28877   1.093   0.487   9.437 -0.3825  0.0995  0.1294
  210MOL0     O28878   1.123   0.353   9.403  0.0774 -0.6830 -0.6149
  210MOL0     C28879   1.191   0.324   9.284  0.2205 -0.7458 -0.7541
  210MOL0     C28880   1.215   0.176   9.252 -0.0084  0.8229 -0.5034
  210MOL0     C28881   1.249   0.103   9.382 -0.7013  0.5144  0.3275
  210MOL0     C28882   1.364   0.175   9.463 -0.0105 -0.6782 -0.4147
  210MOL0     C28883   1.409   0.070   9.566 -0.1949  0.2795 -0.2267
  210MOL0     C28884   1.518   0.130   9.657 -0.2415  0.1766  0.4141
  210MOL0     C28885   1.593   0.018   9.736 -0.6108  0.1357  0.0188
  210MOL0     C28886   1.677   0.082   9.843  0.0316 -0.4323 -0.0324
  210MOL0    Cl28887   1.841   0.163   9.791  0.0042 -0.2275  0.2077
  210MOL0     C28888   1.138   0.608   9.380 -0.1905  1.3233 -0.3713
  210MOL0     C28889   1.096   0.734   9.429 -0.9348  0.1600 -0.1129
  210MOL0     O28890   0.919   0.982   9.404  0.2675 -0.2290 -0.9216
  210MOL0     C28891   0.947   1.220   9.511  0.4355  0.2640 -0.3923
  210MOL0     C28892   0.939   1.353   9.558 -0.3767  0.1548  0.6881
  210MOL0     N28893   1.041   1.980   9.329 -0.5993  0.3125 -0.1445
  210MOL0     N28894   1.058   1.943   9.207 -0.4633 -0.2649 -0.1142
  210MOL0     C28895   1.793   2.611   8.817  0.2677 -1.1986 -0.9401
  210MOL0     C28896   1.764   2.727   8.741  0.2228 -0.7734  0.1462
  210MOL0     C28897   1.667   2.954   8.334 -0.4475 -0.8696  0.3579
  210MOL0     C28898   1.757   3.014   8.245  0.9304  0.3394  0.7811
  210MOL0     C28899   1.722   3.120   8.168  0.9386 -0.5119 -0.0978
  210MOL0     C28900   1.592   3.179   8.167  0.2739  0.5262  0.5598
  210MOL0     O28901   1.561   3.290   8.084  0.4159 -0.0683  0.3044
  210MOL0     C28902   1.450   3.375   8.123 -0.9602  0.2365  0.6720
  210MOL0     C28903   1.477   3.443   8.263 -0.4676  0.1030  0.4870
  210MOL0     C28904   1.613   3.522   8.254  0.1546 -0.0027  0.0275
  210MOL0     C28905   1.637   3.583   8.404 -0.0787 -0.6459  0.3882
  210MOL0     C28906   1.553   3.703   8.430  0.8862  0.7028  0.2516
  210MOL0     C28907   1.494   3.809   8.443  0.1986  0.6282 -0.5995
  210MOL0     C28908   1.496   3.122   8.255 -0.6434  0.1347 -0.0331
  210MOL0     C28909   1.535   3.010   8.333 -0.3792  0.0312 -0.6030
  210MOL0     C28910   1.432   2.946   8.423 -0.3930 -0.0870  0.1154
  210MOL0     H28911   1.603   2.587   8.484 -1.4459 -0.9844  1.0817
  210MOL0     H28912   1.624   2.392   8.633  0.4083 -1.3908  1.8657
  210MOL0     H28913   1.718   2.233   8.747  3.8015  1.0624  0.0875
  210MOL0     H28914   1.592   2.285   8.868  0.2927 -0.0178 -1.9929
  210MOL0     H28915   1.842   2.142   8.945  0.7352  0.6470  2.7645
  210MOL0     H28916   1.754   2.232   9.059 -2.2610 -1.7165  0.8206
  210MOL0     H28917   1.626   2.000   8.907 -2.6454  2.6640 -1.5318
  210MOL0     H28918   1.677   2.006   9.078 -1.7178 -1.3386  0.7966
  210MOL0     H28919   1.505   2.194   9.098 -0.1342  0.6539  1.1788
  210MOL0     H28920   1.445   2.138   8.945 -1.3462  0.9350  0.9730
  210MOL0     H28921   1.329   2.046   9.117  0.0589 -1.0709  2.0762
  210MOL0     H28922   1.453   1.928   9.168 -3.0896 -0.5123  0.6730
  210MOL0     H28923   1.390   1.934   8.878  0.7648  1.2659  0.3573
  210MOL0     H28924   1.429   1.795   8.986 -3.1356 -1.1965 -1.2438
  210MOL0     H28925   1.194   1.790   8.891 -2.1766 -1.6210  1.8204
  210MOL0     H28926   1.176   1.950   8.961  1.5646  1.1067  2.0101
  210MOL0     H28927   1.099   1.714   9.067  0.4118 -0.0262  2.5933
  210MOL0     H28928   1.265   1.694   9.099  1.8100  0.1954 -4.9307
  210MOL0     H28929   1.307   1.774   9.349 -1.5569 -1.8146  0.8226
  210MOL0     H28930   1.128   2.033   9.598  2.7010  0.6751 -0.3206
  210MOL0     H28931   1.232   1.891   9.596 -0.9077 -1.1052 -0.5187
  210MOL0     H28932   0.969   1.880   9.718  0.6449  1.6000 -0.0299
  210MOL0     H28933   0.943   1.838   9.554 -0.3236 -2.7416 -0.4853
  210MOL0     H28934   1.097   1.641   9.575  0.0985 -1.9926  0.9580
  210MOL0     H28935   1.121   1.678   9.744  1.7519 -0.6190 -0.8281
  210MOL0     H28936   0.856   1.676   9.765 -2.4408 -1.7277 -0.8274
  210MOL0     H28937   0.850   1.607   9.611 -2.2976 -0.4319  1.7259
  210MOL0     H28938   0.989   1.300   9.885 -1.6534  0.7695 -0.5267
  210MOL0     H28939   0.972   1.054   9.943  0.5993 -1.0057 -0.4357
  210MOL0     H28940   1.112   0.998   9.848 -0.3391 -0.1543 -1.5884
  210MOL0     H28941   0.947   0.940   9.814  1.9411 -3.7593  0.8394
  210MOL0     H28942   0.916   0.616   9.692 -2.2809 -4.4023 -1.3415
  210MOL0     H28943   0.978   0.416   9.612  0.9039 -0.2073 -0.1522
  210MOL0     H28944   1.127   0.358   9.201 -0.2448 -1.2019 -0.5840
  210MOL0     H28945   1.286   0.377   9.283  0.9845 -2.0489 -2.2089
  210MOL0     H28946   1.114   0.140   9.230 -0.7152 -0.9728  4.5196
  210MOL0     H28947   1.284   0.153   9.170  1.6532  1.9038  0.5310
  210MOL0     H28948   1.289   0.006   9.350  2.1409  1.4604  0.7589
  210MOL0     H28949   1.169   0.079   9.452 -2.4656  1.5209 -1.2485
  210MOL0     H28950   1.334   0.265   9.517 -0.5974  0.3118 -2.3114
  210MOL0     H28951   1.441   0.212   9.394 -1.6514 -0.4020 -2.1681
  210MOL0     H28952   1.319   0.028   9.611  0.4766 -2.6526 -1.4073
  210MOL0     H28953   1.447  -0.014   9.507 -0.5948  0.1592 -0.3175
  210MOL0     H28954   1.472   0.197   9.731 -0.4778 -0.1756  0.5893
  210MOL0     H28955   1.594   0.186   9.602 -0.7884  0.7455  0.2270
  210MOL0     H28956   1.642  -0.051   9.665 -0.5889 -1.9160  1.9162
  210MOL0     H28957   1.513  -0.030   9.793  1.1625 -0.7824  1.8506
  210MOL0     H28958   1.700   0.004   9.916  3.6198  1.1049  0.6763
  210MOL0     H28959   1.632   0.165   9.898  3.1636  1.1902  0.3296
  210MOL0     H28960   1.202   0.600   9.292 -1.2149 -0.2560 -1.0108
  210MOL0     H28961   1.128   0.819   9.370  3.6492  0.3468  2.1587
  210MOL0     H28962   0.923   1.219   9.405 -0.0971  4.4062 -0.4896
  210MOL0     H28963   0.934   1.428   9.479  5.3464  1.2219  0.9494
  210MOL0     H28964   1.831   2.619   8.918  2.2662  0.1065 -1.7297
  210MOL0     H28965   1.810   2.820   8.774  1.8938 -2.0025  1.4551
  210MOL0     H28966   1.860   2.982   8.238  1.4312  1.7742  1.3713
  210MOL0     H28967   1.805   3.160   8.111 -0.0409  0.3870 -0.9352
  210MOL0     H28968   1.435   3.446   8.041  0.5254 -1.4185 -1.1152
  210MOL0     H28969   1.364   3.310   8.142  0.2134 -1.9033 -0.9695
  210MOL0     H28970   1.484   3.370   8.344  0.3265 -0.4921 -0.0965
  210MOL0     H28971   1.391   3.509   8.276 -0.2528  0.6701 -0.8513
  210MOL0     H28972   1.697   3.454   8.237 -2.1477 -3.1487  0.3482
  210MOL0     H28973   1.601   3.591   8.169  0.2087 -1.1103 -0.9051
  210MOL0     H28974   1.741   3.617   8.411 -0.8641  3.9536 -4.4023
  210MOL0     H28975   1.612   3.514   8.486 -3.7873  2.1644  1.9114
  210MOL0     H28976   1.451   3.906   8.457  3.3935  2.1180 -0.2796
  210MOL0     H28977   1.396   3.164   8.266 -0.8320 -0.4139  0.4473
  210MOL0     H28978   1.455   2.977   8.525  0.9553  3.0100 -1.0083
  210MOL0     H28979   1.329   2.972   8.399 -0.3257 -1.7349 -2.3179
  210MOL0     H28980   1.447   2.838   8.413  0.8389  0.2011 -1.6478
  211MOL0     O28981   8.675  10.503   0.977 -0.3429 -0.2093  0.0310
  211MOL0     C28982   8.695  10.624   0.986 -0.0646  0.2322 -0.5266
  211MOL0     O28983   8.788  10.677   1.070  0.6250 -0.1570 -0.2481
  211MOL0     C28984   8.847  10.604   1.164 -0.4955 -0.2106 -0.2457
  211MOL0     C28985   8.807  10.486   1.224 -0.3069  0.0616  0.4181
  211MOL0     C28986   8.894  10.419   1.306 -0.1480 -0.3000 -0.1363
  211MOL0     C28987   9.034  10.456   1.323  0.4429 -0.2407 -0.4372
  211MOL0     O28988   9.113  10.388   1.402 -0.4566 -0.0819 -0.2714
  211MOL0     C28989   9.151  10.261   1.347  0.6319  0.5162 -0.2224
  211MOL0     C28990   9.263  10.183   1.420 -0.3245 -0.1393 -0.3869
  211MOL0     C28991   9.374  10.295   1.450 -0.2958 -0.0259  0.0935
  211MOL0     C28992   9.506  10.211   1.454 -0.2709  0.2010 -0.0158
  211MOL0     C28993   9.529  10.157   1.598  0.3152 -0.1596 -0.6275
  211MOL0     C28994   9.660  10.080   1.620  0.0048  0.1277  0.2942
  211MOL0     C28995   9.668   9.939   1.546  0.6835  0.1445 -0.2418
  211MOL0     C28996   9.791   9.852   1.589 -0.0576  0.2568 -0.0130
  211MOL0     N28997   9.795   9.711   1.536 -0.2238 -0.5852 -0.0740
  211MOL0     C28998   9.912   9.637   1.550  0.1541  0.0690  0.4229
  211MOL0     C28999   9.890   9.523   1.485 -0.0867  0.0611  0.7039
  211MOL0     C29000   9.988   9.415   1.438  0.6335 -0.6788 -0.4990
  211MOL0     C29001  10.053   9.445   1.304  0.4858  0.5544 -0.2876
  211MOL0     C29002  10.172   9.347   1.272  0.1607 -0.0895 -1.1684
  211MOL0     C29003  10.131   9.222   1.203  0.3008  0.1700  0.5711
  211MOL0     O29004  10.242   9.133   1.202 -0.2284 -0.1204  0.0034
  211MOL0     C29005  10.254   9.046   1.093  0.2216 -0.7480 -0.4836
  211MOL0     C29006  10.153   9.025   0.995  0.0162 -0.2021  0.4899
  211MOL0     C29007  10.172   8.943   0.885  0.4276 -0.4984 -0.1865
  211MOL0     C29008  10.048   8.920   0.799 -0.1103 -0.5260  0.5131
  211MOL0     C29009  10.299   8.892   0.864  0.2896  0.6565  0.5803
  211MOL0     C29010  10.332   8.801   0.748  0.1011  0.2820  0.3600
  211MOL0     O29011  10.445   8.723   0.759 -0.4570  0.3422 -0.6537
  211MOL0     C29012  10.508   8.663   0.650  0.2550 -0.8299 -0.2808
  211MOL0     C29013  10.501   8.697   0.517 -0.1067 -0.7099  0.1832
  211MOL0     C29014  10.558   8.628   0.416 -0.4831  0.1273  1.2157
  211MOL0     C29015  10.647   8.519   0.439 -0.7740  0.0178 -0.2686
  211MOL0     O29016  10.696   8.441   0.338  0.5008  0.2417  0.3834
  211MOL0     C29017  10.624   8.451   0.209  0.2320  0.3123 -0.3669
  211MOL0     C29018  10.677   8.332   0.132  0.3506 -0.3574  0.0646
  211MOL0     C29019  10.573   8.322   0.020 -0.6457  0.3912  0.2294
  211MOL0     C29020  10.569   8.438  -0.082 -0.4804 -0.3649 -0.4680
  211MOL0     C29021  10.464   8.416  -0.195 -0.0366 -0.5245 -0.2022
  211MOL0     C29022  10.308   8.398  -0.154 -0.0154  0.2371 -0.5011
  211MOL0     C29023  10.248   8.538  -0.113 -0.4687 -1.0124 -0.1674
  211MOL0     C29024  10.105   8.554  -0.157  0.9017  0.0277  0.2607
  211MOL0    Cl29025  10.009   8.423  -0.065  0.2280  0.3758 -0.3646
  211MOL0     C29026  10.664   8.482   0.580  0.1282 -1.3075  1.0808
  211MOL0     C29027  10.592   8.545   0.679  0.1436 -0.4458 -1.3908
  211MOL0     O29028  10.271   8.815   0.643 -0.4051 -0.1110  0.5871
  211MOL0     C29029  10.403   8.910   0.966 -0.1510 -0.7216 -0.5158
  211MOL0     C29030  10.383   8.993   1.081  0.2533 -0.9618  0.2290
  211MOL0     N29031   9.762   9.524   1.442 -0.2026  0.5597 -0.0003
  211MOL0     N29032   9.699   9.630   1.480 -0.7516  0.1703 -0.1719
  211MOL0     C29033   9.069  10.577   1.258 -0.8899 -0.0298  0.9318
  211MOL0     C29034   8.982  10.650   1.180  0.8846  0.5926 -0.7426
  211MOL0     C29035   8.612  10.715   0.902 -0.5584 -0.7763 -0.0478
  211MOL0     C29036   8.620  10.850   0.931  0.5185 -0.2670  0.1003
  211MOL0     C29037   8.530  10.937   0.868 -1.0366  0.0746 -0.6981
  211MOL0     C29038   8.443  10.906   0.771  0.3188  0.0919  0.0076
  211MOL0     O29039   8.360  11.011   0.727  0.2367 -0.5345 -0.5640
  211MOL0     C29040   8.235  10.975   0.670  0.6055 -0.1591 -0.5878
  211MOL0     C29041   8.179  11.110   0.625  0.6077 -0.3233  0.5827
  211MOL0     C29042   8.140  11.199   0.743  0.7853 -0.3432 -0.5277
  211MOL0     C29043   8.008  11.143   0.825 -1.1948  0.7039 -0.4020
  211MOL0     C29044   7.941  11.260   0.884  0.2212  0.2435  0.0222
  211MOL0     C29045   7.911  11.353   0.949 -0.7170 -0.3645 -0.4055
  211MOL0     C29046   8.436  10.772   0.736  1.6995 -1.3109 -0.0067
  211MOL0     C29047   8.518  10.676   0.804 -0.4658 -0.8160 -0.2682
  211MOL0     C29048   8.494  10.532   0.753  0.5238 -0.1669 -0.0604
  211MOL0     H29049   8.705  10.453   1.206 -1.1070  1.5057  2.1151
  211MOL0     H29050   8.853  10.324   1.337 -1.9591  0.5109  0.1226
  211MOL0     H29051   9.183  10.276   1.243  3.9148 -0.3744  0.5502
  211MOL0     H29052   9.062  10.199   1.335 -0.8722  2.2418  1.3238
  211MOL0     H29053   9.227  10.154   1.519  0.9620  2.3555  0.8960
  211MOL0     H29054   9.297  10.096   1.362 -0.8204 -0.6863  0.1309
  211MOL0     H29055   9.360  10.362   1.365 -1.6783 -3.3663 -2.5809
  211MOL0     H29056   9.336  10.347   1.538 -3.5547  1.3948 -1.9301
  211MOL0     H29057   9.513  10.130   1.381  3.8989  0.9147 -0.6874
  211MOL0     H29058   9.597  10.269   1.431  0.4221  0.3283  2.7144
  211MOL0     H29059   9.448  10.083   1.605  0.5872 -0.5029 -1.0797
  211MOL0     H29060   9.512  10.231   1.677 -1.2652 -2.2858  1.1722
  211MOL0     H29061   9.734  10.152   1.583 -2.0401  1.1200 -2.1170
  211MOL0     H29062   9.671  10.068   1.728 -4.0857 -0.4966  0.8054
  211MOL0     H29063   9.672   9.958   1.439 -2.8277 -2.3615 -0.9843
  211MOL0     H29064   9.576   9.887   1.573 -0.0662  1.3778 -0.3445
  211MOL0     H29065   9.881   9.909   1.568 -0.2097  0.7611  0.6527
  211MOL0     H29066   9.784   9.848   1.699 -1.4731  0.4193 -0.0675
  211MOL0     H29067  10.003   9.668   1.600  0.4162  2.4111 -1.3265
  211MOL0     H29068   9.943   9.316   1.427 -0.9534  0.1905 -2.3730
  211MOL0     H29069  10.064   9.396   1.514  1.3598  0.4190 -0.9260
  211MOL0     H29070   9.984   9.448   1.219  1.6610  1.8207 -1.2417
  211MOL0     H29071  10.094   9.546   1.308  0.8488  0.5432 -2.3795
  211MOL0     H29072  10.248   9.387   1.205  1.9714 -0.6297  0.4710
  211MOL0     H29073  10.220   9.310   1.363 -1.7776 -2.8881 -1.1494
  211MOL0     H29074  10.052   9.174   1.262  0.9012  0.8521  1.9769
  211MOL0     H29075  10.095   9.242   1.102  2.2384 -1.8334 -0.6071
  211MOL0     H29076  10.051   9.042   1.030  0.5758 -0.6847  2.5153
  211MOL0     H29077   9.956   8.949   0.851  1.0427  1.1855  1.6654
  211MOL0     H29078  10.050   8.817   0.761  0.0799  0.7141 -3.3284
  211MOL0     H29079  10.037   8.983   0.711 -1.3437 -0.1743  0.8945
  211MOL0     H29080  10.440   8.782   0.487 -0.0411 -0.1995  1.4322
  211MOL0     H29081  10.538   8.669   0.317  1.7419 -1.3309  0.0501
  211MOL0     H29082  10.516   8.444   0.226  0.4151  0.0595  0.8292
  211MOL0     H29083  10.652   8.551   0.174 -1.1861  2.9181  4.8562
  211MOL0     H29084  10.779   8.337   0.093 -0.6143  0.1156 -2.5602
  211MOL0     H29085  10.664   8.241   0.192  0.9536 -0.8335 -0.5078
  211MOL0     H29086  10.473   8.306   0.060 -1.1207 -0.6045 -1.2794
  211MOL0     H29087  10.608   8.238  -0.041  1.7015  0.6103  1.1760
  211MOL0     H29088  10.668   8.440  -0.128 -1.3331 -0.1058 -2.3548
  211MOL0     H29089  10.548   8.532  -0.030  0.3806 -1.0730  1.2864
  211MOL0     H29090  10.478   8.502  -0.261  2.0098  0.0374  0.8641
  211MOL0     H29091  10.489   8.325  -0.251  2.2448  0.5795 -1.0966
  211MOL0     H29092  10.290   8.312  -0.089  0.5480 -0.3028 -1.0522
  211MOL0     H29093  10.255   8.369  -0.245 -0.7889  1.3903 -0.4434
  211MOL0     H29094  10.308   8.615  -0.163 -3.3022  0.8891 -0.9130
  211MOL0     H29095  10.270   8.552  -0.007  0.6759 -3.2182 -0.0540
  211MOL0     H29096  10.093   8.549  -0.266 -2.5911 -0.4336  0.5375
  211MOL0     H29097  10.075   8.654  -0.125 -0.2957  0.2642 -1.4151
  211MOL0     H29098  10.725   8.403   0.625  2.7043  1.1567  2.2792
  211MOL0     H29099  10.608   8.505   0.778 -1.7276  2.8418  0.4240
  211MOL0     H29100  10.499   8.859   0.966  0.6615  0.5109  3.2012
  211MOL0     H29101  10.462   9.010   1.152 -0.0644  2.5588 -0.0884
  211MOL0     H29102   9.175  10.597   1.270 -0.6926 -1.3234  1.5509
  211MOL0     H29103   9.006  10.745   1.135  0.6625  0.8762 -0.2711
  211MOL0     H29104   8.689  10.903   0.996 -2.1243  3.9609 -0.1682
  211MOL0     H29105   8.534  11.041   0.899 -0.8128 -0.1729  0.1166
  211MOL0     H29106   8.247  10.914   0.580  0.5601  2.6556 -2.6472
  211MOL0     H29107   8.178  10.922   0.746  3.8938 -0.9609  1.5443
  211MOL0     H29108   8.091  11.093   0.561  1.7675  0.6837 -1.3771
  211MOL0     H29109   8.262  11.151   0.567 -0.5983  0.1321 -0.8959
  211MOL0     H29110   8.227  11.205   0.808  1.4991 -3.1363 -1.0971
  211MOL0     H29111   8.115  11.296   0.698  1.5856 -0.0261 -0.3054
  211MOL0     H29112   8.038  11.061   0.891 -1.1934 -0.3056 -1.5981
  211MOL0     H29113   7.943  11.089   0.755  1.0973 -1.0533 -1.3145
  211MOL0     H29114   7.887  11.402   1.041  2.2146  1.1856 -0.3461
  211MOL0     H29115   8.347  10.749   0.678 -1.8621  2.3694  3.3828
  211MOL0     H29116   8.586  10.478   0.730  0.4742  0.4203 -1.7294
  211MOL0     H29117   8.440  10.471   0.826 -0.1270 -0.6499 -0.9193
  211MOL0     H29118   8.433  10.526   0.662  0.0093 -1.8937  0.3526
  212MOL0     O29119   8.089   8.905   5.107  0.2580 -1.0071 -0.6936
  212MOL0     C29120   8.105   9.030   5.100  0.1318  0.7237 -0.3911
  212MOL0     O29121   8.013   9.121   5.124 -0.3315 -0.2606  0.3762
  212MOL0     C29122   7.889   9.100   5.177  0.4871 -0.1934 -0.0982
  212MOL0     C29123   7.803   9.007   5.121  0.1427 -0.4308 -0.7120
  212MOL0     C29124   7.672   8.989   5.167 -0.8896  0.7648  0.5764
  212MOL0     C29125   7.627   9.041   5.287  0.2832  0.1898 -0.1404
  212MOL0     O29126   7.505   9.013   5.353 -0.4395  0.5751 -0.3392
  212MOL0     C29127   7.444   8.892   5.329 -0.5237  0.2051  0.6526
  212MOL0     C29128   7.333   8.874   5.441  0.1434  0.3352  0.3915
  212MOL0     C29129   7.255   8.751   5.436  0.2807  0.3165 -0.3979
  212MOL0     C29130   7.293   8.640   5.537 -0.3643 -0.2750 -0.7781
  212MOL0     C29131   7.179   8.536   5.554 -0.2496 -1.1385  0.2389
  212MOL0     C29132   7.129   8.487   5.415  0.2558  0.2944 -0.6217
  212MOL0     C29133   7.024   8.371   5.428 -0.5161 -0.0349 -1.1017
  212MOL0     C29134   6.957   8.363   5.292  0.0422  0.9431 -0.1966
  212MOL0     N29135   6.859   8.251   5.285  0.1651 -0.2933  0.3441
  212MOL0     C29136   6.722   8.275   5.265 -0.9150 -0.0633 -0.4424
  212MOL0     C29137   6.661   8.156   5.282  1.1695  0.0003  0.0791
  212MOL0     C29138   6.513   8.130   5.264 -0.1638 -0.2900  0.3992
  212MOL0     C29139   6.429   8.175   5.377 -0.9475  0.7277 -0.1652
  212MOL0     C29140   6.432   8.077   5.495 -0.4941 -0.3283 -0.3029
  212MOL0     C29141   6.293   8.000   5.503 -0.5711 -0.6538  0.0578
  212MOL0     O29142   6.298   7.905   5.400  0.5078 -0.0733  0.3467
  212MOL0     C29143   6.344   7.787   5.428  0.2916  0.0923 -0.2470
  212MOL0     C29144   6.280   7.683   5.506 -0.8072 -0.4494  0.4251
  212MOL0     C29145   6.342   7.565   5.546  0.6480 -0.5060 -0.5903
  212MOL0     C29146   6.253   7.466   5.616  0.2565  0.8514  0.2500
  212MOL0     C29147   6.482   7.546   5.515  0.1550  1.0278 -0.5160
  212MOL0     C29148   6.556   7.427   5.560 -1.2020 -0.9353 -0.7841
  212MOL0     O29149   6.685   7.430   5.530  0.6013  0.2598  1.5341
  212MOL0     C29150   6.764   7.329   5.566 -0.8844  0.0961  0.1805
  212MOL0     C29151   6.882   7.358   5.639  0.4366 -0.6058 -0.8889
  212MOL0     C29152   6.984   7.268   5.667 -0.1494 -0.2105 -0.9700
  212MOL0     C29153   6.972   7.137   5.614 -0.5428 -0.8307 -1.5704
  212MOL0     O29154   7.079   7.049   5.627 -0.5697 -0.1136  0.0084
  212MOL0     C29155   7.032   6.925   5.689 -0.1362  0.1598  1.2975
  212MOL0     C29156   7.141   6.862   5.760  0.1479  0.0115  0.4127
  212MOL0     C29157   7.121   6.737   5.851 -1.6876 -0.3832  0.0189
  212MOL0     C29158   7.066   6.788   5.986 -0.3257  0.0758  0.3457
  212MOL0     C29159   7.122   6.703   6.101  0.4523 -0.0901  0.2232
  212MOL0     C29160   7.084   6.553   6.104 -0.4637  0.2968 -0.3983
  212MOL0     C29161   7.170   6.483   6.213  0.1185 -0.7356 -0.2174
  212MOL0     C29162   7.142   6.334   6.244 -0.0958  0.5208 -0.5546
  212MOL0    Cl29163   6.979   6.289   6.251 -0.0237 -0.3742  0.2941
  212MOL0     C29164   6.849   7.106   5.564  1.1857  0.1778 -0.2222
  212MOL0     C29165   6.743   7.195   5.537  0.1158  0.1174 -0.2280
  212MOL0     O29166   6.502   7.353   5.629  0.2796 -0.4835 -0.5187
  212MOL0     C29167   6.543   7.644   5.436 -0.9802  0.7255 -0.9503
  212MOL0     C29168   6.477   7.759   5.399  0.2200  0.3340  1.3165
  212MOL0     N29169   6.765   8.062   5.312 -0.2498 -0.5121 -0.6961
  212MOL0     N29170   6.881   8.122   5.310 -0.1690 -0.5128  0.0957
  212MOL0     C29171   7.712   9.143   5.338 -0.2439  0.0857  0.1217
  212MOL0     C29172   7.838   9.177   5.277  0.0716  0.0185  0.3566
  212MOL0     C29173   8.240   9.090   5.084 -0.1870  0.2667  1.3565
  212MOL0     C29174   8.273   9.206   5.150 -0.1964  0.5699 -0.1793
  212MOL0     C29175   8.400   9.265   5.135 -0.3496  0.6493  0.3485
  212MOL0     C29176   8.488   9.218   5.044  0.0145  0.5842  0.1156
  212MOL0     O29177   8.613   9.283   5.020  0.1765  0.3948 -0.3819
  212MOL0     C29178   8.734   9.205   4.979  0.3084  0.8164  0.4187
  212MOL0     C29179   8.773   9.100   5.075 -1.4979 -0.0004 -0.8269
  212MOL0     C29180   8.843   9.153   5.205  0.7134  0.5108 -0.3723
  212MOL0     C29181   9.004   9.142   5.211 -0.2330  0.7694 -0.7494
  212MOL0     C29182   9.064   9.152   5.350 -0.0803  0.2059  0.6538
  212MOL0     C29183   9.094   9.157   5.466 -0.0787 -0.5476  0.1405
  212MOL0     C29184   8.451   9.111   4.968  0.4973  0.4154 -0.0049
  212MOL0     C29185   8.337   9.041   4.988  0.8501 -0.1340 -0.1077
  212MOL0     C29186   8.304   8.929   4.889  0.0102 -0.1858  0.2573
  212MOL0     H29187   7.826   8.941   5.038  3.6673 -2.1367  1.4033
  212MOL0     H29188   7.615   8.916   5.110  0.3479 -0.6011  1.0238
  212MOL0     H29189   7.513   8.808   5.330 -1.7142 -0.9080 -2.1090
  212MOL0     H29190   7.395   8.883   5.231  3.3506 -1.0281 -1.3450
  212MOL0     H29191   7.379   8.883   5.540  0.7984 -1.6920  0.3169
  212MOL0     H29192   7.258   8.954   5.433 -1.1736 -0.8418  0.5797
  212MOL0     H29193   7.149   8.778   5.443  0.9210  2.6525  1.2043
  212MOL0     H29194   7.282   8.709   5.339 -0.7314 -1.4225  0.0198
  212MOL0     H29195   7.380   8.587   5.498  1.4083  1.3941  0.7263
  212MOL0     H29196   7.297   8.678   5.639 -1.1328  2.4613 -1.6654
  212MOL0     H29197   7.100   8.578   5.617 -0.1942  0.0534 -0.4630
  212MOL0     H29198   7.227   8.447   5.597 -0.3885 -1.5771 -0.4885
  212MOL0     H29199   7.080   8.571   5.363 -0.6131  1.6175  2.1559
  212MOL0     H29200   7.213   8.463   5.349 -0.4941  1.2096 -1.9589
  212MOL0     H29201   6.944   8.394   5.499  1.4434 -1.2858  1.6865
  212MOL0     H29202   7.070   8.279   5.464 -0.2286  1.1227  1.7386
  212MOL0     H29203   6.897   8.451   5.267 -1.9803 -0.3255  0.0634
  212MOL0     H29204   7.031   8.347   5.212 -2.8018 -2.9218 -2.3492
  212MOL0     H29205   6.687   8.378   5.265  0.1030  0.3494 -2.8372
  212MOL0     H29206   6.487   8.032   5.224 -0.7535  0.4332 -1.0694
  212MOL0     H29207   6.486   8.189   5.176 -1.2226  1.9997  2.1364
  212MOL0     H29208   6.475   8.270   5.409  0.8810  0.0456 -0.6670
  212MOL0     H29209   6.328   8.200   5.343  0.0822  3.4098 -1.5923
  212MOL0     H29210   6.524   8.018   5.486  1.9642  3.1278 -0.0784
  212MOL0     H29211   6.442   8.127   5.592 -0.0725 -0.9871  0.0009
  212MOL0     H29212   6.295   7.952   5.602 -1.1111  0.6052  0.7033
  212MOL0     H29213   6.204   8.062   5.488  1.6447  2.6220 -0.5174
  212MOL0     H29214   6.174   7.700   5.522 -0.4435 -0.1800  3.1336
  212MOL0     H29215   6.241   7.376   5.554 -1.3888 -1.3768  3.4995
  212MOL0     H29216   6.159   7.513   5.645 -0.2193  1.8680 -2.5892
  212MOL0     H29217   6.287   7.422   5.710 -1.2003  1.0594  0.9024
  212MOL0     H29218   6.898   7.451   5.692 -3.1501 -0.0201 -0.5707
  212MOL0     H29219   7.055   7.301   5.743  1.4780  2.3906 -3.4195
  212MOL0     H29220   6.959   6.944   5.769  0.9844 -1.4826  2.7585
  212MOL0     H29221   6.990   6.852   5.619  1.7298  0.0495  0.2286
  212MOL0     H29222   7.214   6.827   5.686 -0.4369 -1.0433  0.3014
  212MOL0     H29223   7.197   6.936   5.818  1.7837 -0.0282 -1.0471
  212MOL0     H29224   7.220   6.692   5.863 -0.6968  1.3351 -1.2454
  212MOL0     H29225   7.062   6.657   5.806 -1.5214 -1.3617  1.4578
  212MOL0     H29226   6.957   6.791   5.983 -0.3237 -0.0939  0.0578
  212MOL0     H29227   7.096   6.893   5.996 -3.7860  1.2334 -0.1022
  212MOL0     H29228   7.229   6.709   6.081  0.6397 -1.6619  0.6426
  212MOL0     H29229   7.100   6.747   6.199  0.4770  0.2322  0.0863
  212MOL0     H29230   7.106   6.497   6.013  0.9614 -0.2329  0.2325
  212MOL0     H29231   6.979   6.542   6.131  0.2443 -0.2625  2.4347
  212MOL0     H29232   7.174   6.549   6.300  1.6921  1.4693 -1.8245
  212MOL0     H29233   7.271   6.482   6.172  0.0920 -1.4363 -0.2763
  212MOL0     H29234   7.185   6.298   6.338 -1.0832 -0.4529 -0.4582
  212MOL0     H29235   7.195   6.276   6.167  1.0837  1.1512 -0.2349
  212MOL0     H29236   6.832   7.014   5.508 -2.7416  2.7415 -3.8928
  212MOL0     H29237   6.654   7.151   5.493  1.0437 -4.4233  1.8603
  212MOL0     H29238   6.645   7.623   5.409 -0.3947 -0.9149  2.0809
  212MOL0     H29239   6.532   7.829   5.337 -3.5697  0.4654 -2.3001
  212MOL0     H29240   7.689   9.202   5.426 -0.5518  1.3905 -0.7968
  212MOL0     H29241   7.900   9.264   5.299  0.8407 -0.3977 -0.1265
  212MOL0     H29242   8.211   9.259   5.222  0.4741  0.6566  0.3487
  212MOL0     H29243   8.429   9.356   5.187 -0.6132 -0.8669  3.3664
  212MOL0     H29244   8.716   9.154   4.884  1.5989  0.8285  0.1491
  212MOL0     H29245   8.818   9.275   4.982  0.7825  0.2914 -0.3978
  212MOL0     H29246   8.832   9.019   5.031  0.5004  0.6251  0.5278
  212MOL0     H29247   8.691   9.042   5.118  0.1291 -0.5112  1.8735
  212MOL0     H29248   8.804   9.254   5.221  0.1047  0.1431  0.5550
  212MOL0     H29249   8.794   9.100   5.287 -4.0270  0.1253 -3.0753
  212MOL0     H29250   9.049   9.213   5.142 -0.1576 -0.4849 -2.0319
  212MOL0     H29251   9.041   9.041   5.189  0.9187  1.2439 -1.0406
  212MOL0     H29252   9.138   9.146   5.563 -0.1384  4.5982  1.0194
  212MOL0     H29253   8.525   9.081   4.894  0.0484 -1.9006  0.4053
  212MOL0     H29254   8.321   8.837   4.947  2.2188  0.9197  1.5290
  212MOL0     H29255   8.205   8.930   4.844 -1.0348  0.5065  2.4206
  212MOL0     H29256   8.374   8.942   4.806  0.7092 -1.0653  0.6845
  213MOL0     O29257   4.066   3.357  10.393  0.3439 -0.2222  0.3476
  213MOL0     C29258   4.133   3.308  10.474 -0.7994  0.1039 -1.4144
  213MOL0     O29259   4.087   3.263  10.598 -0.0097 -0.1982  0.9234
  213MOL0     C29260   3.951   3.272  10.616  0.4764  0.8166  0.0450
  213MOL0     C29261   3.886   3.368  10.695  0.1285 -0.7217  0.9052
  213MOL0     C29262   3.746   3.368  10.705 -0.1864 -0.3034 -0.0879
  213MOL0     C29263   3.667   3.277  10.648  0.2110 -0.3226  0.2810
  213MOL0     O29264   3.533   3.311  10.656 -0.5480 -0.1749 -0.1589
  213MOL0     C29265   3.436   3.247  10.572  0.4847  0.4288  0.2678
  213MOL0     C29266   3.298   3.307  10.600 -0.0418 -0.3865 -0.2548
  213MOL0     C29267   3.269   3.439  10.530  0.2104  0.2007  0.1811
  213MOL0     C29268   3.224   3.430  10.385  0.1012 -0.7995  0.0152
  213MOL0     C29269   3.216   3.562  10.312 -0.4378 -0.5511 -0.2101
  213MOL0     C29270   3.166   3.537  10.168 -0.9503  0.0157 -0.9318
  213MOL0     C29271   3.014   3.552  10.160 -1.0310  0.1406 -0.9256
  213MOL0     C29272   2.978   3.695  10.199 -0.7327  0.0875 -0.7007
  213MOL0     N29273   2.857   3.750  10.137 -1.0120  0.4256  0.1417
  213MOL0     C29274   2.861   3.794  10.018 -0.2417 -0.2868 -0.2556
  213MOL0     C29275   2.738   3.837  10.002  0.4198  0.2099 -0.9104
  213MOL0     C29276   2.701   3.911   9.879 -0.2484  1.7610 -0.5024
  213MOL0     C29277   2.548   3.898   9.858  0.1658  0.3589  0.8253
  213MOL0     C29278   2.511   3.944   9.719  0.5929  0.5210  0.1400
  213MOL0     C29279   2.365   3.935   9.690 -0.1987 -0.2060  0.5239
  213MOL0     O29280   2.318   3.799   9.700  0.1123 -0.3127  0.2967
  213MOL0     C29281   2.204   3.760   9.631 -0.0442  0.3889  0.2434
  213MOL0     C29282   2.089   3.845   9.627  1.4312  0.5136  0.4489
  213MOL0     C29283   1.974   3.805   9.549  0.5239 -0.5663 -0.2084
  213MOL0     C29284   1.870   3.921   9.536 -0.9866  0.0137 -0.2140
  213MOL0     C29285   1.963   3.676   9.496 -0.7908  0.0858  0.0230
  213MOL0     C29286   1.853   3.623   9.431  1.1820  0.2982  0.4358
  213MOL0     O29287   1.726   3.651   9.476  0.6731 -0.0664 -0.4951
  213MOL0     C29288   1.614   3.595   9.422  1.0179  0.0091 -0.4607
  213MOL0     C29289   1.565   3.475   9.480 -0.1654  0.3365  1.0759
  213MOL0     C29290   1.465   3.402   9.414  0.6412  0.0773  0.0916
  213MOL0     C29291   1.400   3.452   9.301  0.1872 -0.5225  0.8770
  213MOL0     O29292   1.311   3.370   9.240 -0.4377 -0.1278  0.3986
  213MOL0     C29293   1.262   3.408   9.104  0.1729  0.1806 -0.5082
  213MOL0     C29294   1.196   3.283   9.065  0.6961 -0.2110  0.1260
  213MOL0     C29295   1.300   3.186   9.005  1.3125  0.1771 -0.9150
  213MOL0     C29296   1.235   3.069   8.930  0.1410 -0.0172  0.4322
  213MOL0     C29297   1.343   2.968   8.907  0.0369  0.8263  0.3331
  213MOL0     C29298   1.316   2.851   8.818  0.2176  0.8296  0.8453
  213MOL0     C29299   1.422   2.742   8.822 -0.4257  0.1951  0.3803
  213MOL0     C29300   1.398   2.621   8.906 -0.1173  0.2885 -0.2893
  213MOL0    Cl29301   1.243   2.534   8.857  0.0194  0.0217  0.1745
  213MOL0     C29302   1.435   3.582   9.258  0.0485  0.8877 -0.4172
  213MOL0     C29303   1.533   3.656   9.322 -0.2483  0.4175 -0.3517
  213MOL0     O29304   1.872   3.539   9.336 -0.1559  0.2537 -0.0646
  213MOL0     C29305   2.072   3.588   9.511  0.4398  0.0140 -0.1280
  213MOL0     C29306   2.186   3.634   9.576 -0.6641  0.1802  0.0981
  213MOL0     N29307   2.666   3.822  10.120 -0.2667  0.2152 -0.3161
  213MOL0     N29308   2.746   3.772  10.204 -0.0696 -0.5307 -0.2156
  213MOL0     C29309   3.728   3.182  10.565 -0.2984 -0.1641  0.7600
  213MOL0     C29310   3.869   3.181  10.555  0.5145 -0.1609 -0.2211
  213MOL0     C29311   4.275   3.256  10.449 -0.2276 -0.1782  0.0398
  213MOL0     C29312   4.362   3.228  10.558  0.4439  0.6018 -0.5898
  213MOL0     C29313   4.489   3.179  10.536  0.2191  0.5165 -0.0745
  213MOL0     C29314   4.541   3.153  10.416 -0.3491  0.1175  0.3585
  213MOL0     O29315   4.657   3.094  10.413 -0.7124  0.0119 -0.0165
  213MOL0     C29316   4.716   3.063  10.288 -0.3744 -0.4509 -0.4395
  213MOL0     C29317   4.856   3.023  10.324 -0.6218 -1.1151 -0.0458
  213MOL0     C29318   4.932   3.127  10.392  0.9169  0.8148 -1.1446
  213MOL0     C29319   4.931   3.254  10.308 -0.1304  0.0513  0.3164
  213MOL0     C29320   5.010   3.358  10.378 -1.0396  0.1868 -0.1861
  213MOL0     C29321   5.080   3.446  10.429 -0.6820  0.4547 -0.2187
  213MOL0     C29322   4.466   3.189  10.306 -0.0014  0.7059  0.4743
  213MOL0     C29323   4.324   3.234  10.317 -0.0530 -0.1125  0.9249
  213MOL0     C29324   4.238   3.273  10.195  0.7945  0.4206  1.0421
  213MOL0     H29325   3.943   3.444  10.748  1.5869  0.0199 -1.5340
  213MOL0     H29326   3.699   3.435  10.776 -0.4383 -1.1375  0.5453
  213MOL0     H29327   3.430   3.140  10.595 -2.0442  0.0282 -1.8394
  213MOL0     H29328   3.461   3.242  10.466  1.6318  1.5098  0.4717
  213MOL0     H29329   3.215   3.240  10.578 -1.0449  0.8831 -0.4432
  213MOL0     H29330   3.300   3.316  10.709  1.9813  2.1771 -0.4029
  213MOL0     H29331   3.196   3.494  10.590  0.1100  1.4880 -1.0428
  213MOL0     H29332   3.359   3.501  10.527 -0.8479  1.7735 -0.1772
  213MOL0     H29333   3.291   3.362  10.332 -2.4057 -1.7257 -2.1970
  213MOL0     H29334   3.124   3.385  10.385  0.7592 -2.2948 -0.2210
  213MOL0     H29335   3.317   3.599  10.297 -0.2170 -0.7014  0.8219
  213MOL0     H29336   3.155   3.629  10.374 -1.2381 -1.0795 -0.3979
  213MOL0     H29337   3.211   3.598  10.089 -1.9369  0.3589 -1.2555
  213MOL0     H29338   3.195   3.435  10.141  0.2112  0.6038 -2.0185
  213MOL0     H29339   2.963   3.484  10.229  0.4000 -1.2051 -1.1467
  213MOL0     H29340   2.981   3.529  10.058 -1.1936 -2.3154 -0.3747
  213MOL0     H29341   2.969   3.701  10.308 -2.1983 -0.3409 -0.7709
  213MOL0     H29342   3.061   3.755  10.159 -0.6855 -1.0233 -2.3792
  213MOL0     H29343   2.939   3.786   9.942 -1.0641 -3.0365 -0.9296
  213MOL0     H29344   2.750   3.868   9.791 -3.6057 -1.6008 -1.0033
  213MOL0     H29345   2.727   4.017   9.888  0.0842  1.6538 -0.2005
  213MOL0     H29346   2.514   3.797   9.883  0.2705  0.1314  0.0760
  213MOL0     H29347   2.499   3.965   9.929 -1.7767  2.4951 -2.3050
  213MOL0     H29348   2.559   4.041   9.703  2.2777  0.0696  2.0063
  213MOL0     H29349   2.566   3.887   9.643 -0.6944  1.0127 -1.1940
  213MOL0     H29350   2.315   4.003   9.760 -1.4885 -1.2604  0.6921
  213MOL0     H29351   2.347   3.960   9.585 -0.7384  0.9053  0.8662
  213MOL0     H29352   2.079   3.934   9.687 -3.8851  1.9401 -1.9245
  213MOL0     H29353   1.800   3.890   9.458  0.7397 -1.0489 -1.4020
  213MOL0     H29354   1.918   4.014   9.504  1.2220 -0.3577  1.7741
  213MOL0     H29355   1.805   3.932   9.624 -2.8742 -0.9567 -1.4114
  213MOL0     H29356   1.611   3.425   9.566 -1.4988  0.0839  1.6626
  213MOL0     H29357   1.440   3.303   9.451 -3.9668  2.0378  3.1137
  213MOL0     H29358   1.184   3.486   9.108 -3.7229 -3.4209  2.2278
  213MOL0     H29359   1.350   3.439   9.047 -0.1674  3.0731  0.3644
  213MOL0     H29360   1.139   3.232   9.143  0.5737  2.1217  1.6398
  213MOL0     H29361   1.129   3.318   8.985  2.2797  2.4625 -0.1676
  213MOL0     H29362   1.351   3.142   9.092  0.7581 -0.1652 -0.7593
  213MOL0     H29363   1.373   3.236   8.942  1.2060  1.7442  0.1543
  213MOL0     H29364   1.219   3.117   8.833  1.1693 -1.7506 -0.6505
  213MOL0     H29365   1.142   3.042   8.981 -0.6806  0.2208 -0.8976
  213MOL0     H29366   1.432   3.012   8.862  1.7554 -0.9204  1.8118
  213MOL0     H29367   1.373   2.938   9.008  0.6283 -2.2371 -0.6291
  213MOL0     H29368   1.303   2.873   8.711 -0.0395 -1.8797  0.2222
  213MOL0     H29369   1.226   2.807   8.861  1.4822  0.1921  2.9674
  213MOL0     H29370   1.520   2.787   8.841 -1.3023  3.4137 -1.8709
  213MOL0     H29371   1.425   2.711   8.717 -2.7263  2.0941 -0.3307
  213MOL0     H29372   1.393   2.645   9.013 -3.3656  0.2343 -0.3268
  213MOL0     H29373   1.484   2.558   8.879 -1.6113 -0.1470 -4.8963
  213MOL0     H29374   1.386   3.615   9.167 -0.7785  1.3744  0.1895
  213MOL0     H29375   1.550   3.753   9.277  1.7029  0.2012 -0.1682
  213MOL0     H29376   2.068   3.488   9.470 -2.0617  0.3336 -0.7933
  213MOL0     H29377   2.261   3.557   9.592 -2.3592 -1.2209  1.5543
  213MOL0     H29378   3.670   3.115  10.501 -0.5863 -0.4019  1.2605
  213MOL0     H29379   3.913   3.104  10.492  0.4455 -0.3413 -0.0503
  213MOL0     H29380   4.324   3.242  10.659 -2.6612  2.5071 -1.8586
  213MOL0     H29381   4.543   3.138  10.621 -0.8231 -3.4182 -1.1531
  213MOL0     H29382   4.663   2.974  10.251 -0.6623  0.1367 -1.4733
  213MOL0     H29383   4.714   3.137  10.208  3.0577 -0.3867 -0.6120
  213MOL0     H29384   4.910   2.981  10.238 -0.6683 -2.1429  0.4085
  213MOL0     H29385   4.845   2.938  10.392  1.4273 -1.2549  0.1681
  213MOL0     H29386   4.890   3.141  10.492 -0.3142 -1.9005 -1.1933
  213MOL0     H29387   5.031   3.086  10.416 -0.6561 -1.9792  1.2833
  213MOL0     H29388   4.827   3.287  10.295 -1.1972 -2.3977  1.8429
  213MOL0     H29389   4.972   3.234  10.209  4.8094  3.2567  1.3913
  213MOL0     H29390   5.136   3.525  10.475 -1.6810  2.3184 -2.0255
  213MOL0     H29391   4.512   3.170  10.209 -2.0786 -2.1093 -0.0990
  213MOL0     H29392   4.243   3.381  10.180  0.2656  0.1462 -1.6104
  213MOL0     H29393   4.287   3.233  10.106  0.4957  0.2593  0.9488
  213MOL0     H29394   4.134   3.240  10.189  0.8249  0.5814 -0.9016
  214MOL0     O29395   3.747   5.430  10.112 -0.1464 -0.3552 -0.4894
  214MOL0     C29396   3.628   5.405  10.088  0.2300  0.3146  0.2011
  214MOL0     O29397   3.577   5.282  10.083  0.1011  1.1294 -0.0266
  214MOL0     C29398   3.656   5.162  10.108 -0.5745 -0.2819 -0.4681
  214MOL0     C29399   3.580   5.047  10.086  1.3308  0.1002 -1.2308
  214MOL0     C29400   3.644   4.918  10.111  0.6119 -0.5589  0.3460
  214MOL0     C29401   3.775   4.909  10.157  0.5209 -0.1354  0.3164
  214MOL0     O29402   3.850   4.803  10.179 -0.3645 -0.2908  0.5599
  214MOL0     C29403   3.789   4.676  10.177  0.1436  0.3007 -0.2393
  214MOL0     C29404   3.903   4.576  10.161  0.0447  0.5583 -0.6904
  214MOL0     C29405   4.002   4.580  10.284  1.0214 -0.4163 -0.6270
  214MOL0     C29406   4.134   4.507  10.260 -1.1004  0.7726 -0.0523
  214MOL0     C29407   4.212   4.589  10.147  0.5989 -0.0736  0.3613
  214MOL0     C29408   4.356   4.545  10.151 -0.2463  0.9383  0.0559
  214MOL0     C29409   4.394   4.417  10.067  0.3788  1.0558  0.4275
  214MOL0     C29410   4.401   4.293  10.149 -0.1012  0.6574 -1.1672
  214MOL0     N29411   4.538   4.292  10.199  0.2003  0.6115  0.5946
  214MOL0     C29412   4.641   4.235  10.128 -0.6753 -0.4537  0.3779
  214MOL0     C29413   4.753   4.279  10.199 -0.3097  0.3661  0.2290
  214MOL0     C29414   4.902   4.235  10.163  0.2937 -0.3030  0.1675
  214MOL0     C29415   5.005   4.298  10.255 -0.7742  0.2969 -0.4247
  214MOL0     C29416   5.150   4.260  10.222 -0.3482  0.0060 -0.4631
  214MOL0     C29417   5.262   4.333  10.282 -0.5063 -0.0766 -0.5567
  214MOL0     O29418   5.388   4.272  10.234 -0.2668 -0.3802 -0.1342
  214MOL0     C29419   5.488   4.358  10.262  0.0474 -0.3203  0.0387
  214MOL0     C29420   5.542   4.366  10.392  0.1252 -0.9846 -0.0868
  214MOL0     C29421   5.654   4.447  10.424  0.6461 -1.0356 -0.3796
  214MOL0     C29422   5.697   4.422  10.559 -0.2723 -0.5460  0.5199
  214MOL0     C29423   5.699   4.548  10.333  0.0973  0.2430 -0.0360
  214MOL0     C29424   5.800   4.650  10.366 -0.3553 -0.6288 -0.3310
  214MOL0     O29425   5.833   4.739  10.255 -0.1105  1.0348 -0.2142
  214MOL0     C29426   5.935   4.831  10.272 -0.2744 -0.3284  0.7643
  214MOL0     C29427   5.901   4.965  10.252  0.2149  0.1398 -0.6098
  214MOL0     C29428   6.002   5.060  10.254  0.0505  0.0424  0.8096
  214MOL0     C29429   6.132   5.023  10.290 -1.0885 -0.3476  0.5001
  214MOL0     O29430   6.229   5.118  10.318 -0.4034  0.3085  0.2213
  214MOL0     C29431   6.278   5.208  10.218 -0.6425  0.4325 -0.0758
  214MOL0     C29432   6.370   5.320  10.283  0.4746 -0.4794 -0.4647
  214MOL0     C29433   6.356   5.451  10.206  0.0890 -0.7704  0.1912
  214MOL0     C29434   6.426   5.573  10.283 -0.7056  1.1488 -0.4007
  214MOL0     C29435   6.444   5.700  10.206  0.4357  0.1758  0.2988
  214MOL0     C29436   6.308   5.768  10.182 -0.3806 -0.7973  0.3682
  214MOL0     C29437   6.334   5.913  10.132  0.2901 -0.9369  0.2768
  214MOL0     C29438   6.429   5.913  10.006  0.6017  0.4001  0.0044
  214MOL0    Cl29439   6.358   5.814   9.870 -0.1069 -0.1514  0.4854
  214MOL0     C29440   6.168   4.889  10.301 -1.0318 -0.0628  0.1062
  214MOL0     C29441   6.069   4.792  10.294 -0.4668  0.0768  0.1959
  214MOL0     O29442   5.873   4.642  10.473  1.0303 -0.3198  0.1316
  214MOL0     C29443   5.632   4.545  10.206 -1.9384 -0.3437  0.0483
  214MOL0     C29444   5.538   4.451  10.169  0.0946  0.5929 -0.3400
  214MOL0     N29445   4.707   4.339  10.310  0.0931 -0.5667 -0.2750
  214MOL0     N29446   4.574   4.353  10.310  0.2140  0.2602  0.0906
  214MOL0     C29447   3.840   5.028  10.174 -0.1189 -0.1494  0.9351
  214MOL0     C29448   3.780   5.152  10.160 -0.4224 -0.1236  0.2084
  214MOL0     C29449   3.524   5.517  10.061 -0.2280  0.3055 -0.0343
  214MOL0     C29450   3.437   5.534  10.172  0.7786  0.0130 -0.3757
  214MOL0     C29451   3.350   5.641  10.167 -0.0082 -0.0741 -0.1904
  214MOL0     C29452   3.342   5.729  10.059 -0.7109 -0.0318 -1.8829
  214MOL0     O29453   3.242   5.821  10.057 -0.6818 -0.0821  0.2563
  214MOL0     C29454   3.274   5.927  10.148  0.7318 -0.5906  0.3586
  214MOL0     C29455   3.179   6.041  10.128  0.6114 -0.4362 -0.4674
  214MOL0     C29456   3.249   6.175  10.185  0.7909  0.8664  0.2134
  214MOL0     C29457   3.160   6.299  10.174  0.7602 -0.6276 -0.6191
  214MOL0     C29458   3.120   6.346  10.047 -1.0790  0.7883  0.0457
  214MOL0     C29459   3.091   6.391   9.939 -0.5244 -0.3461 -0.8674
  214MOL0     C29460   3.434   5.717   9.952 -0.1418 -0.2040 -0.5660
  214MOL0     C29461   3.530   5.613   9.958  0.7751  0.3011 -0.0320
  214MOL0     C29462   3.634   5.595   9.853  0.5558  0.7281  0.6245
  214MOL0     H29463   3.485   5.049  10.034  1.2519 -0.2328 -1.1054
  214MOL0     H29464   3.589   4.824  10.111 -1.5074  0.6076  1.2075
  214MOL0     H29465   3.730   4.664  10.086 -0.7544  1.3445  0.1894
  214MOL0     H29466   3.724   4.653  10.261  1.4757 -1.3348  0.4027
  214MOL0     H29467   3.855   4.478  10.160  1.9824 -0.4688  0.6318
  214MOL0     H29468   3.954   4.593  10.066  1.4326 -1.6471 -0.3974
  214MOL0     H29469   4.019   4.687  10.301  2.1760  0.0109 -3.8213
  214MOL0     H29470   3.953   4.535  10.371 -1.5329  4.2083  0.6439
  214MOL0     H29471   4.203   4.510  10.345  1.0949  0.4058 -1.7032
  214MOL0     H29472   4.128   4.403  10.229  0.3477  1.5601 -3.4763
  214MOL0     H29473   4.209   4.694  10.179  3.1295 -0.0949  0.8898
  214MOL0     H29474   4.153   4.579  10.056 -1.2133  0.0335  1.4740
  214MOL0     H29475   4.411   4.631  10.113 -3.1654  3.0805  0.3763
  214MOL0     H29476   4.392   4.537  10.254  2.1544 -0.6489 -0.8317
  214MOL0     H29477   4.485   4.432  10.008  1.5928 -0.3507  1.8856
  214MOL0     H29478   4.312   4.390   9.999  1.0736 -0.3091  0.1084
  214MOL0     H29479   4.334   4.302  10.235 -0.2648 -0.4400 -1.1724
  214MOL0     H29480   4.382   4.194  10.107 -0.1976 -1.9197  4.1058
  214MOL0     H29481   4.654   4.171  10.041  4.5392 -0.9746  1.2587
  214MOL0     H29482   4.924   4.251  10.057  0.3596 -0.4086  0.1653
  214MOL0     H29483   4.902   4.127  10.175 -0.3476 -0.0414  3.5337
  214MOL0     H29484   4.999   4.408  10.253  2.2726  0.5904  0.8318
  214MOL0     H29485   4.973   4.275  10.357 -1.8057 -0.0344 -0.8093
  214MOL0     H29486   5.163   4.154  10.245 -2.6770  0.0082  1.2152
  214MOL0     H29487   5.171   4.270  10.115 -0.9313  5.6503 -0.3527
  214MOL0     H29488   5.256   4.441  10.272  0.2580  0.1051  0.7870
  214MOL0     H29489   5.254   4.319  10.390  2.2267 -0.6910 -0.3796
  214MOL0     H29490   5.490   4.300  10.461 -0.3400  0.5108  1.0330
  214MOL0     H29491   5.801   4.389  10.557  0.1906  0.8446  0.5366
  214MOL0     H29492   5.634   4.346  10.606 -0.6862 -1.0748 -0.8578
  214MOL0     H29493   5.692   4.509  10.625 -1.6659 -2.2722  2.8790
  214MOL0     H29494   5.802   5.001  10.226 -0.2185 -0.0714  0.6552
  214MOL0     H29495   5.979   5.165  10.237  0.6299  0.1124  0.4231
  214MOL0     H29496   6.336   5.155  10.141  2.5318  2.6783  0.5722
  214MOL0     H29497   6.188   5.252  10.174  0.0687  1.4052 -0.6024
  214MOL0     H29498   6.328   5.328  10.384 -0.9210 -0.9501 -0.9882
  214MOL0     H29499   6.475   5.288  10.288 -0.0762 -2.4789 -0.8997
  214MOL0     H29500   6.249   5.469  10.193 -0.0212 -1.9875 -0.8283
  214MOL0     H29501   6.391   5.445  10.103 -1.1230  0.1446 -0.3055
  214MOL0     H29502   6.525   5.537  10.312 -1.7691 -0.5200  1.4350
  214MOL0     H29503   6.371   5.593  10.376  0.6771  0.9269  0.4903
  214MOL0     H29504   6.508   5.763  10.268 -0.4761  0.7448  0.6854
  214MOL0     H29505   6.504   5.680  10.117  0.0986 -1.3859  0.3840
  214MOL0     H29506   6.259   5.782  10.279 -0.1129  5.3345  0.0368
  214MOL0     H29507   6.257   5.719  10.098 -1.7665 -0.7040  1.1293
  214MOL0     H29508   6.356   5.986  10.210 -1.6960  0.2043 -0.1850
  214MOL0     H29509   6.239   5.948  10.091  2.0478  1.5024 -2.0384
  214MOL0     H29510   6.533   5.885  10.025  0.0307 -2.7026 -0.9414
  214MOL0     H29511   6.442   6.016   9.972  1.4332  0.7267  1.2449
  214MOL0     H29512   6.269   4.866  10.333 -0.9403  0.1018 -0.0617
  214MOL0     H29513   6.082   4.687  10.317 -0.0616  0.1990  0.5319
  214MOL0     H29514   5.667   4.621  10.137 -2.1771  0.8942  1.2527
  214MOL0     H29515   5.496   4.451  10.069  0.3019 -0.2954 -0.4317
  214MOL0     H29516   3.945   5.024  10.201  1.3123  3.2415 -3.1902
  214MOL0     H29517   3.836   5.239  10.194  0.1487 -0.1766 -0.5680
  214MOL0     H29518   3.431   5.450  10.240 -2.5563  0.2608 -0.1681
  214MOL0     H29519   3.283   5.650  10.252  0.7653  2.5235  0.2339
  214MOL0     H29520   3.261   5.887  10.249  0.6978  2.5189  1.7055
  214MOL0     H29521   3.377   5.963  10.139 -0.3194  2.3197 -1.1771
  214MOL0     H29522   3.082   6.022  10.174  0.3939 -1.5937 -1.3537
  214MOL0     H29523   3.171   6.047  10.019  4.5457 -0.1446 -0.8950
  214MOL0     H29524   3.251   6.156  10.293  2.9804 -0.7832 -0.0442
  214MOL0     H29525   3.348   6.196  10.144 -0.0660 -0.8331 -3.1304
  214MOL0     H29526   3.209   6.375  10.235 -0.3003 -0.2522 -0.1969
  214MOL0     H29527   3.065   6.278  10.225 -0.7282  3.5469 -1.2931
  214MOL0     H29528   3.055   6.446   9.855 -0.2040 -0.0745 -0.8307
  214MOL0     H29529   3.425   5.792   9.874  3.1888 -0.9219 -1.8069
  214MOL0     H29530   3.581   5.573   9.760 -2.2666  0.0722  2.2857
  214MOL0     H29531   3.703   5.680   9.839  2.7144 -0.8280  1.2824
  214MOL0     H29532   3.693   5.505   9.868 -1.9068 -0.9066  1.0896
  215MOL0     O29533   8.578   0.130   4.491 -0.0007  0.5527 -0.8605
  215MOL0     C29534   8.560   0.120   4.374 -0.3173 -0.7922  0.5464
  215MOL0     O29535   8.440   0.128   4.311 -0.2623 -0.0585  0.4105
  215MOL0     C29536   8.329   0.135   4.383 -0.2239 -0.4787 -0.5507
  215MOL0     C29537   8.274   0.264   4.383 -0.7610 -0.4633 -0.4532
  215MOL0     C29538   8.166   0.301   4.474  0.3932  0.4643  0.2075
  215MOL0     C29539   8.106   0.196   4.547  0.8864  0.1248  0.2645
  215MOL0     O29540   8.000   0.233   4.634 -0.3106 -0.6033 -0.1772
  215MOL0     C29541   7.902   0.126   4.668 -0.6995  0.6166 -0.1853
  215MOL0     C29542   7.776   0.210   4.693  0.0085  0.4765 -0.5216
  215MOL0     C29543   7.793   0.300   4.814 -0.0426 -1.1559  0.3175
  215MOL0     C29544   7.658   0.370   4.861  0.4620 -0.6857 -0.8606
  215MOL0     C29545   7.675   0.484   4.967 -0.8780 -0.4120  0.6271
  215MOL0     C29546   7.550   0.577   4.983  0.5609 -0.0397  0.5353
  215MOL0     C29547   7.580   0.696   5.074 -0.0237 -0.0850 -0.4222
  215MOL0     C29548   7.458   0.789   5.111 -0.0623 -0.4909  0.1451
  215MOL0     N29549   7.488   0.919   5.165  0.5318 -0.8781  0.3714
  215MOL0     C29550   7.392   0.994   5.237  0.7480 -0.9256  0.0742
  215MOL0     C29551   7.456   1.114   5.259  0.2398 -0.1613  0.6949
  215MOL0     C29552   7.411   1.237   5.325 -0.2725  0.1282  0.3109
  215MOL0     C29553   7.426   1.234   5.477 -0.0337  0.5438 -0.9438
  215MOL0     C29554   7.570   1.194   5.509 -0.0077  0.5616 -0.4577
  215MOL0     C29555   7.607   1.223   5.645  0.4208 -0.7611 -0.9694
  215MOL0     O29556   7.614   1.365   5.644 -0.1836 -0.1274 -0.0123
  215MOL0     C29557   7.671   1.428   5.749 -1.1214 -0.2338  0.9051
  215MOL0     C29558   7.716   1.557   5.711 -0.1693 -0.3050 -0.6850
  215MOL0     C29559   7.779   1.647   5.801  0.5331  0.2322  0.7412
  215MOL0     C29560   7.797   1.792   5.760 -0.1681 -0.0724 -0.0423
  215MOL0     C29561   7.808   1.593   5.932 -1.1203  0.4890 -0.3912
  215MOL0     C29562   7.882   1.661   6.055  1.0877  0.0466 -0.0614
  215MOL0     O29563   7.870   1.611   6.182 -0.0484 -0.2226  0.1822
  215MOL0     C29564   7.932   1.659   6.287  0.1650 -0.4934 -0.7208
  215MOL0     C29565   7.872   1.662   6.415  0.5546  0.0462 -0.1150
  215MOL0     C29566   7.932   1.723   6.519  0.4658 -0.5978  0.4730
  215MOL0     C29567   8.060   1.773   6.511 -0.6996 -0.1436  0.0749
  215MOL0     O29568   8.113   1.850   6.616  0.5843 -0.0735  1.0826
  215MOL0     C29569   8.212   1.780   6.684  0.0001  0.1455 -0.8431
  215MOL0     C29570   8.220   1.842   6.828 -0.7874 -0.1944 -0.1136
  215MOL0     C29571   8.326   1.775   6.908 -0.4689  0.0717  0.0411
  215MOL0     C29572   8.470   1.801   6.863 -0.1847  0.3069 -0.8678
  215MOL0     C29573   8.513   1.954   6.855  0.0742  0.7371  0.0262
  215MOL0     C29574   8.667   1.948   6.836  0.1397 -0.2871 -1.0849
  215MOL0     C29575   8.724   2.081   6.799  0.6073 -0.1429 -0.4238
  215MOL0     C29576   8.705   2.192   6.901 -0.7433 -0.7315 -0.9143
  215MOL0    Cl29577   8.753   2.351   6.833  0.1374 -0.1150  0.3306
  215MOL0     C29578   8.125   1.761   6.394 -0.3154 -0.1949  0.1238
  215MOL0     C29579   8.067   1.703   6.281  0.3071  0.3441  0.5069
  215MOL0     O29580   7.945   1.764   6.022  0.4256 -0.1961 -0.8053
  215MOL0     C29581   7.765   1.460   5.962  0.0711  0.0447  0.1602
  215MOL0     C29582   7.698   1.372   5.874  0.1856 -0.8049  0.4670
  215MOL0     N29583   7.569   1.127   5.183  0.2375  0.4472  0.4213
  215MOL0     N29584   7.590   1.008   5.130  0.3197 -0.3704  0.7394
  215MOL0     C29585   8.166   0.067   4.545 -0.3477  0.1340  0.3680
  215MOL0     C29586   8.281   0.039   4.470  0.1283  0.1062  0.3146
  215MOL0     C29587   8.677   0.091   4.290  0.0688 -0.2062 -0.1125
  215MOL0     C29588   8.662  -0.027   4.220  0.4649 -1.0847  0.7141
  215MOL0     C29589   8.769  -0.058   4.131 -0.0291  0.7778 -0.4589
  215MOL0     C29590   8.888   0.018   4.125 -0.7002 -0.1181  0.5257
  215MOL0     O29591   8.997   0.008   4.037 -0.1917 -0.6210  0.0490
  215MOL0     C29592   8.987  -0.092   3.932  0.1739  0.1635  0.5401
  215MOL0     C29593   9.096  -0.086   3.828  0.2138 -0.2032  0.1911
  215MOL0     C29594   9.101   0.053   3.765 -1.0155 -1.2677  0.7198
  215MOL0     C29595   9.236   0.072   3.685  0.0583  0.0362 -0.2299
  215MOL0     C29596   9.227  -0.001   3.559 -0.6771  0.0231  0.8128
  215MOL0     C29597   9.196  -0.076   3.464 -0.3867  0.2149  1.3173
  215MOL0     C29598   8.899   0.122   4.217  0.7597 -0.3432 -0.2283
  215MOL0     C29599   8.795   0.165   4.298  0.5478 -0.3783 -0.2457
  215MOL0     C29600   8.797   0.305   4.359 -0.2863 -0.6092  0.5181
  215MOL0     H29601   8.317   0.351   4.336 -1.4591  0.8001  1.1427
  215MOL0     H29602   8.124   0.400   4.486 -2.7942 -0.6414 -0.9691
  215MOL0     H29603   7.919   0.072   4.762  0.7194  2.2057  0.5242
  215MOL0     H29604   7.888   0.051   4.589 -1.1352 -0.3479  0.7730
  215MOL0     H29605   7.766   0.271   4.603 -1.4975 -1.5078 -1.7953
  215MOL0     H29606   7.685   0.153   4.709  0.6597 -0.1856  0.9910
  215MOL0     H29607   7.842   0.248   4.898 -1.3158 -0.9471  1.2134
  215MOL0     H29608   7.854   0.385   4.781 -2.0415 -0.9872 -3.4301
  215MOL0     H29609   7.603   0.412   4.776  1.0474  1.3860 -0.2904
  215MOL0     H29610   7.589   0.300   4.907 -3.3403  3.8869  1.2822
  215MOL0     H29611   7.754   0.551   4.931  0.8089 -2.2536  0.7251
  215MOL0     H29612   7.692   0.438   5.065 -2.8860 -1.9594  0.3414
  215MOL0     H29613   7.507   0.605   4.886 -2.4137 -2.7090  0.8787
  215MOL0     H29614   7.486   0.510   5.041 -1.5084  1.0305 -0.3725
  215MOL0     H29615   7.658   0.756   5.027  0.8676 -0.7092  0.2203
  215MOL0     H29616   7.636   0.667   5.164  2.6990  0.0498 -1.9546
  215MOL0     H29617   7.408   0.798   5.015  4.3143 -0.9751 -2.4405
  215MOL0     H29618   7.387   0.740   5.179 -1.2988  2.5342  1.2277
  215MOL0     H29619   7.301   0.959   5.285 -0.8443 -0.8136 -2.6735
  215MOL0     H29620   7.305   1.252   5.301  0.2477  0.9168 -1.6892
  215MOL0     H29621   7.459   1.328   5.287 -0.6253  0.4997  0.7369
  215MOL0     H29622   7.404   1.337   5.506 -3.5325 -0.0636 -1.0479
  215MOL0     H29623   7.350   1.168   5.521  1.3278 -2.3655 -2.6848
  215MOL0     H29624   7.581   1.086   5.497 -1.3651  0.2483  0.7827
  215MOL0     H29625   7.630   1.246   5.434 -0.1625 -0.3549 -1.2467
  215MOL0     H29626   7.533   1.191   5.719 -0.8802 -1.0681 -2.3654
  215MOL0     H29627   7.705   1.183   5.675 -0.2982  0.2618  3.6262
  215MOL0     H29628   7.682   1.591   5.613  0.2528 -1.3216 -1.2058
  215MOL0     H29629   7.760   1.863   5.834  0.3438 -0.2476  0.3801
  215MOL0     H29630   7.727   1.808   5.677 -0.5624  1.3422  0.5231
  215MOL0     H29631   7.901   1.820   5.742  0.6063 -2.1671  0.9188
  215MOL0     H29632   7.770   1.624   6.416 -0.3056  2.1089  2.5482
  215MOL0     H29633   7.872   1.728   6.610  1.4584 -1.5476  1.2065
  215MOL0     H29634   8.182   1.676   6.697 -1.2769  0.2881 -2.4157
  215MOL0     H29635   8.303   1.786   6.623 -0.6158 -3.5540 -2.3647
  215MOL0     H29636   8.235   1.950   6.814 -2.6818  0.3050  1.3041
  215MOL0     H29637   8.125   1.841   6.882  0.2454  0.0913  1.8035
  215MOL0     H29638   8.311   1.667   6.901  1.2761 -0.1167 -5.0812
  215MOL0     H29639   8.305   1.817   7.007 -1.2282 -0.5639  0.1566
  215MOL0     H29640   8.496   1.760   6.765  0.7581 -0.0672 -0.4823
  215MOL0     H29641   8.537   1.747   6.931 -0.4977 -1.6162 -2.0085
  215MOL0     H29642   8.453   1.992   6.771 -0.7830 -1.4922 -0.4402
  215MOL0     H29643   8.491   1.997   6.953  1.5174 -1.7273  1.5138
  215MOL0     H29644   8.700   1.881   6.756  1.5615 -2.1623  0.9709
  215MOL0     H29645   8.705   1.911   6.932 -2.5355  0.9811  0.6029
  215MOL0     H29646   8.676   2.111   6.705  1.6409  2.9775 -0.0794
  215MOL0     H29647   8.831   2.059   6.789  1.0104  1.2824  0.4480
  215MOL0     H29648   8.761   2.181   6.995 -2.6096  2.9825  0.8319
  215MOL0     H29649   8.603   2.197   6.939  0.6905  4.5063  3.5240
  215MOL0     H29650   8.223   1.808   6.385  0.4023 -1.3646  1.4841
  215MOL0     H29651   8.124   1.705   6.189  1.3277  2.4957  1.1117
  215MOL0     H29652   7.801   1.429   6.060  1.4863  0.0853 -0.3246
  215MOL0     H29653   7.657   1.278   5.910 -1.3762 -0.4197 -0.2308
  215MOL0     H29654   8.138  -0.021   4.602  1.1201 -0.9113 -0.4407
  215MOL0     H29655   8.335  -0.054   4.484  0.7822  0.3356 -0.6302
  215MOL0     H29656   8.585  -0.102   4.234 -0.1234 -0.3584  1.5152
  215MOL0     H29657   8.759  -0.151   4.076  1.2463 -0.3614  1.1401
  215MOL0     H29658   8.983  -0.190   3.981 -3.4423  1.1812  2.6291
  215MOL0     H29659   8.894  -0.091   3.875  0.9473  0.6410 -0.7667
  215MOL0     H29660   9.056  -0.149   3.748  0.2378  1.0785 -0.8647
  215MOL0     H29661   9.189  -0.124   3.872  0.6805  1.3316  0.5980
  215MOL0     H29662   9.019   0.081   3.699  0.5037  0.7348 -0.4498
  215MOL0     H29663   9.099   0.133   3.840 -4.2634  0.6855 -1.2196
  215MOL0     H29664   9.327   0.040   3.736 -0.2294  0.7334  0.7513
  215MOL0     H29665   9.253   0.178   3.664  1.4535  0.2471  1.6955
  215MOL0     H29666   9.165  -0.150   3.393  0.8972  2.3467 -1.6834
  215MOL0     H29667   8.989   0.182   4.216  0.9808 -0.1969  4.5948
  215MOL0     H29668   8.785   0.387   4.287  3.4072 -1.4854 -1.3862
  215MOL0     H29669   8.718   0.326   4.431  1.6148  2.4964  1.9176
  215MOL0     H29670   8.898   0.314   4.401 -0.6099 -2.5030  1.8585
  216MOL0     O29671   0.443  10.560   1.835  0.2339  0.1149 -0.3412
  216MOL0     C29672   0.333  10.532   1.875  0.1532 -0.4960 -0.2650
  216MOL0     O29673   0.256  10.594   1.971  0.4137 -0.2083  0.3360
  216MOL0     C29674   0.314  10.677   2.062  0.1578  0.0496  0.6049
  216MOL0     C29675   0.366  10.801   2.025  0.0874 -0.3672  0.1735
  216MOL0     C29676   0.436  10.877   2.115  0.1457  0.7530 -0.2288
  216MOL0     C29677   0.446  10.830   2.245  0.1427 -0.2683  0.4726
  216MOL0     O29678   0.526  10.895   2.329 -0.1787 -0.5758  0.0562
  216MOL0     C29679   0.479  10.907   2.464  0.0420 -0.2128  0.5885
  216MOL0     C29680   0.547  11.026   2.538 -0.3847  0.0280 -0.3913
  216MOL0     C29681   0.552  11.157   2.464 -0.6737  0.3980  0.7069
  216MOL0     C29682   0.630  11.271   2.545  0.2002  0.0291  0.1534
  216MOL0     C29683   0.599  11.308   2.689 -0.8984  0.2888  0.2637
  216MOL0     C29684   0.458  11.361   2.726 -0.2979  0.5220 -1.3692
  216MOL0     C29685   0.434  11.492   2.659 -0.2286 -0.1910  0.3633
  216MOL0     C29686   0.308  11.550   2.715  0.2745 -0.5120  0.0042
  216MOL0     N29687   0.182  11.503   2.647 -0.0320 -0.0709 -0.0896
  216MOL0     C29688   0.155  11.496   2.511 -0.9824  0.2030 -0.3956
  216MOL0     C29689   0.045  11.421   2.497 -0.5058  0.6662  0.2457
  216MOL0     C29690  -0.023  11.372   2.375 -0.3719 -0.7286 -0.0944
  216MOL0     C29691   0.018  11.230   2.349  0.3375  0.6804  0.5758
  216MOL0     C29692  -0.086  11.175   2.259  1.2794 -0.6429 -1.1400
  216MOL0     C29693  -0.072  11.032   2.222  0.5093  1.4648  0.4058
  216MOL0     O29694  -0.128  10.948   2.322 -0.5730 -0.0076 -0.5512
  216MOL0     C29695  -0.135  10.813   2.296 -0.4190 -0.6558 -0.3706
  216MOL0     C29696  -0.247  10.746   2.327 -0.2856  0.5791 -0.4020
  216MOL0     C29697  -0.264  10.612   2.308  0.1463 -0.4036 -0.6397
  216MOL0     C29698  -0.403  10.560   2.342  1.2734 -0.4464  0.4145
  216MOL0     C29699  -0.160  10.540   2.245  0.0008  0.1292  0.7205
  216MOL0     C29700  -0.157  10.393   2.205 -0.5974  0.9938  0.2302
  216MOL0     O29701  -0.239  10.307   2.264 -0.2324  0.5128  0.4645
  216MOL0     C29702  -0.259  10.180   2.215 -0.4818 -0.1064  0.6733
  216MOL0     C29703  -0.308  10.156   2.084 -0.7356  0.5025 -0.0332
  216MOL0     C29704  -0.318  10.021   2.047 -0.4289 -0.2713  0.0778
  216MOL0     C29705  -0.287   9.908   2.126  0.4233  1.6410  0.2120
  216MOL0     O29706  -0.308   9.777   2.095 -0.1309 -0.7064 -0.3003
  216MOL0     C29707  -0.440   9.750   2.046 -0.8163 -0.5876  0.4989
  216MOL0     C29708  -0.539   9.761   2.156 -0.6302  0.4144 -0.1492
  216MOL0     C29709  -0.671   9.714   2.096  0.2141 -0.8795 -0.4962
  216MOL0     C29710  -0.768   9.700   2.212 -0.3246  0.2383  0.2329
  216MOL0     C29711  -0.904   9.638   2.163 -0.1448  0.2501  1.3978
  216MOL0     C29712  -0.906   9.484   2.160  1.0956 -0.0485 -0.2468
  216MOL0     C29713  -0.930   9.425   2.302 -0.6502 -0.7850  0.3625
  216MOL0     C29714  -0.966   9.277   2.285  0.1245  0.2623  0.3005
  216MOL0    Cl29715  -1.005   9.218   2.450 -0.3685 -0.3327  0.0204
  216MOL0     C29716  -0.238   9.931   2.257  0.2950 -0.3265  0.2109
  216MOL0     C29717  -0.224  10.061   2.294 -0.2967  0.2312  0.4184
  216MOL0     O29718  -0.072  10.350   2.124 -0.0460  0.1008  0.1302
  216MOL0     C29719  -0.033  10.609   2.215  0.5388  0.5424 -0.5558
  216MOL0     C29720  -0.025  10.744   2.236 -0.4641  0.3578 -0.2380
  216MOL0     N29721  -0.001  11.387   2.619  0.0294  0.8874  0.3909
  216MOL0     N29722   0.091  11.427   2.705 -0.1949  0.4087 -0.6621
  216MOL0     C29723   0.381  10.710   2.288  0.0721  0.3611  0.3373
  216MOL0     C29724   0.320  10.632   2.194  0.7324  0.0168  0.2789
  216MOL0     C29725   0.261  10.408   1.826  0.1936 -0.0172  0.3528
  216MOL0     C29726   0.148  10.357   1.885  0.5971 -1.3162  0.3379
  216MOL0     C29727   0.084  10.235   1.845  0.6928 -0.0830 -0.6488
  216MOL0     C29728   0.125  10.161   1.742 -0.7086  0.3474 -0.1103
  216MOL0     O29729   0.062  10.043   1.698  0.5584 -0.0157 -0.0010
  216MOL0     C29730   0.054   9.931   1.794 -0.6315 -0.8316  0.8496
  216MOL0     C29731  -0.047   9.836   1.740 -0.4764  1.4299  0.1257
  216MOL0     C29732  -0.059   9.703   1.829 -0.1342 -0.0374 -0.1710
  216MOL0     C29733  -0.159   9.602   1.772 -0.1937 -0.7212  0.1295
  216MOL0     C29734  -0.176   9.506   1.885 -0.1012  1.2265  0.0555
  216MOL0     C29735  -0.179   9.434   1.983  0.6499 -0.1332  0.5489
  216MOL0     C29736   0.230  10.217   1.669 -0.6406  1.1928  0.2422
  216MOL0     C29737   0.304  10.322   1.714  0.2345 -0.8197 -0.2246
  216MOL0     C29738   0.415  10.367   1.619 -0.4350 -1.0729  0.6483
  216MOL0     H29739   0.343  10.845   1.928  3.0747  0.8657 -0.0851
  216MOL0     H29740   0.484  10.968   2.082 -1.0829  1.8166  0.8212
  216MOL0     H29741   0.483  10.809   2.511 -3.1838 -2.1399 -2.6491
  216MOL0     H29742   0.372  10.927   2.457 -0.0802 -1.2183 -0.9619
  216MOL0     H29743   0.489  11.041   2.630 -1.4130 -1.4919 -0.7569
  216MOL0     H29744   0.650  10.998   2.560 -0.9296 -4.1817 -2.3990
  216MOL0     H29745   0.595  11.153   2.364  2.3452  1.4457  1.8208
  216MOL0     H29746   0.449  11.191   2.455 -1.2667 -0.3256  3.7085
  216MOL0     H29747   0.738  11.252   2.546  0.3362  0.6018 -1.2643
  216MOL0     H29748   0.624  11.363   2.487 -0.6384  2.0697  3.2193
  216MOL0     H29749   0.660  11.399   2.688  0.4188 -0.5663  0.6133
  216MOL0     H29750   0.617  11.235   2.768  3.8223 -0.1939 -0.9770
  216MOL0     H29751   0.390  11.279   2.702  1.1208 -1.6269  1.4590
  216MOL0     H29752   0.451  11.382   2.833 -0.7361 -0.6644 -1.1542
  216MOL0     H29753   0.431  11.468   2.553  1.8363 -0.8710  0.3958
  216MOL0     H29754   0.517  11.563   2.676 -1.4450  1.0706  1.3017
  216MOL0     H29755   0.321  11.551   2.823  3.2208  0.9612 -0.2572
  216MOL0     H29756   0.304  11.656   2.687  0.4986 -0.6860 -0.7167
  216MOL0     H29757   0.213  11.543   2.432 -3.4905  1.1893 -1.7567
  216MOL0     H29758   0.001  11.437   2.291 -1.2154  3.7410  2.7896
  216MOL0     H29759  -0.130  11.393   2.381 -0.4390 -1.0531 -0.1169
  216MOL0     H29760   0.112  11.214   2.296 -0.7590 -0.1830 -1.2260
  216MOL0     H29761   0.032  11.168   2.438 -0.7507 -0.0282  0.2735
  216MOL0     H29762  -0.184  11.189   2.307  2.0466  1.3831 -0.0399
  216MOL0     H29763  -0.084  11.233   2.166 -1.4555 -2.1867 -2.2982
  216MOL0     H29764  -0.123  11.001   2.131  1.0257  0.3546  0.4781
  216MOL0     H29765   0.033  11.006   2.207  0.4455  1.7505 -0.5780
  216MOL0     H29766  -0.327  10.800   2.378 -0.8402  1.6992 -2.3567
  216MOL0     H29767  -0.399  10.471   2.405 -3.2214  0.5476  2.4853
  216MOL0     H29768  -0.447  10.520   2.250  1.0562 -1.9313  1.1365
  216MOL0     H29769  -0.475  10.632   2.381  2.9258  3.8427 -3.4781
  216MOL0     H29770  -0.327  10.235   2.013  0.3500 -0.1985 -1.1418
  216MOL0     H29771  -0.372  10.004   1.954 -1.3690 -1.1171  0.7572
  216MOL0     H29772  -0.469   9.808   1.958 -1.2713 -2.6106 -0.7600
  216MOL0     H29773  -0.436   9.645   2.015  5.1092 -0.9390  1.2813
  216MOL0     H29774  -0.513   9.691   2.235 -1.1601 -2.2277 -2.1671
  216MOL0     H29775  -0.540   9.864   2.194  0.2722  0.4781 -0.2770
  216MOL0     H29776  -0.669   9.613   2.055 -1.3610  0.1416 -3.3291
  216MOL0     H29777  -0.711   9.781   2.020 -0.5551  0.8190  1.3356
  216MOL0     H29778  -0.797   9.801   2.241 -0.0789  0.9432 -1.8476
  216MOL0     H29779  -0.718   9.652   2.297  1.3889  2.1558  0.3885
  216MOL0     H29780  -0.986   9.656   2.233 -1.2351 -1.7463  0.7033
  216MOL0     H29781  -0.936   9.683   2.069  2.2146  3.1726  1.8141
  216MOL0     H29782  -0.820   9.452   2.101  1.8989 -1.4335  1.5567
  216MOL0     H29783  -0.993   9.442   2.109  1.3762 -2.2107  0.9162
  216MOL0     H29784  -1.004   9.486   2.354 -0.1493  1.5869 -1.5540
  216MOL0     H29785  -0.839   9.436   2.362 -1.4652 -3.5244  2.3025
  216MOL0     H29786  -0.876   9.228   2.246 -0.2633  0.3065 -0.6638
  216MOL0     H29787  -1.057   9.269   2.225  1.3228 -0.4492 -1.5090
  216MOL0     H29788  -0.201   9.854   2.323 -3.3485 -2.1599  0.3288
  216MOL0     H29789  -0.184  10.070   2.395 -2.2252 -0.6492  1.3187
  216MOL0     H29790   0.052  10.557   2.172  0.0080 -2.2584  1.5024
  216MOL0     H29791   0.069  10.792   2.210 -0.4022  1.0704  1.2216
  216MOL0     H29792   0.375  10.670   2.389  1.2033  0.0973  0.3135
  216MOL0     H29793   0.280  10.533   2.213 -0.2833 -0.2022 -2.5551
  216MOL0     H29794   0.089  10.410   1.960  0.3462 -3.0143  1.3980
  216MOL0     H29795  -0.006  10.202   1.896 -1.4610  0.9829 -3.4890
  216MOL0     H29796   0.152   9.884   1.805 -0.0708  0.5110  1.9577
  216MOL0     H29797   0.042   9.959   1.899  0.2851 -0.9236  0.9863
  216MOL0     H29798  -0.020   9.815   1.636 -0.9742  1.7275 -0.0681
  216MOL0     H29799  -0.144   9.887   1.736 -2.1444 -1.4183  1.3080
  216MOL0     H29800   0.035   9.647   1.834  0.2811  0.6653 -0.1051
  216MOL0     H29801  -0.093   9.743   1.925  2.4222  0.0263  0.7842
  216MOL0     H29802  -0.118   9.559   1.681  0.2834 -1.0769  0.5027
  216MOL0     H29803  -0.257   9.647   1.756  0.5445  1.5677  1.4157
  216MOL0     H29804  -0.209   9.367   2.061 -4.0232 -0.4190 -1.1512
  216MOL0     H29805   0.270  10.162   1.583 -1.0845 -3.3108  2.5869
  216MOL0     H29806   0.411  10.325   1.518 -0.1067 -1.3208  0.7368
  216MOL0     H29807   0.405  10.476   1.609 -0.9526 -0.7856  3.4357
  216MOL0     H29808   0.508  10.335   1.665  1.2115 -0.4959 -2.0836
  217MOL0     O29809   2.540   0.616   1.139  0.6709 -1.0170  0.2822
  217MOL0     C29810   2.434   0.629   1.074  1.1546 -0.3528 -0.2890
  217MOL0     O29811   2.323   0.698   1.131 -0.2839  0.2548  0.2255
  217MOL0     C29812   2.326   0.729   1.261  0.1998 -0.6233 -0.7818
  217MOL0     C29813   2.404   0.837   1.300  0.1541 -1.0535 -0.3287
  217MOL0     C29814   2.399   0.889   1.431 -0.0557  0.9955 -0.0023
  217MOL0     C29815   2.332   0.814   1.533  0.0682 -0.1526  0.2337
  217MOL0     O29816   2.331   0.857   1.667 -0.2134  0.3037 -0.5897
  217MOL0     C29817   2.237   0.799   1.763 -0.6597  0.3922  0.6951
  217MOL0     C29818   2.260   0.860   1.902  0.2581  0.2274 -0.1712
  217MOL0     C29819   2.397   0.819   1.944 -0.2144  0.3191  0.1833
  217MOL0     C29820   2.445   0.891   2.078  1.2665 -0.4157  0.0302
  217MOL0     C29821   2.352   0.890   2.198 -0.0618 -0.3165 -0.0450
  217MOL0     C29822   2.340   0.748   2.251 -1.1328 -0.2199  0.1458
  217MOL0     C29823   2.262   0.763   2.381  0.4711 -0.6111 -0.6211
  217MOL0     C29824   2.232   0.631   2.449 -0.1921 -0.9118 -0.4305
  217MOL0     N29825   2.109   0.576   2.422  0.8707 -0.0945 -0.5642
  217MOL0     C29826   2.084   0.489   2.317  0.4343 -0.3371 -0.8934
  217MOL0     C29827   1.955   0.451   2.335  0.4273  0.0386  0.5091
  217MOL0     C29828   1.877   0.355   2.249  0.6446 -0.1150  0.3123
  217MOL0     C29829   1.886   0.202   2.275 -0.6184  0.5837  0.4798
  217MOL0     C29830   2.028   0.137   2.255  1.0285  0.8949 -0.1168
  217MOL0     C29831   2.077   0.121   2.108  0.4082 -0.1473 -0.2796
  217MOL0     O29832   2.127   0.235   2.045 -0.1933 -0.2480 -0.7576
  217MOL0     C29833   2.164   0.221   1.912 -0.7219  0.0946  0.3037
  217MOL0     C29834   2.180   0.102   1.843  0.7879 -0.2088  0.0257
  217MOL0     C29835   2.234   0.098   1.719 -0.1686  0.4594 -0.3103
  217MOL0     C29836   2.236  -0.042   1.666  0.1011  0.0222  0.0124
  217MOL0     C29837   2.266   0.215   1.648  0.2425 -0.0685 -0.0758
  217MOL0     C29838   2.349   0.212   1.526 -0.2290  0.4366  0.0002
  217MOL0     O29839   2.281   0.253   1.410 -0.3399 -0.6217 -0.1980
  217MOL0     C29840   2.347   0.237   1.294 -0.3902  0.2604  0.4819
  217MOL0     C29841   2.465   0.312   1.265  0.5408 -0.1257  0.0299
  217MOL0     C29842   2.505   0.304   1.131  0.0043  0.8566 -0.7943
  217MOL0     C29843   2.448   0.214   1.046 -0.5141 -0.2104  0.9191
  217MOL0     O29844   2.510   0.199   0.923 -0.5446  0.1605 -0.3643
  217MOL0     C29845   2.500   0.069   0.871 -0.7569 -0.0397 -0.4985
  217MOL0     C29846   2.595   0.057   0.757 -1.1452 -0.2525 -0.2801
  217MOL0     C29847   2.738   0.027   0.799 -0.3933 -0.1254 -0.3421
  217MOL0     C29848   2.826  -0.012   0.677  0.0894  0.4117 -0.5519
  217MOL0     C29849   2.972  -0.034   0.708 -0.2223 -1.0660  0.9156
  217MOL0     C29850   3.047  -0.064   0.578  0.6250 -0.1970  0.5845
  217MOL0     C29851   3.186  -0.111   0.607  0.9323  1.5673 -0.2355
  217MOL0     C29852   3.269  -0.127   0.485  0.0929  0.2623 -0.1859
  217MOL0    Cl29853   3.281   0.006   0.371  0.0885 -0.1930  0.2667
  217MOL0     C29854   2.339   0.147   1.082  0.9704  0.6508 -0.3446
  217MOL0     C29855   2.276   0.161   1.202  0.2101 -0.1350  0.7964
  217MOL0     O29856   2.454   0.152   1.532 -0.5593 -0.3958  0.4082
  217MOL0     C29857   2.244   0.341   1.712  1.2183  0.1189  0.6356
  217MOL0     C29858   2.192   0.342   1.839 -0.4968  0.9540  0.3279
  217MOL0     N29859   1.907   0.517   2.447  0.4089 -0.1713  0.1219
  217MOL0     N29860   1.996   0.590   2.507 -0.3496  0.0609 -0.9998
  217MOL0     C29861   2.262   0.697   1.485  0.0080 -0.1033 -0.8282
  217MOL0     C29862   2.253   0.657   1.354 -0.0211  0.5149 -0.1254
  217MOL0     C29863   2.423   0.577   0.931  0.4032  1.1506 -0.0398
  217MOL0     C29864   2.540   0.576   0.846 -0.9343  0.4942  0.6255
  217MOL0     C29865   2.532   0.508   0.723 -0.3697  0.1184  0.4265
  217MOL0     C29866   2.409   0.451   0.677  0.2150  1.2422  0.1850
  217MOL0     O29867   2.389   0.398   0.550 -0.4097 -0.6488  0.1740
  217MOL0     C29868   2.479   0.437   0.450  0.8488  0.4307 -0.0134
  217MOL0     C29869   2.427   0.381   0.318  0.2107 -0.3891  0.5315
  217MOL0     C29870   2.486   0.244   0.285 -0.0100 -0.4291 -0.5253
  217MOL0     C29871   2.473   0.140   0.394  0.3834 -0.3577  1.1035
  217MOL0     C29872   2.553   0.023   0.361 -0.0054 -0.0062 -0.4211
  217MOL0     C29873   2.651  -0.055   0.343 -0.2662 -0.3491 -0.7918
  217MOL0     C29874   2.306   0.443   0.771 -0.3812 -0.5881  0.3096
  217MOL0     C29875   2.301   0.508   0.893 -0.4910  0.6525 -0.4425
  217MOL0     C29876   2.181   0.467   0.981 -0.3435 -0.4154 -0.0452
  217MOL0     H29877   2.462   0.889   1.225  3.8681 -1.9121  1.6918
  217MOL0     H29878   2.467   0.970   1.454  1.4079 -0.0595 -0.5067
  217MOL0     H29879   2.263   0.693   1.767  0.3067  0.4785 -1.9200
  217MOL0     H29880   2.132   0.820   1.737 -0.2519  2.6893  0.7167
  217MOL0     H29881   2.243   0.968   1.895 -0.6412 -0.0037 -2.6213
  217MOL0     H29882   2.191   0.814   1.973  3.5860 -0.7654  2.7037
  217MOL0     H29883   2.414   0.711   1.946 -2.2301 -0.0155  0.9930
  217MOL0     H29884   2.467   0.855   1.868  1.3433  2.0486  2.2918
  217MOL0     H29885   2.539   0.848   2.112  1.4919  0.3805  0.4413
  217MOL0     H29886   2.473   0.991   2.045 -0.5967  0.5762  1.2622
  217MOL0     H29887   2.256   0.941   2.185 -0.0780 -0.4706 -0.5493
  217MOL0     H29888   2.407   0.951   2.271 -0.1544 -0.0952 -0.1618
  217MOL0     H29889   2.305   0.679   2.174 -0.4589 -1.6699  1.0867
  217MOL0     H29890   2.442   0.715   2.271 -0.4506  0.0244 -2.5637
  217MOL0     H29891   2.169   0.819   2.374  0.9014  0.7910  2.8974
  217MOL0     H29892   2.322   0.821   2.451 -0.8919 -0.8636  0.7996
  217MOL0     H29893   2.308   0.557   2.425  1.6877 -0.1050  2.5134
  217MOL0     H29894   2.232   0.642   2.558 -1.9773 -2.4704 -0.2246
  217MOL0     H29895   2.155   0.452   2.243  2.1380 -1.0613  1.0117
  217MOL0     H29896   1.908   0.359   2.144 -1.1905 -0.3629 -0.2802
  217MOL0     H29897   1.771   0.383   2.249  1.1470  2.0654  1.9833
  217MOL0     H29898   1.853   0.191   2.379  2.1805  2.4120  1.7051
  217MOL0     H29899   1.824   0.147   2.203 -0.0368  0.2621  0.2178
  217MOL0     H29900   2.112   0.190   2.300  1.2242  2.1008 -1.8142
  217MOL0     H29901   2.039   0.034   2.290 -0.3714  0.9795  0.6219
  217MOL0     H29902   2.153   0.043   2.111 -0.7219 -1.3388  3.9448
  217MOL0     H29903   1.989   0.087   2.052 -1.4722  0.8830  1.8822
  217MOL0     H29904   2.147   0.007   1.884 -1.4801 -0.5320 -2.2770
  217MOL0     H29905   2.315  -0.106   1.707 -0.7949 -0.8584  0.4140
  217MOL0     H29906   2.238  -0.038   1.557  0.2534  0.7632  0.0344
  217MOL0     H29907   2.147  -0.097   1.697 -0.0233 -0.8157 -1.7480
  217MOL0     H29908   2.519   0.364   1.344  2.2878 -1.9618  0.1375
  217MOL0     H29909   2.595   0.351   1.094  0.2153 -0.3297 -1.8735
  217MOL0     H29910   2.513  -0.012   0.944  1.1099 -1.1776 -2.0171
  217MOL0     H29911   2.401   0.054   0.825 -2.0997 -0.2567  2.2391
  217MOL0     H29912   2.561  -0.029   0.699 -1.5170  0.1213 -0.6213
  217MOL0     H29913   2.590   0.153   0.704  1.8266  0.1011 -0.1014
  217MOL0     H29914   2.738  -0.056   0.871  1.2578 -1.6809 -2.0388
  217MOL0     H29915   2.767   0.122   0.845 -2.3199 -0.5429  1.9505
  217MOL0     H29916   2.819   0.058   0.593 -2.1705 -0.1964 -0.9329
  217MOL0     H29917   2.793  -0.105   0.631  3.8922 -0.0821 -2.6830
  217MOL0     H29918   3.014   0.061   0.743  0.5374 -2.6335  4.7840
  217MOL0     H29919   2.989  -0.120   0.774 -3.2600 -0.9537  1.9695
  217MOL0     H29920   3.034   0.027   0.519  1.2885 -0.6063 -0.2121
  217MOL0     H29921   2.996  -0.151   0.534 -0.3562 -0.9060  2.9553
  217MOL0     H29922   3.175  -0.208   0.656 -1.3050  2.1636  0.6042
  217MOL0     H29923   3.251  -0.037   0.656  2.2478  0.2424  0.0903
  217MOL0     H29924   3.244  -0.220   0.432  2.4451 -0.8103  0.4739
  217MOL0     H29925   3.373  -0.127   0.519 -0.4158 -1.4714  1.5228
  217MOL0     H29926   2.290   0.084   1.009  0.9967  1.2525 -0.8945
  217MOL0     H29927   2.185   0.103   1.217 -0.1076 -0.2881 -1.3438
  217MOL0     H29928   2.275   0.432   1.663  0.4775  0.6304  1.1014
  217MOL0     H29929   2.176   0.431   1.898  0.0841 -0.0811  2.1423
  217MOL0     H29930   2.191   0.653   1.555  0.5191  2.1538  1.2502
  217MOL0     H29931   2.171   0.588   1.340 -1.4409  1.2603  3.6004
  217MOL0     H29932   2.638   0.609   0.878  0.9900 -1.1750 -2.9041
  217MOL0     H29933   2.621   0.485   0.664 -1.2281 -4.2974  0.5057
  217MOL0     H29934   2.486   0.546   0.448 -0.2306  0.4990 -0.6556
  217MOL0     H29935   2.577   0.402   0.485  0.3614  1.9841  3.2531
  217MOL0     H29936   2.465   0.444   0.237 -1.8151 -4.3673 -4.0184
  217MOL0     H29937   2.320   0.379   0.296  0.2547  0.8182  0.1599
  217MOL0     H29938   2.423   0.206   0.204  0.5662 -0.6021 -0.8948
  217MOL0     H29939   2.586   0.247   0.241 -0.9707 -1.6367 -2.8970
  217MOL0     H29940   2.367   0.131   0.422 -0.2539  0.8575 -0.7475
  217MOL0     H29941   2.519   0.190   0.480  2.0008  1.8610 -0.9350
  217MOL0     H29942   2.723  -0.133   0.331 -0.2891 -0.6205  0.7095
  217MOL0     H29943   2.215   0.399   0.731 -0.4695  1.5933 -2.0834
  217MOL0     H29944   2.111   0.399   0.933  1.3902 -2.4103  0.1172
  217MOL0     H29945   2.229   0.414   1.064  0.9514  2.0522  0.9013
  217MOL0     H29946   2.126   0.554   1.019  1.6454  1.4098 -1.1500
  218MOL0     O29947   5.934   5.092   2.821 -0.5072  0.1273 -0.2222
  218MOL0     C29948   6.042   5.043   2.779  0.3255  0.5313  0.6854
  218MOL0     O29949   6.057   4.937   2.698  0.4461 -0.2920  1.6794
  218MOL0     C29950   5.951   4.854   2.678 -0.3320  0.3405 -0.0990
  218MOL0     C29951   5.871   4.813   2.779 -0.7127 -0.4375  0.0230
  218MOL0     C29952   5.750   4.740   2.747  0.7546 -0.1000 -0.4742
  218MOL0     C29953   5.715   4.703   2.621 -0.5369 -0.1782  0.1512
  218MOL0     O29954   5.598   4.635   2.595  0.0254 -0.2057  0.6396
  218MOL0     C29955   5.489   4.730   2.575  0.0038 -0.1487  0.4567
  218MOL0     C29956   5.372   4.637   2.526 -0.6749 -0.0766 -0.7411
  218MOL0     C29957   5.235   4.698   2.512  0.3631  0.3240  0.1019
  218MOL0     C29958   5.145   4.582   2.454  0.6589 -0.0693 -0.4360
  218MOL0     C29959   5.019   4.626   2.373 -0.2209  0.0333 -0.0123
  218MOL0     C29960   4.924   4.511   2.335 -0.1714  0.4467  0.7466
  218MOL0     C29961   4.977   4.376   2.292 -0.7226  0.2793  1.0846
  218MOL0     C29962   4.875   4.276   2.243 -0.6903  0.3478 -0.8224
  218MOL0     N29963   4.805   4.329   2.119 -0.0257 -0.5929 -0.1532
  218MOL0     C29964   4.858   4.372   1.996  0.7746 -0.0758  0.3894
  218MOL0     C29965   4.747   4.391   1.915 -0.6634 -0.5943  0.7685
  218MOL0     C29966   4.746   4.439   1.770  0.2521 -0.4181  0.5715
  218MOL0     C29967   4.802   4.575   1.774 -0.4658 -0.3659  0.1341
  218MOL0     C29968   4.713   4.686   1.840  0.2941  1.1057  1.0734
  218MOL0     C29969   4.761   4.823   1.802 -0.7506  0.0561 -0.8793
  218MOL0     O29970   4.891   4.837   1.862  0.5057  0.1598 -0.0604
  218MOL0     C29971   4.953   4.957   1.834 -0.3195  0.1820  0.6094
  218MOL0     C29972   4.896   5.062   1.761  0.3580  0.1474 -0.1598
  218MOL0     C29973   4.979   5.173   1.727 -0.6730 -0.4397 -0.0704
  218MOL0     C29974   4.920   5.272   1.634  0.4181 -0.2193 -0.1061
  218MOL0     C29975   5.120   5.183   1.761  0.1434  0.5150 -0.3628
  218MOL0     C29976   5.216   5.296   1.731 -1.0946  0.1337 -0.3822
  218MOL0     O29977   5.169   5.410   1.694 -0.2988 -0.6994  0.6727
  218MOL0     C29978   5.246   5.483   1.606  0.2658 -0.0787  0.3192
  218MOL0     C29979   5.251   5.447   1.467 -0.7317  0.7744  0.0601
  218MOL0     C29980   5.319   5.528   1.377 -0.4229  0.0958 -0.2176
  218MOL0     C29981   5.378   5.655   1.418 -0.6221 -0.2108  0.9605
  218MOL0     O29982   5.436   5.736   1.322 -0.2869 -0.4573  0.2227
  218MOL0     C29983   5.381   5.752   1.187  0.2207  1.1804  0.0517
  218MOL0     C29984   5.277   5.859   1.184 -0.9637 -0.4234  0.5020
  218MOL0     C29985   5.341   5.976   1.259 -0.1498  0.1037 -0.2831
  218MOL0     C29986   5.277   6.109   1.213 -0.8115 -0.1227  0.7367
  218MOL0     C29987   5.352   6.237   1.259 -0.0711 -0.2265 -0.6627
  218MOL0     C29988   5.299   6.353   1.157 -0.3237 -0.0291 -0.4406
  218MOL0     C29989   5.347   6.497   1.210 -0.0266  0.1650  0.7225
  218MOL0     C29990   5.294   6.616   1.130  0.7250  0.8701 -0.0650
  218MOL0    Cl29991   5.247   6.744   1.249 -0.0189  0.2092  0.3911
  218MOL0     C29992   5.382   5.686   1.555 -0.4514 -0.2621  0.9532
  218MOL0     C29993   5.320   5.599   1.639  1.1959 -0.3482  0.4080
  218MOL0     O29994   5.333   5.265   1.741  0.1379  0.1386  0.1513
  218MOL0     C29995   5.174   5.073   1.834 -0.0633  0.7284  0.6843
  218MOL0     C29996   5.088   4.967   1.872 -0.0063  0.6633 -0.0875
  218MOL0     N29997   4.634   4.368   1.991 -0.6945 -1.3919 -0.3976
  218MOL0     N29998   4.669   4.328   2.108  1.1868 -0.1342  0.0973
  218MOL0     C29999   5.815   4.738   2.528  0.7716  0.8301 -0.0624
  218MOL0     C30000   5.930   4.810   2.546  0.2001 -0.9102  0.6511
  218MOL0     C30001   6.167   5.125   2.801  0.4488 -0.2798  0.0753
  218MOL0     C30002   6.277   5.063   2.856  0.0699 -0.1340  0.1629
  218MOL0     C30003   6.401   5.132   2.880  0.1975 -0.0769 -0.5148
  218MOL0     C30004   6.414   5.268   2.849 -0.2653 -0.5973  0.5975
  218MOL0     O30005   6.526   5.345   2.851  0.1381  0.1558  0.2307
  218MOL0     C30006   6.652   5.287   2.877 -0.2010  0.2708 -0.8790
  218MOL0     C30007   6.677   5.294   3.022 -0.2004  0.3130 -0.5246
  218MOL0     C30008   6.824   5.303   3.061 -0.8324  0.2164  0.0245
  218MOL0     C30009   6.849   5.273   3.204 -0.3254 -0.2469  0.1116
  218MOL0     C30010   6.810   5.393   3.289  0.2498  0.3764 -1.2553
  218MOL0     C30011   6.788   5.500   3.347  0.1881 -0.5449  0.3962
  218MOL0     C30012   6.300   5.321   2.792  0.0350 -0.0584 -1.0115
  218MOL0     C30013   6.177   5.265   2.774 -0.1080  0.2854  0.5172
  218MOL0     C30014   6.087   5.335   2.675  0.7924  0.2583 -0.4035
  218MOL0     H30015   5.879   4.836   2.885  0.0191 -0.5907  0.0061
  218MOL0     H30016   5.683   4.716   2.829  1.7228 -0.1963  0.3223
  218MOL0     H30017   5.502   4.803   2.495 -0.4718 -0.0575  0.4570
  218MOL0     H30018   5.470   4.775   2.673  1.1249  1.2865  0.0502
  218MOL0     H30019   5.396   4.584   2.434 -0.6239  0.6995 -1.1828
  218MOL0     H30020   5.366   4.566   2.609  2.6571  0.8040  0.4069
  218MOL0     H30021   5.198   4.721   2.613  1.2909 -1.9974  1.0348
  218MOL0     H30022   5.236   4.781   2.441  1.3092 -1.1824 -1.7232
  218MOL0     H30023   5.204   4.513   2.393  2.9694 -0.4849  2.0534
  218MOL0     H30024   5.105   4.514   2.530  1.8780 -0.5960 -0.2410
  218MOL0     H30025   5.058   4.682   2.288  2.2114 -0.3053  0.8011
  218MOL0     H30026   4.969   4.701   2.434 -0.4870 -1.1669  1.2920
  218MOL0     H30027   4.866   4.475   2.421 -0.0902 -2.4698 -0.3226
  218MOL0     H30028   4.857   4.553   2.260  0.9294  0.7321 -0.1061
  218MOL0     H30029   5.033   4.339   2.379 -0.0618  2.5772  1.7061
  218MOL0     H30030   5.036   4.398   2.203 -4.4064  1.3368 -1.3014
  218MOL0     H30031   4.931   4.183   2.227  1.4018  1.4133 -0.0712
  218MOL0     H30032   4.808   4.248   2.325 -0.3182  0.9899 -0.2939
  218MOL0     H30033   4.963   4.389   1.976  0.2753  2.1973 -0.6113
  218MOL0     H30034   4.646   4.454   1.728 -0.1851  2.2605  2.3259
  218MOL0     H30035   4.798   4.362   1.711  2.2927  0.6704  0.8505
  218MOL0     H30036   4.892   4.582   1.837 -1.4231  0.9341  1.4205
  218MOL0     H30037   4.836   4.595   1.672  1.6660 -0.9385  0.6824
  218MOL0     H30038   4.606   4.674   1.818  0.6617  1.2815 -1.0563
  218MOL0     H30039   4.728   4.682   1.948  0.6686 -1.6642  0.9947
  218MOL0     H30040   4.761   4.832   1.693  5.3508 -2.5967 -1.5350
  218MOL0     H30041   4.699   4.895   1.855  0.9677 -0.8250  2.6667
  218MOL0     H30042   4.796   5.050   1.721 -0.3234  0.2958  1.4382
  218MOL0     H30043   4.981   5.352   1.590 -0.3000 -0.0437 -0.8193
  218MOL0     H30044   4.834   5.311   1.689  0.5099 -0.2128  0.0307
  218MOL0     H30045   4.887   5.218   1.545  3.2927 -2.0037 -0.1855
  218MOL0     H30046   5.192   5.363   1.434  1.1768  0.8484 -4.1925
  218MOL0     H30047   5.306   5.505   1.272 -0.9492  1.7588 -0.5478
  218MOL0     H30048   5.463   5.773   1.117 -0.3564 -1.6641 -1.6477
  218MOL0     H30049   5.349   5.657   1.143  0.9379  0.9829 -0.0534
  218MOL0     H30050   5.242   5.883   1.083  0.1267 -0.2746  0.1521
  218MOL0     H30051   5.191   5.836   1.248 -2.1486  2.8393  0.2979
  218MOL0     H30052   5.450   5.982   1.258 -0.0865 -0.8951 -1.0270
  218MOL0     H30053   5.317   5.967   1.365  0.8090  0.2638 -0.0449
  218MOL0     H30054   5.175   6.110   1.251 -1.2103 -1.2058 -0.2598
  218MOL0     H30055   5.281   6.114   1.104  1.8535 -0.7661  0.7360
  218MOL0     H30056   5.345   6.272   1.362 -4.2474 -2.3854  0.0140
  218MOL0     H30057   5.456   6.208   1.243 -0.6457 -3.0354  0.0935
  218MOL0     H30058   5.191   6.342   1.164 -0.3757  0.5011 -0.4297
  218MOL0     H30059   5.345   6.341   1.058  1.0540  3.5458 -0.3703
  218MOL0     H30060   5.455   6.504   1.220 -0.1164  1.0200  1.2106
  218MOL0     H30061   5.311   6.513   1.313  0.7711  1.8606  0.7755
  218MOL0     H30062   5.213   6.588   1.062  0.6041 -0.4820  0.6135
  218MOL0     H30063   5.379   6.645   1.068  1.8427 -2.3023 -0.1774
  218MOL0     H30064   5.417   5.786   1.578 -2.2804  0.9830 -1.3120
  218MOL0     H30065   5.328   5.623   1.745  0.0787 -0.8036  0.6072
  218MOL0     H30066   5.279   5.052   1.854 -0.3153 -0.1232  1.2102
  218MOL0     H30067   5.131   4.895   1.940 -0.6898  1.0141  0.7480
  218MOL0     H30068   5.788   4.703   2.428 -4.0913  0.3062  1.1603
  218MOL0     H30069   5.978   4.861   2.463  1.2372 -2.0461  0.5279
  218MOL0     H30070   6.265   4.957   2.878 -0.8844 -0.7536 -2.8961
  218MOL0     H30071   6.488   5.076   2.913 -0.0372  0.3476  0.8886
  218MOL0     H30072   6.673   5.188   2.838  1.2013 -0.0013  0.4746
  218MOL0     H30073   6.729   5.345   2.826 -0.1452  1.0353  0.0384
  218MOL0     H30074   6.643   5.206   3.078  1.6567  0.3300  0.7415
  218MOL0     H30075   6.624   5.377   3.069 -0.0127  0.6258 -0.8577
  218MOL0     H30076   6.878   5.236   2.994  0.8157 -0.5452  2.0045
  218MOL0     H30077   6.852   5.405   3.033  2.2532  0.7245  4.0111
  218MOL0     H30078   6.957   5.253   3.211 -0.6903 -2.0211  1.4211
  218MOL0     H30079   6.783   5.191   3.232 -3.2155  1.2591 -1.8208
  218MOL0     H30080   6.763   5.597   3.383  2.9074 -1.0514  4.3004
  218MOL0     H30081   6.314   5.418   2.745  0.2697 -0.2026 -1.2406
  218MOL0     H30082   6.026   5.404   2.734 -0.6002  1.1461 -2.7107
  218MOL0     H30083   6.137   5.386   2.592 -1.4743  0.6139 -1.6602
  218MOL0     H30084   6.009   5.274   2.628  0.4108  0.6717 -0.3170
  219MOL0     O30085   8.157   0.087   1.094  0.3053  0.2031 -0.2710
  219MOL0     C30086   8.204   0.199   1.092  0.1694 -0.1255 -0.2503
  219MOL0     O30087   8.322   0.229   1.132  0.2004  0.3831 -0.2520
  219MOL0     C30088   8.400   0.141   1.198  0.4733 -0.5917  0.5847
  219MOL0     C30089   8.462   0.193   1.317 -0.4775 -0.0397 -0.1327
  219MOL0     C30090   8.576   0.125   1.380  1.2493 -0.4465 -1.0265
  219MOL0     C30091   8.615   0.004   1.323 -0.5519  0.8221 -0.7247
  219MOL0     O30092   8.718  -0.064   1.394 -0.4483  0.7157  0.1093
  219MOL0     C30093   8.839   0.020   1.387  0.2864  0.3226  0.1217
  219MOL0     C30094   8.961  -0.066   1.430  0.6629  0.7886  0.2892
  219MOL0     C30095   9.088   0.007   1.374  0.1658 -0.2923  0.2521
  219MOL0     C30096   9.221  -0.071   1.369  0.4201  0.5609  0.0012
  219MOL0     C30097   9.324   0.012   1.302 -0.7201 -0.7224 -1.1573
  219MOL0     C30098   9.458  -0.054   1.307  0.0717  0.0669 -0.4263
  219MOL0     C30099   9.574   0.027   1.245 -0.5030  0.1203 -0.2016
  219MOL0     C30100   9.531   0.087   1.116  0.3299 -0.3647  0.2168
  219MOL0     N30101   9.646   0.142   1.039 -0.2546 -0.4451  0.4556
  219MOL0     C30102   9.761   0.079   1.020 -0.5853  0.2609  0.1616
  219MOL0     C30103   9.833   0.163   0.945  0.2825  0.2916  0.0534
  219MOL0     C30104   9.975   0.139   0.901  0.7206 -0.4291 -0.4268
  219MOL0     C30105  10.071   0.169   1.009  0.8511  0.2235 -0.5731
  219MOL0     C30106  10.167   0.053   1.049 -0.2659  0.2741 -0.2355
  219MOL0     C30107  10.268  -0.001   0.944 -0.2442  0.1249 -0.4974
  219MOL0     O30108  10.351  -0.116   0.986 -0.1160  0.4373 -0.6554
  219MOL0     C30109  10.298  -0.242   1.001 -0.2865 -0.1444 -0.0470
  219MOL0     C30110  10.322  -0.317   1.117 -0.2049 -0.3958  0.9716
  219MOL0     C30111  10.258  -0.437   1.148  0.5474  0.1526 -0.9797
  219MOL0     C30112  10.323  -0.504   1.265  0.9746  0.3088  0.2841
  219MOL0     C30113  10.163  -0.493   1.064  0.4336 -0.0561 -0.6300
  219MOL0     C30114  10.080  -0.617   1.096  0.3708  1.0284 -0.2578
  219MOL0     O30115  10.002  -0.677   1.009 -0.1622 -0.3063 -0.7058
  219MOL0     C30116   9.961  -0.812   1.020  0.1193 -1.0452 -0.6363
  219MOL0     C30117  10.048  -0.930   1.051 -0.0070  0.1380  0.5177
  219MOL0     C30118   9.990  -1.055   1.028  0.1421  0.3233 -0.8335
  219MOL0     C30119   9.854  -1.070   0.975 -0.0267 -0.2938 -0.0569
  219MOL0     O30120   9.801  -1.195   0.962  0.4311 -0.3315 -0.1205
  219MOL0     C30121   9.764  -1.252   1.087 -0.2717 -1.2535 -0.1798
  219MOL0     C30122   9.833  -1.396   1.085  0.7036  0.7135  1.0138
  219MOL0     C30123   9.790  -1.469   1.212  0.4020  0.1994 -0.3208
  219MOL0     C30124   9.883  -1.592   1.227  0.9382  0.0045 -0.8575
  219MOL0     C30125  10.009  -1.549   1.302  0.5976 -0.2639  0.3114
  219MOL0     C30126  10.112  -1.655   1.324 -0.0112  0.7898 -0.2113
  219MOL0     C30127  10.189  -1.698   1.200  0.4247 -1.0500  0.6543
  219MOL0     C30128  10.315  -1.772   1.247 -0.2488 -0.0954  0.3476
  219MOL0    Cl30129  10.431  -1.678   1.354 -0.0068 -0.7271  0.4434
  219MOL0     C30130   9.774  -0.959   0.962 -0.1856 -0.2595 -0.2040
  219MOL0     C30131   9.832  -0.832   0.974 -0.3601  0.0182 -0.5800
  219MOL0     O30132  10.104  -0.671   1.206  0.5075  0.8381 -0.0598
  219MOL0     C30133  10.134  -0.412   0.946 -0.1764 -0.0342  0.1098
  219MOL0     C30134  10.204  -0.299   0.909  0.4688 -0.5635 -0.5001
  219MOL0     N30135   9.764   0.283   0.930  0.8541 -1.1064 -0.2035
  219MOL0     N30136   9.649   0.270   0.987 -0.1031  0.1369 -0.8497
  219MOL0     C30137   8.543  -0.059   1.219 -0.7764  0.3967 -0.0269
  219MOL0     C30138   8.440   0.011   1.147  0.0747  0.5090 -0.0134
  219MOL0     C30139   8.124   0.314   1.038  1.2796 -0.0054 -0.0925
  219MOL0     C30140   8.196   0.423   0.986 -0.9315 -0.7907 -0.2247
  219MOL0     C30141   8.136   0.540   0.943 -0.7630  0.2724  0.3404
  219MOL0     C30142   7.997   0.542   0.934 -1.0102 -0.1936 -0.5288
  219MOL0     O30143   7.937   0.663   0.880  0.3784  0.2327  0.9009
  219MOL0     C30144   7.797   0.672   0.849 -0.1952 -0.1221  0.2750
  219MOL0     C30145   7.766   0.635   0.705  0.6427 -0.2722  0.3044
  219MOL0     C30146   7.833   0.719   0.605  0.0405 -0.5259 -0.3484
  219MOL0     C30147   7.774   0.715   0.470  0.4567 -0.6357  0.2086
  219MOL0     C30148   7.630   0.738   0.463 -0.0497  0.1167  0.4847
  219MOL0     C30149   7.512   0.746   0.456  0.2761 -1.0734 -0.2052
  219MOL0     C30150   7.920   0.435   0.977 -0.6644  0.0209  0.2064
  219MOL0     C30151   7.977   0.328   1.039 -0.7632  0.0014  0.3907
  219MOL0     C30152   7.893   0.205   1.084  0.8490  0.0312  0.2557
  219MOL0     H30153   8.435   0.292   1.353  1.6032  1.2416 -1.8495
  219MOL0     H30154   8.625   0.171   1.464  0.0931 -2.7469  1.0410
  219MOL0     H30155   8.830   0.096   1.465  2.3866 -3.0263  4.0198
  219MOL0     H30156   8.847   0.055   1.284  1.0130 -1.0610 -0.3041
  219MOL0     H30157   8.953  -0.077   1.539  1.0299  1.2322  0.3625
  219MOL0     H30158   8.957  -0.165   1.384 -2.5554 -0.5638  3.0399
  219MOL0     H30159   9.057   0.015   1.270  1.1400 -1.4816 -0.1582
  219MOL0     H30160   9.094   0.103   1.425 -2.5168 -0.4215  0.9742
  219MOL0     H30161   9.256  -0.094   1.470  2.8098 -2.0837 -1.2762
  219MOL0     H30162   9.215  -0.169   1.321  0.0741  0.0497  1.0496
  219MOL0     H30163   9.330   0.113   1.344  0.5263 -1.8947  1.7949
  219MOL0     H30164   9.301   0.024   1.196  0.3628  0.5526 -1.2797
  219MOL0     H30165   9.482  -0.067   1.413  0.3606 -0.6662 -0.5750
  219MOL0     H30166   9.440  -0.155   1.269 -1.0196  0.2526 -0.4454
  219MOL0     H30167   9.656  -0.045   1.247  0.3277  1.0089  2.5856
  219MOL0     H30168   9.616   0.107   1.308 -2.0317 -0.8776  2.2089
  219MOL0     H30169   9.481   0.011   1.054 -1.0202 -0.5839  1.5184
  219MOL0     H30170   9.466   0.172   1.135  2.2435  1.3176 -0.3709
  219MOL0     H30171   9.790  -0.015   1.066  0.5408  0.9324  0.8735
  219MOL0     H30172   9.988   0.203   0.813  1.8830  0.2157  0.1955
  219MOL0     H30173   9.991   0.033   0.878  3.1941 -1.0658  3.3085
  219MOL0     H30174  10.126   0.258   0.976  0.8483  0.4421  0.0066
  219MOL0     H30175  10.020   0.194   1.102  0.2564 -3.1858  0.1524
  219MOL0     H30176  10.238   0.082   1.127 -0.7627  0.5292  0.1345
  219MOL0     H30177  10.110  -0.032   1.088  2.1488 -1.3363 -0.0393
  219MOL0     H30178  10.203  -0.019   0.858 -0.1397 -4.0700  0.1099
  219MOL0     H30179  10.337   0.078   0.913 -1.1450 -0.0661 -3.2621
  219MOL0     H30180  10.397  -0.267   1.177 -0.4712  1.4046 -0.1214
  219MOL0     H30181  10.341  -0.611   1.258  0.8233  0.3730 -2.3546
  219MOL0     H30182  10.245  -0.486   1.339 -2.3539  1.3443 -3.1289
  219MOL0     H30183  10.414  -0.449   1.291  0.4118  0.5392  1.8351
  219MOL0     H30184  10.150  -0.925   1.089 -0.1697 -1.3500  1.2176
  219MOL0     H30185  10.050  -1.140   1.059  0.9160  1.5236  1.1452
  219MOL0     H30186   9.799  -1.196   1.174 -1.8422  0.3525 -0.5355
  219MOL0     H30187   9.655  -1.258   1.096 -0.3413 -1.9596 -1.3210
  219MOL0     H30188   9.785  -1.442   0.999  1.8078  2.8451 -0.8392
  219MOL0     H30189   9.942  -1.394   1.072  0.5663 -0.3395 -0.5760
  219MOL0     H30190   9.687  -1.500   1.193  0.8558 -0.5833 -1.6459
  219MOL0     H30191   9.791  -1.395   1.293 -0.6201 -0.1134 -0.0055
  219MOL0     H30192   9.908  -1.637   1.130 -0.3746  1.3079 -1.8430
  219MOL0     H30193   9.830  -1.658   1.297 -0.8619 -0.8968 -2.9281
  219MOL0     H30194  10.048  -1.467   1.241 -1.5929  0.5455 -0.0902
  219MOL0     H30195   9.989  -1.506   1.401  1.5977 -1.7326  1.1946
  219MOL0     H30196  10.057  -1.736   1.374 -0.9358  1.1081 -0.6886
  219MOL0     H30197  10.186  -1.618   1.395  1.2562  1.1586 -1.6953
  219MOL0     H30198  10.232  -1.613   1.146 -0.5037 -2.2131 -2.0606
  219MOL0     H30199  10.129  -1.759   1.132  0.4627 -2.1719  1.5812
  219MOL0     H30200  10.373  -1.801   1.158 -2.2291  2.6691 -2.0588
  219MOL0     H30201  10.303  -1.868   1.299 -1.1561 -1.7128 -2.5941
  219MOL0     H30202   9.670  -0.972   0.934 -0.2369 -2.5357  0.8362
  219MOL0     H30203   9.775  -0.742   0.956  1.8583  1.6673  0.1506
  219MOL0     H30204  10.066  -0.454   0.873  0.6942  0.8617 -1.2611
  219MOL0     H30205  10.173  -0.250   0.817 -1.5724 -2.1640 -0.7536
  219MOL0     H30206   8.566  -0.162   1.195 -0.1724  0.0782  1.7988
  219MOL0     H30207   8.384  -0.040   1.070  3.6349 -3.4544 -0.3823
  219MOL0     H30208   8.301   0.436   1.009 -1.4683  2.0124  0.9707
  219MOL0     H30209   8.200   0.626   0.927  3.4137 -2.7184 -0.7758
  219MOL0     H30210   7.735   0.610   0.914  0.7042 -0.1271  1.1517
  219MOL0     H30211   7.773   0.775   0.875  1.3973 -0.0352  1.5659
  219MOL0     H30212   7.657   0.637   0.712  0.6340  1.9013  0.1395
  219MOL0     H30213   7.799   0.533   0.680  0.9277 -0.1811  0.2982
  219MOL0     H30214   7.831   0.819   0.649  1.2164 -1.3238  1.6600
  219MOL0     H30215   7.939   0.693   0.600  0.5866  1.5411 -0.5724
  219MOL0     H30216   7.778   0.612   0.435 -2.3848 -0.5409 -0.6582
  219MOL0     H30217   7.830   0.784   0.406  0.7846  1.3052  2.4362
  219MOL0     H30218   7.412   0.783   0.451  1.3461  3.1602  3.1972
  219MOL0     H30219   7.813   0.433   0.962 -0.3002 -1.7244 -2.9362
  219MOL0     H30220   7.918   0.155   1.178  4.1676 -0.8804 -0.9511
  219MOL0     H30221   7.788   0.229   1.065  1.7688  3.2036 -1.5695
  219MOL0     H30222   7.906   0.126   1.009 -2.2954 -2.5798  2.1787
  220MOL0     O30223   6.502   5.186   8.225  0.0517 -0.2551  0.2729
  220MOL0     C30224   6.523   5.067   8.198 -0.0956 -1.8397 -0.1242
  220MOL0     O30225   6.524   5.025   8.072 -0.3035  0.4074 -0.8116
  220MOL0     C30226   6.549   5.119   7.982 -0.6481  0.4057  0.9173
  220MOL0     C30227   6.451   5.171   7.907  0.4047 -0.0892 -0.8770
  220MOL0     C30228   6.479   5.261   7.812  0.0003  0.5143  0.3535
  220MOL0     C30229   6.601   5.308   7.790  0.4958 -0.4310  0.1998
  220MOL0     O30230   6.595   5.414   7.697 -0.6254  1.1999  0.2628
  220MOL0     C30231   6.705   5.502   7.706 -0.7333  0.9813 -0.3115
  220MOL0     C30232   6.676   5.644   7.651  0.6200 -0.0173  0.0472
  220MOL0     C30233   6.803   5.729   7.654  1.1373 -0.1485 -0.1234
  220MOL0     C30234   6.776   5.865   7.592  0.6290 -1.3365 -0.0530
  220MOL0     C30235   6.913   5.950   7.587 -0.2363  0.5885  1.0079
  220MOL0     C30236   6.882   6.085   7.524  0.8775 -0.8324 -0.0960
  220MOL0     C30237   6.977   6.202   7.547  0.7640  0.5896 -0.4024
  220MOL0     C30238   7.096   6.179   7.464 -0.7409  0.1538 -0.8486
  220MOL0     N30239   7.191   6.288   7.449  0.2149  1.4309 -0.3460
  220MOL0     C30240   7.192   6.386   7.351 -0.2654  0.7803  0.6425
  220MOL0     C30241   7.282   6.473   7.388  0.1570 -0.6551  0.5073
  220MOL0     C30242   7.309   6.608   7.310  0.2984  0.6247  0.0047
  220MOL0     C30243   7.442   6.618   7.246  0.4849 -0.1224  0.0372
  220MOL0     C30244   7.454   6.742   7.157 -0.1157 -0.4903 -0.6317
  220MOL0     C30245   7.433   6.872   7.228 -0.1777  0.6190  0.1325
  220MOL0     O30246   7.286   6.898   7.242 -1.2075  0.4868 -0.8633
  220MOL0     C30247   7.240   6.991   7.335  0.1497 -0.1923 -0.0978
  220MOL0     C30248   7.116   7.037   7.313  0.7847  1.1270  0.2013
  220MOL0     C30249   7.053   7.134   7.394  0.0416  0.4345 -0.1850
  220MOL0     C30250   6.922   7.197   7.345 -0.1270 -0.4364  1.2946
  220MOL0     C30251   7.120   7.175   7.509  0.6863  0.9179  0.0501
  220MOL0     C30252   7.075   7.280   7.605 -0.4741 -0.1901  0.5122
  220MOL0     O30253   7.164   7.301   7.705 -0.2065 -0.0833 -0.2346
  220MOL0     C30254   7.136   7.346   7.833  0.6062 -0.5284 -0.1098
  220MOL0     C30255   7.005   7.341   7.902 -1.0646 -0.4385 -0.1723
  220MOL0     C30256   6.998   7.383   8.039  0.0869 -0.3341 -0.1910
  220MOL0     C30257   7.108   7.419   8.112 -1.2090  0.1079  0.2159
  220MOL0     O30258   7.112   7.449   8.245 -0.0804 -0.1957 -0.7565
  220MOL0     C30259   6.982   7.491   8.306 -0.8402 -0.2481 -0.2536
  220MOL0     C30260   6.904   7.375   8.382 -0.8644 -1.3490 -0.3239
  220MOL0     C30261   6.973   7.300   8.497 -0.2903  0.5167 -0.3154
  220MOL0     C30262   6.997   7.395   8.608  1.0016  0.2707 -0.5382
  220MOL0     C30263   6.879   7.408   8.699 -1.5393  0.1356  1.0976
  220MOL0     C30264   6.892   7.548   8.776  0.0198 -0.1193  0.7795
  220MOL0     C30265   7.008   7.550   8.877  0.3882  0.2260  0.0621
  220MOL0     C30266   7.018   7.691   8.931  0.4569 -1.3568  0.0311
  220MOL0    Cl30267   6.857   7.763   8.982  0.0134  0.4539  0.1643
  220MOL0     C30268   7.227   7.423   8.048  0.1574  0.4227  0.3960
  220MOL0     C30269   7.248   7.387   7.910  0.3557  0.5951 -0.1757
  220MOL0     O30270   6.966   7.338   7.603 -0.3121 -0.1434  0.1359
  220MOL0     C30271   7.245   7.118   7.537  0.2585  0.3489  0.0684
  220MOL0     C30272   7.313   7.042   7.442 -0.4139  0.1101 -0.5250
  220MOL0     N30273   7.332   6.445   7.513 -0.2990 -0.7321 -0.4255
  220MOL0     N30274   7.270   6.332   7.553 -0.5775 -0.2846  0.4290
  220MOL0     C30275   6.709   5.262   7.861 -0.5290 -0.2077  0.5495
  220MOL0     C30276   6.679   5.161   7.963 -0.5302 -0.3645  0.4185
  220MOL0     C30277   6.549   4.978   8.318  0.3787  0.5587 -0.0046
  220MOL0     C30278   6.555   5.031   8.453 -0.3858  0.0152  0.0760
  220MOL0     C30279   6.589   4.944   8.564 -0.0488 -1.1295 -0.3784
  220MOL0     C30280   6.622   4.817   8.536  0.0234  1.0345 -0.9712
  220MOL0     O30281   6.658   4.727   8.638 -0.2317  0.2336 -0.1479
  220MOL0     C30282   6.709   4.790   8.755  0.7167 -0.5726 -0.3773
  220MOL0     C30283   6.745   4.697   8.872 -0.1250 -0.1827  0.5866
  220MOL0     C30284   6.622   4.611   8.916 -0.4148  0.2861 -0.0185
  220MOL0     C30285   6.503   4.681   8.986  0.2793 -0.1727 -0.5856
  220MOL0     C30286   6.404   4.711   8.884 -0.1198 -1.1870  0.3985
  220MOL0     C30287   6.327   4.745   8.796  0.2362  0.6752 -1.0594
  220MOL0     C30288   6.623   4.759   8.414  0.4660 -0.2579 -0.8819
  220MOL0     C30289   6.581   4.837   8.301  0.6761  0.2599 -0.1335
  220MOL0     C30290   6.595   4.780   8.168 -0.1228  0.1043  0.9145
  220MOL0     H30291   6.348   5.135   7.910 -0.1091  1.0904 -2.5718
  220MOL0     H30292   6.393   5.299   7.757 -0.4761 -1.4675 -0.3544
  220MOL0     H30293   6.790   5.453   7.656 -2.6375 -3.8215  0.6059
  220MOL0     H30294   6.729   5.535   7.807 -2.5708  3.2358 -0.5481
  220MOL0     H30295   6.638   5.631   7.549  0.8475  1.8332 -0.3121
  220MOL0     H30296   6.597   5.691   7.711  0.7171 -0.8027  0.8207
  220MOL0     H30297   6.821   5.744   7.761 -4.6732 -1.3762  1.3676
  220MOL0     H30298   6.875   5.678   7.588  0.0273 -0.4725 -1.1102
  220MOL0     H30299   6.744   5.857   7.487 -1.6992 -2.4232  0.6838
  220MOL0     H30300   6.701   5.921   7.649  1.1139 -2.2822  1.5724
  220MOL0     H30301   6.977   5.893   7.519 -1.8367 -1.8445  1.4373
  220MOL0     H30302   6.963   5.941   7.683 -1.8544 -2.8082  1.6895
  220MOL0     H30303   6.862   6.084   7.416 -0.9440 -2.7950  0.1969
  220MOL0     H30304   6.786   6.116   7.564 -0.6652 -0.3225 -3.7665
  220MOL0     H30305   7.001   6.198   7.653 -0.0088  2.8766 -0.0850
  220MOL0     H30306   6.933   6.300   7.525  3.3535  1.8077 -0.5099
  220MOL0     H30307   7.139   6.082   7.489 -1.2017  0.7933  2.9472
  220MOL0     H30308   7.065   6.164   7.360 -1.0449 -2.1710 -0.4579
  220MOL0     H30309   7.125   6.387   7.265 -1.4718 -1.7837  1.4530
  220MOL0     H30310   7.287   6.684   7.385 -3.2248 -0.6396  0.4512
  220MOL0     H30311   7.232   6.615   7.233 -0.1147 -2.7325 -0.0468
  220MOL0     H30312   7.515   6.630   7.327  0.0489  1.6455  0.2106
  220MOL0     H30313   7.462   6.523   7.195 -1.2216 -1.9149  2.4550
  220MOL0     H30314   7.559   6.743   7.126  0.6532 -1.3955  1.7177
  220MOL0     H30315   7.391   6.734   7.068 -0.4326  2.0339 -0.7019
  220MOL0     H30316   7.486   6.883   7.322  1.4683  3.1077 -0.9738
  220MOL0     H30317   7.479   6.940   7.156 -0.7327  2.3576  1.3497
  220MOL0     H30318   7.056   6.996   7.233  0.6572 -0.1602  0.9169
  220MOL0     H30319   6.885   7.157   7.250 -2.4805 -0.1744  2.0329
  220MOL0     H30320   6.940   7.304   7.331  5.0478 -1.1844  0.1570
  220MOL0     H30321   6.850   7.185   7.426 -4.1209  2.3459 -1.4472
  220MOL0     H30322   6.911   7.312   7.856 -1.3912 -2.1752  1.4291
  220MOL0     H30323   6.901   7.377   8.089  0.4426 -1.0772  0.4423
  220MOL0     H30324   7.007   7.575   8.372  0.8764 -1.8303  1.2113
  220MOL0     H30325   6.916   7.529   8.227 -0.7371  1.3084  0.3786
  220MOL0     H30326   6.816   7.423   8.426 -0.7753 -1.4242 -0.0652
  220MOL0     H30327   6.875   7.295   8.313  0.0767 -3.0960  1.2269
  220MOL0     H30328   7.074   7.279   8.460  0.6785  1.5593  1.5739
  220MOL0     H30329   6.923   7.208   8.528 -1.4650  1.3047  0.1943
  220MOL0     H30330   7.017   7.495   8.566  0.8808 -0.8854 -3.6063
  220MOL0     H30331   7.091   7.373   8.659  0.5295 -0.0532  0.2076
  220MOL0     H30332   6.782   7.413   8.649  0.6805  1.1510 -3.6290
  220MOL0     H30333   6.890   7.334   8.778  2.3477  3.1282  3.7726
  220MOL0     H30334   6.793   7.565   8.818 -0.4155 -0.2386 -0.1818
  220MOL0     H30335   6.918   7.622   8.700 -3.1828 -0.5657 -0.8942
  220MOL0     H30336   7.099   7.517   8.826  0.7060  3.0463 -1.4162
  220MOL0     H30337   6.982   7.482   8.959  0.9492 -1.0016 -0.7566
  220MOL0     H30338   7.069   7.760   8.864  2.2691 -0.5732  2.0919
  220MOL0     H30339   7.074   7.690   9.026 -2.5641 -1.4070  1.9408
  220MOL0     H30340   7.314   7.466   8.096  2.6892  1.3019 -4.3550
  220MOL0     H30341   7.339   7.419   7.860  0.2270  0.7664 -0.3027
  220MOL0     H30342   7.301   7.124   7.629 -0.3935 -0.4583  0.5243
  220MOL0     H30343   7.415   7.016   7.468 -0.5851 -1.4140 -1.2783
  220MOL0     H30344   6.812   5.291   7.839 -0.7543  0.5352  0.4435
  220MOL0     H30345   6.760   5.105   8.009 -0.5088  0.0509  0.8898
  220MOL0     H30346   6.533   5.136   8.468 -1.9001 -0.3942  0.9411
  220MOL0     H30347   6.584   4.991   8.662  2.7019  1.3145 -1.2619
  220MOL0     H30348   6.802   4.844   8.739  2.3425 -2.7125  1.3010
  220MOL0     H30349   6.633   4.853   8.802  0.5017 -0.9502 -0.2196
  220MOL0     H30350   6.790   4.744   8.959 -0.1249 -0.4598  0.7378
  220MOL0     H30351   6.821   4.628   8.835 -0.2901  1.0818 -2.4339
  220MOL0     H30352   6.591   4.561   8.823  0.8469  0.5802 -0.6157
  220MOL0     H30353   6.654   4.537   8.990 -0.5612 -0.9259 -1.1153
  220MOL0     H30354   6.550   4.771   9.027  0.6415 -0.3228 -0.6622
  220MOL0     H30355   6.471   4.619   9.069  0.7945  0.6540  0.2521
  220MOL0     H30356   6.244   4.754   8.729 -0.9687  1.7717  0.5008
  220MOL0     H30357   6.654   4.657   8.390 -0.8497 -0.6499 -0.9890
  220MOL0     H30358   6.631   4.678   8.182  0.7178  0.5616  2.3576
  220MOL0     H30359   6.503   4.775   8.109  1.7347 -1.0177 -2.0931
  220MOL0     H30360   6.664   4.825   8.097 -1.7030 -1.5953 -1.8775
  221MOL0     O30361   0.872   3.673   1.162  0.5321 -0.5580  0.7300
  221MOL0     C30362   0.975   3.606   1.158 -0.2912  0.6741  0.2450
  221MOL0     O30363   0.989   3.481   1.089  1.0043  0.3419  0.1359
  221MOL0     C30364   0.878   3.397   1.078 -0.1176 -0.4761 -0.1327
  221MOL0     C30365   0.783   3.391   1.185 -0.9619  1.1626  0.4849
  221MOL0     C30366   0.678   3.299   1.181 -0.2062  0.6489 -0.3151
  221MOL0     C30367   0.658   3.216   1.069 -0.4390  0.4898 -0.3592
  221MOL0     O30368   0.562   3.126   1.047 -0.4341  0.3975  0.3780
  221MOL0     C30369   0.434   3.148   1.110  0.8870  0.0609 -0.0127
  221MOL0     C30370   0.365   3.011   1.107 -0.0643  0.5508 -0.5240
  221MOL0     C30371   0.297   2.999   0.969 -0.4290  0.6476  0.0417
  221MOL0     C30372   0.267   2.857   0.925 -0.3522  0.9316  0.1538
  221MOL0     C30373   0.194   2.848   0.789 -0.2293  0.0279 -0.0174
  221MOL0     C30374   0.061   2.925   0.799 -0.1320  0.4215 -0.4363
  221MOL0     C30375  -0.032   2.872   0.689 -0.3301  0.1097 -0.2837
  221MOL0     C30376  -0.161   2.952   0.697  0.5074 -0.8772  0.5618
  221MOL0     N30377  -0.222   2.963   0.562 -0.2013 -0.1081 -0.3532
  221MOL0     C30378  -0.209   3.067   0.474 -0.5234 -0.1964  0.0387
  221MOL0     C30379  -0.280   3.031   0.364 -0.1949  0.1319 -1.0624
  221MOL0     C30380  -0.311   3.103   0.230  0.4343  1.4700 -0.0480
  221MOL0     C30381  -0.456   3.041   0.176  0.0277  0.3992 -0.3325
  221MOL0     C30382  -0.477   3.096   0.034  0.0207 -0.4385 -0.7893
  221MOL0     C30383  -0.598   3.051  -0.044 -1.0207  0.4100 -0.7004
  221MOL0     O30384  -0.710   3.074   0.043  0.1789 -0.1430  0.3904
  221MOL0     C30385  -0.833   3.013   0.015  0.6083  0.3602  0.4486
  221MOL0     C30386  -0.933   3.038   0.114 -0.0287 -0.1755  0.2517
  221MOL0     C30387  -1.062   2.980   0.113 -1.1282  0.9409  0.4135
  221MOL0     C30388  -1.147   3.015   0.236 -0.9919 -0.4133 -0.6401
  221MOL0     C30389  -1.101   2.900   0.001  0.0768 -1.1486 -0.1245
  221MOL0     C30390  -1.247   2.861  -0.013  0.2907 -0.7626 -0.5829
  221MOL0     O30391  -1.348   2.905   0.075 -0.3341 -0.3685 -0.4531
  221MOL0     C30392  -1.482   2.878   0.055  0.0679  0.4713 -1.1571
  221MOL0     C30393  -1.569   2.987   0.019 -0.8836 -0.7053 -0.2117
  221MOL0     C30394  -1.701   2.966  -0.000  0.6078 -0.4123  0.0993
  221MOL0     C30395  -1.751   2.837  -0.024 -1.1681 -0.9676 -0.2618
  221MOL0     O30396  -1.883   2.804  -0.054 -0.0591  0.1029  0.0721
  221MOL0     C30397  -1.984   2.904  -0.071 -0.2373  1.1707  0.2471
  221MOL0     C30398  -2.117   2.824  -0.099  0.2364  0.1171 -0.3077
  221MOL0     C30399  -2.211   2.889  -0.196 -0.5544 -0.1513 -0.1612
  221MOL0     C30400  -2.329   2.805  -0.244 -0.3983 -1.1798  0.2341
  221MOL0     C30401  -2.362   2.845  -0.389 -0.0925 -0.2071  0.0189
  221MOL0     C30402  -2.486   2.777  -0.433 -0.1730 -0.3742 -0.5282
  221MOL0     C30403  -2.504   2.799  -0.580 -0.2276 -0.0714  0.3999
  221MOL0     C30404  -2.612   2.724  -0.646 -0.5944  1.1200  0.0544
  221MOL0    Cl30405  -2.793   2.739  -0.576 -0.1948  0.2856  0.4298
  221MOL0     C30406  -1.671   2.733   0.018  0.2799  0.6409  0.2785
  221MOL0     C30407  -1.536   2.749   0.057  0.0130 -0.2837  0.8318
  221MOL0     O30408  -1.265   2.779  -0.103 -0.0532  0.6145 -0.0837
  221MOL0     C30409  -0.999   2.870  -0.091  0.3758 -0.5880  0.1242
  221MOL0     C30410  -0.863   2.920  -0.087  0.5705 -0.4723  0.4825
  221MOL0     N30411  -0.342   2.908   0.391  0.0220  0.2690  0.0931
  221MOL0     N30412  -0.304   2.873   0.512  0.2509  0.6030  0.0144
  221MOL0     C30413   0.749   3.221   0.960  0.5254 -0.5902  0.0215
  221MOL0     C30414   0.865   3.303   0.978  0.3241 -0.5395  0.6337
  221MOL0     C30415   1.099   3.649   1.232  0.4054  0.1571  0.4976
  221MOL0     C30416   1.207   3.566   1.232 -0.5764  0.2506 -0.6996
  221MOL0     C30417   1.326   3.609   1.290 -1.0102 -0.2405 -0.4706
  221MOL0     C30418   1.350   3.741   1.342  0.0767  0.1033 -0.1414
  221MOL0     O30419   1.473   3.759   1.401 -0.5879 -1.4935  0.3937
  221MOL0     C30420   1.505   3.894   1.455 -0.4464  0.5231  0.1060
  221MOL0     C30421   1.514   3.991   1.351 -0.1634  0.0389  0.6990
  221MOL0     C30422   1.611   4.112   1.381  0.3107  0.8338 -0.7327
  221MOL0     C30423   1.629   4.219   1.268 -0.8443  0.8340 -0.1867
  221MOL0     C30424   1.675   4.162   1.140  0.5983 -0.2199 -0.1908
  221MOL0     C30425   1.708   4.121   1.034  0.6607  0.6678  0.1136
  221MOL0     C30426   1.233   3.816   1.354  1.0286 -0.3227  0.2082
  221MOL0     C30427   1.110   3.776   1.297 -0.2128  0.2736 -0.1317
  221MOL0     C30428   1.001   3.889   1.299 -0.1687  0.5031 -0.3475
  221MOL0     H30429   0.795   3.454   1.272  3.1547  1.0936  0.1779
  221MOL0     H30430   0.614   3.299   1.269  0.9416  0.4536  0.5514
  221MOL0     H30431   0.370   3.210   1.047  0.8696 -1.0810 -1.1835
  221MOL0     H30432   0.426   3.176   1.215  0.5040 -3.7976  1.1474
  221MOL0     H30433   0.436   2.930   1.127  1.3801  2.5598  3.6751
  221MOL0     H30434   0.291   3.003   1.188 -0.1980  0.5226 -0.6499
  221MOL0     H30435   0.206   3.058   0.955  0.7273  2.3959 -0.4812
  221MOL0     H30436   0.368   3.051   0.904 -3.2545  2.3403 -1.8967
  221MOL0     H30437   0.356   2.794   0.921 -1.4052 -0.6899  1.0282
  221MOL0     H30438   0.207   2.815   1.007 -0.9097 -0.0438 -0.7300
  221MOL0     H30439   0.174   2.748   0.749 -2.6063  0.5096 -0.1465
  221MOL0     H30440   0.257   2.908   0.722 -0.3358  1.1027  0.8132
  221MOL0     H30441   0.013   2.919   0.897 -0.8950  2.8374 -0.5870
  221MOL0     H30442   0.079   3.032   0.786  2.2485  0.0353 -0.8296
  221MOL0     H30443  -0.059   2.770   0.715  1.7107 -0.3019  0.3382
  221MOL0     H30444   0.022   2.879   0.594  0.7765  2.7967  0.4383
  221MOL0     H30445  -0.222   2.916   0.780 -0.3938  0.8338  0.7063
  221MOL0     H30446  -0.132   3.053   0.727 -3.6248  0.7026 -0.0581
  221MOL0     H30447  -0.150   3.155   0.495 -1.3717  1.3886 -3.5740
  221MOL0     H30448  -0.229   3.069   0.165 -0.8603 -3.0442  0.3802
  221MOL0     H30449  -0.305   3.212   0.227 -4.2147  1.9058 -0.3284
  221MOL0     H30450  -0.451   2.932   0.173 -1.3270  0.1544  2.7391
  221MOL0     H30451  -0.531   3.063   0.253  2.1069  1.9229  1.3978
  221MOL0     H30452  -0.479   3.205   0.047  5.4977  0.3142 -3.6255
  221MOL0     H30453  -0.389   3.069  -0.025 -1.0857 -3.7905 -1.1179
  221MOL0     H30454  -0.611   3.110  -0.136 -0.0956 -0.4217 -1.3752
  221MOL0     H30455  -0.583   2.943  -0.052 -3.2658 -0.4009  3.2578
  221MOL0     H30456  -0.897   3.108   0.189  0.6415  2.0050 -1.9559
  221MOL0     H30457  -1.190   2.928   0.286 -3.6457  1.4755  0.6370
  221MOL0     H30458  -1.236   3.076   0.215 -0.5936  0.1688 -0.6772
  221MOL0     H30459  -1.088   3.058   0.318  0.7483  1.2037 -2.6190
  221MOL0     H30460  -1.538   3.089   0.002 -1.0905  0.0458  3.2307
  221MOL0     H30461  -1.763   3.055  -0.015  0.7607  0.1092  2.3087
  221MOL0     H30462  -1.986   2.982   0.007  2.5369  1.7522 -0.1713
  221MOL0     H30463  -1.959   2.953  -0.165  2.9357 -0.5143  0.1076
  221MOL0     H30464  -2.090   2.725  -0.138 -1.7014 -0.1610 -1.0694
  221MOL0     H30465  -2.169   2.811  -0.003  1.1763  2.8172  0.6695
  221MOL0     H30466  -2.155   2.922  -0.284  1.2853  0.4147  1.1621
  221MOL0     H30467  -2.250   2.980  -0.149  0.5769  1.0221 -1.4021
  221MOL0     H30468  -2.418   2.816  -0.181  0.8900  1.8874  1.7196
  221MOL0     H30469  -2.303   2.698  -0.248  5.0172 -0.1291 -0.5171
  221MOL0     H30470  -2.382   2.953  -0.385  0.0909 -0.1994  2.3459
  221MOL0     H30471  -2.280   2.828  -0.458 -0.6760 -2.1335 -0.2676
  221MOL0     H30472  -2.572   2.808  -0.373  1.9217  3.4176  0.8328
  221MOL0     H30473  -2.477   2.669  -0.423 -1.2393 -0.3335  1.2313
  221MOL0     H30474  -2.413   2.767  -0.632 -1.2368 -2.0815 -0.2317
  221MOL0     H30475  -2.520   2.905  -0.601 -3.4364 -0.5136  0.0978
  221MOL0     H30476  -2.574   2.621  -0.641 -1.8752  0.5505  6.1400
  221MOL0     H30477  -2.612   2.760  -0.749  3.3970 -1.7814 -1.1980
  221MOL0     H30478  -1.709   2.633  -0.002  0.0357  0.2699  2.4370
  221MOL0     H30479  -1.469   2.665   0.074 -0.5395 -1.6912 -3.0095
  221MOL0     H30480  -1.031   2.816  -0.179  2.1588 -0.9796 -0.3306
  221MOL0     H30481  -0.789   2.903  -0.165 -0.7183  1.7648 -1.3482
  221MOL0     H30482   0.732   3.167   0.867 -0.5918 -0.6532  0.2433
  221MOL0     H30483   0.939   3.296   0.899 -0.9396 -1.5290 -0.5211
  221MOL0     H30484   1.199   3.465   1.193 -1.7716 -0.7890  1.9464
  221MOL0     H30485   1.406   3.536   1.295  0.5030  1.3888  3.1835
  221MOL0     H30486   1.417   3.920   1.514 -2.2982 -5.2719  0.5169
  221MOL0     H30487   1.593   3.882   1.519 -1.1861  1.5560  1.3846
  221MOL0     H30488   1.418   4.033   1.319  0.9266  1.5522 -0.7805
  221MOL0     H30489   1.547   3.937   1.263  0.7468 -1.4791  1.9160
  221MOL0     H30490   1.575   4.167   1.469 -1.7429 -1.3437 -0.1065
  221MOL0     H30491   1.715   4.085   1.401  1.2808  4.8850  0.7161
  221MOL0     H30492   1.700   4.291   1.310  0.4378 -0.1560 -0.6102
  221MOL0     H30493   1.529   4.264   1.264 -0.8167  1.0962  1.5917
  221MOL0     H30494   1.737   4.077   0.941  2.5903  3.1231 -0.5658
  221MOL0     H30495   1.242   3.904   1.417  2.2263  2.3131 -3.3353
  221MOL0     H30496   0.913   3.849   1.350  0.0590 -2.5017 -2.0796
  221MOL0     H30497   1.037   3.977   1.352 -1.5849  0.7551  0.2474
  221MOL0     H30498   0.978   3.906   1.193 -0.0948  1.1560 -0.2595
  222MOL0     O30499   6.676   9.054  11.305 -0.4875  0.1739  0.2043
  222MOL0     C30500   6.663   9.007  11.420  0.1351  0.4916  0.3403
  222MOL0     O30501   6.767   8.970  11.499 -0.1720  0.0975 -0.6360
  222MOL0     C30502   6.902   9.003  11.461  0.2848  0.3372 -0.2399
  222MOL0     C30503   6.959   9.097  11.540 -1.3837  0.2387  0.4647
  222MOL0     C30504   7.096   9.118  11.518 -0.6065 -0.0287 -0.1350
  222MOL0     C30505   7.179   9.056  11.420  0.8259 -0.2521 -0.0669
  222MOL0     O30506   7.308   9.095  11.425 -0.3620  0.4028 -0.0953
  222MOL0     C30507   7.388   9.077  11.306 -0.2594  0.3461  1.1729
  222MOL0     C30508   7.473   8.958  11.316  0.4269  0.1148 -0.0762
  222MOL0     C30509   7.583   8.941  11.200 -0.0658 -0.6086  0.5220
  222MOL0     C30510   7.519   8.948  11.056 -0.3932  0.9101 -0.0148
  222MOL0     C30511   7.608   8.910  10.941 -0.4403  0.6346 -0.1104
  222MOL0     C30512   7.532   8.902  10.813  0.6125  0.2842 -0.3829
  222MOL0     C30513   7.604   8.822  10.702  0.3609  0.3811  0.8386
  222MOL0     C30514   7.514   8.813  10.574  1.1929  0.1545  0.5540
  222MOL0     N30515   7.409   8.708  10.595  0.7052  0.6681 -0.9332
  222MOL0     C30516   7.273   8.735  10.630  0.2339 -1.0160  0.4148
  222MOL0     C30517   7.213   8.616  10.641  1.1687  0.8241 -0.4448
  222MOL0     C30518   7.061   8.607  10.673 -0.5321 -0.4914 -0.4475
  222MOL0     C30519   7.037   8.568  10.823 -0.3859 -1.7103  0.7226
  222MOL0     C30520   6.898   8.606  10.875  0.6978  0.0113 -0.3327
  222MOL0     C30521   6.883   8.756  10.900  0.0226 -0.4936  0.3079
  222MOL0     O30522   6.990   8.796  10.980  0.4418  0.3779 -0.1634
  222MOL0     C30523   7.000   8.934  10.977 -0.8060 -0.3422 -0.1360
  222MOL0     C30524   6.899   9.019  11.004 -0.3314  0.4104 -0.5398
  222MOL0     C30525   6.906   9.151  11.004 -0.5951  0.6995  0.1220
  222MOL0     C30526   6.791   9.224  11.054  0.1305 -0.2311  0.2966
  222MOL0     C30527   7.032   9.210  10.976  0.5159  0.4295 -0.1563
  222MOL0     C30528   7.053   9.353  10.972 -0.6235  0.2912  0.6088
  222MOL0     O30529   7.161   9.395  10.897  0.3320  0.5605 -0.3817
  222MOL0     C30530   7.183   9.526  10.859  0.4518 -0.2769  0.8850
  222MOL0     C30531   7.232   9.539  10.730  0.1423  0.2141  0.5567
  222MOL0     C30532   7.229   9.670  10.670 -0.0267  0.3639 -0.0296
  222MOL0     C30533   7.201   9.787  10.740 -0.3855 -0.6856 -0.0345
  222MOL0     O30534   7.187   9.916  10.698  0.1281 -0.1590 -0.0532
  222MOL0     C30535   7.267   9.946  10.579  0.2187  0.1912  0.2568
  222MOL0     C30536   7.176   9.984  10.461  0.8349 -0.1006 -0.2070
  222MOL0     C30537   7.244  10.058  10.351  0.0640  0.5781 -0.8739
  222MOL0     C30538   7.246  10.220  10.371 -0.4823  0.0849 -0.8323
  222MOL0     C30539   7.320  10.289  10.258  0.0226 -0.1027  0.1229
  222MOL0     C30540   7.333  10.435  10.286  0.1591 -0.3138  0.3518
  222MOL0     C30541   7.445  10.498  10.203  1.0433 -0.7045 -0.2057
  222MOL0     C30542   7.508  10.609  10.290  0.8319  0.8228  0.0073
  222MOL0    Cl30543   7.366  10.712  10.361 -0.4690  0.5836 -0.2883
  222MOL0     C30544   7.163   9.769  10.869 -0.3120 -0.8859 -0.5211
  222MOL0     C30545   7.147   9.639  10.924  0.8044  0.0666 -0.5678
  222MOL0     O30546   6.983   9.429  11.039  0.2572  0.0950  0.6274
  222MOL0     C30547   7.141   9.121  10.943 -0.7908  0.1342 -0.3438
  222MOL0     C30548   7.131   8.979  10.946  0.9561  0.7759 -0.4304
  222MOL0     N30549   7.312   8.518  10.613 -0.2423 -0.4597 -0.0076
  222MOL0     N30550   7.427   8.575  10.590  0.9791  0.2170  0.0212
  222MOL0     C30551   7.103   8.975  11.335 -0.7624 -0.5946  0.0569
  222MOL0     C30552   6.973   8.946  11.357 -0.4946  0.6367  0.1453
  222MOL0     C30553   6.522   8.985  11.450 -0.0788  1.1159 -1.1011
  222MOL0     C30554   6.466   8.860  11.403  0.7890  0.2685  0.3525
  222MOL0     C30555   6.335   8.823  11.423  0.3429 -0.5864 -0.3569
  222MOL0     C30556   6.253   8.918  11.484  0.4685 -0.5513  0.0517
  222MOL0     O30557   6.122   8.886  11.486 -0.8090  0.7376 -0.3692
  222MOL0     C30558   6.017   8.960  11.551 -0.3258  0.1521  0.0625
  222MOL0     C30559   5.972   9.068  11.449 -0.5163  0.3909 -0.0947
  222MOL0     C30560   5.845   9.016  11.372  0.2413 -0.3193  0.4932
  222MOL0     C30561   5.786   9.119  11.267  0.0570  0.1228  0.7114
  222MOL0     C30562   5.879   9.159  11.168 -0.6432 -0.7389  0.3607
  222MOL0     C30563   5.955   9.196  11.079 -0.0764 -0.3688 -0.7414
  222MOL0     C30564   6.300   9.041  11.535 -0.3487  0.3992 -0.4536
  222MOL0     C30565   6.438   9.074  11.527 -0.5795  0.3192  0.1512
  222MOL0     C30566   6.487   9.206  11.572  0.4830 -0.0535 -0.0735
  222MOL0     H30567   6.908   9.152  11.619 -0.7667  1.0316  0.3353
  222MOL0     H30568   7.161   9.182  11.577  0.5281 -0.8432 -0.4546
  222MOL0     H30569   7.453   9.164  11.289 -1.3460  0.8850 -0.5038
  222MOL0     H30570   7.327   9.064  11.216  1.3171 -3.2058  0.4590
  222MOL0     H30571   7.518   8.954  11.416  0.7920 -1.7198 -0.2758
  222MOL0     H30572   7.407   8.872  11.306 -1.7884  1.0518  4.1284
  222MOL0     H30573   7.661   9.017  11.208  1.2681 -1.9580  0.7784
  222MOL0     H30574   7.619   8.838  11.201 -1.4746 -1.1252  1.6642
  222MOL0     H30575   7.435   8.877  11.058  0.3596  0.0079  2.4314
  222MOL0     H30576   7.487   9.049  11.029  1.4068  1.1878 -1.2601
  222MOL0     H30577   7.657   8.813  10.960 -4.5015 -1.9343 -1.3928
  222MOL0     H30578   7.683   8.988  10.926  2.5197 -1.3352  2.9233
  222MOL0     H30579   7.434   8.860  10.835  0.0537  1.8365  0.1963
  222MOL0     H30580   7.508   9.003  10.778  1.1317  0.1088 -1.2765
  222MOL0     H30581   7.640   8.724  10.736 -1.6936 -1.1396 -1.0450
  222MOL0     H30582   7.692   8.883  10.677  2.1170 -2.7858 -1.4262
  222MOL0     H30583   7.467   8.910  10.557 -0.3195 -0.8424 -1.4256
  222MOL0     H30584   7.575   8.787  10.487  0.4597 -0.6579  0.2573
  222MOL0     H30585   7.226   8.833  10.637  0.5001 -0.6023 -2.4108
  222MOL0     H30586   7.019   8.525  10.615  1.0955 -2.0973  0.5367
  222MOL0     H30587   7.012   8.701  10.647  0.6492 -0.1180 -1.4035
  222MOL0     H30588   7.036   8.459  10.827  0.5924 -1.7037  4.2366
  222MOL0     H30589   7.115   8.609  10.888  0.2209  0.8406 -1.4191
  222MOL0     H30590   6.815   8.589  10.805 -1.0780  0.9502  1.4269
  222MOL0     H30591   6.875   8.551  10.966  0.7926 -0.2803 -0.4864
  222MOL0     H30592   6.881   8.803  10.801 -0.0239  1.9859  1.4126
  222MOL0     H30593   6.792   8.763  10.960 -1.3463  0.5520 -1.7879
  222MOL0     H30594   6.816   8.975  11.059  1.8554 -1.0654  1.8175
  222MOL0     H30595   6.705   9.156  11.066 -0.4077  0.1611 -1.1523
  222MOL0     H30596   6.759   9.291  10.974  2.1706 -0.0838 -0.4434
  222MOL0     H30597   6.813   9.267  11.152  0.8011 -0.0757  0.0781
  222MOL0     H30598   7.256   9.446  10.680 -2.2697 -1.7094  2.7026
  222MOL0     H30599   7.232   9.665  10.561  2.2066  0.1952  0.0087
  222MOL0     H30600   7.316  10.041  10.602 -1.9590  1.4359  0.0053
  222MOL0     H30601   7.332   9.862  10.552 -1.1819 -0.4319 -1.3718
  222MOL0     H30602   7.142   9.889  10.418 -0.3835 -0.2355  1.0062
  222MOL0     H30603   7.089  10.040  10.497  1.7204  1.9551 -1.0875
  222MOL0     H30604   7.187  10.039  10.259 -3.1021  0.7407  0.9170
  222MOL0     H30605   7.348  10.025  10.341  0.7553  2.6728 -1.1929
  222MOL0     H30606   7.310  10.249  10.454 -0.7557  1.6592 -1.1334
  222MOL0     H30607   7.143  10.248  10.395 -0.2026  0.1829  0.2963
  222MOL0     H30608   7.422  10.252  10.252  0.5691  0.6791  3.0195
  222MOL0     H30609   7.274  10.265  10.161 -1.3326  1.5102  0.2983
  222MOL0     H30610   7.358  10.439  10.393  2.3265 -1.1930 -0.0683
  222MOL0     H30611   7.244  10.497  10.270  0.1620  0.6639  3.4883
  222MOL0     H30612   7.399  10.542  10.114 -0.0160 -0.2374  0.5447
  222MOL0     H30613   7.521  10.426  10.170  1.8784 -0.2484  0.6689
  222MOL0     H30614   7.574  10.676  10.234  0.9029  0.3784 -0.4492
  222MOL0     H30615   7.573  10.557  10.361 -0.0796 -1.4224 -0.7170
  222MOL0     H30616   7.130   9.858  10.922  0.4290 -1.6162  1.2539
  222MOL0     H30617   7.107   9.638  11.025 -3.4494 -1.8566 -2.0306
  222MOL0     H30618   7.240   9.150  10.909  0.1650 -1.5492  0.8321
  222MOL0     H30619   7.218   8.917  10.926  0.9568  0.4290  0.6053
  222MOL0     H30620   7.147   8.924  11.250 -0.0892 -0.0913  0.0979
  222MOL0     H30621   6.928   8.877  11.287  3.3421 -0.2607 -1.6646
  222MOL0     H30622   6.536   8.783  11.370  1.6197 -0.5631  3.6246
  222MOL0     H30623   6.282   8.731  11.399  0.4241 -0.5717 -0.5941
  222MOL0     H30624   5.929   8.896  11.565 -0.8191 -0.1693 -3.4529
  222MOL0     H30625   6.062   9.005  11.640  0.5535  2.1541 -1.2927
  222MOL0     H30626   6.055   9.076  11.379  1.0384 -1.6771  1.4018
  222MOL0     H30627   5.951   9.164  11.498 -5.0964  1.1675 -2.9698
  222MOL0     H30628   5.877   8.927  11.318 -2.2589 -0.7163 -0.4795
  222MOL0     H30629   5.769   8.996  11.448 -0.6998 -1.9570 -0.8094
  222MOL0     H30630   5.749   9.216  11.302  4.5506  0.9050  4.1570
  222MOL0     H30631   5.710   9.058  11.215  0.5989  1.2689 -1.5614
  222MOL0     H30632   6.038   9.231  11.021  1.4676  2.0346  2.6081
  222MOL0     H30633   6.234   9.113  11.584  0.4527  1.5836 -1.0467
  222MOL0     H30634   6.397   9.261  11.603  0.7876 -0.6660  2.0342
  222MOL0     H30635   6.553   9.204  11.660  1.0546  2.8317 -0.3252
  222MOL0     H30636   6.518   9.270  11.489 -2.3062 -1.5336 -2.4359
  223MOL0     O30637   6.751   4.542  10.962 -0.0445  0.0796 -0.0039
  223MOL0     C30638   6.818   4.599  10.877 -0.7107  1.0593  0.1715
  223MOL0     O30639   6.799   4.588  10.742  0.4387  0.2578  0.6771
  223MOL0     C30640   6.668   4.585  10.696 -0.3392 -0.0552  0.5622
  223MOL0     C30641   6.562   4.649  10.764 -0.0763  0.2351 -0.0540
  223MOL0     C30642   6.427   4.636  10.708  0.7601  0.1766 -0.3024
  223MOL0     C30643   6.401   4.552  10.606 -0.1575  0.5694 -0.2300
  223MOL0     O30644   6.273   4.529  10.573  0.8350 -0.9125 -0.7461
  223MOL0     C30645   6.232   4.448  10.460  0.1996 -0.5521 -0.4736
  223MOL0     C30646   6.213   4.300  10.490  0.3385  0.4538 -0.1654
  223MOL0     C30647   6.167   4.220  10.369 -0.1888  1.2825  0.1766
  223MOL0     C30648   6.032   4.268  10.309  0.3083  0.0083 -1.0047
  223MOL0     C30649   5.992   4.190  10.183 -0.7317  0.3748  0.5609
  223MOL0     C30650   5.891   4.275  10.114  0.9140 -0.0850  0.6938
  223MOL0     C30651   5.799   4.183  10.026 -0.5976  0.1136 -0.3940
  223MOL0     C30652   5.704   4.087  10.099  0.4881  0.3994 -0.2995
  223MOL0     N30653   5.687   3.967  10.018  0.6702  0.6099  0.0145
  223MOL0     C30654   5.620   3.960   9.895  0.1383  0.2574 -0.2530
  223MOL0     C30655   5.595   3.830   9.869 -0.8069 -0.0941 -0.5228
  223MOL0     C30656   5.529   3.780   9.750  0.3190  0.9495  0.2477
  223MOL0     C30657   5.474   3.640   9.750 -0.2308 -0.1371  0.6891
  223MOL0     C30658   5.573   3.521   9.768  0.0742  0.9921 -0.7844
  223MOL0     C30659   5.511   3.382   9.805  0.5512  0.0519  0.0093
  223MOL0     O30660   5.420   3.394   9.909  0.3945  0.3285  0.1232
  223MOL0     C30661   5.380   3.285   9.987 -0.8023 -0.2530  0.1553
  223MOL0     C30662   5.417   3.148   9.967  0.2909  0.3629  0.2221
  223MOL0     C30663   5.383   3.045  10.061  0.0898  0.1469 -0.3723
  223MOL0     C30664   5.419   2.906  10.032  0.4810 -0.3972  0.6508
  223MOL0     C30665   5.316   3.078  10.179  0.2309 -0.9724  0.2506
  223MOL0     C30666   5.308   2.993  10.299  0.7653 -0.0006 -0.4358
  223MOL0     O30667   5.228   2.874  10.284  0.1372  0.0632  0.1480
  223MOL0     C30668   5.258   2.775  10.374 -0.2066  0.0726 -0.5156
  223MOL0     C30669   5.345   2.675  10.345 -0.5591 -0.0140  0.1634
  223MOL0     C30670   5.369   2.568  10.422  0.6273 -0.1353  0.8573
  223MOL0     C30671   5.297   2.556  10.542  0.3171 -0.4912 -0.2563
  223MOL0     O30672   5.317   2.445  10.620  0.3234 -1.3187 -0.1648
  223MOL0     C30673   5.278   2.426  10.755  0.3789  0.0296 -0.2490
  223MOL0     C30674   5.311   2.287  10.809 -0.1085  0.3751  0.8673
  223MOL0     C30675   5.456   2.239  10.777 -0.4326 -0.4219 -0.4841
  223MOL0     C30676   5.492   2.112  10.866 -0.3420 -0.0317 -0.0675
  223MOL0     C30677   5.631   2.068  10.847  0.1062 -0.0186 -1.0261
  223MOL0     C30678   5.685   1.979  10.958 -0.8036  0.7707 -0.4229
  223MOL0     C30679   5.710   2.066  11.086 -0.6083 -0.6652  0.2244
  223MOL0     C30680   5.800   2.000  11.175 -0.3991  0.4175 -0.1573
  223MOL0    Cl30681   5.730   1.835  11.213 -0.2752 -0.0668  0.0053
  223MOL0     C30682   5.204   2.654  10.579 -0.0345  1.0749 -0.0473
  223MOL0     C30683   5.177   2.754  10.483 -0.7083 -0.2139  0.1253
  223MOL0     O30684   5.384   3.021  10.397 -0.7877  0.5422  0.9597
  223MOL0     C30685   5.278   3.219  10.191  0.4200  0.2954 -0.1428
  223MOL0     C30686   5.299   3.313  10.093  0.0735 -0.6096 -0.2486
  223MOL0     N30687   5.628   3.769   9.984  0.0199  0.9192 -0.0702
  223MOL0     N30688   5.686   3.838  10.076 -0.1982  0.5172  0.1410
  223MOL0     C30689   6.515   4.506  10.531 -0.5390 -0.4657  0.3935
  223MOL0     C30690   6.642   4.516  10.575  0.6591  0.4432 -0.7906
  223MOL0     C30691   6.942   4.668  10.925  0.4216  0.8459 -0.0081
  223MOL0     C30692   6.985   4.800  10.886  1.4703  0.7013  0.1362
  223MOL0     C30693   7.099   4.856  10.945 -0.6539 -0.0068  0.3054
  223MOL0     C30694   7.152   4.799  11.058  0.2797 -0.7124  0.3627
  223MOL0     O30695   7.263   4.855  11.109  0.2883 -0.1282  0.3519
  223MOL0     C30696   7.261   4.864  11.255 -0.3584 -0.0325  1.3777
  223MOL0     C30697   7.374   4.958  11.294 -0.0132  0.5210  0.2954
  223MOL0     C30698   7.513   4.890  11.285 -0.3887  0.0401 -0.1548
  223MOL0     C30699   7.622   4.977  11.212  0.0592  0.1429 -0.7501
  223MOL0     C30700   7.664   5.099  11.282 -0.0533 -0.1847 -0.0086
  223MOL0     C30701   7.716   5.200  11.328  0.4850  0.3399 -1.0002
  223MOL0     C30702   7.103   4.680  11.110  0.1250  0.2405  0.3998
  223MOL0     C30703   7.014   4.607  11.027 -0.6464  0.6539  0.4525
  223MOL0     C30704   7.002   4.455  11.056 -0.3675  0.1151 -0.0796
  223MOL0     H30705   6.574   4.703  10.857 -0.8500  1.1376 -0.4551
  223MOL0     H30706   6.343   4.683  10.759  0.2971 -1.0569  0.1142
  223MOL0     H30707   6.289   4.461  10.368  0.1864  2.0297 -0.2104
  223MOL0     H30708   6.134   4.482  10.428 -0.4744 -2.5799 -0.7078
  223MOL0     H30709   6.313   4.268  10.520  0.6607  2.1300  0.6549
  223MOL0     H30710   6.150   4.295  10.579  1.4374 -1.1845  0.5737
  223MOL0     H30711   6.238   4.228  10.286  0.1021 -2.0816 -0.0297
  223MOL0     H30712   6.144   4.118  10.401 -2.2360  1.2582 -1.1386
  223MOL0     H30713   5.956   4.234  10.380  0.7809 -4.1507 -2.2226
  223MOL0     H30714   6.021   4.377  10.311  0.9462  0.0742 -0.5723
  223MOL0     H30715   5.952   4.093  10.213  3.1044 -0.7608  2.7474
  223MOL0     H30716   6.084   4.168  10.126 -0.3389  0.7539  1.0423
  223MOL0     H30717   5.811   4.305  10.183 -1.3240  0.9439 -2.1525
  223MOL0     H30718   5.931   4.356  10.053  1.9799 -1.0448  0.0783
  223MOL0     H30719   5.876   4.135   9.965  1.9426  0.7779  2.0993
  223MOL0     H30720   5.735   4.253   9.971  0.8708  1.6767 -0.1915
  223MOL0     H30721   5.739   4.069  10.201 -1.5161  1.6134  0.6541
  223MOL0     H30722   5.611   4.138  10.127  0.9605  0.8088  0.5841
  223MOL0     H30723   5.601   4.042   9.825  0.0859 -0.7186 -1.4218
  223MOL0     H30724   5.602   3.774   9.669 -1.6536 -2.6008 -1.4932
  223MOL0     H30725   5.447   3.846   9.721  3.4798  4.2533 -2.1969
  223MOL0     H30726   5.408   3.632   9.837 -0.6243 -0.1537  0.3958
  223MOL0     H30727   5.407   3.625   9.664  1.4008 -2.0590 -0.3376
  223MOL0     H30728   5.632   3.496   9.680 -1.3283 -0.4189 -1.3739
  223MOL0     H30729   5.641   3.550   9.849  0.6962 -0.6951 -0.6654
  223MOL0     H30730   5.464   3.341   9.716  1.2002 -2.3153  0.6843
  223MOL0     H30731   5.587   3.310   9.836 -1.2379 -1.5109  0.8951
  223MOL0     H30732   5.474   3.116   9.880 -1.4939  1.1225 -1.2993
  223MOL0     H30733   5.502   2.884  10.099 -0.8923 -1.2310  2.1478
  223MOL0     H30734   5.445   2.905   9.925 -4.1675  1.9631 -0.7979
  223MOL0     H30735   5.340   2.832  10.045 -1.0322  0.9891 -0.1691
  223MOL0     H30736   5.390   2.687  10.247 -1.5586 -0.3419 -0.3488
  223MOL0     H30737   5.434   2.487  10.390  1.0659 -0.0189  1.4192
  223MOL0     H30738   5.337   2.490  10.822 -0.2216 -0.6109  0.9242
  223MOL0     H30739   5.173   2.446  10.778  0.2284 -0.1997 -0.7131
  223MOL0     H30740   5.289   2.285  10.916  1.9381 -3.2985  1.3830
  223MOL0     H30741   5.247   2.209  10.768 -0.1301  0.6422  0.3812
  223MOL0     H30742   5.527   2.319  10.799 -0.2577 -0.2959 -1.4915
  223MOL0     H30743   5.469   2.204  10.674 -0.9838  1.4663 -1.2306
  223MOL0     H30744   5.426   2.030  10.836 -1.3895  1.8511 -3.3944
  223MOL0     H30745   5.486   2.140  10.972  3.0980 -2.3488  0.8907
  223MOL0     H30746   5.628   2.015  10.752  1.5712 -3.4245  0.6641
  223MOL0     H30747   5.690   2.160  10.836  2.6618 -1.6982 -2.1223
  223MOL0     H30748   5.782   1.948  10.920 -0.3867  1.6661 -0.1348
  223MOL0     H30749   5.617   1.899  10.990 -0.3228  0.8362  0.8101
  223MOL0     H30750   5.613   2.087  11.132  0.3391  1.7655  1.2967
  223MOL0     H30751   5.751   2.167  11.076 -2.3986  0.4323  2.8523
  223MOL0     H30752   5.816   2.058  11.267  0.5145 -1.5461  0.9787
  223MOL0     H30753   5.896   1.996  11.122 -0.0286  1.6935  0.3770
  223MOL0     H30754   5.126   2.634  10.652 -0.0170 -0.8081 -0.4954
  223MOL0     H30755   5.090   2.817  10.498  0.9147  1.8900  1.2434
  223MOL0     H30756   5.218   3.236  10.280 -2.7294 -1.0119 -1.8842
  223MOL0     H30757   5.262   3.413  10.110 -1.1466 -1.1468  0.3883
  223MOL0     H30758   6.506   4.447  10.440 -1.3667 -0.4488  0.4566
  223MOL0     H30759   6.726   4.456  10.543  1.1541  0.3510  0.5891
  223MOL0     H30760   6.932   4.858  10.811  2.4132  0.0697 -1.0548
  223MOL0     H30761   7.129   4.955  10.912  0.6494 -1.0801 -1.9283
  223MOL0     H30762   7.164   4.904  11.285 -0.9900 -0.2682 -0.2366
  223MOL0     H30763   7.285   4.767  11.300  0.7154 -1.0624 -1.2188
  223MOL0     H30764   7.351   4.985  11.397 -1.8370 -0.6956  0.2443
  223MOL0     H30765   7.360   5.045  11.230 -2.9946 -0.7860 -1.0222
  223MOL0     H30766   7.556   4.866  11.383  0.1829  1.4559 -0.0389
  223MOL0     H30767   7.503   4.789  11.243  1.6111 -0.7126  0.9826
  223MOL0     H30768   7.594   5.007  11.111 -1.3020 -2.5779 -1.2768
  223MOL0     H30769   7.712   4.914  11.210  0.0662  0.1675 -1.1471
  223MOL0     H30770   7.772   5.276  11.379 -0.8733  0.1331  0.8965
  223MOL0     H30771   7.125   4.626  11.201 -0.3204  0.3837  0.5950
  223MOL0     H30772   6.954   4.392  10.981 -2.0058 -2.1411  2.6874
  223MOL0     H30773   7.103   4.419  11.080 -1.6559 -4.9452 -1.1249
  223MOL0     H30774   6.931   4.434  11.136 -1.9021  1.1904 -1.0898
  224MOL0     O30775   5.147   3.023   4.818  0.0359  0.1687  0.4731
  224MOL0     C30776   5.064   3.033   4.727 -0.0342  0.5742  0.2347
  224MOL0     O30777   4.957   2.955   4.718 -0.0718  0.5586 -0.1625
  224MOL0     C30778   4.929   2.860   4.811 -0.3345 -0.2117  0.5342
  224MOL0     C30779   4.821   2.888   4.899  0.9002 -0.5834 -0.3598
  224MOL0     C30780   4.799   2.806   5.011  0.0151 -0.5837 -0.6105
  224MOL0     C30781   4.879   2.692   5.032  0.2329  0.3510  0.2191
  224MOL0     O30782   4.841   2.620   5.141 -0.3603  0.1529  0.2288
  224MOL0     C30783   4.909   2.661   5.259  0.4947 -0.9786 -0.2739
  224MOL0     C30784   4.826   2.647   5.386  0.2696 -0.8779 -0.0247
  224MOL0     C30785   4.743   2.771   5.431  1.0928 -0.5359  0.3554
  224MOL0     C30786   4.596   2.741   5.423  0.9356 -0.2664  1.0805
  224MOL0     C30787   4.517   2.868   5.461  0.3407 -0.3563 -0.4476
  224MOL0     C30788   4.371   2.818   5.456  0.1628  0.1061 -0.0901
  224MOL0     C30789   4.323   2.712   5.557  0.5565 -0.6592  0.0751
  224MOL0     C30790   4.180   2.688   5.543 -0.0867  0.6446 -0.2050
  224MOL0     N30791   4.127   2.577   5.619 -0.5564  0.3747  0.2108
  224MOL0     C30792   4.127   2.453   5.577 -0.5881  1.0590 -0.5403
  224MOL0     C30793   4.114   2.380   5.698 -0.3465 -0.3667 -0.7759
  224MOL0     C30794   4.111   2.224   5.705  0.6068 -0.4029 -0.2980
  224MOL0     C30795   4.246   2.178   5.769 -0.4295 -0.2841 -0.3244
  224MOL0     C30796   4.278   2.219   5.918  0.4772 -0.3863 -0.2238
  224MOL0     C30797   4.411   2.162   5.961  0.6975 -0.0218  0.1083
  224MOL0     O30798   4.397   2.019   5.947  0.0019 -0.4820 -0.0101
  224MOL0     C30799   4.501   1.938   5.996  0.0140 -0.1869  0.7320
  224MOL0     C30800   4.605   1.979   6.070 -0.6945 -0.8809 -0.4146
  224MOL0     C30801   4.706   1.892   6.109 -0.4493 -0.6937  0.4068
  224MOL0     C30802   4.818   1.965   6.180  0.3398 -0.8087  0.0705
  224MOL0     C30803   4.714   1.764   6.049  0.9569  0.6756 -0.8415
  224MOL0     C30804   4.816   1.670   6.096  0.6945  0.0131 -0.0425
  224MOL0     O30805   4.831   1.549   6.027 -0.0903 -0.3559  0.0344
  224MOL0     C30806   4.925   1.452   6.067  0.2011 -1.4106 -0.1899
  224MOL0     C30807   4.910   1.322   6.022 -0.1361  0.2756 -0.3728
  224MOL0     C30808   4.999   1.215   6.053  0.0059  0.0644 -0.5506
  224MOL0     C30809   5.096   1.232   6.156 -0.1503  0.0329  0.7060
  224MOL0     O30810   5.174   1.137   6.208 -0.4067 -0.2192  0.7037
  224MOL0     C30811   5.202   1.023   6.124  1.1086  0.1074 -1.0114
  224MOL0     C30812   5.280   0.921   6.199  0.2109  0.2872  0.2285
  224MOL0     C30813   5.191   0.814   6.263  0.7022  0.4307  0.7035
  224MOL0     C30814   5.265   0.725   6.365  0.2279 -0.7265  0.5534
  224MOL0     C30815   5.195   0.606   6.410  0.1941 -0.1718  1.0715
  224MOL0     C30816   5.245   0.560   6.540  0.4955 -0.5538  0.1777
  224MOL0     C30817   5.165   0.430   6.578  0.0210  0.7017  0.0556
  224MOL0     C30818   5.203   0.382   6.715 -1.0104  0.1537  0.5810
  224MOL0    Cl30819   5.348   0.274   6.705 -0.0348 -0.6877  0.3551
  224MOL0     C30820   5.108   1.367   6.199  0.1813  0.5815 -0.4504
  224MOL0     C30821   5.035   1.472   6.147  0.1818  1.0199  0.9185
  224MOL0     O30822   4.871   1.693   6.206  0.3821 -0.2506 -0.0189
  224MOL0     C30823   4.607   1.722   5.960 -1.3249  1.1332 -0.0803
  224MOL0     C30824   4.511   1.816   5.933 -1.0198 -0.8581 -0.1418
  224MOL0     N30825   4.096   2.466   5.803 -0.3394 -0.0508 -0.6056
  224MOL0     N30826   4.107   2.583   5.753  0.0902 -0.7242  0.0580
  224MOL0     C30827   4.974   2.652   4.932 -0.4679  1.6067  0.4868
  224MOL0     C30828   5.000   2.735   4.819  0.5051  0.4700 -0.0562
  224MOL0     C30829   5.098   3.134   4.617  0.8063  0.9628 -0.1898
  224MOL0     C30830   5.231   3.183   4.602  0.1394  0.3152  0.9858
  224MOL0     C30831   5.259   3.289   4.513  0.0374  0.4916  0.6057
  224MOL0     C30832   5.157   3.322   4.419  0.1400  0.3486  0.8412
  224MOL0     O30833   5.185   3.393   4.306  0.2344 -0.0493  0.7197
  224MOL0     C30834   5.297   3.485   4.304 -0.0501 -0.6480  0.2112
  224MOL0     C30835   5.272   3.603   4.203  0.4628 -0.3245  0.0428
  224MOL0     C30836   5.156   3.691   4.260 -0.6884 -0.3002  0.5808
  224MOL0     C30837   5.147   3.822   4.174  0.3528  0.7329  0.5468
  224MOL0     C30838   5.109   3.802   4.026 -0.0947  0.4537 -0.0094
  224MOL0     C30839   5.061   3.784   3.915 -0.3898  0.1854 -0.0680
  224MOL0     C30840   5.027   3.275   4.435 -0.1987 -0.1056 -0.0116
  224MOL0     C30841   4.994   3.177   4.525  0.9441 -0.2632 -0.1691
  224MOL0     C30842   4.841   3.154   4.532  0.0716  0.4162  0.2732
  224MOL0     H30843   4.754   2.973   4.891  0.3342 -0.9128  0.6920
  224MOL0     H30844   4.717   2.824   5.080 -0.4015 -2.8418 -0.4325
  224MOL0     H30845   4.946   2.764   5.256 -0.3124 -0.3958  3.6601
  224MOL0     H30846   5.003   2.606   5.265  2.3026  1.8019 -1.2510
  224MOL0     H30847   4.761   2.563   5.361 -1.3298  0.5145 -0.7579
  224MOL0     H30848   4.887   2.610   5.469  0.3155 -0.7284  0.0090
  224MOL0     H30849   4.753   2.796   5.537 -2.6334  0.0791  0.7110
  224MOL0     H30850   4.750   2.861   5.368 -2.2337  1.2512  2.2647
  224MOL0     H30851   4.557   2.704   5.327 -0.3925  3.6897 -0.0824
  224MOL0     H30852   4.590   2.653   5.487  2.1502  0.2207  1.8993
  224MOL0     H30853   4.536   2.952   5.392 -0.0263  1.1766  1.2426
  224MOL0     H30854   4.542   2.901   5.562  2.0481  0.4277 -1.0760
  224MOL0     H30855   4.304   2.903   5.470  0.3305  0.0472  1.2255
  224MOL0     H30856   4.353   2.778   5.356 -0.3293  0.6825 -0.2386
  224MOL0     H30857   4.352   2.735   5.660  3.7538 -0.4854 -0.7617
  224MOL0     H30858   4.371   2.616   5.534  0.1926 -0.4945 -1.4652
  224MOL0     H30859   4.124   2.776   5.577 -1.3238  0.0410 -0.6281
  224MOL0     H30860   4.162   2.676   5.436  1.4632  1.9840 -0.6633
  224MOL0     H30861   4.136   2.409   5.478  1.7224 -0.3242  0.2278
  224MOL0     H30862   4.098   2.186   5.603  2.6914 -2.1060  0.0006
  224MOL0     H30863   4.030   2.194   5.772 -0.6008  2.6632 -0.2381
  224MOL0     H30864   4.254   2.071   5.745 -0.5100  0.1499 -2.4900
  224MOL0     H30865   4.326   2.222   5.709 -0.2034  0.8228  0.7551
  224MOL0     H30866   4.269   2.327   5.935  4.3993 -0.1140  1.2920
  224MOL0     H30867   4.205   2.185   5.992 -0.8105 -0.2664 -1.3951
  224MOL0     H30868   4.485   2.198   5.890 -1.9344 -0.0112 -2.8274
  224MOL0     H30869   4.452   2.184   6.060  2.9584  4.6264 -1.5784
  224MOL0     H30870   4.609   2.076   6.120 -1.7048 -1.8159  1.6285
  224MOL0     H30871   4.804   1.962   6.288 -3.9345 -1.4548 -0.3389
  224MOL0     H30872   4.833   2.070   6.152 -1.9266 -0.5132 -0.2061
  224MOL0     H30873   4.912   1.920   6.146  0.8854  1.5502 -1.8186
  224MOL0     H30874   4.833   1.291   5.952  1.8679 -1.1541 -2.1014
  224MOL0     H30875   4.993   1.115   6.012  1.2760 -0.7619  1.1318
  224MOL0     H30876   5.119   0.967   6.080  3.9028 -3.0415 -2.7192
  224MOL0     H30877   5.252   1.059   6.033 -0.4425  3.8499 -0.5240
  224MOL0     H30878   5.340   0.860   6.130 -2.7278 -1.4180 -1.0168
  224MOL0     H30879   5.344   0.968   6.275 -1.3393 -0.6913  2.2398
  224MOL0     H30880   5.149   0.744   6.190 -2.6196  1.7719  1.1820
  224MOL0     H30881   5.101   0.849   6.315 -0.1595 -0.3489 -0.2296
  224MOL0     H30882   5.296   0.783   6.453  0.4162 -1.7660  1.1820
  224MOL0     H30883   5.355   0.682   6.322  1.1422 -0.3918  2.0708
  224MOL0     H30884   5.086   0.615   6.420 -0.1536 -0.8128 -1.4100
  224MOL0     H30885   5.210   0.525   6.338 -2.0929  0.1844  0.0822
  224MOL0     H30886   5.242   0.638   6.616 -1.1788  0.6551 -1.0638
  224MOL0     H30887   5.352   0.539   6.528  0.2088 -1.1294 -1.5731
  224MOL0     H30888   5.183   0.347   6.509  3.0742 -0.1068  1.6224
  224MOL0     H30889   5.060   0.456   6.598  0.9926  3.5273  2.1333
  224MOL0     H30890   5.120   0.323   6.755  0.2484 -1.9903  0.1636
  224MOL0     H30891   5.212   0.464   6.787  2.3791  3.0387 -2.7179
  224MOL0     H30892   5.182   1.387   6.276 -0.2416  0.5291 -0.0217
  224MOL0     H30893   5.068   1.568   6.185 -0.3640  1.7279 -0.3487
  224MOL0     H30894   4.614   1.621   5.921  4.1792  1.1743  0.0503
  224MOL0     H30895   4.445   1.798   5.849 -0.6009  0.7088 -0.8341
  224MOL0     H30896   5.039   2.570   4.959 -2.9635 -0.6692 -0.0282
  224MOL0     H30897   5.078   2.694   4.756  3.7416 -2.0644  4.9094
  224MOL0     H30898   5.315   3.174   4.671 -0.4981  3.2438  2.2987
  224MOL0     H30899   5.358   3.330   4.498  1.1821 -1.7186  1.6415
  224MOL0     H30900   5.320   3.521   4.405  0.7680 -2.8931  0.8792
  224MOL0     H30901   5.377   3.432   4.252 -1.0454 -0.9261 -1.0877
  224MOL0     H30902   5.230   3.568   4.108 -1.2917  0.6651  0.4121
  224MOL0     H30903   5.364   3.656   4.175  0.8023  0.3023  2.1697
  224MOL0     H30904   5.059   3.642   4.270 -0.9649 -0.2056 -1.3588
  224MOL0     H30905   5.177   3.726   4.362 -0.1717  1.1541  0.0014
  224MOL0     H30906   5.243   3.874   4.182  1.1291 -0.8786  2.6672
  224MOL0     H30907   5.074   3.888   4.221 -0.0346 -1.1805  2.8252
  224MOL0     H30908   5.010   3.761   3.823  0.6906 -3.3342  0.0737
  224MOL0     H30909   4.955   3.317   4.365 -0.4316  0.2479  0.4355
  224MOL0     H30910   4.824   3.081   4.452 -3.2670 -0.8357  1.9537
  224MOL0     H30911   4.798   3.121   4.626  1.9216 -0.0196  1.0038
  224MOL0     H30912   4.782   3.245   4.519 -1.3722 -0.4550  0.5666
  225MOL0     O30913   9.763   3.765   0.091 -0.3818  0.4949  0.6376
  225MOL0     C30914   9.870   3.757   0.037 -1.1376  0.2712  0.1035
  225MOL0     O30915   9.992   3.750   0.114 -0.1775  0.0113 -0.1071
  225MOL0     C30916   9.997   3.753   0.256  0.0269  0.4744 -0.1267
  225MOL0     C30917  10.122   3.754   0.313 -0.1077 -1.1531  0.0200
  225MOL0     C30918  10.149   3.759   0.451  0.5813 -0.1966 -0.4672
  225MOL0     C30919  10.044   3.744   0.538  0.2232  0.0062  0.2888
  225MOL0     O30920  10.077   3.745   0.673 -0.0889  0.5635  0.3361
  225MOL0     C30921   9.976   3.745   0.776 -0.7830  0.8016  0.0059
  225MOL0     C30922   9.930   3.593   0.804 -1.0147  0.0167 -0.1821
  225MOL0     C30923  10.040   3.489   0.849 -0.1539 -0.4247  0.4989
  225MOL0     C30924  10.070   3.500   1.004 -0.4489 -0.0761 -0.0194
  225MOL0     C30925  10.159   3.406   1.072  0.2760 -0.0705 -0.5876
  225MOL0     C30926  10.302   3.393   1.004 -1.3972  0.9159 -0.1330
  225MOL0     C30927  10.371   3.257   1.060  0.4046  0.7212  0.7986
  225MOL0     C30928  10.473   3.220   0.944 -0.3013  0.4631  0.2036
  225MOL0     N30929  10.529   3.086   0.955 -0.3152 -0.1963 -0.0960
  225MOL0     C30930  10.452   2.972   0.959  1.3456  0.2804  0.1424
  225MOL0     C30931  10.543   2.874   0.995 -0.6327  0.0155  1.2073
  225MOL0     C30932  10.528   2.717   1.013 -0.2737  0.5541  0.3936
  225MOL0     C30933  10.581   2.642   0.889 -0.4399 -0.0492  0.3030
  225MOL0     C30934  10.605   2.493   0.920  1.2666  0.4687  0.1353
  225MOL0     C30935  10.624   2.401   0.799 -0.2259  0.6116  0.6703
  225MOL0     O30936  10.492   2.370   0.740  0.1912  0.0741 -0.4998
  225MOL0     C30937  10.476   2.325   0.609 -0.0232  0.1915  0.0953
  225MOL0     C30938  10.346   2.301   0.561 -0.0320 -0.1031 -0.7259
  225MOL0     C30939  10.317   2.247   0.433 -0.2043  0.4028 -0.0269
  225MOL0     C30940  10.170   2.243   0.391 -0.8904 -0.1982 -0.1667
  225MOL0     C30941  10.426   2.220   0.341  0.4017 -0.7335  0.2622
  225MOL0     C30942  10.413   2.164   0.201 -0.4300  0.0374 -0.0933
  225MOL0     O30943  10.290   2.150   0.150  0.2255 -0.2180 -0.4935
  225MOL0     C30944  10.278   2.092   0.030 -0.0950  1.3894 -0.5455
  225MOL0     C30945  10.335   2.138  -0.085 -0.2805 -0.4577 -0.0000
  225MOL0     C30946  10.311   2.079  -0.212 -0.3414  0.7241  0.8286
  225MOL0     C30947  10.244   1.948  -0.215 -0.2097  0.1802 -0.0047
  225MOL0     O30948  10.229   1.865  -0.330 -0.0775  0.2465  0.7924
  225MOL0     C30949  10.321   1.895  -0.441 -0.0388  0.2704  0.3050
  225MOL0     C30950  10.321   1.784  -0.540  0.5973  0.3123 -0.4595
  225MOL0     C30951  10.379   1.820  -0.669 -0.1835 -0.6844 -0.3872
  225MOL0     C30952  10.406   1.687  -0.749 -0.6148 -0.3540  1.1907
  225MOL0     C30953  10.461   1.720  -0.892  0.3466 -0.5601 -0.0058
  225MOL0     C30954  10.346   1.789  -0.975  0.0672  0.1615  0.2731
  225MOL0     C30955  10.348   1.769  -1.122 -0.2503 -0.2312 -0.2781
  225MOL0     C30956  10.469   1.798  -1.199 -0.3089  0.3853  0.9394
  225MOL0    Cl30957  10.445   1.784  -1.382  0.5675  0.2148  0.3146
  225MOL0     C30958  10.190   1.903  -0.099 -0.0525  0.2031 -0.2430
  225MOL0     C30959  10.209   1.968   0.021 -0.4983  0.1984  0.8965
  225MOL0     O30960  10.514   2.112   0.157  0.1820  0.0204 -0.8568
  225MOL0     C30961  10.552   2.243   0.395  0.0473  0.9006 -0.4765
  225MOL0     C30962  10.578   2.289   0.528 -0.1195 -0.1515  0.6162
  225MOL0     N30963  10.664   2.942   1.028  0.6494  0.2638 -0.3468
  225MOL0     N30964  10.656   3.063   1.003  0.0020 -0.0532 -0.2636
  225MOL0     C30965   9.910   3.738   0.492  0.6579  0.1045  0.4673
  225MOL0     C30966   9.887   3.745   0.350 -0.3489  0.4122  0.3692
  225MOL0     C30967   9.888   3.782  -0.114  0.9252  0.0171 -0.2546
  225MOL0     C30968   9.767   3.816  -0.182  0.3016 -0.2258  0.4348
  225MOL0     C30969   9.773   3.853  -0.315 -0.2975  0.5775 -0.9359
  225MOL0     C30970   9.891   3.852  -0.390 -0.3278  0.5087  0.5376
  225MOL0     O30971   9.891   3.884  -0.523  0.7342 -0.3316  0.0219
  225MOL0     C30972   9.956   3.791  -0.621 -0.3463 -0.6518  1.2054
  225MOL0     C30973   9.877   3.668  -0.624  0.4981 -0.0962  0.3777
  225MOL0     C30974   9.764   3.687  -0.721 -0.0495  0.4096 -0.4702
  225MOL0     C30975   9.648   3.779  -0.685 -1.2124 -0.1091  0.0484
  225MOL0     C30976   9.582   3.737  -0.560  0.0437  0.5409  0.0819
  225MOL0     C30977   9.532   3.687  -0.462  0.0772  0.0087 -0.2573
  225MOL0     C30978  10.009   3.828  -0.321 -0.4503 -0.7188 -0.0486
  225MOL0     C30979  10.012   3.785  -0.188 -0.4116  0.3455  0.0670
  225MOL0     C30980  10.143   3.743  -0.141  0.2556 -0.0899 -0.2303
  225MOL0     H30981  10.210   3.750   0.250  0.2657 -2.4347  0.5946
  225MOL0     H30982  10.248   3.771   0.494 -0.1193  0.8156  0.9483
  225MOL0     H30983   9.890   3.807   0.749 -1.3036  1.3760  2.7087
  225MOL0     H30984  10.032   3.791   0.858 -1.7392 -0.8523  1.6400
  225MOL0     H30985   9.848   3.582   0.876 -0.2295  0.8457  0.8617
  225MOL0     H30986   9.896   3.549   0.710 -0.3678  0.1578 -0.4873
  225MOL0     H30987  10.011   3.386   0.826  2.1095 -0.7637 -1.1521
  225MOL0     H30988  10.134   3.505   0.796 -0.0351 -3.6284 -0.4476
  225MOL0     H30989  10.109   3.600   1.024 -0.6952 -0.3247  2.0175
  225MOL0     H30990   9.977   3.488   1.061 -0.2707  1.7091  0.7112
  225MOL0     H30991  10.106   3.312   1.088  0.6027 -0.4380 -1.5489
  225MOL0     H30992  10.179   3.445   1.172 -1.2692  0.2351 -0.3741
  225MOL0     H30993  10.287   3.396   0.896  0.5563  2.1680 -0.4113
  225MOL0     H30994  10.349   3.489   1.026 -1.1085  0.7351  0.0468
  225MOL0     H30995  10.291   3.183   1.072  2.3625 -1.2370  3.0340
  225MOL0     H30996  10.399   3.261   1.166 -2.7813 -2.4050  1.9739
  225MOL0     H30997  10.434   3.218   0.842  2.1787  0.4128 -0.8242
  225MOL0     H30998  10.555   3.293   0.943 -0.6636  0.9141  1.5962
  225MOL0     H30999  10.347   2.961   0.934  0.9172  1.8499  1.1031
  225MOL0     H31000  10.425   2.687   1.030 -1.4105  2.0544 -2.8931
  225MOL0     H31001  10.593   2.684   1.094 -0.7340 -2.6147 -0.4060
  225MOL0     H31002  10.512   2.655   0.805  0.7055 -0.2860 -0.7010
  225MOL0     H31003  10.673   2.684   0.848 -0.1811 -0.9049  0.0023
  225MOL0     H31004  10.697   2.485   0.978  2.2387 -2.2416 -1.5654
  225MOL0     H31005  10.521   2.458   0.982  0.8777  0.8188 -0.1807
  225MOL0     H31006  10.689   2.456   0.731  0.1624 -0.4424  0.1645
  225MOL0     H31007  10.666   2.307   0.837 -0.1741 -0.3929 -1.7004
  225MOL0     H31008  10.262   2.327   0.624 -0.1934 -1.5489 -0.3062
  225MOL0     H31009  10.105   2.283   0.469 -1.5028 -0.6078 -0.4465
  225MOL0     H31010  10.134   2.141   0.374 -2.9364  0.2458  1.1686
  225MOL0     H31011  10.157   2.300   0.299  3.1052 -0.7127 -1.2216
  225MOL0     H31012  10.396   2.228  -0.082  0.6018 -0.9920 -1.1241
  225MOL0     H31013  10.347   2.113  -0.309  0.4795  1.0109  1.2262
  225MOL0     H31014  10.284   1.987  -0.487  0.4250  0.4258  0.2433
  225MOL0     H31015  10.426   1.910  -0.417  0.0734 -0.1607  0.1014
  225MOL0     H31016  10.375   1.694  -0.509  1.0454  0.0355 -1.9686
  225MOL0     H31017  10.217   1.759  -0.561  1.4298 -0.3810 -4.5232
  225MOL0     H31018  10.479   1.861  -0.655  1.3220 -3.7345 -1.2590
  225MOL0     H31019  10.307   1.890  -0.711  0.4824  0.8642  0.9500
  225MOL0     H31020  10.318   1.623  -0.762 -1.8758  1.6296 -1.0681
  225MOL0     H31021  10.490   1.630  -0.708 -2.4489 -3.5613  0.8625
  225MOL0     H31022  10.555   1.777  -0.894 -0.0190  0.0605  0.2891
  225MOL0     H31023  10.483   1.622  -0.936  0.7805 -0.5987  0.2869
  225MOL0     H31024  10.343   1.896  -0.953 -2.9649  0.1938  0.1616
  225MOL0     H31025  10.246   1.753  -0.948  0.3569 -0.2761  0.7813
  225MOL0     H31026  10.271   1.836  -1.160  0.6408  0.6297 -0.6118
  225MOL0     H31027  10.312   1.669  -1.145  0.7795 -1.8230  4.0114
  225MOL0     H31028  10.548   1.724  -1.185 -1.9099 -1.6528 -0.1407
  225MOL0     H31029  10.514   1.891  -1.163 -0.9180  0.9544  0.2592
  225MOL0     H31030  10.152   1.802  -0.114  2.3153 -0.7518 -0.2604
  225MOL0     H31031  10.171   1.935   0.118 -2.3312 -0.5164 -0.0126
  225MOL0     H31032  10.629   2.223   0.321 -1.2049  4.0342 -2.8408
  225MOL0     H31033  10.683   2.296   0.553  0.9262 -3.6537 -2.1097
  225MOL0     H31034   9.829   3.720   0.562 -1.5831  0.6881 -1.8356
  225MOL0     H31035   9.785   3.731   0.316 -1.5668  0.3050  3.6692
  225MOL0     H31036   9.677   3.820  -0.121  1.0135 -3.6462  1.9122
  225MOL0     H31037   9.685   3.889  -0.368 -2.3346 -0.0020  1.8478
  225MOL0     H31038   9.969   3.832  -0.721  0.6229 -1.8953  0.7925
  225MOL0     H31039  10.049   3.749  -0.581  1.2457  2.0316  0.4926
  225MOL0     H31040   9.848   3.638  -0.523  1.2267 -1.7449  0.1252
  225MOL0     H31041   9.941   3.585  -0.656  0.3690 -0.3538  0.7870
  225MOL0     H31042   9.804   3.710  -0.820 -1.5532 -0.1394 -1.2387
  225MOL0     H31043   9.714   3.594  -0.751  0.2505  0.7893 -2.2085
  225MOL0     H31044   9.569   3.792  -0.759  0.3758 -0.7752 -1.8510
  225MOL0     H31045   9.696   3.877  -0.672  0.3095 -0.5841 -1.6054
  225MOL0     H31046   9.472   3.622  -0.402  0.6284 -2.7761 -2.5075
  225MOL0     H31047  10.103   3.848  -0.372 -2.1458  2.0521 -2.4887
  225MOL0     H31048  10.128   3.645  -0.094 -1.1572  1.1075  2.0011
  225MOL0     H31049  10.200   3.716  -0.231 -3.4685 -3.7451 -1.8204
  225MOL0     H31050  10.190   3.813  -0.072 -0.1123  2.3891 -2.3282
  226MOL0     O31051   5.995   5.663   4.478  0.0542  0.2545  0.5822
  226MOL0     C31052   5.877   5.662   4.451  0.5396 -0.3006 -0.0602
  226MOL0     O31053   5.818   5.651   4.325  0.1000  0.1764 -0.0487
  226MOL0     C31054   5.908   5.665   4.219 -0.7899  0.8855  0.6146
  226MOL0     C31055   6.003   5.768   4.209  0.1769 -0.2030 -0.1620
  226MOL0     C31056   6.076   5.799   4.091  0.3650  0.1734  0.4597
  226MOL0     C31057   6.067   5.714   3.986 -0.5479  0.0781 -0.0461
  226MOL0     O31058   6.133   5.736   3.868  0.5726 -0.1503  0.3960
  226MOL0     C31059   6.266   5.688   3.873 -0.0144  0.6870 -0.7645
  226MOL0     C31060   6.321   5.682   3.740  0.2614  0.5097 -0.1849
  226MOL0     C31061   6.262   5.565   3.664  0.6825  0.1576 -0.1417
  226MOL0     C31062   6.341   5.545   3.535 -0.0358 -0.2999  0.4187
  226MOL0     C31063   6.309   5.405   3.470  0.1719 -0.3362 -0.1664
  226MOL0     C31064   6.375   5.380   3.332  0.2802 -0.6216  0.5105
  226MOL0     C31065   6.314   5.266   3.262  0.7904  0.2810  0.4517
  226MOL0     C31066   6.291   5.139   3.333  0.7867  0.3766 -0.0125
  226MOL0     N31067   6.415   5.067   3.366  0.7692 -0.3013  0.0668
  226MOL0     C31068   6.485   5.079   3.486  0.4965  0.1104 -0.0010
  226MOL0     C31069   6.586   4.990   3.463  0.0073 -0.6526 -0.3246
  226MOL0     C31070   6.700   4.966   3.563  0.3610 -0.2002 -0.0627
  226MOL0     C31071   6.832   4.924   3.495 -0.0415 -0.1359  0.0465
  226MOL0     C31072   6.935   4.919   3.599 -0.0415  0.8761 -0.0257
  226MOL0     C31073   7.077   4.922   3.531  0.6295  0.3579  0.0201
  226MOL0     O31074   7.180   4.898   3.625  0.2477 -0.1754  0.8191
  226MOL0     C31075   7.297   4.834   3.584  0.0773 -0.0369  0.3466
  226MOL0     C31076   7.340   4.820   3.448  0.2750 -0.6858 -0.2902
  226MOL0     C31077   7.448   4.741   3.411  0.7485 -0.8413 -0.6958
  226MOL0     C31078   7.485   4.748   3.261  0.5531 -0.3216  0.7046
  226MOL0     C31079   7.518   4.667   3.516 -0.0780  0.1209  0.2805
  226MOL0     C31080   7.628   4.570   3.486 -0.0344 -0.3349  1.2980
  226MOL0     O31081   7.636   4.538   3.353 -0.7106  0.6220 -0.0089
  226MOL0     C31082   7.761   4.488   3.309 -0.3399 -0.9744  0.4629
  226MOL0     C31083   7.884   4.555   3.326 -0.0945  0.6575  0.4758
  226MOL0     C31084   8.002   4.498   3.283  0.2165  0.3496 -0.4809
  226MOL0     C31085   8.002   4.370   3.230  0.1760  0.6893  0.4441
  226MOL0     O31086   8.123   4.317   3.198  0.1219  0.4437  0.5272
  226MOL0     C31087   8.138   4.189   3.127  0.0237 -0.0295  0.6227
  226MOL0     C31088   8.287   4.165   3.131 -0.0891  0.2861 -0.1889
  226MOL0     C31089   8.320   4.042   3.040  0.1960 -0.3331  0.7478
  226MOL0     C31090   8.469   4.014   3.029 -0.9888  0.6618  0.0643
  226MOL0     C31091   8.494   3.883   2.959 -0.2246 -0.4617  0.7080
  226MOL0     C31092   8.635   3.840   2.938  0.6206  0.3837  0.2793
  226MOL0     C31093   8.650   3.697   2.889  0.2460 -0.6155  0.2461
  226MOL0     C31094   8.788   3.640   2.920  0.5480  0.2747  0.6994
  226MOL0    Cl31095   8.922   3.726   2.833 -0.0335 -0.3194  0.4593
  226MOL0     C31096   7.878   4.307   3.205 -0.1901  0.0977 -0.1906
  226MOL0     C31097   7.759   4.365   3.244  0.7699  0.1080  0.3000
  226MOL0     O31098   7.704   4.541   3.569 -0.1028  0.1332 -0.7887
  226MOL0     C31099   7.481   4.685   3.648  0.6361 -0.2346  0.0708
  226MOL0     C31100   7.373   4.770   3.678  0.0849 -0.1979 -0.7206
  226MOL0     N31101   6.572   4.928   3.343  0.6020  0.2109  0.4851
  226MOL0     N31102   6.462   4.971   3.288  0.5081  0.8283  0.2828
  226MOL0     C31103   5.970   5.613   3.994 -0.6148  0.2686  0.4413
  226MOL0     C31104   5.894   5.589   4.108  1.2040 -0.1241 -0.9422
  226MOL0     C31105   5.791   5.678   4.577  0.3803  0.8218  0.4433
  226MOL0     C31106   5.841   5.650   4.702  0.7584  0.2037  0.3238
  226MOL0     C31107   5.775   5.685   4.824 -0.1038 -0.9914  0.3153
  226MOL0     C31108   5.645   5.737   4.827  0.3199  0.6881 -0.3743
  226MOL0     O31109   5.584   5.758   4.946 -0.2792 -0.1619 -0.3015
  226MOL0     C31110   5.581   5.901   4.979 -0.2053 -1.4697 -0.8068
  226MOL0     C31111   5.440   5.965   5.005  0.2687 -0.2858  0.4669
  226MOL0     C31112   5.348   5.866   5.083  0.1603  0.3112 -0.7522
  226MOL0     C31113   5.199   5.877   5.091  0.6731  0.6359 -0.2906
  226MOL0     C31114   5.135   5.915   4.963 -0.2860 -0.3114  0.2264
  226MOL0     C31115   5.073   5.944   4.860  0.5722 -0.3135 -0.1168
  226MOL0     C31116   5.584   5.747   4.700  0.7805  0.1105 -0.3480
  226MOL0     C31117   5.655   5.735   4.575 -0.8295  0.5685 -0.2108
  226MOL0     C31118   5.586   5.789   4.456  1.0416 -0.0984  0.5993
  226MOL0     H31119   6.005   5.838   4.291 -2.9297  4.3839 -3.5213
  226MOL0     H31120   6.135   5.888   4.074 -0.1353  0.1727 -1.5410
  226MOL0     H31121   6.265   5.592   3.927 -0.9441  1.1451  0.0575
  226MOL0     H31122   6.328   5.742   3.944 -0.1248 -3.3186  2.8035
  226MOL0     H31123   6.293   5.777   3.693 -2.0316  2.2708  4.1648
  226MOL0     H31124   6.430   5.692   3.739  0.1525  2.1418  0.4387
  226MOL0     H31125   6.268   5.473   3.723  0.7936 -1.9069 -3.0972
  226MOL0     H31126   6.158   5.574   3.633  0.3053 -0.2910  0.9634
  226MOL0     H31127   6.327   5.636   3.475  3.9076 -0.8533 -1.6863
  226MOL0     H31128   6.450   5.551   3.544  0.3518 -0.8510 -2.7839
  226MOL0     H31129   6.200   5.399   3.462  0.1340  2.2754 -3.7167
  226MOL0     H31130   6.335   5.326   3.541  2.4315 -0.8377 -1.4775
  226MOL0     H31131   6.365   5.471   3.271  3.3764  0.4817  1.4213
  226MOL0     H31132   6.481   5.359   3.348  0.7349  0.1927 -1.1822
  226MOL0     H31133   6.354   5.243   3.163  0.3741 -0.3300  0.4197
  226MOL0     H31134   6.215   5.307   3.240  1.3404 -0.1298 -3.6626
  226MOL0     H31135   6.234   5.143   3.426 -0.2199  2.0308 -0.6653
  226MOL0     H31136   6.234   5.088   3.255  1.3891 -2.0039  1.0075
  226MOL0     H31137   6.466   5.150   3.566  0.7266 -0.4594  0.5751
  226MOL0     H31138   6.678   4.895   3.643  1.5064 -1.3942 -0.7606
  226MOL0     H31139   6.710   5.064   3.612  0.7369 -0.0813 -0.3684
  226MOL0     H31140   6.832   4.823   3.454 -0.2732 -0.1220  0.0159
  226MOL0     H31141   6.874   4.984   3.413  1.4652 -1.7289 -0.4023
  226MOL0     H31142   6.934   4.993   3.679  1.7172  1.4886 -0.5472
  226MOL0     H31143   6.928   4.825   3.655 -0.1370  0.2439 -1.0684
  226MOL0     H31144   7.083   4.860   3.441  0.2170 -0.0324  0.2557
  226MOL0     H31145   7.078   5.019   3.481 -3.3991  0.5161 -0.0887
  226MOL0     H31146   7.286   4.879   3.376  2.1410 -1.5408 -2.5171
  226MOL0     H31147   7.593   4.758   3.248  0.5041  0.4400  0.8732
  226MOL0     H31148   7.441   4.828   3.201 -0.6703 -0.2029  1.7224
  226MOL0     H31149   7.456   4.650   3.221 -1.6003  0.5651 -0.0693
  226MOL0     H31150   7.890   4.653   3.371 -0.5357  0.7936  0.2450
  226MOL0     H31151   8.092   4.559   3.276 -1.3969  2.8506 -0.7179
  226MOL0     H31152   8.084   4.108   3.177 -3.1648  2.1451  0.9528
  226MOL0     H31153   8.102   4.197   3.024  0.1985 -0.3144  0.5387
  226MOL0     H31154   8.338   4.251   3.086  2.8940 -1.8283 -1.1239
  226MOL0     H31155   8.304   4.155   3.239 -0.4264  1.5379 -0.0020
  226MOL0     H31156   8.284   4.055   2.937  2.7610  0.2447 -0.1428
  226MOL0     H31157   8.264   3.964   3.092  0.3625 -0.7391  0.3229
  226MOL0     H31158   8.511   4.008   3.130  0.8792 -2.1457 -0.7613
  226MOL0     H31159   8.525   4.093   2.978  0.6977  0.7956  1.9884
  226MOL0     H31160   8.435   3.807   3.012 -0.8866 -1.2910 -1.1233
  226MOL0     H31161   8.446   3.884   2.860 -1.1814  0.5103  1.1587
  226MOL0     H31162   8.696   3.840   3.029  1.0651  0.7764 -0.0128
  226MOL0     H31163   8.681   3.907   2.865  0.0110  1.3816  0.7871
  226MOL0     H31164   8.633   3.696   2.781  1.7627 -1.7637 -0.0189
  226MOL0     H31165   8.578   3.631   2.939 -2.1769  1.2036 -0.6075
  226MOL0     H31166   8.801   3.536   2.888  2.1746  0.3814  0.9123
  226MOL0     H31167   8.798   3.630   3.028  0.8109  3.4053  1.0399
  226MOL0     H31168   7.872   4.219   3.142  0.4591 -1.1602  1.4360
  226MOL0     H31169   7.669   4.306   3.229  1.5209 -0.8899 -0.4502
  226MOL0     H31170   7.518   4.626   3.732  1.9090 -0.0496 -0.3410
  226MOL0     H31171   7.335   4.783   3.779 -2.3102  0.3928 -1.6148
  226MOL0     H31172   5.947   5.578   3.894 -0.1856 -0.1856  0.4945
  226MOL0     H31173   5.805   5.528   4.104  1.0444 -0.0059  0.3771
  226MOL0     H31174   5.937   5.600   4.704  1.1238  0.7992 -1.2080
  226MOL0     H31175   5.817   5.660   4.921  2.2569 -1.7688 -0.8301
  226MOL0     H31176   5.631   5.914   5.075  0.9062  4.3405 -1.8083
  226MOL0     H31177   5.642   5.966   4.915 -2.4306  1.1372 -0.5124
  226MOL0     H31178   5.393   5.995   4.911  0.3849  1.3423  0.8963
  226MOL0     H31179   5.451   6.053   5.069 -0.4346 -0.9027  1.4708
  226MOL0     H31180   5.349   5.767   5.036 -1.3450  1.1894 -2.7629
  226MOL0     H31181   5.394   5.867   5.182 -2.1124  4.1607  0.4651
  226MOL0     H31182   5.170   5.955   5.162 -3.1801 -1.0872  0.2386
  226MOL0     H31183   5.160   5.783   5.130  1.9379 -0.4155 -1.4564
  226MOL0     H31184   5.006   5.956   4.778  1.6675  1.7280 -0.7788
  226MOL0     H31185   5.485   5.789   4.690 -0.6182 -3.3062 -2.2003
  226MOL0     H31186   5.477   5.789   4.458  0.9885 -0.3320 -1.0171
  226MOL0     H31187   5.620   5.891   4.436 -2.6229  1.2571  0.5276
  226MOL0     H31188   5.602   5.723   4.370 -0.6317  0.1827  0.0339
  227MOL0     O31189   4.805  11.079   7.695  0.0289  0.4133 -0.6762
  227MOL0     C31190   4.703  11.053   7.757  0.8832 -0.4736 -0.0978
  227MOL0     O31191   4.705  10.966   7.870 -0.0575  0.4896  0.3069
  227MOL0     C31192   4.821  10.902   7.896 -0.6099  0.4505  0.6515
  227MOL0     C31193   4.840  10.760   7.860  1.0136  0.0615  0.6943
  227MOL0     C31194   4.958  10.693   7.903  1.0822  0.7645  0.2078
  227MOL0     C31195   5.071  10.759   7.950  0.4705 -0.0566 -0.1084
  227MOL0     O31196   5.184  10.690   7.972 -0.4963 -0.2434  0.2155
  227MOL0     C31197   5.237  10.615   7.866  1.0294  0.7655  0.8953
  227MOL0     C31198   5.377  10.576   7.901  0.7693  0.0505  0.2881
  227MOL0     C31199   5.419  10.451   7.833  1.1952 -0.5975 -0.1481
  227MOL0     C31200   5.364  10.318   7.896  0.6141  0.2316  0.4642
  227MOL0     C31201   5.419  10.183   7.845  0.2843 -0.7631 -0.3943
  227MOL0     C31202   5.336  10.063   7.890 -0.2959  0.0678 -0.0398
  227MOL0     C31203   5.252   9.993   7.783  0.3446  0.0565  0.2812
  227MOL0     C31204   5.195   9.858   7.813  0.0697  0.4355  0.1677
  227MOL0     N31205   5.111   9.800   7.708 -0.2658 -0.1145 -0.4114
  227MOL0     C31206   5.047   9.873   7.611  0.4582 -0.6243 -0.4404
  227MOL0     C31207   4.980   9.781   7.537 -0.3066 -0.4400  0.4239
  227MOL0     C31208   4.892   9.832   7.425 -0.0216 -0.1032 -0.4514
  227MOL0     C31209   4.983   9.881   7.307 -0.1590  0.0349  0.1549
  227MOL0     C31210   5.099   9.792   7.270  0.2105  0.4458 -0.2060
  227MOL0     C31211   5.186   9.826   7.151  0.0719  0.7568 -0.5053
  227MOL0     O31212   5.241   9.955   7.181  0.5425 -0.3912 -0.2463
  227MOL0     C31213   5.321   9.997   7.079  0.0121  0.9309  0.4050
  227MOL0     C31214   5.460   9.987   7.092 -0.1649  0.5074 -0.7870
  227MOL0     C31215   5.539  10.041   7.000 -1.4252 -0.3831  0.5277
  227MOL0     C31216   5.690  10.033   7.018  1.0196  0.0334 -0.7071
  227MOL0     C31217   5.493  10.114   6.890 -0.3262  0.1361  0.0400
  227MOL0     C31218   5.579  10.179   6.785  1.1885  0.9572 -0.2144
  227MOL0     O31219   5.578  10.146   6.649  0.4355 -0.2588 -0.0185
  227MOL0     C31220   5.541  10.026   6.613  0.1451  0.7748  0.1131
  227MOL0     C31221   5.421  10.003   6.545 -0.9550  0.2237  0.4048
  227MOL0     C31222   5.385   9.878   6.502 -0.0725  0.5403  0.5928
  227MOL0     C31223   5.469   9.766   6.533 -0.1064 -0.3534  0.4201
  227MOL0     O31224   5.433   9.636   6.520  0.2108 -0.2443  0.2757
  227MOL0     C31225   5.363   9.594   6.409  1.1693  0.2679  1.3903
  227MOL0     C31226   5.421   9.451   6.382  0.3283  0.8265 -0.4869
  227MOL0     C31227   5.364   9.394   6.250 -0.3397  0.8486 -0.2132
  227MOL0     C31228   5.473   9.312   6.181 -0.4990  0.6747 -0.8497
  227MOL0     C31229   5.436   9.240   6.041  0.5202  0.4758  0.0316
  227MOL0     C31230   5.293   9.190   6.027  0.5218 -0.6469 -1.2798
  227MOL0     C31231   5.261   9.063   6.124  0.2478 -0.3049 -0.0107
  227MOL0     C31232   5.113   9.022   6.103 -0.8638 -0.3977 -0.6152
  227MOL0    Cl31233   5.095   8.974   5.926  0.1033 -0.3673  0.1822
  227MOL0     C31234   5.593   9.794   6.595  0.3754 -0.0106 -0.4398
  227MOL0     C31235   5.630   9.923   6.632 -0.4751 -0.7504  0.8005
  227MOL0     O31236   5.640  10.278   6.826  0.8350  0.3038 -0.2402
  227MOL0     C31237   5.354  10.129   6.876 -0.4255  0.3792  0.2260
  227MOL0     C31238   5.267  10.077   6.972  0.3933  0.2364 -0.9639
  227MOL0     N31239   5.007   9.656   7.585 -0.4286  0.7853  0.3766
  227MOL0     N31240   5.090   9.667   7.689  0.6514  0.0171  0.1987
  227MOL0     C31241   5.051  10.894   7.976 -0.2752  0.1650 -0.6538
  227MOL0     C31242   4.930  10.963   7.953  0.0851  0.7712  0.0718
  227MOL0     C31243   4.575  11.104   7.700  0.4805 -0.6070 -0.2640
  227MOL0     C31244   4.464  11.120   7.792 -0.0693 -0.4328 -0.1225
  227MOL0     C31245   4.336  11.153   7.745 -0.7442  0.2099 -0.9429
  227MOL0     C31246   4.319  11.175   7.609  0.2143 -0.3390  0.0616
  227MOL0     O31247   4.202  11.229   7.557 -0.1861  0.5613  0.1526
  227MOL0     C31248   4.075  11.232   7.638 -0.2908  0.4120 -0.4072
  227MOL0     C31249   3.955  11.316   7.582  0.2535  0.0309 -0.8214
  227MOL0     C31250   3.831  11.333   7.669  0.0098 -1.3726 -0.1470
  227MOL0     C31251   3.704  11.377   7.591  0.7220  0.0683 -0.2664
  227MOL0     C31252   3.654  11.250   7.527 -0.0699  0.3974  0.7122
  227MOL0     C31253   3.609  11.145   7.490 -0.0013 -0.1972  0.7250
  227MOL0     C31254   4.425  11.166   7.524 -0.0813 -0.2990 -0.2529
  227MOL0     C31255   4.557  11.140   7.567 -0.6545 -0.1249  0.4203
  227MOL0     C31256   4.661  11.170   7.467 -0.1916  0.7015  0.4025
  227MOL0     H31257   4.755  10.700   7.830  0.2293  0.7851  1.3995
  227MOL0     H31258   4.953  10.585   7.899 -1.6094  0.7097  2.2335
  227MOL0     H31259   5.233  10.661   7.767  1.2849 -2.4824 -0.7359
  227MOL0     H31260   5.166  10.535   7.845  0.1206  1.6771  0.4156
  227MOL0     H31261   5.440  10.663   7.886 -0.9455  1.1119 -1.1067
  227MOL0     H31262   5.382  10.546   8.007 -2.9307 -0.8613  0.3516
  227MOL0     H31263   5.394  10.442   7.727  1.4000 -1.1851 -0.1514
  227MOL0     H31264   5.528  10.460   7.828  1.2525 -1.6649 -1.2231
  227MOL0     H31265   5.371  10.327   8.005 -1.5725  1.1541  0.5788
  227MOL0     H31266   5.259  10.320   7.867  0.3018 -1.1111  1.3996
  227MOL0     H31267   5.524  10.183   7.876 -0.3154  3.5466  2.6249
  227MOL0     H31268   5.420  10.191   7.736 -1.4266  0.5192 -0.3701
  227MOL0     H31269   5.408   9.985   7.916  2.1336  1.5546 -1.8872
  227MOL0     H31270   5.286  10.080   7.986  0.6970 -1.1009  0.7186
  227MOL0     H31271   5.315   9.967   7.698  2.2647 -1.0256  1.9538
  227MOL0     H31272   5.175  10.068   7.763 -0.9082 -0.8251  1.6279
  227MOL0     H31273   5.275   9.786   7.832 -1.3421 -0.6601  2.3224
  227MOL0     H31274   5.133   9.865   7.903 -0.2773  1.4651 -0.1403
  227MOL0     H31275   5.052   9.980   7.594 -0.0771 -0.5077  0.1011
  227MOL0     H31276   4.828   9.913   7.462 -0.1802  0.5219 -1.9933
  227MOL0     H31277   4.824   9.753   7.391  0.2966 -1.0918  1.1134
  227MOL0     H31278   4.924   9.893   7.216  1.2726  0.1674 -0.7844
  227MOL0     H31279   5.033   9.978   7.320  2.6623 -1.3115  0.1855
  227MOL0     H31280   5.161   9.792   7.361  0.7576 -0.0122 -0.5700
  227MOL0     H31281   5.061   9.691   7.256  2.5867 -0.1592 -3.4042
  227MOL0     H31282   5.267   9.754   7.147 -0.5118  0.0773 -0.3252
  227MOL0     H31283   5.130   9.829   7.057 -0.8413 -0.4059 -0.0222
  227MOL0     H31284   5.517   9.947   7.175 -0.3176  3.3763  0.8378
  227MOL0     H31285   5.743  10.111   6.962 -0.6438 -0.3487 -2.9879
  227MOL0     H31286   5.728   9.932   6.996  3.2408  0.8854 -0.9899
  227MOL0     H31287   5.718  10.056   7.121 -0.7016 -1.4239  0.1561
  227MOL0     H31288   5.353  10.087   6.529  0.0645  0.7068 -1.7574
  227MOL0     H31289   5.292   9.860   6.449 -0.5687 -0.7786  1.8209
  227MOL0     H31290   5.259   9.599   6.441  0.5572 -0.3251 -0.4038
  227MOL0     H31291   5.369   9.660   6.322 -3.8776 -1.2751 -0.4809
  227MOL0     H31292   5.529   9.464   6.387  0.4499 -0.0097 -0.7596
  227MOL0     H31293   5.403   9.385   6.467 -1.4119  0.2311 -1.2591
  227MOL0     H31294   5.316   9.465   6.182 -0.9608  0.2441 -0.4187
  227MOL0     H31295   5.284   9.322   6.270 -0.3950  0.6118 -1.2116
  227MOL0     H31296   5.509   9.236   6.250 -1.6249  0.0848 -0.8845
  227MOL0     H31297   5.560   9.375   6.161  0.7693 -0.0517  1.9480
  227MOL0     H31298   5.444   9.312   5.960  3.0857 -1.5624 -1.7112
  227MOL0     H31299   5.511   9.162   6.023  0.5529  0.0176  1.9384
  227MOL0     H31300   5.273   9.164   5.923  0.7894  4.6632 -2.9229
  227MOL0     H31301   5.232   9.280   6.035  1.1196 -0.2740 -0.8781
  227MOL0     H31302   5.285   9.094   6.226  4.1673 -0.3310 -0.7530
  227MOL0     H31303   5.314   8.971   6.099 -0.2311 -1.0946  1.7388
  227MOL0     H31304   5.044   9.106   6.118 -2.4313 -1.2280 -2.7911
  227MOL0     H31305   5.087   8.945   6.176 -0.3961  0.9788  1.0873
  227MOL0     H31306   5.651   9.708   6.629  0.9572  1.5526  2.8724
  227MOL0     H31307   5.734   9.941   6.658  0.3890 -2.6394 -1.0335
  227MOL0     H31308   5.304  10.179   6.794 -2.8047  0.3252  1.5330
  227MOL0     H31309   5.163  10.109   6.982  0.7567  1.3316 -0.4814
  227MOL0     H31310   5.124  10.950   8.034  0.9043 -2.2543  0.3224
  227MOL0     H31311   4.931  11.070   7.969 -2.1589  0.9641 -0.6662
  227MOL0     H31312   4.488  11.127   7.897  1.4587  4.5456 -0.5140
  227MOL0     H31313   4.254  11.149   7.816  0.8930 -2.7975  0.9800
  227MOL0     H31314   4.041  11.129   7.649  0.9722  0.0562  0.3412
  227MOL0     H31315   4.097  11.284   7.732  1.3145  2.3213 -1.7359
  227MOL0     H31316   3.915  11.268   7.492 -1.2877  1.9322 -1.2378
  227MOL0     H31317   4.008  11.408   7.554 -0.1330  0.3053 -0.6697
  227MOL0     H31318   3.815  11.253   7.742 -1.6779 -0.5819  0.4008
  227MOL0     H31319   3.871  11.422   7.718 -0.0381 -3.1080  3.3505
  227MOL0     H31320   3.732  11.460   7.525  3.9002  0.8076  1.7481
  227MOL0     H31321   3.617  11.404   7.651 -1.7624 -1.9528 -2.7203
  227MOL0     H31322   3.579  11.054   7.443 -2.1528  1.0343 -0.4463
  227MOL0     H31323   4.417  11.186   7.417  3.8042 -0.2886 -0.6569
  227MOL0     H31324   4.628  11.212   7.372  1.0594 -2.0031 -1.3752
  227MOL0     H31325   4.739  11.238   7.502  2.2117 -1.6828  0.0277
  227MOL0     H31326   4.714  11.079   7.435  0.4352  1.1845  0.0389
  228MOL0     O31327   5.965   2.601   4.515 -0.5299  0.1721  0.6625
  228MOL0     C31328   6.062   2.618   4.441  0.0630 -0.5957  0.8681
  228MOL0     O31329   6.193   2.654   4.480  0.6081  0.4675  0.6087
  228MOL0     C31330   6.210   2.686   4.607 -0.5352  0.4574 -0.3925
  228MOL0     C31331   6.293   2.608   4.690  1.1950 -0.0866 -0.5013
  228MOL0     C31332   6.302   2.642   4.821  0.5077  0.0370  0.2349
  228MOL0     C31333   6.253   2.759   4.868  0.2661 -0.2423  0.2250
  228MOL0     O31334   6.293   2.782   4.994 -0.1892 -0.1414 -0.0714
  228MOL0     C31335   6.258   2.910   5.050  0.4142 -0.0909 -0.6743
  228MOL0     C31336   6.122   2.895   5.126  0.1511 -0.1565  0.7032
  228MOL0     C31337   6.076   3.020   5.201 -0.2150 -0.9157  1.2274
  228MOL0     C31338   6.057   3.135   5.099  0.7230  1.0348  0.8247
  228MOL0     C31339   5.993   3.259   5.165 -0.5535 -0.4951 -0.5214
  228MOL0     C31340   5.841   3.231   5.205  0.0376  0.4466 -0.0209
  228MOL0     C31341   5.782   3.324   5.310 -0.5315  0.0924 -0.0859
  228MOL0     C31342   5.753   3.471   5.253  0.0522  0.4678 -0.8034
  228MOL0     N31343   5.854   3.570   5.291  0.2999 -0.7297 -0.8080
  228MOL0     C31344   5.833   3.677   5.374  0.2502  0.3117 -1.0794
  228MOL0     C31345   5.950   3.748   5.379  0.0126 -0.1001  0.2221
  228MOL0     C31346   5.983   3.865   5.468 -0.9949 -0.4293 -0.1110
  228MOL0     C31347   5.935   3.996   5.408 -0.5323 -0.1661  0.3899
  228MOL0     C31348   6.021   4.044   5.275 -0.3222 -0.2240  0.2289
  228MOL0     C31349   6.170   4.072   5.308 -0.1905 -0.1820 -0.5856
  228MOL0     O31350   6.161   4.192   5.393  0.3199  0.6391  0.4410
  228MOL0     C31351   6.271   4.257   5.424 -0.8792  0.0625 -0.9143
  228MOL0     C31352   6.248   4.362   5.515 -0.7662 -0.6719  0.7148
  228MOL0     C31353   6.356   4.452   5.550  0.1458  0.5225 -0.3376
  228MOL0     C31354   6.340   4.575   5.635  0.0688 -0.1980 -0.4628
  228MOL0     C31355   6.490   4.417   5.505  1.1321 -0.1168 -0.0812
  228MOL0     C31356   6.609   4.511   5.527  0.1962 -0.0511  0.2550
  228MOL0     O31357   6.732   4.442   5.552  0.5755  0.1606 -0.5434
  228MOL0     C31358   6.846   4.498   5.512  0.6003  0.6629  0.4094
  228MOL0     C31359   6.888   4.502   5.376  0.2404  0.3018 -1.6803
  228MOL0     C31360   7.017   4.557   5.340  0.8801  0.1541  0.6874
  228MOL0     C31361   7.089   4.624   5.435 -0.3147  0.5152 -0.3472
  228MOL0     O31362   7.211   4.660   5.388 -0.3700  0.4167 -0.4258
  228MOL0     C31363   7.324   4.672   5.481  1.3183 -0.5512 -0.1188
  228MOL0     C31364   7.321   4.804   5.553 -0.8981  0.5254  0.1277
  228MOL0     C31365   7.453   4.829   5.623  0.3526 -0.2337 -0.4676
  228MOL0     C31366   7.473   4.753   5.756  0.7726  0.3930  0.0943
  228MOL0     C31367   7.609   4.776   5.822 -0.4196  0.4913 -1.0021
  228MOL0     C31368   7.637   4.687   5.950  0.8993  0.2858 -0.9716
  228MOL0     C31369   7.772   4.722   6.001  1.2987  1.0000 -0.0533
  228MOL0     C31370   7.797   4.623   6.125 -0.2327 -0.0829 -0.5621
  228MOL0    Cl31371   7.657   4.611   6.229  0.0829 -0.0116 -0.3403
  228MOL0     C31372   7.052   4.623   5.567  0.0918 -0.0349 -0.4420
  228MOL0     C31373   6.930   4.563   5.608  0.3333  0.2846  0.8094
  228MOL0     O31374   6.596   4.633   5.504  0.1248  0.9291  0.8081
  228MOL0     C31375   6.504   4.318   5.410  0.2509  0.0150 -0.4472
  228MOL0     C31376   6.397   4.241   5.365 -0.0119 -0.9855 -0.2661
  228MOL0     N31377   6.043   3.684   5.297  0.9310 -0.0049  1.3233
  228MOL0     N31378   5.981   3.580   5.251 -0.7645  0.3980 -0.3539
  228MOL0     C31379   6.170   2.843   4.784 -0.8567 -0.0318  0.9516
  228MOL0     C31380   6.145   2.799   4.657 -0.1634  1.0971  0.9796
  228MOL0     C31381   6.049   2.576   4.302  0.4810 -0.4876 -0.2079
  228MOL0     C31382   6.164   2.538   4.221  0.6550 -0.0096 -0.1021
  228MOL0     C31383   6.153   2.480   4.100  0.4907  0.8667  0.5620
  228MOL0     C31384   6.028   2.468   4.037 -0.0402 -1.7199  0.0392
  228MOL0     O31385   6.017   2.409   3.919 -0.1523  0.5906  0.3551
  228MOL0     C31386   6.119   2.327   3.863  0.4166 -0.1822  0.4093
  228MOL0     C31387   6.195   2.417   3.759  0.0903 -0.5918 -0.1830
  228MOL0     C31388   6.111   2.455   3.637  0.2926  0.6997  0.9362
  228MOL0     C31389   6.175   2.553   3.542 -0.1873  0.1031  0.8703
  228MOL0     C31390   6.296   2.507   3.469  0.8663 -1.2300 -0.6931
  228MOL0     C31391   6.396   2.467   3.421 -0.9441  0.1876  0.6543
  228MOL0     C31392   5.910   2.509   4.110 -0.0780 -0.1022  0.5778
  228MOL0     C31393   5.918   2.567   4.235 -0.2667  0.8598 -0.1868
  228MOL0     C31394   5.793   2.618   4.301  0.2030  0.5493  0.3866
  228MOL0     H31395   6.335   2.512   4.661 -1.3335 -1.4837  0.1692
  228MOL0     H31396   6.372   2.593   4.888 -1.9123 -1.2415  1.9410
  228MOL0     H31397   6.264   2.983   4.969  2.0250  1.7460  0.9733
  228MOL0     H31398   6.323   2.937   5.134 -1.0158  0.6960  0.2315
  228MOL0     H31399   6.050   2.869   5.048 -0.0217 -0.3285  0.9184
  228MOL0     H31400   6.118   2.812   5.197  0.7618 -0.8271 -0.0245
  228MOL0     H31401   5.986   3.002   5.259  0.9348  0.4123  3.6162
  228MOL0     H31402   6.143   3.053   5.281  0.7837 -0.4568  0.2302
  228MOL0     H31403   6.148   3.170   5.050 -1.0240 -0.7555 -4.3926
  228MOL0     H31404   5.993   3.101   5.017  2.5655 -1.0987  0.1617
  228MOL0     H31405   6.000   3.344   5.096  3.2719 -0.5804 -0.4785
  228MOL0     H31406   6.054   3.293   5.249  0.5192  2.1282 -2.2089
  228MOL0     H31407   5.787   3.230   5.109 -0.6603  0.2440  0.3646
  228MOL0     H31408   5.816   3.130   5.238 -1.2442  0.5915 -0.4646
  228MOL0     H31409   5.858   3.328   5.389 -1.3084 -1.6191  0.8019
  228MOL0     H31410   5.692   3.278   5.351  0.3927 -2.5165 -0.7502
  228MOL0     H31411   5.752   3.480   5.144  1.9169  0.0360 -0.8844
  228MOL0     H31412   5.650   3.490   5.287 -1.2236 -5.1084 -0.6396
  228MOL0     H31413   5.744   3.695   5.433  0.7105 -2.5882  0.7106
  228MOL0     H31414   6.092   3.877   5.471 -0.7911 -1.7664 -1.1808
  228MOL0     H31415   5.941   3.867   5.569 -0.3705 -0.1017  0.1489
  228MOL0     H31416   5.829   3.988   5.382 -0.4277  1.5972 -0.7980
  228MOL0     H31417   5.948   4.085   5.470 -5.2097  1.2754 -0.2985
  228MOL0     H31418   6.018   3.976   5.190  4.0091 -0.5364  0.0875
  228MOL0     H31419   5.980   4.140   5.243  3.6011  1.9801  1.0238
  228MOL0     H31420   6.232   3.993   5.350 -0.1129 -0.9738 -2.0975
  228MOL0     H31421   6.209   4.094   5.208  2.3967  1.0257  0.6079
  228MOL0     H31422   6.149   4.375   5.559 -1.6014 -4.4492  0.3116
  228MOL0     H31423   6.413   4.572   5.717 -0.4303 -0.6610 -0.0294
  228MOL0     H31424   6.242   4.561   5.682  0.5360 -0.4488  0.4742
  228MOL0     H31425   6.348   4.669   5.581 -1.6943 -0.7694 -1.8045
  228MOL0     H31426   6.836   4.465   5.288 -0.4818  1.7515 -1.8988
  228MOL0     H31427   7.053   4.541   5.238  0.4770  1.9241  0.2405
  228MOL0     H31428   7.322   4.596   5.560 -0.2143 -0.4123 -0.0137
  228MOL0     H31429   7.416   4.667   5.421  0.0745  2.4819 -2.5589
  228MOL0     H31430   7.306   4.879   5.475 -1.8894 -0.2883 -0.4978
  228MOL0     H31431   7.243   4.815   5.629 -1.5618  3.2069 -0.8077
  228MOL0     H31432   7.452   4.937   5.640 -3.1043 -0.1623 -0.3224
  228MOL0     H31433   7.532   4.815   5.549  1.4230  1.8740  0.1783
  228MOL0     H31434   7.471   4.645   5.743  0.9401  0.4533 -0.4457
  228MOL0     H31435   7.395   4.784   5.827 -0.0692  1.3144 -1.1894
  228MOL0     H31436   7.675   4.742   5.742 -1.6506 -0.1158 -1.8011
  228MOL0     H31437   7.626   4.877   5.860  1.2171  0.4180 -1.4661
  228MOL0     H31438   7.645   4.579   5.933  0.6193 -0.5491  3.1286
  228MOL0     H31439   7.554   4.705   6.019  0.0496  2.5853 -2.4748
  228MOL0     H31440   7.782   4.826   6.031 -2.7709  1.2333  1.1576
  228MOL0     H31441   7.851   4.694   5.931  0.3275  1.3585 -1.3288
  228MOL0     H31442   7.895   4.639   6.171 -0.3794  1.5984 -0.7764
  228MOL0     H31443   7.801   4.521   6.084 -2.9133 -0.2006 -0.6693
  228MOL0     H31444   7.110   4.668   5.646  0.9831 -1.4255 -0.2662
  228MOL0     H31445   6.907   4.569   5.714  3.2941  3.1910  1.4553
  228MOL0     H31446   6.597   4.278   5.370 -0.7573 -1.8273 -1.0767
  228MOL0     H31447   6.433   4.163   5.298 -1.0149 -0.1011 -1.8992
  228MOL0     H31448   6.122   2.936   4.811 -2.1036 -0.3778  0.0046
  228MOL0     H31449   6.080   2.856   4.592  0.4972 -1.4370 -2.1794
  228MOL0     H31450   6.262   2.533   4.267  0.2242  3.4408  1.5385
  228MOL0     H31451   6.249   2.473   4.049  0.3476 -1.9316  0.5023
  228MOL0     H31452   6.193   2.284   3.931  0.9386 -0.5543 -0.3780
  228MOL0     H31453   6.066   2.243   3.817 -2.1468  1.9957 -0.8702
  228MOL0     H31454   6.291   2.375   3.728  2.0607  0.1011  4.2985
  228MOL0     H31455   6.224   2.504   3.818 -1.6496  1.2589 -1.9019
  228MOL0     H31456   6.091   2.363   3.583  3.1031  0.6118 -0.1399
  228MOL0     H31457   6.018   2.499   3.673  0.6409  1.2668  1.1575
  228MOL0     H31458   6.189   2.655   3.578 -4.1331  1.5430 -1.0609
  228MOL0     H31459   6.099   2.563   3.463 -0.0189  2.3316  0.9373
  228MOL0     H31460   6.498   2.450   3.392 -0.4497  1.1441  1.7047
  228MOL0     H31461   5.813   2.487   4.067 -1.9148  3.5462  2.3780
  228MOL0     H31462   5.800   2.697   4.375  0.3298 -0.1420  1.1296
  228MOL0     H31463   5.728   2.661   4.224  0.2354  0.4542  0.3056
  228MOL0     H31464   5.741   2.537   4.354  2.0561 -0.0199  1.4112
  229MOL0     O31465   8.922   2.375   3.557  0.3339 -0.3470 -0.0797
  229MOL0     C31466   8.976   2.315   3.464 -0.3874 -1.4218  0.1974
  229MOL0     O31467   8.932   2.205   3.394  0.8366 -0.3259 -0.1561
  229MOL0     C31468   8.808   2.143   3.420  0.7202  0.0006 -0.8076
  229MOL0     C31469   8.739   2.082   3.315  0.3240 -0.2842  0.4452
  229MOL0     C31470   8.620   2.011   3.333 -0.4486 -0.0963  1.4845
  229MOL0     C31471   8.562   2.008   3.463  0.9991 -0.5852  0.9326
  229MOL0     O31472   8.447   1.945   3.503  0.4727  0.0604  0.7530
  229MOL0     C31473   8.410   1.832   3.409 -0.2953 -0.0164 -0.1082
  229MOL0     C31474   8.282   1.879   3.317 -0.2136 -0.8862 -0.2850
  229MOL0     C31475   8.320   1.991   3.213 -0.3870  0.5869 -0.6413
  229MOL0     C31476   8.190   2.052   3.172 -0.1522  0.8026 -0.0137
  229MOL0     C31477   8.202   2.117   3.031 -0.6634 -0.5717 -0.6800
  229MOL0     C31478   8.313   2.230   3.010 -0.1871 -0.2624  0.6077
  229MOL0     C31479   8.327   2.281   2.869  0.0969  0.0591 -0.0136
  229MOL0     C31480   8.305   2.428   2.859 -0.5429  0.3636  0.9516
  229MOL0     N31481   8.363   2.481   2.730  0.1659 -0.3209 -0.0805
  229MOL0     C31482   8.294   2.476   2.610 -0.1306  0.7800 -0.3906
  229MOL0     C31483   8.378   2.544   2.527  0.0835  0.2881  0.8623
  229MOL0     C31484   8.357   2.578   2.380 -1.1676 -0.4638  0.6636
  229MOL0     C31485   8.412   2.718   2.338  0.0413 -0.4452 -0.4061
  229MOL0     C31486   8.415   2.736   2.179  0.1726  0.6179  0.1890
  229MOL0     C31487   8.413   2.880   2.153  0.1416  0.6037  0.5633
  229MOL0     O31488   8.294   2.947   2.193  0.2437  0.4527  0.1310
  229MOL0     C31489   8.282   3.086   2.187 -1.2078  0.1410 -0.7671
  229MOL0     C31490   8.170   3.142   2.247  0.0385 -0.0693  0.4588
  229MOL0     C31491   8.142   3.278   2.255  0.5891 -0.3681  0.4957
  229MOL0     C31492   8.022   3.327   2.333  0.9811 -0.1324  0.2151
  229MOL0     C31493   8.233   3.359   2.185  0.1759  0.6527 -0.0961
  229MOL0     C31494   8.215   3.502   2.160 -0.3251  0.0042  0.3904
  229MOL0     O31495   8.310   3.565   2.077  0.3331  0.2495 -0.2820
  229MOL0     C31496   8.300   3.697   2.068  0.3082  0.1671  0.0552
  229MOL0     C31497   8.269   3.764   1.948 -0.3147  1.1541  0.1473
  229MOL0     C31498   8.259   3.902   1.931  0.4038  0.6110 -0.1280
  229MOL0     C31499   8.263   3.981   2.047  0.7126  0.6733 -1.6089
  229MOL0     O31500   8.239   4.116   2.037  0.6319 -0.0818  0.2958
  229MOL0     C31501   8.129   4.154   1.951 -0.5584 -0.7375  0.1076
  229MOL0     C31502   8.058   4.288   1.989 -0.8631 -1.3735  0.5546
  229MOL0     C31503   8.144   4.409   1.975 -0.2178 -0.1534  0.6147
  229MOL0     C31504   8.062   4.532   1.945 -0.5379  0.6736 -0.1872
  229MOL0     C31505   8.152   4.647   1.909  0.9309 -0.4858 -0.8084
  229MOL0     C31506   8.077   4.778   1.941 -0.8635  0.5918 -0.4465
  229MOL0     C31507   8.093   4.816   2.088  0.6040  0.5251 -0.3756
  229MOL0     C31508   8.024   4.946   2.118 -0.3937 -0.9208 -0.0112
  229MOL0    Cl31509   7.858   4.939   2.099  0.2649 -0.4536 -0.2738
  229MOL0     C31510   8.303   3.922   2.167  0.0478 -0.7058 -1.0053
  229MOL0     C31511   8.329   3.778   2.181  0.3446 -0.9251  0.1216
  229MOL0     O31512   8.120   3.564   2.208 -0.1514 -0.1046 -0.1954
  229MOL0     C31513   8.348   3.308   2.122 -0.9665  0.0007 -0.5767
  229MOL0     C31514   8.368   3.175   2.126 -1.0315 -0.9993  0.4622
  229MOL0     N31515   8.500   2.561   2.584 -0.2686  0.5484 -0.3961
  229MOL0     N31516   8.491   2.524   2.706  0.4316  0.6705 -0.9368
  229MOL0     C31517   8.628   2.082   3.566  0.2492  0.0021 -0.5675
  229MOL0     C31518   8.747   2.142   3.543 -0.1294  0.3397 -0.5105
  229MOL0     C31519   9.124   2.359   3.442  0.0907 -0.5209 -0.0761
  229MOL0     C31520   9.222   2.253   3.424  0.2455 -0.5303  0.8673
  229MOL0     C31521   9.351   2.275   3.371  0.4474  0.0866 -0.6345
  229MOL0     C31522   9.390   2.405   3.331  0.8971  0.5527 -0.3765
  229MOL0     O31523   9.518   2.419   3.286  0.2595  0.0375  0.0677
  229MOL0     C31524   9.575   2.545   3.289  0.0766  0.4224 -0.4153
  229MOL0     C31525   9.627   2.583   3.422 -0.5141  1.0712 -0.1998
  229MOL0     C31526   9.704   2.716   3.413 -0.3791 -0.4973 -0.2349
  229MOL0     C31527   9.859   2.689   3.390 -0.2121 -0.3339  0.7049
  229MOL0     C31528   9.938   2.814   3.373  0.8566 -0.5399  0.3059
  229MOL0     C31529   9.978   2.931   3.363 -1.2260 -0.5388  0.5641
  229MOL0     C31530   9.296   2.509   3.351 -1.1291  0.8718  1.0846
  229MOL0     C31531   9.164   2.488   3.401 -0.3625  1.2470 -0.8307
  229MOL0     C31532   9.074   2.604   3.397 -0.5079 -0.0381  0.0153
  229MOL0     H31533   8.793   2.082   3.220  1.6139  1.5700  1.1062
  229MOL0     H31534   8.581   1.967   3.242 -1.0745  2.1269  0.6138
  229MOL0     H31535   8.357   1.754   3.465 -2.3563  0.2716 -1.5371
  229MOL0     H31536   8.493   1.787   3.354  0.4329 -0.6723  1.4737
  229MOL0     H31537   8.233   1.791   3.273 -0.8211  0.7693 -3.2137
  229MOL0     H31538   8.206   1.905   3.391 -0.2573 -3.2084  0.5906
  229MOL0     H31539   8.394   2.064   3.247  0.4785 -1.2678  1.7156
  229MOL0     H31540   8.369   1.944   3.127  1.1011 -1.2001  1.0963
  229MOL0     H31541   8.113   1.975   3.172  0.9571 -0.3383  0.5622
  229MOL0     H31542   8.160   2.134   3.238 -0.9902  1.7202 -1.4794
  229MOL0     H31543   8.107   2.155   2.994 -2.0773 -0.8552  2.3481
  229MOL0     H31544   8.225   2.036   2.960 -0.8001  0.1217 -1.5322
  229MOL0     H31545   8.294   2.312   3.080 -0.6155 -0.0391  0.2399
  229MOL0     H31546   8.410   2.198   3.049 -0.8445 -0.6454  2.0143
  229MOL0     H31547   8.257   2.233   2.800  1.0054 -0.6041 -0.4956
  229MOL0     H31548   8.424   2.255   2.827  0.7219 -1.0044  1.9533
  229MOL0     H31549   8.198   2.452   2.857 -1.4394 -3.1346 -0.9501
  229MOL0     H31550   8.362   2.469   2.943  1.4183  0.0409 -0.1613
  229MOL0     H31551   8.189   2.455   2.591  0.5381 -4.6672  0.1662
  229MOL0     H31552   8.252   2.567   2.353 -1.0812 -1.8528  0.8018
  229MOL0     H31553   8.409   2.498   2.327  1.2327  0.4566  1.4796
  229MOL0     H31554   8.347   2.794   2.381  1.8250  2.4257 -2.3806
  229MOL0     H31555   8.503   2.749   2.391 -0.3097  1.0382 -0.6215
  229MOL0     H31556   8.509   2.702   2.135 -0.6251  0.4210 -1.4470
  229MOL0     H31557   8.349   2.668   2.125  1.5204  1.4900 -2.7389
  229MOL0     H31558   8.502   2.929   2.194  0.0407 -0.6114  2.3563
  229MOL0     H31559   8.421   2.881   2.044 -0.3681 -0.8429  0.4979
  229MOL0     H31560   8.108   3.069   2.297 -1.8027  0.1044 -1.4125
  229MOL0     H31561   7.937   3.358   2.272  0.2518 -2.8926 -0.3208
  229MOL0     H31562   8.054   3.415   2.389  0.5073  0.9031 -1.0804
  229MOL0     H31563   7.981   3.247   2.395 -1.1849  0.9366  0.2424
  229MOL0     H31564   8.262   3.694   1.866 -2.1991 -2.2508  2.9255
  229MOL0     H31565   8.227   3.949   1.839  1.7801  0.4260 -0.7224
  229MOL0     H31566   8.178   4.161   1.854 -1.7398  0.1335 -0.4515
  229MOL0     H31567   8.052   4.077   1.941  0.5752 -1.8674 -0.2274
  229MOL0     H31568   7.965   4.293   1.932 -0.0132 -0.3019 -0.8035
  229MOL0     H31569   8.031   4.291   2.095  1.9536  2.5006  1.3914
  229MOL0     H31570   8.205   4.396   1.885 -1.9860 -0.3978 -0.5938
  229MOL0     H31571   8.209   4.425   2.062 -0.6186  1.0042  0.7129
  229MOL0     H31572   8.003   4.555   2.033 -1.1361  0.9344 -0.6497
  229MOL0     H31573   7.990   4.527   1.862 -2.0173 -1.5594  1.1061
  229MOL0     H31574   8.245   4.655   1.965  2.0153  1.2797 -2.6998
  229MOL0     H31575   8.185   4.643   1.804  0.7070 -0.1143 -0.8943
  229MOL0     H31576   7.975   4.763   1.903 -1.2015 -0.5185  0.8605
  229MOL0     H31577   8.128   4.857   1.884  2.0550 -0.4137  0.5864
  229MOL0     H31578   8.201   4.823   2.104  0.6315  1.9408 -1.0379
  229MOL0     H31579   8.055   4.728   2.141  2.6424 -0.8613 -1.0848
  229MOL0     H31580   8.080   5.006   2.046  0.5272 -0.4966  1.0209
  229MOL0     H31581   8.042   4.979   2.221 -1.7874  4.6554 -1.2533
  229MOL0     H31582   8.310   4.000   2.242 -2.3376 -1.9087  0.5843
  229MOL0     H31583   8.342   3.735   2.280 -2.0531  1.7869  1.7460
  229MOL0     H31584   8.429   3.357   2.070 -2.1452  3.0198  0.2242
  229MOL0     H31585   8.457   3.136   2.077  0.5366  4.1880 -1.4277
  229MOL0     H31586   8.585   2.093   3.665  2.7205  1.0374  0.4612
  229MOL0     H31587   8.780   2.208   3.622  0.0657 -0.1842 -0.1547
  229MOL0     H31588   9.200   2.147   3.422  0.8006 -0.6461 -0.2723
  229MOL0     H31589   9.419   2.190   3.363  3.5964  2.1019  2.1601
  229MOL0     H31590   9.668   2.536   3.233  0.4873 -0.1401  0.3325
  229MOL0     H31591   9.509   2.617   3.241  0.4294  0.8311 -0.2932
  229MOL0     H31592   9.693   2.501   3.452  0.3347 -0.0424 -4.4620
  229MOL0     H31593   9.549   2.597   3.497 -0.2648  1.6414 -0.0414
  229MOL0     H31594   9.662   2.791   3.345  0.4177  1.1186  1.0081
  229MOL0     H31595   9.691   2.767   3.508  1.5250  0.7104 -0.5681
  229MOL0     H31596   9.868   2.633   3.297 -0.2622  0.3995  0.2558
  229MOL0     H31597   9.898   2.626   3.470  1.2641 -1.7191 -1.0226
  229MOL0     H31598  10.015   3.031   3.360  1.4206 -1.4641 -1.5280
  229MOL0     H31599   9.331   2.611   3.339  0.4466  0.5565  2.5819
  229MOL0     H31600   9.080   2.663   3.488  0.0372 -0.5767  0.3361
  229MOL0     H31601   9.105   2.672   3.317 -0.6081  0.4420  0.3854
  229MOL0     H31602   8.976   2.559   3.380  0.1077 -1.8952  1.0907
  230MOL0     O31603   0.828   2.569   0.631 -0.2897  0.5099 -0.7753
  230MOL0     C31604   0.729   2.636   0.620  0.2601 -0.0650  1.1288
  230MOL0     O31605   0.701   2.750   0.692 -0.2912 -0.0879  0.4360
  230MOL0     C31606   0.784   2.789   0.798 -0.1242  0.1282 -0.0796
  230MOL0     C31607   0.718   2.825   0.919 -0.2992 -1.1384  0.1633
  230MOL0     C31608   0.791   2.902   1.017  0.6944  0.3171 -0.5851
  230MOL0     C31609   0.924   2.919   0.999  0.0813  0.3721  0.2384
  230MOL0     O31610   0.982   3.005   1.091 -0.0902  0.3484  0.2890
  230MOL0     C31611   1.101   2.967   1.158 -0.6920 -0.0475  0.6637
  230MOL0     C31612   1.131   3.031   1.298  0.6079  0.3395  0.3237
  230MOL0     C31613   1.120   3.183   1.292 -0.5985  0.5264  0.0757
  230MOL0     C31614   1.155   3.253   1.420  0.2900 -0.4846 -0.5914
  230MOL0     C31615   1.304   3.266   1.443  0.2581 -0.4334 -1.1299
  230MOL0     C31616   1.349   3.356   1.561  0.7071 -1.6896  0.0063
  230MOL0     C31617   1.494   3.328   1.603  0.6800  0.0113 -0.1572
  230MOL0     C31618   1.585   3.416   1.519  0.3010 -0.6697 -1.2683
  230MOL0     N31619   1.721   3.393   1.571 -0.2901  0.8223  0.4847
  230MOL0     C31620   1.799   3.476   1.633  0.1642  0.2919 -0.4178
  230MOL0     C31621   1.900   3.406   1.680 -0.0379  0.3738 -0.1083
  230MOL0     C31622   2.012   3.480   1.760 -0.3331 -0.3932  0.2310
  230MOL0     C31623   2.146   3.413   1.735  0.6307 -0.0468 -0.2773
  230MOL0     C31624   2.199   3.404   1.594  0.9058  0.5526 -0.6538
  230MOL0     C31625   2.311   3.308   1.601 -0.0634  0.0326  0.5038
  230MOL0     O31626   2.379   3.301   1.476 -0.7156 -0.4470 -0.2780
  230MOL0     C31627   2.323   3.227   1.369 -0.6609 -0.6914  0.2456
  230MOL0     C31628   2.402   3.227   1.253  0.2447 -0.6500 -0.6787
  230MOL0     C31629   2.358   3.167   1.131 -0.0716  0.6716 -0.0046
  230MOL0     C31630   2.445   3.192   1.004 -0.3735  0.2960 -0.7538
  230MOL0     C31631   2.243   3.082   1.132 -0.0675  0.8260 -0.4125
  230MOL0     C31632   2.196   3.011   1.012  0.3884  0.7389 -0.9495
  230MOL0     O31633   2.082   2.944   1.029  0.6075  0.5640 -0.5780
  230MOL0     C31634   2.019   2.871   0.927 -0.6124 -0.4524 -0.2568
  230MOL0     C31635   2.021   2.911   0.795 -1.0816  0.1808 -0.3962
  230MOL0     C31636   1.959   2.822   0.703  0.3571 -0.3094 -0.1745
  230MOL0     C31637   1.880   2.710   0.752 -0.7030  0.0812 -0.0372
  230MOL0     O31638   1.802   2.622   0.683  0.2989 -0.2829 -0.8373
  230MOL0     C31639   1.713   2.675   0.586  0.4737  0.8041  0.3118
  230MOL0     C31640   1.626   2.556   0.523  1.1858 -0.3558 -0.4933
  230MOL0     C31641   1.527   2.509   0.623 -0.4574  1.6344  0.1933
  230MOL0     C31642   1.393   2.582   0.625  0.1184 -0.3957  0.1901
  230MOL0     C31643   1.310   2.550   0.748  0.8414  0.7906  0.0170
  230MOL0     C31644   1.159   2.533   0.718 -0.4888  1.8833 -0.4824
  230MOL0     C31645   1.132   2.398   0.645  0.7108  0.5656  0.4000
  230MOL0     C31646   1.124   2.287   0.756 -0.5870 -0.0161 -0.6828
  230MOL0    Cl31647   1.121   2.135   0.668  0.1412  0.0917  0.6139
  230MOL0     C31648   1.890   2.678   0.884  0.4746  0.7423 -0.2080
  230MOL0     C31649   1.960   2.758   0.971  0.2520 -0.7539  0.6431
  230MOL0     O31650   2.254   3.015   0.911 -0.3603  0.0596 -0.7017
  230MOL0     C31651   2.177   3.078   1.256 -0.3611 -0.4488 -0.3963
  230MOL0     C31652   2.213   3.147   1.373 -0.7594  0.4480 -0.4150
  230MOL0     N31653   1.898   3.284   1.619 -0.3717  0.1879  0.0293
  230MOL0     N31654   1.778   3.267   1.575 -0.3267  0.2518  1.2332
  230MOL0     C31655   0.992   2.866   0.890 -0.3701 -0.4337 -0.2219
  230MOL0     C31656   0.922   2.800   0.786 -0.7265 -0.3911  0.8985
  230MOL0     C31657   0.625   2.599   0.520 -0.6076  0.1413  0.0148
  230MOL0     C31658   0.494   2.633   0.553 -0.5300  0.5438 -0.1224
  230MOL0     C31659   0.383   2.599   0.473 -0.4716  0.1779 -0.0835
  230MOL0     C31660   0.396   2.522   0.356 -0.0377  0.5024 -0.6623
  230MOL0     O31661   0.293   2.493   0.269  0.0574 -0.1326 -0.3157
  230MOL0     C31662   0.248   2.355   0.267  0.2848  0.0617  0.3681
  230MOL0     C31663   0.125   2.331   0.189  0.0319  0.5194 -0.0520
  230MOL0     C31664   0.156   2.361   0.045 -0.1741 -0.8648 -0.5725
  230MOL0     C31665   0.031   2.338  -0.049  0.1990 -0.0492 -0.1508
  230MOL0     C31666   0.015   2.206  -0.111 -1.3435 -0.7789 -0.0785
  230MOL0     C31667  -0.017   2.100  -0.158 -0.7383  0.5453 -0.6019
  230MOL0     C31668   0.526   2.469   0.336 -0.3619 -0.3091  0.8542
  230MOL0     C31669   0.632   2.514   0.412  0.0948  0.0357  0.5749
  230MOL0     C31670   0.764   2.466   0.368  0.4383 -0.4991 -0.1048
  230MOL0     H31671   0.611   2.814   0.931 -0.2915  0.4071  2.1965
  230MOL0     H31672   0.753   2.943   1.110 -0.5800 -1.5437 -0.2295
  230MOL0     H31673   1.184   2.999   1.095 -1.0499  2.1161  1.1810
  230MOL0     H31674   1.097   2.860   1.177  0.1506 -0.8828 -3.0666
  230MOL0     H31675   1.060   2.998   1.375 -1.1899  1.5978 -0.7316
  230MOL0     H31676   1.232   3.002   1.330 -0.2608 -0.4809  2.5453
  230MOL0     H31677   1.192   3.217   1.218 -2.3431  2.1081 -0.9868
  230MOL0     H31678   1.023   3.218   1.256  0.0789  0.3670 -2.0423
  230MOL0     H31679   1.119   3.356   1.425  1.4383  0.0223 -1.9294
  230MOL0     H31680   1.120   3.192   1.504  0.9158  0.2854  0.2601
  230MOL0     H31681   1.359   3.302   1.356  1.2193  0.1229 -0.3158
  230MOL0     H31682   1.332   3.162   1.463 -1.0117 -0.4456  0.8384
  230MOL0     H31683   1.324   3.460   1.536 -0.4107 -1.9554 -0.0328
  230MOL0     H31684   1.276   3.330   1.638 -1.1290  1.4768 -0.4850
  230MOL0     H31685   1.509   3.219   1.606 -1.8150 -0.3761  1.4783
  230MOL0     H31686   1.507   3.370   1.703  0.2833 -0.6062  0.1628
  230MOL0     H31687   1.586   3.382   1.415 -0.9624 -0.6059 -1.3158
  230MOL0     H31688   1.559   3.522   1.514  0.1493 -0.6747 -0.7087
  230MOL0     H31689   1.782   3.579   1.664  0.1343 -0.2939  1.6718
  230MOL0     H31690   1.989   3.485   1.867  3.0891  3.0825  1.0367
  230MOL0     H31691   2.012   3.587   1.736 -2.7663 -0.6691 -1.3089
  230MOL0     H31692   2.224   3.453   1.799 -0.2681 -1.7436  2.0051
  230MOL0     H31693   2.132   3.311   1.771 -4.5022  0.7307  0.7530
  230MOL0     H31694   2.115   3.361   1.538  1.9576  2.2808 -3.7665
  230MOL0     H31695   2.222   3.503   1.553  1.4455  1.6251  2.0178
  230MOL0     H31696   2.387   3.327   1.678 -2.1108  1.8792  2.2053
  230MOL0     H31697   2.280   3.206   1.622 -0.9769 -0.4158 -2.5226
  230MOL0     H31698   2.496   3.280   1.248  0.8515 -1.4994  1.1586
  230MOL0     H31699   2.515   3.271   1.031 -2.6341  3.4274 -3.3697
  230MOL0     H31700   2.381   3.229   0.924  1.6391  0.7391 -2.2185
  230MOL0     H31701   2.494   3.102   0.965  0.9584  1.1597 -1.1269
  230MOL0     H31702   2.065   3.003   0.759 -0.7669 -0.6820 -2.3507
  230MOL0     H31703   1.958   2.847   0.597  4.1421  1.0150 -0.0345
  230MOL0     H31704   1.647   2.742   0.642 -0.9845 -0.1477 -0.1920
  230MOL0     H31705   1.756   2.731   0.503 -2.2388  3.1570  0.3546
  230MOL0     H31706   1.576   2.598   0.435 -3.2162  0.5651  2.1512
  230MOL0     H31707   1.691   2.478   0.482  0.7504 -1.3551  0.6499
  230MOL0     H31708   1.577   2.511   0.721 -3.3900 -0.4354  1.9042
  230MOL0     H31709   1.501   2.406   0.596 -0.6810  1.6079  0.5027
  230MOL0     H31710   1.335   2.564   0.534 -3.5645  0.7900  2.0729
  230MOL0     H31711   1.409   2.690   0.625 -1.0768 -0.1888  1.6379
  230MOL0     H31712   1.355   2.459   0.791  1.8926  1.6470  0.7764
  230MOL0     H31713   1.331   2.627   0.823  2.0252 -2.0736  2.8735
  230MOL0     H31714   1.143   2.613   0.645 -1.7659 -1.2475 -3.9760
  230MOL0     H31715   1.106   2.531   0.814  3.3320 -2.4788  1.9193
  230MOL0     H31716   1.200   2.359   0.569  2.6528  0.3944  2.1429
  230MOL0     H31717   1.031   2.399   0.602  1.6822 -0.3047 -2.0371
  230MOL0     H31718   1.035   2.306   0.818 -0.5642  2.1039 -1.2127
  230MOL0     H31719   1.210   2.297   0.823 -2.8831 -0.1776  2.5841
  230MOL0     H31720   1.844   2.589   0.924  0.1340  0.4477 -1.2269
  230MOL0     H31721   1.982   2.721   1.071 -1.0957 -3.8911 -0.1105
  230MOL0     H31722   2.093   3.010   1.266  2.3861 -3.7800  2.5243
  230MOL0     H31723   2.161   3.124   1.466 -2.1764 -3.6839 -1.9973
  230MOL0     H31724   1.098   2.890   0.885 -0.0532 -1.4445  1.1900
  230MOL0     H31725   0.972   2.770   0.695 -2.8882 -0.2875 -0.4039
  230MOL0     H31726   0.473   2.692   0.642  1.0286 -2.0908  2.1685
  230MOL0     H31727   0.282   2.622   0.507 -0.3376  3.0460 -1.3629
  230MOL0     H31728   0.324   2.282   0.235 -0.8810 -0.6456 -0.9569
  230MOL0     H31729   0.214   2.332   0.368 -0.5691  2.2664  0.6226
  230MOL0     H31730   0.043   2.393   0.227 -0.3418 -0.2870  0.4832
  230MOL0     H31731   0.091   2.228   0.194  1.2043  0.1661  0.7413
  230MOL0     H31732   0.190   2.463   0.026 -0.7007 -1.2466 -4.2715
  230MOL0     H31733   0.234   2.294   0.008  2.1951  1.4459 -0.0434
  230MOL0     H31734   0.026   2.423  -0.117 -3.3104  0.6760  0.8447
  230MOL0     H31735  -0.057   2.346   0.015 -0.3601 -0.0620 -0.9061
  230MOL0     H31736  -0.035   2.001  -0.194  3.1111  0.1877 -1.9939
  230MOL0     H31737   0.539   2.406   0.248  5.2733 -1.7027  2.2290
  230MOL0     H31738   0.817   2.538   0.305 -0.2129  0.0285 -0.0522
  230MOL0     H31739   0.834   2.435   0.446 -2.1139 -1.7139  1.8297
  230MOL0     H31740   0.744   2.388   0.294 -2.3826 -0.0254  0.0465
  231MOL0     O31741   4.110   4.851   3.798  0.5902  0.1798  0.3127
  231MOL0     C31742   4.153   4.902   3.905  0.1142 -0.1096 -0.2354
  231MOL0     O31743   4.174   4.834   4.025  0.6696  0.2623  0.0069
  231MOL0     C31744   4.118   4.709   4.015  0.1565  0.7848 -0.0943
  231MOL0     C31745   4.193   4.596   3.989 -0.5942  0.1125 -0.6834
  231MOL0     C31746   4.138   4.465   3.979  0.6903 -0.3504 -0.0689
  231MOL0     C31747   4.001   4.459   4.001  0.4876 -0.5419  0.3815
  231MOL0     O31748   3.938   4.336   3.986 -0.3542  0.1410  0.0668
  231MOL0     C31749   3.797   4.331   3.998 -0.2927 -0.2623  0.1987
  231MOL0     C31750   3.758   4.188   3.999  0.2403 -0.2345  0.5165
  231MOL0     C31751   3.608   4.173   4.036 -0.2065  0.2883 -0.4896
  231MOL0     C31752   3.568   4.030   4.073 -0.6777  0.5125  0.2881
  231MOL0     C31753   3.415   4.012   4.045 -0.2307  0.2078  0.1718
  231MOL0     C31754   3.371   3.868   4.050 -0.5016  0.2368  1.1351
  231MOL0     C31755   3.224   3.843   4.059  0.0521  0.8556  0.7739
  231MOL0     C31756   3.186   3.700   4.076 -0.6974 -0.1175 -0.3865
  231MOL0     N31757   3.252   3.603   3.995 -0.0174  0.3156 -0.2048
  231MOL0     C31758   3.198   3.551   3.884 -0.5917 -0.3915 -0.6471
  231MOL0     C31759   3.277   3.443   3.849 -0.0865  0.1565 -0.6742
  231MOL0     C31760   3.276   3.355   3.725 -0.3953 -0.6808  0.2554
  231MOL0     C31761   3.387   3.399   3.633  0.1614  0.1159 -1.0481
  231MOL0     C31762   3.384   3.301   3.510  0.4157 -1.1009 -0.6547
  231MOL0     C31763   3.487   3.341   3.405 -0.4843 -0.3816 -0.0867
  231MOL0     O31764   3.441   3.319   3.273 -0.4605  0.1495 -1.1336
  231MOL0     C31765   3.527   3.360   3.172 -0.9778  0.7613  0.5569
  231MOL0     C31766   3.656   3.424   3.190 -0.6577  0.2620  1.4053
  231MOL0     C31767   3.752   3.452   3.088 -0.0648  0.6017 -0.3775
  231MOL0     C31768   3.890   3.515   3.117  0.7927 -0.0149 -0.0267
  231MOL0     C31769   3.710   3.427   2.957 -0.4398 -0.1234 -0.3859
  231MOL0     C31770   3.804   3.453   2.840  0.1115 -0.2572  0.5879
  231MOL0     O31771   3.788   3.352   2.746 -0.0469  0.1046  0.2348
  231MOL0     C31772   3.865   3.352   2.638 -0.5847  0.0584 -0.4599
  231MOL0     C31773   3.842   3.455   2.543 -0.1346 -0.0770 -0.3188
  231MOL0     C31774   3.909   3.445   2.416  0.4642  1.0939 -0.1876
  231MOL0     C31775   4.004   3.342   2.384  0.7122 -0.0029  0.2432
  231MOL0     O31776   4.058   3.340   2.263 -0.4831  0.1541 -0.7311
  231MOL0     C31777   4.016   3.236   2.189  0.6515  0.0881 -0.7158
  231MOL0     C31778   3.876   3.265   2.134  0.1558 -0.7660  0.6911
  231MOL0     C31779   3.862   3.405   2.057  0.4899  0.5870  0.0333
  231MOL0     C31780   3.728   3.427   1.986  0.0848  0.5751  0.1074
  231MOL0     C31781   3.730   3.572   1.923 -0.6644  0.0134  0.6330
  231MOL0     C31782   3.588   3.617   1.897  0.6840  1.0427  0.1661
  231MOL0     C31783   3.597   3.757   1.845 -1.5606 -0.4213  0.2783
  231MOL0     C31784   3.458   3.833   1.842 -0.6123 -0.1954  0.6922
  231MOL0    Cl31785   3.490   4.000   1.799 -0.5727  0.1867 -0.2963
  231MOL0     C31786   4.016   3.240   2.486  0.1761 -0.8402  1.1575
  231MOL0     C31787   3.948   3.241   2.604 -0.7945 -0.2852 -0.3265
  231MOL0     O31788   3.883   3.546   2.832 -0.2434  0.6299  0.4103
  231MOL0     C31789   3.593   3.357   2.933 -0.1330 -0.1012  0.2075
  231MOL0     C31790   3.502   3.328   3.039  0.6890  0.0618 -0.5478
  231MOL0     N31791   3.378   3.423   3.946  0.7180 -0.8771  0.2203
  231MOL0     N31792   3.360   3.526   4.029  0.2716  0.4589 -0.0104
  231MOL0     C31793   3.924   4.571   4.016  0.3915  0.6498 -0.7516
  231MOL0     C31794   3.980   4.688   4.023  0.6842 -0.6714 -0.1251
  231MOL0     C31795   4.181   5.038   3.910 -0.0300  0.3014 -0.2471
  231MOL0     C31796   4.297   5.080   3.843  0.4107 -0.3725  1.0531
  231MOL0     C31797   4.327   5.216   3.840 -0.5621 -0.4837  0.5053
  231MOL0     C31798   4.240   5.311   3.889 -0.7001 -1.2477  0.3428
  231MOL0     O31799   4.280   5.446   3.889  0.1384 -0.1695 -0.1359
  231MOL0     C31800   4.204   5.545   3.962  0.9314  0.1549  0.5041
  231MOL0     C31801   4.271   5.684   3.959 -1.0067  0.7867  0.3987
  231MOL0     C31802   4.180   5.798   3.940 -0.7531  0.5467 -0.4466
  231MOL0     C31803   4.245   5.933   3.930 -0.4807 -0.3463  0.6481
  231MOL0     C31804   4.333   5.959   4.044 -0.3338 -0.1664 -0.2568
  231MOL0     C31805   4.401   5.987   4.131 -1.0189 -1.7861  0.1908
  231MOL0     C31806   4.130   5.265   3.957 -0.6862 -0.4023 -1.6220
  231MOL0     C31807   4.093   5.126   3.965 -0.9017 -0.6663  0.1535
  231MOL0     C31808   3.968   5.086   4.039 -0.4001  0.3555  0.6458
  231MOL0     H31809   4.300   4.612   3.981 -0.7990  0.8464 -2.4930
  231MOL0     H31810   4.202   4.379   3.962 -1.5998 -2.0860 -0.3963
  231MOL0     H31811   3.751   4.373   3.908 -0.7018  0.9344  0.9380
  231MOL0     H31812   3.755   4.380   4.086 -0.2059  3.5199 -1.6765
  231MOL0     H31813   3.777   4.142   3.901 -1.1080  3.9598 -1.9651
  231MOL0     H31814   3.805   4.135   4.082  0.0925  0.1886  0.8724
  231MOL0     H31815   3.595   4.231   4.128  3.4589  0.5666  0.0090
  231MOL0     H31816   3.544   4.212   3.956 -0.8359  2.5267  1.0163
  231MOL0     H31817   3.626   3.958   4.014 -0.6081  0.4680  0.4107
  231MOL0     H31818   3.595   4.006   4.176  0.8732  0.7949 -0.0300
  231MOL0     H31819   3.394   4.042   3.942  0.4599  0.9923  0.2519
  231MOL0     H31820   3.365   4.089   4.104  0.3545  1.9582 -1.5289
  231MOL0     H31821   3.408   3.803   3.970  0.4286  1.1135  0.8352
  231MOL0     H31822   3.422   3.823   4.136 -0.1831 -0.2121  0.7182
  231MOL0     H31823   3.189   3.872   3.960  1.2052  1.7469  0.6171
  231MOL0     H31824   3.175   3.902   4.137 -0.7468  1.1047  0.0992
  231MOL0     H31825   3.199   3.678   4.183  1.6181  0.8559 -0.4119
  231MOL0     H31826   3.081   3.680   4.051  0.2216 -0.3510 -4.8428
  231MOL0     H31827   3.130   3.598   3.814  0.0365  1.3037 -0.1849
  231MOL0     H31828   3.177   3.365   3.680 -0.7851 -0.3867  1.1560
  231MOL0     H31829   3.294   3.249   3.745 -0.6045 -0.7949 -0.1491
  231MOL0     H31830   3.376   3.501   3.596  1.5649  2.1950  3.5291
  231MOL0     H31831   3.481   3.385   3.688 -0.6445 -1.5008  0.0113
  231MOL0     H31832   3.408   3.200   3.545 -3.5367 -1.4502  1.7379
  231MOL0     H31833   3.279   3.306   3.478 -0.6011  1.3323  2.5049
  231MOL0     H31834   3.508   3.447   3.418  0.7963 -0.7798  1.3461
  231MOL0     H31835   3.575   3.278   3.423  0.3532  0.8503  0.2442
  231MOL0     H31836   3.679   3.455   3.292 -1.3810  0.3524  1.5441
  231MOL0     H31837   3.915   3.616   3.083  3.6899 -0.4259  0.5666
  231MOL0     H31838   3.969   3.447   3.082  0.8574  0.5491 -1.0131
  231MOL0     H31839   3.901   3.538   3.223  0.7401 -0.3219  0.0457
  231MOL0     H31840   3.753   3.515   2.551 -1.5354 -2.0680 -0.3260
  231MOL0     H31841   3.885   3.523   2.345 -1.7981  1.2650  0.6697
  231MOL0     H31842   4.084   3.213   2.106 -1.7425  0.9291 -3.0597
  231MOL0     H31843   4.005   3.142   2.244 -0.3041  0.3105 -0.5107
  231MOL0     H31844   3.850   3.183   2.067  0.3797  0.0694 -0.4446
  231MOL0     H31845   3.806   3.256   2.218  1.6815  1.1086  2.2553
  231MOL0     H31846   3.944   3.400   1.985 -0.8737  0.5702 -1.5770
  231MOL0     H31847   3.884   3.487   2.127 -2.0675  1.4681 -0.0847
  231MOL0     H31848   3.647   3.406   2.057 -0.9848 -1.9377 -1.6951
  231MOL0     H31849   3.698   3.355   1.909 -1.3302  0.0695  1.0854
  231MOL0     H31850   3.779   3.641   1.993 -2.9032  1.4095  0.9382
  231MOL0     H31851   3.790   3.567   1.831 -0.5164  0.8651  0.6707
  231MOL0     H31852   3.525   3.625   1.986 -3.7516 -1.2625 -2.4111
  231MOL0     H31853   3.533   3.561   1.821  0.3441  1.7860 -0.1485
  231MOL0     H31854   3.632   3.751   1.742  0.1295  0.4704  0.7699
  231MOL0     H31855   3.675   3.809   1.900 -1.5661 -0.6935  0.5470
  231MOL0     H31856   3.403   3.830   1.937  0.0874 -1.0357  1.0865
  231MOL0     H31857   3.410   3.788   1.755  0.7956 -2.6702  1.1070
  231MOL0     H31858   4.081   3.153   2.488  0.3672 -0.6925  2.5295
  231MOL0     H31859   3.964   3.164   2.679  0.0201 -0.7032 -0.9123
  231MOL0     H31860   3.571   3.332   2.829 -1.1358  2.5197 -0.2729
  231MOL0     H31861   3.409   3.282   3.007  0.3496 -0.3394  0.9197
  231MOL0     H31862   3.816   4.569   4.010  0.2757 -1.5522  0.8679
  231MOL0     H31863   3.921   4.778   4.031  1.1236 -0.3560 -0.3764
  231MOL0     H31864   4.363   5.012   3.790  0.3231 -0.1358  0.6374
  231MOL0     H31865   4.425   5.246   3.803 -0.9204  0.4338  0.2690
  231MOL0     H31866   4.107   5.554   3.913  2.0339  0.7486 -1.7372
  231MOL0     H31867   4.189   5.516   4.066 -4.3143  2.5009  0.6834
  231MOL0     H31868   4.340   5.683   3.874 -0.0412  0.8869  1.1633
  231MOL0     H31869   4.333   5.695   4.049  0.5781 -0.2848 -0.5093
  231MOL0     H31870   4.127   5.781   3.845 -2.2972  5.4784 -0.7250
  231MOL0     H31871   4.113   5.803   4.026  1.7530  0.4763  1.6429
  231MOL0     H31872   4.174   6.013   3.906 -1.7813 -1.2835  1.2430
  231MOL0     H31873   4.308   5.929   3.841 -3.9732  3.0058 -2.3871
  231MOL0     H31874   4.472   6.022   4.203 -1.4144 -2.0087  0.6961
  231MOL0     H31875   4.070   5.330   4.021  1.8028 -0.0782  0.5777
  231MOL0     H31876   3.975   5.007   4.115 -0.0464  0.6921  0.9626
  231MOL0     H31877   3.925   5.177   4.081 -1.0580  1.0595 -1.4161
  231MOL0     H31878   3.896   5.045   3.967 -1.3514 -0.0816  1.8036
  232MOL0     O31879   7.722   0.864   8.256  0.8703  0.2006  0.3967
  232MOL0     C31880   7.826   0.812   8.265  0.2846  0.3852 -0.6670
  232MOL0     O31881   7.911   0.826   8.361  0.2813  0.4373 -1.0051
  232MOL0     C31882   7.887   0.909   8.474  0.0940  0.0953  0.2170
  232MOL0     C31883   7.949   0.868   8.592 -0.5054  0.4676 -0.2692
  232MOL0     C31884   7.971   0.953   8.701  0.0109  0.5594 -0.1325
  232MOL0     C31885   7.910   1.079   8.708  0.3217  0.2945  0.0477
  232MOL0     O31886   7.939   1.171   8.802 -0.3217  0.1376  0.7340
  232MOL0     C31887   7.953   1.132   8.944 -0.7579  0.3014 -0.1616
  232MOL0     C31888   7.977   1.251   9.041  0.0314  0.4420  0.2396
  232MOL0     C31889   7.860   1.351   9.034 -0.0167 -0.8405 -0.4888
  232MOL0     C31890   7.843   1.436   9.160  0.1408  0.0515 -0.2471
  232MOL0     C31891   7.733   1.549   9.148  0.0526 -0.4546  0.2308
  232MOL0     C31892   7.583   1.493   9.127 -0.7965 -0.8777 -0.6097
  232MOL0     C31893   7.477   1.594   9.155  0.1693 -0.2596 -0.9745
  232MOL0     C31894   7.491   1.715   9.070 -0.0063 -0.1993  0.1429
  232MOL0     N31895   7.403   1.827   9.099  0.0757  0.0664  0.1559
  232MOL0     C31896   7.400   1.939   9.022  0.2941 -1.0034 -0.3507
  232MOL0     C31897   7.279   2.001   9.061 -0.1858  0.9728 -0.8015
  232MOL0     C31898   7.234   2.138   9.013 -0.2269 -0.5438 -0.1458
  232MOL0     C31899   7.088   2.151   8.978 -0.0578  0.5726  0.2434
  232MOL0     C31900   7.007   2.220   9.079 -0.2919  1.0786 -0.6322
  232MOL0     C31901   6.997   2.149   9.223 -0.2204 -0.0786  0.1829
  232MOL0     O31902   6.938   2.225   9.320  0.8243 -0.9432 -0.0202
  232MOL0     C31903   6.856   2.157   9.408  0.6966  0.8652  0.7406
  232MOL0     C31904   6.733   2.114   9.357 -0.4732 -0.1183  0.1105
  232MOL0     C31905   6.644   2.041   9.448  0.5084 -0.6255 -0.3768
  232MOL0     C31906   6.510   2.000   9.391 -0.2983 -0.3350  0.3362
  232MOL0     C31907   6.684   2.012   9.586 -0.4070 -0.6311  0.1139
  232MOL0     C31908   6.603   1.924   9.686 -0.2118  0.2614 -0.9307
  232MOL0     O31909   6.468   1.898   9.668 -0.2432 -1.1809  0.3767
  232MOL0     C31910   6.399   1.866   9.780  0.8078  0.3594  0.9839
  232MOL0     C31911   6.436   1.795   9.898 -0.9017 -1.3684  0.2581
  232MOL0     C31912   6.341   1.774   9.994 -0.1753  0.8720 -0.0301
  232MOL0     C31913   6.211   1.820   9.989 -0.2606 -0.1979 -0.2216
  232MOL0     O31914   6.122   1.802  10.092  0.9336  0.4646 -0.5440
  232MOL0     C31915   6.146   1.884  10.209 -0.2701  0.1925 -0.0850
  232MOL0     C31916   6.022   1.883  10.298 -1.2720 -0.5262  0.3688
  232MOL0     C31917   6.031   1.945  10.437  0.2921  0.0262  0.0430
  232MOL0     C31918   6.116   1.867  10.535  0.4525  1.0034  1.0468
  232MOL0     C31919   6.085   1.892  10.683  0.3150 -0.0163  0.9548
  232MOL0     C31920   6.171   1.808  10.769 -0.0185 -0.2080  0.5894
  232MOL0     C31921   6.151   1.839  10.913  0.6761  0.2140 -0.7015
  232MOL0     C31922   6.207   1.726  11.003  0.7473  0.3623  0.8246
  232MOL0    Cl31923   6.219   1.780  11.175  0.3805  0.1897 -0.1887
  232MOL0     C31924   6.167   1.882   9.877 -0.1291 -0.7766  0.2707
  232MOL0     C31925   6.266   1.902   9.774  0.5857 -0.2368  0.1781
  232MOL0     O31926   6.671   1.889   9.783  0.1945  1.0210  0.0746
  232MOL0     C31927   6.815   2.061   9.619  0.2150  0.5175  0.2036
  232MOL0     C31928   6.891   2.132   9.530 -0.6810  1.0659  1.0375
  232MOL0     N31929   7.233   1.933   9.174  0.2080 -0.0713  0.0018
  232MOL0     N31930   7.304   1.828   9.187 -0.2555 -0.6302  0.6057
  232MOL0     C31931   7.848   1.124   8.587 -0.3453  0.2966 -0.1967
  232MOL0     C31932   7.835   1.039   8.473 -0.3288  0.3284 -0.5364
  232MOL0     C31933   7.857   0.718   8.156 -0.4123 -0.3022  0.0341
  232MOL0     C31934   7.933   0.596   8.174 -0.7313 -0.4649  0.3371
  232MOL0     C31935   7.965   0.506   8.076  1.0791 -1.0850  0.1398
  232MOL0     C31936   7.920   0.531   7.945 -0.6060  0.3721 -0.3964
  232MOL0     O31937   7.941   0.442   7.850 -0.6258  0.5109  0.4385
  232MOL0     C31938   8.076   0.409   7.805  0.0442 -0.8379 -0.1937
  232MOL0     C31939   8.070   0.298   7.701  0.1480  0.6162  0.0760
  232MOL0     C31940   8.191   0.292   7.606 -0.2153 -0.1010  0.0180
  232MOL0     C31941   8.200   0.169   7.517  0.1736 -0.3544 -1.1178
  232MOL0     C31942   8.306   0.175   7.424 -0.1760  0.1819  1.8062
  232MOL0     C31943   8.377   0.203   7.333 -0.1488 -0.2089 -0.1667
  232MOL0     C31944   7.850   0.648   7.921  0.4709 -0.0898  0.9951
  232MOL0     C31945   7.810   0.736   8.020  0.0683 -1.2869  0.0658
  232MOL0     C31946   7.774   0.874   7.964  0.5259 -0.9981  0.8214
  232MOL0     H31947   8.001   0.773   8.584 -1.5917 -0.2258  0.7020
  232MOL0     H31948   8.049   0.933   8.775 -1.3463 -0.9235  0.9802
  232MOL0     H31949   8.036   1.062   8.955 -0.6538  0.2519 -1.1323
  232MOL0     H31950   7.870   1.072   8.981 -1.3182  0.6352 -0.8399
  232MOL0     H31951   7.995   1.209   9.140 -0.5431 -1.2305 -0.3241
  232MOL0     H31952   8.064   1.306   9.004 -0.8823  0.8217 -1.4342
  232MOL0     H31953   7.881   1.424   8.954 -2.3425  2.0083  1.2761
  232MOL0     H31954   7.764   1.300   9.018 -1.8895  2.7586 -1.9483
  232MOL0     H31955   7.836   1.376   9.251  2.0153  0.4630  0.2026
  232MOL0     H31956   7.938   1.491   9.167  0.1455  0.2645 -1.6291
  232MOL0     H31957   7.755   1.607   9.058 -1.6467  2.1691  1.3935
  232MOL0     H31958   7.738   1.619   9.231  2.3360 -3.6116  3.0522
  232MOL0     H31959   7.556   1.458   9.027 -3.7366  4.0352 -1.9110
  232MOL0     H31960   7.579   1.407   9.194  0.4494 -2.7004 -2.7661
  232MOL0     H31961   7.492   1.621   9.260  0.1809 -1.2052 -0.7307
  232MOL0     H31962   7.378   1.549   9.154 -0.3977  0.6063  2.4301
  232MOL0     H31963   7.595   1.749   9.069 -0.1113  0.2226 -2.5925
  232MOL0     H31964   7.473   1.676   8.970  4.2574 -0.3946 -0.7473
  232MOL0     H31965   7.469   1.984   8.952  0.8549 -0.3041  0.6251
  232MOL0     H31966   7.298   2.169   8.929  1.7287 -1.9670  0.7233
  232MOL0     H31967   7.248   2.211   9.093 -2.7929  0.3678 -0.4301
  232MOL0     H31968   7.086   2.203   8.882  1.9058  0.7128  0.2478
  232MOL0     H31969   7.048   2.052   8.954  3.6686 -0.3595 -3.0858
  232MOL0     H31970   7.045   2.320   9.102  5.2486 -0.8051 -0.1523
  232MOL0     H31971   6.909   2.246   9.039 -0.3503 -0.1756 -1.3563
  232MOL0     H31972   6.949   2.051   9.214  0.8401 -0.5419 -0.6250
  232MOL0     H31973   7.098   2.142   9.264  0.3441  4.9435  0.3107
  232MOL0     H31974   6.709   2.132   9.253  1.6853  1.5469 -0.1768
  232MOL0     H31975   6.492   1.892   9.396 -0.9597 -0.4450 -2.4254
  232MOL0     H31976   6.489   2.042   9.292 -1.3493 -0.2006  0.6102
  232MOL0     H31977   6.443   2.051   9.461 -0.0180 -4.7156  4.2717
  232MOL0     H31978   6.532   1.746   9.912 -1.5238 -3.7135 -2.5397
  232MOL0     H31979   6.383   1.712  10.072  0.6929  3.5852  1.7853
  232MOL0     H31980   6.228   1.846  10.271  1.2281  6.1939  2.2650
  232MOL0     H31981   6.174   1.984  10.177 -2.5600  0.7487 -0.5363
  232MOL0     H31982   5.946   1.932  10.237  0.6457  0.3059 -1.4826
  232MOL0     H31983   5.991   1.779  10.308 -0.5034 -0.6445  1.9039
  232MOL0     H31984   5.931   1.950  10.481  1.5309 -0.6705  3.2509
  232MOL0     H31985   6.081   2.042  10.446  2.1556 -0.9191  0.5553
  232MOL0     H31986   6.223   1.886  10.518  0.4217  1.3824  1.2579
  232MOL0     H31987   6.102   1.759  10.525 -0.8998  0.9694  2.7244
  232MOL0     H31988   6.106   1.997  10.702  1.0821  0.0367 -0.0960
  232MOL0     H31989   5.981   1.873  10.710  0.1059  0.3262  0.3937
  232MOL0     H31990   6.272   1.843  10.745 -0.0513  1.2712  2.3715
  232MOL0     H31991   6.168   1.702  10.745  1.3278 -0.5475  1.7482
  232MOL0     H31992   6.043   1.841  10.932  0.7700  1.1867 -0.2168
  232MOL0     H31993   6.192   1.938  10.935  3.3334 -0.3806 -2.5685
  232MOL0     H31994   6.298   1.688  10.956 -0.7844 -0.5956 -1.5217
  232MOL0     H31995   6.132   1.647  10.996 -0.3534  1.5207 -1.4819
  232MOL0     H31996   6.060   1.900   9.869  0.0846  1.3296  1.4341
  232MOL0     H31997   6.227   1.947   9.683  0.7331 -0.4503  0.0099
  232MOL0     H31998   6.855   2.035   9.717  1.1787  1.0605 -0.0401
  232MOL0     H31999   6.979   2.181   9.569 -0.4860  1.2363  0.4064
  232MOL0     H32000   7.817   1.228   8.574 -4.5929 -1.2017 -5.1934
  232MOL0     H32001   7.786   1.090   8.391 -2.3917  1.7980  1.4981
  232MOL0     H32002   7.965   0.567   8.273 -1.8021  0.4870  0.9827
  232MOL0     H32003   8.020   0.416   8.103  0.5827 -0.6691  2.7546
  232MOL0     H32004   8.132   0.498   7.775  0.7043 -0.5975  1.5890
  232MOL0     H32005   8.143   0.359   7.877 -2.4862 -3.0004  0.8399
  232MOL0     H32006   7.972   0.307   7.652 -0.9576  0.3122  2.1352
  232MOL0     H32007   8.068   0.205   7.758  2.3363  0.3099 -0.2658
  232MOL0     H32008   8.190   0.384   7.546  0.3153 -0.3387 -0.3659
  232MOL0     H32009   8.277   0.286   7.673 -0.0396 -1.6509 -0.3025
  232MOL0     H32010   8.106   0.140   7.468 -1.6593  1.4810  1.0639
  232MOL0     H32011   8.217   0.088   7.589  2.5743  0.2666 -0.9150
  232MOL0     H32012   8.457   0.227   7.266  1.8026  3.9974  3.2004
  232MOL0     H32013   7.830   0.671   7.817 -2.2795 -1.3263  1.1561
  232MOL0     H32014   7.741   0.867   7.860  1.3215 -2.9978  0.6716
  232MOL0     H32015   7.695   0.915   8.027  0.4282 -1.4210  0.9796
  232MOL0     H32016   7.858   0.944   7.967  2.5958 -3.3873  2.7096
  233MOL0     O32017   1.330   9.617   3.604 -0.3602  0.2435  0.3071
  233MOL0     C32018   1.316   9.737   3.631  0.4819  1.2370 -0.3721
  233MOL0     O32019   1.226   9.785   3.724  0.7033  0.5826  0.2260
  233MOL0     C32020   1.124   9.708   3.772  0.5099 -0.0314 -1.0451
  233MOL0     C32021   1.108   9.720   3.909  0.4968  0.2949 -0.6707
  233MOL0     C32022   1.002   9.654   3.978 -0.0105 -1.0710  0.1871
  233MOL0     C32023   0.910   9.586   3.901 -0.1606  0.0163 -1.1943
  233MOL0     O32024   0.792   9.549   3.955  0.3239  0.7055  0.3232
  233MOL0     C32025   0.801   9.486   4.085 -0.3192 -0.4707  0.4356
  233MOL0     C32026   0.686   9.395   4.118 -0.9688 -0.1391 -0.6455
  233MOL0     C32027   0.554   9.466   4.127 -0.1812 -0.7431 -0.0334
  233MOL0     C32028   0.457   9.394   4.221 -0.1184  0.5757 -0.5173
  233MOL0     C32029   0.414   9.249   4.182  0.3893  0.4865 -0.3075
  233MOL0     C32030   0.355   9.258   4.038 -0.1380  0.2092 -0.4935
  233MOL0     C32031   0.297   9.133   3.981 -0.1687 -0.4410  0.0165
  233MOL0     C32032   0.249   9.156   3.828 -0.4037  0.1233 -0.7760
  233MOL0     N32033   0.123   9.235   3.838  0.2268  0.3479  0.8051
  233MOL0     C32034   0.013   9.193   3.914 -0.3137  0.9562  0.8156
  233MOL0     C32035  -0.085   9.273   3.872  0.2963 -0.1142 -0.0820
  233MOL0     C32036  -0.232   9.253   3.901  0.0180 -0.2716 -0.7373
  233MOL0     C32037  -0.257   9.248   4.060 -0.4680  0.3134  0.6232
  233MOL0     C32038  -0.403   9.206   4.079 -0.1928 -1.3426  0.0122
  233MOL0     C32039  -0.450   9.201   4.227 -0.7195  0.5803 -0.2631
  233MOL0     O32040  -0.448   9.332   4.291  0.0571  0.5278  0.2031
  233MOL0     C32041  -0.490   9.328   4.425 -0.1068 -0.3650 -0.0419
  233MOL0     C32042  -0.491   9.210   4.499  0.4542 -0.7757 -0.1821
  233MOL0     C32043  -0.519   9.212   4.642  0.3049 -0.0853 -0.3130
  233MOL0     C32044  -0.514   9.074   4.714 -0.4844  0.6336 -0.1200
  233MOL0     C32045  -0.564   9.331   4.704 -1.1113  0.3541  0.0624
  233MOL0     C32046  -0.591   9.346   4.846 -0.1647 -0.1119 -0.2959
  233MOL0     O32047  -0.695   9.423   4.878 -0.2391  0.0922  0.2267
  233MOL0     C32048  -0.719   9.461   5.010 -0.6754 -0.2593 -0.5216
  233MOL0     C32049  -0.673   9.584   5.059 -0.7497  0.9338  0.9810
  233MOL0     C32050  -0.707   9.610   5.190 -0.0520 -1.4009 -0.1186
  233MOL0     C32051  -0.796   9.533   5.259  0.1430 -0.7331  0.0466
  233MOL0     O32052  -0.862   9.580   5.366  0.1761 -0.6321 -0.1525
  233MOL0     C32053  -0.975   9.507   5.407 -0.8634  0.4342 -0.3049
  233MOL0     C32054  -1.034   9.592   5.520 -0.4580 -0.3087  1.2563
  233MOL0     C32055  -1.172   9.555   5.559  0.8523 -0.3109 -0.2081
  233MOL0     C32056  -1.237   9.658   5.661 -1.0752 -0.5714  0.0649
  233MOL0     C32057  -1.373   9.608   5.722 -0.4601 -0.1844  0.1935
  233MOL0     C32058  -1.379   9.557   5.867 -0.2124 -0.0763 -0.4993
  233MOL0     C32059  -1.409   9.671   5.969  0.4751 -0.0832 -0.3839
  233MOL0     C32060  -1.401   9.633   6.114 -0.7642  0.1310 -0.3524
  233MOL0    Cl32061  -1.530   9.523   6.172 -0.0841  0.0715 -0.0122
  233MOL0     C32062  -0.827   9.403   5.209 -0.8478 -0.2800  1.0625
  233MOL0     C32063  -0.793   9.366   5.087  0.5402 -0.3773  0.5613
  233MOL0     O32064  -0.525   9.274   4.924  0.5085 -0.0688 -0.4903
  233MOL0     C32065  -0.569   9.448   4.621  0.7487  0.6444 -0.1769
  233MOL0     C32066  -0.520   9.445   4.489  0.1094 -0.6760  0.7305
  233MOL0     N32067  -0.037   9.356   3.778  0.7592  0.0297  0.6406
  233MOL0     N32068   0.084   9.339   3.759 -0.9086  0.5547 -1.0709
  233MOL0     C32069   0.924   9.579   3.762 -0.5475  0.7422  0.0612
  233MOL0     C32070   1.036   9.629   3.703  0.1256  0.6498  1.2426
  233MOL0     C32071   1.414   9.833   3.585  0.6103  0.3671 -0.0396
  233MOL0     C32072   1.448   9.936   3.674  0.3235 -0.4844  1.1032
  233MOL0     C32073   1.535  10.027   3.629  0.1349 -0.5263 -0.2569
  233MOL0     C32074   1.585  10.031   3.502  0.7158  0.3157 -0.2310
  233MOL0     O32075   1.666  10.130   3.438 -0.2388  0.6588 -0.2249
  233MOL0     C32076   1.722  10.232   3.521 -0.1516 -0.7872 -0.0809
  233MOL0     C32077   1.848  10.269   3.458  0.9238 -0.8685 -0.2737
  233MOL0     C32078   1.928  10.372   3.535 -1.2364  0.6171  0.2084
  233MOL0     C32079   1.858  10.510   3.523  0.0149 -0.0703 -0.3621
  233MOL0     C32080   1.912  10.607   3.624 -0.1398  0.3661  0.4897
  233MOL0     C32081   1.964  10.707   3.673  0.4100  0.0524 -0.6209
  233MOL0     C32082   1.548   9.929   3.415  0.4953 -0.3747 -0.3611
  233MOL0     C32083   1.462   9.823   3.453 -0.1755 -0.3390  0.2846
  233MOL0     C32084   1.441   9.715   3.356  0.0162  0.3331  0.1335
  233MOL0     H32085   1.176   9.784   3.965  0.3946  0.1073 -0.3300
  233MOL0     H32086   1.001   9.664   4.086  2.4500  1.2917  0.1052
  233MOL0     H32087   0.802   9.561   4.164  0.3517  0.4434 -0.4270
  233MOL0     H32088   0.885   9.416   4.088  0.2964  0.0721 -1.9050
  233MOL0     H32089   0.688   9.311   4.048  2.9213  1.4631 -2.7364
  233MOL0     H32090   0.704   9.354   4.219 -0.1759  0.2399 -0.6247
  233MOL0     H32091   0.567   9.569   4.163 -2.1941  0.5384 -2.6257
  233MOL0     H32092   0.504   9.487   4.032 -1.3104 -0.6568  0.5569
  233MOL0     H32093   0.501   9.397   4.321  0.7722  4.4811 -0.8473
  233MOL0     H32094   0.373   9.463   4.234  1.1674  2.0117  0.7697
  233MOL0     H32095   0.340   9.224   4.259 -0.9450  1.2050 -1.3043
  233MOL0     H32096   0.500   9.181   4.187 -0.0372  0.0255  1.3560
  233MOL0     H32097   0.275   9.332   4.044 -1.3017 -1.1066  0.8259
  233MOL0     H32098   0.433   9.284   3.965 -1.5739  0.9084 -1.8214
  233MOL0     H32099   0.221   9.092   4.049 -1.3977 -0.8113 -1.5264
  233MOL0     H32100   0.379   9.062   3.972  1.0656  0.9462 -0.0588
  233MOL0     H32101   0.321   9.224   3.780 -0.5481  0.0650 -1.0778
  233MOL0     H32102   0.230   9.058   3.783 -2.2250  0.7996 -1.5709
  233MOL0     H32103   0.006   9.104   3.975  2.9292  0.8252  1.1613
  233MOL0     H32104  -0.271   9.163   3.853  1.5612  0.1730 -2.9818
  233MOL0     H32105  -0.280   9.340   3.853 -0.9619  0.2477  1.0787
  233MOL0     H32106  -0.188   9.172   4.098  3.4447  1.4884 -3.2486
  233MOL0     H32107  -0.233   9.341   4.113 -0.0895  1.9491 -2.1777
  233MOL0     H32108  -0.473   9.253   4.009 -0.9470 -1.1759  0.8592
  233MOL0     H32109  -0.405   9.109   4.029  0.0028 -0.7517 -1.1917
  233MOL0     H32110  -0.549   9.153   4.232  0.0861 -1.0616  1.1356
  233MOL0     H32111  -0.380   9.139   4.283 -3.2787 -0.0126  2.5582
  233MOL0     H32112  -0.475   9.111   4.456 -2.3386 -0.7396 -1.5074
  233MOL0     H32113  -0.442   9.069   4.796 -1.6983 -0.1938  0.9432
  233MOL0     H32114  -0.491   8.996   4.641 -1.8871  2.2321 -2.3852
  233MOL0     H32115  -0.613   9.051   4.755  0.3617 -1.3186  0.9652
  233MOL0     H32116  -0.616   9.650   4.994  0.8188  0.5035  1.8824
  233MOL0     H32117  -0.674   9.706   5.228  1.6014 -0.8929 -2.6093
  233MOL0     H32118  -1.052   9.506   5.330 -0.4852  2.2447 -0.7617
  233MOL0     H32119  -0.952   9.407   5.446 -1.2438 -0.3860 -2.0838
  233MOL0     H32120  -0.962   9.588   5.602  0.0729 -2.4801  0.7572
  233MOL0     H32121  -1.031   9.700   5.502  0.4874 -0.3950  0.8428
  233MOL0     H32122  -1.176   9.454   5.601  2.0442  0.4591  1.9399
  233MOL0     H32123  -1.246   9.553   5.479 -2.1194 -1.8703  2.3913
  233MOL0     H32124  -1.245   9.757   5.614 -0.0314 -0.1734  0.6967
  233MOL0     H32125  -1.170   9.683   5.743  0.1328  0.6593 -1.2368
  233MOL0     H32126  -1.440   9.694   5.715  0.5671  0.5779 -0.3986
  233MOL0     H32127  -1.394   9.524   5.655  3.9721 -2.4968  1.2889
  233MOL0     H32128  -1.292   9.496   5.894 -0.7793 -0.4998  0.3984
  233MOL0     H32129  -1.468   9.495   5.867 -0.4274  0.1904 -1.9411
  233MOL0     H32130  -1.505   9.715   5.939  0.6419  0.6280  0.1091
  233MOL0     H32131  -1.344   9.756   5.948 -1.9732  1.7952 -0.8737
  233MOL0     H32132  -1.406   9.721   6.179  0.5133 -0.6626  0.8891
  233MOL0     H32133  -1.306   9.580   6.128 -0.3845  0.5930 -1.0886
  233MOL0     H32134  -0.888   9.328   5.256 -1.1621 -1.6649 -1.3715
  233MOL0     H32135  -0.817   9.267   5.050 -1.7674 -0.6029  2.3876
  233MOL0     H32136  -0.603   9.544   4.660  0.2039  1.8042 -3.1915
  233MOL0     H32137  -0.531   9.534   4.428  0.3080 -2.2461 -1.7101
  233MOL0     H32138   0.847   9.527   3.705  1.3011 -2.5998  0.3081
  233MOL0     H32139   1.051   9.618   3.596  2.2773 -0.2127  1.5812
  233MOL0     H32140   1.403   9.936   3.772 -0.9414 -1.2118  0.5540
  233MOL0     H32141   1.568  10.097   3.705  1.0008 -0.4658 -0.6643
  233MOL0     H32142   1.650  10.312   3.541  0.8259  0.1377 -0.2025
  233MOL0     H32143   1.737  10.194   3.622 -2.7889  2.0492  1.5526
  233MOL0     H32144   1.823  10.305   3.358 -1.1304  0.3214  0.6010
  233MOL0     H32145   1.910  10.180   3.440  1.8111 -0.2006 -0.6108
  233MOL0     H32146   1.939  10.336   3.638  0.6215 -1.6626 -0.6869
  233MOL0     H32147   2.031  10.390   3.502 -1.1535 -1.3803 -0.7540
  233MOL0     H32148   1.750  10.498   3.517 -0.1012 -0.5003  1.8708
  233MOL0     H32149   1.882  10.555   3.426 -0.5025  2.0915  0.4489
  233MOL0     H32150   2.005  10.795   3.718 -0.7507  0.5268 -0.4669
  233MOL0     H32151   1.572   9.925   3.309  0.9908 -2.4202 -0.2129
  233MOL0     H32152   1.334   9.696   3.340 -0.1962  0.8558  0.8701
  233MOL0     H32153   1.479   9.744   3.258 -2.3110 -0.2240 -1.0244
  233MOL0     H32154   1.494   9.628   3.396 -0.6338  0.3906  1.1809
  234MOL0     O32155  11.517  10.880   3.095 -0.2164  0.7011 -1.0176
  234MOL0     C32156  11.530  10.881   2.972  0.9116 -0.7606 -1.0764
  234MOL0     O32157  11.616  10.950   2.903  0.4072 -0.8530 -0.4790
  234MOL0     C32158  11.712  11.027   2.962  0.3372  0.9953  0.1624
  234MOL0     C32159  11.785  10.976   3.073 -0.7660 -0.3624  0.6445
  234MOL0     C32160  11.878  11.056   3.139  0.4085 -0.7119 -0.8940
  234MOL0     C32161  11.892  11.193   3.111 -0.0877  1.0873 -0.4378
  234MOL0     O32162  11.979  11.254   3.198 -0.5218  0.3590  0.2685
  234MOL0     C32163  11.953  11.394   3.210  0.8434 -0.2713  0.7284
  234MOL0     C32164  11.814  11.436   3.271  0.2660  0.5199 -0.0059
  234MOL0     C32165  11.774  11.576   3.241  0.8540 -0.5632 -0.2164
  234MOL0     C32166  11.646  11.612   3.318  0.2245 -0.5570 -0.8381
  234MOL0     C32167  11.555  11.728   3.264  0.4718 -0.2152 -0.1058
  234MOL0     C32168  11.421  11.683   3.197  0.1075  0.3823  0.6502
  234MOL0     C32169  11.350  11.796   3.132 -0.2147 -0.1279 -0.7318
  234MOL0     C32170  11.217  11.732   3.079  0.0939 -0.2345 -0.2469
  234MOL0     N32171  11.105  11.801   3.146 -0.0782 -0.2740  0.2651
  234MOL0     C32172  11.088  11.810   3.282  0.0725 -0.8666 -0.5183
  234MOL0     C32173  10.970  11.865   3.304  0.3833 -0.1176 -0.1530
  234MOL0     C32174  10.908  11.875   3.439  0.3802 -1.5289 -0.0347
  234MOL0     C32175  10.853  12.014   3.481  0.0493 -0.3328  0.1133
  234MOL0     C32176  10.788  11.993   3.619  0.3388 -0.3541 -0.5497
  234MOL0     C32177  10.750  12.126   3.680 -0.0543 -1.0644  0.9506
  234MOL0     O32178  10.670  12.110   3.790 -0.3029 -0.5365 -0.2575
  234MOL0     C32179  10.533  12.104   3.767 -0.0974  0.7497  0.1776
  234MOL0     C32180  10.474  12.073   3.648  0.1983 -0.1189  0.3793
  234MOL0     C32181  10.333  12.060   3.635 -0.3724 -0.6605 -0.8222
  234MOL0     C32182  10.277  12.015   3.510  0.6077  0.1000 -0.3521
  234MOL0     C32183  10.252  12.097   3.739  0.2699  0.6981  0.0916
  234MOL0     C32184  10.103  12.102   3.744 -0.2744 -0.2796  0.2300
  234MOL0     O32185  10.026  12.024   3.670 -0.3018 -0.0599 -0.1816
  234MOL0     C32186   9.899  12.010   3.717 -0.1379  0.9435 -0.2155
  234MOL0     C32187   9.872  11.880   3.772 -0.6277 -0.2650  0.5703
  234MOL0     C32188   9.753  11.842   3.829 -0.7624 -0.2287  0.0066
  234MOL0     C32189   9.647  11.941   3.823 -0.0736  1.0371  0.0005
  234MOL0     O32190   9.525  11.902   3.862 -0.2424  0.4249  0.1810
  234MOL0     C32191   9.422  11.997   3.894  0.4065  0.0197 -0.2093
  234MOL0     C32192   9.290  11.931   3.840  0.0048 -0.0786  0.0545
  234MOL0     C32193   9.159  12.000   3.881  0.3826 -0.4231  1.1303
  234MOL0     C32194   9.033  11.948   3.798 -0.1293 -1.2862  0.8194
  234MOL0     C32195   8.901  12.021   3.792  1.1160  0.5249 -0.0202
  234MOL0     C32196   8.851  12.039   3.645  0.9546  0.2252 -0.2357
  234MOL0     C32197   8.754  12.162   3.651 -0.6341  0.3340 -0.3305
  234MOL0     C32198   8.728  12.221   3.511 -0.4828 -0.1533 -0.2350
  234MOL0    Cl32199   8.608  12.128   3.425 -0.2232  0.1003  0.0890
  234MOL0     C32200   9.675  12.066   3.759  0.0238 -1.6834  0.1692
  234MOL0     C32201   9.798  12.098   3.706  0.7825 -0.2577 -0.8688
  234MOL0     O32202  10.059  12.197   3.810  0.3367  0.2381  0.0288
  234MOL0     C32203  10.313  12.145   3.867 -0.2319  0.2661  0.4194
  234MOL0     C32204  10.449  12.126   3.884  0.1207 -0.3803  0.8744
  234MOL0     N32205  10.918  11.898   3.174  0.1685  0.0959  0.0989
  234MOL0     N32206  11.005  11.863   3.082 -0.1395  0.6926  0.2873
  234MOL0     C32207  11.801  11.243   3.013  0.1256  0.1466 -0.3885
  234MOL0     C32208  11.723  11.155   2.942  0.8070 -0.6459  0.2772
  234MOL0     C32209  11.429  10.794   2.900 -0.0991 -0.3917  0.6380
  234MOL0     C32210  11.385  10.690   2.979  1.0682  0.8733 -0.3818
  234MOL0     C32211  11.299  10.590   2.925  0.6918 -0.2518  1.2928
  234MOL0     C32212  11.253  10.603   2.794  0.0063  0.0252  0.4341
  234MOL0     O32213  11.164  10.514   2.740  0.3503  0.0946  1.3680
  234MOL0     C32214  11.144  10.386   2.795  0.0164 -0.8495  0.4776
  234MOL0     C32215  11.266  10.292   2.794 -1.2296  0.5414 -0.1441
  234MOL0     C32216  11.319  10.267   2.647 -0.1327  0.5004  0.2848
  234MOL0     C32217  11.446  10.184   2.628 -0.5339 -0.1385 -0.6293
  234MOL0     C32218  11.429  10.040   2.652  1.5154  0.2669  0.6531
  234MOL0     C32219  11.417   9.920   2.666 -1.2670  0.0318  0.0511
  234MOL0     C32220  11.308  10.705   2.716  0.5000 -0.7633 -0.4217
  234MOL0     C32221  11.385  10.808   2.772 -0.0002 -1.0315  0.4085
  234MOL0     C32222  11.403  10.935   2.685  0.3554  0.6661  0.3583
  234MOL0     H32223  11.769  10.876   3.112  2.1520 -0.2522  2.4225
  234MOL0     H32224  11.931  11.027   3.229 -0.3030  1.2707  0.2276
  234MOL0     H32225  11.966  11.431   3.108  0.2365  0.0852  0.7770
  234MOL0     H32226  12.035  11.437   3.269  3.7641 -3.7915 -0.3259
  234MOL0     H32227  11.731  11.373   3.236 -0.2242 -0.5862  2.8614
  234MOL0     H32228  11.822  11.417   3.378 -1.9430 -0.0762  0.0976
  234MOL0     H32229  11.861  11.636   3.269  4.5623 -3.7439 -3.5463
  234MOL0     H32230  11.747  11.591   3.136 -1.3179 -1.8603  0.0833
  234MOL0     H32231  11.583  11.523   3.328  1.0743 -1.1374 -0.5790
  234MOL0     H32232  11.670  11.635   3.422 -0.9808 -2.8138  0.0059
  234MOL0     H32233  11.615  11.792   3.198 -0.9149 -1.5996 -2.8718
  234MOL0     H32234  11.525  11.785   3.351  0.7756  1.8349 -1.2845
  234MOL0     H32235  11.451  11.610   3.121  2.2048  0.6423  1.1778
  234MOL0     H32236  11.351  11.642   3.271 -3.7030  1.8375 -1.8102
  234MOL0     H32237  11.408  11.836   3.048  0.1663 -0.1452 -0.4790
  234MOL0     H32238  11.344  11.872   3.211 -0.0356  1.9471 -2.5998
  234MOL0     H32239  11.206  11.743   2.971 -0.2686 -1.1357 -0.3104
  234MOL0     H32240  11.211  11.624   3.093  0.0337 -0.2081 -0.0650
  234MOL0     H32241  11.148  11.761   3.359 -0.9138 -1.9635 -0.4112
  234MOL0     H32242  10.986  11.866   3.516  0.1096 -1.0637  0.2932
  234MOL0     H32243  10.834  11.797   3.461 -1.9582  0.6656  0.3174
  234MOL0     H32244  10.932  12.090   3.488  0.0149 -0.3709  1.0064
  234MOL0     H32245  10.780  12.042   3.405 -0.8463 -0.4937  0.8940
  234MOL0     H32246  10.701  11.927   3.609  3.0382 -4.0404 -2.1070
  234MOL0     H32247  10.856  11.936   3.683  1.9744  1.5619 -0.4865
  234MOL0     H32248  10.840  12.182   3.707 -1.6406  2.3795 -0.2783
  234MOL0     H32249  10.707  12.178   3.594 -0.0044 -2.3176  0.1480
  234MOL0     H32250  10.544  12.055   3.568 -0.0879  0.4016  0.0020
  234MOL0     H32251  10.221  11.923   3.527 -0.0759 -0.1031 -3.1868
  234MOL0     H32252  10.352  12.003   3.431  3.3570  3.4330  1.4529
  234MOL0     H32253  10.211  12.097   3.478 -1.8744 -1.0686  1.4045
  234MOL0     H32254   9.955  11.811   3.761  0.5840  1.1048  0.7398
  234MOL0     H32255   9.727  11.749   3.878  0.4597  0.6717  2.4720
  234MOL0     H32256   9.419  12.005   4.003  2.3931  0.6027 -0.1586
  234MOL0     H32257   9.429  12.096   3.847 -0.3626 -0.9482 -2.4849
  234MOL0     H32258   9.294  11.933   3.730 -1.9035  1.6281 -0.0343
  234MOL0     H32259   9.285  11.827   3.873  0.4479 -0.6455 -1.5481
  234MOL0     H32260   9.172  12.108   3.867  0.6396 -0.7733 -1.7916
  234MOL0     H32261   9.154  11.988   3.990  3.0083  0.2766  1.4164
  234MOL0     H32262   9.017  11.842   3.818 -0.0113 -0.9687  2.8733
  234MOL0     H32263   9.076  11.965   3.699  1.4009  0.2147  1.6667
  234MOL0     H32264   8.820  11.967   3.841  3.1940 -1.4922  1.4214
  234MOL0     H32265   8.913  12.114   3.848  3.8488  0.8889 -1.0474
  234MOL0     H32266   8.808  11.958   3.587  2.5653 -0.7825 -0.0870
  234MOL0     H32267   8.939  12.066   3.586  1.1570  2.1527  0.8623
  234MOL0     H32268   8.804  12.242   3.707 -0.0705  1.1324 -1.8883
  234MOL0     H32269   8.657  12.146   3.699 -2.3629  3.3564 -2.4265
  234MOL0     H32270   8.821  12.224   3.454  1.4325  3.2946  2.6219
  234MOL0     H32271   8.679  12.318   3.522 -0.9618 -0.5127  1.0066
  234MOL0     H32272   9.585  12.125   3.743  0.9870 -0.3398 -0.5462
  234MOL0     H32273   9.816  12.194   3.659 -1.2862  0.5386 -0.1426
  234MOL0     H32274  10.250  12.189   3.943 -2.2935 -1.6810 -0.0363
  234MOL0     H32275  10.488  12.148   3.983 -1.9270  0.3045  1.5794
  234MOL0     H32276  11.784  11.348   2.990  1.0064 -0.0018 -1.8744
  234MOL0     H32277  11.642  11.195   2.881  0.2656 -2.1349 -0.0261
  234MOL0     H32278  11.411  10.674   3.083  0.9314  1.6996 -0.2135
  234MOL0     H32279  11.274  10.513   2.997  1.7699 -1.0581  0.8402
  234MOL0     H32280  11.099  10.406   2.893 -0.6721 -1.2980  0.2598
  234MOL0     H32281  11.057  10.339   2.748 -2.3380  1.9314  1.6735
  234MOL0     H32282  11.246  10.200   2.850 -2.4523  2.5080  2.8901
  234MOL0     H32283  11.358  10.333   2.837 -1.0664 -0.4967  0.5336
  234MOL0     H32284  11.240  10.221   2.586  0.3680  0.0416 -0.0209
  234MOL0     H32285  11.347  10.364   2.606  2.9213  0.4485  1.9848
  234MOL0     H32286  11.512  10.220   2.708 -1.7155 -0.3653  0.4821
  234MOL0     H32287  11.497  10.199   2.532  0.6347  0.3720  0.0440
  234MOL0     H32288  11.418   9.813   2.662  0.6165 -0.0400  1.3130
  234MOL0     H32289  11.270  10.707   2.614 -4.2483 -0.7803  1.1106
  234MOL0     H32290  11.355  10.922   2.588  2.4340  0.3584 -0.6857
  234MOL0     H32291  11.348  11.019   2.727 -0.4339  1.5571 -2.2923
  234MOL0     H32292  11.508  10.958   2.665  0.0896 -0.8635 -3.9221
  235MOL0     O32293   8.611   1.753   9.222 -0.2299 -0.1579 -0.2090
  235MOL0     C32294   8.611   1.694   9.114  0.1234 -0.5790 -0.2919
  235MOL0     O32295   8.657   1.569   9.087  0.2265  0.4055  0.2894
  235MOL0     C32296   8.727   1.489   9.184 -0.0908 -1.3184 -0.0685
  235MOL0     C32297   8.805   1.544   9.291  0.6266 -0.0003 -0.2878
  235MOL0     C32298   8.863   1.459   9.381  0.4741  0.3801 -0.1520
  235MOL0     C32299   8.854   1.319   9.365 -0.0319 -0.4641  0.0571
  235MOL0     O32300   8.919   1.242   9.447  0.1439 -0.2096 -0.4667
  235MOL0     C32301   8.871   1.209   9.577  0.8833 -0.1910  0.8756
  235MOL0     C32302   8.963   1.128   9.655 -0.9619  1.1145  0.9760
  235MOL0     C32303   8.970   0.986   9.607 -0.1218  0.8287 -0.3737
  235MOL0     C32304   9.088   0.905   9.669  0.1946 -0.8109  0.0486
  235MOL0     C32305   9.222   0.929   9.584  0.9748 -0.2826 -0.8447
  235MOL0     C32306   9.214   0.827   9.474  0.3850  0.1891 -0.4028
  235MOL0     C32307   9.329   0.834   9.394 -0.1218 -0.1868 -0.0121
  235MOL0     C32308   9.452   0.754   9.434  0.6683 -0.1822 -0.1502
  235MOL0     N32309   9.428   0.617   9.444  0.2334  0.4965  0.2669
  235MOL0     C32310   9.389   0.534   9.343 -0.0552 -0.3280  0.1072
  235MOL0     C32311   9.388   0.408   9.403  0.3212 -0.2605 -0.0932
  235MOL0     C32312   9.370   0.267   9.341  0.4623  0.2652 -0.1994
  235MOL0     C32313   9.506   0.192   9.329  0.6011 -0.3288 -0.1828
  235MOL0     C32314   9.531   0.129   9.185 -0.0400  0.2929  0.3479
  235MOL0     C32315   9.436   0.019   9.145  0.3131 -0.2775 -0.2741
  235MOL0     O32316   9.474  -0.103   9.207  1.0340 -0.0629 -0.2238
  235MOL0     C32317   9.387  -0.203   9.182  0.2916 -0.5036 -0.5748
  235MOL0     C32318   9.432  -0.336   9.211 -0.0197  0.1719  0.0576
  235MOL0     C32319   9.349  -0.445   9.175 -0.4710 -0.4959  0.3272
  235MOL0     C32320   9.409  -0.577   9.206  0.0806  0.3869  0.2541
  235MOL0     C32321   9.221  -0.429   9.113 -0.1317  0.0054 -0.6225
  235MOL0     C32322   9.132  -0.545   9.082  0.6654 -0.2342  0.2941
  235MOL0     O32323   9.157  -0.666   9.132  0.8402  0.3601  0.2508
  235MOL0     C32324   9.071  -0.772   9.085  0.8180 -0.3065  0.8721
  235MOL0     C32325   9.059  -0.811   8.950  0.7411  0.2899  0.5268
  235MOL0     C32326   8.981  -0.926   8.919 -0.0157 -0.8642 -0.8501
  235MOL0     C32327   8.910  -0.990   9.018  0.2895  0.8365  0.3829
  235MOL0     O32328   8.825  -1.094   8.973 -0.1203 -0.1307  0.7835
  235MOL0     C32329   8.698  -1.107   9.040 -0.3682  0.7583  0.7135
  235MOL0     C32330   8.702  -1.225   9.148 -0.4053 -0.3592 -0.3280
  235MOL0     C32331   8.709  -1.362   9.082  0.0292  0.4222 -0.4263
  235MOL0     C32332   8.719  -1.477   9.187 -0.2508 -0.0101 -0.2861
  235MOL0     C32333   8.587  -1.542   9.214  0.7764  1.0626 -0.5233
  235MOL0     C32334   8.526  -1.630   9.106  0.4890 -0.6586 -0.0046
  235MOL0     C32335   8.622  -1.746   9.058 -0.1481  0.2164  0.5454
  235MOL0     C32336   8.613  -1.869   9.156  0.4305  0.8538  0.6084
  235MOL0    Cl32337   8.749  -1.984   9.133 -0.1682 -0.2041 -0.1319
  235MOL0     C32338   8.920  -0.951   9.148  0.5263  0.1529  0.3683
  235MOL0     C32339   8.997  -0.837   9.181 -0.2023  1.3104  0.5482
  235MOL0     O32340   9.028  -0.511   9.025 -0.1823  0.3819  0.1975
  235MOL0     C32341   9.186  -0.297   9.083  0.2038  0.3357  0.3510
  235MOL0     C32342   9.266  -0.183   9.111  0.1066  0.5741 -0.2546
  235MOL0     N32343   9.433   0.423   9.531 -0.6523 -0.2984 -0.5921
  235MOL0     N32344   9.457   0.543   9.557 -1.0858 -0.5335  0.4547
  235MOL0     C32345   8.772   1.262   9.256  1.1490 -0.2353  0.2682
  235MOL0     C32346   8.718   1.351   9.165  0.0977 -0.6058  0.8210
  235MOL0     C32347   8.543   1.757   9.003  0.3683 -0.4156 -1.0271
  235MOL0     C32348   8.595   1.877   8.957  0.0978  0.4943 -0.4916
  235MOL0     C32349   8.540   1.941   8.853  0.5637 -0.8660 -0.0968
  235MOL0     C32350   8.429   1.900   8.780 -0.2094  0.9641 -0.5811
  235MOL0     O32351   8.390   1.977   8.669  0.5568 -0.0609 -0.2801
  235MOL0     C32352   8.312   1.922   8.565 -0.4006  0.2173 -0.1701
  235MOL0     C32353   8.180   1.999   8.571  1.4718  0.1209 -0.2954
  235MOL0     C32354   8.093   1.971   8.450  0.4531 -0.7984  0.4724
  235MOL0     C32355   7.951   2.027   8.465  0.3404  0.2776 -0.8358
  235MOL0     C32356   7.950   2.169   8.454  0.9657 -0.1945 -0.3769
  235MOL0     C32357   7.950   2.283   8.455 -0.1773  0.8003  0.2699
  235MOL0     C32358   8.367   1.783   8.832 -0.7736  0.1704 -1.3168
  235MOL0     C32359   8.419   1.710   8.948  0.6326 -0.0318 -0.3343
  235MOL0     C32360   8.357   1.588   9.000 -0.1429 -0.0853  0.0446
  235MOL0     H32361   8.814   1.650   9.313  0.4429  0.0393 -0.4035
  235MOL0     H32362   8.922   1.492   9.466 -4.1087 -1.1264  4.0733
  235MOL0     H32363   8.772   1.162   9.575 -0.8289  3.1670  0.8041
  235MOL0     H32364   8.857   1.304   9.628  1.0171  0.4703 -0.2749
  235MOL0     H32365   9.057   1.183   9.651 -1.4812  1.9778  0.5656
  235MOL0     H32366   8.915   1.116   9.753 -2.8866  0.2463 -0.0103
  235MOL0     H32367   8.874   0.939   9.628  0.5746 -0.0415  1.0303
  235MOL0     H32368   8.966   0.982   9.498 -0.1890 -0.0357 -0.3441
  235MOL0     H32369   9.105   0.930   9.774 -0.9760 -3.1037  0.8648
  235MOL0     H32370   9.053   0.801   9.675  2.4154 -1.6126  0.2403
  235MOL0     H32371   9.308   0.921   9.652  0.3881  1.7893  0.2156
  235MOL0     H32372   9.237   1.028   9.541  4.3634 -0.8500 -1.3113
  235MOL0     H32373   9.191   0.731   9.520 -4.0645  0.4283 -1.6805
  235MOL0     H32374   9.130   0.855   9.409  0.2429 -1.8559 -1.1535
  235MOL0     H32375   9.364   0.938   9.385  2.5986 -1.1068 -1.4233
  235MOL0     H32376   9.305   0.801   9.292  1.8056  2.2633 -1.3942
  235MOL0     H32377   9.533   0.773   9.363  0.1748 -3.8830 -1.9401
  235MOL0     H32378   9.495   0.794   9.526  0.9019 -2.1306  0.6410
  235MOL0     H32379   9.369   0.559   9.239 -0.6614  2.7029  0.8297
  235MOL0     H32380   9.318   0.281   9.246 -5.1990  0.6272  2.5500
  235MOL0     H32381   9.307   0.198   9.398  0.2161 -1.9513 -2.9866
  235MOL0     H32382   9.575   0.273   9.355 -1.1553  0.6057  1.8728
  235MOL0     H32383   9.516   0.120   9.411  1.9656 -0.9116 -0.8131
  235MOL0     H32384   9.501   0.209   9.117  0.6745  1.7086  1.6412
  235MOL0     H32385   9.633   0.095   9.165 -1.0039 -1.6568 -1.6186
  235MOL0     H32386   9.339   0.055   9.179  0.2346 -0.2631 -0.5109
  235MOL0     H32387   9.438  -0.000   9.037  2.8086 -0.1470 -0.3142
  235MOL0     H32388   9.528  -0.351   9.261  1.3347  1.3631 -2.0242
  235MOL0     H32389   9.427  -0.635   9.116 -1.6540  2.3265 -1.4622
  235MOL0     H32390   9.343  -0.631   9.275  2.1291  0.4185  2.3456
  235MOL0     H32391   9.504  -0.568   9.260  0.1382  0.3597  0.1558
  235MOL0     H32392   9.113  -0.760   8.871 -1.5093 -0.1971 -1.4478
  235MOL0     H32393   8.965  -0.955   8.816 -2.9090 -2.8073  0.0258
  235MOL0     H32394   8.663  -1.025   9.103  3.1014  0.1714  3.7657
  235MOL0     H32395   8.616  -1.128   8.971 -1.1810  1.8303  1.3338
  235MOL0     H32396   8.786  -1.214   9.218 -1.0609 -1.8372  0.7332
  235MOL0     H32397   8.608  -1.232   9.203 -1.3811  5.7226 -0.4857
  235MOL0     H32398   8.802  -1.379   9.026  0.3208  1.5444 -0.2996
  235MOL0     H32399   8.631  -1.385   9.008 -3.1227  2.4570  2.0021
  235MOL0     H32400   8.769  -1.437   9.275  3.1013 -1.1169 -1.5130
  235MOL0     H32401   8.799  -1.547   9.161 -1.4843 -2.0441  1.1207
  235MOL0     H32402   8.604  -1.611   9.297  4.2426 -3.1976 -4.2600
  235MOL0     H32403   8.509  -1.471   9.244 -1.1242 -0.7298 -1.0300
  235MOL0     H32404   8.514  -1.562   9.021 -0.9403  0.2476  0.8772
  235MOL0     H32405   8.433  -1.670   9.149  0.2499 -2.7102 -2.1379
  235MOL0     H32406   8.727  -1.714   9.060  0.6050 -1.6403 -2.4777
  235MOL0     H32407   8.608  -1.761   8.951 -1.7173  4.6043 -0.0889
  235MOL0     H32408   8.516  -1.917   9.141  1.0544 -0.4277  0.5736
  235MOL0     H32409   8.618  -1.839   9.261 -1.6303  1.3606  0.5944
  235MOL0     H32410   8.877  -1.005   9.232  0.9993  0.7780  1.0317
  235MOL0     H32411   9.021  -0.814   9.284 -0.9836  2.4785  0.5031
  235MOL0     H32412   9.096  -0.271   9.029 -0.1562 -2.8995 -0.8189
  235MOL0     H32413   9.221  -0.090   9.077 -2.3101  0.5483  2.5416
  235MOL0     H32414   8.761   1.157   9.234 -2.9206 -0.0880  0.9899
  235MOL0     H32415   8.665   1.315   9.078  0.5874  2.7948 -1.0663
  235MOL0     H32416   8.688   1.913   9.000  0.8491  0.0025 -1.6475
  235MOL0     H32417   8.579   2.039   8.830 -2.2896  1.6073  4.2059
  235MOL0     H32418   8.369   1.946   8.474  0.7029  3.4898  1.2161
  235MOL0     H32419   8.291   1.816   8.581  0.9920  0.2420  2.1932
  235MOL0     H32420   8.201   2.106   8.577  0.9696  0.4523 -3.1400
  235MOL0     H32421   8.125   1.973   8.662 -0.6126  1.6351 -1.0504
  235MOL0     H32422   8.131   2.026   8.363 -0.4342 -1.8572 -0.6032
  235MOL0     H32423   8.087   1.867   8.418  0.4724  0.3835 -4.0547
  235MOL0     H32424   7.903   1.994   8.558  0.2044  2.2470 -0.1532
  235MOL0     H32425   7.889   1.989   8.384 -1.2788  2.1324 -0.5383
  235MOL0     H32426   7.964   2.389   8.468  1.8053  0.6667 -0.4220
  235MOL0     H32427   8.273   1.740   8.798 -0.0115 -1.0540 -1.9478
  235MOL0     H32428   8.271   1.570   8.935  1.0350 -2.7333 -0.8841
  235MOL0     H32429   8.424   1.504   8.982 -1.3871 -1.0998 -0.0387
  235MOL0     H32430   8.333   1.598   9.106 -3.2782  0.3605 -0.5966
  236MOL0     O32431   1.395   5.555  10.577 -0.0968 -0.4925 -0.9643
  236MOL0     C32432   1.370   5.495  10.685  0.5425  0.4469 -0.0077
  236MOL0     O32433   1.383   5.360  10.700 -0.5263 -0.0770  0.2441
  236MOL0     C32434   1.473   5.293  10.618  0.2352  0.1993  0.5637
  236MOL0     C32435   1.595   5.335  10.576 -0.4118 -0.4148  0.1123
  236MOL0     C32436   1.678   5.250  10.504  1.1876  0.9133 -0.4787
  236MOL0     C32437   1.627   5.120  10.458 -1.3265  0.7722  0.2342
  236MOL0     O32438   1.718   5.042  10.390 -0.0541 -0.8967 -1.4366
  236MOL0     C32439   1.678   4.914  10.337 -0.1234  0.5498 -0.5004
  236MOL0     C32440   1.575   4.917  10.225 -0.3342 -0.0547 -0.7239
  236MOL0     C32441   1.633   4.998  10.106  0.7562  0.0565 -0.0060
  236MOL0     C32442   1.522   5.050  10.006  0.1865  1.0616 -0.4537
  236MOL0     C32443   1.410   4.958   9.961  0.7049  0.6923 -0.1789
  236MOL0     C32444   1.465   4.841   9.894  0.4232  0.3087  0.5014
  236MOL0     C32445   1.361   4.726   9.894 -0.2270 -0.6861 -0.0527
  236MOL0     C32446   1.417   4.600   9.831  0.0040 -0.7051  0.3697
  236MOL0     N32447   1.325   4.490   9.814  0.2805  0.0519 -0.0466
  236MOL0     C32448   1.203   4.508   9.756  0.1086  0.5633  0.4981
  236MOL0     C32449   1.145   4.384   9.771 -0.1626  0.1805  0.0584
  236MOL0     C32450   1.005   4.341   9.730 -0.9480 -0.3991 -0.2189
  236MOL0     C32451   0.936   4.325   9.861 -0.3366  0.1486 -0.6478
  236MOL0     C32452   0.796   4.261   9.858 -0.5075 -0.1174 -0.0168
  236MOL0     C32453   0.798   4.111   9.813 -0.0960 -0.4414 -0.2162
  236MOL0     O32454   0.668   4.068   9.776  0.1302 -0.6638  0.1262
  236MOL0     C32455   0.595   3.979   9.855  0.6617 -0.0982  0.1370
  236MOL0     C32456   0.617   3.933   9.991 -0.1985 -0.7868 -0.4106
  236MOL0     C32457   0.528   3.841  10.052 -0.1595  0.0652  0.9244
  236MOL0     C32458   0.572   3.785  10.183 -0.4049  1.1054  0.1640
  236MOL0     C32459   0.413   3.789   9.978  0.3214  0.1749  0.2824
  236MOL0     C32460   0.322   3.682  10.023  0.5897  1.0933 -0.0519
  236MOL0     O32461   0.227   3.638   9.919 -0.1475 -1.2029  0.1184
  236MOL0     C32462   0.136   3.535   9.943  0.1707 -0.5990  0.6093
  236MOL0     C32463   0.111   3.468  10.062 -0.3291 -0.5529 -0.2680
  236MOL0     C32464   0.019   3.363  10.068 -0.0519 -0.3037  0.1519
  236MOL0     C32465  -0.071   3.346   9.955  0.6392  0.6559 -0.0731
  236MOL0     O32466  -0.165   3.247   9.943 -0.1035  0.0988  0.2008
  236MOL0     C32467  -0.172   3.142  10.035 -0.1830 -0.1355 -0.1726
  236MOL0     C32468  -0.269   3.041   9.980 -0.2878 -0.1499  0.1662
  236MOL0     C32469  -0.411   3.109   9.975 -0.5006  0.5604  0.1726
  236MOL0     C32470  -0.520   2.995   9.983 -0.6716 -0.2310  0.2136
  236MOL0     C32471  -0.662   3.064   9.985  0.3796 -0.2756  0.4938
  236MOL0     C32472  -0.717   3.126  10.122 -0.4548 -0.4499  0.6738
  236MOL0     C32473  -0.749   3.017  10.230 -0.0464  0.0214 -0.8454
  236MOL0     C32474  -0.850   3.064  10.334  0.4810 -0.7667 -0.3203
  236MOL0    Cl32475  -1.020   3.087  10.259  0.2381  0.2025  0.5535
  236MOL0     C32476  -0.056   3.421   9.842  0.8505  0.8170 -0.1672
  236MOL0     C32477   0.046   3.519   9.837 -0.5477 -0.3583  0.5706
  236MOL0     O32478   0.341   3.629  10.129 -0.0836  0.3888 -0.3413
  236MOL0     C32479   0.385   3.848   9.851 -0.6116 -0.1752 -1.7083
  236MOL0     C32480   0.471   3.937   9.793  0.0148 -0.3216  0.9266
  236MOL0     N32481   1.234   4.294   9.817  0.5220  0.8838  1.0036
  236MOL0     N32482   1.347   4.354   9.841  0.2014  0.0329 -0.4207
  236MOL0     C32483   1.501   5.076  10.510 -0.0573  0.1359  1.1327
  236MOL0     C32484   1.428   5.161  10.595 -0.0120  0.4447  0.4717
  236MOL0     C32485   1.316   5.588  10.795  0.0646  1.0073  0.5457
  236MOL0     C32486   1.218   5.685  10.766  0.7019 -0.6429 -0.5740
  236MOL0     C32487   1.157   5.746  10.874  0.3832 -1.0137 -0.0632
  236MOL0     C32488   1.191   5.720  11.002  0.0490 -0.7043 -0.3424
  236MOL0     O32489   1.136   5.811  11.093 -0.7276  0.5933  0.2223
  236MOL0     C32490   1.124   5.766  11.233 -0.2356  0.6586  0.2091
  236MOL0     C32491   1.035   5.855  11.321  0.6687 -0.1343  0.2710
  236MOL0     C32492   1.021   5.798  11.466  0.3329  0.9981 -0.7380
  236MOL0     C32493   0.911   5.884  11.535  0.6731  0.4261  0.7525
  236MOL0     C32494   0.908   5.867  11.678 -0.2184 -0.2436  0.6571
  236MOL0     C32495   0.893   5.870  11.798  0.9814 -0.1529 -0.5904
  236MOL0     C32496   1.285   5.622  11.038  0.6811  0.4873 -0.8026
  236MOL0     C32497   1.344   5.554  10.929  0.0711  0.7741  0.0802
  236MOL0     C32498   1.448   5.446  10.957  0.5610  0.4699 -0.2781
  236MOL0     H32499   1.631   5.435  10.599 -0.2861 -0.1459 -1.1265
  236MOL0     H32500   1.769   5.283  10.455  1.7790 -1.6631 -1.2334
  236MOL0     H32501   1.643   4.842  10.412  2.5951 -0.0224  0.3234
  236MOL0     H32502   1.767   4.866  10.295 -0.0240 -1.3210  1.6285
  236MOL0     H32503   1.539   4.817  10.197 -3.0480  0.1588  1.6471
  236MOL0     H32504   1.485   4.970  10.257  0.1332  2.0653 -2.6654
  236MOL0     H32505   1.684   5.090  10.139 -0.0044  0.8443 -0.9642
  236MOL0     H32506   1.713   4.949  10.049 -0.0883 -1.1335 -0.1977
  236MOL0     H32507   1.495   5.150  10.042  1.7155  1.2853  0.1472
  236MOL0     H32508   1.588   5.072   9.922  3.8327 -1.3541  1.5402
  236MOL0     H32509   1.350   5.007   9.884 -2.8202 -1.3530  1.0272
  236MOL0     H32510   1.333   4.931  10.034 -0.7743  0.3624 -1.7998
  236MOL0     H32511   1.488   4.877   9.793  0.6877  0.2268  0.5318
  236MOL0     H32512   1.555   4.799   9.940  1.0119  0.1639 -0.7462
  236MOL0     H32513   1.270   4.755   9.841  0.4569  0.9185 -0.4174
  236MOL0     H32514   1.339   4.708  10.000 -0.0166 -4.4277 -0.4960
  236MOL0     H32515   1.466   4.636   9.740  2.6284  0.3933  2.0726
  236MOL0     H32516   1.496   4.557   9.894 -0.0202 -0.1693  0.7745
  236MOL0     H32517   1.158   4.603   9.730  0.0390  0.3005 -0.3721
  236MOL0     H32518   0.988   4.259   9.658 -0.1945 -0.3393 -0.4738
  236MOL0     H32519   0.957   4.425   9.678 -1.2589  0.1526  0.9364
  236MOL0     H32520   0.990   4.252   9.922 -1.6110 -2.6026 -2.5341
  236MOL0     H32521   0.926   4.419   9.916 -1.2242  0.0471 -0.6107
  236MOL0     H32522   0.754   4.268   9.959  0.1000 -1.0071  0.3133
  236MOL0     H32523   0.734   4.326   9.796 -1.8494  0.4345  1.8412
  236MOL0     H32524   0.862   4.107   9.724  0.8062  1.3008  0.3018
  236MOL0     H32525   0.835   4.042   9.890 -1.0102 -1.5355 -0.7234
  236MOL0     H32526   0.708   3.957  10.045  0.3062 -2.4164 -0.4670
  236MOL0     H32527   0.494   3.778  10.258 -0.0642  0.2120  0.4400
  236MOL0     H32528   0.657   3.847  10.214  0.4450  0.6048 -1.0973
  236MOL0     H32529   0.616   3.685  10.176  1.3848  1.8744 -0.0570
  236MOL0     H32530   0.163   3.484  10.156  0.0062  1.7332 -0.7973
  236MOL0     H32531   0.021   3.288  10.146  0.4345 -0.7674 -0.2977
  236MOL0     H32532  -0.079   3.086  10.047 -0.4349 -0.6621 -0.6296
  236MOL0     H32533  -0.215   3.176  10.130 -0.4985 -1.8197  0.3304
  236MOL0     H32534  -0.234   3.014   9.881 -0.3197 -0.8028  0.3326
  236MOL0     H32535  -0.272   2.948  10.037  4.7699 -0.7002 -0.0634
  236MOL0     H32536  -0.410   3.169   9.884  1.1300 -1.3423 -1.1599
  236MOL0     H32537  -0.425   3.175  10.061 -3.3120  0.5439 -0.1956
  236MOL0     H32538  -0.515   2.928  10.070 -0.0170 -0.5770 -0.0801
  236MOL0     H32539  -0.514   2.930   9.895 -1.9574 -4.2340  2.8033
  236MOL0     H32540  -0.679   3.134   9.903  1.0251  0.0968  0.6698
  236MOL0     H32541  -0.739   2.991   9.958 -1.4230  1.3350  1.0750
  236MOL0     H32542  -0.810   3.178  10.098 -0.2276 -0.6051 -0.5766
  236MOL0     H32543  -0.641   3.197  10.156 -1.0167 -1.0427  3.4087
  236MOL0     H32544  -0.659   2.991  10.285 -2.1183 -3.2429  1.3315
  236MOL0     H32545  -0.791   2.924  10.189 -0.9075  0.6617 -1.4658
  236MOL0     H32546  -0.825   3.169  10.351 -3.8329  0.2344  1.0439
  236MOL0     H32547  -0.854   2.998  10.420 -1.7022 -2.0874 -1.3431
  236MOL0     H32548  -0.126   3.403   9.762  0.1457 -2.1300  1.0002
  236MOL0     H32549   0.052   3.568   9.741  0.7455 -1.3022  0.1369
  236MOL0     H32550   0.304   3.823   9.784 -1.9440 -0.0135 -0.2205
  236MOL0     H32551   0.446   3.972   9.693 -1.0143  0.4409  1.4254
  236MOL0     H32552   1.471   4.973  10.491  1.6539 -0.0899 -0.7090
  236MOL0     H32553   1.340   5.127  10.649  1.2826 -3.7393  0.3149
  236MOL0     H32554   1.191   5.719  10.667  1.0697 -0.1769 -0.5220
  236MOL0     H32555   1.094   5.829  10.843  2.6765  0.6717 -0.4774
  236MOL0     H32556   1.094   5.662  11.241  0.4952  0.5334  1.6399
  236MOL0     H32557   1.227   5.776  11.269 -0.8976  2.3923  1.8021
  236MOL0     H32558   0.937   5.865  11.275 -0.8389 -3.3827  2.3573
  236MOL0     H32559   1.082   5.953  11.325  1.3068 -0.4397  0.4041
  236MOL0     H32560   0.988   5.694  11.459 -1.8132  1.4405  1.3805
  236MOL0     H32561   1.118   5.804  11.515 -0.8842  2.7295  1.6444
  236MOL0     H32562   0.810   5.861  11.498  0.5766  1.0194  0.6326
  236MOL0     H32563   0.934   5.990  11.518 -0.6323  0.6549  0.2639
  236MOL0     H32564   0.887   5.870  11.905 -2.5144 -0.7246 -0.6708
  236MOL0     H32565   1.316   5.606  11.141  2.2897  2.3161 -0.9508
  236MOL0     H32566   1.482   5.455  11.060 -1.2190  4.6252  0.1544
  236MOL0     H32567   1.395   5.351  10.952 -0.9423  1.2638  0.0271
  236MOL0     H32568   1.531   5.437  10.886 -0.6350  2.1572 -2.0135
  237MOL0     O32569   1.855   3.086   3.453  0.2401  0.4105 -0.7648
  237MOL0     C32570   1.911   3.010   3.530 -0.5194  0.2905 -0.0749
  237MOL0     O32571   2.043   3.006   3.558 -0.2359 -0.2411  0.2190
  237MOL0     C32572   2.119   3.110   3.528  0.1168  0.5208 -0.0691
  237MOL0     C32573   2.079   3.232   3.560  0.0834  0.3380 -0.0983
  237MOL0     C32574   2.150   3.358   3.531 -0.6836 -0.2387 -0.8642
  237MOL0     C32575   2.270   3.349   3.466 -0.6676  0.3135 -0.4341
  237MOL0     O32576   2.350   3.444   3.426  0.4615  0.8530  0.4733
  237MOL0     C32577   2.296   3.566   3.368  0.1366  0.0569 -1.1253
  237MOL0     C32578   2.414   3.632   3.289 -0.0376 -0.3969  0.6144
  237MOL0     C32579   2.547   3.650   3.369 -0.9949  0.1790 -0.2959
  237MOL0     C32580   2.646   3.746   3.294 -0.1973  0.2329 -0.0155
  237MOL0     C32581   2.774   3.748   3.359  0.1852  0.0093  0.6415
  237MOL0     C32582   2.854   3.855   3.295  0.3713 -0.7954  0.1278
  237MOL0     C32583   2.984   3.894   3.375 -0.2447  0.0400  0.4883
  237MOL0     C32584   3.081   3.779   3.412 -0.1935 -0.5498  0.0478
  237MOL0     N32585   3.188   3.818   3.500  0.6666 -0.7196  0.0537
  237MOL0     C32586   3.321   3.834   3.468  0.7300  0.6730  0.2521
  237MOL0     C32587   3.384   3.887   3.586  2.2115  0.2298  0.1908
  237MOL0     C32588   3.521   3.923   3.625  0.1139  0.1801  0.6987
  237MOL0     C32589   3.634   3.863   3.538 -0.0099 -0.2173  0.4175
  237MOL0     C32590   3.637   3.701   3.541 -0.0048  0.8604 -0.1304
  237MOL0     C32591   3.780   3.643   3.553 -0.8646 -0.9467  0.2554
  237MOL0     O32592   3.846   3.691   3.671  0.3979 -0.1640  0.0648
  237MOL0     C32593   3.965   3.765   3.676 -0.5374 -0.6235 -0.2673
  237MOL0     C32594   3.987   3.860   3.773 -0.8671 -0.2319 -0.5213
  237MOL0     C32595   4.111   3.923   3.798 -0.4520 -0.2152 -0.1561
  237MOL0     C32596   4.129   4.029   3.909  0.9303  0.6686  0.1886
  237MOL0     C32597   4.217   3.897   3.709 -0.3249  0.5317  0.9486
  237MOL0     C32598   4.356   3.949   3.713  1.0240  0.3073 -0.9908
  237MOL0     O32599   4.433   3.956   3.601 -0.0707  0.3728  0.2083
  237MOL0     C32600   4.547   4.027   3.615  1.7288 -0.1767 -0.4681
  237MOL0     C32601   4.643   3.985   3.710  1.4096 -0.3122  0.0395
  237MOL0     C32602   4.759   4.055   3.724  0.9230 -0.2052 -0.2096
  237MOL0     C32603   4.785   4.165   3.637  0.3582 -1.2975  0.6155
  237MOL0     O32604   4.901   4.249   3.629 -1.1787 -0.2660  0.0674
  237MOL0     C32605   5.011   4.202   3.716 -0.3821 -0.1214 -0.3665
  237MOL0     C32606   5.079   4.072   3.677 -0.9542 -0.4365  0.0223
  237MOL0     C32607   5.207   4.071   3.740 -0.6420 -0.7479 -0.1397
  237MOL0     C32608   5.306   3.961   3.712 -1.0370 -0.7928  0.3740
  237MOL0     C32609   5.436   3.971   3.795  0.2607  0.4828 -0.5408
  237MOL0     C32610   5.461   3.847   3.880 -0.5012  0.4585 -0.4613
  237MOL0     C32611   5.599   3.851   3.960 -1.0448  0.0462 -0.1732
  237MOL0     C32612   5.660   3.713   3.995 -0.1568 -1.7931 -0.6856
  237MOL0    Cl32613   5.709   3.638   3.837  0.0168  0.1385 -0.0757
  237MOL0     C32614   4.688   4.202   3.549  0.6170 -0.4844 -0.8479
  237MOL0     C32615   4.569   4.132   3.538  1.2735 -0.5073  0.1616
  237MOL0     O32616   4.393   3.977   3.825 -0.5927 -0.0210 -0.7646
  237MOL0     C32617   4.194   3.808   3.600  0.4123 -0.6853  0.3542
  237MOL0     C32618   4.068   3.754   3.582 -0.1430  0.0854 -0.4238
  237MOL0     N32619   3.284   3.872   3.676  0.3815 -0.2517 -0.0675
  237MOL0     N32620   3.165   3.835   3.636 -0.5803  1.1007  0.6923
  237MOL0     C32621   2.325   3.224   3.437  0.1170  1.1175  0.1972
  237MOL0     C32622   2.245   3.104   3.465 -0.4894  0.4157 -0.4302
  237MOL0     C32623   1.823   2.913   3.601  1.2785 -0.1214  0.2018
  237MOL0     C32624   1.702   2.880   3.535  0.4489  0.3853 -0.1076
  237MOL0     C32625   1.611   2.796   3.596 -0.7918  0.1104  0.4877
  237MOL0     C32626   1.635   2.740   3.725  0.9441 -0.0846  0.3680
  237MOL0     O32627   1.556   2.651   3.796 -0.2290 -0.3160  0.4561
  237MOL0     C32628   1.460   2.578   3.721 -0.9475 -0.3614 -0.7282
  237MOL0     C32629   1.403   2.463   3.813  0.2375 -0.2934  0.1523
  237MOL0     C32630   1.330   2.508   3.937  0.4499  0.0952 -0.3303
  237MOL0     C32631   1.282   2.381   4.005  0.1512 -0.0256  0.0409
  237MOL0     C32632   1.176   2.306   3.932 -0.4362  0.4537  0.8809
  237MOL0     C32633   1.089   2.248   3.873  0.1682 -0.5559  0.6759
  237MOL0     C32634   1.743   2.783   3.790  0.3633 -0.0832 -0.4488
  237MOL0     C32635   1.840   2.857   3.730  0.0906 -0.5532  0.1815
  237MOL0     C32636   1.969   2.888   3.805 -0.2011 -0.6191  0.1782
  237MOL0     H32637   1.985   3.248   3.611  0.2266 -0.1120  0.3109
  237MOL0     H32638   2.112   3.457   3.558  0.8930  0.1470  0.0717
  237MOL0     H32639   2.257   3.629   3.449  1.3075  0.0723 -0.5455
  237MOL0     H32640   2.221   3.551   3.290 -1.0649 -0.6858  0.1355
  237MOL0     H32641   2.432   3.567   3.203 -2.0121 -1.4526  0.9369
  237MOL0     H32642   2.394   3.734   3.253  2.9527 -0.5006 -1.6637
  237MOL0     H32643   2.521   3.693   3.466 -0.6176 -0.7136  0.2125
  237MOL0     H32644   2.586   3.548   3.376 -2.9895 -0.6294 -0.1971
  237MOL0     H32645   2.659   3.704   3.194 -1.3171 -1.8687  0.6494
  237MOL0     H32646   2.592   3.841   3.291  0.9578  0.9468  0.8148
  237MOL0     H32647   2.817   3.650   3.338  1.1708  1.1583 -3.4161
  237MOL0     H32648   2.767   3.765   3.467 -2.8618  2.0512  0.2440
  237MOL0     H32649   2.876   3.829   3.191 -2.1400  0.7293 -0.8808
  237MOL0     H32650   2.792   3.945   3.287  2.3746  0.4823 -2.3890
  237MOL0     H32651   2.962   3.954   3.464 -1.5206  0.4076 -0.0589
  237MOL0     H32652   3.035   3.972   3.317 -3.7597  0.4497 -2.3948
  237MOL0     H32653   3.022   3.697   3.453 -1.2421  0.9441  1.6345
  237MOL0     H32654   3.135   3.736   3.327 -0.5026  1.3348 -1.1493
  237MOL0     H32655   3.354   3.832   3.365  0.0694  0.5671  0.0383
  237MOL0     H32656   3.541   3.923   3.733 -2.0502 -0.0411  1.1449
  237MOL0     H32657   3.524   4.032   3.609  0.4379 -0.0092 -0.6056
  237MOL0     H32658   3.621   3.897   3.435 -0.4000 -0.5697  0.3501
  237MOL0     H32659   3.725   3.915   3.570 -0.4885  0.6813  0.3392
  237MOL0     H32660   3.578   3.659   3.622  2.5373 -2.9588 -0.0205
  237MOL0     H32661   3.595   3.673   3.444 -0.9596  1.6094  0.0588
  237MOL0     H32662   3.788   3.534   3.546  2.9266 -0.7283 -1.1687
  237MOL0     H32663   3.829   3.674   3.460  0.8469 -0.5013  1.2784
  237MOL0     H32664   3.901   3.880   3.836  1.4403  0.0272  2.7993
  237MOL0     H32665   4.027   4.045   3.947 -0.2266 -3.0537 -0.9358
  237MOL0     H32666   4.161   4.122   3.860  0.6708  0.7561  0.1798
  237MOL0     H32667   4.189   3.985   3.988  2.9901  0.7449 -1.2612
  237MOL0     H32668   4.617   3.901   3.773 -0.5907 -0.3882 -0.7894
  237MOL0     H32669   4.828   4.020   3.800  2.5609  3.0423 -0.0570
  237MOL0     H32670   5.082   4.285   3.726  0.3671 -0.7905 -0.0658
  237MOL0     H32671   4.966   4.189   3.814 -0.9615 -0.0264 -0.6181
  237MOL0     H32672   5.020   3.987   3.714 -3.4940  0.6004 -1.3821
  237MOL0     H32673   5.102   4.057   3.571 -2.9933 -2.5232 -0.2042
  237MOL0     H32674   5.183   4.063   3.847 -0.9029 -0.8150 -0.2008
  237MOL0     H32675   5.246   4.168   3.708 -0.5786 -1.0081 -0.8633
  237MOL0     H32676   5.324   3.982   3.606 -1.5957  0.0849  0.4418
  237MOL0     H32677   5.262   3.861   3.718  0.0814 -1.3730 -0.6941
  237MOL0     H32678   5.516   3.970   3.720 -0.5173 -1.2209 -1.3888
  237MOL0     H32679   5.448   4.065   3.851  1.3610 -0.1114  0.2580
  237MOL0     H32680   5.445   3.755   3.824 -1.5471  1.2330 -1.4948
  237MOL0     H32681   5.379   3.847   3.952  0.1100 -0.0606  0.2366
  237MOL0     H32682   5.586   3.903   4.056  1.0127  0.8910 -0.2800
  237MOL0     H32683   5.680   3.901   3.906 -1.3979 -0.7971 -1.5097
  237MOL0     H32684   5.589   3.663   4.062 -0.3409  2.6894  2.8990
  237MOL0     H32685   5.739   3.730   4.068 -1.1615 -0.9080  0.2227
  237MOL0     H32686   4.697   4.292   3.490 -3.0736  1.6990  1.5122
  237MOL0     H32687   4.497   4.155   3.460  1.8836 -0.7049 -0.4678
  237MOL0     H32688   4.266   3.784   3.523 -1.1604 -0.4172 -1.2694
  237MOL0     H32689   4.051   3.686   3.499 -0.8348  1.7759 -1.7362
  237MOL0     H32690   2.417   3.214   3.379 -0.4834 -0.2538 -0.5732
  237MOL0     H32691   2.286   3.008   3.434 -1.0001 -0.2484  0.8545
  237MOL0     H32692   1.681   2.910   3.432 -0.0408 -0.9384 -0.4112
  237MOL0     H32693   1.515   2.760   3.558 -1.4557 -4.9029  5.5069
  237MOL0     H32694   1.381   2.645   3.686 -1.0897 -0.0210  0.2289
  237MOL0     H32695   1.500   2.530   3.631  1.1733 -0.2529  0.1053
  237MOL0     H32696   1.497   2.412   3.836  0.1850 -1.7983 -2.5973
  237MOL0     H32697   1.348   2.397   3.745  1.7282 -0.9192 -0.4975
  237MOL0     H32698   1.383   2.575   4.005 -3.6631  4.1432 -0.6524
  237MOL0     H32699   1.239   2.567   3.924  0.4633  0.7048  1.8591
  237MOL0     H32700   1.254   2.395   4.109  3.1685 -2.9937  1.4379
  237MOL0     H32701   1.362   2.307   4.013  0.7032  0.7050  1.7260
  237MOL0     H32702   1.008   2.200   3.822  0.6253 -0.1187 -0.4935
  237MOL0     H32703   1.782   2.736   3.880  0.2334 -0.3067 -0.5079
  237MOL0     H32704   2.057   2.856   3.748  0.3540  3.6119 -1.7201
  237MOL0     H32705   1.982   2.993   3.829 -1.3251 -0.6368  0.9428
  237MOL0     H32706   1.980   2.820   3.890 -1.0160 -1.2829 -0.2203
  238MOL0     O32707   8.825   4.641  10.131  0.0936 -0.1183  0.2684
  238MOL0     C32708   8.907   4.588  10.064 -0.0379  0.8355 -0.0259
  238MOL0     O32709   8.892   4.529   9.943  0.6905  0.3325 -0.4565
  238MOL0     C32710   8.771   4.542   9.882 -0.3313 -0.1457 -0.2958
  238MOL0     C32711   8.722   4.669   9.855  0.0983  0.1034  0.2135
  238MOL0     C32712   8.592   4.683   9.804 -0.6747 -0.0912 -0.4091
  238MOL0     C32713   8.510   4.571   9.779 -0.2432 -0.7246 -0.2294
  238MOL0     O32714   8.386   4.587   9.732  0.2769  0.0098 -0.0137
  238MOL0     C32715   8.349   4.501   9.629  0.0779  0.6664  0.3841
  238MOL0     C32716   8.226   4.579   9.562 -0.6645  0.5058  0.1167
  238MOL0     C32717   8.282   4.677   9.465  0.6215  0.3903 -0.6156
  238MOL0     C32718   8.282   4.629   9.321 -1.4298 -0.1449 -1.2095
  238MOL0     C32719   8.313   4.747   9.225  0.8799 -0.1547  0.3198
  238MOL0     C32720   8.298   4.711   9.077 -0.2569  0.2634  0.0316
  238MOL0     C32721   8.363   4.825   8.998  0.9631  0.2771 -0.4114
  238MOL0     C32722   8.355   4.826   8.855 -0.1827 -0.5184  0.1829
  238MOL0     N32723   8.434   4.715   8.790 -0.6403  0.2786  0.5381
  238MOL0     C32724   8.567   4.717   8.752 -0.8095 -0.2338  0.0040
  238MOL0     C32725   8.579   4.614   8.659  0.4668 -0.5459 -0.2059
  238MOL0     C32726   8.699   4.574   8.575 -0.2716 -1.2572 -0.4917
  238MOL0     C32727   8.671   4.456   8.479 -0.3493  0.5982  0.4627
  238MOL0     C32728   8.629   4.497   8.334  0.9001  0.3831 -0.7800
  238MOL0     C32729   8.553   4.385   8.263  0.0490 -0.5914 -0.1597
  238MOL0     O32730   8.426   4.345   8.318 -0.3637  0.2103  0.8088
  238MOL0     C32731   8.416   4.224   8.384 -0.1547  0.0962  0.3080
  238MOL0     C32732   8.442   4.105   8.328 -0.1414  1.1857  0.5756
  238MOL0     C32733   8.413   3.985   8.392  0.3343  0.9050 -0.4823
  238MOL0     C32734   8.444   3.856   8.316  0.3484 -0.2137 -0.0207
  238MOL0     C32735   8.336   3.999   8.521 -0.2957  0.4681 -0.1472
  238MOL0     C32736   8.296   3.881   8.604 -0.4442 -0.2736  0.5760
  238MOL0     O32737   8.232   3.915   8.724  0.0952  0.5245 -0.5373
  238MOL0     C32738   8.198   3.812   8.810  0.4531  0.5190  0.4075
  238MOL0     C32739   8.269   3.797   8.931  0.2922 -0.0016 -0.4948
  238MOL0     C32740   8.223   3.706   9.022 -0.1761 -0.8124 -0.2410
  238MOL0     C32741   8.110   3.639   9.008  0.4803  0.5077  0.9116
  238MOL0     O32742   8.077   3.556   9.108  0.4453  0.9846 -0.2965
  238MOL0     C32743   7.942   3.557   9.153 -0.4591 -0.7069  0.1415
  238MOL0     C32744   7.928   3.489   9.289  0.5627  0.5484 -0.0762
  238MOL0     C32745   7.990   3.566   9.403 -0.1422 -0.7975  0.4432
  238MOL0     C32746   7.970   3.502   9.538 -0.1330  0.1434 -0.2069
  238MOL0     C32747   7.884   3.585   9.634  0.4323  0.2314  0.1008
  238MOL0     C32748   7.872   3.534   9.776 -0.2435  0.4212 -0.4462
  238MOL0     C32749   7.999   3.499   9.858  1.0267 -0.8053  0.9919
  238MOL0     C32750   7.964   3.434   9.996 -0.5261 -1.0914 -0.0798
  238MOL0    Cl32751   7.869   3.552  10.089  0.2733 -0.3053  0.2889
  238MOL0     C32752   8.041   3.653   8.891  0.4838 -0.5569 -0.1752
  238MOL0     C32753   8.095   3.729   8.786 -0.1858  0.2782 -0.2484
  238MOL0     O32754   8.305   3.760   8.565  0.3883  0.2071 -0.9126
  238MOL0     C32755   8.292   4.122   8.565  0.4102  0.0980  0.1634
  238MOL0     C32756   8.341   4.226   8.499  0.1314 -1.2788  0.4153
  238MOL0     N32757   8.454   4.547   8.657 -0.1874 -0.1176 -0.5086
  238MOL0     N32758   8.375   4.613   8.731 -0.3785  0.7981  0.3407
  238MOL0     C32759   8.566   4.446   9.812 -0.0836  0.2258 -0.0945
  238MOL0     C32760   8.701   4.429   9.855  0.5802 -0.2988 -0.2814
  238MOL0     C32761   9.053   4.581  10.110 -0.9340  0.0097 -0.1714
  238MOL0     C32762   9.153   4.523  10.032 -1.5732 -0.1055  0.1208
  238MOL0     C32763   9.289   4.522  10.062 -0.7408  0.3351 -0.4341
  238MOL0     C32764   9.339   4.580  10.181 -0.0757 -0.7206  0.8654
  238MOL0     O32765   9.470   4.561  10.185 -0.6785 -1.2278 -0.7533
  238MOL0     C32766   9.543   4.609  10.300  0.6853 -0.6138  0.1821
  238MOL0     C32767   9.688   4.574  10.270 -0.1852 -0.4608 -0.3717
  238MOL0     C32768   9.767   4.587  10.398 -0.8543 -0.1320  0.1925
  238MOL0     C32769   9.916   4.622  10.377 -0.8244  0.6537 -0.0977
  238MOL0     C32770   9.981   4.505  10.329  0.3811 -0.1534  0.7717
  238MOL0     C32771  10.059   4.427  10.282  0.1042  0.5686  0.1420
  238MOL0     C32772   9.250   4.638  10.269  0.2107 -0.6318  0.4857
  238MOL0     C32773   9.103   4.645  10.235 -0.1656  0.2450 -0.4579
  238MOL0     C32774   9.021   4.709  10.352  0.5140  0.6691 -1.2712
  238MOL0     H32775   8.781   4.757   9.876  0.4195 -0.0587 -0.0072
  238MOL0     H32776   8.549   4.778   9.772 -1.5025 -0.4848 -0.5045
  238MOL0     H32777   8.315   4.404   9.665  3.2639 -0.6108  0.3061
  238MOL0     H32778   8.429   4.490   9.555 -1.2536 -3.5012 -0.7151
  238MOL0     H32779   8.157   4.505   9.520  0.2891 -1.8387  2.3724
  238MOL0     H32780   8.165   4.625   9.641  0.2256  1.1591  0.4391
  238MOL0     H32781   8.213   4.761   9.473  0.2212  0.0145 -0.0177
  238MOL0     H32782   8.382   4.712   9.492  2.1714 -1.6197 -3.3255
  238MOL0     H32783   8.361   4.553   9.313 -1.0508 -0.0273  0.9307
  238MOL0     H32784   8.188   4.584   9.288 -3.0018 -0.7640  3.5099
  238MOL0     H32785   8.416   4.779   9.246  0.0978  2.3482  0.6472
  238MOL0     H32786   8.245   4.830   9.245  1.7738  1.0174 -1.2737
  238MOL0     H32787   8.364   4.627   9.052  0.1954  0.3331  0.9567
  238MOL0     H32788   8.195   4.696   9.045 -1.1806  2.1683  1.9204
  238MOL0     H32789   8.467   4.842   9.029  1.8395 -0.7952 -2.5269
  238MOL0     H32790   8.314   4.919   9.026  0.5478  1.1053 -3.5675
  238MOL0     H32791   8.249   4.819   8.829 -0.9051  3.5496  1.3772
  238MOL0     H32792   8.390   4.927   8.833 -1.4726 -0.0725  0.1130
  238MOL0     H32793   8.641   4.793   8.777  0.1539 -0.4680 -1.9406
  238MOL0     H32794   8.780   4.552   8.644 -2.2553 -4.2084  1.1064
  238MOL0     H32795   8.722   4.661   8.514 -1.0615  0.9739  2.1836
  238MOL0     H32796   8.755   4.389   8.457 -3.1674 -1.9027 -4.2585
  238MOL0     H32797   8.597   4.387   8.521 -0.5915 -0.0261 -0.9431
  238MOL0     H32798   8.575   4.592   8.336 -1.4058 -0.8036 -2.4678
  238MOL0     H32799   8.720   4.512   8.275  1.2557  2.0791  0.1472
  238MOL0     H32800   8.540   4.410   8.157  1.1022  0.7832  0.0135
  238MOL0     H32801   8.621   4.299   8.271  1.2981  0.3878 -0.0509
  238MOL0     H32802   8.483   4.106   8.228  1.8236 -2.5423  1.1625
  238MOL0     H32803   8.347   3.811   8.289  1.9480 -4.6195  0.7745
  238MOL0     H32804   8.495   3.784   8.381 -1.5512  0.0401  1.8754
  238MOL0     H32805   8.510   3.871   8.231  1.7036 -2.2525  0.5999
  238MOL0     H32806   8.365   3.846   8.935  2.0386 -3.1476  3.1048
  238MOL0     H32807   8.270   3.698   9.120 -0.9403  0.4266  0.2585
  238MOL0     H32808   7.912   3.661   9.163  0.5829 -0.3651 -0.1784
  238MOL0     H32809   7.881   3.512   9.074  0.5992  0.7578 -1.6003
  238MOL0     H32810   7.821   3.486   9.313  0.0937 -0.7251 -2.1283
  238MOL0     H32811   7.974   3.393   9.266 -1.9646 -1.2762  1.8970
  238MOL0     H32812   7.945   3.665   9.413  1.7347  0.1371 -0.0235
  238MOL0     H32813   8.098   3.574   9.388 -0.0684 -2.2025  0.0392
  238MOL0     H32814   8.069   3.500   9.585 -1.1032 -1.1390  1.9334
  238MOL0     H32815   7.933   3.400   9.538  1.2047 -0.3640 -0.1236
  238MOL0     H32816   7.926   3.686   9.637 -1.1252  0.9016  0.1816
  238MOL0     H32817   7.780   3.591   9.603  0.0058 -4.7430 -0.2666
  238MOL0     H32818   7.807   3.446   9.776 -1.5162  1.2960  1.4147
  238MOL0     H32819   7.811   3.612   9.822  0.0594 -1.1398  2.8320
  238MOL0     H32820   8.053   3.593   9.870  2.9815 -1.4135 -1.9632
  238MOL0     H32821   8.058   3.431   9.796 -0.1186  1.4445 -2.9655
  238MOL0     H32822   8.049   3.423  10.064 -1.5203 -1.1304  1.2090
  238MOL0     H32823   7.915   3.336   9.989 -0.9669 -0.8010 -1.3958
  238MOL0     H32824   7.952   3.593   8.878  0.6871 -0.6687 -1.1715
  238MOL0     H32825   8.044   3.733   8.691 -1.6854  2.1096  0.5761
  238MOL0     H32826   8.226   4.126   8.652 -0.8439 -0.7088 -0.7111
  238MOL0     H32827   8.324   4.327   8.535  2.8310 -0.6794  0.2463
  238MOL0     H32828   8.514   4.352   9.799 -0.2133  0.1256  1.0957
  238MOL0     H32829   8.745   4.330   9.864  1.5767  0.1523 -0.0386
  238MOL0     H32830   9.123   4.489   9.934  0.0407  1.2196 -0.8806
  238MOL0     H32831   9.362   4.471  10.000 -1.5002  0.4929 -1.4902
  238MOL0     H32832   9.518   4.714  10.318 -4.9630 -1.5106 -0.4895
  238MOL0     H32833   9.505   4.549  10.384  0.1688  1.9294  1.8967
  238MOL0     H32834   9.735   4.652  10.209  1.8843  1.0231  2.8709
  238MOL0     H32835   9.689   4.476  10.222 -0.1376  1.0000 -3.6579
  238MOL0     H32836   9.717   4.656  10.467 -0.8214 -1.3362  1.4794
  238MOL0     H32837   9.749   4.492  10.449  0.4656 -0.0793  0.8027
  238MOL0     H32838   9.949   4.654  10.477  0.3915 -0.0510 -0.2417
  238MOL0     H32839   9.933   4.705  10.309  0.8029  1.4514  1.2077
  238MOL0     H32840  10.117   4.342  10.250 -0.8172  0.5734 -1.6806
  238MOL0     H32841   9.287   4.688  10.358 -1.8308  0.1621  0.9442
  238MOL0     H32842   8.973   4.621  10.397  3.9850 -0.0600  1.4702
  238MOL0     H32843   9.089   4.757  10.423  0.0722 -1.0245  0.4021
  238MOL0     H32844   8.941   4.776  10.320 -0.3643  0.5496  0.5220
  239MOL0     O32845   0.845   7.911   4.782 -0.1941 -0.5131 -0.0688
  239MOL0     C32846   0.768   7.961   4.694  0.0257  0.5879  0.3138
  239MOL0     O32847   0.790   8.059   4.604 -0.4532 -0.0151 -0.9459
  239MOL0     C32848   0.902   8.133   4.628 -0.0978  0.8433  0.1261
  239MOL0     C32849   0.950   8.196   4.744 -0.1130  0.4085  0.2665
  239MOL0     C32850   1.066   8.268   4.744  0.2236 -0.8764  0.2325
  239MOL0     C32851   1.141   8.294   4.624 -0.2479  0.0487  0.6769
  239MOL0     O32852   1.250   8.376   4.630 -0.6445 -0.4289  0.5126
  239MOL0     C32853   1.330   8.405   4.502  0.4985 -1.1684  0.5315
  239MOL0     C32854   1.432   8.519   4.510 -0.2885  0.8493 -0.5457
  239MOL0     C32855   1.556   8.500   4.411 -0.0918 -0.1184  1.2002
  239MOL0     C32856   1.685   8.573   4.461  0.3444  0.2332 -0.3144
  239MOL0     C32857   1.671   8.720   4.484 -0.5194  0.1793  1.1339
  239MOL0     C32858   1.663   8.807   4.362  0.8822  1.2309 -0.2115
  239MOL0     C32859   1.631   8.949   4.421  0.1236 -0.9568  0.2876
  239MOL0     C32860   1.491   8.984   4.484  0.5680  0.9061  0.3028
  239MOL0     N32861   1.383   8.974   4.383 -0.3425 -0.2846  0.5036
  239MOL0     C32862   1.326   9.094   4.345 -0.4269  1.3802  0.1176
  239MOL0     C32863   1.238   9.059   4.245 -0.0305 -0.3865  0.3059
  239MOL0     C32864   1.161   9.171   4.175 -0.1322  0.3437  0.3875
  239MOL0     C32865   1.240   9.216   4.056 -0.4483  0.0770  0.7485
  239MOL0     C32866   1.148   9.305   3.973 -0.4851 -0.3483  0.8811
  239MOL0     C32867   1.201   9.312   3.836 -0.3597  0.3045  0.6776
  239MOL0     O32868   1.182   9.179   3.780  0.7581 -0.0947  0.1155
  239MOL0     C32869   1.232   9.159   3.649  0.1571  0.0920 -0.2734
  239MOL0     C32870   1.294   9.261   3.580  0.8047  0.2895  0.6184
  239MOL0     C32871   1.345   9.239   3.458  0.4017 -0.4724  0.3047
  239MOL0     C32872   1.422   9.352   3.389 -0.1813  0.1577 -1.0087
  239MOL0     C32873   1.338   9.107   3.397  0.5672  0.4764 -0.0167
  239MOL0     C32874   1.403   9.070   3.266 -0.3078 -0.6563  0.1344
  239MOL0     O32875   1.451   8.946   3.263 -0.2442 -0.3057 -0.3529
  239MOL0     C32876   1.509   8.895   3.153 -0.5956 -0.3001  0.3111
  239MOL0     C32877   1.642   8.865   3.128  1.3889 -0.3527 -0.6049
  239MOL0     C32878   1.686   8.826   3.002  0.4960  0.1338 -0.1923
  239MOL0     C32879   1.599   8.820   2.895  0.0043  0.4825 -0.6053
  239MOL0     O32880   1.633   8.805   2.766  0.5845  0.7033  0.4396
  239MOL0     C32881   1.767   8.778   2.738 -1.1554  0.0137 -0.9876
  239MOL0     C32882   1.761   8.726   2.598 -0.3801  0.3214  0.0054
  239MOL0     C32883   1.904   8.685   2.553 -0.8021 -1.0040 -0.0260
  239MOL0     C32884   1.908   8.622   2.409 -0.3611 -0.6817 -0.1620
  239MOL0     C32885   2.049   8.641   2.355  0.0318 -0.4956 -0.0338
  239MOL0     C32886   2.051   8.580   2.223  0.1502 -1.2715  1.0154
  239MOL0     C32887   2.192   8.568   2.146  0.0487  0.6743 -0.4608
  239MOL0     C32888   2.261   8.705   2.094  0.4746  0.7070  1.0707
  239MOL0    Cl32889   2.424   8.686   1.997 -0.3263  0.1670 -0.1727
  239MOL0     C32890   1.463   8.837   2.928  0.0188 -0.0959  0.4579
  239MOL0     C32891   1.421   8.883   3.055 -0.6742  0.5790  0.3071
  239MOL0     O32892   1.416   9.157   3.181 -0.2857  0.1488  0.4203
  239MOL0     C32893   1.273   9.008   3.469  0.6141  0.6617  0.7206
  239MOL0     C32894   1.227   9.025   3.599 -0.4782 -0.2489  0.2314
  239MOL0     N32895   1.239   8.921   4.239  0.0817  0.0699 -0.0366
  239MOL0     N32896   1.331   8.870   4.322  0.0960  0.2516 -0.3276
  239MOL0     C32897   1.091   8.239   4.504  0.6957  0.4498  0.0250
  239MOL0     C32898   0.974   8.158   4.506 -0.1748 -0.7777  0.4284
  239MOL0     C32899   0.631   7.927   4.689  0.5499  0.6065  0.4925
  239MOL0     C32900   0.532   8.018   4.653  0.5846 -0.1863 -0.3762
  239MOL0     C32901   0.400   7.995   4.681 -0.5511 -0.0934 -0.3578
  239MOL0     C32902   0.357   7.873   4.717  0.0632  0.7808  0.9852
  239MOL0     O32903   0.220   7.856   4.723  0.5491  0.0459  0.1785
  239MOL0     C32904   0.160   7.723   4.760  0.1563  0.9808 -0.2204
  239MOL0     C32905   0.004   7.723   4.766 -0.8527 -0.9389  0.6764
  239MOL0     C32906  -0.050   7.591   4.811  0.8942 -0.0933 -0.6591
  239MOL0     C32907  -0.179   7.545   4.729 -0.0398  0.1716 -1.0257
  239MOL0     C32908  -0.276   7.654   4.718  0.2130 -0.3291 -0.1324
  239MOL0     C32909  -0.342   7.749   4.677 -0.2654  0.2393 -0.5646
  239MOL0     C32910   0.449   7.770   4.744 -0.5028 -0.5946 -0.2049
  239MOL0     C32911   0.584   7.794   4.732  0.6438 -0.7235 -0.3654
  239MOL0     C32912   0.664   7.683   4.796  0.4010 -0.4766 -0.1181
  239MOL0     H32913   0.896   8.194   4.838 -1.8198  0.8846 -0.6382
  239MOL0     H32914   1.095   8.332   4.826  2.0744  0.8064 -1.6328
  239MOL0     H32915   1.262   8.438   4.422  0.8201 -0.0070  0.7298
  239MOL0     H32916   1.378   8.311   4.475 -1.9552 -3.6600  3.9485
  239MOL0     H32917   1.388   8.614   4.477 -0.3106  0.6638 -1.0470
  239MOL0     H32918   1.469   8.529   4.613 -1.3025  0.5373 -0.1288
  239MOL0     H32919   1.572   8.392   4.400  1.4465  0.0679  1.4440
  239MOL0     H32920   1.535   8.528   4.307  1.4662  1.5592  1.2918
  239MOL0     H32921   1.717   8.536   4.559 -2.0846 -0.9943  0.0844
  239MOL0     H32922   1.768   8.553   4.392  0.6672  1.9150 -0.4632
  239MOL0     H32923   1.756   8.757   4.542 -0.9177  4.5073 -0.6710
  239MOL0     H32924   1.586   8.734   4.552 -0.7450 -2.2081  1.4170
  239MOL0     H32925   1.761   8.813   4.315  2.2378 -4.4607  1.1036
  239MOL0     H32926   1.576   8.779   4.303  0.5107 -1.5810  1.5005
  239MOL0     H32927   1.629   9.025   4.342  0.4185  0.6220  1.7364
  239MOL0     H32928   1.705   8.980   4.496  0.1533 -0.2735 -0.0207
  239MOL0     H32929   1.466   8.912   4.563  3.5580  2.3714  2.7946
  239MOL0     H32930   1.493   9.089   4.515 -3.4439  1.6617 -1.4636
  239MOL0     H32931   1.335   9.191   4.394  1.9046  1.3672 -0.1694
  239MOL0     H32932   1.148   9.259   4.240 -1.4771  1.3560 -1.1758
  239MOL0     H32933   1.059   9.137   4.156 -0.7061  1.0115  2.0953
  239MOL0     H32934   1.322   9.282   4.085 -1.0774  0.6860  1.1707
  239MOL0     H32935   1.287   9.133   4.002 -2.1128 -1.9893  2.2903
  239MOL0     H32936   1.044   9.272   3.972 -0.5601 -0.2195 -1.7672
  239MOL0     H32937   1.157   9.402   4.023  1.3617  0.0383 -0.1291
  239MOL0     H32938   1.146   9.375   3.765  1.6783 -0.8594 -2.1019
  239MOL0     H32939   1.308   9.334   3.843 -0.3951  0.9820 -0.5931
  239MOL0     H32940   1.304   9.364   3.612  1.3635  0.3170  0.3630
  239MOL0     H32941   1.436   9.437   3.457  1.9447 -1.4687  0.7171
  239MOL0     H32942   1.355   9.393   3.313 -2.5640  1.1775  1.4757
  239MOL0     H32943   1.519   9.320   3.350  1.1443  1.4887  0.9979
  239MOL0     H32944   1.716   8.875   3.207 -0.5967  1.0363  1.1550
  239MOL0     H32945   1.794   8.822   3.011  0.5669  2.1157  0.4408
  239MOL0     H32946   1.833   8.864   2.753 -0.5872 -0.4079 -1.0290
  239MOL0     H32947   1.796   8.698   2.808  2.5133  1.1536 -0.9556
  239MOL0     H32948   1.706   8.632   2.587  0.6171 -0.2098 -0.5323
  239MOL0     H32949   1.715   8.796   2.528 -2.0210  1.2909  1.9517
  239MOL0     H32950   1.969   8.626   2.618 -0.5690  1.7659  2.4551
  239MOL0     H32951   1.957   8.780   2.545 -1.4578 -0.7015 -0.9414
  239MOL0     H32952   1.831   8.657   2.340 -1.1754 -3.1648 -0.6123
  239MOL0     H32953   1.888   8.515   2.423 -0.5945 -0.5023  0.9944
  239MOL0     H32954   2.058   8.749   2.341 -4.3156 -0.0770 -1.0059
  239MOL0     H32955   2.130   8.596   2.414 -0.9278 -1.1774  0.7977
  239MOL0     H32956   1.986   8.649   2.168  0.1024 -1.0992  1.2906
  239MOL0     H32957   1.997   8.485   2.225 -2.2857 -0.0615 -1.0418
  239MOL0     H32958   2.190   8.508   2.055  0.3113  1.5410 -1.0553
  239MOL0     H32959   2.258   8.511   2.212 -1.3483  0.3777  0.7251
  239MOL0     H32960   2.288   8.776   2.173 -1.2585  2.7193 -0.0412
  239MOL0     H32961   2.190   8.774   2.046  0.6518  0.4503  0.4302
  239MOL0     H32962   1.395   8.830   2.844 -3.0411  0.0481  2.7153
  239MOL0     H32963   1.315   8.887   3.076 -0.3869  1.7418  1.6755
  239MOL0     H32964   1.272   8.906   3.431  2.4016  0.5105  1.0322
  239MOL0     H32965   1.200   8.938   3.657  0.8475 -1.1467 -0.4282
  239MOL0     H32966   1.131   8.269   4.408  1.9761 -1.5799 -0.1197
  239MOL0     H32967   0.926   8.113   4.419  1.4632 -2.1227  0.1620
  239MOL0     H32968   0.560   8.112   4.607  3.7068 -0.7676  0.1147
  239MOL0     H32969   0.335   8.080   4.662  1.6313  1.6437 -0.5370
  239MOL0     H32970   0.189   7.655   4.680 -4.4340 -1.5528 -0.0024
  239MOL0     H32971   0.195   7.687   4.857  0.3209  0.6125 -0.4132
  239MOL0     H32972  -0.023   7.752   4.664 -1.1303  1.2288  1.3124
  239MOL0     H32973  -0.020   7.806   4.832 -1.2125  1.5161 -2.2962
  239MOL0     H32974   0.027   7.515   4.791  2.4460  1.6884 -1.8034
  239MOL0     H32975  -0.076   7.594   4.917 -2.0467 -4.2075 -1.0527
  239MOL0     H32976  -0.232   7.457   4.765 -0.3701  0.9364  0.4435
  239MOL0     H32977  -0.143   7.512   4.632  0.8558 -3.5395  0.3856
  239MOL0     H32978  -0.387   7.838   4.638 -1.2115  1.9998  3.9374
  239MOL0     H32979   0.411   7.671   4.766 -4.7062  0.6336 -1.0414
  239MOL0     H32980   0.665   7.693   4.904 -2.4619  0.3380 -0.0806
  239MOL0     H32981   0.628   7.585   4.765 -0.6342 -0.1924  0.1294
  239MOL0     H32982   0.770   7.688   4.771  0.2182 -0.4545 -0.9349
  240MOL0     O32983   3.800   0.407   9.022  0.6442 -0.7427  0.3684
  240MOL0     C32984   3.902   0.464   8.998 -0.3377 -0.1868  0.1473
  240MOL0     O32985   4.019   0.434   9.069 -0.7615  0.7052 -0.3089
  240MOL0     C32986   4.011   0.316   9.136 -0.3874  0.0722 -0.0087
  240MOL0     C32987   3.941   0.309   9.258 -0.2354  0.0096 -0.0967
  240MOL0     C32988   3.939   0.190   9.337  0.7967 -0.3375  0.5643
  240MOL0     C32989   3.997   0.071   9.290 -0.0888  0.6154  0.7229
  240MOL0     O32990   3.981  -0.046   9.370 -0.9839 -0.7768 -0.9457
  240MOL0     C32991   3.889  -0.056   9.477  0.0948 -1.0357 -0.6854
  240MOL0     C32992   3.878  -0.192   9.517 -0.1973  0.0312 -0.6811
  240MOL0     C32993   3.784  -0.216   9.634 -0.0342  0.6672 -0.8495
  240MOL0     C32994   3.861  -0.180   9.758  0.0656  0.5550  0.7751
  240MOL0     C32995   3.795  -0.228   9.892  0.6393  0.0310  0.1153
  240MOL0     C32996   3.895  -0.215  10.007 -0.3890  0.0944 -0.5067
  240MOL0     C32997   3.934  -0.348  10.082  0.0107 -0.5596  0.5959
  240MOL0     C32998   4.039  -0.339  10.187  0.4281  0.6183 -0.3441
  240MOL0     N32999   4.161  -0.263  10.151  0.2659 -0.6531  0.5950
  240MOL0     C33000   4.173  -0.123  10.154  0.8212 -0.9791 -0.2322
  240MOL0     C33001   4.300  -0.103  10.117 -0.5231  0.1070  0.6055
  240MOL0     C33002   4.352   0.033  10.073  0.0984 -0.7187 -0.5871
  240MOL0     C33003   4.408   0.034   9.928  0.2385  0.9480 -0.0997
  240MOL0     C33004   4.486   0.163   9.924 -0.3978  0.2151 -0.1979
  240MOL0     C33005   4.555   0.177   9.785 -0.4540  0.2652  0.2819
  240MOL0     O33006   4.685   0.233   9.790  0.0650 -0.7987  0.1110
  240MOL0     C33007   4.731   0.303   9.685 -0.1297 -0.4119  0.4539
  240MOL0     C33008   4.868   0.298   9.663 -1.1082 -0.9054 -0.1268
  240MOL0     C33009   4.943   0.375   9.575 -0.3470  0.6569  0.9554
  240MOL0     C33010   5.091   0.354   9.570  1.0181 -0.0165 -0.1638
  240MOL0     C33011   4.870   0.458   9.485 -0.0088  0.6876  0.4829
  240MOL0     C33012   4.924   0.539   9.373  0.9323  0.3376  0.4984
  240MOL0     O33013   4.838   0.621   9.309  0.3336  0.6001 -0.3092
  240MOL0     C33014   4.869   0.669   9.190 -0.4276  0.2499  1.0523
  240MOL0     C33015   4.824   0.805   9.172  0.1664  0.0407  0.2219
  240MOL0     C33016   4.844   0.865   9.053 -0.5596 -1.1610  1.0733
  240MOL0     C33017   4.902   0.801   8.942  0.0785 -1.0875  1.0973
  240MOL0     O33018   4.918   0.868   8.824 -0.0394 -0.1991 -0.9977
  240MOL0     C33019   4.936   0.788   8.701 -0.5085 -0.7247  1.1321
  240MOL0     C33020   4.939   0.883   8.577  0.0812  0.4283 -0.6695
  240MOL0     C33021   4.905   0.808   8.448  0.3126  0.4337  0.5905
  240MOL0     C33022   4.937   0.904   8.332 -0.8392 -0.0573  0.8272
  240MOL0     C33023   5.079   0.913   8.294 -0.2849  0.1232  0.3812
  240MOL0     C33024   5.121   1.015   8.189  0.3614 -0.5473  0.1483
  240MOL0     C33025   5.073   0.956   8.049  0.1928 -0.6628  0.5407
  240MOL0     C33026   5.037   1.066   7.942 -0.2332 -0.9880  0.1479
  240MOL0    Cl33027   4.970   0.990   7.793  0.4422  0.2087  0.1897
  240MOL0     C33028   4.946   0.668   8.960 -0.4981  0.7800  0.6278
  240MOL0     C33029   4.935   0.603   9.082  0.5034 -0.7759  0.6248
  240MOL0     O33030   5.043   0.519   9.340 -0.4989  0.3886 -0.1295
  240MOL0     C33031   4.727   0.467   9.509  0.5551  0.7810 -0.9722
  240MOL0     C33032   4.662   0.403   9.621  0.1947  0.3684  0.3547
  240MOL0     N33033   4.363  -0.219  10.088  0.6097  0.4759  0.0895
  240MOL0     N33034   4.280  -0.313  10.122  1.1155  0.1616  0.2954
  240MOL0     C33035   4.062   0.079   9.166  0.8226 -0.3553  0.4307
  240MOL0     C33036   4.070   0.198   9.096 -0.4411 -0.6595  0.0057
  240MOL0     C33037   3.911   0.593   8.926 -0.2655 -0.3101  0.1581
  240MOL0     C33038   4.036   0.658   8.913 -0.5999 -0.7791 -0.3608
  240MOL0     C33039   4.041   0.779   8.846 -0.6044 -0.4480 -0.6721
  240MOL0     C33040   3.935   0.838   8.782  0.8226  0.1927  0.0272
  240MOL0     O33041   3.964   0.963   8.715 -0.0938  0.2633  0.0252
  240MOL0     C33042   3.991   1.074   8.797 -0.7551 -0.3348  0.9957
  240MOL0     C33043   4.025   1.197   8.711  0.3944  0.0165 -0.1044
  240MOL0     C33044   4.112   1.301   8.779  0.0157  0.1565  0.3637
  240MOL0     C33045   4.061   1.362   8.920 -0.7043  0.3572 -0.1894
  240MOL0     C33046   3.945   1.452   8.886 -0.3712  0.0929  0.3972
  240MOL0     C33047   3.858   1.523   8.849  1.0038 -0.6950 -0.5321
  240MOL0     C33048   3.816   0.774   8.774  0.3749 -0.2412 -0.3214
  240MOL0     C33049   3.808   0.649   8.839  0.1982 -0.2680 -0.9347
  240MOL0     C33050   3.665   0.590   8.825 -0.1460  0.8731  0.0733
  240MOL0     H33051   3.893   0.399   9.296  0.6955  0.4624  0.0313
  240MOL0     H33052   3.894   0.211   9.433  1.4541  3.8870  0.1800
  240MOL0     H33053   3.801  -0.025   9.421  1.8137 -1.1951 -3.7059
  240MOL0     H33054   3.904   0.007   9.565 -1.3270  0.1968 -1.2820
  240MOL0     H33055   3.832  -0.241   9.431  1.1769  0.8855 -1.9459
  240MOL0     H33056   3.969  -0.252   9.526 -0.6658 -0.7836 -1.2745
  240MOL0     H33057   3.692  -0.159   9.616 -2.7471 -1.7215  3.6137
  240MOL0     H33058   3.740  -0.316   9.624 -0.6364  1.0634 -2.5074
  240MOL0     H33059   3.962  -0.220   9.766  0.6877  2.2404  2.1841
  240MOL0     H33060   3.879  -0.073   9.770  2.8571  0.0889  1.5576
  240MOL0     H33061   3.762  -0.332   9.885 -0.4160  0.1316  2.5142
  240MOL0     H33062   3.708  -0.169   9.923  1.1482  0.7279  0.2402
  240MOL0     H33063   3.993  -0.173   9.982 -0.4756 -0.8128 -2.5475
  240MOL0     H33064   3.845  -0.152  10.081 -2.0374 -1.0721 -0.5799
  240MOL0     H33065   3.968  -0.414  10.002 -1.6748 -0.3277 -0.3502
  240MOL0     H33066   3.837  -0.383  10.119 -2.0649  0.2932 -3.5207
  240MOL0     H33067   4.002  -0.298  10.282  1.4438 -3.3699  2.0076
  240MOL0     H33068   4.073  -0.438  10.217  0.8796  0.6562 -0.7287
  240MOL0     H33069   4.096  -0.051  10.178  0.8270 -1.2863  0.7737
  240MOL0     H33070   4.442   0.044  10.135  0.5687 -0.2562 -1.3369
  240MOL0     H33071   4.279   0.112  10.092 -1.1094 -1.5384 -1.6731
  240MOL0     H33072   4.461  -0.060   9.911 -2.9044 -1.1738  0.8611
  240MOL0     H33073   4.327   0.030   9.855  2.3326 -2.5200 -2.4916
  240MOL0     H33074   4.428   0.253   9.944 -0.6242  0.6645 -2.5909
  240MOL0     H33075   4.558   0.151  10.006  1.3378 -1.5455 -1.8780
  240MOL0     H33076   4.587   0.085   9.735 -0.2504  1.9008 -2.8682
  240MOL0     H33077   4.501   0.238   9.711  0.9191  0.5805 -0.5073
  240MOL0     H33078   4.926   0.231   9.726 -2.2772 -0.2194  1.7861
  240MOL0     H33079   5.141   0.277   9.630  0.8849 -0.1433 -0.2128
  240MOL0     H33080   5.134   0.453   9.588 -0.2129  0.8593 -1.7805
  240MOL0     H33081   5.121   0.316   9.472  0.2334 -1.9017  0.2749
  240MOL0     H33082   4.792   0.854   9.263  0.3266 -1.5345  1.1585
  240MOL0     H33083   4.814   0.969   9.041 -1.0345 -1.3916  0.1653
  240MOL0     H33084   5.027   0.727   8.712  0.5727  0.0831 -2.2322
  240MOL0     H33085   4.850   0.721   8.699 -0.1400 -1.2356  1.6618
  240MOL0     H33086   4.868   0.963   8.600  2.6064  2.4436  0.7023
  240MOL0     H33087   5.040   0.923   8.569 -0.1225  1.1051 -0.0182
  240MOL0     H33088   4.799   0.785   8.460  0.5907  0.2428  3.4836
  240MOL0     H33089   4.968   0.721   8.430  1.6584  2.0315 -3.8255
  240MOL0     H33090   4.901   1.005   8.349  2.5535  2.0635 -2.8370
  240MOL0     H33091   4.886   0.871   8.241  0.5131 -3.2295  1.0658
  240MOL0     H33092   5.135   0.938   8.384  0.5545 -0.8691  0.1607
  240MOL0     H33093   5.118   0.817   8.258  2.4581  1.4335 -0.4162
  240MOL0     H33094   5.229   1.034   8.193  0.1817  0.3146  1.0584
  240MOL0     H33095   5.080   1.116   8.200 -1.4050 -1.3996  1.9908
  240MOL0     H33096   4.978   0.903   8.056  0.8590 -1.8048  1.3227
  240MOL0     H33097   5.158   0.895   8.016 -1.3336 -0.3800 -4.7073
  240MOL0     H33098   5.123   1.133   7.935 -1.5557  0.6663 -0.7913
  240MOL0     H33099   4.955   1.123   7.986  0.3911 -0.1372  0.2350
  240MOL0     H33100   4.980   0.602   8.881  1.8813 -1.5827  3.3616
  240MOL0     H33101   4.969   0.502   9.100 -0.4787 -1.3919 -0.7567
  240MOL0     H33102   4.662   0.542   9.467 -0.7666 -0.5176 -1.3551
  240MOL0     H33103   4.560   0.427   9.651  0.0364  2.8376 -1.7305
  240MOL0     H33104   4.123  -0.004   9.132  1.8434 -0.0620  1.4841
  240MOL0     H33105   4.129   0.188   9.005  1.5083 -0.4150  1.1766
  240MOL0     H33106   4.122   0.614   8.963  0.4021  1.0359 -0.4055
  240MOL0     H33107   4.134   0.831   8.827 -1.8481  0.6107 -4.6593
  240MOL0     H33108   3.903   1.107   8.851 -1.3450  0.2055 -0.2513
  240MOL0     H33109   4.085   1.062   8.851  1.6488  1.1480 -2.4446
  240MOL0     H33110   3.929   1.244   8.689 -0.2927 -0.1456  2.2812
  240MOL0     H33111   4.052   1.161   8.612 -0.2607 -1.2602  0.1646
  240MOL0     H33112   4.207   1.248   8.789 -1.1730 -1.8703  1.6436
  240MOL0     H33113   4.120   1.385   8.709 -1.0006  1.5401  1.8421
  240MOL0     H33114   4.136   1.420   8.976 -1.7308  1.6340 -0.0744
  240MOL0     H33115   4.032   1.278   8.984  1.1838  0.7181  1.2166
  240MOL0     H33116   3.776   1.584   8.818 -0.6069 -2.3275  0.2955
  240MOL0     H33117   3.743   0.820   8.709 -1.4263 -0.1819  1.6298
  240MOL0     H33118   3.597   0.646   8.761  0.7200  0.3179 -1.3932
  240MOL0     H33119   3.677   0.495   8.773 -1.5608  0.5671  0.2670
  240MOL0     H33120   3.625   0.586   8.927 -2.5229 -0.4273 -0.8578
  241MOL0     O33121   5.401   1.381   6.514  0.3430 -0.2939  0.9013
  241MOL0     C33122   5.356   1.488   6.557  0.0482  0.6748  0.0983
  241MOL0     O33123   5.353   1.528   6.687 -0.0063 -0.2961 -1.1019
  241MOL0     C33124   5.391   1.445   6.782 -0.3137 -0.3948 -0.4599
  241MOL0     C33125   5.318   1.319   6.802  0.0744 -0.8906  0.0871
  241MOL0     C33126   5.352   1.233   6.908  0.3129  1.0638 -0.3708
  241MOL0     C33127   5.459   1.261   6.990  0.7612  0.0126  0.1472
  241MOL0     O33128   5.504   1.185   7.091  0.4247 -0.3381 -0.2147
  241MOL0     C33129   5.589   1.076   7.056  0.2858 -0.3874 -0.1776
  241MOL0     C33130   5.727   1.128   7.027 -0.5691 -0.8015  0.0203
  241MOL0     C33131   5.800   1.192   7.146 -0.6997  0.4436 -0.4361
  241MOL0     C33132   5.935   1.252   7.111 -0.4669  0.0343 -0.4848
  241MOL0     C33133   5.968   1.370   7.214  0.9300  0.8737  0.3077
  241MOL0     C33134   5.931   1.495   7.149  0.6204  0.1202  0.5784
  241MOL0     C33135   5.925   1.600   7.251  0.2462 -1.1205 -0.1110
  241MOL0     C33136   5.845   1.719   7.205 -0.4734  0.4514 -0.2980
  241MOL0     N33137   5.905   1.786   7.088 -0.1103 -0.3010  0.6591
  241MOL0     C33138   5.977   1.905   7.083 -0.4098 -0.2069  0.4874
  241MOL0     C33139   6.004   1.911   6.953 -0.0204 -0.3060 -0.3429
  241MOL0     C33140   6.074   2.019   6.881  0.9454 -0.0841  0.9244
  241MOL0     C33141   5.967   2.124   6.866  0.1384 -0.1117  0.0331
  241MOL0     C33142   6.040   2.252   6.806  0.5932 -0.5066 -0.0957
  241MOL0     C33143   5.936   2.355   6.752  1.1513 -0.1050 -0.9223
  241MOL0     O33144   5.994   2.453   6.671 -0.0843 -0.4945 -0.4253
  241MOL0     C33145   6.022   2.576   6.722 -0.8348  0.6153 -1.4789
  241MOL0     C33146   6.050   2.677   6.635 -0.6852  1.2212  0.2262
  241MOL0     C33147   6.071   2.808   6.675 -0.7204 -0.1821  0.0028
  241MOL0     C33148   6.113   2.907   6.565 -0.3391  0.4392  0.2138
  241MOL0     C33149   6.076   2.849   6.815  0.6031  0.9300 -0.8348
  241MOL0     C33150   6.093   2.987   6.872 -0.1499  0.2681 -0.0775
  241MOL0     O33151   6.086   2.995   7.012  0.1897  0.0550 -0.4894
  241MOL0     C33152   6.071   3.126   7.060 -1.0841  0.1876 -0.0494
  241MOL0     C33153   5.960   3.152   7.143 -0.0290  1.0557 -0.5081
  241MOL0     C33154   5.929   3.278   7.186 -0.0732 -0.0238  0.3182
  241MOL0     C33155   6.015   3.379   7.150  0.1911 -1.6292  0.1164
  241MOL0     O33156   5.999   3.513   7.188 -0.4559 -0.3982  0.1113
  241MOL0     C33157   5.945   3.533   7.314  0.0866 -0.4931 -0.0104
  241MOL0     C33158   5.939   3.680   7.363  0.6883 -0.0942 -0.2557
  241MOL0     C33159   5.886   3.769   7.254  0.1935 -0.1858  0.3148
  241MOL0     C33160   5.818   3.910   7.307  0.1561  0.0555  0.9222
  241MOL0     C33161   5.887   4.015   7.219  0.5358 -0.7700 -0.4477
  241MOL0     C33162   5.835   4.156   7.261  0.0591 -0.1541 -1.0803
  241MOL0     C33163   5.926   4.283   7.209  0.3749  0.5100  0.3421
  241MOL0     C33164   5.959   4.269   7.059 -0.5908  0.6123  0.6617
  241MOL0    Cl33165   6.046   4.409   6.965 -0.2336 -0.0185 -0.2342
  241MOL0     C33166   6.132   3.356   7.078  0.1032 -0.8917  0.0490
  241MOL0     C33167   6.161   3.233   7.026 -0.1683  0.7296  0.1899
  241MOL0     O33168   6.081   3.081   6.793 -0.2894 -0.7787  0.6251
  241MOL0     C33169   6.055   2.745   6.901 -0.3713 -0.1305 -0.6080
  241MOL0     C33170   6.033   2.611   6.859 -0.5129  0.1858  0.5914
  241MOL0     N33171   5.964   1.804   6.877 -0.3060  1.0655 -0.0804
  241MOL0     N33172   5.885   1.736   6.960  0.2932  0.1880  0.7960
  241MOL0     C33173   5.522   1.384   6.976  0.0684 -0.1676 -0.1900
  241MOL0     C33174   5.484   1.476   6.874 -0.3269 -0.0774 -0.1683
  241MOL0     C33175   5.316   1.594   6.461  0.1771  0.7631 -0.3845
  241MOL0     C33176   5.379   1.609   6.342 -0.1676  0.5678  0.8250
  241MOL0     C33177   5.344   1.705   6.246  0.6113 -0.2085 -0.2298
  241MOL0     C33178   5.231   1.791   6.268 -0.1766 -0.3066  0.9494
  241MOL0     O33179   5.197   1.901   6.191 -0.0646  0.1768 -0.5277
  241MOL0     C33180   5.295   1.951   6.095 -0.6679  0.3106 -0.0736
  241MOL0     C33181   5.388   2.042   6.168 -0.1621  1.1165 -0.8092
  241MOL0     C33182   5.320   2.183   6.196  0.6679 -0.0690  0.5150
  241MOL0     C33183   5.368   2.286   6.091  0.5724 -0.5319  0.7101
  241MOL0     C33184   5.341   2.263   5.941  0.3123 -0.1683 -0.3491
  241MOL0     C33185   5.335   2.245   5.821  0.7192 -0.1934 -0.4093
  241MOL0     C33186   5.163   1.764   6.389  0.5990  0.3703 -0.2843
  241MOL0     C33187   5.202   1.667   6.486  0.6119  0.1168 -0.1586
  241MOL0     C33188   5.116   1.673   6.601 -0.5598 -0.1493  0.4503
  241MOL0     H33189   5.242   1.288   6.730  0.8877 -2.7813  0.0027
  241MOL0     H33190   5.305   1.137   6.924 -0.7721  1.4689 -1.0188
  241MOL0     H33191   5.537   1.022   6.976  0.6925  1.9981 -2.1823
  241MOL0     H33192   5.596   1.013   7.145  0.9189  2.2316  1.7556
  241MOL0     H33193   5.790   1.041   7.004  1.3088  0.8587 -1.6242
  241MOL0     H33194   5.716   1.188   6.936  1.7143  1.4339  1.0898
  241MOL0     H33195   5.734   1.273   7.179 -0.7782 -0.0635  0.6792
  241MOL0     H33196   5.793   1.115   7.223 -3.9084 -1.0193 -2.0361
  241MOL0     H33197   6.011   1.174   7.121  1.1061  1.5636 -0.0235
  241MOL0     H33198   5.948   1.284   7.007  1.6344  0.4375 -0.1551
  241MOL0     H33199   6.072   1.350   7.242 -0.1941 -3.7544  2.1183
  241MOL0     H33200   5.916   1.357   7.310 -0.0197  1.8703 -0.0517
  241MOL0     H33201   6.005   1.524   7.073  0.0641 -1.5514 -0.6852
  241MOL0     H33202   5.833   1.490   7.100  0.7226  1.3776  0.2269
  241MOL0     H33203   6.024   1.640   7.270 -0.8483  1.7278  0.1128
  241MOL0     H33204   5.873   1.558   7.338 -1.9192  3.2476  0.9984
  241MOL0     H33205   5.740   1.695   7.185 -0.5298 -1.7047  2.0599
  241MOL0     H33206   5.851   1.792   7.287 -1.5622 -0.7767  0.9153
  241MOL0     H33207   6.014   1.973   7.159  1.8106  1.0410 -1.5786
  241MOL0     H33208   6.114   1.990   6.783  1.2733 -0.8126  1.2717
  241MOL0     H33209   6.156   2.059   6.940  0.1013  2.1710  0.6811
  241MOL0     H33210   5.877   2.091   6.813  0.1530  0.7901 -0.5655
  241MOL0     H33211   5.942   2.158   6.967  1.1144  0.4503  0.0972
  241MOL0     H33212   6.109   2.292   6.881 -0.7870 -4.9898  4.0491
  241MOL0     H33213   6.098   2.227   6.716 -0.3458  1.7165 -1.4138
  241MOL0     H33214   5.869   2.297   6.688 -0.1685 -1.5492  1.6260
  241MOL0     H33215   5.878   2.391   6.837  3.1163 -0.1067  0.4976
  241MOL0     H33216   6.038   2.651   6.530 -0.5791 -1.2117  0.7599
  241MOL0     H33217   6.138   2.845   6.479  0.9797 -1.9500  2.2052
  241MOL0     H33218   6.208   2.954   6.592 -0.3011 -0.0012  0.8669
  241MOL0     H33219   6.031   2.980   6.557 -0.0866  0.9068  1.6619
  241MOL0     H33220   5.894   3.073   7.179  0.9448  0.1008 -0.7599
  241MOL0     H33221   5.836   3.301   7.236  0.6060  1.7715  0.8161
  241MOL0     H33222   5.844   3.492   7.311 -0.0909  0.0182 -2.3973
  241MOL0     H33223   6.000   3.473   7.387  0.4523  0.9464  0.9411
  241MOL0     H33224   5.879   3.691   7.453 -0.2599 -0.5838 -0.8145
  241MOL0     H33225   6.040   3.722   7.370  0.1476  1.2495 -0.2286
  241MOL0     H33226   5.806   3.714   7.202  0.8012  0.2541 -1.1205
  241MOL0     H33227   5.949   3.786   7.166  1.5708  0.4042  1.3986
  241MOL0     H33228   5.815   3.932   7.414 -2.4435 -0.7632  1.0942
  241MOL0     H33229   5.712   3.913   7.279  0.1350  0.5806  1.0479
  241MOL0     H33230   5.995   4.006   7.233  0.6743 -1.9801 -1.9498
  241MOL0     H33231   5.861   3.992   7.115 -1.8033 -3.4673  0.5839
  241MOL0     H33232   5.841   4.167   7.370  0.6926 -0.2362 -1.1047
  241MOL0     H33233   5.729   4.165   7.236  0.0295  0.2706 -0.8102
  241MOL0     H33234   6.014   4.294   7.273  1.7078 -0.9635 -1.1144
  241MOL0     H33235   5.872   4.377   7.220  2.1158  2.1644 -3.3890
  241MOL0     H33236   5.866   4.237   7.010 -2.1789  1.4384  2.9722
  241MOL0     H33237   6.025   4.182   7.060 -2.4490 -0.9797 -1.9710
  241MOL0     H33238   6.200   3.435   7.052 -0.5780 -0.3928 -0.2482
  241MOL0     H33239   6.241   3.196   6.962 -1.8937 -2.3798 -0.3917
  241MOL0     H33240   6.061   2.761   7.008  0.5256  2.2350 -0.9697
  241MOL0     H33241   6.013   2.539   6.938  0.4974  1.9480  2.5845
  241MOL0     H33242   5.589   1.412   7.057 -0.0583  0.2468 -0.2231
  241MOL0     H33243   5.516   1.579   6.883 -1.8805  0.4118  0.0428
  241MOL0     H33244   5.471   1.553   6.332 -0.8905 -0.2220 -4.3554
  241MOL0     H33245   5.412   1.697   6.162  1.2507  0.6920  0.1829
  241MOL0     H33246   5.356   1.867   6.060 -0.2072 -1.0321  3.5774
  241MOL0     H33247   5.254   1.991   6.002 -1.5621 -1.4649 -0.5018
  241MOL0     H33248   5.465   2.045   6.090  1.2179 -2.1617  0.2876
  241MOL0     H33249   5.425   1.992   6.257 -3.1898 -0.1279 -0.1161
  241MOL0     H33250   5.212   2.178   6.182  0.5153  2.4778  0.3591
  241MOL0     H33251   5.345   2.224   6.294 -1.0844  2.1333  0.1229
  241MOL0     H33252   5.475   2.291   6.112  0.3080 -0.0526  2.0668
  241MOL0     H33253   5.315   2.378   6.119  1.0383 -0.1546  0.3530
  241MOL0     H33254   5.323   2.233   5.715  0.1379 -1.6834 -0.1972
  241MOL0     H33255   5.085   1.832   6.421  1.5143  1.5872 -0.5520
  241MOL0     H33256   5.172   1.721   6.682 -3.1715  2.7499  0.7049
  241MOL0     H33257   5.023   1.729   6.590 -0.7842 -0.7633 -1.1063
  241MOL0     H33258   5.100   1.570   6.635 -0.5848 -0.0297  0.8067
  242MOL0     O33259  10.045   6.293  11.180  0.3250 -0.3057  0.2823
  242MOL0     C33260  10.070   6.311  11.299 -0.2448  1.2531 -0.7037
  242MOL0     O33261  10.010   6.251  11.401  0.0369 -0.0662 -0.1614
  242MOL0     C33262   9.890   6.183  11.383 -0.8523  0.1079 -0.5590
  242MOL0     C33263   9.856   6.079  11.468 -0.0843  0.1118  0.3178
  242MOL0     C33264   9.736   6.018  11.458 -0.5819 -0.3886  0.3820
  242MOL0     C33265   9.633   6.066  11.376  0.9385 -0.4340  0.7315
  242MOL0     O33266   9.505   6.001  11.366 -0.5922 -0.4552 -0.1614
  242MOL0     C33267   9.399   6.070  11.297  0.5338 -0.1268  0.0970
  242MOL0     C33268   9.267   6.007  11.341  0.3435  0.5912  0.0353
  242MOL0     C33269   9.277   5.854  11.336 -0.5513 -0.5961  0.2611
  242MOL0     C33270   9.138   5.794  11.288 -0.3764 -0.6970 -0.0840
  242MOL0     C33271   9.022   5.791  11.399 -0.2952 -0.4738 -0.7404
  242MOL0     C33272   9.063   5.715  11.532 -0.4732 -0.1352  0.7356
  242MOL0     C33273   8.953   5.724  11.630  0.7845  0.4878 -0.3014
  242MOL0     C33274   9.010   5.685  11.763  0.6680 -0.3377 -0.1343
  242MOL0     N33275   8.922   5.716  11.872 -0.9290 -0.9489  0.8269
  242MOL0     C33276   8.871   5.837  11.902 -0.1627 -0.3291  1.2638
  242MOL0     C33277   8.776   5.816  11.991 -0.3907  0.1828  0.5813
  242MOL0     C33278   8.687   5.905  12.062 -0.0882 -1.1117  0.6988
  242MOL0     C33279   8.549   5.896  11.997  0.4418 -0.3930  0.4625
  242MOL0     C33280   8.558   5.939  11.851  0.2611 -0.0868  0.4707
  242MOL0     C33281   8.414   5.956  11.804 -0.0548 -0.4854  0.4972
  242MOL0     O33282   8.355   6.073  11.871 -0.3814 -0.1803  0.1024
  242MOL0     C33283   8.220   6.098  11.863  0.2164 -0.5666  0.2299
  242MOL0     C33284   8.139   6.028  11.769  0.2058  1.0323 -0.0586
  242MOL0     C33285   8.007   6.069  11.737  0.1427 -1.2112 -0.5016
  242MOL0     C33286   7.939   6.022  11.609 -0.4388  0.3285 -0.3975
  242MOL0     C33287   7.952   6.175  11.819  1.0378 -0.0329  0.2628
  242MOL0     C33288   7.811   6.223  11.822  0.4180  0.2221 -0.2467
  242MOL0     O33289   7.714   6.143  11.760  0.3542  0.2016  0.1496
  242MOL0     C33290   7.580   6.171  11.764  0.1190  0.4738  0.7403
  242MOL0     C33291   7.540   6.289  11.703  0.5534 -0.6886 -0.6096
  242MOL0     C33292   7.400   6.323  11.701 -0.9260  0.0651 -0.4449
  242MOL0     C33293   7.306   6.245  11.770  0.3861 -0.0091  0.0833
  242MOL0     O33294   7.178   6.294  11.776  0.1634 -0.1996 -0.6326
  242MOL0     C33295   7.091   6.225  11.864 -0.0834  0.3271  0.1080
  242MOL0     C33296   6.971   6.314  11.894  0.4356 -0.4159  0.5210
  242MOL0     C33297   6.872   6.312  11.774 -0.2155 -0.0299 -0.0772
  242MOL0     C33298   6.768   6.437  11.780 -0.3586 -0.3155 -0.7499
  242MOL0     C33299   6.654   6.412  11.873  0.4081 -1.5174  0.0616
  242MOL0     C33300   6.553   6.524  11.873 -0.1316 -0.1491 -0.0813
  242MOL0     C33301   6.471   6.544  11.739 -0.7170 -0.4086  0.5514
  242MOL0     C33302   6.466   6.424  11.642 -0.5445  0.9320  0.3483
  242MOL0    Cl33303   6.328   6.318  11.676 -0.0990  0.0212 -0.1638
  242MOL0     C33304   7.351   6.118  11.825  0.0832  0.1853  0.9045
  242MOL0     C33305   7.488   6.093  11.825  1.0127  0.4645 -0.9907
  242MOL0     O33306   7.789   6.333  11.871 -0.5833  0.3240 -0.1631
  242MOL0     C33307   8.040   6.230  11.909  0.0261 -0.6412  0.4847
  242MOL0     C33308   8.175   6.202  11.919  1.0472  0.0265 -0.4649
  242MOL0     N33309   8.765   5.679  12.009 -0.8560  0.2075 -0.2710
  242MOL0     N33310   8.849   5.619  11.930 -0.0302  0.6857 -0.1660
  242MOL0     C33311   9.659   6.173  11.284  0.6597  0.2503 -0.3032
  242MOL0     C33312   9.787   6.231  11.294  1.2332 -0.6616 -1.0026
  242MOL0     C33313  10.175   6.410  11.336 -0.3319  0.4324 -0.4406
  242MOL0     C33314  10.278   6.432  11.241 -0.0521 -0.2041 -0.2406
  242MOL0     C33315  10.374   6.541  11.260  1.0017 -0.1084 -0.8426
  242MOL0     C33316  10.376   6.603  11.381 -0.2886  0.6764 -0.5893
  242MOL0     O33317  10.477   6.689  11.389 -0.4358  0.5757  0.3700
  242MOL0     C33318  10.525   6.728  11.514 -0.3370  0.1152 -0.2771
  242MOL0     C33319  10.472   6.862  11.569 -0.4651  0.1543 -0.4353
  242MOL0     C33320  10.491   6.879  11.725  0.2264  0.5312  0.1422
  242MOL0     C33321  10.413   6.788  11.809 -0.7927 -0.5667 -0.6811
  242MOL0     C33322  10.279   6.841  11.835  0.9083 -0.3719  0.2677
  242MOL0     C33323  10.164   6.886  11.847 -0.7024  0.7764 -0.3498
  242MOL0     C33324  10.274   6.581  11.478  0.4682  0.5904 -0.6766
  242MOL0     C33325  10.173   6.489  11.455 -0.1747  0.2874 -0.6092
  242MOL0     C33326  10.062   6.470  11.559  0.6948  0.0332 -0.0161
  242MOL0     H33327   9.920   6.046  11.549  0.7215  1.4392  0.2557
  242MOL0     H33328   9.718   5.927  11.515  0.9307 -0.6473  0.5090
  242MOL0     H33329   9.417   6.056  11.190  0.9368 -0.1002  0.1593
  242MOL0     H33330   9.393   6.177  11.319 -3.0305 -0.6040  2.2037
  242MOL0     H33331   9.233   6.044  11.438  3.0105  2.6596  0.3076
  242MOL0     H33332   9.199   6.049  11.265  2.3465  3.5676 -0.2684
  242MOL0     H33333   9.358   5.827  11.267 -1.0371  0.5161 -0.7853
  242MOL0     H33334   9.314   5.813  11.430  4.6806 -0.6605 -1.5009
  242MOL0     H33335   9.088   5.845  11.205 -1.2136  0.1338  0.9061
  242MOL0     H33336   9.168   5.695  11.254 -2.2733 -0.8728 -1.3938
  242MOL0     H33337   8.933   5.746  11.353 -2.2315  1.3808  0.9716
  242MOL0     H33338   9.004   5.895  11.428 -0.0925 -0.0954 -1.8820
  242MOL0     H33339   9.095   5.613  11.509  2.6361  1.0715 -0.9656
  242MOL0     H33340   9.153   5.766  11.568 -0.1619 -0.9007  1.0706
  242MOL0     H33341   8.861   5.667  11.614  0.1556  0.8179  1.8954
  242MOL0     H33342   8.922   5.829  11.632  0.7389  0.4807 -0.5314
  242MOL0     H33343   9.034   5.579  11.773  1.0043 -0.1138  1.8174
  242MOL0     H33344   9.106   5.735  11.783  0.0932  0.9463 -0.4583
  242MOL0     H33345   8.901   5.934  11.863  0.9493 -2.4679 -4.0068
  242MOL0     H33346   8.717   6.006  12.032 -1.0202 -1.6890 -2.6045
  242MOL0     H33347   8.656   5.899  12.166 -0.6043  0.7629  0.6850
  242MOL0     H33348   8.520   5.791  12.003  2.2954 -0.8971  5.3814
  242MOL0     H33349   8.477   5.956  12.055  1.1295  0.2048  0.7112
  242MOL0     H33350   8.619   6.026  11.825  0.2951  0.0057  0.8488
  242MOL0     H33351   8.596   5.856  11.792 -1.9517  0.4646 -1.9045
  242MOL0     H33352   8.423   5.970  11.696  4.1550  0.7501  0.8487
  242MOL0     H33353   8.352   5.867  11.821 -1.3637  0.2929 -0.0753
  242MOL0     H33354   8.186   5.952  11.706  1.2231  0.2979  1.5225
  242MOL0     H33355   7.933   5.913  11.613  0.4940  0.2518 -0.7402
  242MOL0     H33356   8.007   6.044  11.525  0.4390  0.5307  0.3556
  242MOL0     H33357   7.842   6.068  11.588 -1.0270 -0.5755  0.2861
  242MOL0     H33358   7.621   6.349  11.663 -2.9852  4.0338 -1.7272
  242MOL0     H33359   7.368   6.422  11.671  2.3012  1.5788  0.6311
  242MOL0     H33360   7.064   6.129  11.819 -2.7564  1.2540 -0.4734
  242MOL0     H33361   7.147   6.198  11.954  0.1184 -0.7571 -0.3221
  242MOL0     H33362   6.919   6.292  11.988 -1.7325 -0.9038 -0.7157
  242MOL0     H33363   7.005   6.417  11.905 -3.2106  0.9702  0.2398
  242MOL0     H33364   6.835   6.210  11.765  1.1941 -0.4083 -2.9745
  242MOL0     H33365   6.931   6.308  11.681 -2.3364 -2.0987 -1.4613
  242MOL0     H33366   6.734   6.452  11.678 -1.4044 -1.1383 -0.5434
  242MOL0     H33367   6.819   6.528  11.814  0.1410 -0.8478 -0.0350
  242MOL0     H33368   6.605   6.319  11.843 -0.3769 -0.9206 -0.5510
  242MOL0     H33369   6.694   6.398  11.974  1.0695  1.2598  0.2699
  242MOL0     H33370   6.597   6.618  11.907 -2.3337  0.4510  1.3023
  242MOL0     H33371   6.483   6.497  11.953 -0.8681 -1.2979 -1.0729
  242MOL0     H33372   6.506   6.630  11.681  3.0199 -2.0075  0.1408
  242MOL0     H33373   6.364   6.558  11.756 -0.6906  3.5938 -1.3430
  242MOL0     H33374   6.559   6.367  11.649 -0.7516 -0.2754 -3.9973
  242MOL0     H33375   6.456   6.462  11.540  1.3349 -1.6872 -0.9263
  242MOL0     H33376   7.291   6.054  11.889 -2.6326  0.7332 -0.9555
  242MOL0     H33377   7.509   6.000  11.877 -0.5509  1.8511  2.4495
  242MOL0     H33378   8.001   6.302  11.981  2.4876 -0.8463  2.1386
  242MOL0     H33379   8.241   6.274  11.966 -0.1536  2.6891 -2.5501
  242MOL0     H33380   9.591   6.194  11.202  0.0995 -1.3071 -0.2809
  242MOL0     H33381   9.803   6.319  11.232  0.6646 -0.1371 -0.4327
  242MOL0     H33382  10.282   6.376  11.148 -2.2706  0.4261 -0.7613
  242MOL0     H33383  10.442   6.561  11.178 -1.4388 -0.1724 -2.9825
  242MOL0     H33384  10.510   6.646  11.585 -1.0097  0.6970  0.2637
  242MOL0     H33385  10.633   6.743  11.510  0.0846 -1.6093  2.1919
  242MOL0     H33386  10.364   6.877  11.562 -0.6927  2.2612  3.9678
  242MOL0     H33387  10.524   6.941  11.513  0.0793  2.0152  2.5190
  242MOL0     H33388  10.595   6.853  11.745 -0.1460 -0.7772  0.4893
  242MOL0     H33389  10.487   6.985  11.751 -1.9109 -0.3869  4.5010
  242MOL0     H33390  10.468   6.799  11.903 -0.6067  1.0642 -0.9503
  242MOL0     H33391  10.403   6.691  11.759  1.3299 -1.9748  1.4218
  242MOL0     H33392  10.064   6.923  11.856 -0.5947  0.8248  0.7688
  242MOL0     H33393  10.267   6.650  11.561 -1.6781 -1.0976  0.6596
  242MOL0     H33394  10.066   6.549  11.635  2.4493  2.3808 -2.3394
  242MOL0     H33395   9.964   6.462  11.511  1.3247 -1.4654 -1.1386
  242MOL0     H33396  10.063   6.369  11.601 -0.9492 -0.3009 -0.6998
  243MOL0     O33397   9.030  11.499   7.502  0.2639  0.2063 -0.5171
  243MOL0     C33398   8.982  11.575   7.421  0.2414 -0.0954  0.4815
  243MOL0     O33399   8.853  11.631   7.427 -0.1401  0.0364  0.2833
  243MOL0     C33400   8.751  11.593   7.518  0.4383  0.2609  1.0548
  243MOL0     C33401   8.710  11.695   7.606  0.7391 -1.0134 -0.5833
  243MOL0     C33402   8.621  11.654   7.705  0.2736 -0.2180  0.3222
  243MOL0     C33403   8.573  11.518   7.719  0.2712 -0.2975 -0.6471
  243MOL0     O33404   8.499  11.488   7.831  0.2154 -0.0846  0.1666
  243MOL0     C33405   8.447  11.358   7.841  0.7593 -0.0493 -1.0371
  243MOL0     C33406   8.357  11.336   7.969  0.2400  0.1515  0.0122
  243MOL0     C33407   8.208  11.312   7.948  0.2465 -0.5908  0.2244
  243MOL0     C33408   8.143  11.438   7.874  0.7237  0.1387  0.2756
  243MOL0     C33409   7.992  11.432   7.851  0.3694 -0.7675 -0.1569
  243MOL0     C33410   7.905  11.445   7.977  0.4491  0.1316  0.5596
  243MOL0     C33411   7.879  11.582   8.023 -0.5105 -0.1729  0.2410
  243MOL0     C33412   7.799  11.682   7.928  0.4221 -0.3286 -0.2938
  243MOL0     N33413   7.655  11.657   7.931  0.5163 -0.5625  0.7336
  243MOL0     C33414   7.580  11.699   8.039  0.4004 -0.3022  0.3910
  243MOL0     C33415   7.451  11.687   7.996  0.2690 -0.5627 -0.1297
  243MOL0     C33416   7.323  11.700   8.073  0.3050  0.5869 -0.5786
  243MOL0     C33417   7.292  11.855   8.101 -1.2114 -0.5410 -0.0488
  243MOL0     C33418   7.163  11.881   8.170 -0.5698  0.7577  0.1182
  243MOL0     C33419   7.147  12.035   8.203  0.1880  0.9747  1.0028
  243MOL0     O33420   7.221  12.082   8.318 -0.3979 -0.1044 -0.0910
  243MOL0     C33421   7.166  12.050   8.438  0.8872  0.0240  0.0377
  243MOL0     C33422   7.230  11.967   8.525 -0.2131 -0.2574 -0.7020
  243MOL0     C33423   7.180  11.944   8.655  1.0831 -0.1227  0.1457
  243MOL0     C33424   7.254  11.858   8.753  0.1123 -0.2175 -0.3266
  243MOL0     C33425   7.063  12.006   8.694  0.8397 -0.8125 -0.7776
  243MOL0     C33426   7.000  12.002   8.830  0.2501 -0.2601 -0.1745
  243MOL0     O33427   6.909  12.102   8.859  0.2239  0.0256  0.4059
  243MOL0     C33428   6.807  12.092   8.952  0.0254  0.1820  0.6178
  243MOL0     C33429   6.740  11.971   8.978 -0.0038  0.6656  0.5839
  243MOL0     C33430   6.625  11.955   9.059  0.8138  0.4258 -0.7313
  243MOL0     C33431   6.576  12.072   9.118 -1.5010  0.4839 -0.5311
  243MOL0     O33432   6.461  12.076   9.192 -0.4155  0.3496 -0.8940
  243MOL0     C33433   6.397  11.962   9.236 -0.9827  0.4454  0.6537
  243MOL0     C33434   6.264  11.993   9.299 -0.7671  0.2808 -0.1482
  243MOL0     C33435   6.186  11.859   9.319 -0.0729  0.2860  0.6600
  243MOL0     C33436   6.244  11.784   9.446  0.3945  0.2441 -0.0634
  243MOL0     C33437   6.161  11.664   9.478  0.4431  0.1393 -0.5450
  243MOL0     C33438   6.171  11.628   9.625  0.3342 -1.0242 -0.0928
  243MOL0     C33439   6.102  11.500   9.660  0.1749  0.5119  0.6178
  243MOL0     C33440   6.140  11.439   9.799  0.5351  0.2121 -0.1427
  243MOL0    Cl33441   6.122  11.553   9.925  0.1061  0.0210 -0.4628
  243MOL0     C33442   6.635  12.199   9.094  0.4702 -0.0602 -0.0368
  243MOL0     C33443   6.747  12.210   9.010 -0.3900 -0.0715 -0.2490
  243MOL0     O33444   7.009  11.904   8.894  0.1581 -0.2669  0.4284
  243MOL0     C33445   6.990  12.086   8.599  0.5782  0.4649 -0.0595
  243MOL0     C33446   7.044  12.105   8.479  0.4256 -0.8312 -0.6091
  243MOL0     N33447   7.454  11.631   7.865 -0.2165  0.3339 -0.7721
  243MOL0     N33448   7.573  11.613   7.830  0.1206  0.3721  0.5242
  243MOL0     C33449   8.605  11.431   7.618 -0.2432  0.2532  0.0611
  243MOL0     C33450   8.697  11.465   7.524 -0.4409 -0.4730  0.4126
  243MOL0     C33451   9.075  11.627   7.315  0.0312 -0.1992  0.3129
  243MOL0     C33452   9.192  11.555   7.287 -1.0324  0.0373  0.5122
  243MOL0     C33453   9.296  11.596   7.204  0.9998 -0.3857  0.0067
  243MOL0     C33454   9.280  11.716   7.137  0.4809 -0.1441 -0.1708
  243MOL0     O33455   9.381  11.754   7.060  0.0740  0.1877  0.2325
  243MOL0     C33456   9.466  11.860   7.124  0.3557  0.4061  0.6709
  243MOL0     C33457   9.591  11.881   7.029  0.7339 -0.7971 -0.3255
  243MOL0     C33458   9.654  11.741   7.000  0.0302  1.1822 -0.5476
  243MOL0     C33459   9.753  11.757   6.879  0.6821 -0.7928 -0.2397
  243MOL0     C33460   9.702  11.673   6.766 -0.1563 -0.5904  0.0221
  243MOL0     C33461   9.649  11.619   6.671  0.2682  0.2487  0.1890
  243MOL0     C33462   9.167  11.789   7.154  0.2712 -0.2252  0.1872
  243MOL0     C33463   9.069  11.753   7.246  0.2027 -0.7402 -0.7570
  243MOL0     C33464   8.949  11.834   7.230 -0.8685  0.0580 -0.0758
  243MOL0     H33465   8.751  11.796   7.598 -2.3936  0.5380  0.8051
  243MOL0     H33466   8.590  11.728   7.778  0.7837  1.8529 -1.4401
  243MOL0     H33467   8.520  11.279   7.826  1.0721 -0.0014  0.1079
  243MOL0     H33468   8.384  11.344   7.753 -0.0860 -1.8796 -0.1763
  243MOL0     H33469   8.389  11.244   8.018 -0.3853  1.3183  2.8314
  243MOL0     H33470   8.366  11.429   8.027  1.0121  0.1574 -0.1108
  243MOL0     H33471   8.176  11.232   7.881  3.4286 -1.6258 -0.2430
  243MOL0     H33472   8.158  11.295   8.044 -3.0446 -2.9727 -1.6964
  243MOL0     H33473   8.174  11.531   7.922  2.0298 -0.7213  1.1986
  243MOL0     H33474   8.193  11.462   7.779  1.3841  0.9361  0.8076
  243MOL0     H33475   7.975  11.329   7.818  1.2946 -1.1379  0.4886
  243MOL0     H33476   7.962  11.507   7.777  1.9058  2.1311  1.9701
  243MOL0     H33477   7.808  11.398   7.958 -1.0686  3.9024 -2.6952
  243MOL0     H33478   7.946  11.389   8.061  1.1520  0.3422  0.3709
  243MOL0     H33479   7.974  11.630   8.048 -1.1248  1.2766 -0.0740
  243MOL0     H33480   7.828  11.583   8.119 -1.1785 -0.3005 -0.1081
  243MOL0     H33481   7.810  11.783   7.970 -0.3436 -1.2710  2.3788
  243MOL0     H33482   7.817  11.675   7.821 -1.9707 -1.7124 -0.6944
  243MOL0     H33483   7.612  11.741   8.134  2.0291  2.0646 -1.0727
  243MOL0     H33484   7.329  11.649   8.169 -0.4388  1.8385  0.1616
  243MOL0     H33485   7.237  11.666   8.015 -1.7280  3.5558  0.4101
  243MOL0     H33486   7.373  11.886   8.167 -1.4452  0.7517 -0.3391
  243MOL0     H33487   7.289  11.908   8.006 -0.8496  2.5708  1.5346
  243MOL0     H33488   7.082  11.840   8.108  0.5378  2.1560 -2.4482
  243MOL0     H33489   7.157  11.822   8.261  2.1581 -2.2614 -1.4435
  243MOL0     H33490   7.173  12.096   8.115  0.2303 -1.4459 -0.7759
  243MOL0     H33491   7.042  12.062   8.210 -0.5641 -0.8240 -1.7284
  243MOL0     H33492   7.327  11.930   8.496  0.0773 -1.0825  1.1864
  243MOL0     H33493   7.342  11.826   8.696 -0.6687 -1.6302 -0.7913
  243MOL0     H33494   7.207  11.764   8.785  1.5689 -1.2156 -0.9828
  243MOL0     H33495   7.278  11.917   8.841  0.1429 -0.8096  0.0709
  243MOL0     H33496   6.765  11.873   8.938  0.9420  0.8884  0.6094
  243MOL0     H33497   6.591  11.857   9.089  1.4906  0.3920 -0.0349
  243MOL0     H33498   6.386  11.892   9.152 -0.9303 -1.0004  1.8127
  243MOL0     H33499   6.455  11.914   9.315 -1.1592 -1.6225 -0.3830
  243MOL0     H33500   6.273  12.033   9.400  0.1444 -2.6231  0.9923
  243MOL0     H33501   6.202  12.055   9.233  0.7168 -0.3603 -2.2341
  243MOL0     H33502   6.179  11.791   9.234  0.7931 -1.3164  1.8176
  243MOL0     H33503   6.082  11.883   9.344 -0.6754 -2.1670  0.7108
  243MOL0     H33504   6.237  11.861   9.524  0.5537 -0.0639  0.2607
  243MOL0     H33505   6.348  11.753   9.440  0.5634  0.7087  0.3358
  243MOL0     H33506   6.056  11.686   9.459 -0.0663 -1.1311  0.6371
  243MOL0     H33507   6.193  11.581   9.414  2.6828 -0.7011  1.5262
  243MOL0     H33508   6.120  11.710   9.677  2.6704 -0.7433  1.9061
  243MOL0     H33509   6.273  11.637   9.662 -0.2615  3.5226  1.0086
  243MOL0     H33510   6.117  11.426   9.582 -0.4875  1.7761 -0.7589
  243MOL0     H33511   5.992  11.504   9.659  0.1194 -0.4818  1.1304
  243MOL0     H33512   6.244  11.405   9.798  0.2668 -0.6361  0.4770
  243MOL0     H33513   6.078  11.354   9.826 -1.0804  0.6540 -2.1786
  243MOL0     H33514   6.583  12.290   9.124 -4.1780 -1.1521 -3.7061
  243MOL0     H33515   6.782  12.309   8.981  0.9213  0.1539  1.9146
  243MOL0     H33516   6.896  12.135   8.621  0.6329 -0.1590  1.7582
  243MOL0     H33517   7.011  12.186   8.415  0.0913 -0.5787 -0.1286
  243MOL0     H33518   8.574  11.327   7.627  0.4192  0.2084  2.7648
  243MOL0     H33519   8.723  11.393   7.446  3.2711  1.9919 -0.9038
  243MOL0     H33520   9.214  11.463   7.339  3.5528  1.9638  2.5971
  243MOL0     H33521   9.381  11.533   7.179  0.6522 -2.0313  2.5410
  243MOL0     H33522   9.402  11.945   7.150 -2.5228 -0.8853 -1.5563
  243MOL0     H33523   9.515  11.814   7.211  2.2894 -2.5346 -1.7766
  243MOL0     H33524   9.660  11.939   7.091 -1.4846  1.0050  0.5938
  243MOL0     H33525   9.547  11.930   6.942 -0.4978  0.5717  1.0214
  243MOL0     H33526   9.709  11.702   7.086 -3.1617  1.1954  1.6892
  243MOL0     H33527   9.578  11.668   6.971 -1.6727  1.9901  1.5713
  243MOL0     H33528   9.857  11.732   6.898  0.9505 -1.0381 -1.8307
  243MOL0     H33529   9.758  11.857   6.834  1.7123 -0.8960 -0.3665
  243MOL0     H33530   9.610  11.572   6.583  2.1990  1.7025 -1.5595
  243MOL0     H33531   9.168  11.889   7.112  1.2055 -0.8569 -1.3357
  243MOL0     H33532   8.954  11.859   7.124  1.3873 -2.3137 -0.6189
  243MOL0     H33533   8.855  11.778   7.238  0.7303 -2.8676 -0.3723
  243MOL0     H33534   8.950  11.930   7.283 -3.8506  0.3795 -0.4216
  244MOL0     O33535   6.131   4.756   4.601 -0.1424 -0.0148 -0.7556
  244MOL0     C33536   6.090   4.701   4.700 -0.1093  0.4487 -1.1666
  244MOL0     O33537   6.159   4.598   4.765  0.2643  0.5124 -0.0561
  244MOL0     C33538   6.240   4.500   4.718  0.1795  0.5002 -0.5314
  244MOL0     C33539   6.192   4.369   4.744 -0.0380  0.1853 -0.5509
  244MOL0     C33540   6.239   4.271   4.655 -0.3686 -0.0651  0.5699
  244MOL0     C33541   6.342   4.296   4.568  0.3232 -0.0136  0.7816
  244MOL0     O33542   6.394   4.183   4.493  0.1092  0.5446  0.0955
  244MOL0     C33543   6.533   4.191   4.463 -0.1729  1.0784 -0.3957
  244MOL0     C33544   6.638   4.146   4.570  0.1624 -0.0642  0.6024
  244MOL0     C33545   6.669   4.002   4.552 -0.3260 -0.0694  0.5840
  244MOL0     C33546   6.717   3.938   4.687 -0.0742  0.1293 -0.4786
  244MOL0     C33547   6.723   3.788   4.687  0.7562 -0.5127 -0.1142
  244MOL0     C33548   6.750   3.738   4.823  0.8495 -0.1667 -0.0706
  244MOL0     C33549   6.785   3.583   4.823  0.3752 -0.8649 -0.1645
  244MOL0     C33550   6.814   3.541   4.972  0.1767  0.2217 -0.1477
  244MOL0     N33551   6.951   3.583   5.012 -0.9523  0.2597 -0.2564
  244MOL0     C33552   7.068   3.524   4.970  0.0244 -0.0496  0.3273
  244MOL0     C33553   7.156   3.554   5.063  0.8626  0.2507 -0.1310
  244MOL0     C33554   7.306   3.518   5.058  0.1203 -0.5228  0.2450
  244MOL0     C33555   7.378   3.539   4.928 -0.1292 -0.2479 -0.2862
  244MOL0     C33556   7.525   3.497   4.953  0.7175 -0.3351  0.2005
  244MOL0     C33557   7.585   3.433   4.820 -0.0765  0.8700  0.4652
  244MOL0     O33558   7.537   3.302   4.783  0.4954  0.3202 -0.0585
  244MOL0     C33559   7.568   3.200   4.864  0.5373  0.3496 -0.3644
  244MOL0     C33560   7.666   3.207   4.961 -0.1703 -0.5529  0.5004
  244MOL0     C33561   7.698   3.087   5.024  0.6422  0.3459 -1.0725
  244MOL0     C33562   7.801   3.103   5.131 -0.6051  0.5905  0.2739
  244MOL0     C33563   7.637   2.964   4.993  0.3161 -0.4270  0.2101
  244MOL0     C33564   7.666   2.839   5.062  0.1448 -0.5945  0.3932
  244MOL0     O33565   7.567   2.743   5.043  0.1833 -0.6434  0.1158
  244MOL0     C33566   7.594   2.620   5.085 -0.3464  0.2806 -0.5972
  244MOL0     C33567   7.576   2.517   4.991 -1.1363  0.5005 -0.7341
  244MOL0     C33568   7.604   2.384   5.029 -0.2882 -0.4209  0.6574
  244MOL0     C33569   7.640   2.359   5.169  0.4528 -0.0684 -0.0284
  244MOL0     O33570   7.667   2.235   5.222 -0.4422 -0.0042  0.4332
  244MOL0     C33571   7.678   2.121   5.127  0.4496 -0.1103 -0.1450
  244MOL0     C33572   7.696   1.989   5.196 -0.2336  0.9544 -0.0135
  244MOL0     C33573   7.801   1.991   5.305 -1.4627  0.4384 -0.6499
  244MOL0     C33574   7.862   1.851   5.344 -0.4911  0.0652  0.4991
  244MOL0     C33575   7.980   1.870   5.430 -0.0969  0.9119 -0.4001
  244MOL0     C33576   8.107   1.931   5.369  0.1535 -0.0044 -0.4294
  244MOL0     C33577   8.230   1.896   5.456  0.0793  0.4040 -0.3869
  244MOL0     C33578   8.346   1.988   5.407 -0.2150 -0.0201  0.1971
  244MOL0    Cl33579   8.363   1.994   5.222  0.0968 -0.7781  0.0753
  244MOL0     C33580   7.633   2.459   5.265  0.4183 -0.5493 -0.7764
  244MOL0     C33581   7.609   2.588   5.221 -0.5255 -0.6424  0.0909
  244MOL0     O33582   7.773   2.816   5.121  1.0696 -0.0812  0.3423
  244MOL0     C33583   7.540   2.962   4.885 -0.0523  0.5017  0.6353
  244MOL0     C33584   7.504   3.083   4.832 -0.6999  0.1330  0.2448
  244MOL0     N33585   7.104   3.626   5.161  0.5915 -0.3539  0.2797
  244MOL0     N33586   6.976   3.642   5.137  0.1682  0.0962 -1.0468
  244MOL0     C33587   6.390   4.425   4.549 -0.1384 -0.0131 -0.1791
  244MOL0     C33588   6.341   4.528   4.628  0.2319 -0.2796  0.7703
  244MOL0     C33589   5.990   4.783   4.777  1.2440 -0.6499  0.3021
  244MOL0     C33590   5.993   4.773   4.915  0.7109 -0.2334 -0.0524
  244MOL0     C33591   5.907   4.846   4.986  0.2640  0.0145 -0.2660
  244MOL0     C33592   5.811   4.933   4.927 -0.1779 -0.5942  0.0242
  244MOL0     O33593   5.726   4.989   5.024 -0.1510  0.1604  0.8132
  244MOL0     C33594   5.614   5.073   4.985  0.0429 -0.3926 -1.0092
  244MOL0     C33595   5.502   5.026   5.082  0.1076 -0.2618  0.4416
  244MOL0     C33596   5.520   5.051   5.229  0.3472 -0.8215 -0.8311
  244MOL0     C33597   5.399   5.032   5.313 -0.3689  0.2691  0.2655
  244MOL0     C33598   5.404   5.103   5.440 -0.5534  0.7265 -0.9789
  244MOL0     C33599   5.411   5.160   5.552  0.5744 -0.0596  0.1380
  244MOL0     C33600   5.811   4.953   4.788 -0.3609 -0.3034  0.4931
  244MOL0     C33601   5.896   4.875   4.706 -0.7606 -0.7789 -0.9507
  244MOL0     C33602   5.892   4.914   4.557 -0.2113 -0.6963  0.2298
  244MOL0     H33603   6.106   4.370   4.810 -1.1091  1.2141 -1.8791
  244MOL0     H33604   6.210   4.167   4.658  1.0216 -0.6833 -3.0071
  244MOL0     H33605   6.549   4.289   4.415 -2.0622  0.8297 -1.6330
  244MOL0     H33606   6.537   4.121   4.379 -3.6004 -0.0029  0.2118
  244MOL0     H33607   6.731   4.204   4.563 -1.1627  2.1504  0.2617
  244MOL0     H33608   6.602   4.155   4.673 -1.3738 -2.8488  0.4051
  244MOL0     H33609   6.581   3.943   4.524 -0.0466  0.4045 -1.5181
  244MOL0     H33610   6.743   3.996   4.471  0.6776  2.2400  1.2445
  244MOL0     H33611   6.815   3.976   4.719 -2.0281  1.8774  4.4174
  244MOL0     H33612   6.651   3.968   4.769 -3.3211  1.4556 -3.3455
  244MOL0     H33613   6.805   3.762   4.619  3.4718 -1.8757  3.3866
  244MOL0     H33614   6.624   3.759   4.650 -0.6872  0.0608  2.9560
  244MOL0     H33615   6.833   3.792   4.869  1.1407 -0.1255 -0.6252
  244MOL0     H33616   6.663   3.762   4.884  0.4284  2.1592 -1.4761
  244MOL0     H33617   6.864   3.553   4.754 -1.8926 -1.6321 -2.6237
  244MOL0     H33618   6.705   3.514   4.794  2.2838 -3.3033 -0.0016
  244MOL0     H33619   6.740   3.575   5.045  0.8897  1.2409  0.1217
  244MOL0     H33620   6.821   3.432   4.971  1.1773  0.2744 -1.1937
  244MOL0     H33621   7.082   3.466   4.879  0.0824 -3.8579  2.5798
  244MOL0     H33622   7.310   3.409   5.069  0.2979 -0.7951 -2.0573
  244MOL0     H33623   7.357   3.564   5.142 -4.1443  1.5088  2.0393
  244MOL0     H33624   7.338   3.475   4.848  1.0086  3.4279 -4.2211
  244MOL0     H33625   7.375   3.639   4.882  0.7181 -1.5443 -3.3909
  244MOL0     H33626   7.574   3.593   4.973  1.1204 -0.3684 -0.6106
  244MOL0     H33627   7.550   3.443   5.045  2.8352  2.3220  1.3142
  244MOL0     H33628   7.537   3.498   4.746 -1.4907 -1.0831 -0.4197
  244MOL0     H33629   7.694   3.430   4.820 -0.0946 -1.2717  0.7953
  244MOL0     H33630   7.727   3.295   4.981  3.6773 -2.8004 -0.4844
  244MOL0     H33631   7.848   3.201   5.120  1.4660 -0.5315 -1.6836
  244MOL0     H33632   7.886   3.036   5.125 -1.5569 -0.6501  0.2555
  244MOL0     H33633   7.761   3.089   5.232 -0.7529 -1.4502 -0.0316
  244MOL0     H33634   7.552   2.556   4.893 -3.4486  1.0498 -0.0121
  244MOL0     H33635   7.605   2.303   4.958 -2.0558 -0.1138  0.2506
  244MOL0     H33636   7.580   2.105   5.082  0.9982 -0.8492 -1.1255
  244MOL0     H33637   7.756   2.129   5.051 -1.3473 -5.7271 -3.1172
  244MOL0     H33638   7.602   1.975   5.249 -1.5228  2.4953 -1.7314
  244MOL0     H33639   7.711   1.912   5.120 -0.2809  3.2016 -2.4681
  244MOL0     H33640   7.754   2.018   5.400  0.1289  3.1494 -0.5351
  244MOL0     H33641   7.880   2.060   5.276  0.0360 -0.2857  1.5022
  244MOL0     H33642   7.904   1.806   5.254 -0.9139  0.5557  0.0463
  244MOL0     H33643   7.783   1.795   5.395  2.7189 -1.5617  4.2118
  244MOL0     H33644   7.965   1.932   5.518  0.8197  1.3966 -0.5749
  244MOL0     H33645   8.007   1.768   5.459 -1.2394 -0.2233 -2.9794
  244MOL0     H33646   8.103   2.039   5.353 -0.8448 -0.0969 -0.8854
  244MOL0     H33647   8.134   1.885   5.274  1.1529  1.8780 -1.1056
  244MOL0     H33648   8.252   1.790   5.445 -0.8849  0.1390  0.1500
  244MOL0     H33649   8.192   1.917   5.556 -0.9390  3.3983 -1.3080
  244MOL0     H33650   8.447   1.953   5.430  0.0753  0.0187 -0.9605
  244MOL0     H33651   8.325   2.092   5.432 -1.7845 -0.2350 -0.1454
  244MOL0     H33652   7.648   2.435   5.370 -0.2771  3.3143  0.3547
  244MOL0     H33653   7.601   2.670   5.291 -2.0200  1.2172 -2.1203
  244MOL0     H33654   7.488   2.868   4.876  1.9143 -0.6299  0.5879
  244MOL0     H33655   7.434   3.075   4.749 -0.8280  1.7187  0.1741
  244MOL0     H33656   6.467   4.462   4.483  1.6177 -0.1122  1.7168
  244MOL0     H33657   6.364   4.631   4.600 -0.1335 -0.8580 -1.9246
  244MOL0     H33658   6.055   4.702   4.968 -0.2037  0.4112  1.9606
  244MOL0     H33659   5.908   4.831   5.094  2.1033 -0.1247 -0.2648
  244MOL0     H33660   5.628   5.181   4.975 -0.1347 -0.1630  0.8584
  244MOL0     H33661   5.576   5.043   4.887 -3.0963  0.6948 -0.2535
  244MOL0     H33662   5.475   4.921   5.066  1.1628 -0.7267  1.5997
  244MOL0     H33663   5.411   5.084   5.066  0.2609 -0.1876 -0.2201
  244MOL0     H33664   5.590   4.975   5.265 -0.8131 -1.0736  1.0569
  244MOL0     H33665   5.561   5.152   5.237  0.6818 -0.7325 -3.0453
  244MOL0     H33666   5.387   4.925   5.334 -1.0840  0.7891  2.8374
  244MOL0     H33667   5.312   5.072   5.260 -0.3736  0.5323  0.4712
  244MOL0     H33668   5.433   5.222   5.637  0.9621 -0.7857  0.5806
  244MOL0     H33669   5.740   5.026   4.751  0.9830  0.1095 -1.4573
  244MOL0     H33670   5.952   5.004   4.545 -2.7192  0.7851 -2.5499
  244MOL0     H33671   5.944   4.845   4.489 -1.4887 -1.1709 -0.2920
  244MOL0     H33672   5.788   4.908   4.525  0.0034  2.6174 -1.4198
  245MOL0     O33673  11.466   7.106   2.421 -0.5632 -0.6046 -0.4096
  245MOL0     C33674  11.360   7.045   2.433 -0.8807 -0.6068  0.5279
  245MOL0     O33675  11.263   7.064   2.525 -0.4996 -0.3017 -0.2511
  245MOL0     C33676  11.266   7.177   2.589  0.2382  0.9452  0.6648
  245MOL0     C33677  11.181   7.274   2.540  0.4458 -0.4682  0.0790
  245MOL0     C33678  11.191   7.399   2.597 -0.5425  0.5086  0.3670
  245MOL0     C33679  11.277   7.430   2.703 -0.3373  1.0511 -0.3183
  245MOL0     O33680  11.285   7.551   2.763  0.2163  0.2969 -1.0017
  245MOL0     C33681  11.208   7.578   2.887 -0.0660  0.4160 -0.6768
  245MOL0     C33682  11.053   7.560   2.868  0.1367  0.3464 -0.7978
  245MOL0     C33683  10.996   7.649   2.754 -0.0851  0.2373  0.3463
  245MOL0     C33684  10.991   7.796   2.786  0.4506  0.1464 -0.0683
  245MOL0     C33685  10.938   7.895   2.681 -0.0958  0.5614 -0.5296
  245MOL0     C33686  10.886   8.025   2.736 -0.7110 -0.0044  0.6703
  245MOL0     C33687  10.834   8.112   2.622  0.0960  0.6670 -0.1468
  245MOL0     C33688  10.763   8.237   2.675  0.0443  0.2749  1.0000
  245MOL0     N33689  10.861   8.347   2.675  0.2918 -0.0037  0.9732
  245MOL0     C33690  10.910   8.413   2.560  0.2070  0.1096  0.1921
  245MOL0     C33691  10.996   8.508   2.608  0.4029 -0.2128  0.2775
  245MOL0     C33692  11.042   8.629   2.529 -0.4440  0.1127 -0.0545
  245MOL0     C33693  11.156   8.702   2.587 -1.5361  0.3100  0.9670
  245MOL0     C33694  11.180   8.824   2.491  0.9356  0.5392 -0.2454
  245MOL0     C33695  11.283   8.928   2.537 -0.1853 -0.9035 -0.0303
  245MOL0     O33696  11.236   9.012   2.641 -0.0563 -0.1284 -0.5614
  245MOL0     C33697  11.314   9.113   2.692  0.3664 -0.5738 -0.2287
  245MOL0     C33698  11.283   9.152   2.826  0.0095  0.5284  1.1221
  245MOL0     C33699  11.350   9.258   2.885  0.7972 -0.7859  1.0147
  245MOL0     C33700  11.312   9.299   3.022  0.1757 -0.1597 -0.2542
  245MOL0     C33701  11.465   9.316   2.817 -1.0488 -0.3837  0.3760
  245MOL0     C33702  11.541   9.430   2.869 -0.0527  0.4526 -0.1019
  245MOL0     O33703  11.672   9.448   2.825  0.1227  0.5319  0.5662
  245MOL0     C33704  11.737   9.553   2.874  0.3782  0.5135  1.2517
  245MOL0     C33705  11.793   9.543   3.001 -0.1817  0.7650 -0.7889
  245MOL0     C33706  11.871   9.652   3.048 -0.5061 -0.4485  0.5584
  245MOL0     C33707  11.884   9.775   2.968 -0.5805 -0.0210 -0.0032
  245MOL0     O33708  11.939   9.894   3.013 -0.3990 -0.3543  0.4031
  245MOL0     C33709  12.038   9.897   3.119 -0.6483 -0.1794  0.0642
  245MOL0     C33710  12.179   9.832   3.066  0.2578  0.0626 -0.1719
  245MOL0     C33711  12.259   9.905   2.960 -0.0978 -0.7562  0.8357
  245MOL0     C33712  12.340  10.008   3.019  0.6315  0.4384 -0.2069
  245MOL0     C33713  12.423  10.076   2.917  0.2603 -0.1180 -0.5836
  245MOL0     C33714  12.526  10.170   2.996  0.6389 -0.3795 -0.0299
  245MOL0     C33715  12.674  10.154   2.953 -0.7340 -0.0967 -0.5555
  245MOL0     C33716  12.734  10.018   3.002  0.4363 -0.5804 -0.6664
  245MOL0    Cl33717  12.897   9.986   2.930  0.1814 -1.0916 -0.0164
  245MOL0     C33718  11.839   9.761   2.837 -0.1381 -0.7415  0.1716
  245MOL0     C33719  11.757   9.663   2.794 -0.2153 -0.1928  0.3665
  245MOL0     O33720  11.483   9.513   2.937  0.2881  0.3288 -0.0355
  245MOL0     C33721  11.500   9.261   2.690 -0.4064 -0.0896 -0.0596
  245MOL0     C33722  11.430   9.157   2.631  0.3281  0.2857  0.0402
  245MOL0     N33723  10.989   8.505   2.750  0.1931  0.3666 -0.4493
  245MOL0     N33724  10.912   8.401   2.787 -0.7457 -0.6299 -0.1353
  245MOL0     C33725  11.355   7.324   2.756 -0.1707  0.5737  0.1354
  245MOL0     C33726  11.350   7.198   2.695  0.8765 -0.1892 -0.1566
  245MOL0     C33727  11.323   6.948   2.329  0.6455  0.7005 -0.2721
  245MOL0     C33728  11.219   6.993   2.248  0.1802 -0.3076  0.1412
  245MOL0     C33729  11.196   6.925   2.134  0.1541  0.9911  0.6140
  245MOL0     C33730  11.268   6.813   2.093 -0.6535 -0.0874  0.2185
  245MOL0     O33731  11.248   6.754   1.976  0.5606 -0.2990  0.6162
  245MOL0     C33732  11.145   6.804   1.890 -0.5034 -1.3492  0.0230
  245MOL0     C33733  11.166   6.755   1.747  0.0320 -0.4355  0.0854
  245MOL0     C33734  11.296   6.793   1.687  0.1400 -0.1458 -0.8056
  245MOL0     C33735  11.307   6.751   1.542 -0.0481  0.1318  0.5836
  245MOL0     C33736  11.212   6.830   1.449 -0.5561  0.3203 -0.6576
  245MOL0     C33737  11.129   6.872   1.377  0.9318 -0.6581  0.2125
  245MOL0     C33738  11.371   6.768   2.173 -0.5689 -0.1005 -0.2209
  245MOL0     C33739  11.399   6.835   2.301 -0.0267  0.1761  0.2086
  245MOL0     C33740  11.525   6.797   2.385  0.8165 -0.8041  0.0527
  245MOL0     H33741  11.124   7.249   2.451 -1.7463 -0.3026  1.3520
  245MOL0     H33742  11.128   7.481   2.564 -1.0277  2.2893  4.8733
  245MOL0     H33743  11.234   7.683   2.898 -2.2098  0.7522  1.9935
  245MOL0     H33744  11.248   7.527   2.975  1.0318  0.9043 -0.8792
  245MOL0     H33745  11.031   7.454   2.852  1.8069  0.1172 -1.7593
  245MOL0     H33746  10.995   7.582   2.958  0.6541 -4.4399  0.9753
  245MOL0     H33747  11.053   7.635   2.662  0.7064 -0.4976  0.9374
  245MOL0     H33748  10.897   7.612   2.723 -0.3941  1.8715 -0.7248
  245MOL0     H33749  10.916   7.812   2.865  1.7524  3.6008  0.6785
  245MOL0     H33750  11.081   7.829   2.839  0.3844 -0.1095  0.2072
  245MOL0     H33751  10.855   7.847   2.628 -1.2773  0.6429  1.1949
  245MOL0     H33752  11.015   7.923   2.608 -0.7038 -1.2574 -1.9449
  245MOL0     H33753  10.810   8.013   2.814  0.2001 -1.9703  1.3133
  245MOL0     H33754  10.970   8.068   2.791  0.9808 -0.4898 -1.3937
  245MOL0     H33755  10.753   8.047   2.587  0.9675 -0.7070  0.2995
  245MOL0     H33756  10.905   8.131   2.542  0.7091 -1.0407 -0.0622
  245MOL0     H33757  10.692   8.268   2.597  1.2035  0.0463 -0.1738
  245MOL0     H33758  10.720   8.217   2.774  1.5144 -2.0813  1.2381
  245MOL0     H33759  10.896   8.397   2.454  3.5637 -2.0868 -0.0568
  245MOL0     H33760  10.958   8.698   2.527 -0.4693  0.2674  2.5433
  245MOL0     H33761  11.082   8.598   2.432  0.9611  1.4773  0.0492
  245MOL0     H33762  11.137   8.732   2.690 -0.0334  3.6301  0.4128
  245MOL0     H33763  11.252   8.649   2.580 -1.2911  0.9340 -1.2687
  245MOL0     H33764  11.211   8.780   2.397  0.7566 -2.4698  0.9941
  245MOL0     H33765  11.081   8.870   2.480  1.9627  4.5281  3.9687
  245MOL0     H33766  11.370   8.871   2.571 -0.2955 -1.0271  0.0484
  245MOL0     H33767  11.308   8.986   2.448 -1.2077  1.6728  1.2739
  245MOL0     H33768  11.207   9.109   2.890  2.2863 -3.3079  1.5388
  245MOL0     H33769  11.233   9.375   3.018  0.1451 -0.2239 -1.0687
  245MOL0     H33770  11.397   9.329   3.083 -0.0199  0.6300 -0.3563
  245MOL0     H33771  11.261   9.217   3.073 -1.2262 -1.2475 -3.1900
  245MOL0     H33772  11.759   9.457   3.058  1.3444  1.1575  0.7627
  245MOL0     H33773  11.914   9.654   3.147  3.1851  2.4532 -0.8348
  245MOL0     H33774  12.063  10.001   3.140  0.6607  0.0590 -2.2786
  245MOL0     H33775  12.004   9.847   3.210  2.4286 -0.6178  1.1140
  245MOL0     H33776  12.246   9.810   3.150 -0.8922 -1.5903  0.3609
  245MOL0     H33777  12.153   9.738   3.015  0.8316 -0.1232 -0.1322
  245MOL0     H33778  12.191   9.941   2.882 -0.5654 -2.3058  0.4967
  245MOL0     H33779  12.332   9.832   2.924  0.5805  0.6543 -0.7988
  245MOL0     H33780  12.398   9.968   3.103 -0.8820 -1.1101  0.1879
  245MOL0     H33781  12.266  10.077   3.061  1.1539  0.6931  0.2985
  245MOL0     H33782  12.474   9.996   2.863  0.6388 -1.6349  1.8575
  245MOL0     H33783  12.360  10.139   2.854  0.2112  2.2555  1.6858
  245MOL0     H33784  12.511  10.151   3.103  3.0098  0.4217  0.5077
  245MOL0     H33785  12.506  10.277   2.990  1.9066 -0.2124 -3.7821
  245MOL0     H33786  12.737  10.234   2.991 -0.3405 -0.8661  0.4494
  245MOL0     H33787  12.680  10.152   2.843  2.4191 -1.4071 -0.4819
  245MOL0     H33788  12.677   9.930   2.968  0.6493 -0.8336 -0.3789
  245MOL0     H33789  12.750  10.013   3.110  2.9895 -1.5737 -1.0238
  245MOL0     H33790  11.875   9.836   2.767 -0.5485  0.2726  1.0167
  245MOL0     H33791  11.721   9.666   2.691  1.3788 -0.8530 -0.2501
  245MOL0     H33792  11.591   9.275   2.633  1.1214 -3.4009  1.2916
  245MOL0     H33793  11.469   9.130   2.533 -2.0580  0.4458 -1.0005
  245MOL0     H33794  11.418   7.338   2.843  0.5611 -0.6189 -0.1865
  245MOL0     H33795  11.409   7.118   2.740 -1.7064 -1.0646  1.9723
  245MOL0     H33796  11.177   7.091   2.268  3.6831  1.4002 -0.0923
  245MOL0     H33797  11.112   6.967   2.078 -0.3221  0.3311  0.8203
  245MOL0     H33798  11.048   6.773   1.932  0.6394 -3.5632  1.1858
  245MOL0     H33799  11.144   6.913   1.884  1.4340 -1.2658  0.6415
  245MOL0     H33800  11.082   6.782   1.683  2.1593 -0.3022 -2.8216
  245MOL0     H33801  11.165   6.646   1.759 -0.0479 -0.3740  0.7052
  245MOL0     H33802  11.321   6.899   1.699  1.2092 -0.1516 -2.6353
  245MOL0     H33803  11.375   6.741   1.743 -0.8704 -0.2823  0.5322
  245MOL0     H33804  11.290   6.643   1.538  0.7003  0.0391 -2.1451
  245MOL0     H33805  11.409   6.757   1.503 -0.1158  0.6982  0.4842
  245MOL0     H33806  11.058   6.913   1.308  0.2774  1.8548  2.2246
  245MOL0     H33807  11.420   6.673   2.152  0.8747 -0.1430  2.7658
  245MOL0     H33808  11.548   6.690   2.390  1.7978 -0.6353 -0.4118
  245MOL0     H33809  11.615   6.837   2.336  0.8276  1.5991  1.8695
  245MOL0     H33810  11.521   6.828   2.490 -0.3957  1.0819 -0.5112
  246MOL0     O33811   2.169   1.277  10.015 -0.1580 -0.6600 -0.3844
  246MOL0     C33812   2.271   1.346   9.986  0.0700  0.0886  0.1535
  246MOL0     O33813   2.383   1.351  10.055 -0.0893  0.2617  0.7420
  246MOL0     C33814   2.398   1.274  10.167 -0.7081  0.3496 -0.0416
  246MOL0     C33815   2.492   1.174  10.167  0.1990 -0.4493 -0.5532
  246MOL0     C33816   2.485   1.086  10.273 -1.2526  0.9328 -0.2980
  246MOL0     C33817   2.415   1.112  10.386 -0.2538 -0.8198 -0.0431
  246MOL0     O33818   2.411   1.010  10.477  0.1647  0.3109 -0.1410
  246MOL0     C33819   2.295   0.995  10.562 -0.5772 -0.8078 -0.7109
  246MOL0     C33820   2.195   0.909  10.481  0.2168 -0.5252 -0.7026
  246MOL0     C33821   2.216   0.762  10.487  0.1983  0.5143 -0.0824
  246MOL0     C33822   2.133   0.681  10.389 -0.7367 -0.0224  0.6313
  246MOL0     C33823   2.200   0.537  10.361 -0.5602  0.4550  0.2860
  246MOL0     C33824   2.210   0.452  10.488 -0.7359  0.5749 -0.9400
  246MOL0     C33825   2.285   0.323  10.448 -0.2631  0.5528 -0.2020
  246MOL0     C33826   2.178   0.219  10.410  1.1685 -0.6354 -1.0263
  246MOL0     N33827   2.245   0.089  10.382 -0.0812 -0.5784 -0.5828
  246MOL0     C33828   2.314   0.062  10.257 -0.4401  0.1042 -0.3314
  246MOL0     C33829   2.339  -0.079  10.275 -1.2244  0.4299 -0.7858
  246MOL0     C33830   2.403  -0.163  10.173  0.1037  0.5139 -1.1486
  246MOL0     C33831   2.551  -0.129  10.159  0.7582  0.0210  0.0831
  246MOL0     C33832   2.574  -0.020  10.049  0.2873  0.0134  0.2155
  246MOL0     C33833   2.710  -0.011   9.987 -0.1800 -0.0900 -0.3246
  246MOL0     O33834   2.821  -0.000  10.085 -0.2615 -0.3607  0.3135
  246MOL0     C33835   2.905   0.112  10.086  0.0857 -0.2023  0.1515
  246MOL0     C33836   2.864   0.237  10.042 -0.2457  0.1181  0.0636
  246MOL0     C33837   2.958   0.350  10.030 -0.0587  0.6264 -0.3400
  246MOL0     C33838   2.896   0.478   9.973 -0.6042 -0.2917  0.1485
  246MOL0     C33839   3.093   0.330  10.052 -0.8507  0.5841  0.5817
  246MOL0     C33840   3.204   0.424  10.018  0.1223 -0.6372 -0.4125
  246MOL0     O33841   3.204   0.476   9.891 -0.1213 -0.2620 -0.2486
  246MOL0     C33842   3.282   0.590   9.877  0.7197 -0.9243 -1.1342
  246MOL0     C33843   3.242   0.707   9.946  0.2419  0.1878 -0.0897
  246MOL0     C33844   3.316   0.829   9.919 -0.9590 -0.4779 -0.1661
  246MOL0     C33845   3.408   0.839   9.819  1.1036 -0.0905  0.2501
  246MOL0     O33846   3.457   0.963   9.800 -0.0676 -1.3661 -0.7333
  246MOL0     C33847   3.590   0.973   9.753  0.3584  0.2245 -0.1747
  246MOL0     C33848   3.650   1.111   9.780 -0.2845 -0.7878  0.9732
  246MOL0     C33849   3.792   1.127   9.739  0.3070  0.7292  0.3113
  246MOL0     C33850   3.859   1.260   9.800 -0.6400  0.1046 -0.2792
  246MOL0     C33851   4.009   1.235   9.815 -0.6103 -0.3221 -0.5575
  246MOL0     C33852   4.063   1.335   9.911  0.1251  0.2172  0.3068
  246MOL0     C33853   4.221   1.304   9.926 -0.0596 -0.0795  0.5245
  246MOL0     C33854   4.243   1.184  10.023 -0.8446 -0.7104  0.0128
  246MOL0    Cl33855   4.247   1.253  10.198  0.3212 -0.5204  0.1789
  246MOL0     C33856   3.434   0.727   9.744  0.8745  0.8040 -0.0745
  246MOL0     C33857   3.377   0.602   9.774  0.8657  0.3269  0.2517
  246MOL0     O33858   3.292   0.437  10.098 -0.0851  0.4743 -0.4323
  246MOL0     C33859   3.121   0.199  10.106 -1.4687 -0.2620  0.4709
  246MOL0     C33860   3.035   0.100  10.128 -0.7654 -0.1071  0.3608
  246MOL0     N33861   2.294  -0.127  10.401  0.1506 -0.1989  0.1413
  246MOL0     N33862   2.241  -0.021  10.462 -0.1886  0.9200 -0.2067
  246MOL0     C33863   2.336   1.223  10.388  0.1815 -0.2772  1.0651
  246MOL0     C33864   2.327   1.307  10.280  0.9080 -0.2477 -1.2740
  246MOL0     C33865   2.280   1.415   9.856 -1.2990 -0.2372 -0.1481
  246MOL0     C33866   2.365   1.530   9.833 -0.3880  0.5821  0.1251
  246MOL0     C33867   2.379   1.587   9.704  0.8630  0.1571 -0.6440
  246MOL0     C33868   2.287   1.538   9.599  0.6916 -0.4879  0.2468
  246MOL0     O33869   2.290   1.589   9.467  0.9479 -0.0121 -0.2429
  246MOL0     C33870   2.384   1.695   9.439  0.1602 -0.3343  0.4235
  246MOL0     C33871   2.340   1.755   9.296 -0.1669 -0.6176 -0.1370
  246MOL0     C33872   2.439   1.707   9.193  0.4544  0.5225 -0.0321
  246MOL0     C33873   2.367   1.750   9.065 -0.4534  1.1361 -0.3510
  246MOL0     C33874   2.461   1.733   8.956  0.0264  0.2408  0.0987
  246MOL0     C33875   2.557   1.713   8.876  0.8836 -0.4684  0.0296
  246MOL0     C33876   2.192   1.443   9.631 -0.4574 -0.7601 -0.2435
  246MOL0     C33877   2.184   1.376   9.757  0.3877 -0.3849  0.6981
  246MOL0     C33878   2.094   1.256   9.759  0.5213 -1.1149 -0.1193
  246MOL0     H33879   2.551   1.145  10.080  1.1155 -2.6966  0.7152
  246MOL0     H33880   2.545   0.996  10.261  1.1053  2.4938 -1.0966
  246MOL0     H33881   2.252   1.084  10.608  0.3138 -1.6569  2.0074
  246MOL0     H33882   2.322   0.937  10.651  0.2118  1.7682  0.8142
  246MOL0     H33883   2.095   0.926  10.522  2.1234 -0.4897  4.7981
  246MOL0     H33884   2.195   0.940  10.376  3.2778 -4.3658 -2.0900
  246MOL0     H33885   2.322   0.743  10.469  0.4257  1.3107  0.4067
  246MOL0     H33886   2.185   0.727  10.586  2.7305  1.0843  0.9792
  246MOL0     H33887   2.033   0.663  10.430 -0.7019  0.4511  0.9256
  246MOL0     H33888   2.119   0.719  10.288 -3.6129 -0.6869  0.6863
  246MOL0     H33889   2.300   0.573  10.332 -0.2692  1.0448  1.8750
  246MOL0     H33890   2.143   0.482  10.287  1.3168 -1.8355  0.4085
  246MOL0     H33891   2.278   0.503  10.557  0.3838 -0.1961 -1.4471
  246MOL0     H33892   2.107   0.440  10.520 -1.2154 -1.2659 -2.9579
  246MOL0     H33893   2.342   0.277  10.529  1.0056  1.5915 -0.4650
  246MOL0     H33894   2.351   0.353  10.365 -1.3130  3.5902 -0.0428
  246MOL0     H33895   2.115   0.200  10.498  1.0638 -0.2000 -1.0065
  246MOL0     H33896   2.105   0.260  10.341  0.6976  1.2295  0.4871
  246MOL0     H33897   2.328   0.130  10.174  1.7382 -0.0223 -0.1109
  246MOL0     H33898   2.351  -0.170  10.077 -0.7845 -1.9202 -0.5528
  246MOL0     H33899   2.399  -0.267  10.207  1.5752  1.1850  1.3356
  246MOL0     H33900   2.595  -0.104  10.256  0.7041 -0.9156  0.3645
  246MOL0     H33901   2.596  -0.223  10.126 -1.8938 -2.6508  3.3170
  246MOL0     H33902   2.509  -0.032   9.962 -1.7741  2.2199  1.3651
  246MOL0     H33903   2.562   0.080  10.091 -1.2835 -0.8387  1.9201
  246MOL0     H33904   2.724  -0.103   9.930 -0.5290 -0.3249 -0.0393
  246MOL0     H33905   2.705   0.066   9.909 -0.4094  0.3788  0.1439
  246MOL0     H33906   2.769   0.250   9.990  0.2282  0.0508 -0.8322
  246MOL0     H33907   2.974   0.538   9.924  0.8042 -0.1813  2.4140
  246MOL0     H33908   2.849   0.539  10.050 -1.3204  1.1275 -1.3426
  246MOL0     H33909   2.817   0.451   9.902 -0.0201 -3.7858  0.6447
  246MOL0     H33910   3.177   0.708  10.033 -0.7455  3.4408 -0.7099
  246MOL0     H33911   3.304   0.924   9.971  2.0889  0.6428 -1.3413
  246MOL0     H33912   3.644   0.891   9.802  0.2371  1.6578  2.5094
  246MOL0     H33913   3.588   0.946   9.647 -0.7327 -2.9016  0.5225
  246MOL0     H33914   3.580   1.182   9.735 -2.2633 -1.8222  2.2766
  246MOL0     H33915   3.644   1.136   9.886 -2.8909  1.3939  0.4232
  246MOL0     H33916   3.809   1.120   9.631  1.5879 -0.3906  0.5608
  246MOL0     H33917   3.850   1.041   9.774  1.5432  1.4837  0.1679
  246MOL0     H33918   3.816   1.269   9.900  0.5401  3.3130  0.0425
  246MOL0     H33919   3.825   1.341   9.735 -0.8061 -1.1213 -1.7862
  246MOL0     H33920   4.032   1.136   9.857  0.9414  0.6536  1.0491
  246MOL0     H33921   4.059   1.245   9.718  0.2051 -0.7107 -0.1936
  246MOL0     H33922   4.008   1.346  10.005  1.1558  1.4415  0.7977
  246MOL0     H33923   4.039   1.436   9.876 -1.3758 -0.0228  0.5536
  246MOL0     H33924   4.265   1.393   9.972 -0.2862 -0.3043  1.1830
  246MOL0     H33925   4.267   1.290   9.827 -0.2754 -3.1535  0.7666
  246MOL0     H33926   4.342   1.146   9.997  1.0425  1.7293  2.9076
  246MOL0     H33927   4.167   1.106  10.023 -1.3674 -0.2489 -1.4804
  246MOL0     H33928   3.502   0.732   9.660  1.8631 -0.2147  0.6347
  246MOL0     H33929   3.411   0.522   9.709 -1.6814 -2.7119  2.3379
  246MOL0     H33930   3.220   0.166  10.132 -1.4122 -0.0019  0.5889
  246MOL0     H33931   3.075   0.008  10.171 -1.0896  0.1159  1.1704
  246MOL0     H33932   2.263   1.233  10.468 -0.2437  0.8949  0.5395
  246MOL0     H33933   2.248   1.381  10.275  0.8376 -0.2770 -0.7144
  246MOL0     H33934   2.421   1.561   9.921  0.8686  0.2962 -0.5476
  246MOL0     H33935   2.454   1.662   9.682  0.5207  0.3316 -1.2354
  246MOL0     H33936   2.379   1.777   9.512 -0.2962 -1.1450  1.3302
  246MOL0     H33937   2.487   1.661   9.433  0.0784 -0.3207 -2.4940
  246MOL0     H33938   2.326   1.863   9.303 -3.7662 -0.9374 -0.3353
  246MOL0     H33939   2.243   1.705   9.284 -0.3084 -0.4605  0.3245
  246MOL0     H33940   2.534   1.762   9.192  1.4530 -1.0880 -2.6364
  246MOL0     H33941   2.456   1.600   9.209  1.8912  1.1000  3.0951
  246MOL0     H33942   2.320   1.848   9.067 -0.8558  0.9857  2.8416
  246MOL0     H33943   2.296   1.673   9.033  1.2693  0.0255 -1.7722
  246MOL0     H33944   2.631   1.683   8.806 -1.2612 -0.0024 -2.6079
  246MOL0     H33945   2.118   1.411   9.558  2.3737 -1.3245 -3.1093
  246MOL0     H33946   2.142   1.160   9.782  0.2079 -1.3506 -0.4403
  246MOL0     H33947   2.021   1.292   9.833  2.5537  1.2140  0.9036
  246MOL0     H33948   2.047   1.246   9.661  0.1174 -0.7056  0.0269
  247MOL0     O33949   4.127  10.768   2.403 -0.2488  0.0261  0.8434
  247MOL0     C33950   4.017  10.816   2.437 -0.3860  1.2592 -1.1165
  247MOL0     O33951   3.909  10.827   2.356 -0.2684  0.1596  0.1697
  247MOL0     C33952   3.909  10.750   2.249 -0.2320  0.0585  0.9095
  247MOL0     C33953   3.909  10.814   2.119 -0.5372 -0.3666  0.1489
  247MOL0     C33954   3.899  10.737   2.001 -0.3685 -0.1389  0.1203
  247MOL0     C33955   3.892  10.601   2.005 -0.5721  0.4181  0.5450
  247MOL0     O33956   3.892  10.514   1.890  0.3584 -0.4723 -0.0250
  247MOL0     C33957   3.947  10.562   1.770 -0.4693 -0.0811 -0.1874
  247MOL0     C33958   3.935  10.458   1.654  1.2687  0.0482 -0.2469
  247MOL0     C33959   4.062  10.494   1.569 -1.1586  0.1760 -0.2044
  247MOL0     C33960   4.059  10.430   1.428 -0.7265 -0.8629  0.6375
  247MOL0     C33961   4.201  10.453   1.356  0.2548 -0.3297 -0.3053
  247MOL0     C33962   4.210  10.373   1.222 -0.2831  0.0102 -0.1858
  247MOL0     C33963   4.302  10.435   1.118  0.2692  0.1610 -0.5118
  247MOL0     C33964   4.315  10.360   0.980  0.6951 -1.0819 -0.6719
  247MOL0     N33965   4.420  10.414   0.890 -0.2554 -0.1667 -0.3946
  247MOL0     C33966   4.546  10.351   0.868  0.4002 -1.2090  0.1644
  247MOL0     C33967   4.608  10.432   0.780 -0.1726  0.8029 -0.3679
  247MOL0     C33968   4.746  10.407   0.735 -0.3397 -0.2542 -0.9772
  247MOL0     C33969   4.764  10.333   0.604 -0.3281 -0.2658 -0.2292
  247MOL0     C33970   4.917  10.312   0.579  0.6637 -0.2858  0.6588
  247MOL0     C33971   4.967  10.204   0.662 -0.5884  0.0537 -0.3943
  247MOL0     O33972   4.898  10.084   0.627  0.2732 -0.6821 -0.2592
  247MOL0     C33973   4.930   9.961   0.684  0.3832  0.7580  0.3262
  247MOL0     C33974   5.012   9.934   0.791  0.8570  0.0856  0.1348
  247MOL0     C33975   5.028   9.811   0.844 -0.4332 -0.0333  0.3942
  247MOL0     C33976   5.132   9.790   0.952 -0.1859 -0.2459 -0.2012
  247MOL0     C33977   4.958   9.703   0.783 -0.1261  0.2092  0.8556
  247MOL0     C33978   4.992   9.563   0.823  0.3336 -0.9485  0.7294
  247MOL0     O33979   5.105   9.511   0.759 -0.3318 -0.6091 -0.2834
  247MOL0     C33980   5.162   9.399   0.813 -0.5832 -0.5994 -0.5711
  247MOL0     C33981   5.252   9.424   0.916  0.2691  0.0087 -0.2336
  247MOL0     C33982   5.315   9.314   0.970 -0.9147 -0.5610 -0.0717
  247MOL0     C33983   5.312   9.187   0.902  1.0628 -0.1287  0.2202
  247MOL0     O33984   5.389   9.098   0.963  0.1882 -0.1227 -0.7111
  247MOL0     C33985   5.459   9.005   0.889 -0.2526 -0.9102 -0.4667
  247MOL0     C33986   5.381   8.866   0.891  0.6415  0.7958  0.2751
  247MOL0     C33987   5.388   8.810   1.040  0.8150  0.4709  1.1151
  247MOL0     C33988   5.518   8.717   1.053 -0.5325  0.3162 -0.8687
  247MOL0     C33989   5.518   8.659   1.202 -0.0375  0.0519 -0.2703
  247MOL0     C33990   5.568   8.771   1.296 -0.0228 -0.2418 -0.7432
  247MOL0     C33991   5.602   8.702   1.431  0.0424 -0.0747  0.4904
  247MOL0     C33992   5.623   8.810   1.541 -0.6962  0.0888  0.3546
  247MOL0    Cl33993   5.615   8.744   1.702  0.0753 -0.0712 -0.3648
  247MOL0     C33994   5.223   9.171   0.798  0.6793  0.0319 -0.8251
  247MOL0     C33995   5.152   9.280   0.752 -1.0354 -0.4393 -0.7055
  247MOL0     O33996   4.916   9.511   0.902 -0.0291  0.3374 -0.3398
  247MOL0     C33997   4.873   9.725   0.672  0.1487  0.5564 -0.0503
  247MOL0     C33998   4.860   9.852   0.631 -1.0479  0.0896 -0.2143
  247MOL0     N33999   4.512  10.532   0.741  0.6628 -0.4610  0.1548
  247MOL0     N34000   4.398  10.521   0.809 -0.2785 -0.1319  0.9756
  247MOL0     C34001   3.891  10.537   2.129  0.9525  0.3815  0.4878
  247MOL0     C34002   3.896  10.613   2.252 -0.4886 -0.0576  0.0526
  247MOL0     C34003   4.018  10.878   2.575 -0.0346  0.4278  0.2080
  247MOL0     C34004   4.136  10.864   2.659 -1.1531  0.6885  0.1433
  247MOL0     C34005   4.123  10.903   2.797 -0.0475 -0.4860 -0.8535
  247MOL0     C34006   4.018  10.984   2.842 -0.0572  0.2096  0.6958
  247MOL0     O34007   4.016  11.014   2.975 -0.6003 -0.2191 -0.5810
  247MOL0     C34008   4.001  11.138   3.026  0.4785 -0.4925 -0.4560
  247MOL0     C34009   3.954  11.119   3.165 -0.9061 -0.6005  0.6891
  247MOL0     C34010   3.935  11.255   3.242  0.0580 -0.5796 -0.1392
  247MOL0     C34011   3.846  11.233   3.362  0.0775  0.3728 -0.3702
  247MOL0     C34012   3.869  11.117   3.448  1.7301 -0.5470 -0.8458
  247MOL0     C34013   3.852  11.027   3.531 -0.6280  0.8800 -0.0851
  247MOL0     C34014   3.925  11.020   2.756 -0.4779  0.3405 -0.8606
  247MOL0     C34015   3.913  10.966   2.629  0.4051  0.2362 -0.7990
  247MOL0     C34016   3.789  11.009   2.548 -0.9193 -0.2765  0.5065
  247MOL0     H34017   3.910  10.921   2.103 -0.4494 -0.7065 -2.6539
  247MOL0     H34018   3.901  10.779   1.901 -0.5627 -0.8502 -0.1827
  247MOL0     H34019   4.052  10.572   1.799 -0.2892 -2.9514  0.4204
  247MOL0     H34020   3.904  10.661   1.750 -0.9620  0.4094  2.8789
  247MOL0     H34021   3.934  10.354   1.687 -1.7835 -0.7518 -2.3862
  247MOL0     H34022   3.845  10.477   1.595  1.6087 -1.5662 -1.3765
  247MOL0     H34023   4.071  10.603   1.566  0.1036  0.0779 -0.5213
  247MOL0     H34024   4.152  10.456   1.618 -0.3809 -0.3901 -2.0142
  247MOL0     H34025   4.038  10.322   1.431  0.3620 -1.1081 -0.1816
  247MOL0     H34026   3.981  10.474   1.364  1.9907 -0.2591 -2.5224
  247MOL0     H34027   4.277  10.417   1.426  0.6459  0.1223 -0.5004
  247MOL0     H34028   4.218  10.559   1.335  2.8617 -0.6113  0.1173
  247MOL0     H34029   4.242  10.273   1.253  0.3728 -0.1443 -1.3039
  247MOL0     H34030   4.108  10.353   1.190 -1.1608 -1.2060  2.9730
  247MOL0     H34031   4.393  10.451   1.176 -1.4298 -1.2509  2.8122
  247MOL0     H34032   4.266  10.534   1.089 -2.7744 -0.3949  0.9519
  247MOL0     H34033   4.312  10.254   1.007 -0.4350 -0.0483  4.1041
  247MOL0     H34034   4.221  10.367   0.924  0.6452 -0.3003 -0.5117
  247MOL0     H34035   4.569  10.263   0.927 -2.1030  0.0153  3.2536
  247MOL0     H34036   4.789  10.346   0.815 -4.6676  0.6250  2.3794
  247MOL0     H34037   4.804  10.500   0.749 -1.8200  0.2724  3.1758
  247MOL0     H34038   4.695  10.249   0.589 -0.3555 -0.5541  1.3055
  247MOL0     H34039   4.728  10.402   0.527 -0.2169  1.0660  0.8820
  247MOL0     H34040   4.931  10.278   0.476  0.0604 -0.0760  0.5050
  247MOL0     H34041   4.980  10.400   0.593 -0.2021  0.7018 -1.2802
  247MOL0     H34042   5.073  10.183   0.648 -1.2009 -2.5247 -1.5937
  247MOL0     H34043   4.942  10.217   0.768  1.8639 -1.5915  0.4666
  247MOL0     H34044   5.058  10.019   0.839 -0.2857 -0.8498  3.1124
  247MOL0     H34045   5.085   9.735   1.034 -0.4836  2.9305  1.9616
  247MOL0     H34046   5.169   9.887   0.985  0.6424 -0.0903 -1.5116
  247MOL0     H34047   5.220   9.740   0.911 -1.6200 -1.7045 -1.6305
  247MOL0     H34048   5.263   9.523   0.960  1.0050  1.2786 -3.0790
  247MOL0     H34049   5.391   9.321   1.048 -0.4594  0.8975 -0.6092
  247MOL0     H34050   5.477   9.041   0.787 -0.7407  1.9081  0.3422
  247MOL0     H34051   5.559   8.996   0.931 -0.0832 -1.6672 -1.0121
  247MOL0     H34052   5.278   8.895   0.867  0.5827 -0.5012 -1.1634
  247MOL0     H34053   5.427   8.787   0.831 -0.0525 -1.6666  2.7759
  247MOL0     H34054   5.296   8.757   1.064  1.2283  0.5542  3.0301
  247MOL0     H34055   5.384   8.890   1.115  0.6521  1.9886 -0.4480
  247MOL0     H34056   5.612   8.770   1.039 -1.5282  1.9962 -1.4060
  247MOL0     H34057   5.522   8.633   0.982 -3.6437  0.2648 -1.1088
  247MOL0     H34058   5.419   8.637   1.244  0.4886  1.1824  1.7008
  247MOL0     H34059   5.587   8.575   1.211  2.6601  2.1149 -0.4324
  247MOL0     H34060   5.490   8.843   1.322 -0.7919 -1.0737 -0.6955
  247MOL0     H34061   5.653   8.828   1.258 -2.3761  3.5831 -0.8956
  247MOL0     H34062   5.684   8.632   1.414  0.7444  1.1269 -1.3391
  247MOL0     H34063   5.523   8.632   1.461  1.4157 -0.9357  2.3616
  247MOL0     H34064   5.540   8.881   1.529 -0.3653  0.9187  2.5675
  247MOL0     H34065   5.723   8.852   1.527  0.0028 -1.4242  0.5737
  247MOL0     H34066   5.205   9.080   0.742 -1.3574  1.3999 -2.5494
  247MOL0     H34067   5.090   9.265   0.664  1.2197 -0.4223 -2.4026
  247MOL0     H34068   4.832   9.644   0.613 -2.9714  0.4340  2.0493
  247MOL0     H34069   4.791   9.869   0.549 -0.7123  0.2581 -0.4657
  247MOL0     H34070   3.861  10.433   2.131  0.1834  0.5874  0.0948
  247MOL0     H34071   3.900  10.559   2.346  2.6625 -0.4582 -0.2071
  247MOL0     H34072   4.226  10.812   2.627 -0.5649  1.1866  0.9457
  247MOL0     H34073   4.200  10.879   2.869  1.9835  4.2173 -1.1314
  247MOL0     H34074   4.096  11.192   3.037 -0.8694  1.5666  2.5674
  247MOL0     H34075   3.920  11.198   2.986 -1.7577  0.3424  4.5135
  247MOL0     H34076   4.032  11.066   3.222  1.1434  0.7011 -0.7477
  247MOL0     H34077   3.859  11.066   3.163 -1.8952  1.0569 -2.5743
  247MOL0     H34078   4.025  11.300   3.283  0.6959 -1.4503 -0.5464
  247MOL0     H34079   3.894  11.326   3.169  0.9343  1.0640  0.9038
  247MOL0     H34080   3.741  11.236   3.331 -0.2798  0.7461  0.8322
  247MOL0     H34081   3.847  11.322   3.426  0.4765 -0.3958  0.7077
  247MOL0     H34082   3.850  10.946   3.600 -0.7388  1.6889  0.8907
  247MOL0     H34083   3.841  11.075   2.796 -0.9625  1.2522 -2.9789
  247MOL0     H34084   3.804  11.016   2.439  3.7712 -0.1891  0.9585
  247MOL0     H34085   3.712  10.934   2.569 -2.1561  0.7337 -0.2327
  247MOL0     H34086   3.754  11.100   2.597  1.0013  0.8280 -0.0848
  248MOL0     O34087   2.672   8.457  11.390 -0.3416 -0.5550  0.1356
  248MOL0     C34088   2.639   8.397  11.490  0.9365  0.1383 -0.2608
  248MOL0     O34089   2.717   8.305  11.553 -0.3685  0.2159 -0.5781
  248MOL0     C34090   2.834   8.276  11.490  0.1079 -0.6902 -0.2092
  248MOL0     C34091   2.834   8.195  11.379  0.1428 -0.4635 -0.0589
  248MOL0     C34092   2.951   8.173  11.311 -0.5645 -0.6859  0.8851
  248MOL0     C34093   3.067   8.242  11.346 -0.6782 -0.0952 -0.8282
  248MOL0     O34094   3.160   8.228  11.252 -0.2025 -0.5666  0.2246
  248MOL0     C34095   3.262   8.329  11.236  0.3267 -0.0048  0.0971
  248MOL0     C34096   3.227   8.480  11.215 -0.3586  0.4884  1.2762
  248MOL0     C34097   3.137   8.516  11.095  0.0402  0.0702 -0.1150
  248MOL0     C34098   3.120   8.670  11.090  0.0735 -0.5617  0.7323
  248MOL0     C34099   2.994   8.712  11.013  0.0349  0.1449 -0.8437
  248MOL0     C34100   2.878   8.694  11.108  1.0960  0.5402 -0.0263
  248MOL0     C34101   2.764   8.780  11.055  1.5152 -0.1001  0.4447
  248MOL0     C34102   2.636   8.788  11.136  0.4841  0.2116 -0.3145
  248MOL0     N34103   2.549   8.678  11.091 -0.2617 -0.2458 -0.1251
  248MOL0     C34104   2.587   8.547  11.082 -0.0709  1.3874  0.0866
  248MOL0     C34105   2.486   8.481  11.023  1.2028 -0.4575  0.3528
  248MOL0     C34106   2.473   8.333  10.981 -0.6161 -0.6522 -0.2851
  248MOL0     C34107   2.481   8.235  11.099  0.0044  0.4839 -0.5273
  248MOL0     C34108   2.438   8.085  11.055  0.4314  0.3050 -0.4733
  248MOL0     C34109   2.471   7.986  11.166  0.3503  0.9550 -0.1908
  248MOL0     O34110   2.418   8.026  11.296  0.1410  0.2205  0.0081
  248MOL0     C34111   2.287   8.017  11.316  0.2843 -1.1185 -0.3797
  248MOL0     C34112   2.239   8.118  11.401  0.3193 -0.5758  0.4287
  248MOL0     C34113   2.100   8.122  11.439 -0.8329  0.2311  0.9415
  248MOL0     C34114   2.050   8.213  11.541 -0.5425 -0.8459 -0.3407
  248MOL0     C34115   2.015   8.024  11.383  0.5301 -0.3544 -0.3040
  248MOL0     C34116   1.865   8.022  11.403  0.1457  0.6045 -0.2529
  248MOL0     O34117   1.808   8.021  11.525  0.7629  0.0287 -0.3777
  248MOL0     C34118   1.672   8.040  11.544 -0.8078 -0.1635  0.8882
  248MOL0     C34119   1.595   7.941  11.616  0.1486  0.2560 -1.5109
  248MOL0     C34120   1.455   7.945  11.622 -0.2628  0.0614  0.4702
  248MOL0     C34121   1.380   8.048  11.561 -0.5481  0.1408 -0.1491
  248MOL0     O34122   1.242   8.048  11.565 -0.2739  0.1583  0.0046
  248MOL0     C34123   1.159   8.160  11.523 -0.4224  0.1065  0.5405
  248MOL0     C34124   1.031   8.120  11.445  0.5413  0.1875 -0.1015
  248MOL0     C34125   0.962   8.241  11.388  0.7101 -0.4719  0.2878
  248MOL0     C34126   1.013   8.295  11.257 -0.4145  0.4354  0.2625
  248MOL0     C34127   0.915   8.402  11.201 -0.0086 -0.7294  0.8020
  248MOL0     C34128   0.988   8.468  11.078  0.7003  0.3561 -0.7890
  248MOL0     C34129   0.902   8.568  11.009  0.0604  0.9270  0.4574
  248MOL0     C34130   0.823   8.510  10.892 -0.3869 -0.2469  0.3956
  248MOL0    Cl34131   0.678   8.416  10.928 -0.2501  0.1305 -0.3434
  248MOL0     C34132   1.452   8.151  11.500 -0.3690 -0.0358  0.8909
  248MOL0     C34133   1.591   8.144  11.496  0.3954  0.2994  0.3436
  248MOL0     O34134   1.802   8.015  11.302  0.8127 -0.4042  0.8816
  248MOL0     C34135   2.064   7.929  11.291  0.7692 -0.9321  0.7620
  248MOL0     C34136   2.194   7.929  11.254  0.0326  1.3131 -0.1083
  248MOL0     N34137   2.394   8.575  10.986 -0.3226 -0.5831  0.5675
  248MOL0     N34138   2.425   8.686  11.029 -0.3024 -0.4480  0.1860
  248MOL0     C34139   3.066   8.327  11.458  0.1629 -0.3787  0.4501
  248MOL0     C34140   2.954   8.333  11.536  0.5550 -0.1542 -0.2015
  248MOL0     C34141   2.511   8.434  11.562 -0.3477 -0.3520  0.3605
  248MOL0     C34142   2.495   8.392  11.692  1.1328  0.7936  0.0410
  248MOL0     C34143   2.375   8.427  11.761  0.0520  0.5439 -1.0901
  248MOL0     C34144   2.272   8.493  11.705 -0.5040 -0.0925  0.1216
  248MOL0     O34145   2.175   8.547  11.783  0.1081  0.0218 -0.0833
  248MOL0     C34146   2.187   8.686  11.798 -0.0621  0.2195 -1.3499
  248MOL0     C34147   2.057   8.747  11.757 -0.8565  0.7346 -0.4958
  248MOL0     C34148   1.943   8.697  11.854  0.0989  0.1734 -0.1069
  248MOL0     C34149   1.962   8.725  12.012  0.8031  0.1424  0.3425
  248MOL0     C34150   1.955   8.876  12.039 -0.0579 -0.4650  0.7078
  248MOL0     C34151   1.948   8.995  12.062  0.2395  0.6548  0.9117
  248MOL0     C34152   2.284   8.533  11.577 -0.4026  0.2090  0.0663
  248MOL0     C34153   2.407   8.507  11.503 -0.0740 -0.0991 -0.3956
  248MOL0     C34154   2.396   8.552  11.365  0.6054  0.0821  1.0989
  248MOL0     H34155   2.751   8.126  11.367  0.9224 -0.9767 -3.1413
  248MOL0     H34156   2.956   8.099  11.232  1.1620 -0.0237  0.3332
  248MOL0     H34157   3.327   8.295  11.155 -0.0913  1.2883 -0.8146
  248MOL0     H34158   3.317   8.331  11.330 -3.2917  2.8065  2.4264
  248MOL0     H34159   3.178   8.521  11.304 -1.2734  0.0030  1.0032
  248MOL0     H34160   3.320   8.538  11.207  0.8194 -1.3631  0.9604
  248MOL0     H34161   3.174   8.470  11.003 -1.4885  5.1666 -3.7547
  248MOL0     H34162   3.030   8.493  11.101 -0.7211  3.1127 -0.2457
  248MOL0     H34163   3.116   8.714  11.190  3.0891 -0.8644  1.0750
  248MOL0     H34164   3.209   8.705  11.037 -1.2939  1.5500 -0.3359
  248MOL0     H34165   2.979   8.652  10.923  0.3102  1.2864 -1.6786
  248MOL0     H34166   2.997   8.817  10.982 -1.6706  1.7593  3.6213
  248MOL0     H34167   2.841   8.591  11.116 -1.3008  1.3097 -0.3853
  248MOL0     H34168   2.907   8.725  11.209  2.9363  3.3528 -1.2919
  248MOL0     H34169   2.744   8.740  10.956 -1.7643 -1.6673  1.5914
  248MOL0     H34170   2.796   8.884  11.049  1.6132  0.0298  2.3204
  248MOL0     H34171   2.656   8.782  11.243  0.0797  2.8720 -0.0182
  248MOL0     H34172   2.595   8.889  11.122 -1.5374 -0.1613  2.1621
  248MOL0     H34173   2.677   8.503  11.124 -2.4493 -0.6693  3.5901
  248MOL0     H34174   2.552   8.303  10.911  0.0850  0.4568  0.0062
  248MOL0     H34175   2.378   8.325  10.926 -2.2728 -0.3584  2.3770
  248MOL0     H34176   2.586   8.243  11.130 -0.6529  2.0309  1.5670
  248MOL0     H34177   2.428   8.266  11.190 -0.2761  0.4866 -0.6922
  248MOL0     H34178   2.331   8.072  11.040  0.3851 -0.5397  0.4763
  248MOL0     H34179   2.483   8.069  10.957  1.1382  2.2996 -0.5297
  248MOL0     H34180   2.425   7.889  11.149 -0.0834  0.9798  0.7569
  248MOL0     H34181   2.579   7.966  11.159 -0.0216 -1.8780  0.9308
  248MOL0     H34182   2.312   8.190  11.437 -0.4399  0.5147 -0.1573
  248MOL0     H34183   2.004   8.155  11.621  3.4332 -1.5557  1.6863
  248MOL0     H34184   1.988   8.298  11.513 -1.9493 -1.2937  1.2786
  248MOL0     H34185   2.139   8.265  11.578 -2.8994  3.0814  0.2952
  248MOL0     H34186   1.650   7.864  11.669 -1.7920  0.2117  0.5805
  248MOL0     H34187   1.411   7.873  11.690  1.5679 -1.5838  0.0000
  248MOL0     H34188   1.146   8.233  11.603  2.3237  0.7031  0.5554
  248MOL0     H34189   1.211   8.218  11.446  3.3562  0.0202  2.7964
  248MOL0     H34190   1.055   8.046  11.368  0.4921 -2.8025  2.5751
  248MOL0     H34191   0.965   8.071  11.517 -0.7868 -0.9672 -1.9834
  248MOL0     H34192   0.950   8.321  11.461 -0.1592 -1.4079  1.1990
  248MOL0     H34193   0.857   8.210  11.382  0.8521 -0.7247 -1.5793
  248MOL0     H34194   1.036   8.212  11.190  1.1905  0.3646  0.8536
  248MOL0     H34195   1.109   8.340  11.285 -2.4168  2.5635  4.8782
  248MOL0     H34196   0.821   8.354  11.171 -0.8252  2.0824 -1.5285
  248MOL0     H34197   0.885   8.482  11.269 -3.2766 -0.4515 -0.7365
  248MOL0     H34198   1.019   8.397  11.002 -3.5286 -0.5151 -1.9583
  248MOL0     H34199   1.072   8.517  11.128  0.2714  0.4392 -0.1290
  248MOL0     H34200   0.960   8.653  10.972 -3.0205  2.7635 -0.5477
  248MOL0     H34201   0.835   8.609  11.084 -1.5775  1.6100 -1.2968
  248MOL0     H34202   0.889   8.442  10.837 -0.1170  1.6535 -1.8086
  248MOL0     H34203   0.804   8.592  10.821 -2.4404 -0.1382  1.0090
  248MOL0     H34204   1.403   8.223  11.436  2.7633  1.8122  0.3698
  248MOL0     H34205   1.643   8.227  11.449  0.4898 -1.4647 -2.9386
  248MOL0     H34206   1.985   7.875  11.241  0.4708 -2.0409  2.3560
  248MOL0     H34207   2.217   7.864  11.170 -3.3013  0.5994 -0.6228
  248MOL0     H34208   3.165   8.362  11.483  0.2220  0.1662 -0.4819
  248MOL0     H34209   2.953   8.407  11.617 -1.5449 -0.1973 -0.1437
  248MOL0     H34210   2.572   8.344  11.752 -0.3760  1.1655  2.4127
  248MOL0     H34211   2.378   8.422  11.870 -0.5100  1.2475 -1.0287
  248MOL0     H34212   2.201   8.703  11.905 -0.7354 -0.2221 -1.1843
  248MOL0     H34213   2.266   8.744  11.750 -0.7887  2.7078  0.2589
  248MOL0     H34214   2.047   8.720  11.651  1.9209 -1.5549 -0.2790
  248MOL0     H34215   2.069   8.855  11.770  0.6800  0.9744 -3.2236
  248MOL0     H34216   1.850   8.731  11.807  0.7167  2.0824 -0.0176
  248MOL0     H34217   1.939   8.589  11.839  0.9975  0.2014 -0.6379
  248MOL0     H34218   2.056   8.679  12.042  0.3402  0.2063  2.0003
  248MOL0     H34219   1.875   8.685  12.066  1.4244 -0.8105  0.6624
  248MOL0     H34220   1.921   9.099  12.068 -1.1758  0.2470  2.4968
  248MOL0     H34221   2.209   8.594  11.530  0.2946  1.5075  0.5879
  248MOL0     H34222   2.415   8.466  11.300  0.4982  1.3600 -0.6966
  248MOL0     H34223   2.297   8.594  11.342  1.0799  0.0458 -1.2860
  248MOL0     H34224   2.478   8.623  11.355  1.1552 -0.7934 -1.5501
  249MOL0     O34225   9.090   2.712   4.315 -0.1842 -0.2224  0.1855
  249MOL0     C34226   9.083   2.791   4.410 -0.9680  0.9336  0.1931
  249MOL0     O34227   9.173   2.794   4.517  0.9011 -0.3660  0.0269
  249MOL0     C34228   9.280   2.693   4.514  0.8428 -0.7914  1.0231
  249MOL0     C34229   9.403   2.752   4.488  0.2597  0.2919  0.0270
  249MOL0     C34230   9.520   2.671   4.482 -0.4512 -0.7577  1.3164
  249MOL0     C34231   9.515   2.530   4.489  0.1661 -0.5001 -0.1877
  249MOL0     O34232   9.629   2.453   4.456  0.3892  0.0744 -0.0150
  249MOL0     C34233   9.655   2.338   4.541  0.7977  0.3844  0.0424
  249MOL0     C34234   9.806   2.318   4.555 -0.2658 -1.2663 -1.0531
  249MOL0     C34235   9.847   2.234   4.673  0.0846  0.2435  0.4364
  249MOL0     C34236  10.001   2.233   4.692 -0.4880 -0.2351  0.0419
  249MOL0     C34237  10.034   2.112   4.762 -0.0863 -0.1178  1.2627
  249MOL0     C34238  10.166   2.117   4.841 -0.4031 -0.3316 -0.2812
  249MOL0     C34239  10.199   1.982   4.903 -0.0527  0.2010  1.2602
  249MOL0     C34240  10.338   1.979   4.941 -0.9554  0.0499  0.4197
  249MOL0     N34241  10.373   1.850   5.009 -0.7117 -0.5059  0.7325
  249MOL0     C34242  10.465   1.762   4.958  0.4087 -0.4294 -0.8168
  249MOL0     C34243  10.456   1.653   5.038  1.1859  1.2894  0.3960
  249MOL0     C34244  10.535   1.528   5.038  0.0702 -0.9576 -0.6666
  249MOL0     C34245  10.662   1.537   5.122 -0.4509  0.0712  0.4648
  249MOL0     C34246  10.730   1.398   5.102  0.4439  0.5880  0.0197
  249MOL0     C34247  10.869   1.405   5.152  0.9871 -0.0759  0.1359
  249MOL0     O34248  10.886   1.432   5.291 -0.6012  0.7899  0.3363
  249MOL0     C34249  10.918   1.323   5.362 -0.2888 -1.0144 -0.8377
  249MOL0     C34250  11.052   1.298   5.401 -0.7910 -0.7017  0.5095
  249MOL0     C34251  11.087   1.182   5.475  0.3468  0.2069 -0.8648
  249MOL0     C34252  11.227   1.160   5.530  0.0415  0.3509 -0.6511
  249MOL0     C34253  10.986   1.089   5.502 -0.1069  0.1087  0.0774
  249MOL0     C34254  11.028   0.960   5.561  0.3394 -0.1593 -0.4854
  249MOL0     O34255  11.069   0.854   5.484 -0.0706 -0.1100  0.3071
  249MOL0     C34256  11.121   0.744   5.530 -0.8313 -0.2416  1.3279
  249MOL0     C34257  11.196   0.678   5.430 -0.3856 -0.1591 -0.3301
  249MOL0     C34258  11.268   0.561   5.469 -0.4096 -0.6368 -0.3178
  249MOL0     C34259  11.277   0.517   5.597 -0.4594 -1.0006 -0.2100
  249MOL0     O34260  11.380   0.427   5.629  0.0403 -0.5085 -1.0301
  249MOL0     C34261  11.443   0.459   5.761 -0.6533  0.1503  0.6467
  249MOL0     C34262  11.591   0.407   5.762  0.2117 -0.2187  0.8849
  249MOL0     C34263  11.595   0.261   5.780  0.2328  0.0079 -0.2189
  249MOL0     C34264  11.734   0.218   5.800 -0.1133 -0.5773  0.1838
  249MOL0     C34265  11.755   0.066   5.788 -0.0797  0.7791  0.3526
  249MOL0     C34266  11.878   0.007   5.845 -0.7132 -0.5445  0.0019
  249MOL0     C34267  11.859  -0.147   5.856 -0.4768  0.6780  0.4085
  249MOL0     C34268  11.991  -0.209   5.898  0.3407 -0.5234  0.6384
  249MOL0    Cl34269  11.977  -0.379   5.863  0.3079  0.2974  0.1029
  249MOL0     C34270  11.184   0.580   5.688  1.0712  0.3026  0.5888
  249MOL0     C34271  11.109   0.691   5.652  0.3011 -0.2449 -0.4740
  249MOL0     O34272  11.018   0.972   5.687 -0.0606  0.3053 -0.0594
  249MOL0     C34273  10.851   1.120   5.468  0.1486 -0.0020 -0.2464
  249MOL0     C34274  10.815   1.243   5.414 -0.9939 -0.2692 -0.2278
  249MOL0     N34275  10.374   1.681   5.149 -0.2101 -0.4296  0.2622
  249MOL0     N34276  10.331   1.803   5.133 -0.7479  0.2965  0.5951
  249MOL0     C34277   9.391   2.476   4.527 -0.0124 -0.0093 -0.2009
  249MOL0     C34278   9.273   2.554   4.538  0.0400 -0.2452 -0.5330
  249MOL0     C34279   8.974   2.882   4.399  1.2096 -0.4220  0.5686
  249MOL0     C34280   8.897   2.892   4.522  0.0083 -0.2193  0.5404
  249MOL0     C34281   8.799   2.993   4.537  0.4798 -0.3293 -0.4213
  249MOL0     C34282   8.780   3.085   4.434 -0.0438 -0.5333 -0.0494
  249MOL0     O34283   8.690   3.185   4.432  0.3687 -0.2586  0.2170
  249MOL0     C34284   8.566   3.175   4.510  0.4432 -0.2420 -0.9421
  249MOL0     C34285   8.498   3.313   4.509 -0.2560 -1.0678 -0.1207
  249MOL0     C34286   8.450   3.354   4.361  0.2718  0.0411 -0.4937
  249MOL0     C34287   8.427   3.506   4.340 -0.2264 -0.0407 -0.1825
  249MOL0     C34288   8.361   3.532   4.206  0.2227 -0.2902  0.1092
  249MOL0     C34289   8.312   3.554   4.098  0.1587 -0.5139  0.9523
  249MOL0     C34290   8.849   3.073   4.312 -0.3485 -0.3194 -0.0617
  249MOL0     C34291   8.942   2.975   4.288  0.1727  1.0292 -0.3576
  249MOL0     C34292   8.995   2.957   4.156 -0.3136  0.3038 -0.2376
  249MOL0     H34293   9.404   2.857   4.459  1.1824  0.0152 -1.0015
  249MOL0     H34294   9.614   2.723   4.469 -0.4587 -1.2248 -1.2917
  249MOL0     H34295   9.611   2.243   4.509  2.5420 -0.5876  0.3875
  249MOL0     H34296   9.622   2.345   4.645  1.3609 -2.3186  0.4810
  249MOL0     H34297   9.860   2.282   4.466 -0.5158 -2.1143 -0.8688
  249MOL0     H34298   9.844   2.420   4.566 -2.8740 -0.2111 -1.1264
  249MOL0     H34299   9.790   2.280   4.755  2.9883  0.8905  2.2217
  249MOL0     H34300   9.814   2.133   4.649  2.4684 -0.0246 -2.1554
  249MOL0     H34301  10.065   2.229   4.603 -0.0971 -0.4805  0.3343
  249MOL0     H34302  10.014   2.322   4.755 -2.3875  0.2719 -0.2136
  249MOL0     H34303  10.040   2.024   4.696  0.2306  1.6796 -1.2415
  249MOL0     H34304   9.947   2.094   4.827 -2.2550 -0.7177 -1.5953
  249MOL0     H34305  10.246   2.135   4.769 -2.1955  2.8140 -1.6898
  249MOL0     H34306  10.170   2.189   4.923  1.7756  2.6524 -2.8015
  249MOL0     H34307  10.191   1.912   4.818 -0.0719  2.3183 -0.5745
  249MOL0     H34308  10.134   1.960   4.988 -0.2365 -0.6613  0.9114
  249MOL0     H34309  10.406   2.021   4.867 -1.6026  0.8629  0.2701
  249MOL0     H34310  10.354   2.044   5.028 -0.1399 -1.5739  1.5346
  249MOL0     H34311  10.524   1.764   4.867  1.7401 -1.7935 -0.0271
  249MOL0     H34312  10.557   1.494   4.937 -3.3416  0.4657 -2.0429
  249MOL0     H34313  10.465   1.458   5.084  1.7333 -0.0555  3.7132
  249MOL0     H34314  10.719   1.616   5.073  0.1083 -0.4597  0.2494
  249MOL0     H34315  10.641   1.556   5.228  1.9053 -0.9197  1.1655
  249MOL0     H34316  10.678   1.330   5.170  0.7824  0.6367  0.3249
  249MOL0     H34317  10.732   1.357   5.000 -0.1439 -1.8959  0.9400
  249MOL0     H34318  10.908   1.311   5.111 -0.3503 -0.4600 -0.3275
  249MOL0     H34319  10.916   1.482   5.091  1.6342 -0.5668  0.0099
  249MOL0     H34320  11.126   1.371   5.372 -2.7723  1.2876  0.1889
  249MOL0     H34321  11.263   1.057   5.521  2.5882  0.8992  2.0331
  249MOL0     H34322  11.238   1.189   5.635  1.2867 -3.0054  0.2944
  249MOL0     H34323  11.297   1.218   5.469  0.8946 -0.7420 -0.7515
  249MOL0     H34324  11.204   0.711   5.327 -1.3778  0.6959 -0.1503
  249MOL0     H34325  11.337   0.529   5.391  2.2577  1.0097  1.2008
  249MOL0     H34326  11.460   0.567   5.768  2.5743 -0.2259  0.3394
  249MOL0     H34327  11.379   0.418   5.839 -0.2776 -2.3177 -0.2659
  249MOL0     H34328  11.640   0.448   5.674  0.0406  0.2159  0.9883
  249MOL0     H34329  11.641   0.449   5.849  0.7652 -2.5710  1.7934
  249MOL0     H34330  11.557   0.213   5.689 -0.4521  1.8279 -0.9545
  249MOL0     H34331  11.524   0.230   5.857 -2.0670  1.9959 -1.3724
  249MOL0     H34332  11.749   0.249   5.904 -1.2314 -0.7637  0.4088
  249MOL0     H34333  11.801   0.268   5.729  0.0019  1.1186  1.4081
  249MOL0     H34334  11.668   0.020   5.836  0.0550  0.8165  0.6345
  249MOL0     H34335  11.737   0.033   5.685  1.4163 -3.9274  1.3747
  249MOL0     H34336  11.904   0.056   5.939  1.9344  2.0985 -1.9344
  249MOL0     H34337  11.952   0.043   5.773  0.1092 -0.5543  0.8310
  249MOL0     H34338  11.830  -0.210   5.772  2.8485 -1.7795  0.8938
  249MOL0     H34339  11.781  -0.169   5.930 -1.7672 -0.2168 -1.1613
  249MOL0     H34340  12.013  -0.204   6.005  1.3216  0.7144  0.3955
  249MOL0     H34341  12.066  -0.169   5.830 -2.2938  1.2252 -1.4620
  249MOL0     H34342  11.157   0.531   5.781 -1.7064  2.8596  1.2728
  249MOL0     H34343  11.054   0.736   5.734 -1.1990 -3.8129  0.7023
  249MOL0     H34344  10.771   1.054   5.499 -0.7622  2.0195  2.1330
  249MOL0     H34345  10.710   1.263   5.395 -1.7413 -1.2240  2.4492
  249MOL0     H34346   9.384   2.368   4.540  3.1795 -0.0251  3.3749
  249MOL0     H34347   9.177   2.507   4.557 -1.1667  1.2232 -2.5815
  249MOL0     H34348   8.891   2.805   4.586 -4.5837 -1.7878 -1.5498
  249MOL0     H34349   8.741   3.009   4.627  0.1165 -2.2344 -0.2925
  249MOL0     H34350   8.502   3.106   4.455 -0.6459 -0.7714  0.8915
  249MOL0     H34351   8.570   3.141   4.614  0.0114  2.4519  0.0347
  249MOL0     H34352   8.578   3.385   4.530 -0.7589 -0.8553  1.1243
  249MOL0     H34353   8.424   3.336   4.586 -0.3396  3.3595 -1.2864
  249MOL0     H34354   8.531   3.323   4.294  1.8308 -2.3721  2.2406
  249MOL0     H34355   8.354   3.303   4.351 -2.1110  3.8913  0.5045
  249MOL0     H34356   8.520   3.563   4.347  1.5307 -2.8047  0.0162
  249MOL0     H34357   8.364   3.529   4.427  0.1113  0.8062 -0.1541
  249MOL0     H34358   8.261   3.557   4.004 -2.7086 -0.8998  2.3728
  249MOL0     H34359   8.837   3.156   4.243  3.6377  1.4516  1.0288
  249MOL0     H34360   9.099   2.925   4.152 -0.0196  1.0110  1.2976
  249MOL0     H34361   8.933   2.886   4.100 -4.1126  2.0130  1.4109
  249MOL0     H34362   8.989   3.044   4.090  1.6203 -0.6659 -1.7841
  250MOL0     O34363   5.440   7.154   3.618  0.4777 -0.3028 -0.0870
  250MOL0     C34364   5.386   7.066   3.686  0.7811 -1.6048  0.4950
  250MOL0     O34365   5.317   7.089   3.803  0.3480  0.2969  0.0226
  250MOL0     C34366   5.219   7.192   3.819 -0.4242  0.2218  0.7103
  250MOL0     C34367   5.181   7.282   3.724 -0.9588 -0.4200  0.7605
  250MOL0     C34368   5.089   7.374   3.753 -0.2888  0.1343  1.1272
  250MOL0     C34369   5.023   7.392   3.878 -0.4745  0.0188  0.0193
  250MOL0     O34370   4.935   7.489   3.919 -0.0335 -0.4745  0.0884
  250MOL0     C34371   4.952   7.617   3.844  0.5035 -0.3385 -0.0447
  250MOL0     C34372   4.857   7.731   3.894 -0.7700  0.2324 -0.5715
  250MOL0     C34373   4.878   7.744   4.053 -0.4271 -0.3392 -0.4301
  250MOL0     C34374   4.769   7.832   4.118  0.1445  0.2439  0.4806
  250MOL0     C34375   4.801   7.878   4.264  0.0436  0.5117  0.1053
  250MOL0     C34376   4.874   7.763   4.344 -0.4807 -0.4274  0.6663
  250MOL0     C34377   4.887   7.801   4.491 -0.8856 -0.0915  0.3474
  250MOL0     C34378   4.956   7.697   4.584 -0.3243 -0.8933 -0.1696
  250MOL0     N34379   5.100   7.714   4.554  0.1059  0.3471 -0.6631
  250MOL0     C34380   5.190   7.816   4.600 -0.2347 -0.7987  1.0347
  250MOL0     C34381   5.310   7.773   4.533 -0.2542 -1.0437 -0.7895
  250MOL0     C34382   5.440   7.844   4.534 -0.2942  0.2270 -0.0545
  250MOL0     C34383   5.509   7.847   4.680  0.3085 -0.6202  1.2567
  250MOL0     C34384   5.641   7.937   4.689  0.1084 -0.3622 -0.7039
  250MOL0     C34385   5.761   7.886   4.607  0.0054 -0.6486 -0.1760
  250MOL0     O34386   5.832   7.773   4.669 -0.0907  0.4369  0.3587
  250MOL0     C34387   5.949   7.730   4.617 -0.6667  0.7219 -0.2477
  250MOL0     C34388   6.029   7.777   4.505  0.5980  0.4321 -1.0965
  250MOL0     C34389   6.150   7.719   4.470 -0.5831  1.1603 -0.7470
  250MOL0     C34390   6.229   7.791   4.358 -1.2828 -0.3370 -0.5072
  250MOL0     C34391   6.205   7.620   4.555 -0.2922  0.2375  0.1831
  250MOL0     C34392   6.350   7.561   4.534  0.1818 -0.3474  0.7180
  250MOL0     O34393   6.436   7.603   4.432 -0.3114 -0.1306 -0.4828
  250MOL0     C34394   6.547   7.537   4.391  0.2238 -0.1625  0.7320
  250MOL0     C34395   6.633   7.617   4.318  0.8381 -0.1737  0.1086
  250MOL0     C34396   6.749   7.561   4.252  0.6353 -0.1648 -0.7137
  250MOL0     C34397   6.781   7.419   4.267 -0.5545 -0.6853  0.5163
  250MOL0     O34398   6.884   7.345   4.207  0.1183 -0.5592 -0.0125
  250MOL0     C34399   7.000   7.428   4.170 -0.0484 -0.8293  1.0228
  250MOL0     C34400   7.110   7.329   4.137  0.3576  0.1120 -0.0800
  250MOL0     C34401   7.246   7.397   4.178  1.1522 -0.0328  0.6755
  250MOL0     C34402   7.301   7.485   4.062 -0.6467  0.3517 -0.3938
  250MOL0     C34403   7.432   7.548   4.111 -0.5995 -0.0550  0.1057
  250MOL0     C34404   7.471   7.678   4.033 -0.4462 -0.2047 -0.2998
  250MOL0     C34405   7.606   7.750   4.068 -0.5230  0.4113 -0.2687
  250MOL0     C34406   7.729   7.682   3.992  0.1308 -0.0418 -0.3186
  250MOL0    Cl34407   7.861   7.685   4.109  0.1505  0.2153  0.1489
  250MOL0     C34408   6.691   7.348   4.348 -0.4796  0.2856  1.2287
  250MOL0     C34409   6.578   7.401   4.412  0.3440 -0.0671 -0.3813
  250MOL0     O34410   6.379   7.475   4.617  0.1375 -0.2308  0.3684
  250MOL0     C34411   6.139   7.585   4.672  0.5294  0.2629  0.2321
  250MOL0     C34412   6.008   7.630   4.697  0.1022  0.4343 -0.4376
  250MOL0     N34413   5.290   7.649   4.481 -0.2775  0.3200 -0.9517
  250MOL0     N34414   5.163   7.616   4.489 -0.2348 -0.5777  0.2723
  250MOL0     C34415   5.055   7.293   3.974  0.1452 -0.0990 -0.1608
  250MOL0     C34416   5.147   7.192   3.943 -0.3150  0.2652  0.2267
  250MOL0     C34417   5.428   6.924   3.649  0.0325  0.0826 -0.8822
  250MOL0     C34418   5.507   6.913   3.537  0.7228  0.4432 -0.1186
  250MOL0     C34419   5.546   6.795   3.484  0.3546  0.2994 -0.5716
  250MOL0     C34420   5.505   6.677   3.549 -0.6824 -0.3423  0.0423
  250MOL0     O34421   5.522   6.549   3.498 -0.7374  0.9744  0.5742
  250MOL0     C34422   5.600   6.524   3.371  0.4795 -0.4395 -0.2061
  250MOL0     C34423   5.686   6.396   3.387 -0.1008  0.0707 -0.1187
  250MOL0     C34424   5.786   6.380   3.503  0.2553  0.3391 -0.1047
  250MOL0     C34425   5.894   6.489   3.494  0.0323  0.1301 -0.9246
  250MOL0     C34426   5.975   6.468   3.373 -0.6561 -0.1813  0.7355
  250MOL0     C34427   6.047   6.455   3.273  0.5129  0.6214  0.1313
  250MOL0     C34428   5.422   6.686   3.662  0.4648 -0.8029  0.8218
  250MOL0     C34429   5.368   6.805   3.709  1.1076 -0.0615  0.9557
  250MOL0     C34430   5.270   6.796   3.829 -0.6845 -0.0209 -0.5933
  250MOL0     H34431   5.225   7.277   3.625  0.3456 -0.4940  1.3138
  250MOL0     H34432   5.076   7.435   3.664  2.6148 -1.2967 -0.4121
  250MOL0     H34433   4.929   7.589   3.741 -0.9089 -4.8603  1.2352
  250MOL0     H34434   5.056   7.649   3.854  0.9475 -2.2165  2.4595
  250MOL0     H34435   4.870   7.824   3.838 -1.0208  1.6199  1.5534
  250MOL0     H34436   4.753   7.701   3.882 -0.9318  0.5435 -0.0183
  250MOL0     H34437   4.875   7.650   4.110  2.0108 -0.7097 -0.8034
  250MOL0     H34438   4.980   7.781   4.065 -0.1524 -0.5099 -2.0274
  250MOL0     H34439   4.755   7.929   4.071 -2.2070  0.8626  2.2619
  250MOL0     H34440   4.669   7.788   4.115  0.2943 -0.0802  0.1429
  250MOL0     H34441   4.707   7.890   4.319 -1.5877 -3.0554 -1.5834
  250MOL0     H34442   4.858   7.972   4.266  0.6980  0.1048  0.7372
  250MOL0     H34443   4.809   7.678   4.324 -1.2470  0.7238 -2.1541
  250MOL0     H34444   4.976   7.753   4.305  0.1526 -2.3646  2.6048
  250MOL0     H34445   4.788   7.825   4.531 -0.7868  1.8368 -0.4401
  250MOL0     H34446   4.944   7.894   4.494  1.3894 -1.2341 -2.5492
  250MOL0     H34447   4.945   7.724   4.689  0.7900 -0.5662 -0.1225
  250MOL0     H34448   4.921   7.594   4.580 -0.6357 -0.8375  0.8129
  250MOL0     H34449   5.168   7.910   4.650 -0.0936 -0.8059  1.1106
  250MOL0     H34450   5.417   7.945   4.497 -0.2311  0.5183  0.6993
  250MOL0     H34451   5.505   7.804   4.455  0.2935 -2.5408  1.7184
  250MOL0     H34452   5.425   7.877   4.744 -1.8470  0.2425 -1.7905
  250MOL0     H34453   5.536   7.746   4.713  1.5583  0.1276  2.6820
  250MOL0     H34454   5.613   8.036   4.651 -1.1341 -0.5232 -0.2244
  250MOL0     H34455   5.663   7.950   4.795 -1.5276  1.9693 -0.5909
  250MOL0     H34456   5.737   7.879   4.500 -1.2655  1.4199 -0.0685
  250MOL0     H34457   5.825   7.974   4.600 -2.4461  1.3124  0.5960
  250MOL0     H34458   5.986   7.860   4.449  3.8859  2.1208 -1.3525
  250MOL0     H34459   6.327   7.817   4.399 -1.8673  1.5501 -0.2127
  250MOL0     H34460   6.184   7.889   4.341 -2.8671 -1.1310 -1.1501
  250MOL0     H34461   6.231   7.750   4.257  0.7971 -2.4190  0.2893
  250MOL0     H34462   6.623   7.724   4.299  3.0561 -0.1039 -1.0384
  250MOL0     H34463   6.823   7.614   4.193  1.5726 -3.3207 -2.6319
  250MOL0     H34464   6.976   7.487   4.081  1.5092  0.2439  1.2763
  250MOL0     H34465   7.006   7.497   4.254  0.0150  4.1950 -2.6349
  250MOL0     H34466   7.111   7.235   4.194 -1.3505  0.7897  1.1404
  250MOL0     H34467   7.109   7.319   4.028 -1.7635  2.1913 -0.3248
  250MOL0     H34468   7.319   7.318   4.195 -0.4148 -1.1700  2.4822
  250MOL0     H34469   7.233   7.454   4.271 -5.5587 -1.9561  1.4203
  250MOL0     H34470   7.230   7.566   4.037  0.5759  1.7691  0.5493
  250MOL0     H34471   7.320   7.430   3.969 -0.5502 -1.8111  0.8494
  250MOL0     H34472   7.428   7.572   4.218 -0.9381 -2.5773  0.7139
  250MOL0     H34473   7.510   7.473   4.100 -1.2883 -0.4567 -2.9046
  250MOL0     H34474   7.392   7.750   4.057  0.3704  0.7677 -0.4704
  250MOL0     H34475   7.469   7.646   3.929 -0.0862 -2.0186  0.2061
  250MOL0     H34476   7.622   7.734   4.175 -2.0545  0.2262 -0.0414
  250MOL0     H34477   7.618   7.856   4.046  5.7394  0.6792  2.2816
  250MOL0     H34478   7.769   7.748   3.914 -0.0930  0.2389 -0.1987
  250MOL0     H34479   7.691   7.586   3.957 -1.2293  0.1595  0.5292
  250MOL0     H34480   6.730   7.249   4.366  1.8014  1.0325  0.7439
  250MOL0     H34481   6.517   7.333   4.471  1.8711 -1.7941 -0.6811
  250MOL0     H34482   6.187   7.530   4.753  0.3016  1.6148  1.3307
  250MOL0     H34483   5.963   7.584   4.784  0.2532 -1.0672 -1.1252
  250MOL0     H34484   5.004   7.294   4.070  0.0698 -1.0587 -0.1824
  250MOL0     H34485   5.185   7.116   4.011  0.0398 -0.9587 -1.2817
  250MOL0     H34486   5.553   6.992   3.479  0.8877  1.4648  1.3462
  250MOL0     H34487   5.616   6.808   3.402  1.4231  0.8859  0.4035
  250MOL0     H34488   5.536   6.538   3.283 -0.4428 -1.1563  0.3324
  250MOL0     H34489   5.676   6.602   3.377 -2.1948  2.2041  1.6776
  250MOL0     H34490   5.722   6.367   3.287  2.3071  0.5694  0.5391
  250MOL0     H34491   5.610   6.320   3.405 -1.0564  0.6798 -1.4227
  250MOL0     H34492   5.723   6.374   3.592  1.4741 -1.9121  0.6633
  250MOL0     H34493   5.843   6.288   3.490  0.2218  0.6626 -3.4143
  250MOL0     H34494   5.949   6.461   3.584 -1.5026 -0.3283 -0.0925
  250MOL0     H34495   5.852   6.589   3.508  2.1988  0.6352  3.1489
  250MOL0     H34496   6.107   6.442   3.185 -2.0411  0.2255 -1.6742
  250MOL0     H34497   5.383   6.592   3.700 -0.8716 -1.1057 -1.1079
  250MOL0     H34498   5.213   6.888   3.847  1.6342  1.4342 -0.2145
  250MOL0     H34499   5.197   6.718   3.809 -0.8160  0.1164 -0.6542
  250MOL0     H34500   5.330   6.784   3.919 -1.8155  1.1449  0.3421
  251MOL0     O34501   5.934  10.863   1.550 -0.0862  0.1521 -0.6695
  251MOL0     C34502   5.889  10.931   1.462 -0.0404 -0.3335 -0.1003
  251MOL0     O34503   5.820  11.044   1.486  0.6994 -0.6503  0.1766
  251MOL0     C34504   5.756  11.058   1.621  0.2089  0.2967  0.8444
  251MOL0     C34505   5.834  11.066   1.733 -0.0188 -0.1050 -0.2054
  251MOL0     C34506   5.771  11.093   1.857  0.5412  0.4989 -0.2078
  251MOL0     C34507   5.632  11.088   1.870  0.1759 -0.4549  0.5082
  251MOL0     O34508   5.588  11.111   1.997 -0.0565 -0.3010 -0.7913
  251MOL0     C34509   5.446  11.140   2.013 -0.2749 -0.5834  0.0721
  251MOL0     C34510   5.397  11.195   2.143  0.9988 -0.7678 -0.1496
  251MOL0     C34511   5.274  11.282   2.128  0.6218 -0.2700  0.3587
  251MOL0     C34512   5.143  11.210   2.092  0.9354  0.0138  0.1028
  251MOL0     C34513   5.046  11.310   2.013 -0.5676  0.4137  0.1013
  251MOL0     C34514   4.948  11.378   2.117  0.4290 -0.0292 -0.3854
  251MOL0     C34515   4.826  11.442   2.033  0.0315  0.8622  0.2591
  251MOL0     C34516   4.873  11.569   1.973 -1.6067 -0.1648 -0.7069
  251MOL0     N34517   4.779  11.666   1.934 -0.7099 -0.2466  0.6444
  251MOL0     C34518   4.664  11.620   1.865  0.7687  0.0376  0.0888
  251MOL0     C34519   4.584  11.728   1.861  1.1739  0.7565 -0.3121
  251MOL0     C34520   4.439  11.733   1.814 -0.3901 -0.1246 -0.2537
  251MOL0     C34521   4.351  11.792   1.927  0.1328  0.5262  0.5270
  251MOL0     C34522   4.209  11.803   1.884  0.2926 -0.3810 -0.2527
  251MOL0     C34523   4.187  11.897   1.769  0.4341  0.2922  0.5838
  251MOL0     O34524   4.056  11.931   1.737 -0.1244  0.2268  0.1086
  251MOL0     C34525   3.993  12.050   1.787  0.1541  0.6508  0.5446
  251MOL0     C34526   3.867  12.083   1.732 -0.3527 -0.4804  0.7074
  251MOL0     C34527   3.801  12.196   1.764  1.0939  0.8687 -1.6695
  251MOL0     C34528   3.661  12.192   1.712  0.2551  0.1699  0.2299
  251MOL0     C34529   3.856  12.292   1.851  0.3591 -0.5572  0.0000
  251MOL0     C34530   3.795  12.423   1.890  0.4976  0.1136  1.1639
  251MOL0     O34531   3.865  12.495   1.982  0.0532  0.2561  0.3105
  251MOL0     C34532   3.849  12.631   1.990 -0.1676 -0.1873  0.4675
  251MOL0     C34533   3.901  12.698   2.107  0.0066 -0.6821  0.1410
  251MOL0     C34534   3.866  12.832   2.138 -0.6673  0.3710  0.7371
  251MOL0     C34535   3.805  12.910   2.040  0.7688 -0.4293 -0.4509
  251MOL0     O34536   3.792  13.044   2.069 -0.4347  0.1239  1.6179
  251MOL0     C34537   3.804  13.131   1.962  0.8469 -0.5314 -0.4877
  251MOL0     C34538   3.814  13.274   2.018 -0.3084  0.4141  0.0657
  251MOL0     C34539   3.951  13.306   2.085  0.6265  1.2090 -0.6555
  251MOL0     C34540   3.954  13.451   2.124 -0.4814 -0.0708  0.1720
  251MOL0     C34541   4.093  13.495   2.170 -0.9082 -1.3836 -0.3158
  251MOL0     C34542   4.082  13.639   2.205  0.5570  0.2252  1.0302
  251MOL0     C34543   4.206  13.705   2.255 -0.0445  1.0214 -0.1237
  251MOL0     C34544   4.188  13.844   2.312 -0.0895 -0.0547 -0.2570
  251MOL0    Cl34545   4.080  13.840   2.453  0.1548 -0.1888  0.2021
  251MOL0     C34546   3.768  12.850   1.924  0.8421  0.6344  0.5663
  251MOL0     C34547   3.791  12.711   1.892  0.6806 -0.3748  0.7706
  251MOL0     O34548   3.681  12.447   1.842  0.0923  0.9922 -0.8791
  251MOL0     C34549   3.984  12.265   1.900 -0.1793 -0.2136  0.2660
  251MOL0     C34550   4.052  12.146   1.867 -0.1818 -0.2449  0.4252
  251MOL0     N34551   4.649  11.834   1.923 -0.2791 -0.2179  0.5971
  251MOL0     N34552   4.761  11.797   1.973 -0.4435 -0.0515 -0.4487
  251MOL0     C34553   5.553  11.073   1.748 -0.6676 -0.3965  0.5914
  251MOL0     C34554   5.618  11.062   1.628 -1.5742 -1.0394  0.6908
  251MOL0     C34555   5.939  10.891   1.325  0.2635  0.2337 -0.4066
  251MOL0     C34556   5.976  10.756   1.299  0.5057 -0.4370 -0.2508
  251MOL0     C34557   6.017  10.718   1.173 -0.0632  1.1200 -0.0131
  251MOL0     C34558   6.004  10.800   1.061  0.8985  0.6741 -0.2389
  251MOL0     O34559   6.022  10.764   0.927  0.1080  0.2573 -0.7581
  251MOL0     C34560   6.050  10.630   0.886 -1.1917 -0.2722 -0.2551
  251MOL0     C34561   5.916  10.552   0.857  0.5438 -0.3302 -0.2993
  251MOL0     C34562   5.816  10.536   0.980  0.5521  0.5326 -0.3798
  251MOL0     C34563   5.710  10.444   0.928 -0.4313 -0.0573  0.3476
  251MOL0     C34564   5.605  10.501   0.844  1.0761 -0.8700 -0.9362
  251MOL0     C34565   5.503  10.520   0.781 -0.1808 -0.3079 -0.1828
  251MOL0     C34566   5.970  10.935   1.093  0.9387 -0.3767  0.4332
  251MOL0     C34567   5.956  10.988   1.222 -0.6489  0.1166  1.1432
  251MOL0     C34568   5.936  11.136   1.239 -0.7729 -0.7804 -0.2872
  251MOL0     H34569   5.940  11.066   1.714  0.2534 -0.2361  1.1836
  251MOL0     H34570   5.831  11.098   1.948  0.5894 -1.5775 -0.0712
  251MOL0     H34571   5.384  11.050   2.009 -1.0252 -0.1228  0.9366
  251MOL0     H34572   5.408  11.214   1.942 -0.1732 -0.0824  0.5350
  251MOL0     H34573   5.382  11.114   2.215  1.3451 -0.6427  0.0618
  251MOL0     H34574   5.470  11.268   2.179 -2.0553  2.0496  0.8694
  251MOL0     H34575   5.259  11.340   2.219 -0.3339 -1.8107  1.2215
  251MOL0     H34576   5.274  11.367   2.059 -1.6246  1.0446  1.8620
  251MOL0     H34577   5.173  11.124   2.032 -0.4508 -2.1826  2.3514
  251MOL0     H34578   5.109  11.176   2.190  2.4415  0.0930  0.6818
  251MOL0     H34579   4.975  11.258   1.948  2.0346 -1.5457 -1.3170
  251MOL0     H34580   5.097  11.384   1.951  1.4103 -0.0140  1.1408
  251MOL0     H34581   4.908  11.298   2.179 -0.6172 -1.1448 -2.3886
  251MOL0     H34582   4.998  11.452   2.180  0.0675  1.4408 -1.7603
  251MOL0     H34583   4.748  11.467   2.105 -0.5333 -1.5584  0.5740
  251MOL0     H34584   4.782  11.367   1.967 -1.0404 -1.2527  3.1332
  251MOL0     H34585   4.945  11.617   2.039 -0.8695  1.3901 -2.5342
  251MOL0     H34586   4.929  11.534   1.886 -0.3383 -2.4049  0.9032
  251MOL0     H34587   4.646  11.525   1.816 -0.4690  1.4002 -2.2886
  251MOL0     H34588   4.409  11.637   1.771  1.2924  1.0617 -4.6327
  251MOL0     H34589   4.443  11.809   1.735  0.4373 -0.4392 -0.5220
  251MOL0     H34590   4.345  11.729   2.016 -1.8509  3.5234  2.7297
  251MOL0     H34591   4.374  11.887   1.977  1.2726 -0.0608  1.1677
  251MOL0     H34592   4.174  11.701   1.870  0.5820 -0.6666  0.9565
  251MOL0     H34593   4.154  11.845   1.968  0.1759 -0.3997 -0.3199
  251MOL0     H34594   4.262  11.977   1.779  2.6610 -1.2657 -2.0016
  251MOL0     H34595   4.210  11.850   1.672  0.7316 -1.5149  1.4893
  251MOL0     H34596   3.823  12.011   1.664 -0.5025  0.8179 -0.6227
  251MOL0     H34597   3.586  12.248   1.769 -2.1014 -1.7867 -0.7665
  251MOL0     H34598   3.619  12.091   1.705 -4.5929  1.9974 -0.6890
  251MOL0     H34599   3.663  12.225   1.608  0.6121 -1.9330 -0.4825
  251MOL0     H34600   3.954  12.632   2.175 -0.4899 -2.8059 -1.4237
  251MOL0     H34601   3.894  12.871   2.235 -1.6721 -1.0763  1.6488
  251MOL0     H34602   3.896  13.101   1.911  1.0480 -1.6957  0.5302
  251MOL0     H34603   3.724  13.120   1.887 -3.2820  1.8246  3.0860
  251MOL0     H34604   3.801  13.345   1.935  1.4724 -1.1425 -1.6510
  251MOL0     H34605   3.736  13.302   2.089  1.5655  3.2639  1.1793
  251MOL0     H34606   4.031  13.273   2.017  0.5233  1.3321 -0.8364
  251MOL0     H34607   3.963  13.245   2.175  0.0911  3.1174  0.7565
  251MOL0     H34608   3.877  13.470   2.199  0.4605  1.4582  0.7939
  251MOL0     H34609   3.920  13.508   2.037  0.5206  1.5051  0.7685
  251MOL0     H34610   4.120  13.445   2.264 -1.5167  1.5217  1.5389
  251MOL0     H34611   4.174  13.482   2.098 -1.9367 -0.8976 -1.6062
  251MOL0     H34612   4.002  13.649   2.279  0.2473  0.6616  0.6356
  251MOL0     H34613   4.054  13.674   2.105 -1.3456 -1.3736  0.9434
  251MOL0     H34614   4.269  13.712   2.166  1.2271  0.5385  0.7192
  251MOL0     H34615   4.253  13.648   2.336  1.7492  4.3409  1.3841
  251MOL0     H34616   4.147  13.895   2.224  2.4724  0.6782 -1.1063
  251MOL0     H34617   4.275  13.892   2.357 -1.4854  0.1056  2.5003
  251MOL0     H34618   3.718  12.913   1.852 -0.2245 -0.1922  0.5544
  251MOL0     H34619   3.753  12.675   1.798  2.1057 -1.2789  0.5161
  251MOL0     H34620   4.035  12.337   1.963  1.3106  0.0689 -1.1954
  251MOL0     H34621   4.155  12.141   1.901 -0.7061  1.7591  2.5535
  251MOL0     H34622   5.448  11.099   1.757 -0.5659  0.7602 -0.9545
  251MOL0     H34623   5.573  11.075   1.530  2.3532 -0.2240 -1.1951
  251MOL0     H34624   5.966  10.686   1.381 -0.3284  0.5726  0.5247
  251MOL0     H34625   6.034  10.612   1.161 -1.6782  1.0510 -2.2730
  251MOL0     H34626   6.100  10.646   0.790  0.5547 -0.3060  0.5914
  251MOL0     H34627   6.123  10.580   0.952  0.7061  0.9118 -1.3619
  251MOL0     H34628   5.948  10.453   0.822  1.2229 -1.1000  2.2398
  251MOL0     H34629   5.868  10.607   0.776  2.7633  0.5637 -1.0760
  251MOL0     H34630   5.863  10.495   1.070 -1.4267  3.4416  2.1846
  251MOL0     H34631   5.768  10.628   1.014  0.1459  1.3400 -2.9524
  251MOL0     H34632   5.665  10.396   1.015 -0.8099  0.6886  0.5677
  251MOL0     H34633   5.755  10.364   0.867 -2.0538  0.8912 -2.2353
  251MOL0     H34634   5.421  10.534   0.714 -0.5181 -1.6682 -0.0846
  251MOL0     H34635   5.963  10.989   0.998 -0.6629 -2.1946 -0.5641
  251MOL0     H34636   5.831  11.159   1.257 -0.9434  0.0066 -2.0874
  251MOL0     H34637   6.005  11.194   1.301 -2.0335  2.3457 -1.5462
  251MOL0     H34638   5.948  11.184   1.141 -0.2114  2.4980  1.2412
  252MOL0     O34639   0.851   3.093   4.777  0.2757  0.3870  0.7382
  252MOL0     C34640   0.954   3.101   4.707  0.7469  1.3669 -0.4827
  252MOL0     O34641   0.980   3.204   4.629  0.5916 -0.4238 -0.5419
  252MOL0     C34642   0.917   3.326   4.649  0.5634 -0.3120 -0.9183
  252MOL0     C34643   0.849   3.377   4.543 -0.1332  0.1552 -0.3344
  252MOL0     C34644   0.790   3.507   4.555 -0.3740 -0.0296  0.5065
  252MOL0     C34645   0.805   3.576   4.673  0.3889 -0.2338  0.5016
  252MOL0     O34646   0.748   3.702   4.689  0.1586  0.3911  0.4394
  252MOL0     C34647   0.851   3.800   4.663 -1.4312  0.1172  0.2249
  252MOL0     C34648   0.781   3.935   4.704  0.8470  0.1345  0.5369
  252MOL0     C34649   0.878   4.048   4.685 -0.7969 -0.4597  0.0084
  252MOL0     C34650   0.856   4.151   4.788  0.2687  0.6217  0.8601
  252MOL0     C34651   0.930   4.279   4.761 -0.7324 -0.4106  0.4813
  252MOL0     C34652   1.072   4.266   4.707 -0.8135  0.0319  0.0372
  252MOL0     C34653   1.116   4.410   4.662 -0.1036  0.0036  0.7540
  252MOL0     C34654   1.264   4.442   4.696  0.1706 -0.9208 -0.2873
  252MOL0     N34655   1.363   4.340   4.650 -0.4710  0.4984  0.1782
  252MOL0     C34656   1.424   4.341   4.524 -0.4044 -0.7047  0.1491
  252MOL0     C34657   1.528   4.258   4.537  0.4201  0.9031 -0.4077
  252MOL0     C34658   1.639   4.253   4.436  0.9000 -0.6112 -0.1435
  252MOL0     C34659   1.680   4.107   4.402 -0.2973 -0.3880 -0.7816
  252MOL0     C34660   1.806   4.121   4.318 -0.5272  0.3265 -0.1897
  252MOL0     C34661   1.839   3.980   4.267 -1.1336  0.4376 -0.4141
  252MOL0     O34662   1.739   3.916   4.188 -0.0711 -0.3348 -0.0508
  252MOL0     C34663   1.707   3.959   4.065 -0.6460 -0.5575  1.2064
  252MOL0     C34664   1.763   4.063   3.992 -0.1362 -0.1844  0.3390
  252MOL0     C34665   1.715   4.094   3.865  0.0062 -0.7424  0.9302
  252MOL0     C34666   1.785   4.202   3.790 -0.3699 -0.9214  0.2950
  252MOL0     C34667   1.601   4.029   3.803 -0.5612  0.8456 -0.4783
  252MOL0     C34668   1.542   4.067   3.681 -0.1656  0.7641 -0.3262
  252MOL0     O34669   1.461   4.179   3.690  0.8149  0.7249 -0.7088
  252MOL0     C34670   1.425   4.237   3.565 -0.1300 -0.3205 -0.6956
  252MOL0     C34671   1.502   4.249   3.447  0.5709 -0.6972  0.5631
  252MOL0     C34672   1.446   4.320   3.335  0.2710  1.1349  0.5194
  252MOL0     C34673   1.313   4.366   3.334  0.1872 -0.0427  0.6418
  252MOL0     O34674   1.292   4.430   3.215  0.6472 -0.9095  0.8127
  252MOL0     C34675   1.150   4.449   3.184 -0.0069  0.1107  0.1566
  252MOL0     C34676   1.127   4.553   3.074  0.0019  0.0075  0.2503
  252MOL0     C34677   1.143   4.693   3.136 -0.6702  0.3399  0.2830
  252MOL0     C34678   1.152   4.801   3.030  0.4757  1.0681 -1.0927
  252MOL0     C34679   1.146   4.941   3.084  0.1166  0.6313 -0.5329
  252MOL0     C34680   1.200   5.048   2.983  0.0654 -0.0247  0.3712
  252MOL0     C34681   1.246   5.188   3.034 -0.2378  0.6341 -0.1248
  252MOL0     C34682   1.326   5.261   2.923 -0.8696 -0.2078 -0.2306
  252MOL0    Cl34683   1.374   5.423   2.973  0.0643  0.0622 -0.0430
  252MOL0     C34684   1.235   4.347   3.450 -0.1128  0.0069 -0.2624
  252MOL0     C34685   1.295   4.286   3.564  0.1047 -0.0136  0.6395
  252MOL0     O34686   1.559   3.995   3.585 -0.5445 -0.2656 -0.1408
  252MOL0     C34687   1.550   3.918   3.875 -0.8387 -0.9811 -0.6921
  252MOL0     C34688   1.602   3.884   4.001  0.0658  0.6018  0.2451
  252MOL0     N34689   1.514   4.191   4.657  0.2662  0.2763 -0.4080
  252MOL0     N34690   1.423   4.244   4.734  0.3377 -0.1425  0.7523
  252MOL0     C34691   0.871   3.524   4.785  0.5696  0.4868  0.9058
  252MOL0     C34692   0.934   3.398   4.778  0.4841 -0.5402  0.7656
  252MOL0     C34693   1.080   3.010   4.731 -0.1225 -0.1273 -0.1339
  252MOL0     C34694   1.209   3.061   4.702  0.0236 -0.2981  0.7258
  252MOL0     C34695   1.319   2.977   4.707 -0.6140  0.5962 -0.9387
  252MOL0     C34696   1.314   2.851   4.762  0.2508  0.4096  0.4784
  252MOL0     O34697   1.431   2.783   4.764 -0.2453  0.1137 -0.3814
  252MOL0     C34698   1.441   2.653   4.718 -0.1782  1.5874  0.2226
  252MOL0     C34699   1.430   2.546   4.827  0.0001  0.4724 -1.0450
  252MOL0     C34700   1.514   2.590   4.960 -0.7700  0.1549  0.3020
  252MOL0     C34701   1.526   2.475   5.059  0.5265 -0.1205 -0.4400
  252MOL0     C34702   1.652   2.476   5.133  0.1527 -0.4245  1.1742
  252MOL0     C34703   1.762   2.461   5.189 -0.4919 -0.1411  0.6216
  252MOL0     C34704   1.193   2.793   4.806 -0.1922  0.3545  0.0477
  252MOL0     C34705   1.079   2.873   4.781 -0.0959  0.6571 -0.0394
  252MOL0     C34706   0.953   2.810   4.821 -0.2606 -0.4817 -0.1452
  252MOL0     H34707   0.855   3.320   4.452 -1.6306 -0.1156 -0.2912
  252MOL0     H34708   0.722   3.544   4.479  0.6869  2.7743  0.7944
  252MOL0     H34709   0.890   3.785   4.562  0.0934 -3.0086  1.1523
  252MOL0     H34710   0.942   3.805   4.723  0.0051  2.7880 -1.9222
  252MOL0     H34711   0.688   3.953   4.649 -0.0820  1.9269  2.5660
  252MOL0     H34712   0.749   3.923   4.808  0.4026 -2.9862  0.1518
  252MOL0     H34713   0.979   4.005   4.690 -0.5349 -0.2012 -2.1543
  252MOL0     H34714   0.874   4.099   4.589  2.2115  0.9730  0.5389
  252MOL0     H34715   0.753   4.190   4.782  0.6755  1.5069 -2.3725
  252MOL0     H34716   0.888   4.108   4.884 -0.2244 -0.0532  0.7282
  252MOL0     H34717   0.930   4.350   4.844 -1.9071 -1.6034  1.5484
  252MOL0     H34718   0.878   4.316   4.672 -2.4667 -2.7257  0.4325
  252MOL0     H34719   1.141   4.223   4.780 -1.1214 -0.2753  0.1497
  252MOL0     H34720   1.074   4.208   4.614 -1.2745  4.0995 -2.7835
  252MOL0     H34721   1.061   4.483   4.722  0.6011 -0.2119  1.6739
  252MOL0     H34722   1.100   4.436   4.556  3.2427  2.8209  0.7384
  252MOL0     H34723   1.287   4.535   4.643  1.1697 -1.3806 -0.6972
  252MOL0     H34724   1.281   4.467   4.801 -0.7311 -0.1531 -0.3174
  252MOL0     H34725   1.393   4.402   4.439 -1.5632  0.7239  1.5342
  252MOL0     H34726   1.733   4.297   4.472  1.9910 -0.1879 -3.2559
  252MOL0     H34727   1.605   4.318   4.356  2.9279  1.6856  0.7335
  252MOL0     H34728   1.697   4.055   4.497 -1.4640  0.2465 -0.1986
  252MOL0     H34729   1.591   4.057   4.360 -0.7094  0.7307 -1.2732
  252MOL0     H34730   1.777   4.185   4.234  1.4301  2.3118  0.5501
  252MOL0     H34731   1.884   4.161   4.383  0.0308 -0.4533 -0.3733
  252MOL0     H34732   1.931   3.994   4.210 -0.1970  0.2736  0.9927
  252MOL0     H34733   1.856   3.926   4.361 -4.0018  1.5270  0.8520
  252MOL0     H34734   1.852   4.120   4.018 -1.5134  2.8655 -1.1564
  252MOL0     H34735   1.792   4.289   3.854 -0.1099  0.6377 -1.7428
  252MOL0     H34736   1.740   4.243   3.699  1.9137  0.4577 -0.2926
  252MOL0     H34737   1.888   4.174   3.763 -0.2776 -1.2263  0.9435
  252MOL0     H34738   1.599   4.201   3.435  0.0007 -1.9466  0.8158
  252MOL0     H34739   1.508   4.326   3.246  2.5942 -1.2738  1.8337
  252MOL0     H34740   1.113   4.350   3.153 -0.7535 -0.1663  1.8128
  252MOL0     H34741   1.101   4.484   3.275  1.7085  2.1089  0.3667
  252MOL0     H34742   1.199   4.533   2.995  2.0820  0.0021  2.0594
  252MOL0     H34743   1.025   4.537   3.036  1.0280  0.3878 -2.9413
  252MOL0     H34744   1.240   4.692   3.187 -0.0310  1.4689 -0.8219
  252MOL0     H34745   1.059   4.699   3.204 -3.0317  0.0108 -2.4228
  252MOL0     H34746   1.075   4.787   2.954 -0.6022  0.7977  0.0201
  252MOL0     H34747   1.247   4.788   2.977  0.5097 -0.8195 -0.6575
  252MOL0     H34748   1.041   4.952   3.112 -0.1809 -1.9167 -0.3826
  252MOL0     H34749   1.205   4.958   3.175 -1.7031  2.0123  0.4501
  252MOL0     H34750   1.124   5.079   2.911 -1.1890 -2.1247  0.7110
  252MOL0     H34751   1.280   5.012   2.917  1.0005  0.2405  1.3438
  252MOL0     H34752   1.297   5.165   3.128 -0.1760 -1.6588 -0.6618
  252MOL0     H34753   1.153   5.243   3.045 -0.0643  0.9271 -0.1144
  252MOL0     H34754   1.259   5.272   2.837 -2.0271  0.9722  0.7942
  252MOL0     H34755   1.414   5.204   2.892 -0.7195  0.4074 -0.9563
  252MOL0     H34756   1.137   4.389   3.470  0.4223  1.4915 -0.6417
  252MOL0     H34757   1.239   4.280   3.657 -1.2471  3.0418  0.1257
  252MOL0     H34758   1.452   3.880   3.845 -2.4196  2.1702  0.0801
  252MOL0     H34759   1.555   3.807   4.061  0.8460  0.9202  1.2899
  252MOL0     H34760   0.864   3.580   4.878 -2.8480 -0.9069  1.6422
  252MOL0     H34761   0.983   3.353   4.864 -1.0849 -3.6482  0.1881
  252MOL0     H34762   1.223   3.151   4.641 -2.3522 -1.4964 -1.8650
  252MOL0     H34763   1.405   3.005   4.648 -0.0600 -0.5889 -0.7134
  252MOL0     H34764   1.363   2.631   4.644  0.0422 -0.0318  0.4457
  252MOL0     H34765   1.538   2.658   4.668  0.3331 -0.6120  0.8841
  252MOL0     H34766   1.472   2.453   4.787 -0.6994  0.9225 -2.9254
  252MOL0     H34767   1.325   2.532   4.854  1.3146 -2.5849  3.8107
  252MOL0     H34768   1.612   2.628   4.931 -1.6901 -0.0336 -3.6419
  252MOL0     H34769   1.476   2.676   5.016  2.4385  1.3157  0.8746
  252MOL0     H34770   1.507   2.387   4.996 -0.6556  0.5675 -1.0745
  252MOL0     H34771   1.440   2.488   5.126 -3.6791  0.7308 -5.4053
  252MOL0     H34772   1.858   2.441   5.234 -1.3067  0.8101  2.9162
  252MOL0     H34773   1.196   2.697   4.856  0.2817 -0.1087 -0.8477
  252MOL0     H34774   0.873   2.823   4.748 -2.5328  1.9376  2.5391
  252MOL0     H34775   0.980   2.710   4.856  2.9706 -0.3265 -1.7835
  252MOL0     H34776   0.914   2.848   4.916 -1.0224  0.8768 -0.9726
  253MOL0     O34777   6.399  10.334   8.754 -0.3027 -0.1830  0.7889
  253MOL0     C34778   6.425  10.331   8.876 -0.1723 -0.5763  0.2513
  253MOL0     O34779   6.522  10.396   8.945  0.5384  0.1888  0.2767
  253MOL0     C34780   6.618  10.460   8.861 -0.2320  0.6268  0.8719
  253MOL0     C34781   6.583  10.568   8.782 -0.7932  0.0544 -0.7193
  253MOL0     C34782   6.678  10.626   8.692 -0.0117 -0.1627 -0.4346
  253MOL0     C34783   6.807  10.568   8.660  0.0410 -0.2198  0.3259
  253MOL0     O34784   6.915  10.625   8.599  0.0629 -0.0089 -0.1465
  253MOL0     C34785   6.887  10.705   8.490  0.2708 -0.3303  0.2800
  253MOL0     C34786   7.018  10.766   8.433 -0.0830  0.0346  0.6301
  253MOL0     C34787   6.997  10.830   8.292 -0.1604  0.5131  0.5424
  253MOL0     C34788   7.129  10.906   8.245 -0.2950  0.1141 -0.8726
  253MOL0     C34789   7.141  10.890   8.092 -0.5991 -0.2634 -1.0723
  253MOL0     C34790   7.240  10.987   8.034 -0.6583  0.0432  0.8811
  253MOL0     C34791   7.243  10.996   7.884 -0.3310  0.5321  0.0927
  253MOL0     C34792   7.304  10.884   7.816  0.5019  0.6978 -0.3195
  253MOL0     N34793   7.451  10.873   7.840  0.1574 -0.2693  0.6491
  253MOL0     C34794   7.548  10.919   7.750 -0.5158 -0.2177  0.2537
  253MOL0     C34795   7.654  10.861   7.794 -0.5667  0.1359  0.3859
  253MOL0     C34796   7.780  10.889   7.704  0.1359 -0.1839 -0.9493
  253MOL0     C34797   7.906  10.860   7.792  0.0617 -0.0372  0.2169
  253MOL0     C34798   7.932  10.981   7.890 -0.7245  0.5400 -0.7348
  253MOL0     C34799   8.059  10.957   7.968  1.0099  0.3399 -0.9028
  253MOL0     O34800   8.168  10.973   7.870 -0.7391 -0.2989 -0.0787
  253MOL0     C34801   8.233  10.850   7.831 -0.1748 -0.9393  0.2826
  253MOL0     C34802   8.263  10.741   7.922 -0.8739 -0.4119  0.1488
  253MOL0     C34803   8.342  10.643   7.885 -0.0978  0.2692 -0.8258
  253MOL0     C34804   8.364  10.542   7.997 -0.0892  0.5737  0.9242
  253MOL0     C34805   8.400  10.638   7.759  0.5400 -0.0650  0.3255
  253MOL0     C34806   8.503  10.542   7.710 -0.3041  0.2750 -0.2415
  253MOL0     O34807   8.537  10.542   7.575  0.4650  0.0936 -0.0946
  253MOL0     C34808   8.647  10.458   7.530  0.6032 -0.0915  0.0773
  253MOL0     C34809   8.645  10.398   7.407  0.7568 -0.1603  0.0679
  253MOL0     C34810   8.757  10.340   7.337  1.4722  0.4276 -0.4398
  253MOL0     C34811   8.879  10.350   7.412  0.4008 -0.8663 -0.0704
  253MOL0     O34812   9.001  10.317   7.359  0.2240  0.1891 -0.5265
  253MOL0     C34813   9.027  10.359   7.229  0.4404 -0.3613  0.8874
  253MOL0     C34814   9.183  10.334   7.210  0.6082  0.2886 -0.4603
  253MOL0     C34815   9.225  10.368   7.066  0.1364  0.0434 -0.3857
  253MOL0     C34816   9.356  10.292   7.021  0.3730  0.1321 -0.4513
  253MOL0     C34817   9.401  10.305   6.875  0.0098  0.4942 -0.7019
  253MOL0     C34818   9.296  10.242   6.782  0.6794  0.6467 -0.5571
  253MOL0     C34819   9.358  10.232   6.638  0.0806 -0.3209 -0.5429
  253MOL0     C34820   9.305  10.131   6.530  0.8870  0.6495 -0.4144
  253MOL0    Cl34821   9.446  10.068   6.427 -0.1883 -0.4526 -0.1967
  253MOL0     C34822   8.879  10.402   7.544  0.4359 -0.1580  0.6590
  253MOL0     C34823   8.763  10.456   7.597  0.5503  0.3815 -0.4856
  253MOL0     O34824   8.548  10.470   7.798 -0.3718  0.2168 -0.9229
  253MOL0     C34825   8.370  10.740   7.675 -0.1058 -0.1823  0.2320
  253MOL0     C34826   8.294  10.847   7.712 -0.5711 -0.1314  0.2535
  253MOL0     N34827   7.631  10.784   7.903  0.0395 -0.4351 -0.7854
  253MOL0     N34828   7.499  10.785   7.922 -0.3426  0.3016 -0.0908
  253MOL0     C34829   6.830  10.460   8.746  0.5819  0.8845 -0.1940
  253MOL0     C34830   6.735  10.400   8.833  0.1764  0.3571 -0.0326
  253MOL0     C34831   6.342  10.263   8.982 -0.2308  0.2855  0.0799
  253MOL0     C34832   6.245  10.336   9.054 -0.5168  0.0145 -0.4596
  253MOL0     C34833   6.154  10.265   9.132 -0.3852  0.7746 -0.4333
  253MOL0     C34834   6.158  10.126   9.149 -0.1910 -0.1979 -0.9063
  253MOL0     O34835   6.061  10.074   9.237  0.0414 -0.1032 -0.0437
  253MOL0     C34836   6.056   9.937   9.281  0.2214 -0.1176 -0.5886
  253MOL0     C34837   6.172   9.909   9.382 -0.1592 -0.4569 -1.2514
  253MOL0     C34838   6.154  10.002   9.509 -0.5127 -0.8540 -0.9143
  253MOL0     C34839   6.271   9.970   9.611 -0.0419  0.1032  0.5710
  253MOL0     C34840   6.283  10.070   9.716 -0.4029 -0.1569  0.6083
  253MOL0     C34841   6.287  10.166   9.791  0.5658  0.4790 -0.0843
  253MOL0     C34842   6.250  10.051   9.073  0.4046 -0.0088 -0.2051
  253MOL0     C34843   6.334  10.120   8.991  0.3719 -1.0149  0.0149
  253MOL0     C34844   6.426  10.039   8.907  0.7489 -0.7332  0.3999
  253MOL0     H34845   6.494  10.627   8.801 -0.0922  1.1212 -0.6796
  253MOL0     H34846   6.659  10.729   8.660 -1.3371  0.4602  2.1271
  253MOL0     H34847   6.813  10.782   8.512 -0.4008 -1.1013  0.7689
  253MOL0     H34848   6.850  10.645   8.406 -0.1459 -2.7447  2.0847
  253MOL0     H34849   7.052  10.850   8.495 -1.0952  1.2392 -0.3866
  253MOL0     H34850   7.093  10.686   8.433 -1.0377 -0.8878 -0.4128
  253MOL0     H34851   6.968  10.743   8.232 -0.8133 -0.6391  2.4329
  253MOL0     H34852   6.918  10.906   8.285  1.1986  2.4550  3.8750
  253MOL0     H34853   7.128  11.011   8.277  2.0768 -0.9240  3.4261
  253MOL0     H34854   7.221  10.874   8.293 -1.7676 -1.6454  0.9868
  253MOL0     H34855   7.044  10.910   8.046 -0.1895 -1.5066 -2.5907
  253MOL0     H34856   7.172  10.788   8.066  1.2879 -0.5470  1.8712
  253MOL0     H34857   7.210  11.081   8.080 -2.9622 -0.8664  1.3672
  253MOL0     H34858   7.342  10.959   8.063  0.6037  1.8618 -1.4593
  253MOL0     H34859   7.316  11.076   7.866  1.8990 -0.6363  3.0498
  253MOL0     H34860   7.141  11.028   7.859 -0.3429  2.7482  2.4717
  253MOL0     H34861   7.262  10.788   7.846  0.7372  0.1701 -1.6473
  253MOL0     H34862   7.287  10.897   7.709 -1.1708  0.9149 -0.0497
  253MOL0     H34863   7.538  10.994   7.672 -0.5751  0.1193  0.5845
  253MOL0     H34864   7.791  10.990   7.664  1.0632  0.7457  1.4216
  253MOL0     H34865   7.776  10.822   7.618  3.4443 -0.6279 -0.8887
  253MOL0     H34866   7.891  10.769   7.852  1.4361 -0.7537 -0.4841
  253MOL0     H34867   7.993  10.846   7.728 -0.1059 -0.1657  0.0145
  253MOL0     H34868   7.947  11.076   7.839 -1.7953  0.9044 -0.3996
  253MOL0     H34869   7.839  10.986   7.947 -1.2990  2.4726 -1.7557
  253MOL0     H34870   8.066  11.039   8.039 -0.5479  0.3773 -0.7670
  253MOL0     H34871   8.042  10.856   8.007  0.7250  0.9909  0.7087
  253MOL0     H34872   8.223  10.749   8.023 -1.6614  0.9572 -0.2388
  253MOL0     H34873   8.465  10.509   8.023  0.2126  0.4084 -0.3827
  253MOL0     H34874   8.315  10.452   7.959 -1.9612  1.0430  2.0453
  253MOL0     H34875   8.315  10.572   8.090 -3.9041 -0.9627 -0.3918
  253MOL0     H34876   8.552  10.420   7.355 -0.5910 -1.3540  1.8264
  253MOL0     H34877   8.761  10.295   7.238  0.1726 -1.4275  0.3130
  253MOL0     H34878   8.966  10.306   7.155 -1.4842  0.0695  2.0826
  253MOL0     H34879   9.012  10.466   7.214 -2.0005 -0.7815 -0.3747
  253MOL0     H34880   9.238  10.403   7.275  0.5971  0.8905 -1.0679
  253MOL0     H34881   9.201  10.229   7.232  2.2680 -0.1003 -3.2598
  253MOL0     H34882   9.244  10.475   7.055  0.5517 -0.1968 -2.2953
  253MOL0     H34883   9.147  10.330   6.999 -0.5062 -0.1342  0.4521
  253MOL0     H34884   9.341  10.184   7.033  2.4005 -0.0673  0.8009
  253MOL0     H34885   9.440  10.321   7.085  1.2278  0.2934 -1.5965
  253MOL0     H34886   9.418  10.411   6.856  0.2765  0.8319  1.2429
  253MOL0     H34887   9.499  10.261   6.857  0.4560  1.1049  0.1913
  253MOL0     H34888   9.201  10.297   6.778 -0.0671 -0.6065 -0.7565
  253MOL0     H34889   9.267  10.140   6.810  0.2261  0.0525 -2.9586
  253MOL0     H34890   9.462  10.203   6.654 -0.1668 -0.8893  0.0613
  253MOL0     H34891   9.347  10.328   6.586 -1.2891 -1.0533 -1.6656
  253MOL0     H34892   9.230  10.184   6.470  0.7349  0.0080 -0.7970
  253MOL0     H34893   9.252  10.051   6.582 -0.4981  1.9503  0.2468
  253MOL0     H34894   8.974  10.409   7.596  1.6366  4.5915 -1.5679
  253MOL0     H34895   8.770  10.501   7.695  1.5850  0.1044 -0.4266
  253MOL0     H34896   8.433  10.735   7.586 -2.2526  0.7198 -1.4257
  253MOL0     H34897   8.282  10.936   7.650  1.9348  0.7964  0.9697
  253MOL0     H34898   6.931  10.420   8.746  0.3018 -0.0985  3.2115
  253MOL0     H34899   6.746  10.304   8.884 -0.6404  0.9412  1.2748
  253MOL0     H34900   6.247  10.445   9.049  0.7897  0.2304  2.3982
  253MOL0     H34901   6.076  10.321   9.182 -0.3207 -0.4470  1.1025
  253MOL0     H34902   5.968   9.921   9.344  0.3120 -2.4065 -0.9501
  253MOL0     H34903   6.054   9.867   9.197  3.5757  1.5267 -2.2567
  253MOL0     H34904   6.273   9.931   9.348  0.7687 -1.0645  0.9405
  253MOL0     H34905   6.161   9.804   9.413 -1.7179  0.2760  0.9408
  253MOL0     H34906   6.146  10.107   9.479 -2.2903 -0.8627 -0.5668
  253MOL0     H34907   6.061   9.986   9.564 -1.2122  3.6670 -0.3611
  253MOL0     H34908   6.366   9.953   9.560 -1.1905 -2.9925 -0.8172
  253MOL0     H34909   6.247   9.872   9.653 -0.2574  0.4351  1.2270
  253MOL0     H34910   6.281  10.234   9.873 -0.2476 -2.1276  2.1616
  253MOL0     H34911   6.244   9.943   9.089 -0.1136 -0.3804 -2.5291
  253MOL0     H34912   6.528  10.033   8.947  2.0843  4.3042 -1.5091
  253MOL0     H34913   6.383   9.939   8.893  1.2462 -0.6503 -2.3401
  253MOL0     H34914   6.433  10.076   8.804 -3.6979 -1.0663 -0.2463
  254MOL0     O34915   2.426   6.007  11.477 -0.3389 -0.2307 -0.6415
  254MOL0     C34916   2.522   6.071  11.434  0.2820 -0.2438  0.6515
  254MOL0     O34917   2.511   6.192  11.377 -0.2019  0.2258  0.2562
  254MOL0     C34918   2.390   6.253  11.380  0.5531 -0.3058 -0.7267
  254MOL0     C34919   2.347   6.305  11.506 -0.6324  0.0747 -0.3149
  254MOL0     C34920   2.231   6.382  11.522  0.3332 -0.2910  0.5493
  254MOL0     C34921   2.156   6.399  11.406  0.0896  0.1063  0.9618
  254MOL0     O34922   2.044   6.479  11.406  0.6508  0.6408 -0.1656
  254MOL0     C34923   2.033   6.598  11.479  0.1140  0.0482 -0.9681
  254MOL0     C34924   1.918   6.677  11.415  0.1791 -0.0944 -0.2972
  254MOL0     C34925   1.883   6.792  11.503  0.0898 -0.7088 -0.3486
  254MOL0     C34926   1.805   6.749  11.632 -0.0320  0.0693 -0.1045
  254MOL0     C34927   1.733   6.838  11.730 -0.1261 -0.5234  0.3709
  254MOL0     C34928   1.619   6.917  11.658 -0.7693 -0.0758 -0.3499
  254MOL0     C34929   1.542   7.015  11.750 -0.1840 -0.0911  0.3120
  254MOL0     C34930   1.511   6.953  11.889 -0.2495 -0.4286  0.0324
  254MOL0     N34931   1.425   7.044  11.970 -0.1017  0.3137 -0.0203
  254MOL0     C34932   1.357   7.158  11.933  0.1526 -0.1068  0.2608
  254MOL0     C34933   1.305   7.220  12.046 -0.7007 -0.1046 -0.3470
  254MOL0     C34934   1.246   7.361  12.058  0.3253  0.8109  0.9426
  254MOL0     C34935   1.357   7.460  12.094  0.1116  0.2183  0.3101
  254MOL0     C34936   1.294   7.587  12.164  0.0186  1.0058  0.2010
  254MOL0     C34937   1.389   7.702  12.161 -0.7420 -0.6632  0.1373
  254MOL0     O34938   1.507   7.668  12.241 -0.1703  0.0868  0.7177
  254MOL0     C34939   1.514   7.700  12.374  0.6464  0.3656 -0.2972
  254MOL0     C34940   1.415   7.753  12.452  0.2480  0.6912  0.7950
  254MOL0     C34941   1.420   7.757  12.593 -0.0297 -0.4796 -0.4809
  254MOL0     C34942   1.309   7.819  12.669 -0.2662 -0.5330  0.1775
  254MOL0     C34943   1.523   7.692  12.657  0.1690 -0.2243 -0.0714
  254MOL0     C34944   1.528   7.680  12.801 -0.8032 -0.6753 -0.3098
  254MOL0     O34945   1.625   7.753  12.879  0.9499 -0.0768 -0.0576
  254MOL0     C34946   1.611   7.728  13.008  0.2540  0.6499 -0.2232
  254MOL0     C34947   1.677   7.620  13.078 -0.3440  1.1709  0.0158
  254MOL0     C34948   1.658   7.616  13.223 -0.7234  0.2565  1.0026
  254MOL0     C34949   1.599   7.718  13.297  0.8725 -0.1641 -0.0826
  254MOL0     O34950   1.607   7.719  13.435  0.0292  0.6899 -0.0083
  254MOL0     C34951   1.637   7.842  13.497 -0.2821  0.3095 -0.1010
  254MOL0     C34952   1.638   7.836  13.646  0.0718  0.8221  0.3215
  254MOL0     C34953   1.744   7.750  13.704 -0.5341  0.2390 -0.2238
  254MOL0     C34954   1.877   7.816  13.712  1.1211  0.6944 -0.6580
  254MOL0     C34955   1.976   7.728  13.787  0.0846 -0.6159 -0.0954
  254MOL0     C34956   1.959   7.708  13.941 -0.3050  0.0890 -0.8666
  254MOL0     C34957   1.982   7.841  14.010  0.2228 -0.5335 -0.3120
  254MOL0     C34958   1.959   7.804  14.161 -0.0959 -0.3898 -0.3142
  254MOL0    Cl34959   2.000   7.955  14.243  0.0126 -0.1019  0.2781
  254MOL0     C34960   1.552   7.827  13.227 -0.7313  0.2531 -0.3152
  254MOL0     C34961   1.554   7.828  13.090  0.5505 -0.1528  0.3301
  254MOL0     O34962   1.440   7.611  12.852 -0.8137  0.3832 -0.3115
  254MOL0     C34963   1.630   7.644  12.575 -0.0439 -0.5185 -1.2913
  254MOL0     C34964   1.637   7.663  12.435  0.0388 -0.9672 -0.7835
  254MOL0     N34965   1.339   7.130  12.146  0.6564  0.1348 -0.9802
  254MOL0     N34966   1.408   7.036  12.102 -0.3370  0.0657 -0.2179
  254MOL0     C34967   2.192   6.340  11.279 -0.9228 -0.3410  0.6516
  254MOL0     C34968   2.310   6.275  11.271 -0.4958 -0.4060  0.8536
  254MOL0     C34969   2.657   6.015  11.444 -0.2387  0.5145  0.8115
  254MOL0     C34970   2.763   6.089  11.397 -0.0334 -0.5986  0.0240
  254MOL0     C34971   2.893   6.040  11.404  0.1820 -0.5209  0.4922
  254MOL0     C34972   2.919   5.914  11.451 -0.2776 -0.4234  0.1736
  254MOL0     O34973   3.050   5.867  11.434  0.4134  0.1238  0.7839
  254MOL0     C34974   3.159   5.956  11.434 -0.6246  0.5987  1.0522
  254MOL0     C34975   3.278   5.888  11.492 -0.3609  0.3398  0.8623
  254MOL0     C34976   3.399   5.984  11.518  0.2516  0.8549  0.2731
  254MOL0     C34977   3.467   6.061  11.400 -0.6044  1.0310  0.2412
  254MOL0     C34978   3.579   5.989  11.330  0.3990  0.0211 -0.3869
  254MOL0     C34979   3.669   5.935  11.264 -0.3557 -0.0777 -1.0928
  254MOL0     C34980   2.818   5.841  11.507 -0.3180 -0.6925 -0.1244
  254MOL0     C34981   2.685   5.882  11.504  0.2295  0.4545 -0.0725
  254MOL0     C34982   2.600   5.778  11.568  1.0175  0.5441  0.3373
  254MOL0     H34983   2.395   6.275  11.599 -1.1380 -2.4427 -0.7966
  254MOL0     H34984   2.198   6.418  11.619  0.6794  1.4722  0.0310
  254MOL0     H34985   2.123   6.657  11.499 -0.5259  0.2474  1.6404
  254MOL0     H34986   2.005   6.579  11.583  3.4258 -0.7039 -0.0994
  254MOL0     H34987   1.941   6.718  11.316  2.3016  0.2839  0.3018
  254MOL0     H34988   1.834   6.607  11.409  1.9572 -2.4554  0.6751
  254MOL0     H34989   1.974   6.844  11.535 -0.1432  0.9159 -2.1316
  254MOL0     H34990   1.827   6.865  11.443 -0.3609 -0.5894  0.2073
  254MOL0     H34991   1.725   6.679  11.602  1.6327 -1.6044 -0.8246
  254MOL0     H34992   1.874   6.687  11.690 -0.9903  0.3279  1.3857
  254MOL0     H34993   1.811   6.904  11.770  1.7894 -2.4251 -0.0643
  254MOL0     H34994   1.695   6.768  11.804  0.4331 -1.4842 -0.2289
  254MOL0     H34995   1.651   6.974  11.570 -2.0527  0.0031 -0.7888
  254MOL0     H34996   1.547   6.848  11.614  0.0645 -1.8785  0.9591
  254MOL0     H34997   1.448   7.029  11.695  1.7321  2.0926 -2.7695
  254MOL0     H34998   1.592   7.112  11.759 -3.1598  1.6780 -0.7783
  254MOL0     H34999   1.474   6.851  11.879 -0.1141 -0.4986  0.2378
  254MOL0     H35000   1.605   6.957  11.946 -1.1825  0.6242  1.5600
  254MOL0     H35001   1.353   7.194  11.831 -0.4956 -1.6980 -0.3014
  254MOL0     H35002   1.180   7.352  12.145 -0.7218  1.5029  0.2477
  254MOL0     H35003   1.186   7.382  11.968  0.7341  1.1465  0.7488
  254MOL0     H35004   1.433   7.418  12.161  3.1371  1.7399 -1.9098
  254MOL0     H35005   1.407   7.487  12.001 -0.2065  0.2011  0.1310
  254MOL0     H35006   1.201   7.626  12.121 -0.1357  2.2182  1.5715
  254MOL0     H35007   1.287   7.568  12.271  3.0039 -4.3054 -0.2196
  254MOL0     H35008   1.427   7.721  12.060  0.4934 -0.0823  0.6925
  254MOL0     H35009   1.346   7.800  12.186  1.8132  1.4209 -2.8829
  254MOL0     H35010   1.324   7.796  12.411  1.2748  3.2648  1.0541
  254MOL0     H35011   1.269   7.903  12.612 -0.6810  1.5398  3.3036
  254MOL0     H35012   1.360   7.860  12.757  0.8197 -0.1521 -0.6070
  254MOL0     H35013   1.234   7.745  12.699  0.6366 -2.3000 -1.6933
  254MOL0     H35014   1.736   7.549  13.022 -1.4923 -0.5402  0.8996
  254MOL0     H35015   1.694   7.533  13.283 -4.4774 -1.5389  1.0008
  254MOL0     H35016   1.737   7.866  13.458 -0.4690 -1.0030 -1.4765
  254MOL0     H35017   1.560   7.916  13.474 -1.6168 -1.0124 -0.0108
  254MOL0     H35018   1.650   7.934  13.692 -2.0393  1.2122  0.1700
  254MOL0     H35019   1.542   7.795  13.680  0.4282 -0.0710  0.2904
  254MOL0     H35020   1.742   7.649  13.662  1.9278 -0.9984  2.3617
  254MOL0     H35021   1.717   7.742  13.810  2.5928 -0.2988  0.6198
  254MOL0     H35022   1.859   7.919  13.744 -4.2386  0.9576 -3.4928
  254MOL0     H35023   1.907   7.817  13.607 -1.3696 -0.6284 -1.4507
  254MOL0     H35024   1.978   7.631  13.737 -0.2428 -0.5036 -0.3302
  254MOL0     H35025   2.077   7.767  13.771  0.7346 -2.6515 -1.3411
  254MOL0     H35026   2.041   7.639  13.965 -0.7369  0.2841  1.3597
  254MOL0     H35027   1.861   7.668  13.969 -1.6360  0.7107 -4.2147
  254MOL0     H35028   1.910   7.919  13.982  2.0325  1.4410  0.3014
  254MOL0     H35029   2.085   7.874  13.990  0.4704  0.0149  1.6156
  254MOL0     H35030   2.027   7.725  14.192  0.6257  0.4204  0.2344
  254MOL0     H35031   1.858   7.774  14.190  0.7899 -1.1106  2.3028
  254MOL0     H35032   1.504   7.905  13.285 -0.4864  0.6645 -0.6551
  254MOL0     H35033   1.501   7.910  13.042 -0.4708  0.3747  2.2791
  254MOL0     H35034   1.717   7.605  12.628 -1.7241 -0.2993  1.8500
  254MOL0     H35035   1.722   7.637  12.373  1.3856 -0.4908  0.7890
  254MOL0     H35036   2.133   6.350  11.188 -1.3924  2.3298  1.1941
  254MOL0     H35037   2.331   6.240  11.170 -1.4978  0.1895  0.4261
  254MOL0     H35038   2.755   6.190  11.358 -1.8065 -1.1285 -1.1659
  254MOL0     H35039   2.973   6.095  11.357 -0.8194 -0.7255 -1.5414
  254MOL0     H35040   3.189   5.982  11.332 -0.9666  1.5100  1.1721
  254MOL0     H35041   3.134   6.051  11.484  1.0097  3.6882 -3.3582
  254MOL0     H35042   3.312   5.801  11.434 -1.2979  1.0212 -0.7976
  254MOL0     H35043   3.251   5.833  11.582 -0.5743 -1.8502 -0.4680
  254MOL0     H35044   3.353   6.059  11.583 -4.2257  0.6766 -2.2363
  254MOL0     H35045   3.475   5.933  11.577 -1.7713 -0.4523  1.8701
  254MOL0     H35046   3.514   6.153  11.436  3.2344  0.2359 -2.0953
  254MOL0     H35047   3.386   6.090  11.332  0.8909 -1.4035 -2.8786
  254MOL0     H35048   3.746   5.893  11.201  0.4291 -0.3699  0.0328
  254MOL0     H35049   2.856   5.748  11.547  2.0878 -0.6734 -2.0754
  254MOL0     H35050   2.646   5.679  11.576 -1.1869 -0.7663 -1.6997
  254MOL0     H35051   2.558   5.800  11.667 -0.2923  1.4329 -0.3786
  254MOL0     H35052   2.514   5.763  11.501  0.3428 -0.9131  1.4589
  255MOL0     O35053   6.921   0.939   2.247  0.2253 -0.1384 -0.4335
  255MOL0     C35054   7.036   0.897   2.251  0.4321  0.4148 -0.8448
  255MOL0     O35055   7.152   0.979   2.253  0.3450  0.2879  0.0342
  255MOL0     C35056   7.137   1.115   2.279  0.2306  0.5990 -0.5420
  255MOL0     C35057   7.076   1.167   2.389  0.5289  0.2376  0.7515
  255MOL0     C35058   7.086   1.299   2.417  0.5709 -0.0563 -0.5744
  255MOL0     C35059   7.130   1.394   2.319 -0.9374  0.6787  0.8229
  255MOL0     O35060   7.135   1.520   2.345 -0.5941 -0.2170 -0.2186
  255MOL0     C35061   7.020   1.582   2.395  1.1192 -0.2628  1.2107
  255MOL0     C35062   7.039   1.651   2.532  0.2686  0.0356 -0.0167
  255MOL0     C35063   7.139   1.761   2.514 -1.0554  0.9213  1.2779
  255MOL0     C35064   7.078   1.902   2.500  0.4823 -0.0540 -0.5546
  255MOL0     C35065   7.185   2.011   2.475 -0.0101  0.7853 -0.0552
  255MOL0     C35066   7.129   2.146   2.507 -0.9782 -0.8935  0.8153
  255MOL0     C35067   7.215   2.266   2.487  0.5020 -0.3458  0.3744
  255MOL0     C35068   7.360   2.243   2.510  0.1616  0.0227 -0.6350
  255MOL0     N35069   7.448   2.341   2.450 -0.1282 -1.5896 -0.5416
  255MOL0     C35070   7.506   2.336   2.324  0.8355  1.1248  0.2535
  255MOL0     C35071   7.594   2.439   2.315 -0.3388  0.4351 -0.0423
  255MOL0     C35072   7.666   2.496   2.195 -0.7409 -1.3956  0.0170
  255MOL0     C35073   7.592   2.486   2.066  0.8529  0.2401  0.6047
  255MOL0     C35074   7.530   2.625   2.041  0.0212  0.4545  0.2837
  255MOL0     C35075   7.434   2.679   2.152 -0.3841 -0.2794 -0.6971
  255MOL0     O35076   7.336   2.578   2.173 -0.4285  0.0368 -0.4372
  255MOL0     C35077   7.231   2.620   2.259  0.2062  0.0407  0.2287
  255MOL0     C35078   7.128   2.672   2.183 -1.0282  0.3246 -0.4512
  255MOL0     C35079   7.019   2.732   2.248 -0.3501 -0.4423 -0.5063
  255MOL0     C35080   6.923   2.803   2.151  0.5963 -0.0620 -0.0009
  255MOL0     C35081   7.014   2.753   2.392  0.2410 -0.4874 -0.2781
  255MOL0     C35082   6.906   2.819   2.473  0.5020  0.5621  0.8215
  255MOL0     O35083   6.779   2.858   2.422  0.0344  0.8672 -0.2330
  255MOL0     C35084   6.689   2.912   2.515  0.0042 -0.6480  0.3850
  255MOL0     C35085   6.675   3.052   2.509 -0.4425  0.2384  0.3798
  255MOL0     C35086   6.568   3.118   2.573  0.6154  0.5262  0.0925
  255MOL0     C35087   6.504   3.050   2.675  0.7488 -0.0562 -0.2553
  255MOL0     O35088   6.417   3.118   2.756  0.2761 -0.5299 -0.1829
  255MOL0     C35089   6.348   3.222   2.697  0.7698 -0.0457 -0.3494
  255MOL0     C35090   6.245   3.169   2.599 -0.0807  0.0946  0.6005
  255MOL0     C35091   6.129   3.095   2.667 -0.8163 -0.3307 -0.3751
  255MOL0     C35092   6.013   3.079   2.567 -0.2702  0.8816  0.6224
  255MOL0     C35093   5.914   2.975   2.627 -0.1295  0.0844 -0.1794
  255MOL0     C35094   5.796   3.022   2.713 -0.6583 -0.3077  0.0575
  255MOL0     C35095   5.702   3.121   2.631 -0.2655  0.5018 -0.1015
  255MOL0     C35096   5.591   3.171   2.711 -0.6070  0.2810 -0.3095
  255MOL0    Cl35097   5.462   3.047   2.711  0.2041 -0.1671  0.1697
  255MOL0     C35098   6.519   2.907   2.687 -1.1987 -0.6100 -0.5968
  255MOL0     C35099   6.606   2.841   2.599 -0.3507 -0.0999 -0.3560
  255MOL0     O35100   6.931   2.831   2.594  0.7847 -0.7033  0.1140
  255MOL0     C35101   7.131   2.708   2.460  0.2691 -0.1683  0.3552
  255MOL0     C35102   7.240   2.641   2.390  0.2827  0.6118 -0.3128
  255MOL0     N35103   7.601   2.497   2.437 -0.2806  0.1195  0.1462
  255MOL0     N35104   7.512   2.441   2.516  1.1679 -0.1263 -0.2879
  255MOL0     C35105   7.185   1.338   2.205  0.2085 -0.0975 -0.5777
  255MOL0     C35106   7.193   1.201   2.183 -0.7846  0.3259 -0.2429
  255MOL0     C35107   7.055   0.760   2.231 -1.3733  1.4736 -0.3882
  255MOL0     C35108   7.133   0.722   2.122  0.4193  0.2769 -0.5036
  255MOL0     C35109   7.160   0.589   2.079 -0.0026 -0.2881  0.1288
  255MOL0     C35110   7.104   0.491   2.151 -0.2171  1.5232  0.1651
  255MOL0     O35111   7.116   0.360   2.110  0.3659 -0.1259 -0.0353
  255MOL0     C35112   7.142   0.331   1.974  0.5911 -1.0754 -0.4126
  255MOL0     C35113   7.127   0.181   1.953  0.0445 -0.1060 -0.0140
  255MOL0     C35114   7.231   0.099   2.017 -0.1355  0.2334 -0.4036
  255MOL0     C35115   7.194  -0.045   2.033  0.0411  0.4226  0.0094
  255MOL0     C35116   7.306  -0.128   2.087 -0.5194  1.1742  0.6527
  255MOL0     C35117   7.393  -0.202   2.129 -0.3318 -0.0408 -0.4766
  255MOL0     C35118   7.019   0.524   2.261  0.7677 -0.8287  0.9374
  255MOL0     C35119   6.986   0.650   2.294 -0.8682  0.1220 -0.2601
  255MOL0     C35120   6.874   0.673   2.386  0.2889 -0.9190 -0.0212
  255MOL0     H35121   7.017   1.107   2.457 -0.5524 -0.7675 -1.0124
  255MOL0     H35122   7.042   1.326   2.513  3.5391 -1.8398  1.4442
  255MOL0     H35123   6.932   1.518   2.397  1.2589 -0.5326 -0.2347
  255MOL0     H35124   6.985   1.657   2.323 -1.0542 -2.4017 -0.0873
  255MOL0     H35125   6.941   1.682   2.569 -0.6221 -1.3829 -1.0895
  255MOL0     H35126   7.074   1.581   2.608  3.6409  2.1409  0.5629
  255MOL0     H35127   7.199   1.774   2.605  2.5565 -0.2984 -0.7073
  255MOL0     H35128   7.207   1.748   2.429  0.1796 -3.3988  2.6782
  255MOL0     H35129   7.003   1.904   2.420 -0.5260  1.1232  0.3710
  255MOL0     H35130   7.016   1.934   2.584 -1.1668 -1.0990 -1.3191
  255MOL0     H35131   7.223   1.996   2.374  2.2204 -2.1964  1.0807
  255MOL0     H35132   7.276   1.986   2.531 -0.5541  0.5617  0.7427
  255MOL0     H35133   7.048   2.155   2.435  0.6793 -0.2980 -1.0616
  255MOL0     H35134   7.075   2.148   2.602  1.0629  0.2265  2.0365
  255MOL0     H35135   7.185   2.335   2.566  0.6050 -2.8208  2.7091
  255MOL0     H35136   7.198   2.323   2.395 -3.8162  5.1451  3.8918
  255MOL0     H35137   7.393   2.243   2.615 -0.4029  0.9042 -0.4513
  255MOL0     H35138   7.399   2.153   2.462  1.9315  1.2469 -1.6370
  255MOL0     H35139   7.481   2.267   2.244 -1.2476  0.3937  1.4500
  255MOL0     H35140   7.761   2.445   2.180  0.5957  1.0704 -0.3813
  255MOL0     H35141   7.695   2.600   2.211 -0.1857 -1.8267  1.9637
  255MOL0     H35142   7.667   2.462   1.991  2.0132 -2.7707  2.5346
  255MOL0     H35143   7.520   2.404   2.064  1.4869 -0.3188  0.5343
  255MOL0     H35144   7.608   2.697   2.016 -0.3521  1.2838  1.4499
  255MOL0     H35145   7.471   2.604   1.951 -0.3096 -0.8329  0.7698
  255MOL0     H35146   7.487   2.695   2.247 -3.3090 -2.5320  1.5208
  255MOL0     H35147   7.390   2.774   2.122  2.4865  1.0891 -0.9026
  255MOL0     H35148   7.137   2.663   2.075 -2.0764 -0.0347 -0.5215
  255MOL0     H35149   6.950   2.786   2.047 -1.8444  0.9513 -0.8735
  255MOL0     H35150   6.918   2.910   2.173 -3.8033  0.3645 -1.9184
  255MOL0     H35151   6.826   2.755   2.166  1.5013 -1.3700  2.3263
  255MOL0     H35152   6.730   3.113   2.438 -0.3581  0.5872  0.7403
  255MOL0     H35153   6.554   3.221   2.541 -1.6645  0.7933  1.6572
  255MOL0     H35154   6.287   3.269   2.774 -0.8103 -2.7555  0.1979
  255MOL0     H35155   6.404   3.298   2.641 -2.0510  0.5325 -2.6203
  255MOL0     H35156   6.207   3.239   2.524 -0.6514  1.4266  2.0684
  255MOL0     H35157   6.297   3.094   2.539 -2.0913  0.0405 -1.2244
  255MOL0     H35158   6.084   3.157   2.745 -1.3605 -1.1328 -0.0465
  255MOL0     H35159   6.174   3.005   2.710  2.9924  2.3241  1.8116
  255MOL0     H35160   6.057   3.042   2.474  4.1137  2.2430  1.9118
  255MOL0     H35161   5.960   3.172   2.542  0.3571  1.2067  0.4862
  255MOL0     H35162   5.857   2.934   2.543  0.8514  1.0452 -1.3608
  255MOL0     H35163   5.964   2.890   2.674 -0.0306  0.7898  1.0259
  255MOL0     H35164   5.840   3.069   2.801 -1.3540  0.6942 -0.1003
  255MOL0     H35165   5.739   2.931   2.730 -0.7431  0.3911  4.7145
  255MOL0     H35166   5.660   3.072   2.543  1.7126  0.6418 -1.1834
  255MOL0     H35167   5.756   3.213   2.606  0.0917  0.5572  0.8367
  255MOL0     H35168   5.548   3.258   2.660  1.3357  2.8448  2.0893
  255MOL0     H35169   5.634   3.198   2.808  3.3122 -1.6254 -1.2999
  255MOL0     H35170   6.449   2.852   2.749  0.4522 -0.0180  1.9377
  255MOL0     H35171   6.618   2.734   2.608 -1.4060 -0.0386  3.7787
  255MOL0     H35172   7.141   2.716   2.568  0.3994 -3.1110  0.6558
  255MOL0     H35173   7.329   2.611   2.443 -1.8178 -0.9893  2.6481
  255MOL0     H35174   7.223   1.393   2.119 -1.5192 -0.7102 -1.8159
  255MOL0     H35175   7.243   1.156   2.098 -1.1473 -1.5938  0.5035
  255MOL0     H35176   7.171   0.804   2.062  1.7651  0.7707  0.9490
  255MOL0     H35177   7.214   0.566   1.988  1.5514 -2.6749  1.5350
  255MOL0     H35178   7.076   0.385   1.906 -1.6118 -1.5249  1.2624
  255MOL0     H35179   7.238   0.364   1.933 -0.5555 -1.5858 -3.7874
  255MOL0     H35180   7.128   0.157   1.847 -1.1414 -1.0093  0.1505
  255MOL0     H35181   7.028   0.144   1.982 -1.1027  1.7262 -1.3752
  255MOL0     H35182   7.325   0.102   1.960  0.2540 -0.8351  0.1630
  255MOL0     H35183   7.242   0.147   2.114  2.8111 -0.3233 -0.3595
  255MOL0     H35184   7.166  -0.074   1.931  2.9447 -0.1814 -0.6816
  255MOL0     H35185   7.101  -0.057   2.090  0.7969 -1.3701  0.9418
  255MOL0     H35186   7.477  -0.256   2.167 -1.4155 -0.7562  1.0037
  255MOL0     H35187   6.953   0.446   2.297 -1.6924  1.6100  2.0957
  255MOL0     H35188   6.886   0.768   2.438 -1.5337 -0.1773 -0.8430
  255MOL0     H35189   6.776   0.685   2.337  0.4416 -0.7193 -0.2801
  255MOL0     H35190   6.847   0.606   2.468 -0.7251  0.8334  1.1354
  256MOL0     O35191   5.338   6.277  10.916 -0.0221 -0.4291  0.6633
  256MOL0     C35192   5.280   6.388  10.903  0.1938  0.4848 -0.5540
  256MOL0     O35193   5.296   6.487  10.992 -0.0228  0.0255 -0.4727
  256MOL0     C35194   5.350   6.467  11.114 -0.2328  0.0758  0.4255
  256MOL0     C35195   5.489   6.482  11.128 -0.0386 -0.0483 -0.0370
  256MOL0     C35196   5.549   6.461  11.247  0.5798  0.4063 -1.1378
  256MOL0     C35197   5.471   6.442  11.364  0.2306  0.4409  0.8902
  256MOL0     O35198   5.536   6.430  11.486  0.3091  0.9989 -0.0301
  256MOL0     C35199   5.461   6.392  11.600  0.0579 -0.1718 -0.2103
  256MOL0     C35200   5.543   6.364  11.718  0.0548 -0.7292 -0.8605
  256MOL0     C35201   5.696   6.344  11.685  0.3308 -0.2999 -0.0351
  256MOL0     C35202   5.778   6.477  11.662 -0.0461 -0.0783  0.5689
  256MOL0     C35203   5.817   6.549  11.796  0.6401  0.0422  0.2427
  256MOL0     C35204   5.914   6.457  11.877 -0.2492 -0.2728  0.1115
  256MOL0     C35205   6.011   6.533  11.964  0.0706  0.8434 -0.1246
  256MOL0     C35206   6.129   6.437  11.997 -0.4994 -0.4698  0.8668
  256MOL0     N35207   6.097   6.320  12.085 -0.3360 -0.5688 -0.3866
  256MOL0     C35208   6.013   6.216  12.071  0.7494 -1.1506 -0.0607
  256MOL0     C35209   6.007   6.154  12.191 -0.4138  0.7181 -0.1653
  256MOL0     C35210   5.925   6.032  12.220  0.5837  0.1502 -0.6376
  256MOL0     C35211   5.992   5.908  12.157  0.7934  0.1613  0.2814
  256MOL0     C35212   5.930   5.780  12.197  0.2213 -0.1719 -0.4064
  256MOL0     C35213   6.004   5.654  12.169 -0.2597 -0.0734 -0.1258
  256MOL0     O35214   6.101   5.638  12.276  0.2707  0.6798 -0.2105
  256MOL0     C35215   6.185   5.531  12.283  0.2445 -0.2222 -0.2892
  256MOL0     C35216   6.196   5.438  12.183 -0.3763  0.0033 -0.2825
  256MOL0     C35217   6.290   5.339  12.198 -0.1535  0.0781 -0.6356
  256MOL0     C35218   6.303   5.243  12.078  0.0753  0.6683 -0.0015
  256MOL0     C35219   6.388   5.354  12.310  1.0064  0.5491  0.9276
  256MOL0     C35220   6.507   5.267  12.311 -0.1199 -0.4690 -0.5175
  256MOL0     O35221   6.617   5.321  12.382 -0.3329  0.6151 -0.4587
  256MOL0     C35222   6.732   5.254  12.406  0.6155  0.2145 -0.2275
  256MOL0     C35223   6.764   5.114  12.386 -0.8630 -0.5749  0.8818
  256MOL0     C35224   6.893   5.064  12.407  0.3399  0.0356  0.2330
  256MOL0     C35225   6.984   5.151  12.458 -0.3310  0.3251  0.3733
  256MOL0     O35226   7.108   5.108  12.492 -0.4414 -0.8389 -0.0148
  256MOL0     C35227   7.195   5.080  12.383  0.7760 -0.3559 -0.3124
  256MOL0     C35228   7.236   4.930  12.389 -0.5435  0.1121 -1.0480
  256MOL0     C35229   7.352   4.885  12.292  0.3831 -0.4131  1.2391
  256MOL0     C35230   7.485   4.952  12.328  0.1906 -0.0084 -0.0780
  256MOL0     C35231   7.592   4.889  12.239  0.3363 -0.9871 -1.5004
  256MOL0     C35232   7.727   4.951  12.267 -0.4436 -1.0263  0.7273
  256MOL0     C35233   7.783   4.919  12.414 -1.0386 -0.0792 -0.5561
  256MOL0     C35234   7.933   4.959  12.418 -0.2731  0.3694  0.7797
  256MOL0    Cl35235   8.027   4.851  12.320  0.2734 -0.0899 -0.0727
  256MOL0     C35236   6.960   5.288  12.470  0.0506  0.9678 -0.4587
  256MOL0     C35237   6.834   5.336  12.435  0.1955 -0.3227 -0.0263
  256MOL0     O35238   6.508   5.167  12.238  0.3966 -1.1188  0.2522
  256MOL0     C35239   6.368   5.450  12.409 -0.1447  0.3814  0.6759
  256MOL0     C35240   6.263   5.534  12.395  0.5098 -0.3580  0.6250
  256MOL0     N35241   6.089   6.222  12.278 -0.1471  0.6322 -0.2553
  256MOL0     N35242   6.134   6.323  12.217  0.0091 -0.5558 -1.0414
  256MOL0     C35243   5.328   6.421  11.347  0.3646 -0.4220  0.4595
  256MOL0     C35244   5.268   6.432  11.222 -0.3366 -0.1878  0.1739
  256MOL0     C35245   5.205   6.401  10.776 -1.3987  0.3076  0.4648
  256MOL0     C35246   5.184   6.528  10.716  1.0932  0.2288 -0.1459
  256MOL0     C35247   5.105   6.552  10.608 -0.2320  1.2372 -0.2108
  256MOL0     C35248   5.033   6.446  10.548 -0.0665 -0.3832 -0.2554
  256MOL0     O35249   4.946   6.456  10.439 -0.1628 -0.1930 -0.0319
  256MOL0     C35250   4.837   6.552  10.440 -0.0650 -0.9723 -0.7366
  256MOL0     C35251   4.729   6.514  10.545 -0.6829  0.8245 -0.5549
  256MOL0     C35252   4.614   6.616  10.534 -0.0433 -0.3883 -0.1390
  256MOL0     C35253   4.529   6.630  10.658  0.4395  0.2801 -1.3336
  256MOL0     C35254   4.425   6.738  10.642 -0.3863  0.6158  0.9381
  256MOL0     C35255   4.345   6.828  10.612  0.4017 -0.4594  0.2298
  256MOL0     C35256   5.041   6.321  10.613 -0.4303  0.4164 -0.0386
  256MOL0     C35257   5.123   6.298  10.721  0.4282  0.2764 -0.4087
  256MOL0     C35258   5.104   6.154  10.773 -0.4367 -0.6042 -0.4079
  256MOL0     H35259   5.542   6.495  11.034  0.5437  0.1835  0.3193
  256MOL0     H35260   5.656   6.465  11.263  0.6513  0.1552 -1.5517
  256MOL0     H35261   5.407   6.301  11.573  1.3118 -1.2361  0.6919
  256MOL0     H35262   5.388   6.470  11.623 -2.3589 -2.7625  1.4323
  256MOL0     H35263   5.539   6.443  11.794  1.4329  0.6875 -2.1874
  256MOL0     H35264   5.495   6.281  11.772 -2.1945  0.1528 -1.4034
  256MOL0     H35265   5.743   6.289  11.766 -1.4126 -0.7672  0.7084
  256MOL0     H35266   5.690   6.282  11.595 -1.7460  0.5067 -0.5170
  256MOL0     H35267   5.873   6.458  11.611  0.0268  0.9540  0.3130
  256MOL0     H35268   5.715   6.543  11.603 -0.1566 -0.8110 -0.1528
  256MOL0     H35269   5.735   6.574  11.864  1.7160 -2.0896  2.4944
  256MOL0     H35270   5.862   6.647  11.781 -1.8623  1.5470  1.8465
  256MOL0     H35271   5.859   6.391  11.944  0.8437  0.1710  1.4822
  256MOL0     H35272   5.987   6.412  11.810  0.3094  0.2001  0.3950
  256MOL0     H35273   5.972   6.585  12.052  0.3303  2.2484 -0.8120
  256MOL0     H35274   6.052   6.620  11.912  0.0700  1.3515  0.7251
  256MOL0     H35275   6.181   6.408  11.905 -3.0801  0.5391 -1.0167
  256MOL0     H35276   6.197   6.501  12.054 -2.3791  3.3737 -0.8312
  256MOL0     H35277   5.965   6.178  11.981 -0.7512  0.9960 -0.2375
  256MOL0     H35278   5.817   6.032  12.201  0.1652 -1.1832  1.4039
  256MOL0     H35279   5.915   6.003  12.325 -3.1828 -1.1924 -1.2133
  256MOL0     H35280   5.973   5.911  12.049  3.0631 -0.4296 -0.1789
  256MOL0     H35281   6.100   5.901  12.170  0.6468 -0.3943  1.2731
  256MOL0     H35282   5.901   5.781  12.303 -2.5118  0.8540 -1.0940
  256MOL0     H35283   5.834   5.779  12.146  0.7921 -0.9763 -1.5171
  256MOL0     H35284   5.927   5.576  12.176  1.8974 -2.2777  0.6345
  256MOL0     H35285   6.055   5.647  12.073  1.2243  3.0163  0.3182
  256MOL0     H35286   6.134   5.436  12.095  0.6004  1.9151 -1.0861
  256MOL0     H35287   6.406   5.248  12.042  1.2929 -1.7572  2.6749
  256MOL0     H35288   6.230   5.253  11.997 -1.5943  0.9525  1.4700
  256MOL0     H35289   6.281   5.140  12.109  1.3491  1.4763  4.2161
  256MOL0     H35290   6.689   5.050  12.341 -2.2954  0.8207  1.1949
  256MOL0     H35291   6.917   4.958  12.399  0.8921  0.0834  1.0796
  256MOL0     H35292   7.146   5.112  12.290  1.3237 -1.1858 -0.8986
  256MOL0     H35293   7.286   5.138  12.399 -0.0095  1.3888 -1.8182
  256MOL0     H35294   7.273   4.906  12.489  3.2634  1.8694 -1.8483
  256MOL0     H35295   7.143   4.873  12.379 -0.4848 -0.1140 -0.3564
  256MOL0     H35296   7.334   4.912  12.187  0.4520  0.3484  1.4161
  256MOL0     H35297   7.366   4.777  12.301  0.6590 -0.4665  0.3357
  256MOL0     H35298   7.499   4.927  12.433  1.6657 -0.9763 -0.4732
  256MOL0     H35299   7.470   5.057  12.300  0.4395 -0.1768 -0.8710
  256MOL0     H35300   7.604   4.784  12.268 -0.6328 -0.1768  2.4068
  256MOL0     H35301   7.566   4.905  12.134 -0.0140 -1.0329 -1.4227
  256MOL0     H35302   7.723   5.059  12.250 -0.8252 -1.1414  0.0175
  256MOL0     H35303   7.793   4.904  12.192  1.5839 -0.1756  1.9036
  256MOL0     H35304   7.768   4.818  12.453  1.9147 -0.3677  0.0160
  256MOL0     H35305   7.732   4.990  12.480 -0.8787  1.1698 -1.7381
  256MOL0     H35306   7.970   4.949  12.520  1.1142  0.3311  0.2943
  256MOL0     H35307   7.936   5.067  12.400  2.3474  0.1090 -0.8907
  256MOL0     H35308   7.033   5.356  12.513  1.9819 -1.5599  0.4802
  256MOL0     H35309   6.806   5.440  12.431  1.4738  0.0768  0.7388
  256MOL0     H35310   6.436   5.448  12.494  2.5657 -4.1006 -1.2178
  256MOL0     H35311   6.255   5.611  12.471  1.8390 -0.3454  0.7712
  256MOL0     H35312   5.265   6.400  11.433 -0.8690  3.2220  0.6203
  256MOL0     H35313   5.160   6.423  11.215 -0.1012 -1.9505 -1.9930
  256MOL0     H35314   5.241   6.612  10.754 -0.3168  2.1066 -2.0050
  256MOL0     H35315   5.084   6.647  10.559 -0.1058  1.3081 -0.1286
  256MOL0     H35316   4.873   6.645  10.486 -1.1424 -0.9586  0.1065
  256MOL0     H35317   4.797   6.562  10.338  0.2925 -3.8217 -1.2321
  256MOL0     H35318   4.777   6.511  10.642  2.0446  3.4354 -1.6615
  256MOL0     H35319   4.700   6.410  10.525 -0.0455  0.8483 -1.7075
  256MOL0     H35320   4.653   6.717  10.520  1.4226 -1.0422 -0.9673
  256MOL0     H35321   4.546   6.579  10.456 -0.2382 -1.4993  0.5265
  256MOL0     H35322   4.604   6.657  10.734 -0.2293 -3.3874  0.9264
  256MOL0     H35323   4.481   6.540  10.698  1.8913  0.2672  0.5360
  256MOL0     H35324   4.287   6.911  10.577 -0.5242 -1.8571 -1.7028
  256MOL0     H35325   4.966   6.251  10.578 -1.9254  2.4063 -1.0319
  256MOL0     H35326   5.185   6.089  10.736  0.1884  1.1516 -2.3133
  256MOL0     H35327   5.116   6.161  10.881 -0.0322 -0.0272 -0.4873
  256MOL0     H35328   5.011   6.106  10.739  0.3923 -1.1043 -2.0917
  257MOL0     O35329   1.344  10.366   3.558  0.1900 -0.4528  0.6109
  257MOL0     C35330   1.308  10.422   3.450 -0.6706  0.5431 -0.0490
  257MOL0     O35331   1.213  10.386   3.358 -0.5233 -0.2130  0.2272
  257MOL0     C35332   1.146  10.264   3.381 -0.6761 -0.7563  0.8784
  257MOL0     C35333   1.007  10.270   3.341 -0.6237  0.2089 -0.3635
  257MOL0     C35334   0.918  10.168   3.366 -1.1333  0.5405 -0.9072
  257MOL0     C35335   0.975  10.052   3.432 -0.2788  0.3156 -0.1767
  257MOL0     O35336   0.899   9.950   3.463  0.4793 -0.2087  1.0426
  257MOL0     C35337   0.833   9.971   3.595 -0.2309 -0.2114 -0.2473
  257MOL0     C35338   0.715   9.876   3.598 -0.0570  0.5265 -0.2155
  257MOL0     C35339   0.626   9.884   3.725 -0.7688  0.1646  0.3618
  257MOL0     C35340   0.505   9.787   3.703 -0.0757 -0.1124 -0.3688
  257MOL0     C35341   0.429   9.765   3.836 -0.7425  0.2642 -0.4291
  257MOL0     C35342   0.317   9.662   3.815 -0.0197 -0.6968  0.6804
  257MOL0     C35343   0.223   9.645   3.935  0.6600 -0.1865  0.5901
  257MOL0     C35344   0.091   9.700   3.907  0.2893  0.3893 -0.4955
  257MOL0     N35345   0.016   9.702   4.040  0.0665 -0.0605  0.1628
  257MOL0     C35346  -0.055   9.599   4.101 -0.3328 -0.7466  0.0101
  257MOL0     C35347  -0.077   9.645   4.223 -0.8711 -0.1569 -0.8614
  257MOL0     C35348  -0.158   9.562   4.324 -0.4780  0.0585 -0.2366
  257MOL0     C35349  -0.064   9.453   4.389  0.0862 -0.0211 -0.4080
  257MOL0     C35350   0.066   9.506   4.448 -1.0183 -0.0874 -0.2350
  257MOL0     C35351   0.041   9.626   4.532  1.8839 -0.4494 -0.9244
  257MOL0     O35352   0.169   9.657   4.603  0.5443  0.1426  0.1774
  257MOL0     C35353   0.278   9.695   4.528  0.2357  0.5412  0.2068
  257MOL0     C35354   0.403   9.701   4.590  0.2504  0.4595 -0.0485
  257MOL0     C35355   0.514   9.754   4.525 -0.8361  0.0480  0.3165
  257MOL0     C35356   0.641   9.761   4.614 -0.1902 -0.3736  0.1857
  257MOL0     C35357   0.508   9.804   4.388 -0.6402  0.3055  0.0203
  257MOL0     C35358   0.631   9.867   4.324  0.1660 -0.8128 -0.2697
  257MOL0     O35359   0.617   9.901   4.189 -0.5342  0.1395 -0.0446
  257MOL0     C35360   0.712   9.983   4.133 -0.4767 -0.4129  0.0534
  257MOL0     C35361   0.716  10.124   4.140 -0.4920 -0.8281  0.2187
  257MOL0     C35362   0.821  10.203   4.089 -0.4050 -0.4943  0.6165
  257MOL0     C35363   0.918  10.145   4.005  0.1428 -0.3081 -0.8638
  257MOL0     O35364   1.022  10.236   3.967 -0.0690  0.8248  0.3054
  257MOL0     C35365   1.082  10.187   3.846  0.1048  0.6106 -0.9871
  257MOL0     C35366   1.159  10.290   3.774 -0.3031 -1.0763  0.7160
  257MOL0     C35367   1.245  10.385   3.856  0.0926 -0.0757 -0.0253
  257MOL0     C35368   1.373  10.321   3.911 -0.2902 -0.8575 -1.4057
  257MOL0     C35369   1.462  10.421   3.990 -0.4559  0.2681  0.3345
  257MOL0     C35370   1.547  10.518   3.912  0.4050 -0.0227  0.6594
  257MOL0     C35371   1.574  10.652   3.971  0.0923  0.0735 -0.3431
  257MOL0     C35372   1.643  10.740   3.864 -0.3091  0.9493  0.7035
  257MOL0    Cl35373   1.744  10.878   3.918  0.5547 -0.3537 -0.1960
  257MOL0     C35374   0.912   9.998   3.991 -0.9729 -1.2488 -0.3718
  257MOL0     C35375   0.812   9.922   4.051 -0.8581 -0.4145 -0.4940
  257MOL0     O35376   0.731   9.881   4.393  0.3680 -0.6989  0.0463
  257MOL0     C35377   0.383   9.791   4.321  0.2549 -0.3928  0.2922
  257MOL0     C35378   0.272   9.752   4.397 -0.3028 -0.2357  0.7910
  257MOL0     N35379  -0.040   9.777   4.223 -0.1713  0.6979 -0.2423
  257MOL0     N35380   0.024   9.807   4.117  0.2786 -0.5053  0.3042
  257MOL0     C35381   1.109  10.038   3.466  0.2398  0.7150  0.3889
  257MOL0     C35382   1.201  10.142   3.436  0.5796  0.5562  0.4511
  257MOL0     C35383   1.369  10.550   3.413  0.1126  0.3909  0.4257
  257MOL0     C35384   1.345  10.659   3.497  0.2481 -0.9552  0.3546
  257MOL0     C35385   1.392  10.786   3.472 -0.0865 -0.5950  0.0827
  257MOL0     C35386   1.477  10.809   3.360 -0.3919  0.4390 -0.3934
  257MOL0     O35387   1.544  10.925   3.325 -0.2221 -0.4018 -0.6962
  257MOL0     C35388   1.615  10.991   3.435  0.0252  0.7816 -0.5221
  257MOL0     C35389   1.742  10.907   3.467 -0.4611 -0.5144  0.5992
  257MOL0     C35390   1.825  10.889   3.334 -0.2063 -0.7046  0.4298
  257MOL0     C35391   1.967  10.850   3.384  0.1651  0.0602  0.2641
  257MOL0     C35392   2.061  10.880   3.280  0.3906 -0.9169  0.0203
  257MOL0     C35393   2.138  10.918   3.192  0.6529  0.0722  0.3101
  257MOL0     C35394   1.494  10.699   3.272  0.2407  0.0182 -0.8089
  257MOL0     C35395   1.444  10.566   3.288  1.0086  0.3053  0.4210
  257MOL0     C35396   1.449  10.456   3.176 -0.7254  0.4247  0.8405
  257MOL0     H35397   0.984  10.367   3.298  2.1521  0.6763 -0.9973
  257MOL0     H35398   0.814  10.196   3.351 -2.3329 -0.9551  3.1785
  257MOL0     H35399   0.804  10.072   3.626  0.0837 -1.2693  4.1359
  257MOL0     H35400   0.903   9.946   3.676 -1.4494 -1.0020  0.5913
  257MOL0     H35401   0.664   9.914   3.509  0.5500 -3.4942 -2.5249
  257MOL0     H35402   0.744   9.775   3.566  0.4348  1.1990 -1.9924
  257MOL0     H35403   0.682   9.828   3.801 -2.2312 -1.0360  0.5972
  257MOL0     H35404   0.596   9.989   3.739 -0.1634  0.4821 -0.6563
  257MOL0     H35405   0.439   9.841   3.634 -2.8956 -2.1916  0.4850
  257MOL0     H35406   0.544   9.697   3.656 -1.7204 -0.2784 -1.5133
  257MOL0     H35407   0.390   9.856   3.881 -0.7641 -0.3766  0.9148
  257MOL0     H35408   0.503   9.728   3.908 -0.1832  1.9962 -0.0667
  257MOL0     H35409   0.265   9.680   3.721 -0.0853 -1.5662  0.5414
  257MOL0     H35410   0.365   9.568   3.787 -0.6528  0.0313 -3.5497
  257MOL0     H35411   0.260   9.689   4.028 -3.2979  0.4520  2.0587
  257MOL0     H35412   0.214   9.537   3.948 -2.1956 -0.4172 -2.0469
  257MOL0     H35413   0.100   9.802   3.869  2.1164  1.7506  3.0574
  257MOL0     H35414   0.031   9.635   3.844 -0.1472  2.6348 -2.5236
  257MOL0     H35415  -0.097   9.504   4.068 -2.6335 -0.8391  2.7955
  257MOL0     H35416  -0.248   9.515   4.286 -0.7950  0.3005  0.2012
  257MOL0     H35417  -0.175   9.626   4.411  0.1587  0.6634 -0.5429
  257MOL0     H35418  -0.104   9.408   4.481 -0.7485 -2.0666 -1.6899
  257MOL0     H35419  -0.036   9.361   4.337  1.6642 -0.1353  0.5732
  257MOL0     H35420   0.113   9.433   4.514  1.7688 -0.2203 -2.2053
  257MOL0     H35421   0.138   9.535   4.371  1.5359  0.2903  2.1463
  257MOL0     H35422  -0.000   9.719   4.493 -0.9745 -0.3729  1.8533
  257MOL0     H35423  -0.032   9.582   4.601  3.3948 -2.4825 -0.5275
  257MOL0     H35424   0.413   9.675   4.695  3.4221 -1.6602 -0.7221
  257MOL0     H35425   0.625   9.699   4.703 -1.0159  0.3214  0.5315
  257MOL0     H35426   0.657   9.869   4.625  2.0379 -0.3875 -2.0426
  257MOL0     H35427   0.724   9.720   4.556 -0.1842 -0.0560 -0.0315
  257MOL0     H35428   0.640  10.172   4.201 -3.0581 -2.1775 -1.7306
  257MOL0     H35429   0.835  10.307   4.117  2.4155 -0.7484  0.4573
  257MOL0     H35430   1.154  10.105   3.864  1.9973  2.6549  1.5892
  257MOL0     H35431   1.006  10.150   3.777  0.1371  0.5077 -0.9685
  257MOL0     H35432   1.221  10.246   3.695 -0.3787 -2.3016  1.3175
  257MOL0     H35433   1.084  10.341   3.713  1.2105  0.2077 -0.1586
  257MOL0     H35434   1.200  10.447   3.934  0.2596  0.4622 -0.3439
  257MOL0     H35435   1.269  10.468   3.789 -0.2633 -0.3700 -0.5196
  257MOL0     H35436   1.439  10.287   3.830  1.0075 -1.4793 -0.1200
  257MOL0     H35437   1.363  10.242   3.986  2.8187 -0.8066 -0.8064
  257MOL0     H35438   1.405  10.469   4.070 -2.1571  0.5365 -0.9989
  257MOL0     H35439   1.534  10.356   4.042  0.2970  0.2204 -0.7397
  257MOL0     H35440   1.503  10.526   3.812  1.3016 -1.4769  0.1248
  257MOL0     H35441   1.642  10.465   3.904  0.9660  0.7772  1.7044
  257MOL0     H35442   1.642  10.647   4.056  0.8603 -1.3122 -1.0193
  257MOL0     H35443   1.479  10.694   4.007 -0.6206 -1.6773 -0.0720
  257MOL0     H35444   1.571  10.780   3.792 -0.2664 -0.3263 -0.0806
  257MOL0     H35445   1.710  10.678   3.803  1.2196  1.6947  1.5504
  257MOL0     H35446   0.982   9.938   3.934  1.4149 -1.3210  2.3819
  257MOL0     H35447   0.804   9.815   4.039 -2.7857 -0.5041  1.0142
  257MOL0     H35448   0.370   9.821   4.218  1.8115 -1.3874 -0.2139
  257MOL0     H35449   0.170   9.747   4.359 -0.1144 -1.5103  0.4082
  257MOL0     H35450   1.152   9.959   3.527  2.2446  1.1796 -0.3253
  257MOL0     H35451   1.304  10.127   3.467  0.3307  0.9265  1.5155
  257MOL0     H35452   1.304  10.655   3.597  0.3340  0.8599  0.4938
  257MOL0     H35453   1.376  10.873   3.535 -2.2261 -0.6160 -0.3596
  257MOL0     H35454   1.634  11.095   3.407 -1.5752  1.1832 -0.2145
  257MOL0     H35455   1.555  10.991   3.526  1.6521 -0.5694  0.6282
  257MOL0     H35456   1.705  10.810   3.500 -2.6026 -0.0891 -0.3525
  257MOL0     H35457   1.798  10.951   3.551 -2.5767  0.8324  1.3872
  257MOL0     H35458   1.779  10.806   3.279  0.6334 -2.1608  1.8354
  257MOL0     H35459   1.838  10.983   3.280  0.2681 -0.0599  1.6253
  257MOL0     H35460   1.966  10.745   3.414 -3.3323  0.0845  0.7230
  257MOL0     H35461   1.986  10.901   3.479 -0.0106  0.8268 -0.1117
  257MOL0     H35462   2.208  10.963   3.125 -2.9077  5.2544 -0.5676
  257MOL0     H35463   1.553  10.717   3.183  3.0022 -0.3830  0.8252
  257MOL0     H35464   1.352  10.439   3.130 -1.7353 -1.2405  3.3990
  257MOL0     H35465   1.504  10.520   3.106 -0.8118  0.3042  0.6644
  257MOL0     H35466   1.509  10.368   3.201  2.8444  2.2157 -0.5959
  258MOL0     O35467   5.026   2.525   0.147 -0.0007 -0.1827  0.0959
  258MOL0     C35468   5.111   2.583   0.081 -0.0285 -0.7926  0.5461
  258MOL0     O35469   5.085   2.673  -0.020  0.2471  0.4818  0.0930
  258MOL0     C35470   4.959   2.676  -0.065 -0.1030  0.1271 -0.3837
  258MOL0     C35471   4.914   2.569  -0.141 -0.2338 -0.4817 -0.4475
  258MOL0     C35472   4.790   2.579  -0.211  0.5600  0.4338  0.2830
  258MOL0     C35473   4.717   2.698  -0.206  0.9902 -0.6063 -0.3206
  258MOL0     O35474   4.591   2.718  -0.256  0.1000  0.6101  0.7558
  258MOL0     C35475   4.504   2.604  -0.254  0.1898 -0.1904 -0.8992
  258MOL0     C35476   4.377   2.641  -0.326  0.1524 -0.7723  0.8786
  258MOL0     C35477   4.394   2.655  -0.476  0.0238  0.7561  0.1649
  258MOL0     C35478   4.286   2.723  -0.560  0.9898 -0.2231 -0.4516
  258MOL0     C35479   4.156   2.652  -0.581  0.1063  1.0719  0.3302
  258MOL0     C35480   4.043   2.720  -0.501 -0.8799  0.4111 -0.0260
  258MOL0     C35481   3.906   2.675  -0.546  0.0920  0.3848 -0.0337
  258MOL0     C35482   3.786   2.747  -0.474 -0.5371 -0.4692 -0.0557
  258MOL0     N35483   3.656   2.724  -0.542  0.0823  0.2988 -0.3697
  258MOL0     C35484   3.614   2.795  -0.656 -0.4399 -0.3200 -0.5811
  258MOL0     C35485   3.484   2.761  -0.664  0.5330  0.3538  0.3618
  258MOL0     C35486   3.392   2.792  -0.775 -0.1869 -0.3045 -0.1109
  258MOL0     C35487   3.421   2.708  -0.893 -0.2290  0.5491 -0.0543
  258MOL0     C35488   3.312   2.724  -1.006  0.5447  0.3815  0.4130
  258MOL0     C35489   3.322   2.844  -1.103  0.7704 -0.7269 -0.1399
  258MOL0     O35490   3.460   2.870  -1.141 -0.3645  0.4509 -0.1791
  258MOL0     C35491   3.528   2.779  -1.220 -0.1414 -0.1062 -0.5294
  258MOL0     C35492   3.672   2.778  -1.200 -0.5626 -0.5171  0.1787
  258MOL0     C35493   3.749   2.688  -1.271  0.2537  0.6823 -0.5834
  258MOL0     C35494   3.902   2.696  -1.247  0.0650 -0.0725  0.2510
  258MOL0     C35495   3.683   2.601  -1.365  0.4270  0.6917  0.0594
  258MOL0     C35496   3.751   2.504  -1.449 -0.2591 -0.4789  0.5238
  258MOL0     O35497   3.677   2.447  -1.553  0.0003 -0.3695  0.5594
  258MOL0     C35498   3.749   2.353  -1.624  0.0927 -0.0290 -0.2610
  258MOL0     C35499   3.795   2.233  -1.568  0.4779 -0.0331  0.2187
  258MOL0     C35500   3.852   2.131  -1.638  0.3309 -1.0856  0.2204
  258MOL0     C35501   3.869   2.143  -1.782 -0.1093  0.1115  0.1451
  258MOL0     O35502   3.950   2.057  -1.851  0.1076  0.7913  0.3189
  258MOL0     C35503   3.961   1.922  -1.798 -0.1425  0.5211 -0.4871
  258MOL0     C35504   3.831   1.844  -1.812 -0.8592 -0.0431 -0.0337
  258MOL0     C35505   3.788   1.813  -1.953  0.3101  0.5334 -0.4286
  258MOL0     C35506   3.694   1.695  -1.960 -0.2637 -0.5818 -0.0348
  258MOL0     C35507   3.548   1.728  -1.962  0.3358 -0.3703 -0.8550
  258MOL0     C35508   3.469   1.596  -1.941  0.5792 -0.1624  0.1985
  258MOL0     C35509   3.318   1.631  -1.931  0.2967 -1.1938  0.1561
  258MOL0     C35510   3.226   1.505  -1.922  0.4237  0.2747 -0.0161
  258MOL0    Cl35511   3.277   1.435  -1.772 -0.2648  0.3974 -0.3245
  258MOL0     C35512   3.818   2.262  -1.842 -0.4915 -0.6313  0.6833
  258MOL0     C35513   3.760   2.368  -1.768  0.5833  0.3436  0.0911
  258MOL0     O35514   3.868   2.478  -1.423  0.0903 -0.0915  1.0545
  258MOL0     C35515   3.547   2.605  -1.385 -0.1849 -0.4307 -0.0099
  258MOL0     C35516   3.473   2.690  -1.309 -0.3220 -0.0510  1.1532
  258MOL0     N35517   3.451   2.669  -0.569  1.0730 -0.3793  0.0075
  258MOL0     N35518   3.556   2.639  -0.494  0.5312  0.4407 -0.4199
  258MOL0     C35519   4.763   2.802  -0.125 -0.2811 -0.3390 -0.2333
  258MOL0     C35520   4.881   2.786  -0.058 -0.3323 -0.2332  0.7755
  258MOL0     C35521   5.257   2.549   0.097  0.8496 -0.4975 -0.5119
  258MOL0     C35522   5.351   2.643   0.072  0.7022 -0.0022 -0.0165
  258MOL0     C35523   5.483   2.631   0.109  0.4020  0.0748 -0.5799
  258MOL0     C35524   5.528   2.512   0.173  0.5596 -0.5770 -0.4480
  258MOL0     O35525   5.664   2.506   0.203  0.1709 -0.2710  0.0797
  258MOL0     C35526   5.712   2.398   0.283 -0.3018  0.7827  0.0356
  258MOL0     C35527   5.675   2.391   0.429  0.1842  0.0562  1.0861
  258MOL0     C35528   5.663   2.526   0.488  0.1683 -0.1473  0.7716
  258MOL0     C35529   5.639   2.525   0.634 -0.3189  0.1554  0.3077
  258MOL0     C35530   5.759   2.504   0.714 -0.1586 -0.2257 -0.4347
  258MOL0     C35531   5.858   2.465   0.776 -0.5133 -0.5921 -0.6391
  258MOL0     C35532   5.435   2.414   0.207  0.7744 -0.4833  0.9054
  258MOL0     C35533   5.296   2.429   0.162  0.5876  0.0635  0.0571
  258MOL0     C35534   5.212   2.314   0.184 -0.4077 -0.3733  0.2598
  258MOL0     H35535   4.986   2.493  -0.169  2.7564  2.0847 -0.2581
  258MOL0     H35536   4.768   2.494  -0.274  5.3886 -0.2049 -0.9806
  258MOL0     H35537   4.496   2.566  -0.152  3.6094 -0.6000 -0.6588
  258MOL0     H35538   4.537   2.519  -0.315 -1.7439  0.6145 -3.2256
  258MOL0     H35539   4.302   2.562  -0.315 -2.0097  0.8536 -1.1570
  258MOL0     H35540   4.348   2.739  -0.288  0.0236  0.6992 -2.6271
  258MOL0     H35541   4.477   2.726  -0.485  0.8460 -0.0494  1.1850
  258MOL0     H35542   4.421   2.554  -0.506  0.6484  0.6053  1.1944
  258MOL0     H35543   4.260   2.816  -0.507  0.4081 -0.8799  0.4467
  258MOL0     H35544   4.329   2.749  -0.657  1.2584  1.4262  0.0768
  258MOL0     H35545   4.178   2.550  -0.548  1.3026 -0.1425 -3.7272
  258MOL0     H35546   4.134   2.644  -0.687 -0.0805 -2.2380  0.5071
  258MOL0     H35547   4.057   2.702  -0.394 -4.0514  0.4862  0.4934
  258MOL0     H35548   4.044   2.829  -0.505 -0.4441  0.5373  2.3865
  258MOL0     H35549   3.913   2.572  -0.510  0.0961  0.8679  1.4434
  258MOL0     H35550   3.895   2.686  -0.654  1.3144  0.4747 -0.1569
  258MOL0     H35551   3.777   2.744  -0.365  1.0009  1.8575  0.2063
  258MOL0     H35552   3.807   2.853  -0.490 -0.2202 -0.5623 -0.2723
  258MOL0     H35553   3.655   2.862  -0.731 -1.8363 -2.4113 -3.3998
  258MOL0     H35554   3.411   2.898  -0.796  0.5212 -0.1129  1.4014
  258MOL0     H35555   3.291   2.780  -0.736 -0.4262  1.1955 -0.2090
  258MOL0     H35556   3.522   2.737  -0.924  0.2189  0.6113  1.3843
  258MOL0     H35557   3.428   2.602  -0.866 -2.3737  0.8351  2.0198
  258MOL0     H35558   3.327   2.636  -1.068 -1.2930  0.2028  0.1719
  258MOL0     H35559   3.212   2.714  -0.961 -2.6679  0.8678 -5.6323
  258MOL0     H35560   3.261   2.825  -1.191  1.2971  1.0240 -0.9276
  258MOL0     H35561   3.278   2.936  -1.062 -1.2368 -1.8026  0.2378
  258MOL0     H35562   3.730   2.832  -1.125  1.0703 -4.0395  1.6554
  258MOL0     H35563   3.950   2.598  -1.237  2.9225  1.3923  2.9878
  258MOL0     H35564   3.926   2.756  -1.158 -1.2023  2.3612 -0.9564
  258MOL0     H35565   3.950   2.745  -1.332 -0.9321 -0.4159 -0.5206
  258MOL0     H35566   3.769   2.218  -1.463 -0.7435 -1.4054 -0.2423
  258MOL0     H35567   3.879   2.053  -1.568  1.8154  0.6616  1.7198
  258MOL0     H35568   4.038   1.865  -1.851 -0.0788  0.0656  0.0736
  258MOL0     H35569   3.997   1.927  -1.694 -3.3377 -2.6690  1.0023
  258MOL0     H35570   3.848   1.753  -1.753  2.7607 -0.5231 -1.5262
  258MOL0     H35571   3.754   1.908  -1.769 -1.5761  0.6753 -2.2627
  258MOL0     H35572   3.880   1.770  -1.996  0.1508 -3.2428  2.4718
  258MOL0     H35573   3.750   1.896  -2.014 -2.4462 -0.0934  0.3246
  258MOL0     H35574   3.710   1.624  -1.878 -3.9633 -1.0563  0.4482
  258MOL0     H35575   3.707   1.653  -2.060  1.4427  0.8016 -0.4517
  258MOL0     H35576   3.532   1.789  -1.873  2.0935 -2.1381  0.7724
  258MOL0     H35577   3.528   1.788  -2.051 -1.4644 -1.7101 -1.4341
  258MOL0     H35578   3.513   1.552  -1.852  3.3753 -1.7755 -1.8177
  258MOL0     H35579   3.477   1.527  -2.025  0.8127  3.4602 -3.0467
  258MOL0     H35580   3.280   1.705  -2.001  1.0076  0.8612  1.8262
  258MOL0     H35581   3.317   1.689  -1.838 -1.0770 -2.5557  1.0452
  258MOL0     H35582   3.238   1.447  -2.015  4.7007  0.6821  0.0878
  258MOL0     H35583   3.119   1.526  -1.914  0.0038 -1.5411 -0.3594
  258MOL0     H35584   3.841   2.288  -1.945 -1.3666 -0.7153  0.4625
  258MOL0     H35585   3.744   2.462  -1.820  2.4969  1.2646  1.0635
  258MOL0     H35586   3.504   2.554  -1.471 -0.8494 -0.6089  0.4202
  258MOL0     H35587   3.375   2.709  -1.351  1.3094  3.1689 -1.6604
  258MOL0     H35588   4.710   2.896  -0.127 -1.6709 -1.0928 -1.1065
  258MOL0     H35589   4.932   2.864  -0.001 -1.4096  0.9371  0.1828
  258MOL0     H35590   5.316   2.737   0.031  1.1612  0.8508  1.4587
  258MOL0     H35591   5.567   2.698   0.089  1.5534 -1.7519 -2.1970
  258MOL0     H35592   5.685   2.306   0.230  1.0963  0.7769 -0.7043
  258MOL0     H35593   5.820   2.398   0.269 -0.2873  2.2096  0.0538
  258MOL0     H35594   5.735   2.326   0.493  0.3145  0.3267  1.2415
  258MOL0     H35595   5.575   2.347   0.436  1.1910 -2.1048  3.6271
  258MOL0     H35596   5.748   2.588   0.458  1.9833 -2.5713  0.5258
  258MOL0     H35597   5.568   2.562   0.449  0.5392 -1.4866 -1.6226
  258MOL0     H35598   5.572   2.447   0.668  2.6892 -1.4118  3.2631
  258MOL0     H35599   5.601   2.624   0.662  2.8574  1.4897  0.3590
  258MOL0     H35600   5.946   2.421   0.819 -1.1524 -2.7476 -1.3822
  258MOL0     H35601   5.468   2.318   0.246  3.2760  0.2200  0.6425
  258MOL0     H35602   5.152   2.296   0.094  1.5283 -1.0169 -0.9628
  258MOL0     H35603   5.264   2.220   0.206 -1.8613 -0.9623  1.3450
  258MOL0     H35604   5.144   2.336   0.267 -1.6389 -0.8040 -0.6122
  259MOL0     O35605   6.267   2.192   7.583  0.0331  0.5440  0.2314
  259MOL0     C35606   6.208   2.201   7.479 -0.1992  0.2035  0.7396
  259MOL0     O35607   6.154   2.099   7.422  0.0658  0.0483  0.2600
  259MOL0     C35608   6.149   1.974   7.484 -0.2360 -0.3388 -0.6500
  259MOL0     C35609   6.255   1.883   7.451 -0.2490 -0.7405  0.0488
  259MOL0     C35610   6.249   1.745   7.490 -0.8103 -0.3404  0.1157
  259MOL0     C35611   6.127   1.697   7.547 -0.2982 -0.5559 -0.0672
  259MOL0     O35612   6.108   1.565   7.579  0.1296  0.3561  0.3678
  259MOL0     C35613   6.222   1.508   7.649  0.8948  0.3833 -0.7507
  259MOL0     C35614   6.294   1.405   7.548 -0.7970  0.3486 -0.0568
  259MOL0     C35615   6.211   1.280   7.542 -0.1320 -0.6631 -0.0302
  259MOL0     C35616   6.260   1.190   7.434  0.8064  0.5899  0.0779
  259MOL0     C35617   6.217   1.038   7.454  0.1066 -0.5524  0.1206
  259MOL0     C35618   6.268   0.959   7.328 -0.4706 -0.3709 -0.7538
  259MOL0     C35619   6.215   0.813   7.349 -0.1168  0.6713  0.3711
  259MOL0     C35620   6.294   0.740   7.462  1.0985  0.1190  0.0122
  259MOL0     N35621   6.254   0.599   7.453 -0.0174 -0.0464  0.2114
  259MOL0     C35622   6.325   0.507   7.377  0.1495 -1.3198 -0.3100
  259MOL0     C35623   6.278   0.395   7.422 -0.1585  0.7960  0.6562
  259MOL0     C35624   6.334   0.265   7.374  0.2778  0.9165  0.5057
  259MOL0     C35625   6.220   0.159   7.337 -0.0428 -0.1683  1.2422
  259MOL0     C35626   6.092   0.209   7.281  1.0915 -1.0952 -0.1051
  259MOL0     C35627   6.115   0.281   7.144  0.1781  0.7562  0.8367
  259MOL0     O35628   6.003   0.266   7.061 -0.0503 -0.0143 -0.6378
  259MOL0     C35629   6.017   0.272   6.922 -0.8171 -0.3977  0.2577
  259MOL0     C35630   5.903   0.275   6.853 -0.3228 -0.9108  0.1502
  259MOL0     C35631   5.889   0.281   6.713  1.0933 -0.0277 -0.3660
  259MOL0     C35632   5.746   0.272   6.654 -0.6001 -0.4924  0.1745
  259MOL0     C35633   6.009   0.291   6.624  0.3729  0.4753 -0.5193
  259MOL0     C35634   6.019   0.301   6.481  1.6154  0.5062  0.0075
  259MOL0     O35635   6.130   0.356   6.424 -0.2340  0.3159 -0.5406
  259MOL0     C35636   6.149   0.331   6.287  0.1218  0.7617 -0.1311
  259MOL0     C35637   6.128   0.432   6.191 -0.7161 -0.3839 -0.5054
  259MOL0     C35638   6.139   0.404   6.053  0.6178  0.2066  0.8526
  259MOL0     C35639   6.155   0.279   5.998 -0.4431  0.1485  0.1106
  259MOL0     O35640   6.146   0.262   5.867  0.0271  0.3628  0.1707
  259MOL0     C35641   6.078   0.146   5.806 -0.7354 -0.7109  0.1224
  259MOL0     C35642   6.117   0.153   5.663  0.3314  0.0994  1.2021
  259MOL0     C35643   6.264   0.115   5.630  0.4572 -0.2600 -0.0215
  259MOL0     C35644   6.302  -0.025   5.660 -0.5363 -0.1150  0.0567
  259MOL0     C35645   6.243  -0.113   5.546 -1.1448 -0.8571  0.5262
  259MOL0     C35646   6.329  -0.122   5.415  0.1953 -0.7978  0.8239
  259MOL0     C35647   6.259  -0.216   5.319 -0.7304  0.3086 -0.2886
  259MOL0     C35648   6.341  -0.256   5.189  0.5305 -0.0483 -0.9141
  259MOL0    Cl35649   6.437  -0.125   5.105 -0.2879 -0.1603  0.3168
  259MOL0     C35650   6.171   0.180   6.096 -0.4305 -0.1466  0.0926
  259MOL0     C35651   6.175   0.204   6.240 -0.7350  0.1119  0.0393
  259MOL0     O35652   5.931   0.236   6.423 -0.1627  0.2659  0.8487
  259MOL0     C35653   6.124   0.308   6.704  0.8218  0.2426  0.3256
  259MOL0     C35654   6.131   0.299   6.846 -0.0216  1.1029  0.0624
  259MOL0     N35655   6.173   0.405   7.517 -0.1074  0.1949  0.5560
  259MOL0     N35656   6.174   0.529   7.538  0.5058 -1.3048 -0.5748
  259MOL0     C35657   6.019   1.789   7.560 -0.5888  0.8446 -0.9695
  259MOL0     C35658   6.031   1.922   7.520 -0.6816 -0.9084  0.0105
  259MOL0     C35659   6.188   2.344   7.422 -0.2308 -0.2235 -0.3351
  259MOL0     C35660   6.143   2.351   7.286  0.7116  1.0732  0.4981
  259MOL0     C35661   6.125   2.469   7.219  0.9942 -0.3550  0.2124
  259MOL0     C35662   6.132   2.588   7.282 -0.0443  0.0722  0.4866
  259MOL0     O35663   6.128   2.707   7.218  0.5617 -0.6710  0.6670
  259MOL0     C35664   6.052   2.814   7.274  0.2424  0.1618  1.2203
  259MOL0     C35665   6.142   2.912   7.336 -0.0869 -0.2728  0.3223
  259MOL0     C35666   6.070   3.024   7.431 -0.2018  0.6083  0.1163
  259MOL0     C35667   6.090   2.981   7.574 -0.1951  0.1051  0.1038
  259MOL0     C35668   6.221   2.987   7.628 -0.7565 -0.1781 -0.7197
  259MOL0     C35669   6.333   2.983   7.673  0.2210  0.6331  0.1658
  259MOL0     C35670   6.155   2.583   7.420  0.0072  0.6279  0.0942
  259MOL0     C35671   6.185   2.464   7.494  0.5183  0.0450  0.3045
  259MOL0     C35672   6.215   2.475   7.641 -0.7959  0.4913  0.4051
  259MOL0     H35673   6.347   1.898   7.397 -0.2009  0.7860  0.5219
  259MOL0     H35674   6.334   1.680   7.476  1.2962  1.9987  1.2890
  259MOL0     H35675   6.183   1.467   7.743 -3.5081  1.9705 -1.5996
  259MOL0     H35676   6.295   1.581   7.684  1.9054 -0.6064 -0.7667
  259MOL0     H35677   6.309   1.453   7.450  1.3223 -0.4938 -0.2103
  259MOL0     H35678   6.395   1.371   7.574 -0.8218  0.2558 -0.0814
  259MOL0     H35679   6.230   1.221   7.632  1.3103 -1.1967 -0.6456
  259MOL0     H35680   6.103   1.296   7.531 -0.4392  0.4537  3.4965
  259MOL0     H35681   6.234   1.225   7.334 -2.5878 -0.4308  0.4636
  259MOL0     H35682   6.367   1.179   7.450  0.4197 -0.4776  2.3580
  259MOL0     H35683   6.109   1.019   7.457  0.5989 -4.2035  3.2189
  259MOL0     H35684   6.256   0.990   7.544  1.7322  0.1996 -0.1398
  259MOL0     H35685   6.218   1.000   7.240 -0.7681 -0.7602 -0.7709
  259MOL0     H35686   6.376   0.974   7.323 -0.5427  1.1553  1.1541
  259MOL0     H35687   6.244   0.755   7.261  2.7757  0.4442  1.3559
  259MOL0     H35688   6.106   0.802   7.353  0.1238 -3.0884  3.4610
  259MOL0     H35689   6.401   0.751   7.438  0.5702  0.6900 -2.3163
  259MOL0     H35690   6.270   0.771   7.564  1.2460 -0.7549  0.3215
  259MOL0     H35691   6.399   0.543   7.306  0.9132  1.5172  1.7768
  259MOL0     H35692   6.405   0.222   7.446  1.4636  1.1322 -0.5034
  259MOL0     H35693   6.406   0.281   7.293  2.6095  1.5137  2.5713
  259MOL0     H35694   6.260   0.086   7.266  1.3320  2.6191 -1.0477
  259MOL0     H35695   6.185   0.102   7.424  0.9387 -1.1282  1.0390
  259MOL0     H35696   6.029   0.120   7.269 -1.4803  0.2224  2.3988
  259MOL0     H35697   6.042   0.284   7.344 -0.0000 -1.8992  0.0190
  259MOL0     H35698   6.141   0.386   7.162  0.3544  0.6704  1.0847
  259MOL0     H35699   6.202   0.235   7.095 -1.0817  0.1445 -0.9212
  259MOL0     H35700   5.818   0.258   6.919  1.8862 -1.6673  3.0181
  259MOL0     H35701   5.670   0.277   6.732 -0.5265  1.7690  0.1753
  259MOL0     H35702   5.732   0.179   6.598 -3.2443  0.9018 -1.6882
  259MOL0     H35703   5.726   0.348   6.578  0.1687  0.5002  0.9284
  259MOL0     H35704   6.126   0.532   6.235  0.8684 -0.2767 -0.6095
  259MOL0     H35705   6.132   0.488   5.984 -0.8469 -0.7843 -0.2465
  259MOL0     H35706   6.101   0.056   5.864 -1.3869 -0.0354  1.5015
  259MOL0     H35707   5.969   0.154   5.810 -0.6985  1.9124 -1.8095
  259MOL0     H35708   6.057   0.084   5.602  4.6152 -2.6418 -0.3311
  259MOL0     H35709   6.093   0.252   5.622  3.1690  1.9687  3.7037
  259MOL0     H35710   6.328   0.184   5.686 -0.9838  0.8299  0.3509
  259MOL0     H35711   6.272   0.129   5.522 -0.2858 -3.5087 -0.6045
  259MOL0     H35712   6.265  -0.057   5.758 -0.6658 -0.4085 -0.0861
  259MOL0     H35713   6.411  -0.019   5.653 -0.6210  0.9088 -0.4624
  259MOL0     H35714   6.253  -0.212   5.592 -0.3035  0.4493  3.4233
  259MOL0     H35715   6.140  -0.084   5.521  0.0654  2.7078 -0.8805
  259MOL0     H35716   6.429  -0.160   5.435  0.2684 -0.5253  0.9823
  259MOL0     H35717   6.328  -0.022   5.372 -2.2555 -0.7762  0.7934
  259MOL0     H35718   6.165  -0.175   5.281 -0.4138  0.3366 -1.0421
  259MOL0     H35719   6.221  -0.310   5.362 -2.4510 -0.3383 -3.0135
  259MOL0     H35720   6.281  -0.321   5.125  0.4589 -2.5713  1.5069
  259MOL0     H35721   6.409  -0.334   5.224 -1.7369 -1.5849  0.3517
  259MOL0     H35722   6.202   0.080   6.068  1.6389  0.8538 -1.4689
  259MOL0     H35723   6.199   0.123   6.309 -1.6167 -0.9471 -0.8503
  259MOL0     H35724   6.216   0.327   6.649  0.1396  1.2408 -0.4801
  259MOL0     H35725   6.222   0.326   6.899 -0.0724  0.0684  0.6981
  259MOL0     H35726   5.925   1.748   7.596  0.2687 -2.5298 -2.2117
  259MOL0     H35727   5.944   1.986   7.532 -0.3398 -0.9601  4.4235
  259MOL0     H35728   6.122   2.260   7.231  0.8365  0.7345  0.9939
  259MOL0     H35729   6.109   2.470   7.111 -1.7701  1.4734  0.5233
  259MOL0     H35730   5.985   2.868   7.206  0.6594  1.5122  1.8465
  259MOL0     H35731   5.980   2.776   7.348 -0.2844  0.4507  0.8675
  259MOL0     H35732   6.182   2.957   7.245 -1.8221  3.6849  1.3316
  259MOL0     H35733   6.229   2.874   7.392 -1.1850 -1.5421  1.2338
  259MOL0     H35734   6.103   3.127   7.412  2.0311 -0.1573 -0.4297
  259MOL0     H35735   5.962   3.019   7.415 -0.5731 -1.2637  2.6065
  259MOL0     H35736   6.057   2.879   7.596  1.1404 -0.0180  1.7256
  259MOL0     H35737   6.046   3.050   7.647 -2.9224 -4.2451  3.0830
  259MOL0     H35738   6.434   2.979   7.708 -0.4899 -1.5423  2.2206
  259MOL0     H35739   6.160   2.666   7.490 -2.1341 -0.2129  1.3631
  259MOL0     H35740   6.319   2.448   7.658 -0.8715  1.7716  3.4070
  259MOL0     H35741   6.197   2.577   7.676 -2.3551 -0.2862  2.0418
  259MOL0     H35742   6.154   2.407   7.701 -0.5249  1.8408  2.2659
  260MOL0     O35743   8.947   9.745  10.176 -0.3096 -0.0792  0.1196
  260MOL0     C35744   8.948   9.622  10.192  0.7204  0.0104 -0.8751
  260MOL0     O35745   8.845   9.547  10.175  0.0640  0.9671  0.2048
  260MOL0     C35746   8.715   9.598  10.141  0.2935 -0.1978 -1.2468
  260MOL0     C35747   8.630   9.512  10.069  0.2601  1.2501  0.6801
  260MOL0     C35748   8.501   9.549  10.030 -0.5625  0.4224 -0.0935
  260MOL0     C35749   8.443   9.666  10.071 -0.3623 -0.2282  0.0248
  260MOL0     O35750   8.315   9.697  10.036  0.2560  0.6813 -0.0447
  260MOL0     C35751   8.299   9.824   9.966  0.5433 -0.5173 -0.2125
  260MOL0     C35752   8.173   9.803   9.871  1.3663  0.8376  0.1000
  260MOL0     C35753   8.032   9.811   9.941  0.4424  0.5120  0.7289
  260MOL0     C35754   7.923   9.725   9.868 -0.1028  0.1798 -0.4107
  260MOL0     C35755   7.849   9.798   9.747  0.1104 -1.0696 -0.6658
  260MOL0     C35756   7.758   9.701   9.666  0.1953 -0.7706 -0.0088
  260MOL0     C35757   7.817   9.653   9.526 -0.2165 -0.9746 -0.1453
  260MOL0     C35758   7.815   9.749   9.407 -0.0899  0.1420 -0.0565
  260MOL0     N35759   7.815   9.684   9.275 -0.2522 -0.4780 -0.4665
  260MOL0     C35760   7.904   9.587   9.241 -0.0306  0.6853  0.1613
  260MOL0     C35761   7.880   9.547   9.112 -0.8238 -0.3542 -0.9929
  260MOL0     C35762   7.952   9.442   9.027 -0.4666 -0.5551 -0.1033
  260MOL0     C35763   7.912   9.295   9.060 -0.7009 -0.0592 -0.1948
  260MOL0     C35764   8.009   9.186   8.999  0.5412  0.3538 -0.1503
  260MOL0     C35765   7.962   9.040   9.032 -0.3211  0.2459  0.5794
  260MOL0     O35766   8.073   8.952   9.045 -0.6989 -0.0713  0.3759
  260MOL0     C35767   8.169   8.960   9.138  0.3440  0.7682  0.0201
  260MOL0     C35768   8.164   9.065   9.228  0.0007 -0.3374  0.5368
  260MOL0     C35769   8.277   9.099   9.311  0.2883  0.1525  0.6322
  260MOL0     C35770   8.266   9.226   9.390 -0.0162 -0.0951 -0.6113
  260MOL0     C35771   8.392   9.011   9.311  0.3250  0.2181 -0.1709
  260MOL0     C35772   8.521   9.042   9.373  0.0473 -0.7166 -0.1940
  260MOL0     O35773   8.563   9.172   9.363 -0.2755 -0.3172  0.4755
  260MOL0     C35774   8.654   9.213   9.461 -0.2548 -0.2930  0.5688
  260MOL0     C35775   8.644   9.201   9.602  0.4446 -1.0463 -0.0411
  260MOL0     C35776   8.747   9.230   9.692 -0.5258 -0.8600  1.0473
  260MOL0     C35777   8.856   9.304   9.644  0.0086 -0.6016 -0.1944
  260MOL0     O35778   8.948   9.343   9.732  0.1122 -1.2409  0.5854
  260MOL0     C35779   9.061   9.429   9.708  0.1255 -0.2212 -0.4133
  260MOL0     C35780   9.154   9.428   9.825 -0.0080 -0.5076 -0.2617
  260MOL0     C35781   9.259   9.540   9.834  0.1749 -0.4391  0.4383
  260MOL0     C35782   9.360   9.513   9.946 -0.6922 -0.1949 -0.8349
  260MOL0     C35783   9.461   9.624   9.955 -0.8200  0.3201 -0.8295
  260MOL0     C35784   9.581   9.584  10.052 -1.3252  0.5527  0.3631
  260MOL0     C35785   9.691   9.689  10.047 -0.0596 -0.9705 -0.0746
  260MOL0     C35786   9.811   9.628  10.114 -0.3251  0.6225 -0.1864
  260MOL0    Cl35787   9.965   9.726  10.102 -0.0132 -0.5494  0.3485
  260MOL0     C35788   8.866   9.339   9.506  0.6464  0.1602  0.5614
  260MOL0     C35789   8.764   9.294   9.415 -0.9514 -0.2083  0.3424
  260MOL0     O35790   8.583   8.950   9.422 -0.6720  0.3732 -0.0857
  260MOL0     C35791   8.384   8.904   9.222 -0.0660  0.5878  0.2656
  260MOL0     C35792   8.276   8.883   9.136 -0.4622  0.2217  0.6910
  260MOL0     N35793   7.758   9.604   9.078 -0.0379 -0.1139 -0.0237
  260MOL0     N35794   7.715   9.683   9.181 -0.1189  0.5524 -0.1156
  260MOL0     C35795   8.521   9.750  10.151 -0.4034  0.9324 -0.4219
  260MOL0     C35796   8.651   9.718  10.187  0.3070  1.1667 -0.4058
  260MOL0     C35797   9.073   9.555  10.227 -0.1380 -0.1514 -0.7359
  260MOL0     C35798   9.081   9.416  10.261 -0.7250 -1.4046 -1.1610
  260MOL0     C35799   9.180   9.355  10.332  0.6303  0.1560  0.3954
  260MOL0     C35800   9.293   9.427  10.358  0.0539  0.2821  0.4548
  260MOL0     O35801   9.395   9.368  10.432 -0.8180 -0.2878 -0.0798
  260MOL0     C35802   9.452   9.236  10.386  0.5998 -0.1063  0.1122
  260MOL0     C35803   9.545   9.262  10.268 -0.6300 -0.0684  0.8241
  260MOL0     C35804   9.612   9.137  10.218 -0.1103 -0.0958 -0.5550
  260MOL0     C35805   9.726   9.080  10.306 -0.6041  0.1370 -0.0595
  260MOL0     C35806   9.842   9.164  10.293  1.3349  0.3871  0.6352
  260MOL0     C35807   9.943   9.228  10.270  0.4058  0.1870  0.1860
  260MOL0     C35808   9.297   9.567  10.330 -0.0798 -0.7260  0.2582
  260MOL0     C35809   9.188   9.631  10.269 -0.0173 -0.8740  0.0910
  260MOL0     C35810   9.210   9.787  10.261  0.4685  0.3563 -0.6913
  260MOL0     H35811   8.662   9.417  10.028 -2.8099 -0.3585  1.7599
  260MOL0     H35812   8.449   9.478   9.966  2.0949 -2.4584  0.6615
  260MOL0     H35813   8.386   9.853   9.905  0.7411 -0.7504 -0.0454
  260MOL0     H35814   8.279   9.909  10.031 -0.7128 -1.1661  0.2776
  260MOL0     H35815   8.179   9.886   9.799  0.4220  1.5540  0.8194
  260MOL0     H35816   8.189   9.707   9.821 -1.2155  0.2324  0.2967
  260MOL0     H35817   8.037   9.768  10.042 -0.7511 -0.5012  0.3867
  260MOL0     H35818   7.999   9.915   9.950  0.0255  0.4679 -0.1711
  260MOL0     H35819   7.966   9.643   9.811 -0.6482 -0.7798  0.5148
  260MOL0     H35820   7.841   9.688   9.930  0.0910  1.7460  0.8567
  260MOL0     H35821   7.922   9.848   9.683  0.8154  0.4761  1.2474
  260MOL0     H35822   7.782   9.874   9.787 -0.3847 -2.5158  1.3919
  260MOL0     H35823   7.747   9.609   9.725  0.3139 -1.7512 -1.4394
  260MOL0     H35824   7.660   9.746   9.650 -0.4101 -1.1750  2.2427
  260MOL0     H35825   7.751   9.568   9.505 -0.3456 -0.5742 -1.4200
  260MOL0     H35826   7.919   9.620   9.546 -0.0596  0.3676  1.5848
  260MOL0     H35827   7.723   9.806   9.417  0.7824  1.3515  1.5371
  260MOL0     H35828   7.899   9.818   9.420 -0.0357  0.0449  0.1293
  260MOL0     H35829   7.985   9.542   9.298 -1.9508 -6.2010 -1.6371
  260MOL0     H35830   8.058   9.453   9.049 -0.4160  0.2597 -0.6897
  260MOL0     H35831   7.932   9.457   8.920 -0.7073  1.3302  0.1853
  260MOL0     H35832   7.919   9.279   9.168 -1.9547 -1.3425 -0.2647
  260MOL0     H35833   7.813   9.272   9.018  0.1564  0.0193 -2.3719
  260MOL0     H35834   8.017   9.193   8.890 -1.4203  1.3864 -0.2790
  260MOL0     H35835   8.105   9.206   9.048  0.3810 -2.2360  1.3823
  260MOL0     H35836   7.899   9.042   9.122  0.5571 -4.5237  1.5616
  260MOL0     H35837   7.899   8.989   8.958 -4.2233 -1.5379  4.6539
  260MOL0     H35838   8.076   9.128   9.227 -1.0905 -1.8235 -0.0518
  260MOL0     H35839   8.286   9.216   9.497  0.9727 -0.3262 -0.8041
  260MOL0     H35840   8.165   9.262   9.369 -0.9186 -3.1979 -2.0566
  260MOL0     H35841   8.344   9.293   9.351  0.6416 -2.1236 -2.9852
  260MOL0     H35842   8.551   9.158   9.638 -0.5814  0.4252 -0.8541
  260MOL0     H35843   8.731   9.193   9.792 -2.0203  1.7908  1.9020
  260MOL0     H35844   9.119   9.404   9.619 -0.0088 -1.9981 -0.0293
  260MOL0     H35845   9.027   9.532   9.691 -1.4588 -0.6313  0.1954
  260MOL0     H35846   9.096   9.428   9.918  0.8954 -2.9772  0.3700
  260MOL0     H35847   9.205   9.333   9.839 -0.6947 -0.5727  2.2726
  260MOL0     H35848   9.200   9.630   9.853  0.0194 -0.3861 -0.2592
  260MOL0     H35849   9.315   9.554   9.741 -3.4472  4.7065 -1.4480
  260MOL0     H35850   9.421   9.426   9.919 -0.8165 -2.0900  3.9465
  260MOL0     H35851   9.329   9.491  10.049 -1.7421  0.3663 -1.0198
  260MOL0     H35852   9.509   9.623   9.856 -0.7136  0.5259 -0.7807
  260MOL0     H35853   9.413   9.720   9.973 -0.9896  0.3757 -1.5401
  260MOL0     H35854   9.623   9.497  10.002 -1.2601  1.9485 -2.2330
  260MOL0     H35855   9.546   9.560  10.152 -3.6612 -1.1180 -0.7589
  260MOL0     H35856   9.661   9.777  10.104 -3.5365 -3.3424  2.2299
  260MOL0     H35857   9.713   9.721   9.945  0.5863  2.4069  1.0148
  260MOL0     H35858   9.830   9.530  10.070  1.6204  1.2163 -0.7507
  260MOL0     H35859   9.788   9.610  10.220 -2.0298 -2.8532 -1.0213
  260MOL0     H35860   8.933   9.416   9.470  0.6956 -0.9841 -2.0153
  260MOL0     H35861   8.790   9.318   9.313  1.6249 -1.7693  0.5324
  260MOL0     H35862   8.472   8.840   9.226  1.4444  2.6187  2.1123
  260MOL0     H35863   8.276   8.814   9.052  0.9630 -0.2007  1.0110
  260MOL0     H35864   8.475   9.843  10.183 -0.7722 -0.2772  2.9181
  260MOL0     H35865   8.710   9.779  10.254  1.4720  0.9712 -1.2149
  260MOL0     H35866   8.995   9.362  10.223 -1.3927 -0.1492 -1.4858
  260MOL0     H35867   9.151   9.255  10.363  0.1467  0.6272  1.5182
  260MOL0     H35868   9.515   9.211  10.472  0.8608  2.9026  0.9262
  260MOL0     H35869   9.367   9.170  10.370 -1.2936  2.6872 -2.4568
  260MOL0     H35870   9.610   9.349  10.284  0.3490 -0.7147  0.4671
  260MOL0     H35871   9.480   9.298  10.188 -0.8075  4.1329  2.5761
  260MOL0     H35872   9.537   9.060  10.198  0.3764  0.2596 -4.5908
  260MOL0     H35873   9.661   9.177  10.129 -0.7633  0.2632 -0.7597
  260MOL0     H35874   9.734   8.979  10.264  1.9713  0.0533  0.4773
  260MOL0     H35875   9.703   9.076  10.413  0.4632 -0.3853  0.1642
  260MOL0     H35876  10.032   9.275  10.234  0.4672 -0.5051 -0.5920
  260MOL0     H35877   9.379   9.625  10.371  2.1935  0.5963 -5.2673
  260MOL0     H35878   9.193   9.814  10.157 -1.1919 -0.8936 -0.7850
  260MOL0     H35879   9.151   9.839  10.337  1.5264  2.4443 -1.2439
  260MOL0     H35880   9.315   9.808  10.282  0.3987 -0.8814  1.1925
  261MOL0     O35881   4.336   6.976  11.437 -0.5819  1.0674 -0.0739
  261MOL0     C35882   4.446   6.918  11.461 -0.1943 -0.8487  0.5670
  261MOL0     O35883   4.505   6.826  11.390 -0.2698 -0.2657  0.8456
  261MOL0     C35884   4.438   6.769  11.277 -0.3045 -0.0892  0.5217
  261MOL0     C35885   4.502   6.748  11.155 -0.0375 -0.3103 -0.4343
  261MOL0     C35886   4.438   6.679  11.047 -0.4073  0.1889  0.8656
  261MOL0     C35887   4.320   6.621  11.065 -0.2280 -0.2191 -0.1735
  261MOL0     O35888   4.275   6.558  10.962 -0.2480 -0.1008 -0.1105
  261MOL0     C35889   4.157   6.599  10.899 -0.1164  0.6123 -0.0572
  261MOL0     C35890   4.120   6.505  10.790  0.6767 -0.1829  0.0055
  261MOL0     C35891   3.973   6.546  10.718  0.7359 -0.5695  0.2350
  261MOL0     C35892   3.949   6.704  10.697  0.6174 -0.5547 -0.5978
  261MOL0     C35893   3.801   6.738  10.690 -0.6466  0.2527 -0.6967
  261MOL0     C35894   3.779   6.855  10.596  0.7520  0.1386 -0.0896
  261MOL0     C35895   3.832   6.983  10.649 -0.5280  0.1185  0.4078
  261MOL0     C35896   3.837   7.087  10.538 -0.0681  0.6738 -0.4424
  261MOL0     N35897   3.888   7.218  10.581  0.4729 -0.5113 -0.2979
  261MOL0     C35898   3.824   7.295  10.682  0.2153  0.7659  0.0964
  261MOL0     C35899   3.898   7.414  10.678 -0.2277  0.9355  0.6210
  261MOL0     C35900   3.856   7.544  10.748  0.9874  0.4360 -0.7909
  261MOL0     C35901   3.930   7.577  10.880  0.4241  0.8535  0.0947
  261MOL0     C35902   3.889   7.477  10.990 -1.4424  0.5278  0.0601
  261MOL0     C35903   3.789   7.546  11.084 -0.6689  0.9727 -0.0327
  261MOL0     O35904   3.849   7.648  11.170  0.2631  0.8764 -0.3755
  261MOL0     C35905   3.760   7.738  11.214 -0.0749 -0.4717  1.1028
  261MOL0     C35906   3.706   7.829  11.131  0.9082 -0.7523  0.3294
  261MOL0     C35907   3.628   7.941  11.175 -0.3957  0.4654 -0.8843
  261MOL0     C35908   3.569   8.033  11.067 -0.8896 -0.0585  0.7857
  261MOL0     C35909   3.601   7.937  11.314 -0.1574 -0.3724  0.8486
  261MOL0     C35910   3.528   8.044  11.384  0.0754 -0.5745  0.1080
  261MOL0     O35911   3.488   8.015  11.517 -0.3383 -0.3386 -0.1499
  261MOL0     C35912   3.456   8.120  11.597  0.1952 -1.1095 -0.1974
  261MOL0     C35913   3.326   8.145  11.635 -0.3602  0.5762 -0.4090
  261MOL0     C35914   3.296   8.253  11.725  0.2169  1.2602  0.4974
  261MOL0     C35915   3.400   8.323  11.779  0.6323 -0.8948  0.2855
  261MOL0     O35916   3.358   8.424  11.863 -0.0538 -0.5009 -0.1446
  261MOL0     C35917   3.442   8.526  11.911  0.2765  0.1053  0.1458
  261MOL0     C35918   3.378   8.583  12.034  0.1093 -0.6800 -0.0563
  261MOL0     C35919   3.330   8.472  12.129 -0.4082 -0.1284 -0.3527
  261MOL0     C35920   3.366   8.513  12.282  0.3607  0.8411  0.4281
  261MOL0     C35921   3.284   8.635  12.323  0.0545  0.2253  0.2722
  261MOL0     C35922   3.301   8.663  12.471 -0.9754  0.8459 -0.0936
  261MOL0     C35923   3.227   8.787  12.509 -0.1564 -0.0564  0.7989
  261MOL0     C35924   3.145   8.768  12.640 -0.6465 -0.6261 -0.2700
  261MOL0    Cl35925   3.085   8.930  12.709 -0.1133  0.1885 -0.0513
  261MOL0     C35926   3.534   8.292  11.743 -0.6654  0.2224 -0.7070
  261MOL0     C35927   3.559   8.195  11.654 -0.1425  0.3821 -1.0018
  261MOL0     O35928   3.516   8.154  11.331  0.2582 -0.0973  0.4237
  261MOL0     C35929   3.663   7.849  11.397 -0.2428  0.0487 -0.9327
  261MOL0     C35930   3.743   7.745  11.352 -0.4680  0.2031  0.9576
  261MOL0     N35931   4.013   7.396  10.599 -0.0955 -0.3787  0.0842
  261MOL0     N35932   4.003   7.283  10.539  0.0849  0.4185 -1.3118
  261MOL0     C35933   4.247   6.650  11.186 -0.4169 -0.0055 -0.2528
  261MOL0     C35934   4.310   6.723  11.287  0.3895  0.9885  0.4277
  261MOL0     C35935   4.509   6.964  11.588  0.5058 -0.3447  0.1767
  261MOL0     C35936   4.608   6.878  11.642  0.7024  0.4433  0.4815
  261MOL0     C35937   4.670   6.914  11.762  0.0159  0.6769 -0.3020
  261MOL0     C35938   4.638   7.034  11.833  0.2471  0.1543 -0.0017
  261MOL0     O35939   4.692   7.055  11.960 -1.0335 -1.0897 -0.2053
  261MOL0     C35940   4.586   7.091  12.051 -0.4487 -1.1000  0.0948
  261MOL0     C35941   4.644   7.134  12.183  0.8786 -1.4624  0.1873
  261MOL0     C35942   4.681   7.293  12.195  0.7016 -0.2428 -0.2360
  261MOL0     C35943   4.744   7.324  12.325 -0.8884 -0.4718 -0.5351
  261MOL0     C35944   4.781   7.476  12.317  0.2285 -0.2520  0.0420
  261MOL0     C35945   4.797   7.595  12.289  1.0407 -0.6197 -0.2277
  261MOL0     C35946   4.544   7.132  11.769 -0.5583  1.0519 -0.4230
  261MOL0     C35947   4.475   7.086  11.653  0.4517 -0.2280 -0.0585
  261MOL0     C35948   4.377   7.191  11.605 -0.3074  0.7748 -0.4187
  261MOL0     H35949   4.604   6.786  11.146  1.2654 -3.3910 -0.0261
  261MOL0     H35950   4.486   6.640  10.958 -0.3038 -1.3880  1.5854
  261MOL0     H35951   4.172   6.704  10.872  0.1499  1.0384  1.6107
  261MOL0     H35952   4.066   6.599  10.960 -1.3167  2.6754 -1.6975
  261MOL0     H35953   4.197   6.507  10.712 -0.0276  1.4324 -0.7050
  261MOL0     H35954   4.120   6.401  10.824  1.7181 -0.1528  0.1338
  261MOL0     H35955   3.967   6.496  10.621  3.0721 -1.1757  0.3402
  261MOL0     H35956   3.890   6.514  10.782  0.4984 -0.7871 -0.1761
  261MOL0     H35957   3.991   6.745  10.789  0.4020 -1.3829 -0.1159
  261MOL0     H35958   4.001   6.741  10.608  1.3290 -1.0649 -0.3979
  261MOL0     H35959   3.770   6.780  10.786  1.3675 -1.7255  0.9149
  261MOL0     H35960   3.737   6.655  10.660  1.5449 -2.2686  1.1571
  261MOL0     H35961   3.819   6.829  10.498 -0.8274  1.1291 -1.0294
  261MOL0     H35962   3.670   6.859  10.583  0.8321  0.9140 -0.5847
  261MOL0     H35963   3.932   6.986  10.693 -0.3908  1.7222  0.0371
  261MOL0     H35964   3.762   7.023  10.723  1.8126  1.3338  2.0902
  261MOL0     H35965   3.897   7.053  10.453  0.6658 -2.3223  1.1061
  261MOL0     H35966   3.733   7.092  10.504 -0.7779 -1.5914  1.1188
  261MOL0     H35967   3.731   7.266  10.731 -0.2933 -3.1426 -2.7439
  261MOL0     H35968   3.748   7.546  10.766  1.1860  0.2678  0.4862
  261MOL0     H35969   3.877   7.625  10.677  0.8965 -0.4631 -1.8805
  261MOL0     H35970   4.034   7.552  10.856  0.0115  0.5370 -1.4539
  261MOL0     H35971   3.920   7.682  10.907 -0.5161  1.1488 -1.3334
  261MOL0     H35972   3.839   7.398  10.932 -1.0484  0.0199  0.4100
  261MOL0     H35973   3.972   7.449  11.054  0.8042  3.0978 -1.5096
  261MOL0     H35974   3.708   7.586  11.022  0.1476  2.9228  0.1016
  261MOL0     H35975   3.735   7.475  11.148 -0.7356  0.8250 -0.2496
  261MOL0     H35976   3.714   7.825  11.022 -0.1828  2.8446 -0.0097
  261MOL0     H35977   3.460   8.037  11.068 -0.8599  1.7309  0.3195
  261MOL0     H35978   3.601   7.987  10.973  0.2379 -1.5871  1.8742
  261MOL0     H35979   3.612   8.134  11.068  0.4105 -0.5936  1.3015
  261MOL0     H35980   3.252   8.074  11.600  0.0454 -0.2630  0.3863
  261MOL0     H35981   3.194   8.258  11.762 -1.4658 -0.9806 -3.2280
  261MOL0     H35982   3.541   8.481  11.927  1.2884  1.1242 -2.6769
  261MOL0     H35983   3.458   8.606  11.838 -1.0731  1.7351  1.5549
  261MOL0     H35984   3.455   8.647  12.077 -0.7107 -0.4782  1.1708
  261MOL0     H35985   3.289   8.638  12.000  0.7956  0.3775 -0.1705
  261MOL0     H35986   3.388   8.381  12.113 -3.1441 -2.0477 -0.0103
  261MOL0     H35987   3.225   8.444  12.117 -1.3210  1.7908  2.2404
  261MOL0     H35988   3.470   8.544  12.290  1.1288 -1.1374 -1.0615
  261MOL0     H35989   3.347   8.425  12.344 -0.9331  1.3081  0.7334
  261MOL0     H35990   3.322   8.722  12.269 -2.2278  0.5928 -0.8455
  261MOL0     H35991   3.178   8.625  12.299  0.2715  1.9638 -1.6749
  261MOL0     H35992   3.402   8.649  12.509 -1.3026 -1.5816  0.0329
  261MOL0     H35993   3.256   8.575  12.517  0.2395 -0.2170 -0.8989
  261MOL0     H35994   3.163   8.820  12.426  1.0914  1.1576  0.2769
  261MOL0     H35995   3.305   8.861  12.530 -1.8852  2.8645 -2.0551
  261MOL0     H35996   3.197   8.720  12.723 -0.3461 -0.5701 -0.4242
  261MOL0     H35997   3.060   8.708  12.607 -1.5534  1.3702 -1.8039
  261MOL0     H35998   3.621   8.353  11.764  0.4234 -1.5369  0.1721
  261MOL0     H35999   3.659   8.170  11.620 -0.3159  0.7792 -1.8524
  261MOL0     H36000   3.656   7.850  11.505  0.2676 -1.8063 -0.8509
  261MOL0     H36001   3.800   7.677  11.415 -0.2260  0.0226  0.5465
  261MOL0     H36002   4.143   6.619  11.195 -0.5904  0.6416  0.0419
  261MOL0     H36003   4.256   6.744  11.378 -0.9799  0.8010 -0.3214
  261MOL0     H36004   4.642   6.792  11.586 -0.6764 -0.3007  0.7491
  261MOL0     H36005   4.751   6.862  11.812  0.4358  2.8100  1.3883
  261MOL0     H36006   4.515   7.168  12.019  0.6392  1.0481  2.5356
  261MOL0     H36007   4.519   7.005  12.054 -2.5228  0.1585 -3.4206
  261MOL0     H36008   4.726   7.070  12.217 -0.1583 -1.6490  2.5713
  261MOL0     H36009   4.578   7.106  12.266  0.2607 -1.9988 -0.4712
  261MOL0     H36010   4.761   7.316  12.123  2.9700 -1.4738  1.7218
  261MOL0     H36011   4.603   7.367  12.173  2.4677  1.8287  0.0375
  261MOL0     H36012   4.837   7.267  12.326  0.5429  1.7254 -0.1734
  261MOL0     H36013   4.685   7.302  12.415  1.9818 -1.4021  1.2641
  261MOL0     H36014   4.831   7.695  12.272  3.6930 -1.5796 -0.9404
  261MOL0     H36015   4.525   7.232  11.806  0.3629  0.8990  0.5146
  261MOL0     H36016   4.383   7.280  11.668 -1.0820  0.0104  0.7810
  261MOL0     H36017   4.395   7.220  11.501  0.5909 -0.1496 -0.5396
  261MOL0     H36018   4.276   7.152  11.618  0.6497 -1.5147  0.7896
  262MOL0     O36019   5.957   2.399   9.651  0.3051 -0.0362  0.4322
  262MOL0     C36020   5.959   2.320   9.746  0.4279 -0.8042 -0.7093
  262MOL0     O36021   5.938   2.184   9.735 -0.3404 -0.8526  0.5131
  262MOL0     C36022   5.971   2.133   9.612  1.0643  0.5880 -0.5592
  262MOL0     C36023   5.878   2.039   9.561 -1.0513 -0.3344  0.0799
  262MOL0     C36024   5.920   1.960   9.450 -0.7181 -0.2802 -0.4819
  262MOL0     C36025   6.044   1.987   9.387 -0.7342 -0.6554  1.5055
  262MOL0     O36026   6.074   1.910   9.277 -0.2482 -0.1199  0.2470
  262MOL0     C36027   6.203   1.951   9.210  0.5879 -0.2409 -0.1130
  262MOL0     C36028   6.206   1.871   9.081 -0.2821 -0.3709 -0.8709
  262MOL0     C36029   6.282   1.739   9.118 -0.4737 -0.3364  0.6823
  262MOL0     C36030   6.335   1.677   8.985  0.3546  0.5327 -0.1884
  262MOL0     C36031   6.388   1.541   9.029  0.4017  0.4814 -0.1990
  262MOL0     C36032   6.337   1.429   8.932  0.0390 -0.2014  0.1376
  262MOL0     C36033   6.397   1.442   8.794 -0.0520 -0.0663 -0.2127
  262MOL0     C36034   6.357   1.325   8.710 -0.1138  0.5738  0.2330
  262MOL0     N36035   6.434   1.311   8.585  0.0596  0.1465  0.1110
  262MOL0     C36036   6.479   1.424   8.517  0.6022  0.0196  0.5217
  262MOL0     C36037   6.549   1.373   8.417  0.4030 -0.2872  0.7961
  262MOL0     C36038   6.619   1.460   8.316  0.1891 -0.6309 -0.1666
  262MOL0     C36039   6.526   1.571   8.272  1.0508 -0.0876  0.4211
  262MOL0     C36040   6.583   1.643   8.143 -0.4584 -0.7305  0.6087
  262MOL0     C36041   6.474   1.714   8.063  0.5070 -0.8008 -0.2397
  262MOL0     O36042   6.416   1.831   8.121 -0.4920  0.0742 -0.2477
  262MOL0     C36043   6.303   1.889   8.058  0.4649  0.1588 -0.1648
  262MOL0     C36044   6.218   1.956   8.146 -0.0408 -0.4312  0.3191
  262MOL0     C36045   6.090   2.002   8.114 -0.8278  0.0678 -0.5772
  262MOL0     C36046   6.014   2.066   8.225 -0.5106  0.8865 -0.4203
  262MOL0     C36047   6.045   1.993   7.980 -0.3739  0.3775  0.2659
  262MOL0     C36048   5.908   2.032   7.927  0.4427 -0.8894  0.3877
  262MOL0     O36049   5.863   1.968   7.811  0.5778 -0.7586 -0.2737
  262MOL0     C36050   5.738   1.999   7.763  0.1423 -0.1142  0.6744
  262MOL0     C36051   5.663   1.890   7.713  0.7283  0.7052  0.6991
  262MOL0     C36052   5.533   1.912   7.674  0.6403 -0.4148 -0.1077
  262MOL0     C36053   5.476   2.041   7.658  0.0939  0.3968  0.3474
  262MOL0     O36054   5.343   2.059   7.624 -0.7189 -0.6863  0.4181
  262MOL0     C36055   5.245   1.987   7.693 -0.3886 -0.3962  0.0133
  262MOL0     C36056   5.106   2.039   7.676  0.1210  0.3352 -0.2457
  262MOL0     C36057   5.020   1.982   7.796  0.2966  0.6866  0.6497
  262MOL0     C36058   5.060   2.022   7.943  1.0066 -0.2068  0.6367
  262MOL0     C36059   4.961   1.974   8.041 -0.6020  0.1903  0.3448
  262MOL0     C36060   5.000   2.020   8.186  0.0502 -1.4266 -0.3923
  262MOL0     C36061   5.090   1.914   8.265 -0.5852  0.3274  0.8815
  262MOL0     C36062   5.004   1.825   8.343 -0.0868  0.2203  0.4967
  262MOL0    Cl36063   4.908   1.900   8.473  0.4955 -0.4343  0.5696
  262MOL0     C36064   5.552   2.147   7.693  0.0694 -1.3753 -0.4716
  262MOL0     C36065   5.685   2.126   7.742  0.5532  0.4061  1.2198
  262MOL0     O36066   5.847   2.117   7.994  0.2205 -0.0839 -0.1482
  262MOL0     C36067   6.133   1.922   7.895 -0.0614  0.0926 -0.0022
  262MOL0     C36068   6.260   1.881   7.930  0.0133  0.8454 -0.5849
  262MOL0     N36069   6.538   1.236   8.418 -0.2672 -0.0998 -0.3167
  262MOL0     N36070   6.465   1.199   8.520 -0.7746 -0.5309  0.9013
  262MOL0     C36071   6.124   2.099   9.433  0.2425  0.0548 -0.4325
  262MOL0     C36072   6.083   2.171   9.543 -0.2793  0.1863  0.0058
  262MOL0     C36073   6.003   2.393   9.881  0.0929 -0.3679 -0.1184
  262MOL0     C36074   6.030   2.525   9.876 -0.2608 -0.1105 -0.1355
  262MOL0     C36075   6.044   2.604   9.985 -0.5668  0.1268  1.1403
  262MOL0     C36076   6.032   2.541  10.105 -0.5956 -0.9714 -0.0384
  262MOL0     O36077   6.047   2.612  10.216 -0.7539  0.6588 -0.3829
  262MOL0     C36078   6.183   2.667  10.228 -0.3462  0.4010  0.3619
  262MOL0     C36079   6.220   2.681  10.378 -0.7254  0.7553 -0.3098
  262MOL0     C36080   6.343   2.769  10.393  0.1593  0.0804 -0.1362
  262MOL0     C36081   6.387   2.783  10.533 -0.4044 -0.1071  0.0256
  262MOL0     C36082   6.461   2.667  10.568  0.3133 -0.0117  0.7971
  262MOL0     C36083   6.515   2.563  10.610 -0.2784  0.0047  0.0055
  262MOL0     C36084   5.998   2.404  10.117 -0.2579  0.9404  1.0693
  262MOL0     C36085   5.984   2.326  10.003  0.5321  0.0356 -0.0183
  262MOL0     C36086   5.938   2.187  10.031  0.6302  0.7293  0.7625
  262MOL0     H36087   5.789   2.016   9.618 -0.1176  0.2085  1.8121
  262MOL0     H36088   5.863   1.881   9.402  1.7167 -0.8950 -2.5832
  262MOL0     H36089   6.294   1.943   9.271  2.6152 -1.4087 -3.0577
  262MOL0     H36090   6.185   2.054   9.178 -1.3766 -0.5238 -0.0219
  262MOL0     H36091   6.111   1.845   9.035 -0.0686 -0.6366 -1.1706
  262MOL0     H36092   6.261   1.933   9.009 -0.8323  0.9013 -0.2189
  262MOL0     H36093   6.368   1.758   9.183 -0.4911 -0.7365  0.8282
  262MOL0     H36094   6.212   1.669   9.165 -0.9950 -1.1166 -1.1675
  262MOL0     H36095   6.249   1.687   8.918  0.2404  4.6156  0.3249
  262MOL0     H36096   6.421   1.736   8.950  1.8327 -1.8375 -0.7971
  262MOL0     H36097   6.364   1.511   9.131 -1.7365 -3.2702 -1.5784
  262MOL0     H36098   6.496   1.556   9.032  0.4837 -0.0013  3.5051
  262MOL0     H36099   6.352   1.329   8.974 -2.9855 -0.0881  1.7266
  262MOL0     H36100   6.231   1.450   8.919 -0.0837  2.8496  4.2285
  262MOL0     H36101   6.505   1.459   8.806 -0.0899  0.1173 -0.1160
  262MOL0     H36102   6.371   1.536   8.745  1.8846  0.2605 -0.7102
  262MOL0     H36103   6.365   1.231   8.765  1.6078  0.4215 -0.1931
  262MOL0     H36104   6.253   1.350   8.687  0.3317  0.3965 -2.2852
  262MOL0     H36105   6.477   1.530   8.539  0.8455  0.2065 -0.3213
  262MOL0     H36106   6.672   1.404   8.238  3.2655  0.3273  1.0694
  262MOL0     H36107   6.695   1.508   8.378  1.5134 -3.1476  0.3032
  262MOL0     H36108   6.434   1.520   8.240 -1.3789  4.0772  0.0010
  262MOL0     H36109   6.501   1.639   8.354 -1.2809 -1.7263  1.1777
  262MOL0     H36110   6.655   1.719   8.175 -1.1616  1.1962 -1.9865
  262MOL0     H36111   6.638   1.568   8.084  1.2485  2.0618 -1.6531
  262MOL0     H36112   6.516   1.738   7.965  0.0610  0.1996 -0.1959
  262MOL0     H36113   6.386   1.653   8.042  0.1014 -0.4666  0.4402
  262MOL0     H36114   6.245   1.957   8.251  0.3232  2.4056  0.2721
  262MOL0     H36115   6.071   2.073   8.318 -0.3859  2.3641 -0.5767
  262MOL0     H36116   5.918   2.015   8.240 -0.9021  1.3222 -1.3513
  262MOL0     H36117   5.990   2.170   8.200 -1.1574  1.1353  1.0940
  262MOL0     H36118   5.708   1.792   7.730  1.1423  1.1386  2.2230
  262MOL0     H36119   5.465   1.830   7.654 -0.2627  0.5009 -0.9238
  262MOL0     H36120   5.243   1.880   7.672 -0.7988  0.0436 -2.5140
  262MOL0     H36121   5.270   1.990   7.799  0.0870  2.0547 -0.1101
  262MOL0     H36122   5.100   2.147   7.689 -0.6469  0.4393 -1.2695
  262MOL0     H36123   5.068   2.009   7.577  1.5134 -0.6537 -0.5148
  262MOL0     H36124   5.023   1.873   7.794  2.8715  0.7027 -1.0128
  262MOL0     H36125   4.917   2.011   7.772  1.1773  2.3196 -1.4828
  262MOL0     H36126   5.061   2.131   7.949  1.5452 -0.0107 -1.8119
  262MOL0     H36127   5.155   1.975   7.968  0.9644  0.4599  2.1761
  262MOL0     H36128   4.871   2.028   8.014 -0.2104 -0.4587 -2.5745
  262MOL0     H36129   4.943   1.868   8.024  0.3506  0.2931 -1.6204
  262MOL0     H36130   4.912   2.040   8.249  2.3434  2.5918  1.9163
  262MOL0     H36131   5.069   2.103   8.171  0.0948 -1.4626 -0.3844
  262MOL0     H36132   5.161   1.969   8.329 -2.6985  2.7120  1.3500
  262MOL0     H36133   5.149   1.848   8.202 -1.4671 -1.2218  1.6371
  262MOL0     H36134   5.064   1.747   8.392  0.5886  1.7055  2.1242
  262MOL0     H36135   4.935   1.772   8.277 -0.6743  1.0280  0.4470
  262MOL0     H36136   5.519   2.250   7.694 -0.3636 -1.5199  0.6729
  262MOL0     H36137   5.740   2.219   7.755  0.0655  1.2743 -1.9995
  262MOL0     H36138   6.103   1.901   7.793  3.2795  0.9535 -1.2947
  262MOL0     H36139   6.319   1.834   7.853  0.7919 -0.3987  0.7119
  262MOL0     H36140   6.219   2.125   9.389  0.1073  0.4512 -0.4948
  262MOL0     H36141   6.149   2.248   9.582  0.0916  0.1970 -0.6256
  262MOL0     H36142   6.028   2.575   9.780  4.1262  1.5585  0.4063
  262MOL0     H36143   6.061   2.711   9.979  2.5404 -0.3483 -0.4560
  262MOL0     H36144   6.261   2.616  10.172  0.3163  2.7415 -0.9697
  262MOL0     H36145   6.180   2.767  10.184 -3.0812  0.2544  0.0057
  262MOL0     H36146   6.242   2.582  10.420 -3.1222 -0.1054 -0.8953
  262MOL0     H36147   6.147   2.724  10.448  2.3372  1.4738  2.7070
  262MOL0     H36148   6.428   2.745  10.330  0.8851  3.9759 -0.9168
  262MOL0     H36149   6.312   2.870  10.364  2.1864  1.0887  1.0004
  262MOL0     H36150   6.304   2.799  10.603 -0.8961 -0.5423 -0.4515
  262MOL0     H36151   6.451   2.869  10.557 -0.2702  0.1911 -1.3151
  262MOL0     H36152   6.552   2.471  10.652 -0.5747  0.1862  0.6883
  262MOL0     H36153   5.994   2.371  10.220  0.3595 -0.4180  0.6782
  262MOL0     H36154   5.846   2.155   9.982  0.5151  0.5817  1.0733
  262MOL0     H36155   6.010   2.112   9.998  1.4828  1.4591  0.9296
  262MOL0     H36156   5.927   2.177  10.139  0.8625  0.7636  0.7888
  263MOL0     O36157  10.577  11.389   0.471 -0.1084 -0.1880  0.1484
  263MOL0     C36158  10.550  11.397   0.593  0.6936  0.6501  0.2919
  263MOL0     O36159  10.594  11.497   0.683 -0.1405  0.7851 -0.1663
  263MOL0     C36160  10.703  11.565   0.640 -0.8518  0.7597 -0.3348
  263MOL0     C36161  10.821  11.489   0.598  1.2465  0.7017 -0.3117
  263MOL0     C36162  10.929  11.554   0.549 -0.1231 -0.3101  0.7489
  263MOL0     C36163  10.925  11.698   0.551  0.3280 -0.6664 -0.3612
  263MOL0     O36164  11.038  11.772   0.513  0.9773  0.1419 -0.6533
  263MOL0     C36165  11.068  11.901   0.577 -0.3751  0.5071  1.1120
  263MOL0     C36166  11.219  11.925   0.571  0.0566  0.4223  0.7124
  263MOL0     C36167  11.259  12.052   0.645 -0.3526 -0.2645 -0.0510
  263MOL0     C36168  11.236  12.036   0.795  0.6203  0.4373  0.1689
  263MOL0     C36169  11.284  12.166   0.871  0.5314  0.0061  0.2502
  263MOL0     C36170  11.275  12.145   1.025  0.4887  0.7588  0.3429
  263MOL0     C36171  11.134  12.154   1.073  0.0118 -0.4901 -0.3385
  263MOL0     C36172  11.119  12.089   1.216 -0.6885  0.3341 -0.1143
  263MOL0     N36173  11.000  12.145   1.275  0.5462 -0.5333 -0.2547
  263MOL0     C36174  10.978  12.273   1.322 -0.2095  0.4505 -0.1563
  263MOL0     C36175  10.846  12.300   1.325 -0.1020  0.2619 -0.8891
  263MOL0     C36176  10.785  12.433   1.358  0.8975 -0.9927  0.4642
  263MOL0     C36177  10.833  12.492   1.490  0.6640 -0.1015  0.6662
  263MOL0     C36178  10.830  12.652   1.493 -0.6532  0.4562  0.1955
  263MOL0     C36179  10.693  12.717   1.488  0.0154 -0.8858 -0.1216
  263MOL0     O36180  10.655  12.766   1.617  0.6666  0.5994  0.2097
  263MOL0     C36181  10.655  12.894   1.652  0.6556  0.0837 -0.0921
  263MOL0     C36182  10.596  12.918   1.773  0.9296  0.2777  0.4197
  263MOL0     C36183  10.581  13.046   1.820  0.6426 -0.7163 -0.0877
  263MOL0     C36184  10.503  13.058   1.955 -0.4889  0.4841 -0.0420
  263MOL0     C36185  10.643  13.155   1.748  0.2351  0.2886 -0.4783
  263MOL0     C36186  10.631  13.305   1.794 -0.2424 -0.8332  0.4763
  263MOL0     O36187  10.678  13.399   1.708  0.1414  0.9085  0.0037
  263MOL0     C36188  10.680  13.537   1.725 -0.2247  0.3732 -0.6174
  263MOL0     C36189  10.742  13.609   1.622  0.3663 -0.3419  0.1886
  263MOL0     C36190  10.748  13.749   1.614  0.3392 -0.4832  0.1954
  263MOL0     C36191  10.730  13.814   1.736  0.7520 -0.8093 -0.3550
  263MOL0     O36192  10.765  13.944   1.725  0.5292  0.0235 -0.2583
  263MOL0     C36193  10.750  14.025   1.842 -0.1071  0.6888 -0.4650
  263MOL0     C36194  10.864  14.001   1.944 -0.3680  0.8031 -0.6277
  263MOL0     C36195  10.933  14.131   2.004 -0.1265  0.2290  1.2029
  263MOL0     C36196  11.023  14.210   1.908  0.6848  0.0703  0.2578
  263MOL0     C36197  11.052  14.346   1.960  0.0957 -0.1767 -0.1755
  263MOL0     C36198  10.939  14.441   1.925  0.2115  0.7884 -0.1606
  263MOL0     C36199  10.970  14.588   1.971 -0.2470 -0.0535 -0.2084
  263MOL0     C36200  10.849  14.684   1.960  0.9869 -0.2297  0.0955
  263MOL0    Cl36201  10.813  14.711   1.787 -0.0555 -0.0797  0.0016
  263MOL0     C36202  10.682  13.745   1.849  0.3274  0.1619 -0.9679
  263MOL0     C36203  10.651  13.608   1.840  0.2882 -0.5690 -0.6152
  263MOL0     O36204  10.577  13.329   1.910  0.0508 -0.2598  0.7041
  263MOL0     C36205  10.710  13.127   1.626 -0.1106 -0.2128 -0.2152
  263MOL0     C36206  10.714  12.998   1.583 -0.0626 -0.0736 -0.0448
  263MOL0     N36207  10.783  12.186   1.278  0.5873 -0.3237 -0.5716
  263MOL0     N36208  10.873  12.099   1.241 -0.1898 -0.0618 -0.6062
  263MOL0     C36209  10.811  11.775   0.589 -0.2841  0.5407  0.4489
  263MOL0     C36210  10.701  11.705   0.635  0.3272  0.3945  0.6031
  263MOL0     C36211  10.467  11.291   0.636 -0.2439  0.1614 -0.1805
  263MOL0     C36212  10.519  11.220   0.743 -0.3841  0.3873  0.3494
  263MOL0     C36213  10.467  11.097   0.773 -0.3975 -0.2193  0.1054
  263MOL0     C36214  10.360  11.043   0.706  0.9661 -0.4199  0.2155
  263MOL0     O36215  10.326  10.921   0.743  0.1933  0.3735  0.3765
  263MOL0     C36216  10.206  10.858   0.697 -0.0413  0.1591 -0.1415
  263MOL0     C36217  10.229  10.706   0.675 -0.4429 -0.0912 -0.6358
  263MOL0     C36218  10.104  10.637   0.620  0.1661 -0.0921  0.1273
  263MOL0     C36219  10.125  10.487   0.591 -1.0826  1.0795 -0.5485
  263MOL0     C36220  10.131  10.400   0.710  0.1610  0.5314  0.3744
  263MOL0     C36221  10.136  10.320   0.801 -0.8122  0.2299 -0.7703
  263MOL0     C36222  10.299  11.120   0.600 -0.2268 -0.0913 -0.9388
  263MOL0     C36223  10.361  11.240   0.556  0.0823  0.3361 -1.4879
  263MOL0     C36224  10.290  11.327   0.460 -0.3131 -0.6836 -0.2201
  263MOL0     H36225  10.834  11.382   0.588 -1.7483  0.2101  0.1512
  263MOL0     H36226  11.012  11.509   0.494  1.5124  1.2737  1.8008
  263MOL0     H36227  11.035  11.896   0.681 -0.2080 -0.0442  1.1444
  263MOL0     H36228  11.019  11.978   0.516  0.0582 -0.1099 -0.0629
  263MOL0     H36229  11.264  11.839   0.622  0.5522  0.6463  0.6588
  263MOL0     H36230  11.260  11.927   0.469  3.0637  1.4989  1.8428
  263MOL0     H36231  11.366  12.070   0.635 -0.1582 -1.7738 -1.0377
  263MOL0     H36232  11.195  12.130   0.602 -1.1184 -0.3171  0.9541
  263MOL0     H36233  11.131  12.013   0.814  0.5046  1.5515  0.9831
  263MOL0     H36234  11.296  11.949   0.822 -1.9906 -1.8661 -0.9969
  263MOL0     H36235  11.225  12.251   0.836  0.4782  1.0501  2.6653
  263MOL0     H36236  11.388  12.190   0.852  0.2024  1.8552  0.6137
  263MOL0     H36237  11.316  12.045   1.042 -1.1129  0.4525  2.7720
  263MOL0     H36238  11.347  12.207   1.079  1.2084  0.6614 -0.4830
  263MOL0     H36239  11.068  12.111   0.998 -2.0860  2.5709 -0.3934
  263MOL0     H36240  11.109  12.260   1.083 -1.1577 -0.7983  0.2115
  263MOL0     H36241  11.087  11.984   1.216 -2.4088  0.5312  5.1150
  263MOL0     H36242  11.207  12.099   1.280  0.0596  0.4635 -1.1500
  263MOL0     H36243  11.053  12.347   1.347 -0.6787  0.8424  0.1016
  263MOL0     H36244  10.676  12.421   1.357  0.9330 -1.3266  0.4881
  263MOL0     H36245  10.821  12.505   1.284  0.4471  0.7667  1.8876
  263MOL0     H36246  10.764  12.456   1.567 -0.0600 -3.9576 -1.5214
  263MOL0     H36247  10.930  12.452   1.521  1.3690  2.0058  1.4200
  263MOL0     H36248  10.893  12.675   1.579  1.2254 -2.3298 -0.2859
  263MOL0     H36249  10.893  12.680   1.409 -0.7552 -0.7529 -0.3058
  263MOL0     H36250  10.704  12.792   1.410  1.6898  1.3697  2.1350
  263MOL0     H36251  10.617  12.642   1.463 -1.7798  0.2470  1.6229
  263MOL0     H36252  10.550  12.841   1.833  3.2930 -2.2968 -0.8483
  263MOL0     H36253  10.473  12.957   1.986  5.1608 -1.1294  1.4001
  263MOL0     H36254  10.416  13.123   1.944  0.9224  2.3539 -0.6607
  263MOL0     H36255  10.553  13.114   2.034  0.1601  2.4476 -1.7421
  263MOL0     H36256  10.763  13.553   1.531 -1.7343  0.1782 -0.6738
  263MOL0     H36257  10.780  13.798   1.522  1.6893  1.7475  1.7522
  263MOL0     H36258  10.749  14.127   1.803 -1.0384  0.9121  0.1095
  263MOL0     H36259  10.664  13.989   1.899 -0.2814 -2.1475 -2.3232
  263MOL0     H36260  10.819  13.953   2.031  0.0474  2.1738  0.3763
  263MOL0     H36261  10.940  13.938   1.897 -0.9600  0.9914 -1.8967
  263MOL0     H36262  10.986  14.112   2.098  3.3732  1.5111 -0.3452
  263MOL0     H36263  10.851  14.196   2.038 -1.3992  0.0022 -1.2856
  263MOL0     H36264  10.971  14.215   1.812 -0.5050  0.3235  0.8980
  263MOL0     H36265  11.117  14.158   1.888  0.9345  1.3149 -2.2622
  263MOL0     H36266  11.072  14.334   2.067  0.2491  0.0346 -0.1811
  263MOL0     H36267  11.139  14.390   1.910 -1.7515 -0.2953 -3.7853
  263MOL0     H36268  10.851  14.415   1.985 -0.0548  1.4955 -0.2342
  263MOL0     H36269  10.915  14.461   1.820 -1.6113  0.0694  0.0904
  263MOL0     H36270  11.042  14.632   1.902  0.0964 -2.0048 -1.1505
  263MOL0     H36271  11.017  14.585   2.070 -0.7176 -1.7918 -0.0007
  263MOL0     H36272  10.877  14.780   2.006 -1.2237 -0.6966  2.6364
  263MOL0     H36273  10.759  14.650   2.011  1.5571  0.6866  1.8106
  263MOL0     H36274  10.658  13.796   1.942  0.4820  0.1244 -0.9068
  263MOL0     H36275  10.597  13.573   1.928 -1.7875  1.9709 -0.7934
  263MOL0     H36276  10.753  13.204   1.562  3.7938 -2.3406 -0.4040
  263MOL0     H36277  10.776  12.980   1.496  2.0989  3.1504  0.6630
  263MOL0     H36278  10.804  11.883   0.587 -0.5817  0.5231 -1.2785
  263MOL0     H36279  10.608  11.747   0.670  0.1347 -2.1233  3.4352
  263MOL0     H36280  10.612  11.257   0.787  1.0062 -1.5440 -0.8300
  263MOL0     H36281  10.511  11.030   0.847 -1.5342 -1.9344 -0.7265
  263MOL0     H36282  10.124  10.860   0.770  1.0522  0.9821  1.1153
  263MOL0     H36283  10.174  10.900   0.601 -0.5809 -0.2833 -0.1618
  263MOL0     H36284  10.248  10.663   0.774 -0.7240  0.1700 -0.4688
  263MOL0     H36285  10.317  10.686   0.612  1.7955  2.0420  1.5634
  263MOL0     H36286  10.014  10.654   0.680 -1.4864 -0.4451 -2.1186
  263MOL0     H36287  10.078  10.672   0.519  2.2481  0.8069 -0.1539
  263MOL0     H36288  10.208  10.471   0.522 -2.9591  0.3288 -2.7733
  263MOL0     H36289  10.035  10.446   0.544 -1.2383 -0.7911  1.2063
  263MOL0     H36290  10.126  10.271   0.896  0.6021  2.3284  0.5618
  263MOL0     H36291  10.206  11.095   0.550 -1.2272  2.6836 -0.6065
  263MOL0     H36292  10.285  11.430   0.497  1.2095 -0.9992  0.9884
  263MOL0     H36293  10.346  11.343   0.368 -0.8539  0.8274 -0.3085
  263MOL0     H36294  10.192  11.288   0.432 -1.6081  2.3395 -0.3305
  264MOL0     O36295   4.922   7.007   2.449  0.0676 -0.4107  0.2779
  264MOL0     C36296   4.814   7.016   2.512 -0.6567  0.3559  0.6766
  264MOL0     O36297   4.708   6.933   2.496  0.6235 -0.6278 -0.3186
  264MOL0     C36298   4.691   6.850   2.392 -0.5324 -0.6628  0.0100
  264MOL0     C36299   4.616   6.735   2.409  0.8196  0.3978 -0.3922
  264MOL0     C36300   4.603   6.637   2.303 -0.2416  0.0170 -0.1834
  264MOL0     C36301   4.661   6.655   2.180  0.0938  0.7811 -0.2564
  264MOL0     O36302   4.622   6.565   2.077  0.5615  0.2122  0.4614
  264MOL0     C36303   4.605   6.618   1.945 -0.0611 -0.0468 -0.6656
  264MOL0     C36304   4.558   6.531   1.828 -0.8113  0.4537  0.4623
  264MOL0     C36305   4.435   6.462   1.879 -0.5473 -0.5045 -0.1915
  264MOL0     C36306   4.375   6.373   1.763  0.0812 -1.1285 -0.1353
  264MOL0     C36307   4.263   6.290   1.830 -0.4561 -0.0192 -0.6475
  264MOL0     C36308   4.162   6.240   1.729  1.0239 -0.3349  0.6945
  264MOL0     C36309   4.213   6.141   1.626  0.8816  0.7953 -0.4980
  264MOL0     C36310   4.171   5.994   1.646  0.8257 -0.2224 -0.3350
  264MOL0     N36311   4.047   5.959   1.589  0.3987  0.4686 -0.1257
  264MOL0     C36312   3.946   5.895   1.656 -0.0628  0.2720  0.2831
  264MOL0     C36313   3.859   5.856   1.559  0.2684 -0.5070 -0.8917
  264MOL0     C36314   3.757   5.761   1.589  0.1688 -0.2817 -0.6310
  264MOL0     C36315   3.652   5.813   1.694 -0.9313  0.2326 -0.8386
  264MOL0     C36316   3.572   5.917   1.633  0.1569 -0.0297  0.5652
  264MOL0     C36317   3.463   5.965   1.730  0.5838  0.0041  0.2501
  264MOL0     O36318   3.351   5.886   1.756  0.3495 -1.1798 -0.1461
  264MOL0     C36319   3.260   5.850   1.657 -1.2442 -0.3990 -0.4677
  264MOL0     C36320   3.179   5.747   1.674  0.0463 -0.3016  0.8668
  264MOL0     C36321   3.075   5.706   1.590  0.9197  0.1756  0.2780
  264MOL0     C36322   2.981   5.588   1.610  0.1689  0.1608  0.4988
  264MOL0     C36323   3.052   5.775   1.469  0.7063 -0.7251 -0.2396
  264MOL0     C36324   2.937   5.748   1.383  0.3497 -0.1263 -0.4860
  264MOL0     O36325   2.944   5.634   1.304  0.3757  0.4787  0.1232
  264MOL0     C36326   2.831   5.612   1.222 -0.0683 -0.5354 -0.1801
  264MOL0     C36327   2.707   5.581   1.274 -0.4516 -0.6306  0.0464
  264MOL0     C36328   2.603   5.584   1.179 -0.4373 -0.2625 -0.7229
  264MOL0     C36329   2.613   5.592   1.040 -0.1092  1.1377 -0.6166
  264MOL0     O36330   2.504   5.575   0.967 -0.2866 -1.1639  0.1733
  264MOL0     C36331   2.521   5.589   0.821  0.6623 -0.0004  0.0617
  264MOL0     C36332   2.383   5.602   0.746  0.1928 -0.6544 -0.8478
  264MOL0     C36333   2.284   5.495   0.798  0.1710 -0.0968  0.8262
  264MOL0     C36334   2.323   5.348   0.786  0.1434  0.2903 -0.6848
  264MOL0     C36335   2.232   5.251   0.854  0.1828  0.2307 -0.1444
  264MOL0     C36336   2.279   5.102   0.844  0.3706  0.1770  0.0259
  264MOL0     C36337   2.158   5.005   0.879  0.3858  1.0669 -1.0043
  264MOL0     C36338   2.210   4.867   0.897 -0.8359  0.6944  0.3230
  264MOL0    Cl36339   2.084   4.736   0.939  0.4155 -0.4459 -0.4983
  264MOL0     C36340   2.749   5.602   0.995 -0.1854 -0.0177 -0.4762
  264MOL0     C36341   2.857   5.615   1.079 -0.2953 -0.7230 -1.0153
  264MOL0     O36342   2.840   5.824   1.387 -0.0248 -0.7099 -0.7878
  264MOL0     C36343   3.137   5.887   1.451 -0.6469 -0.2620  0.1910
  264MOL0     C36344   3.243   5.921   1.533 -0.1470 -0.2633  1.4562
  264MOL0     N36345   3.897   5.919   1.433 -0.6660  0.0438 -0.2918
  264MOL0     N36346   4.014   5.970   1.458  0.4074  0.0518 -0.6690
  264MOL0     C36347   4.747   6.768   2.170  0.2292 -0.6183 -0.2181
  264MOL0     C36348   4.759   6.861   2.266  0.4910 -0.2625 -1.4490
  264MOL0     C36349   4.791   7.140   2.598  0.8663 -0.6672 -0.4654
  264MOL0     C36350   4.684   7.132   2.699  0.4948  0.4320  0.5593
  264MOL0     C36351   4.654   7.236   2.785 -0.2935 -0.9926  0.1370
  264MOL0     C36352   4.744   7.342   2.795  0.4507 -0.2079  0.0922
  264MOL0     O36353   4.729   7.432   2.897  0.3409 -0.3848  0.3620
  264MOL0     C36354   4.798   7.408   3.022 -0.9050 -0.0596  0.0169
  264MOL0     C36355   4.714   7.350   3.141  0.2252 -0.3460  0.2251
  264MOL0     C36356   4.801   7.342   3.264 -0.1454 -0.2985  0.3177
  264MOL0     C36357   4.753   7.257   3.376  0.0576  0.0306  0.5681
  264MOL0     C36358   4.768   7.318   3.504 -1.0018 -0.2000  0.1888
  264MOL0     C36359   4.783   7.380   3.610  0.2048  0.2051 -0.6240
  264MOL0     C36360   4.841   7.358   2.697  0.6916 -0.6342  0.1187
  264MOL0     C36361   4.871   7.262   2.600 -0.0881 -0.5232 -0.4400
  264MOL0     C36362   4.974   7.286   2.508 -0.1016  0.3991  0.0052
  264MOL0     H36363   4.556   6.719   2.498  1.3183  0.1550 -0.0968
  264MOL0     H36364   4.539   6.549   2.300 -1.3647  0.7666  0.7211
  264MOL0     H36365   4.699   6.668   1.919  0.2509 -1.4312 -2.4392
  264MOL0     H36366   4.527   6.694   1.947  0.8198  0.8597  0.7298
  264MOL0     H36367   4.550   6.593   1.739  0.5267 -1.1075 -0.7969
  264MOL0     H36368   4.629   6.451   1.808 -1.8614 -0.2494 -0.5759
  264MOL0     H36369   4.467   6.406   1.967  1.5574  0.9800  0.0704
  264MOL0     H36370   4.353   6.525   1.914 -1.1859 -1.3450 -0.1528
  264MOL0     H36371   4.344   6.442   1.684 -0.8064  0.8806  1.8487
  264MOL0     H36372   4.458   6.311   1.729 -0.3050 -1.0986 -1.1717
  264MOL0     H36373   4.210   6.347   1.907  1.0515 -0.2670  0.6214
  264MOL0     H36374   4.308   6.206   1.884 -0.0857 -0.0381 -0.9806
  264MOL0     H36375   4.063   6.208   1.763  0.4841  0.3586 -0.1765
  264MOL0     H36376   4.134   6.328   1.671 -2.0046 -2.3182 -1.1671
  264MOL0     H36377   4.321   6.145   1.637  1.1429 -4.1855  1.3263
  264MOL0     H36378   4.174   6.163   1.526 -0.0115 -0.0621 -0.3594
  264MOL0     H36379   4.245   5.938   1.588 -0.7591 -0.9548 -1.7470
  264MOL0     H36380   4.163   5.974   1.754  0.0515  0.3276 -0.2828
  264MOL0     H36381   3.926   5.871   1.760 -0.3036  0.2383  0.2285
  264MOL0     H36382   3.802   5.669   1.627 -0.0139 -0.0349  0.1983
  264MOL0     H36383   3.698   5.737   1.500  1.4913 -1.6095 -1.1857
  264MOL0     H36384   3.588   5.731   1.727  1.4451 -1.1111  0.7058
  264MOL0     H36385   3.706   5.853   1.781 -0.3204 -0.1642 -1.0294
  264MOL0     H36386   3.643   5.996   1.608  2.4389 -2.1643 -0.0149
  264MOL0     H36387   3.524   5.883   1.541  2.4667  1.5502 -1.3530
  264MOL0     H36388   3.518   5.986   1.821  0.0784  2.7790  0.0260
  264MOL0     H36389   3.426   6.062   1.693 -0.2192 -1.9413 -4.8393
  264MOL0     H36390   3.181   5.692   1.768 -0.8778  0.1048  1.1352
  264MOL0     H36391   3.009   5.501   1.550 -0.6099  2.4175 -3.5085
  264MOL0     H36392   2.877   5.602   1.579  0.3492  2.2832  0.6453
  264MOL0     H36393   2.977   5.563   1.716 -0.5921 -0.1548  0.4005
  264MOL0     H36394   2.694   5.572   1.382 -3.1698  3.6680  0.3285
  264MOL0     H36395   2.504   5.570   1.222 -0.3701 -1.0237 -0.8044
  264MOL0     H36396   2.588   5.672   0.795 -1.2553  0.6868 -3.3338
  264MOL0     H36397   2.568   5.497   0.784 -0.8685 -0.3325 -1.1873
  264MOL0     H36398   2.340   5.702   0.755 -3.6380 -2.2358  0.4041
  264MOL0     H36399   2.399   5.593   0.638 -2.9949 -0.7924 -1.4126
  264MOL0     H36400   2.189   5.512   0.745  1.8876 -0.2507 -2.6377
  264MOL0     H36401   2.266   5.523   0.902  0.6917 -1.4701  1.3068
  264MOL0     H36402   2.415   5.327   0.841 -0.7204  1.1732  1.1795
  264MOL0     H36403   2.337   5.321   0.681  1.5638 -2.9738  0.1916
  264MOL0     H36404   2.225   5.269   0.962  0.6802 -1.3957  0.1876
  264MOL0     H36405   2.137   5.259   0.800  0.8563 -0.6522 -1.5020
  264MOL0     H36406   2.363   5.095   0.914  0.6758 -2.0315 -0.4740
  264MOL0     H36407   2.316   5.083   0.743 -1.6922 -1.9472 -0.4247
  264MOL0     H36408   2.077   4.995   0.806 -0.1495  0.4291 -0.3363
  264MOL0     H36409   2.114   5.032   0.976 -2.8801 -1.1056 -1.7226
  264MOL0     H36410   2.281   4.869   0.980  0.6586 -1.7389 -0.7845
  264MOL0     H36411   2.252   4.844   0.799  0.7321  0.9218  0.9174
  264MOL0     H36412   2.783   5.608   0.892  0.2692  2.4585 -0.2495
  264MOL0     H36413   2.955   5.633   1.035 -1.1736 -1.7919 -3.5341
  264MOL0     H36414   3.122   5.945   1.361  0.9087 -0.6889 -0.3784
  264MOL0     H36415   3.309   6.005   1.511  0.6205 -0.2230  3.6404
  264MOL0     H36416   4.792   6.786   2.073  1.5345  1.0795  0.6686
  264MOL0     H36417   4.809   6.957   2.251  0.7780 -0.2716 -0.6005
  264MOL0     H36418   4.632   7.037   2.707  1.4380 -0.3171 -1.3666
  264MOL0     H36419   4.571   7.237   2.855 -2.1141  2.4255 -1.8040
  264MOL0     H36420   4.892   7.351   3.013 -0.1793  0.9761  0.8399
  264MOL0     H36421   4.823   7.505   3.066  1.6978 -0.2983 -0.7689
  264MOL0     H36422   4.687   7.248   3.109  1.2801 -0.3536 -0.7122
  264MOL0     H36423   4.620   7.402   3.163  1.5811  1.8896  0.9971
  264MOL0     H36424   4.908   7.322   3.253 -0.0692  0.1728  0.1843
  264MOL0     H36425   4.787   7.447   3.291  0.5538  1.1789 -4.2098
  264MOL0     H36426   4.798   7.157   3.373 -3.9962 -2.1684  3.1979
  264MOL0     H36427   4.646   7.246   3.357 -0.1100  1.6273  0.4796
  264MOL0     H36428   4.802   7.425   3.705  2.2387  1.8845 -1.7463
  264MOL0     H36429   4.905   7.445   2.700 -1.9136  1.4553 -1.4089
  264MOL0     H36430   4.945   7.261   2.406  0.4319 -0.1031 -0.0294
  264MOL0     H36431   5.012   7.388   2.511 -0.0371  0.3566  1.9194
  264MOL0     H36432   5.058   7.221   2.536 -1.8678 -1.1077  2.1867
  265MOL0     O36433   9.368   2.930   3.949  0.3274  1.0085  0.8157
  265MOL0     C36434   9.405   2.836   4.019  0.1024  0.2161 -1.2213
  265MOL0     O36435   9.425   2.859   4.154  0.2788  0.4329  0.0633
  265MOL0     C36436   9.440   2.985   4.190 -0.7481  0.2371 -0.1706
  265MOL0     C36437   9.550   3.056   4.147 -0.4241 -0.0268  0.0415
  265MOL0     C36438   9.582   3.189   4.173  0.2771 -0.6288  0.8732
  265MOL0     C36439   9.487   3.250   4.257  0.1652  0.1533  0.6716
  265MOL0     O36440   9.493   3.381   4.294 -0.1015 -0.6993  0.3469
  265MOL0     C36441   9.568   3.475   4.209 -0.5941 -0.0817 -0.1587
  265MOL0     C36442   9.494   3.616   4.224  0.8810  0.3308 -0.1351
  265MOL0     C36443   9.352   3.600   4.166  0.5055  0.2860 -0.2895
  265MOL0     C36444   9.304   3.717   4.068 -0.1442  0.0333 -0.7067
  265MOL0     C36445   9.170   3.688   4.023  0.2188 -0.1403 -0.1222
  265MOL0     C36446   9.125   3.793   3.914 -0.3209  0.9844  0.6933
  265MOL0     C36447   9.214   3.797   3.788  0.4158 -1.0991  0.0709
  265MOL0     C36448   9.253   3.673   3.724 -0.7645 -0.2673 -0.5659
  265MOL0     N36449   9.260   3.686   3.582  0.5982 -0.7966 -0.0599
  265MOL0     C36450   9.166   3.736   3.499  0.0119 -0.0562 -0.1235
  265MOL0     C36451   9.217   3.748   3.378  0.4457  0.0074  0.5438
  265MOL0     C36452   9.148   3.795   3.247 -0.8069  0.5348  0.5455
  265MOL0     C36453   9.168   3.942   3.225 -0.6094  0.1271  0.0311
  265MOL0     C36454   9.126   3.977   3.084 -0.2625  0.0297  0.4414
  265MOL0     C36455   8.979   3.943   3.044 -0.2638  0.2111  0.4612
  265MOL0     O36456   8.884   4.022   3.110 -0.2972  0.0566 -0.0919
  265MOL0     C36457   8.838   4.137   3.063  1.5530 -0.8180 -0.1516
  265MOL0     C36458   8.850   4.190   2.931 -0.1084 -0.6580 -0.0875
  265MOL0     C36459   8.812   4.319   2.900  0.0391 -0.5927  0.1690
  265MOL0     C36460   8.817   4.354   2.752 -0.0173 -0.0634  0.6194
  265MOL0     C36461   8.733   4.390   2.989 -0.2201  0.2774 -0.7574
  265MOL0     C36462   8.653   4.507   2.957 -0.8493 -0.1638  1.3670
  265MOL0     O36463   8.693   4.592   2.865 -0.7768 -0.0477  0.5899
  265MOL0     C36464   8.607   4.698   2.829  0.1974  0.8033 -0.3669
  265MOL0     C36465   8.495   4.679   2.746  0.0437  0.2117  0.8116
  265MOL0     C36466   8.414   4.786   2.705 -0.5637 -0.3080  0.7286
  265MOL0     C36467   8.434   4.916   2.749  0.0178  0.0361 -0.7411
  265MOL0     O36468   8.335   5.016   2.730  0.5728  0.6640  0.3437
  265MOL0     C36469   8.235   5.030   2.828  0.5369  0.8118  0.0505
  265MOL0     C36470   8.104   5.075   2.755 -0.1017  0.4608  0.6203
  265MOL0     C36471   7.984   5.103   2.851  0.0687  0.6225  0.5627
  265MOL0     C36472   7.947   4.984   2.939 -0.4394 -0.4577 -0.2520
  265MOL0     C36473   7.836   5.023   3.041 -0.0891 -0.5691  0.3041
  265MOL0     C36474   7.700   5.039   2.975 -0.1058 -0.7570  0.0313
  265MOL0     C36475   7.607   5.111   3.078 -0.6755  0.9848  0.5096
  265MOL0     C36476   7.468   5.092   3.038 -0.3617 -0.8577 -0.8999
  265MOL0    Cl36477   7.361   5.144   3.178 -0.1965 -0.1205  0.1305
  265MOL0     C36478   8.531   4.941   2.845  0.0350 -0.3537  0.7272
  265MOL0     C36479   8.623   4.831   2.885  1.4212 -0.7240  0.4998
  265MOL0     O36480   8.547   4.514   3.016 -0.4639  0.8403  0.4683
  265MOL0     C36481   8.718   4.336   3.124 -0.2843 -0.0939  0.0357
  265MOL0     C36482   8.784   4.225   3.161 -0.4328  0.2190 -0.6937
  265MOL0     N36483   9.340   3.689   3.385  0.3185 -0.6269  1.2330
  265MOL0     N36484   9.371   3.654   3.506 -0.0025 -0.6055 -0.9995
  265MOL0     C36485   9.374   3.184   4.314 -0.2182  0.2250 -0.6081
  265MOL0     C36486   9.348   3.054   4.273 -0.3598 -0.1297  0.0282
  265MOL0     C36487   9.435   2.693   3.962 -0.6253 -0.0677 -0.0329
  265MOL0     C36488   9.475   2.592   4.058  0.7218 -0.2915  0.2303
  265MOL0     C36489   9.501   2.465   4.021  1.1992  0.8275 -0.5010
  265MOL0     C36490   9.489   2.434   3.887  0.3497 -0.3900  0.8823
  265MOL0     O36491   9.526   2.311   3.830  0.3453 -0.0009  0.1601
  265MOL0     C36492   9.527   2.196   3.915  0.4109 -0.4692 -0.6855
  265MOL0     C36493   9.535   2.067   3.822  0.0008 -0.8099 -0.4528
  265MOL0     C36494   9.400   2.052   3.737  0.2870  0.1441  1.2462
  265MOL0     C36495   9.266   2.041   3.815  0.0522  0.3996  0.5128
  265MOL0     C36496   9.167   2.005   3.711  0.0523  0.4000  0.3336
  265MOL0     C36497   9.101   1.976   3.618  0.5032  0.6763  0.0043
  265MOL0     C36498   9.456   2.530   3.793 -0.9011 -0.2110 -0.6677
  265MOL0     C36499   9.437   2.661   3.820 -0.2838 -1.5613  0.3320
  265MOL0     C36500   9.397   2.763   3.712 -0.5325  1.1912  0.5459
  265MOL0     H36501   9.625   3.004   4.089 -0.7032  1.8733 -2.1547
  265MOL0     H36502   9.682   3.225   4.152 -0.8937  1.0715 -2.6271
  265MOL0     H36503   9.561   3.432   4.108  0.3902 -1.4911  0.3413
  265MOL0     H36504   9.674   3.474   4.237 -0.0771 -2.9657 -1.8017
  265MOL0     H36505   9.493   3.657   4.325  2.7583 -0.1285  0.1095
  265MOL0     H36506   9.551   3.693   4.171  2.6171 -1.8157 -1.5790
  265MOL0     H36507   9.339   3.513   4.100 -2.0882  1.1648 -1.0789
  265MOL0     H36508   9.294   3.592   4.258 -0.9701 -2.5531 -1.3200
  265MOL0     H36509   9.304   3.816   4.114  0.4843  0.0342 -0.6990
  265MOL0     H36510   9.378   3.728   3.988  3.3730  4.7695  2.6236
  265MOL0     H36511   9.105   3.690   4.111  0.1594 -0.8130 -0.1459
  265MOL0     H36512   9.159   3.589   3.978  1.7731 -0.6255  0.4850
  265MOL0     H36513   9.024   3.768   3.882  1.0915 -1.5148 -2.3195
  265MOL0     H36514   9.124   3.896   3.949  1.3266  2.0584 -2.0865
  265MOL0     H36515   9.303   3.856   3.809 -0.5432  1.4210 -2.3008
  265MOL0     H36516   9.155   3.858   3.719  0.0786 -1.4217  0.0694
  265MOL0     H36517   9.352   3.650   3.764 -0.0568  4.1133  0.7530
  265MOL0     H36518   9.181   3.599   3.759 -2.6533  1.8653  0.3113
  265MOL0     H36519   9.074   3.780   3.535  1.3410  0.2156  3.2540
  265MOL0     H36520   9.040   3.781   3.247 -0.8021  0.3326 -1.2958
  265MOL0     H36521   9.189   3.738   3.164 -0.5752 -0.4124  1.2885
  265MOL0     H36522   9.107   4.006   3.290  1.4289  1.7615  0.4634
  265MOL0     H36523   9.274   3.960   3.240  0.0972 -1.4783 -2.3944
  265MOL0     H36524   9.146   4.081   3.057 -2.3315  0.8081  1.6338
  265MOL0     H36525   9.189   3.913   3.022 -2.1450 -1.4030 -0.0781
  265MOL0     H36526   8.959   3.954   2.937 -1.0591 -1.5913  0.3999
  265MOL0     H36527   8.959   3.837   3.062 -1.2075 -0.1234 -2.1649
  265MOL0     H36528   8.903   4.140   2.851  1.6175 -3.1042  2.3942
  265MOL0     H36529   8.837   4.265   2.691 -2.2641 -0.6173  0.5668
  265MOL0     H36530   8.896   4.425   2.730 -1.9885  1.4259 -2.1646
  265MOL0     H36531   8.723   4.403   2.724  0.0129  0.5465  1.5488
  265MOL0     H36532   8.492   4.586   2.691  2.5049  0.2206  0.5746
  265MOL0     H36533   8.324   4.758   2.652  0.8970 -3.0828 -0.4901
  265MOL0     H36534   8.222   4.937   2.884  2.2728  1.8772  2.4235
  265MOL0     H36535   8.259   5.115   2.893  0.4616  2.0528 -1.4818
  265MOL0     H36536   8.120   5.169   2.702  0.1056 -0.1584 -0.4549
  265MOL0     H36537   8.087   5.000   2.676  2.3243  3.3558 -2.9864
  265MOL0     H36538   7.893   5.125   2.795 -1.8593 -3.3476  1.8069
  265MOL0     H36539   8.019   5.193   2.905  0.1731 -0.1043  1.7542
  265MOL0     H36540   8.028   4.965   3.010 -1.5315 -1.0202  0.9005
  265MOL0     H36541   7.933   4.897   2.874 -0.0624  0.3273 -1.4144
  265MOL0     H36542   7.824   4.957   3.127 -2.8523  0.7712  1.0486
  265MOL0     H36543   7.854   5.126   3.073 -0.9646 -0.0699 -0.7722
  265MOL0     H36544   7.658   4.943   2.947 -2.3088  0.4155 -0.9247
  265MOL0     H36545   7.710   5.098   2.884  3.2889 -4.0079 -1.9987
  265MOL0     H36546   7.631   5.215   3.102 -0.0325  0.3364  2.9362
  265MOL0     H36547   7.610   5.054   3.172  2.0393 -1.7637 -1.0639
  265MOL0     H36548   7.449   4.987   3.016  4.0454 -1.3480 -3.7083
  265MOL0     H36549   7.454   5.156   2.951 -3.4457  0.3546  0.3478
  265MOL0     H36550   8.524   5.041   2.888 -1.6419 -1.4192  3.1464
  265MOL0     H36551   8.715   4.845   2.941  0.4177  2.4680  1.5605
  265MOL0     H36552   8.674   4.395   3.204  1.2595 -1.5187  2.0475
  265MOL0     H36553   8.784   4.214   3.269  0.2071  1.5162 -0.5450
  265MOL0     H36554   9.321   3.235   4.394  3.5326  2.2018  0.8825
  265MOL0     H36555   9.263   3.003   4.317 -0.4332 -1.9231 -2.0218
  265MOL0     H36556   9.477   2.626   4.161  0.1986  0.7694 -0.0966
  265MOL0     H36557   9.534   2.399   4.100 -0.4052 -1.8984 -1.9481
  265MOL0     H36558   9.619   2.207   3.974 -0.2921  2.0828  0.0887
  265MOL0     H36559   9.439   2.190   3.980 -0.7621  2.1870 -1.8506
  265MOL0     H36560   9.539   1.980   3.888 -0.5427 -0.6612 -0.2188
  265MOL0     H36561   9.623   2.075   3.758 -0.5408 -2.4228 -1.4510
  265MOL0     H36562   9.389   2.141   3.673 -1.0897 -0.4891  0.5578
  265MOL0     H36563   9.410   1.974   3.661 -1.8414  3.3697 -2.8584
  265MOL0     H36564   9.248   2.138   3.862  2.7606  0.9643  0.5127
  265MOL0     H36565   9.262   1.965   3.894 -2.8547 -1.1249 -0.9309
  265MOL0     H36566   9.042   1.938   3.537 -0.8803  0.4136  1.1068
  265MOL0     H36567   9.451   2.500   3.689  1.6725 -1.0241 -0.6274
  265MOL0     H36568   9.374   2.712   3.618 -1.1849 -0.9098  1.7686
  265MOL0     H36569   9.303   2.810   3.741 -2.0369 -0.9383 -0.5858
  265MOL0     H36570   9.475   2.838   3.698 -0.5439  0.8643 -1.6870
  266MOL0     O36571   5.178   6.040   0.609  0.3524  0.0615  0.6510
  266MOL0     C36572   5.130   6.145   0.569  0.6903  0.6753 -0.0902
  266MOL0     O36573   5.135   6.190   0.437  0.5343  0.1761  0.1226
  266MOL0     C36574   5.142   6.105   0.332  0.2720 -0.6833 -0.0437
  266MOL0     C36575   5.230   6.133   0.226  0.1004 -0.0318 -0.1972
  266MOL0     C36576   5.229   6.056   0.111 -0.1605 -0.3290  0.4986
  266MOL0     C36577   5.133   5.946   0.094  0.3202  0.3556  0.1226
  266MOL0     O36578   5.121   5.869  -0.016 -0.7508 -0.2470 -0.2697
  266MOL0     C36579   5.164   5.923  -0.141  0.0031 -0.1126 -0.9765
  266MOL0     C36580   5.078   5.846  -0.235  0.0512  0.4092  0.8749
  266MOL0     C36581   5.120   5.845  -0.384 -0.7579  0.0491 -1.2729
  266MOL0     C36582   5.015   5.801  -0.469  0.2757  0.3673 -0.0012
  266MOL0     C36583   5.067   5.794  -0.607  0.0815  0.1968  0.0681
  266MOL0     C36584   4.965   5.766  -0.721 -0.0543  0.5761 -0.0427
  266MOL0     C36585   4.856   5.879  -0.713 -0.0207  0.8669 -0.1297
  266MOL0     C36586   4.726   5.854  -0.628 -1.1249  0.0505 -0.0249
  266MOL0     N36587   4.668   5.729  -0.659 -0.1862  0.6013 -0.0926
  266MOL0     C36588   4.688   5.627  -0.571 -0.7811 -0.9957  0.1171
  266MOL0     C36589   4.651   5.525  -0.645 -0.4119 -0.0870  0.0534
  266MOL0     C36590   4.658   5.382  -0.612  0.1431  0.2975  1.1496
  266MOL0     C36591   4.790   5.313  -0.662 -0.5431  0.0433 -0.8886
  266MOL0     C36592   4.823   5.178  -0.599 -0.9462 -0.7877  0.0079
  266MOL0     C36593   4.954   5.134  -0.650  0.5350  0.7344  0.0076
  266MOL0     O36594   4.987   5.003  -0.601  0.2315  0.1862 -0.5742
  266MOL0     C36595   5.042   4.999  -0.477  1.1250  0.4407 -0.4592
  266MOL0     C36596   4.969   4.948  -0.366 -0.4441 -0.7089 -0.2909
  266MOL0     C36597   5.031   4.959  -0.232  0.0030  0.1429  0.2860
  266MOL0     C36598   4.956   4.881  -0.116 -0.1034 -0.4607  0.2223
  266MOL0     C36599   5.155   5.019  -0.212  0.1365  0.4970  0.0345
  266MOL0     C36600   5.224   5.030  -0.079  0.2227  0.5600  0.6819
  266MOL0     O36601   5.148   5.012   0.028 -0.1121  0.0564 -0.0223
  266MOL0     C36602   5.203   5.013   0.155 -0.7923 -0.7510 -0.0621
  266MOL0     C36603   5.198   4.896   0.226 -0.0067  0.3829 -0.2613
  266MOL0     C36604   5.238   4.889   0.352  0.2492 -0.5660 -1.0268
  266MOL0     C36605   5.296   5.000   0.426  0.1177  0.5696  0.4216
  266MOL0     O36606   5.336   4.994   0.555 -0.4249 -0.1831  0.4430
  266MOL0     C36607   5.470   4.972   0.558  0.5478  0.0514  0.5643
  266MOL0     C36608   5.529   5.002   0.693 -0.5847  0.6906  0.5457
  266MOL0     C36609   5.674   4.933   0.700 -0.0108 -0.4716 -0.2592
  266MOL0     C36610   5.724   4.942   0.844  0.6736 -0.0617 -0.2007
  266MOL0     C36611   5.835   4.842   0.890 -0.5937  0.7523  0.1862
  266MOL0     C36612   5.873   4.840   1.035  0.0498 -0.5964  0.3775
  266MOL0     C36613   5.780   4.764   1.136 -0.4312  0.6338 -0.4419
  266MOL0     C36614   5.842   4.625   1.147  0.3039 -0.0542 -0.8265
  266MOL0    Cl36615   5.977   4.629   1.271 -0.3046  0.0820  0.0087
  266MOL0     C36616   5.315   5.117   0.353 -0.6025  1.1093 -0.5315
  266MOL0     C36617   5.268   5.128   0.220 -0.2144 -0.8619  0.2109
  266MOL0     O36618   5.350   5.042  -0.082 -0.0917 -0.5211 -0.5813
  266MOL0     C36619   5.229   5.051  -0.336  0.3892  0.0334 -0.5638
  266MOL0     C36620   5.170   5.039  -0.462  0.2711 -0.3917  0.4402
  266MOL0     N36621   4.590   5.566  -0.766 -0.2725 -0.1845  0.0165
  266MOL0     N36622   4.599   5.691  -0.767  0.9687 -0.5957 -0.6995
  266MOL0     C36623   5.049   5.928   0.202 -0.1138  0.5039 -0.2715
  266MOL0     C36624   5.043   6.003   0.316 -0.3120 -0.1567 -0.5318
  266MOL0     C36625   5.069   6.237   0.666 -0.5949  0.4380  0.2994
  266MOL0     C36626   5.031   6.364   0.630  0.1797 -0.3836  0.6117
  266MOL0     C36627   4.971   6.455   0.715  1.2482  0.3472  0.3080
  266MOL0     C36628   4.967   6.421   0.855  0.1496 -0.1449  0.5080
  266MOL0     O36629   4.916   6.517   0.946 -0.1807 -0.3271 -0.4649
  266MOL0     C36630   4.779   6.509   0.977  0.7544 -0.3055 -0.3373
  266MOL0     C36631   4.751   6.592   1.097  0.0206  0.0017 -0.5603
  266MOL0     C36632   4.839   6.550   1.216 -0.1213 -0.7401  0.0176
  266MOL0     C36633   4.791   6.618   1.339  0.1059 -0.6823  0.3600
  266MOL0     C36634   4.825   6.755   1.354 -0.2162 -0.6974 -0.6476
  266MOL0     C36635   4.867   6.872   1.364 -0.1971  0.5832  0.0656
  266MOL0     C36636   5.018   6.301   0.898  0.5135 -0.4295  0.1173
  266MOL0     C36637   5.060   6.204   0.812  0.8534 -0.1963  0.6559
  266MOL0     C36638   5.083   6.065   0.874  0.3534 -0.7966 -0.0136
  266MOL0     H36639   5.292   6.222   0.235  1.9748 -1.2283 -0.7762
  266MOL0     H36640   5.302   6.078   0.033 -0.0436 -0.0699  0.6797
  266MOL0     H36641   5.269   5.901  -0.159 -0.1395 -0.8910 -0.8798
  266MOL0     H36642   5.132   6.028  -0.134 -3.2023 -0.9927 -0.7357
  266MOL0     H36643   5.064   5.744  -0.200  0.0296 -0.4794 -1.5221
  266MOL0     H36644   4.974   5.879  -0.230 -0.1825 -0.0591 -0.4542
  266MOL0     H36645   5.148   5.946  -0.414  3.6011 -0.2949  0.7662
  266MOL0     H36646   5.209   5.782  -0.397 -2.0677 -1.8165 -1.6144
  266MOL0     H36647   4.976   5.703  -0.442  1.3079 -0.5191 -1.5487
  266MOL0     H36648   4.934   5.872  -0.453  0.5669  1.0222 -1.3032
  266MOL0     H36649   5.141   5.713  -0.606  1.4550  1.4131  1.0973
  266MOL0     H36650   5.124   5.882  -0.640  0.8173 -0.1296  0.4388
  266MOL0     H36651   5.014   5.792  -0.815 -0.7099  0.6037 -0.3851
  266MOL0     H36652   4.923   5.664  -0.719 -1.1803  1.0231  2.0449
  266MOL0     H36653   4.808   5.895  -0.810 -1.6443  0.9346  0.6492
  266MOL0     H36654   4.894   5.973  -0.672 -0.8318 -0.0934  3.1551
  266MOL0     H36655   4.737   5.867  -0.520  0.6697 -1.3166 -0.0100
  266MOL0     H36656   4.651   5.924  -0.666 -2.5613 -1.7287 -0.6441
  266MOL0     H36657   4.745   5.624  -0.479  0.5964 -1.2863 -0.7126
  266MOL0     H36658   4.584   5.331  -0.675  1.5777  0.2383 -0.5572
  266MOL0     H36659   4.650   5.366  -0.504  0.7310  0.2537  1.1855
  266MOL0     H36660   4.787   5.312  -0.771 -0.6701  2.8345 -0.9737
  266MOL0     H36661   4.861   5.388  -0.626  0.3487 -0.2946 -1.9094
  266MOL0     H36662   4.832   5.200  -0.492 -1.0655  1.3913 -0.3794
  266MOL0     H36663   4.741   5.108  -0.620 -1.1171  0.0232 -2.3344
  266MOL0     H36664   4.943   5.112  -0.757  0.1479  0.5907  0.0778
  266MOL0     H36665   5.029   5.214  -0.641  0.8807  0.3488  0.5667
  266MOL0     H36666   4.863   4.926  -0.379 -0.1087 -0.7636 -3.9635
  266MOL0     H36667   4.855   4.859  -0.150 -0.7072  2.0785  0.1740
  266MOL0     H36668   4.940   4.933  -0.021  2.3671 -2.0315  1.6272
  266MOL0     H36669   5.013   4.789  -0.097  2.7917  0.6626 -2.1808
  266MOL0     H36670   5.162   4.805   0.178  1.1661  0.3692 -1.1655
  266MOL0     H36671   5.245   4.790   0.398  0.2932 -1.1276 -2.2083
  266MOL0     H36672   5.473   4.863   0.551  2.5256 -0.0867  2.2851
  266MOL0     H36673   5.532   5.018   0.481 -2.4034  1.0378 -1.3586
  266MOL0     H36674   5.534   5.109   0.715 -1.3685  0.0599  4.5865
  266MOL0     H36675   5.457   4.965   0.767 -0.5198 -3.2277 -1.1098
  266MOL0     H36676   5.749   4.991   0.646  1.2944 -1.1824  0.7405
  266MOL0     H36677   5.675   4.827   0.671  3.3489 -1.0735  1.5258
  266MOL0     H36678   5.633   4.917   0.899  0.2015 -3.0838 -2.1286
  266MOL0     H36679   5.751   5.045   0.868 -3.0893  0.9276  0.3309
  266MOL0     H36680   5.801   4.742   0.860 -0.4108  0.7255  0.0607
  266MOL0     H36681   5.915   4.859   0.817 -0.5687 -1.4707 -0.3787
  266MOL0     H36682   5.900   4.940   1.071  1.9745 -0.9841  0.1234
  266MOL0     H36683   5.969   4.788   1.036  1.1870  1.2755 -2.2007
  266MOL0     H36684   5.679   4.741   1.099 -0.9061 -0.3494  1.3414
  266MOL0     H36685   5.779   4.810   1.235 -1.9673  1.0190 -0.6002
  266MOL0     H36686   5.876   4.587   1.050  1.5219 -0.1463 -0.3871
  266MOL0     H36687   5.753   4.570   1.178  1.3681 -0.9383  0.8074
  266MOL0     H36688   5.371   5.200   0.396  0.4862  0.1187 -0.0031
  266MOL0     H36689   5.280   5.222   0.168 -2.2316  1.2749  3.2458
  266MOL0     H36690   5.322   5.106  -0.328  1.8810 -2.5317  1.5909
  266MOL0     H36691   5.222   5.094  -0.539  1.2283 -0.9962  0.6298
  266MOL0     H36692   4.989   5.838   0.196  3.0437 -1.7483 -0.2998
  266MOL0     H36693   4.965   5.989   0.390 -0.6120 -0.9626 -0.9875
  266MOL0     H36694   5.048   6.411   0.534  1.4390  2.1261  1.9700
  266MOL0     H36695   4.943   6.553   0.678 -1.3377 -0.8718 -1.2668
  266MOL0     H36696   4.721   6.552   0.894  4.9824  3.7802 -1.5544
  266MOL0     H36697   4.740   6.408   0.994  0.3519 -0.3482 -1.3981
  266MOL0     H36698   4.645   6.583   1.120 -0.3981  0.2231 -2.2847
  266MOL0     H36699   4.766   6.695   1.065 -0.8207  0.0056 -0.9590
  266MOL0     H36700   4.837   6.442   1.238 -0.0825 -0.1595  3.5681
  266MOL0     H36701   4.940   6.589   1.198 -1.6203  2.6332 -1.9022
  266MOL0     H36702   4.837   6.570   1.425 -2.7648 -3.4992  0.5251
  266MOL0     H36703   4.684   6.597   1.353  0.1665  0.1530  2.4315
  266MOL0     H36704   4.897   6.975   1.358  0.2909  0.3700 -1.4207
  266MOL0     H36705   5.013   6.275   1.003  1.7222  0.2872  0.3697
  266MOL0     H36706   5.028   5.989   0.817 -1.8355  1.2490 -0.7848
  266MOL0     H36707   5.191   6.046   0.883  0.1846 -1.2366  1.2021
  266MOL0     H36708   5.046   6.060   0.976 -0.9576  0.3934 -0.3948
  267MOL0     O36709   5.181   4.615  10.467  0.6174 -0.5660 -0.8022
  267MOL0     C36710   5.138   4.673  10.565  1.5851  0.2122 -1.0973
  267MOL0     O36711   5.007   4.713  10.592 -0.3787 -0.2703  0.1259
  267MOL0     C36712   4.931   4.738  10.476  0.3657  0.2001  0.0807
  267MOL0     C36713   4.903   4.872  10.443 -0.8353  0.1020 -0.6936
  267MOL0     C36714   4.824   4.905  10.331  0.3229 -1.0246 -0.8987
  267MOL0     C36715   4.763   4.803  10.256 -0.0142  0.7160  1.1159
  267MOL0     O36716   4.680   4.836  10.153  0.0399  0.0558  0.8641
  267MOL0     C36717   4.703   4.960  10.074 -0.4104  0.4988  0.2652
  267MOL0     C36718   4.647   4.947   9.935 -0.3377  0.9441  0.4173
  267MOL0     C36719   4.625   5.085   9.871 -0.3450  0.6510 -0.8368
  267MOL0     C36720   4.572   5.081   9.729 -0.1208 -0.0904  0.9792
  267MOL0     C36721   4.553   5.218   9.663 -0.3117  0.1375  0.2803
  267MOL0     C36722   4.444   5.297   9.734  0.4980 -0.5935 -0.7266
  267MOL0     C36723   4.395   5.431   9.673 -1.0717  1.2760 -0.3097
  267MOL0     C36724   4.524   5.508   9.611 -0.3512  0.3536 -0.2775
  267MOL0     N36725   4.606   5.571   9.709  0.2013 -0.1798 -0.2665
  267MOL0     C36726   4.559   5.662   9.792  0.6082  0.2783  0.7974
  267MOL0     C36727   4.669   5.686   9.874 -1.5578  0.0986 -0.9394
  267MOL0     C36728   4.701   5.790   9.983  0.1617 -0.5449  0.8784
  267MOL0     C36729   4.600   5.908   9.988 -0.5100  0.0125 -0.5635
  267MOL0     C36730   4.619   5.997   9.867 -0.8583 -0.8842 -0.0544
  267MOL0     C36731   4.505   6.109   9.852 -0.2458 -0.2155  1.0716
  267MOL0     O36732   4.381   6.057   9.828  0.3209 -0.0003  0.6574
  267MOL0     C36733   4.365   5.980   9.712 -0.4736  0.3853  0.8311
  267MOL0     C36734   4.427   6.022   9.588  0.2834 -0.0344  0.2590
  267MOL0     C36735   4.405   5.962   9.466 -0.4390 -0.5636 -0.5255
  267MOL0     C36736   4.479   6.030   9.354  0.5582  0.5269  0.3219
  267MOL0     C36737   4.310   5.853   9.462  0.1781 -0.1210  0.3842
  267MOL0     C36738   4.270   5.789   9.331  0.7257 -0.6883  0.1745
  267MOL0     O36739   4.232   5.665   9.337  0.1170  0.3409 -1.1056
  267MOL0     C36740   4.232   5.578   9.232  0.0259 -0.5190  0.6967
  267MOL0     C36741   4.122   5.499   9.210  0.9573  0.4076  0.3723
  267MOL0     C36742   4.127   5.399   9.111  0.1536  0.8568 -0.3629
  267MOL0     C36743   4.249   5.384   9.036 -0.0453  0.0377 -0.1070
  267MOL0     O36744   4.249   5.278   8.949 -0.2147  0.6031 -0.5545
  267MOL0     C36745   4.244   5.149   9.008  0.1546 -1.5378 -0.3285
  267MOL0     C36746   4.281   5.040   8.908  0.1495 -0.2793 -1.5181
  267MOL0     C36747   4.340   4.924   9.005 -0.0178 -0.8000  0.3028
  267MOL0     C36748   4.382   4.810   8.919 -0.0261  0.0450  0.7024
  267MOL0     C36749   4.435   4.702   9.017 -0.0348  0.6601  0.5248
  267MOL0     C36750   4.477   4.573   8.943 -0.7428 -1.0208 -0.4268
  267MOL0     C36751   4.596   4.591   8.849  0.6947  0.2593 -0.0995
  267MOL0     C36752   4.642   4.452   8.805  0.0536 -0.7173 -0.1479
  267MOL0    Cl36753   4.736   4.363   8.924  0.5937  0.1748  0.3186
  267MOL0     C36754   4.353   5.463   9.053  0.3166 -0.7024  0.6131
  267MOL0     C36755   4.344   5.565   9.147 -0.8735  0.0176  0.2742
  267MOL0     O36756   4.293   5.848   9.233  0.5409  0.5566 -0.7364
  267MOL0     C36757   4.244   5.816   9.575 -0.1046  0.2239 -0.8670
  267MOL0     C36758   4.273   5.879   9.697  1.0019 -0.6583 -0.0935
  267MOL0     N36759   4.771   5.591   9.845 -0.0488 -0.6965  0.2338
  267MOL0     N36760   4.732   5.526   9.742 -0.0867  0.1567 -0.1263
  267MOL0     C36761   4.785   4.669  10.300 -0.2482 -0.1647 -0.4736
  267MOL0     C36762   4.872   4.633  10.406  0.1522 -0.0913  0.1400
  267MOL0     C36763   5.225   4.692  10.686 -0.4642 -0.0201  0.1587
  267MOL0     C36764   5.163   4.694  10.808 -0.4849 -0.4980  0.3827
  267MOL0     C36765   5.232   4.715  10.928 -0.9265  0.7984 -0.1888
  267MOL0     C36766   5.370   4.752  10.921 -0.7349 -0.9354  0.2826
  267MOL0     O36767   5.449   4.787  11.034 -0.4818  0.1448  1.0183
  267MOL0     C36768   5.389   4.755  11.161 -0.0341  0.7796  0.5039
  267MOL0     C36769   5.486   4.786  11.278  0.7488 -1.1240 -0.2012
  267MOL0     C36770   5.456   4.717  11.411 -0.0639  0.0905  0.5436
  267MOL0     C36771   5.535   4.758  11.530 -0.3362  0.2852 -0.0073
  267MOL0     C36772   5.477   4.682  11.648 -0.2114  0.8453 -0.1248
  267MOL0     C36773   5.424   4.616  11.733  0.6394 -0.3387 -0.1636
  267MOL0     C36774   5.429   4.750  10.796  0.0286  0.3327 -0.1481
  267MOL0     C36775   5.366   4.720  10.682  0.3968  0.6349  0.1243
  267MOL0     C36776   5.443   4.709  10.549  0.4775 -0.3135  0.5902
  267MOL0     H36777   4.956   4.952  10.494 -0.3126  1.6958 -3.5377
  267MOL0     H36778   4.792   5.005  10.303 -1.0063 -0.4002  2.3352
  267MOL0     H36779   4.810   4.976  10.059 -0.8497  2.3685 -1.3612
  267MOL0     H36780   4.659   5.047  10.123  0.1695  0.3575  1.0573
  267MOL0     H36781   4.712   4.883   9.874 -0.2622  1.9126 -0.5354
  267MOL0     H36782   4.556   4.886   9.934 -0.4847  1.1076 -2.0548
  267MOL0     H36783   4.558   5.128   9.946  0.4537 -1.3763  1.1657
  267MOL0     H36784   4.712   5.151   9.879  0.8551 -0.7813 -1.5741
  267MOL0     H36785   4.639   5.023   9.665  1.5014  2.9473 -0.3058
  267MOL0     H36786   4.481   5.021   9.726  1.3878 -2.5400 -2.6095
  267MOL0     H36787   4.517   5.200   9.562 -0.0677 -0.0349  0.2231
  267MOL0     H36788   4.652   5.262   9.676 -0.1433  0.6032 -2.2654
  267MOL0     H36789   4.360   5.228   9.728  2.1681 -2.6213 -1.8341
  267MOL0     H36790   4.472   5.302   9.840  1.9793 -1.1296 -1.0657
  267MOL0     H36791   4.344   5.489   9.750  0.1750  1.8960  0.0839
  267MOL0     H36792   4.318   5.403   9.601 -3.5423  0.3555  2.5105
  267MOL0     H36793   4.583   5.456   9.536 -0.4165 -0.5431  0.2724
  267MOL0     H36794   4.478   5.585   9.549 -2.2358 -0.3471  0.1553
  267MOL0     H36795   4.459   5.706   9.794 -0.0916 -1.2319  0.1797
  267MOL0     H36796   4.802   5.832   9.976 -0.1128  0.1800  1.2124
  267MOL0     H36797   4.691   5.734  10.076  1.4155 -0.1894  1.2427
  267MOL0     H36798   4.495   5.875   9.992 -0.5868  0.2460 -0.6500
  267MOL0     H36799   4.609   5.963  10.082  1.6383  1.1182 -1.3578
  267MOL0     H36800   4.712   6.050   9.889 -0.2521 -2.0031  0.1272
  267MOL0     H36801   4.629   5.933   9.779  0.6206 -1.6197  0.6193
  267MOL0     H36802   4.507   6.146   9.955  1.1981 -2.4973  1.9509
  267MOL0     H36803   4.535   6.180   9.774 -1.7956 -0.9166 -0.2243
  267MOL0     H36804   4.497   6.105   9.583  0.5656 -0.3202 -3.3948
  267MOL0     H36805   4.580   6.059   9.384  0.2540 -0.2265  2.1584
  267MOL0     H36806   4.415   6.106   9.308 -1.8696 -1.6978 -0.2306
  267MOL0     H36807   4.510   5.963   9.273  3.7738  1.5978  0.5348
  267MOL0     H36808   4.037   5.500   9.278  0.0759  2.5986 -0.6742
  267MOL0     H36809   4.036   5.339   9.107 -0.2657  1.5499 -2.9066
  267MOL0     H36810   4.312   5.150   9.094 -0.9521  3.7662  0.8755
  267MOL0     H36811   4.146   5.122   9.051 -0.6505  1.6180  0.0857
  267MOL0     H36812   4.191   4.995   8.865  0.2024 -1.9621 -0.0144
  267MOL0     H36813   4.355   5.082   8.840  2.3091  0.3767  1.0609
  267MOL0     H36814   4.272   4.883   9.080  1.1687 -0.8672  1.3871
  267MOL0     H36815   4.427   4.970   9.054 -0.1633  2.2255 -2.0141
  267MOL0     H36816   4.471   4.841   8.863 -0.3101 -0.4161 -0.0202
  267MOL0     H36817   4.308   4.776   8.845  2.2722  2.5896 -3.1096
  267MOL0     H36818   4.525   4.743   9.064  1.0523 -2.4649  1.3856
  267MOL0     H36819   4.365   4.685   9.100 -1.9567  2.2588 -0.6561
  267MOL0     H36820   4.388   4.551   8.884 -2.1300  0.5093  1.0278
  267MOL0     H36821   4.495   4.497   9.020  4.8748  0.0269 -0.2489
  267MOL0     H36822   4.674   4.656   8.890  0.2579  1.0348 -0.4784
  267MOL0     H36823   4.561   4.633   8.754 -0.9666 -0.7226  0.0337
  267MOL0     H36824   4.715   4.453   8.722  2.2903  1.8922  1.6776
  267MOL0     H36825   4.553   4.397   8.774 -1.2317  1.5373 -0.6069
  267MOL0     H36826   4.442   5.463   8.990  0.2409 -2.0338  0.4930
  267MOL0     H36827   4.432   5.629   9.140 -1.6426  0.8920 -3.4668
  267MOL0     H36828   4.170   5.738   9.590 -1.5987  1.8242  0.5403
  267MOL0     H36829   4.230   5.857   9.795 -0.8232  0.7441 -0.5206
  267MOL0     H36830   4.722   4.597  10.249 -1.4316  1.0576 -0.8044
  267MOL0     H36831   4.898   4.535  10.444  2.5939 -0.0571 -1.2374
  267MOL0     H36832   5.057   4.667  10.809 -0.1663 -2.1202 -1.6016
  267MOL0     H36833   5.188   4.694  11.025 -0.9415 -0.9979 -0.5573
  267MOL0     H36834   5.290   4.801  11.173 -0.9669 -0.9118 -0.3149
  267MOL0     H36835   5.375   4.648  11.179  0.3211  0.8846  1.4946
  267MOL0     H36836   5.493   4.895  11.287  0.3100 -1.1864  1.1430
  267MOL0     H36837   5.576   4.740  11.238 -0.4739 -4.4200  0.5208
  267MOL0     H36838   5.352   4.734  11.441 -0.5080  0.3669 -1.0829
  267MOL0     H36839   5.481   4.612  11.394  3.2571  0.5248  1.8523
  267MOL0     H36840   5.521   4.865  11.550  0.8536  0.6689 -1.0672
  267MOL0     H36841   5.644   4.749  11.517 -0.1339  2.5901 -0.3181
  267MOL0     H36842   5.379   4.550  11.804  1.9722  0.6975  1.7260
  267MOL0     H36843   5.533   4.778  10.778  0.1438 -0.4403 -0.7122
  267MOL0     H36844   5.392   4.783  10.487  0.2087 -0.8434  0.1733
  267MOL0     H36845   5.551   4.726  10.554  0.6469 -1.4799  1.3667
  267MOL0     H36846   5.425   4.614  10.499  0.7441 -0.7288  1.2668
  268MOL0     O36847   7.682   8.844   7.496  0.5778  0.2655  0.0295
  268MOL0     C36848   7.759   8.776   7.564 -0.5485 -1.4449 -0.0623
  268MOL0     O36849   7.737   8.729   7.693 -0.4328 -0.2134 -0.9947
  268MOL0     C36850   7.630   8.761   7.765  0.0145  0.4054 -0.0285
  268MOL0     C36851   7.583   8.890   7.768 -0.4057 -0.5222  0.1681
  268MOL0     C36852   7.486   8.933   7.861  0.6827 -0.6389  0.2427
  268MOL0     C36853   7.419   8.837   7.929  0.0556  0.1413 -1.3385
  268MOL0     O36854   7.311   8.840   8.023  0.2749  0.2550 -0.1983
  268MOL0     C36855   7.254   8.968   8.053  0.8448 -0.1861 -0.0071
  268MOL0     C36856   7.120   8.963   8.129  0.1269 -0.5349 -0.6887
  268MOL0     C36857   7.145   8.960   8.280  0.4330  0.4935  0.3797
  268MOL0     C36858   7.018   8.969   8.352  0.1701  0.4939 -0.3198
  268MOL0     C36859   6.948   8.826   8.327 -0.5487  0.4337 -0.4618
  268MOL0     C36860   6.846   8.803   8.444  0.5974 -0.8619  0.9625
  268MOL0     C36861   6.794   8.662   8.431  0.1452 -0.2267 -1.0379
  268MOL0     C36862   6.702   8.615   8.551 -0.7775 -0.4630 -0.6042
  268MOL0     N36863   6.557   8.646   8.541 -0.0093 -0.3782  0.7610
  268MOL0     C36864   6.505   8.769   8.504 -1.0042 -0.1150  0.6237
  268MOL0     C36865   6.378   8.765   8.536 -0.5871  0.5558 -0.5641
  268MOL0     C36866   6.289   8.889   8.520 -0.4129  0.3126  0.1686
  268MOL0     C36867   6.308   8.999   8.629 -0.5318  0.8945  0.0398
  268MOL0     C36868   6.234   9.129   8.585 -0.0791  0.3760 -0.4684
  268MOL0     C36869   6.227   9.230   8.701 -0.8254  0.2046 -0.3791
  268MOL0     O36870   6.180   9.163   8.819 -0.3759 -0.0409  1.2081
  268MOL0     C36871   6.166   9.254   8.925 -0.5078  0.5476  0.3301
  268MOL0     C36872   6.146   9.394   8.910  0.0017 -0.5011 -0.0445
  268MOL0     C36873   6.122   9.477   9.025 -0.5293  1.2203 -0.0183
  268MOL0     C36874   6.084   9.626   8.993 -0.2816  0.8425  0.9846
  268MOL0     C36875   6.125   9.420   9.149  0.2547  0.3109 -0.1896
  268MOL0     C36876   6.105   9.495   9.264  0.1024  0.1732  0.4239
  268MOL0     O36877   6.000   9.464   9.347  0.0526 -0.5545 -0.2212
  268MOL0     C36878   5.955   9.568   9.412 -0.6579  0.5691 -0.2040
  268MOL0     C36879   5.850   9.633   9.360 -0.1467 -0.1852  0.1460
  268MOL0     C36880   5.777   9.725   9.434  0.9556 -0.0860 -0.6638
  268MOL0     C36881   5.810   9.740   9.568  0.3447  0.0081 -1.4496
  268MOL0     O36882   5.740   9.839   9.639  0.2003 -1.0003  0.5804
  268MOL0     C36883   5.726   9.822   9.784  0.3622 -0.8371  0.9708
  268MOL0     C36884   5.824   9.892   9.875 -0.6566  0.2622 -0.4622
  268MOL0     C36885   5.794  10.047   9.895 -0.4146  0.2664  0.5620
  268MOL0     C36886   5.887  10.106  10.000  0.2838  0.4397 -0.3755
  268MOL0     C36887   5.904  10.255   9.975 -0.1280  0.4419  0.3828
  268MOL0     C36888   5.776  10.332  10.008 -0.2171 -0.9525  0.1750
  268MOL0     C36889   5.767  10.470   9.928 -0.4763  0.0290 -0.4967
  268MOL0     C36890   5.665  10.562   9.988 -0.9478  0.2540  0.7276
  268MOL0    Cl36891   5.698  10.733   9.938 -0.0579  0.1841  0.2498
  268MOL0     C36892   5.920   9.679   9.618  1.0037 -0.9515 -0.3270
  268MOL0     C36893   6.001   9.602   9.540  0.7135 -0.1706  1.1264
  268MOL0     O36894   6.187   9.584   9.285 -0.5001  0.7645 -0.4057
  268MOL0     C36895   6.140   9.280   9.162 -0.8036 -1.0313  0.1908
  268MOL0     C36896   6.166   9.198   9.050  0.1699  0.2818 -0.1788
  268MOL0     N36897   6.353   8.635   8.583 -0.1196 -0.0897  1.1048
  268MOL0     N36898   6.459   8.566   8.578 -1.2578  0.2984 -0.4627
  268MOL0     C36899   7.451   8.704   7.915 -0.0189 -0.6152 -0.1101
  268MOL0     C36900   7.565   8.661   7.834  0.4221 -0.2993 -1.3380
  268MOL0     C36901   7.882   8.743   7.493 -0.0390  0.6779 -0.1840
  268MOL0     C36902   7.997   8.805   7.549  0.2384  0.2315  0.7153
  268MOL0     C36903   8.126   8.768   7.493  0.9657  0.3928  0.1158
  268MOL0     C36904   8.137   8.686   7.381 -0.7836  1.7080 -0.4501
  268MOL0     O36905   8.255   8.661   7.318 -0.1472  0.3311  0.0429
  268MOL0     C36906   8.378   8.722   7.352 -0.0370 -1.0918 -0.1724
  268MOL0     C36907   8.442   8.659   7.474 -0.7352  0.2672  0.4345
  268MOL0     C36908   8.557   8.741   7.542  1.1176 -0.2866 -0.5408
  268MOL0     C36909   8.584   8.686   7.687 -0.1824  0.8745 -0.3982
  268MOL0     C36910   8.674   8.756   7.781  1.3824  0.5259 -0.0169
  268MOL0     C36911   8.745   8.805   7.872  0.7526 -0.2257  0.4477
  268MOL0     C36912   8.018   8.642   7.332 -0.3149 -0.9696  0.2865
  268MOL0     C36913   7.889   8.664   7.378 -0.5412 -0.5706  0.0704
  268MOL0     C36914   7.771   8.594   7.318 -0.2208  0.4228 -0.6946
  268MOL0     H36915   7.639   8.964   7.712 -2.1288 -1.8549 -3.6646
  268MOL0     H36916   7.467   9.039   7.874  5.0127  0.1386  1.7322
  268MOL0     H36917   7.231   9.007   7.954  0.0251  0.0846  0.2803
  268MOL0     H36918   7.327   9.028   8.109  1.1863  1.5380 -2.1972
  268MOL0     H36919   7.065   9.056   8.110  0.4118 -0.6645 -2.2444
  268MOL0     H36920   7.064   8.877   8.091 -4.5053  1.2591  1.2213
  268MOL0     H36921   7.206   8.881   8.325  0.8355  1.4972  1.6638
  268MOL0     H36922   7.206   9.047   8.306 -2.2096  1.8398  2.6487
  268MOL0     H36923   7.034   8.990   8.459 -0.4956  1.1311 -0.3358
  268MOL0     H36924   6.964   9.048   8.301  1.1771  0.4550 -1.4848
  268MOL0     H36925   7.017   8.742   8.329 -2.8173 -1.5575  2.1785
  268MOL0     H36926   6.896   8.833   8.231 -2.1802 -0.7128  0.2935
  268MOL0     H36927   6.904   8.809   8.537 -0.1321  4.0370  1.3354
  268MOL0     H36928   6.771   8.882   8.449  0.9799 -0.5195  1.5433
  268MOL0     H36929   6.877   8.592   8.416  0.6035  0.6449 -2.9666
  268MOL0     H36930   6.736   8.644   8.340  0.6047 -2.8161 -0.9181
  268MOL0     H36931   6.719   8.507   8.558  1.3393 -0.2268 -1.2749
  268MOL0     H36932   6.723   8.651   8.652 -0.1400 -1.1661 -0.4769
  268MOL0     H36933   6.555   8.846   8.447 -0.4766  1.7975  3.4836
  268MOL0     H36934   6.185   8.857   8.519 -1.0334  2.2521 -0.5593
  268MOL0     H36935   6.312   8.931   8.422  1.9194 -0.4249  0.3181
  268MOL0     H36936   6.265   8.952   8.718 -0.6827  0.6352 -0.1694
  268MOL0     H36937   6.413   9.024   8.650  0.7289 -1.9899 -2.2242
  268MOL0     H36938   6.288   9.184   8.508 -0.8433  1.8118 -0.0153
  268MOL0     H36939   6.138   9.097   8.542 -0.8684  1.2166  0.6059
  268MOL0     H36940   6.322   9.275   8.730 -2.4113  1.4256  3.5090
  268MOL0     H36941   6.165   9.315   8.670 -0.3552  2.7307  4.6386
  268MOL0     H36942   6.123   9.440   8.814 -1.2830 -2.9093 -0.9549
  268MOL0     H36943   6.159   9.693   9.036  1.2585  0.2330 -0.6469
  268MOL0     H36944   5.987   9.651   9.037 -1.3482  3.3004 -2.3543
  268MOL0     H36945   6.090   9.655   8.888 -1.4731 -0.4374  0.5353
  268MOL0     H36946   5.821   9.620   9.257  0.5898 -0.7906  0.0087
  268MOL0     H36947   5.692   9.774   9.389  0.4677 -1.1707 -0.9672
  268MOL0     H36948   5.621   9.847   9.801  0.6624  0.8066  0.6645
  268MOL0     H36949   5.730   9.714   9.800  2.3611 -1.0901 -0.6562
  268MOL0     H36950   5.816   9.849   9.976  2.2173  0.7892  0.0812
  268MOL0     H36951   5.925   9.859   9.847 -1.4637 -1.8635 -1.0917
  268MOL0     H36952   5.689  10.064   9.920 -0.6360 -0.6184  0.2796
  268MOL0     H36953   5.806  10.088   9.794 -2.2600 -1.0788 -0.2583
  268MOL0     H36954   5.986  10.067   9.972 -0.6472 -2.3699 -0.0718
  268MOL0     H36955   5.859  10.080  10.102 -2.2530  1.7193 -0.6812
  268MOL0     H36956   5.985  10.292  10.039 -0.1721 -0.6976  1.1423
  268MOL0     H36957   5.935  10.265   9.871  3.9935  4.3917  1.6518
  268MOL0     H36958   5.779  10.352  10.115  2.0035 -2.0191  0.3530
  268MOL0     H36959   5.687  10.269   9.993 -1.1243  0.2516  0.4008
  268MOL0     H36960   5.747  10.457   9.821  2.0631 -0.8445 -0.9199
  268MOL0     H36961   5.862  10.522   9.932  0.9857 -2.1526 -3.0698
  268MOL0     H36962   5.680  10.564  10.097  2.8377 -0.2475  0.3362
  268MOL0     H36963   5.568  10.524   9.953 -0.0290 -1.2155 -0.3363
  268MOL0     H36964   5.956   9.683   9.720 -0.6648 -2.9772  0.4219
  268MOL0     H36965   6.086   9.564   9.597  0.5746 -1.5223  0.4543
  268MOL0     H36966   6.147   9.239   9.262  4.0454 -0.2319  0.4154
  268MOL0     H36967   6.187   9.092   9.054  0.4614  0.3695  0.8281
  268MOL0     H36968   7.409   8.636   7.988 -0.0524  0.7657  1.2035
  268MOL0     H36969   7.598   8.558   7.843 -0.9508 -0.5903  1.4872
  268MOL0     H36970   8.003   8.878   7.629 -0.8453 -0.4059  1.3973
  268MOL0     H36971   8.212   8.817   7.538  1.0039  2.4609 -1.9753
  268MOL0     H36972   8.438   8.725   7.261  1.5814 -1.3658  0.8602
  268MOL0     H36973   8.355   8.828   7.369  0.2350 -1.2154  1.0255
  268MOL0     H36974   8.467   8.552   7.471  0.6717  0.3996  3.6918
  268MOL0     H36975   8.354   8.644   7.538  0.8473 -2.9797  2.1409
  268MOL0     H36976   8.646   8.733   7.478  1.9013 -1.1215  0.6070
  268MOL0     H36977   8.539   8.848   7.546  0.7056 -0.3811  0.4631
  268MOL0     H36978   8.627   8.586   7.673 -1.1024  0.3707  0.3107
  268MOL0     H36979   8.484   8.671   7.728  0.1377 -1.0513 -0.2562
  268MOL0     H36980   8.816   8.850   7.939 -0.1509 -1.3842  2.2757
  268MOL0     H36981   8.028   8.573   7.249  1.2092 -1.5342  0.9012
  268MOL0     H36982   7.753   8.503   7.375  2.4267  0.8893  1.1047
  268MOL0     H36983   7.685   8.659   7.301 -0.4861  0.7282  1.4554
  268MOL0     H36984   7.803   8.561   7.219  0.9444  1.3498 -0.6653
  269MOL0     O36985   2.322   4.214   3.655  0.0497 -0.2694  0.4234
  269MOL0     C36986   2.266   4.146   3.571 -0.3794  0.5271  0.1743
  269MOL0     O36987   2.321   4.029   3.527 -0.1143  0.1678  0.3134
  269MOL0     C36988   2.422   3.973   3.601  0.3111 -0.6848  0.1272
  269MOL0     C36989   2.558   4.016   3.576 -0.2870 -0.3148 -0.4051
  269MOL0     C36990   2.654   3.972   3.666  0.2969  0.7046  0.1330
  269MOL0     C36991   2.632   3.868   3.754  0.1643  0.1447 -0.6718
  269MOL0     O36992   2.740   3.821   3.826  0.4504 -0.0691  0.7681
  269MOL0     C36993   2.714   3.837   3.962 -0.3782 -0.2573 -0.7184
  269MOL0     C36994   2.817   3.754   4.031 -0.0291 -0.1739  0.0552
  269MOL0     C36995   2.820   3.778   4.187  0.2020 -0.7538  0.1452
  269MOL0     C36996   2.860   3.925   4.217 -0.2700  0.2552  0.1042
  269MOL0     C36997   2.936   3.951   4.351  0.9304 -0.6039 -0.4543
  269MOL0     C36998   2.860   3.903   4.475  0.6558 -1.2134  0.0826
  269MOL0     C36999   2.945   3.949   4.598 -0.6683 -0.6619  0.0380
  269MOL0     C37000   2.900   3.887   4.727 -0.2040 -0.0284 -0.5230
  269MOL0     N37001   2.978   3.922   4.847 -0.1710  0.0353  0.6747
  269MOL0     C37002   3.012   3.822   4.933  0.2239 -0.2397 -0.2845
  269MOL0     C37003   3.092   3.897   5.016 -0.4763  0.0955 -0.4218
  269MOL0     C37004   3.163   3.831   5.134 -0.0875  0.3939 -0.4079
  269MOL0     C37005   3.104   3.864   5.263 -0.3632  0.5284  0.2623
  269MOL0     C37006   3.185   3.805   5.382 -0.3061  0.1224 -0.1159
  269MOL0     C37007   3.182   3.900   5.491 -0.5140 -0.4445 -0.2723
  269MOL0     O37008   3.253   3.836   5.587  0.1438 -0.4237 -1.0077
  269MOL0     C37009   3.261   3.902   5.710 -0.2821  0.6110  0.2585
  269MOL0     C37010   3.208   4.024   5.746 -0.2096 -0.3347 -0.4279
  269MOL0     C37011   3.217   4.054   5.889  0.1763  0.3694  0.4819
  269MOL0     C37012   3.139   4.175   5.935 -0.2733  0.0505  0.2965
  269MOL0     C37013   3.302   3.982   5.976 -0.5124  0.1152 -0.2087
  269MOL0     C37014   3.332   4.034   6.112  0.6824  0.0409  0.6097
  269MOL0     O37015   3.228   4.081   6.188  0.8801  0.6320  0.0134
  269MOL0     C37016   3.260   4.096   6.320  0.0363  0.1213 -0.0549
  269MOL0     C37017   3.267   4.220   6.380 -0.0780 -0.1584  0.1037
  269MOL0     C37018   3.276   4.231   6.517 -0.3046 -0.0808 -0.3223
  269MOL0     C37019   3.302   4.120   6.598  0.5351 -0.9054  0.2094
  269MOL0     O37020   3.315   4.129   6.735  0.2710 -0.5600 -0.1621
  269MOL0     C37021   3.388   4.230   6.801 -0.9263 -0.2339  1.3087
  269MOL0     C37022   3.544   4.232   6.766  0.3148  0.3554 -0.2335
  269MOL0     C37023   3.605   4.087   6.786  0.9817  0.2865 -0.4130
  269MOL0     C37024   3.756   4.089   6.777  0.3402  0.9479  0.8959
  269MOL0     C37025   3.829   3.968   6.841  0.6165 -1.0202  0.5061
  269MOL0     C37026   3.989   3.983   6.809  1.1252 -0.1054  0.5080
  269MOL0     C37027   4.053   4.123   6.841 -0.0641  1.1070  0.6767
  269MOL0     C37028   4.015   4.181   6.981  1.2001 -0.1284  0.0161
  269MOL0    Cl37029   4.044   4.079   7.126 -0.1596  0.1242 -0.2030
  269MOL0     C37030   3.312   3.997   6.527  0.4717  0.0251 -0.2172
  269MOL0     C37031   3.286   3.981   6.392  0.0620 -0.4537  0.0640
  269MOL0     O37032   3.452   4.026   6.145 -0.1366 -0.1728 -0.3614
  269MOL0     C37033   3.374   3.874   5.917  0.2219 -0.1974 -0.1256
  269MOL0     C37034   3.345   3.826   5.792  0.2379 -0.8574 -0.7414
  269MOL0     N37035   3.095   4.027   4.978  0.2378  0.2494  0.5449
  269MOL0     N37036   3.037   4.043   4.864  0.6839 -0.0083 -0.2126
  269MOL0     C37037   2.504   3.805   3.744  0.8128 -0.1121 -0.4272
  269MOL0     C37038   2.394   3.861   3.678  0.6981  0.1539 -0.6874
  269MOL0     C37039   2.134   4.194   3.520  0.5634  0.0047 -1.0281
  269MOL0     C37040   2.085   4.321   3.552 -1.0495  0.0892 -0.2239
  269MOL0     C37041   1.988   4.385   3.484  0.3613 -0.4881  0.3595
  269MOL0     C37042   1.913   4.306   3.400 -0.2446 -0.1765 -0.1623
  269MOL0     O37043   1.817   4.370   3.330 -0.2306  0.1050  0.0241
  269MOL0     C37044   1.866   4.442   3.215  0.5112 -0.1879  0.9047
  269MOL0     C37045   1.776   4.412   3.097 -0.6236 -0.4894 -0.9367
  269MOL0     C37046   1.817   4.492   2.966 -0.0886 -0.5698  0.3778
  269MOL0     C37047   1.727   4.451   2.847  1.1204 -0.7100 -0.0709
  269MOL0     C37048   1.749   4.557   2.748 -0.4054 -0.6411  0.7019
  269MOL0     C37049   1.771   4.667   2.683 -0.7459  0.8672 -0.9186
  269MOL0     C37050   1.944   4.165   3.377  0.8964 -0.3235 -0.2828
  269MOL0     C37051   2.058   4.112   3.434  0.2345  0.8228  0.5664
  269MOL0     C37052   2.100   3.972   3.385  0.5360 -0.5324 -0.0398
  269MOL0     H37053   2.566   4.093   3.500 -1.0971 -1.0904 -1.3113
  269MOL0     H37054   2.757   4.003   3.646  0.9172 -1.6803 -0.6965
  269MOL0     H37055   2.616   3.800   3.994 -0.5920  0.2965 -0.7055
  269MOL0     H37056   2.730   3.944   3.978  1.7916  0.1076 -4.1345
  269MOL0     H37057   2.801   3.647   4.018 -1.8351  0.1428 -0.5902
  269MOL0     H37058   2.911   3.786   3.985 -0.4259 -0.5480 -1.0398
  269MOL0     H37059   2.715   3.787   4.215 -0.4989  0.8925 -2.6161
  269MOL0     H37060   2.878   3.708   4.248 -0.0828 -0.6439  0.5419
  269MOL0     H37061   2.920   3.952   4.130  0.1859 -2.3997 -0.5202
  269MOL0     H37062   2.769   3.984   4.211  0.1311  0.8813  0.0775
  269MOL0     H37063   2.944   4.060   4.350  0.9570 -0.5778  0.7616
  269MOL0     H37064   3.035   3.907   4.336  0.4731 -1.1468 -2.0647
  269MOL0     H37065   2.768   3.962   4.485 -0.8366 -3.0461 -1.9138
  269MOL0     H37066   2.835   3.797   4.482  0.4751 -1.4527 -2.9734
  269MOL0     H37067   2.934   4.057   4.610  0.8354 -0.5564  0.6425
  269MOL0     H37068   3.053   3.932   4.591  0.0840  1.8315  3.3404
  269MOL0     H37069   2.794   3.914   4.738  0.2070  1.9040 -1.0406
  269MOL0     H37070   2.886   3.779   4.717 -2.1147  0.2998 -2.0162
  269MOL0     H37071   2.996   3.715   4.930  2.8405 -0.7066  0.1465
  269MOL0     H37072   3.268   3.860   5.127 -0.5145  2.2757  0.3229
  269MOL0     H37073   3.172   3.724   5.116  1.9412  0.3263  0.6756
  269MOL0     H37074   3.112   3.973   5.265 -0.7658  0.5555  0.7665
  269MOL0     H37075   2.998   3.838   5.272 -0.3871 -0.6193 -2.5777
  269MOL0     H37076   3.143   3.707   5.406  0.7558 -1.0658 -2.7158
  269MOL0     H37077   3.290   3.786   5.357 -1.2149 -0.7260 -3.8436
  269MOL0     H37078   3.233   3.993   5.463  2.7442 -2.6790 -2.6107
  269MOL0     H37079   3.076   3.900   5.518 -1.1519 -1.1497 -2.5101
  269MOL0     H37080   3.144   4.080   5.678 -2.2877  0.6541  2.1789
  269MOL0     H37081   3.076   4.220   5.858  0.3358  0.6715  0.1555
  269MOL0     H37082   3.204   4.255   5.970 -1.2258  0.4340  1.2596
  269MOL0     H37083   3.066   4.154   6.014 -4.0093 -0.1231 -2.9222
  269MOL0     H37084   3.259   4.299   6.306  1.2610  0.8656  1.0040
  269MOL0     H37085   3.267   4.325   6.570  2.9480  1.9426 -2.9431
  269MOL0     H37086   3.352   4.329   6.773  0.9296 -0.3986 -2.1029
  269MOL0     H37087   3.370   4.214   6.908  2.3411  2.5267  2.4493
  269MOL0     H37088   3.550   4.279   6.667 -4.3124  2.8525  0.3851
  269MOL0     H37089   3.585   4.308   6.834  3.0520  0.9942 -2.4059
  269MOL0     H37090   3.569   4.019   6.708  1.3534 -0.2772 -0.0990
  269MOL0     H37091   3.582   4.044   6.884  0.2968 -1.5130 -1.3135
  269MOL0     H37092   3.795   4.183   6.816 -0.3146  1.2722  0.7963
  269MOL0     H37093   3.787   4.088   6.672 -0.6710 -3.6442  0.4084
  269MOL0     H37094   3.813   3.962   6.949  0.0947  0.2342  0.5099
  269MOL0     H37095   3.793   3.871   6.805 -0.3616 -0.0118 -1.3713
  269MOL0     H37096   4.005   3.960   6.703  0.7911  0.3001  0.3670
  269MOL0     H37097   4.048   3.905   6.858 -1.4801 -1.7592  1.1799
  269MOL0     H37098   4.033   4.195   6.761  2.3274  0.2013 -0.8268
  269MOL0     H37099   4.160   4.102   6.834  0.1606  2.6147 -1.5912
  269MOL0     H37100   3.906   4.182   6.986  1.2098 -1.3013  1.3167
  269MOL0     H37101   4.049   4.284   6.995 -0.0534  0.8706 -3.2864
  269MOL0     H37102   3.326   3.902   6.579 -0.6541 -1.5430 -2.6239
  269MOL0     H37103   3.269   3.888   6.339  0.6841  1.4170 -3.8028
  269MOL0     H37104   3.448   3.823   5.978  1.8379 -1.7272 -3.1425
  269MOL0     H37105   3.404   3.744   5.753  0.7395 -0.4929 -0.7567
  269MOL0     H37106   2.498   3.714   3.803 -2.4871 -0.3459 -0.9236
  269MOL0     H37107   2.305   3.799   3.681 -0.2565  1.4728  2.3830
  269MOL0     H37108   2.142   4.373   3.629 -0.5762  3.9775 -2.9597
  269MOL0     H37109   1.961   4.489   3.500  2.3848  0.3278 -1.1712
  269MOL0     H37110   1.863   4.550   3.226 -2.8533 -0.2268  1.2480
  269MOL0     H37111   1.962   4.404   3.178 -0.7637 -0.3740 -2.6111
  269MOL0     H37112   1.670   4.416   3.123 -0.9589 -0.9042 -2.1552
  269MOL0     H37113   1.789   4.306   3.075 -0.4876 -0.9407  1.0897
  269MOL0     H37114   1.820   4.600   2.984  0.8241 -0.0803 -2.2916
  269MOL0     H37115   1.919   4.465   2.935 -0.1029  0.9651 -1.1847
  269MOL0     H37116   1.622   4.453   2.880  1.8882  1.7077  2.7279
  269MOL0     H37117   1.744   4.349   2.810 -0.1707 -0.5155 -1.2840
  269MOL0     H37118   1.798   4.753   2.626  0.1439  0.5970 -0.9123
  269MOL0     H37119   1.895   4.106   3.300 -0.4417  1.6710 -1.0393
  269MOL0     H37120   2.026   3.936   3.313 -0.0254 -0.3063  0.4140
  269MOL0     H37121   2.191   3.982   3.325  0.0101 -1.1691 -0.9659
  269MOL0     H37122   2.108   3.899   3.467 -1.9071 -4.1460 -2.7378
  270MOL0     O37123   5.638   1.070   1.332 -0.1557 -0.4296 -0.1885
  270MOL0     C37124   5.606   0.952   1.315  0.1954  0.2304  0.1373
  270MOL0     O37125   5.609   0.881   1.196 -0.2636  0.0848 -0.8979
  270MOL0     C37126   5.636   0.946   1.081 -0.0788 -0.3811 -0.4106
  270MOL0     C37127   5.529   1.024   1.019 -0.0656 -0.5336 -1.3287
  270MOL0     C37128   5.551   1.097   0.903 -0.0912 -0.5587  0.3591
  270MOL0     C37129   5.678   1.105   0.852 -0.9651  0.4219  0.3616
  270MOL0     O37130   5.704   1.170   0.731  0.4408 -0.2722  0.3450
  270MOL0     C37131   5.694   1.078   0.619 -0.0666 -0.6046 -0.6804
  270MOL0     C37132   5.553   1.055   0.561 -0.2117 -0.3759 -1.0040
  270MOL0     C37133   5.488   1.190   0.507  0.4017  0.9990 -0.4972
  270MOL0     C37134   5.556   1.251   0.383  0.1044  0.0425  0.0829
  270MOL0     C37135   5.505   1.387   0.341 -0.0946  1.0383  0.4254
  270MOL0     C37136   5.539   1.507   0.442 -0.5415  0.5482  0.8131
  270MOL0     C37137   5.505   1.644   0.378 -0.3048  0.2022 -0.1951
  270MOL0     C37138   5.642   1.692   0.323  0.7290 -1.8203  0.0687
  270MOL0     N37139   5.626   1.813   0.251  0.3749 -0.4012 -0.0755
  270MOL0     C37140   5.578   1.842   0.124 -0.7787  1.0106 -0.8454
  270MOL0     C37141   5.590   1.975   0.106 -0.1072  1.1129  0.0133
  270MOL0     C37142   5.564   2.065  -0.013  0.0052  0.3812 -0.7752
  270MOL0     C37143   5.418   2.053  -0.044 -0.6014  0.6808  0.0027
  270MOL0     C37144   5.386   2.178  -0.124  0.7465 -0.5375 -0.5934
  270MOL0     C37145   5.242   2.162  -0.181 -0.5362  0.6148  0.1159
  270MOL0     O37146   5.226   2.281  -0.264 -0.4818 -1.2052 -0.2412
  270MOL0     C37147   5.129   2.302  -0.362  0.3252 -0.1328  0.2335
  270MOL0     C37148   5.117   2.423  -0.434 -0.1271 -0.5581  0.6740
  270MOL0     C37149   5.003   2.452  -0.513  0.1245  0.6378  0.1119
  270MOL0     C37150   4.994   2.581  -0.595  0.0981  0.0957 -0.7052
  270MOL0     C37151   4.903   2.360  -0.533  0.3025  0.6677 -0.2639
  270MOL0     C37152   4.779   2.367  -0.619  0.2582 -0.9260 -0.0689
  270MOL0     O37153   4.739   2.248  -0.686 -0.1479 -0.0359  0.2323
  270MOL0     C37154   4.625   2.254  -0.766  0.1647 -0.2615  0.5992
  270MOL0     C37155   4.512   2.333  -0.751  0.4591  0.4528  0.1749
  270MOL0     C37156   4.415   2.346  -0.846  0.5550 -0.3676 -0.0412
  270MOL0     C37157   4.417   2.264  -0.955 -0.6340 -0.1225  0.0872
  270MOL0     O37158   4.308   2.267  -1.047  0.1443  0.0832 -0.5638
  270MOL0     C37159   4.321   2.364  -1.149  0.3452 -0.6501  0.4647
  270MOL0     C37160   4.172   2.424  -1.160  0.0003 -0.6580 -0.6644
  270MOL0     C37161   4.118   2.495  -1.026  0.1178  0.0233  0.7345
  270MOL0     C37162   4.020   2.401  -0.941  0.2989  0.6291  0.0913
  270MOL0     C37163   3.866   2.436  -0.971 -0.1605  0.6094 -0.4454
  270MOL0     C37164   3.758   2.319  -0.959 -0.8312 -0.4909  0.1059
  270MOL0     C37165   3.767   2.248  -0.821 -0.4417 -0.2874  0.3678
  270MOL0     C37166   3.727   2.100  -0.833  0.5226  0.9185 -0.4239
  270MOL0    Cl37167   3.548   2.074  -0.860 -0.0056 -0.2883  0.4175
  270MOL0     C37168   4.529   2.178  -0.973  0.3136  1.2665  0.6382
  270MOL0     C37169   4.634   2.177  -0.878  0.1487  0.5713  0.2531
  270MOL0     O37170   4.715   2.471  -0.614  0.5927 -0.0446  0.4947
  270MOL0     C37171   4.917   2.238  -0.469 -0.1680 -0.0930  1.0071
  270MOL0     C37172   5.020   2.210  -0.376  0.0565 -0.5763  0.1190
  270MOL0     N37173   5.633   2.027   0.231 -0.4316 -0.9802 -0.2052
  270MOL0     N37174   5.647   1.933   0.314  0.6769  0.5670 -0.0729
  270MOL0     C37175   5.784   1.024   0.904 -0.2750 -0.3311  0.7159
  270MOL0     C37176   5.759   0.946   1.023 -1.0106 -0.5594  0.7155
  270MOL0     C37177   5.543   0.888   1.436 -0.4358  0.3151  1.6797
  270MOL0     C37178   5.441   0.795   1.412  0.4704  0.0634 -0.1784
  270MOL0     C37179   5.375   0.732   1.522  0.0499  0.4050 -0.2776
  270MOL0     C37180   5.413   0.758   1.656  0.4268 -0.6520 -0.0638
  270MOL0     O37181   5.349   0.703   1.769  0.8771  0.2762  0.6184
  270MOL0     C37182   5.234   0.632   1.744  0.0958 -0.2264  0.0810
  270MOL0     C37183   5.196   0.559   1.865 -0.1060  0.5630  0.1870
  270MOL0     C37184   5.284   0.435   1.884  0.0154  0.0608 -0.3277
  270MOL0     C37185   5.259   0.377   2.029 -0.2692 -0.4163  0.4279
  270MOL0     C37186   5.336   0.254   2.046  0.4377  0.2118 -0.0978
  270MOL0     C37187   5.377   0.139   2.051  0.4564 -0.5516 -0.3383
  270MOL0     C37188   5.513   0.856   1.671  0.0614 -0.0893 -0.8004
  270MOL0     C37189   5.579   0.924   1.566 -1.0070 -0.4444 -0.0667
  270MOL0     C37190   5.689   1.023   1.601  0.2849  0.8979  0.9741
  270MOL0     H37191   5.431   1.022   1.065  1.1111 -0.0337  1.3743
  270MOL0     H37192   5.471   1.144   0.846 -0.7516 -1.4139  0.5598
  270MOL0     H37193   5.733   0.978   0.640 -0.2152 -0.7934 -1.2692
  270MOL0     H37194   5.759   1.110   0.537  2.8923 -2.8977  0.5947
  270MOL0     H37195   5.551   0.974   0.488  2.0277 -1.5842  0.1641
  270MOL0     H37196   5.492   1.016   0.643 -0.9140  1.7766 -0.4141
  270MOL0     H37197   5.381   1.172   0.495 -0.3132  1.3989  3.7768
  270MOL0     H37198   5.486   1.270   0.581  0.1035  0.9647 -0.4642
  270MOL0     H37199   5.664   1.257   0.394  0.6276 -0.6464 -3.4199
  270MOL0     H37200   5.535   1.186   0.298  1.4241  1.8492 -1.7220
  270MOL0     H37201   5.397   1.389   0.324 -0.8784  2.8546  4.3465
  270MOL0     H37202   5.553   1.411   0.246  2.7192 -2.3664  0.8087
  270MOL0     H37203   5.481   1.497   0.534 -0.4171 -0.3369  0.8068
  270MOL0     H37204   5.642   1.524   0.476 -1.3955  4.5891  1.8344
  270MOL0     H37205   5.475   1.718   0.453  1.6300  0.6461  0.2006
  270MOL0     H37206   5.427   1.637   0.302 -0.1263  2.8288 -0.6997
  270MOL0     H37207   5.695   1.715   0.416  0.9501  0.9121 -0.6419
  270MOL0     H37208   5.698   1.620   0.263  1.1987 -0.6976 -0.8935
  270MOL0     H37209   5.546   1.768   0.051 -0.0751  1.6389 -1.8116
  270MOL0     H37210   5.632   2.028  -0.090  0.3394  1.9521 -1.2685
  270MOL0     H37211   5.593   2.164   0.024  1.1725 -0.8070  1.7219
  270MOL0     H37212   5.386   1.964  -0.098 -1.5771  1.5322 -0.8616
  270MOL0     H37213   5.365   2.057   0.052 -0.8167 -1.3848  0.0148
  270MOL0     H37214   5.399   2.274  -0.073  1.6516 -0.8692 -0.1760
  270MOL0     H37215   5.447   2.194  -0.213 -0.9718  1.6876 -1.4770
  270MOL0     H37216   5.234   2.074  -0.245  0.8859  1.8800 -1.9086
  270MOL0     H37217   5.174   2.165  -0.095  1.2968  1.6631  1.6039
  270MOL0     H37218   5.188   2.502  -0.410  0.3753 -0.8323  0.1105
  270MOL0     H37219   4.908   2.644  -0.571  0.7371 -0.6119  4.7563
  270MOL0     H37220   4.981   2.564  -0.702 -1.7890  4.2519 -1.3147
  270MOL0     H37221   5.082   2.643  -0.573 -0.9255  0.4811  3.0533
  270MOL0     H37222   4.507   2.393  -0.661 -1.9819  0.4204  0.1282
  270MOL0     H37223   4.332   2.409  -0.815  1.2776  0.6110 -0.0457
  270MOL0     H37224   4.387   2.447  -1.122  1.1732 -1.4388  0.9006
  270MOL0     H37225   4.342   2.313  -1.242 -1.1474 -0.8040  0.1775
  270MOL0     H37226   4.185   2.503  -1.235  0.7532 -0.7639 -0.6512
  270MOL0     H37227   4.098   2.361  -1.210 -0.4049  1.3888 -2.8585
  270MOL0     H37228   4.060   2.584  -1.050 -1.8255 -0.7710  2.1468
  270MOL0     H37229   4.207   2.520  -0.969  0.3168  0.8014  0.0948
  270MOL0     H37230   4.033   2.408  -0.832 -1.7548 -1.7605  0.5791
  270MOL0     H37231   4.046   2.302  -0.980 -0.0470  0.2369  0.8376
  270MOL0     H37232   3.834   2.516  -0.904 -1.8244 -2.0008  2.1271
  270MOL0     H37233   3.850   2.472  -1.073  1.6037  2.3381 -0.1736
  270MOL0     H37234   3.764   2.241  -1.036  3.2221  0.7071 -1.0509
  270MOL0     H37235   3.658   2.361  -0.971  0.0951  2.7068  2.2794
  270MOL0     H37236   3.700   2.302  -0.753 -0.0167  1.6066 -0.6245
  270MOL0     H37237   3.872   2.250  -0.791 -0.0483  0.5413 -0.9474
  270MOL0     H37238   3.760   2.045  -0.744 -1.2015 -1.2701 -1.0464
  270MOL0     H37239   3.778   2.051  -0.916  1.5318  1.8627 -0.3866
  270MOL0     H37240   4.546   2.110  -1.056 -0.1619  1.0786  0.6917
  270MOL0     H37241   4.721   2.115  -0.895 -0.2563  0.1622 -0.3888
  270MOL0     H37242   4.839   2.163  -0.463  1.7926 -2.1277  4.6008
  270MOL0     H37243   5.028   2.112  -0.331 -1.5961  0.0439  1.8923
  270MOL0     H37244   5.885   1.020   0.864  0.3059 -1.7382  2.2144
  270MOL0     H37245   5.829   0.883   1.077 -1.6654  0.5222  2.9328
  270MOL0     H37246   5.413   0.767   1.311  0.2146  1.0959 -0.4086
  270MOL0     H37247   5.301   0.656   1.498 -1.3262  1.6897 -0.2456
  270MOL0     H37248   5.158   0.703   1.713 -0.1358  0.3204  1.7752
  270MOL0     H37249   5.245   0.557   1.665 -0.6657  0.7951 -1.0168
  270MOL0     H37250   5.090   0.546   1.841  0.1323 -0.5910 -0.3293
  270MOL0     H37251   5.195   0.627   1.950 -3.0367  0.3119  0.4742
  270MOL0     H37252   5.258   0.350   1.819  0.3586  0.0542 -0.4558
  270MOL0     H37253   5.389   0.463   1.880  0.4411  0.1841  5.0377
  270MOL0     H37254   5.153   0.356   2.046 -0.1806 -3.5565 -2.0942
  270MOL0     H37255   5.297   0.453   2.098  2.6463  0.4096 -1.8927
  270MOL0     H37256   5.415   0.041   2.032  2.9082 -0.3840  2.8051
  270MOL0     H37257   5.529   0.887   1.774 -3.8135  0.6402 -0.2600
  270MOL0     H37258   5.783   0.992   1.554  0.1585 -2.2671  2.5309
  270MOL0     H37259   5.670   1.124   1.566  0.0218 -0.3309 -2.9416
  270MOL0     H37260   5.702   1.013   1.710 -3.5093  1.1497  1.5929
  271MOL0     O37261  10.259   0.972   0.161  0.1482 -0.1295  0.4229
  271MOL0     C37262  10.201   0.925   0.259 -0.2487  0.4847  0.3514
  271MOL0     O37263  10.264   0.894   0.379  0.3884  0.0597  0.0499
  271MOL0     C37264  10.400   0.878   0.375  0.7563  0.7952  0.2849
  271MOL0     C37265  10.478   0.979   0.412 -0.2388 -0.5168  0.5233
  271MOL0     C37266  10.617   0.959   0.423  0.1168  0.3983 -0.6861
  271MOL0     C37267  10.680   0.834   0.392 -0.0698 -0.1097  1.0276
  271MOL0     O37268  10.813   0.806   0.406  0.3397  0.5040 -0.6442
  271MOL0     C37269  10.883   0.878   0.507  0.6808  0.3123 -1.0354
  271MOL0     C37270  10.846   0.842   0.654  0.6572  0.0075  0.2772
  271MOL0     C37271  10.833   0.689   0.669 -0.3254 -0.3027  0.3688
  271MOL0     C37272  10.789   0.665   0.810 -0.1088 -0.6687 -0.0207
  271MOL0     C37273  10.762   0.522   0.835 -0.9230  0.4374 -0.7778
  271MOL0     C37274  10.672   0.509   0.952  0.4949  0.6989 -1.0730
  271MOL0     C37275  10.677   0.363   1.003 -0.4325 -0.0609  0.1276
  271MOL0     C37276  10.620   0.335   1.142  0.1477  0.1927  0.0838
  271MOL0     N37277  10.474   0.371   1.141 -0.6343 -0.9900 -1.6665
  271MOL0     C37278  10.438   0.486   1.204 -1.0269 -1.1747  0.5543
  271MOL0     C37279  10.308   0.474   1.232 -0.4286  0.2431  0.4327
  271MOL0     C37280  10.216   0.555   1.318 -0.1571 -0.1721  0.6073
  271MOL0     C37281  10.135   0.478   1.414 -0.5961  0.4515 -0.0347
  271MOL0     C37282  10.078   0.568   1.528 -0.1358  0.9061  0.1056
  271MOL0     C37283   9.973   0.487   1.610  0.0378  0.1156  0.0771
  271MOL0     O37284  10.023   0.358   1.631  0.0924 -0.0990  0.3196
  271MOL0     C37285  10.011   0.307   1.756  0.6258 -0.5156  1.6242
  271MOL0     C37286  10.116   0.226   1.812 -0.5932 -0.4544  0.6771
  271MOL0     C37287  10.103   0.173   1.940  0.7244 -0.1967 -0.0293
  271MOL0     C37288  10.223   0.102   1.999  0.6675  0.1531  0.1755
  271MOL0     C37289   9.976   0.183   2.008  0.0695 -0.3826  0.1254
  271MOL0     C37290   9.960   0.127   2.143 -0.5022 -0.3422 -1.2868
  271MOL0     O37291   9.837   0.079   2.162  0.7587 -0.5806 -0.0404
  271MOL0     C37292   9.818  -0.018   2.259 -0.0319 -0.6314 -0.5865
  271MOL0     C37293   9.790   0.022   2.389 -0.2470  0.9618 -0.7334
  271MOL0     C37294   9.760  -0.071   2.491 -1.3032  0.2135  0.7361
  271MOL0     C37295   9.782  -0.201   2.461 -0.2394  0.2840  0.3608
  271MOL0     O37296   9.786  -0.301   2.550 -0.6159 -0.4934 -0.2706
  271MOL0     C37297   9.739  -0.268   2.690 -0.3047  1.2001 -0.3219
  271MOL0     C37298   9.588  -0.258   2.716  0.0890  0.0186  0.3727
  271MOL0     C37299   9.570  -0.234   2.864 -0.0347 -0.7371 -0.0339
  271MOL0     C37300   9.418  -0.237   2.902  0.4919  0.5903  0.2062
  271MOL0     C37301   9.379  -0.202   3.046 -0.1450 -0.6742 -0.8576
  271MOL0     C37302   9.422  -0.300   3.153 -0.0419 -0.3803 -0.4072
  271MOL0     C37303   9.414  -0.455   3.121 -0.1847 -0.2370 -0.0160
  271MOL0     C37304   9.421  -0.547   3.243 -0.8342  0.3783  0.4836
  271MOL0    Cl37305   9.576  -0.538   3.330  0.3919 -0.2317 -0.2517
  271MOL0     C37306   9.805  -0.244   2.326 -0.4303  0.1447 -0.8227
  271MOL0     C37307   9.825  -0.154   2.223  0.0114 -0.7717  0.6733
  271MOL0     O37308  10.056   0.125   2.224 -0.2217  0.6930 -0.3487
  271MOL0     C37309   9.872   0.251   1.944  0.5412 -0.2697 -0.3318
  271MOL0     C37310   9.894   0.323   1.825 -0.1209 -0.0792 -0.1169
  271MOL0     N37311  10.270   0.351   1.190 -0.0362 -0.0959 -0.6754
  271MOL0     N37312  10.371   0.286   1.138 -0.3531  0.3526 -0.1658
  271MOL0     C37313  10.587   0.734   0.348 -0.9308  0.7075  0.0897
  271MOL0     C37314  10.450   0.752   0.352 -0.5793 -1.2813 -0.4001
  271MOL0     C37315  10.051   0.886   0.241  0.4260  0.1250 -0.4431
  271MOL0     C37316   9.987   0.921   0.122 -0.6185 -0.6981  0.0425
  271MOL0     C37317   9.854   0.902   0.103  0.3382  0.0633  0.1065
  271MOL0     C37318   9.778   0.841   0.204 -0.1394  0.0373 -0.4699
  271MOL0     O37319   9.643   0.840   0.211  0.3777 -0.0627 -0.2885
  271MOL0     C37320   9.558   0.880   0.096 -0.6544 -0.3312  1.4431
  271MOL0     C37321   9.555   1.030   0.055 -0.1629  0.1068 -0.2519
  271MOL0     C37322   9.479   1.125   0.151 -0.2987 -0.3943  0.1046
  271MOL0     C37323   9.333   1.116   0.142  0.8517  0.3773  0.1290
  271MOL0     C37324   9.270   1.221   0.221  0.5658 -0.6052  0.9117
  271MOL0     C37325   9.224   1.320   0.281 -0.3909  0.0292 -1.1229
  271MOL0     C37326   9.839   0.794   0.323 -0.5251  0.8543  0.0170
  271MOL0     C37327   9.975   0.820   0.342  0.3402 -0.3206 -0.2860
  271MOL0     C37328  10.040   0.763   0.471  0.9382  0.5983  1.3289
  271MOL0     H37329  10.444   1.079   0.435 -2.6369 -0.2566 -3.2466
  271MOL0     H37330  10.673   1.036   0.475 -2.9273  2.4567 -0.2100
  271MOL0     H37331  10.878   0.985   0.488  0.0460  0.1565 -1.7708
  271MOL0     H37332  10.987   0.846   0.494  0.5659 -1.0529  0.9181
  271MOL0     H37333  10.924   0.880   0.722  0.2084  0.1357  0.7300
  271MOL0     H37334  10.758   0.897   0.688  0.1569 -0.0112 -0.9608
  271MOL0     H37335  10.753   0.645   0.608  0.5534 -0.6384 -0.5720
  271MOL0     H37336  10.919   0.631   0.636 -2.1471 -1.7367 -2.2352
  271MOL0     H37337  10.864   0.706   0.877  1.2276  1.0097 -2.3628
  271MOL0     H37338  10.700   0.728   0.825  1.1936  0.6052  2.9967
  271MOL0     H37339  10.862   0.483   0.852 -0.4915  1.0276 -1.8862
  271MOL0     H37340  10.710   0.479   0.749  0.4676 -2.0310 -0.4649
  271MOL0     H37341  10.715   0.565   1.036 -1.6586 -1.6868  1.8595
  271MOL0     H37342  10.570   0.547   0.937  0.6824  1.7993  0.2308
  271MOL0     H37343  10.783   0.337   1.009  0.7679  4.1425  0.5204
  271MOL0     H37344  10.632   0.297   0.928  2.3518 -2.3154  0.2752
  271MOL0     H37345  10.635   0.228   1.158 -2.4425 -0.0419  1.5196
  271MOL0     H37346  10.681   0.389   1.215  1.7506  1.1427 -1.8575
  271MOL0     H37347  10.496   0.570   1.242  1.5306 -2.6106  0.0571
  271MOL0     H37348  10.142   0.610   1.258  0.6812  0.1025 -0.2072
  271MOL0     H37349  10.275   0.631   1.370  1.6509 -1.8561  1.1764
  271MOL0     H37350  10.052   0.427   1.365 -1.6918  1.5632  0.5860
  271MOL0     H37351  10.199   0.405   1.465  1.0384  1.5690 -0.4079
  271MOL0     H37352  10.164   0.605   1.585 -0.0281  3.2838 -1.4750
  271MOL0     H37353  10.022   0.656   1.495 -1.0345  1.1563  2.1339
  271MOL0     H37354   9.953   0.544   1.702  1.0077  0.9514 -0.2201
  271MOL0     H37355   9.872   0.481   1.569 -0.3190 -0.3596  0.9790
  271MOL0     H37356  10.209   0.221   1.756 -1.0905 -1.1619 -0.1162
  271MOL0     H37357  10.197   0.002   2.036 -0.5872  0.7360  0.9445
  271MOL0     H37358  10.261   0.156   2.086  2.0313 -1.4914  0.6641
  271MOL0     H37359  10.308   0.096   1.931  1.4100 -0.5767  1.1285
  271MOL0     H37360   9.787   0.127   2.418 -2.6547  0.7478  0.0975
  271MOL0     H37361   9.750  -0.026   2.590  1.3051  1.1493  0.6519
  271MOL0     H37362   9.769  -0.346   2.760 -1.0886 -2.2260 -3.5470
  271MOL0     H37363   9.793  -0.180   2.729  0.2385  1.0158 -0.6505
  271MOL0     H37364   9.545  -0.177   2.657  0.0709  0.8932  1.5413
  271MOL0     H37365   9.546  -0.349   2.673  0.1178  1.1116 -2.1137
  271MOL0     H37366   9.598  -0.129   2.877 -1.7469 -0.4241  1.5753
  271MOL0     H37367   9.627  -0.300   2.930 -0.6546 -2.5012 -1.2000
  271MOL0     H37368   9.371  -0.330   2.868 -1.2904  0.8777  1.7452
  271MOL0     H37369   9.370  -0.166   2.834 -1.3271 -2.7176 -2.2906
  271MOL0     H37370   9.419  -0.102   3.066 -1.2245 -0.0858 -1.5575
  271MOL0     H37371   9.272  -0.185   3.052  0.0273  0.7809  5.2723
  271MOL0     H37372   9.361  -0.273   3.239 -1.6397 -0.6033 -1.4304
  271MOL0     H37373   9.525  -0.274   3.181 -0.2143 -0.8171  0.6501
  271MOL0     H37374   9.492  -0.489   3.052 -0.5523  0.6799 -0.9078
  271MOL0     H37375   9.325  -0.476   3.062 -0.4439 -0.0137  0.2968
  271MOL0     H37376   9.413  -0.653   3.217 -1.9395  0.5791 -0.0476
  271MOL0     H37377   9.333  -0.525   3.305 -0.6004  1.9315  0.2957
  271MOL0     H37378   9.810  -0.350   2.303 -4.8152 -0.4211 -0.0392
  271MOL0     H37379   9.850  -0.191   2.125  2.0785 -2.2764  1.6881
  271MOL0     H37380   9.773   0.247   1.990  1.1769 -1.5793  0.9876
  271MOL0     H37381   9.820   0.395   1.790  3.4511  4.2646  0.4310
  271MOL0     H37382  10.628   0.639   0.316 -0.1171  0.8380  0.6826
  271MOL0     H37383  10.386   0.669   0.322 -0.9574 -1.4982  0.9567
  271MOL0     H37384  10.027   0.963   0.030 -2.3739  0.6491 -0.1560
  271MOL0     H37385   9.807   0.928   0.009 -1.6750  1.0032  1.3026
  271MOL0     H37386   9.582   0.813   0.013 -1.4322  1.3934 -0.2152
  271MOL0     H37387   9.458   0.853   0.130  0.1427 -3.4975  1.6114
  271MOL0     H37388   9.509   1.046  -0.043 -0.5826 -4.0738 -0.8879
  271MOL0     H37389   9.659   1.065   0.053 -0.0307  0.5189  3.8884
  271MOL0     H37390   9.518   1.108   0.252 -0.4284 -0.5378  0.1296
  271MOL0     H37391   9.515   1.227   0.129  0.6287 -0.3703  1.5987
  271MOL0     H37392   9.294   1.021   0.179 -1.8708  1.2325 -0.3560
  271MOL0     H37393   9.296   1.125   0.039 -0.0903  0.5112  0.4723
  271MOL0     H37394   9.197   1.406   0.339  2.9330 -0.5907  1.6631
  271MOL0     H37395   9.783   0.737   0.397 -0.3250 -0.3757 -0.7399
  271MOL0     H37396  10.072   0.842   0.539  2.0199 -0.7360  2.4259
  271MOL0     H37397   9.961   0.706   0.521 -2.0136  1.8764 -1.4810
  271MOL0     H37398  10.120   0.691   0.451  2.7669  2.2769  2.3277
  272MOL0     O37399   6.904  10.029   2.082 -0.0444  0.3251 -0.0133
  272MOL0     C37400   6.836  10.098   2.159  0.3350  0.7347 -0.6447
  272MOL0     O37401   6.853  10.238   2.181 -0.0315  0.5301  0.7921
  272MOL0     C37402   6.951  10.298   2.106 -0.4688  0.1688  0.4072
  272MOL0     C37403   6.950  10.438   2.127  0.0509  0.6592 -0.9291
  272MOL0     C37404   7.047  10.518   2.069  0.0498 -0.6263  0.3460
  272MOL0     C37405   7.134  10.469   1.972 -0.9871  1.1550  0.2416
  272MOL0     O37406   7.225  10.557   1.913  0.1785  0.7601 -0.4955
  272MOL0     C37407   7.363  10.510   1.910  0.1419  0.5284  0.5777
  272MOL0     C37408   7.406  10.465   1.768 -1.0828 -0.2928  0.6077
  272MOL0     C37409   7.444  10.579   1.672 -0.5979 -0.4826  0.3765
  272MOL0     C37410   7.522  10.544   1.543 -0.3539 -0.2821 -0.5080
  272MOL0     C37411   7.555  10.662   1.459  0.7544  0.0461  0.5173
  272MOL0     C37412   7.629  10.611   1.334  0.3663 -0.5035 -0.1365
  272MOL0     C37413   7.606  10.716   1.218 -0.7391  0.8843 -0.5329
  272MOL0     C37414   7.668  10.670   1.083 -0.5591  0.7680  0.1636
  272MOL0     N37415   7.813  10.705   1.090  0.3150 -1.2147  0.2908
  272MOL0     C37416   7.923  10.624   1.086 -1.0972 -0.6835  0.2863
  272MOL0     C37417   8.029  10.706   1.049 -0.0596  0.4033  0.2013
  272MOL0     C37418   8.172  10.683   1.008 -0.1197  0.7331 -0.3445
  272MOL0     C37419   8.261  10.581   1.091 -0.2271 -0.4766 -0.5867
  272MOL0     C37420   8.308  10.648   1.221 -0.2452  0.3311 -0.0868
  272MOL0     C37421   8.409  10.559   1.293  0.2127  0.6882 -0.0933
  272MOL0     O37422   8.453  10.624   1.417 -0.1671  0.3366  0.1302
  272MOL0     C37423   8.555  10.560   1.483 -0.4793 -0.0160 -0.3351
  272MOL0     C37424   8.592  10.423   1.471  0.7079  0.1885 -0.1399
  272MOL0     C37425   8.699  10.368   1.550  0.1158  0.0948  0.5852
  272MOL0     C37426   8.717  10.218   1.532 -0.0747  0.3672 -0.7687
  272MOL0     C37427   8.776  10.460   1.637  1.1743 -0.9115 -0.0364
  272MOL0     C37428   8.879  10.412   1.730  0.5375 -0.2816  0.5573
  272MOL0     O37429   8.915  10.280   1.730 -0.7299  0.0690 -0.0683
  272MOL0     C37430   8.995  10.243   1.829 -1.0946  0.4616 -0.3288
  272MOL0     C37431   9.133  10.258   1.841  0.3914 -0.1570 -0.0579
  272MOL0     C37432   9.195  10.209   1.947  0.0437 -0.1074 -0.3583
  272MOL0     C37433   9.136  10.140   2.048 -0.8704  0.3302  0.0986
  272MOL0     O37434   9.217  10.107   2.147 -0.5067  0.4198 -0.0079
  272MOL0     C37435   9.175  10.159   2.277  0.6930  0.9275  0.1331
  272MOL0     C37436   9.257  10.104   2.391 -0.3899 -0.7531 -0.0354
  272MOL0     C37437   9.179  10.020   2.493 -0.5612  0.8792 -0.4142
  272MOL0     C37438   9.251   9.996   2.628 -0.7948 -0.0561  0.2274
  272MOL0     C37439   9.166   9.928   2.734 -0.9441 -0.1764  0.9454
  272MOL0     C37440   9.241   9.891   2.865  0.1921  0.5385 -1.2004
  272MOL0     C37441   9.162   9.783   2.939 -0.6683  0.0612 -0.6771
  272MOL0     C37442   9.160   9.640   2.884  0.7330  0.0717 -0.2313
  272MOL0    Cl37443   9.111   9.518   2.999 -0.6008 -0.3339 -0.4810
  272MOL0     C37444   8.995  10.107   2.034 -0.9731 -0.3999  0.1999
  272MOL0     C37445   8.927  10.164   1.927  0.3352 -0.3256 -0.4446
  272MOL0     O37446   8.923  10.496   1.810  0.5730  0.9859  0.0023
  272MOL0     C37447   8.734  10.599   1.642 -0.8447 -0.0745 -0.0033
  272MOL0     C37448   8.630  10.642   1.565 -0.1196 -0.2508  0.2128
  272MOL0     N37449   7.976  10.837   1.048  0.0293  0.5066  0.4118
  272MOL0     N37450   7.851  10.834   1.058  0.2147 -0.8541 -0.2370
  272MOL0     C37451   7.141  10.331   1.955  0.5834  1.0363 -0.6992
  272MOL0     C37452   7.063  10.242   2.030 -0.4267  0.1123 -0.1598
  272MOL0     C37453   6.743  10.026   2.243 -0.8019 -0.4518  0.2026
  272MOL0     C37454   6.774   9.893   2.292 -0.8641 -0.7238  0.4134
  272MOL0     C37455   6.672   9.820   2.354  0.2403 -0.4602 -0.4363
  272MOL0     C37456   6.549   9.870   2.390 -0.2431 -0.3237  1.3158
  272MOL0     O37457   6.466   9.781   2.451  0.0945  0.4573 -1.1224
  272MOL0     C37458   6.351   9.833   2.529  0.3043 -0.7237  0.0924
  272MOL0     C37459   6.242   9.720   2.556 -0.6239 -0.2554 -0.0891
  272MOL0     C37460   6.290   9.609   2.646  0.3102  0.3886 -0.6761
  272MOL0     C37461   6.388   9.656   2.751 -0.0709  0.2816  0.1595
  272MOL0     C37462   6.409   9.548   2.848  0.2873  0.2232  0.4835
  272MOL0     C37463   6.439   9.471   2.933 -0.7466 -0.5845 -0.7125
  272MOL0     C37464   6.522  10.006   2.359  1.2774 -0.4333 -0.2582
  272MOL0     C37465   6.614  10.076   2.282  1.0734  0.9954  0.8335
  272MOL0     C37466   6.571  10.206   2.233 -1.0529  0.2987  0.3001
  272MOL0     H37467   6.881  10.477   2.201  1.5181 -0.9844  1.4477
  272MOL0     H37468   7.054  10.624   2.092 -0.5053 -0.6546  0.6594
  272MOL0     H37469   7.389  10.436   1.986 -0.6798  0.7692  1.1059
  272MOL0     H37470   7.432  10.591   1.934  4.3090 -2.4145 -0.3391
  272MOL0     H37471   7.485  10.390   1.755  0.7449  1.2974  1.9171
  272MOL0     H37472   7.308  10.429   1.737  0.0338 -1.3930 -1.9125
  272MOL0     H37473   7.351  10.624   1.636  0.9029  3.0186  0.4928
  272MOL0     H37474   7.495  10.657   1.730 -0.7074 -0.3530  0.3008
  272MOL0     H37475   7.614  10.499   1.583 -0.2199 -0.7418 -1.3086
  272MOL0     H37476   7.466  10.466   1.491 -2.5386  0.2240  0.9565
  272MOL0     H37477   7.619  10.735   1.510  2.1034  1.0246 -2.3915
  272MOL0     H37478   7.462  10.699   1.416  0.2850 -3.8773 -2.3665
  272MOL0     H37479   7.737  10.611   1.351  0.4323  0.0994 -0.5581
  272MOL0     H37480   7.583  10.518   1.301  0.0126  0.4405 -2.4837
  272MOL0     H37481   7.648  10.815   1.239 -1.8207  1.3063 -0.3345
  272MOL0     H37482   7.498  10.729   1.208 -1.2323 -3.0331 -2.4827
  272MOL0     H37483   7.674  10.561   1.073  2.8720  0.5557  2.7482
  272MOL0     H37484   7.611  10.716   1.002 -0.2724  1.6601  0.4558
  272MOL0     H37485   7.922  10.515   1.088  2.4837 -0.8567  2.5915
  272MOL0     H37486   8.226  10.776   1.024  1.5971 -0.4440  1.1897
  272MOL0     H37487   8.167  10.655   0.903 -2.1741 -1.8638  0.3182
  272MOL0     H37488   8.195  10.498   1.121 -0.3481 -1.0776 -2.3973
  272MOL0     H37489   8.344  10.555   1.025  3.3785  4.4495  1.4047
  272MOL0     H37490   8.335  10.752   1.201 -1.0709  0.8131  1.1708
  272MOL0     H37491   8.219  10.647   1.285  0.6456  1.3266  1.2308
  272MOL0     H37492   8.370  10.460   1.318  3.1453 -0.4672  0.3557
  272MOL0     H37493   8.493  10.554   1.223 -1.9724  4.7210 -3.4287
  272MOL0     H37494   8.528  10.357   1.413 -0.7783  0.3983  1.1972
  272MOL0     H37495   8.673  10.196   1.435 -1.7895 -0.3066  0.1183
  272MOL0     H37496   8.675  10.144   1.602 -1.6655  0.6614 -1.3651
  272MOL0     H37497   8.823  10.194   1.526  0.2411  1.5174 -0.0941
  272MOL0     H37498   9.197  10.304   1.766  2.8775 -3.1725 -0.0047
  272MOL0     H37499   9.303  10.222   1.952 -0.3345  3.8703  0.0799
  272MOL0     H37500   9.201  10.265   2.270  1.0936  0.7259 -2.8676
  272MOL0     H37501   9.067  10.162   2.294  0.5508  3.0986 -0.8397
  272MOL0     H37502   9.349  10.062   2.352 -0.6197 -0.5116 -0.8634
  272MOL0     H37503   9.303  10.186   2.448  2.7594 -2.1423 -0.3740
  272MOL0     H37504   9.159   9.919   2.456 -3.1645  0.7689  1.0733
  272MOL0     H37505   9.082  10.069   2.501 -1.7344 -1.2489 -0.9414
  272MOL0     H37506   9.288  10.093   2.664 -1.5377  0.3784 -0.1496
  272MOL0     H37507   9.343   9.937   2.620 -0.5979  0.3704 -0.9603
  272MOL0     H37508   9.071   9.974   2.763 -1.0250 -0.1139  0.5812
  272MOL0     H37509   9.141   9.827   2.700 -1.8857  0.5954 -0.7682
  272MOL0     H37510   9.246   9.978   2.931 -1.9973  2.4883 -3.4056
  272MOL0     H37511   9.338   9.845   2.844  2.1831  3.5452  0.5963
  272MOL0     H37512   9.057   9.813   2.948 -0.5279  0.7460 -1.2527
  272MOL0     H37513   9.192   9.779   3.044 -3.3767  2.1985  0.2887
  272MOL0     H37514   9.254   9.608   2.839  0.6802 -2.0225  1.0131
  272MOL0     H37515   9.083   9.635   2.806  1.1353  3.1494 -0.9397
  272MOL0     H37516   8.941  10.044   2.103 -0.3489 -1.7659 -0.5121
  272MOL0     H37517   8.818  10.161   1.921  0.2867 -0.9668  0.4949
  272MOL0     H37518   8.786  10.671   1.705  2.0527  0.1990 -2.4602
  272MOL0     H37519   8.602  10.746   1.570 -1.0791 -0.3663 -1.7389
  272MOL0     H37520   7.220  10.284   1.898  1.8372 -1.2541  2.5881
  272MOL0     H37521   7.090  10.137   2.027  1.7917  0.5878 -3.8441
  272MOL0     H37522   6.873   9.848   2.281 -0.5686 -0.3045  1.2403
  272MOL0     H37523   6.675   9.713   2.374  0.9061  0.0100  2.3553
  272MOL0     H37524   6.376   9.883   2.623 -1.9384 -0.5002  0.6352
  272MOL0     H37525   6.294   9.906   2.471 -1.0385 -0.9044  1.1412
  272MOL0     H37526   6.208   9.682   2.459  1.0259  1.0173 -1.2459
  272MOL0     H37527   6.159   9.763   2.612  0.2898  2.1151 -0.4222
  272MOL0     H37528   6.204   9.562   2.695 -0.0348  0.6526 -1.0254
  272MOL0     H37529   6.345   9.528   2.595  1.5504 -2.2379  4.1908
  272MOL0     H37530   6.353   9.744   2.806  1.2339  0.6552  0.4276
  272MOL0     H37531   6.484   9.677   2.703  0.7473  1.4439  2.1878
  272MOL0     H37532   6.458   9.398   3.009 -1.6334 -0.6811 -0.5736
  272MOL0     H37533   6.438  10.067   2.391  0.2662 -2.8135  1.9670
  272MOL0     H37534   6.623  10.279   2.296  1.8134  0.5106 -2.1039
  272MOL0     H37535   6.612  10.222   2.133  0.7322  0.5390  1.0395
  272MOL0     H37536   6.465  10.233   2.238 -0.8658  0.9960  0.6985
  273MOL0     O37537   0.776   8.672   5.629 -0.4629  0.4071  0.1656
  273MOL0     C37538   0.742   8.563   5.576 -0.5392  0.2652  0.2692
  273MOL0     O37539   0.809   8.448   5.596 -0.0713  1.1756 -0.1459
  273MOL0     C37540   0.933   8.465   5.657  0.6349  0.5115 -0.0075
  273MOL0     C37541   1.030   8.418   5.570  0.0023 -0.7281 -0.2165
  273MOL0     C37542   1.158   8.413   5.607  0.1123 -0.1701 -0.1679
  273MOL0     C37543   1.197   8.447   5.743  0.4378 -0.2327 -0.5569
  273MOL0     O37544   1.330   8.448   5.784 -0.0687  0.3682  0.0445
  273MOL0     C37545   1.413   8.351   5.721  0.3552 -1.0077  0.6239
  273MOL0     C37546   1.536   8.312   5.803  0.0007  0.3045  0.1041
  273MOL0     C37547   1.507   8.266   5.943 -0.1234  0.4172 -0.0385
  273MOL0     C37548   1.437   8.125   5.950  0.3665  0.5999 -0.1367
  273MOL0     C37549   1.424   8.078   6.095 -0.7709  0.4152  0.0312
  273MOL0     C37550   1.332   8.163   6.179 -0.0264  0.5710  0.0165
  273MOL0     C37551   1.314   8.129   6.331 -0.8187  0.0767  0.0431
  273MOL0     C37552   1.448   8.159   6.411  0.7012 -1.4145 -0.7030
  273MOL0     N37553   1.415   8.186   6.550 -0.5740 -0.0178 -0.0572
  273MOL0     C37554   1.365   8.101   6.640  0.4266  0.4449 -0.2214
  273MOL0     C37555   1.309   8.173   6.742 -0.1952  0.9328 -0.3400
  273MOL0     C37556   1.235   8.108   6.859 -0.6777 -0.1803 -0.1223
  273MOL0     C37557   1.283   7.958   6.886  0.1675  0.7603  0.7189
  273MOL0     C37558   1.229   7.916   7.021  0.2655  0.1438 -0.0526
  273MOL0     C37559   1.097   7.843   7.018 -0.9636 -0.7666  0.1006
  273MOL0     O37560   1.001   7.917   6.942  0.5795  0.2425  0.1423
  273MOL0     C37561   0.915   7.826   6.889  0.6485 -0.1607  0.8741
  273MOL0     C37562   0.844   7.749   6.968 -0.5012  0.1704 -0.4183
  273MOL0     C37563   0.758   7.652   6.923  0.3260  0.3314 -0.8248
  273MOL0     C37564   0.702   7.561   7.024  0.1146 -0.3159  0.0104
  273MOL0     C37565   0.738   7.639   6.783  0.5005 -0.2225 -0.0927
  273MOL0     C37566   0.661   7.531   6.716  0.3987 -0.6142 -0.0730
  273MOL0     O37567   0.656   7.413   6.788 -0.6555  0.1986 -0.7275
  273MOL0     C37568   0.594   7.306   6.727 -0.1079  0.3692 -0.3009
  273MOL0     C37569   0.616   7.256   6.601 -0.7130  0.4303  0.2994
  273MOL0     C37570   0.527   7.161   6.541 -0.0922 -1.1961  0.4803
  273MOL0     C37571   0.410   7.118   6.608 -0.1937 -0.3552 -0.4801
  273MOL0     O37572   0.323   7.023   6.563 -0.2292 -0.2709 -0.0873
  273MOL0     C37573   0.370   6.928   6.454 -0.0934  1.5378 -0.5235
  273MOL0     C37574   0.233   6.895   6.387 -0.7288  0.5192 -0.7510
  273MOL0     C37575   0.193   6.998   6.275  0.3648  0.1015 -0.5153
  273MOL0     C37576   0.234   6.932   6.147 -0.5630 -0.1889  0.5013
  273MOL0     C37577   0.256   7.039   6.030  0.0765 -0.0793 -0.3995
  273MOL0     C37578   0.309   6.979   5.899 -0.2273  0.5942 -1.2192
  273MOL0     C37579   0.314   7.075   5.784 -0.2470 -0.2202 -0.1598
  273MOL0     C37580   0.359   7.017   5.644  0.6330 -0.0622 -0.0906
  273MOL0    Cl37581   0.297   7.127   5.513 -0.0391 -0.3804 -0.1245
  273MOL0     C37582   0.395   7.168   6.741  1.0004 -0.9925  0.3440
  273MOL0     C37583   0.494   7.247   6.801 -0.0099 -0.3189 -0.3389
  273MOL0     O37584   0.601   7.559   6.607 -0.2270 -0.0904 -1.1082
  273MOL0     C37585   0.788   7.748   6.702  0.3310 -0.0486  0.8880
  273MOL0     C37586   0.890   7.832   6.753  0.8993  0.0781 -0.0564
  273MOL0     N37587   1.339   8.305   6.715  0.2092  0.1571 -0.2622
  273MOL0     N37588   1.405   8.311   6.605 -0.0924  0.2426  0.4838
  273MOL0     C37589   1.104   8.500   5.825  0.3924  0.4429 -0.2209
  273MOL0     C37590   0.967   8.494   5.785  0.1586  0.9111 -0.3267
  273MOL0     C37591   0.624   8.553   5.491 -0.6148 -0.0825  0.5547
  273MOL0     C37592   0.590   8.428   5.437 -0.1494 -0.6631 -0.2113
  273MOL0     C37593   0.484   8.412   5.354 -0.1383 -0.1977  0.2241
  273MOL0     C37594   0.402   8.510   5.319 -0.6521  0.1824  0.2064
  273MOL0     O37595   0.297   8.472   5.239 -0.0621  0.5139  0.0528
  273MOL0     C37596   0.208   8.566   5.178  0.0316 -0.0003 -1.1940
  273MOL0     C37597   0.286   8.640   5.068  0.0043  0.8023  0.1997
  273MOL0     C37598   0.234   8.777   5.010 -0.2534  0.6536 -0.0388
  273MOL0     C37599   0.273   8.906   5.074 -0.0429 -0.3062  1.5398
  273MOL0     C37600   0.195   8.913   5.201 -0.8286  0.3669 -0.2963
  273MOL0     C37601   0.136   8.910   5.303  0.5973 -0.0577  0.0094
  273MOL0     C37602   0.426   8.637   5.368 -0.6113  0.1644  0.3102
  273MOL0     C37603   0.531   8.664   5.454  0.1974 -0.5770  0.1756
  273MOL0     C37604   0.558   8.800   5.504 -0.0381  0.6019  0.1436
  273MOL0     H37605   1.001   8.379   5.473 -2.3868  1.3674 -0.4220
  273MOL0     H37606   1.230   8.381   5.532  1.7983  5.7335 -1.6065
  273MOL0     H37607   1.452   8.388   5.626  2.5371  0.3622  1.9808
  273MOL0     H37608   1.355   8.260   5.703  0.4066 -0.5740 -2.0540
  273MOL0     H37609   1.601   8.248   5.742 -1.1090 -1.1918  0.4483
  273MOL0     H37610   1.593   8.405   5.817  2.9112 -1.0784 -1.5974
  273MOL0     H37611   1.593   8.280   6.010 -0.0437 -0.2417  0.0022
  273MOL0     H37612   1.443   8.341   5.989  2.6173  2.7878  0.2180
  273MOL0     H37613   1.332   8.121   5.917 -0.2879 -0.7487  1.9325
  273MOL0     H37614   1.491   8.044   5.901 -2.2476 -1.5695  0.3638
  273MOL0     H37615   1.526   8.073   6.134 -0.5643  0.2682 -0.5173
  273MOL0     H37616   1.386   7.975   6.101 -2.1196  0.9376  0.5915
  273MOL0     H37617   1.360   8.267   6.164  2.4455 -0.2205 -1.5142
  273MOL0     H37618   1.235   8.142   6.133 -1.0914 -0.1825  2.4223
  273MOL0     H37619   1.295   8.022   6.338 -0.8776 -0.0446 -1.5373
  273MOL0     H37620   1.232   8.193   6.363  0.9895  0.8113  3.7492
  273MOL0     H37621   1.516   8.073   6.408  1.0006 -1.4432  2.7914
  273MOL0     H37622   1.502   8.247   6.375  1.3780 -0.7198  1.7880
  273MOL0     H37623   1.356   7.994   6.623  0.5389  0.5489 -1.0002
  273MOL0     H37624   1.127   8.104   6.843 -0.4587 -1.7618 -1.5067
  273MOL0     H37625   1.246   8.174   6.945 -1.0749  1.1810 -1.0940
  273MOL0     H37626   1.254   7.887   6.808 -0.1352  0.1787  1.3517
  273MOL0     H37627   1.393   7.954   6.891  0.1941  1.0318  0.4219
  273MOL0     H37628   1.300   7.856   7.078 -0.3122 -0.3029  0.2029
  273MOL0     H37629   1.214   8.012   7.073  1.5864  0.1454  0.3539
  273MOL0     H37630   1.112   7.751   6.961  1.8286 -0.0364 -0.4565
  273MOL0     H37631   1.067   7.818   7.120  0.2909 -0.8196  0.4645
  273MOL0     H37632   0.860   7.751   7.076 -4.4588  0.8971  0.2829
  273MOL0     H37633   0.747   7.461   7.020  1.0263  0.1140 -1.3630
  273MOL0     H37634   0.593   7.554   7.019  0.1272 -3.0704  1.4606
  273MOL0     H37635   0.727   7.603   7.122 -0.2328  0.0518 -0.0598
  273MOL0     H37636   0.702   7.300   6.551 -1.4435  1.2812 -0.2465
  273MOL0     H37637   0.565   7.128   6.445  1.2550 -0.7987  0.8576
  273MOL0     H37638   0.438   6.967   6.379  0.4735 -1.2126 -1.5676
  273MOL0     H37639   0.416   6.836   6.492 -0.9185  0.4117 -2.1526
  273MOL0     H37640   0.238   6.797   6.339  1.3652  0.6506 -0.8928
  273MOL0     H37641   0.158   6.885   6.466 -1.4223  3.8374 -0.8493
  273MOL0     H37642   0.256   7.086   6.287  0.3252  0.4571 -2.5484
  273MOL0     H37643   0.085   7.018   6.277  0.6307  2.2965 -2.7922
  273MOL0     H37644   0.164   6.855   6.115 -1.6378  0.3117  1.5756
  273MOL0     H37645   0.337   6.898   6.160 -0.8078 -1.8979 -1.5596
  273MOL0     H37646   0.155   7.080   6.019  0.7560  1.9019  0.1975
  273MOL0     H37647   0.321   7.122   6.059  0.6533  0.2374 -2.4612
  273MOL0     H37648   0.235   6.905   5.868 -0.3725  0.7963 -1.3670
  273MOL0     H37649   0.408   6.936   5.915  0.3259  1.0538 -3.1008
  273MOL0     H37650   0.348   7.176   5.807  0.8618 -0.1067 -2.0996
  273MOL0     H37651   0.210   7.103   5.761 -0.8710 -2.3804 -0.1717
  273MOL0     H37652   0.316   6.920   5.618  1.5991  0.0145 -2.2291
  273MOL0     H37653   0.468   7.014   5.645  0.6772 -4.6232  0.0537
  273MOL0     H37654   0.302   7.139   6.788  0.5851 -0.0976  0.0922
  273MOL0     H37655   0.482   7.288   6.900 -1.4500  0.6410 -0.8888
  273MOL0     H37656   0.766   7.744   6.596 -1.6304 -2.0348  1.2980
  273MOL0     H37657   0.938   7.908   6.693  1.1468  0.0387  0.0934
  273MOL0     H37658   1.139   8.535   5.921 -1.2544  1.2239  0.1374
  273MOL0     H37659   0.891   8.535   5.850  0.3607  0.0627  0.4652
  273MOL0     H37660   0.652   8.342   5.460  0.4460 -0.5688 -1.3789
  273MOL0     H37661   0.454   8.313   5.321 -0.1191 -0.6129  1.4209
  273MOL0     H37662   0.115   8.522   5.140  1.5819 -2.5079 -2.3670
  273MOL0     H37663   0.180   8.631   5.261  2.3183  0.3768 -0.6803
  273MOL0     H37664   0.296   8.568   4.986  0.7265 -1.3198  2.0580
  273MOL0     H37665   0.390   8.665   5.092  0.5232 -1.1772  0.2393
  273MOL0     H37666   0.257   8.771   4.903 -2.5435 -0.5294 -0.5256
  273MOL0     H37667   0.125   8.769   5.000 -0.3987  1.1496  1.0796
  273MOL0     H37668   0.229   8.990   5.019 -1.4827 -0.1736  2.8389
  273MOL0     H37669   0.381   8.914   5.089 -0.1916  1.6924  1.9073
  273MOL0     H37670   0.081   8.913   5.395 -1.0229 -0.9758 -0.8771
  273MOL0     H37671   0.367   8.722   5.334  2.2382  1.4776 -1.7510
  273MOL0     H37672   0.473   8.867   5.488  0.1600  1.4434  2.2878
  273MOL0     H37673   0.564   8.788   5.613  1.7186 -1.7988 -0.1531
  273MOL0     H37674   0.648   8.853   5.471 -0.1908  1.9256  1.7045
  274MOL0     O37675   7.386   6.814   6.665 -0.0390 -0.7767 -0.3526
  274MOL0     C37676   7.292   6.836   6.584 -0.3393  0.1323  0.3919
  274MOL0     O37677   7.170   6.772   6.589  0.7708 -0.8476  0.8911
  274MOL0     C37678   7.143   6.690   6.691 -0.1396  0.0780  0.1327
  274MOL0     C37679   7.129   6.741   6.823 -0.2072 -0.2111 -0.1026
  274MOL0     C37680   7.109   6.662   6.931 -0.4371  0.8219 -0.0527
  274MOL0     C37681   7.090   6.524   6.906 -0.5154 -0.1432  1.1220
  274MOL0     O37682   7.065   6.447   7.014 -0.3308 -0.1791  0.4406
  274MOL0     C37683   6.968   6.342   7.007  0.3067  0.4328  0.4225
  274MOL0     C37684   6.831   6.413   6.972  0.7961 -0.8093 -0.3831
  274MOL0     C37685   6.729   6.303   6.931  0.1199  0.3071 -0.5973
  274MOL0     C37686   6.600   6.374   6.954  0.5806  0.4395 -0.0812
  274MOL0     C37687   6.493   6.313   6.862  0.1626 -0.2663 -0.7502
  274MOL0     C37688   6.362   6.403   6.851 -0.5583 -0.5224 -0.3941
  274MOL0     C37689   6.394   6.537   6.779  0.2698  0.5620 -1.0798
  274MOL0     C37690   6.270   6.607   6.731  0.8256 -0.0031  0.4869
  274MOL0     N37691   6.298   6.703   6.626  0.1021  0.2135 -0.3989
  274MOL0     C37692   6.223   6.707   6.514  0.8930 -0.7928  0.1408
  274MOL0     C37693   6.257   6.825   6.453 -0.5539  0.2813  0.2982
  274MOL0     C37694   6.196   6.886   6.326 -0.2142  0.1395 -0.0976
  274MOL0     C37695   6.129   6.779   6.239 -1.1386 -0.1556 -0.2511
  274MOL0     C37696   6.078   6.832   6.099 -0.1046  0.3410 -1.0121
  274MOL0     C37697   6.010   6.712   6.041  0.6370 -0.7534  0.0782
  274MOL0     O37698   6.098   6.606   5.989 -0.2124  0.3329 -0.6288
  274MOL0     C37699   6.167   6.618   5.871 -0.0084  0.0645  0.2470
  274MOL0     C37700   6.307   6.618   5.874  0.2119 -0.4143 -0.1110
  274MOL0     C37701   6.374   6.637   5.744 -0.2527  0.6518  0.7999
  274MOL0     C37702   6.519   6.614   5.745  0.4740  0.0919  0.3367
  274MOL0     C37703   6.298   6.673   5.624 -0.1523 -0.1109 -0.8953
  274MOL0     C37704   6.360   6.682   5.491  0.3604 -0.0074  0.5025
  274MOL0     O37705   6.500   6.681   5.478 -0.2462 -0.4800 -0.1367
  274MOL0     C37706   6.556   6.734   5.359 -0.6915 -0.7502 -0.7540
  274MOL0     C37707   6.592   6.863   5.368  0.3509  0.4023  0.3528
  274MOL0     C37708   6.658   6.918   5.260  0.0532 -0.0986  0.3875
  274MOL0     C37709   6.668   6.848   5.138 -0.7416 -0.1773 -0.0605
  274MOL0     O37710   6.732   6.910   5.030  0.0396 -0.7245 -0.0037
  274MOL0     C37711   6.672   6.919   4.905  0.5208 -0.4317  0.2270
  274MOL0     C37712   6.673   7.060   4.842  0.4772  0.3231  0.4298
  274MOL0     C37713   6.808   7.092   4.782 -0.3889 -0.0188  0.3360
  274MOL0     C37714   6.807   7.228   4.707  0.7345 -0.0043 -0.0554
  274MOL0     C37715   6.950   7.292   4.690  0.6871  0.2623  0.2132
  274MOL0     C37716   6.965   7.426   4.633 -0.0494 -0.9341 -0.1286
  274MOL0     C37717   6.873   7.525   4.719 -0.3626  1.3074 -0.6987
  274MOL0     C37718   6.917   7.673   4.704 -0.3367  0.5887 -0.6525
  274MOL0    Cl37719   6.851   7.754   4.549  0.0385  0.3833  0.1570
  274MOL0     C37720   6.623   6.714   5.135 -0.7123 -0.8663 -0.1207
  274MOL0     C37721   6.566   6.658   5.249 -0.4122  0.8435  0.0730
  274MOL0     O37722   6.285   6.706   5.392 -0.1918 -0.7900 -0.4083
  274MOL0     C37723   6.157   6.684   5.636 -0.2325 -0.3973  0.1702
  274MOL0     C37724   6.096   6.668   5.758 -0.7827 -0.4469  0.2521
  274MOL0     N37725   6.357   6.887   6.528  0.6553  0.2379 -0.6631
  274MOL0     N37726   6.369   6.818   6.638 -0.0303  0.3438  0.1848
  274MOL0     C37727   7.107   6.467   6.779  0.2227  0.4874  0.4522
  274MOL0     C37728   7.130   6.551   6.667 -0.5871 -0.2476 -0.4654
  274MOL0     C37729   7.317   6.926   6.473 -0.4410  0.1028 -0.4882
  274MOL0     C37730   7.203   6.974   6.408  0.3504 -0.5381  0.4261
  274MOL0     C37731   7.218   7.048   6.289 -0.3978 -0.6772  0.3522
  274MOL0     C37732   7.343   7.072   6.244 -0.3150 -0.8155 -0.0867
  274MOL0     O37733   7.376   7.132   6.127 -0.4497  0.0066  0.2366
  274MOL0     C37734   7.302   7.243   6.088 -0.2092  0.8833 -0.1073
  274MOL0     C37735   7.365   7.375   6.116 -0.1212  0.0412 -0.6998
  274MOL0     C37736   7.511   7.388   6.056  0.2525  0.3912 -0.3391
  274MOL0     C37737   7.598   7.515   6.075  0.8629  0.5078 -0.9369
  274MOL0     C37738   7.521   7.630   6.038 -0.0104  0.1477 -0.0651
  274MOL0     C37739   7.448   7.725   6.006 -0.0435  0.5295  0.6959
  274MOL0     C37740   7.456   7.029   6.313 -0.4767 -0.5251 -0.1301
  274MOL0     C37741   7.446   6.952   6.426  0.0906 -0.5525  0.0826
  274MOL0     C37742   7.577   6.928   6.492 -0.3826 -0.5376 -0.8382
  274MOL0     H37743   7.128   6.847   6.845  0.7125 -0.3246  0.5658
  274MOL0     H37744   7.086   6.712   7.025 -4.8622  1.1487 -1.1037
  274MOL0     H37745   6.963   6.288   7.102  0.3812 -0.8711 -0.2867
  274MOL0     H37746   6.984   6.272   6.924  0.5119  1.1252 -0.1275
  274MOL0     H37747   6.803   6.484   7.050 -0.1315  0.3198 -1.6932
  274MOL0     H37748   6.843   6.480   6.887  2.0430  1.5844  1.5586
  274MOL0     H37749   6.761   6.282   6.828  1.6645 -2.3475  0.3401
  274MOL0     H37750   6.737   6.212   6.989 -2.3227  1.3191  1.4938
  274MOL0     H37751   6.573   6.368   7.060  4.5557 -1.2017  1.0498
  274MOL0     H37752   6.619   6.473   6.912  1.8965 -0.2309 -1.1277
  274MOL0     H37753   6.464   6.212   6.895  2.6356 -0.1660  2.2109
  274MOL0     H37754   6.535   6.297   6.763 -1.7986  0.4696 -1.7477
  274MOL0     H37755   6.287   6.346   6.794  0.9003 -0.7963 -2.1480
  274MOL0     H37756   6.321   6.423   6.950  2.6646  1.5244  0.6735
  274MOL0     H37757   6.462   6.503   6.700  3.4111 -0.1544  1.7061
  274MOL0     H37758   6.444   6.603   6.850  1.7885 -1.2729 -0.3541
  274MOL0     H37759   6.210   6.525   6.691 -0.5346  0.3018  1.7882
  274MOL0     H37760   6.213   6.660   6.808  0.3078  2.3811 -1.3894
  274MOL0     H37761   6.143   6.640   6.484 -0.1156 -0.3838  1.7904
  274MOL0     H37762   6.264   6.945   6.263 -1.5946  2.7560  0.6982
  274MOL0     H37763   6.119   6.957   6.359 -0.4289 -1.5316  3.4615
  274MOL0     H37764   6.207   6.707   6.213 -0.9582 -0.8506  2.0134
  274MOL0     H37765   6.047   6.733   6.294 -0.3382 -1.3283 -0.0270
  274MOL0     H37766   5.997   6.904   6.117  1.0672  1.3817  0.4332
  274MOL0     H37767   6.162   6.874   6.042 -0.1756  0.1040 -1.2855
  274MOL0     H37768   5.939   6.661   6.107  0.2251 -2.0703 -1.3094
  274MOL0     H37769   5.950   6.761   5.964 -0.0753 -0.3140  0.9023
  274MOL0     H37770   6.358   6.611   5.969 -0.6319  2.4660  0.6559
  274MOL0     H37771   6.538   6.525   5.685 -0.6350 -0.6540  1.0561
  274MOL0     H37772   6.551   6.586   5.845 -0.8369  1.3327  1.1456
  274MOL0     H37773   6.579   6.701   5.714  2.6276 -1.5310 -0.2840
  274MOL0     H37774   6.559   6.919   5.455  0.6832  0.5770  0.3710
  274MOL0     H37775   6.689   7.022   5.262 -1.5722  0.5097 -1.9620
  274MOL0     H37776   6.717   6.845   4.839  0.5458  2.0913 -2.8296
  274MOL0     H37777   6.567   6.890   4.919  0.5701 -0.8867 -0.3315
  274MOL0     H37778   6.598   7.073   4.763  1.1239  1.3765 -0.0364
  274MOL0     H37779   6.650   7.127   4.925 -1.8015  0.3761 -0.1629
  274MOL0     H37780   6.839   7.009   4.718 -0.5004 -0.6006  1.0375
  274MOL0     H37781   6.872   7.091   4.870 -0.1798 -0.7096  0.1804
  274MOL0     H37782   6.737   7.298   4.753 -0.7757 -2.4723  1.6109
  274MOL0     H37783   6.763   7.210   4.608  2.3786  1.2514 -1.0669
  274MOL0     H37784   7.002   7.305   4.785 -0.0394 -2.3211  1.0488
  274MOL0     H37785   7.017   7.219   4.644  1.1493  0.0211  1.2409
  274MOL0     H37786   6.924   7.430   4.532 -1.6567  0.6850  0.5293
  274MOL0     H37787   7.071   7.453   4.643 -0.3953  1.7895 -2.5367
  274MOL0     H37788   6.893   7.497   4.822 -0.9068  3.0814 -0.0767
  274MOL0     H37789   6.764   7.520   4.714 -0.5660  1.6179  2.2074
  274MOL0     H37790   7.025   7.676   4.686 -0.0568 -2.8318 -0.1961
  274MOL0     H37791   6.889   7.728   4.795  3.5831  0.1863  0.9709
  274MOL0     H37792   6.630   6.652   5.046  3.1014  2.9488 -2.9435
  274MOL0     H37793   6.536   6.554   5.247  1.5852  0.2286 -1.4867
  274MOL0     H37794   6.100   6.702   5.546  2.1727  0.2456 -1.3062
  274MOL0     H37795   5.991   6.683   5.781 -1.7723 -4.2892 -0.8854
  274MOL0     H37796   7.098   6.362   6.755  0.8307  0.9688 -2.2345
  274MOL0     H37797   7.133   6.509   6.567 -1.4604 -0.4605 -0.4115
  274MOL0     H37798   7.099   6.968   6.438  0.3264  0.2148  0.5190
  274MOL0     H37799   7.133   7.093   6.239  0.6563  0.0917 -0.7989
  274MOL0     H37800   7.292   7.223   5.981 -1.3589 -0.7916  0.2614
  274MOL0     H37801   7.202   7.242   6.133 -0.8830  1.8599 -1.4831
  274MOL0     H37802   7.372   7.381   6.225 -1.0464  1.1751 -0.6833
  274MOL0     H37803   7.306   7.454   6.069 -0.2619  2.2692  2.8832
  274MOL0     H37804   7.577   7.312   6.100 -0.5481 -0.8373 -1.1999
  274MOL0     H37805   7.508   7.358   5.951 -3.3122  0.3888 -0.3589
  274MOL0     H37806   7.687   7.511   6.011 -0.4791  1.2070 -2.9856
  274MOL0     H37807   7.626   7.539   6.178  1.6804  0.2243 -1.0871
  274MOL0     H37808   7.393   7.812   5.975 -1.5928  0.7885  3.8113
  274MOL0     H37809   7.555   7.042   6.273 -0.3127 -4.2002 -1.2953
  274MOL0     H37810   7.574   6.983   6.586 -0.4576  0.6438 -1.5121
  274MOL0     H37811   7.594   6.820   6.504 -0.5522 -0.3371  1.9326
  274MOL0     H37812   7.661   6.978   6.444 -1.2442  5.3820  2.8670
  275MOL0     O37813   5.429   7.229   5.553 -0.1474  0.0837 -0.4448
  275MOL0     C37814   5.310   7.229   5.598 -1.0798  0.0020  0.2843
  275MOL0     O37815   5.226   7.119   5.600  0.0012 -0.8951  0.2557
  275MOL0     C37816   5.272   7.002   5.559 -0.0195  0.8626  1.0079
  275MOL0     C37817   5.300   6.897   5.656 -0.3374 -0.0884  0.9886
  275MOL0     C37818   5.347   6.775   5.613  0.1868 -1.2228 -0.3614
  275MOL0     C37819   5.353   6.740   5.480 -0.2887  1.9382  0.0253
  275MOL0     O37820   5.357   6.596   5.456  1.2567 -0.2397  0.5394
  275MOL0     C37821   5.318   6.562   5.315  0.9166 -1.0172 -0.0253
  275MOL0     C37822   5.281   6.413   5.306  0.1908  0.1781  1.1728
  275MOL0     C37823   5.192   6.351   5.409  0.1099 -1.0645 -0.3294
  275MOL0     C37824   5.148   6.210   5.366  0.4086 -0.8465 -0.2714
  275MOL0     C37825   5.074   6.125   5.479  0.0716  0.5355  0.3393
  275MOL0     C37826   5.167   6.074   5.588 -0.1148 -0.2784 -0.1968
  275MOL0     C37827   5.118   5.950   5.653 -0.7020  0.4284  0.0553
  275MOL0     C37828   4.976   5.947   5.709  0.2139 -0.3132 -1.1240
  275MOL0     N37829   4.965   6.027   5.827 -0.3883 -0.0193  0.1777
  275MOL0     C37830   5.039   6.012   5.942 -0.0836  0.3264  0.2365
  275MOL0     C37831   4.990   6.100   6.034  0.2880  0.2581  0.4047
  275MOL0     C37832   5.057   6.104   6.172 -0.8402 -0.5897 -0.0397
  275MOL0     C37833   5.053   6.242   6.238 -0.1268  0.1032 -0.6052
  275MOL0     C37834   4.915   6.255   6.299 -0.8882 -0.0269  0.0813
  275MOL0     C37835   4.900   6.400   6.352  0.2715 -0.2097  0.1431
  275MOL0     O37836   5.008   6.423   6.442  0.8610  0.6732  0.5695
  275MOL0     C37837   4.974   6.431   6.577  0.0895  0.2461 -0.2517
  275MOL0     C37838   4.852   6.467   6.630 -0.3466  0.0647 -0.1810
  275MOL0     C37839   4.830   6.460   6.767 -0.5726 -0.6282 -0.2382
  275MOL0     C37840   4.685   6.464   6.806  0.4550 -0.3452 -0.1102
  275MOL0     C37841   4.944   6.465   6.851  1.0425  0.1593  0.1143
  275MOL0     C37842   4.935   6.468   7.000 -0.7801  0.0884  0.5895
  275MOL0     O37843   5.041   6.419   7.071 -0.0638  0.2755  0.1335
  275MOL0     C37844   5.028   6.411   7.204 -0.9792 -0.0740 -0.4796
  275MOL0     C37845   5.035   6.291   7.280  0.2714 -0.2117  1.0220
  275MOL0     C37846   5.016   6.295   7.418  0.7276  0.5281 -0.3645
  275MOL0     C37847   5.020   6.421   7.485 -0.1260 -0.9554 -0.6774
  275MOL0     O37848   5.027   6.426   7.623  0.4507  0.2196 -0.7238
  275MOL0     C37849   5.137   6.494   7.679 -0.4109  0.3534 -0.0428
  275MOL0     C37850   5.160   6.460   7.820 -0.0087 -0.6255 -0.0024
  275MOL0     C37851   5.192   6.316   7.851 -0.0145  0.2474  0.6060
  275MOL0     C37852   5.198   6.272   7.993  0.1874  0.3412  0.7480
  275MOL0     C37853   5.091   6.170   8.033 -0.2313  0.6604 -0.0348
  275MOL0     C37854   5.100   6.122   8.176 -0.6687 -0.2649 -0.2632
  275MOL0     C37855   4.969   6.054   8.221  0.5274  0.7121  0.6387
  275MOL0     C37856   4.951   6.057   8.366  0.3628 -0.0114  0.3793
  275MOL0    Cl37857   5.071   5.954   8.440  0.2406  0.1803  0.1911
  275MOL0     C37858   5.010   6.535   7.416 -0.8822 -0.2214  0.3474
  275MOL0     C37859   5.024   6.531   7.273  0.1471  0.1939 -0.3721
  275MOL0     O37860   4.831   6.506   7.035 -0.3660  0.2292 -0.1075
  275MOL0     C37861   5.062   6.436   6.802  0.1880  0.6113 -0.0391
  275MOL0     C37862   5.080   6.410   6.664 -0.6985 -0.3020 -0.3534
  275MOL0     N37863   4.880   6.169   5.968  0.0525  0.6018  0.7327
  275MOL0     N37864   4.871   6.126   5.852 -1.0771 -0.6090  0.0217
  275MOL0     C37865   5.324   6.832   5.376  0.2922  0.1196 -0.2095
  275MOL0     C37866   5.285   6.963   5.419 -1.5357  0.3725  0.2456
  275MOL0     C37867   5.248   7.368   5.631  0.2597 -0.7394  0.3228
  275MOL0     C37868   5.110   7.377   5.631 -0.5077  0.3272  0.2935
  275MOL0     C37869   5.049   7.499   5.647 -0.8345  0.7637 -0.5371
  275MOL0     C37870   5.114   7.622   5.667  0.2933  0.1091 -0.0172
  275MOL0     O37871   5.040   7.732   5.701  0.3588  0.6025 -0.5866
  275MOL0     C37872   5.078   7.858   5.663 -0.0594 -0.1792  0.2519
  275MOL0     C37873   4.955   7.924   5.611 -0.1513  1.1567 -0.4702
  275MOL0     C37874   4.974   8.065   5.566 -0.1496 -0.3835 -0.3384
  275MOL0     C37875   4.885   8.104   5.447 -0.5238  0.3082  0.4972
  275MOL0     C37876   4.739   8.125   5.488  0.3005 -0.0058  0.0428
  275MOL0     C37877   4.630   8.147   5.530  0.2405 -0.0176 -0.1026
  275MOL0     C37878   5.259   7.610   5.664  0.5201  0.1822  0.2461
  275MOL0     C37879   5.324   7.491   5.643 -0.1202 -0.8768  0.3524
  275MOL0     C37880   5.465   7.500   5.614  0.2505 -1.0422 -0.4051
  275MOL0     H37881   5.293   6.936   5.757  0.3449  0.5731  0.7946
  275MOL0     H37882   5.359   6.699   5.689 -0.0512 -0.0605  0.8692
  275MOL0     H37883   5.395   6.583   5.240  1.0871 -0.5095  0.2880
  275MOL0     H37884   5.227   6.614   5.285  0.6207  0.3156  2.8537
  275MOL0     H37885   5.237   6.396   5.207  1.8636 -2.6800  0.8135
  275MOL0     H37886   5.376   6.359   5.300 -1.4369 -2.7579 -0.6172
  275MOL0     H37887   5.249   6.351   5.503  1.4620  0.9717 -1.0796
  275MOL0     H37888   5.103   6.413   5.425  1.2605 -0.0126  2.8663
  275MOL0     H37889   5.083   6.225   5.279  2.4364  1.9342 -1.4698
  275MOL0     H37890   5.239   6.161   5.331  1.4504  0.1915  0.8761
  275MOL0     H37891   5.042   6.032   5.433  2.7665  0.4850 -1.6603
  275MOL0     H37892   4.982   6.177   5.507  0.9606  2.4460 -0.1057
  275MOL0     H37893   5.266   6.052   5.547 -1.1458 -3.2214 -1.3775
  275MOL0     H37894   5.178   6.144   5.672 -3.4987  0.3652 -0.1484
  275MOL0     H37895   5.196   5.927   5.727 -0.8537 -0.7188 -0.1162
  275MOL0     H37896   5.139   5.868   5.583  3.4021  0.7955  0.6359
  275MOL0     H37897   4.913   5.984   5.628 -2.7035  0.9414  1.4755
  275MOL0     H37898   4.950   5.842   5.729  2.6127 -0.7510  0.1490
  275MOL0     H37899   5.122   5.943   5.945 -1.1251 -0.9504  0.3023
  275MOL0     H37900   5.158   6.061   6.174 -0.1438  0.9357 -0.2974
  275MOL0     H37901   5.013   6.034   6.243  2.3653 -2.0823  0.6581
  275MOL0     H37902   5.123   6.239   6.322 -0.5974 -1.6104 -0.2516
  275MOL0     H37903   5.066   6.328   6.172  1.7421  1.0168  0.8539
  275MOL0     H37904   4.840   6.229   6.223  0.1073  1.7394 -1.6158
  275MOL0     H37905   4.908   6.184   6.382 -2.0195 -0.3584 -0.2732
  275MOL0     H37906   4.910   6.460   6.261 -1.7797 -3.3054 -2.3362
  275MOL0     H37907   4.803   6.415   6.400  1.5596  1.0688  2.5381
  275MOL0     H37908   4.770   6.501   6.568 -0.7669 -0.9732 -0.2071
  275MOL0     H37909   4.667   6.436   6.911  1.0411 -0.7385 -0.1109
  275MOL0     H37910   4.619   6.414   6.735  2.3717 -0.1810 -2.1274
  275MOL0     H37911   4.659   6.570   6.798 -0.5693 -0.4583  1.3348
  275MOL0     H37912   5.054   6.202   7.221 -0.0824 -0.2100  0.9042
  275MOL0     H37913   5.014   6.207   7.482  1.0995  1.6522  1.2624
  275MOL0     H37914   5.224   6.474   7.616 -0.5481 -0.6330  0.0650
  275MOL0     H37915   5.117   6.601   7.686  0.1146  0.3493  5.1614
  275MOL0     H37916   5.238   6.526   7.859  0.6377 -2.0908  1.3058
  275MOL0     H37917   5.069   6.478   7.878  0.2605  1.6265 -0.1951
  275MOL0     H37918   5.282   6.286   7.796 -1.3907 -1.7480 -0.6640
  275MOL0     H37919   5.114   6.251   7.811 -0.1163 -1.7259  3.7568
  275MOL0     H37920   5.185   6.357   8.061 -1.4991 -1.3843  2.7243
  275MOL0     H37921   5.294   6.219   8.002 -0.3617 -1.0921 -1.0925
  275MOL0     H37922   5.001   6.232   8.022 -2.0269 -1.0265  3.4798
  275MOL0     H37923   5.094   6.084   7.966  1.9985  0.3494  0.4000
  275MOL0     H37924   5.121   6.214   8.233 -1.0337 -0.1412 -0.3258
  275MOL0     H37925   5.192   6.065   8.190  0.5826  1.8454  0.6807
  275MOL0     H37926   4.980   5.954   8.180  2.1237  0.7546  0.8998
  275MOL0     H37927   4.889   6.115   8.176  1.5945  1.1387 -0.7381
  275MOL0     H37928   4.853   6.024   8.400 -0.4769  2.0970  0.1477
  275MOL0     H37929   4.961   6.160   8.401  0.3923  0.0403  0.2201
  275MOL0     H37930   4.995   6.632   7.463 -0.2641  1.6332 -2.9137
  275MOL0     H37931   5.030   6.624   7.217  0.7209  1.3226  1.4920
  275MOL0     H37932   5.147   6.411   6.864 -1.0570  0.4810  1.6789
  275MOL0     H37933   5.176   6.378   6.626  0.5085  2.6573 -0.0755
  275MOL0     H37934   5.352   6.820   5.272  0.4137  2.1668 -0.4635
  275MOL0     H37935   5.268   7.041   5.345  1.6816  1.1314  0.1468
  275MOL0     H37936   5.054   7.284   5.642  0.3229 -0.2528 -0.2691
  275MOL0     H37937   4.941   7.490   5.660 -0.5220 -0.6779  1.5358
  275MOL0     H37938   5.113   7.919   5.746  1.4248 -2.1462  1.1511
  275MOL0     H37939   5.148   7.861   5.579 -0.6798  0.4170 -0.2561
  275MOL0     H37940   4.874   7.911   5.684  0.7249 -0.2279  0.2941
  275MOL0     H37941   4.915   7.870   5.524 -0.4597  0.4864  0.0692
  275MOL0     H37942   4.956   8.130   5.652  0.5034 -0.6899  0.0364
  275MOL0     H37943   5.080   8.077   5.538 -0.1200 -4.4894 -2.8853
  275MOL0     H37944   4.906   8.043   5.359 -0.4590  3.8408 -2.1444
  275MOL0     H37945   4.916   8.196   5.398 -1.0664 -0.1438 -0.7461
  275MOL0     H37946   4.541   8.171   5.586  1.8197  2.7814  1.3851
  275MOL0     H37947   5.313   7.704   5.671  0.6286 -0.0104  2.8616
  275MOL0     H37948   5.485   7.486   5.507  2.8742  2.5306 -0.5729
  275MOL0     H37949   5.510   7.596   5.642  2.3163 -2.3380  1.0263
  275MOL0     H37950   5.518   7.420   5.666  0.8864 -1.4138 -1.5703
  276MOL0     O37951   8.213   5.923   6.345 -0.8736  0.1346  0.7056
  276MOL0     C37952   8.311   5.853   6.337 -0.2097  0.1762 -0.5568
  276MOL0     O37953   8.302   5.716   6.306 -0.0384  0.4020  0.0923
  276MOL0     C37954   8.187   5.649   6.285  0.3314 -0.5104 -0.3014
  276MOL0     C37955   8.084   5.683   6.194 -0.1997  0.2745  0.8355
  276MOL0     C37956   7.960   5.613   6.193  0.7050 -0.1017 -0.3265
  276MOL0     C37957   7.939   5.507   6.273 -0.1392 -0.6824 -0.2597
  276MOL0     O37958   7.817   5.437   6.277 -0.1296 -0.6198  0.5069
  276MOL0     C37959   7.741   5.433   6.152  0.4835  0.3038 -0.2461
  276MOL0     C37960   7.612   5.345   6.166  0.3256 -0.1586 -0.3877
  276MOL0     C37961   7.513   5.410   6.258 -0.6424 -0.3605  0.3406
  276MOL0     C37962   7.407   5.516   6.204 -1.2130  0.2870 -0.3283
  276MOL0     C37963   7.334   5.453   6.078  0.7334  1.1536 -0.3363
  276MOL0     C37964   7.212   5.528   6.036 -0.3827 -0.4633 -0.3209
  276MOL0     C37965   7.145   5.479   5.907  0.3623  0.2921  0.3380
  276MOL0     C37966   7.050   5.578   5.858  0.1424 -0.3623 -0.0381
  276MOL0     N37967   6.987   5.537   5.727 -0.4600 -0.1261 -0.3584
  276MOL0     C37968   6.861   5.480   5.708 -0.1943 -0.4070  0.1418
  276MOL0     C37969   6.854   5.456   5.577 -0.5106  0.6948  0.5267
  276MOL0     C37970   6.746   5.381   5.495  1.0392 -0.0967 -0.6309
  276MOL0     C37971   6.674   5.475   5.398  0.8459  0.0532 -0.2241
  276MOL0     C37972   6.546   5.537   5.469  0.0943 -0.5005 -0.0094
  276MOL0     C37973   6.488   5.651   5.380 -0.4857  0.6242 -0.2925
  276MOL0     O37974   6.373   5.712   5.440 -0.2698  0.4972 -0.4310
  276MOL0     C37975   6.284   5.780   5.362 -0.0031  0.2315 -0.8141
  276MOL0     C37976   6.169   5.822   5.424 -1.1398  0.5459 -0.2784
  276MOL0     C37977   6.066   5.881   5.349  0.0231 -0.2816  0.1688
  276MOL0     C37978   5.933   5.908   5.417 -0.0089  0.2915  0.3462
  276MOL0     C37979   6.083   5.916   5.211 -0.4038  1.3713  0.7603
  276MOL0     C37980   5.993   6.004   5.123 -0.0288 -0.2916  0.3089
  276MOL0     O37981   6.041   6.039   4.993 -0.4917  0.3392 -0.1352
  276MOL0     C37982   5.964   6.102   4.906  0.2969  0.4387 -0.1196
  276MOL0     C37983   5.930   6.233   4.905 -0.9578  0.9505 -0.0908
  276MOL0     C37984   5.847   6.289   4.811  0.3958  0.4877  0.1885
  276MOL0     C37985   5.802   6.213   4.700 -1.1286 -0.0417 -0.5181
  276MOL0     O37986   5.736   6.274   4.596  0.0298 -0.0703  0.4134
  276MOL0     C37987   5.838   6.325   4.513  0.2566 -0.5031  0.1290
  276MOL0     C37988   5.869   6.218   4.410  0.1529 -0.1676 -0.7226
  276MOL0     C37989   5.939   6.281   4.288 -0.2013 -0.2672 -0.2180
  276MOL0     C37990   5.997   6.177   4.186  0.7771 -0.4057 -0.6065
  276MOL0     C37991   6.012   6.248   4.050 -0.5556  0.7384 -0.2730
  276MOL0     C37992   6.080   6.138   3.959 -0.4824  0.0908 -0.0300
  276MOL0     C37993   6.123   6.188   3.820 -0.5587  0.1906  0.7005
  276MOL0     C37994   6.156   6.057   3.734  0.9610 -0.5576  0.5928
  276MOL0    Cl37995   6.183   6.114   3.559 -0.2274  0.0381 -0.3887
  276MOL0     C37996   5.821   6.071   4.692  0.6646  0.2474  0.5474
  276MOL0     C37997   5.911   6.022   4.797  0.3725 -0.3930  0.8485
  276MOL0     O37998   5.889   6.041   5.172 -0.1132 -0.2070 -0.4002
  276MOL0     C37999   6.197   5.869   5.153 -0.4388  0.7929 -0.4604
  276MOL0     C38000   6.302   5.802   5.225  0.6346  0.3797  0.8576
  276MOL0     N38001   6.972   5.498   5.520  0.3693  0.2178 -0.9566
  276MOL0     N38002   7.055   5.550   5.607  0.0639  0.3245 -0.7553
  276MOL0     C38003   8.036   5.480   6.367  0.4512  0.3201 -0.5066
  276MOL0     C38004   8.158   5.544   6.370  0.1884 -0.1910 -0.4655
  276MOL0     C38005   8.435   5.915   6.383 -0.0428 -0.8929 -0.2294
  276MOL0     C38006   8.536   5.841   6.458  0.2203 -0.5793 -0.2162
  276MOL0     C38007   8.657   5.896   6.485 -0.2061 -0.3161  0.1757
  276MOL0     C38008   8.705   6.028   6.436  0.6072  1.1630 -0.2624
  276MOL0     O38009   8.827   6.087   6.449 -0.6392  0.2291  0.1825
  276MOL0     C38010   8.921   6.035   6.541 -0.2956  0.1527 -1.1280
  276MOL0     C38011   9.034   5.951   6.485 -0.4055 -0.4418 -0.2404
  276MOL0     C38012   9.137   5.914   6.598 -0.2266  0.2557  0.3847
  276MOL0     C38013   9.237   5.801   6.557 -0.3545  1.0277 -0.3229
  276MOL0     C38014   9.310   5.782   6.686  0.3826  0.1372  0.4998
  276MOL0     C38015   9.330   5.744   6.801 -0.1551 -0.3336  0.2343
  276MOL0     C38016   8.611   6.090   6.354  0.4937 -0.6728  0.4490
  276MOL0     C38017   8.478   6.041   6.324 -0.2378  0.6190 -1.3728
  276MOL0     C38018   8.408   6.123   6.228  1.5025 -1.1127 -0.1650
  276MOL0     H38019   8.092   5.755   6.113 -4.3600  0.4413  0.3386
  276MOL0     H38020   7.885   5.652   6.125  0.3450  1.4290  0.8759
  276MOL0     H38021   7.807   5.387   6.078  3.0718 -2.3966  3.3676
  276MOL0     H38022   7.708   5.534   6.129 -0.8056  0.0613  0.4499
  276MOL0     H38023   7.567   5.306   6.075 -1.8591  1.5858 -0.1632
  276MOL0     H38024   7.655   5.258   6.217  2.7593  1.4614  0.5164
  276MOL0     H38025   7.462   5.332   6.315  0.8347 -1.4989  0.1668
  276MOL0     H38026   7.567   5.466   6.335 -3.2401  0.5361  1.6435
  276MOL0     H38027   7.335   5.549   6.280 -0.2391 -0.1299  0.8099
  276MOL0     H38028   7.467   5.600   6.169  0.2029 -1.9274 -3.6735
  276MOL0     H38029   7.299   5.351   6.095  0.6470  0.8189 -2.3081
  276MOL0     H38030   7.410   5.429   6.004  0.8704  0.4359  0.0258
  276MOL0     H38031   7.142   5.517   6.119 -1.9803 -0.7996 -1.6660
  276MOL0     H38032   7.239   5.633   6.030 -1.5515 -0.0769  0.8021
  276MOL0     H38033   7.083   5.392   5.930 -1.9079  1.4859 -0.8949
  276MOL0     H38034   7.223   5.467   5.831  0.0332  3.9168 -0.7654
  276MOL0     H38035   6.972   5.607   5.928  0.7272  0.5838  0.2518
  276MOL0     H38036   7.108   5.670   5.840  2.0047 -1.4050  0.3765
  276MOL0     H38037   6.798   5.442   5.788 -2.1613  1.2093 -0.5592
  276MOL0     H38038   6.674   5.327   5.557 -0.2774  0.6252 -1.4804
  276MOL0     H38039   6.800   5.305   5.438  0.4913  1.7069 -3.7734
  276MOL0     H38040   6.752   5.547   5.370  2.2866 -0.8273  1.2928
  276MOL0     H38041   6.645   5.411   5.314 -0.0379 -1.6285  1.2842
  276MOL0     H38042   6.469   5.462   5.491  0.5248 -1.5248 -1.7656
  276MOL0     H38043   6.581   5.573   5.566  1.3228  2.4556 -1.4347
  276MOL0     H38044   6.560   5.730   5.357  0.7882 -0.1872  0.7934
  276MOL0     H38045   6.463   5.604   5.284  0.7996 -1.7591  0.4703
  276MOL0     H38046   6.160   5.801   5.531 -0.2766  2.0042  0.1105
  276MOL0     H38047   5.944   5.859   5.515 -0.0296 -0.5985 -0.0861
  276MOL0     H38048   5.854   5.859   5.359  0.8999 -0.5425 -0.2080
  276MOL0     H38049   5.919   6.016   5.422 -0.4939  0.3127 -1.0166
  276MOL0     H38050   5.981   6.287   4.984  0.7573 -0.9378  0.1821
  276MOL0     H38051   5.823   6.395   4.810 -0.0512  0.4092 -1.5896
  276MOL0     H38052   5.806   6.422   4.473  2.8816  0.2969 -0.2121
  276MOL0     H38053   5.926   6.344   4.576  0.2781 -0.0764 -0.0298
  276MOL0     H38054   5.938   6.140   4.441 -0.9645 -0.9580 -0.1470
  276MOL0     H38055   5.774   6.165   4.394 -0.6862  0.7421  0.9763
  276MOL0     H38056   6.017   6.350   4.321 -1.6769  0.0257  3.1276
  276MOL0     H38057   5.863   6.328   4.225  3.6751  4.3096 -2.0672
  276MOL0     H38058   5.931   6.090   4.181  0.6585 -0.5280  1.9633
  276MOL0     H38059   6.096   6.149   4.222  0.2094 -0.7880  0.6996
  276MOL0     H38060   5.918   6.286   4.009 -0.3143  1.7311  0.0685
  276MOL0     H38061   6.082   6.331   4.063 -0.2632  0.4793 -0.1700
  276MOL0     H38062   6.005   6.061   3.937 -1.2343  0.0035  2.5027
  276MOL0     H38063   6.156   6.082   4.015 -3.2926 -2.2595  1.7734
  276MOL0     H38064   6.207   6.257   3.827  0.5456 -1.1665  1.5134
  276MOL0     H38065   6.036   6.243   3.783  0.2367  0.3153 -1.0853
  276MOL0     H38066   6.073   5.985   3.736  0.7697 -0.3198  1.7020
  276MOL0     H38067   6.242   6.003   3.775  1.0828 -0.7187  0.1378
  276MOL0     H38068   5.793   6.003   4.612  0.0716  2.1999 -0.9922
  276MOL0     H38069   5.933   5.916   4.799  5.7090  0.4468  1.5958
  276MOL0     H38070   6.219   5.891   5.049  3.2175 -1.8956 -0.4398
  276MOL0     H38071   6.392   5.759   5.181 -1.9277 -3.9673 -0.8597
  276MOL0     H38072   8.020   5.395   6.433  0.1817 -0.8008 -1.9519
  276MOL0     H38073   8.225   5.519   6.452  0.8673 -1.1122 -1.2837
  276MOL0     H38074   8.504   5.746   6.500 -2.1105 -0.6302 -1.9381
  276MOL0     H38075   8.725   5.836   6.543  3.2945  0.4140 -2.7882
  276MOL0     H38076   8.965   6.125   6.587 -0.7382 -0.1012 -0.1938
  276MOL0     H38077   8.874   5.975   6.618  0.8515 -0.0197 -0.5439
  276MOL0     H38078   9.074   6.008   6.401 -0.9311  0.6458  0.2251
  276MOL0     H38079   8.983   5.865   6.440 -2.2455  1.3204 -1.7160
  276MOL0     H38080   9.186   6.003   6.639  0.8967  0.5317 -1.4515
  276MOL0     H38081   9.073   5.879   6.680  0.4939  0.9588  1.2662
  276MOL0     H38082   9.299   5.844   6.478  0.3529 -1.1628 -1.0292
  276MOL0     H38083   9.191   5.708   6.521  0.4052 -0.0343  1.3084
  276MOL0     H38084   9.343   5.719   6.904 -2.6717  1.5381  1.0914
  276MOL0     H38085   8.654   6.180   6.310  0.5293 -2.1063 -2.7506
  276MOL0     H38086   8.360   6.072   6.144  1.0984  1.5530 -1.6645
  276MOL0     H38087   8.325   6.173   6.279  0.1510 -0.2172 -3.0136
  276MOL0     H38088   8.473   6.204   6.195 -0.3158  0.4644 -0.0156
  277MOL0     O38089   7.101   3.705  10.428  0.3810 -0.7301 -0.6096
  277MOL0     C38090   7.001   3.734  10.496  0.8293 -0.0894 -0.2407
  277MOL0     O38091   6.928   3.851  10.495 -0.0349 -0.1472  0.0594
  277MOL0     C38092   6.969   3.973  10.447  0.4677 -0.2904  0.8346
  277MOL0     C38093   7.101   4.007  10.415 -0.6557  1.2573  1.1726
  277MOL0     C38094   7.138   4.136  10.383 -0.2408 -0.7956  0.8209
  277MOL0     C38095   7.037   4.235  10.372 -0.0261  0.0658 -1.2916
  277MOL0     O38096   7.069   4.362  10.338 -0.3350 -0.3576  0.8188
  277MOL0     C38097   7.174   4.426  10.419 -0.1415 -0.1898 -0.2813
  277MOL0     C38098   7.102   4.560  10.452 -0.7668  1.0397  1.5010
  277MOL0     C38099   7.130   4.663  10.336 -0.1234  0.1333 -0.5723
  277MOL0     C38100   7.096   4.802  10.382 -0.5969  0.2028  0.1193
  277MOL0     C38101   7.114   4.897  10.262  0.2781 -0.7167  0.4777
  277MOL0     C38102   7.077   5.043  10.274  0.6340 -0.0341  0.6567
  277MOL0     C38103   7.102   5.110  10.136  0.8537  0.5477 -1.2549
  277MOL0     C38104   6.991   5.072  10.033 -0.1300  0.0416 -0.3004
  277MOL0     N38105   6.876   5.159  10.045 -0.0957 -0.4815  0.0860
  277MOL0     C38106   6.886   5.292  10.002 -0.2784  0.3198 -0.7789
  277MOL0     C38107   6.771   5.353  10.039 -0.3134  0.4178 -1.6692
  277MOL0     C38108   6.728   5.488  10.015 -0.5959 -0.0344 -0.2932
  277MOL0     C38109   6.780   5.540   9.884  0.6604  0.4799  0.3025
  277MOL0     C38110   6.685   5.643   9.831  0.0102 -0.6172 -0.3795
  277MOL0     C38111   6.709   5.698   9.688 -0.5889 -0.5190  0.2358
  277MOL0     O38112   6.582   5.725   9.623 -0.0616 -0.5576 -0.3562
  277MOL0     C38113   6.581   5.746   9.490  0.4906 -0.0561  0.5518
  277MOL0     C38114   6.689   5.711   9.398  0.1617 -0.2320 -0.5207
  277MOL0     C38115   6.670   5.747   9.262 -0.1368 -0.6587 -0.4933
  277MOL0     C38116   6.791   5.721   9.166 -1.0900 -0.4658  0.3458
  277MOL0     C38117   6.544   5.794   9.215 -0.8775 -0.0235  0.5142
  277MOL0     C38118   6.509   5.845   9.072  0.5078 -0.0378  0.5043
  277MOL0     O38119   6.396   5.913   9.049  0.5202  0.7750 -0.3298
  277MOL0     C38120   6.376   5.952   8.917 -0.3190  0.3058  0.1577
  277MOL0     C38121   6.450   6.052   8.859  0.5701 -0.1318  0.5131
  277MOL0     C38122   6.433   6.086   8.724 -0.0196  0.1364 -0.6347
  277MOL0     C38123   6.352   6.010   8.642 -0.7647  0.0302  0.2574
  277MOL0     O38124   6.353   6.031   8.506  0.5819 -0.1684 -0.6375
  277MOL0     C38125   6.461   6.100   8.445  0.5410 -0.8599  0.6213
  277MOL0     C38126   6.464   6.073   8.294  0.4836 -1.0948  0.6722
  277MOL0     C38127   6.553   5.953   8.260  0.4758 -0.8814 -0.7385
  277MOL0     C38128   6.537   5.906   8.109 -0.2622 -0.1974  0.5220
  277MOL0     C38129   6.584   6.016   8.009 -0.6225  0.1387  0.3389
  277MOL0     C38130   6.547   5.983   7.865 -0.5588  0.1584  0.8099
  277MOL0     C38131   6.403   6.016   7.827 -0.3927  0.4454 -0.3211
  277MOL0     C38132   6.382   6.016   7.677 -0.6245  0.5659 -0.5561
  277MOL0    Cl38133   6.463   6.177   7.636  0.7444  0.2486  0.0048
  277MOL0     C38134   6.278   5.909   8.696  0.1470  0.3834  0.0960
  277MOL0     C38135   6.285   5.888   8.836  0.1293 -0.4621 -0.0504
  277MOL0     O38136   6.592   5.822   8.982  0.0412 -0.5245  0.5374
  277MOL0     C38137   6.444   5.803   9.300  0.3741 -0.6627  0.2742
  277MOL0     C38138   6.460   5.785   9.436  1.0805  1.2046 -0.1993
  277MOL0     N38139   6.693   5.266  10.119 -0.4626 -0.3671 -0.3628
  277MOL0     N38140   6.762   5.158  10.125 -0.7579 -0.4538 -0.2199
  277MOL0     C38141   6.909   4.206  10.413 -1.1994 -0.4317  0.0142
  277MOL0     C38142   6.876   4.080  10.449 -0.3619 -0.5534  0.8576
  277MOL0     C38143   6.940   3.616  10.568  0.0867 -0.6221 -0.5802
  277MOL0     C38144   6.976   3.488  10.531 -0.4426 -0.0887 -0.8040
  277MOL0     C38145   6.907   3.382  10.586 -0.4939 -0.3952  0.3466
  277MOL0     C38146   6.823   3.397  10.691 -0.7157  1.1817 -0.1575
  277MOL0     O38147   6.789   3.276  10.742  0.6613  0.1744  0.1877
  277MOL0     C38148   6.706   3.271  10.856 -0.8153  0.0931  0.2643
  277MOL0     C38149   6.805   3.305  10.972  0.4112 -0.1690  0.3583
  277MOL0     C38150   6.710   3.301  11.088 -0.5839 -0.1141  1.3004
  277MOL0     C38151   6.766   3.269  11.224  0.6192 -0.7418  0.1795
  277MOL0     C38152   6.750   3.129  11.265  0.2238 -0.0157 -0.1949
  277MOL0     C38153   6.735   3.012  11.300 -0.5220  0.2061 -0.0198
  277MOL0     C38154   6.800   3.524  10.734  0.1804  0.4491 -1.2449
  277MOL0     C38155   6.857   3.632  10.681 -0.1045  0.1145 -0.1744
  277MOL0     C38156   6.809   3.760  10.755 -0.2082  0.1209 -0.2018
  277MOL0     H38157   7.171   3.924  10.419 -0.8968  0.8590 -1.4890
  277MOL0     H38158   7.240   4.160  10.355  0.3139 -1.3846  2.2381
  277MOL0     H38159   7.269   4.440  10.369 -0.0373  1.4808  0.3218
  277MOL0     H38160   7.197   4.368  10.509  0.3926 -1.3419 -1.1478
  277MOL0     H38161   6.997   4.539  10.476 -0.3339 -3.8212  0.2766
  277MOL0     H38162   7.157   4.599  10.538  0.8041  0.9095  0.5962
  277MOL0     H38163   7.236   4.672  10.311  0.5880 -2.2276  1.1807
  277MOL0     H38164   7.065   4.639  10.251 -0.3213  1.8093 -0.9190
  277MOL0     H38165   6.997   4.809  10.428 -0.5659 -1.5243  0.4839
  277MOL0     H38166   7.164   4.836  10.461 -0.8492  0.7708  0.1039
  277MOL0     H38167   7.051   4.853  10.184  0.6079 -0.7127  0.2055
  277MOL0     H38168   7.219   4.879  10.234  1.1237 -2.7683  4.3311
  277MOL0     H38169   6.970   5.050  10.298 -0.7660 -2.0686 -3.8521
  277MOL0     H38170   7.128   5.093  10.357  0.3839  0.2753  0.6280
  277MOL0     H38171   7.198   5.092  10.088  0.7690 -3.0514 -0.3353
  277MOL0     H38172   7.092   5.214  10.167 -0.7486 -0.3806  1.7309
  277MOL0     H38173   7.037   5.082   9.934  0.5782 -2.8403 -0.3795
  277MOL0     H38174   6.955   4.968  10.036 -1.2967  0.4194  3.2131
  277MOL0     H38175   6.967   5.326   9.938  1.1601 -0.4342  0.5782
  277MOL0     H38176   6.750   5.561  10.094  0.0562 -0.3883 -0.1398
  277MOL0     H38177   6.619   5.493  10.017 -0.7445  0.0470 -3.5123
  277MOL0     H38178   6.875   5.592   9.893  0.5991  1.0370 -1.7460
  277MOL0     H38179   6.802   5.457   9.816  2.9367  1.5883 -0.4150
  277MOL0     H38180   6.580   5.612   9.836 -0.3382  0.4694 -0.5580
  277MOL0     H38181   6.679   5.723   9.905 -1.7635 -0.5312 -0.5670
  277MOL0     H38182   6.766   5.791   9.679  0.6586 -1.4157 -2.0354
  277MOL0     H38183   6.758   5.616   9.635  4.2199  3.2666 -2.0805
  277MOL0     H38184   6.781   5.668   9.436 -0.5380 -2.5058 -1.2255
  277MOL0     H38185   6.872   5.663   9.212  0.4659  0.0619 -1.6018
  277MOL0     H38186   6.818   5.822   9.133 -2.1966 -0.9405 -2.1931
  277MOL0     H38187   6.758   5.679   9.071 -0.8736  2.4123 -1.1043
  277MOL0     H38188   6.515   6.119   8.915  0.3735  1.4088 -1.0016
  277MOL0     H38189   6.485   6.171   8.683 -2.6316  1.3299 -1.6622
  277MOL0     H38190   6.454   6.208   8.461 -0.7242 -1.3148  3.9190
  277MOL0     H38191   6.548   6.070   8.503  0.7826  1.8095  1.7696
  277MOL0     H38192   6.362   6.061   8.256 -0.7987  0.9920  3.1820
  277MOL0     H38193   6.505   6.161   8.243  0.4983 -0.5350  1.6339
  277MOL0     H38194   6.542   5.869   8.329  0.6203  0.0002  0.3976
  277MOL0     H38195   6.655   5.987   8.281  0.0153 -1.0809  2.1949
  277MOL0     H38196   6.433   5.881   8.087 -0.5240 -0.3044  1.7974
  277MOL0     H38197   6.596   5.816   8.091  3.3206  1.4214  2.9842
  277MOL0     H38198   6.533   6.111   8.025 -3.7570 -1.0601 -1.5246
  277MOL0     H38199   6.690   6.038   8.015 -1.1872  3.2557  0.4484
  277MOL0     H38200   6.565   5.877   7.846  1.3343  0.5140  0.3808
  277MOL0     H38201   6.623   6.023   7.797  0.0812 -2.5846 -0.1962
  277MOL0     H38202   6.365   6.102   7.881 -1.8907 -1.2570  1.4727
  277MOL0     H38203   6.334   5.941   7.866 -2.3789  3.2163  1.8161
  277MOL0     H38204   6.278   6.032   7.644 -1.5113 -3.1462  0.0034
  277MOL0     H38205   6.429   5.927   7.633  1.8751  1.1971  0.6772
  277MOL0     H38206   6.203   5.872   8.626  1.8608  2.6071 -3.1546
  277MOL0     H38207   6.220   5.813   8.879 -0.0300 -0.0433  0.4544
  277MOL0     H38208   6.343   5.830   9.269  1.4029  1.3032 -1.6970
  277MOL0     H38209   6.369   5.800   9.495  1.4138 -1.3309  1.1290
  277MOL0     H38210   6.831   4.281  10.405 -0.4696  0.9076  3.3980
  277MOL0     H38211   6.771   4.064  10.472 -0.5339  0.1745  0.6195
  277MOL0     H38212   7.038   3.465  10.445 -1.6760  1.5305 -2.2163
  277MOL0     H38213   6.931   3.283  10.548  1.1864 -0.6513  1.9075
  277MOL0     H38214   6.613   3.329  10.850 -1.1036 -0.3954 -0.0850
  277MOL0     H38215   6.668   3.169  10.870 -0.7565 -0.0449 -0.5373
  277MOL0     H38216   6.852   3.403  10.963 -0.6660  0.3898  0.6493
  277MOL0     H38217   6.881   3.227  10.978  2.6109  1.9889  2.8130
  277MOL0     H38218   6.668   3.403  11.093  1.6758  0.9266  0.4811
  277MOL0     H38219   6.621   3.238  11.078 -0.9852  0.6553 -0.2987
  277MOL0     H38220   6.712   3.331  11.296  1.7808 -2.2526  2.4561
  277MOL0     H38221   6.872   3.298  11.226  0.9203 -1.8084 -0.0268
  277MOL0     H38222   6.718   2.916  11.344 -1.8061  2.0791  4.0846
  277MOL0     H38223   6.754   3.538  10.832  1.5655  0.7734 -0.6118
  277MOL0     H38224   6.894   3.827  10.768  0.2556 -0.6722  0.9875
  277MOL0     H38225   6.743   3.822  10.694  1.3501  1.7650 -0.2956
  277MOL0     H38226   6.776   3.752  10.859  2.1853 -1.2957  0.5281
  278MOL0     O38227   6.557   7.074   9.944  0.5030 -0.5990 -0.3034
  278MOL0     C38228   6.444   7.026   9.954 -0.0799 -0.0190 -0.3921
  278MOL0     O38229   6.404   6.928  10.043  0.2254  0.0659  0.1114
  278MOL0     C38230   6.496   6.873  10.126 -0.2734  0.1811  0.0836
  278MOL0     C38231   6.573   6.767  10.087 -0.5684  0.4496  0.2274
  278MOL0     C38232   6.676   6.712  10.165  0.0555 -1.0926 -0.2197
  278MOL0     C38233   6.697   6.774  10.296  0.0419  0.0162  0.3475
  278MOL0     O38234   6.785   6.734  10.389 -0.3015 -0.0483  0.2307
  278MOL0     C38235   6.720   6.656  10.489  0.4558  0.4879  0.6058
  278MOL0     C38236   6.740   6.695  10.640  0.0133 -0.3265  0.0908
  278MOL0     C38237   6.887   6.706  10.677 -0.2105  0.2582 -0.4012
  278MOL0     C38238   6.962   6.578  10.659 -0.0270  0.1221  0.1146
  278MOL0     C38239   7.116   6.596  10.668  0.5239 -0.5820  0.3373
  278MOL0     C38240   7.167   6.630  10.808  0.0074  0.4475 -0.1563
  278MOL0     C38241   7.158   6.519  10.908  0.1520  0.7495  0.7877
  278MOL0     C38242   7.199   6.557  11.054  0.8465  0.7271 -0.2059
  278MOL0     N38243   7.323   6.633  11.044  0.5200 -0.1134 -0.4012
  278MOL0     C38244   7.454   6.583  11.026  0.3105  0.4141  0.2262
  278MOL0     C38245   7.528   6.697  11.013 -0.0777 -0.7137 -0.0489
  278MOL0     C38246   7.666   6.725  10.979 -0.3165  0.2155  0.3703
  278MOL0     C38247   7.759   6.610  10.991 -0.1343 -0.1669 -0.5899
  278MOL0     C38248   7.901   6.645  10.933  0.1336 -0.6683  0.6921
  278MOL0     C38249   8.005   6.542  10.958  0.5603 -0.5694 -0.1240
  278MOL0     O38250   8.044   6.566  11.096 -0.0310 -0.3935  0.4571
  278MOL0     C38251   8.122   6.466  11.147  0.2248  1.0892 -0.6756
  278MOL0     C38252   8.198   6.373  11.074 -0.6596 -0.1722 -0.2038
  278MOL0     C38253   8.254   6.262  11.144  0.0321  0.8113  0.4181
  278MOL0     C38254   8.315   6.154  11.048 -0.6259 -0.3759 -0.6263
  278MOL0     C38255   8.242   6.239  11.282  0.0988 -0.4723  0.0022
  278MOL0     C38256   8.283   6.118  11.360 -0.9280 -0.0028 -0.0084
  278MOL0     O38257   8.299   6.002  11.293 -0.3733 -0.1680 -0.4640
  278MOL0     C38258   8.341   5.903  11.381 -0.2247 -0.3889  0.0049
  278MOL0     C38259   8.243   5.850  11.462  0.1940  1.4389  0.0877
  278MOL0     C38260   8.278   5.760  11.563 -0.3003  0.3780  0.8770
  278MOL0     C38261   8.412   5.718  11.585 -0.4074 -0.9437 -0.1461
  278MOL0     O38262   8.438   5.632  11.689  0.1369 -0.0868 -0.1971
  278MOL0     C38263   8.568   5.574  11.702 -0.5932 -0.1736 -0.7281
  278MOL0     C38264   8.557   5.450  11.790 -0.7188 -0.4317 -0.6141
  278MOL0     C38265   8.479   5.336  11.724  0.5261  0.0229  0.1799
  278MOL0     C38266   8.593   5.242  11.670 -0.4781 -0.8903  0.2002
  278MOL0     C38267   8.553   5.103  11.644  0.4302  0.5914 -1.0645
  278MOL0     C38268   8.669   5.014  11.592  0.2181  0.1393  0.1619
  278MOL0     C38269   8.631   4.880  11.530  0.5273 -0.5338 -0.8299
  278MOL0     C38270   8.519   4.808  11.595  0.1996 -0.1228  0.1826
  278MOL0    Cl38271   8.509   4.640  11.522  0.0939 -0.1008  0.2100
  278MOL0     C38272   8.513   5.786  11.506  0.1359 -0.0561 -1.1272
  278MOL0     C38273   8.474   5.865  11.400 -0.4513 -0.1035 -0.0708
  278MOL0     O38274   8.293   6.137  11.477  0.2464 -0.0526  0.0688
  278MOL0     C38275   8.166   6.335  11.353 -0.4528  0.7874 -1.3300
  278MOL0     C38276   8.108   6.440  11.286 -0.4636 -1.2579  0.3174
  278MOL0     N38277   7.452   6.807  11.018  1.1616 -0.2852  0.1316
  278MOL0     N38278   7.329   6.771  11.044  0.8580  0.0791 -0.6895
  278MOL0     C38279   6.622   6.894  10.322 -0.8186 -1.1118 -0.1985
  278MOL0     C38280   6.522   6.944  10.246  0.4034  0.7717  0.1239
  278MOL0     C38281   6.337   7.090   9.880  0.2719  0.4260 -0.3581
  278MOL0     C38282   6.340   7.226   9.872  0.2243  0.5872 -0.5949
  278MOL0     C38283   6.255   7.310   9.806  0.5325 -0.7154 -0.0717
  278MOL0     C38284   6.168   7.245   9.722  0.9464 -0.1324  0.2052
  278MOL0     O38285   6.086   7.305   9.633  0.0428 -0.8996  0.0578
  278MOL0     C38286   6.088   7.452   9.610 -0.4855  0.5867 -1.4193
  278MOL0     C38287   5.968   7.495   9.535  0.0982 -0.2288  0.6637
  278MOL0     C38288   6.014   7.619   9.438  0.2798 -0.5037 -0.6177
  278MOL0     C38289   5.911   7.648   9.326  0.4104 -0.7928 -0.2560
  278MOL0     C38290   5.919   7.784   9.271  0.1304 -0.0190 -0.5620
  278MOL0     C38291   5.939   7.901   9.234  0.5039  0.4106 -0.3888
  278MOL0     C38292   6.155   7.109   9.716  0.0751  0.2114  0.6102
  278MOL0     C38293   6.239   7.029   9.800 -0.3534 -0.1158 -0.2961
  278MOL0     C38294   6.227   6.882   9.783  0.3708 -0.2180  0.2955
  278MOL0     H38295   6.535   6.727   9.993  0.4891 -0.0552 -0.0023
  278MOL0     H38296   6.741   6.630  10.136  1.9329  0.7786 -1.6319
  278MOL0     H38297   6.758   6.554  10.480 -1.5486 -0.0978 -2.5509
  278MOL0     H38298   6.615   6.652  10.462  0.0669 -1.2624  2.1270
  278MOL0     H38299   6.683   6.785  10.666  1.5711  1.0554 -1.1143
  278MOL0     H38300   6.689   6.617  10.698  1.6918  0.8147  3.3821
  278MOL0     H38301   6.943   6.783  10.623  0.0279  0.9048  0.7233
  278MOL0     H38302   6.897   6.732  10.783  0.1322  0.8306 -0.5658
  278MOL0     H38303   6.918   6.500  10.722 -0.5773 -0.6032 -1.1342
  278MOL0     H38304   6.951   6.529  10.562  0.8676 -1.8363  0.9237
  278MOL0     H38305   7.140   6.677  10.600 -0.7107  0.1734  0.7650
  278MOL0     H38306   7.164   6.506  10.630 -0.6499 -0.9029 -0.4300
  278MOL0     H38307   7.273   6.656  10.805 -0.0516  0.6435 -1.0135
  278MOL0     H38308   7.119   6.716  10.855  0.7365 -0.1397  1.7571
  278MOL0     H38309   7.223   6.438  10.875 -3.4922 -1.6143 -1.2671
  278MOL0     H38310   7.058   6.475  10.910 -0.8310  2.8649  2.1303
  278MOL0     H38311   7.122   6.620  11.101  0.5785  2.3067 -2.5698
  278MOL0     H38312   7.227   6.472  11.116  5.3114  1.3487 -1.0294
  278MOL0     H38313   7.489   6.482  11.008  0.7026  0.1356  2.2835
  278MOL0     H38314   7.710   6.812  11.029  2.8757 -0.6157 -0.7506
  278MOL0     H38315   7.653   6.746  10.873  3.3464 -4.4382 -1.3546
  278MOL0     H38316   7.778   6.587  11.096  2.5136 -0.6543 -1.1028
  278MOL0     H38317   7.717   6.529  10.930  2.1729 -0.3449 -2.0562
  278MOL0     H38318   7.887   6.652  10.825  0.3191 -0.1062  0.7009
  278MOL0     H38319   7.937   6.740  10.973  0.2448  0.3833 -1.7418
  278MOL0     H38320   7.961   6.442  10.950 -1.5805 -0.1406  3.9657
  278MOL0     H38321   8.091   6.568  10.895  0.4357  1.5319  0.5180
  278MOL0     H38322   8.220   6.375  10.968  2.5365  1.3304  0.3712
  278MOL0     H38323   8.351   6.202  10.957 -0.6469 -0.3765 -0.6347
  278MOL0     H38324   8.250   6.067  11.035 -1.3025 -0.3052  1.7477
  278MOL0     H38325   8.409   6.110  11.084 -0.4398 -0.6015 -1.3737
  278MOL0     H38326   8.139   5.871  11.442 -1.2486 -2.1715  2.5864
  278MOL0     H38327   8.199   5.727  11.629 -2.3916  2.6786 -0.2997
  278MOL0     H38328   8.607   5.551  11.602  2.1431  2.6758 -0.4707
  278MOL0     H38329   8.636   5.647  11.745 -0.2169 -0.0877 -1.4509
  278MOL0     H38330   8.662   5.431  11.812 -0.3284  0.5918 -1.4767
  278MOL0     H38331   8.499   5.473  11.880 -0.5828 -0.3499 -0.5472
  278MOL0     H38332   8.416   5.365  11.640 -1.2684  1.6404  1.9781
  278MOL0     H38333   8.423   5.289  11.806 -1.3757 -0.0217 -1.0969
  278MOL0     H38334   8.678   5.239  11.739  0.0594  0.2560 -0.3844
  278MOL0     H38335   8.629   5.280  11.574 -0.9356  1.0699  0.7558
  278MOL0     H38336   8.513   5.049  11.730 -1.0566  0.9003 -1.5246
  278MOL0     H38337   8.471   5.108  11.571 -1.5782  1.2102  1.0857
  278MOL0     H38338   8.745   5.000  11.670  0.7976 -1.2417 -0.6098
  278MOL0     H38339   8.727   5.064  11.513 -1.6662  0.9237 -0.7696
  278MOL0     H38340   8.714   4.809  11.533 -0.1710 -1.3505  1.0755
  278MOL0     H38341   8.622   4.892  11.422 -0.1901  0.0541 -0.7120
  278MOL0     H38342   8.421   4.856  11.591 -1.4765 -3.2231  0.5702
  278MOL0     H38343   8.539   4.784  11.700 -1.6983 -0.4500  0.5107
  278MOL0     H38344   8.620   5.770  11.521  0.0873 -1.9816 -2.4067
  278MOL0     H38345   8.556   5.915  11.349 -0.0501 -0.9178 -0.2320
  278MOL0     H38346   8.133   6.334  11.456  1.0300 -0.0677 -0.8407
  278MOL0     H38347   8.050   6.518  11.336 -0.3332 -1.0170  0.0969
  278MOL0     H38348   6.656   6.944  10.412  2.4239 -1.2145 -1.2184
  278MOL0     H38349   6.467   7.036  10.262 -1.5616 -0.3040 -0.1391
  278MOL0     H38350   6.416   7.273   9.934 -2.2070 -0.4969  3.6413
  278MOL0     H38351   6.256   7.417   9.818  0.3098 -0.4917 -1.7941
  278MOL0     H38352   6.081   7.500   9.708 -0.4030 -0.7549 -0.7319
  278MOL0     H38353   6.184   7.471   9.560 -0.9393  3.0357 -1.4539
  278MOL0     H38354   5.888   7.523   9.604 -0.1096 -0.2418  0.4284
  278MOL0     H38355   5.940   7.408   9.475 -0.2024 -2.8633  4.2585
  278MOL0     H38356   6.025   7.703   9.507 -0.8966 -1.4833  0.8220
  278MOL0     H38357   6.116   7.601   9.404  1.3389  1.7987  1.1253
  278MOL0     H38358   5.810   7.639   9.367  0.1972 -0.3127 -0.6661
  278MOL0     H38359   5.926   7.572   9.249  2.5246  2.0855 -2.9379
  278MOL0     H38360   5.959   7.999   9.195  0.6037  0.5583  0.0234
  278MOL0     H38361   6.081   7.060   9.654  0.6074 -1.7923  1.4925
  278MOL0     H38362   6.319   6.830   9.811  0.8127 -0.8995 -2.2082
  278MOL0     H38363   6.147   6.846   9.848 -2.2274  2.3625 -1.2257
  278MOL0     H38364   6.209   6.856   9.679 -2.2314 -0.5974  0.7562
  279MOL0     O38365   5.713  10.128   0.047  0.7240  0.4431 -0.3129
  279MOL0     C38366   5.716  10.219   0.133  1.2288  0.2836 -0.0661
  279MOL0     O38367   5.609  10.287   0.175  0.2695  0.4623  0.2469
  279MOL0     C38368   5.501  10.292   0.083 -0.0647 -0.1765  0.4750
  279MOL0     C38369   5.373  10.246   0.119 -0.6747 -0.0104 -0.6357
  279MOL0     C38370   5.265  10.248   0.033  0.2822 -0.1446  0.7412
  279MOL0     C38371   5.277  10.314  -0.094 -1.3802  0.3954 -0.0382
  279MOL0     O38372   5.178  10.313  -0.184 -0.5853  0.4543  0.0840
  279MOL0     C38373   5.065  10.222  -0.171 -1.4060  0.1435  0.9807
  279MOL0     C38374   5.118  10.093  -0.233 -0.2994 -0.0121  0.9504
  279MOL0     C38375   5.206  10.118  -0.363  0.6579  0.2340  0.8950
  279MOL0     C38376   5.129  10.198  -0.479 -1.0587 -0.3672  0.4292
  279MOL0     C38377   5.206  10.190  -0.618 -0.3277  1.1760 -0.3982
  279MOL0     C38378   5.330  10.272  -0.623 -0.5968  0.1853 -0.5069
  279MOL0     C38379   5.416  10.270  -0.746 -0.4548  0.1108 -0.2907
  279MOL0     C38380   5.543  10.349  -0.726 -0.1878  0.1561  0.1849
  279MOL0     N38381   5.539  10.491  -0.757 -0.0688 -0.2233 -0.7768
  279MOL0     C38382   5.499  10.591  -0.675 -0.1787 -1.1970  0.1739
  279MOL0     C38383   5.551  10.706  -0.733 -0.2029 -0.8367 -0.5367
  279MOL0     C38384   5.524  10.845  -0.691  0.4548 -0.0704 -0.4803
  279MOL0     C38385   5.587  10.948  -0.783  0.0989  0.1319 -0.4890
  279MOL0     C38386   5.547  11.086  -0.743 -0.2092 -0.6832 -0.4965
  279MOL0     C38387   5.600  11.199  -0.835  0.9431 -0.3005 -0.6237
  279MOL0     O38388   5.526  11.190  -0.957 -0.5578 -0.5244 -0.6186
  279MOL0     C38389   5.562  11.273  -1.056 -0.5133 -0.0466 -0.3996
  279MOL0     C38390   5.501  11.262  -1.175 -0.2161  0.5089  0.0294
  279MOL0     C38391   5.518  11.338  -1.292 -0.0331  0.9297 -0.5048
  279MOL0     C38392   5.454  11.279  -1.417  0.0208  0.7243  0.2607
  279MOL0     C38393   5.609  11.447  -1.288 -0.3770 -0.3633  0.4197
  279MOL0     C38394   5.630  11.544  -1.408 -0.4191  0.2094 -0.0133
  279MOL0     O38395   5.737  11.627  -1.386  0.3171 -0.0070  0.5551
  279MOL0     C38396   5.786  11.708  -1.482 -0.6146  0.1183 -0.5067
  279MOL0     C38397   5.776  11.695  -1.620 -0.4082 -0.0696 -1.2645
  279MOL0     C38398   5.825  11.797  -1.704 -0.4304  0.9586  0.6722
  279MOL0     C38399   5.914  11.895  -1.667 -0.7875 -0.2308  0.7744
  279MOL0     O38400   5.972  11.995  -1.739 -0.3655 -0.0872  0.6009
  279MOL0     C38401   5.971  11.989  -1.881 -0.1227 -1.1916  0.2474
  279MOL0     C38402   5.858  12.085  -1.922  0.3919  0.2741  0.6003
  279MOL0     C38403   5.839  12.089  -2.072  0.6007 -0.4799  0.0767
  279MOL0     C38404   5.949  12.151  -2.152 -0.1596  0.2561 -0.7465
  279MOL0     C38405   5.907  12.189  -2.293  0.2340  0.0473  0.4001
  279MOL0     C38406   5.841  12.328  -2.298  0.3371  0.3970 -0.7888
  279MOL0     C38407   5.785  12.357  -2.432 -0.5553 -0.3866  0.0820
  279MOL0     C38408   5.708  12.477  -2.455  0.3248 -0.5903  0.2059
  279MOL0    Cl38409   5.653  12.508  -2.623 -0.3878 -0.4663 -0.7726
  279MOL0     C38410   5.940  11.897  -1.531  1.0273 -0.1024 -0.0767
  279MOL0     C38411   5.871  11.802  -1.437  0.5612 -0.3568  0.2666
  279MOL0     O38412   5.547  11.554  -1.497 -0.8308  0.7116 -0.1420
  279MOL0     C38413   5.681  11.458  -1.167 -0.8286 -0.0438 -0.5182
  279MOL0     C38414   5.655  11.377  -1.049 -0.2809 -0.7217 -0.5993
  279MOL0     N38415   5.630  10.665  -0.842 -0.2013  1.3337 -0.4155
  279MOL0     N38416   5.621  10.538  -0.858 -0.5018 -0.4438 -0.7657
  279MOL0     C38417   5.403  10.370  -0.125  0.0645 -0.4157  0.9293
  279MOL0     C38418   5.516  10.358  -0.040 -0.1295  0.1176 -0.8666
  279MOL0     C38419   5.833  10.234   0.219 -0.7683 -1.2757  0.3287
  279MOL0     C38420   5.957  10.191   0.159 -0.2070  0.1568 -0.3137
  279MOL0     C38421   6.077  10.216   0.226 -0.3390 -0.1310  1.2170
  279MOL0     C38422   6.073  10.264   0.364 -0.5223 -0.0228  0.4905
  279MOL0     O38423   6.193  10.297   0.420 -0.7020 -0.3095  0.1702
  279MOL0     C38424   6.311  10.227   0.399 -0.7644  0.1453 -0.1507
  279MOL0     C38425   6.374  10.218   0.536 -0.1326 -0.5843 -0.5506
  279MOL0     C38426   6.514  10.171   0.530 -0.4643 -0.5958 -0.1998
  279MOL0     C38427   6.577  10.172   0.673  0.1404 -0.0456  0.0951
  279MOL0     C38428   6.718  10.171   0.656 -0.2105 -0.4261 -0.5703
  279MOL0     C38429   6.835  10.168   0.669 -0.4373 -0.1467 -0.0493
  279MOL0     C38430   5.951  10.281   0.426  0.4610  1.5667  0.1500
  279MOL0     C38431   5.829  10.267   0.359 -0.4570  0.4945  0.0470
  279MOL0     C38432   5.703  10.280   0.440 -0.3396 -0.0692 -0.1186
  279MOL0     H38433   5.358  10.213   0.221  3.5226  1.9242  0.8203
  279MOL0     H38434   5.170  10.207   0.065  1.2356 -1.5024  1.9355
  279MOL0     H38435   4.998  10.261  -0.248  3.6250  1.3685 -3.3279
  279MOL0     H38436   5.015  10.221  -0.074 -0.3951 -1.4762  1.5225
  279MOL0     H38437   5.163  10.033  -0.154 -2.7397 -1.1467  1.5977
  279MOL0     H38438   5.037  10.025  -0.261  0.8324 -2.5188  3.3604
  279MOL0     H38439   5.303  10.158  -0.335  1.0014 -0.0454  0.1155
  279MOL0     H38440   5.227  10.019  -0.406  0.7750  1.2099 -1.4004
  279MOL0     H38441   5.027  10.159  -0.489 -1.1443  0.2798 -1.9321
  279MOL0     H38442   5.126  10.303  -0.450 -1.0486 -0.8709  2.3266
  279MOL0     H38443   5.141  10.221  -0.700  0.2258 -0.6433 -1.5893
  279MOL0     H38444   5.225  10.082  -0.622 -0.0687  1.2449 -1.1346
  279MOL0     H38445   5.311  10.374  -0.587 -0.5448  0.3711 -0.9990
  279MOL0     H38446   5.386  10.226  -0.540 -0.5806  1.7223  0.3743
  279MOL0     H38447   5.351  10.321  -0.818 -0.3610  1.5635  0.6175
  279MOL0     H38448   5.442  10.169  -0.779  3.2126  1.7319 -3.0722
  279MOL0     H38449   5.571  10.342  -0.620  1.3947  1.2317 -0.1155
  279MOL0     H38450   5.629  10.311  -0.782 -0.2548  0.1520  0.0863
  279MOL0     H38451   5.427  10.596  -0.595 -0.7367 -0.2877 -0.3735
  279MOL0     H38452   5.564  10.864  -0.591  1.3479 -0.4169 -0.7641
  279MOL0     H38453   5.419  10.873  -0.677  0.6497  2.2141 -2.7290
  279MOL0     H38454   5.693  10.922  -0.780 -0.2632 -1.4788 -0.3274
  279MOL0     H38455   5.549  10.924  -0.883 -0.7936 -5.6070  0.8548
  279MOL0     H38456   5.439  11.100  -0.733 -0.1680  2.0669 -2.5804
  279MOL0     H38457   5.587  11.097  -0.641 -2.2649 -1.5143  0.4628
  279MOL0     H38458   5.575  11.295  -0.788 -0.2834 -0.3477 -1.1302
  279MOL0     H38459   5.706  11.188  -0.858  1.0043 -5.2421  0.8515
  279MOL0     H38460   5.423  11.186  -1.182 -1.0643  1.3586 -0.0029
  279MOL0     H38461   5.505  11.298  -1.513  0.6316 -0.9075  0.2246
  279MOL0     H38462   5.365  11.340  -1.436 -1.2735 -1.2108 -0.1057
  279MOL0     H38463   5.437  11.172  -1.409 -1.3682  1.0339  1.9018
  279MOL0     H38464   5.709  11.626  -1.669 -1.1121 -0.5699  0.3402
  279MOL0     H38465   5.800  11.785  -1.809  0.4930  0.2460  0.5168
  279MOL0     H38466   6.056  12.033  -1.934 -0.9303 -0.5782 -0.5543
  279MOL0     H38467   5.960  11.887  -1.917  1.7369 -0.6234 -2.2048
  279MOL0     H38468   5.763  12.046  -1.885 -0.3090  2.7342  1.6223
  279MOL0     H38469   5.869  12.188  -1.886 -2.0228  1.3817 -1.5660
  279MOL0     H38470   5.751  12.154  -2.082  1.0880  0.1820 -0.0117
  279MOL0     H38471   5.834  11.994  -2.125  1.3828 -0.0254 -0.8632
  279MOL0     H38472   6.027  12.074  -2.148  1.8625  2.1628 -1.0201
  279MOL0     H38473   6.000  12.236  -2.105  0.8072 -1.5961  1.7950
  279MOL0     H38474   6.002  12.206  -2.344  0.2552  0.5306  0.6065
  279MOL0     H38475   5.838  12.115  -2.337 -2.5552  2.9752 -0.5501
  279MOL0     H38476   5.910  12.403  -2.258 -0.4230  0.2010  0.9936
  279MOL0     H38477   5.757  12.333  -2.228  1.4304  0.9530  0.5356
  279MOL0     H38478   5.726  12.269  -2.459 -0.4655 -0.5306  0.3470
  279MOL0     H38479   5.867  12.356  -2.506  0.6955  0.6235  1.4013
  279MOL0     H38480   5.779  12.557  -2.429 -2.2833  0.9617  3.2662
  279MOL0     H38481   5.625  12.488  -2.385 -0.5100 -2.0594 -0.5172
  279MOL0     H38482   5.994  11.978  -1.482  1.7541 -1.0294  0.6852
  279MOL0     H38483   5.885  11.803  -1.330 -0.8408 -0.6004  0.4709
  279MOL0     H38484   5.750  11.542  -1.163  1.9236 -2.1964 -0.3051
  279MOL0     H38485   5.714  11.396  -0.960 -1.9350 -2.2785  0.8954
  279MOL0     H38486   5.422  10.414  -0.222  0.1370 -0.6346  0.8446
  279MOL0     H38487   5.615  10.400  -0.058 -0.0743  0.3382 -0.0832
  279MOL0     H38488   5.965  10.140   0.064 -0.1904 -2.5013  1.0134
  279MOL0     H38489   6.164  10.185   0.170 -1.4581 -0.1108 -0.5937
  279MOL0     H38490   6.297  10.130   0.350 -0.0434  0.1063 -0.2869
  279MOL0     H38491   6.373  10.291   0.337  1.2643  3.4020  4.6556
  279MOL0     H38492   6.307  10.165   0.605  0.1877  0.9862  1.0375
  279MOL0     H38493   6.374  10.321   0.572 -1.1591 -0.5541 -0.5947
  279MOL0     H38494   6.526  10.071   0.488  0.9261  0.1194 -1.6346
  279MOL0     H38495   6.583  10.234   0.472 -1.0153 -1.3505 -1.7435
  279MOL0     H38496   6.548  10.083   0.729 -1.9673 -0.1469 -1.0737
  279MOL0     H38497   6.563  10.267   0.726  1.5649  1.6445 -2.3146
  279MOL0     H38498   6.942  10.166   0.674 -0.3460  2.4480  0.4682
  279MOL0     H38499   5.954  10.330   0.523 -0.7068  2.1840 -0.1050
  279MOL0     H38500   5.651  10.184   0.446  1.8716 -1.3496 -0.4938
  279MOL0     H38501   5.715  10.298   0.548 -1.9059  0.6900 -0.0376
  279MOL0     H38502   5.642  10.359   0.395  1.5686  0.9323 -1.1075
  280MOL0     O38503   6.329   6.917   9.309  0.6994  0.1947 -0.5759
  280MOL0     C38504   6.365   6.972   9.416  0.2959  0.8265 -0.0834
  280MOL0     O38505   6.329   7.102   9.460  0.1106 -0.4364  0.2726
  280MOL0     C38506   6.228   7.155   9.385 -0.8966  0.2024 -0.3144
  280MOL0     C38507   6.259   7.262   9.301 -0.4301 -0.0747 -0.3495
  280MOL0     C38508   6.155   7.326   9.228  0.8381  0.4809  0.0366
  280MOL0     C38509   6.024   7.275   9.237  0.8106  0.3384 -0.5472
  280MOL0     O38510   5.924   7.338   9.165  0.3400 -0.1620 -0.5739
  280MOL0     C38511   5.785   7.295   9.160 -0.4587 -0.4750  0.6467
  280MOL0     C38512   5.704   7.324   9.294 -0.6901 -0.1792 -0.8094
  280MOL0     C38513   5.574   7.236   9.312 -0.2682  0.8194  1.0128
  280MOL0     C38514   5.458   7.273   9.209 -0.0660  0.1009 -0.7685
  280MOL0     C38515   5.327   7.279   9.281  0.4167  0.0004 -0.0292
  280MOL0     C38516   5.220   7.333   9.189  0.2706  0.6670  0.6664
  280MOL0     C38517   5.073   7.321   9.234 -0.3430 -0.5840 -0.0357
  280MOL0     C38518   4.984   7.372   9.121  0.3212 -0.3500 -0.3194
  280MOL0     N38519   4.984   7.520   9.114 -0.0984 -0.0042 -0.0662
  280MOL0     C38520   4.925   7.608   9.201 -0.2232  0.0644 -0.0358
  280MOL0     C38521   4.950   7.726   9.145  0.5105 -0.3207  0.9424
  280MOL0     C38522   4.934   7.866   9.204  0.2092 -0.2958 -0.1021
  280MOL0     C38523   5.012   7.892   9.335  0.6769  0.5445 -0.0573
  280MOL0     C38524   5.161   7.862   9.310  0.0852  0.5494  0.7344
  280MOL0     C38525   5.238   7.874   9.439 -0.2340  0.4297  0.2756
  280MOL0     O38526   5.197   7.766   9.524  0.5220  0.0585 -0.5672
  280MOL0     C38527   5.224   7.777   9.660  0.2366  1.3989  0.2336
  280MOL0     C38528   5.167   7.674   9.737  0.3745 -0.2627  0.1177
  280MOL0     C38529   5.181   7.664   9.877 -0.1100  0.0530  0.2815
  280MOL0     C38530   5.116   7.547   9.941 -0.7330 -0.6526  0.2394
  280MOL0     C38531   5.252   7.771   9.942  0.2088  0.0407  0.1438
  280MOL0     C38532   5.288   7.774  10.087 -0.1287  0.3273 -0.1850
  280MOL0     O38533   5.244   7.671  10.153  0.7893  0.5803  0.4282
  280MOL0     C38534   5.219   7.702  10.289 -0.2916  1.1809 -0.2196
  280MOL0     C38535   5.311   7.655  10.380  0.0497 -0.3081 -0.4224
  280MOL0     C38536   5.283   7.685  10.520 -0.3478  0.2941  0.3879
  280MOL0     C38537   5.163   7.753  10.561 -0.0605 -0.1728  1.2481
  280MOL0     O38538   5.149   7.791  10.689 -0.5689 -0.0534  0.0009
  280MOL0     C38539   5.034   7.755  10.758  1.8536  0.0272 -0.3055
  280MOL0     C38540   5.034   7.802  10.897 -0.1303 -0.9171  0.7223
  280MOL0     C38541   5.091   7.944  10.922  0.6530 -0.6944  0.3637
  280MOL0     C38542   5.227   7.923  10.995 -0.2199  0.4642 -0.5014
  280MOL0     C38543   5.294   8.060  11.010 -0.4731 -0.8363 -0.6957
  280MOL0     C38544   5.428   8.048  11.089 -0.3510 -0.1126  1.2094
  280MOL0     C38545   5.499   8.180  11.113  0.0223 -0.0749  0.3719
  280MOL0     C38546   5.622   8.169  11.199 -0.1179  0.1596 -0.7727
  280MOL0    Cl38547   5.763   8.095  11.124  0.3002 -0.1105  0.0101
  280MOL0     C38548   5.062   7.783  10.469 -0.6821 -1.1163  0.7555
  280MOL0     C38549   5.100   7.769  10.333 -0.6761  0.6196 -0.4370
  280MOL0     O38550   5.369   7.858  10.133  0.3267 -0.1778  0.1543
  280MOL0     C38551   5.311   7.872   9.860  0.8985 -0.8384  1.3824
  280MOL0     C38552   5.303   7.873   9.717  0.5811 -0.1419 -1.1982
  280MOL0     N38553   5.003   7.709   9.015  0.1562  0.6733  0.5718
  280MOL0     N38554   5.028   7.581   9.005 -0.7611  1.0896 -0.0738
  280MOL0     C38555   6.001   7.162   9.311 -0.1638  1.2196 -0.3283
  280MOL0     C38556   6.103   7.099   9.385  0.4966  0.3194  0.6873
  280MOL0     C38557   6.468   6.889   9.487 -0.1196 -0.1095  0.0458
  280MOL0     C38558   6.472   6.748   9.462  0.5075  0.2114  0.9207
  280MOL0     C38559   6.562   6.666   9.532  0.4861 -0.0181 -0.5577
  280MOL0     C38560   6.639   6.724   9.633  0.1553  0.6298 -0.8758
  280MOL0     O38561   6.715   6.658   9.734  0.3620  0.5240  1.0900
  280MOL0     C38562   6.752   6.516   9.726 -0.1092 -0.5469  0.4754
  280MOL0     C38563   6.630   6.421   9.745 -0.1023  0.4423 -0.0741
  280MOL0     C38564   6.586   6.424   9.886 -0.4285  0.0764 -0.8854
  280MOL0     C38565   6.452   6.359   9.918  0.1597  0.2240  0.5337
  280MOL0     C38566   6.338   6.444   9.877  0.3679  0.0517 -0.7722
  280MOL0     C38567   6.247   6.527   9.851  0.1766  0.9017 -0.5880
  280MOL0     C38568   6.633   6.868   9.651 -0.1508 -0.1955  0.0452
  280MOL0     C38569   6.559   6.948   9.575  0.0016 -0.5398  0.9126
  280MOL0     C38570   6.578   7.103   9.603  0.5484 -0.0789  0.0854
  280MOL0     H38571   6.357   7.309   9.296 -0.9662  1.0537 -0.5409
  280MOL0     H38572   6.177   7.414   9.169  3.9815 -0.4481 -0.3737
  280MOL0     H38573   5.772   7.189   9.134 -0.6434 -0.0820 -1.0214
  280MOL0     H38574   5.730   7.347   9.080 -0.9676  1.7863  2.3732
  280MOL0     H38575   5.766   7.301   9.381  1.7286  1.0817 -2.0925
  280MOL0     H38576   5.694   7.433   9.292 -0.3499 -0.1121  0.5011
  280MOL0     H38577   5.604   7.131   9.305  0.4704  1.0387  0.8623
  280MOL0     H38578   5.533   7.246   9.413  0.5587  1.4460  1.2919
  280MOL0     H38579   5.480   7.367   9.158  1.3526 -1.2894 -2.9121
  280MOL0     H38580   5.444   7.191   9.137  0.4157  0.0929 -0.8546
  280MOL0     H38581   5.340   7.347   9.366 -1.1386  0.5937 -0.2500
  280MOL0     H38582   5.314   7.177   9.319 -1.5642  0.0871 -0.3726
  280MOL0     H38583   5.241   7.439   9.172  0.9932  0.7101  1.7443
  280MOL0     H38584   5.227   7.295   9.087 -0.8012  2.5089 -0.1487
  280MOL0     H38585   5.050   7.382   9.322 -0.2401 -0.2773 -0.2252
  280MOL0     H38586   5.046   7.217   9.256  1.1626 -0.6754  1.6636
  280MOL0     H38587   5.005   7.343   9.018 -0.5938 -0.1675 -0.5706
  280MOL0     H38588   4.886   7.331   9.147  1.2427 -1.6702  1.2530
  280MOL0     H38589   4.879   7.588   9.297  0.5672  2.6898  0.9755
  280MOL0     H38590   4.828   7.891   9.214  0.0092 -1.2151  0.2059
  280MOL0     H38591   4.965   7.941   9.130  1.1276 -1.3998 -0.8759
  280MOL0     H38592   4.993   7.993   9.373 -2.4539 -0.4381  1.3215
  280MOL0     H38593   4.968   7.827   9.411 -1.4239  0.7749 -1.0049
  280MOL0     H38594   5.175   7.763   9.265  0.6485 -0.4057  2.8709
  280MOL0     H38595   5.203   7.936   9.242  1.6041 -2.0319 -1.3228
  280MOL0     H38596   5.345   7.853   9.425 -0.5395 -1.2574  0.2471
  280MOL0     H38597   5.226   7.976   9.476  2.0909  0.2501  1.7330
  280MOL0     H38598   5.119   7.595   9.682 -0.0716  0.0250  0.0873
  280MOL0     H38599   5.050   7.587  10.019  2.2825  2.3862  1.5157
  280MOL0     H38600   5.193   7.495  10.000  0.3846  0.4107 -0.2248
  280MOL0     H38601   5.048   7.489   9.879 -2.0231  1.7656 -0.7299
  280MOL0     H38602   5.404   7.606  10.351 -1.5658 -2.4729 -2.2784
  280MOL0     H38603   5.355   7.648  10.593 -0.9108 -0.6103  0.5021
  280MOL0     H38604   4.942   7.793  10.711  0.7023 -1.2079  0.8568
  280MOL0     H38605   5.008   7.649  10.757 -3.3647  0.9681  1.3854
  280MOL0     H38606   4.938   7.816  10.948  0.9389 -1.5594  3.0449
  280MOL0     H38607   5.089   7.722  10.948  2.5889  0.1182 -0.4138
  280MOL0     H38608   5.021   8.007  10.977  1.3061  1.1120 -0.8182
  280MOL0     H38609   5.099   7.999  10.828 -1.0658  0.1236  0.6658
  280MOL0     H38610   5.287   7.855  10.934 -1.8787 -1.8957  0.3316
  280MOL0     H38611   5.215   7.866  11.088  0.3660  0.9745 -0.1030
  280MOL0     H38612   5.323   8.095  10.910  2.6335  2.1159  1.0406
  280MOL0     H38613   5.220   8.126  11.056 -0.9155 -1.3339 -0.6840
  280MOL0     H38614   5.479   7.979  11.021 -2.0086  0.5229 -0.7712
  280MOL0     H38615   5.402   7.997  11.182  0.2538 -0.2769  1.2895
  280MOL0     H38616   5.435   8.255  11.160  1.8136  1.2026  0.8506
  280MOL0     H38617   5.526   8.231  11.020  0.1930  1.1745  1.0976
  280MOL0     H38618   5.585   8.119  11.289 -0.3148  2.0435  0.2250
  280MOL0     H38619   5.651   8.267  11.235 -2.3378  1.0763 -1.3136
  280MOL0     H38620   4.971   7.838  10.491 -0.5581 -0.3595 -0.5030
  280MOL0     H38621   5.040   7.807  10.251 -0.5531 -0.9318 -1.2832
  280MOL0     H38622   5.373   7.952   9.899  0.7833 -0.3050  0.4884
  280MOL0     H38623   5.355   7.951   9.662  0.2308 -0.0288 -1.3718
  280MOL0     H38624   5.900   7.122   9.318  0.8947 -1.5256  1.0729
  280MOL0     H38625   6.081   7.019   9.455 -1.4912  0.5721  0.4046
  280MOL0     H38626   6.395   6.701   9.402  0.2834 -0.3437  1.6235
  280MOL0     H38627   6.555   6.559   9.514 -2.3850 -0.5594  2.6895
  280MOL0     H38628   6.791   6.497   9.625  1.6554  1.8204  0.6478
  280MOL0     H38629   6.838   6.510   9.793  1.0795 -0.1752 -0.9675
  280MOL0     H38630   6.668   6.324   9.712  1.9123  1.1683  0.0150
  280MOL0     H38631   6.542   6.444   9.684 -1.1032 -0.8620  0.8178
  280MOL0     H38632   6.668   6.367   9.930 -1.1392 -0.4184 -0.1745
  280MOL0     H38633   6.570   6.520   9.937 -3.7438 -0.6362 -0.3286
  280MOL0     H38634   6.442   6.336  10.024 -0.3369 -1.2183  0.2005
  280MOL0     H38635   6.448   6.258   9.875 -0.2919  0.8949 -1.0598
  280MOL0     H38636   6.162   6.584   9.818  0.2292  0.9870 -0.5760
  280MOL0     H38637   6.693   6.904   9.734 -0.2169 -1.5569  0.7223
  280MOL0     H38638   6.590   7.157   9.508  2.6713 -0.2366  0.2038
  280MOL0     H38639   6.490   7.139   9.656  0.4075 -1.3440  0.7475
  280MOL0     H38640   6.670   7.130   9.656 -0.7268  0.6879  1.9809
  281MOL0     O38641   5.874   1.442   2.890  0.1277 -0.3077 -0.5639
  281MOL0     C38642   5.922   1.331   2.922  0.1989 -0.2009 -0.9210
  281MOL0     O38643   6.048   1.281   2.884  0.2895  0.2420 -0.2914
  281MOL0     C38644   6.111   1.362   2.794 -0.3162 -0.2926  0.1129
  281MOL0     C38645   6.100   1.345   2.659 -0.3303  0.4393 -0.5338
  281MOL0     C38646   6.162   1.435   2.559 -0.1017 -0.2779 -0.2503
  281MOL0     C38647   6.228   1.549   2.605  0.0911  0.1354  0.5950
  281MOL0     O38648   6.301   1.629   2.532 -0.3493 -1.0725  0.9410
  281MOL0     C38649   6.246   1.762   2.507 -0.0681 -1.5102  0.1858
  281MOL0     C38650   6.181   1.773   2.374 -0.4742  0.7888  0.2052
  281MOL0     C38651   6.030   1.743   2.379  0.1872  0.2227 -0.2228
  281MOL0     C38652   5.967   1.776   2.245  0.4664 -0.4823  0.8951
  281MOL0     C38653   5.848   1.868   2.259  0.3919 -0.6392  0.3257
  281MOL0     C38654   5.806   1.952   2.141 -0.1958  0.0574 -0.5125
  281MOL0     C38655   5.777   1.857   2.028  0.2758 -0.6547  1.0223
  281MOL0     C38656   5.724   1.936   1.905 -1.0617 -0.6129 -0.5252
  281MOL0     N38657   5.672   1.847   1.804 -0.2114  0.2208 -0.2543
  281MOL0     C38658   5.739   1.775   1.709 -0.2177  0.5805  0.3425
  281MOL0     C38659   5.643   1.698   1.642 -1.0183  0.1240 -0.0738
  281MOL0     C38660   5.671   1.599   1.532 -0.5180 -0.1354 -0.0285
  281MOL0     C38661   5.689   1.458   1.583  0.1787  1.1224  0.4903
  281MOL0     C38662   5.827   1.436   1.648  0.1845  0.3367 -0.4884
  281MOL0     C38663   5.948   1.483   1.564  1.1028  0.1996  1.0069
  281MOL0     O38664   5.940   1.442   1.428  0.1657  0.2127 -1.2226
  281MOL0     C38665   5.981   1.308   1.412 -0.0763 -0.4228 -1.2325
  281MOL0     C38666   6.035   1.224   1.510 -0.4627 -0.2073  0.0206
  281MOL0     C38667   6.077   1.095   1.487 -0.1042 -0.0707  1.0502
  281MOL0     C38668   6.124   1.018   1.604 -0.3481  0.1808 -0.1717
  281MOL0     C38669   6.065   1.047   1.358 -0.2522  0.4045  0.6957
  281MOL0     C38670   6.120   0.915   1.315  0.9467 -0.9701 -0.1751
  281MOL0     O38671   6.065   0.859   1.202  0.4098  0.2872 -0.5659
  281MOL0     C38672   6.100   0.731   1.156  0.0979 -0.1131 -0.1335
  281MOL0     C38673   6.079   0.720   1.015  0.1118 -0.1781 -0.1718
  281MOL0     C38674   6.123   0.609   0.944  0.0566 -0.0758 -1.1466
  281MOL0     C38675   6.196   0.505   1.008 -0.2098 -0.2505 -0.7354
  281MOL0     O38676   6.232   0.400   0.936 -0.1283  0.4053 -0.0575
  281MOL0     C38677   6.371   0.340   0.959 -1.7041  0.1847 -0.2173
  281MOL0     C38678   6.484   0.425   0.900 -0.3144  0.3060  0.3984
  281MOL0     C38679   6.601   0.347   0.841  0.7027 -0.4348  0.3803
  281MOL0     C38680   6.690   0.453   0.774 -0.1890 -0.2518  0.0574
  281MOL0     C38681   6.812   0.383   0.709 -0.0786 -0.1585 -0.9528
  281MOL0     C38682   6.921   0.476   0.665  0.0782  0.2026 -0.4309
  281MOL0     C38683   7.050   0.402   0.631  0.0379  0.1082  0.6415
  281MOL0     C38684   7.172   0.488   0.591 -0.6132 -0.0764  0.0859
  281MOL0    Cl38685   7.210   0.633   0.700  0.1791  0.1967  0.1010
  281MOL0     C38686   6.217   0.523   1.146  0.0770 -0.1651 -0.6162
  281MOL0     C38687   6.176   0.635   1.216  0.4204 -0.2714  0.1800
  281MOL0     O38688   6.210   0.868   1.379 -0.2405  0.4788 -0.1778
  281MOL0     C38689   6.002   1.130   1.256 -0.4973  0.5143  0.2975
  281MOL0     C38690   5.957   1.261   1.280 -0.4202  0.3671 -0.2369
  281MOL0     N38691   5.523   1.739   1.680 -0.7256 -0.2036 -0.9941
  281MOL0     N38692   5.541   1.827   1.785 -0.6984  0.7556  0.1085
  281MOL0     C38693   6.238   1.562   2.739 -0.3408  0.1114 -0.9749
  281MOL0     C38694   6.188   1.472   2.838 -0.7435 -0.3957  0.2741
  281MOL0     C38695   5.852   1.251   3.020  0.9068  0.0956 -0.8025
  281MOL0     C38696   5.868   1.109   3.021 -0.4735  0.3463 -0.6601
  281MOL0     C38697   5.802   1.027   3.112  0.4717 -0.2981  0.4534
  281MOL0     C38698   5.703   1.086   3.187 -0.2511  0.7124  0.7941
  281MOL0     O38699   5.626   0.998   3.268 -0.2722 -0.0830  0.0726
  281MOL0     C38700   5.550   1.035   3.385 -0.2593  0.3111 -0.6972
  281MOL0     C38701   5.644   1.057   3.511 -0.0847 -1.5994 -0.1752
  281MOL0     C38702   5.591   1.184   3.594 -0.3547 -0.3986  0.1712
  281MOL0     C38703   5.453   1.139   3.638  0.3380  0.8477  0.1562
  281MOL0     C38704   5.396   1.205   3.754 -0.0834 -0.7296 -0.7090
  281MOL0     C38705   5.349   1.259   3.852 -1.2627 -0.3474 -0.2918
  281MOL0     C38706   5.669   1.222   3.187 -0.1527 -0.1589 -0.0413
  281MOL0     C38707   5.747   1.306   3.106 -0.6966  0.5563 -0.3160
  281MOL0     C38708   5.702   1.449   3.112 -0.5823  0.1553  0.3810
  281MOL0     H38709   6.034   1.261   2.641 -2.1545  1.7120 -0.1054
  281MOL0     H38710   6.136   1.399   2.460 -2.9225 -1.6746  0.8619
  281MOL0     H38711   6.315   1.847   2.505 -1.9428  0.0661 -0.8772
  281MOL0     H38712   6.169   1.785   2.581 -1.1599 -0.9774 -1.0597
  281MOL0     H38713   6.194   1.873   2.332  0.3982  1.3220  1.6533
  281MOL0     H38714   6.242   1.712   2.307  0.5342  1.9947 -0.0126
  281MOL0     H38715   5.996   1.647   2.419 -1.7172  1.0783  0.3625
  281MOL0     H38716   5.992   1.812   2.455 -0.0616  0.2761 -0.3911
  281MOL0     H38717   6.043   1.819   2.179 -0.1762 -2.2702 -1.0869
  281MOL0     H38718   5.938   1.679   2.205 -0.0126  0.1055 -0.2150
  281MOL0     H38719   5.868   1.943   2.336 -1.8262  0.3346  0.0313
  281MOL0     H38720   5.765   1.805   2.292 -1.9648  0.3870 -3.1177
  281MOL0     H38721   5.715   2.008   2.163 -0.4531 -0.5243 -0.0771
  281MOL0     H38722   5.877   2.030   2.113  0.3519 -0.4319 -0.5016
  281MOL0     H38723   5.699   1.790   2.065 -3.7431  1.6676 -2.2901
  281MOL0     H38724   5.868   1.805   1.997 -0.3764 -1.0466 -0.3490
  281MOL0     H38725   5.656   2.019   1.928 -0.3698 -0.6580  1.9375
  281MOL0     H38726   5.811   1.982   1.857  0.1370 -1.4353  0.8023
  281MOL0     H38727   5.847   1.773   1.704 -0.2314  0.9218 -0.2088
  281MOL0     H38728   5.745   1.633   1.458  0.0082  0.7530  0.8843
  281MOL0     H38729   5.584   1.605   1.465 -0.0677  2.0152 -0.5074
  281MOL0     H38730   5.607   1.420   1.645 -0.0597 -1.6470 -1.3176
  281MOL0     H38731   5.679   1.385   1.501  2.4234  2.3458 -0.9785
  281MOL0     H38732   5.844   1.494   1.740 -0.2689  2.4352 -1.6573
  281MOL0     H38733   5.837   1.327   1.647 -1.3369  0.1652 -2.8346
  281MOL0     H38734   5.962   1.591   1.565  4.5527 -0.0461 -1.1353
  281MOL0     H38735   6.042   1.458   1.615 -0.0905  0.1563  3.2830
  281MOL0     H38736   6.048   1.257   1.612 -2.0292 -0.0779  0.2081
  281MOL0     H38737   6.233   1.007   1.596 -0.2154 -1.0150  2.3494
  281MOL0     H38738   6.088   0.915   1.604 -1.0908  0.1499 -5.4230
  281MOL0     H38739   6.101   1.072   1.696 -1.1070 -2.0458  1.0019
  281MOL0     H38740   6.029   0.805   0.970 -0.4665  2.0526  4.1586
  281MOL0     H38741   6.092   0.605   0.840  1.4934 -0.0182 -1.6056
  281MOL0     H38742   6.398   0.322   1.064 -0.2544  0.0099 -0.5984
  281MOL0     H38743   6.374   0.244   0.908  1.8626 -2.1986  3.8519
  281MOL0     H38744   6.440   0.485   0.820  1.4915 -1.2832 -1.9222
  281MOL0     H38745   6.495   0.500   0.979  1.7874  1.9265 -1.3189
  281MOL0     H38746   6.569   0.274   0.767  1.4165 -1.5196  1.1058
  281MOL0     H38747   6.651   0.280   0.912  0.3623  0.3517  1.3751
  281MOL0     H38748   6.732   0.524   0.845 -1.6454  1.2495 -0.5080
  281MOL0     H38749   6.634   0.500   0.692  0.3623 -0.4051 -0.4133
  281MOL0     H38750   6.848   0.317   0.789  0.7184  1.6582  0.2512
  281MOL0     H38751   6.780   0.326   0.622 -0.5503  1.1990 -1.7000
  281MOL0     H38752   6.952   0.548   0.741 -1.0652  0.0628  0.1872
  281MOL0     H38753   6.884   0.539   0.584 -0.5425 -0.0979 -0.3864
  281MOL0     H38754   7.021   0.335   0.549  0.3740  0.7049  0.0256
  281MOL0     H38755   7.085   0.351   0.721  1.3265  2.4544  1.5573
  281MOL0     H38756   7.174   0.524   0.488  0.9937  0.7021  0.3658
  281MOL0     H38757   7.261   0.425   0.601 -1.6892 -1.9836 -1.4965
  281MOL0     H38758   6.270   0.446   1.202  1.7050  0.6869 -0.9290
  281MOL0     H38759   6.199   0.639   1.321 -2.0430  4.8070  0.8552
  281MOL0     H38760   5.979   1.083   1.160  0.3817  0.1700  0.2399
  281MOL0     H38761   5.904   1.322   1.208 -1.6111  1.1260  1.2117
  281MOL0     H38762   6.309   1.639   2.770 -2.1695  0.9400  1.4740
  281MOL0     H38763   6.190   1.492   2.945 -2.0021 -3.1001  0.8936
  281MOL0     H38764   5.946   1.069   2.956 -1.7972  1.1061 -2.8012
  281MOL0     H38765   5.824   0.921   3.115  1.8213 -0.4267 -5.0111
  281MOL0     H38766   5.493   1.128   3.370  0.2517  0.7931  0.2392
  281MOL0     H38767   5.476   0.960   3.414 -0.7206  1.8026  2.3623
  281MOL0     H38768   5.746   1.078   3.477  0.5004  3.6105  3.4832
  281MOL0     H38769   5.641   0.968   3.574 -0.4425 -0.6704  1.1772
  281MOL0     H38770   5.671   1.187   3.668  2.0637  0.5537 -2.3305
  281MOL0     H38771   5.590   1.283   3.547  1.5639  0.1331  1.1724
  281MOL0     H38772   5.447   1.035   3.671 -3.2720  0.8861 -0.0500
  281MOL0     H38773   5.374   1.137   3.563  1.6201 -1.8531 -1.2982
  281MOL0     H38774   5.295   1.310   3.929 -1.2703 -0.2539 -0.3597
  281MOL0     H38775   5.591   1.263   3.250  0.6200  2.2657 -0.5687
  281MOL0     H38776   5.778   1.523   3.138 -0.0522 -0.7832  1.5934
  281MOL0     H38777   5.669   1.470   3.010  1.0884 -0.0726 -0.2354
  281MOL0     H38778   5.614   1.465   3.176 -0.7000  2.7341 -0.3304
  282MOL0     O38779   3.946   2.894   0.501  0.0703 -0.6091 -0.4001
  282MOL0     C38780   3.893   2.995   0.456 -0.3505 -0.3663  0.7250
  282MOL0     O38781   3.758   3.026   0.484 -0.4974  0.2908 -0.6744
  282MOL0     C38782   3.697   2.930   0.564 -0.7211 -0.6444 -0.9358
  282MOL0     C38783   3.724   2.914   0.694  0.6288  0.0539 -0.8457
  282MOL0     C38784   3.671   2.800   0.755  0.2436 -0.1055 -1.0425
  282MOL0     C38785   3.580   2.720   0.695  0.0103  0.0612 -0.5608
  282MOL0     O38786   3.507   2.628   0.763 -0.0619 -0.6525  0.1595
  282MOL0     C38787   3.593   2.528   0.830  0.5511 -0.4809 -0.4886
  282MOL0     C38788   3.487   2.426   0.893 -0.0587 -0.1002  0.1734
  282MOL0     C38789   3.409   2.355   0.781  1.1361 -0.1327 -0.5308
  282MOL0     C38790   3.343   2.213   0.820 -0.3087  0.2389  0.1834
  282MOL0     C38791   3.218   2.170   0.740  1.0207  0.9219  0.5095
  282MOL0     C38792   3.077   2.203   0.791  0.2615 -0.3539 -0.1829
  282MOL0     C38793   2.971   2.096   0.779 -0.3770  0.4844 -0.0261
  282MOL0     C38794   2.835   2.138   0.834 -0.9023  0.6641 -0.3299
  282MOL0     N38795   2.726   2.047   0.791  0.2095  0.6547  0.0354
  282MOL0     C38796   2.666   2.037   0.671 -0.6763  0.1544 -0.6797
  282MOL0     C38797   2.606   1.915   0.677  0.2288 -0.1790 -0.3562
  282MOL0     C38798   2.550   1.866   0.555  0.5534  0.0569  0.1861
  282MOL0     C38799   2.641   1.777   0.464 -0.4363  0.2257  0.1033
  282MOL0     C38800   2.682   1.643   0.525 -0.1131  0.6286  0.2501
  282MOL0     C38801   2.788   1.581   0.438 -0.2418 -0.3857  0.2352
  282MOL0     O38802   2.747   1.588   0.302  0.1446  0.5862  0.1210
  282MOL0     C38803   2.821   1.527   0.204 -0.1529 -0.5480  0.3800
  282MOL0     C38804   2.922   1.428   0.213  0.7002 -0.6271 -1.0966
  282MOL0     C38805   2.973   1.371   0.095 -0.2791  0.6868 -0.5862
  282MOL0     C38806   3.093   1.277   0.103 -0.3258 -0.0409  0.1501
  282MOL0     C38807   2.931   1.417  -0.043  0.2203  0.2192 -0.7394
  282MOL0     C38808   2.961   1.344  -0.174 -0.1803 -0.6376 -0.1613
  282MOL0     O38809   2.924   1.415  -0.278 -0.3461 -0.6573  0.0085
  282MOL0     C38810   2.950   1.390  -0.416 -0.2016 -0.0085 -0.1205
  282MOL0     C38811   3.056   1.303  -0.452  0.2928  0.3726  0.1924
  282MOL0     C38812   3.078   1.282  -0.588  1.2139  0.3522  0.2115
  282MOL0     C38813   3.000   1.343  -0.687  0.4245  0.5217  0.1418
  282MOL0     O38814   3.041   1.322  -0.819  0.6518  0.1844  0.4213
  282MOL0     C38815   3.177   1.376  -0.840  0.0219  0.3918 -0.3778
  282MOL0     C38816   3.235   1.331  -0.970  0.1776 -0.3457  0.6363
  282MOL0     C38817   3.240   1.180  -0.986  0.1754 -0.2214  0.1516
  282MOL0     C38818   3.331   1.147  -1.103 -0.9015  0.1826 -0.4280
  282MOL0     C38819   3.330   0.997  -1.126  0.1922  0.5428 -0.2115
  282MOL0     C38820   3.441   0.981  -1.234 -0.3941  0.3750 -0.8060
  282MOL0     C38821   3.444   0.836  -1.284 -0.5227  0.1894  0.3332
  282MOL0     C38822   3.466   0.719  -1.192 -1.1520 -0.1670  1.0523
  282MOL0    Cl38823   3.617   0.734  -1.105  0.4994  0.4175  0.3639
  282MOL0     C38824   2.888   1.423  -0.656  0.4272 -0.2711 -1.6399
  282MOL0     C38825   2.868   1.448  -0.518  0.1028 -0.0509 -0.5913
  282MOL0     O38826   3.008   1.232  -0.170 -0.1018  0.0301  0.7750
  282MOL0     C38827   2.843   1.521  -0.043  0.5667 -0.6419 -0.3872
  282MOL0     C38828   2.791   1.576   0.076 -0.0603  0.6117  0.6761
  282MOL0     N38829   2.638   1.849   0.795  0.0167  0.7486 -0.1383
  282MOL0     N38830   2.705   1.934   0.867 -0.0810  0.6012  0.4664
  282MOL0     C38831   3.551   2.741   0.563 -0.0261 -0.6107 -0.9959
  282MOL0     C38832   3.611   2.848   0.497 -0.3874  1.2474 -0.1322
  282MOL0     C38833   3.987   3.105   0.400 -0.0151  0.0115 -0.4078
  282MOL0     C38834   3.925   3.234   0.383 -0.5843  0.1375  0.1217
  282MOL0     C38835   4.003   3.340   0.347  0.7967  1.0507 -0.1729
  282MOL0     C38836   4.126   3.327   0.292  0.8818  0.3882  0.6419
  282MOL0     O38837   4.201   3.425   0.232  0.7255  0.3301  0.2698
  282MOL0     C38838   4.170   3.564   0.266 -0.3274  0.2055 -0.1358
  282MOL0     C38839   4.284   3.632   0.325 -1.0113  0.3925 -0.0763
  282MOL0     C38840   4.409   3.633   0.236 -0.0003  0.1166  0.7588
  282MOL0     C38841   4.392   3.707   0.114  0.6954  0.1560 -0.2100
  282MOL0     C38842   4.522   3.717   0.043  0.1542  0.2075 -0.1208
  282MOL0     C38843   4.622   3.718  -0.025 -0.9565  0.8386 -0.5110
  282MOL0     C38844   4.183   3.196   0.293  0.3002 -1.1527  0.2895
  282MOL0     C38845   4.118   3.082   0.347  1.0381  0.5087  0.6019
  282MOL0     C38846   4.186   2.948   0.345  0.6379  0.2423  0.4267
  282MOL0     H38847   3.789   2.985   0.743 -3.7431  1.4919  3.6686
  282MOL0     H38848   3.699   2.782   0.858 -0.4609 -2.4085 -1.2118
  282MOL0     H38849   3.656   2.571   0.908  0.1187  2.5234 -1.6642
  282MOL0     H38850   3.653   2.491   0.746 -2.6714  2.2240 -4.3924
  282MOL0     H38851   3.534   2.356   0.963 -0.5698 -0.1585  0.4674
  282MOL0     H38852   3.427   2.492   0.956  1.2412 -0.3421  1.7562
  282MOL0     H38853   3.334   2.429   0.753  1.3158  0.8771  1.5051
  282MOL0     H38854   3.476   2.329   0.698  2.4316  0.5273  0.2638
  282MOL0     H38855   3.419   2.136   0.809 -1.5343 -0.6306 -3.4581
  282MOL0     H38856   3.322   2.229   0.926 -1.9529  2.1375 -0.3794
  282MOL0     H38857   3.227   2.061   0.745  0.0319  0.8808  1.8348
  282MOL0     H38858   3.230   2.190   0.633  0.6308 -1.7776 -0.0979
  282MOL0     H38859   3.084   2.233   0.896 -2.2988  1.9717 -0.5694
  282MOL0     H38860   3.046   2.295   0.742 -1.4588 -0.6919  0.1841
  282MOL0     H38861   3.011   2.004   0.822  2.6467  2.0561  0.7525
  282MOL0     H38862   2.955   2.086   0.671  1.6137 -0.8193 -0.2431
  282MOL0     H38863   2.831   2.155   0.942 -4.1010  2.8057 -0.6423
  282MOL0     H38864   2.819   2.237   0.790  1.1409  2.4741  2.6393
  282MOL0     H38865   2.667   2.103   0.585 -0.2902 -0.0832 -0.8607
  282MOL0     H38866   2.515   1.953   0.499 -0.4786  0.8161  1.9242
  282MOL0     H38867   2.463   1.811   0.592  2.5835 -1.7078  2.7092
  282MOL0     H38868   2.577   1.758   0.377 -0.7214 -1.4425  0.6260
  282MOL0     H38869   2.729   1.827   0.423 -1.0090  0.1732 -1.2647
  282MOL0     H38870   2.721   1.655   0.627 -0.6497 -0.1583  0.5618
  282MOL0     H38871   2.608   1.562   0.529  0.0051  0.1503 -3.5555
  282MOL0     H38872   2.884   1.630   0.456  1.0913 -3.2300  1.6777
  282MOL0     H38873   2.804   1.475   0.463  1.5272  0.2078  1.8914
  282MOL0     H38874   2.940   1.391   0.313  2.1897 -1.5713 -1.6784
  282MOL0     H38875   3.153   1.307   0.190 -0.8893 -1.0265  0.9028
  282MOL0     H38876   3.165   1.277   0.021  2.8613  2.5461  2.6917
  282MOL0     H38877   3.055   1.176   0.120 -2.6437 -0.0686 -3.9433
  282MOL0     H38878   3.127   1.253  -0.386  3.5095  0.5184 -2.8826
  282MOL0     H38879   3.152   1.207  -0.615 -0.3472 -1.1896  0.0460
  282MOL0     H38880   3.177   1.485  -0.838 -0.4593  0.3789  0.2421
  282MOL0     H38881   3.244   1.340  -0.761 -0.3925  1.0020  0.2581
  282MOL0     H38882   3.165   1.369  -1.046 -0.4083  0.2823  1.4640
  282MOL0     H38883   3.333   1.378  -0.981  0.4181 -0.6564  1.4095
  282MOL0     H38884   3.136   1.149  -0.999  0.1021 -0.1529  0.5583
  282MOL0     H38885   3.268   1.118  -0.900  2.0118 -1.0643 -0.9895
  282MOL0     H38886   3.433   1.180  -1.077 -0.7187 -0.9548  0.3980
  282MOL0     H38887   3.306   1.212  -1.187 -1.3416  2.8639  1.6502
  282MOL0     H38888   3.361   0.939  -1.039 -0.4855  0.5658  0.0477
  282MOL0     H38889   3.235   0.963  -1.168  0.5039  0.3380 -0.7695
  282MOL0     H38890   3.539   1.008  -1.194  0.0519  2.6132 -3.1565
  282MOL0     H38891   3.418   1.046  -1.319 -0.1646  0.7645 -0.5702
  282MOL0     H38892   3.518   0.837  -1.365 -0.0038 -0.7282  0.7848
  282MOL0     H38893   3.345   0.820  -1.327 -0.3924 -3.7471  1.2128
  282MOL0     H38894   3.476   0.633  -1.258  1.2598  0.5048  0.4372
  282MOL0     H38895   3.381   0.715  -1.123  0.5496 -2.2557  3.2049
  282MOL0     H38896   2.856   1.496  -0.729  0.5660  0.9337 -0.5304
  282MOL0     H38897   2.797   1.522  -0.484 -0.2714 -0.0145 -1.4148
  282MOL0     H38898   2.802   1.550  -0.139 -0.7837 -0.9431  0.0801
  282MOL0     H38899   2.724   1.659   0.059  0.9876  1.4690  0.6063
  282MOL0     H38900   3.482   2.669   0.519 -1.9371 -0.2684  1.2656
  282MOL0     H38901   3.596   2.855   0.390 -0.6322  1.8210 -0.0618
  282MOL0     H38902   3.822   3.242   0.415 -0.6292 -2.2118  0.7926
  282MOL0     H38903   3.942   3.430   0.351  1.0992  1.2536 -0.1310
  282MOL0     H38904   4.132   3.614   0.176 -2.4601 -3.2523 -1.3919
  282MOL0     H38905   4.087   3.571   0.337 -1.5206 -2.3207 -1.1490
  282MOL0     H38906   4.308   3.574   0.415  0.2596  1.0448  0.0210
  282MOL0     H38907   4.258   3.736   0.347  2.2059  1.6507 -1.4610
  282MOL0     H38908   4.495   3.675   0.290 -1.1564  0.1795  2.6063
  282MOL0     H38909   4.439   3.529   0.218  0.0375  0.4942 -1.7006
  282MOL0     H38910   4.349   3.806   0.129  0.5104 -0.1598  1.5629
  282MOL0     H38911   4.329   3.653   0.042  1.4867  1.8990 -2.3541
  282MOL0     H38912   4.707   3.743  -0.086 -0.8493  0.6565 -0.4375
  282MOL0     H38913   4.279   3.174   0.248  0.6236 -1.7039  1.2030
  282MOL0     H38914   4.216   2.938   0.450 -2.3426  0.0320  1.3318
  282MOL0     H38915   4.118   2.869   0.312  0.7698  1.1188 -2.1277
  282MOL0     H38916   4.285   2.935   0.301  1.3255 -0.3687  2.0834
  283MOL0     O38917   2.202  11.265   6.397  0.3025 -0.6205  0.1651
  283MOL0     C38918   2.126  11.259   6.496 -0.6033 -0.7740 -0.8762
  283MOL0     O38919   2.147  11.325   6.614 -0.3169 -0.1254  0.2126
  283MOL0     C38920   2.241  11.432   6.617 -0.8164  0.9554 -0.1837
  283MOL0     C38921   2.197  11.559   6.646 -0.4671  0.2183  0.0388
  283MOL0     C38922   2.289  11.668   6.656  0.4267  0.2834  0.8600
  283MOL0     C38923   2.426  11.646   6.626  0.0295 -0.3715 -0.0621
  283MOL0     O38924   2.516  11.743   6.598  0.1448 -0.1789  0.1000
  283MOL0     C38925   2.475  11.881   6.580 -0.0901 -0.1321  0.6073
  283MOL0     C38926   2.609  11.960   6.560 -0.1367  0.4644 -0.0618
  283MOL0     C38927   2.702  11.893   6.454 -0.1260  0.9506 -0.0215
  283MOL0     C38928   2.823  11.963   6.432 -0.7093 -1.4080  0.0662
  283MOL0     C38929   2.921  11.900   6.338 -0.1327 -0.9264  0.7724
  283MOL0     C38930   2.897  11.944   6.187 -0.8084 -0.3548 -0.6753
  283MOL0     C38931   2.987  11.840   6.105  0.0233 -0.6550 -0.2273
  283MOL0     C38932   2.909  11.708   6.102  0.0772 -0.5271  0.4861
  283MOL0     N38933   2.990  11.602   6.026  0.3713  0.8319 -1.2008
  283MOL0     C38934   2.991  11.581   5.889 -0.1046 -0.2589  1.0150
  283MOL0     C38935   3.083  11.479   5.874  0.2170  0.0345  0.5856
  283MOL0     C38936   3.144  11.403   5.759  0.0918 -0.3762  0.0701
  283MOL0     C38937   3.297  11.415   5.768 -0.7683 -0.0779  1.1248
  283MOL0     C38938   3.354  11.312   5.674 -0.4188 -0.1495  0.3384
  283MOL0     C38939   3.498  11.289   5.691 -0.1779  0.2415  0.0900
  283MOL0     O38940   3.529  11.181   5.606 -0.1616  0.2781  0.5370
  283MOL0     C38941   3.567  11.194   5.475  0.7509 -0.5951  0.7504
  283MOL0     C38942   3.621  11.078   5.407 -0.4283 -0.2990  0.1248
  283MOL0     C38943   3.663  11.079   5.275 -0.4577  0.7938 -0.4817
  283MOL0     C38944   3.709  10.951   5.207  0.2509  0.3783  0.5129
  283MOL0     C38945   3.649  11.203   5.207 -0.9075  0.1946  0.1999
  283MOL0     C38946   3.695  11.219   5.062  0.0838 -0.0230 -0.0524
  283MOL0     O38947   3.636  11.134   4.974 -0.0999  0.1343  0.1340
  283MOL0     C38948   3.695  11.118   4.856 -0.1957  0.2174 -0.8571
  283MOL0     C38949   3.616  11.141   4.742  0.2796 -0.0173 -1.3077
  283MOL0     C38950   3.674  11.108   4.615 -0.1452  0.5181 -0.0278
  283MOL0     C38951   3.796  11.040   4.605  0.1687  0.3315 -0.0082
  283MOL0     O38952   3.828  10.988   4.485  0.1625 -0.1327  0.5667
  283MOL0     C38953   3.909  10.874   4.480 -0.0380  0.0618 -0.3526
  283MOL0     C38954   3.918  10.806   4.342 -0.6888 -0.5806 -0.2734
  283MOL0     C38955   3.781  10.760   4.283 -0.3082  0.6716 -0.1293
  283MOL0     C38956   3.786  10.700   4.146  0.3432  0.1268  0.7865
  283MOL0     C38957   3.639  10.703   4.084 -0.0211 -0.2901 -0.5170
  283MOL0     C38958   3.633  10.621   3.959  0.2348 -0.5258 -0.4911
  283MOL0     C38959   3.480  10.615   3.919 -0.0751  0.3797 -0.1520
  283MOL0     C38960   3.472  10.505   3.811 -0.2445 -0.6611 -1.0524
  283MOL0    Cl38961   3.302  10.504   3.734 -0.1651  0.3713 -0.3664
  283MOL0     C38962   3.870  11.016   4.720 -0.8881 -0.0533  1.0838
  283MOL0     C38963   3.817  11.052   4.843  0.9065 -0.3810 -0.4635
  283MOL0     O38964   3.771  11.307   5.032 -0.0140 -0.4822  0.9337
  283MOL0     C38965   3.588  11.314   5.263 -0.2650  0.7869 -0.0918
  283MOL0     C38966   3.548  11.320   5.402 -0.6050  1.0340  0.4114
  283MOL0     N38967   3.108  11.433   6.006  1.0305  0.2712  0.0439
  283MOL0     N38968   3.070  11.516   6.096 -0.6588 -0.0468  0.0974
  283MOL0     C38969   2.467  11.517   6.588  0.6175  0.2464 -0.5930
  283MOL0     C38970   2.382  11.407   6.594 -0.4520  0.7086 -0.0814
  283MOL0     C38971   2.008  11.159   6.496  0.7566 -0.1710  0.5374
  283MOL0     C38972   1.958  11.105   6.376 -0.0794 -0.0487 -0.2670
  283MOL0     C38973   1.864  11.011   6.353 -0.1308 -0.1454  0.2603
  283MOL0     C38974   1.786  10.975   6.455 -0.5927 -0.7591  0.0398
  283MOL0     O38975   1.678  10.897   6.448 -0.1946 -0.5836 -0.1847
  283MOL0     C38976   1.691  10.775   6.368  0.3514 -0.6684  0.1455
  283MOL0     C38977   1.691  10.655   6.464  0.3851 -0.4017  1.0072
  283MOL0     C38978   1.581  10.654   6.576 -0.5111 -0.3365 -0.7164
  283MOL0     C38979   1.526  10.513   6.630  0.5452  0.3781 -0.0002
  283MOL0     C38980   1.439  10.444   6.531  0.8629  0.4700 -0.1521
  283MOL0     C38981   1.371  10.399   6.444 -0.4948 -0.5719 -0.0797
  283MOL0     C38982   1.831  11.011   6.589  0.7916  1.0357  0.7160
  283MOL0     C38983   1.939  11.102   6.612 -0.2887 -0.4089  0.2641
  283MOL0     C38984   1.976  11.134   6.754 -0.6164  0.3083  0.8325
  283MOL0     H38985   2.092  11.583   6.658 -0.1545  3.4872 -2.2307
  283MOL0     H38986   2.255  11.769   6.680 -0.1907 -0.2291  2.2280
  283MOL0     H38987   2.426  11.935   6.662 -2.2203  2.5596 -2.1688
  283MOL0     H38988   2.405  11.885   6.496 -0.6037  0.2728  1.0455
  283MOL0     H38989   2.583  12.058   6.520 -0.3212 -0.5980 -2.7425
  283MOL0     H38990   2.671  11.972   6.649  1.3667 -3.0388 -0.4882
  283MOL0     H38991   2.737  11.797   6.493 -0.0210  1.4832  1.2377
  283MOL0     H38992   2.647  11.877   6.360  1.7442  2.7423 -1.4972
  283MOL0     H38993   2.802  12.064   6.396  1.5910 -0.4114  1.2960
  283MOL0     H38994   2.890  11.972   6.518  2.8218 -5.8252 -1.8119
  283MOL0     H38995   2.915  11.795   6.368 -3.1603 -0.4404  2.1680
  283MOL0     H38996   3.028  11.917   6.351  0.1880 -2.1302 -0.1143
  283MOL0     H38997   2.789  11.945   6.171 -0.8755  1.7731 -0.3199
  283MOL0     H38998   2.937  12.045   6.175  2.0530 -1.1533  1.0683
  283MOL0     H38999   3.087  11.833   6.149 -0.6505 -1.2212  1.2860
  283MOL0     H39000   3.001  11.873   6.002 -4.3775  3.0942  0.0357
  283MOL0     H39001   2.905  11.663   6.201 -1.9869 -0.9247  0.2567
  283MOL0     H39002   2.815  11.722   6.047 -1.0024  1.3527  2.6403
  283MOL0     H39003   2.936  11.639   5.815  3.7260  1.9254 -0.4222
  283MOL0     H39004   3.109  11.444   5.664 -1.8364  0.2441  0.9957
  283MOL0     H39005   3.111  11.300   5.777 -0.1823  0.0441  2.3288
  283MOL0     H39006   3.329  11.512   5.729 -2.6033  0.2791  0.3518
  283MOL0     H39007   3.336  11.401   5.869  1.0638 -1.9781  0.2294
  283MOL0     H39008   3.304  11.217   5.693 -0.2317 -0.5008 -0.8488
  283MOL0     H39009   3.335  11.331   5.568  1.8088 -1.0465 -0.2936
  283MOL0     H39010   3.551  11.381   5.666 -1.6208  1.3666  1.0473
  283MOL0     H39011   3.526  11.267   5.795  1.2839  0.9451 -0.1304
  283MOL0     H39012   3.649  10.989   5.462  0.0252  1.3046  2.6378
  283MOL0     H39013   3.809  10.925   5.241  0.4874  0.4850 -0.0899
  283MOL0     H39014   3.723  10.953   5.099  0.9380  2.2172  0.6122
  283MOL0     H39015   3.646  10.863   5.221  1.1443 -0.2946  0.3807
  283MOL0     H39016   3.524  11.198   4.752  0.9110  0.9823 -1.0560
  283MOL0     H39017   3.638  11.129   4.515 -1.3819  2.6156  0.7953
  283MOL0     H39018   4.010  10.909   4.501  1.6024 -3.2966 -1.7660
  283MOL0     H39019   3.870  10.801   4.552  1.0397 -1.1948 -1.0020
  283MOL0     H39020   3.969  10.864   4.264  1.1469 -2.0358 -0.2406
  283MOL0     H39021   3.990  10.723   4.347  2.3315  1.9382  1.7066
  283MOL0     H39022   3.708  10.841   4.292  0.2534  1.0008  2.2258
  283MOL0     H39023   3.739  10.676   4.340  0.4702 -0.2103 -0.8190
  283MOL0     H39024   3.814  10.596   4.165 -0.6783 -0.3437 -0.1620
  283MOL0     H39025   3.849  10.761   4.081 -1.6685  2.5958  1.0019
  283MOL0     H39026   3.562  10.670   4.155 -3.2416  2.6469 -2.3270
  283MOL0     H39027   3.616  10.807   4.059 -1.0062 -1.0033 -2.9324
  283MOL0     H39028   3.666  10.521   3.988  3.0478  1.1075  2.7383
  283MOL0     H39029   3.687  10.653   3.869 -2.3906 -0.4405 -2.1112
  283MOL0     H39030   3.453  10.714   3.880 -2.4150  1.5778  3.8387
  283MOL0     H39031   3.404  10.591   3.994  0.1172 -1.1479 -0.4223
  283MOL0     H39032   3.493  10.410   3.862 -1.9846 -0.6222 -0.2054
  283MOL0     H39033   3.537  10.517   3.724 -2.0635  1.3360 -2.2250
  283MOL0     H39034   3.973  10.982   4.718 -0.2236  1.8518 -0.7534
  283MOL0     H39035   3.869  11.044   4.938 -0.7344 -0.1607  0.4765
  283MOL0     H39036   3.565  11.406   5.210 -1.7968  0.7245  0.4395
  283MOL0     H39037   3.501  11.405   5.450  1.9415  0.8004  3.6847
  283MOL0     H39038   2.566  11.487   6.556 -0.4379 -0.3488 -3.5687
  283MOL0     H39039   2.431  11.311   6.598  0.4086  1.1894  1.8776
  283MOL0     H39040   1.993  11.149   6.283  1.2166 -1.7642 -0.6537
  283MOL0     H39041   1.832  10.994   6.250 -2.0340 -1.3082  0.9880
  283MOL0     H39042   1.602  10.777   6.305  1.2188  4.5401 -1.3866
  283MOL0     H39043   1.777  10.778   6.301  0.7744  0.4526  0.7123
  283MOL0     H39044   1.784  10.655   6.522 -0.2276  1.8640  2.0950
  283MOL0     H39045   1.679  10.563   6.407  2.7660 -0.7157  0.9173
  283MOL0     H39046   1.605  10.721   6.659  1.4411 -0.3074 -1.2570
  283MOL0     H39047   1.495  10.699   6.527  0.4437  1.4968 -0.7828
  283MOL0     H39048   1.459  10.526   6.715  1.8635  0.1645  1.1104
  283MOL0     H39049   1.611  10.447   6.653  0.9442  0.7950 -0.2602
  283MOL0     H39050   1.303  10.378   6.364 -1.2147  0.6061  0.2125
  283MOL0     H39051   1.767  10.984   6.672 -0.4169  3.4664  0.6541
  283MOL0     H39052   1.952  11.238   6.777  2.5436  1.4272 -0.4217
  283MOL0     H39053   1.932  11.064   6.825 -0.4871  1.1654  1.7772
  283MOL0     H39054   2.084  11.132   6.770 -0.8688 -1.2447  2.7522
  284MOL0     O39055   9.749   3.920   3.044  0.9824 -0.1791  0.1491
  284MOL0     C39056   9.825   3.968   2.964 -0.4170  0.3766 -0.4962
  284MOL0     O39057   9.948   3.910   2.929  0.4608 -0.8867  0.1669
  284MOL0     C39058   9.987   3.781   2.926  0.1987  0.7504 -0.5373
  284MOL0     C39059   9.912   3.673   2.954 -0.0327 -0.0305  0.9493
  284MOL0     C39060   9.963   3.544   2.952 -0.1275 -0.1653 -0.2400
  284MOL0     C39061  10.095   3.511   2.913  0.4245 -0.1277  0.4130
  284MOL0     O39062  10.147   3.385   2.890 -1.2876 -0.2763  0.0153
  284MOL0     C39063  10.074   3.283   2.949 -0.7259  0.1052  0.7733
  284MOL0     C39064  10.155   3.157   2.962  0.1933 -0.5247 -0.1640
  284MOL0     C39065  10.265   3.176   3.080  1.4199 -0.1084 -0.4535
  284MOL0     C39066  10.310   3.046   3.133  0.3877  0.4667  0.3426
  284MOL0     C39067  10.418   3.071   3.241  0.3028 -0.7876  0.6482
  284MOL0     C39068  10.357   3.105   3.383 -1.2182  0.2135 -0.2952
  284MOL0     C39069  10.368   2.986   3.485 -0.5412  0.0729  0.0972
  284MOL0     C39070  10.287   3.011   3.608  0.1724  0.3594 -0.6448
  284MOL0     N39071  10.310   3.144   3.665  0.0716  0.2955 -0.0739
  284MOL0     C39072  10.211   3.237   3.675 -0.3213  0.3314 -0.1840
  284MOL0     C39073  10.272   3.343   3.718 -1.0519 -1.0082  0.9239
  284MOL0     C39074  10.211   3.478   3.727  0.3023 -0.1870 -0.0280
  284MOL0     C39075  10.227   3.562   3.601  0.4083 -0.1992  0.9766
  284MOL0     C39076  10.201   3.501   3.462  0.0925 -0.6664 -0.1334
  284MOL0     C39077  10.234   3.612   3.348  0.3238 -0.4063  0.4109
  284MOL0     O39078  10.372   3.653   3.371  0.5533  0.6249 -0.6975
  284MOL0     C39079  10.423   3.768   3.326 -0.3129  0.4115  0.2183
  284MOL0     C39080  10.369   3.843   3.226  0.2655 -1.0858  0.5750
  284MOL0     C39081  10.412   3.972   3.189 -0.0648 -0.4064  0.0010
  284MOL0     C39082  10.329   4.055   3.083 -0.7404 -0.0108  1.5616
  284MOL0     C39083  10.525   4.018   3.254 -0.1142  0.5228  0.1973
  284MOL0     C39084  10.575   4.163   3.238 -0.2384 -0.1332 -0.2622
  284MOL0     O39085  10.610   4.238   3.358 -0.6312 -0.5272 -0.0733
  284MOL0     C39086  10.630   4.370   3.343 -0.5150 -0.1262  0.2620
  284MOL0     C39087  10.747   4.422   3.289  0.8965  0.1677 -0.1078
  284MOL0     C39088  10.760   4.560   3.275  0.3556 -0.5660  0.0221
  284MOL0     C39089  10.658   4.650   3.311 -0.7116  0.2398  0.0606
  284MOL0     O39090  10.682   4.788   3.293  0.7211  0.1692  0.3970
  284MOL0     C39091  10.665   4.865   3.412 -0.3799 -1.3772 -0.4960
  284MOL0     C39092  10.773   4.961   3.424 -0.7943 -0.3573  0.1512
  284MOL0     C39093  10.912   4.888   3.427  0.1520 -0.7155  0.1149
  284MOL0     C39094  11.026   4.999   3.428  0.2665 -0.5801  0.9990
  284MOL0     C39095  11.159   4.941   3.398 -0.1256  0.7086  0.1579
  284MOL0     C39096  11.167   4.870   3.255  0.1675  0.4186 -0.7154
  284MOL0     C39097  11.285   4.778   3.249  0.1509  0.0395 -0.3272
  284MOL0     C39098  11.288   4.714   3.103  0.1752 -0.0503  0.1777
  284MOL0    Cl39099  11.160   4.593   3.069  0.2332 -0.5095  0.3826
  284MOL0     C39100  10.546   4.600   3.378  0.1405  0.2861 -0.4631
  284MOL0     C39101  10.523   4.458   3.385 -0.7931  0.6640 -0.1469
  284MOL0     O39102  10.588   4.209   3.125  0.1262  1.3432 -0.0247
  284MOL0     C39103  10.593   3.936   3.348  0.7797 -0.7490  0.2324
  284MOL0     C39104  10.536   3.818   3.392 -0.1639  0.4335  0.9471
  284MOL0     N39105  10.404   3.311   3.751  0.2978  0.2437 -0.5461
  284MOL0     N39106  10.428   3.196   3.704  0.4708 -0.2622  0.2632
  284MOL0     C39107  10.174   3.625   2.881 -0.4920  0.3020 -0.0159
  284MOL0     C39108  10.126   3.759   2.895  0.3955 -0.2447  0.2834
  284MOL0     C39109   9.814   4.109   2.915 -0.4002 -0.5452  0.2497
  284MOL0     C39110   9.931   4.186   2.907  0.5499  0.7649  0.1315
  284MOL0     C39111   9.921   4.323   2.853 -0.1568  0.1833 -0.9099
  284MOL0     C39112   9.795   4.382   2.839 -0.5046 -0.5685 -1.0165
  284MOL0     O39113   9.765   4.519   2.820 -0.4194  0.3604  0.1757
  284MOL0     C39114   9.879   4.611   2.815 -0.0310 -0.4046 -0.5125
  284MOL0     C39115   9.839   4.763   2.799  0.0892 -0.5808 -0.0144
  284MOL0     C39116   9.973   4.834   2.796  0.3968 -0.3230  0.2517
  284MOL0     C39117   9.947   4.983   2.798 -0.1753  0.6889 -0.0355
  284MOL0     C39118   9.890   5.046   2.676  0.0156  0.0593  0.1732
  284MOL0     C39119   9.823   5.084   2.576  0.0221 -0.8266 -0.1306
  284MOL0     C39120   9.685   4.302   2.854 -0.0512 -0.7352 -0.0151
  284MOL0     C39121   9.688   4.168   2.891 -0.2009 -0.5680  0.1694
  284MOL0     C39122   9.563   4.091   2.879  0.5680  0.5203  0.0688
  284MOL0     H39123   9.806   3.688   2.969 -0.9627 -2.7728 -1.8002
  284MOL0     H39124   9.889   3.466   2.971 -2.8373  2.3459  0.2003
  284MOL0     H39125   9.982   3.262   2.894  0.4235 -0.9852 -0.8217
  284MOL0     H39126  10.050   3.321   3.049 -0.6060  3.4467 -0.3461
  284MOL0     H39127  10.096   3.070   2.990 -0.2919  0.4810  2.1239
  284MOL0     H39128  10.201   3.124   2.868  2.8619  0.3053  0.7392
  284MOL0     H39129  10.336   3.248   3.038 -0.0102  2.4738  1.2539
  284MOL0     H39130  10.224   3.240   3.159  2.7662 -0.0447  0.2137
  284MOL0     H39131  10.238   2.979   3.183  0.6006 -0.4623 -0.5609
  284MOL0     H39132  10.360   2.988   3.055 -0.7854 -1.1298  0.7098
  284MOL0     H39133  10.475   3.160   3.212 -0.7903  0.0539  1.0282
  284MOL0     H39134  10.488   2.986   3.241  1.2645 -0.0669 -1.5928
  284MOL0     H39135  10.413   3.191   3.419 -2.4433  2.2724 -2.9319
  284MOL0     H39136  10.252   3.138   3.383 -1.4814 -0.5843  0.6293
  284MOL0     H39137  10.476   2.978   3.504 -0.3281  3.2347  0.6412
  284MOL0     H39138  10.333   2.891   3.444 -2.4712  1.5401 -1.8978
  284MOL0     H39139  10.179   3.005   3.590 -0.1312  0.0757  1.0699
  284MOL0     H39140  10.311   2.939   3.687 -3.1539  1.2797  1.4338
  284MOL0     H39141  10.111   3.229   3.634 -0.6851  0.4111  0.6789
  284MOL0     H39142  10.270   3.530   3.803  0.3237 -1.5658  0.9325
  284MOL0     H39143  10.106   3.476   3.755  0.6384 -1.5578  1.2566
  284MOL0     H39144  10.165   3.652   3.603 -2.2676 -1.6812 -2.6879
  284MOL0     H39145  10.332   3.592   3.598 -0.0140  1.3097 -0.8759
  284MOL0     H39146  10.278   3.424   3.451 -0.3983 -1.0529 -1.0153
  284MOL0     H39147  10.105   3.450   3.451 -0.3045 -0.1042  0.6115
  284MOL0     H39148  10.239   3.579   3.243 -0.3261  1.8356 -0.3842
  284MOL0     H39149  10.169   3.698   3.362  1.2992  0.0052  2.7007
  284MOL0     H39150  10.276   3.818   3.175  1.2942  0.6328 -2.4166
  284MOL0     H39151  10.311   4.154   3.126 -4.8021 -0.0931  0.5425
  284MOL0     H39152  10.227   4.016   3.081 -0.5314 -0.6964  3.0210
  284MOL0     H39153  10.369   4.038   2.983 -0.9668 -5.2465  2.0912
  284MOL0     H39154  10.826   4.349   3.277 -0.0928 -0.9851  0.2111
  284MOL0     H39155  10.849   4.610   3.240 -1.1473  2.9657  0.7862
  284MOL0     H39156  10.571   4.919   3.394 -0.5375 -2.3913 -3.1181
  284MOL0     H39157  10.667   4.800   3.500 -1.3551  0.2125  0.7596
  284MOL0     H39158  10.766   5.041   3.350  2.9693  0.0451  0.0384
  284MOL0     H39159  10.759   5.019   3.516 -0.5489  1.6102 -0.9920
  284MOL0     H39160  10.906   4.826   3.337 -2.0255  0.5640 -0.7257
  284MOL0     H39161  10.924   4.830   3.518 -0.4193  2.9601  2.7810
  284MOL0     H39162  11.013   5.035   3.531 -1.1476 -1.2095  1.0642
  284MOL0     H39163  11.007   5.077   3.354 -2.4720  0.2976  2.4828
  284MOL0     H39164  11.239   5.016   3.398 -1.2013  1.9763 -1.7537
  284MOL0     H39165  11.189   4.866   3.471 -0.9803  2.8746  2.9286
  284MOL0     H39166  11.192   4.953   3.190  1.9432  2.1240  1.9146
  284MOL0     H39167  11.078   4.812   3.229  1.1808 -1.2630 -0.6636
  284MOL0     H39168  11.287   4.700   3.326  1.2661 -1.9552 -2.2730
  284MOL0     H39169  11.374   4.839   3.266 -1.9419  2.6513  2.3744
  284MOL0     H39170  11.381   4.657   3.098 -0.1601 -0.6489  0.6881
  284MOL0     H39171  11.301   4.785   3.020  1.6459 -1.2699 -0.6984
  284MOL0     H39172  10.466   4.661   3.420 -1.0612 -1.3065 -0.3357
  284MOL0     H39173  10.433   4.415   3.427 -1.3416  2.2948  0.4220
  284MOL0     H39174  10.685   3.959   3.400  1.3409 -2.3378  0.0139
  284MOL0     H39175  10.588   3.756   3.465  1.5956  1.9930  1.0941
  284MOL0     H39176  10.272   3.612   2.836  0.9514  1.0108  2.6925
  284MOL0     H39177  10.189   3.847   2.884 -0.8874  0.9040  1.6885
  284MOL0     H39178  10.029   4.150   2.936  0.4774  1.4588  1.3055
  284MOL0     H39179  10.015   4.370   2.829 -0.8303  1.2814 -1.4661
  284MOL0     H39180   9.927   4.607   2.913 -2.0884 -1.3583  0.5290
  284MOL0     H39181   9.948   4.592   2.733  1.4224  2.3021 -0.0410
  284MOL0     H39182   9.775   4.793   2.883  0.5459 -1.2523  0.5961
  284MOL0     H39183   9.801   4.776   2.698 -0.9144  1.0269  0.5273
  284MOL0     H39184  10.033   4.817   2.886 -0.0439  0.2060  0.6467
  284MOL0     H39185  10.031   4.810   2.707  2.2693 -0.2575  1.3963
  284MOL0     H39186  10.044   5.033   2.811 -0.0651  0.2415  0.9294
  284MOL0     H39187   9.889   5.008   2.887 -2.3180  1.7259 -1.6358
  284MOL0     H39188   9.781   5.131   2.490  1.2717  1.4532  0.4135
  284MOL0     H39189   9.595   4.357   2.828 -0.2549 -0.4090  1.3034
  284MOL0     H39190   9.482   4.133   2.819 -0.6154 -1.7434 -0.0336
  284MOL0     H39191   9.582   3.994   2.831 -2.6884 -0.5420  0.7192
  284MOL0     H39192   9.519   4.077   2.978  0.6045  3.0909  0.5084
  285MOL0     O39193   4.169   3.901   8.871 -0.1537  0.3141 -0.1589
  285MOL0     C39194   4.083   3.826   8.910 -0.0442 -0.2902  0.2592
  285MOL0     O39195   4.006   3.750   8.832 -0.1830  0.1796  0.0268
  285MOL0     C39196   3.998   3.745   8.693 -0.3106  0.7436 -0.7004
  285MOL0     C39197   4.107   3.776   8.605 -0.4839 -0.5376  0.3994
  285MOL0     C39198   4.104   3.765   8.467 -0.0188  0.6606  0.3411
  285MOL0     C39199   3.992   3.710   8.407  0.9296  0.0286 -0.0119
  285MOL0     O39200   3.978   3.702   8.274 -0.4795 -0.1263  1.5320
  285MOL0     C39201   3.952   3.829   8.200 -0.8256  0.1374 -0.4703
  285MOL0     C39202   4.010   3.834   8.061 -1.1060 -0.5547 -0.1687
  285MOL0     C39203   3.957   3.956   7.997  0.2473  0.2424  1.3205
  285MOL0     C39204   3.988   3.952   7.847 -0.0307  0.4352 -0.8493
  285MOL0     C39205   3.949   4.065   7.756  0.5634 -0.7558  0.2872
  285MOL0     C39206   3.912   4.021   7.615 -0.2437  0.1288 -0.5842
  285MOL0     C39207   3.915   4.137   7.500 -0.0261  0.6446  0.2690
  285MOL0     C39208   3.791   4.224   7.488  0.9017  0.0134 -0.3702
  285MOL0     N39209   3.667   4.150   7.468 -0.3571 -0.5961  0.3603
  285MOL0     C39210   3.623   4.085   7.346 -0.2060 -0.9998  0.5569
  285MOL0     C39211   3.498   4.040   7.376 -1.3344 -0.2224  0.7996
  285MOL0     C39212   3.398   3.958   7.291  0.8176 -0.5754 -1.0558
  285MOL0     C39213   3.393   4.023   7.152 -1.3570 -0.1885 -0.9869
  285MOL0     C39214   3.264   3.989   7.074  0.0767 -0.3358  0.2304
  285MOL0     C39215   3.134   4.059   7.129  0.1043  0.3229  0.1634
  285MOL0     O39216   3.143   4.192   7.176 -0.2317 -0.5443 -0.4215
  285MOL0     C39217   3.132   4.303   7.100 -0.0531  0.2676  0.6035
  285MOL0     C39218   3.107   4.311   6.966 -0.8458  0.2080 -0.8319
  285MOL0     C39219   3.080   4.427   6.903  0.5227  0.2936 -0.5394
  285MOL0     C39220   3.060   4.426   6.758 -0.3133  0.4886 -0.7494
  285MOL0     C39221   3.059   4.544   6.983 -0.1409  0.8759  0.3240
  285MOL0     C39222   3.036   4.679   6.923 -0.5309  0.2665 -0.6479
  285MOL0     O39223   2.907   4.688   6.885  0.7529  0.2448 -0.3369
  285MOL0     C39224   2.854   4.804   6.849 -0.2876 -0.2974  0.2330
  285MOL0     C39225   2.789   4.879   6.947  1.0064 -0.1175 -0.1499
  285MOL0     C39226   2.744   5.012   6.914 -0.0594  0.8821 -0.2646
  285MOL0     C39227   2.749   5.058   6.779  0.0447 -0.3693  0.1702
  285MOL0     O39228   2.696   5.184   6.754 -0.3666 -0.0316 -0.0409
  285MOL0     C39229   2.734   5.244   6.627 -0.2509  0.2783 -0.0557
  285MOL0     C39230   2.680   5.393   6.630 -0.0928  0.8930  0.0662
  285MOL0     C39231   2.693   5.466   6.494 -0.6723  0.0831  0.2104
  285MOL0     C39232   2.840   5.489   6.458 -0.6913  0.0979  1.0470
  285MOL0     C39233   2.866   5.507   6.302 -0.3490  0.5197 -0.1992
  285MOL0     C39234   3.014   5.521   6.250 -0.7964 -0.2955  0.0433
  285MOL0     C39235   3.003   5.538   6.095  0.4655 -0.6636  0.1730
  285MOL0     C39236   3.130   5.615   6.056 -0.0888 -0.1533  0.0137
  285MOL0    Cl39237   3.104   5.774   6.139  0.3658 -0.4855  0.1976
  285MOL0     C39238   2.795   4.968   6.683  0.2949 -0.9179 -0.6677
  285MOL0     C39239   2.853   4.849   6.720  0.6623  0.1125  1.3887
  285MOL0     O39240   3.119   4.758   6.901 -0.7559 -0.3771  0.3214
  285MOL0     C39241   3.091   4.530   7.117 -0.8357 -0.9010 -1.0370
  285MOL0     C39242   3.131   4.413   7.177  0.7034 -0.8614  0.7653
  285MOL0     N39243   3.481   4.053   7.514  0.0769 -0.0582 -0.4844
  285MOL0     N39244   3.573   4.120   7.565 -0.3998 -0.3325  1.0294
  285MOL0     C39245   3.882   3.671   8.484 -0.5493  0.8079 -0.6427
  285MOL0     C39246   3.882   3.683   8.623 -0.8050 -0.6291 -0.3511
  285MOL0     C39247   4.066   3.808   9.054  0.2599 -0.1538  0.0396
  285MOL0     C39248   4.013   3.920   9.124 -0.7336 -0.6128  0.4016
  285MOL0     C39249   3.986   3.911   9.262  0.4887  0.0206  0.5441
  285MOL0     C39250   4.024   3.798   9.332 -0.2860  0.4168 -0.3949
  285MOL0     O39251   4.009   3.801   9.472 -0.2195 -0.9968  0.2599
  285MOL0     C39252   4.115   3.881   9.534 -0.4730  0.1874 -0.0181
  285MOL0     C39253   4.209   3.781   9.597  0.1663  0.3127  0.0788
  285MOL0     C39254   4.129   3.709   9.712  0.4288  0.1591 -0.7022
  285MOL0     C39255   4.222   3.617   9.782 -0.9133  0.0270  0.5307
  285MOL0     C39256   4.148   3.507   9.851  0.5035  0.8631 -0.0792
  285MOL0     C39257   4.075   3.431   9.909 -0.4585  0.9874  1.0228
  285MOL0     C39258   4.080   3.688   9.261  0.2965  0.1651  0.6090
  285MOL0     C39259   4.097   3.687   9.122 -0.6295 -0.1009  0.3645
  285MOL0     C39260   4.154   3.566   9.046 -0.1608  0.5464 -0.4633
  285MOL0     H39261   4.189   3.826   8.655 -2.2739 -0.2130  3.3360
  285MOL0     H39262   4.191   3.790   8.408  1.8179 -0.4781  2.4018
  285MOL0     H39263   4.006   3.911   8.248  0.4675 -0.1699 -1.3429
  285MOL0     H39264   3.843   3.844   8.197 -0.9808 -0.9254 -0.5105
  285MOL0     H39265   4.120   3.837   8.054 -1.0322  1.4321  1.0826
  285MOL0     H39266   3.978   3.751   7.997 -3.3344  0.7852 -0.9098
  285MOL0     H39267   3.848   3.966   7.999  0.0151  1.0865 -3.3630
  285MOL0     H39268   3.995   4.048   8.042  0.1600 -0.4589  2.8873
  285MOL0     H39269   4.095   3.936   7.830  0.7624  1.8836  2.1842
  285MOL0     H39270   3.924   3.868   7.816 -2.6870  2.0759 -0.1603
  285MOL0     H39271   4.029   4.138   7.743  0.5807 -0.7767  0.2751
  285MOL0     H39272   3.869   4.125   7.800  1.9964  1.5405 -0.0653
  285MOL0     H39273   3.968   3.936   7.577 -0.9182 -0.7517  0.3315
  285MOL0     H39274   3.814   3.973   7.618  0.5157 -1.4329  0.7939
  285MOL0     H39275   3.936   4.107   7.397 -1.8745  3.3893 -1.0451
  285MOL0     H39276   3.994   4.204   7.534 -1.6928  2.4720  0.6939
  285MOL0     H39277   3.774   4.284   7.578  1.4547  1.6175 -1.3050
  285MOL0     H39278   3.792   4.294   7.405 -0.0980 -0.7672 -1.0599
  285MOL0     H39279   3.679   4.075   7.254 -0.3243  0.5732  0.2760
  285MOL0     H39280   3.297   3.958   7.333  0.5523  1.8884 -1.5801
  285MOL0     H39281   3.435   3.855   7.283 -0.8157 -1.4926  1.5810
  285MOL0     H39282   3.415   4.130   7.150  0.4117 -0.4921  0.1819
  285MOL0     H39283   3.475   3.971   7.100 -0.8983 -2.1463  1.4559
  285MOL0     H39284   3.283   4.009   6.969  1.2920  0.3974  0.5765
  285MOL0     H39285   3.256   3.882   7.097  2.1621  0.2901  5.0804
  285MOL0     H39286   3.052   4.044   7.059  0.1804  0.0561  0.1323
  285MOL0     H39287   3.099   3.997   7.211 -0.6597  0.5576  0.0182
  285MOL0     H39288   3.128   4.217   6.917 -2.0708 -1.3579  1.4534
  285MOL0     H39289   3.022   4.327   6.731 -0.8391  0.2638  0.6833
  285MOL0     H39290   3.154   4.452   6.709  0.7894  1.2976  1.6211
  285MOL0     H39291   2.986   4.497   6.721 -2.3053  0.2934  2.4283
  285MOL0     H39292   2.767   4.838   7.045  0.1846 -0.1788 -0.3538
  285MOL0     H39293   2.679   5.063   6.984 -1.8697 -0.7402 -0.6395
  285MOL0     H39294   2.843   5.247   6.635 -0.0230 -1.9486 -1.2387
  285MOL0     H39295   2.696   5.189   6.540  0.4577  2.9112 -2.1649
  285MOL0     H39296   2.574   5.402   6.656  0.4220 -1.2971  3.4484
  285MOL0     H39297   2.736   5.445   6.707  0.7736 -0.1680  0.1697
  285MOL0     H39298   2.638   5.561   6.496  0.9874  1.1279 -0.4703
  285MOL0     H39299   2.645   5.402   6.420 -0.3955 -1.6446  1.4612
  285MOL0     H39300   2.896   5.397   6.476  1.7089  1.4745  1.0367
  285MOL0     H39301   2.888   5.561   6.526 -1.1911 -1.8864  3.6598
  285MOL0     H39302   2.827   5.420   6.247  0.5152  0.0453 -0.0789
  285MOL0     H39303   2.823   5.604   6.277 -1.1676 -0.0525 -1.0757
  285MOL0     H39304   3.074   5.433   6.276 -0.1136  0.5489  1.4586
  285MOL0     H39305   3.061   5.602   6.307  0.5530 -0.4385 -0.8114
  285MOL0     H39306   2.917   5.592   6.054  0.7725 -1.4683 -1.6262
  285MOL0     H39307   2.997   5.434   6.063 -1.4372 -0.8937  1.1296
  285MOL0     H39308   3.131   5.620   5.947 -0.9519 -2.1950 -0.1440
  285MOL0     H39309   3.222   5.566   6.089  1.8571  1.1692 -3.0151
  285MOL0     H39310   2.783   4.989   6.577  2.4811  2.4109 -0.4021
  285MOL0     H39311   2.900   4.787   6.644  0.4314 -0.3052  1.5838
  285MOL0     H39312   3.077   4.618   7.178 -1.3269 -0.5504 -1.6477
  285MOL0     H39313   3.154   4.399   7.282 -0.1158 -4.1848  0.6170
  285MOL0     H39314   3.794   3.625   8.441 -0.3014  0.4025 -0.7216
  285MOL0     H39315   3.800   3.646   8.685 -1.1927  0.9758  0.1287
  285MOL0     H39316   3.989   4.015   9.076  0.2780 -1.0883 -1.1323
  285MOL0     H39317   3.954   4.005   9.306  0.0716 -1.2338  3.1756
  285MOL0     H39318   4.170   3.945   9.464 -1.7043  1.3481  0.0467
  285MOL0     H39319   4.078   3.946   9.613 -0.6811 -0.9853  0.8712
  285MOL0     H39320   4.297   3.832   9.638 -1.3833  3.2702 -0.0561
  285MOL0     H39321   4.257   3.712   9.527  0.2063 -2.8184  2.9074
  285MOL0     H39322   4.097   3.789   9.780  0.7485 -1.1546  1.0907
  285MOL0     H39323   4.045   3.656   9.666  0.1688  0.0040 -0.0739
  285MOL0     H39324   4.286   3.674   9.850 -0.1133  3.9641 -3.1296
  285MOL0     H39325   4.289   3.568   9.710 -1.0684  1.3864 -0.5833
  285MOL0     H39326   3.998   3.372   9.954 -0.7111  3.0815  3.6089
  285MOL0     H39327   4.104   3.592   9.306  2.2160 -1.1189 -2.7577
  285MOL0     H39328   4.262   3.567   9.059 -0.2657  1.9330  0.5438
  285MOL0     H39329   4.112   3.472   9.083  1.3378 -1.6917 -3.9375
  285MOL0     H39330   4.148   3.560   8.937 -0.2942 -1.4541 -0.3838
  286MOL0     O39331   5.569   9.292   0.477  0.8716 -0.1196  0.7656
  286MOL0     C39332   5.478   9.217   0.450 -0.6701 -0.8004 -0.5381
  286MOL0     O39333   5.497   9.082   0.444  0.3870 -0.3517 -0.6517
  286MOL0     C39334   5.610   9.021   0.398  0.1256  1.0697 -0.2058
  286MOL0     C39335   5.725   9.082   0.357 -0.6877  0.2354 -0.2635
  286MOL0     C39336   5.838   9.009   0.353 -0.0795  0.2089 -0.1464
  286MOL0     C39337   5.840   8.873   0.369 -0.0563 -0.3146 -0.0100
  286MOL0     O39338   5.946   8.791   0.357 -0.3485 -0.9147 -0.0835
  286MOL0     C39339   6.013   8.761   0.483 -0.1675  0.0999  0.5127
  286MOL0     C39340   6.170   8.744   0.461  0.4033 -0.2122  0.4674
  286MOL0     C39341   6.207   8.606   0.403  0.5146 -0.5235 -0.2510
  286MOL0     C39342   6.353   8.610   0.351  0.6457  0.0597 -0.5787
  286MOL0     C39343   6.389   8.494   0.268 -0.5714  0.3403 -0.2839
  286MOL0     C39344   6.311   8.464   0.148  1.2376  0.4134  0.2064
  286MOL0     C39345   6.370   8.331   0.089  0.2691  0.4077 -0.6430
  286MOL0     C39346   6.281   8.277  -0.027 -0.5466  0.0531 -0.4364
  286MOL0     N39347   6.342   8.161  -0.112 -0.6147 -1.1674 -0.4184
  286MOL0     C39348   6.301   8.030  -0.096 -0.1686  0.3538  0.8874
  286MOL0     C39349   6.373   7.962  -0.194 -0.3384 -0.1231 -0.8384
  286MOL0     C39350   6.377   7.818  -0.236  0.6546 -0.0869 -0.4157
  286MOL0     C39351   6.462   7.726  -0.148  0.2213 -0.0106 -0.2239
  286MOL0     C39352   6.599   7.784  -0.112 -0.9738  0.1699 -0.2045
  286MOL0     C39353   6.586   7.858   0.016 -0.3941 -0.3674 -0.0562
  286MOL0     O39354   6.713   7.855   0.082 -0.0941 -0.2629  0.4340
  286MOL0     C39355   6.724   7.926   0.207  0.5215  0.3356  0.3049
  286MOL0     C39356   6.703   8.066   0.204  0.2251 -0.0327  0.9849
  286MOL0     C39357   6.712   8.148   0.320 -0.0651  1.1504 -0.4457
  286MOL0     C39358   6.683   8.289   0.301  1.4728 -0.0628  0.0097
  286MOL0     C39359   6.762   8.084   0.438 -0.2646  0.0667 -0.2193
  286MOL0     C39360   6.795   8.149   0.574  0.6451 -0.2624 -0.2867
  286MOL0     O39361   6.824   8.064   0.678  0.8043  0.1615  0.0880
  286MOL0     C39362   6.871   8.102   0.803 -0.1077 -0.1481 -0.7443
  286MOL0     C39363   6.937   8.014   0.884  0.0700  0.2157  0.1373
  286MOL0     C39364   6.987   8.056   1.009 -0.7328 -0.2936  0.4430
  286MOL0     C39365   6.956   8.183   1.069  0.5944 -0.5374 -0.0376
  286MOL0     O39366   6.998   8.227   1.189 -0.0324  0.9052 -0.2391
  286MOL0     C39367   7.006   8.133   1.299 -0.9038  0.1200 -0.4399
  286MOL0     C39368   6.991   8.208   1.431 -0.1741  0.4665 -0.6532
  286MOL0     C39369   7.111   8.307   1.431 -0.1080  0.8906  0.1929
  286MOL0     C39370   7.145   8.340   1.581  0.4541 -0.2676  1.1551
  286MOL0     C39371   7.291   8.342   1.609 -0.2947 -0.1855  0.5187
  286MOL0     C39372   7.319   8.400   1.749 -0.6203 -0.5073  0.0314
  286MOL0     C39373   7.459   8.441   1.776  0.7662  1.2984 -0.0115
  286MOL0     C39374   7.554   8.324   1.808  0.3081  0.8833  0.6282
  286MOL0    Cl39375   7.716   8.367   1.871  0.2141 -0.0398 -0.6165
  286MOL0     C39376   6.873   8.265   0.997 -0.0128  1.2718  0.7811
  286MOL0     C39377   6.824   8.229   0.868 -0.0043  0.6397  0.4999
  286MOL0     O39378   6.815   8.270   0.570 -0.0752  0.1709  0.0253
  286MOL0     C39379   6.762   7.940   0.436  0.4443 -0.0541  0.1825
  286MOL0     C39380   6.746   7.860   0.326 -0.4311 -0.0860  0.6195
  286MOL0     N39381   6.451   8.061  -0.257 -0.0158  0.6656 -0.6246
  286MOL0     N39382   6.418   8.171  -0.214  0.1631 -0.7629  0.7698
  286MOL0     C39383   5.727   8.807   0.389  0.4388 -0.0145  0.6184
  286MOL0     C39384   5.610   8.878   0.395  0.5739  0.5705  1.0371
  286MOL0     C39385   5.340   9.280   0.421  0.3223  0.5082  0.4497
  286MOL0     C39386   5.236   9.199   0.361 -0.0028 -0.5905 -0.6236
  286MOL0     C39387   5.113   9.249   0.323  0.3908 -0.1325 -0.0651
  286MOL0     C39388   5.085   9.381   0.364  0.1091  0.2371 -0.7523
  286MOL0     O39389   4.962   9.432   0.331  0.1862 -0.4258  0.3121
  286MOL0     C39390   4.955   9.528   0.215 -0.7393 -0.3597  0.4019
  286MOL0     C39391   5.085   9.582   0.155 -0.2540  0.7744 -0.1524
  286MOL0     C39392   5.053   9.681   0.040 -1.0424  0.5361 -0.3562
  286MOL0     C39393   4.982   9.598  -0.078 -0.3959 -0.0320  0.1520
  286MOL0     C39394   4.950   9.687  -0.193  0.2210 -1.4700 -0.9463
  286MOL0     C39395   4.919   9.759  -0.285  0.6799  0.6607 -0.1070
  286MOL0     C39396   5.170   9.455   0.448  0.0261  1.2624  0.0411
  286MOL0     C39397   5.295   9.406   0.475 -0.4024  0.0449  0.2040
  286MOL0     C39398   5.384   9.482   0.561 -0.7663  0.6126 -0.2060
  286MOL0     H39399   5.721   9.189   0.340  2.5312  0.0165 -3.9107
  286MOL0     H39400   5.936   9.053   0.334 -1.6049  3.2228 -1.7615
  286MOL0     H39401   5.965   8.673   0.528  1.7351 -1.4211 -0.2587
  286MOL0     H39402   6.003   8.844   0.553  1.3081 -1.0266  2.1352
  286MOL0     H39403   6.193   8.825   0.392 -2.8820  0.1227 -0.4051
  286MOL0     H39404   6.228   8.748   0.555 -0.5575 -2.6927  1.2421
  286MOL0     H39405   6.197   8.528   0.479  1.1055 -1.1936 -0.8552
  286MOL0     H39406   6.139   8.586   0.319  1.2223 -1.0787 -0.6970
  286MOL0     H39407   6.372   8.701   0.292  0.8416  0.4839  0.1181
  286MOL0     H39408   6.415   8.612   0.441  2.0192  0.1847 -1.4882
  286MOL0     H39409   6.383   8.408   0.336 -0.3266  2.2085  2.2670
  286MOL0     H39410   6.491   8.513   0.233 -1.0841  2.2048 -0.8715
  286MOL0     H39411   6.209   8.444   0.182  1.6557 -2.6292 -0.0802
  286MOL0     H39412   6.319   8.549   0.079 -1.4765 -0.3925 -1.2678
  286MOL0     H39413   6.392   8.261   0.170  0.3811  0.0329 -0.9948
  286MOL0     H39414   6.463   8.362   0.039  1.2097 -2.0317 -0.5198
  286MOL0     H39415   6.178   8.250  -0.000 -0.9830  2.1022  0.1029
  286MOL0     H39416   6.267   8.359  -0.097 -1.5485 -2.0084 -2.8174
  286MOL0     H39417   6.218   7.982  -0.044 -1.0208  0.7892 -0.0340
  286MOL0     H39418   6.410   7.817  -0.340 -0.5184 -0.8082 -0.7995
  286MOL0     H39419   6.278   7.772  -0.243  0.5457  0.1880 -0.6600
  286MOL0     H39420   6.402   7.683  -0.067  0.1213 -1.0602 -0.8353
  286MOL0     H39421   6.490   7.638  -0.207 -1.3940 -2.1269  1.9592
  286MOL0     H39422   6.676   7.706  -0.104  0.3769  1.1663 -2.5289
  286MOL0     H39423   6.641   7.848  -0.190  1.2858  1.1167  1.6589
  286MOL0     H39424   6.556   7.961  -0.007 -1.3636 -0.3786  1.0689
  286MOL0     H39425   6.509   7.822   0.085  0.1547  2.8847  2.5154
  286MOL0     H39426   6.701   8.096   0.099  0.1513 -2.0398  0.3729
  286MOL0     H39427   6.610   8.298   0.220  0.0849 -1.9634  0.9546
  286MOL0     H39428   6.773   8.338   0.263  0.9629  0.8822 -0.0016
  286MOL0     H39429   6.652   8.345   0.390 -0.0511 -1.6357  0.5335
  286MOL0     H39430   6.971   7.918   0.847 -1.3316 -0.0872 -0.4260
  286MOL0     H39431   7.045   7.981   1.062  2.0929 -0.1178 -2.1067
  286MOL0     H39432   6.926   8.061   1.284  0.2813 -1.0378 -1.4030
  286MOL0     H39433   7.102   8.081   1.289 -1.1967 -0.4528 -0.3166
  286MOL0     H39434   6.895   8.260   1.439 -0.9722 -1.1063  0.5871
  286MOL0     H39435   6.992   8.132   1.510 -1.5056 -0.5229 -1.5526
  286MOL0     H39436   7.084   8.398   1.376 -0.5455  1.6374  1.5966
  286MOL0     H39437   7.188   8.248   1.381 -2.8512 -1.0605 -2.0614
  286MOL0     H39438   7.100   8.271   1.654 -2.8029  2.2311  1.7284
  286MOL0     H39439   7.094   8.435   1.594  1.0229  0.6078 -2.0837
  286MOL0     H39440   7.325   8.240   1.589 -2.5192 -0.3512 -3.6094
  286MOL0     H39441   7.338   8.418   1.545 -2.7158  1.7670  0.8845
  286MOL0     H39442   7.278   8.344   1.834  0.8695 -1.0659  0.4210
  286MOL0     H39443   7.278   8.501   1.754 -0.0271 -0.2869  0.5947
  286MOL0     H39444   7.445   8.490   1.872 -1.6813  0.8438 -0.0511
  286MOL0     H39445   7.498   8.505   1.696  2.1550 -2.0110 -2.2238
  286MOL0     H39446   7.566   8.268   1.715  0.3782  0.2909  0.9873
  286MOL0     H39447   7.505   8.259   1.881  1.3198  2.7044  3.0785
  286MOL0     H39448   6.862   8.363   1.041  2.1579  2.0080 -0.1820
  286MOL0     H39449   6.774   8.303   0.806  3.0011  1.9167 -0.5780
  286MOL0     H39450   6.794   7.891   0.527  2.8727 -0.2933 -0.7407
  286MOL0     H39451   6.756   7.753   0.333  0.9878  0.0412  0.8728
  286MOL0     H39452   5.732   8.699   0.383 -0.4008 -0.0177 -0.6782
  286MOL0     H39453   5.518   8.829   0.424  1.2491 -1.8497 -0.5980
  286MOL0     H39454   5.256   9.099   0.325 -1.0576 -1.6346  1.4751
  286MOL0     H39455   5.062   9.189   0.248  2.4086 -0.4231 -1.2930
  286MOL0     H39456   4.909   9.462   0.141  1.3547 -1.5601  0.0949
  286MOL0     H39457   4.893   9.616   0.235  1.4467  0.3628  5.7470
  286MOL0     H39458   5.152   9.503   0.120 -3.3842 -3.1142  1.7351
  286MOL0     H39459   5.137   9.638   0.233 -0.1469  1.9508 -1.0309
  286MOL0     H39460   4.991   9.758   0.087  0.3087 -0.1946  2.9086
  286MOL0     H39461   5.150   9.720   0.007 -0.3090 -1.8237 -1.2103
  286MOL0     H39462   4.893   9.545  -0.044  0.4673 -0.8853  1.1219
  286MOL0     H39463   5.058   9.521  -0.096 -0.5131 -0.2949  0.7586
  286MOL0     H39464   4.893   9.828  -0.363 -0.1259  0.2850 -0.1866
  286MOL0     H39465   5.134   9.554   0.476 -0.7198  1.0500 -0.1628
  286MOL0     H39466   5.333   9.575   0.587 -3.0161 -0.6016  0.0179
  286MOL0     H39467   5.384   9.431   0.658  0.8632  1.2935  0.1759
  286MOL0     H39468   5.479   9.518   0.523 -0.7790 -0.3028 -1.1378
  287MOL0     O39469   4.278   2.511   4.457  0.4017 -0.3970 -0.6215
  287MOL0     C39470   4.231   2.476   4.568  0.1384 -0.5539  0.8220
  287MOL0     O39471   4.139   2.552   4.642 -0.1646  1.1278  0.0658
  287MOL0     C39472   4.112   2.686   4.606 -0.3341  0.0897  0.0363
  287MOL0     C39473   4.209   2.776   4.561 -0.5314  0.2234 -0.1330
  287MOL0     C39474   4.177   2.909   4.530  0.0801 -0.8967  1.2472
  287MOL0     C39475   4.042   2.945   4.518 -0.4759 -0.4856  0.9853
  287MOL0     O39476   3.994   3.072   4.484 -0.2624  0.2328  1.1820
  287MOL0     C39477   4.037   3.142   4.351  0.4623  1.0144 -0.5077
  287MOL0     C39478   3.940   3.105   4.232 -0.3056 -0.3155  0.6669
  287MOL0     C39479   3.794   3.134   4.252  1.1684  0.5213 -0.3589
  287MOL0     C39480   3.701   3.093   4.139  1.2057  0.7039 -0.3328
  287MOL0     C39481   3.565   3.114   4.192  0.1885  0.5916  0.1294
  287MOL0     C39482   3.463   3.053   4.089  0.7211 -0.4546 -0.1939
  287MOL0     C39483   3.314   3.098   4.110 -0.1793 -0.0292 -0.6366
  287MOL0     C39484   3.257   3.087   4.247  0.0321 -0.1566 -0.4138
  287MOL0     N39485   3.273   2.949   4.295 -0.0780  0.2154 -0.7778
  287MOL0     C39486   3.219   2.830   4.251 -0.3614 -0.0055  0.1757
  287MOL0     C39487   3.271   2.729   4.325  0.5477 -0.1665  0.4755
  287MOL0     C39488   3.251   2.577   4.304  0.1156 -0.5805 -0.3320
  287MOL0     C39489   3.351   2.516   4.197  0.4454 -0.5530  0.5261
  287MOL0     C39490   3.326   2.359   4.186  0.2976 -0.4028  0.6866
  287MOL0     C39491   3.444   2.290   4.113  0.3887 -0.5131  0.5853
  287MOL0     O39492   3.459   2.334   3.978  0.6969 -0.2941 -0.2514
  287MOL0     C39493   3.558   2.302   3.895 -0.2570  0.3232 -0.3957
  287MOL0     C39494   3.572   2.343   3.764 -0.3855 -0.2182  0.5585
  287MOL0     C39495   3.660   2.302   3.667  0.7635 -1.0173  0.1530
  287MOL0     C39496   3.642   2.352   3.529 -0.4369  0.5844  0.5478
  287MOL0     C39497   3.755   2.207   3.705 -0.0111 -0.6323  0.3891
  287MOL0     C39498   3.860   2.142   3.616  0.4386 -0.5401  0.1508
  287MOL0     O39499   3.897   2.203   3.505 -0.7681 -0.6313 -0.2606
  287MOL0     C39500   4.001   2.145   3.434 -0.8502  0.0792 -0.0456
  287MOL0     C39501   3.981   2.117   3.302 -0.9126 -0.3604  0.8494
  287MOL0     C39502   4.075   2.051   3.222 -0.4429  0.3068 -0.7839
  287MOL0     C39503   4.191   2.012   3.285 -0.3852 -0.4368 -0.1723
  287MOL0     O39504   4.257   1.924   3.210 -0.0498  0.3962  0.5647
  287MOL0     C39505   4.395   1.892   3.249  0.9395  1.3418  0.2677
  287MOL0     C39506   4.446   1.784   3.160 -0.5005  0.6618  0.8494
  287MOL0     C39507   4.566   1.716   3.235  0.7650 -0.3922  1.1333
  287MOL0     C39508   4.609   1.592   3.161 -0.3312 -1.9075  0.3095
  287MOL0     C39509   4.732   1.516   3.234 -0.1634 -0.6253  0.1117
  287MOL0     C39510   4.670   1.454   3.364  1.4896  0.7493 -0.4472
  287MOL0     C39511   4.760   1.339   3.415 -0.2551 -0.8803  0.2878
  287MOL0     C39512   4.724   1.295   3.553  0.2380  0.5011  0.7034
  287MOL0    Cl39513   4.844   1.173   3.613 -0.2975 -0.0960 -0.0151
  287MOL0     C39514   4.224   2.051   3.417  0.1328 -0.0830  0.7747
  287MOL0     C39515   4.128   2.121   3.489 -0.4014  0.1400 -0.0826
  287MOL0     O39516   3.889   2.026   3.644  0.0503  0.0003 -0.3154
  287MOL0     C39517   3.755   2.171   3.842  0.2762 -0.3612 -0.5529
  287MOL0     C39518   3.651   2.208   3.929 -0.1357  0.2703  0.7978
  287MOL0     N39519   3.368   2.780   4.417  0.1446  0.5084  0.3241
  287MOL0     N39520   3.343   2.915   4.403 -0.8008  1.1049 -0.6177
  287MOL0     C39521   3.945   2.862   4.566  1.3163  0.4377  0.3439
  287MOL0     C39522   3.977   2.735   4.618 -0.5011 -0.0583  0.0005
  287MOL0     C39523   4.280   2.350   4.632  0.0676 -0.4071  0.2725
  287MOL0     C39524   4.221   2.307   4.749 -0.0239  0.0960 -0.5064
  287MOL0     C39525   4.265   2.194   4.811  0.4414 -0.4763 -0.2028
  287MOL0     C39526   4.368   2.104   4.766  0.0317 -0.4812  1.1980
  287MOL0     O39527   4.422   1.992   4.828 -0.0652  0.5244  0.6067
  287MOL0     C39528   4.393   1.968   4.962 -0.5100 -1.0403 -0.0099
  287MOL0     C39529   4.269   1.883   4.974 -0.1970 -0.0433 -0.3216
  287MOL0     C39530   4.317   1.736   4.954  0.6274  0.6333 -1.3283
  287MOL0     C39531   4.333   1.650   5.078  0.5442 -0.0615  0.2144
  287MOL0     C39532   4.441   1.685   5.167  0.1284 -0.2854  0.8818
  287MOL0     C39533   4.534   1.702   5.239 -0.4606 -0.1678  0.0425
  287MOL0     C39534   4.428   2.149   4.646 -0.2603 -0.2966  0.2965
  287MOL0     C39535   4.394   2.272   4.575  0.2765  0.2605  0.5280
  287MOL0     C39536   4.473   2.300   4.454  0.0511  0.4007 -0.2934
  287MOL0     H39537   4.313   2.747   4.576 -0.6892  0.0907  0.7614
  287MOL0     H39538   4.250   2.989   4.531 -2.1066  1.2103  1.2977
  287MOL0     H39539   4.143   3.135   4.328  1.1580  1.3210  2.2778
  287MOL0     H39540   4.029   3.251   4.359  0.8618  1.0202 -0.2029
  287MOL0     H39541   3.974   3.161   4.144  3.0492 -2.8113  0.1949
  287MOL0     H39542   3.950   3.000   4.204 -0.6463  0.0994 -1.1956
  287MOL0     H39543   3.753   3.084   4.340 -1.3980  3.9163  0.5598
  287MOL0     H39544   3.784   3.242   4.261  0.8214  0.5475 -0.9575
  287MOL0     H39545   3.720   3.146   4.045 -2.5489  0.7809 -1.2234
  287MOL0     H39546   3.713   2.987   4.115 -1.3030  0.7557 -2.1837
  287MOL0     H39547   3.548   3.221   4.209  0.7630  0.7580 -0.3042
  287MOL0     H39548   3.545   3.057   4.283  0.3440 -0.5610 -0.5447
  287MOL0     H39549   3.497   3.092   3.993  3.0421  0.8944  1.0551
  287MOL0     H39550   3.464   2.944   4.087 -1.5061 -0.6817 -5.9710
  287MOL0     H39551   3.246   3.044   4.044 -2.5906  0.6705  1.1461
  287MOL0     H39552   3.318   3.201   4.075  1.5615 -0.1088 -0.7611
  287MOL0     H39553   3.298   3.156   4.322 -1.2495 -0.0842  0.2365
  287MOL0     H39554   3.150   3.106   4.242  0.1124  1.2396  1.7894
  287MOL0     H39555   3.162   2.823   4.159 -1.2140 -0.0202  0.7037
  287MOL0     H39556   3.153   2.557   4.260 -1.3195 -0.2531  2.5210
  287MOL0     H39557   3.271   2.522   4.396  1.6549  0.2596 -0.1320
  287MOL0     H39558   3.332   2.575   4.107  0.3671  0.1977  1.0265
  287MOL0     H39559   3.458   2.522   4.222  0.9921 -2.8386 -0.9410
  287MOL0     H39560   3.317   2.314   4.285  1.7745  1.7343  1.8809
  287MOL0     H39561   3.232   2.344   4.131  2.0182 -4.5857 -1.5913
  287MOL0     H39562   3.528   2.321   4.176  3.0080 -1.1246 -2.3054
  287MOL0     H39563   3.437   2.181   4.123 -1.4217 -0.3225  1.6979
  287MOL0     H39564   3.507   2.426   3.737  2.2960  1.3418 -1.4995
  287MOL0     H39565   3.655   2.268   3.460 -0.7336 -0.9822  2.3170
  287MOL0     H39566   3.717   2.428   3.510  0.6170 -0.6711 -0.5631
  287MOL0     H39567   3.541   2.391   3.514  0.6708  3.2204 -0.5052
  287MOL0     H39568   3.877   2.126   3.273 -1.3219 -2.9170  1.2891
  287MOL0     H39569   4.049   2.012   3.124  0.6858  0.6331 -1.2259
  287MOL0     H39570   4.463   1.977   3.256  0.0334  2.0198  1.0856
  287MOL0     H39571   4.404   1.844   3.348 -0.1851 -0.2918 -0.3742
  287MOL0     H39572   4.367   1.713   3.134 -0.5592  0.6560  1.0369
  287MOL0     H39573   4.490   1.832   3.073  1.1741  2.6702  2.6953
  287MOL0     H39574   4.541   1.688   3.338  1.4732 -2.1341  0.8491
  287MOL0     H39575   4.640   1.796   3.225 -1.4230  1.6819  0.2141
  287MOL0     H39576   4.633   1.615   3.057 -2.5114 -0.0846  0.1439
  287MOL0     H39577   4.519   1.530   3.165 -2.5257  1.1875  2.0446
  287MOL0     H39578   4.764   1.442   3.160 -0.6882  1.5031 -2.4444
  287MOL0     H39579   4.814   1.588   3.246 -1.4098  0.7094  0.9118
  287MOL0     H39580   4.581   1.397   3.337  2.8127 -0.9885 -1.3462
  287MOL0     H39581   4.638   1.527   3.439 -1.8472  0.4196 -1.4159
  287MOL0     H39582   4.863   1.377   3.405 -0.0496 -1.0690  1.5922
  287MOL0     H39583   4.759   1.250   3.351 -3.7705 -0.5161 -0.3506
  287MOL0     H39584   4.620   1.261   3.557 -0.2637  1.8358 -0.3060
  287MOL0     H39585   4.738   1.377   3.625  1.9511  2.3569 -1.5765
  287MOL0     H39586   4.317   2.022   3.465  0.4840  1.0415  0.7925
  287MOL0     H39587   4.158   2.151   3.589  0.3000 -0.3569 -0.1323
  287MOL0     H39588   3.835   2.109   3.882  0.5432  0.5708  0.4145
  287MOL0     H39589   3.661   2.173   4.031 -0.3921  0.2378  0.8116
  287MOL0     H39590   3.845   2.904   4.567  0.8115 -0.6918 -0.7077
  287MOL0     H39591   3.900   2.667   4.653 -2.2885 -0.0844 -3.4832
  287MOL0     H39592   4.146   2.372   4.794  1.7204  2.9888 -1.5197
  287MOL0     H39593   4.234   2.174   4.912  0.0963 -0.6726 -0.3470
  287MOL0     H39594   4.480   1.927   5.014 -0.9566 -1.0896  0.7084
  287MOL0     H39595   4.380   2.068   5.002  1.1140 -0.0907 -1.6972
  287MOL0     H39596   4.186   1.909   4.908 -2.6480 -1.6811  1.9356
  287MOL0     H39597   4.228   1.887   5.075  1.2992 -0.3975  0.3407
  287MOL0     H39598   4.239   1.688   4.893  0.3387 -2.9521  1.5601
  287MOL0     H39599   4.413   1.736   4.901  1.0946 -1.3911 -0.5438
  287MOL0     H39600   4.344   1.546   5.046  1.2049 -0.5079  1.8337
  287MOL0     H39601   4.239   1.658   5.134  0.7104 -3.2497  1.1863
  287MOL0     H39602   4.623   1.692   5.298  0.2446  1.5138 -0.6718
  287MOL0     H39603   4.525   2.105   4.628  0.1118  1.0330 -1.1426
  287MOL0     H39604   4.567   2.244   4.454 -1.3364 -2.1019  1.0249
  287MOL0     H39605   4.426   2.254   4.367 -2.5941 -2.7484  2.5301
  287MOL0     H39606   4.490   2.408   4.444 -0.2960  0.6773  1.6555
  288MOL0     O39607   0.947   8.946   2.176 -0.5546  0.0425 -0.0784
  288MOL0     C39608   0.989   8.925   2.289  0.2237  0.4706 -0.0161
  288MOL0     O39609   1.028   9.020   2.381  0.3463 -0.2634  0.0480
  288MOL0     C39610   1.013   9.148   2.342  0.7290 -0.3399 -0.6417
  288MOL0     C39611   1.113   9.210   2.268 -0.3022  0.0679  0.0009
  288MOL0     C39612   1.111   9.345   2.239 -0.2144  0.2964  0.0650
  288MOL0     C39613   1.020   9.430   2.297  0.4675 -0.3711 -0.2058
  288MOL0     O39614   1.006   9.569   2.271 -0.4691 -0.2213 -0.3451
  288MOL0     C39615   1.132   9.628   2.249 -0.4072 -0.3195 -0.3696
  288MOL0     C39616   1.123   9.780   2.267 -0.3333 -0.0089  0.7116
  288MOL0     C39617   1.244   9.849   2.203 -0.0577 -0.1028  0.0198
  288MOL0     C39618   1.213   9.995   2.186 -0.3284  0.6295 -0.1878
  288MOL0     C39619   1.344  10.061   2.141 -1.0660  0.1154  0.8645
  288MOL0     C39620   1.321  10.212   2.130  0.7281  0.0760  0.6764
  288MOL0     C39621   1.452  10.285   2.098 -0.2804  0.2278 -0.0486
  288MOL0     C39622   1.570  10.279   2.205  0.0335 -0.5398  0.7529
  288MOL0     N39623   1.510  10.302   2.335  0.7369 -0.3407  0.2054
  288MOL0     C39624   1.485  10.430   2.363  0.2323  0.2236  0.4443
  288MOL0     C39625   1.466  10.437   2.493  0.9511 -0.3401  0.7434
  288MOL0     C39626   1.420  10.561   2.575  0.4870  0.1043 -0.6807
  288MOL0     C39627   1.422  10.539   2.724  1.6833 -0.4402 -0.3952
  288MOL0     C39628   1.556  10.498   2.779  1.5124  0.5132 -0.3145
  288MOL0     C39629   1.675  10.583   2.744 -0.2803 -0.3113 -0.7549
  288MOL0     O39630   1.648  10.723   2.757 -0.0468 -0.0250 -0.2419
  288MOL0     C39631   1.746  10.806   2.782 -0.4174  0.4850 -0.3156
  288MOL0     C39632   1.820  10.868   2.687 -0.3625 -0.7316 -0.4592
  288MOL0     C39633   1.908  10.973   2.714  0.7130  0.8038  1.0670
  288MOL0     C39634   1.981  11.024   2.596  1.6500  0.2352 -0.3043
  288MOL0     C39635   1.943  11.003   2.849 -0.9829  0.2360 -0.2398
  288MOL0     C39636   2.028  11.112   2.884  0.3148 -0.7651 -0.4110
  288MOL0     O39637   1.970  11.221   2.925 -0.3059 -0.6571  0.0856
  288MOL0     C39638   2.027  11.314   3.004 -1.0410  0.0421 -0.7154
  288MOL0     C39639   2.070  11.288   3.137  0.3575  0.8276 -0.1306
  288MOL0     C39640   2.132  11.382   3.214 -0.5047  0.0894  0.7721
  288MOL0     C39641   2.168  11.509   3.155 -0.8436  0.3824 -0.4565
  288MOL0     O39642   2.234  11.599   3.235 -0.6472 -0.0386  0.4527
  288MOL0     C39643   2.262  11.728   3.178 -0.0703  0.0235 -0.6720
  288MOL0     C39644   2.260  11.832   3.277  0.6526 -0.1129 -0.3888
  288MOL0     C39645   2.363  11.942   3.266 -0.1340  0.6272  1.1483
  288MOL0     C39646   2.368  12.021   3.398 -0.2780 -0.2588  0.9757
  288MOL0     C39647   2.278  12.154   3.381  0.6049 -0.4831  0.2643
  288MOL0     C39648   2.266  12.237   3.507  0.1435 -0.1405 -0.0864
  288MOL0     C39649   2.169  12.351   3.478  0.5207 -1.2098 -0.2386
  288MOL0     C39650   2.136  12.433   3.603  0.2318 -0.0755  0.2831
  288MOL0    Cl39651   2.018  12.334   3.714 -0.2360 -0.2908 -0.0367
  288MOL0     C39652   2.109  11.537   3.029 -0.4746  0.1030  0.3715
  288MOL0     C39653   2.044  11.439   2.953 -1.5089 -0.2000  0.4394
  288MOL0     O39654   2.149  11.101   2.859 -0.1291 -0.3587 -0.3798
  288MOL0     C39655   1.875  10.937   2.955  0.3391 -0.3650  0.5608
  288MOL0     C39656   1.778  10.841   2.916  0.0111  0.4372 -0.1270
  288MOL0     N39657   1.469  10.308   2.538 -0.4361 -0.1243  0.4685
  288MOL0     N39658   1.512  10.226   2.446 -0.2374 -0.5454  0.2706
  288MOL0     C39659   0.921   9.372   2.376  0.0286  0.4023  0.2830
  288MOL0     C39660   0.914   9.239   2.396  0.0306  0.8678 -0.6496
  288MOL0     C39661   1.008   8.780   2.324  0.6118 -0.2646 -0.9560
  288MOL0     C39662   1.072   8.686   2.244  0.1404  0.3676 -0.8361
  288MOL0     C39663   1.098   8.556   2.297  0.4508 -0.0677  0.4985
  288MOL0     C39664   1.052   8.517   2.424  0.4900 -1.2569  0.0112
  288MOL0     O39665   1.080   8.403   2.481  0.2867  0.5942 -0.4102
  288MOL0     C39666   1.216   8.362   2.492 -0.4443  0.3792 -0.1863
  288MOL0     C39667   1.284   8.438   2.604  0.3427  0.1597  0.2353
  288MOL0     C39668   1.416   8.376   2.637 -0.1625 -0.0045  0.2626
  288MOL0     C39669   1.481   8.456   2.751 -0.0537 -0.5365 -0.8693
  288MOL0     C39670   1.611   8.401   2.782 -0.0351  1.1418 -0.3668
  288MOL0     C39671   1.723   8.354   2.788  0.0076 -0.3781  0.3040
  288MOL0     C39672   0.974   8.604   2.495 -0.2688 -0.7088 -0.9350
  288MOL0     C39673   0.947   8.728   2.445 -0.5588 -0.4785  0.2542
  288MOL0     C39674   0.841   8.800   2.525 -0.5349  0.4359  0.0988
  288MOL0     H39675   1.199   9.161   2.225 -0.9380 -1.4698  0.4054
  288MOL0     H39676   1.192   9.387   2.180 -0.5410  1.9270  0.7061
  288MOL0     H39677   1.183   9.605   2.156 -1.5753  0.3014 -1.1837
  288MOL0     H39678   1.198   9.589   2.327 -1.4099  3.3746  2.6521
  288MOL0     H39679   1.038   9.818   2.211 -0.2095 -2.6628 -1.4451
  288MOL0     H39680   1.113   9.812   2.371  1.5213 -1.7715  1.5065
  288MOL0     H39681   1.321   9.821   2.276  0.7536 -1.9875 -1.4869
  288MOL0     H39682   1.266   9.811   2.103  1.2476 -1.8753  0.9228
  288MOL0     H39683   1.128  10.017   2.121  0.7901 -0.2350 -2.0308
  288MOL0     H39684   1.194  10.044   2.282  1.3630  3.0107 -0.9651
  288MOL0     H39685   1.366  10.030   2.039  1.3481 -1.5463  1.8091
  288MOL0     H39686   1.421  10.026   2.210  1.6262 -0.2381 -2.0922
  288MOL0     H39687   1.239  10.234   2.061  0.6304  0.1099  0.8035
  288MOL0     H39688   1.287  10.246   2.228  2.1987 -0.3508  1.3553
  288MOL0     H39689   1.408  10.383   2.077  1.1148  1.1223  1.0226
  288MOL0     H39690   1.499  10.239   2.010  0.5790 -1.5551  1.2624
  288MOL0     H39691   1.627  10.186   2.206 -0.4519 -0.9784 -2.1752
  288MOL0     H39692   1.640  10.361   2.186 -2.0986  1.6783  1.9146
  288MOL0     H39693   1.487  10.523   2.307  2.2288 -0.0444  0.0171
  288MOL0     H39694   1.314  10.570   2.547  1.0049  1.7051 -2.2784
  288MOL0     H39695   1.469  10.658   2.562  2.3645 -0.9840 -2.1068
  288MOL0     H39696   1.378  10.628   2.772  0.2553  0.7223 -3.6172
  288MOL0     H39697   1.350  10.460   2.747  1.2228 -0.5680 -2.1525
  288MOL0     H39698   1.550  10.488   2.887  0.9539 -1.2043 -0.4748
  288MOL0     H39699   1.564  10.393   2.749 -0.0335 -0.2207  1.6101
  288MOL0     H39700   1.746  10.565   2.825 -2.6244  0.6395  1.6652
  288MOL0     H39701   1.718  10.560   2.646 -1.6932 -0.8354 -1.2868
  288MOL0     H39702   1.789  10.842   2.586  1.1651 -2.5822 -0.5012
  288MOL0     H39703   1.940  10.990   2.500  3.9851 -1.1257 -0.9086
  288MOL0     H39704   2.090  11.022   2.602  1.6155  2.2178  2.6605
  288MOL0     H39705   1.957  11.130   2.597 -1.3227 -0.3092 -1.5309
  288MOL0     H39706   2.053  11.192   3.186 -2.6894  2.0650  1.5196
  288MOL0     H39707   2.175  11.363   3.312  3.3462  1.1049 -0.5692
  288MOL0     H39708   2.363  11.719   3.139  0.1914  2.1536 -0.5775
  288MOL0     H39709   2.208  11.753   3.087 -0.7663  0.7713 -0.0746
  288MOL0     H39710   2.163  11.880   3.263  0.0328  1.1631  5.5362
  288MOL0     H39711   2.251  11.789   3.378  4.3823  0.7778  0.4676
  288MOL0     H39712   2.334  12.004   3.181 -1.3779 -0.5706  0.6698
  288MOL0     H39713   2.465  11.902   3.258 -0.2137  0.6553 -0.3157
  288MOL0     H39714   2.473  12.038   3.422 -0.0383 -0.7211  0.2924
  288MOL0     H39715   2.340  11.962   3.486  1.8777 -1.2503  1.0797
  288MOL0     H39716   2.324  12.210   3.299  0.5299 -1.1165 -0.2185
  288MOL0     H39717   2.176  12.120   3.356  0.8949 -0.7128 -0.6602
  288MOL0     H39718   2.362  12.273   3.546 -0.8103 -0.2070  2.5522
  288MOL0     H39719   2.219  12.172   3.582 -0.5521 -0.1035 -0.4835
  288MOL0     H39720   2.079  12.326   3.421  1.2435 -0.0571 -1.9557
  288MOL0     H39721   2.210  12.413   3.398 -2.6720 -0.6032 -1.5708
  288MOL0     H39722   2.084  12.523   3.571 -0.2363 -0.6695 -0.6808
  288MOL0     H39723   2.235  12.448   3.647  0.5490 -1.0262 -0.0794
  288MOL0     H39724   2.109  11.628   2.970 -1.1294  1.0586  1.7837
  288MOL0     H39725   2.004  11.459   2.854 -0.7646 -3.8475 -0.7590
  288MOL0     H39726   1.902  10.960   3.057  3.1858 -4.8886  1.1265
  288MOL0     H39727   1.736  10.786   3.000 -2.9235 -0.6482 -2.1337
  288MOL0     H39728   0.844   9.433   2.422  0.9008  0.3792  1.8435
  288MOL0     H39729   0.851   9.183   2.464  1.0295 -1.0220 -1.2020
  288MOL0     H39730   1.082   8.713   2.140 -1.5188  2.4440 -0.5147
  288MOL0     H39731   1.152   8.478   2.245  0.4474 -0.8773  1.6745
  288MOL0     H39732   1.208   8.257   2.522 -0.9623  0.5447  0.2864
  288MOL0     H39733   1.265   8.366   2.395  2.7122  0.2275  1.2830
  288MOL0     H39734   1.226   8.433   2.697 -0.6147 -2.3408 -0.4230
  288MOL0     H39735   1.300   8.539   2.565 -2.3555 -0.4336 -2.8544
  288MOL0     H39736   1.394   8.278   2.682  1.2745 -1.0850 -1.2971
  288MOL0     H39737   1.481   8.362   2.551 -1.9788  0.8615 -1.3078
  288MOL0     H39738   1.425   8.447   2.844 -1.3826  0.5200 -1.5419
  288MOL0     H39739   1.501   8.561   2.730  2.4172 -0.7780 -0.0704
  288MOL0     H39740   1.813   8.302   2.814 -0.8085 -0.8412  2.4144
  288MOL0     H39741   0.914   8.558   2.572  2.7951 -2.4489  0.5735
  288MOL0     H39742   0.877   8.843   2.619 -1.8806  2.1380 -0.1176
  288MOL0     H39743   0.807   8.884   2.464 -1.1862 -1.3438 -2.1286
  288MOL0     H39744   0.753   8.738   2.546  1.4330 -2.4885  0.2467
  289MOL0     O39745   8.333   5.558   9.634 -1.0628 -0.5829  0.2323
  289MOL0     C39746   8.215   5.597   9.633 -0.2654 -0.4794  0.4640
  289MOL0     O39747   8.174   5.723   9.620 -0.1287  0.8873 -0.1758
  289MOL0     C39748   8.269   5.816   9.600 -0.1908  0.5631 -0.2815
  289MOL0     C39749   8.335   5.875   9.710 -0.7732 -0.1466 -0.8197
  289MOL0     C39750   8.451   5.960   9.707 -0.0080 -0.2228 -0.2088
  289MOL0     C39751   8.502   5.994   9.571  0.5104  0.1443 -0.9193
  289MOL0     O39752   8.614   6.074   9.569 -0.3953  0.3548  0.2970
  289MOL0     C39753   8.655   6.131   9.448  0.4869  0.2353 -0.8696
  289MOL0     C39754   8.771   6.219   9.478 -0.2479 -0.1340 -0.4550
  289MOL0     C39755   8.708   6.359   9.531  0.0739  0.3396 -0.6667
  289MOL0     C39756   8.808   6.462   9.569 -0.3830  0.6155  0.6510
  289MOL0     C39757   8.739   6.588   9.613  0.2853 -0.6285 -0.1636
  289MOL0     C39758   8.684   6.674   9.505  0.1021  0.6536 -0.1540
  289MOL0     C39759   8.789   6.731   9.394  0.4882  0.2522  0.5156
  289MOL0     C39760   8.721   6.765   9.263  0.0790 -0.0626 -0.3157
  289MOL0     N39761   8.836   6.819   9.180  0.5357 -0.0984 -0.8285
  289MOL0     C39762   8.867   6.957   9.176  0.5243  0.1639 -0.1168
  289MOL0     C39763   8.920   6.986   9.055 -0.8345 -0.0069  0.9326
  289MOL0     C39764   8.976   7.112   8.990  0.1568  0.6348 -0.1398
  289MOL0     C39765   8.954   7.230   9.090  0.1387 -0.7302  1.6609
  289MOL0     C39766   8.977   7.370   9.012 -0.3695  0.1987 -0.3437
  289MOL0     C39767   9.127   7.401   9.005 -0.0878  0.4648  0.5180
  289MOL0     O39768   9.130   7.526   8.941  0.4820  0.3477  0.1934
  289MOL0     C39769   9.248   7.580   8.900 -0.5110 -0.2666  0.0676
  289MOL0     C39770   9.240   7.698   8.821  0.4539  0.7564  0.1669
  289MOL0     C39771   9.358   7.755   8.766  0.8700  0.0347  1.2783
  289MOL0     C39772   9.339   7.885   8.692  0.1926 -0.6260 -0.5063
  289MOL0     C39773   9.481   7.701   8.793 -0.6132  0.0917 -0.2174
  289MOL0     C39774   9.610   7.745   8.725 -0.3631 -1.0818  0.7200
  289MOL0     O39775   9.602   7.739   8.585 -0.2872  0.4510 -0.6589
  289MOL0     C39776   9.707   7.786   8.507 -0.6367  0.5995 -0.6685
  289MOL0     C39777   9.677   7.892   8.422  0.4362  0.0863 -0.2289
  289MOL0     C39778   9.773   7.919   8.325 -0.3331  0.9781 -0.0422
  289MOL0     C39779   9.887   7.842   8.304  0.2109 -0.3743 -0.0267
  289MOL0     O39780   9.973   7.889   8.207 -0.1528  0.2286  0.5931
  289MOL0     C39781  10.118   7.880   8.223 -0.3835 -0.6408  1.0989
  289MOL0     C39782  10.181   7.890   8.086  0.9082 -0.5926  1.1859
  289MOL0     C39783  10.127   7.780   7.981 -0.5025  0.3748 -0.2932
  289MOL0     C39784  10.154   7.814   7.834 -0.7832  0.0971  0.5527
  289MOL0     C39785  10.111   7.706   7.734 -0.2722 -0.9792  0.8829
  289MOL0     C39786  10.217   7.663   7.636 -0.1915 -1.1000 -0.5114
  289MOL0     C39787  10.237   7.776   7.525  0.3965 -0.2776 -0.1175
  289MOL0     C39788  10.360   7.757   7.439 -0.3817 -0.3210 -0.2128
  289MOL0    Cl39789  10.331   7.610   7.338 -0.1515  0.3111  0.2368
  289MOL0     C39790   9.908   7.732   8.388  0.6773 -0.2889  0.2087
  289MOL0     C39791   9.810   7.694   8.485 -0.2852 -0.0329  0.6404
  289MOL0     O39792   9.705   7.791   8.791  0.3858  1.1716 -0.3870
  289MOL0     C39793   9.483   7.596   8.878 -0.3715  0.3470 -0.7528
  289MOL0     C39794   9.369   7.535   8.936  0.1600  0.0889 -0.2489
  289MOL0     N39795   8.919   6.863   8.986  0.9561 -0.8255 -0.3978
  289MOL0     N39796   8.873   6.774   9.059  0.1676 -0.4312  0.4928
  289MOL0     C39797   8.438   5.933   9.468 -0.4055  0.5228  0.0218
  289MOL0     C39798   8.329   5.843   9.476  0.6027  0.3959 -0.0202
  289MOL0     C39799   8.111   5.494   9.650  0.7754 -0.1199  0.0436
  289MOL0     C39800   8.128   5.394   9.744 -0.2774 -0.3392  0.4031
  289MOL0     C39801   8.027   5.305   9.769  0.5491  0.3020 -0.3281
  289MOL0     C39802   7.903   5.319   9.707 -0.5547  0.0413  0.1134
  289MOL0     O39803   7.797   5.234   9.723  0.1634  0.0528 -0.0841
  289MOL0     C39804   7.819   5.127   9.814  0.7437 -0.0444  0.2798
  289MOL0     C39805   7.691   5.050   9.846  0.0075  0.8243 -1.0702
  289MOL0     C39806   7.731   4.917   9.927 -0.9503 -0.1034 -0.2767
  289MOL0     C39807   7.593   4.857   9.965 -0.6396  0.0898  0.4182
  289MOL0     C39808   7.538   4.916  10.091  0.2514  0.1916 -0.3228
  289MOL0     C39809   7.481   4.947  10.196 -0.4817  0.6440  0.1917
  289MOL0     C39810   7.882   5.416   9.610  0.2039  0.9393  0.5988
  289MOL0     C39811   7.983   5.508   9.583 -0.2663  0.4517 -0.6152
  289MOL0     C39812   7.947   5.625   9.493  0.2186  0.0065 -0.3786
  289MOL0     H39813   8.277   5.858   9.801 -0.2949  0.5684 -0.3719
  289MOL0     H39814   8.485   6.022   9.790 -1.2800 -0.5208  0.5734
  289MOL0     H39815   8.571   6.182   9.400 -1.0630 -1.8262 -0.5389
  289MOL0     H39816   8.691   6.053   9.380  0.9482  1.2353 -1.7850
  289MOL0     H39817   8.835   6.172   9.554  1.4208 -0.0926 -1.7637
  289MOL0     H39818   8.828   6.235   9.386  1.0195 -2.0084 -0.0653
  289MOL0     H39819   8.634   6.400   9.462 -1.0788  0.1144  0.3897
  289MOL0     H39820   8.642   6.321   9.610 -1.7625 -2.6884 -3.3771
  289MOL0     H39821   8.871   6.429   9.652 -0.6321 -1.7443 -0.0272
  289MOL0     H39822   8.872   6.481   9.483  0.9561  1.2635  1.7467
  289MOL0     H39823   8.813   6.650   9.666 -0.0232  0.4874 -1.0016
  289MOL0     H39824   8.654   6.574   9.680  0.8885 -0.1988  0.7202
  289MOL0     H39825   8.604   6.620   9.453  0.0551  0.0461  0.5360
  289MOL0     H39826   8.640   6.767   9.543 -6.1759 -2.4844  1.7137
  289MOL0     H39827   8.872   6.665   9.371 -0.1622  0.3179 -2.3735
  289MOL0     H39828   8.825   6.825   9.438  3.0322 -0.5738  0.3295
  289MOL0     H39829   8.679   6.673   9.220  0.3051 -0.6261  0.6195
  289MOL0     H39830   8.642   6.840   9.272  1.2501  1.0240  1.8463
  289MOL0     H39831   8.862   7.025   9.260 -0.4641 -0.8557  0.6977
  289MOL0     H39832   8.934   7.142   8.894  1.3054  1.7050 -0.3311
  289MOL0     H39833   9.081   7.088   8.977  0.0295 -3.3767  3.6248
  289MOL0     H39834   8.854   7.234   9.134 -0.5826 -0.8286  0.0996
  289MOL0     H39835   9.026   7.215   9.171  1.0155 -2.4529  0.6159
  289MOL0     H39836   8.939   7.362   8.910  0.8466 -1.7852 -0.6809
  289MOL0     H39837   8.927   7.456   9.058  0.7418  0.4956  0.3413
  289MOL0     H39838   9.162   7.410   9.108  1.3349  1.5178 -0.0280
  289MOL0     H39839   9.183   7.329   8.946 -0.7401  0.5265 -0.1975
  289MOL0     H39840   9.140   7.741   8.817 -0.4337 -0.8046  2.8109
  289MOL0     H39841   9.249   7.938   8.724  0.4621  0.4426 -1.4576
  289MOL0     H39842   9.321   7.870   8.585 -0.6889  1.7643 -0.7556
  289MOL0     H39843   9.423   7.954   8.701 -1.7583  2.7963 -4.7659
  289MOL0     H39844   9.591   7.956   8.440  0.6247 -0.0464  1.2669
  289MOL0     H39845   9.747   8.006   8.266  1.5241  1.7155  0.1713
  289MOL0     H39846  10.152   7.963   8.286 -2.3518  1.0345  0.0801
  289MOL0     H39847  10.135   7.782   8.269 -0.5462 -0.1937  2.1556
  289MOL0     H39848  10.149   7.988   8.049  0.9517 -0.5647  1.2210
  289MOL0     H39849  10.290   7.884   8.091  0.9314 -1.5784 -0.0129
  289MOL0     H39850  10.020   7.760   7.993  0.0148 -1.7838  1.5614
  289MOL0     H39851  10.180   7.689   8.010  1.0264  0.2514 -3.0924
  289MOL0     H39852  10.261   7.832   7.821 -0.3222 -2.9689 -0.8099
  289MOL0     H39853  10.115   7.910   7.801  4.8294  1.6465 -3.1791
  289MOL0     H39854  10.064   7.621   7.783 -1.2531 -1.1627 -0.3068
  289MOL0     H39855  10.034   7.753   7.672 -0.6616 -1.5686  0.9108
  289MOL0     H39856  10.187   7.568   7.591 -2.7462 -1.4494  1.6718
  289MOL0     H39857  10.317   7.644   7.675  0.4208  1.6825 -0.5386
  289MOL0     H39858  10.245   7.870   7.580 -4.5003 -0.0422  0.6490
  289MOL0     H39859  10.155   7.782   7.453 -0.4121 -3.3477  0.4022
  289MOL0     H39860  10.455   7.741   7.491 -0.1825 -2.4205 -1.0914
  289MOL0     H39861  10.362   7.847   7.377 -0.8644  0.4278  0.8357
  289MOL0     H39862   9.993   7.668   8.368 -2.4965 -4.4125 -1.6342
  289MOL0     H39863   9.839   7.617   8.556  0.7051  1.5209  1.9874
  289MOL0     H39864   9.571   7.554   8.925 -0.1775  0.0456 -1.3770
  289MOL0     H39865   9.389   7.474   9.024  3.5088 -0.2761 -1.0991
  289MOL0     H39866   8.461   5.952   9.364  2.8570 -1.2734  0.2662
  289MOL0     H39867   8.293   5.794   9.386  1.6023  0.2225 -0.3347
  289MOL0     H39868   8.219   5.398   9.802  1.0002  0.8902 -1.5407
  289MOL0     H39869   8.046   5.234   9.850 -2.7570 -0.7053 -0.2823
  289MOL0     H39870   7.892   5.057   9.774  0.4679 -1.0107  1.4187
  289MOL0     H39871   7.857   5.157   9.913 -1.5150  0.9070  0.9267
  289MOL0     H39872   7.645   5.033   9.749 -0.0238  1.2055 -1.1231
  289MOL0     H39873   7.626   5.105   9.915 -0.5212  0.4000 -1.2291
  289MOL0     H39874   7.771   4.853   9.848 -1.4973 -1.2972  0.3977
  289MOL0     H39875   7.803   4.940  10.007  2.4269  0.2503 -3.1935
  289MOL0     H39876   7.603   4.749   9.978  0.8492  0.5224  4.0304
  289MOL0     H39877   7.526   4.879   9.881 -1.1424  4.7054  1.7249
  289MOL0     H39878   7.430   4.974  10.287 -2.3355  0.1517 -0.6431
  289MOL0     H39879   7.780   5.418   9.572  1.1988 -1.4066 -2.5204
  289MOL0     H39880   8.021   5.662   9.422  1.2184 -1.2348 -0.0068
  289MOL0     H39881   7.865   5.600   9.426  1.9679 -0.6112 -2.3926
  289MOL0     H39882   7.916   5.701   9.566  1.1671 -1.7066  1.9254
  290MOL0     O39883   2.873   5.387   3.211  0.8415  0.4173  0.4140
  290MOL0     C39884   2.788   5.396   3.119 -0.0383  1.1729 -1.3830
  290MOL0     O39885   2.713   5.506   3.109 -0.7218  0.6540 -0.0087
  290MOL0     C39886   2.783   5.626   3.095  0.0328  0.0848  0.0463
  290MOL0     C39887   2.736   5.742   3.150 -0.2135 -0.1250 -0.4700
  290MOL0     C39888   2.803   5.868   3.152 -0.0409 -0.4200 -0.0793
  290MOL0     C39889   2.921   5.883   3.074  0.0507  0.3340  0.0309
  290MOL0     O39890   2.981   6.004   3.068  0.0634 -0.1360  1.2002
  290MOL0     C39891   3.005   6.045   2.933  0.4469  0.8416 -0.5384
  290MOL0     C39892   3.024   6.197   2.925  0.4240 -0.9263 -0.4275
  290MOL0     C39893   2.889   6.246   3.003  0.2764 -0.0013  0.3494
  290MOL0     C39894   2.869   6.391   2.965  1.4300 -0.4091  0.0324
  290MOL0     C39895   2.726   6.433   2.999  0.2439  0.3289 -0.5066
  290MOL0     C39896   2.710   6.586   2.964 -0.5187  0.0923  0.0884
  290MOL0     C39897   2.812   6.684   3.035  0.3455  0.0954 -0.4152
  290MOL0     C39898   2.755   6.827   3.055  0.1468  0.4958 -0.6424
  290MOL0     N39899   2.802   6.906   3.172 -0.7910 -0.2332  0.7033
  290MOL0     C39900   2.769   6.872   3.297 -0.4615  0.1645  0.7193
  290MOL0     C39901   2.821   6.969   3.369 -0.3808  0.3997  0.9497
  290MOL0     C39902   2.820   6.981   3.523  0.7376  0.6625  0.0222
  290MOL0     C39903   2.683   6.984   3.596  0.0725 -0.0714 -0.0831
  290MOL0     C39904   2.599   7.090   3.528  0.1270 -0.2834 -0.3639
  290MOL0     C39905   2.479   7.144   3.617 -0.0920  0.2972 -0.0023
  290MOL0     O39906   2.526   7.207   3.737 -0.0277  0.2343  0.0057
  290MOL0     C39907   2.447   7.257   3.840 -0.5371  0.2015 -0.0083
  290MOL0     C39908   2.514   7.332   3.942  0.0691 -0.4738  0.4694
  290MOL0     C39909   2.450   7.396   4.047  0.0119  0.1868 -0.7579
  290MOL0     C39910   2.542   7.467   4.139 -0.3533  0.1830 -1.1348
  290MOL0     C39911   2.305   7.391   4.052 -0.6288 -0.2534  0.7981
  290MOL0     C39912   2.223   7.441   4.164 -0.3667  0.5045 -0.0068
  290MOL0     O39913   2.092   7.396   4.175  0.0568 -0.0139  0.1823
  290MOL0     C39914   2.021   7.412   4.291  0.7157 -0.2457  0.5764
  290MOL0     C39915   1.887   7.438   4.273  0.5050  0.1040  0.9050
  290MOL0     C39916   1.801   7.459   4.377  0.3689 -0.4220 -0.5639
  290MOL0     C39917   1.853   7.451   4.505  0.3439 -0.2651 -1.4147
  290MOL0     O39918   1.758   7.456   4.603  0.0511 -0.4322 -0.0276
  290MOL0     C39919   1.785   7.389   4.730  0.3662 -0.4205  1.2351
  290MOL0     C39920   1.667   7.390   4.820  0.4926  0.6066 -0.5354
  290MOL0     C39921   1.550   7.320   4.750 -0.3673  0.6029 -0.3255
  290MOL0     C39922   1.439   7.288   4.848 -1.1147 -0.0935 -0.3093
  290MOL0     C39923   1.322   7.224   4.780  0.6820 -0.0614 -0.3555
  290MOL0     C39924   1.241   7.140   4.885  0.0770 -0.6719  0.2942
  290MOL0     C39925   1.151   7.223   4.984  0.6199 -0.0274  0.2509
  290MOL0     C39926   1.103   7.136   5.099 -0.6919 -0.4906 -1.2970
  290MOL0    Cl39927   0.950   7.072   5.051 -0.0050 -0.3845  0.0692
  290MOL0     C39928   1.987   7.421   4.528  0.1142  0.4600 -1.5826
  290MOL0     C39929   2.072   7.397   4.421  0.2308 -0.2942 -0.4150
  290MOL0     O39930   2.273   7.515   4.250  0.2892  0.4106  0.1421
  290MOL0     C39931   2.239   7.329   3.951 -0.8117 -0.1523  0.6786
  290MOL0     C39932   2.308   7.262   3.849  0.5427 -0.3128  0.2787
  290MOL0     N39933   2.886   7.060   3.282  0.9591 -0.7890 -0.3231
  290MOL0     N39934   2.873   7.023   3.159 -0.9036  0.6563  0.0930
  290MOL0     C39935   2.971   5.769   3.012  0.9335 -0.1884 -0.4538
  290MOL0     C39936   2.908   5.639   3.031 -0.3695 -0.0369 -0.5254
  290MOL0     C39937   2.736   5.270   3.047  0.5159  0.1388 -1.3465
  290MOL0     C39938   2.606   5.267   3.000 -0.6775 -0.2643  0.4110
  290MOL0     C39939   2.569   5.156   2.919  0.1597 -0.6246 -0.4135
  290MOL0     C39940   2.649   5.044   2.898 -0.0583  0.8258  0.1059
  290MOL0     O39941   2.601   4.935   2.825 -0.1819 -0.1177 -0.5092
  290MOL0     C39942   2.638   4.804   2.854  0.2812  0.3805 -0.3572
  290MOL0     C39943   2.571   4.705   2.752 -0.6293  0.1690  0.9172
  290MOL0     C39944   2.646   4.725   2.624 -0.1694  0.0580 -0.4868
  290MOL0     C39945   2.592   4.623   2.526 -0.7752 -0.4788 -0.4825
  290MOL0     C39946   2.691   4.567   2.440  0.4733  1.1370  0.1627
  290MOL0     C39947   2.752   4.501   2.351 -0.0850  0.0087 -0.2147
  290MOL0     C39948   2.772   5.038   2.971 -0.4569 -0.0594  1.0112
  290MOL0     C39949   2.822   5.161   3.023  0.0583  0.8031 -0.2176
  290MOL0     C39950   2.965   5.168   3.055 -0.8537 -0.2985 -0.2892
  290MOL0     H39951   2.657   5.727   3.223  1.6585  0.5757  1.8758
  290MOL0     H39952   2.775   5.951   3.215  0.5181 -1.5024  1.6590
  290MOL0     H39953   2.928   6.006   2.866  1.0530 -0.7354 -0.3687
  290MOL0     H39954   3.105   6.008   2.906  0.2628  0.8649 -1.2704
  290MOL0     H39955   3.117   6.228   2.973  1.3311 -3.6481 -0.2770
  290MOL0     H39956   3.046   6.228   2.823  0.1751 -3.1223 -1.2070
  290MOL0     H39957   2.811   6.176   2.971  2.0142 -0.6338 -3.0163
  290MOL0     H39958   2.907   6.235   3.110 -2.0928 -1.8922  0.6449
  290MOL0     H39959   2.936   6.454   3.024  0.4797  0.6697  0.0104
  290MOL0     H39960   2.891   6.406   2.859  0.2596  0.2893 -0.1286
  290MOL0     H39961   2.703   6.417   3.105 -0.7869 -2.5282 -1.0681
  290MOL0     H39962   2.654   6.370   2.946 -0.1327  1.0080 -0.8199
  290MOL0     H39963   2.719   6.613   2.859 -0.2772  0.0614  0.0998
  290MOL0     H39964   2.611   6.616   3.001  0.4317  3.7917  0.0402
  290MOL0     H39965   2.907   6.687   2.982  1.7950  1.9911  2.0669
  290MOL0     H39966   2.825   6.643   3.136 -0.5288  1.2886  0.2117
  290MOL0     H39967   2.761   6.880   2.960 -0.3377  0.8679 -0.4751
  290MOL0     H39968   2.648   6.805   3.064  0.0394 -0.6255 -3.5466
  290MOL0     H39969   2.718   6.788   3.343 -2.3787 -0.1333 -1.7854
  290MOL0     H39970   2.877   7.072   3.545 -0.2395  1.5052 -0.8173
  290MOL0     H39971   2.868   6.892   3.563 -0.6482  0.2871  0.9520
  290MOL0     H39972   2.639   6.887   3.574  3.7013 -2.2099  1.2584
  290MOL0     H39973   2.684   7.009   3.703  1.4725  0.8672 -0.2767
  290MOL0     H39974   2.663   7.177   3.513 -0.0049  0.9056  4.3818
  290MOL0     H39975   2.560   7.044   3.437 -0.7335 -1.1167  0.3961
  290MOL0     H39976   2.425   7.213   3.552  2.6635  0.6437 -2.1145
  290MOL0     H39977   2.427   7.048   3.626 -1.2091  1.0219  1.8713
  290MOL0     H39978   2.622   7.343   3.935 -0.1410  2.3085  0.5378
  290MOL0     H39979   2.561   7.567   4.099 -0.5383  0.0116 -1.6497
  290MOL0     H39980   2.638   7.415   4.145 -0.0282  0.8800  0.0276
  290MOL0     H39981   2.500   7.488   4.238 -0.7272 -1.5946 -0.8797
  290MOL0     H39982   1.861   7.427   4.169  0.0540 -2.7341  1.2482
  290MOL0     H39983   1.696   7.482   4.359  0.8850  4.0117  0.8387
  290MOL0     H39984   1.801   7.283   4.711  1.2879 -0.1651  0.4768
  290MOL0     H39985   1.875   7.432   4.775  0.9612  1.8661 -1.8393
  290MOL0     H39986   1.685   7.335   4.913 -2.2194  0.9903  0.2951
  290MOL0     H39987   1.641   7.492   4.850 -0.6271  0.4434 -0.8967
  290MOL0     H39988   1.574   7.219   4.715 -0.5371 -0.1131  1.5012
  290MOL0     H39989   1.509   7.387   4.674 -0.9200 -0.0714 -0.6334
  290MOL0     H39990   1.400   7.378   4.897 -2.7089  0.0107 -1.6770
  290MOL0     H39991   1.479   7.228   4.931 -0.5537 -0.3782 -0.7842
  290MOL0     H39992   1.259   7.303   4.739 -0.7432  0.2794  2.2332
  290MOL0     H39993   1.334   7.155   4.697 -3.8097 -1.2233 -0.2953
  290MOL0     H39994   1.317   7.074   4.928  0.1175 -0.4675  0.5367
  290MOL0     H39995   1.174   7.078   4.824 -0.0372  1.8341 -2.3208
  290MOL0     H39996   1.068   7.268   4.930  1.6442  1.8848  0.1768
  290MOL0     H39997   1.211   7.307   5.020  2.1286  0.3281 -2.7463
  290MOL0     H39998   1.084   7.192   5.191 -0.8411 -0.5938 -1.2647
  290MOL0     H39999   1.171   7.053   5.120 -0.4086  0.4338  2.0623
  290MOL0     H40000   2.023   7.418   4.631  0.3908  1.9169 -1.6115
  290MOL0     H40001   2.175   7.368   4.440 -0.2935 -0.7500  1.9848
  290MOL0     H40002   2.130   7.328   3.949 -0.8014 -0.2473 -0.3468
  290MOL0     H40003   2.247   7.226   3.767 -0.4334  4.7804 -1.6093
  290MOL0     H40004   3.057   5.785   2.949  0.1583 -0.2910 -1.5682
  290MOL0     H40005   2.955   5.549   2.991  2.3263  1.3510 -0.6779
  290MOL0     H40006   2.545   5.352   3.026  0.1710  0.3684  0.3607
  290MOL0     H40007   2.470   5.141   2.877 -0.0837 -0.7814  0.2060
  290MOL0     H40008   2.747   4.796   2.854  0.2500 -1.0408  2.1167
  290MOL0     H40009   2.612   4.791   2.960 -0.4420  3.4017 -0.0460
  290MOL0     H40010   2.464   4.722   2.738 -0.3520  1.1068 -0.2398
  290MOL0     H40011   2.575   4.607   2.800 -1.3188  1.0724  2.9337
  290MOL0     H40012   2.619   4.828   2.599 -1.8935 -0.4374 -0.7339
  290MOL0     H40013   2.756   4.721   2.626 -0.0728  1.6889  2.5722
  290MOL0     H40014   2.509   4.663   2.467 -3.2633 -3.5998  0.5750
  290MOL0     H40015   2.537   4.541   2.574 -2.5855  2.7637  3.6389
  290MOL0     H40016   2.823   4.458   2.283  0.9136  1.4440 -0.1352
  290MOL0     H40017   2.839   4.953   2.965 -1.0944 -0.5446 -4.0080
  290MOL0     H40018   2.975   5.158   3.163  3.6246 -3.2243 -0.7306
  290MOL0     H40019   3.020   5.085   3.011 -1.1425 -0.9402  0.5367
  290MOL0     H40020   3.003   5.267   3.029 -1.2164 -0.4036 -1.3044
  291MOL0     O40021   2.000   7.589   4.946  0.4238  0.3484  0.1654
  291MOL0     C40022   1.909   7.664   4.933 -0.1734 -0.3746 -0.0074
  291MOL0     O40023   1.913   7.768   4.843  0.3852  0.1076  0.0176
  291MOL0     C40024   2.017   7.776   4.749 -0.3623  0.3395 -0.2049
  291MOL0     C40025   1.996   7.742   4.615  0.0229  0.4857  0.2406
  291MOL0     C40026   2.089   7.743   4.512  0.2386 -0.9061 -0.2331
  291MOL0     C40027   2.218   7.773   4.546 -0.7409 -0.3643  0.4839
  291MOL0     O40028   2.300   7.814   4.444  0.4089  0.2889 -0.3541
  291MOL0     C40029   2.432   7.754   4.432  0.7151  0.5475  0.0584
  291MOL0     C40030   2.543   7.867   4.423  0.0190  0.7256 -0.0281
  291MOL0     C40031   2.514   7.969   4.317  0.0132 -0.6111 -0.1993
  291MOL0     C40032   2.574   7.936   4.177 -0.5569 -0.2158  0.2992
  291MOL0     C40033   2.714   7.975   4.163  0.0104 -0.6489 -0.2732
  291MOL0     C40034   2.755   7.975   4.017 -0.0033 -0.1019 -0.4289
  291MOL0     C40035   2.900   8.029   3.996 -0.5758 -0.5308 -0.0817
  291MOL0     C40036   2.968   8.014   3.865  1.0241  0.1711  0.3538
  291MOL0     N40037   2.889   8.055   3.751  0.8555 -0.4209 -0.2189
  291MOL0     C40038   2.897   8.183   3.694  0.0556 -0.1310 -0.6505
  291MOL0     C40039   2.830   8.182   3.575 -0.4963 -0.8284 -1.0930
  291MOL0     C40040   2.816   8.287   3.471  0.5667  0.4257 -0.3361
  291MOL0     C40041   2.919   8.282   3.366  0.0405 -0.6492  0.1851
  291MOL0     C40042   2.889   8.388   3.256 -0.1526  0.7206 -0.2642
  291MOL0     C40043   2.999   8.359   3.152  0.5413 -0.2355 -0.6379
  291MOL0     O40044   3.007   8.463   3.056 -0.0114  0.3511 -0.0773
  291MOL0     C40045   2.945   8.452   2.940 -0.4522  0.9480 -0.6025
  291MOL0     C40046   2.978   8.552   2.849 -0.3679 -0.3066 -0.2940
  291MOL0     C40047   2.916   8.550   2.723 -0.3568  0.5394 -0.7945
  291MOL0     C40048   2.967   8.637   2.608  0.3805 -0.1389  0.1598
  291MOL0     C40049   2.806   8.459   2.706 -0.3671  1.0569  0.4954
  291MOL0     C40050   2.735   8.442   2.584  0.6357  0.6445 -0.3557
  291MOL0     O40051   2.804   8.393   2.480  0.3807 -0.1142  0.0436
  291MOL0     C40052   2.733   8.362   2.360  0.0349  0.5953  0.1677
  291MOL0     C40053   2.603   8.400   2.313  0.6563  1.0218 -0.1521
  291MOL0     C40054   2.554   8.358   2.192 -0.1618 -0.0842  0.0624
  291MOL0     C40055   2.641   8.307   2.095  0.1197 -0.4782  0.0430
  291MOL0     O40056   2.601   8.265   1.973  0.2229 -0.1844 -0.1801
  291MOL0     C40057   2.524   8.361   1.891  0.4363 -0.3071 -0.6737
  291MOL0     C40058   2.523   8.317   1.741 -0.4045  0.1396  0.4249
  291MOL0     C40059   2.669   8.291   1.681  0.7792  0.1152 -0.7990
  291MOL0     C40060   2.750   8.422   1.669  0.3586 -1.5884  0.8178
  291MOL0     C40061   2.895   8.408   1.628 -0.4420 -0.5641  0.4096
  291MOL0     C40062   2.963   8.546   1.614 -0.4506 -0.9950  0.0203
  291MOL0     C40063   3.012   8.599   1.740 -1.1697 -0.5725 -1.1578
  291MOL0     C40064   3.055   8.746   1.736  0.3624 -0.3100  0.3385
  291MOL0    Cl40065   3.188   8.776   1.629  0.4961 -0.4845  0.2775
  291MOL0     C40066   2.769   8.286   2.136 -1.1659 -0.6594 -0.5018
  291MOL0     C40067   2.817   8.310   2.265  0.0449 -0.1467 -0.2552
  291MOL0     O40068   2.614   8.468   2.584 -0.6565  0.0246 -0.8292
  291MOL0     C40069   2.764   8.373   2.802 -0.2924 -0.4595 -0.5979
  291MOL0     C40070   2.840   8.363   2.915 -0.7012 -0.6083  0.0755
  291MOL0     N40071   2.772   8.056   3.570 -0.3288  0.3568  0.4794
  291MOL0     N40072   2.808   7.977   3.670  0.2492 -0.2656  0.0844
  291MOL0     C40073   2.254   7.791   4.676 -0.9129 -0.1297  0.1767
  291MOL0     C40074   2.154   7.780   4.781 -0.5240  0.4180  0.2560
  291MOL0     C40075   1.788   7.668   5.025 -0.8286  0.9304 -0.1593
  291MOL0     C40076   1.695   7.777   5.018  0.1659  0.7386 -0.2031
  291MOL0     C40077   1.591   7.786   5.106 -1.3529  0.0693 -0.4445
  291MOL0     C40078   1.572   7.692   5.205  0.5986  0.0627  0.8784
  291MOL0     O40079   1.456   7.675   5.284 -0.2736  0.0274  0.2456
  291MOL0     C40080   1.364   7.777   5.291  0.3687 -0.0288 -0.0106
  291MOL0     C40081   1.233   7.742   5.373  0.8079 -0.8265  0.3093
  291MOL0     C40082   1.162   7.871   5.404  0.3054 -0.2143 -0.6874
  291MOL0     C40083   1.017   7.852   5.460 -0.2266 -0.1306 -0.2884
  291MOL0     C40084   0.950   7.976   5.502  0.3295 -0.6448 -0.9048
  291MOL0     C40085   0.903   8.086   5.525 -1.0130 -0.2397 -0.4159
  291MOL0     C40086   1.656   7.578   5.209  0.4986 -0.2686 -0.6119
  291MOL0     C40087   1.760   7.561   5.125 -0.1657 -0.4809  0.7905
  291MOL0     C40088   1.841   7.436   5.144 -0.0355 -0.4427  0.1894
  291MOL0     H40089   1.900   7.715   4.571  1.3348 -2.2023 -1.2540
  291MOL0     H40090   2.055   7.721   4.412  0.5240 -0.9651 -0.3178
  291MOL0     H40091   2.441   7.693   4.342 -0.6749 -0.2646  0.4488
  291MOL0     H40092   2.461   7.683   4.510  0.1198 -1.8365 -1.7633
  291MOL0     H40093   2.542   7.918   4.519 -0.7785  1.7093 -0.5469
  291MOL0     H40094   2.635   7.809   4.409 -0.0592  0.4341  0.6421
  291MOL0     H40095   2.410   8.000   4.305 -0.1275 -1.1802 -0.5066
  291MOL0     H40096   2.557   8.063   4.351  1.2610 -0.5993 -1.7104
  291MOL0     H40097   2.552   7.833   4.147  2.0972 -0.8520  0.1901
  291MOL0     H40098   2.511   7.998   4.113  2.9383  0.5740 -2.7391
  291MOL0     H40099   2.785   7.914   4.220 -0.6532  1.3899  2.9814
  291MOL0     H40100   2.716   8.078   4.199 -2.1456  0.2362 -2.4571
  291MOL0     H40101   2.767   7.871   3.984  2.5061 -0.0655  0.1765
  291MOL0     H40102   2.692   8.025   3.944 -0.2200 -1.2320 -1.0416
  291MOL0     H40103   2.962   7.979   4.070 -0.7264  2.0716  1.9588
  291MOL0     H40104   2.900   8.136   4.019 -3.1057 -0.0912 -1.7301
  291MOL0     H40105   3.058   8.077   3.870  0.7458  0.6588 -0.5802
  291MOL0     H40106   2.994   7.908   3.861 -0.3438 -0.2568  2.0080
  291MOL0     H40107   2.967   8.258   3.730  0.6261 -0.9625  0.0218
  291MOL0     H40108   2.820   8.383   3.524  0.8552  0.8884 -1.1715
  291MOL0     H40109   2.716   8.278   3.429 -0.6802  1.3817  2.1911
  291MOL0     H40110   3.004   8.317   3.426  1.1029 -0.9239 -1.1353
  291MOL0     H40111   2.913   8.182   3.322  1.1106 -2.0152  2.8666
  291MOL0     H40112   2.785   8.371   3.224 -0.7147 -1.8706  2.4837
  291MOL0     H40113   2.909   8.486   3.300  0.9100  0.1687  0.5241
  291MOL0     H40114   3.092   8.359   3.210 -1.9947  2.4193  4.0997
  291MOL0     H40115   2.994   8.262   3.102 -1.4292  1.1330 -3.4109
  291MOL0     H40116   3.055   8.627   2.867  0.4195 -1.0500 -0.4671
  291MOL0     H40117   2.892   8.654   2.529  0.4468 -1.3771 -0.1896
  291MOL0     H40118   3.053   8.596   2.555 -0.6470  0.3956 -2.0404
  291MOL0     H40119   3.006   8.728   2.654 -0.1694  0.5474 -0.6907
  291MOL0     H40120   2.530   8.454   2.372 -0.2736 -0.0656 -0.2774
  291MOL0     H40121   2.450   8.377   2.167  0.1088  0.4542 -0.6656
  291MOL0     H40122   2.419   8.358   1.920  0.0749  0.6811 -1.8055
  291MOL0     H40123   2.570   8.461   1.895  1.0984 -0.6366  0.6407
  291MOL0     H40124   2.473   8.220   1.742 -1.1263  0.5097  0.4016
  291MOL0     H40125   2.468   8.380   1.670 -2.8465 -1.6840  0.5566
  291MOL0     H40126   2.658   8.241   1.584 -0.9277 -0.6243 -0.2743
  291MOL0     H40127   2.730   8.233   1.750 -0.7197  3.1667  3.4841
  291MOL0     H40128   2.759   8.459   1.772  5.0838  2.2117 -0.6224
  291MOL0     H40129   2.700   8.502   1.616  1.0294 -2.0877 -0.6134
  291MOL0     H40130   2.953   8.336   1.687 -0.0696 -1.0134 -0.4783
  291MOL0     H40131   2.904   8.369   1.526  0.6308 -0.5399  0.4748
  291MOL0     H40132   2.896   8.619   1.568 -0.5476 -1.0975 -0.0022
  291MOL0     H40133   3.057   8.526   1.562  0.2944 -1.0248  1.3534
  291MOL0     H40134   3.093   8.534   1.773 -2.6876 -1.4060  1.1496
  291MOL0     H40135   2.934   8.587   1.816  0.8884 -2.8064  0.7409
  291MOL0     H40136   3.079   8.773   1.839 -0.4909 -1.6074  0.9153
  291MOL0     H40137   2.969   8.802   1.698  0.2217 -1.4501 -1.1358
  291MOL0     H40138   2.838   8.245   2.063  0.3883  0.3165  0.3677
  291MOL0     H40139   2.921   8.283   2.283  0.0414 -1.7235 -2.2409
  291MOL0     H40140   2.671   8.316   2.800 -1.2742  1.0445  0.3356
  291MOL0     H40141   2.823   8.280   2.983 -0.7319 -0.1009  0.6936
  291MOL0     H40142   2.359   7.809   4.697 -0.2891 -2.2066 -0.8680
  291MOL0     H40143   2.190   7.793   4.883 -0.5698  0.6468  0.2435
  291MOL0     H40144   1.694   7.851   4.939  0.3049  1.3337  0.3433
  291MOL0     H40145   1.532   7.874   5.080 -2.4355 -0.9651 -1.6029
  291MOL0     H40146   1.399   7.869   5.339 -1.7525 -0.1951  2.0564
  291MOL0     H40147   1.334   7.799   5.188  2.1536 -4.5170 -1.7047
  291MOL0     H40148   1.265   7.699   5.468 -2.3739 -1.2006  1.3293
  291MOL0     H40149   1.162   7.671   5.330  0.2248 -1.3385  2.0642
  291MOL0     H40150   1.222   7.929   5.475 -1.9285  0.8065  0.4767
  291MOL0     H40151   1.155   7.931   5.312  2.8616  3.2682  1.1438
  291MOL0     H40152   1.030   7.792   5.551  1.3432  1.7881  0.8317
  291MOL0     H40153   0.955   7.803   5.384  2.4378  0.4950 -3.0609
  291MOL0     H40154   0.860   8.183   5.538 -3.5478 -1.2974 -0.3019
  291MOL0     H40155   1.642   7.513   5.294  2.3439 -0.8899 -0.7406
  291MOL0     H40156   1.924   7.455   5.212  3.6758 -0.4086 -3.9515
  291MOL0     H40157   1.771   7.357   5.175 -0.4530  0.3810  1.3875
  291MOL0     H40158   1.895   7.390   5.060 -2.1811 -3.9201  0.4879
  292MOL0     O40159   9.869   2.228   9.443  0.5208  0.1600  0.3946
  292MOL0     C40160   9.797   2.200   9.346 -0.7433  0.5145 -0.1904
  292MOL0     O40161   9.844   2.208   9.219  0.8356  0.1497 -0.8068
  292MOL0     C40162   9.977   2.228   9.194 -0.4812  1.3526 -0.2278
  292MOL0     C40163  10.069   2.117   9.203 -0.4454  0.3796 -0.9088
  292MOL0     C40164  10.196   2.125   9.150 -0.3156  0.0794  0.2527
  292MOL0     C40165  10.234   2.241   9.070 -0.2372  0.5744 -0.1432
  292MOL0     O40166  10.362   2.244   9.012 -0.3367 -0.7165  0.2073
  292MOL0     C40167  10.372   2.299   8.879 -0.2603  0.2927  0.9961
  292MOL0     C40168  10.265   2.262   8.779 -0.6575  1.5826 -0.2318
  292MOL0     C40169  10.292   2.309   8.633 -0.3366  0.1890 -0.9230
  292MOL0     C40170  10.408   2.232   8.568 -0.1602 -0.7730  0.1139
  292MOL0     C40171  10.386   2.084   8.545  0.8486  0.3489  0.9404
  292MOL0     C40172  10.283   2.048   8.433  0.0316 -0.1216 -0.6205
  292MOL0     C40173  10.339   1.920   8.364  0.2366  1.1927 -0.1638
  292MOL0     C40174  10.253   1.883   8.246 -0.2969  0.9230 -0.0079
  292MOL0     N40175  10.234   1.974   8.133 -0.2472  0.0351 -0.6206
  292MOL0     C40176  10.309   2.068   8.086 -0.6690 -0.6448  0.5102
  292MOL0     C40177  10.264   2.091   7.962  0.5946 -0.0360 -0.0280
  292MOL0     C40178  10.327   2.183   7.849 -0.2023  0.7238 -0.2186
  292MOL0     C40179  10.224   2.274   7.797  0.4900 -0.0069  1.0199
  292MOL0     C40180  10.277   2.328   7.667  0.2521  0.7521  0.5458
  292MOL0     C40181  10.188   2.428   7.594  0.6596 -1.3122 -0.4562
  292MOL0     O40182  10.190   2.552   7.677  0.4397 -0.3609 -0.2735
  292MOL0     C40183  10.120   2.663   7.636 -0.1185 -0.8275  0.7402
  292MOL0     C40184  10.116   2.771   7.722 -0.0827 -0.7144 -0.4964
  292MOL0     C40185  10.043   2.892   7.698 -0.7247 -0.1930 -1.2608
  292MOL0     C40186  10.032   2.994   7.810 -0.0921  0.5877  0.6369
  292MOL0     C40187   9.973   2.903   7.579  0.2045  0.0329  1.2675
  292MOL0     C40188   9.890   3.016   7.534  0.0318 -0.7242 -0.1111
  292MOL0     O40189   9.874   3.115   7.624 -0.6304  0.4977  0.0344
  292MOL0     C40190   9.771   3.213   7.601 -0.3569 -0.0593 -0.1858
  292MOL0     C40191   9.793   3.329   7.675  0.1045 -0.3767 -0.2291
  292MOL0     C40192   9.689   3.417   7.687  0.6515 -0.5315 -0.0602
  292MOL0     C40193   9.567   3.407   7.601 -0.1192  0.7046  0.2404
  292MOL0     O40194   9.477   3.504   7.591  0.4191 -0.8135 -0.2435
  292MOL0     C40195   9.470   3.594   7.699 -0.3591 -0.8062 -0.2540
  292MOL0     C40196   9.439   3.543   7.844  0.8386  0.4268  0.0265
  292MOL0     C40197   9.308   3.458   7.840  0.9046  0.0388 -0.6580
  292MOL0     C40198   9.273   3.398   7.977  0.0504  0.4699 -0.5534
  292MOL0     C40199   9.335   3.255   7.993 -0.7224  0.4285  0.1046
  292MOL0     C40200   9.351   3.206   8.142 -0.3032  0.0815 -0.0663
  292MOL0     C40201   9.468   3.289   8.213  0.3521 -0.6323 -0.7007
  292MOL0     C40202   9.505   3.243   8.354  0.9716  0.0060 -0.6170
  292MOL0    Cl40203   9.639   3.333   8.426 -0.4214  0.4081  0.2161
  292MOL0     C40204   9.554   3.291   7.524 -0.1105  0.2974 -0.1495
  292MOL0     C40205   9.651   3.183   7.544  0.0179  1.5119 -0.6653
  292MOL0     O40206   9.849   3.012   7.422  0.5440 -0.4981  0.6794
  292MOL0     C40207   9.980   2.790   7.492  0.6844  0.2793  0.4553
  292MOL0     C40208  10.052   2.675   7.520  0.2003  0.2071  0.6771
  292MOL0     N40209  10.150   2.025   7.939 -0.4035 -0.0255 -0.9540
  292MOL0     N40210  10.139   1.957   8.042 -0.5823  0.4583  0.0919
  292MOL0     C40211  10.142   2.346   9.063 -0.9128 -1.6167 -0.4166
  292MOL0     C40212  10.017   2.337   9.127 -0.5637 -0.5168  0.4944
  292MOL0     C40213   9.664   2.165   9.391 -0.8705  1.1091  0.5938
  292MOL0     C40214   9.629   2.170   9.523 -0.1127 -0.3110  1.1359
  292MOL0     C40215   9.494   2.157   9.567 -0.8478 -0.3668 -0.1290
  292MOL0     C40216   9.393   2.135   9.476  0.7107 -0.3635  0.4752
  292MOL0     O40217   9.267   2.139   9.528  0.1381 -0.4578 -0.1066
  292MOL0     C40218   9.160   2.130   9.437 -0.6498 -0.1958 -0.2325
  292MOL0     C40219   9.041   2.184   9.521  0.3106  0.1976 -0.2278
  292MOL0     C40220   9.037   2.335   9.556 -0.2086 -1.2097 -0.7030
  292MOL0     C40221   9.033   2.434   9.445 -0.6524  0.4712 -0.5777
  292MOL0     C40222   8.908   2.439   9.370 -0.6582  0.1096 -0.1908
  292MOL0     C40223   8.801   2.439   9.330  0.4663  0.7341  1.1923
  292MOL0     C40224   9.428   2.110   9.340  0.2990  0.0977  0.0303
  292MOL0     C40225   9.558   2.124   9.298 -0.0410  0.9396  0.2456
  292MOL0     C40226   9.581   2.085   9.150  0.0869 -0.3326  0.6774
  292MOL0     H40227  10.033   2.023   9.243  2.2318 -0.7543 -0.9593
  292MOL0     H40228  10.257   2.036   9.159  0.9798  0.8264 -0.8567
  292MOL0     H40229  10.468   2.256   8.849  0.5545  2.5232  0.2116
  292MOL0     H40230  10.392   2.406   8.870 -1.3328  0.3772 -1.0834
  292MOL0     H40231  10.266   2.153   8.772  1.7963  1.5549 -0.5690
  292MOL0     H40232  10.166   2.302   8.800 -1.2136 -0.4739  1.3616
  292MOL0     H40233  10.200   2.300   8.575 -0.4097  0.4253 -0.8446
  292MOL0     H40234  10.311   2.416   8.643  2.3757 -0.4494  5.0709
  292MOL0     H40235  10.441   2.276   8.473 -1.8761 -3.7946 -2.0618
  292MOL0     H40236  10.491   2.229   8.639  0.5994  1.3573 -0.6061
  292MOL0     H40237  10.359   2.034   8.638  1.3258 -2.5332 -0.3586
  292MOL0     H40238  10.481   2.052   8.501 -0.1504  2.9449 -3.8166
  292MOL0     H40239  10.185   2.038   8.481 -1.5048  4.2309 -2.3134
  292MOL0     H40240  10.282   2.127   8.358 -0.6418 -0.2801 -0.7854
  292MOL0     H40241  10.355   1.843   8.440  1.2894  2.5155  1.0251
  292MOL0     H40242  10.438   1.941   8.321 -0.2110  3.7079 -0.1388
  292MOL0     H40243  10.299   1.792   8.206 -2.2567 -0.6863  1.1800
  292MOL0     H40244  10.160   1.843   8.289  0.5301 -2.8900 -1.3534
  292MOL0     H40245  10.407   2.098   8.121  1.5151 -5.1115 -1.0216
  292MOL0     H40246  10.357   2.106   7.777 -2.0536 -0.9363  0.6601
  292MOL0     H40247  10.407   2.242   7.893 -0.9633  0.3737  1.7580
  292MOL0     H40248  10.128   2.228   7.773  0.5480  0.8551 -1.1140
  292MOL0     H40249  10.212   2.360   7.864  0.3932  1.3270 -0.6240
  292MOL0     H40250  10.381   2.361   7.672  0.3126  1.3351 -2.3856
  292MOL0     H40251  10.273   2.242   7.600 -1.2408  1.0148  0.2540
  292MOL0     H40252  10.226   2.455   7.495  0.6565  1.2283  0.1625
  292MOL0     H40253  10.086   2.390   7.590  2.1710 -5.8240 -2.1121
  292MOL0     H40254  10.172   2.755   7.813 -1.7436 -2.4507  0.3030
  292MOL0     H40255   9.927   2.994   7.841 -0.3395 -0.7094 -0.1063
  292MOL0     H40256  10.061   3.090   7.767  1.6676 -0.9449 -1.9080
  292MOL0     H40257  10.090   2.957   7.895 -0.6958  0.1726  0.8758
  292MOL0     H40258   9.882   3.341   7.735 -0.6154  1.3585  0.5878
  292MOL0     H40259   9.699   3.505   7.750 -4.2759  0.4081 -0.2216
  292MOL0     H40260   9.566   3.646   7.701 -0.6459 -0.2595  1.9894
  292MOL0     H40261   9.390   3.664   7.676  1.6191  1.6795  0.0042
  292MOL0     H40262   9.518   3.474   7.876 -1.1151 -2.4439 -0.9086
  292MOL0     H40263   9.435   3.628   7.912  0.0015  1.5769 -1.4098
  292MOL0     H40264   9.305   3.387   7.757  0.9701 -1.3331  0.4721
  292MOL0     H40265   9.233   3.533   7.811  1.9598  1.0137 -0.9212
  292MOL0     H40266   9.164   3.385   7.970  0.2944 -2.3133 -0.3205
  292MOL0     H40267   9.305   3.468   8.054 -0.6022  1.0055 -0.7628
  292MOL0     H40268   9.272   3.176   7.951 -0.1174  0.0304 -0.0722
  292MOL0     H40269   9.432   3.253   7.943 -0.9965 -1.8007 -0.4358
  292MOL0     H40270   9.384   3.102   8.138 -0.4221  0.0087  0.8130
  292MOL0     H40271   9.269   3.218   8.213  1.5541 -1.0691  2.4070
  292MOL0     H40272   9.436   3.394   8.218  2.5785  0.0916 -0.3427
  292MOL0     H40273   9.561   3.282   8.156 -0.1108 -3.5086 -1.2365
  292MOL0     H40274   9.548   3.144   8.338  2.3513  0.2070  1.5238
  292MOL0     H40275   9.415   3.241   8.417  1.6606 -0.0251  0.3733
  292MOL0     H40276   9.464   3.279   7.465 -0.4750 -0.7627  0.5694
  292MOL0     H40277   9.646   3.084   7.500  0.1598  0.9797  0.4669
  292MOL0     H40278   9.921   2.788   7.401  1.9131 -1.6241 -0.3531
  292MOL0     H40279  10.031   2.591   7.455 -2.5252  1.1835  0.1614
  292MOL0     H40280  10.177   2.435   9.012 -0.4964 -0.9183  1.0664
  292MOL0     H40281   9.942   2.414   9.117 -0.3601 -0.2443  0.9881
  292MOL0     H40282   9.706   2.182   9.599 -0.1417  0.2640  1.0823
  292MOL0     H40283   9.479   2.161   9.675  2.6370  1.9074  0.4610
  292MOL0     H40284   9.184   2.181   9.343  0.5615 -1.8190 -0.8378
  292MOL0     H40285   9.145   2.024   9.412  3.5997 -1.1872  0.6559
  292MOL0     H40286   9.040   2.120   9.610  1.8365  1.2508  0.5964
  292MOL0     H40287   8.947   2.164   9.468  1.2406  1.9571 -2.7343
  292MOL0     H40288   8.938   2.343   9.603  0.4606  0.5683  0.5050
  292MOL0     H40289   9.104   2.357   9.640 -4.6245  1.0626  2.6434
  292MOL0     H40290   9.118   2.422   9.377 -1.0147 -0.9330 -0.8123
  292MOL0     H40291   9.048   2.531   9.492 -2.4070 -0.5332  2.3596
  292MOL0     H40292   8.702   2.449   9.292  0.5823 -1.6947  0.0127
  292MOL0     H40293   9.356   2.079   9.266  1.9733  2.4420 -2.8100
  292MOL0     H40294   9.485   2.041   9.121 -1.0263  0.6118  2.7094
  292MOL0     H40295   9.613   2.169   9.088 -0.1697 -0.1604  0.7750
  292MOL0     H40296   9.654   2.004   9.146 -0.2291 -0.5588 -1.2725
  293MOL0     O40297   2.233   7.714   8.005  0.2626 -0.1367  0.4496
  293MOL0     C40298   2.173   7.663   7.916  0.2521 -0.8412  0.7454
  293MOL0     O40299   2.028   7.651   7.903  0.0139  0.0807 -0.5381
  293MOL0     C40300   1.952   7.697   8.010  0.0151  0.0190 -0.0091
  293MOL0     C40301   1.962   7.818   8.084  0.9107 -0.1055 -0.0922
  293MOL0     C40302   1.853   7.858   8.175 -0.0846 -0.3281  0.1016
  293MOL0     C40303   1.737   7.778   8.176 -0.0872 -0.2064 -0.0928
  293MOL0     O40304   1.636   7.836   8.251 -0.9612  0.0931  0.3263
  293MOL0     C40305   1.507   7.780   8.272 -0.0857  0.4277  0.1735
  293MOL0     C40306   1.399   7.777   8.160 -0.0335  0.2093  0.1565
  293MOL0     C40307   1.262   7.723   8.221 -0.1974 -0.3368 -0.4885
  293MOL0     C40308   1.206   7.820   8.323 -0.2831 -0.1494  0.8136
  293MOL0     C40309   1.234   7.784   8.467  0.1805 -0.2702 -0.5730
  293MOL0     C40310   1.116   7.821   8.560 -0.0416 -0.1820 -1.2136
  293MOL0     C40311   1.163   7.830   8.708 -0.0525  0.2716 -0.7983
  293MOL0     C40312   1.076   7.919   8.799 -0.0967  0.9385 -0.2754
  293MOL0     N40313   0.949   7.860   8.839  0.2138  0.0709 -0.6959
  293MOL0     C40314   0.828   7.870   8.781 -1.0760  0.3597 -0.1466
  293MOL0     C40315   0.741   7.805   8.860  0.5620  0.1573 -0.5714
  293MOL0     C40316   0.609   7.751   8.826 -0.5573  0.2313 -0.1990
  293MOL0     C40317   0.522   7.761   8.962  0.1012 -0.2845 -0.4632
  293MOL0     C40318   0.399   7.674   8.953  0.2603 -0.3727  0.1577
  293MOL0     C40319   0.334   7.614   9.088  0.8787 -0.4865  0.9261
  293MOL0     O40320   0.222   7.536   9.054 -0.3495  0.2332 -0.7525
  293MOL0     C40321   0.128   7.494   9.145 -0.4229 -0.2949 -0.0734
  293MOL0     C40322   0.023   7.411   9.089  0.3637 -0.3915 -0.3192
  293MOL0     C40323  -0.086   7.369   9.165 -0.3625 -0.4063 -0.3277
  293MOL0     C40324  -0.189   7.279   9.095  0.0287 -0.4505  0.0110
  293MOL0     C40325  -0.093   7.408   9.306  0.1335  0.4718 -0.2707
  293MOL0     C40326  -0.202   7.377   9.400 -0.3324 -0.5704 -0.8276
  293MOL0     O40327  -0.323   7.356   9.342  0.2267 -0.1036  0.2253
  293MOL0     C40328  -0.447   7.337   9.403  0.0870 -0.0453  1.5539
  293MOL0     C40329  -0.554   7.286   9.320  0.3162 -1.2714  0.0303
  293MOL0     C40330  -0.682   7.268   9.375 -0.3835  0.2399  1.1903
  293MOL0     C40331  -0.714   7.302   9.508  0.1088  0.4900  1.1286
  293MOL0     O40332  -0.843   7.281   9.545 -0.1935  0.5553  0.4470
  293MOL0     C40333  -0.879   7.304   9.681 -0.8373 -0.2107  0.2696
  293MOL0     C40334  -1.008   7.240   9.721  0.0559  0.4858  0.2493
  293MOL0     C40335  -1.116   7.342   9.672 -0.4176  0.0595  0.9304
  293MOL0     C40336  -1.259   7.313   9.719 -1.3091  0.0673  0.4031
  293MOL0     C40337  -1.308   7.176   9.703  0.5398  0.5153  0.1450
  293MOL0     C40338  -1.459   7.156   9.737 -0.4071  0.5890  1.1404
  293MOL0     C40339  -1.506   7.019   9.678  1.0137  1.0026  0.4377
  293MOL0     C40340  -1.616   6.962   9.779  0.2512  0.3398  0.1464
  293MOL0    Cl40341  -1.696   6.825   9.696 -0.3557 -0.2002 -0.4501
  293MOL0     C40342  -0.609   7.358   9.575  0.5072 -0.6405 -0.7187
  293MOL0     C40343  -0.480   7.370   9.522  0.0031 -0.7840 -0.7809
  293MOL0     O40344  -0.171   7.342   9.514 -0.2458  0.7570  0.3064
  293MOL0     C40345   0.024   7.474   9.363  0.5284 -0.5204  0.1442
  293MOL0     C40346   0.136   7.518   9.286  0.4681  0.9242 -0.2170
  293MOL0     N40347   0.806   7.754   8.959 -0.1280  0.2757 -0.0270
  293MOL0     N40348   0.927   7.782   8.954 -0.7384  0.4295  0.0429
  293MOL0     C40349   1.735   7.651   8.125  0.1725 -0.8396 -0.1709
  293MOL0     C40350   1.837   7.618   8.042  0.0464 -0.2495  0.0253
  293MOL0     C40351   2.261   7.615   7.811  0.5135 -0.5511  0.1549
  293MOL0     C40352   2.400   7.668   7.813 -0.3690 -0.3162  0.9154
  293MOL0     C40353   2.498   7.618   7.725 -0.4857  0.2908  0.4557
  293MOL0     C40354   2.453   7.535   7.621 -1.0384  0.3793  0.2338
  293MOL0     O40355   2.533   7.507   7.516 -1.0028  0.0767  0.3669
  293MOL0     C40356   2.675   7.541   7.514  0.1614 -0.2137 -0.2088
  293MOL0     C40357   2.765   7.435   7.581  0.3231 -0.3202 -0.6554
  293MOL0     C40358   2.777   7.308   7.494 -0.6017  0.1198 -0.2326
  293MOL0     C40359   2.836   7.197   7.581  0.2521  0.4835 -0.2339
  293MOL0     C40360   2.852   7.078   7.498 -0.2974  0.9828  0.0077
  293MOL0     C40361   2.859   6.973   7.434  0.4302 -0.4188  1.0123
  293MOL0     C40362   2.323   7.489   7.610 -0.3079 -0.3093  0.4841
  293MOL0     C40363   2.232   7.523   7.709 -0.0276  0.1039  0.1353
  293MOL0     C40364   2.091   7.467   7.682 -0.5511 -0.2288  0.0294
  293MOL0     H40365   2.051   7.880   8.078  0.9475 -0.1969 -0.5157
  293MOL0     H40366   1.854   7.951   8.231 -3.2994 -1.9016  3.1657
  293MOL0     H40367   1.473   7.832   8.362  0.9711  0.2324  0.6966
  293MOL0     H40368   1.532   7.676   8.291 -1.4198 -0.6756 -3.3334
  293MOL0     H40369   1.379   7.877   8.120  2.4938  1.5245  1.9231
  293MOL0     H40370   1.437   7.726   8.071  0.4532  0.1417  0.3999
  293MOL0     H40371   1.187   7.706   8.144 -1.0251  0.4092  0.1344
  293MOL0     H40372   1.269   7.622   8.262  1.7902  0.9841  2.8453
  293MOL0     H40373   1.237   7.924   8.314  0.1417 -0.4282 -2.1430
  293MOL0     H40374   1.101   7.830   8.291 -0.3344 -3.6021 -0.5523
  293MOL0     H40375   1.322   7.835   8.508 -1.0078  1.8054 -0.4397
  293MOL0     H40376   1.257   7.679   8.484 -0.2447 -0.6893 -2.3289
  293MOL0     H40377   1.088   7.924   8.535  0.4735  0.7441  1.6516
  293MOL0     H40378   1.028   7.760   8.536 -0.5201  0.8801 -2.2711
  293MOL0     H40379   1.264   7.872   8.715  0.1808 -0.3855 -0.0562
  293MOL0     H40380   1.154   7.725   8.737  0.0489 -0.0994 -2.0382
  293MOL0     H40381   1.135   7.943   8.888 -0.8526  2.2705 -0.1111
  293MOL0     H40382   1.058   8.009   8.739 -3.7158  1.0880  0.7656
  293MOL0     H40383   0.805   7.920   8.687 -4.2070 -0.2008  0.2123
  293MOL0     H40384   0.611   7.646   8.798  1.0967  0.2090 -0.0479
  293MOL0     H40385   0.572   7.815   8.745  1.7476  0.2188 -1.3379
  293MOL0     H40386   0.565   7.724   9.056 -2.4703 -1.9077  0.1912
  293MOL0     H40387   0.497   7.867   8.958  1.2612  0.1217  1.7512
  293MOL0     H40388   0.317   7.738   8.920 -0.7604 -0.7580  1.8289
  293MOL0     H40389   0.414   7.601   8.872  1.1470 -0.4556  0.3892
  293MOL0     H40390   0.407   7.548   9.135  2.5364 -1.4358 -2.6176
  293MOL0     H40391   0.308   7.693   9.159  0.8716  0.5284 -0.1735
  293MOL0     H40392   0.026   7.373   8.987 -1.4148 -1.4582 -0.0247
  293MOL0     H40393  -0.285   7.330   9.085  0.7095  0.7867 -0.4730
  293MOL0     H40394  -0.192   7.183   9.148  2.3691  0.9073  2.9123
  293MOL0     H40395  -0.152   7.267   8.992  0.9843  2.2107 -0.0512
  293MOL0     H40396  -0.536   7.254   9.218  3.0093 -2.5739  0.8398
  293MOL0     H40397  -0.755   7.225   9.308  1.4076 -0.0858 -0.6735
  293MOL0     H40398  -0.807   7.254   9.747  0.8498 -0.5537 -1.6988
  293MOL0     H40399  -0.857   7.406   9.714  1.9424 -1.0116  1.1645
  293MOL0     H40400  -1.015   7.145   9.667  0.2572  0.9686 -0.6520
  293MOL0     H40401  -1.008   7.224   9.829  0.7333 -1.3157  0.0077
  293MOL0     H40402  -1.120   7.332   9.563 -1.0435 -3.2856  1.1677
  293MOL0     H40403  -1.092   7.440   9.714 -1.2883  0.4922  0.4602
  293MOL0     H40404  -1.319   7.381   9.658 -2.9002 -2.7076 -1.3559
  293MOL0     H40405  -1.257   7.343   9.824  0.8013  0.4746  0.2890
  293MOL0     H40406  -1.297   7.151   9.596 -2.5700 -0.8400  0.0284
  293MOL0     H40407  -1.254   7.116   9.775  1.5417  1.0266 -0.1683
  293MOL0     H40408  -1.522   7.235   9.694  0.8505  1.4955  0.8977
  293MOL0     H40409  -1.460   7.160   9.846 -0.7051 -0.9626  1.2172
  293MOL0     H40410  -1.417   6.957   9.664 -0.5978 -0.6620 -4.4226
  293MOL0     H40411  -1.553   7.020   9.579  1.1439 -1.4678  0.2947
  293MOL0     H40412  -1.701   7.030   9.793  1.9213  2.0591  2.9689
  293MOL0     H40413  -1.579   6.927   9.876  3.5889 -1.1765 -1.5051
  293MOL0     H40414  -0.633   7.394   9.675 -1.5831  3.1638 -2.3685
  293MOL0     H40415  -0.399   7.405   9.586  0.7277 -0.2695 -1.9620
  293MOL0     H40416   0.019   7.494   9.469 -1.8049 -0.0744  0.0034
  293MOL0     H40417   0.221   7.564   9.335 -0.7018  3.1215 -0.1147
  293MOL0     H40418   1.641   7.596   8.123 -0.5036  0.2525  0.5545
  293MOL0     H40419   1.826   7.526   7.986  2.7812  0.8184 -2.5442
  293MOL0     H40420   2.437   7.734   7.891  3.1497  2.6016 -2.8291
  293MOL0     H40421   2.603   7.647   7.731 -0.5054  0.7210 -0.9581
  293MOL0     H40422   2.706   7.539   7.409  2.2499  3.6574  0.1548
  293MOL0     H40423   2.686   7.644   7.549  0.8787 -0.7359  1.1785
  293MOL0     H40424   2.725   7.415   7.681  0.2833  0.2370 -0.5554
  293MOL0     H40425   2.865   7.480   7.577  0.7605 -0.7919  2.5504
  293MOL0     H40426   2.679   7.279   7.456  0.4206 -0.8875 -2.2298
  293MOL0     H40427   2.840   7.325   7.407  0.3339 -1.0096  0.1886
  293MOL0     H40428   2.767   7.172   7.663 -0.7520 -1.6655 -1.6425
  293MOL0     H40429   2.934   7.229   7.617  0.6675  0.4377 -1.3071
  293MOL0     H40430   2.858   6.890   7.366 -3.0662 -1.0443  1.6051
  293MOL0     H40431   2.304   7.423   7.526  3.5999 -1.3382  0.2066
  293MOL0     H40432   2.067   7.400   7.765  0.7619 -1.0732 -0.2358
  293MOL0     H40433   2.017   7.548   7.677  2.5898  2.9594  0.9545
  293MOL0     H40434   2.072   7.408   7.592 -2.8384  0.3637  0.0603
  294MOL0     O40435   9.142   6.977   1.593  0.2531 -0.2895 -0.1572
  294MOL0     C40436   9.081   6.921   1.497  0.0354  0.2382 -0.4655
  294MOL0     O40437   9.021   6.793   1.507 -0.7023  0.3140 -0.1011
  294MOL0     C40438   9.002   6.738   1.629  0.4386  0.3163  0.4025
  294MOL0     C40439   9.041   6.613   1.643  0.7920 -0.6168  0.2805
  294MOL0     C40440   9.011   6.541   1.761 -0.0622  0.3199  0.0803
  294MOL0     C40441   8.949   6.603   1.872  0.4561 -1.0026 -0.6309
  294MOL0     O40442   8.903   6.539   1.980 -0.3340  0.7497 -0.2901
  294MOL0     C40443   8.854   6.394   1.965 -0.0101  0.5217 -0.8520
  294MOL0     C40444   8.970   6.302   2.014  0.5312  0.3747  0.5116
  294MOL0     C40445   8.925   6.153   2.013 -1.0610  0.2740  0.1109
  294MOL0     C40446   9.042   6.074   2.061 -0.0898  0.4860  0.5548
  294MOL0     C40447   9.061   6.071   2.217  0.3401  0.0287 -0.9310
  294MOL0     C40448   8.943   5.995   2.292  0.0501  0.0024 -0.3713
  294MOL0     C40449   8.958   5.984   2.443 -0.3501 -0.4249  0.5486
  294MOL0     C40450   8.857   5.888   2.504 -0.4867  0.5076 -0.6879
  294MOL0     N40451   8.879   5.881   2.659  0.0549  0.1427  0.2324
  294MOL0     C40452   8.954   5.788   2.732  0.6123  0.5141 -0.9069
  294MOL0     C40453   8.926   5.822   2.860  0.1638  0.7988 -0.0652
  294MOL0     C40454   8.970   5.752   2.978  0.2115 -0.2282 -0.7207
  294MOL0     C40455   9.125   5.721   2.981 -0.2242  0.0876  1.2156
  294MOL0     C40456   9.169   5.655   3.119 -0.2217  0.0985  1.0802
  294MOL0     C40457   9.232   5.750   3.221 -0.8103  0.0231 -0.4250
  294MOL0     O40458   9.153   5.871   3.257 -0.3760 -0.6495 -0.2850
  294MOL0     C40459   9.038   5.848   3.332 -0.3569 -0.0255 -0.7129
  294MOL0     C40460   9.017   5.741   3.422 -0.1755  0.7067 -0.4726
  294MOL0     C40461   8.896   5.705   3.501  0.3332  0.2522 -0.4835
  294MOL0     C40462   8.904   5.588   3.607  0.2180  0.0775  1.2315
  294MOL0     C40463   8.790   5.799   3.480 -0.4847  0.4845 -0.0681
  294MOL0     C40464   8.657   5.782   3.557  0.5223 -0.1721  0.5608
  294MOL0     O40465   8.570   5.882   3.547 -0.9848 -0.1395 -0.0744
  294MOL0     C40466   8.436   5.852   3.567 -0.4307 -1.2396 -0.4819
  294MOL0     C40467   8.350   5.963   3.591 -0.5803 -0.2943  0.2919
  294MOL0     C40468   8.208   5.940   3.595 -0.0609 -0.1465 -0.5356
  294MOL0     C40469   8.139   5.820   3.572 -1.1213  0.1874 -0.0437
  294MOL0     O40470   8.011   5.816   3.564  0.5312  0.8647  0.1414
  294MOL0     C40471   7.942   5.697   3.612 -0.0509 -0.3020  0.0055
  294MOL0     C40472   7.797   5.736   3.607 -0.2236  0.0130  0.6207
  294MOL0     C40473   7.751   5.842   3.719 -0.6409  0.6331  1.0669
  294MOL0     C40474   7.602   5.882   3.705  0.9129 -0.3343 -0.3879
  294MOL0     C40475   7.579   5.950   3.845 -0.6031  0.6032  0.0687
  294MOL0     C40476   7.444   6.012   3.861 -0.0518 -0.5333 -0.4190
  294MOL0     C40477   7.372   6.073   3.745 -1.1238  0.0911  0.2006
  294MOL0     C40478   7.222   6.090   3.792 -0.1419 -0.7187 -0.1025
  294MOL0    Cl40479   7.201   6.188   3.942  0.0699 -0.1634 -0.8271
  294MOL0     C40480   8.226   5.706   3.540 -0.0785 -0.2886 -0.4150
  294MOL0     C40481   8.373   5.730   3.543  0.2299 -0.3303  0.3105
  294MOL0     O40482   8.650   5.695   3.643 -0.0160  0.0624 -0.0659
  294MOL0     C40483   8.805   5.907   3.387 -0.8209 -0.2707 -0.5568
  294MOL0     C40484   8.930   5.934   3.318 -0.1496 -0.3069 -0.8660
  294MOL0     N40485   8.846   5.937   2.858  0.3637  0.0426 -0.0428
  294MOL0     N40486   8.829   5.980   2.741  0.8068  0.0691 -0.0838
  294MOL0     C40487   8.931   6.744   1.860  0.6113  0.4056  0.2449
  294MOL0     C40488   8.945   6.804   1.738 -0.1816  0.3119 -0.4982
  294MOL0     C40489   9.089   7.004   1.375 -0.6531 -0.3826  0.8524
  294MOL0     C40490   9.153   7.140   1.375 -0.6871  0.7137 -0.0240
  294MOL0     C40491   9.170   7.218   1.259  0.4391 -0.5540 -0.0208
  294MOL0     C40492   9.119   7.172   1.139  0.5050 -0.3442  0.2568
  294MOL0     O40493   9.133   7.249   1.021  0.4769 -0.1259  0.3204
  294MOL0     C40494   9.249   7.334   0.998 -1.3014 -0.3730  0.8397
  294MOL0     C40495   9.335   7.247   0.902 -0.2913  0.1732 -0.1124
  294MOL0     C40496   9.282   7.273   0.764  0.4005  0.1808 -0.2446
  294MOL0     C40497   9.341   7.182   0.657 -0.6140  0.6560 -0.1683
  294MOL0     C40498   9.472   7.225   0.619 -0.0367  0.3384 -0.7456
  294MOL0     C40499   9.588   7.259   0.593 -0.3060 -0.4759 -0.7717
  294MOL0     C40500   9.056   7.050   1.142 -0.2881  0.4356  1.1652
  294MOL0     C40501   9.047   6.958   1.246  0.3148 -0.2482  0.3854
  294MOL0     C40502   8.966   6.830   1.216 -0.7832 -0.0631  0.2274
  294MOL0     H40503   9.085   6.559   1.560 -0.2807 -3.4446  1.4253
  294MOL0     H40504   9.036   6.436   1.777 -1.2445  0.4749  3.8918
  294MOL0     H40505   8.822   6.384   1.861 -1.0021  1.3942 -0.6480
  294MOL0     H40506   8.761   6.387   2.022 -0.1249 -2.7315 -1.2853
  294MOL0     H40507   9.057   6.310   1.949 -1.8350  0.8589 -2.8936
  294MOL0     H40508   8.996   6.333   2.116 -1.5320  1.8586  0.6495
  294MOL0     H40509   8.831   6.147   2.069 -2.2046 -0.1965 -1.7594
  294MOL0     H40510   8.906   6.129   1.908  3.2878  0.1345 -0.8162
  294MOL0     H40511   9.031   5.970   2.027 -0.2039 -0.1406  2.3835
  294MOL0     H40512   9.131   6.115   2.012 -0.1908  1.2274  0.9784
  294MOL0     H40513   9.085   6.167   2.262 -3.6946  2.2542 -2.8988
  294MOL0     H40514   9.157   6.019   2.221  0.8542  0.8504 -2.0087
  294MOL0     H40515   8.851   6.047   2.266  0.1305 -0.4879 -1.7400
  294MOL0     H40516   8.944   5.889   2.265  0.8542 -0.4411  1.2771
  294MOL0     H40517   8.948   6.081   2.494 -0.3508  0.2383 -0.6740
  294MOL0     H40518   9.057   5.940   2.457 -0.5406 -1.7895 -2.0013
  294MOL0     H40519   8.756   5.921   2.479 -1.6406 -1.2581  1.2880
  294MOL0     H40520   8.871   5.786   2.467  3.0508  1.7299 -3.2605
  294MOL0     H40521   9.007   5.699   2.699  3.5824  0.9316  2.2110
  294MOL0     H40522   8.924   5.654   2.993 -0.6061  0.5967  3.0559
  294MOL0     H40523   8.940   5.820   3.058  2.1409  0.3969 -0.4812
  294MOL0     H40524   9.138   5.666   2.887 -0.2429 -0.2330  1.3974
  294MOL0     H40525   9.186   5.812   2.980  1.9286 -1.2638 -0.6424
  294MOL0     H40526   9.091   5.593   3.164 -2.1218  1.9929  0.5623
  294MOL0     H40527   9.239   5.579   3.083 -2.5707 -2.4816  1.6384
  294MOL0     H40528   9.278   5.698   3.306 -1.4285  2.1911  1.3290
  294MOL0     H40529   9.314   5.810   3.179  0.0572  0.5886  1.8902
  294MOL0     H40530   9.098   5.669   3.425 -2.6544 -2.3465 -1.5229
  294MOL0     H40531   8.866   5.618   3.705 -2.1257 -2.4687  1.2151
  294MOL0     H40532   9.004   5.545   3.613  0.8110  1.0748 -0.7353
  294MOL0     H40533   8.840   5.504   3.576 -0.9443  1.2340  0.3632
  294MOL0     H40534   8.399   6.059   3.599 -0.4483 -0.5450  3.3591
  294MOL0     H40535   8.150   6.025   3.630 -0.6462  0.3160 -2.4780
  294MOL0     H40536   7.956   5.606   3.553  1.5915 -1.6053  2.2488
  294MOL0     H40537   7.969   5.660   3.711 -3.1680  0.9372  1.4803
  294MOL0     H40538   7.774   5.768   3.505 -2.0133 -1.1526  0.5984
  294MOL0     H40539   7.746   5.641   3.625  0.0541  0.4244  4.6465
  294MOL0     H40540   7.812   5.932   3.706 -0.7280  0.3672 -1.9646
  294MOL0     H40541   7.762   5.796   3.817  0.6365 -1.4516  0.0148
  294MOL0     H40542   7.529   5.802   3.692 -0.8942  1.1935 -0.1821
  294MOL0     H40543   7.588   5.949   3.619 -0.6460  2.6828  2.0200
  294MOL0     H40544   7.586   5.871   3.921  7.8877 -0.3910 -0.8049
  294MOL0     H40545   7.662   6.016   3.868  2.2942 -2.5823 -0.4377
  294MOL0     H40546   7.462   6.085   3.940  0.5741 -2.7870  1.6623
  294MOL0     H40547   7.380   5.935   3.906  1.7375 -2.1434 -0.4726
  294MOL0     H40548   7.377   6.018   3.650  1.5279  0.1850  0.2062
  294MOL0     H40549   7.418   6.172   3.735  1.9765 -1.2263  0.0451
  294MOL0     H40550   7.167   5.996   3.802  0.6397 -1.1151  0.6273
  294MOL0     H40551   7.172   6.143   3.711  0.1800  1.3588  0.9811
  294MOL0     H40552   8.187   5.607   3.521  0.6162 -0.9826  1.5184
  294MOL0     H40553   8.444   5.653   3.514  0.3316  0.0420 -0.4463
  294MOL0     H40554   8.711   5.959   3.373 -1.4608 -1.7530 -2.1463
  294MOL0     H40555   8.939   6.017   3.248  2.1748 -0.3526 -0.7004
  294MOL0     H40556   8.899   6.808   1.942  0.2010  1.3334 -0.6116
  294MOL0     H40557   8.918   6.909   1.735 -1.6761 -0.0736 -1.7052
  294MOL0     H40558   9.195   7.169   1.471  0.1607 -1.1126  0.2006
  294MOL0     H40559   9.220   7.314   1.268  2.0091 -1.4653  1.4455
  294MOL0     H40560   9.232   7.434   0.957  1.6567  0.5829  1.7054
  294MOL0     H40561   9.301   7.346   1.093 -0.4385  0.5603  0.2699
  294MOL0     H40562   9.328   7.140   0.926  0.6619 -0.6158 -2.9136
  294MOL0     H40563   9.443   7.266   0.903  0.2063 -2.2560  1.4513
  294MOL0     H40564   9.174   7.258   0.755  0.4419 -1.0016  0.8521
  294MOL0     H40565   9.297   7.379   0.742 -2.5360  0.0763 -3.5760
  294MOL0     H40566   9.283   7.191   0.565  0.8043  0.0015 -1.1763
  294MOL0     H40567   9.327   7.076   0.681  1.3456  1.0983  3.8157
  294MOL0     H40568   9.688   7.286   0.569 -0.1000  0.1506  0.7127
  294MOL0     H40569   9.010   7.012   1.051  1.2649 -1.4209  1.0815
  294MOL0     H40570   8.905   6.847   1.126 -1.6758  4.2760  1.4611
  294MOL0     H40571   9.037   6.752   1.187 -0.2739 -0.2970  2.0119
  294MOL0     H40572   8.900   6.795   1.296 -1.0502 -0.6789 -0.2443
  295MOL0     O40573   2.911   6.553   7.363 -0.0803 -0.2797  0.2919
  295MOL0     C40574   2.883   6.622   7.265 -0.6128 -0.5211  0.0027
  295MOL0     O40575   2.759   6.656   7.224 -0.5812 -0.5760  0.1434
  295MOL0     C40576   2.651   6.593   7.275 -0.2944  1.1592  0.5904
  295MOL0     C40577   2.545   6.668   7.321  1.2535 -0.8001 -0.4709
  295MOL0     C40578   2.423   6.611   7.365  0.1390 -0.0443 -1.1241
  295MOL0     C40579   2.413   6.478   7.375 -0.0131  0.4008  0.1336
  295MOL0     O40580   2.294   6.430   7.413 -0.3127 -0.0286 -0.2990
  295MOL0     C40581   2.296   6.353   7.531 -0.2431  0.0871  0.8073
  295MOL0     C40582   2.344   6.416   7.664  0.3478  0.2943  0.6473
  295MOL0     C40583   2.306   6.319   7.777  0.2058 -1.0953  0.2210
  295MOL0     C40584   2.359   6.366   7.908 -0.2255  0.0047  0.5209
  295MOL0     C40585   2.314   6.265   8.011 -0.0895 -0.3987 -0.4575
  295MOL0     C40586   2.420   6.149   8.026  0.3155 -0.8827 -0.4948
  295MOL0     C40587   2.356   6.017   8.069 -0.2442  0.0295 -1.0114
  295MOL0     C40588   2.309   6.024   8.216  0.3775 -0.3342  0.2282
  295MOL0     N40589   2.436   6.035   8.293  0.0445  0.7294 -0.3955
  295MOL0     C40590   2.421   6.056   8.436 -0.1372 -0.6583 -0.0724
  295MOL0     C40591   2.549   6.032   8.479 -0.3364 -0.0746 -0.0289
  295MOL0     C40592   2.592   6.055   8.628 -0.2345 -0.0132  0.4107
  295MOL0     C40593   2.663   6.196   8.653  0.6458 -0.2538  0.9967
  295MOL0     C40594   2.628   6.241   8.795  0.2138 -0.6555 -0.1090
  295MOL0     C40595   2.713   6.159   8.893 -0.2177  0.7077  0.1063
  295MOL0     O40596   2.848   6.166   8.863  0.1318  0.1927 -0.2704
  295MOL0     C40597   2.925   6.067   8.932 -0.6785  0.2270  0.0941
  295MOL0     C40598   3.049   6.037   8.877 -0.1163  0.0614 -0.2965
  295MOL0     C40599   3.135   5.935   8.931 -0.4261 -0.0044 -0.2585
  295MOL0     C40600   3.258   5.910   8.849 -0.3653  0.8312 -0.4402
  295MOL0     C40601   3.098   5.860   9.057 -1.2309 -0.6613  0.1065
  295MOL0     C40602   3.167   5.744   9.111 -0.3329  1.3917  0.1904
  295MOL0     O40603   3.157   5.722   9.248 -0.0217 -0.0139  0.3679
  295MOL0     C40604   3.214   5.614   9.301  0.0201  0.0969  0.7653
  295MOL0     C40605   3.145   5.514   9.378 -0.6941  0.0650  0.7824
  295MOL0     C40606   3.219   5.409   9.436  0.3440 -0.0621  0.7497
  295MOL0     C40607   3.358   5.400   9.419  0.1333  0.4397 -0.7336
  295MOL0     O40608   3.426   5.294   9.474 -0.7365  0.0823  0.1366
  295MOL0     C40609   3.394   5.267   9.612 -0.3359 -0.0230  0.1716
  295MOL0     C40610   3.479   5.145   9.659  0.5607  0.1246  0.2697
  295MOL0     C40611   3.620   5.187   9.697  0.3761 -0.2711 -0.2612
  295MOL0     C40612   3.716   5.077   9.710  0.0835  0.5554 -0.4745
  295MOL0     C40613   3.851   5.124   9.770  0.2502  0.7797  0.5305
  295MOL0     C40614   3.944   5.001   9.765 -0.5384  0.9534  0.3440
  295MOL0     C40615   4.079   5.036   9.826 -0.3924 -0.5432 -0.3141
  295MOL0     C40616   4.182   4.919   9.797  0.8867 -0.1193  0.5744
  295MOL0    Cl40617   4.311   4.952   9.914 -0.0777  0.0177  0.0083
  295MOL0     C40618   3.420   5.490   9.332 -0.1522  0.5079 -0.2185
  295MOL0     C40619   3.345   5.594   9.273 -0.0264  0.7032 -0.3702
  295MOL0     O40620   3.195   5.660   9.026 -0.1958  0.3446 -0.1291
  295MOL0     C40621   2.982   5.912   9.117  0.1343  0.6748  0.5031
  295MOL0     C40622   2.895   6.006   9.055  0.5692  0.6113 -0.4968
  295MOL0     N40623   2.633   6.000   8.379  0.7138  0.8869 -0.5522
  295MOL0     N40624   2.566   6.002   8.266  0.0971  0.2592  0.2060
  295MOL0     C40625   2.514   6.404   7.312 -0.2854 -0.0522 -0.2267
  295MOL0     C40626   2.636   6.455   7.268  0.5977  0.6077  0.1706
  295MOL0     C40627   2.992   6.664   7.184 -1.0475 -1.4179 -0.3708
  295MOL0     C40628   2.968   6.668   7.055  0.0053  0.1463  0.6136
  295MOL0     C40629   3.065   6.697   6.961  0.5294 -0.2188  0.2030
  295MOL0     C40630   3.197   6.738   7.004 -0.2564 -0.2079 -0.4671
  295MOL0     O40631   3.305   6.768   6.919  0.0768  0.1335 -0.8691
  295MOL0     C40632   3.269   6.841   6.801 -0.7973 -0.1654 -0.2823
  295MOL0     C40633   3.386   6.925   6.755 -0.7702  0.2739  0.0128
  295MOL0     C40634   3.346   7.001   6.630  0.9058 -0.5212 -0.0791
  295MOL0     C40635   3.327   6.910   6.503 -0.2053 -0.1341 -0.7959
  295MOL0     C40636   3.288   6.980   6.381 -0.0425  0.3210 -0.2018
  295MOL0     C40637   3.254   7.030   6.276 -0.7414 -0.2439  0.2335
  295MOL0     C40638   3.223   6.722   7.142  0.3067 -0.4999  0.4421
  295MOL0     C40639   3.120   6.695   7.229  0.1759 -1.2462 -0.5568
  295MOL0     C40640   3.151   6.689   7.382 -0.0508  0.3957 -0.3015
  295MOL0     H40641   2.541   6.776   7.334 -1.6131 -1.0030  0.8650
  295MOL0     H40642   2.341   6.675   7.398  1.5443  2.5950 -2.4297
  295MOL0     H40643   2.357   6.269   7.498  0.5938  1.1413 -0.4384
  295MOL0     H40644   2.193   6.326   7.556 -1.3352  1.3648 -1.9524
  295MOL0     H40645   2.450   6.438   7.651 -0.1429  2.0886 -0.6701
  295MOL0     H40646   2.302   6.516   7.676  0.0573  0.1906  0.5082
  295MOL0     H40647   2.197   6.314   7.785  0.2220 -0.5514  0.8615
  295MOL0     H40648   2.336   6.216   7.756 -2.8462 -1.8766 -0.7821
  295MOL0     H40649   2.467   6.372   7.895  0.4549  0.1327  4.7391
  295MOL0     H40650   2.322   6.463   7.941 -2.1662 -0.6180  0.3370
  295MOL0     H40651   2.210   6.235   7.998 -1.6951  1.3387  5.2214
  295MOL0     H40652   2.309   6.307   8.112 -2.9589 -0.4539 -0.4940
  295MOL0     H40653   2.470   6.131   7.930  0.9410  0.1414 -0.3852
  295MOL0     H40654   2.507   6.173   8.089  0.5689 -2.3550 -0.2520
  295MOL0     H40655   2.429   5.937   8.059 -0.1673  0.0111 -0.3409
  295MOL0     H40656   2.267   5.990   8.010 -0.2086 -0.3192 -0.9047
  295MOL0     H40657   2.235   6.097   8.251  0.7866 -1.0313  2.7023
  295MOL0     H40658   2.263   5.925   8.231 -1.2712  0.5654  1.4773
  295MOL0     H40659   2.327   6.078   8.485 -1.0700 -1.2360 -1.5405
  295MOL0     H40660   2.669   5.981   8.652  0.8212  1.0489  0.4448
  295MOL0     H40661   2.501   6.048   8.688  0.8716 -2.5509  1.9478
  295MOL0     H40662   2.768   6.182   8.626  0.4028 -3.9935  1.5660
  295MOL0     H40663   2.618   6.275   8.592 -0.4773  0.3515  2.5448
  295MOL0     H40664   2.656   6.345   8.811 -0.9811  0.0586 -2.3382
  295MOL0     H40665   2.523   6.234   8.823  1.1512 -0.2811  4.4510
  295MOL0     H40666   2.710   6.187   8.998  2.1566 -3.1150  1.4188
  295MOL0     H40667   2.685   6.054   8.884  1.6634  0.1673  0.0576
  295MOL0     H40668   3.069   6.101   8.792 -1.1889  1.1196  0.2191
  295MOL0     H40669   3.283   5.804   8.838 -0.2307  0.8221 -0.0584
  295MOL0     H40670   3.341   5.957   8.901  1.1715  0.5958 -2.5370
  295MOL0     H40671   3.262   5.956   8.750  1.7441 -0.9967 -1.2816
  295MOL0     H40672   3.038   5.525   9.390 -0.6448 -0.2127  1.5343
  295MOL0     H40673   3.163   5.325   9.475  0.2843 -0.3646  0.0251
  295MOL0     H40674   3.418   5.346   9.683  1.9933  0.1223 -0.6863
  295MOL0     H40675   3.289   5.241   9.626 -1.0272  0.3105 -3.5025
  295MOL0     H40676   3.421   5.122   9.749  0.2352 -0.4384 -0.0784
  295MOL0     H40677   3.476   5.060   9.591 -0.5320 -0.2398  0.7421
  295MOL0     H40678   3.612   5.234   9.796 -1.1205 -2.8341  0.9594
  295MOL0     H40679   3.655   5.253   9.618 -2.4835  1.5718 -0.1333
  295MOL0     H40680   3.745   5.044   9.609  0.1591 -0.5377 -0.1134
  295MOL0     H40681   3.678   4.996   9.773 -2.0259  0.9908 -1.1056
  295MOL0     H40682   3.903   5.205   9.717  3.0672 -1.0932  0.2484
  295MOL0     H40683   3.841   5.153   9.876  2.6182  0.4329  0.8975
  295MOL0     H40684   3.956   4.967   9.662 -0.2177  0.7688  0.4410
  295MOL0     H40685   3.890   4.918   9.812  1.6852 -1.5383 -1.2244
  295MOL0     H40686   4.065   5.044   9.935  4.3103  1.2489  0.4021
  295MOL0     H40687   4.118   5.129   9.785 -1.8719  0.4472  0.4286
  295MOL0     H40688   4.207   4.914   9.691 -1.7934 -1.2644 -0.0814
  295MOL0     H40689   4.139   4.822   9.822  2.5975 -2.1758 -3.5579
  295MOL0     H40690   3.524   5.479   9.306 -0.0009  3.0942 -0.9722
  295MOL0     H40691   3.397   5.656   9.201  0.4877 -0.3885 -0.9583
  295MOL0     H40692   2.966   5.860   9.211  1.8249 -1.4641 -0.2888
  295MOL0     H40693   2.797   6.023   9.098 -0.2664 -1.2464 -1.5119
  295MOL0     H40694   2.516   6.297   7.298 -0.0329 -0.4063  2.0540
  295MOL0     H40695   2.710   6.383   7.233  0.3084  1.3681 -2.1835
  295MOL0     H40696   2.877   6.625   7.015  0.2996  3.1025 -4.0724
  295MOL0     H40697   3.026   6.693   6.859 -3.0941  0.6760  1.3812
  295MOL0     H40698   3.245   6.769   6.722  0.3979 -0.0991 -0.7231
  295MOL0     H40699   3.188   6.912   6.815  0.3031  1.4859 -1.8166
  295MOL0     H40700   3.475   6.862   6.751  1.3236  3.0923 -1.0049
  295MOL0     H40701   3.412   6.997   6.834 -2.1823  0.3447  0.4382
  295MOL0     H40702   3.257   7.063   6.647  0.4359 -1.2995  0.3742
  295MOL0     H40703   3.422   7.075   6.605 -2.2216  2.9981 -0.0790
  295MOL0     H40704   3.248   6.834   6.516  0.2406 -0.3260  1.2684
  295MOL0     H40705   3.417   6.849   6.493 -0.4815 -0.3641 -2.0632
  295MOL0     H40706   3.212   7.072   6.187 -1.0089  1.1752  1.0060
  295MOL0     H40707   3.329   6.736   7.163  1.0058  0.0603 -2.8239
  295MOL0     H40708   3.136   6.591   7.428  3.6095  0.5662  1.5908
  295MOL0     H40709   3.246   6.729   7.418 -0.2337  0.1902  0.4198
  295MOL0     H40710   3.068   6.750   7.421  0.7018  1.4900 -0.3604
  296MOL0     O40711   8.661   9.935  10.750  0.3779 -0.3276  0.5144
  296MOL0     C40712   8.579  10.023  10.771  0.3497  0.8041  0.3617
  296MOL0     O40713   8.577  10.096  10.891 -0.3496 -0.2570  0.4474
  296MOL0     C40714   8.609  10.038  11.013 -0.7667 -0.6597  0.2153
  296MOL0     C40715   8.651  10.132  11.115  0.6770 -0.6906 -0.4854
  296MOL0     C40716   8.706  10.085  11.232 -1.1507 -0.0510  0.2928
  296MOL0     C40717   8.714   9.946  11.250  0.3072  0.4215 -0.2250
  296MOL0     O40718   8.769   9.883  11.358 -0.4837  0.0884 -0.2138
  296MOL0     C40719   8.755   9.953  11.486  0.3533  0.6027 -0.3480
  296MOL0     C40720   8.612   9.943  11.546  0.0864  0.8904  0.5046
  296MOL0     C40721   8.578   9.795  11.565  0.3228 -0.0754 -0.5970
  296MOL0     C40722   8.480   9.786  11.689 -0.8732 -1.1650  0.0064
  296MOL0     C40723   8.454   9.643  11.737  0.0284 -0.2178 -0.2203
  296MOL0     C40724   8.577   9.587  11.823 -0.4098  0.9667  0.0766
  296MOL0     C40725   8.533   9.465  11.893  0.2624 -0.5265  0.7428
  296MOL0     C40726   8.645   9.371  11.933 -0.7744 -0.5185 -0.5673
  296MOL0     N40727   8.695   9.414  12.049 -0.2446 -0.5475 -0.7856
  296MOL0     C40728   8.783   9.518  12.057  0.0797  0.1425 -0.3717
  296MOL0     C40729   8.826   9.531  12.183 -0.2508 -0.2520  0.2796
  296MOL0     C40730   8.913   9.641  12.233 -0.6037  0.0029  0.2297
  296MOL0     C40731   9.039   9.571  12.279 -0.3172 -0.1057 -0.0469
  296MOL0     C40732   9.153   9.666  12.325  0.1554  0.1248  0.9188
  296MOL0     C40733   9.283   9.602  12.357 -1.1894  0.2452 -0.3670
  296MOL0     O40734   9.273   9.491  12.456 -0.3315 -0.6064  0.6879
  296MOL0     C40735   9.383   9.428  12.499  0.3129 -1.0499  0.6866
  296MOL0     C40736   9.499   9.498  12.527  0.2684  0.7140 -0.0242
  296MOL0     C40737   9.605   9.430  12.585 -0.1351 -0.4898 -0.4048
  296MOL0     C40738   9.731   9.512  12.619 -0.6952 -0.7077  0.3762
  296MOL0     C40739   9.597   9.292  12.607 -0.9621  0.1950 -0.2501
  296MOL0     C40740   9.706   9.221  12.687 -0.7608  0.2004 -0.1724
  296MOL0     O40741   9.668   9.127  12.776  0.4019  0.3226  0.5024
  296MOL0     C40742   9.770   9.082  12.863 -0.4495  0.4646  0.7608
  296MOL0     C40743   9.773   9.115  12.997  0.0954  0.1743 -0.2323
  296MOL0     C40744   9.849   9.046  13.090  0.7663 -0.5670 -0.1640
  296MOL0     C40745   9.934   8.946  13.043 -0.8837 -0.2092  0.1374
  296MOL0     O40746  10.004   8.878  13.133 -0.0523  0.7361 -0.0258
  296MOL0     C40747   9.972   8.743  13.160 -0.3338 -0.3746 -0.7248
  296MOL0     C40748   9.956   8.732  13.310  0.1213  0.4941 -0.0035
  296MOL0     C40749   9.887   8.604  13.334  0.1788 -0.7981 -0.0724
  296MOL0     C40750   9.995   8.492  13.345  0.5224  0.7928  0.3552
  296MOL0     C40751   9.926   8.364  13.393  0.8073  0.3622  0.2622
  296MOL0     C40752  10.032   8.255  13.440  0.5417  0.1635 -0.2563
  296MOL0     C40753   9.968   8.114  13.449  0.9093  0.0485  1.2490
  296MOL0     C40754  10.037   8.020  13.544 -0.9714 -0.3094 -0.4174
  296MOL0    Cl40755   9.983   8.068  13.711 -0.2672  0.2523  0.3754
  296MOL0     C40756   9.933   8.907  12.904  0.5359  0.0468 -0.0438
  296MOL0     C40757   9.849   8.976  12.814 -0.1603 -0.6229 -0.5715
  296MOL0     O40758   9.823   9.256  12.670  0.0344  0.2287  0.2447
  296MOL0     C40759   9.476   9.231  12.573 -0.6809  0.5033 -0.5585
  296MOL0     C40760   9.371   9.300  12.516 -0.1270 -0.2391  0.2295
  296MOL0     N40761   8.752   9.447  12.261  0.2419  0.8550  0.9212
  296MOL0     N40762   8.674   9.375  12.183 -0.1969 -0.5010  0.4774
  296MOL0     C40763   8.666   9.854  11.160 -0.7515 -0.0238  0.6246
  296MOL0     C40764   8.634   9.898  11.032  0.0915  0.5142 -0.1645
  296MOL0     C40765   8.485  10.060  10.660  0.1433 -0.4992 -0.2403
  296MOL0     C40766   8.418  10.181  10.670  0.3507 -0.5091 -0.1465
  296MOL0     C40767   8.314  10.223  10.587 -0.6087 -0.5751  0.1693
  296MOL0     C40768   8.270  10.135  10.489  0.5382  0.6508  0.1699
  296MOL0     O40769   8.156  10.180  10.415 -0.3195 -0.0092 -0.5389
  296MOL0     C40770   8.135  10.103  10.292 -0.1283 -0.0700 -0.6702
  296MOL0     C40771   8.039  10.171  10.191 -0.3309  0.4065 -0.6599
  296MOL0     C40772   7.895  10.191  10.243 -0.7112  0.3728 -0.2516
  296MOL0     C40773   7.801  10.081  10.223  0.4832  0.7625  1.0302
  296MOL0     C40774   7.783   9.980  10.323  0.3554 -0.3059 -1.5353
  296MOL0     C40775   7.795   9.895  10.412  0.0444  1.5797  0.1526
  296MOL0     C40776   8.331  10.014  10.479 -0.8919  0.0885 -0.4315
  296MOL0     C40777   8.433   9.973  10.568  0.3437  0.6163  0.1926
  296MOL0     C40778   8.476   9.825  10.548 -0.4507  0.0789  0.2884
  296MOL0     H40779   8.644  10.240  11.106 -1.7577 -0.9238 -2.4826
  296MOL0     H40780   8.726  10.159  11.309  1.8470  3.1181 -3.0918
  296MOL0     H40781   8.802  10.052  11.485  1.3544  0.1434  0.1273
  296MOL0     H40782   8.823   9.897  11.551 -0.9347 -2.0469 -1.1555
  296MOL0     H40783   8.614   9.993  11.643  0.9580  2.7827 -0.4358
  296MOL0     H40784   8.538   9.995  11.484  2.2657  3.2702 -0.2321
  296MOL0     H40785   8.514   9.771  11.479 -1.1906  4.4919 -1.0293
  296MOL0     H40786   8.663   9.729  11.583 -1.7801 -2.5951  0.8302
  296MOL0     H40787   8.516   9.837  11.778 -2.4260 -0.3698  0.2169
  296MOL0     H40788   8.387   9.837  11.660 -0.4120  0.7584  1.6924
  296MOL0     H40789   8.426   9.583  11.650 -3.1341  0.7031  0.0284
  296MOL0     H40790   8.369   9.655  11.805  1.9547  1.5239  2.0833
  296MOL0     H40791   8.662   9.569  11.757  0.6782  0.4392  1.5740
  296MOL0     H40792   8.615   9.654  11.901 -1.0125  2.1831 -0.6346
  296MOL0     H40793   8.475   9.410  11.818 -1.2388  1.0577  0.6780
  296MOL0     H40794   8.475   9.488  11.983  2.0479  0.2687  1.7373
  296MOL0     H40795   8.603   9.272  11.954  0.5289 -1.4673 -2.1031
  296MOL0     H40796   8.725   9.353  11.860  0.9884  0.8155  0.9586
  296MOL0     H40797   8.834   9.569  11.977  0.4910  0.8623  0.3315
  296MOL0     H40798   8.876   9.691  12.323 -3.1298 -2.5198  0.7452
  296MOL0     H40799   8.922   9.705  12.145  2.8909 -1.6685 -0.8164
  296MOL0     H40800   9.007   9.519  12.370 -0.1836  0.5917  0.3982
  296MOL0     H40801   9.080   9.496  12.210  1.0461  1.7735 -1.3907
  296MOL0     H40802   9.172   9.739  12.246  2.1539  0.6732  1.8523
  296MOL0     H40803   9.126   9.718  12.417  1.4232 -0.8375  1.8701
  296MOL0     H40804   9.315   9.563  12.260  0.2167 -1.2038  0.6491
  296MOL0     H40805   9.339   9.692  12.386  0.3406 -0.1231 -1.9675
  296MOL0     H40806   9.513   9.605  12.516 -1.0053  0.9786  0.7333
  296MOL0     H40807   9.727   9.618  12.593  1.3476 -1.1883 -2.2176
  296MOL0     H40808   9.811   9.469  12.559  1.0595 -0.2656  2.2843
  296MOL0     H40809   9.768   9.517  12.722 -2.6640  4.1440  1.1169
  296MOL0     H40810   9.696   9.188  13.024 -1.2040 -1.8891  2.0488
  296MOL0     H40811   9.841   9.054  13.198  0.7500 -4.8798  0.3138
  296MOL0     H40812   9.887   8.704  13.103 -1.3525  3.3976 -2.0754
  296MOL0     H40813  10.060   8.689  13.125  1.0293  0.3579  1.3454
  296MOL0     H40814  10.057   8.734  13.352  0.5744 -5.4088  0.0241
  296MOL0     H40815   9.892   8.811  13.350 -2.9371 -0.9527 -1.6702
  296MOL0     H40816   9.797   8.588  13.274 -0.8198  4.5052 -0.4005
  296MOL0     H40817   9.845   8.624  13.434 -2.0076  3.7336 -1.6331
  296MOL0     H40818  10.067   8.516  13.424 -0.0999  0.5981  0.9934
  296MOL0     H40819  10.052   8.481  13.252 -0.0912 -0.7200  0.1263
  296MOL0     H40820   9.871   8.390  13.484 -0.2575 -0.8589  0.0015
  296MOL0     H40821   9.857   8.316  13.324  3.1298 -0.1394 -1.8547
  296MOL0     H40822  10.065   8.296  13.535 -1.0260  2.1995 -0.5456
  296MOL0     H40823  10.114   8.258  13.367 -1.5694  1.3161 -2.7249
  296MOL0     H40824   9.964   8.060  13.354  0.4478 -2.1538  2.4320
  296MOL0     H40825   9.866   8.133  13.482  1.7408  1.8815  2.9343
  296MOL0     H40826  10.146   8.022  13.530 -0.7109  3.0318  1.0706
  296MOL0     H40827   9.992   7.924  13.516 -2.1812 -1.0228  3.4309
  296MOL0     H40828   9.999   8.829  12.869  1.1481 -0.0624  1.3091
  296MOL0     H40829   9.848   8.942  12.710  4.3247 -3.5895  0.0683
  296MOL0     H40830   9.477   9.123  12.584 -2.5114  0.3332 -1.6631
  296MOL0     H40831   9.284   9.243  12.486  0.7478 -1.1258 -0.6992
  296MOL0     H40832   8.684   9.752  11.192  2.7437  0.1632 -0.3091
  296MOL0     H40833   8.622   9.838  10.943  0.7480  1.2350 -0.7472
  296MOL0     H40834   8.426  10.234  10.765 -2.9655 -1.1277  0.6059
  296MOL0     H40835   8.275  10.324  10.602  3.3931  1.2172 -0.2357
  296MOL0     H40836   8.228  10.099  10.236  0.7687  1.3963  0.6221
  296MOL0     H40837   8.084  10.007  10.308  1.0171 -0.5198  0.4720
  296MOL0     H40838   8.034  10.108  10.101  1.8576 -3.2479  1.4959
  296MOL0     H40839   8.076  10.273  10.178 -3.0386  1.5504 -0.0465
  296MOL0     H40840   7.894  10.215  10.350  2.6606 -1.3773  0.3409
  296MOL0     H40841   7.862  10.280  10.188  0.8899  1.7722  0.9191
  296MOL0     H40842   7.826  10.024  10.133 -0.3614  3.0358 -0.7425
  296MOL0     H40843   7.702  10.126  10.215  0.4912  1.1531  2.6887
  296MOL0     H40844   7.823   9.813  10.475 -0.3215 -0.6494 -2.3927
  296MOL0     H40845   8.301   9.949  10.398 -1.8133  1.9816 -1.6960
  296MOL0     H40846   8.477   9.770  10.643  0.5289 -2.2100 -0.9509
  296MOL0     H40847   8.402   9.761  10.500 -1.4455 -0.7698  2.7737
  296MOL0     H40848   8.575   9.824  10.502  0.2379 -3.3201  1.5501
  297MOL0     O40849   9.432   3.838   2.563  0.4816  0.4161 -0.5575
  297MOL0     C40850   9.339   3.757   2.549 -0.3103 -0.3695  0.2436
  297MOL0     O40851   9.313   3.652   2.635  0.2707 -0.1321 -0.1132
  297MOL0     C40852   9.408   3.625   2.736  0.0302  0.8706  0.8387
  297MOL0     C40853   9.480   3.507   2.734  0.0057 -0.4487 -0.1383
  297MOL0     C40854   9.555   3.463   2.847 -0.1112  0.1937  0.9692
  297MOL0     C40855   9.583   3.558   2.939 -0.8182  0.1506 -0.9292
  297MOL0     O40856   9.656   3.515   3.054 -0.3498 -0.8523 -0.0283
  297MOL0     C40857   9.582   3.540   3.172  0.2609 -0.1224  0.1439
  297MOL0     C40858   9.622   3.440   3.278  0.1636  0.3036  0.7424
  297MOL0     C40859   9.570   3.308   3.233 -0.1976 -0.0893 -0.4550
  297MOL0     C40860   9.590   3.210   3.350 -0.3794  0.3001  0.2981
  297MOL0     C40861   9.527   3.068   3.319  0.1192  0.5028 -0.3486
  297MOL0     C40862   9.385   3.063   3.385 -0.2419 -0.2274  0.9253
  297MOL0     C40863   9.297   2.958   3.318  0.5727 -0.2131 -0.3160
  297MOL0     C40864   9.157   3.003   3.280 -0.1634  0.5969 -1.2068
  297MOL0     N40865   9.055   2.953   3.374 -0.1570 -0.1323 -0.1348
  297MOL0     C40866   9.051   2.971   3.510 -0.3592 -0.3216 -0.0067
  297MOL0     C40867   8.944   2.905   3.547  0.2159 -0.1590 -0.1807
  297MOL0     C40868   8.898   2.886   3.687  0.6369  0.1674  0.1259
  297MOL0     C40869   8.990   2.772   3.761 -0.1535  0.0390  0.1604
  297MOL0     C40870   8.911   2.683   3.871 -0.1377  0.4090 -0.0507
  297MOL0     C40871   9.023   2.619   3.959 -0.1535 -0.0187 -0.2829
  297MOL0     O40872   8.949   2.519   4.030  0.1728  0.0864  0.2331
  297MOL0     C40873   9.025   2.414   4.068 -0.0683  0.5810 -0.1528
  297MOL0     C40874   8.966   2.289   4.046  0.5182 -0.8207  0.3954
  297MOL0     C40875   9.019   2.168   4.076  0.8304  0.9538  0.1737
  297MOL0     C40876   8.943   2.042   4.030 -0.7729 -0.1763  0.3238
  297MOL0     C40877   9.142   2.159   4.143 -0.7289  0.1985 -0.4064
  297MOL0     C40878   9.225   2.041   4.171 -0.1442  0.1499 -0.3786
  297MOL0     O40879   9.183   1.923   4.117 -0.1029  0.6154 -0.1639
  297MOL0     C40880   9.222   1.809   4.170  0.6136 -0.4803  0.6333
  297MOL0     C40881   9.355   1.767   4.181 -0.9508 -0.7741 -0.2121
  297MOL0     C40882   9.388   1.643   4.232 -0.4920  0.4574 -0.5698
  297MOL0     C40883   9.292   1.550   4.268 -0.0840 -0.3925  0.6073
  297MOL0     O40884   9.320   1.431   4.326 -0.2729  0.3634 -0.2413
  297MOL0     C40885   9.377   1.445   4.459 -1.0349 -0.5318  0.9576
  297MOL0     C40886   9.330   1.342   4.558  0.5270  0.4946  0.5024
  297MOL0     C40887   9.367   1.197   4.518  0.3460 -0.7278  0.5786
  297MOL0     C40888   9.294   1.099   4.610  0.2136 -0.9616 -1.0595
  297MOL0     C40889   9.322   0.947   4.577 -0.0892 -0.1146  0.2822
  297MOL0     C40890   9.255   0.856   4.681 -0.8338  0.5063  0.1850
  297MOL0     C40891   9.102   0.860   4.696  0.6807 -0.3100 -0.4885
  297MOL0     C40892   9.035   0.749   4.790  0.9201 -0.0229  0.4020
  297MOL0    Cl40893   8.856   0.715   4.737  0.0347  0.4543 -0.3009
  297MOL0     C40894   9.156   1.588   4.254 -0.5195 -0.0773 -1.1300
  297MOL0     C40895   9.123   1.713   4.198 -0.3367 -0.1161  0.1818
  297MOL0     O40896   9.321   2.057   4.254  0.6376  0.3176  0.5071
  297MOL0     C40897   9.210   2.285   4.145 -0.1715 -1.0593 -0.7384
  297MOL0     C40898   9.153   2.415   4.124 -1.0188 -0.2614 -0.2376
  297MOL0     N40899   8.878   2.855   3.435 -0.0614  0.3448  0.4133
  297MOL0     N40900   8.951   2.896   3.329 -0.0912  0.7580 -0.7661
  297MOL0     C40901   9.523   3.683   2.932  0.2773  0.4157  0.8593
  297MOL0     C40902   9.431   3.714   2.836 -0.0310  0.0170 -0.3362
  297MOL0     C40903   9.260   3.759   2.429  1.6571 -0.5001 -0.3358
  297MOL0     C40904   9.132   3.679   2.437  1.0088 -0.7740 -0.0262
  297MOL0     C40905   9.047   3.666   2.332 -1.1465 -0.5274  0.1613
  297MOL0     C40906   9.075   3.724   2.211 -0.5806 -0.0646  0.3948
  297MOL0     O40907   8.979   3.711   2.121 -0.1473 -0.5220  0.5949
  297MOL0     C40908   8.907   3.841   2.095  0.6710 -0.4754 -0.5959
  297MOL0     C40909   8.780   3.807   2.033  1.2049 -0.0108  0.5027
  297MOL0     C40910   8.698   3.935   2.009 -0.0713 -0.3878 -0.3609
  297MOL0     C40911   8.758   4.041   1.917 -0.2250 -0.2445 -0.3398
  297MOL0     C40912   8.653   4.127   1.864 -0.5489  0.0363  0.4587
  297MOL0     C40913   8.556   4.180   1.817 -0.5393 -0.6249 -0.2791
  297MOL0     C40914   9.187   3.804   2.194  0.3988 -0.7715 -0.2685
  297MOL0     C40915   9.284   3.820   2.302 -0.3185  0.0599 -0.0692
  297MOL0     C40916   9.401   3.917   2.275  0.5448 -1.0237 -0.0038
  297MOL0     H40917   9.466   3.447   2.644 -1.3280  1.1276 -1.0521
  297MOL0     H40918   9.593   3.363   2.859  3.7760  1.4834  0.8496
  297MOL0     H40919   9.474   3.544   3.154  0.2690  0.5715  0.2477
  297MOL0     H40920   9.619   3.635   3.211  1.3478 -0.0772 -0.9308
  297MOL0     H40921   9.729   3.434   3.300 -0.1076  1.3780  2.5446
  297MOL0     H40922   9.567   3.474   3.366 -0.6172  1.6840 -0.2359
  297MOL0     H40923   9.468   3.315   3.193 -0.8102 -1.1149  0.8207
  297MOL0     H40924   9.632   3.278   3.149 -0.3490  2.2893 -1.4726
  297MOL0     H40925   9.694   3.188   3.376 -0.9197 -2.6422  0.3316
  297MOL0     H40926   9.545   3.248   3.443  1.5041 -3.2612  2.9276
  297MOL0     H40927   9.586   2.978   3.342 -0.0853 -0.2018 -2.3665
  297MOL0     H40928   9.521   3.068   3.210  0.1708 -2.3844 -0.4444
  297MOL0     H40929   9.422   3.043   3.486  4.8625 -1.6294 -0.9643
  297MOL0     H40930   9.333   3.160   3.382 -0.2687 -0.2444 -1.9550
  297MOL0     H40931   9.299   2.878   3.393  0.4207  0.1532  0.0817
  297MOL0     H40932   9.351   2.915   3.233  2.2993 -2.6130  1.8284
  297MOL0     H40933   9.157   3.112   3.269  4.9968  0.8384 -1.0476
  297MOL0     H40934   9.137   2.965   3.180 -0.9308 -0.6672 -0.6103
  297MOL0     H40935   9.128   3.025   3.564 -0.6995  2.6614 -2.2776
  297MOL0     H40936   8.791   2.861   3.687  0.4497  0.9424  0.0629
  297MOL0     H40937   8.906   2.976   3.748  2.1451 -1.3418  2.2908
  297MOL0     H40938   9.031   2.696   3.693  5.0416  1.8622  0.7942
  297MOL0     H40939   9.069   2.832   3.807 -2.7267  2.3595  1.8841
  297MOL0     H40940   8.829   2.735   3.922 -1.9235 -1.0544 -1.2599
  297MOL0     H40941   8.869   2.600   3.813 -0.9820  2.0571 -1.9527
  297MOL0     H40942   9.104   2.572   3.903  0.0234 -1.6548  1.2392
  297MOL0     H40943   9.072   2.692   4.024 -0.0455 -2.0006  2.0363
  297MOL0     H40944   8.872   2.290   3.992  0.0583 -2.7224  1.0538
  297MOL0     H40945   8.994   2.005   3.941  1.6516  1.9789  0.7063
  297MOL0     H40946   8.839   2.062   4.002 -1.0612 -0.3433  1.2368
  297MOL0     H40947   8.963   1.966   4.107  2.1277  0.9909  0.8248
  297MOL0     H40948   9.431   1.837   4.148 -0.6301 -0.8631  0.3181
  297MOL0     H40949   9.487   1.599   4.239  0.0916  1.9964  3.9879
  297MOL0     H40950   9.486   1.437   4.459 -1.0508 -1.2538  2.7492
  297MOL0     H40951   9.350   1.544   4.497 -0.1930 -0.2268  0.7901
  297MOL0     H40952   9.385   1.363   4.650  2.5374 -0.2269 -0.4786
  297MOL0     H40953   9.222   1.360   4.570  0.4676  1.0260 -0.7321
  297MOL0     H40954   9.475   1.184   4.507  1.0293  4.1929 -0.8217
  297MOL0     H40955   9.327   1.177   4.419  2.9686 -0.6934 -0.5766
  297MOL0     H40956   9.188   1.120   4.597 -0.1132  1.0141  3.1935
  297MOL0     H40957   9.308   1.115   4.717 -2.3790 -1.3235 -0.6021
  297MOL0     H40958   9.287   0.932   4.474 -1.6276 -0.1823  0.7918
  297MOL0     H40959   9.430   0.932   4.576  0.0004  0.4707  0.4857
  297MOL0     H40960   9.304   0.881   4.776 -1.2930  1.3241  0.2161
  297MOL0     H40961   9.286   0.752   4.665  1.2636  1.1015  0.1294
  297MOL0     H40962   9.064   0.842   4.595  1.8282 -3.1457 -0.5413
  297MOL0     H40963   9.077   0.960   4.732  1.7398 -0.4775  0.8389
  297MOL0     H40964   9.031   0.792   4.890  2.8808  0.0056  0.5195
  297MOL0     H40965   9.093   0.656   4.800  0.4787 -0.0515  3.9327
  297MOL0     H40966   9.077   1.524   4.291 -1.9218  1.4001 -1.4162
  297MOL0     H40967   9.020   1.745   4.196 -0.4679 -0.5610 -0.3251
  297MOL0     H40968   9.315   2.292   4.171 -0.5849  0.8665  0.6122
  297MOL0     H40969   9.217   2.501   4.143  0.5241 -1.6585  1.1372
  297MOL0     H40970   9.546   3.760   3.004 -1.9898  0.7383  1.3004
  297MOL0     H40971   9.389   3.814   2.837  0.1853  0.1281 -1.3269
  297MOL0     H40972   9.093   3.640   2.530 -2.2989  0.3581 -0.8185
  297MOL0     H40973   8.958   3.605   2.338 -0.2430 -2.2402 -2.1311
  297MOL0     H40974   8.895   3.903   2.184 -1.8199 -0.7394 -0.6520
  297MOL0     H40975   8.951   3.897   2.012 -1.5270 -0.3391 -1.7615
  297MOL0     H40976   8.730   3.745   2.108 -0.5334 -2.8425 -2.7159
  297MOL0     H40977   8.799   3.755   1.939 -0.2739 -0.5362  0.4718
  297MOL0     H40978   8.603   3.901   1.967 -2.1135  1.2735  2.5711
  297MOL0     H40979   8.675   3.985   2.103  1.4571  0.1660 -0.2452
  297MOL0     H40980   8.799   3.988   1.831 -2.2872  0.6851 -1.9976
  297MOL0     H40981   8.821   4.111   1.972 -1.0562 -0.3890  0.8305
  297MOL0     H40982   8.470   4.224   1.771 -0.5876  0.2826  0.6548
  297MOL0     H40983   9.212   3.860   2.104 -0.6154  1.4741  0.7613
  297MOL0     H40984   9.407   3.938   2.168 -1.2834 -1.3436 -0.2032
  297MOL0     H40985   9.389   4.012   2.328  0.6077 -0.1650 -1.4796
  297MOL0     H40986   9.492   3.880   2.323  1.8482  0.4789 -1.1774
  298MOL0     O40987  10.835  10.843   7.209  0.3987  0.1356  0.5649
  298MOL0     C40988  10.811  10.731   7.151 -0.8503 -0.8595  0.2308
  298MOL0     O40989  10.861  10.611   7.198 -0.2484 -0.1170  0.1924
  298MOL0     C40990  10.985  10.599   7.265  0.0434 -0.0290  0.2086
  298MOL0     C40991  11.054  10.481   7.236 -0.1734 -1.3956 -0.4215
  298MOL0     C40992  11.163  10.443   7.309 -0.1475  0.1736 -0.3494
  298MOL0     C40993  11.220  10.525   7.406 -0.1458 -0.8624  0.2561
  298MOL0     O40994  11.322  10.483   7.481 -0.2469  0.1108  0.5552
  298MOL0     C40995  11.442  10.464   7.400 -1.2945  0.3487 -0.3374
  298MOL0     C40996  11.558  10.504   7.491  0.4590 -0.1238  0.6510
  298MOL0     C40997  11.630  10.387   7.570 -0.1562  0.7004  0.7192
  298MOL0     C40998  11.550  10.345   7.702  0.0358  0.1620  0.1150
  298MOL0     C40999  11.581  10.442   7.814 -0.5856  0.1905 -0.8025
  298MOL0     C41000  11.525  10.384   7.951  0.1031  1.0838  0.3720
  298MOL0     C41001  11.576  10.464   8.072  0.0535 -0.5803 -0.4424
  298MOL0     C41002  11.496  10.413   8.190  0.0933  0.3434  0.6767
  298MOL0     N41003  11.540  10.474   8.317  0.2290  0.2975 -0.2819
  298MOL0     C41004  11.520  10.606   8.347 -0.1907  0.0852 -0.9222
  298MOL0     C41005  11.577  10.626   8.470 -0.3496 -0.0727 -0.0438
  298MOL0     C41006  11.593  10.756   8.543  0.4061 -0.1835  0.2992
  298MOL0     C41007  11.741  10.756   8.605  0.0635  0.3337 -0.0986
  298MOL0     C41008  11.837  10.774   8.490 -0.0823 -0.9319 -0.3054
  298MOL0     C41009  11.978  10.787   8.556 -0.2302 -0.3945 -0.0091
  298MOL0     O41010  12.005  10.905   8.642 -0.5481  0.2632  0.3047
  298MOL0     C41011  12.124  10.916   8.717  0.3113  0.5036 -0.2525
  298MOL0     C41012  12.160  11.048   8.755 -1.1372  0.7585  0.8216
  298MOL0     C41013  12.272  11.060   8.843  0.9560 -0.0431  0.4802
  298MOL0     C41014  12.331  11.202   8.854  0.0665 -0.0161  0.3876
  298MOL0     C41015  12.335  10.951   8.904 -0.1879  0.7473  0.3813
  298MOL0     C41016  12.452  10.964   8.999 -0.0799 -0.7023  0.7053
  298MOL0     O41017  12.443  11.068   9.084  0.1684 -0.3462  0.0623
  298MOL0     C41018  12.557  11.083   9.161  0.3247  0.4031  0.7039
  298MOL0     C41019  12.643  11.186   9.128  0.8664 -1.1792  0.8472
  298MOL0     C41020  12.762  11.201   9.201  0.3845 -0.4387  0.0314
  298MOL0     C41021  12.787  11.115   9.307 -0.3356 -2.0264 -0.2733
  298MOL0     O41022  12.916  11.126   9.361 -0.0357  0.0445  0.4091
  298MOL0     C41023  12.941  11.064   9.482 -0.0161  0.4024  0.1888
  298MOL0     C41024  13.082  11.100   9.546  0.5612 -0.3409  0.0593
  298MOL0     C41025  13.080  11.062   9.699  0.2188  0.3154  0.2899
  298MOL0     C41026  13.227  11.078   9.760  0.1001 -1.3241  0.8215
  298MOL0     C41027  13.238  11.138   9.900  0.6690  0.7656  0.3360
  298MOL0     C41028  13.378  11.147   9.958  0.5130  1.2943  0.8637
  298MOL0     C41029  13.374  11.237  10.087 -0.2514  0.4613  0.1907
  298MOL0     C41030  13.517  11.255  10.143 -0.1191 -0.0011 -1.4780
  298MOL0    Cl41031  13.620  11.336  10.026  0.3101  0.2280  0.0176
  298MOL0     C41032  12.701  11.011   9.337  0.4365  0.7218 -0.0778
  298MOL0     C41033  12.591  10.990   9.262  0.3188  0.1692 -0.0466
  298MOL0     O41034  12.534  10.873   9.005 -0.1443 -0.3061  0.4640
  298MOL0     C41035  12.292  10.817   8.873 -0.1564 -0.2352 -0.4582
  298MOL0     C41036  12.180  10.805   8.783 -0.3384 -0.4716 -0.7055
  298MOL0     N41037  11.606  10.489   8.512  0.2895 -0.7814  0.7325
  298MOL0     N41038  11.590  10.407   8.423  0.1956 -0.4048  0.1986
  298MOL0     C41039  11.153  10.657   7.424 -1.0526 -0.0164 -0.8346
  298MOL0     C41040  11.032  10.690   7.364 -0.5759  0.4883  0.9250
  298MOL0     C41041  10.729  10.729   7.019 -0.7931  0.3971  0.3556
  298MOL0     C41042  10.645  10.843   7.003  0.0800  0.4484 -0.4773
  298MOL0     C41043  10.556  10.849   6.893 -0.4227 -0.5918  0.2766
  298MOL0     C41044  10.545  10.738   6.812  0.0057  0.2411 -0.3759
  298MOL0     O41045  10.454  10.728   6.708  0.1431  0.3619 -1.0307
  298MOL0     C41046  10.315  10.733   6.726 -0.0530  0.1925  0.0962
  298MOL0     C41047  10.226  10.700   6.607  0.5872  0.1309  0.2603
  298MOL0     C41048  10.197  10.830   6.517  0.0654 -1.5399  0.0575
  298MOL0     C41049  10.076  10.815   6.424 -0.1988 -0.1849 -0.5027
  298MOL0     C41050  10.066  10.689   6.350  0.9908 -0.3436 -0.1288
  298MOL0     C41051  10.069  10.602   6.269 -0.7778 -0.0995 -1.0147
  298MOL0     C41052  10.630  10.628   6.825  0.8476  0.1263 -0.9795
  298MOL0     C41053  10.724  10.621   6.926 -0.1008  0.6032 -0.7545
  298MOL0     C41054  10.822  10.509   6.924 -0.7138  0.5453  0.2166
  298MOL0     H41055  11.016  10.407   7.166  1.9236 -1.9563 -1.0445
  298MOL0     H41056  11.199  10.341   7.300 -1.6177 -0.4306  0.2299
  298MOL0     H41057  11.439  10.514   7.303 -0.1758 -0.5375 -0.8546
  298MOL0     H41058  11.452  10.357   7.379 -0.4423  0.3368  0.0806
  298MOL0     H41059  11.639  10.551   7.436 -0.0011 -0.9003 -0.7443
  298MOL0     H41060  11.521  10.578   7.562  1.9517 -0.6611  2.0555
  298MOL0     H41061  11.636  10.310   7.493 -0.3253  0.4201  0.9806
  298MOL0     H41062  11.730  10.414   7.604 -0.8502 -0.5594  4.1960
  298MOL0     H41063  11.441  10.346   7.688  0.0410 -1.1431 -0.1652
  298MOL0     H41064  11.580  10.243   7.729  2.5329  0.6369 -0.6190
  298MOL0     H41065  11.535  10.539   7.797 -0.3419  0.2139 -1.3401
  298MOL0     H41066  11.689  10.458   7.826 -1.0234  2.4866  0.7129
  298MOL0     H41067  11.416  10.386   7.952 -0.1242 -2.7391  2.0387
  298MOL0     H41068  11.549  10.277   7.961 -1.0125  0.9238  1.5955
  298MOL0     H41069  11.554  10.570   8.057  2.7651  0.7596  3.4346
  298MOL0     H41070  11.683  10.448   8.092  0.6456  1.2267 -1.8427
  298MOL0     H41071  11.390  10.434   8.171  0.4028  0.5580 -0.9310
  298MOL0     H41072  11.496  10.304   8.191 -0.4334  0.2701 -1.7267
  298MOL0     H41073  11.470  10.688   8.296 -0.3633  1.0472  0.7005
  298MOL0     H41074  11.510  10.785   8.608  2.0648  2.3061  1.4832
  298MOL0     H41075  11.597  10.828   8.461  1.4213 -1.2590 -0.6397
  298MOL0     H41076  11.754  10.842   8.671  4.7074 -0.8476  0.8778
  298MOL0     H41077  11.757  10.661   8.656 -0.5542 -0.7521 -1.8305
  298MOL0     H41078  11.852  10.690   8.422  1.2842  0.5875 -2.0078
  298MOL0     H41079  11.810  10.868   8.439  3.0804  1.2154  1.6181
  298MOL0     H41080  11.989  10.700   8.621 -0.5500  1.5010  2.7369
  298MOL0     H41081  12.054  10.771   8.479 -1.6451 -2.2724 -1.1024
  298MOL0     H41082  12.116  11.132   8.702 -1.6765 -0.5608 -0.8940
  298MOL0     H41083  12.299  11.237   8.953 -2.0691  2.5659 -1.0583
  298MOL0     H41084  12.289  11.283   8.792  0.7917 -0.6118 -0.9296
  298MOL0     H41085  12.439  11.198   8.840 -0.0901  0.1300 -1.0782
  298MOL0     H41086  12.608  11.245   9.044  3.1763 -0.5051  0.2886
  298MOL0     H41087  12.827  11.279   9.162  0.7183 -0.1199  1.1738
  298MOL0     H41088  12.864  11.104   9.549 -2.8262 -2.6275 -0.9467
  298MOL0     H41089  12.932  10.955   9.485 -1.6862  0.5094  1.9692
  298MOL0     H41090  13.160  11.042   9.496  0.7810 -0.0577  0.0713
  298MOL0     H41091  13.097  11.208   9.546  0.8819 -0.2953  3.1710
  298MOL0     H41092  13.060  10.956   9.717  2.3713  0.1977  2.4514
  298MOL0     H41093  13.013  11.124   9.761 -1.2707 -0.9985  0.0533
  298MOL0     H41094  13.281  11.144   9.691 -2.6738 -0.5325 -0.7528
  298MOL0     H41095  13.276  10.980   9.759  0.0178 -1.3842 -0.8195
  298MOL0     H41096  13.197  11.239   9.899  0.4632  0.6813  0.1632
  298MOL0     H41097  13.175  11.077   9.966  0.7396 -2.0764 -2.0151
  298MOL0     H41098  13.440  11.187   9.877 -0.8671 -2.0400 -2.1340
  298MOL0     H41099  13.411  11.044   9.978 -0.1240  0.8304 -0.3782
  298MOL0     H41100  13.304  11.190  10.157  3.3169 -3.0107  1.7936
  298MOL0     H41101  13.346  11.338  10.055 -0.1732  0.6065  0.5754
  298MOL0     H41102  13.564  11.157  10.158  1.9873  0.6449 -3.3431
  298MOL0     H41103  13.525  11.305  10.240 -0.4976 -0.7696 -1.0455
  298MOL0     H41104  12.723  10.950   9.425 -1.0403  3.5405  2.4448
  298MOL0     H41105  12.538  10.897   9.279  1.8430 -1.0433 -1.5936
  298MOL0     H41106  12.336  10.730   8.920  2.5104  2.2160  1.9373
  298MOL0     H41107  12.136  10.709   8.760 -1.6703 -0.1243  0.2827
  298MOL0     H41108  11.205  10.716   7.499 -2.7226  0.8381 -0.2989
  298MOL0     H41109  10.981  10.781   7.394 -0.0676  0.9500  0.4287
  298MOL0     H41110  10.650  10.930   7.067  2.4689  0.1569 -0.1793
  298MOL0     H41111  10.486  10.931   6.878 -1.7580 -1.3320  2.2332
  298MOL0     H41112  10.288  10.650   6.793 -0.9198 -2.0483 -2.7994
  298MOL0     H41113  10.284  10.825   6.777 -1.3240  0.2350 -0.7042
  298MOL0     H41114  10.128  10.659   6.634  1.8363 -0.8611  3.7119
  298MOL0     H41115  10.278  10.633   6.538  4.6766  3.5011 -0.3575
  298MOL0     H41116  10.183  10.915   6.583  2.0853 -1.0547 -0.0711
  298MOL0     H41117  10.287  10.842   6.456  0.8146  0.9102  1.5173
  298MOL0     H41118  10.065  10.903   6.361  2.6361  0.0653 -0.7682
  298MOL0     H41119   9.984  10.818   6.484  0.4813  0.5280  0.5429
  298MOL0     H41120  10.046  10.524   6.198 -1.1770  0.9158 -2.0278
  298MOL0     H41121  10.621  10.535   6.769  0.7035 -2.3341  2.7636
  298MOL0     H41122  10.780  10.423   6.978 -1.3016 -0.7308 -2.1394
  298MOL0     H41123  10.847  10.478   6.822  0.9278  2.2774  0.0440
  298MOL0     H41124  10.915  10.530   6.977 -1.3137  0.6228  1.2829
  299MOL0     O41125  10.801   1.867   1.243 -0.6883 -0.8452 -0.3816
  299MOL0     C41126  10.860   1.758   1.240 -0.7391 -0.6411  0.1859
  299MOL0     O41127  10.997   1.750   1.245  0.1995 -0.4922 -0.6534
  299MOL0     C41128  11.054   1.871   1.298 -0.2778  0.9652  0.5544
  299MOL0     C41129  11.070   1.878   1.438  0.8086 -0.4482 -0.1491
  299MOL0     C41130  11.119   1.990   1.501  0.6189  0.6909 -0.0044
  299MOL0     C41131  11.162   2.096   1.414  1.1593 -1.2060  0.3168
  299MOL0     O41132  11.196   2.219   1.468  0.8761  0.3266 -0.3009
  299MOL0     C41133  11.179   2.241   1.615 -0.4256 -0.5754  0.2785
  299MOL0     C41134  11.237   2.381   1.658  0.2824  0.0712 -0.6813
  299MOL0     C41135  11.162   2.497   1.599 -0.0223 -0.7812  1.0052
  299MOL0     C41136  11.248   2.630   1.605 -0.0396 -0.1867 -0.7744
  299MOL0     C41137  11.182   2.762   1.560  0.3024  0.0609  0.0408
  299MOL0     C41138  11.266   2.891   1.582 -0.0913 -0.3805 -0.4643
  299MOL0     C41139  11.196   3.021   1.546  0.2840 -0.5743 -0.4542
  299MOL0     C41140  11.292   3.140   1.560 -0.6316 -0.1068  0.8533
  299MOL0     N41141  11.228   3.270   1.569  0.2877 -0.7286  0.0088
  299MOL0     C41142  11.125   3.299   1.655  0.0887  0.3489 -0.2573
  299MOL0     C41143  11.072   3.415   1.616 -0.4339  0.7906 -1.0117
  299MOL0     C41144  10.947   3.484   1.663  0.3780 -0.3554  0.3384
  299MOL0     C41145  10.972   3.541   1.804  0.2404 -0.2774  0.3799
  299MOL0     C41146  10.861   3.640   1.844  0.4305 -0.9382 -0.5185
  299MOL0     C41147  10.714   3.588   1.850 -0.3211  0.2288 -0.4276
  299MOL0     O41148  10.703   3.490   1.952  0.2824  0.4429 -0.1576
  299MOL0     C41149  10.574   3.447   1.981 -1.3645  0.1662  0.1946
  299MOL0     C41150  10.566   3.375   2.094 -0.6856 -0.3463  0.2941
  299MOL0     C41151  10.441   3.335   2.145 -0.0467  0.6905  0.6680
  299MOL0     C41152  10.444   3.247   2.266  0.2317  0.1723  0.2165
  299MOL0     C41153  10.319   3.364   2.073 -0.1893 -0.2281 -0.2200
  299MOL0     C41154  10.176   3.328   2.121  0.5882 -1.0402  0.7803
  299MOL0     O41155  10.081   3.420   2.097 -0.3472  0.0172 -0.0700
  299MOL0     C41156   9.947   3.389   2.110  1.2894  0.1659  0.0416
  299MOL0     C41157   9.893   3.277   2.035 -0.0852 -1.4128 -0.3195
  299MOL0     C41158   9.764   3.224   2.066 -0.6127 -0.2826  0.0713
  299MOL0     C41159   9.682   3.284   2.156 -0.5182 -0.0762 -0.5369
  299MOL0     O41160   9.559   3.235   2.177  0.9150  0.1518 -0.8779
  299MOL0     C41161   9.455   3.315   2.250  0.7213  0.2346  0.6952
  299MOL0     C41162   9.323   3.254   2.225 -0.1308  0.1921 -0.5980
  299MOL0     C41163   9.284   3.239   2.074  0.1117  0.1386  0.2836
  299MOL0     C41164   9.285   3.369   1.999  1.1754  0.3528 -0.7531
  299MOL0     C41165   9.216   3.355   1.860  0.0590 -0.0467 -0.8943
  299MOL0     C41166   9.164   3.480   1.789  0.1189 -0.2605 -0.2260
  299MOL0     C41167   9.255   3.591   1.748 -0.5371  0.4167 -0.0091
  299MOL0     C41168   9.180   3.721   1.710 -1.1819  0.1007  0.8137
  299MOL0    Cl41169   9.047   3.712   1.570  0.0180 -0.4361 -0.6885
  299MOL0     C41170   9.732   3.381   2.239 -0.0081  0.3226 -0.1755
  299MOL0     C41171   9.862   3.434   2.212  0.0177 -0.1329  1.1282
  299MOL0     O41172  10.164   3.223   2.186  0.0388 -0.6247 -0.0088
  299MOL0     C41173  10.333   3.433   1.953  0.0351  0.6341 -0.5009
  299MOL0     C41174  10.456   3.478   1.911  0.1593  0.1217 -0.4392
  299MOL0     N41175  11.155   3.462   1.524  0.3020  0.1060 -0.0222
  299MOL0     N41176  11.237   3.375   1.491 -0.2499  0.3973  0.6356
  299MOL0     C41177  11.145   2.085   1.278  0.1472  0.2133 -0.1468
  299MOL0     C41178  11.094   1.967   1.216 -0.9183 -0.4161  0.6369
  299MOL0     C41179  10.778   1.644   1.222 -0.6142 -0.1585 -0.0526
  299MOL0     C41180  10.636   1.657   1.207 -0.3566  0.3122  0.9109
  299MOL0     C41181  10.547   1.553   1.191 -0.1316 -1.0447 -0.3718
  299MOL0     C41182  10.601   1.422   1.207  0.7914 -0.3739 -1.1103
  299MOL0     O41183  10.538   1.301   1.215 -0.2023 -0.0844 -0.5555
  299MOL0     C41184  10.396   1.305   1.211  0.7745  0.8677 -0.5157
  299MOL0     C41185  10.349   1.161   1.199 -0.3297  0.3778 -0.4998
  299MOL0     C41186  10.383   1.100   1.058  0.1193  0.5260 -0.3397
  299MOL0     C41187  10.342   0.957   1.028  0.4532  0.0783 -0.1430
  299MOL0     C41188  10.367   0.926   0.886  0.3038 -0.7135  0.4271
  299MOL0     C41189  10.400   0.909   0.771  0.4421  0.4023  0.8300
  299MOL0     C41190  10.736   1.403   1.199 -1.9072 -0.3934  0.4268
  299MOL0     C41191  10.823   1.506   1.220  0.0161  0.1868  0.8354
  299MOL0     C41192  10.978   1.475   1.212 -0.1231 -0.0380 -0.2599
  299MOL0     H41193  11.038   1.796   1.502 -1.5916 -0.1689 -0.8846
  299MOL0     H41194  11.144   2.000   1.606 -3.2670  1.2108  1.0369
  299MOL0     H41195  11.241   2.167   1.666  4.8660  0.6448 -3.4769
  299MOL0     H41196  11.078   2.244   1.658  0.3121 -0.8367  2.1197
  299MOL0     H41197  11.231   2.393   1.767 -0.3964 -0.9329 -0.6018
  299MOL0     H41198  11.342   2.392   1.628 -0.1807  1.0260 -2.0643
  299MOL0     H41199  11.129   2.470   1.498 -0.2219 -0.8388  1.0857
  299MOL0     H41200  11.071   2.510   1.658  0.6406 -1.7970  2.3014
  299MOL0     H41201  11.281   2.643   1.709 -1.2756 -0.0696 -0.3811
  299MOL0     H41202  11.342   2.618   1.549 -0.3347 -1.4647 -1.0265
  299MOL0     H41203  11.085   2.761   1.612 -0.4611 -1.9753 -1.2937
  299MOL0     H41204  11.157   2.748   1.454  3.3321 -2.1515 -0.5105
  299MOL0     H41205  11.276   2.888   1.691  0.5900 -4.2311 -0.4941
  299MOL0     H41206  11.359   2.873   1.527  0.5598 -0.5437  0.6531
  299MOL0     H41207  11.108   3.039   1.608 -1.7099 -1.2786 -2.8841
  299MOL0     H41208  11.146   3.010   1.449 -2.9669  0.2915  0.9719
  299MOL0     H41209  11.341   3.121   1.656 -1.6765  0.1329  1.4404
  299MOL0     H41210  11.369   3.134   1.482 -0.1507  2.7828  1.0175
  299MOL0     H41211  11.081   3.228   1.725  0.0091  0.1397 -0.5150
  299MOL0     H41212  10.864   3.413   1.673 -1.1138  1.2281 -0.1730
  299MOL0     H41213  10.909   3.556   1.589  0.1265 -0.7536  0.0762
  299MOL0     H41214  10.979   3.461   1.878 -0.1975 -1.5379 -0.8871
  299MOL0     H41215  11.066   3.595   1.796  0.5920 -1.0661 -1.2956
  299MOL0     H41216  10.884   3.680   1.943 -1.7850 -5.8170  2.3570
  299MOL0     H41217  10.866   3.721   1.771  1.0919 -0.0906  0.4383
  299MOL0     H41218  10.638   3.667   1.846 -0.9589 -0.2941 -5.4225
  299MOL0     H41219  10.682   3.553   1.751 -4.1152 -0.5604  0.8989
  299MOL0     H41220  10.661   3.354   2.142  0.1817 -0.5238 -1.4195
  299MOL0     H41221  10.541   3.250   2.316  1.8960 -0.0997 -2.7136
  299MOL0     H41222  10.421   3.145   2.234 -2.9670  1.4767 -2.1389
  299MOL0     H41223  10.365   3.274   2.335  0.6699 -4.3317  2.8645
  299MOL0     H41224   9.944   3.223   1.955  0.2748  0.7478 -1.6557
  299MOL0     H41225   9.732   3.136   2.009  0.1472  0.3350 -1.3647
  299MOL0     H41226   9.456   3.304   2.359 -1.4322  0.7631  0.8167
  299MOL0     H41227   9.462   3.419   2.216 -1.7585  0.3897  0.4881
  299MOL0     H41228   9.327   3.153   2.267 -0.3586  0.7184  0.7782
  299MOL0     H41229   9.245   3.308   2.280 -0.6353 -2.0140  1.0198
  299MOL0     H41230   9.182   3.201   2.069 -0.6628  2.2243 -1.1060
  299MOL0     H41231   9.350   3.164   2.030 -2.2704 -0.2883 -2.8881
  299MOL0     H41232   9.389   3.401   1.986  1.7732  0.2826  2.8183
  299MOL0     H41233   9.236   3.441   2.066  3.5002 -0.4898  2.0883
  299MOL0     H41234   9.286   3.310   1.789  0.2395 -0.1636 -0.6477
  299MOL0     H41235   9.133   3.284   1.865  1.3786 -1.8397 -2.5092
  299MOL0     H41236   9.095   3.524   1.862  1.7247  0.7683  0.7206
  299MOL0     H41237   9.106   3.457   1.700  0.8577  1.8696 -1.3422
  299MOL0     H41238   9.320   3.551   1.669  1.5529 -1.1673  2.3665
  299MOL0     H41239   9.308   3.614   1.840 -1.7679  2.9763  0.1609
  299MOL0     H41240   9.267   3.784   1.689  0.4906 -1.7190  1.8984
  299MOL0     H41241   9.135   3.759   1.802  1.4713 -2.3808  3.3283
  299MOL0     H41242   9.674   3.437   2.312  1.6785  3.6105 -1.1164
  299MOL0     H41243   9.903   3.515   2.272  1.7714 -0.5127  0.4698
  299MOL0     H41244  10.248   3.472   1.898 -1.1214  2.0489  2.1112
  299MOL0     H41245  10.463   3.539   1.822  3.5731  0.7129  0.0994
  299MOL0     H41246  11.173   2.176   1.226  2.2133 -0.2805 -0.0080
  299MOL0     H41247  11.076   1.957   1.110  1.2690 -2.3079  0.3744
  299MOL0     H41248  10.591   1.753   1.184 -2.3043 -0.9192 -0.6922
  299MOL0     H41249  10.442   1.577   1.181 -0.1014 -1.1069 -0.8846
  299MOL0     H41250  10.371   1.348   1.308 -1.4858 -0.8189 -0.2551
  299MOL0     H41251  10.358   1.367   1.129 -0.4292 -0.0840 -0.7015
  299MOL0     H41252  10.243   1.158   1.224  0.1500 -0.4996  1.6079
  299MOL0     H41253  10.403   1.100   1.272 -0.6697  1.3764  0.6025
  299MOL0     H41254  10.334   1.156   0.978 -0.4495 -1.6825 -1.6299
  299MOL0     H41255  10.490   1.106   1.038 -0.1108 -0.7195 -2.1779
  299MOL0     H41256  10.236   0.954   1.054  0.2105  2.1650 -0.6417
  299MOL0     H41257  10.390   0.886   1.096 -0.1268 -0.8777 -0.7215
  299MOL0     H41258  10.432   0.885   0.672 -1.2647 -0.4884  0.4524
  299MOL0     H41259  10.781   1.304   1.197 -1.8298 -0.3502 -0.1954
  299MOL0     H41260  10.986   1.366   1.208  0.7391  0.0203 -4.4498
  299MOL0     H41261  11.027   1.523   1.127  0.3646  0.9329  0.5540
  299MOL0     H41262  11.031   1.508   1.302 -0.0605  0.4887 -0.4880
  300MOL0     O41263   7.649  10.223   2.530 -0.4609 -0.1817  0.5812
  300MOL0     C41264   7.571  10.210   2.623  0.5276  0.0776  0.2533
  300MOL0     O41265   7.554  10.093   2.698  0.5602 -0.7265 -0.4734
  300MOL0     C41266   7.638   9.989   2.669 -0.6224  0.9491 -0.1653
  300MOL0     C41267   7.767   9.972   2.725  0.3169 -0.7774 -0.4372
  300MOL0     C41268   7.841   9.856   2.698 -0.3961 -0.3035 -0.2774
  300MOL0     C41269   7.794   9.759   2.610 -0.5773  0.5627  0.2817
  300MOL0     O41270   7.869   9.640   2.595 -0.3281 -0.3623  0.1158
  300MOL0     C41271   7.858   9.564   2.475  0.8464  1.7189 -0.0737
  300MOL0     C41272   7.797   9.419   2.496 -0.3067 -0.2754  0.1331
  300MOL0     C41273   7.847   9.362   2.628 -0.0973 -0.2853  0.3363
  300MOL0     C41274   7.991   9.331   2.625  0.4131  0.5359  0.9928
  300MOL0     C41275   8.027   9.206   2.535  0.5699 -0.3394 -0.0137
  300MOL0     C41276   8.130   9.252   2.436  0.1091 -0.3262  0.5028
  300MOL0     C41277   8.149   9.153   2.319  0.1267  0.2039  0.2131
  300MOL0     C41278   8.192   9.010   2.369  0.1648 -0.6721  0.2116
  300MOL0     N41279   8.215   8.914   2.253 -0.3944 -0.5364  0.4062
  300MOL0     C41280   8.306   8.945   2.147 -0.5997 -0.6200 -0.5862
  300MOL0     C41281   8.339   8.815   2.106 -0.5761  0.0204 -0.1377
  300MOL0     C41282   8.435   8.764   1.997  0.7966  0.1831 -0.2839
  300MOL0     C41283   8.543   8.682   2.060  0.0478  0.3932 -1.1863
  300MOL0     C41284   8.642   8.772   2.136 -0.6326 -0.2550 -0.1150
  300MOL0     C41285   8.695   8.722   2.269  0.3520 -0.2380 -0.7251
  300MOL0     O41286   8.766   8.827   2.334 -0.8118  0.0439  1.0445
  300MOL0     C41287   8.889   8.861   2.299 -0.5937 -0.4812  0.4194
  300MOL0     C41288   8.932   8.975   2.362 -1.6925  0.9140  0.9083
  300MOL0     C41289   9.070   9.020   2.348  0.7435 -0.1780  0.0134
  300MOL0     C41290   9.093   9.152   2.427 -0.4961  0.1144  0.6837
  300MOL0     C41291   9.163   8.943   2.276  0.0689 -0.1966 -0.5830
  300MOL0     C41292   9.308   8.958   2.269 -0.4798 -0.1265 -0.3165
  300MOL0     O41293   9.368   9.011   2.389 -0.1557 -0.5260 -0.5674
  300MOL0     C41294   9.500   9.013   2.374 -0.7430 -0.5506  1.1775
  300MOL0     C41295   9.571   8.940   2.465  0.3187 -0.1947  0.2149
  300MOL0     C41296   9.705   8.939   2.465 -0.0810  0.0317 -0.0563
  300MOL0     C41297   9.778   9.014   2.371  0.9263  0.0397  0.2712
  300MOL0     O41298   9.917   9.006   2.342  0.6013  0.7433  0.1975
  300MOL0     C41299   9.992   8.890   2.369  0.6303  0.0669  0.1541
  300MOL0     C41300   9.964   8.791   2.265 -0.3639  0.7529  0.2762
  300MOL0     C41301  10.050   8.660   2.288  0.6229 -1.1149  0.1546
  300MOL0     C41302  10.177   8.666   2.204  0.6440  0.4935  0.6530
  300MOL0     C41303  10.234   8.527   2.191 -0.2206  0.0159 -1.0110
  300MOL0     C41304  10.337   8.505   2.313 -0.1611  0.2675 -0.0984
  300MOL0     C41305  10.448   8.420   2.246 -0.2705  1.0456  0.5423
  300MOL0     C41306  10.565   8.415   2.346 -0.1157 -0.5797  1.0083
  300MOL0    Cl41307  10.711   8.328   2.275 -0.2005 -0.1703 -0.2505
  300MOL0     C41308   9.705   9.093   2.277 -0.5039  0.2643 -0.2651
  300MOL0     C41309   9.565   9.090   2.273 -0.7073  0.5548 -1.0405
  300MOL0     O41310   9.370   8.912   2.166 -0.5397 -0.1342 -0.2273
  300MOL0     C41311   9.109   8.836   2.199  0.0487 -0.1861 -1.1726
  300MOL0     C41312   8.976   8.793   2.211  0.9521 -0.7829  0.0014
  300MOL0     N41313   8.273   8.718   2.183  0.7794  0.4159 -0.5148
  300MOL0     N41314   8.197   8.785   2.264  0.1691 -0.3364  0.2297
  300MOL0     C41315   7.658   9.775   2.555 -0.5801 -0.9130 -0.9254
  300MOL0     C41316   7.591   9.896   2.579 -0.6427  0.5677 -0.0407
  300MOL0     C41317   7.504  10.333   2.655 -0.8700 -0.6810 -0.5488
  300MOL0     C41318   7.381  10.356   2.596  0.8506 -0.2491 -0.5487
  300MOL0     C41319   7.300  10.457   2.646 -0.4957  0.2738 -0.5380
  300MOL0     C41320   7.341  10.552   2.752 -0.9565 -0.4650  0.2769
  300MOL0     O41321   7.255  10.635   2.811 -0.6065  0.6929 -0.3813
  300MOL0     C41322   7.128  10.651   2.757  0.9665 -0.5364  0.6196
  300MOL0     C41323   7.068  10.775   2.827  0.8370 -0.6032 -0.1713
  300MOL0     C41324   6.918  10.804   2.801 -0.1652  0.5826  0.3513
  300MOL0     C41325   6.812  10.695   2.834  0.0428 -0.2624  0.2137
  300MOL0     C41326   6.822  10.655   2.971  0.7243 -0.6168 -0.0375
  300MOL0     C41327   6.838  10.630   3.087 -0.3118 -0.7151 -0.1778
  300MOL0     C41328   7.472  10.534   2.801 -0.4399 -0.4981  1.2190
  300MOL0     C41329   7.553  10.437   2.745 -0.3153  0.5451 -1.0510
  300MOL0     C41330   7.695  10.423   2.787 -0.9815 -0.1683 -0.3242
  300MOL0     H41331   7.820  10.039   2.791 -2.1211 -0.3652  1.2690
  300MOL0     H41332   7.941   9.838   2.734 -0.4031 -0.4473 -0.3311
  300MOL0     H41333   7.952   9.535   2.427 -0.4937  1.0158 -2.4264
  300MOL0     H41334   7.805   9.617   2.395 -0.0273 -0.1834 -0.8075
  300MOL0     H41335   7.688   9.429   2.490 -0.3571 -1.7357 -2.6067
  300MOL0     H41336   7.830   9.351   2.418  1.0505  0.8719 -0.3300
  300MOL0     H41337   7.845   9.431   2.714  2.0066  1.4953 -0.9394
  300MOL0     H41338   7.792   9.269   2.644 -1.0525  0.0387 -0.9170
  300MOL0     H41339   8.038   9.425   2.593 -3.5197  1.9123 -1.4460
  300MOL0     H41340   8.030   9.304   2.723  4.4849  0.3271 -0.4785
  300MOL0     H41341   7.944   9.151   2.490 -1.7349  3.3695 -0.6686
  300MOL0     H41342   8.070   9.137   2.608 -0.2427  1.6380  2.4812
  300MOL0     H41343   8.104   9.347   2.389  0.2210 -0.9988 -0.9919
  300MOL0     H41344   8.226   9.269   2.486  0.3109  0.7284 -0.2033
  300MOL0     H41345   8.228   9.196   2.256  0.0657 -0.0783 -0.0545
  300MOL0     H41346   8.050   9.146   2.274  0.0994  0.2774  0.2605
  300MOL0     H41347   8.282   9.030   2.429  0.3646  1.9258 -0.8663
  300MOL0     H41348   8.113   8.979   2.438 -0.0247 -1.6694 -0.4246
  300MOL0     H41349   8.348   9.039   2.114  0.9258 -1.1484 -0.1930
  300MOL0     H41350   8.469   8.846   1.932 -2.0738  3.0956  1.5816
  300MOL0     H41351   8.376   8.700   1.931 -0.9819  1.5751 -0.1286
  300MOL0     H41352   8.505   8.608   2.131 -0.0499  0.0208 -1.6252
  300MOL0     H41353   8.590   8.619   1.984  0.3638 -0.8200 -0.0208
  300MOL0     H41354   8.728   8.770   2.068 -2.5026 -0.2238 -2.6420
  300MOL0     H41355   8.604   8.875   2.139 -0.6413 -0.2246 -1.0622
  300MOL0     H41356   8.614   8.682   2.332  0.2269  0.3660 -0.4970
  300MOL0     H41357   8.766   8.643   2.244  1.0485  1.1669 -3.6083
  300MOL0     H41358   8.863   9.035   2.421  1.0179  2.2020  3.0225
  300MOL0     H41359   9.058   9.229   2.358 -4.2158  0.7201  2.9865
  300MOL0     H41360   9.197   9.165   2.460  0.2230  0.5970 -1.6241
  300MOL0     H41361   9.027   9.148   2.514 -3.9530  1.2337 -1.6903
  300MOL0     H41362   9.514   8.880   2.535  0.4488  1.1732  1.5203
  300MOL0     H41363   9.745   8.876   2.544 -0.3249  0.9073  0.7807
  300MOL0     H41364  10.097   8.912   2.350  1.3747 -1.8584  1.6842
  300MOL0     H41365   9.974   8.853   2.471 -0.0757  0.2229  0.0871
  300MOL0     H41366   9.861   8.756   2.277  0.3048 -0.8814  1.5785
  300MOL0     H41367   9.977   8.830   2.163 -3.5867 -1.2713 -1.0849
  300MOL0     H41368  10.004   8.582   2.226 -0.3861  1.8196 -3.1552
  300MOL0     H41369  10.070   8.616   2.386  2.5419  1.3515  0.9778
  300MOL0     H41370  10.242   8.733   2.261  2.3477 -0.5983  0.0535
  300MOL0     H41371  10.154   8.707   2.106  0.7506 -1.9638 -0.4693
  300MOL0     H41372  10.160   8.446   2.197  0.3423 -0.4141  0.7507
  300MOL0     H41373  10.282   8.528   2.093 -0.2730 -2.1751 -1.0993
  300MOL0     H41374  10.286   8.463   2.400  0.7961  0.9836  0.8229
  300MOL0     H41375  10.385   8.596   2.348 -0.3080 -0.5513  2.4344
  300MOL0     H41376  10.472   8.453   2.144  2.1645  3.3296  1.7544
  300MOL0     H41377  10.416   8.315   2.245  1.3064  0.5305  0.6911
  300MOL0     H41378  10.536   8.364   2.439 -1.9172  2.1336  2.0449
  300MOL0     H41379  10.587   8.517   2.377 -0.8072 -0.4148  0.9845
  300MOL0     H41380   9.753   9.142   2.192  0.6092 -0.2390  0.0541
  300MOL0     H41381   9.499   9.131   2.197 -0.9812  2.3324  0.0895
  300MOL0     H41382   9.176   8.776   2.138  1.6397  0.4828 -0.1559
  300MOL0     H41383   8.949   8.705   2.152 -0.2190 -0.2208 -0.3312
  300MOL0     H41384   7.623   9.696   2.489  2.9833 -2.6275 -1.0301
  300MOL0     H41385   7.489   9.920   2.552 -1.2534 -2.3962 -0.7361
  300MOL0     H41386   7.340  10.277   2.534  2.4151 -2.2859  0.8682
  300MOL0     H41387   7.199  10.458   2.606 -0.6758 -0.4067 -0.1225
  300MOL0     H41388   7.133  10.674   2.650  0.8685 -1.8865  0.3108
  300MOL0     H41389   7.061  10.568   2.781 -1.4858  1.2589  0.3749
  300MOL0     H41390   7.121  10.866   2.800  1.8435 -1.4164 -1.0526
  300MOL0     H41391   7.081  10.762   2.935  2.0936  3.9082  0.4153
  300MOL0     H41392   6.892  10.898   2.849  0.7356  0.4436  1.1551
  300MOL0     H41393   6.907  10.823   2.693 -1.8372 -2.6868 -0.1800
  300MOL0     H41394   6.828  10.615   2.761 -2.4704 -1.4696  0.8733
  300MOL0     H41395   6.707  10.722   2.819 -0.0089 -0.9888 -0.8699
  300MOL0     H41396   6.871  10.615   3.188  1.3837 -0.6406 -0.6886
  300MOL0     H41397   7.511  10.605   2.873  3.0375  1.4316 -2.1407
  300MOL0     H41398   7.718  10.316   2.798  0.9299  0.0096 -1.9508
  300MOL0     H41399   7.762  10.472   2.716  1.2750 -2.2811  0.2094
  300MOL0     H41400   7.715  10.477   2.880 -1.5043 -0.5144 -0.0080
  301MOL0     O41401   5.355   0.641   4.332 -0.0111  0.8065  0.5286
  301MOL0     C41402   5.262   0.572   4.277 -0.5021  0.8697  0.2303
  301MOL0     O41403   5.137   0.572   4.319 -0.8234  0.3259 -0.5626
  301MOL0     C41404   5.080   0.666   4.402  0.0387 -0.7890  1.2166
  301MOL0     C41405   4.960   0.630   4.456 -0.1199 -0.5401  0.8721
  301MOL0     C41406   4.883   0.723   4.520  0.2324 -0.0009  0.4075
  301MOL0     C41407   4.915   0.859   4.526 -0.5067  0.1847  0.0446
  301MOL0     O41408   4.828   0.950   4.585  0.3217 -0.5908 -0.6880
  301MOL0     C41409   4.719   1.002   4.504 -0.2639 -0.0911 -0.1083
  301MOL0     C41410   4.633   1.101   4.582  0.1095 -0.2559 -0.1399
  301MOL0     C41411   4.518   1.166   4.498  0.2180  1.3294  0.2555
  301MOL0     C41412   4.562   1.277   4.413 -0.3158  0.2959  0.0170
  301MOL0     C41413   4.453   1.360   4.344  0.3357 -0.4881 -0.0774
  301MOL0     C41414   4.507   1.473   4.256  0.2033  0.1194  0.8977
  301MOL0     C41415   4.399   1.580   4.213 -0.2103  0.8494 -0.6685
  301MOL0     C41416   4.455   1.682   4.121  0.5819 -0.1969  0.2916
  301MOL0     N41417   4.350   1.751   4.049  0.0392  0.4858 -0.5718
  301MOL0     C41418   4.252   1.700   3.962  0.3765  0.4818  0.3744
  301MOL0     C41419   4.184   1.803   3.917  1.1632 -0.1443  0.0264
  301MOL0     C41420   4.068   1.794   3.832  1.4334 -0.7674  0.0681
  301MOL0     C41421   3.935   1.742   3.907 -0.1358  0.9190  0.4901
  301MOL0     C41422   3.901   1.825   4.035  1.3147 -1.1208  0.2163
  301MOL0     C41423   3.791   1.782   4.133 -0.1533 -0.2420 -0.3685
  301MOL0     O41424   3.733   1.892   4.196  0.0922 -0.0736  0.2612
  301MOL0     C41425   3.626   1.864   4.279  0.3638  0.0613 -0.1461
  301MOL0     C41426   3.581   1.972   4.360 -0.1752  0.3196  0.1998
  301MOL0     C41427   3.460   1.959   4.432 -0.5354 -0.6423 -0.6823
  301MOL0     C41428   3.389   2.080   4.492 -0.2360  0.1600  0.7750
  301MOL0     C41429   3.387   1.838   4.434 -0.2169 -0.5075 -0.7941
  301MOL0     C41430   3.257   1.822   4.514 -0.7093  0.9830 -0.3444
  301MOL0     O41431   3.228   1.697   4.571 -0.0190  0.1114 -0.7642
  301MOL0     C41432   3.106   1.698   4.637  0.0355  0.1528 -0.1682
  301MOL0     C41433   3.094   1.758   4.759  0.0097  0.8827  0.5730
  301MOL0     C41434   2.964   1.775   4.816  0.9629 -0.7023  0.8870
  301MOL0     C41435   2.845   1.742   4.739 -0.5621  0.3203  0.1962
  301MOL0     O41436   2.713   1.761   4.775  0.1548 -0.3048  0.1429
  301MOL0     C41437   2.700   1.845   4.892 -0.6211  0.8123 -0.6783
  301MOL0     C41438   2.547   1.849   4.936 -0.1962 -0.0347  0.0889
  301MOL0     C41439   2.488   1.725   5.009  0.9314 -0.1019 -0.2150
  301MOL0     C41440   2.357   1.672   4.943  0.3699 -0.3779  0.7109
  301MOL0     C41441   2.305   1.551   5.025  0.8367  1.0170 -0.5267
  301MOL0     C41442   2.368   1.420   4.971 -0.0498  0.3370  0.3831
  301MOL0     C41443   2.289   1.292   5.023 -0.5380  0.4293  0.1246
  301MOL0     C41444   2.374   1.168   5.000 -0.5084 -0.1862 -0.7499
  301MOL0    Cl41445   2.312   1.029   5.097 -0.1290  0.1249 -0.3207
  301MOL0     C41446   2.867   1.686   4.611  0.0373 -0.5002 -0.0466
  301MOL0     C41447   2.991   1.657   4.564  0.2857  0.2129  0.7457
  301MOL0     O41448   3.172   1.910   4.506 -0.2439 -0.0292 -0.0802
  301MOL0     C41449   3.449   1.727   4.378  1.1030  0.0256 -0.6676
  301MOL0     C41450   3.553   1.745   4.299 -0.3623 -0.4335  0.9762
  301MOL0     N41451   4.230   1.913   3.979  0.3766 -0.6063 -1.9160
  301MOL0     N41452   4.329   1.886   4.059  0.8467  0.1952 -0.7796
  301MOL0     C41453   5.042   0.897   4.473  1.2037 -0.5556 -0.8827
  301MOL0     C41454   5.124   0.800   4.417  0.9601 -0.1526 -0.0666
  301MOL0     C41455   5.307   0.467   4.169  0.6895 -0.0790 -0.5439
  301MOL0     C41456   5.420   0.393   4.192 -1.2260 -0.1785 -0.1207
  301MOL0     C41457   5.458   0.291   4.106  0.5958  0.0109  0.1153
  301MOL0     C41458   5.387   0.261   3.992  0.1273  0.7603 -0.6141
  301MOL0     O41459   5.435   0.146   3.931  0.3956  0.1927 -0.6277
  301MOL0     C41460   5.411   0.122   3.793 -0.5721 -0.2722 -0.1991
  301MOL0     C41461   5.302   0.012   3.788  0.6116  0.6260 -0.0797
  301MOL0     C41462   5.265  -0.007   3.641  0.1646  0.0886  0.6525
  301MOL0     C41463   5.236   0.110   3.561 -0.0036  0.2933  0.3109
  301MOL0     C41464   5.156   0.066   3.446 -0.3439 -0.7232  0.3068
  301MOL0     C41465   5.116   0.021   3.347 -0.4371 -0.0984 -0.4359
  301MOL0     C41466   5.270   0.342   3.963  0.0668 -0.4046  0.7622
  301MOL0     C41467   5.230   0.445   4.048  0.1710 -0.4613  0.1795
  301MOL0     C41468   5.116   0.542   4.008 -0.4280 -0.2782  0.5010
  301MOL0     H41469   4.932   0.527   4.440  2.7641 -1.0309 -2.2088
  301MOL0     H41470   4.786   0.695   4.561  1.2387  1.1883  3.9332
  301MOL0     H41471   4.655   0.917   4.480  0.4048 -0.7781  0.5185
  301MOL0     H41472   4.740   1.044   4.405 -0.6378  0.7505  0.1595
  301MOL0     H41473   4.582   1.044   4.661 -0.6735  0.9448  0.2409
  301MOL0     H41474   4.695   1.179   4.625  2.2912 -2.7194  1.5312
  301MOL0     H41475   4.488   1.095   4.421  0.6166  2.5050 -1.0200
  301MOL0     H41476   4.439   1.202   4.564 -0.6610 -0.2587  0.1278
  301MOL0     H41477   4.603   1.354   4.478 -2.7458  1.1339  0.6590
  301MOL0     H41478   4.633   1.253   4.333 -1.5598 -1.3977 -0.6372
  301MOL0     H41479   4.388   1.408   4.418 -1.1378 -2.2307 -0.1837
  301MOL0     H41480   4.398   1.290   4.281 -0.9980 -1.9981  2.6105
  301MOL0     H41481   4.589   1.521   4.311  0.5397 -0.4705  0.9205
  301MOL0     H41482   4.539   1.433   4.160  1.9869 -2.2665  2.3510
  301MOL0     H41483   4.366   1.629   4.305 -1.6592  0.7281 -1.1125
  301MOL0     H41484   4.317   1.528   4.163 -0.1014  1.7885 -1.8762
  301MOL0     H41485   4.516   1.754   4.178  0.5519  1.3314 -1.5030
  301MOL0     H41486   4.519   1.630   4.049  2.4710  1.8198  0.4018
  301MOL0     H41487   4.240   1.604   3.913 -0.8087  1.2333 -0.9103
  301MOL0     H41488   4.077   1.752   3.732 -0.9707  0.6400 -0.8072
  301MOL0     H41489   4.057   1.900   3.807  2.9682 -0.7036 -0.4494
  301MOL0     H41490   3.847   1.746   3.842  1.8852 -2.2108 -2.8002
  301MOL0     H41491   3.946   1.635   3.928  0.2088  0.4236 -1.9173
  301MOL0     H41492   3.996   1.837   4.089  2.2836 -0.0252 -1.6314
  301MOL0     H41493   3.868   1.924   4.001 -2.6156 -1.9376  1.2073
  301MOL0     H41494   3.714   1.739   4.068  0.5150 -1.0363 -0.6680
  301MOL0     H41495   3.833   1.702   4.195  0.5137 -1.3459 -2.1433
  301MOL0     H41496   3.644   2.060   4.355 -1.1905  1.4148  3.5605
  301MOL0     H41497   3.307   2.112   4.427  1.1432 -3.4029 -3.0905
  301MOL0     H41498   3.466   2.158   4.495  0.1814 -0.2556  3.1151
  301MOL0     H41499   3.360   2.070   4.597 -0.5410  0.0789  0.6849
  301MOL0     H41500   3.174   1.801   4.818  0.6696  2.8674 -1.5915
  301MOL0     H41501   2.964   1.817   4.916  3.2230  0.4346  0.4701
  301MOL0     H41502   2.764   1.810   4.973 -1.7501 -1.6071 -0.7387
  301MOL0     H41503   2.731   1.945   4.861 -2.2358  0.9564 -1.9773
  301MOL0     H41504   2.533   1.947   4.984  3.2391  1.4523 -1.5929
  301MOL0     H41505   2.490   1.857   4.842 -2.3609  1.5660  1.4340
  301MOL0     H41506   2.472   1.746   5.115  1.7076 -1.2324  0.1488
  301MOL0     H41507   2.552   1.637   4.998 -2.4393 -2.6978 -0.7427
  301MOL0     H41508   2.371   1.647   4.838 -2.8525  3.4689 -0.8971
  301MOL0     H41509   2.298   1.763   4.953  1.1942  0.0166  2.4610
  301MOL0     H41510   2.332   1.570   5.130 -0.5913  0.1559  0.0235
  301MOL0     H41511   2.197   1.549   5.009  0.5764 -0.0462  1.0895
  301MOL0     H41512   2.474   1.424   4.998 -0.0830  1.4268  0.3731
  301MOL0     H41513   2.356   1.409   4.863 -1.6483  1.8170  0.3688
  301MOL0     H41514   2.191   1.285   4.975 -0.1114  1.1075 -0.8921
  301MOL0     H41515   2.287   1.293   5.132  3.6529 -0.7912  0.3682
  301MOL0     H41516   2.474   1.189   5.040 -0.2365  0.4735 -1.7685
  301MOL0     H41517   2.381   1.137   4.896 -1.2442 -2.0735 -0.2900
  301MOL0     H41518   2.776   1.669   4.553  0.0155  1.4822 -0.6760
  301MOL0     H41519   3.012   1.629   4.461 -0.6157  1.0148  0.3342
  301MOL0     H41520   3.398   1.631   4.373 -0.8762  0.9129  1.0379
  301MOL0     H41521   3.593   1.650   4.265  0.4726 -0.1170  1.0645
  301MOL0     H41522   5.080   0.998   4.480 -0.0538 -0.1973  3.0046
  301MOL0     H41523   5.212   0.842   4.368  1.7495  2.2645  3.0587
  301MOL0     H41524   5.484   0.417   4.276 -1.1157  1.8703 -0.7429
  301MOL0     H41525   5.545   0.230   4.128 -0.3716 -1.0745  1.0769
  301MOL0     H41526   5.375   0.212   3.741 -0.2462  0.3162  0.5851
  301MOL0     H41527   5.510   0.105   3.750  1.4686  1.9260  3.1662
  301MOL0     H41528   5.209   0.038   3.840 -0.4080  0.2057 -1.6434
  301MOL0     H41529   5.328  -0.083   3.835 -0.9042  1.7763  3.4333
  301MOL0     H41530   5.347  -0.058   3.589  2.8979  1.6555  3.1100
  301MOL0     H41531   5.177  -0.071   3.649 -1.1569  1.7290 -0.0992
  301MOL0     H41532   5.328   0.158   3.526  1.2002 -0.4896  2.2252
  301MOL0     H41533   5.171   0.182   3.611  0.3545  1.8481 -1.3472
  301MOL0     H41534   5.052  -0.026   3.275  3.8207 -3.0042 -2.7215
  301MOL0     H41535   5.220   0.336   3.867  4.7712 -4.4559 -1.8513
  301MOL0     H41536   5.145   0.647   4.018 -0.4620 -0.2610  0.4219
  301MOL0     H41537   5.108   0.529   3.899  2.1716 -0.0485  0.2059
  301MOL0     H41538   5.016   0.518   4.044 -0.5453 -3.7644 -1.7067
  302MOL0     O41539   9.665   5.163   8.626 -0.5266  0.5087 -0.2413
  302MOL0     C41540   9.578   5.131   8.548  0.1878 -0.1066  0.1430
  302MOL0     O41541   9.464   5.195   8.527 -0.1450  0.0742  1.0826
  302MOL0     C41542   9.425   5.307   8.590  0.3160 -0.2651  0.8018
  302MOL0     C41543   9.291   5.347   8.558  0.7623 -0.0226  0.4845
  302MOL0     C41544   9.226   5.456   8.620 -0.6891 -0.2007 -0.3359
  302MOL0     C41545   9.299   5.553   8.697 -0.4371  0.1167 -0.2014
  302MOL0     O41546   9.234   5.657   8.751  0.0934 -0.8864 -0.8250
  302MOL0     C41547   9.293   5.745   8.839 -0.3952 -0.4742  0.5247
  302MOL0     C41548   9.196   5.850   8.890 -0.1491 -0.3274 -0.2259
  302MOL0     C41549   9.069   5.795   8.966 -0.2887  1.4784 -0.4064
  302MOL0     C41550   8.949   5.899   8.954  1.2794  0.4047  0.1882
  302MOL0     C41551   8.828   5.865   9.018 -0.4780  0.1650  0.0828
  302MOL0     C41552   8.722   5.974   9.034 -0.4559  1.3069  0.4471
  302MOL0     C41553   8.574   5.917   9.081  0.0099 -0.3654 -0.3661
  302MOL0     C41554   8.524   5.774   9.012 -1.1506  0.7178 -0.0888
  302MOL0     N41555   8.394   5.729   9.067  0.5560 -0.1042 -0.3159
  302MOL0     C41556   8.269   5.782   9.033  0.9418  0.2670 -0.3293
  302MOL0     C41557   8.177   5.708   9.104  0.1759  0.4345  0.1908
  302MOL0     C41558   8.033   5.724   9.101  0.5250  0.1001  0.7109
  302MOL0     C41559   7.986   5.860   9.059  0.8514  0.3278  0.0997
  302MOL0     C41560   8.013   5.976   9.154  0.1590 -0.1618  0.5664
  302MOL0     C41561   7.964   5.960   9.301 -0.0006  0.1314  0.0962
  302MOL0     O41562   7.982   6.080   9.367 -0.0816 -0.6128 -0.3178
  302MOL0     C41563   7.977   6.073   9.501 -0.2950 -0.1255  0.5177
  302MOL0     C41564   8.063   6.144   9.577 -0.7941 -0.2565 -0.2840
  302MOL0     C41565   8.061   6.143   9.713 -0.1016  0.3780  0.0408
  302MOL0     C41566   8.169   6.212   9.794  0.3017  0.2211  0.6668
  302MOL0     C41567   7.957   6.076   9.783 -0.2106  0.0684  0.5393
  302MOL0     C41568   7.942   6.061   9.932  0.4716  0.0216  0.0686
  302MOL0     O41569   7.831   5.998   9.979  0.3169  0.8914  0.4258
  302MOL0     C41570   7.817   5.985  10.117 -0.5930 -0.3429  0.8457
  302MOL0     C41571   7.700   6.022  10.178 -0.3528 -0.8550  0.3613
  302MOL0     C41572   7.663   5.990  10.304 -0.6904 -0.7114  0.2043
  302MOL0     C41573   7.750   5.919  10.386 -0.0372 -0.3396 -0.0932
  302MOL0     O41574   7.725   5.882  10.519 -0.4975 -0.0764  0.3775
  302MOL0     C41575   7.583   5.873  10.548 -0.1892  0.5551  0.0133
  302MOL0     C41576   7.557   5.821  10.696  0.6525  0.5647  0.1914
  302MOL0     C41577   7.572   5.664  10.710 -0.6627 -0.0112  0.1388
  302MOL0     C41578   7.694   5.610  10.637 -0.0793 -0.1499  0.6149
  302MOL0     C41579   7.705   5.458  10.661 -0.5222 -0.0124 -0.3353
  302MOL0     C41580   7.622   5.380  10.559 -1.1828 -0.6600  1.2604
  302MOL0     C41581   7.618   5.235  10.594 -0.9081  0.0023  0.1265
  302MOL0     C41582   7.572   5.152  10.477 -0.1700  0.6922 -0.2949
  302MOL0    Cl41583   7.696   5.152  10.347  0.0068  0.2960  0.4732
  302MOL0     C41584   7.875   5.883  10.328 -0.1003  0.4217  0.5414
  302MOL0     C41585   7.913   5.920  10.195 -0.0475 -0.2209 -0.3536
  302MOL0     O41586   8.023   6.114  10.006  1.4930  0.2203 -0.0375
  302MOL0     C41587   7.861   6.011   9.705  0.5781 -0.1637 -0.7473
  302MOL0     C41588   7.870   6.015   9.569  0.3271 -0.6857  0.1075
  302MOL0     N41589   8.249   5.619   9.187  0.0309  0.3467  0.5703
  302MOL0     N41590   8.377   5.642   9.162 -0.3582 -0.0518 -0.1868
  302MOL0     C41591   9.432   5.506   8.730  0.7887 -0.4790 -0.0009
  302MOL0     C41592   9.496   5.400   8.675  0.1472 -0.4535  0.0350
  302MOL0     C41593   9.593   4.998   8.482  0.9440  0.5740 -0.1255
  302MOL0     C41594   9.726   4.963   8.446 -0.3211  0.2158  0.7140
  302MOL0     C41595   9.762   4.835   8.402  0.0637 -0.0518  0.4342
  302MOL0     C41596   9.669   4.740   8.375  0.1715  0.0853 -1.1672
  302MOL0     O41597   9.703   4.618   8.319  1.1457  0.3341  0.3472
  302MOL0     C41598   9.731   4.511   8.410  0.2896  0.1066  1.0867
  302MOL0     C41599   9.604   4.426   8.429  0.6612 -0.5237  0.1039
  302MOL0     C41600   9.559   4.362   8.295  0.3529 -0.2433 -1.2447
  302MOL0     C41601   9.425   4.288   8.307  0.5907  0.4321  0.1704
  302MOL0     C41602   9.375   4.269   8.172 -0.1082 -0.2126  0.2661
  302MOL0     C41603   9.336   4.240   8.062 -0.7946  0.8058  0.5875
  302MOL0     C41604   9.529   4.780   8.398 -0.3630  0.3769 -0.1850
  302MOL0     C41605   9.489   4.900   8.456 -0.1986  0.8728  0.1297
  302MOL0     C41606   9.340   4.921   8.490 -0.1849  0.1491  0.2393
  302MOL0     H41607   9.234   5.290   8.485  0.3148  2.3065 -1.1004
  302MOL0     H41608   9.120   5.469   8.597 -0.7017 -0.8461 -0.6483
  302MOL0     H41609   9.382   5.789   8.792 -0.3073 -1.7555 -0.5727
  302MOL0     H41610   9.332   5.690   8.925 -0.8821 -1.6570  0.0157
  302MOL0     H41611   9.258   5.910   8.957 -1.9945  1.4208 -0.0023
  302MOL0     H41612   9.168   5.924   8.814 -0.8062  1.6054  1.8122
  302MOL0     H41613   9.028   5.695   8.946 -1.9283  2.3077 -1.4608
  302MOL0     H41614   9.087   5.795   9.074 -0.9678 -1.1234 -0.2059
  302MOL0     H41615   8.990   5.990   8.998 -0.3602  0.6510  1.2795
  302MOL0     H41616   8.931   5.923   8.849  0.9325  2.3405  0.6479
  302MOL0     H41617   8.842   5.809   9.111  0.4003 -0.7306 -0.5757
  302MOL0     H41618   8.797   5.787   8.948  0.8375  0.2191 -0.5889
  302MOL0     H41619   8.764   6.051   9.100  2.3168  2.6748 -2.6754
  302MOL0     H41620   8.713   6.018   8.935 -1.8435  0.9718  0.4010
  302MOL0     H41621   8.499   5.996   9.081  1.4389  1.0316 -0.7001
  302MOL0     H41622   8.586   5.899   9.188 -3.0306 -0.7570 -0.0228
  302MOL0     H41623   8.509   5.791   8.905 -1.9981  1.6324  0.1568
  302MOL0     H41624   8.596   5.694   9.030 -0.9734  1.0475  0.6936
  302MOL0     H41625   8.248   5.866   8.968 -2.2499 -0.5368 -0.4631
  302MOL0     H41626   7.993   5.680   9.193 -3.3332 -1.9474 -1.6407
  302MOL0     H41627   7.994   5.655   9.026 -0.0043  0.6167  0.5022
  302MOL0     H41628   8.024   5.892   8.962  0.3141  1.1787  0.1658
  302MOL0     H41629   7.877   5.861   9.053  0.8403  3.0634 -0.2921
  302MOL0     H41630   8.118   6.007   9.152 -0.0922  0.8671 -2.8903
  302MOL0     H41631   7.960   6.059   9.106 -1.4626 -2.0587 -1.1305
  302MOL0     H41632   7.857   5.939   9.304 -0.4309  0.9172 -3.8053
  302MOL0     H41633   8.017   5.884   9.360 -0.0151  0.6077  0.7349
  302MOL0     H41634   8.139   6.188   9.513  1.0707 -2.1863  0.4888
  302MOL0     H41635   8.123   6.271   9.874  0.5828 -0.8346  1.6470
  302MOL0     H41636   8.232   6.279   9.736 -2.1864  2.1104  0.0087
  302MOL0     H41637   8.226   6.134   9.845 -1.3978 -0.5025  1.5594
  302MOL0     H41638   7.635   6.077  10.111  0.6380 -1.2664 -0.9672
  302MOL0     H41639   7.565   6.023  10.337 -1.3826  0.5071 -2.6821
  302MOL0     H41640   7.535   5.971  10.543 -0.6526  0.4121  1.1953
  302MOL0     H41641   7.528   5.804  10.485 -0.5857 -2.4932  3.3714
  302MOL0     H41642   7.640   5.855  10.758  2.6785 -0.1328 -1.9429
  302MOL0     H41643   7.460   5.862  10.724  1.0070  0.5134  1.5349
  302MOL0     H41644   7.492   5.609  10.661 -0.4903  1.5405 -2.0625
  302MOL0     H41645   7.576   5.641  10.816  1.4408 -0.5665 -0.0105
  302MOL0     H41646   7.784   5.666  10.664 -1.3687  5.3614 -4.3960
  302MOL0     H41647   7.684   5.631  10.530  0.1331  0.0919  0.6417
  302MOL0     H41648   7.807   5.419  10.662 -1.7127 -3.4629 -1.3648
  302MOL0     H41649   7.663   5.433  10.759 -1.4446 -1.4691 -1.0691
  302MOL0     H41650   7.672   5.386  10.462  0.3760  3.2708  2.1352
  302MOL0     H41651   7.516   5.409  10.559 -1.2945 -1.0008  2.5472
  302MOL0     H41652   7.560   5.214  10.684 -1.7412 -1.1161 -0.6521
  302MOL0     H41653   7.717   5.200  10.624  0.5004  2.3013 -1.4734
  302MOL0     H41654   7.478   5.198  10.446 -0.6142 -1.3036 -2.1703
  302MOL0     H41655   7.555   5.050  10.514  0.8779  1.4216  2.4262
  302MOL0     H41656   7.942   5.829  10.394  3.0289  2.9142 -0.3212
  302MOL0     H41657   8.010   5.889  10.157  0.3322 -0.8616  1.0460
  302MOL0     H41658   7.774   5.966   9.753  0.1258 -1.2766 -2.4806
  302MOL0     H41659   7.788   5.986   9.504 -4.1545  2.2590  3.7466
  302MOL0     H41660   9.489   5.571   8.796 -0.5016  3.4725 -2.4157
  302MOL0     H41661   9.598   5.387   8.711  1.5388  1.4081 -2.8234
  302MOL0     H41662   9.809   5.032   8.456 -0.1248  0.3833 -1.5660
  302MOL0     H41663   9.867   4.814   8.387 -0.2616 -0.4682 -1.5140
  302MOL0     H41664   9.801   4.441   8.365  2.4832 -0.9407  5.6477
  302MOL0     H41665   9.781   4.542   8.502  1.1226  0.6818  0.4599
  302MOL0     H41666   9.521   4.486   8.467  0.9332 -0.0479 -0.0349
  302MOL0     H41667   9.628   4.362   8.515  0.6344 -1.6798 -0.7323
  302MOL0     H41668   9.553   4.441   8.219  0.2398  0.5010 -0.4779
  302MOL0     H41669   9.638   4.294   8.262 -2.5096 -2.9711 -2.9458
  302MOL0     H41670   9.355   4.353   8.360  0.5938  0.7290 -0.1844
  302MOL0     H41671   9.434   4.189   8.353  1.5319  0.3971 -0.0650
  302MOL0     H41672   9.290   4.203   7.972 -1.5851 -0.9949  1.6616
  302MOL0     H41673   9.451   4.710   8.370 -1.2726  1.3471 -0.1599
  302MOL0     H41674   9.327   4.907   8.597 -4.1040 -0.4051 -0.1483
  302MOL0     H41675   9.310   5.026   8.488  4.6545  1.7822 -0.4176
  302MOL0     H41676   9.283   4.851   8.428  2.5601 -2.7475  0.7040
  303MOL0     O41677   9.751   0.359   6.389  0.3958 -0.2891  0.1864
  303MOL0     C41678   9.822   0.294   6.466 -0.2290  0.9757  0.2089
  303MOL0     O41679   9.866   0.161   6.446 -0.6411 -0.2927 -0.7096
  303MOL0     C41680   9.838   0.097   6.336  0.3623 -0.2759  0.3056
  303MOL0     C41681   9.709   0.066   6.289  0.1110 -0.8296 -0.1941
  303MOL0     C41682   9.694   0.005   6.159  0.0494  0.0201  0.3339
  303MOL0     C41683   9.809  -0.039   6.088  0.0675  0.0576  0.7122
  303MOL0     O41684   9.786  -0.113   5.975 -0.4575 -0.4349  0.9049
  303MOL0     C41685   9.845  -0.059   5.856 -0.8304 -0.5185  0.0507
  303MOL0     C41686   9.931  -0.164   5.786 -0.2122 -0.1252 -0.8574
  303MOL0     C41687  10.026  -0.104   5.679  0.3058  0.0725  0.1648
  303MOL0     C41688  10.046  -0.200   5.560  0.1643  0.0950 -0.0309
  303MOL0     C41689  10.120  -0.141   5.443  0.3947 -0.7107 -0.2412
  303MOL0     C41690  10.267  -0.128   5.469 -0.6783 -0.6337  0.1721
  303MOL0     C41691  10.360  -0.067   5.368  0.2195 -0.8387  0.3114
  303MOL0     C41692  10.395  -0.153   5.246  0.3484  0.1420  0.3180
  303MOL0     N41693  10.411  -0.294   5.276 -0.1217  0.7009  0.4240
  303MOL0     C41694  10.307  -0.384   5.257 -0.0665  0.0637 -0.1458
  303MOL0     C41695  10.366  -0.502   5.286  0.7467 -0.0081 -0.1151
  303MOL0     C41696  10.302  -0.640   5.301 -0.4441 -0.3723 -0.0869
  303MOL0     C41697  10.227  -0.673   5.172  0.3148 -0.6578  0.1555
  303MOL0     C41698  10.339  -0.718   5.085 -0.3875 -0.6075  0.6704
  303MOL0     C41699  10.296  -0.741   4.937  0.1463 -0.9961 -0.5884
  303MOL0     O41700  10.209  -0.854   4.935  0.2803 -0.1279  0.0939
  303MOL0     C41701  10.156  -0.902   4.819 -0.7962  0.1827  0.3923
  303MOL0     C41702  10.175  -0.830   4.695  0.8604 -0.2569 -0.6118
  303MOL0     C41703  10.110  -0.872   4.579 -0.2459  0.0788 -1.2618
  303MOL0     C41704  10.118  -0.774   4.464  0.2701 -0.8104 -0.2966
  303MOL0     C41705  10.030  -0.991   4.584 -0.1854 -0.4541  0.6625
  303MOL0     C41706   9.983  -1.049   4.456  0.7328 -0.3246  0.3986
  303MOL0     O41707  10.045  -1.013   4.339  0.1519  0.5601 -0.4435
  303MOL0     C41708  10.011  -1.088   4.227 -0.1527 -0.3357  0.6613
  303MOL0     C41709   9.877  -1.120   4.192  0.6330 -0.2406  0.1392
  303MOL0     C41710   9.860  -1.207   4.079  0.1766 -0.1715 -0.1789
  303MOL0     C41711   9.962  -1.214   3.981  0.5884  0.0804  0.9670
  303MOL0     O41712   9.941  -1.264   3.854 -0.1658  0.1964  0.3099
  303MOL0     C41713   9.831  -1.349   3.838 -0.1324 -0.3056  0.2689
  303MOL0     C41714   9.837  -1.404   3.690  0.3225  0.4216  0.3756
  303MOL0     C41715   9.918  -1.535   3.695  1.3467 -0.9412  0.9347
  303MOL0     C41716   9.916  -1.593   3.554 -0.2558 -0.2490 -0.2154
  303MOL0     C41717   9.957  -1.735   3.558  1.2816  0.0515  0.7717
  303MOL0     C41718   9.980  -1.787   3.407 -0.3090  0.0345 -0.0880
  303MOL0     C41719   9.862  -1.815   3.319 -0.7727  0.4002  0.1712
  303MOL0     C41720   9.828  -1.707   3.229 -0.7063 -0.6755  0.3693
  303MOL0    Cl41721   9.681  -1.744   3.132  0.1015 -0.3027  0.1187
  303MOL0     C41722  10.084  -1.161   4.012  0.1569  0.5201  0.3841
  303MOL0     C41723  10.111  -1.102   4.135  0.6775  0.1979  0.1338
  303MOL0     O41724   9.896  -1.134   4.468 -0.0365  0.2639  0.5581
  303MOL0     C41725  10.032  -1.072   4.700 -0.2024  0.5023 -0.7966
  303MOL0     C41726  10.086  -1.018   4.818 -1.2342  0.5663 -0.3627
  303MOL0     N41727  10.508  -0.485   5.296  0.8501 -0.2947 -0.3863
  303MOL0     N41728  10.530  -0.354   5.297  0.3607  0.5989  0.4846
  303MOL0     C41729   9.938  -0.001   6.133  0.5708 -0.0108 -0.4123
  303MOL0     C41730   9.945   0.071   6.253 -0.1366 -0.6646  0.4635
  303MOL0     C41731   9.903   0.368   6.571  0.8629 -0.6360  0.1662
  303MOL0     C41732  10.021   0.317   6.613 -0.2575  0.1933  0.0455
  303MOL0     C41733  10.097   0.379   6.712  0.3134 -0.6225 -0.4262
  303MOL0     C41734  10.060   0.498   6.767  0.1691  0.2110  0.2646
  303MOL0     O41735  10.137   0.567   6.855  0.1159  0.2976 -0.1345
  303MOL0     C41736  10.224   0.493   6.950  0.0547  0.9106  0.0363
  303MOL0     C41737  10.364   0.540   6.922  0.0950  0.2523 -0.5880
  303MOL0     C41738  10.451   0.467   6.817  0.2290 -0.0956 -0.6003
  303MOL0     C41739  10.599   0.461   6.848 -0.0127 -1.0734 -0.2120
  303MOL0     C41740  10.678   0.441   6.723 -1.9834  0.0659  0.0607
  303MOL0     C41741  10.742   0.429   6.620  0.0473 -0.5465 -0.5939
  303MOL0     C41742   9.940   0.560   6.732 -0.7240 -0.0531  0.1162
  303MOL0     C41743   9.862   0.489   6.634 -0.1293 -0.2888 -0.4739
  303MOL0     C41744   9.729   0.549   6.609  0.0064 -0.0086 -0.3013
  303MOL0     H41745   9.623   0.083   6.353  0.0739  2.6433 -0.9875
  303MOL0     H41746   9.596  -0.027   6.128 -1.5396  1.4199  3.4255
  303MOL0     H41747   9.911   0.023   5.887 -0.8112 -0.3187 -0.5129
  303MOL0     H41748   9.762  -0.025   5.794 -0.3122  2.2638  0.7409
  303MOL0     H41749   9.997  -0.207   5.861  1.2473  1.6680 -1.0616
  303MOL0     H41750   9.865  -0.245   5.754  0.8188 -0.5737 -1.9185
  303MOL0     H41751   9.976  -0.020   5.630  1.8449  0.3972 -0.9315
  303MOL0     H41752  10.128  -0.077   5.709  1.6270 -1.3329 -2.6865
  303MOL0     H41753  10.101  -0.289   5.592  0.3323 -0.2746 -1.2639
  303MOL0     H41754   9.949  -0.225   5.517  0.4592  0.7054 -1.0878
  303MOL0     H41755  10.088  -0.037   5.430  1.1904 -0.1967  1.6229
  303MOL0     H41756  10.111  -0.197   5.350 -1.6603  0.1964 -0.6356
  303MOL0     H41757  10.289  -0.071   5.560  2.0210  1.6982 -1.7515
  303MOL0     H41758  10.310  -0.223   5.503  2.5929  0.2348 -1.1054
  303MOL0     H41759  10.454  -0.065   5.423  0.2751  3.2645  0.3993
  303MOL0     H41760  10.320   0.029   5.334 -2.3709 -2.3158 -1.1268
  303MOL0     H41761  10.333  -0.128   5.159 -2.9838  0.1600  2.5052
  303MOL0     H41762  10.493  -0.111   5.221 -0.7971  3.3872  0.7328
  303MOL0     H41763  10.202  -0.367   5.237  0.0923  1.8114  0.3511
  303MOL0     H41764  10.230  -0.620   5.381 -1.5661  2.7189 -1.6831
  303MOL0     H41765  10.377  -0.712   5.335  1.9609  1.3098 -1.5754
  303MOL0     H41766  10.152  -0.752   5.183  1.3172 -1.6471  0.0534
  303MOL0     H41767  10.182  -0.584   5.129  1.9243  1.3565  2.3614
  303MOL0     H41768  10.413  -0.637   5.076  0.1156 -1.0799  0.5100
  303MOL0     H41769  10.390  -0.803   5.131  0.4499  1.2061  3.3490
  303MOL0     H41770  10.248  -0.651   4.896  1.3789 -1.1093 -2.3648
  303MOL0     H41771  10.387  -0.751   4.876  0.9878  2.0144 -0.0034
  303MOL0     H41772  10.218  -0.731   4.689 -0.4874  0.3726 -0.2572
  303MOL0     H41773  10.019  -0.742   4.429  1.8658  5.9455  0.1657
  303MOL0     H41774  10.173  -0.813   4.378  1.1380 -2.3164  0.8916
  303MOL0     H41775  10.153  -0.673   4.485 -1.2517  0.1295 -1.8969
  303MOL0     H41776   9.799  -1.088   4.259  0.4090  1.9851 -1.0957
  303MOL0     H41777   9.761  -1.250   4.073  0.1025  0.0435 -0.5312
  303MOL0     H41778   9.833  -1.430   3.911  0.8366  0.6805  1.3813
  303MOL0     H41779   9.746  -1.286   3.866  1.5883  0.2613  5.2060
  303MOL0     H41780   9.735  -1.422   3.655  0.9479 -0.1564 -1.2457
  303MOL0     H41781   9.874  -1.337   3.611 -4.6770 -0.0120 -2.7255
  303MOL0     H41782   9.882  -1.607   3.769 -2.7921  0.8552  0.9327
  303MOL0     H41783  10.020  -1.507   3.723  0.7860 -0.5568  2.6894
  303MOL0     H41784   9.967  -1.536   3.476 -0.7722 -4.0677 -3.7051
  303MOL0     H41785   9.812  -1.599   3.520 -1.3012  0.8127  2.4561
  303MOL0     H41786  10.053  -1.756   3.605  2.3285  1.7144 -0.4727
  303MOL0     H41787   9.878  -1.802   3.592 -0.0100  1.7075  1.1716
  303MOL0     H41788  10.039  -1.879   3.413 -1.8696 -1.2736 -2.9751
  303MOL0     H41789  10.034  -1.710   3.351 -1.4209  0.1838 -1.0049
  303MOL0     H41790   9.781  -1.850   3.384 -1.3026  0.5445 -0.4038
  303MOL0     H41791   9.883  -1.903   3.257 -0.9783 -0.1246  0.8435
  303MOL0     H41792   9.907  -1.696   3.154 -2.6848  4.6091 -1.4434
  303MOL0     H41793   9.828  -1.606   3.272 -0.6754  0.4933 -2.2118
  303MOL0     H41794  10.165  -1.171   3.940  0.0113 -1.5455  0.4518
  303MOL0     H41795  10.210  -1.078   4.171 -0.5682 -1.1374  5.2996
  303MOL0     H41796   9.982  -1.168   4.705 -0.8044  0.8049 -0.8020
  303MOL0     H41797  10.063  -1.072   4.909 -0.7421 -1.1036 -1.1856
  303MOL0     H41798  10.025  -0.041   6.082  0.8182 -2.3215  1.6198
  303MOL0     H41799  10.041   0.111   6.285 -0.5180 -0.4511  1.3808
  303MOL0     H41800  10.056   0.224   6.569  0.3650  0.9378 -1.0889
  303MOL0     H41801  10.196   0.336   6.727 -0.1841 -1.9849 -0.8751
  303MOL0     H41802  10.206   0.534   7.050 -0.5386  1.5629 -0.3251
  303MOL0     H41803  10.219   0.385   6.938 -0.8475  1.0855 -1.2520
  303MOL0     H41804  10.421   0.537   7.016 -0.4350  2.4310 -0.1474
  303MOL0     H41805  10.367   0.643   6.887 -1.4625 -0.5623 -3.4101
  303MOL0     H41806  10.396   0.373   6.828  0.2822  0.0710  1.3905
  303MOL0     H41807  10.450   0.513   6.717  1.6519  2.2882  0.3888
  303MOL0     H41808  10.632   0.384   6.919  0.4432 -0.6404  0.0528
  303MOL0     H41809  10.636   0.560   6.874 -0.7999 -0.0843 -2.6081
  303MOL0     H41810  10.770   0.401   6.521  2.0900  2.1006 -0.8754
  303MOL0     H41811   9.906   0.647   6.787  3.1181  0.9701  1.1806
  303MOL0     H41812   9.741   0.609   6.519  3.2567  2.3257  1.4745
  303MOL0     H41813   9.651   0.472   6.598 -0.1473 -0.6698  3.8040
  303MOL0     H41814   9.697   0.617   6.689  1.9210  1.5710 -0.8021
  304MOL0     O41815   1.272   6.821  10.773  0.2482 -0.0289  0.2264
  304MOL0     C41816   1.169   6.833  10.714  0.2692  0.3155  0.4482
  304MOL0     O41817   1.088   6.725  10.682  0.1623 -0.4102  0.0912
  304MOL0     C41818   1.135   6.609  10.727  0.0127 -0.4760 -0.7132
  304MOL0     C41819   1.053   6.539  10.820  0.2831 -1.0102  0.1969
  304MOL0     C41820   1.086   6.409  10.856  0.0560  0.0666  0.1318
  304MOL0     C41821   1.203   6.344  10.813  0.1601 -0.3286 -0.3485
  304MOL0     O41822   1.242   6.228  10.872  0.1398 -0.3403  0.4409
  304MOL0     C41823   1.356   6.153  10.824  0.0251 -0.1806 -0.6766
  304MOL0     C41824   1.411   6.036  10.909  0.3742 -1.1161 -0.6163
  304MOL0     C41825   1.534   5.971  10.836  0.4188 -0.2104 -0.6005
  304MOL0     C41826   1.597   5.855  10.920  0.0408  0.2259 -0.0130
  304MOL0     C41827   1.629   5.896  11.061 -0.2170  0.0770  0.2412
  304MOL0     C41828   1.739   5.816  11.137 -0.1328 -0.2488 -0.3486
  304MOL0     C41829   1.718   5.802  11.291  0.5191  0.1715  0.1408
  304MOL0     C41830   1.651   5.664  11.309  0.1586 -0.1484  0.4319
  304MOL0     N41831   1.555   5.660  11.419 -0.9922  0.0942  0.8997
  304MOL0     C41832   1.590   5.714  11.546 -0.1028  0.2390  0.3038
  304MOL0     C41833   1.475   5.701  11.617 -0.0382  0.1369  0.1013
  304MOL0     C41834   1.457   5.746  11.751 -0.9309  0.5034 -0.2064
  304MOL0     C41835   1.346   5.850  11.749  1.2581 -0.3378  0.3971
  304MOL0     C41836   1.397   5.991  11.707 -0.3068 -0.2684  0.2063
  304MOL0     C41837   1.304   6.098  11.762  0.5169 -0.2338  0.3954
  304MOL0     O41838   1.302   6.088  11.904  0.2466  0.2306  0.1132
  304MOL0     C41839   1.191   6.141  11.965  0.4711  0.2365 -0.7362
  304MOL0     C41840   1.102   6.229  11.908 -0.4651 -0.0143  0.0532
  304MOL0     C41841   0.974   6.254  11.961  1.3496  0.7311  0.0351
  304MOL0     C41842   0.863   6.322  11.876 -0.1520 -0.4553 -1.0889
  304MOL0     C41843   0.945   6.204  12.090 -0.1522 -0.0471  0.2073
  304MOL0     C41844   0.827   6.248  12.168  0.0391 -0.7666 -0.4278
  304MOL0     O41845   0.761   6.153  12.236 -0.3590 -0.2581  0.3629
  304MOL0     C41846   0.648   6.180  12.315 -0.1117  0.0592 -0.0731
  304MOL0     C41847   0.631   6.296  12.394 -0.4172  0.6837  0.3883
  304MOL0     C41848   0.508   6.314  12.473 -0.0763  0.2926  0.7166
  304MOL0     C41849   0.406   6.227  12.463 -0.1984  0.0145  0.4979
  304MOL0     O41850   0.295   6.257  12.537  0.5334 -0.9137  0.5297
  304MOL0     C41851   0.267   6.169  12.643  0.3266 -0.0491  0.5782
  304MOL0     C41852   0.312   6.228  12.780  0.3933  0.2799 -0.4689
  304MOL0     C41853   0.228   6.353  12.807 -0.2037  0.0783  0.6022
  304MOL0     C41854   0.088   6.312  12.873  0.2608  0.2602  0.1086
  304MOL0     C41855   0.049   6.416  12.982  0.0489  0.6901 -0.2909
  304MOL0     C41856  -0.074   6.382  13.071  0.5722 -0.0796  0.7597
  304MOL0     C41857  -0.050   6.263  13.159 -0.3112  0.8306  0.1730
  304MOL0     C41858  -0.138   6.139  13.132 -0.4571 -0.5980  0.0159
  304MOL0    Cl41859  -0.305   6.195  13.150 -0.1172 -0.4749 -0.3093
  304MOL0     C41860   0.420   6.108  12.382 -0.2781 -0.9028  0.6245
  304MOL0     C41861   0.534   6.091  12.306  0.3102 -0.1984 -0.7879
  304MOL0     O41862   0.796   6.370  12.175  0.0448  0.6177  0.0069
  304MOL0     C41863   1.040   6.113  12.156  1.4262 -0.0394  0.2787
  304MOL0     C41864   1.155   6.084  12.090 -0.0040  0.3043 -0.1462
  304MOL0     N41865   1.380   5.623  11.552 -0.1788 -0.2251  0.4098
  304MOL0     N41866   1.423   5.625  11.426  0.1689  0.0057 -0.7966
  304MOL0     C41867   1.285   6.425  10.728 -0.8664 -1.3990 -0.9081
  304MOL0     C41868   1.251   6.548  10.681 -0.0253  0.2270 -0.0833
  304MOL0     C41869   1.124   6.975  10.677 -0.5213 -0.2745  0.3202
  304MOL0     C41870   0.992   6.992  10.616 -0.1340  0.0945 -0.3448
  304MOL0     C41871   0.935   7.120  10.609  0.5931  0.2702 -0.7421
  304MOL0     C41872   1.010   7.233  10.640  0.7882 -0.0359 -0.0249
  304MOL0     O41873   0.954   7.361  10.645  0.3130  0.0366 -0.1964
  304MOL0     C41874   0.839   7.370  10.742 -0.1737 -0.0584 -0.5266
  304MOL0     C41875   0.877   7.321  10.880 -0.4632 -0.7288 -0.1987
  304MOL0     C41876   0.995   7.403  10.934 -0.7722  0.1573  0.5632
  304MOL0     C41877   0.991   7.417  11.087 -0.4656  0.3247 -0.0742
  304MOL0     C41878   0.963   7.311  11.181 -0.1259  0.2085  0.3063
  304MOL0     C41879   0.944   7.224  11.260 -0.5099 -0.7233  0.6078
  304MOL0     C41880   1.142   7.214  10.667 -0.1829 -0.3388 -0.5486
  304MOL0     C41881   1.201   7.090  10.696  0.1207 -0.2919 -0.1186
  304MOL0     C41882   1.339   7.102  10.758  0.6512  0.0892  0.4730
  304MOL0     H41883   0.964   6.594  10.850 -0.0463 -1.0182 -0.7273
  304MOL0     H41884   1.033   6.334  10.913  2.5704 -3.1453 -1.4544
  304MOL0     H41885   1.444   6.216  10.806  1.1781 -2.0167 -1.8230
  304MOL0     H41886   1.323   6.105  10.731 -2.5269 -2.8433  1.3968
  304MOL0     H41887   1.439   6.075  11.007 -0.8727 -0.7287 -0.4025
  304MOL0     H41888   1.340   5.953  10.917  0.7079 -1.3283  0.2067
  304MOL0     H41889   1.485   5.937  10.745  1.3027  0.9283 -1.5275
  304MOL0     H41890   1.607   6.045  10.803  0.5295  0.0056  0.0984
  304MOL0     H41891   1.531   5.767  10.926  0.6617 -0.2811 -0.5038
  304MOL0     H41892   1.688   5.839  10.862 -0.3631 -0.4599 -0.4866
  304MOL0     H41893   1.534   5.868  11.106 -0.8849  2.0180  0.1543
  304MOL0     H41894   1.648   6.004  11.061  0.2137  0.1445 -3.9786
  304MOL0     H41895   1.754   5.719  11.088 -0.5376 -1.5893  2.0582
  304MOL0     H41896   1.829   5.875  11.122  1.4674 -2.0109  1.7334
  304MOL0     H41897   1.668   5.892  11.329  1.1213  0.3095  0.6385
  304MOL0     H41898   1.813   5.803  11.346  0.3783 -1.7254  0.4766
  304MOL0     H41899   1.594   5.650  11.217 -0.1331 -1.5452  0.8092
  304MOL0     H41900   1.728   5.587  11.312 -1.7996 -2.7299 -4.5082
  304MOL0     H41901   1.682   5.762  11.579 -0.1992  0.1588  0.7031
  304MOL0     H41902   1.547   5.793  11.791  0.3771  2.0190 -4.4223
  304MOL0     H41903   1.434   5.656  11.809  1.9049 -0.2645 -0.1666
  304MOL0     H41904   1.263   5.820  11.685 -0.5477  1.6833  1.6428
  304MOL0     H41905   1.306   5.851  11.851  1.2512  0.3560  0.3923
  304MOL0     H41906   1.503   6.003  11.736  1.0167 -3.5538 -2.6721
  304MOL0     H41907   1.393   5.987  11.598  2.2852 -1.1757  0.0615
  304MOL0     H41908   1.338   6.201  11.750 -0.4998  0.4502  2.7578
  304MOL0     H41909   1.205   6.079  11.719  0.5607  2.8386 -1.2987
  304MOL0     H41910   1.134   6.258  11.809 -1.0038 -0.6842 -0.3268
  304MOL0     H41911   0.887   6.309  11.770 -0.5112 -1.3133 -1.0749
  304MOL0     H41912   0.858   6.427  11.905 -1.1607 -1.0453  1.0754
  304MOL0     H41913   0.771   6.268  11.898  0.6726 -2.5148 -2.3602
  304MOL0     H41914   0.708   6.372  12.398 -0.1994  0.7232 -2.4378
  304MOL0     H41915   0.484   6.408  12.522  1.4423 -0.1420  2.3923
  304MOL0     H41916   0.163   6.139  12.659 -0.3242  2.2983  1.1846
  304MOL0     H41917   0.321   6.081  12.609  1.4496  1.4303 -1.7160
  304MOL0     H41918   0.296   6.147  12.851 -2.0402  2.5340  1.7898
  304MOL0     H41919   0.420   6.241  12.784  0.7452 -2.0331  4.5848
  304MOL0     H41920   0.235   6.408  12.712  0.5124  2.8818  2.1685
  304MOL0     H41921   0.288   6.413  12.876 -0.5058  0.8419  0.2010
  304MOL0     H41922   0.100   6.214  12.920  0.4744  1.7786  3.5805
  304MOL0     H41923   0.018   6.316  12.789 -1.7984  2.4961  1.7715
  304MOL0     H41924   0.136   6.432  13.045  1.0298  0.2430 -1.4903
  304MOL0     H41925   0.033   6.512  12.932  0.6559  1.2021  0.4837
  304MOL0     H41926  -0.163   6.375  13.009  0.7848  2.6387  0.0046
  304MOL0     H41927  -0.096   6.465  13.139  0.8542  0.4629  0.1948
  304MOL0     H41928  -0.075   6.298  13.259  1.4295 -0.8379  1.2599
  304MOL0     H41929   0.056   6.238  13.163 -0.7714 -1.1965  0.6764
  304MOL0     H41930  -0.114   6.060  13.204 -1.4784 -1.9866 -1.1096
  304MOL0     H41931  -0.117   6.111  13.028 -1.4544  1.7999 -0.9200
  304MOL0     H41932   0.337   6.038  12.378 -0.1638 -1.0256  0.3370
  304MOL0     H41933   0.539   6.001  12.247 -1.1475 -2.5030  2.3213
  304MOL0     H41934   1.005   6.067  12.248 -1.5148 -0.9919 -1.1954
  304MOL0     H41935   1.226   6.016  12.136 -0.2489  1.0945  1.4752
  304MOL0     H41936   1.382   6.390  10.692 -0.4585 -0.4401 -0.7852
  304MOL0     H41937   1.316   6.597  10.610  1.0254 -1.0005 -0.0087
  304MOL0     H41938   0.919   6.915  10.593 -2.0152  2.0716 -1.3770
  304MOL0     H41939   0.840   7.141  10.562  0.1738  1.8055  0.7080
  304MOL0     H41940   0.823   7.477  10.754 -0.2127  0.0476 -1.4854
  304MOL0     H41941   0.753   7.309  10.713  0.1596  0.4564 -2.7992
  304MOL0     H41942   0.902   7.215  10.881  0.8073 -0.4564 -0.8338
  304MOL0     H41943   0.784   7.330  10.938 -0.7565  1.0711 -0.8869
  304MOL0     H41944   1.081   7.341  10.907  0.5435  0.3544  3.7887
  304MOL0     H41945   1.022   7.494  10.880  3.6195 -1.2733 -0.0725
  304MOL0     H41946   0.903   7.479  11.104 -1.9759 -2.1305  1.7695
  304MOL0     H41947   1.076   7.472  11.130 -1.2929 -0.6613  3.1071
  304MOL0     H41948   0.933   7.136  11.320 -0.3604 -2.1174 -1.3249
  304MOL0     H41949   1.196   7.308  10.675  0.8162 -1.0243  1.7466
  304MOL0     H41950   1.348   7.034  10.843 -3.6215  0.6447  1.5709
  304MOL0     H41951   1.400   7.060  10.677 -1.9775  2.6022 -3.1130
  304MOL0     H41952   1.364   7.203  10.793 -1.6693 -0.3289  3.7635
  305MOL0     O41953   5.093   5.353  10.486  0.0056 -0.4422 -0.5707
  305MOL0     C41954   5.206   5.395  10.511 -0.8791 -0.9733 -0.5175
  305MOL0     O41955   5.265   5.491  10.436 -0.0892  0.0392  0.0645
  305MOL0     C41956   5.220   5.563  10.329  0.0769 -0.6826  0.5943
  305MOL0     C41957   5.095   5.560  10.286  0.4846 -0.2973 -0.0913
  305MOL0     C41958   5.057   5.642  10.174  0.2950 -0.9296  0.7720
  305MOL0     C41959   5.142   5.733  10.109  0.2232 -0.4440  0.7820
  305MOL0     O41960   5.089   5.811  10.013  0.1489  0.1427  0.9808
  305MOL0     C41961   5.131   5.953  10.029  0.6342 -0.2353  0.8670
  305MOL0     C41962   5.146   6.017   9.887 -0.7944  0.5121  0.6051
  305MOL0     C41963   5.020   6.046   9.828  0.0702  0.1657  0.4637
  305MOL0     C41964   5.064   6.118   9.703  0.1638  0.1277  0.4948
  305MOL0     C41965   4.936   6.154   9.631  0.8098 -0.1191  0.9490
  305MOL0     C41966   4.965   6.240   9.507  0.8004 -0.3017  0.4202
  305MOL0     C41967   4.832   6.259   9.425  0.1670  1.0283 -1.1804
  305MOL0     C41968   4.857   6.328   9.292  0.2628  0.0704  0.2339
  305MOL0     N41969   4.720   6.370   9.241 -0.7499 -0.0584 -0.6918
  305MOL0     C41970   4.665   6.494   9.263 -0.4084 -0.1574 -0.4805
  305MOL0     C41971   4.557   6.485   9.183 -0.3263 -0.1634  0.1880
  305MOL0     C41972   4.438   6.579   9.164 -0.9615 -0.3702 -1.1324
  305MOL0     C41973   4.473   6.717   9.113 -0.1456  0.0006 -0.0560
  305MOL0     C41974   4.370   6.824   9.117 -1.3579 -0.4366  0.6376
  305MOL0     C41975   4.249   6.807   9.026 -0.0932  0.5248  0.6160
  305MOL0     O41976   4.288   6.786   8.885 -0.0482 -0.0260  0.2413
  305MOL0     C41977   4.288   6.894   8.790  0.7251  0.4095 -0.5569
  305MOL0     C41978   4.269   7.035   8.815 -0.0169 -0.0086 -1.0980
  305MOL0     C41979   4.283   7.127   8.712 -1.0790 -1.5587  0.1531
  305MOL0     C41980   4.282   7.273   8.747  0.6021  0.7683 -0.6661
  305MOL0     C41981   4.280   7.082   8.576  0.2977  0.8226 -0.4167
  305MOL0     C41982   4.266   7.157   8.451 -0.3175 -0.2665  0.6405
  305MOL0     O41983   4.256   7.291   8.463 -0.1950  0.2713  0.0509
  305MOL0     C41984   4.230   7.375   8.351  0.3888 -0.8820 -0.4480
  305MOL0     C41985   4.111   7.367   8.284 -0.4684 -0.0324  0.0935
  305MOL0     C41986   4.064   7.474   8.197  0.2417 -0.3118  0.0308
  305MOL0     C41987   4.135   7.592   8.184  0.1435  0.5415 -0.7086
  305MOL0     O41988   4.082   7.700   8.127  0.5088  0.0492  0.2967
  305MOL0     C41989   3.973   7.677   8.040  0.7868 -0.6774 -0.0458
  305MOL0     C41990   3.948   7.803   7.958  0.3887 -0.6230  0.0882
  305MOL0     C41991   3.796   7.852   7.977 -0.4313 -0.7493 -0.0678
  305MOL0     C41992   3.744   7.911   7.842  0.1115  0.5590  0.4432
  305MOL0     C41993   3.599   7.959   7.842 -0.0861  0.8921 -0.5141
  305MOL0     C41994   3.570   8.110   7.881 -0.1536  0.1509 -0.2861
  305MOL0     C41995   3.422   8.125   7.945 -0.3348  0.2425 -0.0573
  305MOL0     C41996   3.414   8.208   8.074  0.4789  0.3306 -0.4167
  305MOL0    Cl41997   3.496   8.357   8.049  0.3913  0.8226 -0.3180
  305MOL0     C41998   4.256   7.601   8.251  0.0080 -0.4704 -0.4085
  305MOL0     C41999   4.295   7.493   8.339  0.2474  0.2236 -0.5009
  305MOL0     O42000   4.264   7.099   8.345 -0.0409  0.4307 -0.3095
  305MOL0     C42001   4.287   6.940   8.565  1.0237  0.9722  0.2247
  305MOL0     C42002   4.305   6.847   8.669 -1.0662  1.4400 -0.1038
  305MOL0     N42003   4.548   6.364   9.123  0.5396 -0.3237  0.1476
  305MOL0     N42004   4.644   6.288   9.164 -0.1881  0.2321  0.4247
  305MOL0     C42005   5.277   5.729  10.150 -0.1354  0.1332 -0.2249
  305MOL0     C42006   5.312   5.634  10.250 -0.4180 -0.1008  0.1083
  305MOL0     C42007   5.273   5.350  10.626 -0.5357  0.0901 -0.2671
  305MOL0     C42008   5.341   5.436  10.706 -0.7607 -0.2281  1.0438
  305MOL0     C42009   5.423   5.393  10.810 -0.1822  0.1132  0.5488
  305MOL0     C42010   5.447   5.258  10.837 -0.4231  0.0992  0.3280
  305MOL0     O42011   5.522   5.223  10.945 -0.6649  0.3022 -0.7524
  305MOL0     C42012   5.548   5.088  10.961 -0.4508 -0.0021  0.1577
  305MOL0     C42013   5.647   5.063  11.071 -0.7869  1.2829  0.2537
  305MOL0     C42014   5.787   5.122  11.044  0.4254 -0.2721  0.3824
  305MOL0     C42015   5.867   5.108  11.165 -0.4810 -0.6895  0.0398
  305MOL0     C42016   5.930   4.977  11.184  0.6616 -0.3661  0.6715
  305MOL0     C42017   5.980   4.871  11.201 -0.3659  0.5679  0.2847
  305MOL0     C42018   5.379   5.170  10.746  0.1880 -0.2588 -0.6167
  305MOL0     C42019   5.291   5.212  10.648 -0.3619  0.1009  0.1680
  305MOL0     C42020   5.239   5.103  10.555 -0.3499 -0.3405  0.1985
  305MOL0     H42021   5.009   5.519  10.338 -0.9181 -0.5890 -2.4504
  305MOL0     H42022   4.952   5.644  10.147  0.0367  1.9454  1.6595
  305MOL0     H42023   5.234   5.949  10.065  1.9903  1.0993 -2.4288
  305MOL0     H42024   5.064   6.004  10.100  0.5013 -0.5544  0.9732
  305MOL0     H42025   5.205   6.109   9.894  0.5459 -0.2173 -0.5973
  305MOL0     H42026   5.209   5.948   9.831  0.1490  1.6012  0.2852
  305MOL0     H42027   4.969   5.950   9.812 -3.7936  1.9389  0.8320
  305MOL0     H42028   4.951   6.103   9.892  0.9480  0.7289  0.9348
  305MOL0     H42029   5.116   6.208   9.737  1.9188 -1.5293  2.4693
  305MOL0     H42030   5.145   6.075   9.643  3.9788  3.6461  2.6132
  305MOL0     H42031   4.862   6.210   9.688  3.2851  2.5711  1.7783
  305MOL0     H42032   4.881   6.066   9.596  1.3075  0.7283 -2.3587
  305MOL0     H42033   5.012   6.335   9.533  1.3531 -0.4683  0.0555
  305MOL0     H42034   5.041   6.189   9.446  1.8169 -1.3184  2.4412
  305MOL0     H42035   4.759   6.323   9.475  1.4564  3.5327 -2.3376
  305MOL0     H42036   4.786   6.163   9.400 -0.2081  1.1118 -0.8185
  305MOL0     H42037   4.919   6.418   9.297 -1.5006  1.2638  2.4538
  305MOL0     H42038   4.899   6.259   9.218  0.4004  2.6697 -2.2707
  305MOL0     H42039   4.687   6.581   9.323 -3.4230  0.0192  0.5351
  305MOL0     H42040   4.391   6.585   9.263 -1.9180  2.0763 -1.6537
  305MOL0     H42041   4.373   6.535   9.088 -0.8769 -2.5384 -0.0083
  305MOL0     H42042   4.561   6.743   9.173  1.8160 -1.8958 -1.9389
  305MOL0     H42043   4.507   6.693   9.012  2.9303 -0.3904  0.9592
  305MOL0     H42044   4.344   6.846   9.221 -0.8197  0.0049  0.6826
  305MOL0     H42045   4.428   6.913   9.090  0.4249 -0.6197  3.4828
  305MOL0     H42046   4.188   6.720   9.052  0.1319 -1.8949 -5.3975
  305MOL0     H42047   4.186   6.896   9.040  0.2833  1.0120 -0.6787
  305MOL0     H42048   4.278   7.070   8.918  0.4010  2.3721 -1.8746
  305MOL0     H42049   4.356   7.340   8.704 -0.4301  3.5608  1.6183
  305MOL0     H42050   4.298   7.278   8.855 -0.0452  1.5952 -0.6053
  305MOL0     H42051   4.186   7.319   8.724  1.0358  1.1839 -1.7201
  305MOL0     H42052   4.041   7.284   8.278 -1.9174  1.2481 -2.8342
  305MOL0     H42053   3.978   7.436   8.142  0.0459 -2.9960  1.9962
  305MOL0     H42054   3.993   7.594   7.971 -1.0339 -0.5818 -0.7469
  305MOL0     H42055   3.888   7.642   8.099 -2.1941  2.4754 -2.0435
  305MOL0     H42056   4.006   7.892   7.985 -3.5585  1.9873  0.7516
  305MOL0     H42057   3.968   7.780   7.853  2.0135  1.7075 -0.1962
  305MOL0     H42058   3.793   7.927   8.056  0.8603 -1.3458  0.5932
  305MOL0     H42059   3.743   7.763   8.011 -2.2035  0.3547  0.1330
  305MOL0     H42060   3.745   7.822   7.779 -2.0077  1.3993 -0.8660
  305MOL0     H42061   3.810   7.981   7.790  1.1060  0.3668  1.4021
  305MOL0     H42062   3.579   7.951   7.735 -1.8452 -1.8353 -0.0852
  305MOL0     H42063   3.530   7.889   7.890 -0.4296  1.7198  0.2497
  305MOL0     H42064   3.584   8.164   7.787 -0.1840 -1.1670 -1.0825
  305MOL0     H42065   3.649   8.153   7.943  0.5953  1.8477 -2.3028
  305MOL0     H42066   3.385   8.026   7.974  1.9214 -0.3911  0.8381
  305MOL0     H42067   3.364   8.162   7.860 -0.3677 -0.3646 -0.3042
  305MOL0     H42068   3.465   8.140   8.143 -0.0962 -3.0061 -3.0049
  305MOL0     H42069   3.310   8.219   8.103  0.6672  1.4176 -0.0990
  305MOL0     H42070   4.316   7.691   8.257  0.0797 -0.5524  4.3271
  305MOL0     H42071   4.380   7.501   8.407 -0.6571 -1.6627  0.9462
  305MOL0     H42072   4.272   6.907   8.462 -3.0335  1.0401  0.6152
  305MOL0     H42073   4.318   6.740   8.658 -1.3625  1.4604 -0.7394
  305MOL0     H42074   5.350   5.785  10.092  0.3221  1.8207  1.8607
  305MOL0     H42075   5.419   5.627  10.270 -0.8089 -0.5275  2.2950
  305MOL0     H42076   5.343   5.545  10.706 -0.5932 -0.1392 -2.1320
  305MOL0     H42077   5.483   5.462  10.868 -0.4952  1.7759 -1.0105
  305MOL0     H42078   5.457   5.028  10.973  1.1863 -3.7553 -3.6237
  305MOL0     H42079   5.607   5.056  10.875  2.9068  1.4782  1.7271
  305MOL0     H42080   5.657   4.955  11.090 -4.6624  0.7061 -0.3002
  305MOL0     H42081   5.614   5.085  11.173  1.8531 -3.1476  2.4073
  305MOL0     H42082   5.816   5.074  10.950 -0.4673  0.2748 -0.1975
  305MOL0     H42083   5.789   5.227  11.013  1.8576 -0.7808 -1.3987
  305MOL0     H42084   5.811   5.126  11.258  0.8673 -0.0221  0.7465
  305MOL0     H42085   5.938   5.192  11.162  0.4032 -1.4570 -0.8595
  305MOL0     H42086   6.045   4.786  11.194  0.3091  0.9981  1.1170
  305MOL0     H42087   5.413   5.068  10.760  3.1476  0.3281 -2.4878
  305MOL0     H42088   5.255   4.998  10.580 -3.8265 -0.2155  3.9241
  305MOL0     H42089   5.130   5.100  10.557 -0.3372 -2.5638 -0.1446
  305MOL0     H42090   5.272   5.125  10.453 -0.2218 -3.4964 -0.5254
  306MOL0     O42091  11.222   5.619   7.694  0.2239 -0.2452 -0.6246
  306MOL0     C42092  11.160   5.513   7.694  0.0249 -0.0938  0.6659
  306MOL0     O42093  11.108   5.459   7.811 -0.3309 -0.5572  0.7418
  306MOL0     C42094  11.138   5.530   7.930  0.4552  0.3526  0.0777
  306MOL0     C42095  11.264   5.513   7.987 -0.0894  1.4049 -0.0835
  306MOL0     C42096  11.309   5.585   8.102 -0.4604 -0.1356  0.3786
  306MOL0     C42097  11.227   5.694   8.137  0.0878  0.2353  0.0085
  306MOL0     O42098  11.280   5.788   8.226  0.2493  0.4348 -0.2178
  306MOL0     C42099  11.202   5.829   8.342 -0.8862 -0.1275 -0.1432
  306MOL0     C42100  11.254   5.753   8.468  0.7077 -0.3499 -1.1111
  306MOL0     C42101  11.191   5.797   8.606  0.6509 -0.0228 -0.4063
  306MOL0     C42102  11.170   5.951   8.630  0.0656 -0.1754 -0.1611
  306MOL0     C42103  11.124   5.980   8.772  0.3650  0.0365  0.0700
  306MOL0     C42104  11.104   6.132   8.797  0.1119 -0.5064 -0.1004
  306MOL0     C42105  11.055   6.158   8.945  0.2347  0.0037  1.0846
  306MOL0     C42106  11.069   6.304   8.987  0.6018 -0.0702 -0.2470
  306MOL0     N42107  11.193   6.346   9.049 -0.0122 -0.1549  0.0789
  306MOL0     C42108  11.229   6.340   9.184 -0.4579 -0.1252  0.4113
  306MOL0     C42109  11.348   6.404   9.184 -0.1994  0.4590  1.1693
  306MOL0     C42110  11.424   6.441   9.309 -0.1790  0.3011 -1.2318
  306MOL0     C42111  11.488   6.315   9.365  0.4972  0.0372  1.0519
  306MOL0     C42112  11.595   6.237   9.288  0.1999  0.3462 -0.1633
  306MOL0     C42113  11.725   6.312   9.280 -0.7616  0.8683 -0.4588
  306MOL0     O42114  11.823   6.212   9.238 -0.3533 -0.6270  0.0974
  306MOL0     C42115  11.943   6.252   9.199  0.2919  0.2417 -0.1571
  306MOL0     C42116  11.990   6.378   9.226 -0.1723 -0.6708  0.0405
  306MOL0     C42117  12.118   6.421   9.186  0.1486 -0.0475 -0.0766
  306MOL0     C42118  12.145   6.571   9.198  0.0385  0.1345  2.4148
  306MOL0     C42119  12.202   6.334   9.123 -0.6946  0.2734 -0.6818
  306MOL0     C42120  12.337   6.368   9.079 -0.0404 -0.2530 -0.5356
  306MOL0     O42121  12.381   6.287   8.983  0.4846  0.2356  1.1350
  306MOL0     C42122  12.509   6.280   8.928  0.4159 -0.3639 -0.4103
  306MOL0     C42123  12.535   6.213   8.805  0.3597  1.2168 -0.4046
  306MOL0     C42124  12.657   6.227   8.736  0.3296 -0.3730  0.0704
  306MOL0     C42125  12.764   6.294   8.791  0.7711 -0.3626  1.1230
  306MOL0     O42126  12.879   6.311   8.734 -0.3483  0.3173  0.9990
  306MOL0     C42127  12.955   6.200   8.687  0.1168  0.3591  0.2793
  306MOL0     C42128  13.094   6.238   8.632 -0.5007 -0.6248 -0.0531
  306MOL0     C42129  13.182   6.268   8.754 -0.9622 -0.2425 -0.4489
  306MOL0     C42130  13.320   6.319   8.700  0.3224 -0.3601 -0.5642
  306MOL0     C42131  13.429   6.304   8.804 -0.0468 -0.0068 -0.6916
  306MOL0     C42132  13.397   6.361   8.947 -1.0754 -0.9545 -0.1081
  306MOL0     C42133  13.521   6.399   9.029  0.0353 -0.0215  0.3624
  306MOL0     C42134  13.471   6.437   9.176  0.1242 -0.2348  0.0551
  306MOL0    Cl42135  13.606   6.408   9.289 -0.1976 -0.1319 -0.0065
  306MOL0     C42136  12.747   6.347   8.917  0.2951 -0.5708 -0.0350
  306MOL0     C42137  12.618   6.347   8.979 -0.0550 -0.7117  0.3348
  306MOL0     O42138  12.402   6.444   9.150 -0.3339  0.2156 -0.7733
  306MOL0     C42139  12.169   6.192   9.118 -0.9406 -0.5448 -0.1917
  306MOL0     C42140  12.043   6.158   9.157 -0.3175  1.0741 -0.4067
  306MOL0     N42141  11.387   6.434   9.058 -0.3323  0.6507 -0.1979
  306MOL0     N42142  11.297   6.401   8.974  0.5646 -0.0899  0.0174
  306MOL0     C42143  11.104   5.714   8.084 -0.0730  0.0500 -0.2975
  306MOL0     C42144  11.060   5.635   7.971  0.1686  0.3804 -0.5911
  306MOL0     C42145  11.129   5.441   7.566  0.0899  0.0528  1.0058
  306MOL0     C42146  11.203   5.485   7.456  0.6428  0.7002  0.3362
  306MOL0     C42147  11.203   5.411   7.338 -0.4095  0.4500  0.7888
  306MOL0     C42148  11.122   5.297   7.316  0.7849 -1.0067 -0.3539
  306MOL0     O42149  11.113   5.249   7.186 -0.0035 -0.3249 -0.0962
  306MOL0     C42150  11.002   5.174   7.156  0.0702 -0.8707 -0.4136
  306MOL0     C42151  10.871   5.263   7.153  0.0145 -0.4040 -1.0807
  306MOL0     C42152  10.749   5.200   7.093 -0.5239  0.1810 -0.0746
  306MOL0     C42153  10.631   5.295   7.063 -0.0483 -0.9653  0.5640
  306MOL0     C42154  10.679   5.388   6.959 -0.1707  1.2093  0.2560
  306MOL0     C42155  10.720   5.477   6.883  0.2984  1.0021  0.6344
  306MOL0     C42156  11.037   5.264   7.421  0.6271  0.7709 -0.2192
  306MOL0     C42157  11.034   5.346   7.543 -0.2212  0.7521  0.4530
  306MOL0     C42158  10.922   5.316   7.638  0.1655  0.1102 -0.2660
  306MOL0     H42159  11.324   5.451   7.922 -1.5088  1.9984 -2.0496
  306MOL0     H42160  11.408   5.562   8.140  0.1323 -1.4526 -1.7550
  306MOL0     H42161  11.093   5.817   8.330 -1.5457  2.3254  2.3891
  306MOL0     H42162  11.209   5.937   8.356 -2.4685 -0.2522  2.4692
  306MOL0     H42163  11.256   5.644   8.455  4.3441 -0.2633 -2.2989
  306MOL0     H42164  11.356   5.791   8.478 -0.2326  1.8524  1.2383
  306MOL0     H42165  11.094   5.752   8.627  0.8705  0.3038  1.4244
  306MOL0     H42166  11.256   5.767   8.689 -1.2066  2.9031  2.3096
  306MOL0     H42167  11.263   6.005   8.613 -1.4525  2.4174 -0.7017
  306MOL0     H42168  11.093   5.986   8.561 -0.7248 -3.9818 -1.4327
  306MOL0     H42169  11.204   5.956   8.843 -0.2523  0.2273  0.8480
  306MOL0     H42170  11.028   5.927   8.782 -1.5213  2.5367 -3.0868
  306MOL0     H42171  11.195   6.189   8.778 -1.5251  1.1979 -3.8740
  306MOL0     H42172  11.034   6.168   8.721  2.9308  2.9808 -1.3193
  306MOL0     H42173  11.098   6.090   9.019 -2.2228 -2.6462  0.2875
  306MOL0     H42174  10.948   6.133   8.945  0.6836 -2.1700  0.0772
  306MOL0     H42175  11.043   6.374   8.907 -2.4496 -0.0350  0.6312
  306MOL0     H42176  10.990   6.325   9.059  1.6457 -0.4742  1.0584
  306MOL0     H42177  11.171   6.314   9.272 -1.7367  0.7071 -0.1543
  306MOL0     H42178  11.355   6.488   9.380 -0.1331 -1.9225  0.3925
  306MOL0     H42179  11.502   6.510   9.275 -0.2421  1.6016  1.0383
  306MOL0     H42180  11.529   6.341   9.463  2.0359 -1.1337  0.7535
  306MOL0     H42181  11.408   6.242   9.376 -1.0137  1.5143  0.3407
  306MOL0     H42182  11.609   6.141   9.339  1.0980  2.3707  3.8253
  306MOL0     H42183  11.545   6.213   9.193 -1.9597 -5.1249  1.9504
  306MOL0     H42184  11.717   6.396   9.210 -3.3718 -1.0231 -2.6419
  306MOL0     H42185  11.746   6.340   9.384 -3.6718 -0.5261  0.6297
  306MOL0     H42186  11.923   6.453   9.268  0.5287 -0.1973  0.3426
  306MOL0     H42187  12.232   6.593   9.260  2.4608  0.2812 -0.7834
  306MOL0     H42188  12.052   6.623   9.224 -0.0627  0.6755  1.0598
  306MOL0     H42189  12.184   6.601   9.101  1.2602  0.3507  2.9503
  306MOL0     H42190  12.455   6.154   8.760  0.5827 -0.3157  1.0692
  306MOL0     H42191  12.660   6.192   8.633  3.7777  1.5970 -0.6629
  306MOL0     H42192  12.965   6.130   8.770 -0.5285 -0.9298 -0.6870
  306MOL0     H42193  12.898   6.149   8.608 -0.1791 -1.5606  1.6680
  306MOL0     H42194  13.133   6.151   8.579 -2.0599 -3.2164  2.7518
  306MOL0     H42195  13.083   6.323   8.564  0.8269  3.5834  4.3849
  306MOL0     H42196  13.194   6.171   8.804 -1.0352 -0.1242 -0.1988
  306MOL0     H42197  13.150   6.341   8.828  3.0828 -1.2188  2.6199
  306MOL0     H42198  13.312   6.425   8.677  3.2040  0.3104  1.1420
  306MOL0     H42199  13.343   6.253   8.615 -0.8149 -2.3347  0.5697
  306MOL0     H42200  13.464   6.201   8.806  2.7504  0.7342  4.0432
  306MOL0     H42201  13.509   6.367   8.764  1.0855 -0.1530  1.2369
  306MOL0     H42202  13.335   6.286   8.998  0.3582 -0.2735  2.8414
  306MOL0     H42203  13.333   6.449   8.935 -0.5535 -0.7827 -2.0483
  306MOL0     H42204  13.574   6.483   8.983 -2.0943 -0.3312 -3.0208
  306MOL0     H42205  13.583   6.310   9.042  0.8067  0.8691  4.0453
  306MOL0     H42206  13.379   6.383   9.198 -0.0346  0.8940  2.4309
  306MOL0     H42207  13.442   6.542   9.170  0.9912  0.2385  2.6490
  306MOL0     H42208  12.822   6.389   8.983  1.1994  1.4788 -2.2128
  306MOL0     H42209  12.608   6.390   9.078 -1.0807  3.0244 -1.2204
  306MOL0     H42210  12.239   6.122   9.073 -1.3613 -1.6466  0.7981
  306MOL0     H42211  12.025   6.051   9.154  1.2487  0.6954  1.4923
  306MOL0     H42212  11.040   5.798   8.107  1.3086  0.7611  1.0863
  306MOL0     H42213  10.963   5.644   7.922 -1.2100 -1.3972  1.6211
  306MOL0     H42214  11.284   5.558   7.462  0.3532  1.1812 -1.2100
  306MOL0     H42215  11.267   5.447   7.258 -1.4793 -0.4403 -0.5120
  306MOL0     H42216  11.022   5.134   7.056  1.8447  0.0530 -0.4865
  306MOL0     H42217  10.983   5.086   7.217 -1.5583 -0.8381 -0.8256
  306MOL0     H42218  10.904   5.346   7.090  1.6257 -0.5574 -0.4801
  306MOL0     H42219  10.840   5.300   7.251 -0.3608 -1.4516 -0.7926
  306MOL0     H42220  10.778   5.160   6.996 -2.9004  1.0437 -1.2227
  306MOL0     H42221  10.710   5.123   7.160  1.5007  0.7189  1.8363
  306MOL0     H42222  10.600   5.358   7.147  0.2809  2.4704 -1.6701
  306MOL0     H42223  10.543   5.244   7.024 -0.3895  0.3051 -0.3763
  306MOL0     H42224  10.755   5.551   6.815  1.2137 -1.7933 -2.1452
  306MOL0     H42225  10.967   5.181   7.422  1.8863 -0.5609  4.2174
  306MOL0     H42226  10.891   5.399   7.702 -3.1455 -2.2344  1.5073
  306MOL0     H42227  10.831   5.284   7.586 -0.7574  0.0126  1.3567
  306MOL0     H42228  10.963   5.237   7.703 -0.4172 -0.6623 -0.8105
  307MOL0     O42229   3.010   7.619   8.007  0.0822  0.1376 -0.8818
  307MOL0     C42230   3.087   7.692   8.069  0.7960 -0.7738  1.0098
  307MOL0     O42231   3.219   7.717   8.038  0.5862 -0.5029 -0.0619
  307MOL0     C42232   3.273   7.660   7.926 -0.2456  0.0962 -0.1121
  307MOL0     C42233   3.242   7.708   7.798  0.3196 -0.7337  0.5376
  307MOL0     C42234   3.303   7.644   7.682  0.5523  0.3910 -0.3326
  307MOL0     C42235   3.395   7.541   7.694  0.2955  0.5968 -0.2790
  307MOL0     O42236   3.434   7.480   7.580 -0.0210  0.5544  0.1222
  307MOL0     C42237   3.499   7.354   7.573  1.1274  0.7130 -0.8656
  307MOL0     C42238   3.533   7.311   7.431  0.3447 -0.0750  0.1153
  307MOL0     C42239   3.628   7.400   7.357  0.6596 -0.5621  0.3940
  307MOL0     C42240   3.611   7.398   7.212 -1.1202 -0.1889  1.0815
  307MOL0     C42241   3.733   7.455   7.124 -0.1113  0.4665  0.3602
  307MOL0     C42242   3.760   7.598   7.145  0.3025  0.5247 -0.3241
  307MOL0     C42243   3.645   7.690   7.092 -0.5767  0.1631  0.0812
  307MOL0     C42244   3.692   7.839   7.096 -0.1256  0.1351 -0.4445
  307MOL0     N42245   3.608   7.928   7.015  0.7049  0.1704  0.0267
  307MOL0     C42246   3.631   7.957   6.886 -0.2124  0.1524 -0.5330
  307MOL0     C42247   3.515   8.011   6.846  0.3128  0.2473  1.0135
  307MOL0     C42248   3.488   8.080   6.714  0.1891  0.4607  0.2048
  307MOL0     C42249   3.467   7.965   6.612 -1.0425 -0.4644 -0.0405
  307MOL0     C42250   3.396   8.022   6.477 -0.1381  0.2158  0.2843
  307MOL0     C42251   3.287   7.936   6.418 -0.3014 -0.2341 -0.4127
  307MOL0     O42252   3.275   7.933   6.274  0.4196  0.7578 -0.1048
  307MOL0     C42253   3.280   8.054   6.201  0.1725 -1.1702 -0.3895
  307MOL0     C42254   3.230   8.172   6.250 -0.9797 -0.3016 -1.2737
  307MOL0     C42255   3.231   8.290   6.176  0.4784 -0.4870 -1.2017
  307MOL0     C42256   3.163   8.410   6.237  0.6245  0.0022  0.4375
  307MOL0     C42257   3.279   8.292   6.041 -0.4376  0.5697  0.4717
  307MOL0     C42258   3.262   8.397   5.943 -0.2391 -0.3935 -0.1900
  307MOL0     O42259   3.282   8.358   5.802 -0.4098  0.5792 -0.2148
  307MOL0     C42260   3.223   8.440   5.705 -0.3716  0.1934  0.4282
  307MOL0     C42261   3.117   8.535   5.731 -0.1378  0.6565  0.0769
  307MOL0     C42262   3.079   8.633   5.630  0.0835  0.0073  0.0677
  307MOL0     C42263   3.156   8.637   5.510  0.2607 -0.4107  0.8572
  307MOL0     O42264   3.105   8.729   5.416 -0.4033 -0.5281  0.2481
  307MOL0     C42265   3.201   8.822   5.341 -0.6077  0.2497 -0.3376
  307MOL0     C42266   3.258   8.920   5.442  1.2867  0.2659 -0.6489
  307MOL0     C42267   3.155   9.012   5.506 -0.6610  0.0986 -0.6129
  307MOL0     C42268   3.216   9.109   5.614 -0.0212  0.4599 -1.3190
  307MOL0     C42269   3.110   9.201   5.682  0.6674 -0.1958  1.9959
  307MOL0     C42270   3.167   9.276   5.803  0.4568 -0.4403 -0.0301
  307MOL0     C42271   3.066   9.384   5.857 -0.8982  0.4878  0.2005
  307MOL0     C42272   3.124   9.469   5.968  0.1141 -0.1112 -0.0925
  307MOL0    Cl42273   2.998   9.583   6.024 -0.0530  0.0084 -0.1285
  307MOL0     C42274   3.247   8.537   5.482  0.0573 -1.2821 -0.7243
  307MOL0     C42275   3.286   8.447   5.580 -0.1785  0.4120 -0.0132
  307MOL0     O42276   3.228   8.510   5.979 -0.0124  0.2587  0.0730
  307MOL0     C42277   3.325   8.164   5.993  0.3574  0.0504 -0.0489
  307MOL0     C42278   3.326   8.042   6.073  0.3519  0.3334  0.2436
  307MOL0     N42279   3.419   8.012   6.949  0.3869 -0.7702  0.1136
  307MOL0     N42280   3.482   7.975   7.056 -0.0701  0.2458  0.2467
  307MOL0     C42281   3.428   7.496   7.830  1.1452  0.6543  0.0860
  307MOL0     C42282   3.365   7.559   7.949 -1.1880  1.0212 -0.0557
  307MOL0     C42283   3.018   7.758   8.179 -0.2450 -0.0397  0.3328
  307MOL0     C42284   2.951   7.682   8.286  0.1612 -0.3001  0.3526
  307MOL0     C42285   2.901   7.754   8.394  0.1250 -0.7179 -1.4699
  307MOL0     C42286   2.922   7.885   8.413  0.1966  0.7713  0.4710
  307MOL0     O42287   2.888   7.963   8.519  0.6109 -0.3587  0.5010
  307MOL0     C42288   2.812   7.909   8.632  0.1526 -0.4558  0.5108
  307MOL0     C42289   2.669   7.924   8.587 -0.1938  0.8795  0.1427
  307MOL0     C42290   2.595   7.815   8.653 -0.3651 -1.2562  0.1860
  307MOL0     C42291   2.439   7.846   8.644  0.7211 -0.3466  0.0627
  307MOL0     C42292   2.351   7.757   8.733 -0.3985 -0.8838 -0.4318
  307MOL0     C42293   2.277   7.698   8.816 -0.6902 -0.4893  0.7145
  307MOL0     C42294   2.996   7.950   8.315  0.9316  0.0094  0.7386
  307MOL0     C42295   3.039   7.893   8.193  0.3651  0.1969 -0.4952
  307MOL0     C42296   3.113   7.976   8.094  0.3717  0.0446  0.2183
  307MOL0     H42297   3.180   7.797   7.796  1.6050  0.2198  1.4029
  307MOL0     H42298   3.273   7.681   7.584  0.9859  2.6382  0.3373
  307MOL0     H42299   3.433   7.279   7.618  3.1541 -4.2203 -5.0577
  307MOL0     H42300   3.590   7.349   7.634 -1.4933  0.3605  3.4316
  307MOL0     H42301   3.578   7.211   7.430  0.7896  0.0902  1.6620
  307MOL0     H42302   3.442   7.306   7.370  0.3058 -0.6559  0.2141
  307MOL0     H42303   3.612   7.505   7.384 -0.8198  0.1870 -2.8753
  307MOL0     H42304   3.731   7.376   7.386  1.5586  1.6755 -0.6907
  307MOL0     H42305   3.588   7.294   7.184 -0.3354 -0.9937  3.2277
  307MOL0     H42306   3.519   7.450   7.184  0.9813  1.6914 -3.2287
  307MOL0     H42307   3.715   7.448   7.016  1.3175  2.7933 -0.0766
  307MOL0     H42308   3.824   7.398   7.145  1.2716  2.0569 -1.0614
  307MOL0     H42309   3.788   7.609   7.251  1.9318  2.7835 -0.9102
  307MOL0     H42310   3.849   7.620   7.085  0.6062  0.5699  0.1340
  307MOL0     H42311   3.560   7.679   7.161  0.4266  0.7859  1.4689
  307MOL0     H42312   3.616   7.653   6.993 -3.2434 -2.6192  1.6925
  307MOL0     H42313   3.689   7.875   7.199  4.4758 -4.1129  1.5925
  307MOL0     H42314   3.796   7.851   7.063  0.1978 -3.4590 -1.1490
  307MOL0     H42315   3.728   7.950   6.837  0.2027  1.6484 -0.0043
  307MOL0     H42316   3.571   8.147   6.689 -0.0339  1.0891  1.1013
  307MOL0     H42317   3.405   8.149   6.729 -0.0398  0.0729  0.7468
  307MOL0     H42318   3.568   7.930   6.591 -0.7292  0.6260 -0.4396
  307MOL0     H42319   3.407   7.883   6.652 -0.8955  0.5344  2.4117
  307MOL0     H42320   3.352   8.121   6.494  1.3607  1.4947 -2.5284
  307MOL0     H42321   3.471   8.034   6.398 -0.7955 -1.6437 -0.6845
  307MOL0     H42322   3.288   7.836   6.462  3.4780  0.6770  2.0513
  307MOL0     H42323   3.195   7.980   6.458 -0.0522 -0.1373  0.0599
  307MOL0     H42324   3.174   8.177   6.342 -1.9690 -1.5742 -1.7771
  307MOL0     H42325   3.234   8.493   6.239 -0.0725  0.7154  4.3156
  307MOL0     H42326   3.124   8.392   6.338 -1.3642 -1.2096 -0.4815
  307MOL0     H42327   3.080   8.442   6.173  0.5764  3.1478  1.9048
  307MOL0     H42328   3.047   8.535   5.814 -0.4937 -1.3847 -0.1798
  307MOL0     H42329   3.003   8.705   5.658 -0.2382  0.4473 -1.8307
  307MOL0     H42330   3.287   8.770   5.299 -0.5563 -1.0413  1.2730
  307MOL0     H42331   3.151   8.882   5.263 -3.5546 -0.1240  1.1031
  307MOL0     H42332   3.317   8.884   5.527  0.5468 -1.4934 -0.8279
  307MOL0     H42333   3.330   8.990   5.398 -0.2793  2.0889 -0.4076
  307MOL0     H42334   3.080   8.956   5.563  0.0247 -0.1724  0.0404
  307MOL0     H42335   3.106   9.074   5.430  0.4045 -2.0023 -3.1281
  307MOL0     H42336   3.298   9.170   5.574 -0.0169  1.4793  0.1638
  307MOL0     H42337   3.254   9.049   5.697 -3.7175 -0.0207  0.2203
  307MOL0     H42338   3.093   9.288   5.618  3.9879 -0.1214  1.0548
  307MOL0     H42339   3.020   9.141   5.697  1.7525 -2.1691  1.0030
  307MOL0     H42340   3.260   9.320   5.764 -0.1802  1.2580  0.2943
  307MOL0     H42341   3.203   9.208   5.880  2.7825 -1.8975 -2.2275
  307MOL0     H42342   2.979   9.335   5.900 -2.6621 -0.5800 -4.1178
  307MOL0     H42343   3.022   9.449   5.781 -3.2563  1.0266  1.9012
  307MOL0     H42344   3.207   9.529   5.930 -2.2302  2.3895 -1.6221
  307MOL0     H42345   3.157   9.399   6.045  0.4907 -2.1621 -2.0169
  307MOL0     H42346   3.276   8.537   5.378 -2.5204 -1.0247 -1.5106
  307MOL0     H42347   3.372   8.383   5.567  0.4339  1.5923 -2.1111
  307MOL0     H42348   3.364   8.156   5.893 -1.1497 -2.0960 -0.5220
  307MOL0     H42349   3.363   7.956   6.018 -1.6503  1.3990 -3.0794
  307MOL0     H42350   3.497   7.412   7.843 -0.3597 -0.3888  1.9482
  307MOL0     H42351   3.388   7.524   8.049 -2.5559  1.0661  0.2931
  307MOL0     H42352   2.928   7.577   8.273  1.9276 -0.6058 -0.6803
  307MOL0     H42353   2.831   7.706   8.462 -0.8539  2.6623  0.0737
  307MOL0     H42354   2.837   7.804   8.650  0.0746 -0.1180  3.0112
  307MOL0     H42355   2.829   7.952   8.731 -1.8556  1.0053  0.2814
  307MOL0     H42356   2.649   7.900   8.482  0.6053 -0.4301  0.2671
  307MOL0     H42357   2.641   8.024   8.621 -3.9587 -0.1897  0.5858
  307MOL0     H42358   2.614   7.713   8.618 -3.7808 -1.3722 -1.7380
  307MOL0     H42359   2.612   7.817   8.761  2.2918 -2.1626 -0.1435
  307MOL0     H42360   2.410   7.825   8.541 -0.1684 -4.9797  1.0358
  307MOL0     H42361   2.423   7.951   8.670  2.8247 -0.1811  0.8924
  307MOL0     H42362   2.199   7.659   8.877 -4.0017 -1.0800 -3.4299
  307MOL0     H42363   3.007   8.058   8.321 -0.0854  0.2084 -0.3561
  307MOL0     H42364   3.061   8.071   8.079  0.6049  0.8024  3.4141
  307MOL0     H42365   3.212   7.988   8.140  0.4849 -2.8368  0.9109
  307MOL0     H42366   3.136   7.940   7.994  2.0623 -3.1201  1.6000
  308MOL0     O42367   1.053  10.549   5.492 -0.1319  1.0713 -0.1307
  308MOL0     C42368   1.136  10.477   5.547 -0.6541 -0.7187  0.5835
  308MOL0     O42369   1.271  10.479   5.522  0.1332 -0.0166 -0.6170
  308MOL0     C42370   1.315  10.591   5.447  0.0376  0.3105 -0.2239
  308MOL0     C42371   1.355  10.706   5.512  0.6222 -0.3898 -0.0633
  308MOL0     C42372   1.416  10.822   5.448 -0.6157  0.2542  0.1361
  308MOL0     C42373   1.445  10.809   5.314 -0.1375  0.4917 -0.4276
  308MOL0     O42374   1.514  10.911   5.252  0.1720  0.7339 -0.4889
  308MOL0     C42375   1.603  10.860   5.151 -0.1443  0.1779 -0.2498
  308MOL0     C42376   1.684  10.977   5.107 -0.4281 -0.2730 -0.0011
  308MOL0     C42377   1.758  10.952   4.974  0.6918 -0.1572  0.1664
  308MOL0     C42378   1.884  11.049   4.964 -0.0542 -0.4285  0.2375
  308MOL0     C42379   1.961  11.057   4.826  0.5826 -0.4199  0.7970
  308MOL0     C42380   2.024  10.921   4.785 -0.2966  0.0426  0.1789
  308MOL0     C42381   2.080  10.914   4.645  0.9003 -0.3112  0.5444
  308MOL0     C42382   2.106  10.769   4.600  0.6570 -0.1063 -0.0899
  308MOL0     N42383   1.990  10.679   4.608  0.6225  0.9609  0.2402
  308MOL0     C42384   1.899  10.699   4.509 -0.8415  0.8892  0.3731
  308MOL0     C42385   1.800  10.625   4.555  0.4832  0.3406 -0.2066
  308MOL0     C42386   1.675  10.588   4.468  0.5757 -1.3475  0.0604
  308MOL0     C42387   1.670  10.433   4.439 -0.4012 -0.1152 -0.1017
  308MOL0     C42388   1.620  10.337   4.554  0.2521  0.0275  0.9215
  308MOL0     C42389   1.636  10.193   4.516  0.5154  0.3232 -0.0977
  308MOL0     O42390   1.565  10.160   4.396  1.2434  0.3089 -0.3760
  308MOL0     C42391   1.482  10.042   4.393 -0.0081 -0.5611 -0.7231
  308MOL0     C42392   1.373  10.062   4.318 -0.0863  0.0489 -0.8309
  308MOL0     C42393   1.269   9.966   4.305  0.2995  0.3610  1.0681
  308MOL0     C42394   1.154  10.002   4.218 -0.7112  0.0496 -0.0827
  308MOL0     C42395   1.288   9.840   4.370 -0.1421  0.3563 -0.0677
  308MOL0     C42396   1.192   9.726   4.349  0.1183 -0.3410  0.3798
  308MOL0     O42397   1.149   9.659   4.458 -0.0362 -0.1694  0.3216
  308MOL0     C42398   1.067   9.555   4.447 -0.2127 -0.1569  1.0072
  308MOL0     C42399   0.935   9.562   4.404  0.4007  0.1057 -0.6832
  308MOL0     C42400   0.852   9.451   4.427  0.5798  0.2361 -0.7457
  308MOL0     C42401   0.904   9.327   4.465 -0.1657  0.2533  1.6027
  308MOL0     O42402   0.828   9.214   4.476  0.0290 -0.3771  0.3527
  308MOL0     C42403   0.846   9.144   4.596 -0.3488  0.0873 -0.1258
  308MOL0     C42404   0.706   9.089   4.624 -0.6284 -0.1037 -0.8875
  308MOL0     C42405   0.671   9.045   4.765 -0.0764 -0.5841  0.2842
  308MOL0     C42406   0.781   8.953   4.826  1.0941  0.7919 -0.8702
  308MOL0     C42407   0.732   8.920   4.965 -0.2098 -0.3724 -0.5243
  308MOL0     C42408   0.833   8.828   5.046 -0.2630 -0.7608 -0.2309
  308MOL0     C42409   0.759   8.781   5.178 -0.3200 -0.2960 -1.1027
  308MOL0     C42410   0.837   8.672   5.251 -0.6193 -0.1568  0.5096
  308MOL0    Cl42411   0.796   8.509   5.185 -0.0734  0.3677  0.0952
  308MOL0     C42412   1.041   9.320   4.495  0.3890  0.0843  0.0787
  308MOL0     C42413   1.123   9.434   4.491  0.0276 -0.6938  1.5252
  308MOL0     O42414   1.196   9.680   4.237  0.0870 -0.5079  0.3467
  308MOL0     C42415   1.398   9.824   4.448 -0.3291  0.3168  0.4356
  308MOL0     C42416   1.502   9.915   4.453 -0.1357  0.7313  0.9046
  308MOL0     N42417   1.831  10.580   4.684 -0.0633  0.2067  0.0540
  308MOL0     N42418   1.950  10.608   4.711  0.2152 -0.5702 -0.8852
  308MOL0     C42419   1.396  10.688   5.235 -0.1705 -0.8085  0.0481
  308MOL0     C42420   1.333  10.588   5.301 -0.1121 -0.1039 -0.6787
  308MOL0     C42421   1.094  10.396   5.666 -0.4546 -0.0880  0.3979
  308MOL0     C42422   0.984  10.442   5.743  0.4542 -0.0716  0.2477
  308MOL0     C42423   0.947  10.379   5.863 -0.3549 -0.2360 -0.1109
  308MOL0     C42424   1.006  10.260   5.901  0.7673 -0.8098  0.3267
  308MOL0     O42425   0.989  10.191   6.029  0.3184 -1.0001  0.2788
  308MOL0     C42426   0.913  10.265   6.120 -0.8381  0.3654 -0.2855
  308MOL0     C42427   0.899  10.177   6.241  0.0256  0.3462 -0.4987
  308MOL0     C42428   1.020  10.164   6.323  0.0701  1.2442 -0.7770
  308MOL0     C42429   0.992  10.076   6.453  0.4855  0.3619  0.2080
  308MOL0     C42430   1.116  10.100   6.544 -0.1002 -0.3469  0.2658
  308MOL0     C42431   1.221  10.119   6.609  0.0563  0.3200  0.6937
  308MOL0     C42432   1.108  10.208   5.821  0.5635  0.4611  0.6736
  308MOL0     C42433   1.154  10.272   5.707  0.1310  0.3744  0.7572
  308MOL0     C42434   1.259  10.207   5.634 -0.6407 -0.8920 -0.3459
  308MOL0     H42435   1.335  10.700   5.618 -3.6959 -0.8360 -0.7341
  308MOL0     H42436   1.434  10.919   5.492 -1.7531 -0.0605  1.3701
  308MOL0     H42437   1.549  10.821   5.065 -0.4869 -0.4899  0.2634
  308MOL0     H42438   1.658  10.779   5.200 -1.3314  0.8171  2.2899
  308MOL0     H42439   1.627  11.070   5.106  0.2875  0.2161  1.6541
  308MOL0     H42440   1.754  10.988   5.190 -0.0955 -0.0965 -0.3009
  308MOL0     H42441   1.802  10.852   4.968  0.7801 -0.0286 -2.4611
  308MOL0     H42442   1.683  10.977   4.898 -0.8295 -1.4497  1.1696
  308MOL0     H42443   1.869  11.152   4.996  3.7533 -0.4588  2.7952
  308MOL0     H42444   1.958  11.013   5.037  0.5758  3.2636  1.6287
  308MOL0     H42445   2.042  11.130   4.815  1.7298 -1.8232 -0.7702
  308MOL0     H42446   1.890  11.075   4.744  0.7171  1.7353  1.1067
  308MOL0     H42447   2.097  10.879   4.855 -2.2710 -0.6984  1.9021
  308MOL0     H42448   1.942  10.849   4.790  0.0118 -0.3274  0.0295
  308MOL0     H42449   2.170  10.976   4.644  1.3151 -0.8461  2.3216
  308MOL0     H42450   2.010  10.954   4.571 -1.0319 -0.6629  2.1065
  308MOL0     H42451   2.151  10.767   4.501  2.4058 -2.4766  0.6479
  308MOL0     H42452   2.193  10.726   4.653  1.0805 -1.1585 -1.5799
  308MOL0     H42453   1.906  10.761   4.420  0.1459  0.4681  0.1464
  308MOL0     H42454   1.691  10.648   4.378 -0.3711  1.0569  1.4043
  308MOL0     H42455   1.593  10.623   4.531  2.7028  2.1396  1.2075
  308MOL0     H42456   1.609  10.420   4.349  2.3596  0.3118 -2.1606
  308MOL0     H42457   1.769  10.393   4.413 -0.4190 -1.3247  1.5401
  308MOL0     H42458   1.677  10.348   4.647 -1.0178  1.1511  1.5958
  308MOL0     H42459   1.514  10.351   4.577  0.3763  0.6967  1.1224
  308MOL0     H42460   1.741  10.169   4.500  0.7114  1.0976 -0.0120
  308MOL0     H42461   1.597  10.132   4.598  1.3429 -1.6305 -1.0927
  308MOL0     H42462   1.351  10.156   4.268  1.5688  0.4655 -0.8276
  308MOL0     H42463   1.133   9.914   4.156  2.7747 -3.0840  2.6749
  308MOL0     H42464   1.185  10.080   4.148 -0.1857  0.2244  0.3415
  308MOL0     H42465   1.063  10.025   4.274  0.1777  2.4614  0.4851
  308MOL0     H42466   0.891   9.656   4.371 -0.8115 -0.0505  0.4293
  308MOL0     H42467   0.750   9.473   4.395  1.0277  1.5606 -1.3529
  308MOL0     H42468   0.915   9.061   4.580 -0.7376 -0.6602  1.7867
  308MOL0     H42469   0.884   9.202   4.681 -1.6729 -2.5893  2.4850
  308MOL0     H42470   0.638   9.169   4.595 -0.5643 -0.4933 -2.1890
  308MOL0     H42471   0.702   9.008   4.550 -0.4525  0.6050 -1.6845
  308MOL0     H42472   0.578   8.990   4.757 -0.4888  0.2483 -0.9013
  308MOL0     H42473   0.648   9.127   4.834  1.6599  0.4725 -0.3193
  308MOL0     H42474   0.884   8.989   4.823  1.7559 -0.6852  1.2963
  308MOL0     H42475   0.780   8.860   4.768  1.1881  1.2367 -1.5939
  308MOL0     H42476   0.725   9.017   5.016  0.4935  0.3503 -1.7441
  308MOL0     H42477   0.635   8.870   4.969  0.3835 -1.5870 -0.7939
  308MOL0     H42478   0.930   8.877   5.058  0.1089 -1.5524  0.0733
  308MOL0     H42479   0.847   8.737   4.986 -1.1804 -0.3677 -1.0637
  308MOL0     H42480   0.664   8.738   5.145  0.6650 -2.4098 -1.3567
  308MOL0     H42481   0.746   8.869   5.243  3.3422 -0.9212  0.7444
  308MOL0     H42482   0.824   8.668   5.359 -0.5602 -0.4593  0.5067
  308MOL0     H42483   0.942   8.704   5.244 -0.6963  0.4138  1.7633
  308MOL0     H42484   1.071   9.219   4.520  0.1912  0.5050  2.2018
  308MOL0     H42485   1.226   9.436   4.526  0.8209 -3.6879 -0.2778
  308MOL0     H42486   1.419   9.728   4.496  1.0758  0.1785 -0.3959
  308MOL0     H42487   1.586   9.889   4.518 -0.0152 -1.2193  0.0301
  308MOL0     H42488   1.408  10.685   5.127  2.6968 -0.2671  0.2744
  308MOL0     H42489   1.301  10.499   5.248 -2.4965  1.8007 -2.6578
  308MOL0     H42490   0.920  10.524   5.711 -0.8429 -0.3590  2.0142
  308MOL0     H42491   0.876  10.427   5.930  0.7870 -0.6787  1.4965
  308MOL0     H42492   0.970  10.353   6.150  3.0777 -1.8212 -0.7018
  308MOL0     H42493   0.813  10.294   6.086 -2.1951 -1.4780  1.8529
  308MOL0     H42494   0.857  10.082   6.207 -1.8674 -0.2281  2.9090
  308MOL0     H42495   0.820  10.203   6.313  0.2485 -2.6891  1.0291
  308MOL0     H42496   1.095  10.109   6.265 -0.4445 -1.1418  0.6610
  308MOL0     H42497   1.048  10.266   6.348  3.1650  0.3538 -0.1608
  308MOL0     H42498   0.981   9.972   6.421  2.1264  0.1018  0.4382
  308MOL0     H42499   0.906  10.110   6.512 -0.2274 -0.5546 -0.2632
  308MOL0     H42500   1.313  10.142   6.657  1.1223 -0.1447 -1.0416
  308MOL0     H42501   1.157  10.113   5.841  2.2630  0.1646 -3.8059
  308MOL0     H42502   1.240  10.204   5.526 -1.5331 -3.2296 -0.1758
  308MOL0     H42503   1.350  10.262   5.661 -2.9691  2.0382  2.2317
  308MOL0     H42504   1.266  10.100   5.653 -1.4378 -1.3154 -2.1773
  309MOL0     O42505   2.600   1.312   7.433 -1.0111 -0.4132 -1.0112
  309MOL0     C42506   2.651   1.424   7.424  0.8462  0.9828  0.3189
  309MOL0     O42507   2.609   1.533   7.492 -0.1287 -0.3762 -0.2966
  309MOL0     C42508   2.491   1.517   7.569  0.7558 -0.8084  0.7966
  309MOL0     C42509   2.487   1.529   7.704  0.9971  0.4178  0.2105
  309MOL0     C42510   2.374   1.517   7.776  0.5213 -0.3975  0.1900
  309MOL0     C42511   2.246   1.490   7.707  0.4590 -0.4814  0.2045
  309MOL0     O42512   2.122   1.486   7.756 -0.2288 -0.4861 -0.3502
  309MOL0     C42513   2.127   1.474   7.901 -0.2760  0.2903  0.0925
  309MOL0     C42514   1.988   1.472   7.939 -0.1789  0.2718  1.6154
  309MOL0     C42515   1.967   1.519   8.086  0.1967  0.8021  0.5474
  309MOL0     C42516   1.844   1.456   8.142 -0.1162  0.8380 -0.0327
  309MOL0     C42517   1.807   1.529   8.274  0.8099  0.0125  0.3336
  309MOL0     C42518   1.892   1.492   8.395  0.3165  0.5499  0.3039
  309MOL0     C42519   1.832   1.531   8.529  0.1048  0.2759 -0.0591
  309MOL0     C42520   1.926   1.524   8.645 -0.2387 -0.8813 -0.3090
  309MOL0     N42521   1.876   1.585   8.765  1.0171 -0.6578 -0.5855
  309MOL0     C42522   1.961   1.620   8.864 -1.0244  0.6709 -0.1258
  309MOL0     C42523   1.886   1.676   8.955  0.7264 -0.0370 -0.2159
  309MOL0     C42524   1.922   1.737   9.092  0.5574  0.1798  0.1576
  309MOL0     C42525   1.882   1.636   9.207  0.3856  0.1422  1.7249
  309MOL0     C42526   1.740   1.653   9.247 -0.4604 -0.2986 -0.0561
  309MOL0     C42527   1.709   1.572   9.375  0.2960 -0.6272 -0.2759
  309MOL0     O42528   1.744   1.436   9.356 -0.0113  0.3484  0.6672
  309MOL0     C42529   1.747   1.346   9.461  0.1508  0.4078  0.1275
  309MOL0     C42530   1.804   1.226   9.430 -0.0688 -0.1910  0.8710
  309MOL0     C42531   1.835   1.126   9.517  0.3531  0.1869  0.0531
  309MOL0     C42532   1.877   0.987   9.463 -0.9553 -0.0456  0.0182
  309MOL0     C42533   1.812   1.155   9.651  0.2971 -0.3960  0.2216
  309MOL0     C42534   1.828   1.069   9.770  0.3858  1.0459  0.5865
  309MOL0     O42535   1.781   1.111   9.892  0.1321  0.2322  0.5327
  309MOL0     C42536   1.759   1.014   9.980 -0.1691  0.7426 -0.0407
  309MOL0     C42537   1.631   0.956   9.978 -0.3376  0.0936 -0.0698
  309MOL0     C42538   1.600   0.856  10.080  0.1823 -1.3197 -0.2336
  309MOL0     C42539   1.697   0.812  10.163 -1.2262  0.6452 -0.5477
  309MOL0     O42540   1.668   0.725  10.258 -0.3949  0.6298  0.7718
  309MOL0     C42541   1.762   0.634  10.317  0.8288 -0.3068  0.2120
  309MOL0     C42542   1.674   0.548  10.417  0.6801  0.6419 -0.6689
  309MOL0     C42543   1.739   0.459  10.530 -0.0172  0.6373  0.8257
  309MOL0     C42544   1.809   0.538  10.639 -0.2449  0.1359 -0.2987
  309MOL0     C42545   1.824   0.460  10.771  0.2973 -0.2370 -0.3294
  309MOL0     C42546   1.891   0.328  10.747 -0.1311  0.6139  0.1533
  309MOL0     C42547   1.960   0.281  10.875 -0.3024 -0.9384 -0.7009
  309MOL0     C42548   2.050   0.166  10.856 -0.9403  0.5327 -0.4391
  309MOL0    Cl42549   2.199   0.222  10.765 -0.1699  0.3075  0.4125
  309MOL0     C42550   1.828   0.868  10.161  0.3654 -0.0294 -0.5885
  309MOL0     C42551   1.853   0.977  10.075  0.1807 -0.3097 -0.0472
  309MOL0     O42552   1.878   0.957   9.752 -0.5842 -0.1070  0.3558
  309MOL0     C42553   1.767   1.290   9.689  0.7115  0.1880 -0.2409
  309MOL0     C42554   1.728   1.377   9.590 -0.6520  0.5818  0.3177
  309MOL0     N42555   1.753   1.673   8.912 -0.1044 -0.0720  0.0330
  309MOL0     N42556   1.746   1.614   8.794  0.4569 -0.6623 -1.1532
  309MOL0     C42557   2.250   1.479   7.571 -0.4822 -1.2517  1.1005
  309MOL0     C42558   2.371   1.493   7.499 -0.7014 -0.4351 -1.1377
  309MOL0     C42559   2.774   1.463   7.343  0.2654 -0.2068 -0.3904
  309MOL0     C42560   2.828   1.591   7.345  0.0861  0.5801 -0.4882
  309MOL0     C42561   2.942   1.616   7.269  0.2406 -0.1975  0.5353
  309MOL0     C42562   3.010   1.520   7.194 -0.1730 -0.3155  0.0317
  309MOL0     O42563   3.116   1.543   7.106  0.3077 -0.1727  0.2961
  309MOL0     C42564   3.180   1.666   7.088  0.4394  0.3724 -0.8004
  309MOL0     C42565   3.294   1.657   6.983  0.0801  0.2921  0.3648
  309MOL0     C42566   3.378   1.791   6.987  0.3639  0.7578 -0.8897
  309MOL0     C42567   3.468   1.808   6.867 -0.8953  0.1438 -0.2512
  309MOL0     C42568   3.410   1.866   6.746 -0.2167  0.8338 -0.3791
  309MOL0     C42569   3.369   1.925   6.648  0.0870  0.3750  0.3465
  309MOL0     C42570   2.966   1.393   7.198 -0.0740  0.8124  0.4804
  309MOL0     C42571   2.840   1.360   7.264 -0.2577  0.6744 -0.7627
  309MOL0     C42572   2.797   1.218   7.256  0.6243  0.1349  0.0123
  309MOL0     H42573   2.580   1.543   7.758  0.0253 -0.4056  2.1807
  309MOL0     H42574   2.376   1.545   7.881  3.7357 -0.7342  0.3347
  309MOL0     H42575   2.180   1.555   7.952  3.1990 -1.1994 -0.8511
  309MOL0     H42576   2.179   1.382   7.930 -0.5297  0.6866  1.9576
  309MOL0     H42577   1.927   1.533   7.871 -1.3135 -1.2799  1.1787
  309MOL0     H42578   1.959   1.368   7.919  1.6709  0.3147 -2.4314
  309MOL0     H42579   2.053   1.511   8.152 -0.1598  2.9764  1.3585
  309MOL0     H42580   1.948   1.627   8.080 -4.6923  0.1362  0.2978
  309MOL0     H42581   1.754   1.462   8.081 -2.3978 -1.9563  2.7109
  309MOL0     H42582   1.855   1.348   8.156 -0.1153  0.9258  0.6813
  309MOL0     H42583   1.711   1.484   8.304  0.8140  0.9668  1.8665
  309MOL0     H42584   1.787   1.636   8.275  1.3390  0.2025 -2.3135
  309MOL0     H42585   1.919   1.386   8.386 -3.1171 -0.2841 -2.4291
  309MOL0     H42586   1.983   1.551   8.379  1.4764 -1.4548 -0.9652
  309MOL0     H42587   1.756   1.456   8.553  0.5263  0.2929  1.4792
  309MOL0     H42588   1.774   1.623   8.520 -2.8234 -1.4087  0.1638
  309MOL0     H42589   1.929   1.417   8.665  2.9823 -0.4291  2.6607
  309MOL0     H42590   2.018   1.574   8.613 -0.6199  1.1627  1.5042
  309MOL0     H42591   2.069   1.612   8.878 -1.3918 -1.3627  2.3108
  309MOL0     H42592   1.876   1.835   9.103  1.1108  0.6240 -1.2704
  309MOL0     H42593   2.029   1.747   9.072  0.5988 -2.8471 -1.7871
  309MOL0     H42594   1.893   1.536   9.164  1.7171  0.6086  0.9339
  309MOL0     H42595   1.944   1.640   9.297 -0.0665  0.7264  2.0196
  309MOL0     H42596   1.726   1.759   9.271  3.3645  0.5845 -0.9708
  309MOL0     H42597   1.668   1.619   9.172 -2.3818 -3.1654  2.8161
  309MOL0     H42598   1.754   1.610   9.468 -0.3616 -2.1590  0.7172
  309MOL0     H42599   1.601   1.568   9.393  0.2257  1.4629  0.1047
  309MOL0     H42600   1.819   1.205   9.325 -1.0063 -0.2845  0.7491
  309MOL0     H42601   1.819   0.902   9.499  0.9280 -1.5491 -0.3495
  309MOL0     H42602   1.976   0.967   9.504 -1.5597  1.0172  2.1660
  309MOL0     H42603   1.882   0.983   9.354  1.4167  4.7154 -0.3447
  309MOL0     H42604   1.561   0.987   9.901  0.9663  0.4471 -1.1464
  309MOL0     H42605   1.497   0.824  10.094 -0.7134  1.3718 -0.2031
  309MOL0     H42606   1.808   0.561  10.250  2.0737 -0.6133  1.3543
  309MOL0     H42607   1.852   0.687  10.349  0.1765  3.5799 -3.5122
  309MOL0     H42608   1.615   0.626  10.466  2.6559  1.5458  0.3690
  309MOL0     H42609   1.606   0.475  10.372 -0.0117 -0.4817  2.0427
  309MOL0     H42610   1.814   0.394  10.484 -1.0509 -0.2806  0.3636
  309MOL0     H42611   1.669   0.386  10.573  1.3337 -2.8224 -2.2412
  309MOL0     H42612   1.751   0.626  10.670 -0.9329 -0.3435 -0.1951
  309MOL0     H42613   1.902   0.576  10.595 -1.1295  1.0559 -1.4498
  309MOL0     H42614   1.878   0.515  10.849 -0.1865 -0.1039 -0.0909
  309MOL0     H42615   1.726   0.441  10.814 -0.6269  2.4899 -1.0134
  309MOL0     H42616   1.967   0.342  10.670 -0.0714  3.4074  0.6123
  309MOL0     H42617   1.806   0.264  10.721 -0.9625  1.0767  1.5998
  309MOL0     H42618   1.881   0.262  10.948 -0.4543 -0.8911 -0.8521
  309MOL0     H42619   2.021   0.365  10.909  0.2716 -0.9879 -1.5786
  309MOL0     H42620   1.999   0.083  10.805  1.2380 -1.7882  0.9178
  309MOL0     H42621   2.075   0.123  10.953  1.0951  1.5778 -0.4417
  309MOL0     H42622   1.908   0.837  10.227  1.7366 -1.0103 -2.6115
  309MOL0     H42623   1.950   1.022  10.061  0.1955 -0.3110  0.0504
  309MOL0     H42624   1.753   1.313   9.794  0.5994 -1.5544  0.1391
  309MOL0     H42625   1.672   1.464   9.624  0.2483  0.9932  0.7871
  309MOL0     H42626   2.160   1.480   7.509  0.8803  1.3069 -1.0828
  309MOL0     H42627   2.373   1.471   7.393 -0.3796 -0.7549 -1.0696
  309MOL0     H42628   2.775   1.666   7.403  0.0045  0.1953 -0.0673
  309MOL0     H42629   2.985   1.716   7.265 -2.8235  1.1813 -2.1790
  309MOL0     H42630   3.110   1.748   7.066  0.0140  0.6811  1.4658
  309MOL0     H42631   3.231   1.698   7.179 -0.8932  2.8811 -0.8419
  309MOL0     H42632   3.257   1.624   6.885 -0.4930 -2.7311  1.4944
  309MOL0     H42633   3.361   1.579   7.019 -1.6526 -0.0205  3.2567
  309MOL0     H42634   3.307   1.874   6.980 -0.3713 -0.0143 -3.7059
  309MOL0     H42635   3.430   1.808   7.082 -3.5727  1.4601  1.3705
  309MOL0     H42636   3.517   1.713   6.840  0.1350 -0.6890  3.8788
  309MOL0     H42637   3.555   1.868   6.897 -0.5222 -1.1884  1.5186
  309MOL0     H42638   3.320   1.977   6.568  0.4622 -0.0545 -0.1709
  309MOL0     H42639   3.003   1.311   7.137 -4.2063 -1.6047  0.8705
  309MOL0     H42640   2.861   1.173   7.180  1.8464  0.9844  0.5168
  309MOL0     H42641   2.813   1.176   7.355  0.4087  3.2820  1.5117
  309MOL0     H42642   2.696   1.197   7.218  0.7983  3.1255 -2.5267
  310MOL0     O42643   8.765   6.921   3.833 -0.3278  0.2544 -0.2088
  310MOL0     C42644   8.835   6.977   3.917 -0.4936  0.6638 -0.4253
  310MOL0     O42645   8.942   7.051   3.884 -0.2697 -0.0031 -0.0655
  310MOL0     C42646   8.952   7.076   3.746  0.1440  0.4493  0.3136
  310MOL0     C42647   9.050   6.998   3.680 -0.0112 -0.1511 -0.8672
  310MOL0     C42648   9.068   7.019   3.544 -0.3882  0.1740 -0.4079
  310MOL0     C42649   8.986   7.116   3.476 -1.3269 -0.3217 -0.1295
  310MOL0     O42650   8.992   7.148   3.344  0.2803 -0.3482 -1.0616
  310MOL0     C42651   9.035   7.064   3.245 -0.5016  0.5743 -0.3069
  310MOL0     C42652   8.982   7.120   3.104 -0.3975  0.1722  0.1030
  310MOL0     C42653   8.830   7.086   3.073  0.4777 -0.1102  1.0441
  310MOL0     C42654   8.727   7.176   3.157 -0.6562  0.9439 -0.5596
  310MOL0     C42655   8.581   7.143   3.152  0.2111  0.1289  0.4884
  310MOL0     C42656   8.526   7.163   3.008  0.0233  0.0876  0.5794
  310MOL0     C42657   8.379   7.135   2.986 -0.2116 -0.0963  0.8750
  310MOL0     C42658   8.308   7.231   2.902 -0.0500 -0.6779  0.5036
  310MOL0     N42659   8.314   7.369   2.955 -0.2788  0.4150  0.5658
  310MOL0     C42660   8.341   7.404   3.085  0.7770  0.3607 -0.1182
  310MOL0     C42661   8.345   7.538   3.084 -0.0910 -0.2636 -0.1554
  310MOL0     C42662   8.355   7.629   3.198  0.4062  0.2491 -1.4265
  310MOL0     C42663   8.481   7.600   3.277 -0.1733  0.0601  0.1781
  310MOL0     C42664   8.481   7.488   3.390 -0.2045  0.2865  0.4274
  310MOL0     C42665   8.628   7.457   3.447  1.0194  1.0284  0.6150
  310MOL0     O42666   8.700   7.577   3.491 -0.5462 -0.3480 -0.1995
  310MOL0     C42667   8.643   7.642   3.595 -0.0889 -0.5124 -0.1972
  310MOL0     C42668   8.647   7.785   3.587  0.0747  0.0070  0.4538
  310MOL0     C42669   8.607   7.856   3.699  0.1028 -0.5256 -0.0219
  310MOL0     C42670   8.615   8.004   3.698  0.5714  0.2445  0.2442
  310MOL0     C42671   8.559   7.792   3.816  0.2213  0.3365  0.4477
  310MOL0     C42672   8.521   7.864   3.942 -0.0888  0.0167  0.7186
  310MOL0     O42673   8.430   7.795   4.027 -0.4542  0.3920  0.0721
  310MOL0     C42674   8.403   7.839   4.152 -0.1031  0.3800  0.1185
  310MOL0     C42675   8.474   7.938   4.229 -0.2665  0.2176  0.4512
  310MOL0     C42676   8.430   7.993   4.354 -0.5419  0.4955  0.5770
  310MOL0     C42677   8.304   7.947   4.400  0.6472  0.9518 -0.1128
  310MOL0     O42678   8.231   7.986   4.509  0.6137  0.6466  0.6033
  310MOL0     C42679   8.282   8.086   4.592 -0.1673 -0.3812  0.0229
  310MOL0     C42680   8.192   8.105   4.711  1.2175  0.2626  0.4669
  310MOL0     C42681   8.242   8.219   4.809 -0.0480 -0.2623 -0.0377
  310MOL0     C42682   8.135   8.251   4.913  0.2745  0.0745 -0.4484
  310MOL0     C42683   8.169   8.368   4.995 -0.0644 -0.6451  0.8990
  310MOL0     C42684   8.063   8.406   5.093 -0.8806 -0.4833 -0.3577
  310MOL0     C42685   7.940   8.468   5.030 -0.7229 -0.3297  0.3821
  310MOL0     C42686   7.947   8.617   4.995  0.5687  0.1880 -0.2804
  310MOL0    Cl42687   8.030   8.651   4.841 -0.9220 -0.3182  0.0736
  310MOL0     C42688   8.243   7.831   4.340 -1.1979 -0.1715  0.8064
  310MOL0     C42689   8.283   7.783   4.210  0.0169 -0.5764 -0.6098
  310MOL0     O42690   8.589   7.966   3.972 -0.4952  0.2587 -0.1091
  310MOL0     C42691   8.539   7.655   3.815  0.0176  0.9416  0.5133
  310MOL0     C42692   8.586   7.577   3.712  0.4691 -0.6875 -0.2862
  310MOL0     N42693   8.337   7.578   2.951 -0.7469 -0.0991  0.5013
  310MOL0     N42694   8.311   7.479   2.874  0.1927 -0.0493  0.2535
  310MOL0     C42695   8.897   7.191   3.548  0.0879 -0.4276 -0.1480
  310MOL0     C42696   8.873   7.178   3.687 -0.7663  0.5636  0.0033
  310MOL0     C42697   8.805   6.985   4.059 -0.0773 -0.2443 -0.4737
  310MOL0     C42698   8.906   7.035   4.145 -0.4746 -0.7812  0.2527
  310MOL0     C42699   8.879   7.050   4.283  1.0099  0.2522 -0.5056
  310MOL0     C42700   8.750   7.020   4.338  1.2916  0.5750  0.0185
  310MOL0     O42701   8.736   7.046   4.474 -0.2948 -1.2330  0.2949
  310MOL0     C42702   8.608   7.059   4.537  0.6170 -0.8847 -0.4493
  310MOL0     C42703   8.554   6.918   4.584 -0.2790 -0.9641 -0.7088
  310MOL0     C42704   8.639   6.864   4.695 -0.0678 -1.1943  0.2786
  310MOL0     C42705   8.596   6.732   4.745 -0.4986  0.5153  0.2072
  310MOL0     C42706   8.668   6.697   4.868  1.1800  0.3828 -0.2467
  310MOL0     C42707   8.716   6.666   4.978 -0.1282  0.2251  0.7749
  310MOL0     C42708   8.654   6.985   4.248  0.6045  1.6783 -0.5645
  310MOL0     C42709   8.680   6.954   4.118 -0.0183 -0.2550  0.0952
  310MOL0     C42710   8.557   6.876   4.043 -0.5771 -0.1721 -0.4976
  310MOL0     H42711   9.095   6.917   3.736 -0.5201  0.5489  0.6349
  310MOL0     H42712   9.142   6.968   3.484  0.4337  0.3930  0.3829
  310MOL0     H42713   9.014   6.961   3.275 -2.8574  1.1540  0.2961
  310MOL0     H42714   9.144   7.067   3.243 -0.4126 -1.5777 -1.9534
  310MOL0     H42715   9.008   7.225   3.088  1.8236 -0.1501  1.0979
  310MOL0     H42716   9.039   7.057   3.035  0.3947  0.0155  0.8869
  310MOL0     H42717   8.813   7.089   2.965 -1.2404  1.9313  1.3033
  310MOL0     H42718   8.802   6.984   3.100 -1.1617 -0.5216 -1.7479
  310MOL0     H42719   8.748   7.162   3.264 -1.7373  0.7501 -0.3671
  310MOL0     H42720   8.730   7.279   3.123 -0.6025  0.0709 -3.4289
  310MOL0     H42721   8.514   7.210   3.208 -0.5155  4.2398 -4.5315
  310MOL0     H42722   8.570   7.038   3.182  0.3263  0.1437  0.5812
  310MOL0     H42723   8.556   7.260   2.968 -1.3045 -0.5336 -2.0918
  310MOL0     H42724   8.585   7.092   2.950 -1.9565 -1.4056  0.3000
  310MOL0     H42725   8.316   7.125   3.074  3.6105 -1.8737  3.6898
  310MOL0     H42726   8.375   7.041   2.930 -0.4894  0.8409 -0.7660
  310MOL0     H42727   8.353   7.229   2.802 -3.3199 -0.6789 -1.1071
  310MOL0     H42728   8.203   7.206   2.884  0.0077  0.4204 -1.7983
  310MOL0     H42729   8.346   7.345   3.176  1.8914  3.2863  1.8873
  310MOL0     H42730   8.261   7.628   3.253  0.4579 -0.9867 -1.3191
  310MOL0     H42731   8.371   7.732   3.164 -2.9311  2.3400  2.4646
  310MOL0     H42732   8.559   7.577   3.204 -0.7811  0.0447 -0.4746
  310MOL0     H42733   8.501   7.687   3.339 -1.9568 -1.3053  2.9065
  310MOL0     H42734   8.416   7.527   3.468  0.1085  0.2304  0.7217
  310MOL0     H42735   8.443   7.392   3.353 -0.4369  0.3507  0.5003
  310MOL0     H42736   8.611   7.384   3.527 -0.3529  1.0538  0.3809
  310MOL0     H42737   8.676   7.396   3.371  0.3872  1.2779 -0.0046
  310MOL0     H42738   8.696   7.837   3.505 -1.7876  5.2158  2.2397
  310MOL0     H42739   8.522   8.051   3.729  0.4822 -0.1848  0.6442
  310MOL0     H42740   8.624   8.049   3.599 -0.3460  2.8735  1.2669
  310MOL0     H42741   8.709   8.037   3.744  0.5460  1.4859 -0.5660
  310MOL0     H42742   8.574   7.967   4.202 -0.5249 -0.4176 -1.2835
  310MOL0     H42743   8.503   8.057   4.403 -1.5390  0.9066  1.5612
  310MOL0     H42744   8.380   8.054   4.628  0.6219 -0.4165 -2.0159
  310MOL0     H42745   8.285   8.180   4.535 -0.6856 -1.8194 -2.5348
  310MOL0     H42746   8.091   8.138   4.685  1.8181  3.1295  1.3790
  310MOL0     H42747   8.186   8.003   4.750  0.3550 -0.2023 -0.8151
  310MOL0     H42748   8.276   8.302   4.746  0.5161  0.4529  1.1801
  310MOL0     H42749   8.333   8.174   4.850 -0.3739 -2.2348 -1.3380
  310MOL0     H42750   8.119   8.165   4.979 -1.8776  0.7054 -0.0607
  310MOL0     H42751   8.039   8.265   4.863 -0.7414  0.1924  1.4240
  310MOL0     H42752   8.262   8.351   5.050 -1.1329 -1.0699  2.6561
  310MOL0     H42753   8.181   8.453   4.926 -4.2324  1.1071  2.0055
  310MOL0     H42754   8.098   8.473   5.172 -1.3186 -1.6040  0.8259
  310MOL0     H42755   8.037   8.317   5.152 -3.8646  0.7881  0.4756
  310MOL0     H42756   7.873   8.467   5.116 -0.7225 -1.5490  0.3964
  310MOL0     H42757   7.902   8.411   4.945 -0.4894  1.0127 -0.6600
  310MOL0     H42758   7.996   8.670   5.077 -0.7467  4.1194 -1.7796
  310MOL0     H42759   7.845   8.657   4.988  1.4960  2.5483 -1.6341
  310MOL0     H42760   8.151   7.789   4.377 -1.2676 -2.5571 -1.7182
  310MOL0     H42761   8.236   7.714   4.140 -3.3131  0.2701  0.5720
  310MOL0     H42762   8.477   7.585   3.870 -0.4004  1.5624  0.8533
  310MOL0     H42763   8.572   7.470   3.716 -0.5675 -0.5356  0.3417
  310MOL0     H42764   8.848   7.274   3.498 -2.5553 -1.2471  0.9476
  310MOL0     H42765   8.795   7.230   3.742 -0.6807 -0.0309  0.7101
  310MOL0     H42766   9.002   7.068   4.108 -0.1009 -0.1924  1.6787
  310MOL0     H42767   8.948   7.090   4.358  1.3781  1.6224 -1.5415
  310MOL0     H42768   8.615   7.138   4.612  1.2567 -0.8877 -0.4951
  310MOL0     H42769   8.534   7.096   4.466 -2.9482  0.0471  3.3775
  310MOL0     H42770   8.560   6.834   4.514 -1.5902 -2.1932  0.5675
  310MOL0     H42771   8.449   6.917   4.615  0.3732 -0.7390  1.7478
  310MOL0     H42772   8.738   6.851   4.650 -0.0526 -1.6656  0.4465
  310MOL0     H42773   8.646   6.936   4.777  2.8860 -0.8342 -0.1652
  310MOL0     H42774   8.614   6.662   4.663  0.1770  0.7546  0.1459
  310MOL0     H42775   8.490   6.740   4.771 -0.5601 -0.6464  0.3775
  310MOL0     H42776   8.760   6.667   5.075  0.5868  2.8968  0.5180
  310MOL0     H42777   8.562   6.979   4.305  0.1945  1.0902 -1.2688
  310MOL0     H42778   8.535   6.930   3.951  4.8463  3.9599  0.1182
  310MOL0     H42779   8.590   6.775   4.017 -0.7261  0.1501 -1.9922
  310MOL0     H42780   8.466   6.877   4.105 -2.1696  1.2234 -2.7046
  311MOL0     O42781   9.935   5.002   4.477  0.0811  0.1783 -1.3005
  311MOL0     C42782   9.892   4.912   4.407 -0.4175  0.1799 -0.5508
  311MOL0     O42783   9.853   4.923   4.278  0.1737  0.3154 -0.1371
  311MOL0     C42784   9.898   5.030   4.204 -0.4453 -1.0337 -0.1429
  311MOL0     C42785   9.838   5.153   4.211  0.0254  0.0892 -0.5429
  311MOL0     C42786   9.901   5.269   4.158  0.3715  0.7700  0.2835
  311MOL0     C42787  10.010   5.260   4.074  0.5359 -0.3529 -0.3596
  311MOL0     O42788  10.048   5.370   4.000  0.6528  0.9031  0.2147
  311MOL0     C42789  10.127   5.447   4.087 -0.7313 -0.6346  0.5255
  311MOL0     C42790  10.165   5.578   4.010  0.2552  0.2732  0.0760
  311MOL0     C42791  10.276   5.651   4.085 -0.3006  0.0205 -0.5612
  311MOL0     C42792  10.324   5.775   4.007 -0.2147  0.2592 -0.2983
  311MOL0     C42793  10.421   5.872   4.082 -0.1801 -0.6606 -0.4527
  311MOL0     C42794  10.555   5.811   4.110 -0.0115  0.4811 -0.5382
  311MOL0     C42795  10.654   5.902   4.179 -0.7522  1.1996  0.0744
  311MOL0     C42796  10.788   5.825   4.193 -0.0101 -0.4043 -0.8393
  311MOL0     N42797  10.870   5.809   4.070 -0.6077 -0.5201 -0.7343
  311MOL0     C42798  10.953   5.904   4.000 -0.3050 -0.4872  0.5054
  311MOL0     C42799  10.996   5.853   3.881 -0.2165  0.0407  0.7676
  311MOL0     C42800  11.067   5.917   3.765  0.3002  0.6642 -0.3643
  311MOL0     C42801  11.206   5.976   3.782 -0.3975  0.4672  0.4468
  311MOL0     C42802  11.305   5.906   3.886  0.8216 -0.3580 -0.2653
  311MOL0     C42803  11.326   5.756   3.868  1.3957 -0.6397 -0.1841
  311MOL0     O42804  11.391   5.691   3.976  1.1452 -0.1844 -0.3050
  311MOL0     C42805  11.342   5.718   4.102 -0.7754 -0.6585 -0.1072
  311MOL0     C42806  11.429   5.767   4.202 -1.0420 -0.8198 -0.3833
  311MOL0     C42807  11.391   5.791   4.340  0.2815  0.8006  0.5230
  311MOL0     C42808  11.497   5.846   4.427 -1.1289 -0.5546  0.3152
  311MOL0     C42809  11.254   5.777   4.376 -0.6280 -1.1361 -0.9514
  311MOL0     C42810  11.210   5.797   4.513  0.4013  0.0375  0.4180
  311MOL0     O42811  11.296   5.801   4.617  0.8314 -0.2409 -0.1973
  311MOL0     C42812  11.256   5.819   4.753 -0.0141  0.5856 -0.4839
  311MOL0     C42813  11.346   5.868   4.847  0.4257  0.0930  0.2468
  311MOL0     C42814  11.314   5.883   4.979  0.8006 -0.4945 -0.2457
  311MOL0     C42815  11.186   5.852   5.024  1.0225 -0.3793 -0.4203
  311MOL0     O42816  11.162   5.887   5.154 -0.0477  0.4748 -0.2668
  311MOL0     C42817  11.193   5.787   5.259 -0.1384 -0.2447  0.5051
  311MOL0     C42818  11.284   5.857   5.363 -0.2816  0.7506 -0.3838
  311MOL0     C42819  11.203   5.940   5.463  0.0124 -1.0319  0.1147
  311MOL0     C42820  11.292   6.032   5.543 -0.0517  0.8442 -0.4467
  311MOL0     C42821  11.230   6.105   5.667  0.4528  0.2274  0.6317
  311MOL0     C42822  11.340   6.151   5.765  0.3802  0.0580  0.0101
  311MOL0     C42823  11.278   6.233   5.877  0.5775  0.1277  0.6965
  311MOL0     C42824  11.383   6.294   5.963  0.9039 -0.0971 -0.1348
  311MOL0    Cl42825  11.299   6.357   6.112 -0.3060  0.2450 -0.3342
  311MOL0     C42826  11.096   5.785   4.939  0.4626 -0.8713  0.3595
  311MOL0     C42827  11.139   5.758   4.804 -1.2877  0.1271 -0.1866
  311MOL0     O42828  11.088   5.806   4.531  0.3310  0.8781 -0.0193
  311MOL0     C42829  11.167   5.725   4.271  0.2098 -0.2252  0.2818
  311MOL0     C42830  11.213   5.693   4.147 -0.8133 -0.8462  0.6557
  311MOL0     N42831  10.943   5.727   3.882  0.5887  0.0402 -0.0083
  311MOL0     N42832  10.866   5.701   3.988  0.2907  0.1403 -0.2033
  311MOL0     C42833  10.065   5.137   4.060  0.0308  0.1668 -0.4877
  311MOL0     C42834  10.008   5.019   4.115  0.2780 -0.1602  0.2727
  311MOL0     C42835   9.882   4.777   4.461 -0.3106 -0.7707  0.3238
  311MOL0     C42836   9.828   4.766   4.593  0.6907 -0.4182 -0.5648
  311MOL0     C42837   9.798   4.645   4.649 -0.1431 -0.2517 -0.8183
  311MOL0     C42838   9.815   4.517   4.583  0.1690 -1.2065 -0.0936
  311MOL0     O42839   9.761   4.411   4.634  0.4477  0.6401 -0.3427
  311MOL0     C42840   9.829   4.360   4.753  0.5004 -0.8264 -0.4217
  311MOL0     C42841   9.781   4.215   4.773 -0.2147 -0.3347 -0.2034
  311MOL0     C42842   9.629   4.176   4.811 -0.0190  0.2772  0.0227
  311MOL0     C42843   9.588   4.181   4.949  0.8346 -1.2208 -0.2827
  311MOL0     C42844   9.616   4.318   5.002  1.1395 -0.1152  0.4368
  311MOL0     C42845   9.622   4.430   5.045 -0.7875 -0.4961  1.0705
  311MOL0     C42846   9.863   4.531   4.451 -1.1529 -0.3673  0.0572
  311MOL0     C42847   9.903   4.654   4.392  0.2773 -0.0229 -0.0483
  311MOL0     C42848   9.955   4.643   4.256 -0.8598  0.5245  0.5830
  311MOL0     H42849   9.755   5.165   4.280  2.7927  0.0028  3.1410
  311MOL0     H42850   9.862   5.369   4.172  4.2556  2.3621  0.9353
  311MOL0     H42851  10.224   5.405   4.115  0.0929  1.0719  0.3643
  311MOL0     H42852  10.079   5.475   4.181  1.2442  1.0898  1.1063
  311MOL0     H42853  10.203   5.551   3.911 -2.3341 -0.2816 -0.8225
  311MOL0     H42854  10.085   5.651   4.000  1.5418  1.4631 -2.4184
  311MOL0     H42855  10.265   5.679   4.190  1.0000  0.4123 -0.5130
  311MOL0     H42856  10.361   5.583   4.099  1.0262  0.8884 -3.6395
  311MOL0     H42857  10.382   5.735   3.924  3.8943 -1.0201  2.8729
  311MOL0     H42858  10.242   5.842   3.979  1.0048  1.2818 -1.5871
  311MOL0     H42859  10.368   5.893   4.176  0.7005  1.6135 -0.3977
  311MOL0     H42860  10.439   5.965   4.028  2.0462 -2.3234 -2.8130
  311MOL0     H42861  10.542   5.722   4.172 -1.3582  1.3938  0.5540
  311MOL0     H42862  10.589   5.784   4.010  1.0914  1.2075 -0.3821
  311MOL0     H42863  10.624   5.940   4.277 -1.9561 -1.5553  0.8851
  311MOL0     H42864  10.664   5.991   4.117  2.7081  1.9838  1.5309
  311MOL0     H42865  10.848   5.890   4.258 -2.3658  0.8163  0.2565
  311MOL0     H42866  10.773   5.728   4.241  0.1446  0.7450  1.7707
  311MOL0     H42867  10.984   6.003   4.030  1.4561 -1.2037  1.1834
  311MOL0     H42868  11.001   5.991   3.719  1.6257  0.6348 -2.4538
  311MOL0     H42869  11.074   5.832   3.697  1.0857 -0.5815  1.1892
  311MOL0     H42870  11.247   5.978   3.681 -1.5950  1.5546 -0.0481
  311MOL0     H42871  11.202   6.082   3.808  2.6605  0.8093 -0.0783
  311MOL0     H42872  11.399   5.960   3.871 -0.3381  2.1230  0.6694
  311MOL0     H42873  11.281   5.937   3.989  4.4977  0.4271  0.4982
  311MOL0     H42874  11.230   5.706   3.852  1.2551 -1.6789  3.1573
  311MOL0     H42875  11.391   5.727   3.784 -1.0563  0.7840 -2.7499
  311MOL0     H42876  11.533   5.781   4.174 -0.8750 -1.9516 -0.4098
  311MOL0     H42877  11.536   5.778   4.503  3.2767  0.9211 -0.3372
  311MOL0     H42878  11.465   5.935   4.481  1.5301  0.7317 -0.0829
  311MOL0     H42879  11.589   5.869   4.373  0.2322 -0.1716  2.6972
  311MOL0     H42880  11.448   5.887   4.816  0.7849 -1.7047  0.2207
  311MOL0     H42881  11.382   5.943   5.039 -0.3047  0.5150  0.0315
  311MOL0     H42882  11.102   5.749   5.305  0.4775 -2.3391  0.0838
  311MOL0     H42883  11.236   5.699   5.210  1.6456  0.3676  0.8957
  311MOL0     H42884  11.348   5.783   5.412 -0.6842 -0.5776 -1.7790
  311MOL0     H42885  11.348   5.931   5.313 -2.2511  2.0594 -1.0968
  311MOL0     H42886  11.151   5.875   5.535 -2.0555  1.7133  1.2646
  311MOL0     H42887  11.125   5.996   5.410  1.5045  1.3271  0.2695
  311MOL0     H42888  11.348   6.107   5.487  3.6104 -0.5142  1.1318
  311MOL0     H42889  11.370   5.974   5.593 -0.4388  2.1093  1.7931
  311MOL0     H42890  11.171   6.192   5.638 -1.6434 -0.4916  2.4672
  311MOL0     H42891  11.151   6.043   5.710  1.0670 -1.3674 -0.4337
  311MOL0     H42892  11.411   6.216   5.712 -0.8759  0.2872 -1.4744
  311MOL0     H42893  11.382   6.059   5.807 -4.3972 -2.2355  0.4486
  311MOL0     H42894  11.225   6.156   5.934  2.9416 -2.4604 -0.3928
  311MOL0     H42895  11.224   6.314   5.828 -1.2293 -1.5369 -0.1852
  311MOL0     H42896  11.445   6.374   5.922  2.3078 -1.2113 -0.2572
  311MOL0     H42897  11.442   6.213   6.006  0.9620 -0.8502 -1.5806
  311MOL0     H42898  11.006   5.737   4.974  0.2577 -1.6877 -1.1677
  311MOL0     H42899  11.083   5.693   4.736  1.5987  0.1123 -2.7935
  311MOL0     H42900  11.066   5.705   4.306  0.4345  1.4658  2.0715
  311MOL0     H42901  11.145   5.640   4.081  0.1016  0.3810 -1.3787
  311MOL0     H42902  10.157   5.128   4.003  0.0433  2.7520 -0.9674
  311MOL0     H42903  10.067   4.930   4.099  1.2949  0.8294 -1.7406
  311MOL0     H42904   9.798   4.850   4.654  1.0274  2.2988 -3.7984
  311MOL0     H42905   9.738   4.661   4.738 -0.3848  1.6993 -1.2789
  311MOL0     H42906   9.937   4.371   4.744  0.5922 -2.5405 -1.9906
  311MOL0     H42907   9.794   4.420   4.837  0.8696 -0.9365 -0.1889
  311MOL0     H42908   9.844   4.173   4.851  1.9864  1.7582 -0.7603
  311MOL0     H42909   9.812   4.162   4.682  0.6404 -0.3758  0.1065
  311MOL0     H42910   9.553   4.231   4.755 -2.9392  0.7513  3.9759
  311MOL0     H42911   9.641   4.072   4.776  0.7475 -0.0369  1.1608
  311MOL0     H42912   9.641   4.108   5.011  0.1448 -0.2825  1.5096
  311MOL0     H42913   9.483   4.148   4.951  0.0666  1.0242  1.3149
  311MOL0     H42914   9.623   4.525   5.094 -1.3762 -0.4403  0.9836
  311MOL0     H42915   9.875   4.448   4.382  1.3623  0.4005 -0.5574
  311MOL0     H42916  10.047   4.582   4.254 -0.8233  0.5951 -1.1455
  311MOL0     H42917   9.870   4.588   4.215 -0.2148  1.9190 -3.0074
  311MOL0     H42918   9.981   4.727   4.191 -2.8906  0.8339  0.1093
  312MOL0     O42919   4.211   8.546   7.209  0.2033  0.9919  0.3812
  312MOL0     C42920   4.302   8.501   7.140 -0.5631  0.4087 -0.4207
  312MOL0     O42921   4.374   8.388   7.163  0.6522 -0.3819 -0.0115
  312MOL0     C42922   4.330   8.308   7.269  0.5710 -0.2249 -0.3130
  312MOL0     C42923   4.326   8.360   7.407 -0.0051 -0.2258 -0.1465
  312MOL0     C42924   4.289   8.291   7.517  0.1978  0.2673  1.0192
  312MOL0     C42925   4.264   8.155   7.496  0.5129  0.4318  0.6056
  312MOL0     O42926   4.230   8.073   7.598 -0.1912  0.9330 -0.2057
  312MOL0     C42927   4.355   8.039   7.664  1.1559 -0.1215 -0.4152
  312MOL0     C42928   4.407   7.901   7.625 -0.2444 -0.8474  0.4105
  312MOL0     C42929   4.301   7.795   7.670 -0.0590  0.2374 -0.0307
  312MOL0     C42930   4.360   7.684   7.755 -0.6954 -0.3884 -0.1462
  312MOL0     C42931   4.274   7.557   7.774  0.5493 -0.0892 -0.1200
  312MOL0     C42932   4.332   7.459   7.866 -0.1916 -0.1368 -0.5399
  312MOL0     C42933   4.284   7.311   7.829  0.5514  0.2066 -0.0876
  312MOL0     C42934   4.386   7.211   7.902  0.2426  0.9737 -0.1259
  312MOL0     N42935   4.343   7.074   7.898  0.7218  0.2287  0.3832
  312MOL0     C42936   4.359   6.991   8.011  0.7978  0.3110 -0.8588
  312MOL0     C42937   4.342   6.862   7.952  0.5558  0.1839 -0.3830
  312MOL0     C42938   4.346   6.727   8.022 -0.3277 -0.6558  0.3154
  312MOL0     C42939   4.263   6.733   8.151 -0.5908  0.7111  0.8516
  312MOL0     C42940   4.123   6.704   8.103  0.0063  0.1350 -1.0206
  312MOL0     C42941   4.026   6.705   8.218  0.7514 -0.7772 -0.0652
  312MOL0     O42942   4.005   6.830   8.281 -1.0272 -0.6001 -0.1330
  312MOL0     C42943   3.949   6.827   8.410 -0.7320  0.3432  0.1511
  312MOL0     C42944   3.952   6.949   8.481 -0.1057  0.1054  0.1170
  312MOL0     C42945   3.905   6.955   8.617 -0.9830 -1.3290 -1.1193
  312MOL0     C42946   3.908   7.086   8.690 -1.3128  0.1888  0.4347
  312MOL0     C42947   3.861   6.847   8.695 -0.3328  0.8632 -0.0435
  312MOL0     C42948   3.820   6.855   8.837  1.0456 -0.1298  1.0902
  312MOL0     O42949   3.889   6.943   8.926 -0.0489  0.2286  0.0669
  312MOL0     C42950   3.853   6.936   9.053 -0.7894 -0.3433 -0.0991
  312MOL0     C42951   3.832   7.054   9.120  0.3686 -0.8639  0.6838
  312MOL0     C42952   3.802   7.063   9.257  0.9307 -0.5965  0.6102
  312MOL0     C42953   3.802   6.944   9.331 -0.3125 -0.0582 -0.3532
  312MOL0     O42954   3.775   6.934   9.464  0.0099  0.4930 -0.0896
  312MOL0     C42955   3.720   7.048   9.521 -1.0112  0.3818  0.2006
  312MOL0     C42956   3.665   7.012   9.660 -0.0332  0.0104 -0.2461
  312MOL0     C42957   3.774   6.938   9.733  0.1659 -0.3589  0.5043
  312MOL0     C42958   3.727   6.914   9.875  0.8618 -0.2004  0.2986
  312MOL0     C42959   3.834   6.854   9.966 -0.7978 -0.3352  0.5606
  312MOL0     C42960   3.775   6.848  10.111  0.4249 -0.8424  0.1673
  312MOL0     C42961   3.845   6.747  10.199 -0.3845  0.9017 -0.1039
  312MOL0     C42962   3.816   6.598  10.179 -0.1125  1.1477 -0.1681
  312MOL0    Cl42963   3.642   6.557  10.221 -0.1714 -0.0119 -0.5850
  312MOL0     C42964   3.831   6.831   9.266 -0.8620 -0.2799 -0.1070
  312MOL0     C42965   3.854   6.817   9.131  0.9156 -0.5479  0.2179
  312MOL0     O42966   3.723   6.785   8.877  0.2239 -0.1972  0.4543
  312MOL0     C42967   3.835   6.725   8.608  0.4974  0.1014  0.3675
  312MOL0     C42968   3.885   6.718   8.476  0.0422 -1.1651 -0.1003
  312MOL0     N42969   4.321   6.877   7.818 -0.4212 -0.1657  0.0259
  312MOL0     N42970   4.317   7.000   7.786  1.0600  0.4142 -0.3059
  312MOL0     C42971   4.277   8.099   7.368 -0.1212  0.2942  1.5953
  312MOL0     C42972   4.318   8.173   7.258  0.6909  0.2697 -0.5510
  312MOL0     C42973   4.362   8.586   7.041  0.1533  0.5993 -0.0134
  312MOL0     C42974   4.297   8.587   6.912 -1.4421 -0.6097 -0.7812
  312MOL0     C42975   4.338   8.670   6.817  0.0638 -1.1395  0.0971
  312MOL0     C42976   4.442   8.757   6.843 -0.1619  0.1290 -0.6381
  312MOL0     O42977   4.477   8.845   6.734 -0.8155  0.2917 -0.2884
  312MOL0     C42978   4.595   8.927   6.762  0.3886  0.8516  0.2928
  312MOL0     C42979   4.605   9.026   6.648 -0.6692 -0.4841  0.0816
  312MOL0     C42980   4.610   8.971   6.503 -0.1349  1.1531  0.5412
  312MOL0     C42981   4.751   8.958   6.443 -0.0496  0.0838 -0.4384
  312MOL0     C42982   4.825   8.849   6.501 -0.6148 -0.4232  0.4661
  312MOL0     C42983   4.885   8.782   6.583  0.3802  0.7303 -1.1018
  312MOL0     C42984   4.515   8.752   6.964  0.0432 -0.4360  0.5806
  312MOL0     C42985   4.474   8.667   7.066 -0.5352  0.2742 -0.6790
  312MOL0     C42986   4.529   8.673   7.206 -0.5037 -0.5606  1.2361
  312MOL0     H42987   4.339   8.466   7.424  1.2229 -0.5343  1.0141
  312MOL0     H42988   4.276   8.326   7.619 -0.4895  0.6321  0.8184
  312MOL0     H42989   4.334   8.054   7.770  1.4304  1.6996 -0.5876
  312MOL0     H42990   4.437   8.107   7.637  0.5205  0.2516 -1.4543
  312MOL0     H42991   4.420   7.888   7.517  1.1908  0.0824  0.4491
  312MOL0     H42992   4.501   7.884   7.678 -2.0485 -1.0057  3.8783
  312MOL0     H42993   4.228   7.847   7.732 -0.6952  2.6212 -2.5942
  312MOL0     H42994   4.250   7.750   7.585  0.5603 -0.7633  0.1114
  312MOL0     H42995   4.455   7.659   7.709 -0.3597 -1.4518  1.0724
  312MOL0     H42996   4.386   7.724   7.854 -1.5513  0.1780 -0.1367
  312MOL0     H42997   4.243   7.523   7.675  0.0283  0.9153 -0.3113
  312MOL0     H42998   4.182   7.574   7.830  2.0597  0.6984  2.2870
  312MOL0     H42999   4.440   7.476   7.866 -0.7202  4.5803 -0.6559
  312MOL0     H43000   4.305   7.478   7.970 -1.9299 -2.4622 -0.4609
  312MOL0     H43001   4.275   7.285   7.724  4.2309 -0.6582 -0.3446
  312MOL0     H43002   4.182   7.309   7.868 -0.1550  1.2836 -1.7752
  312MOL0     H43003   4.488   7.226   7.865 -0.2767  0.3235 -1.9285
  312MOL0     H43004   4.369   7.242   8.005 -0.3809 -1.1062  0.4414
  312MOL0     H43005   4.380   7.018   8.114  0.9052 -1.7937 -0.2789
  312MOL0     H43006   4.450   6.708   8.047  0.6232  1.0167 -1.9509
  312MOL0     H43007   4.310   6.648   7.956  0.5154 -0.6018 -0.2217
  312MOL0     H43008   4.299   6.659   8.224  0.0010  0.9183  0.7694
  312MOL0     H43009   4.274   6.836   8.186 -1.1213  0.8985  0.4842
  312MOL0     H43010   4.101   6.779   8.026 -2.9245  0.2721 -0.1642
  312MOL0     H43011   4.123   6.608   8.051 -1.2104  1.1290 -2.9753
  312MOL0     H43012   3.926   6.673   8.187  0.6758  0.3325 -1.0439
  312MOL0     H43013   4.072   6.637   8.291  0.0674 -1.0532  0.1205
  312MOL0     H43014   3.997   7.037   8.435  2.5112 -1.3095 -0.2550
  312MOL0     H43015   3.810   7.119   8.726 -1.7840  0.4745 -1.0142
  312MOL0     H43016   3.945   7.160   8.618  0.4852 -0.6644  0.4276
  312MOL0     H43017   3.978   7.081   8.773  0.1931 -4.0651 -0.8441
  312MOL0     H43018   3.849   7.146   9.065 -0.1080 -2.4264 -2.2801
  312MOL0     H43019   3.772   7.155   9.307  0.3654  0.9117 -2.2879
  312MOL0     H43020   3.800   7.119   9.544 -0.7542 -0.0389  0.6303
  312MOL0     H43021   3.635   7.093   9.469 -0.7851  0.4519 -0.1137
  312MOL0     H43022   3.646   7.106   9.713 -0.8162  0.9300 -2.0683
  312MOL0     H43023   3.571   6.956   9.657 -1.3625  2.0755  0.3073
  312MOL0     H43024   3.864   7.001   9.738 -1.2962  1.8204  0.4637
  312MOL0     H43025   3.803   6.844   9.685 -0.8403 -0.7258  0.5943
  312MOL0     H43026   3.640   6.846   9.874  0.8815 -0.2817 -1.8731
  312MOL0     H43027   3.692   7.006   9.921 -0.5353  1.0384 -2.8822
  312MOL0     H43028   3.843   6.753   9.925  2.1279  1.1509 -2.9884
  312MOL0     H43029   3.929   6.906   9.979 -0.3746 -0.7710 -0.7089
  312MOL0     H43030   3.670   6.821  10.098 -0.0099  1.3221 -1.5410
  312MOL0     H43031   3.777   6.947  10.159 -1.5562  0.1142 -1.5614
  312MOL0     H43032   3.835   6.779  10.304  3.1876 -0.0177  0.6523
  312MOL0     H43033   3.951   6.769  10.183 -0.1073 -0.4497 -0.2841
  312MOL0     H43034   3.879   6.532  10.240 -0.2417 -0.2038 -1.4374
  312MOL0     H43035   3.829   6.571  10.074 -3.4949 -1.5811 -0.0600
  312MOL0     H43036   3.829   6.743   9.329 -0.8191 -2.3294 -2.8359
  312MOL0     H43037   3.867   6.722   9.081  1.9493 -1.5189  2.2160
  312MOL0     H43038   3.785   6.635   8.642  1.1546 -1.6353 -2.8495
  312MOL0     H43039   3.868   6.623   8.425  0.1279 -1.2120 -0.0422
  312MOL0     H43040   4.272   7.991   7.360  1.0117  0.1830  2.1983
  312MOL0     H43041   4.324   8.131   7.158  0.1164  0.1508 -0.5391
  312MOL0     H43042   4.210   8.526   6.889 -1.7405 -0.8969  1.0027
  312MOL0     H43043   4.277   8.673   6.728  0.0105  1.4488  0.1612
  312MOL0     H43044   4.588   8.977   6.859  1.3795 -1.9478  1.9596
  312MOL0     H43045   4.687   8.868   6.763  1.3625  2.2819 -1.0844
  312MOL0     H43046   4.698   9.083   6.662 -0.6656  0.5932 -3.2995
  312MOL0     H43047   4.518   9.091   6.661 -1.2717 -1.7031  2.5822
  312MOL0     H43048   4.560   8.875   6.491  3.5932 -1.3486  2.8926
  312MOL0     H43049   4.555   9.048   6.448  0.3980 -0.9294 -3.2759
  312MOL0     H43050   4.803   9.052   6.463 -3.2521  1.4488  2.3915
  312MOL0     H43051   4.760   8.954   6.334  1.8428  1.9733 -0.4199
  312MOL0     H43052   4.952   8.726   6.645  2.9726  2.3171 -2.2839
  312MOL0     H43053   4.605   8.811   6.980 -0.9270  1.5527 -0.7923
  312MOL0     H43054   4.549   8.574   7.249  1.3654 -0.1305  1.4267
  312MOL0     H43055   4.624   8.727   7.201  0.9250 -3.0143 -0.3246
  312MOL0     H43056   4.459   8.718   7.277 -0.0984  2.1284  0.0336
  313MOL0     O43057   8.729   4.183   7.157 -0.1675  0.9659  0.2767
  313MOL0     C43058   8.778   4.085   7.207 -0.0084 -0.1033 -0.5443
  313MOL0     O43059   8.782   4.058   7.342  0.3052 -0.6035  0.2999
  313MOL0     C43060   8.721   4.145   7.433 -0.6176 -0.0104 -0.2648
  313MOL0     C43061   8.614   4.090   7.502  0.7855  0.1891  0.4946
  313MOL0     C43062   8.540   4.169   7.583  0.0547  0.0465 -0.2327
  313MOL0     C43063   8.576   4.301   7.618 -0.3783 -0.2714  0.4235
  313MOL0     O43064   8.492   4.377   7.703  0.1009 -0.0628 -0.2327
  313MOL0     C43065   8.479   4.505   7.663  0.6720 -0.4290  0.4375
  313MOL0     C43066   8.362   4.573   7.738 -0.2459 -0.3451  0.0100
  313MOL0     C43067   8.223   4.501   7.738  0.2211 -0.2764  0.9296
  313MOL0     C43068   8.186   4.455   7.591 -0.3161 -1.1952 -0.5668
  313MOL0     C43069   8.039   4.422   7.592  0.4883  0.1679 -0.1485
  313MOL0     C43070   8.006   4.366   7.470  0.1982  0.3056  1.7532
  313MOL0     C43071   7.864   4.353   7.441 -0.3090 -0.7516 -0.3830
  313MOL0     C43072   7.799   4.233   7.519  0.1269 -1.2464  0.2495
  313MOL0     N43073   7.663   4.207   7.479 -0.0553  0.1442 -0.9872
  313MOL0     C43074   7.602   4.089   7.509 -0.6587  0.3682  0.4315
  313MOL0     C43075   7.467   4.101   7.472  0.3925  0.4531 -0.0552
  313MOL0     C43076   7.372   3.982   7.465 -0.3877  0.1304 -0.9824
  313MOL0     C43077   7.240   4.008   7.519 -0.2838 -0.4894  0.8840
  313MOL0     C43078   7.143   3.896   7.543  0.4411 -1.0468  0.1980
  313MOL0     C43079   7.145   3.849   7.687  0.6197  0.6473 -0.4659
  313MOL0     O43080   7.088   3.938   7.777  0.4018  0.3960  0.5063
  313MOL0     C43081   7.126   3.923   7.913  0.8074 -0.0811  0.5794
  313MOL0     C43082   7.111   4.037   7.997  0.0385  0.9991 -0.5195
  313MOL0     C43083   7.109   4.031   8.139  0.4043 -0.2665  0.7675
  313MOL0     C43084   7.062   4.157   8.201 -1.1218 -1.1215  0.3197
  313MOL0     C43085   7.154   3.909   8.199 -0.2216  0.2178 -0.2708
  313MOL0     C43086   7.166   3.889   8.343 -1.5528  0.4798 -0.4150
  313MOL0     O43087   7.209   3.760   8.366 -0.1383 -0.5234 -0.1067
  313MOL0     C43088   7.269   3.733   8.491  0.1574 -0.5521  0.0444
  313MOL0     C43089   7.413   3.740   8.507  0.3556 -0.5276 -0.2398
  313MOL0     C43090   7.479   3.715   8.626  0.5261  0.4649  0.0140
  313MOL0     C43091   7.398   3.691   8.742  0.3133  0.2354  0.2262
  313MOL0     O43092   7.464   3.669   8.856 -0.1307 -0.9924 -0.0648
  313MOL0     C43093   7.438   3.540   8.914  0.8381  0.3598  0.3258
  313MOL0     C43094   7.533   3.496   9.020 -0.0578  0.1870 -0.0448
  313MOL0     C43095   7.501   3.369   9.089 -0.3057  0.9795  0.0978
  313MOL0     C43096   7.598   3.335   9.201  0.2683  0.3345 -0.3124
  313MOL0     C43097   7.606   3.196   9.238  0.2234  0.6404  0.8447
  313MOL0     C43098   7.669   3.180   9.373  0.6624  0.2018  0.2625
  313MOL0     C43099   7.711   3.034   9.403 -0.1046  0.0177  0.8815
  313MOL0     C43100   7.770   3.006   9.545 -0.5793 -0.1522  0.2587
  313MOL0    Cl43101   7.931   3.087   9.561 -0.0226 -0.5121  0.1709
  313MOL0     C43102   7.254   3.693   8.732 -0.0503  0.0236  0.3490
  313MOL0     C43103   7.196   3.715   8.605 -0.8545  0.4618 -0.3831
  313MOL0     O43104   7.184   3.988   8.415  1.2545  0.0384  0.1356
  313MOL0     C43105   7.176   3.796   8.114  0.5942  0.4459  0.5016
  313MOL0     C43106   7.166   3.802   7.974  0.4521  0.0625  0.3995
  313MOL0     N43107   7.461   4.236   7.419  0.4392 -0.1509 -1.0184
  313MOL0     N43108   7.578   4.293   7.431 -0.3398  0.0310 -0.9248
  313MOL0     C43109   8.693   4.348   7.560  0.6059 -0.1068  0.8049
  313MOL0     C43110   8.763   4.267   7.469  0.9388 -0.5797 -0.5273
  313MOL0     C43111   8.872   4.008   7.118  0.2036  0.4627 -0.0746
  313MOL0     C43112   9.004   3.998   7.158  0.9603 -0.0218  0.2800
  313MOL0     C43113   9.104   3.942   7.080 -0.6654  0.2578 -0.1942
  313MOL0     C43114   9.065   3.885   6.956  0.3103 -0.1533  0.4307
  313MOL0     O43115   9.166   3.842   6.873 -0.0419 -0.8446 -0.2710
  313MOL0     C43116   9.302   3.863   6.885  0.2904 -0.2105  0.3299
  313MOL0     C43117   9.349   4.010   6.878  0.1734  0.0900 -0.3374
  313MOL0     C43118   9.497   4.042   6.910  0.4278  0.2545  0.2486
  313MOL0     C43119   9.572   4.139   6.821 -0.2499 -0.9910  0.4599
  313MOL0     C43120   9.715   4.154   6.858  0.0570 -0.7251  0.7933
  313MOL0     C43121   9.821   4.172   6.906  0.2162  0.2490 -0.2543
  313MOL0     C43122   8.926   3.884   6.925  0.0386 -0.7708 -0.2011
  313MOL0     C43123   8.826   3.951   7.004  0.2976 -0.7320  1.5616
  313MOL0     C43124   8.677   3.952   6.957  0.0762  0.0805  0.8085
  313MOL0     H43125   8.583   3.987   7.489 -1.4777  0.4362  3.0595
  313MOL0     H43126   8.455   4.123   7.633  1.0010 -1.8396 -0.2901
  313MOL0     H43127   8.468   4.517   7.555 -1.3509  1.6393  0.7906
  313MOL0     H43128   8.570   4.562   7.681  0.6354 -1.0055  2.8439
  313MOL0     H43129   8.403   4.584   7.839  2.5023 -1.5224 -0.8947
  313MOL0     H43130   8.359   4.677   7.702 -1.5027  0.6511  2.7229
  313MOL0     H43131   8.245   4.418   7.806  3.2533 -2.3795 -2.2438
  313MOL0     H43132   8.138   4.562   7.771 -2.0198 -0.1224 -4.1042
  313MOL0     H43133   8.199   4.536   7.519 -1.1070 -0.9515 -0.4478
  313MOL0     H43134   8.248   4.368   7.567  4.3602  1.2565  1.4107
  313MOL0     H43135   7.983   4.515   7.604  0.5575  0.4621 -1.8692
  313MOL0     H43136   8.008   4.355   7.673 -1.4980  0.7807 -0.3311
  313MOL0     H43137   8.037   4.436   7.390  0.9707  0.8156  2.4750
  313MOL0     H43138   8.058   4.275   7.440  0.6444  1.8518 -3.2170
  313MOL0     H43139   7.844   4.340   7.334 -4.1430  0.5394  0.0243
  313MOL0     H43140   7.812   4.447   7.461  1.4155  0.5168 -1.5438
  313MOL0     H43141   7.863   4.146   7.504  0.6628 -0.8867  0.4069
  313MOL0     H43142   7.808   4.252   7.626  2.1638 -0.1196 -0.0491
  313MOL0     H43143   7.647   3.999   7.548  0.7159 -1.1423 -3.9982
  313MOL0     H43144   7.425   3.911   7.531  1.1255  1.3184 -0.8556
  313MOL0     H43145   7.352   3.953   7.362 -3.0625 -0.8654 -0.2526
  313MOL0     H43146   7.255   4.072   7.606  0.9100 -1.4591  1.4169
  313MOL0     H43147   7.189   4.068   7.443 -0.2034 -3.1160 -1.4325
  313MOL0     H43148   7.045   3.934   7.512  1.3593  1.1645 -0.2141
  313MOL0     H43149   7.168   3.820   7.469 -2.6517 -2.0323  0.0344
  313MOL0     H43150   7.098   3.751   7.691  3.7701 -1.1504 -3.0844
  313MOL0     H43151   7.247   3.827   7.722  1.7810  1.1916 -3.2559
  313MOL0     H43152   7.085   4.133   7.954  4.1133  2.8622  0.6969
  313MOL0     H43153   6.968   4.175   8.148 -0.5248 -0.1087 -0.4444
  313MOL0     H43154   7.136   4.232   8.170  0.1040 -2.3617  0.1499
  313MOL0     H43155   7.050   4.167   8.309 -2.4126  0.1804  0.0859
  313MOL0     H43156   7.471   3.776   8.423 -1.0184  3.2481  0.2264
  313MOL0     H43157   7.587   3.703   8.623  0.2762 -2.0039 -1.6631
  313MOL0     H43158   7.337   3.543   8.954 -0.1223 -2.0175 -1.6196
  313MOL0     H43159   7.440   3.468   8.831 -1.4889 -1.4461  1.7255
  313MOL0     H43160   7.625   3.463   8.969  0.3148  1.1042  0.0276
  313MOL0     H43161   7.553   3.579   9.088 -0.2288  2.2784 -2.4186
  313MOL0     H43162   7.506   3.299   9.005 -2.3471  0.5241  0.2914
  313MOL0     H43163   7.400   3.373   9.130 -1.1093 -0.3401 -1.6067
  313MOL0     H43164   7.567   3.406   9.278 -2.0903  2.4034 -2.9820
  313MOL0     H43165   7.695   3.375   9.169 -0.4301  1.5739 -0.9395
  313MOL0     H43166   7.501   3.166   9.246 -0.0672  1.5080  0.4627
  313MOL0     H43167   7.660   3.134   9.166 -0.7254  0.7182  0.0411
  313MOL0     H43168   7.589   3.201   9.444  1.2588  1.0878  0.6779
  313MOL0     H43169   7.762   3.237   9.385  2.7051 -2.9630  0.9046
  313MOL0     H43170   7.783   2.983   9.338 -0.3497 -0.2789  0.8406
  313MOL0     H43171   7.626   2.969   9.383  0.0483 -0.2896  1.2045
  313MOL0     H43172   7.790   2.900   9.560  2.3129  0.1480 -0.8409
  313MOL0     H43173   7.697   3.039   9.620  1.0128  3.3920  0.4587
  313MOL0     H43174   7.196   3.674   8.822 -1.2566 -0.3308 -0.4816
  313MOL0     H43175   7.089   3.718   8.589 -1.1150 -0.5646  0.9901
  313MOL0     H43176   7.198   3.697   8.153 -0.2827  0.1597  0.3006
  313MOL0     H43177   7.187   3.721   7.904 -0.6191  0.2910 -0.2262
  313MOL0     H43178   8.709   4.453   7.582 -0.5284  0.2380  0.0605
  313MOL0     H43179   8.848   4.318   7.425 -0.3666 -0.5207 -3.1310
  313MOL0     H43180   9.026   4.048   7.252  0.5256  1.1553 -0.2253
  313MOL0     H43181   9.202   3.930   7.124 -1.3833  0.3049  1.5035
  313MOL0     H43182   9.336   3.824   6.982  0.0380 -1.6355 -0.1339
  313MOL0     H43183   9.354   3.807   6.807 -2.2477 -1.2743 -0.6845
  313MOL0     H43184   9.298   4.074   6.951  1.7227  0.9804  0.0147
  313MOL0     H43185   9.326   4.047   6.778  1.3093 -1.3084 -1.1622
  313MOL0     H43186   9.491   4.070   7.016 -0.1556  2.2272 -0.2639
  313MOL0     H43187   9.555   3.952   6.929  1.7440  1.4227  2.1307
  313MOL0     H43188   9.531   4.237   6.848  0.6459 -0.3716 -0.3936
  313MOL0     H43189   9.563   4.130   6.713 -2.2915  3.3343  0.0655
  313MOL0     H43190   9.910   4.207   6.953 -0.1095 -1.8775  2.1326
  313MOL0     H43191   8.901   3.851   6.824 -5.6879  1.5645  0.0858
  313MOL0     H43192   8.615   3.965   7.046  2.9367  1.1753  2.8027
  313MOL0     H43193   8.656   4.041   6.897  2.7087 -0.1369 -0.6072
  313MOL0     H43194   8.652   3.862   6.900  2.6777  0.3390 -0.9488
  314MOL0     O43195   4.700   1.532   1.886  0.0718 -0.2217  1.4415
  314MOL0     C43196   4.717   1.601   1.979 -0.5768 -0.9124 -0.9170
  314MOL0     O43197   4.700   1.736   1.993  0.0673  0.7910 -0.8682
  314MOL0     C43198   4.659   1.814   1.886 -0.2227 -0.2268  0.2216
  314MOL0     C43199   4.687   1.783   1.753  0.2110 -0.3886  0.7832
  314MOL0     C43200   4.662   1.879   1.650 -0.2498  0.2636  0.3732
  314MOL0     C43201   4.607   2.001   1.681 -0.8666  0.2279  0.1748
  314MOL0     O43202   4.582   2.106   1.595 -0.6057  0.5722 -0.3326
  314MOL0     C43203   4.624   2.099   1.457 -0.7641  0.0116 -0.3186
  314MOL0     C43204   4.632   2.254   1.406  0.2640  0.2318  0.3011
  314MOL0     C43205   4.493   2.301   1.351  0.5254  0.0083  0.0233
  314MOL0     C43206   4.402   2.357   1.462  0.0555  0.6213  0.0863
  314MOL0     C43207   4.253   2.368   1.428  0.4500  0.2977 -0.8136
  314MOL0     C43208   4.224   2.462   1.307 -1.0205 -0.1767 -0.1265
  314MOL0     C43209   4.080   2.502   1.289 -1.3272  0.2718  0.3108
  314MOL0     C43210   3.980   2.390   1.272 -0.0297  0.1861 -0.8448
  314MOL0     N43211   3.845   2.441   1.264 -0.3438 -0.1215 -1.1204
  314MOL0     C43212   3.759   2.489   1.364 -0.1971 -0.3978 -0.1597
  314MOL0     C43213   3.646   2.521   1.291  0.1220  0.1304  0.3740
  314MOL0     C43214   3.514   2.568   1.339 -0.1512  0.0390  0.2490
  314MOL0     C43215   3.495   2.714   1.313 -0.1413 -0.0183 -0.3922
  314MOL0     C43216   3.363   2.742   1.237  0.5249  0.4349 -0.1182
  314MOL0     C43217   3.326   2.895   1.257 -0.6181 -0.2202  1.1720
  314MOL0     O43218   3.261   2.919   1.381  0.5430  0.2000 -0.1653
  314MOL0     C43219   3.186   3.027   1.380 -1.0833  0.0467  0.3851
  314MOL0     C43220   3.047   3.013   1.403  0.4985 -0.6972 -0.9876
  314MOL0     C43221   2.960   3.131   1.409 -0.3774 -0.1183  0.8660
  314MOL0     C43222   2.812   3.109   1.427  0.7723  0.4336 -0.2881
  314MOL0     C43223   3.018   3.258   1.404  0.1852  0.8197  0.4142
  314MOL0     C43224   2.943   3.374   1.406 -0.1843  0.6629  0.0088
  314MOL0     O43225   2.925   3.432   1.285  0.0762  0.3405  0.2680
  314MOL0     C43226   2.884   3.563   1.277 -0.1567  0.7968 -0.8335
  314MOL0     C43227   2.776   3.601   1.204  0.3192 -0.1199  0.4777
  314MOL0     C43228   2.743   3.738   1.203 -0.5052  0.7949  0.4132
  314MOL0     C43229   2.820   3.834   1.279 -0.2985  0.6140  0.4232
  314MOL0     O43230   2.790   3.966   1.297 -0.4555  0.1479 -0.1246
  314MOL0     C43231   2.687   4.020   1.215  0.6569  0.0904 -0.3047
  314MOL0     C43232   2.704   4.165   1.222 -1.1440  0.0073  0.6768
  314MOL0     C43233   2.659   4.234   1.354 -0.1353  0.4456  0.9719
  314MOL0     C43234   2.531   4.318   1.325  0.3002  0.0497  0.6073
  314MOL0     C43235   2.479   4.375   1.461  0.5087 -0.0252 -0.2306
  314MOL0     C43236   2.395   4.262   1.526  0.3414 -0.5522  0.5106
  314MOL0     C43237   2.315   4.317   1.652  0.2155  0.3262 -0.3145
  314MOL0     C43238   2.201   4.409   1.628  0.5839  0.4480 -0.0405
  314MOL0    Cl43239   2.072   4.359   1.508  0.2690 -0.0740 -0.0160
  314MOL0     C43240   2.929   3.785   1.349  0.3286  0.6314  0.0849
  314MOL0     C43241   2.962   3.659   1.340 -0.7654  0.7115 -0.4131
  314MOL0     O43242   2.919   3.416   1.518  0.0284 -0.7310 -0.0052
  314MOL0     C43243   3.153   3.266   1.387  0.3949 -0.3496  0.1368
  314MOL0     C43244   3.243   3.154   1.374 -0.2658 -0.8573  0.9094
  314MOL0     N43245   3.677   2.506   1.154 -0.5818  0.4591 -0.7171
  314MOL0     N43246   3.792   2.451   1.145 -1.3553  0.1968  0.3708
  314MOL0     C43247   4.569   2.027   1.815  0.2038 -0.5273  1.2656
  314MOL0     C43248   4.603   1.939   1.916 -0.9586 -0.4976 -0.0631
  314MOL0     C43249   4.742   1.542   2.111 -0.1873  0.7592  0.1299
  314MOL0     C43250   4.689   1.604   2.220 -0.1319  0.1491  0.0002
  314MOL0     C43251   4.711   1.561   2.354  0.0905  0.6806 -0.6571
  314MOL0     C43252   4.777   1.436   2.386  0.7009 -0.0160 -1.0004
  314MOL0     O43253   4.787   1.385   2.517  0.1370 -0.4014 -0.0807
  314MOL0     C43254   4.715   1.425   2.626 -0.4343 -0.0920  0.7670
  314MOL0     C43255   4.792   1.531   2.707  0.4481  0.3822  0.8807
  314MOL0     C43256   4.927   1.480   2.753  0.4637 -0.4681 -1.3167
  314MOL0     C43257   4.940   1.506   2.907  0.2917 -0.3427  0.4087
  314MOL0     C43258   4.943   1.644   2.955  0.5487  0.2100  0.2002
  314MOL0     C43259   4.944   1.761   2.979 -0.4601 -0.2125  0.4530
  314MOL0     C43260   4.830   1.369   2.274  0.1365 -0.9473 -0.7749
  314MOL0     C43261   4.824   1.429   2.140  0.3319 -0.5817 -0.0861
  314MOL0     C43262   4.875   1.350   2.027  0.7856 -0.4299  0.0513
  314MOL0     H43263   4.728   1.688   1.719 -0.1876 -0.1684 -0.3634
  314MOL0     H43264   4.693   1.849   1.550 -3.4628 -0.6924 -0.4655
  314MOL0     H43265   4.564   2.029   1.398  0.1100 -3.7746  2.9123
  314MOL0     H43266   4.726   2.060   1.458 -0.5873  0.4650 -0.4339
  314MOL0     H43267   4.653   2.318   1.492 -0.1648 -1.4675  1.7391
  314MOL0     H43268   4.707   2.265   1.328 -1.5030  0.5228 -1.4351
  314MOL0     H43269   4.518   2.384   1.284 -0.4192  0.1864 -0.1209
  314MOL0     H43270   4.448   2.216   1.299 -1.3236  0.1528  1.2713
  314MOL0     H43271   4.410   2.291   1.549  2.8896 -0.4363 -0.8706
  314MOL0     H43272   4.438   2.454   1.497 -1.0506  2.8932 -4.3829
  314MOL0     H43273   4.208   2.422   1.512  1.9153 -0.2638  0.3700
  314MOL0     H43274   4.200   2.272   1.424  1.4215 -0.2195 -1.5138
  314MOL0     H43275   4.293   2.546   1.324  1.6057 -2.3579  0.7820
  314MOL0     H43276   4.249   2.406   1.217 -2.2464 -0.4716 -0.2940
  314MOL0     H43277   4.084   2.574   1.207  2.0407  0.4625  0.5137
  314MOL0     H43278   4.048   2.558   1.378  1.9030  2.4809  0.2539
  314MOL0     H43279   3.995   2.317   1.192 -0.9292 -0.0538 -0.8106
  314MOL0     H43280   4.002   2.331   1.362  3.0593  0.1327 -1.5089
  314MOL0     H43281   3.780   2.492   1.471  0.7040 -0.3070 -0.3372
  314MOL0     H43282   3.499   2.544   1.444 -5.3658 -1.6353 -0.5843
  314MOL0     H43283   3.428   2.514   1.298 -0.9383  1.9369 -0.7234
  314MOL0     H43284   3.479   2.765   1.408 -0.3733  0.5232 -0.7178
  314MOL0     H43285   3.587   2.753   1.267  0.9305  0.4920  2.0467
  314MOL0     H43286   3.375   2.709   1.134 -1.1283 -1.1955  0.1575
  314MOL0     H43287   3.286   2.683   1.288  2.5060  1.6451  4.9413
  314MOL0     H43288   3.408   2.967   1.254 -1.2546  0.5073  0.7269
  314MOL0     H43289   3.259   2.929   1.177 -1.7658 -0.9642  1.7878
  314MOL0     H43290   3.010   2.913   1.426  0.2543 -0.0983  1.5089
  314MOL0     H43291   2.763   3.159   1.511 -1.4376 -2.6503  0.4347
  314MOL0     H43292   2.807   3.000   1.425  2.4343  0.3193 -0.1718
  314MOL0     H43293   2.758   3.160   1.347  0.9204  2.1800  0.6679
  314MOL0     H43294   2.707   3.530   1.160 -0.4103  0.1000  1.2361
  314MOL0     H43295   2.647   3.773   1.167 -0.9679  1.6052  2.3029
  314MOL0     H43296   2.702   4.001   1.108 -0.1999  1.7319 -0.7573
  314MOL0     H43297   2.587   3.988   1.245 -0.8691  3.9778 -0.6496
  314MOL0     H43298   2.812   4.182   1.210 -1.3639  0.1852 -1.4883
  314MOL0     H43299   2.657   4.217   1.138 -1.6805  0.3568  1.1881
  314MOL0     H43300   2.737   4.294   1.403  1.5485  0.8737 -2.0092
  314MOL0     H43301   2.636   4.151   1.422  0.4862  1.2719  2.2484
  314MOL0     H43302   2.452   4.268   1.269 -2.6597 -0.3348  4.6520
  314MOL0     H43303   2.561   4.404   1.265 -0.2447  0.3056  0.7029
  314MOL0     H43304   2.559   4.425   1.517 -1.4065  0.0146  2.7178
  314MOL0     H43305   2.411   4.458   1.437  0.8786  0.5359  0.5849
  314MOL0     H43306   2.458   4.176   1.552  1.9774  0.6614  0.7450
  314MOL0     H43307   2.337   4.226   1.441 -0.0434  2.4694 -0.6336
  314MOL0     H43308   2.391   4.354   1.722 -0.4581  1.0200  0.0707
  314MOL0     H43309   2.270   4.234   1.708 -0.3795  0.2724 -0.8688
  314MOL0     H43310   2.243   4.499   1.582 -0.7582  2.7128  2.8329
  314MOL0     H43311   2.152   4.437   1.722 -0.3362  3.2838 -1.2412
  314MOL0     H43312   2.991   3.846   1.415  0.1830 -1.6631  2.4935
  314MOL0     H43313   3.054   3.628   1.388 -1.0270 -0.0281 -0.3844
  314MOL0     H43314   3.202   3.363   1.376 -1.6211  0.4194 -4.0602
  314MOL0     H43315   3.350   3.162   1.362 -0.2128  1.4100  2.3664
  314MOL0     H43316   4.504   2.110   1.840 -0.0650 -1.0317  2.3355
  314MOL0     H43317   4.576   1.972   2.016  2.6727  2.3371  0.1933
  314MOL0     H43318   4.629   1.693   2.209 -1.2521 -0.5993 -0.1472
  314MOL0     H43319   4.670   1.611   2.441  0.2787 -0.7721  0.2887
  314MOL0     H43320   4.618   1.465   2.594 -1.0069 -1.3269  0.9193
  314MOL0     H43321   4.703   1.343   2.697  0.3337  1.2611  2.5361
  314MOL0     H43322   4.727   1.569   2.786  0.2544  3.7793 -0.7122
  314MOL0     H43323   4.812   1.612   2.636 -1.3656 -1.8283 -2.4444
  314MOL0     H43324   4.937   1.373   2.731 -0.0470 -1.4271  2.4471
  314MOL0     H43325   5.009   1.533   2.704  2.3898  0.8205  2.8631
  314MOL0     H43326   5.032   1.456   2.938 -0.0215 -2.1805 -1.4187
  314MOL0     H43327   4.857   1.462   2.963  0.2481 -2.1167 -0.9524
  314MOL0     H43328   4.934   1.866   2.997 -1.9633 -0.3072  0.2736
  314MOL0     H43329   4.870   1.271   2.297  3.0067  0.5228  1.0825
  314MOL0     H43330   4.921   1.254   2.050 -0.6342 -0.8538  1.2696
  314MOL0     H43331   4.786   1.318   1.973  0.3934  1.6353 -0.6303
  314MOL0     H43332   4.947   1.402   1.962  1.5967 -2.3708 -0.6720
  315MOL0     O43333   2.427   2.410   2.221  0.0644 -0.2670 -0.2391
  315MOL0     C43334   2.493   2.339   2.148 -0.1395  0.1060  0.7843
  315MOL0     O43335   2.588   2.256   2.189 -0.6467 -0.4298 -0.3832
  315MOL0     C43336   2.644   2.287   2.304 -0.4953 -1.3742 -0.2416
  315MOL0     C43337   2.603   2.221   2.414 -1.0092 -0.9146  0.0127
  315MOL0     C43338   2.659   2.261   2.539 -0.1198  0.6476  1.1028
  315MOL0     C43339   2.749   2.373   2.548  0.9609 -0.1241  0.3639
  315MOL0     O43340   2.793   2.408   2.672  1.2180  0.5151 -0.0011
  315MOL0     C43341   2.861   2.535   2.708 -0.2348  0.4731  0.0830
  315MOL0     C43342   2.893   2.546   2.860  0.2453  0.3328 -0.9362
  315MOL0     C43343   2.967   2.415   2.892 -0.1767  0.2316 -0.1958
  315MOL0     C43344   3.076   2.426   3.015 -0.8187  0.0491 -0.2703
  315MOL0     C43345   3.165   2.301   3.019 -0.1491  0.4406 -0.0854
  315MOL0     C43346   3.088   2.177   3.047 -0.1958 -0.2259  0.8145
  315MOL0     C43347   3.166   2.047   3.068  0.2710  0.4011  0.1096
  315MOL0     C43348   3.246   2.053   3.203  0.3231  0.1395  1.0566
  315MOL0     N43349   3.391   2.076   3.188 -1.0239 -0.2221 -0.0006
  315MOL0     C43350   3.466   1.972   3.131 -0.3098 -0.2586  0.1288
  315MOL0     C43351   3.596   2.002   3.176  0.4824 -0.9431  0.5566
  315MOL0     C43352   3.709   1.905   3.139 -0.1101 -0.7875 -0.2637
  315MOL0     C43353   3.742   1.795   3.246  0.8795 -0.4193  0.2499
  315MOL0     C43354   3.868   1.707   3.208  0.0302 -0.0578 -0.4425
  315MOL0     C43355   3.839   1.628   3.082  0.2781 -0.6982  0.5281
  315MOL0     O43356   3.944   1.533   3.045 -0.5913 -0.3904  0.6118
  315MOL0     C43357   4.052   1.573   2.981  0.2578 -0.2720 -0.3651
  315MOL0     C43358   4.117   1.475   2.915  0.2777 -0.6009 -0.0116
  315MOL0     C43359   4.225   1.497   2.837  0.5906 -0.5141  0.5728
  315MOL0     C43360   4.278   1.375   2.782 -0.0677  0.2242 -0.8170
  315MOL0     C43361   4.281   1.625   2.831  0.2057  0.4669  0.0119
  315MOL0     C43362   4.389   1.663   2.750 -0.9265 -0.4245 -0.6352
  315MOL0     O43363   4.440   1.786   2.785 -0.2210  0.1292 -0.2618
  315MOL0     C43364   4.516   1.847   2.694 -0.1495  0.8468  0.6301
  315MOL0     C43365   4.455   1.902   2.575  0.8954 -0.1504 -0.6662
  315MOL0     C43366   4.539   1.966   2.480  0.3808  1.1823 -0.1234
  315MOL0     C43367   4.673   1.978   2.504 -0.3962  0.7653  0.8436
  315MOL0     O43368   4.739   2.050   2.411 -1.0694  0.0463 -0.2966
  315MOL0     C43369   4.881   2.064   2.421 -0.4700 -0.0017 -0.7550
  315MOL0     C43370   4.933   2.130   2.293  0.1748  0.4408  0.4687
  315MOL0     C43371   4.925   2.049   2.163  0.5880  0.5201 -0.3180
  315MOL0     C43372   4.920   2.146   2.043 -0.5204 -0.1760  0.0247
  315MOL0     C43373   4.953   2.076   1.903 -0.2029 -1.1586 -0.7416
  315MOL0     C43374   4.981   2.176   1.795  0.0828 -0.1019 -0.2386
  315MOL0     C43375   4.975   2.100   1.655  0.7205  0.9431  0.7486
  315MOL0     C43376   5.034   2.175   1.542 -0.6861 -0.6028  0.2508
  315MOL0    Cl43377   4.937   2.328   1.511  0.0208 -0.1166 -0.2886
  315MOL0     C43378   4.730   1.910   2.614  0.0383  0.2490  0.4449
  315MOL0     C43379   4.649   1.848   2.713 -0.3384  0.6043  0.0699
  315MOL0     O43380   4.419   1.604   2.650 -0.5949 -0.2762 -0.3687
  315MOL0     C43381   4.228   1.721   2.916 -0.1822  0.0309 -0.3869
  315MOL0     C43382   4.109   1.705   2.986  0.3604  0.7236  0.2259
  315MOL0     N43383   3.598   2.103   3.268 -0.2285 -0.1283  0.0944
  315MOL0     N43384   3.483   2.146   3.270  0.6352  0.3776  0.2276
  315MOL0     C43385   2.779   2.437   2.425 -0.1419  0.0579  0.3031
  315MOL0     C43386   2.731   2.397   2.308 -0.0113  0.0268  0.0989
  315MOL0     C43387   2.452   2.327   2.000 -0.3474 -0.7936 -0.3378
  315MOL0     C43388   2.517   2.226   1.923  0.0273  0.4020 -0.0966
  315MOL0     C43389   2.483   2.202   1.784  0.2552  0.9482 -0.2722
  315MOL0     C43390   2.375   2.284   1.733 -0.3337 -0.0801  0.4124
  315MOL0     O43391   2.339   2.271   1.600  0.1770 -0.0288  0.0632
  315MOL0     C43392   2.407   2.190   1.508  0.4128  0.4848  0.9305
  315MOL0     C43393   2.522   2.283   1.454  0.1985  0.1881 -0.6305
  315MOL0     C43394   2.654   2.230   1.506  0.1363 -0.4439 -0.2476
  315MOL0     C43395   2.762   2.280   1.423 -0.8359 -0.3547 -0.1764
  315MOL0     C43396   2.762   2.188   1.314 -0.2984  0.2181  0.3982
  315MOL0     C43397   2.761   2.105   1.225 -0.2995 -0.5022 -0.4992
  315MOL0     C43398   2.298   2.367   1.811  0.5048 -0.5288 -0.2625
  315MOL0     C43399   2.341   2.393   1.942  0.3092  0.8942  0.1089
  315MOL0     C43400   2.270   2.513   2.013  0.6689  0.3166 -0.1278
  315MOL0     H43401   2.525   2.146   2.417  0.6309 -2.7269 -0.3692
  315MOL0     H43402   2.637   2.204   2.629 -0.2960 -2.5083 -0.7817
  315MOL0     H43403   2.795   2.620   2.689  0.9354  1.5675  0.7993
  315MOL0     H43404   2.948   2.562   2.648 -0.5889 -0.2378 -0.7736
  315MOL0     H43405   2.961   2.629   2.880  3.5978 -2.6533  1.4551
  315MOL0     H43406   2.801   2.549   2.920  1.3163  1.1987  0.7411
  315MOL0     H43407   2.902   2.332   2.920  1.8829 -1.7930 -0.9921
  315MOL0     H43408   3.029   2.385   2.806  0.2109 -0.5625  0.3442
  315MOL0     H43409   3.153   2.503   3.002  1.1841 -1.9313 -0.7431
  315MOL0     H43410   3.020   2.434   3.109  0.6882  1.1247  0.5850
  315MOL0     H43411   3.229   2.313   3.107 -0.8170 -0.7574  0.5951
  315MOL0     H43412   3.224   2.285   2.928  3.6192  0.8240  2.0707
  315MOL0     H43413   3.031   2.189   3.139  1.7401 -3.6099  2.6524
  315MOL0     H43414   3.020   2.149   2.966 -0.9514 -0.1605  1.4117
  315MOL0     H43415   3.236   2.029   2.985  0.4071  0.8011  0.1364
  315MOL0     H43416   3.088   1.972   3.053  0.4302  0.1758  0.3836
  315MOL0     H43417   3.203   2.117   3.281  0.8842 -0.4962  1.9166
  315MOL0     H43418   3.226   1.952   3.242  1.1087 -0.3001  0.3293
  315MOL0     H43419   3.432   1.890   3.070  0.1217  1.7577 -3.0790
  315MOL0     H43420   3.799   1.963   3.121  0.0693 -1.2171 -0.8050
  315MOL0     H43421   3.682   1.853   3.046 -2.7898  1.2137 -0.7140
  315MOL0     H43422   3.760   1.854   3.337 -0.3382  0.8334 -0.2821
  315MOL0     H43423   3.651   1.735   3.259 -1.0750  2.5572  1.4250
  315MOL0     H43424   3.951   1.777   3.203 -0.7849  0.8811 -4.2825
  315MOL0     H43425   3.878   1.637   3.292 -0.4017  1.3078  0.7975
  315MOL0     H43426   3.744   1.574   3.086 -1.5619  2.2306 -0.4161
  315MOL0     H43427   3.822   1.695   2.997 -0.2567  1.6212  2.3602
  315MOL0     H43428   4.069   1.378   2.923 -1.7279  0.1901 -1.5856
  315MOL0     H43429   4.328   1.409   2.690  0.7189  1.1909 -0.0577
  315MOL0     H43430   4.189   1.314   2.764 -2.2568  2.2138  2.3131
  315MOL0     H43431   4.330   1.320   2.861 -0.6754  1.0326  0.1683
  315MOL0     H43432   4.349   1.894   2.557  1.0358 -0.1574 -1.5404
  315MOL0     H43433   4.496   2.024   2.398  0.5203  0.7762 -0.4913
  315MOL0     H43434   4.911   2.126   2.506 -0.9433 -0.5632 -0.1743
  315MOL0     H43435   4.931   1.969   2.438  0.8766  1.0757  1.7970
  315MOL0     H43436   4.882   2.225   2.278  1.0493  1.1465  1.7648
  315MOL0     H43437   5.039   2.153   2.309  0.3822  0.2799 -0.5826
  315MOL0     H43438   4.844   1.975   2.171  0.2345  1.1310  2.8765
  315MOL0     H43439   5.012   1.982   2.159 -0.9685 -1.5386 -2.2959
  315MOL0     H43440   4.987   2.231   2.058 -1.0416  0.7939 -2.5824
  315MOL0     H43441   4.815   2.177   2.055 -0.7531 -1.5436  1.9481
  315MOL0     H43442   5.045   2.017   1.905  0.8981  0.4237 -1.9271
  315MOL0     H43443   4.873   2.009   1.869 -0.0310  0.0238 -3.8008
  315MOL0     H43444   5.076   2.228   1.807 -0.6285  0.9529  1.0259
  315MOL0     H43445   4.902   2.251   1.797 -1.9808 -2.0209 -2.7311
  315MOL0     H43446   4.867   2.085   1.644  0.9248 -0.8461  0.9102
  315MOL0     H43447   5.024   2.003   1.666 -3.8432 -1.7591 -0.3123
  315MOL0     H43448   5.034   2.107   1.456 -1.3182  0.0285 -0.2604
  315MOL0     H43449   5.141   2.190   1.564 -0.9118  0.6856  0.5455
  315MOL0     H43450   4.838   1.915   2.619  0.1313 -0.9922 -0.1164
  315MOL0     H43451   4.695   1.814   2.806  3.1284  2.3661 -0.8373
  315MOL0     H43452   4.278   1.816   2.926  4.4825 -2.1219 -0.7366
  315MOL0     H43453   4.054   1.778   3.044 -1.2804  1.8732 -2.6001
  315MOL0     H43454   2.840   2.526   2.436  0.4758 -0.5282  1.8853
  315MOL0     H43455   2.741   2.455   2.217  0.0806  0.3040  0.2827
  315MOL0     H43456   2.598   2.170   1.970 -1.7825 -0.0770  2.7091
  315MOL0     H43457   2.543   2.127   1.733  1.5179  0.0930  2.2902
  315MOL0     H43458   2.442   2.092   1.542 -0.3042 -0.0677  0.0943
  315MOL0     H43459   2.349   2.168   1.418 -0.4491  1.3833  1.2423
  315MOL0     H43460   2.497   2.383   1.489 -1.9464 -1.5660  3.5303
  315MOL0     H43461   2.511   2.279   1.345 -1.6969 -1.5240 -0.4454
  315MOL0     H43462   2.665   2.288   1.598 -0.0454 -0.3884 -0.2613
  315MOL0     H43463   2.663   2.125   1.538 -1.9696 -0.4196  0.5512
  315MOL0     H43464   2.859   2.280   1.474 -0.7796  1.7912 -0.2108
  315MOL0     H43465   2.740   2.386   1.405  0.8609  0.4963  2.1981
  315MOL0     H43466   2.739   2.031   1.151 -1.2223  0.6654 -1.4455
  315MOL0     H43467   2.217   2.420   1.763  0.8287  1.0912  0.9127
  315MOL0     H43468   2.346   2.578   2.055  1.1397 -2.0701  3.1012
  315MOL0     H43469   2.209   2.570   1.942  1.8191  0.3682 -1.1089
  315MOL0     H43470   2.207   2.478   2.095 -0.6355  2.1148 -0.3024
  316MOL0     O43471   4.026   4.426   2.980  0.4629  0.9166  0.0644
  316MOL0     C43472   4.081   4.492   3.064 -0.5739  0.2693 -0.3322
  316MOL0     O43473   4.015   4.572   3.159 -1.5322  0.1296  0.9118
  316MOL0     C43474   4.082   4.662   3.232  0.1502  0.4821  0.5397
  316MOL0     C43475   4.079   4.656   3.370 -0.0690  0.5625 -0.0075
  316MOL0     C43476   4.145   4.762   3.441 -0.6202  0.2687 -0.1749
  316MOL0     C43477   4.211   4.868   3.375  0.0424  0.0891 -0.1508
  316MOL0     O43478   4.272   4.950   3.464  0.4979  0.0117  0.0760
  316MOL0     C43479   4.319   5.078   3.422  0.4868 -0.2815 -0.2834
  316MOL0     C43480   4.201   5.171   3.403  0.6088 -0.3925  0.1013
  316MOL0     C43481   4.161   5.234   3.536  0.1397  0.1182  0.2575
  316MOL0     C43482   4.070   5.355   3.518 -0.1266  0.2121 -0.2921
  316MOL0     C43483   4.028   5.404   3.651 -0.2650  0.1743 -0.1306
  316MOL0     C43484   3.994   5.556   3.632 -0.1351 -0.0965 -0.0875
  316MOL0     C43485   3.878   5.577   3.544 -0.0719 -0.6956  0.4936
  316MOL0     C43486   3.806   5.711   3.549 -1.2812 -0.0336  0.3462
  316MOL0     N43487   3.733   5.735   3.672  1.1886 -0.0259  0.2744
  316MOL0     C43488   3.600   5.698   3.692 -0.0456 -0.0473  0.0012
  316MOL0     C43489   3.576   5.725   3.822 -0.0725  0.5440 -0.3516
  316MOL0     C43490   3.455   5.728   3.906  0.7455 -0.5483 -0.0611
  316MOL0     C43491   3.368   5.854   3.883 -0.2970  0.4910 -1.0142
  316MOL0     C43492   3.289   5.839   3.754  0.1498 -0.0538 -0.3057
  316MOL0     C43493   3.186   5.938   3.747  0.8701  0.4019  0.3289
  316MOL0     O43494   3.101   5.918   3.627 -0.0571  0.4182  0.3668
  316MOL0     C43495   2.994   5.994   3.616 -0.3289 -0.2485 -0.8676
  316MOL0     C43496   2.877   5.940   3.558 -0.1995  0.7418  0.5753
  316MOL0     C43497   2.756   6.020   3.537 -0.2139  0.4474 -0.0504
  316MOL0     C43498   2.638   5.949   3.468 -0.2658 -0.1822  0.1134
  316MOL0     C43499   2.762   6.157   3.557 -0.3412  0.0573  0.2945
  316MOL0     C43500   2.648   6.247   3.534  0.2726  0.8574  0.1272
  316MOL0     O43501   2.659   6.382   3.504  0.1199 -0.4515 -0.2846
  316MOL0     C43502   2.545   6.466   3.535  0.0283  1.1064 -0.3425
  316MOL0     C43503   2.456   6.520   3.438  0.9769  0.0138 -0.2097
  316MOL0     C43504   2.338   6.581   3.486 -0.1412 -0.3197 -0.2236
  316MOL0     C43505   2.312   6.593   3.622  0.1345 -0.0613 -0.4512
  316MOL0     O43506   2.190   6.636   3.684 -0.7002  0.0546  1.0336
  316MOL0     C43507   2.119   6.730   3.606  0.1695 -0.6964 -0.2978
  316MOL0     C43508   2.034   6.813   3.700  0.5231 -0.0981 -1.3736
  316MOL0     C43509   1.912   6.739   3.759  0.5887 -0.4667 -0.7374
  316MOL0     C43510   1.846   6.844   3.856 -0.4069  0.0670 -0.0340
  316MOL0     C43511   1.736   6.789   3.954 -0.2350  0.1671  0.3910
  316MOL0     C43512   1.622   6.724   3.880 -0.8055 -0.2463  0.0138
  316MOL0     C43513   1.562   6.604   3.947  0.2601 -1.1062 -0.4961
  316MOL0     C43514   1.646   6.486   3.910  0.4802 -0.7750 -0.1910
  316MOL0    Cl43515   1.646   6.463   3.746 -0.2222  0.0068 -0.1942
  316MOL0     C43516   2.407   6.544   3.716  0.0108  0.6627 -0.4506
  316MOL0     C43517   2.520   6.480   3.669 -0.5953  0.2103  0.3304
  316MOL0     O43518   2.541   6.198   3.557  0.6728 -0.0028 -0.6178
  316MOL0     C43519   2.878   6.207   3.622 -0.1526 -0.2006  0.2489
  316MOL0     C43520   2.990   6.129   3.646  0.9778  0.0603 -0.0183
  316MOL0     N43521   3.694   5.774   3.879 -0.0987  0.1192  0.5119
  316MOL0     N43522   3.775   5.788   3.786 -0.8960 -0.6477  0.8283
  316MOL0     C43523   4.208   4.869   3.233  0.7586  0.6802 -0.6405
  316MOL0     C43524   4.139   4.771   3.168 -1.0343 -0.2829 -0.1275
  316MOL0     C43525   4.228   4.459   3.078 -0.0922 -0.4568  0.1229
  316MOL0     C43526   4.276   4.402   3.193  0.0089  1.0918  0.1273
  316MOL0     C43527   4.410   4.349   3.205  1.4293 -0.2815  0.6676
  316MOL0     C43528   4.494   4.375   3.098 -0.8292  0.4095  0.5123
  316MOL0     O43529   4.633   4.351   3.091 -0.2717 -0.0068  0.1836
  316MOL0     C43530   4.696   4.300   3.203 -0.6434  0.1206  0.2903
  316MOL0     C43531   4.822   4.235   3.150 -0.5914  0.4278  0.4092
  316MOL0     C43532   4.799   4.127   3.046 -0.5585 -0.3295  0.0965
  316MOL0     C43533   4.891   4.003   3.056 -0.5533 -0.1758 -0.5341
  316MOL0     C43534   5.032   4.050   3.048 -1.3820  0.1327 -0.1452
  316MOL0     C43535   5.148   4.081   3.025 -0.1998 -0.8543 -0.1716
  316MOL0     C43536   4.445   4.433   2.985  0.8651 -0.8035 -0.4052
  316MOL0     C43537   4.310   4.479   2.975  0.2949 -0.2566  1.1291
  316MOL0     C43538   4.269   4.542   2.848  0.8765 -0.1011  0.2843
  316MOL0     H43539   4.031   4.574   3.423  1.4507  1.1192  2.3704
  316MOL0     H43540   4.153   4.752   3.548  0.0878 -4.4107 -0.4415
  316MOL0     H43541   4.389   5.086   3.337  0.1187 -0.8332 -0.6475
  316MOL0     H43542   4.371   5.116   3.510  0.7349  0.4522 -0.7381
  316MOL0     H43543   4.224   5.253   3.334 -1.7737  2.2741  2.2216
  316MOL0     H43544   4.113   5.121   3.362 -1.6344  1.6323  2.0956
  316MOL0     H43545   4.113   5.154   3.594  1.5811  0.0701  1.4587
  316MOL0     H43546   4.253   5.259   3.591  0.8492 -0.3878 -0.6778
  316MOL0     H43547   4.131   5.437   3.479  0.1729  0.5183  0.7741
  316MOL0     H43548   3.982   5.341   3.455 -1.6225  0.9603  1.5469
  316MOL0     H43549   4.112   5.398   3.720  0.2798  1.8633 -0.6208
  316MOL0     H43550   3.949   5.340   3.693  1.3694 -0.8415  1.5079
  316MOL0     H43551   3.964   5.596   3.730 -2.1921 -1.9025  0.1035
  316MOL0     H43552   4.073   5.622   3.594 -0.4796  1.6847  2.0687
  316MOL0     H43553   3.798   5.506   3.568 -0.3810  0.4070  3.0931
  316MOL0     H43554   3.904   5.561   3.439 -2.0079  2.3221 -0.5568
  316MOL0     H43555   3.886   5.786   3.553 -2.6214  1.3958  4.2096
  316MOL0     H43556   3.738   5.730   3.465  1.3311 -2.4141 -2.5485
  316MOL0     H43557   3.545   5.668   3.603 -0.1238 -2.3917  0.7753
  316MOL0     H43558   3.485   5.733   4.011 -1.5331  0.2145  0.6093
  316MOL0     H43559   3.394   5.638   3.893 -0.7461  0.6798 -2.1218
  316MOL0     H43560   3.302   5.856   3.971  0.1824 -0.0611 -0.6327
  316MOL0     H43561   3.440   5.936   3.884  0.2625  0.1409  2.3832
  316MOL0     H43562   3.345   5.863   3.663 -1.9495  1.8132 -1.2047
  316MOL0     H43563   3.239   5.742   3.749 -1.1502  0.5683 -0.0541
  316MOL0     H43564   3.124   5.922   3.836 -2.5143  1.9613 -1.5635
  316MOL0     H43565   3.228   6.039   3.744  1.8223  0.0028 -1.8037
  316MOL0     H43566   2.888   5.837   3.525  0.9668  0.8680  0.5100
  316MOL0     H43567   2.662   5.849   3.430 -1.6772 -1.0149  1.3115
  316MOL0     H43568   2.604   6.005   3.380  3.4808 -0.7011 -1.8853
  316MOL0     H43569   2.553   5.938   3.536 -0.6162 -1.5475 -0.5050
  316MOL0     H43570   2.455   6.507   3.330 -2.0134 -3.1682 -0.0101
  316MOL0     H43571   2.267   6.610   3.409 -3.4385 -3.2953  1.3643
  316MOL0     H43572   2.188   6.802   3.562  1.7817 -1.0336  1.5234
  316MOL0     H43573   2.050   6.692   3.530 -0.9089  0.9786 -0.1994
  316MOL0     H43574   2.082   6.855   3.788  0.6421 -1.7609 -0.6015
  316MOL0     H43575   1.995   6.892   3.635 -1.0976  1.5938  1.4514
  316MOL0     H43576   1.937   6.649   3.816 -0.9960 -0.4566  0.0425
  316MOL0     H43577   1.840   6.719   3.679  1.2735 -2.3097 -0.9408
  316MOL0     H43578   1.808   6.934   3.807 -1.6916 -0.2539  0.3441
  316MOL0     H43579   1.922   6.887   3.923  0.0478 -0.6528 -0.0850
  316MOL0     H43580   1.795   6.711   4.003 -0.8207 -1.4755 -1.3560
  316MOL0     H43581   1.705   6.859   4.031  1.1773  1.8743 -0.5231
  316MOL0     H43582   1.641   6.706   3.774  0.2578 -1.5947  0.4016
  316MOL0     H43583   1.539   6.795   3.880  0.7112  1.6444  1.8870
  316MOL0     H43584   1.456   6.595   3.924 -0.3217  1.1119  0.9785
  316MOL0     H43585   1.572   6.618   4.056  2.3570 -1.6982 -0.5656
  316MOL0     H43586   1.606   6.398   3.961  0.2578  0.8066  2.5384
  316MOL0     H43587   1.749   6.488   3.944  0.0572 -4.3526  1.7420
  316MOL0     H43588   2.385   6.533   3.822  0.5058 -1.8932 -0.5587
  316MOL0     H43589   2.595   6.446   3.740 -0.0359  2.0811  0.7011
  316MOL0     H43590   2.892   6.310   3.655  0.2871 -0.9627  2.6077
  316MOL0     H43591   3.079   6.175   3.689 -0.8925  1.8510  2.2465
  316MOL0     H43592   4.240   4.959   3.181  4.7256 -0.6907 -0.8858
  316MOL0     H43593   4.127   4.783   3.061 -2.4987 -1.3128 -0.1197
  316MOL0     H43594   4.206   4.392   3.275  0.6586 -0.2967  0.5478
  316MOL0     H43595   4.443   4.313   3.302 -1.1979  1.0062  2.1547
  316MOL0     H43596   4.709   4.374   3.283  0.5244 -1.8520  2.0269
  316MOL0     H43597   4.634   4.221   3.247 -0.4975  0.2445  0.7237
  316MOL0     H43598   4.849   4.176   3.238  1.7830 -2.9440 -2.2878
  316MOL0     H43599   4.902   4.302   3.119 -0.8773  0.0323 -1.2897
  316MOL0     H43600   4.694   4.097   3.053 -2.2478  4.4045 -1.2240
  316MOL0     H43601   4.796   4.160   2.942 -2.6773  2.7537  1.0103
  316MOL0     H43602   4.867   3.933   2.976 -0.1869 -0.7285 -0.1659
  316MOL0     H43603   4.871   3.964   3.157  2.4771 -0.1651  0.1638
  316MOL0     H43604   5.250   4.112   3.017 -1.1031  2.2094 -0.9824
  316MOL0     H43605   4.513   4.452   2.903  0.0065  0.8498 -0.8013
  316MOL0     H43606   4.345   4.530   2.770 -1.2013  3.4503 -2.5870
  316MOL0     H43607   4.176   4.506   2.804  0.1043 -0.2502  1.9766
  316MOL0     H43608   4.269   4.651   2.862 -0.3649 -0.2599  1.7375
  317MOL0     O43609   6.543   5.084   6.321  0.0906  0.8697  0.7538
  317MOL0     C43610   6.437   5.026   6.309  0.4238 -0.1784 -0.1021
  317MOL0     O43611   6.342   5.055   6.223  0.0730  0.5935 -0.0766
  317MOL0     C43612   6.359   5.154   6.134 -0.1141 -0.2603  0.3624
  317MOL0     C43613   6.386   5.289   6.174  0.5584  0.1260  0.8661
  317MOL0     C43614   6.407   5.386   6.079 -0.9765 -1.2029  0.0060
  317MOL0     C43615   6.402   5.356   5.942  0.0085  0.8996  0.2238
  317MOL0     O43616   6.419   5.446   5.841 -0.0765  0.4633  0.2871
  317MOL0     C43617   6.460   5.574   5.856  0.0166 -1.1558 -0.2260
  317MOL0     C43618   6.360   5.688   5.808  0.4418  0.3334  0.0394
  317MOL0     C43619   6.424   5.825   5.830  0.1909  0.1663  0.9672
  317MOL0     C43620   6.325   5.946   5.807 -0.1241  0.5381  0.2738
  317MOL0     C43621   6.380   6.064   5.885  0.4204 -0.4214 -0.2418
  317MOL0     C43622   6.531   6.104   5.882  0.4324 -0.2696  0.3351
  317MOL0     C43623   6.550   6.237   5.968  0.1506  0.9981 -0.0620
  317MOL0     C43624   6.697   6.248   6.002 -0.6177 -0.7303 -1.0258
  317MOL0     N43625   6.769   6.319   5.899 -0.0133  0.7315 -0.7612
  317MOL0     C43626   6.789   6.271   5.767 -0.3771 -0.1543 -0.1617
  317MOL0     C43627   6.844   6.382   5.717 -0.3969 -0.1499  0.4054
  317MOL0     C43628   6.882   6.411   5.571 -0.2893  0.7805 -0.8571
  317MOL0     C43629   6.952   6.549   5.557  0.2817 -1.1849  0.1102
  317MOL0     C43630   6.971   6.571   5.406 -0.7240 -0.4763  0.2844
  317MOL0     C43631   7.029   6.708   5.360 -0.4964 -0.3319  0.3440
  317MOL0     O43632   7.152   6.726   5.427 -1.2326  0.9813  0.0147
  317MOL0     C43633   7.228   6.839   5.397  0.2181  0.0315 -0.2450
  317MOL0     C43634   7.371   6.826   5.399  1.2782  1.4632  0.2516
  317MOL0     C43635   7.456   6.940   5.383  0.6783  0.6288 -0.4278
  317MOL0     C43636   7.600   6.925   5.416  0.3175  0.3871 -0.0664
  317MOL0     C43637   7.402   7.062   5.361 -1.1391  0.1871  1.1344
  317MOL0     C43638   7.486   7.195   5.339 -0.8976  0.0034  0.9836
  317MOL0     O43639   7.625   7.178   5.321 -0.3986 -0.4560  0.3940
  317MOL0     C43640   7.705   7.294   5.318  0.8286 -0.8258  0.2316
  317MOL0     C43641   7.805   7.303   5.416 -0.0635 -0.0165  0.4324
  317MOL0     C43642   7.896   7.412   5.415 -0.6536 -0.0410  0.4756
  317MOL0     C43643   7.870   7.523   5.324  0.7095  0.7584 -0.0557
  317MOL0     O43644   7.947   7.635   5.310  0.5428  0.1765 -0.0021
  317MOL0     C43645   7.996   7.691   5.426 -0.4158  0.7112 -0.0540
  317MOL0     C43646   8.101   7.790   5.393  0.1553 -0.5366 -0.5121
  317MOL0     C43647   8.227   7.721   5.345  0.6130 -0.6206 -1.4534
  317MOL0     C43648   8.354   7.805   5.324 -0.6295  0.0191  0.5732
  317MOL0     C43649   8.464   7.718   5.256  0.8641 -0.1192 -0.5791
  317MOL0     C43650   8.592   7.795   5.218 -0.3866  0.7574 -0.2512
  317MOL0     C43651   8.695   7.710   5.141 -0.1457  0.1651  0.7544
  317MOL0     C43652   8.766   7.609   5.230  0.6758 -0.7268  0.1303
  317MOL0    Cl43653   8.848   7.501   5.110  0.4272 -0.2841 -0.1202
  317MOL0     C43654   7.751   7.510   5.243 -0.1336  0.4419  0.5766
  317MOL0     C43655   7.678   7.402   5.226 -0.7253 -0.3516 -0.8086
  317MOL0     O43656   7.427   7.298   5.323  0.7258  0.2476 -0.4677
  317MOL0     C43657   7.270   7.070   5.342  0.3492 -0.1890 -0.2243
  317MOL0     C43658   7.177   6.969   5.368 -0.0630 -0.3337 -0.2790
  317MOL0     N43659   6.864   6.485   5.814 -0.0569  0.4408  0.3690
  317MOL0     N43660   6.822   6.442   5.926 -0.4425  0.3652 -1.2577
  317MOL0     C43661   6.375   5.225   5.896  0.0622 -0.0007 -0.4638
  317MOL0     C43662   6.358   5.120   5.996 -0.2815 -0.8784 -0.6933
  317MOL0     C43663   6.400   4.928   6.403  0.1701  0.7715 -0.0279
  317MOL0     C43664   6.487   4.897   6.509 -0.6534 -0.1775 -0.1019
  317MOL0     C43665   6.464   4.798   6.593  0.3136  0.1972 -0.4139
  317MOL0     C43666   6.340   4.725   6.594  0.2722 -1.1514 -0.4472
  317MOL0     O43667   6.301   4.621   6.683 -0.1053  0.2100  0.3355
  317MOL0     C43668   6.388   4.587   6.788 -0.4317  0.7608  0.3322
  317MOL0     C43669   6.516   4.504   6.740 -0.8192 -0.1586  0.0416
  317MOL0     C43670   6.486   4.401   6.628  0.2308 -0.1272  0.2584
  317MOL0     C43671   6.369   4.310   6.663  0.2702 -0.0532 -0.0475
  317MOL0     C43672   6.389   4.229   6.783 -0.1151  1.2657  0.0962
  317MOL0     C43673   6.408   4.158   6.884 -0.6821  0.3176 -0.0143
  317MOL0     C43674   6.250   4.746   6.486 -1.4542 -1.1620 -0.0859
  317MOL0     C43675   6.282   4.849   6.392 -0.0977  0.2716 -0.1311
  317MOL0     C43676   6.179   4.854   6.273  0.3429 -0.0950 -0.1288
  317MOL0     H43677   6.378   5.301   6.282 -1.6427 -0.3337  0.8080
  317MOL0     H43678   6.423   5.488   6.113 -1.3392  0.0562 -3.1785
  317MOL0     H43679   6.559   5.591   5.814 -1.0115  5.0333 -1.1405
  317MOL0     H43680   6.461   5.601   5.962 -1.1424 -2.2262  0.0721
  317MOL0     H43681   6.352   5.663   5.702  0.1943  0.5846 -0.0025
  317MOL0     H43682   6.258   5.675   5.845 -0.8554  0.1303 -3.3124
  317MOL0     H43683   6.464   5.830   5.932 -1.0758  1.1870  1.4398
  317MOL0     H43684   6.500   5.839   5.753  0.2612  0.1343  1.0304
  317MOL0     H43685   6.326   5.967   5.700  1.0606  1.4950  0.4570
  317MOL0     H43686   6.224   5.923   5.841 -0.3547 -1.7838 -1.6800
  317MOL0     H43687   6.352   6.036   5.987 -1.1275  0.7173 -0.3112
  317MOL0     H43688   6.332   6.154   5.845  3.4866  1.4060 -0.0910
  317MOL0     H43689   6.590   6.019   5.916 -0.7035 -2.9585 -3.6032
  317MOL0     H43690   6.549   6.114   5.774  0.2068 -0.6170  0.2637
  317MOL0     H43691   6.506   6.214   6.066  0.2362  1.3681  0.0641
  317MOL0     H43692   6.512   6.335   5.938  0.9344  1.6759  1.0500
  317MOL0     H43693   6.712   6.301   6.096  0.8066 -1.2584 -0.9314
  317MOL0     H43694   6.740   6.148   6.014 -2.1626 -1.0905  3.3679
  317MOL0     H43695   6.751   6.184   5.714  0.3057  0.1101 -1.1159
  317MOL0     H43696   6.790   6.412   5.511 -0.3370  0.9639 -0.7820
  317MOL0     H43697   6.953   6.341   5.527  2.4973  1.9846  1.3991
  317MOL0     H43698   6.895   6.634   5.597 -0.6666 -1.6614 -0.1840
  317MOL0     H43699   7.046   6.548   5.612 -0.7222 -0.1521  1.9718
  317MOL0     H43700   7.037   6.497   5.360  1.0537  1.3704 -0.3179
  317MOL0     H43701   6.872   6.575   5.357  0.2747  0.0888 -1.8197
  317MOL0     H43702   7.036   6.705   5.251 -1.8540 -0.1819  0.2321
  317MOL0     H43703   6.964   6.793   5.385  3.8526  2.9455  1.7513
  317MOL0     H43704   7.409   6.733   5.441 -2.0330  0.7171  1.9701
  317MOL0     H43705   7.654   6.918   5.321 -1.3258  0.1095 -1.0181
  317MOL0     H43706   7.618   6.829   5.466 -1.6742 -1.0028 -1.8618
  317MOL0     H43707   7.643   7.010   5.471  3.4588 -0.2970 -1.2484
  317MOL0     H43708   7.801   7.221   5.487 -0.0072 -1.2828 -0.9773
  317MOL0     H43709   7.979   7.418   5.484  0.5052 -0.5798 -0.8188
  317MOL0     H43710   7.918   7.740   5.484 -0.0908  2.9425 -1.4161
  317MOL0     H43711   8.039   7.619   5.497 -0.0520  1.2622  0.2930
  317MOL0     H43712   8.062   7.858   5.317  0.1423  2.2608  1.8078
  317MOL0     H43713   8.138   7.849   5.478 -2.2029  4.2214 -2.4199
  317MOL0     H43714   8.199   7.670   5.252 -0.2306  0.5316 -1.8587
  317MOL0     H43715   8.258   7.641   5.412 -1.1045 -0.5016 -0.4428
  317MOL0     H43716   8.389   7.851   5.417 -0.4318  0.7086  0.1689
  317MOL0     H43717   8.321   7.895   5.270  0.1991 -0.0331 -0.0407
  317MOL0     H43718   8.484   7.636   5.326  3.5924  1.0380  0.1323
  317MOL0     H43719   8.422   7.671   5.167  0.4320 -1.6114  0.3688
  317MOL0     H43720   8.645   7.833   5.305  2.7528 -0.4593 -1.4970
  317MOL0     H43721   8.577   7.884   5.155  3.2978  0.6449 -1.4905
  317MOL0     H43722   8.767   7.788   5.115  2.4494 -1.4863  2.4997
  317MOL0     H43723   8.648   7.661   5.056 -2.2360  1.7470  0.9203
  317MOL0     H43724   8.680   7.563   5.281 -3.4706  2.3396 -3.4069
  317MOL0     H43725   8.832   7.643   5.311  0.7508 -0.7843  0.0960
  317MOL0     H43726   7.726   7.600   5.187  0.2262  1.5966  2.2185
  317MOL0     H43727   7.601   7.393   5.150 -2.2599  1.2819  0.4510
  317MOL0     H43728   7.225   7.163   5.308  0.9722  0.2927  0.2332
  317MOL0     H43729   7.070   6.986   5.368 -0.6990 -3.6906 -0.8284
  317MOL0     H43730   6.384   5.208   5.789 -3.0013 -1.3716 -0.6219
  317MOL0     H43731   6.336   5.018   5.967 -1.5155 -0.2158 -2.2442
  317MOL0     H43732   6.566   4.964   6.542  0.9233 -1.3420 -1.3416
  317MOL0     H43733   6.525   4.772   6.679 -0.1399  0.4753 -0.0009
  317MOL0     H43734   6.415   4.672   6.852 -0.7173  0.8610  0.3189
  317MOL0     H43735   6.325   4.511   6.834  0.6714  0.5459  1.5408
  317MOL0     H43736   6.559   4.472   6.836 -1.6279  3.1792  1.6360
  317MOL0     H43737   6.595   4.565   6.696  0.3267 -1.0799  0.7531
  317MOL0     H43738   6.468   4.456   6.534 -0.8656  0.2852  0.6904
  317MOL0     H43739   6.576   4.341   6.609  0.2749  0.0982 -0.2820
  317MOL0     H43740   6.362   4.250   6.571  1.6527  1.9104 -1.5294
  317MOL0     H43741   6.273   4.360   6.674 -1.7008 -3.2993 -1.2228
  317MOL0     H43742   6.436   4.092   6.963  2.8355  0.7955 -0.7186
  317MOL0     H43743   6.152   4.701   6.491 -1.7334 -0.4243  1.6129
  317MOL0     H43744   6.113   4.767   6.284 -0.7647  0.4897 -1.7054
  317MOL0     H43745   6.124   4.946   6.290 -0.9348 -0.8371 -0.1658
  317MOL0     H43746   6.232   4.844   6.177  3.4508 -2.8747  1.6428
  318MOL0     O43747   8.417   4.956   6.701  0.1662 -0.4558  0.3599
  318MOL0     C43748   8.411   4.915   6.812  0.4338 -0.5565 -0.5512
  318MOL0     O43749   8.292   4.888   6.874  0.4733  0.1142 -0.3726
  318MOL0     C43750   8.172   4.905   6.801 -0.4705  0.0376  0.3817
  318MOL0     C43751   8.144   5.035   6.764  0.1046 -0.4656 -0.5026
  318MOL0     C43752   8.033   5.070   6.692  0.1452 -0.3517 -1.0879
  318MOL0     C43753   7.940   4.976   6.668  0.1910  0.7368  0.5548
  318MOL0     O43754   7.826   5.015   6.602 -0.2453  0.2610  0.4817
  318MOL0     C43755   7.726   4.926   6.562 -0.1321 -0.6721 -0.9223
  318MOL0     C43756   7.607   4.991   6.492  0.0301  0.4111 -0.8716
  318MOL0     C43757   7.496   4.889   6.513 -0.1016  0.0100  0.4562
  318MOL0     C43758   7.357   4.920   6.437 -0.1807  0.5024 -0.5404
  318MOL0     C43759   7.248   4.982   6.538 -0.4676  0.0589 -0.7135
  318MOL0     C43760   7.113   4.983   6.474 -0.0326  0.4402 -0.8238
  318MOL0     C43761   7.015   5.042   6.569  0.3855 -0.2403 -0.0010
  318MOL0     C43762   6.869   5.036   6.510  0.9180 -0.9436  0.0482
  318MOL0     N43763   6.827   4.898   6.497 -0.3370 -0.5871  0.2859
  318MOL0     C43764   6.821   4.825   6.388  0.5622  0.3153 -0.0907
  318MOL0     C43765   6.796   4.702   6.437 -0.0304 -0.0937 -0.1236
  318MOL0     C43766   6.769   4.578   6.365 -0.9733 -0.1442 -0.4061
  318MOL0     C43767   6.626   4.568   6.317 -0.8203  0.5258  0.0883
  318MOL0     C43768   6.622   4.594   6.163 -1.5145  1.1844  0.3269
  318MOL0     C43769   6.515   4.703   6.123  0.9829  0.3127  0.4623
  318MOL0     O43770   6.524   4.732   5.978 -0.2828 -0.3103 -1.3083
  318MOL0     C43771   6.622   4.831   5.948  0.2665  0.3985  0.2693
  318MOL0     C43772   6.667   4.939   6.019 -0.2418  0.0914 -1.4232
  318MOL0     C43773   6.754   5.037   5.976  0.7509 -0.1063 -1.4907
  318MOL0     C43774   6.778   5.154   6.065  0.0304 -0.5656 -0.4679
  318MOL0     C43775   6.815   5.014   5.852 -0.3691 -0.3678  0.7430
  318MOL0     C43776   6.920   5.091   5.790 -0.7770  0.1255  0.2163
  318MOL0     O43777   7.004   5.028   5.705 -0.0541 -0.3979 -0.0519
  318MOL0     C43778   7.116   5.094   5.655  0.6393 -0.0046  0.7530
  318MOL0     C43779   7.089   5.171   5.540 -0.0111  0.3033 -0.0322
  318MOL0     C43780   7.191   5.252   5.474  0.1314  0.4053  0.3281
  318MOL0     C43781   7.315   5.242   5.520  0.2683 -0.5202 -0.5965
  318MOL0     O43782   7.421   5.304   5.451  0.7759 -0.0036 -0.0499
  318MOL0     C43783   7.452   5.279   5.308  0.3935  0.2047 -0.0735
  318MOL0     C43784   7.495   5.136   5.292  0.1712  0.8273  0.2425
  318MOL0     C43785   7.551   5.090   5.157  0.5002 -0.8728  1.3906
  318MOL0     C43786   7.550   4.942   5.145  0.0077  0.1566  0.3645
  318MOL0     C43787   7.567   4.905   4.995  0.2693 -0.2627 -0.4314
  318MOL0     C43788   7.587   4.757   4.968  1.2082  0.3100  0.0338
  318MOL0     C43789   7.598   4.723   4.817  0.1939 -0.7487  0.7422
  318MOL0     C43790   7.570   4.572   4.795 -0.7976 -0.0737  0.2120
  318MOL0    Cl43791   7.680   4.458   4.887 -0.1150 -0.2207  0.0515
  318MOL0     C43792   7.340   5.159   5.636 -0.3215  0.0599  0.3221
  318MOL0     C43793   7.237   5.098   5.707 -1.2771  1.1521 -0.1907
  318MOL0     O43794   6.937   5.204   5.824 -0.3219 -0.3548 -0.4115
  318MOL0     C43795   6.774   4.901   5.774  0.2200 -1.1723  0.6384
  318MOL0     C43796   6.665   4.823   5.813  0.8188 -0.1272 -0.0495
  318MOL0     N43797   6.788   4.703   6.571  1.3972 -0.5357 -0.2413
  318MOL0     N43798   6.811   4.821   6.612  0.0787  0.4003  0.1958
  318MOL0     C43799   7.968   4.843   6.708  0.6421 -0.6680  0.4977
  318MOL0     C43800   8.083   4.806   6.773  0.3003  0.0728  0.2072
  318MOL0     C43801   8.535   4.909   6.891 -0.1138  0.1919  0.6405
  318MOL0     C43802   8.533   4.956   7.029  0.0426  0.1992  0.4332
  318MOL0     C43803   8.653   4.977   7.101  0.1277 -0.2632 -0.3680
  318MOL0     C43804   8.778   4.955   7.036 -0.4236 -0.0809 -0.0763
  318MOL0     O43805   8.898   4.985   7.093  0.2084  0.1105 -0.0698
  318MOL0     C43806   8.917   5.057   7.212 -0.2992 -0.6144  0.2082
  318MOL0     C43807   9.061   5.117   7.214 -0.3765 -0.5678 -0.1760
  318MOL0     C43808   9.069   5.232   7.307  0.4099  0.4522 -0.0419
  318MOL0     C43809   9.215   5.281   7.314 -1.3811  0.5187  1.0125
  318MOL0     C43810   9.319   5.175   7.348 -0.8817 -1.0837  0.0012
  318MOL0     C43811   9.399   5.081   7.354  0.6954 -0.3191  0.1186
  318MOL0     C43812   8.782   4.888   6.919  0.1777  0.6393 -0.4232
  318MOL0     C43813   8.660   4.877   6.837  0.4390  0.5754 -0.4653
  318MOL0     C43814   8.681   4.798   6.711  0.3426  0.6056  0.1659
  318MOL0     H43815   8.217   5.107   6.800  0.4817 -0.4330 -1.3155
  318MOL0     H43816   8.019   5.178   6.684 -0.7476 -0.3908 -0.1716
  318MOL0     H43817   7.686   4.897   6.659  1.4659  3.7690  1.3269
  318MOL0     H43818   7.776   4.853   6.498 -1.3454 -4.0022  1.6198
  318MOL0     H43819   7.573   5.088   6.529 -1.5446 -1.3808  2.9664
  318MOL0     H43820   7.642   4.996   6.389  2.8633  0.3779  0.0138
  318MOL0     H43821   7.540   4.802   6.463 -0.9191 -0.0558 -0.1594
  318MOL0     H43822   7.466   4.884   6.618 -3.1040  1.2914 -0.2659
  318MOL0     H43823   7.379   4.990   6.356 -1.7077  0.6804 -0.8284
  318MOL0     H43824   7.323   4.826   6.393 -0.4215  0.0083  0.6514
  318MOL0     H43825   7.274   5.080   6.579 -0.7718 -1.0596  2.4218
  318MOL0     H43826   7.240   4.920   6.627  0.2273 -0.6576 -1.1421
  318MOL0     H43827   7.112   5.040   6.380  0.5349  0.7263 -0.6578
  318MOL0     H43828   7.088   4.876   6.466 -0.1121  0.1250  2.5022
  318MOL0     H43829   7.036   5.144   6.603  0.9519 -0.3570  0.0172
  318MOL0     H43830   7.009   4.980   6.659  0.4401  0.9514  0.8391
  318MOL0     H43831   6.804   5.071   6.591  2.4937  1.6506  0.3043
  318MOL0     H43832   6.853   5.104   6.426  0.0438 -0.9002  0.2351
  318MOL0     H43833   6.843   4.859   6.287 -1.1995  0.0671 -0.5854
  318MOL0     H43834   6.795   4.492   6.428 -1.2850 -1.3253 -1.8125
  318MOL0     H43835   6.839   4.561   6.282 -2.2081 -1.1181 -1.2919
  318MOL0     H43836   6.587   4.468   6.338  1.6839 -0.3386  0.8975
  318MOL0     H43837   6.556   4.634   6.370 -0.2885  2.2998 -1.3071
  318MOL0     H43838   6.721   4.620   6.125 -1.1525 -1.2980 -0.5915
  318MOL0     H43839   6.592   4.498   6.121  0.2642  0.5624  0.3633
  318MOL0     H43840   6.413   4.669   6.145 -0.1716  0.4752 -3.8240
  318MOL0     H43841   6.534   4.794   6.180  3.8344  0.4950 -0.6527
  318MOL0     H43842   6.637   4.951   6.123  1.6948 -1.9303 -0.5658
  318MOL0     H43843   6.708   5.233   6.038  2.0666  0.8377 -1.9425
  318MOL0     H43844   6.885   5.176   6.056  0.2989 -1.2549  0.7681
  318MOL0     H43845   6.748   5.141   6.169 -2.0552 -0.8560 -1.0546
  318MOL0     H43846   6.983   5.177   5.521 -0.0014 -2.0911 -1.2913
  318MOL0     H43847   7.166   5.305   5.383 -0.6590 -1.1340 -0.4003
  318MOL0     H43848   7.367   5.298   5.243  0.2226 -1.3391 -0.3526
  318MOL0     H43849   7.542   5.334   5.278  0.2031 -0.1632 -1.3811
  318MOL0     H43850   7.566   5.112   5.372  0.3231  0.3197 -0.0347
  318MOL0     H43851   7.403   5.078   5.305  0.1823  1.0975  1.6555
  318MOL0     H43852   7.653   5.130   5.156 -1.0165  3.7382  3.4291
  318MOL0     H43853   7.501   5.126   5.067 -1.0711 -3.6279  1.0522
  318MOL0     H43854   7.464   4.896   5.194 -0.8394  0.6350 -0.6486
  318MOL0     H43855   7.629   4.902   5.209 -0.7522 -0.8957  0.6605
  318MOL0     H43856   7.481   4.939   4.937  1.2453  3.5071  0.0551
  318MOL0     H43857   7.657   4.954   4.957  0.6194  1.0152  1.8583
  318MOL0     H43858   7.504   4.698   5.009  2.2926 -1.8388 -0.6650
  318MOL0     H43859   7.674   4.719   5.022  0.7104  2.7555  2.7974
  318MOL0     H43860   7.692   4.755   4.770 -1.4355  1.0951 -1.4851
  318MOL0     H43861   7.518   4.773   4.762 -0.1920  0.8663  2.6611
  318MOL0     H43862   7.587   4.549   4.690  0.9652 -1.7098  0.7900
  318MOL0     H43863   7.468   4.540   4.818 -1.0517  0.2692 -0.4306
  318MOL0     H43864   7.441   5.156   5.675 -0.3783  0.2868  0.4844
  318MOL0     H43865   7.262   5.044   5.798 -1.2240 -0.9440 -1.4081
  318MOL0     H43866   6.816   4.869   5.679 -1.6409 -1.4313 -0.1549
  318MOL0     H43867   6.632   4.734   5.760  1.5485 -1.5650  1.8317
  318MOL0     H43868   7.893   4.768   6.686  0.4029 -0.1061 -0.6974
  318MOL0     H43869   8.095   4.701   6.798 -0.1879  0.2328  1.1685
  318MOL0     H43870   8.433   4.976   7.066 -1.8317 -3.3601 -2.0184
  318MOL0     H43871   8.646   5.008   7.205  2.9044 -2.6231  0.6757
  318MOL0     H43872   8.840   5.135   7.210  0.8495  0.5410  0.1423
  318MOL0     H43873   8.906   4.992   7.300 -3.5686 -0.9459 -0.3058
  318MOL0     H43874   9.091   5.141   7.111  1.7468 -3.4748 -0.3497
  318MOL0     H43875   9.129   5.036   7.239  0.3553 -0.3901 -1.4976
  318MOL0     H43876   9.009   5.306   7.253 -2.3650 -1.2186  0.6072
  318MOL0     H43877   9.015   5.216   7.400 -3.1424 -0.6439 -2.0926
  318MOL0     H43878   9.218   5.369   7.378 -3.8771 -0.4369  2.5999
  318MOL0     H43879   9.234   5.321   7.214 -2.2826 -2.4151 -0.4540
  318MOL0     H43880   9.463   4.995   7.349 -2.9070 -3.2637 -0.9232
  318MOL0     H43881   8.882   4.858   6.888  0.7364 -0.7563  2.3997
  318MOL0     H43882   8.758   4.731   6.752 -0.9976 -0.8454  0.4121
  318MOL0     H43883   8.594   4.734   6.693  0.5834 -0.3879  2.1792
  318MOL0     H43884   8.711   4.865   6.630 -0.1708  3.1799  1.9867
  319MOL0     O43885   6.161   9.828  10.632  0.7941 -0.1402  0.1271
  319MOL0     C43886   6.271   9.827  10.677  0.5574  0.1598 -0.3629
  319MOL0     O43887   6.302   9.828  10.813  0.1851  0.0632  0.7948
  319MOL0     C43888   6.207   9.759  10.884  0.1423 -0.4035 -0.2195
  319MOL0     C43889   6.164   9.631  10.867  0.1394 -0.2104  0.2006
  319MOL0     C43890   6.069   9.573  10.956  0.0136  0.4129  0.1680
  319MOL0     C43891   6.012   9.648  11.051  0.1113 -1.2860  0.3396
  319MOL0     O43892   5.910   9.593  11.120  0.6996 -0.1710 -0.0078
  319MOL0     C43893   5.873   9.649  11.245 -0.8932 -0.4752 -0.0653
  319MOL0     C43894   5.764   9.574  11.321 -0.2659  0.7520  0.7218
  319MOL0     C43895   5.731   9.621  11.457 -0.1532  0.1793 -0.2176
  319MOL0     C43896   5.642   9.516  11.534 -0.3928 -0.2837  0.2122
  319MOL0     C43897   5.495   9.489  11.488 -0.0723  0.3136 -0.6284
  319MOL0     C43898   5.434   9.376  11.569 -0.4129 -0.2623  0.3492
  319MOL0     C43899   5.475   9.236  11.509 -0.2996 -0.0309 -0.5856
  319MOL0     C43900   5.400   9.125  11.566 -0.4319 -0.0962 -0.9459
  319MOL0     N43901   5.268   9.113  11.513 -0.7067 -0.9159  0.4692
  319MOL0     C43902   5.233   9.033  11.419  0.5622  0.2617  0.2331
  319MOL0     C43903   5.099   9.074  11.407 -0.2263  0.3007 -0.5364
  319MOL0     C43904   4.992   9.004  11.326 -0.7076  0.2133  0.3214
  319MOL0     C43905   4.882   8.936  11.401 -0.5569  0.7206 -0.7520
  319MOL0     C43906   4.771   8.880  11.317 -0.1565  0.0047 -0.5162
  319MOL0     C43907   4.659   8.821  11.391 -0.2830  0.4472  0.0972
  319MOL0     O43908   4.699   8.692  11.439 -0.5478 -0.1170  0.1640
  319MOL0     C43909   4.698   8.584  11.357  0.6110  0.6042  0.2413
  319MOL0     C43910   4.685   8.586  11.216  0.1381 -0.5375  1.2387
  319MOL0     C43911   4.687   8.473  11.135  0.5643 -0.1889  0.1480
  319MOL0     C43912   4.682   8.489  10.985 -0.3632  0.3836 -0.4068
  319MOL0     C43913   4.714   8.352  11.206 -0.2553  0.6553  0.9534
  319MOL0     C43914   4.732   8.229  11.137  0.4834  0.8537  0.4547
  319MOL0     O43915   4.611   8.179  11.080 -0.9237  0.2751  0.6115
  319MOL0     C43916   4.608   8.068  11.002  0.0088 -0.1303  0.4806
  319MOL0     C43917   4.483   7.996  11.013 -0.8602 -0.5694  0.2792
  319MOL0     C43918   4.462   7.887  10.930  0.1934 -0.1814  0.2227
  319MOL0     C43919   4.557   7.835  10.843  0.1246 -0.0734  1.1945
  319MOL0     O43920   4.535   7.718  10.764 -0.7707  0.0825 -0.3568
  319MOL0     C43921   4.646   7.643  10.715  0.0492  0.9460 -0.3385
  319MOL0     C43922   4.657   7.659  10.563  0.4180  0.0293 -0.4196
  319MOL0     C43923   4.742   7.551  10.506 -0.7305  0.1175  0.3956
  319MOL0     C43924   4.758   7.535  10.350  0.5011  0.4919 -0.4692
  319MOL0     C43925   4.843   7.403  10.315  0.3492 -0.2338  0.2353
  319MOL0     C43926   4.995   7.411  10.349 -0.4367 -0.2599  0.4445
  319MOL0     C43927   5.062   7.281  10.303  0.7813  0.2023  0.4410
  319MOL0     C43928   5.205   7.273  10.356  0.4410  0.0706  0.4450
  319MOL0    Cl43929   5.183   7.248  10.524  0.6988 -0.1133 -0.5386
  319MOL0     C43930   4.674   7.908  10.834  0.1365  0.2315  0.2085
  319MOL0     C43931   4.703   8.022  10.919  0.5032  0.0113  0.5956
  319MOL0     O43932   4.837   8.164  11.144 -0.6632 -0.7489  0.2428
  319MOL0     C43933   4.734   8.350  11.344 -0.7913  0.8580  0.0821
  319MOL0     C43934   4.718   8.464  11.420 -0.4341  1.3155  0.7642
  319MOL0     N43935   5.065   9.169  11.495 -0.7179 -0.3607  0.5912
  319MOL0     N43936   5.170   9.192  11.558  0.4751 -0.6155  0.7410
  319MOL0     C43937   6.043   9.787  11.056  0.4780  0.4500  1.1854
  319MOL0     C43938   6.150   9.840  10.974 -0.0990  0.1197 -0.3444
  319MOL0     C43939   6.386   9.848  10.584 -0.2547 -0.7372 -0.3959
  319MOL0     C43940   6.465   9.959  10.620  0.1460 -0.0367  0.4024
  319MOL0     C43941   6.571  10.002  10.535  0.5249 -0.0133  0.3488
  319MOL0     C43942   6.606   9.922  10.424  0.5892  0.1659  0.0579
  319MOL0     O43943   6.700   9.951  10.330 -0.3513 -0.0319  0.1526
  319MOL0     C43944   6.772  10.069  10.322  0.0585 -0.4141  1.0521
  319MOL0     C43945   6.839  10.082  10.184  0.1342 -0.8890  0.0053
  319MOL0     C43946   6.733  10.093  10.065 -1.0871  0.0092 -0.3756
  319MOL0     C43947   6.801  10.101   9.933  0.2383 -0.5935 -0.5839
  319MOL0     C43948   6.912  10.189   9.923  0.4276  0.7531  0.0301
  319MOL0     C43949   7.012  10.257   9.914  0.7755 -0.2390  0.6270
  319MOL0     C43950   6.533   9.808  10.396 -0.1406  0.5160 -0.2478
  319MOL0     C43951   6.423   9.772  10.474 -0.1631  0.4329  0.6148
  319MOL0     C43952   6.345   9.648  10.440 -0.4055 -0.5344 -0.1289
  319MOL0     H43953   6.216   9.570  10.793  2.0843  0.7770  0.6689
  319MOL0     H43954   6.040   9.470  10.937  1.4508  0.4706 -2.8728
  319MOL0     H43955   5.855   9.756  11.234  0.5217  0.2807  3.3760
  319MOL0     H43956   5.957   9.651  11.316 -3.0478 -0.4122  2.6271
  319MOL0     H43957   5.677   9.588  11.256 -0.4598  1.3301  1.0927
  319MOL0     H43958   5.777   9.466  11.315  1.5280  1.0320 -1.2235
  319MOL0     H43959   5.825   9.629  11.513 -0.7479  0.3165  0.7957
  319MOL0     H43960   5.678   9.716  11.462 -0.2583  0.1965  5.4267
  319MOL0     H43961   5.701   9.424  11.540  0.0030 -0.0080  0.6336
  319MOL0     H43962   5.644   9.560  11.634  1.1842 -0.5249  0.3136
  319MOL0     H43963   5.502   9.466  11.381 -0.5584 -0.0187 -0.5886
  319MOL0     H43964   5.432   9.576  11.509 -0.0125  0.0255  0.8460
  319MOL0     H43965   5.462   9.378  11.675  1.8461 -1.6197 -0.1597
  319MOL0     H43966   5.325   9.381  11.567 -0.4570 -1.3775 -0.2399
  319MOL0     H43967   5.580   9.235  11.541 -0.9140  0.5628  1.6317
  319MOL0     H43968   5.456   9.230  11.402 -0.8225  4.2732 -0.9201
  319MOL0     H43969   5.451   9.028  11.565 -1.2642 -0.5445 -1.8151
  319MOL0     H43970   5.394   9.137  11.674  1.0853 -0.8837 -0.7430
  319MOL0     H43971   5.283   8.947  11.376 -3.0214 -1.1866 -1.4990
  319MOL0     H43972   5.049   8.928  11.273 -2.4929 -1.8975  1.2580
  319MOL0     H43973   4.961   9.078  11.252  1.3833 -0.1845 -1.0486
  319MOL0     H43974   4.928   8.851  11.452 -0.8578  0.8323 -0.2827
  319MOL0     H43975   4.848   9.025  11.455  2.7558  2.7509 -1.7007
  319MOL0     H43976   4.723   8.964  11.265 -1.6452 -1.1332 -1.0224
  319MOL0     H43977   4.802   8.812  11.237 -2.5915  0.9900 -2.4130
  319MOL0     H43978   4.631   8.889  11.472 -1.3205  0.9814 -0.6897
  319MOL0     H43979   4.581   8.825  11.315 -0.4735  1.1136  0.3195
  319MOL0     H43980   4.659   8.675  11.159  1.6635  0.9909  2.8396
  319MOL0     H43981   4.723   8.399  10.940  3.3131  2.2165 -1.1520
  319MOL0     H43982   4.746   8.570  10.947 -2.0505  0.8618 -2.4303
  319MOL0     H43983   4.582   8.516  10.951 -0.6199 -1.3719 -1.1061
  319MOL0     H43984   4.407   8.040  11.076  0.4167 -0.1784  1.6240
  319MOL0     H43985   4.364   7.846  10.949  0.1153 -0.9751 -1.6674
  319MOL0     H43986   4.735   7.649  10.778  0.9897 -0.9033 -1.4203
  319MOL0     H43987   4.614   7.539  10.724 -0.5000  1.2261  1.2130
  319MOL0     H43988   4.563   7.655  10.507  0.6795 -2.2135 -0.8060
  319MOL0     H43989   4.699   7.760  10.556 -0.8741  0.5769 -0.7851
  319MOL0     H43990   4.698   7.459  10.547  1.9436 -1.2731  0.4075
  319MOL0     H43991   4.841   7.568  10.551 -0.8205  3.7935 -0.4755
  319MOL0     H43992   4.806   7.618  10.298 -0.6502  1.8060  0.5115
  319MOL0     H43993   4.658   7.511  10.314  0.3041  0.6736 -0.0365
  319MOL0     H43994   4.791   7.329  10.376  2.7132 -0.4379  2.1836
  319MOL0     H43995   4.836   7.377  10.209 -1.4352 -2.4445  0.8383
  319MOL0     H43996   5.012   7.432  10.455 -1.2910  1.0547  0.3446
  319MOL0     H43997   5.030   7.495  10.289 -4.9624 -0.4250 -2.9105
  319MOL0     H43998   5.059   7.262  10.196  0.8017 -0.8498  0.6206
  319MOL0     H43999   5.016   7.198  10.358  3.8116 -2.2932 -0.5286
  319MOL0     H44000   5.253   7.370  10.343 -1.2755  0.8960  0.1091
  319MOL0     H44001   5.277   7.196  10.325 -0.0721 -1.9198  3.6441
  319MOL0     H44002   4.746   7.872  10.761 -1.0771 -0.5555 -0.6431
  319MOL0     H44003   4.800   8.067  10.907  1.3418 -2.3705 -3.3000
  319MOL0     H44004   4.767   8.255  11.384 -1.2490  0.3303 -0.7759
  319MOL0     H44005   4.728   8.473  11.528  0.3334  3.0273  0.5870
  319MOL0     H44006   6.000   9.855  11.129  0.9780  0.8759  1.0864
  319MOL0     H44007   6.176   9.946  10.977  3.2069 -0.6122  2.0250
  319MOL0     H44008   6.438  10.022  10.705  0.8625 -0.6479  1.1016
  319MOL0     H44009   6.621  10.097  10.552 -0.5746  0.6957 -0.2980
  319MOL0     H44010   6.715  10.161  10.340  4.1161  2.1990  2.0298
  319MOL0     H44011   6.847  10.079  10.401 -0.0991  2.8071  0.9396
  319MOL0     H44012   6.904   9.993  10.185 -0.3831 -1.2994 -1.3420
  319MOL0     H44013   6.894  10.176  10.183  0.3190 -0.9431  1.6064
  319MOL0     H44014   6.661  10.011  10.063 -0.9219 -0.2142  1.1427
  319MOL0     H44015   6.681  10.188  10.083 -1.8111  0.0518 -2.4288
  319MOL0     H44016   6.734  10.132   9.851 -0.2801  0.4114  0.2004
  319MOL0     H44017   6.841  10.003   9.909 -1.3636 -2.0591  2.2147
  319MOL0     H44018   7.100  10.317   9.904  0.3373  0.0262 -2.6817
  319MOL0     H44019   6.569   9.741  10.319  0.2725  1.6662 -1.0706
  319MOL0     H44020   6.257   9.693  10.394 -0.4749 -1.1214 -0.5742
  319MOL0     H44021   6.410   9.586  10.377  1.0850 -2.1030  2.7296
  319MOL0     H44022   6.331   9.589  10.531  3.2290 -0.4035  0.6685
  320MOL0     O44023   3.571   0.683   1.149 -0.1318  0.1595 -0.2584
  320MOL0     C44024   3.454   0.692   1.094 -0.5041 -0.3158  0.1702
  320MOL0     O44025   3.335   0.638   1.141 -0.4117 -0.2958 -0.3230
  320MOL0     C44026   3.323   0.582   1.264 -0.5484  0.1288  0.2208
  320MOL0     C44027   3.188   0.556   1.294  0.4401  0.6549  1.2524
  320MOL0     C44028   3.150   0.490   1.409 -0.1218 -0.0608 -1.0911
  320MOL0     C44029   3.245   0.471   1.517  1.1558 -0.1601 -0.3497
  320MOL0     O44030   3.217   0.420   1.640  0.0920  0.5869 -0.1770
  320MOL0     C44031   3.094   0.343   1.660  0.0728 -0.2125 -0.2610
  320MOL0     C44032   3.057   0.339   1.811  0.6053 -0.0709 -0.7086
  320MOL0     C44033   2.967   0.225   1.854 -0.6087 -0.0470 -0.3657
  320MOL0     C44034   2.955   0.221   2.012 -1.0173 -0.1447 -0.7950
  320MOL0     C44035   2.865   0.112   2.065  0.3274 -0.2431  0.0827
  320MOL0     C44036   2.917   0.079   2.204 -0.0367 -0.1323 -0.7266
  320MOL0     C44037   2.812   0.144   2.300 -0.5716 -0.2720 -0.0905
  320MOL0     C44038   2.829   0.126   2.450 -0.2573  0.0282  0.1595
  320MOL0     N44039   2.773   0.000   2.488 -0.0770  0.1014  0.1509
  320MOL0     C44040   2.637  -0.019   2.513 -0.1914 -0.6382 -0.1284
  320MOL0     C44041   2.618  -0.146   2.544 -1.2656  0.4593  1.7352
  320MOL0     C44042   2.483  -0.212   2.558  0.4791 -0.6393 -0.5900
  320MOL0     C44043   2.362  -0.142   2.483 -0.1224  0.3435  0.1404
  320MOL0     C44044   2.230  -0.216   2.530 -0.5247  0.2573 -0.4871
  320MOL0     C44045   2.105  -0.160   2.470 -0.2823 -0.4088 -0.4136
  320MOL0     O44046   2.103  -0.214   2.341 -0.2182 -0.5838 -0.2799
  320MOL0     C44047   1.983  -0.228   2.277 -0.8060 -0.1254  0.1711
  320MOL0     C44048   1.996  -0.292   2.154  0.7348 -0.9617 -0.5149
  320MOL0     C44049   1.881  -0.309   2.083 -0.5809 -0.2530  0.1484
  320MOL0     C44050   1.901  -0.373   1.948 -0.1354  0.6601 -0.0145
  320MOL0     C44051   1.754  -0.262   2.121  0.8789 -0.2296 -0.3914
  320MOL0     C44052   1.630  -0.272   2.048 -0.1708  0.2383 -0.3268
  320MOL0     O44053   1.634  -0.258   1.916  0.0520 -0.5175  0.0266
  320MOL0     C44054   1.522  -0.263   1.841  0.3869 -0.4580  0.3661
  320MOL0     C44055   1.411  -0.354   1.858  0.0181 -0.0819 -0.4208
  320MOL0     C44056   1.295  -0.356   1.779 -0.6330  0.0783  0.2979
  320MOL0     C44057   1.301  -0.288   1.659  0.7090 -0.3035 -0.1812
  320MOL0     O44058   1.193  -0.276   1.583  0.0123 -0.9542  0.1872
  320MOL0     C44059   1.111  -0.395   1.557 -1.2366 -0.1661 -0.3897
  320MOL0     C44060   1.025  -0.374   1.432 -0.1332  0.1329 -0.2216
  320MOL0     C44061   1.096  -0.305   1.312 -0.1012 -0.0587  0.1543
  320MOL0     C44062   1.212  -0.388   1.244  0.5950  0.1065 -0.6760
  320MOL0     C44063   1.313  -0.303   1.170 -0.3738  0.1534 -0.6481
  320MOL0     C44064   1.407  -0.377   1.079  0.2331 -0.3606 -0.1844
  320MOL0     C44065   1.512  -0.289   1.004  1.4703  0.3990  0.0078
  320MOL0     C44066   1.466  -0.214   0.882  0.1250 -0.0992 -0.0525
  320MOL0    Cl44067   1.422  -0.317   0.747  0.3312 -0.1685  0.3987
  320MOL0     C44068   1.406  -0.196   1.643  0.2144  0.8867  0.3897
  320MOL0     C44069   1.519  -0.188   1.726  0.1423 -0.3202  0.4881
  320MOL0     O44070   1.528  -0.268   2.108  0.0306 -0.3767 -0.6606
  320MOL0     C44071   1.748  -0.195   2.245  0.6883 -0.3592 -0.1211
  320MOL0     C44072   1.861  -0.173   2.316 -0.1499  1.1899 -0.1100
  320MOL0     N44073   2.741  -0.206   2.545  0.0927 -0.0964  0.5925
  320MOL0     N44074   2.833  -0.122   2.508  0.0250 -0.0968  0.8774
  320MOL0     C44075   3.372   0.511   1.491  0.0610 -0.2522  0.1584
  320MOL0     C44076   3.414   0.556   1.364  0.3118  0.2180 -0.0759
  320MOL0     C44077   3.456   0.729   0.956 -0.6154  0.6015  0.8781
  320MOL0     C44078   3.399   0.642   0.861 -0.4322  0.0172 -0.2482
  320MOL0     C44079   3.407   0.683   0.729  0.5881  0.5991 -0.1072
  320MOL0     C44080   3.475   0.790   0.682 -0.4903  0.5430  0.4846
  320MOL0     O44081   3.475   0.811   0.544  0.5781  0.6607 -0.3602
  320MOL0     C44082   3.535   0.920   0.485 -0.5527  0.3645  0.9654
  320MOL0     C44083   3.683   0.905   0.478 -0.3438  0.2948 -1.4166
  320MOL0     C44084   3.732   0.997   0.358  0.0777  0.3141  0.2829
  320MOL0     C44085   3.884   0.988   0.360 -1.2678 -0.0338 -0.1254
  320MOL0     C44086   3.939   1.079   0.257  0.0099 -0.0749 -0.2369
  320MOL0     C44087   3.973   1.166   0.180 -0.2497  0.1386  0.3848
  320MOL0     C44088   3.544   0.874   0.779 -1.1086 -0.1462  0.2903
  320MOL0     C44089   3.547   0.831   0.912  0.9684 -0.3505 -0.7878
  320MOL0     C44090   3.615   0.928   1.013 -0.7224  0.8833  0.5021
  320MOL0     H44091   3.109   0.576   1.222  1.2227  1.0358  0.4668
  320MOL0     H44092   3.044   0.467   1.412 -0.9991  3.4224 -0.5418
  320MOL0     H44093   3.104   0.239   1.628 -0.4552 -0.1490 -0.6378
  320MOL0     H44094   3.015   0.379   1.594  1.3713  1.1818 -1.1103
  320MOL0     H44095   3.150   0.321   1.866  0.4553  1.6555  0.1767
  320MOL0     H44096   3.013   0.436   1.835  0.4791 -0.3858  0.3471
  320MOL0     H44097   2.868   0.248   1.813 -0.5863  0.3410 -0.2073
  320MOL0     H44098   3.006   0.127   1.827 -2.0985 -0.7817  0.0157
  320MOL0     H44099   3.058   0.212   2.048  0.0871 -0.2757 -3.6949
  320MOL0     H44100   2.928   0.315   2.060  0.8240 -0.1212  0.2886
  320MOL0     H44101   2.891   0.026   2.001 -1.2696  0.0994 -1.0931
  320MOL0     H44102   2.762   0.146   2.052 -0.0493 -1.1042  0.7317
  320MOL0     H44103   2.910  -0.029   2.220 -2.0411  0.0267 -0.3507
  320MOL0     H44104   3.021   0.110   2.222  0.4006 -1.3114 -1.1233
  320MOL0     H44105   2.708   0.116   2.282 -0.9886  0.3904  1.1340
  320MOL0     H44106   2.831   0.250   2.282  3.0055 -0.7796 -0.0116
  320MOL0     H44107   2.938   0.124   2.455 -0.1342 -1.5302 -1.8817
  320MOL0     H44108   2.779   0.209   2.500 -0.7473  0.9996 -1.8359
  320MOL0     H44109   2.559   0.055   2.499 -0.5332 -0.3908  2.6129
  320MOL0     H44110   2.467  -0.205   2.666  1.7158  2.3894 -0.4879
  320MOL0     H44111   2.487  -0.318   2.532 -0.9502 -1.0594  0.7648
  320MOL0     H44112   2.354  -0.034   2.497 -1.0317  0.5640 -1.7328
  320MOL0     H44113   2.382  -0.156   2.377 -1.2568 -0.7551  0.0413
  320MOL0     H44114   2.225  -0.321   2.503  3.8353 -0.4869  0.7394
  320MOL0     H44115   2.227  -0.204   2.639  1.0853 -0.4433 -0.3300
  320MOL0     H44116   2.022  -0.202   2.528 -1.2811  1.3378 -0.5186
  320MOL0     H44117   2.092  -0.052   2.466  2.9278  0.1538  0.8203
  320MOL0     H44118   2.095  -0.330   2.130  0.7794 -1.7149  0.7973
  320MOL0     H44119   1.827  -0.451   1.928 -0.2885  0.2065  2.0322
  320MOL0     H44120   1.999  -0.420   1.950 -0.2015  0.4244 -1.5484
  320MOL0     H44121   1.894  -0.296   1.870 -3.2434  1.5687  0.9804
  320MOL0     H44122   1.399  -0.416   1.946  0.5938 -4.4190 -3.0493
  320MOL0     H44123   1.201  -0.400   1.814 -1.1169  1.5308  0.9238
  320MOL0     H44124   1.167  -0.489   1.551 -0.1772  0.4791 -0.6828
  320MOL0     H44125   1.049  -0.402   1.647  2.6681  1.1171  2.7006
  320MOL0     H44126   0.975  -0.468   1.404  1.3176 -0.7134 -0.0463
  320MOL0     H44127   0.944  -0.305   1.459 -1.2474 -0.9854 -0.6240
  320MOL0     H44128   1.139  -0.219   1.364  3.0993 -2.1925  1.3602
  320MOL0     H44129   1.020  -0.270   1.242 -1.5796  0.1384  1.7693
  320MOL0     H44130   1.163  -0.460   1.178  0.6182 -0.3152 -0.2438
  320MOL0     H44131   1.271  -0.447   1.315 -1.9164 -2.1912 -0.3191
  320MOL0     H44132   1.257  -0.225   1.119 -0.5466 -0.2767 -1.1166
  320MOL0     H44133   1.373  -0.251   1.245 -0.6425 -1.2374  0.5870
  320MOL0     H44134   1.351  -0.438   1.008 -1.6861 -0.3258  1.2003
  320MOL0     H44135   1.470  -0.437   1.145  3.6494  0.7694 -2.1718
  320MOL0     H44136   1.583  -0.353   0.949  1.2627  1.8838 -2.0950
  320MOL0     H44137   1.564  -0.225   1.076  1.2024  0.6825 -0.0493
  320MOL0     H44138   1.543  -0.143   0.851 -0.9106  1.0839  0.0095
  320MOL0     H44139   1.385  -0.153   0.924 -1.1742 -1.8124  0.0391
  320MOL0     H44140   1.407  -0.138   1.551  0.3622  1.4843  0.7650
  320MOL0     H44141   1.609  -0.131   1.704  2.5386 -3.5166  1.2837
  320MOL0     H44142   1.657  -0.147   2.279 -0.4964 -2.2292 -0.4494
  320MOL0     H44143   1.845  -0.103   2.396 -0.0209  0.2933  0.7208
  320MOL0     H44144   3.447   0.498   1.569 -0.5284 -1.0192  0.6079
  320MOL0     H44145   3.515   0.590   1.343  0.8368 -1.0289  0.3204
  320MOL0     H44146   3.344   0.560   0.906 -1.8249  1.4813  0.8535
  320MOL0     H44147   3.365   0.635   0.641  0.0934  5.2963 -2.8235
  320MOL0     H44148   3.493   0.927   0.384 -2.8155  2.0995  1.9315
  320MOL0     H44149   3.513   1.017   0.530  0.9210  1.6613 -0.9558
  320MOL0     H44150   3.724   0.805   0.460  0.4283  0.3761 -0.2210
  320MOL0     H44151   3.721   0.938   0.575 -1.7478 -1.0704 -0.3538
  320MOL0     H44152   3.701   0.952   0.264 -1.1281 -0.8035  1.1708
  320MOL0     H44153   3.686   1.096   0.353 -0.0700  0.2026 -3.6260
  320MOL0     H44154   3.920   0.888   0.331 -2.9872 -0.1962 -1.8943
  320MOL0     H44155   3.925   1.015   0.457 -1.2939 -1.4768  0.3133
  320MOL0     H44156   4.008   1.241   0.112  1.2147 -1.8465 -1.1771
  320MOL0     H44157   3.599   0.962   0.747 -2.7640  1.2354  1.0988
  320MOL0     H44158   3.650   1.018   0.962  0.7643 -0.2320 -0.5000
  320MOL0     H44159   3.534   0.943   1.085 -0.3887 -2.2538  1.6613
  320MOL0     H44160   3.680   0.879   1.086 -1.4420 -1.4082 -0.3090
  321MOL0     O44161   2.331   9.498   0.295 -0.2055  0.3027 -0.3891
  321MOL0     C44162   2.308   9.405   0.219 -0.1379  0.2038 -0.7354
  321MOL0     O44163   2.375   9.369   0.103  1.2359  0.0222  0.0486
  321MOL0     C44164   2.467   9.454   0.035  0.3694 -0.5660 -0.7266
  321MOL0     C44165   2.521   9.410  -0.080  1.3326  0.5397  0.4302
  321MOL0     C44166   2.623   9.473  -0.150  0.2935 -0.5267  0.4506
  321MOL0     C44167   2.673   9.594  -0.102 -0.1064  0.4798 -0.8824
  321MOL0     O44168   2.787   9.642  -0.157 -0.3561  0.6897 -0.3960
  321MOL0     C44169   2.892   9.734  -0.092  0.8792 -1.3065 -0.1748
  321MOL0     C44170   3.016   9.719  -0.172  0.0983 -0.5059  0.4795
  321MOL0     C44171   3.129   9.813  -0.136 -0.0430  0.6892  0.7785
  321MOL0     C44172   3.121   9.910  -0.247 -0.0082 -0.0908  0.6418
  321MOL0     C44173   3.232  10.010  -0.202 -0.5062 -0.1899  0.5614
  321MOL0     C44174   3.264  10.135  -0.294  0.6713  1.3105  0.2770
  321MOL0     C44175   3.146  10.228  -0.322 -0.5437 -0.4429  0.4863
  321MOL0     C44176   3.096  10.192  -0.464 -0.2161  0.7837  0.6323
  321MOL0     N44177   3.129  10.296  -0.554  0.3691 -0.3035 -0.2901
  321MOL0     C44178   3.068  10.414  -0.557  0.6016  0.0200  0.5308
  321MOL0     C44179   3.110  10.480  -0.663 -0.9297 -0.1930 -0.4194
  321MOL0     C44180   3.062  10.616  -0.709  0.2795  0.6712 -0.3436
  321MOL0     C44181   2.919  10.649  -0.659  0.1946 -0.4442  0.4433
  321MOL0     C44182   2.888  10.786  -0.723  0.4798  0.3470 -0.3222
  321MOL0     C44183   2.743  10.825  -0.703  0.0118  0.0244  0.2301
  321MOL0     O44184   2.647  10.736  -0.778 -0.8243  0.6297 -0.0473
  321MOL0     C44185   2.513  10.746  -0.745  0.4220 -0.3778  0.1939
  321MOL0     C44186   2.432  10.652  -0.818  0.5114  0.1936 -0.0880
  321MOL0     C44187   2.291  10.648  -0.803 -0.6249 -0.1190 -0.5953
  321MOL0     C44188   2.225  10.548  -0.890  1.3930  0.0994  0.2257
  321MOL0     C44189   2.232  10.748  -0.732  1.2357 -0.2653  0.0352
  321MOL0     C44190   2.076  10.765  -0.724 -0.4747 -0.1011  0.7333
  321MOL0     O44191   1.998  10.687  -0.797 -0.5254  0.6599 -0.1223
  321MOL0     C44192   1.865  10.710  -0.812  0.9391 -1.7226  0.1746
  321MOL0     C44193   1.834  10.815  -0.901  0.1306  0.6451  0.0364
  321MOL0     C44194   1.704  10.849  -0.924 -0.3184  0.1475  0.1724
  321MOL0     C44195   1.598  10.785  -0.851 -0.9268 -0.8350 -0.5110
  321MOL0     O44196   1.463  10.827  -0.867 -0.4535 -0.8165  0.1734
  321MOL0     C44197   1.444  10.951  -0.799 -0.1624  0.7336  0.2265
  321MOL0     C44198   1.292  10.986  -0.796  0.3751  0.0689 -0.2664
  321MOL0     C44199   1.238  11.008  -0.951 -0.0634  1.0148 -0.1563
  321MOL0     C44200   1.081  10.988  -0.962 -0.4696 -0.4402  0.5075
  321MOL0     C44201   1.029  10.840  -0.958 -0.0502  0.0507 -0.0782
  321MOL0     C44202   0.875  10.819  -0.967 -0.1263  0.3801  0.1726
  321MOL0     C44203   0.816  10.845  -1.109 -0.3609  0.1174  0.2719
  321MOL0     C44204   0.672  10.803  -1.133 -0.2512  0.5031 -0.5347
  321MOL0    Cl44205   0.581  10.835  -0.979 -0.6262 -0.5224  0.3086
  321MOL0     C44206   1.636  10.675  -0.763  0.2383 -0.7087 -0.3670
  321MOL0     C44207   1.763  10.641  -0.743 -0.8229 -0.0341  0.2592
  321MOL0     O44208   2.039  10.858  -0.662  0.2900  0.2095 -0.4408
  321MOL0     C44209   2.315  10.838  -0.658  0.6139  0.8246  0.4084
  321MOL0     C44210   2.452  10.835  -0.657 -0.5628 -0.5970  0.4805
  321MOL0     N44211   3.207  10.399  -0.726  0.0926 -0.5601  0.2569
  321MOL0     N44212   3.221  10.295  -0.651  0.0516  0.1569  0.1414
  321MOL0     C44213   2.615   9.653   0.010  0.5947  0.3853  0.2673
  321MOL0     C44214   2.520   9.575   0.080  0.5508 -0.3016 -0.0396
  321MOL0     C44215   2.173   9.345   0.228 -0.7436  0.4906 -0.2259
  321MOL0     C44216   2.100   9.309   0.111  0.5139  0.2254 -0.1120
  321MOL0     C44217   1.962   9.293   0.122 -0.0494  1.4688  1.4402
  321MOL0     C44218   1.885   9.293   0.241  0.1812 -0.9764  0.2361
  321MOL0     O44219   1.756   9.251   0.231  0.6695  0.3699  0.1850
  321MOL0     C44220   1.675   9.202   0.339  0.2426 -0.3329 -0.3584
  321MOL0     C44221   1.540   9.178   0.301  0.3488 -0.0409  0.1177
  321MOL0     C44222   1.521   9.089   0.179  0.4983 -1.1933  0.2432
  321MOL0     C44223   1.592   8.958   0.175  0.6001  0.2810  0.6772
  321MOL0     C44224   1.568   8.857   0.276  0.2108 -0.1777 -0.6506
  321MOL0     C44225   1.566   8.795   0.383  0.6684 -0.2971 -0.0529
  321MOL0     C44226   1.952   9.326   0.356 -0.3100  0.8291  0.7287
  321MOL0     C44227   2.097   9.351   0.349 -0.0827  1.2733 -0.3295
  321MOL0     C44228   2.151   9.377   0.483 -1.1948 -0.2512  0.2916
  321MOL0     H44229   2.495   9.309  -0.109 -0.1608  0.9735  0.2200
  321MOL0     H44230   2.667   9.414  -0.230 -1.3082  1.3897 -1.9815
  321MOL0     H44231   2.909   9.722   0.015  3.9214 -0.4850 -0.4815
  321MOL0     H44232   2.858   9.837  -0.105  2.2403 -0.9622 -1.1068
  321MOL0     H44233   3.051   9.619  -0.146 -0.6105 -0.9015 -0.0588
  321MOL0     H44234   2.993   9.716  -0.279  0.0922  1.5000  0.3922
  321MOL0     H44235   3.104   9.862  -0.042 -2.7672  0.7403  0.0988
  321MOL0     H44236   3.220   9.754  -0.121  0.6257  0.8601 -2.0699
  321MOL0     H44237   3.159   9.866  -0.339 -1.9449  0.1652 -0.3158
  321MOL0     H44238   3.026   9.962  -0.260 -0.1068  0.2276  2.3095
  321MOL0     H44239   3.325   9.953  -0.195  0.0221  0.7557  1.4836
  321MOL0     H44240   3.212  10.042  -0.100 -4.0165 -1.9060  0.5565
  321MOL0     H44241   3.341  10.192  -0.241  0.8542 -0.9350  2.7082
  321MOL0     H44242   3.317  10.094  -0.380  0.7751 -0.3756  1.0954
  321MOL0     H44243   3.172  10.331  -0.297 -4.3765  1.1010 -1.1018
  321MOL0     H44244   3.063  10.206  -0.254 -0.8973 -0.8591 -0.0690
  321MOL0     H44245   3.151  10.106  -0.501  0.6105  0.8124  1.7256
  321MOL0     H44246   2.989  10.169  -0.470 -0.0069  0.0845 -4.0498
  321MOL0     H44247   3.005  10.462  -0.483  3.9010  3.9928  1.1281
  321MOL0     H44248   3.068  10.615  -0.818 -1.2510  1.1792 -0.4606
  321MOL0     H44249   3.130  10.696  -0.676  2.4383 -0.9585 -0.6377
  321MOL0     H44250   2.847  10.573  -0.690  0.8494 -1.1500  0.6335
  321MOL0     H44251   2.904  10.659  -0.551 -0.2681 -0.4660  0.3824
  321MOL0     H44252   2.944  10.866  -0.672  3.1019 -2.1184  0.9524
  321MOL0     H44253   2.914  10.786  -0.829  0.2881 -0.5605 -0.3708
  321MOL0     H44254   2.713  10.824  -0.597 -2.6448 -0.9004 -0.4614
  321MOL0     H44255   2.723  10.927  -0.737 -1.2513  1.4968  4.6069
  321MOL0     H44256   2.481  10.579  -0.882 -1.8005  1.8466 -4.1697
  321MOL0     H44257   2.140  10.495  -0.846  0.4554 -0.6110 -2.2891
  321MOL0     H44258   2.287  10.461  -0.916 -0.8526 -1.2147 -1.0444
  321MOL0     H44259   2.195  10.591  -0.986  2.3844 -1.4835 -0.8535
  321MOL0     H44260   1.917  10.877  -0.935 -0.3942  1.9265  0.9736
  321MOL0     H44261   1.679  10.925  -0.997 -0.5069  0.3866  0.4851
  321MOL0     H44262   1.472  10.936  -0.694 -1.9061 -1.4346  0.4408
  321MOL0     H44263   1.503  11.033  -0.840  1.0226 -0.0319  0.3435
  321MOL0     H44264   1.230  10.910  -0.749  0.5249 -0.3582 -0.7461
  321MOL0     H44265   1.278  11.075  -0.734  1.2264 -2.5327  3.9958
  321MOL0     H44266   1.286  10.930  -1.012  1.9433  3.6599 -2.2483
  321MOL0     H44267   1.268  11.105  -0.992  2.1756  0.5803  0.3222
  321MOL0     H44268   1.044  11.036  -1.053 -0.2617  2.5324  1.8914
  321MOL0     H44269   1.035  11.048  -0.884  0.8098 -0.1422  1.0560
  321MOL0     H44270   1.075  10.787  -1.042  1.8658  2.2891 -0.5678
  321MOL0     H44271   1.062  10.783  -0.870  0.9400 -1.1453 -1.1831
  321MOL0     H44272   0.826  10.884  -0.894 -0.8412  0.9265 -0.7734
  321MOL0     H44273   0.852  10.719  -0.929 -0.2983  1.0481  1.9667
  321MOL0     H44274   0.884  10.795  -1.178  2.6522  0.9776  2.4346
  321MOL0     H44275   0.829  10.952  -1.125  0.9167  0.0243  0.5955
  321MOL0     H44276   0.672  10.698  -1.163  2.0931 -0.0627  1.1525
  321MOL0     H44277   0.635  10.872  -1.209  0.2630  2.9184  1.2573
  321MOL0     H44278   1.563  10.623  -0.702  0.2443 -5.1706 -3.6821
  321MOL0     H44279   1.786  10.565  -0.669 -2.4482 -0.4599  0.3739
  321MOL0     H44280   2.267  10.919  -0.605 -0.1622  1.6589 -1.4627
  321MOL0     H44281   2.511  10.899  -0.592  1.5028 -2.8806  1.0670
  321MOL0     H44282   2.656   9.747   0.046  1.5669  1.0324 -2.2943
  321MOL0     H44283   2.474   9.633   0.159  0.0034 -1.6984  0.7198
  321MOL0     H44284   2.142   9.314   0.012 -0.2280 -2.5150 -0.6438
  321MOL0     H44285   1.911   9.276   0.027  3.3256 -0.1071 -0.2528
  321MOL0     H44286   1.727   9.118   0.386  2.2824  1.1760  0.2817
  321MOL0     H44287   1.674   9.277   0.419  0.3555 -1.9724  1.2471
  321MOL0     H44288   1.495   9.275   0.276  1.4103  0.5534  0.4271
  321MOL0     H44289   1.483   9.147   0.389  2.7444  1.2525  2.2753
  321MOL0     H44290   1.417   9.075   0.146  1.0829  1.1165 -3.2342
  321MOL0     H44291   1.571   9.137   0.094  1.3592 -2.6619 -0.1066
  321MOL0     H44292   1.701   8.970   0.171  0.5476  0.4606 -0.9819
  321MOL0     H44293   1.578   8.899   0.084  0.1311 -1.3922  1.7980
  321MOL0     H44294   1.533   8.741   0.469  0.1674 -1.2305 -0.8181
  321MOL0     H44295   1.895   9.326   0.448 -1.6112 -1.6673  0.0100
  321MOL0     H44296   2.260   9.361   0.480 -0.6503  2.7352 -2.7146
  321MOL0     H44297   2.141   9.484   0.505 -2.9551 -0.5881  1.2940
  321MOL0     H44298   2.104   9.331   0.569 -1.6391  0.7379  0.5937
  322MOL0     O44299  10.895   9.981   1.850  0.4879 -0.6210  0.7079
  322MOL0     C44300  10.886   9.954   1.729  0.8635 -0.0478  0.0378
  322MOL0     O44301  10.968   9.994   1.634 -0.0205  0.1421 -0.8895
  322MOL0     C44302  11.034  10.115   1.650  0.7312  0.7711 -0.0208
  322MOL0     C44303  10.975  10.233   1.610  0.3503  1.0257 -0.1785
  322MOL0     C44304  11.047  10.351   1.644  1.0629 -0.7664 -0.2585
  322MOL0     C44305  11.164  10.356   1.711 -0.2143  0.3260 -0.3556
  322MOL0     O44306  11.239  10.470   1.715  0.2453  0.4353  0.5392
  322MOL0     C44307  11.292  10.499   1.850  1.5096 -0.6119 -0.4116
  322MOL0     C44308  11.349  10.643   1.851  0.3342  0.5158  0.3587
  322MOL0     C44309  11.466  10.649   1.760 -1.2136  0.2762  0.5561
  322MOL0     C44310  11.527  10.788   1.745 -0.7825 -0.1255  0.0249
  322MOL0     C44311  11.616  10.818   1.624 -0.7138  0.7072 -0.3439
  322MOL0     C44312  11.738  10.723   1.612  0.2058 -1.0173 -0.4226
  322MOL0     C44313  11.802  10.761   1.486 -0.3647 -0.6784  0.0229
  322MOL0     C44314  11.946  10.694   1.472  0.5980 -0.3963 -0.3907
  322MOL0     N44315  12.021  10.762   1.366  0.5741  0.0461 -0.0223
  322MOL0     C44316  12.039  10.719   1.239  0.1813 -0.8134  0.4241
  322MOL0     C44317  12.142  10.804   1.195 -0.0474  0.5063  0.4547
  322MOL0     C44318  12.200  10.772   1.059 -0.2566 -0.0359  0.3131
  322MOL0     C44319  12.121  10.855   0.950 -0.5987 -0.8519  0.2635
  322MOL0     C44320  12.190  10.841   0.814  0.7432  0.2536 -0.2673
  322MOL0     C44321  12.107  10.911   0.706 -0.0313 -0.6172 -0.2426
  322MOL0     O44322  12.086  11.049   0.719  0.2156 -0.4240  0.5064
  322MOL0     C44323  11.966  11.095   0.673 -0.7433  0.6631 -0.2266
  322MOL0     C44324  11.879  11.162   0.758 -0.1776 -0.4816  0.1030
  322MOL0     C44325  11.754  11.213   0.718  0.7913 -0.8846 -0.1712
  322MOL0     C44326  11.677  11.279   0.827  0.5327 -0.8519 -0.3723
  322MOL0     C44327  11.718  11.188   0.577  0.0093 -0.1816 -0.0031
  322MOL0     C44328  11.594  11.233   0.519  0.3431 -0.4156 -0.1252
  322MOL0     O44329  11.553  11.158   0.407 -0.4254 -0.5194  0.3241
  322MOL0     C44330  11.440  11.185   0.331  0.7629  0.6384 -1.0336
  322MOL0     C44331  11.309  11.218   0.396  0.5205 -0.6364  0.1283
  322MOL0     C44332  11.202  11.250   0.309  0.1086  0.6034 -0.4249
  322MOL0     C44333  11.210  11.240   0.172 -1.6128 -0.4580  0.3270
  322MOL0     O44334  11.102  11.257   0.092 -0.1021  0.4550 -0.2530
  322MOL0     C44335  10.995  11.346   0.141  0.6134 -0.5629  0.2335
  322MOL0     C44336  11.004  11.492   0.105  0.4013 -0.4106 -0.4505
  322MOL0     C44337  11.118  11.556   0.182 -0.8001  0.2937  0.7529
  322MOL0     C44338  11.147  11.688   0.125 -0.5892 -0.4944  0.1317
  322MOL0     C44339  11.296  11.720   0.112  1.1008 -0.8708  0.7369
  322MOL0     C44340  11.305  11.837   0.012 -0.6653  0.0171 -0.1398
  322MOL0     C44341  11.442  11.887  -0.031  0.3734 -0.0290  0.6265
  322MOL0     C44342  11.541  11.925   0.078 -0.0879 -0.4272  0.1231
  322MOL0    Cl44343  11.469  11.984   0.238  0.1592 -0.6609  0.2718
  322MOL0     C44344  11.342  11.201   0.115  0.1553  0.6129  0.2075
  322MOL0     C44345  11.448  11.179   0.191 -0.3276 -0.1223  1.0216
  322MOL0     O44346  11.522  11.322   0.574 -0.6555 -0.5832 -1.0571
  322MOL0     C44347  11.805  11.113   0.491  0.5637  0.1936 -0.3633
  322MOL0     C44348  11.926  11.072   0.540 -0.3285 -0.2644 -0.3803
  322MOL0     N44349  12.187  10.894   1.291  0.0151 -0.0013  0.4628
  322MOL0     N44350  12.109  10.864   1.393  0.4450 -0.6948 -0.4482
  322MOL0     C44351  11.228  10.236   1.748  0.2766  0.5547  0.2735
  322MOL0     C44352  11.153  10.118   1.722 -0.6252 -0.0358 -0.4992
  322MOL0     C44353  10.774   9.864   1.698 -0.0642  0.1977 -0.2771
  322MOL0     C44354  10.788   9.761   1.601  0.6902  0.0158 -0.4251
  322MOL0     C44355  10.678   9.673   1.556 -0.0486  0.6254 -0.1027
  322MOL0     C44356  10.568   9.664   1.634  0.5289  0.0194  0.6368
  322MOL0     O44357  10.463   9.581   1.594  0.4259 -0.1302  0.3432
  322MOL0     C44358  10.480   9.454   1.652 -0.1178  0.2279  0.6869
  322MOL0     C44359  10.364   9.357   1.615 -0.8707  0.2107 -0.7372
  322MOL0     C44360  10.344   9.253   1.726 -0.6986 -0.3976 -0.8232
  322MOL0     C44361  10.229   9.154   1.686 -0.3954 -0.0529 -0.2417
  322MOL0     C44362  10.202   9.073   1.807 -0.8548  0.4942 -0.5815
  322MOL0     C44363  10.169   9.001   1.900 -0.2244  0.4601  0.9865
  322MOL0     C44364  10.548   9.769   1.720 -0.6571  0.3390 -1.3430
  322MOL0     C44365  10.643   9.863   1.765  0.4349 -0.0372 -0.1735
  322MOL0     C44366  10.598   9.965   1.867 -0.2878  0.3729 -0.4694
  322MOL0     H44367  10.879  10.231   1.560 -1.3610  0.1121  2.8917
  322MOL0     H44368  11.001  10.445   1.615  1.3922 -0.4785  0.1343
  322MOL0     H44369  11.367  10.423   1.874 -2.4799 -4.2391  2.1095
  322MOL0     H44370  11.210  10.489   1.922 -1.7140  1.4835 -3.5034
  322MOL0     H44371  11.283  10.722   1.815  0.2244  0.4915  0.5052
  322MOL0     H44372  11.382  10.661   1.954 -1.2572  2.8519  0.5451
  322MOL0     H44373  11.546  10.579   1.784  0.6012  0.6373 -3.5455
  322MOL0     H44374  11.435  10.618   1.659 -2.2753 -2.1878  1.5722
  322MOL0     H44375  11.435  10.846   1.729  0.5080  1.7480 -0.9348
  322MOL0     H44376  11.582  10.808   1.837  0.5724  1.1684 -1.0290
  322MOL0     H44377  11.653  10.921   1.620 -1.9660  1.1661 -0.4021
  322MOL0     H44378  11.559  10.803   1.532  0.5029  1.2145 -1.2174
  322MOL0     H44379  11.812  10.755   1.686 -0.5183  2.0201 -0.8739
  322MOL0     H44380  11.720  10.615   1.616 -1.8059 -0.8040 -1.9605
  322MOL0     H44381  11.810  10.870   1.487 -0.5230 -0.6688  0.7175
  322MOL0     H44382  11.744  10.737   1.397  0.8955  2.1748 -1.7211
  322MOL0     H44383  12.000  10.698   1.567 -2.4388  2.6940  1.4496
  322MOL0     H44384  11.945  10.589   1.442 -3.2757 -1.6112  3.1199
  322MOL0     H44385  11.998  10.624   1.207 -1.6287 -0.6476  2.0607
  322MOL0     H44386  12.201  10.666   1.033 -1.2326  0.4364 -1.9223
  322MOL0     H44387  12.299  10.818   1.051 -1.9100  3.6803 -1.3491
  322MOL0     H44388  12.013  10.839   0.940 -0.6533 -0.0001 -0.7171
  322MOL0     H44389  12.129  10.962   0.969 -0.1971 -0.7508 -0.4457
  322MOL0     H44390  12.289  10.887   0.805  1.5414 -1.7166 -3.5184
  322MOL0     H44391  12.197  10.733   0.799  1.1947  0.1136  0.8644
  322MOL0     H44392  12.158  10.885   0.613  3.7187 -0.9971  1.6949
  322MOL0     H44393  12.009  10.864   0.716 -1.0865  1.6247  0.5204
  322MOL0     H44394  11.922  11.189   0.854  5.2466 -0.5238 -1.9604
  322MOL0     H44395  11.732  11.264   0.921 -0.1536 -1.3743 -0.0470
  322MOL0     H44396  11.587  11.222   0.849  0.9926 -1.1793  0.7459
  322MOL0     H44397  11.644  11.382   0.815 -2.8734 -1.8041 -0.1635
  322MOL0     H44398  11.293  11.231   0.502  2.5964 -0.6282  0.4866
  322MOL0     H44399  11.113  11.288   0.359 -0.7998 -2.8255  0.8607
  322MOL0     H44400  10.913  11.310   0.078  0.3661 -1.6251  1.1448
  322MOL0     H44401  10.969  11.331   0.246 -2.6102  0.3413 -0.3250
  322MOL0     H44402  11.042  11.499   0.003  1.2745  3.4243 -0.0058
  322MOL0     H44403  10.912  11.550   0.109  0.7304  0.0707  1.7349
  322MOL0     H44404  11.201  11.485   0.174 -0.4194  0.2074  4.0167
  322MOL0     H44405  11.103  11.575   0.289  2.3516  0.3419  1.2710
  322MOL0     H44406  11.106  11.759   0.198 -0.4090  1.2654 -1.4093
  322MOL0     H44407  11.107  11.704   0.025  0.8329  0.1842 -0.3543
  322MOL0     H44408  11.349  11.743   0.205 -1.1594  2.5923  1.3577
  322MOL0     H44409  11.345  11.632   0.068 -1.0133 -1.3619 -0.7480
  322MOL0     H44410  11.250  11.925   0.048 -0.7562 -0.0782 -0.0415
  322MOL0     H44411  11.255  11.813  -0.082 -0.9632  1.5026 -0.3794
  322MOL0     H44412  11.433  11.965  -0.107 -0.7949  0.6213  1.4022
  322MOL0     H44413  11.494  11.807  -0.084  0.0206  0.9313 -1.2400
  322MOL0     H44414  11.606  12.004   0.036  0.4970  0.3380  2.3489
  322MOL0     H44415  11.603  11.839   0.106 -3.1345 -1.3986  4.8644
  322MOL0     H44416  11.349  11.192   0.007 -3.3364  0.6690 -0.1387
  322MOL0     H44417  11.540  11.174   0.132 -3.2276  1.8623 -4.3364
  322MOL0     H44418  11.777  11.082   0.391  1.1024  0.7286 -0.6884
  322MOL0     H44419  11.995  11.010   0.483 -0.0554 -0.8164  0.5155
  322MOL0     H44420  11.332  10.227   1.778 -0.0740 -0.2715  1.2855
  322MOL0     H44421  11.189  10.018   1.745  2.8970  0.7143 -1.9964
  322MOL0     H44422  10.887   9.751   1.557 -0.0075 -0.0382 -2.0479
  322MOL0     H44423  10.693   9.603   1.474 -0.0533 -2.1922  2.1309
  322MOL0     H44424  10.574   9.408   1.619  0.1406  0.8034  0.5941
  322MOL0     H44425  10.483   9.445   1.761  2.1218 -1.2061  0.5835
  322MOL0     H44426  10.392   9.304   1.523  0.0440  0.2022 -0.4716
  322MOL0     H44427  10.269   9.406   1.592 -2.2021 -1.0658  1.6258
  322MOL0     H44428  10.434   9.194   1.744 -1.5969 -1.9103 -1.1349
  322MOL0     H44429  10.317   9.308   1.817  2.0121  1.6516 -1.1011
  322MOL0     H44430  10.268   9.098   1.601  1.6094  1.4357 -0.3583
  322MOL0     H44431  10.142   9.204   1.641 -2.4476 -1.8799  1.4647
  322MOL0     H44432  10.136   8.941   1.982 -0.2821 -0.3531  0.3790
  322MOL0     H44433  10.454   9.749   1.771  1.8231 -2.7162  2.6858
  322MOL0     H44434  10.627  10.069   1.851 -1.9380  0.8757 -0.2938
  322MOL0     H44435  10.490   9.965   1.879  0.0383  0.2164  4.8845
  322MOL0     H44436  10.631   9.929   1.966  0.1900  2.9946  0.4116
  323MOL0     O44437   1.705   4.254   7.502 -0.2977  0.4663 -0.1205
  323MOL0     C44438   1.799   4.329   7.465  0.5433 -0.1902  0.6521
  323MOL0     O44439   1.926   4.299   7.468 -0.5585 -0.0044 -0.2498
  323MOL0     C44440   1.981   4.243   7.583 -0.4747  0.3351 -0.8689
  323MOL0     C44441   2.090   4.167   7.560  0.6019  0.5047 -0.1313
  323MOL0     C44442   2.149   4.103   7.674 -0.0620  0.2227 -0.9938
  323MOL0     C44443   2.094   4.095   7.801  0.7468 -0.0199  1.1007
  323MOL0     O44444   2.151   4.015   7.894  0.2431 -0.1474 -0.1259
  323MOL0     C44445   2.055   3.968   7.987 -0.7871  0.9752  0.1300
  323MOL0     C44446   2.133   3.858   8.058 -0.1653 -0.6174  1.3465
  323MOL0     C44447   2.045   3.774   8.148  0.4835  0.3790  0.0106
  323MOL0     C44448   2.081   3.624   8.124 -0.3163  0.4579 -0.3836
  323MOL0     C44449   2.017   3.544   8.236 -0.3334 -1.1202  0.2038
  323MOL0     C44450   2.064   3.397   8.229 -0.2819  0.1366  0.4887
  323MOL0     C44451   1.986   3.325   8.340  0.0596  0.2161 -1.1455
  323MOL0     C44452   2.029   3.180   8.381  0.0023  0.8746  0.5892
  323MOL0     N44453   1.968   3.132   8.509 -0.7565  0.1043 -1.0271
  323MOL0     C44454   1.847   3.156   8.574  0.0902 -0.1843  0.2639
  323MOL0     C44455   1.868   3.133   8.708  0.0098 -0.0249  1.1958
  323MOL0     C44456   1.772   3.174   8.816  0.5494  0.0703  0.3642
  323MOL0     C44457   1.784   3.325   8.844  0.4989 -0.2410  0.2738
  323MOL0     C44458   1.707   3.344   8.967  0.8620 -0.2448  0.0675
  323MOL0     C44459   1.727   3.490   9.011  0.4671  0.1638 -1.1813
  323MOL0     O44460   1.676   3.574   8.911 -0.2363 -0.3045 -0.0214
  323MOL0     C44461   1.700   3.706   8.910 -0.0400 -0.9603  0.3588
  323MOL0     C44462   1.715   3.791   9.022 -0.5323  0.9967  0.3888
  323MOL0     C44463   1.737   3.928   9.015  0.5667  0.7800 -0.4281
  323MOL0     C44464   1.781   4.005   9.140 -0.2567 -0.4555 -0.6333
  323MOL0     C44465   1.723   3.996   8.893 -0.5267 -0.4099 -0.7618
  323MOL0     C44466   1.722   4.139   8.869  0.2873  0.2911 -0.8940
  323MOL0     O44467   1.790   4.197   8.770  0.2070  1.2298 -0.4018
  323MOL0     C44468   1.794   4.333   8.748  0.3773  0.8133 -0.0665
  323MOL0     C44469   1.921   4.405   8.753  0.2150  0.6307 -0.5006
  323MOL0     C44470   1.922   4.544   8.727 -0.4948  0.3374  0.1981
  323MOL0     C44471   1.809   4.613   8.688 -0.7317  0.3681  0.1857
  323MOL0     O44472   1.790   4.743   8.667 -0.1683 -0.8413  0.1029
  323MOL0     C44473   1.880   4.846   8.733 -0.7251 -0.4538 -0.4881
  323MOL0     C44474   1.858   4.981   8.670  0.3892  0.4124 -0.0088
  323MOL0     C44475   1.861   5.008   8.517 -0.2195 -0.3635  0.4855
  323MOL0     C44476   1.866   5.154   8.470 -0.1974  0.1564  0.4551
  323MOL0     C44477   1.834   5.162   8.321  0.0048 -0.9787 -0.1488
  323MOL0     C44478   1.834   5.305   8.271  0.3564 -0.2255 -0.0377
  323MOL0     C44479   1.730   5.336   8.147  0.1633 -0.2127 -0.7395
  323MOL0     C44480   1.771   5.246   8.035 -0.3356  0.3627  0.4838
  323MOL0    Cl44481   1.926   5.284   7.966 -0.3973  0.1159 -0.1430
  323MOL0     C44482   1.693   4.538   8.676 -0.1041  0.0515  0.4691
  323MOL0     C44483   1.683   4.401   8.707  0.1897  0.9005 -0.2041
  323MOL0     O44484   1.660   4.205   8.950  0.1848 -1.0002  1.0440
  323MOL0     C44485   1.703   3.911   8.782  0.3904  0.4275  0.8415
  323MOL0     C44486   1.685   3.772   8.789  0.0575 -0.4859  0.8844
  323MOL0     N44487   1.996   3.087   8.720  0.5740 -0.4602 -0.4399
  323MOL0     N44488   2.056   3.089   8.608 -0.4671  0.2589 -0.7975
  323MOL0     C44489   1.991   4.186   7.821 -0.4742 -0.3089 -0.4901
  323MOL0     C44490   1.928   4.256   7.719  0.0809 -0.0850  0.6964
  323MOL0     C44491   1.760   4.462   7.403 -0.1105  0.0598 -0.4480
  323MOL0     C44492   1.853   4.559   7.437  0.5758  0.0056 -0.6893
  323MOL0     C44493   1.847   4.692   7.391 -0.2698  0.0020 -0.1325
  323MOL0     C44494   1.726   4.732   7.319  0.0708 -0.1444  0.2001
  323MOL0     O44495   1.692   4.858   7.287 -0.5478  0.5470 -0.2038
  323MOL0     C44496   1.786   4.961   7.330  0.0687  0.2675  0.6021
  323MOL0     C44497   1.762   5.094   7.253 -0.3335 -0.3859  0.0854
  323MOL0     C44498   1.886   5.183   7.240  0.9647 -0.2707  0.4718
  323MOL0     C44499   1.862   5.311   7.169  0.0022 -0.2192  0.0584
  323MOL0     C44500   1.823   5.294   7.021  0.3367 -0.0755 -0.5695
  323MOL0     C44501   1.786   5.278   6.904 -0.1447 -0.0965  1.0882
  323MOL0     C44502   1.629   4.638   7.282 -0.0958 -0.2305 -0.1129
  323MOL0     C44503   1.640   4.503   7.329 -1.6102 -0.3762  0.3015
  323MOL0     C44504   1.531   4.411   7.283  0.3504  0.5899  0.7897
  323MOL0     H44505   2.141   4.169   7.465  0.8751  0.3200  0.0113
  323MOL0     H44506   2.245   4.057   7.655  1.8772  2.1046  3.0681
  323MOL0     H44507   1.973   3.930   7.925  0.4481  0.2061 -1.0788
  323MOL0     H44508   2.030   4.041   8.065 -1.0166  0.0109  0.9761
  323MOL0     H44509   2.191   3.798   7.987  0.6774 -0.3872  1.8311
  323MOL0     H44510   2.209   3.911   8.117 -1.6922 -0.6205  3.4241
  323MOL0     H44511   2.080   3.807   8.246  2.1483 -1.6986  0.1851
  323MOL0     H44512   1.937   3.790   8.148  0.3471 -0.1640  2.1947
  323MOL0     H44513   2.044   3.597   8.025 -1.8921  2.3442 -0.3665
  323MOL0     H44514   2.190   3.616   8.129 -0.2988  0.0137 -1.2312
  323MOL0     H44515   1.908   3.554   8.237 -0.1845  0.7737  0.3942
  323MOL0     H44516   2.052   3.583   8.332  1.9777 -2.0416 -0.2040
  323MOL0     H44517   2.042   3.354   8.131  1.7560 -1.0394  0.4825
  323MOL0     H44518   2.172   3.387   8.241 -0.1525  1.3226  0.4734
  323MOL0     H44519   1.878   3.326   8.322  0.0581  0.8593 -1.1157
  323MOL0     H44520   1.989   3.381   8.434 -0.9675 -1.0617 -0.3183
  323MOL0     H44521   2.009   3.113   8.297 -0.9836  0.3990  1.1734
  323MOL0     H44522   2.137   3.184   8.395  0.2527  1.0199 -1.2590
  323MOL0     H44523   1.756   3.203   8.539  0.5939  1.0851  0.6201
  323MOL0     H44524   1.791   3.106   8.899  0.5478  0.8840  1.0412
  323MOL0     H44525   1.669   3.155   8.787  1.0949 -0.5681 -1.2695
  323MOL0     H44526   1.886   3.356   8.867  0.8828 -0.2685 -1.2904
  323MOL0     H44527   1.743   3.385   8.761  1.3215  0.5997  0.4571
  323MOL0     H44528   1.599   3.339   8.950  0.9908 -3.6385 -0.4654
  323MOL0     H44529   1.722   3.278   9.053 -0.4753  1.4547  1.6919
  323MOL0     H44530   1.683   3.497   9.111  2.2334  0.8575 -0.3955
  323MOL0     H44531   1.833   3.510   9.030  0.3389  0.6754 -0.9894
  323MOL0     H44532   1.716   3.747   9.121 -0.3781 -1.3302 -0.5976
  323MOL0     H44533   1.704   4.021   9.217 -0.3726  1.3457 -1.0809
  323MOL0     H44534   1.826   4.098   9.105  2.5065 -1.6459 -0.4838
  323MOL0     H44535   1.861   3.954   9.194 -1.5418  1.0164  2.9698
  323MOL0     H44536   2.012   4.348   8.768  0.2756  1.0801  1.0535
  323MOL0     H44537   2.017   4.597   8.729  0.3792 -0.6769 -3.9450
  323MOL0     H44538   1.859   4.861   8.839 -2.0287 -0.0569 -0.7854
  323MOL0     H44539   1.984   4.812   8.719 -0.5251 -0.7135  1.3750
  323MOL0     H44540   1.761   5.018   8.706  0.7220  1.4478 -0.1379
  323MOL0     H44541   1.932   5.049   8.713 -2.0621  1.5750  2.7190
  323MOL0     H44542   1.767   4.966   8.480  1.1684 -1.8251 -1.5998
  323MOL0     H44543   1.945   4.952   8.476 -1.3828 -1.1089 -0.9852
  323MOL0     H44544   1.967   5.189   8.493 -0.3635 -0.2045  1.8178
  323MOL0     H44545   1.785   5.208   8.520 -2.6229  1.3895 -4.2487
  323MOL0     H44546   1.899   5.107   8.253 -1.0987 -1.7379 -0.6237
  323MOL0     H44547   1.732   5.128   8.300 -0.8211  2.0989 -1.6831
  323MOL0     H44548   1.939   5.333   8.255  0.4676  0.9520  2.2157
  323MOL0     H44549   1.805   5.380   8.346 -0.7195  0.3938 -1.0309
  323MOL0     H44550   1.735   5.440   8.112  1.4204  0.3935  1.0912
  323MOL0     H44551   1.628   5.306   8.173  0.3027  0.8951  1.2949
  323MOL0     H44552   1.695   5.254   7.956  0.2287  2.0801  0.0753
  323MOL0     H44553   1.762   5.138   8.046 -0.3284  0.1142 -1.4658
  323MOL0     H44554   1.598   4.588   8.659  0.5922  0.7701 -1.6791
  323MOL0     H44555   1.585   4.357   8.719  0.2312  0.5318 -1.1171
  323MOL0     H44556   1.706   3.957   8.684  1.8124  0.7526  1.0184
  323MOL0     H44557   1.662   3.718   8.698  2.2102  3.3133 -2.2295
  323MOL0     H44558   1.947   4.182   7.920 -0.3030 -1.8472 -0.4476
  323MOL0     H44559   1.843   4.316   7.750 -0.0620  1.2451 -2.0202
  323MOL0     H44560   1.944   4.539   7.493 -0.1882 -1.7717 -0.0363
  323MOL0     H44561   1.929   4.759   7.413  0.6158 -1.2096  0.3588
  323MOL0     H44562   1.784   4.981   7.437 -1.2075  0.5720  0.5337
  323MOL0     H44563   1.886   4.930   7.299  0.4757  0.0887  2.0543
  323MOL0     H44564   1.683   5.156   7.297  0.0769  1.7010 -1.9386
  323MOL0     H44565   1.728   5.071   7.151  0.3761  1.6418 -0.6621
  323MOL0     H44566   1.923   5.209   7.340 -0.7009  3.4146  0.3080
  323MOL0     H44567   1.968   5.134   7.186  0.1620  1.1637 -2.2264
  323MOL0     H44568   1.952   5.373   7.168 -0.6273  0.7452  1.2014
  323MOL0     H44569   1.783   5.369   7.216 -0.9643 -0.3850 -1.2885
  323MOL0     H44570   1.774   5.278   6.797  1.9885  0.5410  0.8038
  323MOL0     H44571   1.549   4.682   7.223 -1.6247 -1.6857  0.7754
  323MOL0     H44572   1.440   4.467   7.258 -0.4748 -0.6178  0.9631
  323MOL0     H44573   1.563   4.359   7.193  3.6648  2.1049  0.9774
  323MOL0     H44574   1.508   4.335   7.359 -0.8187  2.1993  2.1475
  324MOL0     O44575  10.363   2.159   1.526  0.0475  0.1871 -0.2711
  324MOL0     C44576  10.355   2.121   1.640  0.7813  0.3415 -0.6498
  324MOL0     O44577  10.339   2.198   1.751  0.0683  0.0673  0.3899
  324MOL0     C44578  10.302   2.330   1.741 -0.7437  0.2018  0.7568
  324MOL0     C44579  10.183   2.359   1.807  0.2213 -0.5076  0.4157
  324MOL0     C44580  10.144   2.493   1.806 -0.7029  0.0570 -0.1586
  324MOL0     C44581  10.219   2.598   1.743 -0.3071 -0.1663 -0.1738
  324MOL0     O44582  10.179   2.730   1.728 -0.0755 -0.6164  0.1673
  324MOL0     C44583  10.046   2.760   1.772 -1.0567 -0.0053 -0.0254
  324MOL0     C44584  10.033   2.912   1.738 -0.7896  1.0553 -0.3492
  324MOL0     C44585   9.885   2.962   1.736 -0.8786 -0.0859  0.7458
  324MOL0     C44586   9.880   3.099   1.662 -0.5720  0.6044 -0.6973
  324MOL0     C44587   9.750   3.173   1.661 -0.4399 -0.8381 -0.5395
  324MOL0     C44588   9.639   3.077   1.612  0.2409  0.4421  0.4583
  324MOL0     C44589   9.507   3.141   1.602  0.0732 -0.0592  0.3371
  324MOL0     C44590   9.412   3.034   1.532  0.7888 -1.6298 -0.7151
  324MOL0     N44591   9.276   3.089   1.539  0.3481 -0.1059  1.1261
  324MOL0     C44592   9.230   3.178   1.449  1.3207 -0.7027 -0.3365
  324MOL0     C44593   9.111   3.208   1.493 -0.2908 -0.8003 -0.2494
  324MOL0     C44594   9.018   3.305   1.421 -0.2911 -0.4823  0.7835
  324MOL0     C44595   8.906   3.226   1.348 -0.4856  0.1396 -0.7525
  324MOL0     C44596   8.845   3.312   1.236  0.2031  0.9187 -0.8064
  324MOL0     C44597   8.750   3.230   1.151 -0.2698 -0.3135 -0.0042
  324MOL0     O44598   8.654   3.160   1.229 -0.0887 -0.1114  0.5503
  324MOL0     C44599   8.570   3.071   1.166 -0.6492  0.1251 -0.8585
  324MOL0     C44600   8.594   3.022   1.028 -0.0878  0.4036  0.6599
  324MOL0     C44601   8.523   2.910   0.984 -0.1891 -0.1322  0.2903
  324MOL0     C44602   8.563   2.863   0.844 -0.4592  0.4224 -0.6554
  324MOL0     C44603   8.426   2.848   1.070 -0.4067 -0.2343  0.8085
  324MOL0     C44604   8.345   2.728   1.031 -0.4141  0.4664  0.1591
  324MOL0     O44605   8.278   2.660   1.133  0.0693 -0.1051 -0.6846
  324MOL0     C44606   8.225   2.536   1.120  0.0010  0.1786  0.0781
  324MOL0     C44607   8.300   2.424   1.095 -0.6850  0.4138  0.0887
  324MOL0     C44608   8.242   2.302   1.099  1.0741  0.2013  0.0038
  324MOL0     C44609   8.104   2.288   1.131 -0.3561 -0.2655 -0.9294
  324MOL0     O44610   8.072   2.158   1.138 -0.7399  0.0293 -0.0151
  324MOL0     C44611   8.019   2.106   1.259 -0.3337 -0.3590 -0.3383
  324MOL0     C44612   7.942   1.971   1.243 -0.2339 -0.0892  0.8024
  324MOL0     C44613   8.040   1.853   1.216  0.0070  0.8532  0.1753
  324MOL0     C44614   7.970   1.731   1.270  0.0089  0.6093 -0.1780
  324MOL0     C44615   8.042   1.610   1.223 -0.6670  0.5194 -0.5090
  324MOL0     C44616   7.997   1.475   1.279 -0.1740 -0.2558  0.0885
  324MOL0     C44617   8.081   1.361   1.213  0.9899 -0.6402 -0.0013
  324MOL0     C44618   8.082   1.238   1.299 -0.4761  1.9284  0.3876
  324MOL0    Cl44619   8.189   1.230   1.440  0.0198 -0.0853 -0.7313
  324MOL0     C44620   8.023   2.403   1.161 -0.4702  1.1367  0.0759
  324MOL0     C44621   8.086   2.527   1.145 -0.8048  0.4130  0.2914
  324MOL0     O44622   8.364   2.677   0.919  0.2481 -0.2708  0.0099
  324MOL0     C44623   8.409   2.898   1.203  0.5720  0.3545 -0.8592
  324MOL0     C44624   8.473   3.009   1.248 -0.1583  0.4187 -0.0947
  324MOL0     N44625   9.081   3.141   1.609 -0.5820  0.0617 -0.3318
  324MOL0     N44626   9.188   3.069   1.645  0.4630 -0.1578  0.2586
  324MOL0     C44627  10.329   2.559   1.674 -0.3441  0.1527 -0.2056
  324MOL0     C44628  10.372   2.431   1.676  0.1328  0.4835  0.7000
  324MOL0     C44629  10.334   1.969   1.659  0.5020 -1.5087 -0.4082
  324MOL0     C44630  10.286   1.925   1.781  0.8599  0.2381  0.1209
  324MOL0     C44631  10.251   1.785   1.794 -0.7373  0.6057  0.9405
  324MOL0     C44632  10.271   1.692   1.688 -0.3526  0.4375 -1.2679
  324MOL0     O44633  10.240   1.555   1.716 -0.2261 -0.2257 -0.5268
  324MOL0     C44634  10.250   1.462   1.603  0.3901 -0.7252  0.3925
  324MOL0     C44635  10.189   1.325   1.651 -0.1851 -0.0947  0.2639
  324MOL0     C44636  10.185   1.238   1.532 -0.1258 -0.3126  0.3460
  324MOL0     C44637  10.168   1.097   1.588  0.4358  0.3426  1.0664
  324MOL0     C44638  10.142   0.994   1.476 -0.6389 -0.0764 -0.0043
  324MOL0     C44639  10.123   0.907   1.391  1.0966 -0.2735  0.5805
  324MOL0     C44640  10.348   1.739   1.585 -0.6289 -0.2514  0.4315
  324MOL0     C44641  10.379   1.872   1.572 -0.9732  0.1257  1.2415
  324MOL0     C44642  10.467   1.913   1.446 -0.6057 -0.5356  0.9732
  324MOL0     H44643  10.117   2.284   1.850 -1.0636 -0.7035 -1.7527
  324MOL0     H44644  10.046   2.524   1.841 -2.6171 -1.3194 -3.7418
  324MOL0     H44645  10.028   2.740   1.878 -0.2951 -0.3662  0.0353
  324MOL0     H44646   9.965   2.708   1.720 -0.7130 -0.1387 -0.4249
  324MOL0     H44647  10.088   2.965   1.817  0.5189 -1.3015  0.4264
  324MOL0     H44648  10.063   2.935   1.635 -0.6337  1.2090 -0.2704
  324MOL0     H44649   9.829   2.888   1.678 -2.2502  0.3914  1.4213
  324MOL0     H44650   9.857   2.967   1.842  1.1135  2.5424  1.2678
  324MOL0     H44651   9.956   3.160   1.712 -2.4480  0.0951  3.1549
  324MOL0     H44652   9.904   3.083   1.557 -0.2715 -0.4912 -0.4735
  324MOL0     H44653   9.751   3.262   1.596  0.1723  1.5884  2.5717
  324MOL0     H44654   9.726   3.212   1.760 -1.8276 -0.4255 -1.0055
  324MOL0     H44655   9.675   3.029   1.521 -2.7654 -1.4550  0.1346
  324MOL0     H44656   9.641   3.003   1.693 -0.4674 -0.2336 -0.1242
  324MOL0     H44657   9.507   3.222   1.528  0.4934 -1.4724 -1.2981
  324MOL0     H44658   9.467   3.167   1.700 -0.7263 -0.8761  0.2360
  324MOL0     H44659   9.436   3.016   1.427 -2.8601  2.3380 -2.5620
  324MOL0     H44660   9.414   2.928   1.561  4.0906 -1.1352  1.3091
  324MOL0     H44661   9.285   3.209   1.360  0.0650  3.0307 -0.0184
  324MOL0     H44662   9.085   3.351   1.348 -0.5529  1.0024  1.4419
  324MOL0     H44663   8.987   3.387   1.486 -0.7692  0.2046 -0.2914
  324MOL0     H44664   8.950   3.137   1.304  1.4215  0.3537  0.6257
  324MOL0     H44665   8.837   3.204   1.430  1.6370 -1.1655  0.7926
  324MOL0     H44666   8.798   3.394   1.292 -1.5178 -1.5937  1.7636
  324MOL0     H44667   8.927   3.352   1.177  1.4170 -1.7789 -1.1038
  324MOL0     H44668   8.697   3.295   1.080 -0.1335  1.2486  1.2659
  324MOL0     H44669   8.810   3.159   1.094  0.8078  0.8635 -0.3940
  324MOL0     H44670   8.663   3.072   0.961 -1.1474 -1.2000 -1.7686
  324MOL0     H44671   8.651   2.920   0.812  0.9521 -1.2216  0.0732
  324MOL0     H44672   8.471   2.866   0.785 -1.4055  1.2980  0.8026
  324MOL0     H44673   8.606   2.762   0.837  4.2140  2.2662 -2.5617
  324MOL0     H44674   8.404   2.429   1.065 -0.1258 -2.5231  1.1774
  324MOL0     H44675   8.298   2.211   1.077 -0.3629 -0.5243 -0.7770
  324MOL0     H44676   8.106   2.094   1.323 -0.2094 -1.4014 -0.6839
  324MOL0     H44677   7.952   2.182   1.301 -0.2611 -1.1094  1.1928
  324MOL0     H44678   7.899   1.958   1.342  1.0263 -2.1999  1.1489
  324MOL0     H44679   7.870   1.970   1.161 -1.6383 -1.8732  1.9695
  324MOL0     H44680   8.132   1.871   1.272  0.2099 -1.0470  0.5403
  324MOL0     H44681   8.056   1.847   1.108 -1.9014  2.0643 -0.2370
  324MOL0     H44682   7.866   1.712   1.240  0.7039 -0.9386 -1.8328
  324MOL0     H44683   7.973   1.728   1.379 -2.6676 -2.1454 -0.0469
  324MOL0     H44684   8.038   1.608   1.114  1.3441 -1.1577 -0.6316
  324MOL0     H44685   8.148   1.626   1.246 -0.1260 -2.2296 -0.8081
  324MOL0     H44686   7.892   1.450   1.258 -0.4056 -3.8261  4.0730
  324MOL0     H44687   8.000   1.465   1.388 -0.4411 -0.5038  0.0756
  324MOL0     H44688   8.181   1.401   1.196  0.2402  1.8705  0.9412
  324MOL0     H44689   8.040   1.342   1.113  4.2855  2.5060 -2.2258
  324MOL0     H44690   8.139   1.168   1.238 -2.0577 -0.4628  1.5177
  324MOL0     H44691   7.978   1.205   1.306 -0.0254  0.5441  0.7614
  324MOL0     H44692   7.916   2.405   1.179 -1.0220  2.1879 -2.8412
  324MOL0     H44693   8.028   2.617   1.167 -0.1584  1.0855 -0.6948
  324MOL0     H44694   8.358   2.832   1.272  1.4663 -0.6865 -1.1614
  324MOL0     H44695   8.456   3.038   1.351  0.9958  0.5928  0.0544
  324MOL0     H44696  10.367   2.640   1.612 -2.1593 -0.4781 -2.2623
  324MOL0     H44697  10.458   2.396   1.620  0.3347  0.2364  1.1563
  324MOL0     H44698  10.239   1.992   1.852 -0.4598 -2.4091  1.9266
  324MOL0     H44699  10.198   1.756   1.884 -0.1146  2.0426  1.8098
  324MOL0     H44700  10.195   1.486   1.512  0.4434  2.6343  1.1340
  324MOL0     H44701  10.357   1.453   1.582  1.1191  0.7656  2.9626
  324MOL0     H44702  10.088   1.330   1.692  1.1267 -0.2298  3.8627
  324MOL0     H44703  10.260   1.276   1.718 -1.0413 -0.7233  0.7347
  324MOL0     H44704  10.100   1.275   1.474  1.2134  1.5496 -0.5354
  324MOL0     H44705  10.285   1.248   1.488 -1.3065 -1.2874 -2.8760
  324MOL0     H44706  10.073   1.094   1.640  0.1676  0.6466  0.6028
  324MOL0     H44707  10.234   1.054   1.665 -0.1740 -0.5876  1.0804
  324MOL0     H44708  10.098   0.839   1.311  2.6178 -0.6149  0.3658
  324MOL0     H44709  10.396   1.666   1.521 -1.5641  0.2564 -0.8685
  324MOL0     H44710  10.523   2.006   1.460 -0.2991 -0.8036  1.5096
  324MOL0     H44711  10.529   1.826   1.422 -3.2767 -2.4454  0.5130
  324MOL0     H44712  10.405   1.921   1.356  0.7821 -0.0017  0.0332
  325MOL0     O44713   1.292   7.476   3.925  1.0049 -0.1350  0.9640
  325MOL0     C44714   1.378   7.518   3.843  0.0897  0.0396 -0.8074
  325MOL0     O44715   1.403   7.463   3.726  0.5268 -0.3105  0.5246
  325MOL0     C44716   1.309   7.370   3.676  1.2118 -0.0801 -0.3898
  325MOL0     C44717   1.196   7.425   3.599 -0.4977  0.4029 -1.0524
  325MOL0     C44718   1.093   7.343   3.568 -0.8127  0.2504 -0.4378
  325MOL0     C44719   1.112   7.199   3.598 -0.3068  0.2119 -0.7649
  325MOL0     O44720   1.014   7.110   3.569 -0.6872  0.3458  0.0200
  325MOL0     C44721   0.918   7.111   3.457  0.0676 -0.7666 -0.1164
  325MOL0     C44722   0.824   6.994   3.484  0.1299 -0.6861 -0.0399
  325MOL0     C44723   0.757   6.993   3.616 -0.1217  0.3915  0.4205
  325MOL0     C44724   0.660   7.109   3.644 -0.2488 -0.2130 -0.2123
  325MOL0     C44725   0.578   7.106   3.780 -0.6147  0.3815 -0.6670
  325MOL0     C44726   0.490   6.975   3.796 -0.6158 -1.1875 -0.1394
  325MOL0     C44727   0.389   6.967   3.908 -0.5712 -0.1178 -0.8027
  325MOL0     C44728   0.436   6.994   4.049 -0.1657  0.3613  0.2430
  325MOL0     N44729   0.513   6.876   4.089  0.2636  0.5520  0.2358
  325MOL0     C44730   0.649   6.872   4.116  1.3600 -0.4467  0.6345
  325MOL0     C44731   0.683   6.745   4.137 -0.5682 -0.1410  0.2711
  325MOL0     C44732   0.823   6.688   4.156 -0.1553 -0.2474  0.0607
  325MOL0     C44733   0.840   6.624   4.294  0.0044  0.4395  0.5285
  325MOL0     C44734   0.980   6.566   4.317  0.9688 -0.3199 -1.0475
  325MOL0     C44735   1.007   6.553   4.470 -0.2487  0.4480  0.1965
  325MOL0     O44736   0.909   6.476   4.538 -0.5628  0.2287  0.1958
  325MOL0     C44737   0.901   6.341   4.512  0.4230 -0.3075  0.4054
  325MOL0     C44738   0.787   6.284   4.565 -0.1421  0.8564 -0.9141
  325MOL0     C44739   0.748   6.146   4.538  0.2501 -0.5156 -0.0959
  325MOL0     C44740   0.609   6.112   4.588 -0.6165  0.4407  0.4608
  325MOL0     C44741   0.831   6.064   4.456 -0.2402 -0.0059  0.2899
  325MOL0     C44742   0.809   5.921   4.423 -1.3924  0.6845  0.6762
  325MOL0     O44743   0.681   5.863   4.419 -0.2780 -0.4866 -0.2608
  325MOL0     C44744   0.663   5.728   4.382 -0.1524 -0.6812  0.4015
  325MOL0     C44745   0.552   5.694   4.311 -0.0375  0.1077 -1.3884
  325MOL0     C44746   0.521   5.561   4.260  0.5588 -0.9133  0.0894
  325MOL0     C44747   0.607   5.458   4.303  0.1841  0.3402 -0.2830
  325MOL0     O44748   0.609   5.335   4.247  0.0380  0.5859  0.5201
  325MOL0     C44749   0.584   5.321   4.101  1.0657 -0.1503 -0.1510
  325MOL0     C44750   0.569   5.176   4.074 -0.5397  0.2908 -0.2745
  325MOL0     C44751   0.700   5.108   4.044  0.6456 -0.2881 -0.6561
  325MOL0     C44752   0.665   4.962   4.011 -0.0806  0.4984 -0.3331
  325MOL0     C44753   0.786   4.904   3.937  0.0002  0.4192  0.3159
  325MOL0     C44754   0.904   4.862   4.032  0.9636  0.4690 -0.6627
  325MOL0     C44755   1.015   4.791   3.954 -0.0868 -0.7139  0.0823
  325MOL0     C44756   1.082   4.696   4.041 -1.0285 -0.4649 -0.5282
  325MOL0    Cl44757   1.015   4.530   4.036  0.0587  0.1909  0.5912
  325MOL0     C44758   0.708   5.485   4.390 -0.5024 -0.0202  0.7456
  325MOL0     C44759   0.740   5.616   4.428  0.6729 -0.2228 -0.6063
  325MOL0     O44760   0.915   5.865   4.385  1.0779  0.7586  0.3763
  325MOL0     C44761   0.944   6.134   4.407 -0.2897  0.4970 -0.6389
  325MOL0     C44762   0.984   6.265   4.435  0.1054 -0.4013 -1.2587
  325MOL0     N44763   0.564   6.670   4.156  0.4430  0.5487 -0.1815
  325MOL0     N44764   0.462   6.758   4.139 -0.0223  0.0119 -0.0646
  325MOL0     C44765   1.229   7.149   3.663  0.6983  0.2964 -0.8707
  325MOL0     C44766   1.327   7.235   3.691 -0.1702  0.0290  0.2383
  325MOL0     C44767   1.493   7.604   3.894 -1.2587 -0.2992 -0.8352
  325MOL0     C44768   1.597   7.643   3.805  0.2870  0.5017 -0.0722
  325MOL0     C44769   1.713   7.698   3.853  0.2271  0.0329  0.0154
  325MOL0     C44770   1.732   7.739   3.985  0.9267  0.3670 -0.9837
  325MOL0     O44771   1.839   7.822   4.012 -0.2715 -0.1616  0.7418
  325MOL0     C44772   1.866   7.848   4.150  0.4575  0.1576  1.1930
  325MOL0     C44773   2.018   7.899   4.150 -0.2364 -0.1365 -0.0860
  325MOL0     C44774   2.113   7.789   4.091  0.0711 -0.1305 -0.3873
  325MOL0     C44775   2.255   7.832   4.099 -0.1823 -0.4897  0.0734
  325MOL0     C44776   2.318   7.816   3.967 -0.0651 -0.2158  0.9546
  325MOL0     C44777   2.369   7.804   3.853 -0.0500 -0.9200  0.6527
  325MOL0     C44778   1.627   7.703   4.075 -0.0886  0.0611  0.2242
  325MOL0     C44779   1.511   7.639   4.027  0.1872 -0.7258 -0.4201
  325MOL0     C44780   1.407   7.624   4.129 -0.1506 -0.8702  0.2820
  325MOL0     H44781   1.181   7.526   3.563  0.9979 -0.4910 -4.5301
  325MOL0     H44782   1.009   7.380   3.511  0.2068 -0.9548 -2.8960
  325MOL0     H44783   0.960   7.098   3.358 -0.6519  0.1969 -0.5677
  325MOL0     H44784   0.862   7.205   3.467  0.6400 -0.6451  2.8124
  325MOL0     H44785   0.746   6.992   3.407  2.0000 -0.6874 -2.0243
  325MOL0     H44786   0.882   6.902   3.477 -2.4559 -2.3773 -0.5489
  325MOL0     H44787   0.693   6.905   3.618  0.5530 -0.0906  1.6200
  325MOL0     H44788   0.832   6.975   3.694 -0.2680 -0.2072  0.4290
  325MOL0     H44789   0.734   7.190   3.642  2.6176 -2.6181  1.1665
  325MOL0     H44790   0.590   7.125   3.562 -0.1538  2.5108  0.1352
  325MOL0     H44791   0.514   7.193   3.797 -0.2354  0.5080  0.2030
  325MOL0     H44792   0.656   7.099   3.857 -0.3647  0.4922 -0.9107
  325MOL0     H44793   0.431   6.974   3.704 -0.6336  1.1045 -0.2068
  325MOL0     H44794   0.547   6.882   3.795  2.0212  0.3180 -1.7804
  325MOL0     H44795   0.347   6.866   3.905  1.1829 -0.9657  0.9588
  325MOL0     H44796   0.306   7.034   3.884 -0.1654  0.4024 -0.7760
  325MOL0     H44797   0.492   7.088   4.054 -0.2707  0.3546  1.9124
  325MOL0     H44798   0.349   7.011   4.112 -0.8682 -2.3740  0.1196
  325MOL0     H44799   0.708   6.959   4.090  0.9367 -0.6273 -0.9783
  325MOL0     H44800   0.891   6.773   4.157  1.1715 -1.2721  0.0198
  325MOL0     H44801   0.844   6.613   4.079 -0.0026 -0.3659  0.2197
  325MOL0     H44802   0.825   6.703   4.369 -0.0432  0.6574  0.2909
  325MOL0     H44803   0.768   6.543   4.311  2.4883 -1.4969  2.7151
  325MOL0     H44804   0.994   6.478   4.254 -2.0013  0.4757 -3.0337
  325MOL0     H44805   1.048   6.643   4.279  2.6564 -2.2065 -2.0345
  325MOL0     H44806   1.105   6.504   4.481 -0.9020 -0.7758  0.7627
  325MOL0     H44807   1.003   6.655   4.511 -2.2437  0.3499  0.3359
  325MOL0     H44808   0.729   6.352   4.626  1.6619  2.0725 -0.4680
  325MOL0     H44809   0.548   6.094   4.499 -0.1536 -1.4833  0.4891
  325MOL0     H44810   0.566   6.185   4.656 -1.6038  0.5977 -0.3092
  325MOL0     H44811   0.616   6.019   4.645  1.4442  0.1675 -0.1389
  325MOL0     H44812   0.479   5.772   4.292 -1.2335 -0.9998 -1.5353
  325MOL0     H44813   0.440   5.541   4.191  1.3272  0.1882 -1.2042
  325MOL0     H44814   0.488   5.366   4.078  0.0089 -1.9743  0.4919
  325MOL0     H44815   0.655   5.370   4.034  0.1098 -1.1369 -1.9448
  325MOL0     H44816   0.518   5.123   4.155  0.4728  2.2192  1.7422
  325MOL0     H44817   0.504   5.166   3.986 -1.5168 -1.2096  0.5618
  325MOL0     H44818   0.773   5.107   4.125 -0.4842 -3.6744  0.4664
  325MOL0     H44819   0.748   5.156   3.958  2.1718  1.5792  1.1376
  325MOL0     H44820   0.579   4.962   3.944 -1.9928  0.6136  2.0152
  325MOL0     H44821   0.623   4.900   4.091 -0.2508 -0.2752 -1.0093
  325MOL0     H44822   0.761   4.814   3.880  2.5582 -1.2393  1.6032
  325MOL0     H44823   0.816   4.977   3.861 -1.7188  0.0454 -0.7676
  325MOL0     H44824   0.855   4.783   4.090 -0.4093  3.1444  2.1406
  325MOL0     H44825   0.934   4.940   4.103 -3.6075  2.9536 -1.0827
  325MOL0     H44826   1.094   4.865   3.938  0.5244 -1.2996  0.3304
  325MOL0     H44827   0.987   4.746   3.858  0.3951  0.4006 -0.6041
  325MOL0     H44828   1.094   4.739   4.141 -4.0273  1.3008 -0.8130
  325MOL0     H44829   1.185   4.697   4.002 -0.2419  2.5578  1.3143
  325MOL0     H44830   0.764   5.410   4.444 -0.4816  0.6037  1.6016
  325MOL0     H44831   0.821   5.651   4.491 -0.0098 -0.1685  0.2528
  325MOL0     H44832   1.014   6.081   4.343  1.7399  0.4362  1.4979
  325MOL0     H44833   1.076   6.300   4.390 -0.5184 -0.9565 -3.0539
  325MOL0     H44834   1.238   7.043   3.686 -0.7743  0.2522 -0.3914
  325MOL0     H44835   1.420   7.198   3.735 -0.5789 -0.2799  0.8680
  325MOL0     H44836   1.580   7.616   3.701 -2.8582  0.0845  0.4434
  325MOL0     H44837   1.791   7.714   3.779  1.1065  0.8826  1.0790
  325MOL0     H44838   1.799   7.926   4.189 -0.7125 -0.0850 -0.1973
  325MOL0     H44839   1.870   7.759   4.213  1.7118  0.8325  2.1036
  325MOL0     H44840   2.062   7.910   4.249 -2.8192 -1.0438  1.2485
  325MOL0     H44841   2.022   7.999   4.107 -0.7478  0.4999  1.3124
  325MOL0     H44842   2.103   7.692   4.141 -2.3667  0.5905  0.6857
  325MOL0     H44843   2.093   7.782   3.984  0.0421  1.5314 -0.5077
  325MOL0     H44844   2.314   7.770   4.168 -1.0438 -0.3686  0.9387
  325MOL0     H44845   2.263   7.936   4.132  1.9582 -0.8702  0.9681
  325MOL0     H44846   2.419   7.777   3.762  2.6967  2.3416  0.9935
  325MOL0     H44847   1.634   7.751   4.172  0.0591 -1.6908  1.1273
  325MOL0     H44848   1.452   7.648   4.226  0.3732  1.7431 -0.5463
  325MOL0     H44849   1.317   7.685   4.117  0.0773 -0.6823 -0.5160
  325MOL0     H44850   1.374   7.521   4.145  1.4293 -1.4216  0.1393
  326MOL0     O44851   8.055   7.421  11.179 -0.0346  0.6044 -0.3021
  326MOL0     C44852   8.132   7.477  11.107  0.7733  0.4065 -0.3474
  326MOL0     O44853   8.115   7.476  10.971 -0.6766 -0.0074  0.0589
  326MOL0     C44854   8.036   7.394  10.896 -0.0354  1.2825  0.6742
  326MOL0     C44855   8.068   7.376  10.763 -1.2198 -0.3459 -0.3531
  326MOL0     C44856   7.992   7.309  10.666  0.1923 -0.4729 -0.8723
  326MOL0     C44857   7.872   7.245  10.712 -1.1979 -0.5364  0.5867
  326MOL0     O44858   7.818   7.156  10.621 -0.1423 -0.5117  0.1774
  326MOL0     C44859   7.708   7.066  10.653  0.2322 -0.7395  0.0965
  326MOL0     C44860   7.684   6.958  10.541  0.0086  0.2989  0.4254
  326MOL0     C44861   7.564   6.872  10.583 -0.4527  0.9781 -0.0565
  326MOL0     C44862   7.570   6.727  10.529  0.1293  0.1763  0.2339
  326MOL0     C44863   7.676   6.643  10.599  0.4070 -0.1122  0.8431
  326MOL0     C44864   7.660   6.495  10.569 -0.8824 -0.2189  0.6607
  326MOL0     C44865   7.756   6.401  10.632  0.3925  0.0025  0.4327
  326MOL0     C44866   7.712   6.255  10.601 -0.5828 -0.3547  0.6816
  326MOL0     N44867   7.590   6.218  10.673 -1.0258  0.6455  0.6935
  326MOL0     C44868   7.561   6.180  10.797  0.8699 -0.1147 -0.1631
  326MOL0     C44869   7.429   6.174  10.806 -0.2367  0.2461 -0.7763
  326MOL0     C44870   7.350   6.148  10.937  0.1380 -0.4200 -0.0866
  326MOL0     C44871   7.357   5.999  10.982  0.3445  0.5436 -1.0473
  326MOL0     C44872   7.272   5.949  11.103  0.0824  0.0796 -0.4769
  326MOL0     C44873   7.326   5.812  11.145  0.6031  0.5502  0.1474
  326MOL0     O44874   7.313   5.721  11.035 -0.2893  0.4131  0.3021
  326MOL0     C44875   7.190   5.668  11.005  0.7161 -0.9687 -0.5539
  326MOL0     C44876   7.078   5.659  11.085  0.5745 -0.3537  0.0139
  326MOL0     C44877   6.957   5.621  11.025  0.2271 -0.3367 -1.1383
  326MOL0     C44878   6.843   5.573  11.119 -0.4478 -0.1070  0.7339
  326MOL0     C44879   6.948   5.610  10.887  0.5303 -0.4576  0.1007
  326MOL0     C44880   6.825   5.583  10.817 -0.1282 -1.0555  0.8639
  326MOL0     O44881   6.747   5.484  10.869  0.1954  0.1550  0.8784
  326MOL0     C44882   6.612   5.491  10.882  0.0077 -0.3284 -0.0951
  326MOL0     C44883   6.536   5.391  10.934  0.6621  0.7286 -0.1528
  326MOL0     C44884   6.388   5.403  10.944  0.5736 -0.5521  0.5118
  326MOL0     C44885   6.322   5.509  10.878 -0.4399  0.5749  0.3110
  326MOL0     O44886   6.181   5.515  10.873  0.3444 -0.3539 -0.2382
  326MOL0     C44887   6.110   5.394  10.848 -0.1329 -0.3195  0.5908
  326MOL0     C44888   5.983   5.420  10.766  0.6129  0.4857  0.5159
  326MOL0     C44889   6.021   5.478  10.630 -0.0554 -0.5386 -0.2299
  326MOL0     C44890   5.898   5.492  10.540  0.1679 -0.3779  0.4205
  326MOL0     C44891   5.948   5.507  10.392 -1.0526 -0.5713  0.2541
  326MOL0     C44892   5.836   5.544  10.287  0.0372 -0.1308  0.3232
  326MOL0     C44893   5.891   5.527  10.145  0.2982  0.5065 -0.2432
  326MOL0     C44894   5.920   5.657  10.067  0.1593 -0.1224 -0.1383
  326MOL0    Cl44895   6.000   5.785  10.164  0.6935  0.6370 -0.3050
  326MOL0     C44896   6.400   5.608  10.819 -0.3474 -0.3077  0.0386
  326MOL0     C44897   6.546   5.606  10.831 -0.2547  0.4437 -0.0059
  326MOL0     O44898   6.797   5.641  10.711  0.6812 -0.0281  0.6816
  326MOL0     C44899   7.063   5.623  10.810  0.6254  0.5974  0.2396
  326MOL0     C44900   7.185   5.646  10.866 -0.4026  0.0289 -0.4800
  326MOL0     N44901   7.380   6.211  10.681  0.3835  0.7740 -0.2117
  326MOL0     N44902   7.475   6.241  10.610  0.0157 -0.3242 -0.6708
  326MOL0     C44903   7.832   7.261  10.848  0.1410  0.6742 -1.1002
  326MOL0     C44904   7.911   7.343  10.937 -0.4412 -0.2197 -0.6759
  326MOL0     C44905   8.227   7.569  11.161 -0.1931  0.8183  0.4135
  326MOL0     C44906   8.270   7.669  11.081 -0.3737  0.0145  0.0444
  326MOL0     C44907   8.365   7.765  11.120 -0.4230  0.0393 -0.5191
  326MOL0     C44908   8.391   7.786  11.255  0.6599 -0.5131  0.8807
  326MOL0     O44909   8.480   7.883  11.289  0.0255  0.1135  0.5308
  326MOL0     C44910   8.604   7.844  11.347  0.1100 -0.6165 -0.7871
  326MOL0     C44911   8.706   7.776  11.251  0.3695 -0.5905  0.0256
  326MOL0     C44912   8.734   7.858  11.116  0.7237 -0.4345 -0.4713
  326MOL0     C44913   8.866   7.798  11.068 -0.1372 -0.3505  0.3020
  326MOL0     C44914   8.882   7.845  10.924  0.0163  0.1605  0.4059
  326MOL0     C44915   8.912   7.877  10.812  0.7789  0.1874 -0.1669
  326MOL0     C44916   8.348   7.691  11.343 -0.0620  0.4164 -0.2702
  326MOL0     C44917   8.266   7.578  11.302 -0.4649  0.2253  0.5118
  326MOL0     C44918   8.237   7.464  11.398 -0.3725  0.0994 -0.1058
  326MOL0     H44919   8.159   7.424  10.727  0.6147 -1.5706  2.2966
  326MOL0     H44920   8.033   7.307  10.566  2.6105  0.0487  0.0474
  326MOL0     H44921   7.622   7.127  10.679  1.0064 -0.1109  1.3037
  326MOL0     H44922   7.740   7.011  10.742  2.2966  0.2807  0.0647
  326MOL0     H44923   7.657   6.991  10.440 -1.3549  0.1491  0.7252
  326MOL0     H44924   7.773   6.899  10.518 -0.3877  0.1357 -0.7581
  326MOL0     H44925   7.555   6.860  10.692  1.1674  2.5513  0.3116
  326MOL0     H44926   7.467   6.916  10.557  0.3688  1.6050 -2.2830
  326MOL0     H44927   7.474   6.676  10.545  0.8514 -1.7437 -1.1946
  326MOL0     H44928   7.606   6.725  10.426  0.6926 -1.1328  0.4309
  326MOL0     H44929   7.648   6.660  10.704 -0.2545  1.0437  0.4951
  326MOL0     H44930   7.779   6.676  10.581  0.6594  0.3208  2.8419
  326MOL0     H44931   7.563   6.470  10.612 -0.5688 -1.5793  0.6134
  326MOL0     H44932   7.661   6.480  10.460  0.8115 -0.9244  0.7531
  326MOL0     H44933   7.761   6.399  10.742  2.7707  1.6955  0.4253
  326MOL0     H44934   7.854   6.426  10.591 -0.1424  1.4403 -0.0348
  326MOL0     H44935   7.701   6.249  10.492 -0.0642 -4.1190  0.7205
  326MOL0     H44936   7.797   6.189  10.620 -0.4151 -0.2911  0.1850
  326MOL0     H44937   7.629   6.171  10.881  0.1033  1.7713  0.7210
  326MOL0     H44938   7.245   6.174  10.924  0.6173  0.5437 -2.4916
  326MOL0     H44939   7.388   6.207  11.021  1.2576  1.0919 -1.6145
  326MOL0     H44940   7.326   5.932  10.902  2.5942 -3.4279  1.0966
  326MOL0     H44941   7.462   5.985  11.010  0.4830  3.9443  0.8071
  326MOL0     H44942   7.292   6.026  11.178  1.0849  1.5648 -2.1777
  326MOL0     H44943   7.165   5.956  11.080 -0.0738  1.6975  0.5156
  326MOL0     H44944   7.432   5.807  11.172  0.7385 -0.1750 -0.5072
  326MOL0     H44945   7.264   5.773  11.226  0.9117  2.0064  1.1371
  326MOL0     H44946   7.082   5.678  11.191  0.2400 -2.3060  0.4019
  326MOL0     H44947   6.853   5.465  11.126 -0.0222 -0.6026 -4.1462
  326MOL0     H44948   6.747   5.597  11.073  0.3956  1.6344 -0.2208
  326MOL0     H44949   6.854   5.609  11.222 -0.9575  1.3317  0.3066
  326MOL0     H44950   6.575   5.294  10.966 -3.2163 -0.7571  0.6545
  326MOL0     H44951   6.322   5.333  10.995  0.1638 -1.0530 -0.6652
  326MOL0     H44952   6.165   5.331  10.777  0.0292  0.5035 -0.0376
  326MOL0     H44953   6.080   5.335  10.935  0.0938 -1.9620 -0.4030
  326MOL0     H44954   5.927   5.326  10.757  0.4226  0.7560 -1.4794
  326MOL0     H44955   5.921   5.491  10.821 -0.4298 -0.5122  0.6826
  326MOL0     H44956   6.090   5.417  10.570 -0.4379  1.8892 -3.4376
  326MOL0     H44957   6.056   5.581  10.630 -0.5856 -0.3465  0.8295
  326MOL0     H44958   5.845   5.582  10.574  1.5094  1.2058 -1.4403
  326MOL0     H44959   5.828   5.409  10.555  0.8638 -0.8573  1.0613
  326MOL0     H44960   6.030   5.579  10.395 -0.5362 -1.1123 -0.5938
  326MOL0     H44961   5.988   5.411  10.357  1.8062  1.0342 -1.2911
  326MOL0     H44962   5.811   5.649  10.305 -1.2282 -0.1667 -1.0666
  326MOL0     H44963   5.752   5.476  10.300  1.7367 -2.6189 -1.0267
  326MOL0     H44964   5.811   5.476  10.091  0.0541  1.2499 -0.6053
  326MOL0     H44965   5.978   5.461  10.150 -1.0796 -1.2676  2.2705
  326MOL0     H44966   5.820   5.687  10.037 -0.5177 -1.8359  0.3037
  326MOL0     H44967   5.979   5.647   9.975  0.5876  1.9337 -0.1408
  326MOL0     H44968   6.349   5.696  10.779 -1.9318 -2.0629 -2.0746
  326MOL0     H44969   6.594   5.695  10.793  0.5802 -0.3213 -0.7691
  326MOL0     H44970   7.057   5.612  10.702 -1.1128 -1.3364  0.4597
  326MOL0     H44971   7.279   5.657  10.812 -0.3738  2.0676 -0.0609
  326MOL0     H44972   7.734   7.217  10.868  1.2899 -2.9341 -2.5790
  326MOL0     H44973   7.879   7.354  11.040 -0.2810 -1.6881 -0.4528
  326MOL0     H44974   8.242   7.674  10.976  0.7273  1.8586 -0.2248
  326MOL0     H44975   8.412   7.831  11.047  1.8884 -0.5715  0.3117
  326MOL0     H44976   8.649   7.931  11.396  0.3953 -1.9996  1.5694
  326MOL0     H44977   8.590   7.774  11.430 -4.0921 -0.3610 -1.0754
  326MOL0     H44978   8.657   7.683  11.222 -2.8102  0.4406  1.5817
  326MOL0     H44979   8.797   7.761  11.309  0.4925 -0.8469 -0.2309
  326MOL0     H44980   8.651   7.845  11.046 -0.6485  0.0239  1.0136
  326MOL0     H44981   8.734   7.966  11.134  3.2764 -0.6041  1.0681
  326MOL0     H44982   8.865   7.689  11.058 -0.3864 -0.1663 -2.8669
  326MOL0     H44983   8.951   7.837  11.126  1.4776 -2.2039 -0.6857
  326MOL0     H44984   8.944   7.910  10.715  2.6091  0.7984  0.6068
  326MOL0     H44985   8.370   7.702  11.449 -0.7868 -2.2517  0.2276
  326MOL0     H44986   8.308   7.476  11.480 -1.8642  0.4938  1.1753
  326MOL0     H44987   8.135   7.474  11.436 -1.4799 -2.0378 -2.1766
  326MOL0     H44988   8.252   7.365  11.353 -2.5282 -0.7906  1.0069
  327MOL0     O44989   8.583   1.558   6.639  0.0048 -0.0690  0.6859
  327MOL0     C44990   8.547   1.465   6.564 -0.2347 -0.3315  0.1033
  327MOL0     O44991   8.535   1.343   6.606  0.1681  0.2815 -0.2533
  327MOL0     C44992   8.565   1.308   6.736  0.4797 -0.8221  0.5312
  327MOL0     C44993   8.643   1.197   6.756  1.1197 -0.0179 -0.9326
  327MOL0     C44994   8.658   1.138   6.888 -0.3869 -0.8422  1.0248
  327MOL0     C44995   8.612   1.207   7.000  0.2796 -1.0341  1.0303
  327MOL0     O44996   8.627   1.183   7.125 -0.6248  0.1946 -0.0495
  327MOL0     C44997   8.712   1.073   7.157  0.0159  0.7452  0.1192
  327MOL0     C44998   8.758   1.096   7.303  0.0647  0.6450 -0.7982
  327MOL0     C44999   8.855   0.987   7.361 -0.2634  0.5527  0.0672
  327MOL0     C45000   8.803   0.848   7.375 -0.1103  0.3276 -0.2713
  327MOL0     C45001   8.915   0.739   7.414  0.6721 -0.4607  1.0069
  327MOL0     C45002   8.965   0.777   7.550 -0.4966  0.1525 -0.3719
  327MOL0     C45003   9.019   0.661   7.632  0.0979  0.5192 -0.0307
  327MOL0     C45004   9.090   0.713   7.764  0.5103  0.4279 -0.0733
  327MOL0     N45005   9.017   0.823   7.837  0.1764  0.0695  0.6668
  327MOL0     C45006   8.916   0.792   7.920 -0.6886 -0.4144  0.1996
  327MOL0     C45007   8.875   0.912   7.956  0.4480  0.2956  0.1439
  327MOL0     C45008   8.775   0.953   8.058  0.3817 -0.2650 -0.2195
  327MOL0     C45009   8.635   1.014   8.025  0.3625 -0.6330 -0.4037
  327MOL0     C45010   8.633   1.100   7.903 -0.0734 -0.1992 -0.8022
  327MOL0     C45011   8.496   1.163   7.868  0.1617  0.5629 -0.8352
  327MOL0     O45012   8.384   1.072   7.872 -0.4837  0.5335  0.7077
  327MOL0     C45013   8.275   1.101   7.793  0.1570  0.4039 -0.1658
  327MOL0     C45014   8.191   0.996   7.766  0.0025 -0.3318 -0.2849
  327MOL0     C45015   8.091   1.004   7.671  0.3066 -0.5543  0.4663
  327MOL0     C45016   7.992   0.892   7.659  0.5198  0.3181  0.3538
  327MOL0     C45017   8.066   1.126   7.605 -0.3633 -0.0973  0.1547
  327MOL0     C45018   7.951   1.155   7.513 -0.9337 -0.5681  1.0185
  327MOL0     O45019   7.913   1.281   7.498 -0.0480  0.0369 -0.6450
  327MOL0     C45020   7.795   1.319   7.452  0.9002  0.2597  1.4204
  327MOL0     C45021   7.777   1.452   7.442 -0.3216  0.8569  0.2966
  327MOL0     C45022   7.651   1.509   7.426  0.2641 -1.0882  0.7241
  327MOL0     C45023   7.534   1.435   7.397 -0.4828  0.0480 -0.3771
  327MOL0     O45024   7.412   1.500   7.366  0.1466  0.0864 -0.0553
  327MOL0     C45025   7.302   1.413   7.338  0.9688 -0.2151 -0.7569
  327MOL0     C45026   7.177   1.492   7.336 -0.0887 -0.1329  0.3945
  327MOL0     C45027   7.051   1.406   7.311 -0.8727  0.1231 -1.6383
  327MOL0     C45028   6.930   1.490   7.282 -0.1315 -0.1488 -0.7605
  327MOL0     C45029   6.891   1.577   7.403 -0.2375  0.1501 -0.4549
  327MOL0     C45030   6.864   1.499   7.538 -0.9664  0.1913  0.4425
  327MOL0     C45031   6.858   1.590   7.660  0.9627 -0.7038 -0.4115
  327MOL0     C45032   6.742   1.705   7.671 -0.8582 -0.3865 -0.0572
  327MOL0    Cl45033   6.589   1.616   7.687  0.4783 -0.0201  0.1630
  327MOL0     C45034   7.545   1.294   7.403 -0.1057 -1.4603  0.0346
  327MOL0     C45035   7.669   1.238   7.435 -0.1493 -0.2421  0.6296
  327MOL0     O45036   7.925   1.061   7.431  0.4540 -0.0549 -1.1960
  327MOL0     C45037   8.146   1.232   7.644 -0.3923  0.0273 -0.0082
  327MOL0     C45038   8.241   1.225   7.740  0.1313 -0.0079 -0.2886
  327MOL0     N45039   8.957   1.009   7.905  0.6944 -0.2904 -0.5161
  327MOL0     N45040   9.043   0.958   7.828  0.2126  0.4196  0.0715
  327MOL0     C45041   8.544   1.323   6.980 -0.2491 -0.1868 -0.7643
  327MOL0     C45042   8.518   1.376   6.851  0.1846  0.1818  0.2468
  327MOL0     C45043   8.504   1.496   6.422 -0.0933 -0.4017  0.4113
  327MOL0     C45044   8.435   1.389   6.365  0.5519  0.1903 -0.1543
  327MOL0     C45045   8.387   1.419   6.234  1.0835 -0.0511 -0.8571
  327MOL0     C45046   8.427   1.528   6.164 -0.2111 -0.9618  0.3290
  327MOL0     O45047   8.387   1.532   6.026  0.2293  0.4846  0.0356
  327MOL0     C45048   8.462   1.620   5.938  0.0431 -0.1202  0.7710
  327MOL0     C45049   8.382   1.638   5.808 -0.2163  0.3523 -0.0094
  327MOL0     C45050   8.250   1.714   5.842 -0.9135  0.0179  1.1280
  327MOL0     C45051   8.285   1.861   5.886 -1.5915  0.9900  0.0276
  327MOL0     C45052   8.180   1.954   5.867 -0.7595 -0.7797 -0.4908
  327MOL0     C45053   8.085   2.028   5.870 -0.2321  0.3195  0.2913
  327MOL0     C45054   8.518   1.624   6.225 -0.7911  0.7106  0.5598
  327MOL0     C45055   8.555   1.608   6.356  0.7041  0.0679  1.1448
  327MOL0     C45056   8.642   1.719   6.419  0.3594 -0.2389  0.0236
  327MOL0     H45057   8.677   1.135   6.673  0.0492 -3.5236  1.0602
  327MOL0     H45058   8.712   1.045   6.901 -0.2827 -0.8597  0.5218
  327MOL0     H45059   8.800   1.064   7.092  0.1390  1.9650  0.1057
  327MOL0     H45060   8.655   0.980   7.151  0.1654  0.6522  0.1282
  327MOL0     H45061   8.787   1.201   7.310  3.2898 -0.0159 -2.4736
  327MOL0     H45062   8.677   1.076   7.374  2.0885 -1.8411  1.0044
  327MOL0     H45063   8.940   0.982   7.292 -0.5626  1.1853 -0.3522
  327MOL0     H45064   8.882   1.025   7.460 -1.7949  2.6251 -0.2567
  327MOL0     H45065   8.722   0.843   7.448  0.1560 -0.0431  0.0067
  327MOL0     H45066   8.761   0.821   7.277 -0.3495 -1.6154  0.3144
  327MOL0     H45067   8.988   0.742   7.333 -1.0406  1.1982 -0.5713
  327MOL0     H45068   8.863   0.643   7.409 -1.4094  0.6325  0.4693
  327MOL0     H45069   9.042   0.854   7.539 -3.1315  3.0649  0.1122
  327MOL0     H45070   8.878   0.820   7.602 -0.0994  0.6949 -0.1468
  327MOL0     H45071   9.083   0.596   7.571  0.2860 -0.7705  1.4733
  327MOL0     H45072   8.935   0.594   7.651  0.9741 -0.5769  0.1355
  327MOL0     H45073   9.125   0.633   7.830 -0.5205 -0.6618 -0.8014
  327MOL0     H45074   9.181   0.763   7.729 -0.5504  1.3050 -1.7043
  327MOL0     H45075   8.877   0.695   7.947 -2.2370  0.0756 -0.1872
  327MOL0     H45076   8.828   1.020   8.126  2.2298 -0.3616 -1.5103
  327MOL0     H45077   8.758   0.863   8.119 -0.0191 -0.0646 -0.0275
  327MOL0     H45078   8.566   0.930   8.007  3.1047 -3.4219  1.1714
  327MOL0     H45079   8.596   1.076   8.106 -1.0310 -1.3909 -0.4490
  327MOL0     H45080   8.706   1.179   7.922 -0.1876 -0.0596 -0.9367
  327MOL0     H45081   8.652   1.047   7.809  0.7311 -0.8330 -0.2869
  327MOL0     H45082   8.479   1.247   7.936  2.0776  0.3211  0.0277
  327MOL0     H45083   8.517   1.203   7.769 -2.6718  0.8146 -1.4136
  327MOL0     H45084   8.186   0.901   7.819 -2.6385  0.3433  0.8214
  327MOL0     H45085   8.021   0.817   7.585  0.6152 -1.7128  2.3086
  327MOL0     H45086   7.890   0.926   7.638  0.3884  0.1420  0.6880
  327MOL0     H45087   7.981   0.827   7.747  2.0615  0.0293  0.3608
  327MOL0     H45088   7.869   1.509   7.458  1.0158 -0.2491 -2.6900
  327MOL0     H45089   7.648   1.618   7.423 -0.4500 -0.9981  2.8570
  327MOL0     H45090   7.317   1.363   7.242 -0.5251 -1.9381 -0.1491
  327MOL0     H45091   7.296   1.334   7.413  1.4320 -3.0798 -3.5062
  327MOL0     H45092   7.172   1.545   7.431  0.5047  0.3768  0.1515
  327MOL0     H45093   7.181   1.561   7.251 -0.3743  0.0897  0.5628
  327MOL0     H45094   7.045   1.331   7.390  4.6888 -0.9383 -1.7867
  327MOL0     H45095   7.062   1.348   7.219 -1.1936 -0.1936 -1.4762
  327MOL0     H45096   6.844   1.424   7.264 -2.8986  2.4507  1.9183
  327MOL0     H45097   6.944   1.548   7.190 -0.1214 -0.2181 -0.8042
  327MOL0     H45098   6.969   1.653   7.410  0.6812 -0.7925 -0.1543
  327MOL0     H45099   6.802   1.637   7.382 -0.8716 -1.1916 -1.8218
  327MOL0     H45100   6.946   1.429   7.555 -0.6278 -0.0837 -1.9377
  327MOL0     H45101   6.771   1.440   7.532 -2.0618  1.8758  0.3233
  327MOL0     H45102   6.952   1.645   7.650  0.4560  0.1897 -0.4225
  327MOL0     H45103   6.864   1.528   7.749 -1.4819 -2.0488 -1.0792
  327MOL0     H45104   6.747   1.772   7.584 -2.9003  0.1032  0.1623
  327MOL0     H45105   6.770   1.765   7.758  0.0253 -2.8763  1.4900
  327MOL0     H45106   7.471   1.221   7.372 -0.0431 -0.4335 -2.7687
  327MOL0     H45107   7.680   1.132   7.457  1.6114 -1.0603 -3.3335
  327MOL0     H45108   8.132   1.335   7.611 -1.6402 -0.4323 -0.9597
  327MOL0     H45109   8.284   1.314   7.785 -2.1360  1.8941 -1.6084
  327MOL0     H45110   8.505   1.379   7.064  0.3050 -0.1612 -0.5169
  327MOL0     H45111   8.449   1.457   6.830 -1.4765 -1.2736 -0.2049
  327MOL0     H45112   8.399   1.295   6.405 -1.0814  0.1582 -1.5526
  327MOL0     H45113   8.318   1.350   6.186  0.8652  1.2772 -2.5425
  327MOL0     H45114   8.484   1.716   5.986  2.1769 -1.0566  1.8131
  327MOL0     H45115   8.551   1.559   5.920  1.8189  2.8779 -1.6717
  327MOL0     H45116   8.370   1.537   5.768 -0.9578  0.2029  0.5578
  327MOL0     H45117   8.431   1.688   5.724 -5.8843  1.4544 -3.2121
  327MOL0     H45118   8.187   1.704   5.753 -1.9569 -0.3727  1.8908
  327MOL0     H45119   8.197   1.675   5.929 -0.4328  1.5577  2.1364
  327MOL0     H45120   8.368   1.896   5.825 -0.8736  0.4793  0.6879
  327MOL0     H45121   8.326   1.867   5.988  3.6230  2.1265 -1.8207
  327MOL0     H45122   8.003   2.096   5.882 -2.6782 -1.7237 -2.8712
  327MOL0     H45123   8.544   1.719   6.178 -2.2731  1.6356  1.5141
  327MOL0     H45124   8.735   1.688   6.468  0.7639  1.9289  0.7396
  327MOL0     H45125   8.684   1.776   6.336 -0.2597 -3.0466 -2.4030
  327MOL0     H45126   8.581   1.781   6.485  0.4904  2.3472 -2.1484
  328MOL0     O45127   6.664   0.493   7.313  0.7377 -0.7284  0.4679
  328MOL0     C45128   6.722   0.597   7.342 -0.1729 -0.7810  0.3945
  328MOL0     O45129   6.821   0.650   7.265  0.2461  0.1951  0.1835
  328MOL0     C45130   6.885   0.567   7.160 -0.4748 -0.0607 -0.7514
  328MOL0     C45131   6.946   0.441   7.203 -0.3697  0.0591  0.5728
  328MOL0     C45132   6.996   0.356   7.101 -0.1658 -0.3396  0.2447
  328MOL0     C45133   7.015   0.391   6.968 -0.3699  0.1313 -0.4955
  328MOL0     O45134   7.071   0.300   6.877 -0.5945 -0.0470  0.2311
  328MOL0     C45135   7.083   0.340   6.736 -0.5348  0.0015 -0.4857
  328MOL0     C45136   7.175   0.235   6.665  0.0880 -0.1148 -0.1947
  328MOL0     C45137   7.138   0.089   6.683 -0.5660 -0.4171  0.4001
  328MOL0     C45138   6.987   0.044   6.639 -0.1876 -0.0504 -0.7206
  328MOL0     C45139   6.981  -0.105   6.629  1.1120 -0.8606  0.0836
  328MOL0     C45140   6.957  -0.171   6.766 -0.1976 -0.4824 -0.4081
  328MOL0     C45141   6.972  -0.327   6.763 -0.0312 -0.3325  0.1424
  328MOL0     C45142   7.120  -0.372   6.766 -0.2239  0.2565  0.4757
  328MOL0     N45143   7.198  -0.316   6.876  0.0352 -0.2963  0.4433
  328MOL0     C45144   7.302  -0.227   6.857  0.2272  0.3032 -0.0346
  328MOL0     C45145   7.368  -0.223   6.986  0.2291 -1.1085  0.1167
  328MOL0     C45146   7.503  -0.156   7.027  0.3994  1.3465 -0.5059
  328MOL0     C45147   7.539  -0.015   6.984 -0.5339  0.2461  0.1005
  328MOL0     C45148   7.638   0.069   7.076 -0.3438  0.6601  0.2850
  328MOL0     C45149   7.786   0.019   7.087  0.4144  0.0695  0.4038
  328MOL0     O45150   7.860  -0.010   6.964 -0.2594 -0.2626  0.0124
  328MOL0     C45151   7.996  -0.012   6.978  0.2371 -0.4242  0.2315
  328MOL0     C45152   8.071  -0.008   6.856 -0.4818  0.3840 -1.0236
  328MOL0     C45153   8.210   0.001   6.848 -0.4430  0.8683 -0.3449
  328MOL0     C45154   8.269   0.024   6.703  0.2472 -0.6023 -1.1674
  328MOL0     C45155   8.286  -0.021   6.967  0.5630 -0.2919 -0.1415
  328MOL0     C45156   8.433  -0.014   6.976  0.1927  0.7371 -0.5974
  328MOL0     O45157   8.494   0.048   6.870  0.0149 -0.2657  0.0945
  328MOL0     C45158   8.629   0.057   6.853  0.3335  0.9920  0.3887
  328MOL0     C45159   8.725   0.058   6.962 -0.0041  0.2486 -0.8964
  328MOL0     C45160   8.864   0.087   6.930 -0.3160 -0.5903 -0.1006
  328MOL0     C45161   8.914   0.094   6.802  0.5424 -0.1380 -0.3865
  328MOL0     O45162   9.039   0.110   6.749  0.5386 -0.2160 -0.7554
  328MOL0     C45163   9.159   0.126   6.833  0.4317  0.0927 -0.2539
  328MOL0     C45164   9.276   0.130   6.743 -0.5242  0.0253  0.1381
  328MOL0     C45165   9.256   0.258   6.657 -0.7446 -0.0986 -0.6296
  328MOL0     C45166   9.381   0.295   6.572  0.2295  0.3828 -0.5963
  328MOL0     C45167   9.398   0.219   6.433 -0.2958 -0.7439  0.0524
  328MOL0     C45168   9.288   0.268   6.330  0.2362 -0.7295 -1.1376
  328MOL0     C45169   9.315   0.218   6.197 -0.1790 -0.5197 -0.1300
  328MOL0     C45170   9.319   0.071   6.172  0.5679 -0.0768  0.0770
  328MOL0    Cl45171   9.158   0.001   6.206  0.5022 -0.0816  0.1410
  328MOL0     C45172   8.821   0.066   6.693  1.1603 -0.4133 -0.4465
  328MOL0     C45173   8.682   0.074   6.723  0.7907 -0.1169 -0.5516
  328MOL0     O45174   8.493  -0.058   7.078  0.7546 -0.0184  0.4884
  328MOL0     C45175   8.209  -0.042   7.082 -0.0667 -1.1371 -1.2288
  328MOL0     C45176   8.068  -0.027   7.097 -0.0691 -0.6552 -0.3132
  328MOL0     N45177   7.291  -0.300   7.068  0.7836  0.5298  0.1327
  328MOL0     N45178   7.194  -0.360   7.008 -0.1779  0.5200  0.6965
  328MOL0     C45179   6.970   0.515   6.932  0.3759 -0.8403 -0.7327
  328MOL0     C45180   6.904   0.596   7.027 -0.5644 -0.2194  0.8531
  328MOL0     C45181   6.670   0.668   7.453 -0.4550 -0.8210 -0.2222
  328MOL0     C45182   6.652   0.805   7.426  0.1804 -0.1028  0.0940
  328MOL0     C45183   6.621   0.900   7.534 -0.3186  0.3386 -0.2211
  328MOL0     C45184   6.571   0.856   7.661  0.1816  1.0614 -0.0376
  328MOL0     O45185   6.508   0.930   7.753 -0.4242  0.0272  0.3200
  328MOL0     C45186   6.519   1.072   7.733  0.8904  0.3129 -0.2494
  328MOL0     C45187   6.637   1.135   7.805 -0.3624 -0.1649  0.3869
  328MOL0     C45188   6.623   1.257   7.890  0.3937 -0.1761 -0.7262
  328MOL0     C45189   6.755   1.290   7.967 -0.6827  0.0963  0.1375
  328MOL0     C45190   6.880   1.293   7.884  0.8550  1.2530  0.3368
  328MOL0     C45191   6.973   1.294   7.808  0.1315  0.6119  0.5504
  328MOL0     C45192   6.588   0.720   7.683  0.6601  0.1005 -0.4882
  328MOL0     C45193   6.636   0.630   7.580 -0.8724  0.9717  0.2796
  328MOL0     C45194   6.625   0.479   7.620  0.2088 -1.1425 -0.1056
  328MOL0     H45195   6.943   0.404   7.305 -0.8056  0.7841  0.8306
  328MOL0     H45196   7.026   0.255   7.128 -3.8643 -1.2856  1.3338
  328MOL0     H45197   7.128   0.439   6.726  1.0498 -0.7657 -1.2007
  328MOL0     H45198   6.987   0.333   6.684 -0.3389  0.3933 -0.8951
  328MOL0     H45199   7.165   0.260   6.559  0.8040  2.4379  0.2909
  328MOL0     H45200   7.279   0.241   6.697  1.5169 -1.1211 -4.0555
  328MOL0     H45201   7.216   0.029   6.635 -1.3022 -0.4387 -0.7796
  328MOL0     H45202   7.144   0.064   6.790 -1.4260 -3.5415 -0.1973
  328MOL0     H45203   6.922   0.091   6.714  0.0929 -1.4466  0.4466
  328MOL0     H45204   6.957   0.088   6.544  1.6432  1.6318 -0.6092
  328MOL0     H45205   7.070  -0.153   6.587  1.0259 -0.4883 -0.5328
  328MOL0     H45206   6.898  -0.128   6.561 -0.1302  3.3984 -0.1290
  328MOL0     H45207   7.035  -0.129   6.829  1.4345  0.0790 -2.6599
  328MOL0     H45208   6.861  -0.135   6.806  0.2088  2.3358 -1.7046
  328MOL0     H45209   6.924  -0.374   6.676  0.0461  0.6899 -0.4705
  328MOL0     H45210   6.921  -0.368   6.850  2.3486 -0.9801  1.3385
  328MOL0     H45211   7.123  -0.481   6.770  1.8217  0.1414 -1.9169
  328MOL0     H45212   7.170  -0.350   6.672  1.4258 -2.0787  0.7306
  328MOL0     H45213   7.337  -0.189   6.762 -1.9780 -2.0229 -1.9561
  328MOL0     H45214   7.581  -0.217   6.979 -0.7391 -0.8796  0.3279
  328MOL0     H45215   7.511  -0.152   7.136  3.8231  0.1620 -0.5960
  328MOL0     H45216   7.585  -0.022   6.885 -1.0730  1.2000 -0.2280
  328MOL0     H45217   7.447   0.040   6.965  0.5471  1.4089 -2.0465
  328MOL0     H45218   7.649   0.166   7.026 -0.1661  0.2256 -0.5313
  328MOL0     H45219   7.596   0.082   7.176  0.1177  1.4987  0.3760
  328MOL0     H45220   7.848   0.094   7.137  0.9750 -0.1860  0.0959
  328MOL0     H45221   7.782  -0.069   7.152 -0.1158 -0.2407 -0.0405
  328MOL0     H45222   8.005   0.008   6.771  0.0495 -1.6199 -1.9002
  328MOL0     H45223   8.213  -0.035   6.629 -4.3832 -2.8583  3.4407
  328MOL0     H45224   8.363  -0.030   6.699 -0.0447 -1.5699  2.0655
  328MOL0     H45225   8.281   0.127   6.669  0.6090  0.5653  2.1677
  328MOL0     H45226   8.692   0.055   7.065  0.4445  5.4762 -0.3201
  328MOL0     H45227   8.941   0.099   7.006 -0.8723 -1.0179  0.5375
  328MOL0     H45228   9.161   0.209   6.905  1.7362  0.9466 -1.2364
  328MOL0     H45229   9.174   0.043   6.903  0.2801  1.1258  1.0411
  328MOL0     H45230   9.370   0.139   6.799  0.2974  0.3313 -1.2481
  328MOL0     H45231   9.286   0.046   6.674 -2.2653  0.6930 -1.0006
  328MOL0     H45232   9.235   0.336   6.731 -0.8804 -1.3565  0.6949
  328MOL0     H45233   9.163   0.244   6.601 -1.4875 -3.3440  1.1432
  328MOL0     H45234   9.456   0.254   6.641 -0.7590  2.0056  1.5850
  328MOL0     H45235   9.400   0.402   6.562  0.2657  0.3527 -0.8358
  328MOL0     H45236   9.498   0.251   6.403 -1.2013  0.1970 -2.0892
  328MOL0     H45237   9.393   0.110   6.441  1.9680 -1.0739 -1.9835
  328MOL0     H45238   9.281   0.376   6.345 -0.0536 -1.1878  3.7090
  328MOL0     H45239   9.197   0.217   6.362  0.2925  0.7450  1.7102
  328MOL0     H45240   9.405   0.261   6.152 -1.2377 -1.0704 -3.0299
  328MOL0     H45241   9.232   0.247   6.132  1.6545 -0.1453 -2.4313
  328MOL0     H45242   9.397   0.020   6.230  0.3314 -1.6272 -0.8987
  328MOL0     H45243   9.328   0.050   6.065 -3.5702 -0.1166 -0.4091
  328MOL0     H45244   8.865   0.066   6.594  1.3704 -2.8176 -0.4132
  328MOL0     H45245   8.619   0.064   6.635  0.1120 -0.6868 -0.0151
  328MOL0     H45246   8.257  -0.069   7.175 -2.9405  2.0063  1.4466
  328MOL0     H45247   8.018  -0.033   7.193 -1.3042  2.2228 -0.6839
  328MOL0     H45248   6.954   0.552   6.831 -1.6066 -2.8132 -1.2377
  328MOL0     H45249   6.856   0.685   6.989 -0.7115 -1.1948 -1.4053
  328MOL0     H45250   6.683   0.851   7.333  2.0191  0.0555  0.7468
  328MOL0     H45251   6.625   1.005   7.505  1.2088  0.2045 -0.5692
  328MOL0     H45252   6.520   1.106   7.629 -2.2779 -2.2741 -1.2859
  328MOL0     H45253   6.426   1.108   7.777 -0.8346 -1.7652 -1.9613
  328MOL0     H45254   6.719   1.156   7.735 -0.8453 -1.7600 -0.7155
  328MOL0     H45255   6.668   1.055   7.873  1.3232 -0.0967 -0.2384
  328MOL0     H45256   6.581   1.344   7.839  1.8791 -0.2957 -2.2359
  328MOL0     H45257   6.551   1.235   7.970  0.9959  0.9581  0.1702
  328MOL0     H45258   6.769   1.214   8.044 -1.4339 -2.3644 -1.9962
  328MOL0     H45259   6.751   1.385   8.020  4.8758 -0.4670  2.2805
  328MOL0     H45260   7.052   1.296   7.735 -1.8590 -0.8141 -1.7868
  328MOL0     H45261   6.559   0.691   7.783  1.3612  2.1846  0.3650
  328MOL0     H45262   6.709   0.418   7.588 -1.0929 -2.4718 -1.1540
  328MOL0     H45263   6.612   0.461   7.728  1.9690 -2.6554 -0.1075
  328MOL0     H45264   6.534   0.443   7.571 -1.2992  0.9542  0.9885
  329MOL0     O45265   9.439   2.918   7.916 -0.9695 -0.0454  0.5486
  329MOL0     C45266   9.526   2.895   7.829 -0.5657  0.7613 -0.6004
  329MOL0     O45267   9.658   2.896   7.861 -0.7404  0.0506 -0.4987
  329MOL0     C45268   9.707   2.922   7.992  1.4508 -0.0885  1.2053
  329MOL0     C45269   9.729   3.052   8.034  0.5372 -0.2107 -0.0768
  329MOL0     C45270   9.789   3.076   8.156  0.0587 -0.6792  0.2529
  329MOL0     C45271   9.835   2.973   8.233 -0.7339  0.3616 -0.0521
  329MOL0     O45272   9.910   2.986   8.347 -0.1278 -0.4204 -0.3381
  329MOL0     C45273   9.961   3.111   8.392  0.6134 -0.4700 -0.0781
  329MOL0     C45274  10.075   3.086   8.486  0.1775 -0.2541  0.0310
  329MOL0     C45275  10.163   3.215   8.500 -0.2204  0.4963 -0.7180
  329MOL0     C45276  10.252   3.233   8.378 -1.0193 -1.2652  0.4528
  329MOL0     C45277  10.297   3.385   8.380 -0.4685  0.3645  0.3558
  329MOL0     C45278  10.401   3.417   8.491 -0.7694 -0.2966 -0.7766
  329MOL0     C45279  10.524   3.323   8.493  0.3103  0.3316 -0.4082
  329MOL0     C45280  10.615   3.298   8.372  0.2537  0.4073  0.5949
  329MOL0     N45281  10.683   3.416   8.336  0.0811 -0.5178  0.5756
  329MOL0     C45282  10.766   3.481   8.434 -0.7475  0.0159  0.4051
  329MOL0     C45283  10.812   3.584   8.364 -0.2414  0.1386  0.7271
  329MOL0     C45284  10.926   3.676   8.413 -0.2216 -0.4060 -0.3781
  329MOL0     C45285  10.899   3.819   8.365 -0.3798 -0.1265  0.1221
  329MOL0     C45286  11.012   3.918   8.369 -0.1533  0.4606 -1.1941
  329MOL0     C45287  11.101   3.907   8.244  0.3384 -0.2310  0.3115
  329MOL0     O45288  11.200   3.802   8.268  0.3980 -0.0355 -0.1937
  329MOL0     C45289  11.327   3.841   8.314 -0.7091  0.2427  0.2561
  329MOL0     C45290  11.365   3.947   8.403  0.0401  0.2521 -0.8809
  329MOL0     C45291  11.495   3.969   8.446  0.3605  0.1775  0.1468
  329MOL0     C45292  11.526   4.076   8.551 -0.3420 -0.4080 -0.1998
  329MOL0     C45293  11.599   3.896   8.374 -0.3325 -0.3042 -0.3665
  329MOL0     C45294  11.745   3.904   8.415 -0.6849 -0.3957 -0.4244
  329MOL0     O45295  11.819   3.792   8.393 -0.3965  0.0914 -0.0915
  329MOL0     C45296  11.954   3.797   8.403 -0.4760  0.1842  0.6721
  329MOL0     C45297  12.012   3.676   8.357  0.9015  0.1333 -0.2703
  329MOL0     C45298  12.150   3.657   8.354 -0.3149  0.2501  0.6240
  329MOL0     C45299  12.242   3.757   8.395  0.7832  0.0265  0.6099
  329MOL0     O45300  12.378   3.758   8.376 -0.4895 -0.4688 -0.2794
  329MOL0     C45301  12.443   3.633   8.374  0.2930 -0.1620  0.3888
  329MOL0     C45302  12.593   3.640   8.373 -0.1596 -0.3973 -0.6996
  329MOL0     C45303  12.648   3.702   8.249  1.5773  0.0841  1.3702
  329MOL0     C45304  12.646   3.853   8.239 -0.2974 -0.2028  0.5232
  329MOL0     C45305  12.746   3.910   8.128  0.5058 -0.0263 -0.0746
  329MOL0     C45306  12.751   4.070   8.122  0.3835 -0.3483  0.4204
  329MOL0     C45307  12.781   4.124   7.974  0.0323 -0.0744  0.8010
  329MOL0     C45308  12.744   4.278   7.971 -0.5728  0.4151 -0.0352
  329MOL0    Cl45309  12.878   4.376   8.048 -0.4990  0.1878 -0.0942
  329MOL0     C45310  12.178   3.876   8.430 -0.4601  0.2012 -0.6357
  329MOL0     C45311  12.045   3.893   8.435 -1.0515 -1.0259 -0.4684
  329MOL0     O45312  11.795   4.016   8.439  0.4222  0.3112 -0.2015
  329MOL0     C45313  11.558   3.802   8.281 -0.4872 -0.1552  0.6955
  329MOL0     C45314  11.429   3.772   8.254 -0.0646 -0.3173 -0.2973
  329MOL0     N45315  10.763   3.580   8.235  0.7834  0.0646 -0.0841
  329MOL0     N45316  10.685   3.474   8.216 -0.0002  0.5954 -0.4377
  329MOL0     C45317   9.807   2.841   8.199 -0.0992  0.0913  0.6465
  329MOL0     C45318   9.747   2.820   8.079 -0.4076 -0.2739  0.7551
  329MOL0     C45319   9.499   2.867   7.691 -0.0495  0.2675  0.1087
  329MOL0     C45320   9.391   2.950   7.639  0.2996  0.5396 -0.2717
  329MOL0     C45321   9.352   2.930   7.511  0.2731  0.7911  0.1961
  329MOL0     C45322   9.426   2.846   7.429 -0.3259 -0.7183  0.3236
  329MOL0     O45323   9.389   2.840   7.300 -0.0088  0.3148  0.3293
  329MOL0     C45324   9.481   2.820   7.195 -0.4743  0.0263  0.0956
  329MOL0     C45325   9.463   2.942   7.097 -0.5548  0.1710  0.0787
  329MOL0     C45326   9.523   3.083   7.143  0.2515  0.4029 -0.1967
  329MOL0     C45327   9.676   3.092   7.100  0.2285 -0.3317  0.0248
  329MOL0     C45328   9.676   3.122   6.949  0.1653 -0.0806 -0.7620
  329MOL0     C45329   9.658   3.125   6.836  0.2049  0.5495  0.2280
  329MOL0     C45330   9.539   2.781   7.472  0.5248  0.7639 -0.9272
  329MOL0     C45331   9.570   2.778   7.608 -0.8008 -0.3589  0.0138
  329MOL0     C45332   9.672   2.688   7.671 -0.1565 -0.1336 -0.7761
  329MOL0     H45333   9.709   3.130   7.961  0.0541  1.5923  1.8782
  329MOL0     H45334   9.811   3.181   8.169  1.9825 -0.8026 -1.4375
  329MOL0     H45335   9.882   3.152   8.456  0.1143 -1.8349  0.2256
  329MOL0     H45336   9.992   3.174   8.309  0.5845  0.1194  0.3513
  329MOL0     H45337  10.032   3.069   8.586 -0.9194 -3.2295 -0.8498
  329MOL0     H45338  10.135   2.997   8.468  0.5150  0.0914 -0.5643
  329MOL0     H45339  10.108   3.304   8.530 -1.2368 -0.1605 -0.5730
  329MOL0     H45340  10.225   3.189   8.586 -1.8077 -1.1147  0.0161
  329MOL0     H45341  10.339   3.167   8.376  1.0972  1.3142 -2.0701
  329MOL0     H45342  10.201   3.217   8.282  4.2744  0.2563 -3.0640
  329MOL0     H45343  10.216   3.455   8.402 -0.1824  1.2830 -1.3294
  329MOL0     H45344  10.325   3.413   8.278 -2.4039 -1.0654 -0.6534
  329MOL0     H45345  10.438   3.519   8.479  1.5798 -0.8099  1.3442
  329MOL0     H45346  10.361   3.419   8.593  1.1798  5.5057  0.2737
  329MOL0     H45347  10.495   3.221   8.521  0.5698 -0.0789 -1.5786
  329MOL0     H45348  10.576   3.363   8.581  1.4338  1.0191 -1.3541
  329MOL0     H45349  10.681   3.219   8.409  0.7111  0.2727 -0.4742
  329MOL0     H45350  10.564   3.257   8.284 -0.2808  2.8991 -0.3631
  329MOL0     H45351  10.794   3.442   8.531 -2.1098  3.4109  2.3307
  329MOL0     H45352  11.020   3.631   8.380 -0.9350 -2.6956  0.4666
  329MOL0     H45353  10.935   3.676   8.522 -1.4464  1.8435 -0.2210
  329MOL0     H45354  10.849   3.816   8.268  1.1473  0.1943 -0.7148
  329MOL0     H45355  10.821   3.851   8.434 -0.9700 -1.2723  0.0113
  329MOL0     H45356  10.965   4.017   8.380 -0.9298  0.1612 -1.7100
  329MOL0     H45357  11.076   3.900   8.456  0.8952  1.2596 -1.7761
  329MOL0     H45358  11.039   3.881   8.158 -0.3720 -1.1214  1.0650
  329MOL0     H45359  11.147   4.006   8.235 -0.4038  0.1366  0.4952
  329MOL0     H45360  11.279   4.004   8.434  0.9988  0.9844  0.5488
  329MOL0     H45361  11.579   4.152   8.494  0.9936 -1.9003 -1.0142
  329MOL0     H45362  11.598   4.042   8.625  3.9108  3.2934 -2.1857
  329MOL0     H45363  11.436   4.116   8.600  1.4871  0.3436  2.8311
  329MOL0     H45364  11.943   3.594   8.338  0.6375  0.5866 -1.3935
  329MOL0     H45365  12.194   3.562   8.324 -0.3265 -0.7886  3.4835
  329MOL0     H45366  12.426   3.577   8.466 -2.9383 -3.2649 -1.8407
  329MOL0     H45367  12.404   3.568   8.295  3.0197  0.3399 -1.5180
  329MOL0     H45368  12.616   3.703   8.460 -0.2574 -2.7838  1.1509
  329MOL0     H45369  12.648   3.548   8.392  2.3905  0.6501 -2.4079
  329MOL0     H45370  12.580   3.685   8.165  3.2691 -0.3371  0.0366
  329MOL0     H45371  12.744   3.653   8.229  0.8214 -2.7330  3.9814
  329MOL0     H45372  12.684   3.889   8.335  5.4818 -1.7341 -0.8407
  329MOL0     H45373  12.552   3.897   8.203 -0.5718 -1.3926 -0.2458
  329MOL0     H45374  12.851   3.884   8.147  0.8702  0.1801 -1.6366
  329MOL0     H45375  12.709   3.865   8.035 -3.8584 -0.4725  1.6785
  329MOL0     H45376  12.820   4.106   8.199 -0.8509 -0.2816  1.5178
  329MOL0     H45377  12.657   4.105   8.163 -0.7260  2.1056 -3.6322
  329MOL0     H45378  12.712   4.071   7.907 -0.1425  1.0700  0.0421
  329MOL0     H45379  12.883   4.098   7.945  1.3405  1.2342  3.8395
  329MOL0     H45380  12.657   4.313   8.026 -0.4883 -1.1934  1.1819
  329MOL0     H45381  12.748   4.300   7.864 -1.2944 -1.8383 -0.5923
  329MOL0     H45382  12.244   3.953   8.469 -4.0735  2.2141  2.0916
  329MOL0     H45383  12.019   3.988   8.481 -1.2998 -1.2983 -0.0330
  329MOL0     H45384  11.624   3.732   8.231 -0.6416  0.5490 -0.5262
  329MOL0     H45385  11.394   3.696   8.184  0.3994 -0.3746 -0.4756
  329MOL0     H45386   9.843   2.760   8.262  3.3023  0.1076 -1.0436
  329MOL0     H45387   9.743   2.717   8.045 -2.1469  0.5224 -1.7480
  329MOL0     H45388   9.340   3.015   7.709  1.8886  1.5466 -0.0134
  329MOL0     H45389   9.261   2.972   7.471  1.0293  1.8169 -0.4928
  329MOL0     H45390   9.587   2.816   7.220 -0.4239  3.4158  1.0115
  329MOL0     H45391   9.458   2.727   7.143  0.5069 -0.3879  0.3757
  329MOL0     H45392   9.358   2.966   7.079 -0.2295  1.2113 -0.5323
  329MOL0     H45393   9.501   2.912   6.998 -0.2920  1.8869 -0.3622
  329MOL0     H45394   9.465   3.160   7.092  0.0639  0.7214  0.4891
  329MOL0     H45395   9.507   3.101   7.250 -0.7647 -0.2181 -0.2385
  329MOL0     H45396   9.726   2.997   7.116 -1.9197 -1.5009  0.1215
  329MOL0     H45397   9.732   3.174   7.148  2.3014 -0.4129 -2.0873
  329MOL0     H45398   9.614   3.108   6.739  0.6374 -0.3295  0.1709
  329MOL0     H45399   9.603   2.724   7.406  3.0796  2.3834  0.0035
  329MOL0     H45400   9.769   2.736   7.688  0.1609 -0.8347 -0.5775
  329MOL0     H45401   9.640   2.656   7.770  0.8757  2.5714  0.5369
  329MOL0     H45402   9.690   2.601   7.607  0.7995  0.2141 -1.0031
  330MOL0     O45403  10.147  10.096   5.426 -0.8252 -0.0221 -0.4434
  330MOL0     C45404  10.247  10.024   5.428  0.9966  0.3613 -0.7154
  330MOL0     O45405  10.345  10.028   5.522 -0.3382  0.6761 -0.1489
  330MOL0     C45406  10.322  10.080   5.646 -0.3713 -0.1333 -0.8274
  330MOL0     C45407  10.216  10.039   5.724 -0.2122 -0.5280 -0.0569
  330MOL0     C45408  10.197  10.083   5.855  0.8393 -0.5314  0.4840
  330MOL0     C45409  10.282  10.173   5.913 -0.4009  0.4366  0.0426
  330MOL0     O45410  10.263  10.230   6.037 -0.5260  0.4052  0.6147
  330MOL0     C45411  10.382  10.244   6.117  0.5947  0.9375  0.4574
  330MOL0     C45412  10.332  10.321   6.242  0.2322  0.3413  0.1544
  330MOL0     C45413  10.437  10.344   6.356  0.3516 -0.1505  0.3183
  330MOL0     C45414  10.561  10.418   6.298 -0.2590 -0.0227  0.6942
  330MOL0     C45415  10.676  10.421   6.411  0.5962  1.0951 -0.0990
  330MOL0     C45416  10.785  10.519   6.372  0.1252  0.5583  0.2550
  330MOL0     C45417  10.852  10.505   6.237 -0.7736 -1.0229 -0.1555
  330MOL0     C45418  10.916  10.370   6.201 -0.3706  0.6806 -0.5863
  330MOL0     N45419  11.048  10.364   6.268  0.1906  0.9050 -0.2266
  330MOL0     C45420  11.151  10.440   6.227 -0.4939 -0.4818  0.3172
  330MOL0     C45421  11.250  10.430   6.329  1.1581 -0.4190  0.8609
  330MOL0     C45422  11.387  10.491   6.336 -0.6627 -0.2255 -0.0801
  330MOL0     C45423  11.419  10.587   6.220 -0.9408 -0.1434  0.4807
  330MOL0     C45424  11.345  10.727   6.239 -0.1731 -0.0830  0.2823
  330MOL0     C45425  11.375  10.809   6.106  0.5301 -0.8310 -0.6074
  330MOL0     O45426  11.306  10.754   5.992  0.3529  0.4453 -0.7135
  330MOL0     C45427  11.169  10.759   5.973 -0.2560  0.0292 -0.7786
  330MOL0     C45428  11.084  10.825   6.064 -0.4610  0.1879  0.2793
  330MOL0     C45429  10.947  10.844   6.039  0.2919  0.5852 -0.0203
  330MOL0     C45430  10.841  10.922   6.126 -1.2347  0.3161 -0.9564
  330MOL0     C45431  10.896  10.771   5.922 -0.5874  0.4735 -0.6041
  330MOL0     C45432  10.749  10.758   5.886 -0.1390  0.4149  0.5362
  330MOL0     O45433  10.672  10.714   5.990  0.0654 -0.1521  1.0000
  330MOL0     C45434  10.542  10.702   5.962  0.2865 -0.6129 -0.4803
  330MOL0     C45435  10.451  10.758   6.051  0.3827 -0.4109 -0.1536
  330MOL0     C45436  10.316  10.726   6.044  0.2220 -0.5845  0.6776
  330MOL0     C45437  10.266  10.643   5.942  1.0583  0.0736 -1.0563
  330MOL0     O45438  10.127  10.637   5.936 -0.2881  0.3804 -0.7726
  330MOL0     C45439  10.056  10.563   5.836 -0.6914 -0.1608  0.1306
  330MOL0     C45440   9.925  10.515   5.893  0.6477 -0.1011  1.3023
  330MOL0     C45441   9.931  10.366   5.933 -0.2708 -0.3055 -0.0732
  330MOL0     C45442   9.799  10.312   5.994 -0.7797 -0.3919  0.2904
  330MOL0     C45443   9.714  10.270   5.871 -0.6605 -0.2087  0.0940
  330MOL0     C45444   9.580  10.228   5.922  0.0169  0.0536 -0.5889
  330MOL0     C45445   9.499  10.163   5.815 -0.1102 -1.1094 -0.2944
  330MOL0     C45446   9.354  10.114   5.867  0.2622 -0.0447 -0.6478
  330MOL0    Cl45447   9.381   9.966   5.977  0.3335 -0.4137 -0.5208
  330MOL0     C45448  10.357  10.580   5.865  0.8111 -0.0611 -0.0167
  330MOL0     C45449  10.491  10.602   5.872 -0.5077 -0.4247 -0.2381
  330MOL0     O45450  10.713  10.772   5.766 -0.5411  0.5412 -0.3932
  330MOL0     C45451  10.984  10.693   5.841  1.1263 -0.4765 -0.4016
  330MOL0     C45452  11.113  10.687   5.872 -0.2831 -0.4545 -0.8564
  330MOL0     N45453  11.202  10.353   6.433 -0.3958 -0.2151 -0.3066
  330MOL0     N45454  11.087  10.320   6.393 -0.3435 -0.6060  0.0480
  330MOL0     C45455  10.390  10.205   5.834  0.7433 -0.2365 -0.0833
  330MOL0     C45456  10.408  10.163   5.704 -0.6656 -0.0700  0.1620
  330MOL0     C45457  10.277   9.941   5.318  0.3900  0.7532 -0.3590
  330MOL0     C45458  10.402   9.880   5.302 -0.5835  0.0687 -0.1909
  330MOL0     C45459  10.434   9.803   5.186  0.1947 -0.2817  0.6750
  330MOL0     C45460  10.345   9.788   5.083  0.3530  0.5324 -0.5379
  330MOL0     O45461  10.371   9.722   4.963  0.4003 -0.5990  0.1964
  330MOL0     C45462  10.483   9.632   4.972 -0.2495 -0.2761 -0.9499
  330MOL0     C45463  10.474   9.529   4.858  0.3156  0.0318 -1.5710
  330MOL0     C45464  10.506   9.599   4.722 -0.0994  0.0851 -0.0821
  330MOL0     C45465  10.533   9.491   4.608  1.0389  0.2741 -0.4086
  330MOL0     C45466  10.591   9.557   4.489  0.4964 -0.0117  0.0101
  330MOL0     C45467  10.651   9.621   4.404 -1.3111 -0.2759 -1.0069
  330MOL0     C45468  10.213   9.839   5.099 -0.4767 -0.3798  0.0105
  330MOL0     C45469  10.188   9.920   5.208  0.7420  0.5098 -0.4049
  330MOL0     C45470  10.056   9.986   5.176  0.0739 -0.1318  0.7712
  330MOL0     H45471  10.166   9.956   5.676  3.4736 -2.6630 -0.6231
  330MOL0     H45472  10.108  10.055   5.911 -0.6025  1.5907 -0.6396
  330MOL0     H45473  10.460  10.300   6.065 -2.3166  3.2766 -1.7517
  330MOL0     H45474  10.417  10.153   6.167  0.4665  0.8038  0.3041
  330MOL0     H45475  10.290  10.415   6.206 -4.1795 -1.4953 -0.1490
  330MOL0     H45476  10.250  10.260   6.281  1.1016 -0.3305  0.9900
  330MOL0     H45477  10.391  10.411   6.429 -1.4374 -0.7307 -0.2099
  330MOL0     H45478  10.471  10.252   6.403  1.5904  0.6587  1.0390
  330MOL0     H45479  10.597  10.361   6.212 -1.7255 -0.1275  0.1205
  330MOL0     H45480  10.526  10.518   6.268 -1.4993 -0.6352 -0.0075
  330MOL0     H45481  10.712  10.318   6.417  1.3795  1.4231  1.5023
  330MOL0     H45482  10.641  10.450   6.511 -3.2603 -0.4762 -0.8029
  330MOL0     H45483  10.737  10.617   6.366  1.5315  1.3025  0.5918
  330MOL0     H45484  10.870  10.524   6.441  3.0191 -3.5857 -2.5431
  330MOL0     H45485  10.922  10.588   6.220 -1.5598 -0.4125 -0.5045
  330MOL0     H45486  10.773  10.508   6.161 -0.1794 -0.6759 -0.7761
  330MOL0     H45487  10.858  10.285   6.239 -0.1038 -0.2066 -2.0879
  330MOL0     H45488  10.931  10.353   6.094  0.2538 -0.4667 -0.3360
  330MOL0     H45489  11.180  10.505   6.145  0.0929  1.6631  2.1211
  330MOL0     H45490  11.450  10.402   6.342 -0.4061 -0.0896 -0.6905
  330MOL0     H45491  11.397  10.544   6.431 -1.2494 -0.5833  0.1831
  330MOL0     H45492  11.528  10.596   6.227 -0.9141  0.0546 -0.1131
  330MOL0     H45493  11.388  10.549   6.122 -0.8285 -2.8815  1.4195
  330MOL0     H45494  11.236  10.725   6.251 -0.3533  0.6385 -1.0564
  330MOL0     H45495  11.389  10.786   6.320  1.4188 -0.0626 -0.5528
  330MOL0     H45496  11.350  10.915   6.105  0.0789 -0.8859 -3.4250
  330MOL0     H45497  11.483  10.812   6.086  0.3170  1.3733 -1.7629
  330MOL0     H45498  11.118  10.884   6.148 -0.2957 -0.3210  0.5705
  330MOL0     H45499  10.807  10.857   6.207 -2.8562  1.3239 -0.7781
  330MOL0     H45500  10.755  10.950   6.065 -0.8225 -0.3238 -1.8491
  330MOL0     H45501  10.895  11.004   6.175  0.5403 -0.5870 -1.3238
  330MOL0     H45502  10.479  10.817   6.138 -0.9944  1.3338 -0.8267
  330MOL0     H45503  10.248  10.772   6.115 -0.7569 -3.0979  1.4784
  330MOL0     H45504  10.031  10.639   5.761  2.0310  0.8426  0.1373
  330MOL0     H45505  10.099  10.477   5.784 -2.8360 -1.2691  0.0698
  330MOL0     H45506   9.883  10.574   5.975  3.1767 -0.4358  2.9739
  330MOL0     H45507   9.860  10.512   5.805 -0.1024  2.9075  1.6486
  330MOL0     H45508  10.012  10.341   6.003 -2.9115 -2.8745  2.3691
  330MOL0     H45509   9.952  10.302   5.847  0.5292 -2.8256  1.8638
  330MOL0     H45510   9.743  10.390   6.047 -2.6926 -1.2314 -0.3860
  330MOL0     H45511   9.823  10.224   6.053  0.1441 -2.2911 -2.6668
  330MOL0     H45512   9.718  10.364   5.814  2.3966  0.6066  1.4250
  330MOL0     H45513   9.757  10.191   5.809  1.2116  2.2632 -2.0092
  330MOL0     H45514   9.528  10.313   5.967 -1.3243 -0.1683 -1.6585
  330MOL0     H45515   9.597  10.156   6.003 -1.2752  0.5973  0.1964
  330MOL0     H45516   9.550  10.088   5.754  1.4311  1.8471 -2.9113
  330MOL0     H45517   9.476  10.248   5.751  1.3066  1.1594  2.0413
  330MOL0     H45518   9.293  10.079   5.784 -0.9322 -1.2910  0.6929
  330MOL0     H45519   9.301  10.194   5.921  1.6087  0.5633 -0.1794
  330MOL0     H45520  10.331  10.501   5.796  2.2025 -1.9655  1.5275
  330MOL0     H45521  10.556  10.548   5.804 -0.3345 -1.2594  0.5673
  330MOL0     H45522  10.945  10.635   5.759 -2.1322  1.3168 -0.2658
  330MOL0     H45523  11.178  10.618   5.820  3.1305  2.2555 -0.5811
  330MOL0     H45524  10.468  10.268   5.875  0.5647 -0.2202  0.2345
  330MOL0     H45525  10.483  10.207   5.639 -1.3175  1.9103  0.7014
  330MOL0     H45526  10.481   9.902   5.373  0.1089  1.6276 -1.4042
  330MOL0     H45527  10.535   9.766   5.171  1.2207  2.9856 -1.4520
  330MOL0     H45528  10.584   9.676   4.968  0.5607 -1.4125  3.0433
  330MOL0     H45529  10.488   9.575   5.065 -0.5834 -0.3756 -0.9927
  330MOL0     H45530  10.366   9.511   4.853 -0.4847  1.7564  3.5343
  330MOL0     H45531  10.522   9.434   4.882 -2.3935 -0.3538  3.9116
  330MOL0     H45532  10.425   9.663   4.685  2.7359  2.3713 -2.8762
  330MOL0     H45533  10.594   9.663   4.728  1.5054 -1.8515 -1.7709
  330MOL0     H45534  10.444   9.434   4.584  1.4785 -2.0553  2.7688
  330MOL0     H45535  10.600   9.412   4.646  0.9024  0.9280  1.2909
  330MOL0     H45536  10.705   9.668   4.325  0.5083 -0.0531  0.2988
  330MOL0     H45537  10.141   9.819   5.020  0.3335 -1.3070 -0.5046
  330MOL0     H45538  10.007  10.030   5.263  1.8387  3.1323  0.2626
  330MOL0     H45539  10.087  10.068   5.111  0.1492  0.9805  2.1648
  330MOL0     H45540   9.982   9.915   5.137  0.6030 -0.7759  0.9096
  331MOL0     O45541   1.341   3.030   3.127 -0.2481 -0.0577  0.0325
  331MOL0     C45542   1.264   3.117   3.105  0.2729  0.4437  1.5055
  331MOL0     O45543   1.137   3.104   3.045  0.0321  0.7142 -1.3296
  331MOL0     C45544   1.112   2.987   2.966  0.5853 -0.1759  0.1230
  331MOL0     C45545   1.123   2.850   3.010 -1.3772  0.2600  0.4703
  331MOL0     C45546   1.109   2.740   2.917 -0.2626  0.6165  0.1438
  331MOL0     C45547   1.085   2.767   2.781 -0.6581  0.7130  0.4584
  331MOL0     O45548   1.056   2.671   2.688 -0.1070 -0.5864  0.5429
  331MOL0     C45549   0.941   2.698   2.604  0.1944  0.1927 -0.2686
  331MOL0     C45550   0.890   2.552   2.564 -0.1684  0.3901 -0.9424
  331MOL0     C45551   0.758   2.536   2.483 -0.0978  0.3849 -0.9180
  331MOL0     C45552   0.753   2.639   2.365  0.6052 -0.3858 -0.0988
  331MOL0     C45553   0.634   2.613   2.270 -0.9589 -0.6399 -0.7142
  331MOL0     C45554   0.592   2.738   2.187 -0.2488  0.0241  0.5687
  331MOL0     C45555   0.701   2.784   2.082  0.6968  0.5394 -0.1808
  331MOL0     C45556   0.637   2.879   1.984 -0.0610 -1.4244  0.0421
  331MOL0     N45557   0.734   2.958   1.898 -0.0828 -0.1767 -0.5732
  331MOL0     C45558   0.834   3.049   1.940  0.1692 -0.2836  0.6560
  331MOL0     C45559   0.924   3.058   1.834 -1.0762  0.0301  0.6080
  331MOL0     C45560   1.050   3.132   1.846 -0.4766  0.2972  0.3043
  331MOL0     C45561   1.023   3.269   1.785 -0.0882  0.3704 -0.3343
  331MOL0     C45562   0.942   3.348   1.894 -0.2178  0.3192  0.2120
  331MOL0     C45563   0.904   3.485   1.845 -0.1949  0.6109  0.2119
  331MOL0     O45564   1.025   3.558   1.825 -0.3505  0.0851 -0.0041
  331MOL0     C45565   1.014   3.686   1.781 -0.3254 -0.1634 -0.1947
  331MOL0     C45566   0.910   3.770   1.795  0.2734 -1.7906  0.1474
  331MOL0     C45567   0.913   3.912   1.758  0.0641  0.9019  0.1363
  331MOL0     C45568   0.787   3.994   1.779  0.4487 -0.8513  0.1464
  331MOL0     C45569   1.023   3.960   1.691 -0.1601 -0.0980  0.4882
  331MOL0     C45570   1.039   4.089   1.623  0.4356 -0.5148  0.0734
  331MOL0     O45571   1.158   4.155   1.646  0.7364 -0.1004 -0.2734
  331MOL0     C45572   1.211   4.237   1.549 -0.3541  0.1773 -0.5583
  331MOL0     C45573   1.275   4.345   1.603 -0.0787  0.1740 -0.3026
  331MOL0     C45574   1.337   4.439   1.515 -0.1154 -0.1491  0.2231
  331MOL0     C45575   1.336   4.424   1.379 -0.9258 -0.6759 -0.4410
  331MOL0     O45576   1.391   4.533   1.310  0.4418  0.9584 -0.1383
  331MOL0     C45577   1.382   4.525   1.172 -0.4610 -0.9237 -0.3522
  331MOL0     C45578   1.443   4.661   1.109 -0.0504  0.3629  0.1422
  331MOL0     C45579   1.583   4.700   1.152 -0.3070 -0.0820 -0.3244
  331MOL0     C45580   1.674   4.579   1.152 -0.4081 -0.2487  0.3683
  331MOL0     C45581   1.820   4.628   1.196  0.9547 -0.1172  0.4359
  331MOL0     C45582   1.924   4.519   1.225 -0.2352 -0.2022 -0.3641
  331MOL0     C45583   1.955   4.435   1.105 -0.0910  0.2749  0.9518
  331MOL0     C45584   2.053   4.320   1.143  0.4109 -0.0630  0.2156
  331MOL0    Cl45585   2.205   4.392   1.179 -0.1702  0.2398  0.2080
  331MOL0     C45586   1.280   4.315   1.326  0.4466  0.7122  0.8519
  331MOL0     C45587   1.217   4.221   1.410 -0.1061 -0.2158 -0.1270
  331MOL0     O45588   0.950   4.128   1.547  0.3885 -0.5533 -0.6784
  331MOL0     C45589   1.136   3.874   1.683 -0.4214 -1.2373  0.4159
  331MOL0     C45590   1.133   3.740   1.728  0.4329 -0.2637 -0.6214
  331MOL0     N45591   0.883   2.981   1.734  0.1512  0.2134  0.1805
  331MOL0     N45592   0.771   2.928   1.766 -0.5325  0.5740  0.2325
  331MOL0     C45593   1.090   2.897   2.736  0.0284 -0.5205 -0.0306
  331MOL0     C45594   1.094   3.003   2.826 -0.5812  1.0054  0.1999
  331MOL0     C45595   1.319   3.255   3.141 -0.8180 -1.0504  0.4673
  331MOL0     C45596   1.419   3.272   3.241  1.2729 -0.3151  0.5277
  331MOL0     C45597   1.458   3.398   3.284 -0.0009 -0.6386  1.7571
  331MOL0     C45598   1.405   3.508   3.225  0.1328 -0.0988 -0.8309
  331MOL0     O45599   1.437   3.626   3.288 -0.0978 -0.0101 -0.2935
  331MOL0     C45600   1.488   3.737   3.216 -0.5688  0.0467  0.0630
  331MOL0     C45601   1.534   3.711   3.075  0.3044  0.2994  0.7467
  331MOL0     C45602   1.606   3.843   3.019 -0.3742  0.3154 -0.4003
  331MOL0     C45603   1.737   3.882   3.096 -0.4569 -0.7381 -0.4007
  331MOL0     C45604   1.794   3.995   3.012 -0.0116  0.7903  0.7642
  331MOL0     C45605   1.842   4.081   2.939  0.3609 -0.0874 -0.2650
  331MOL0     C45606   1.302   3.493   3.144 -0.6010  0.8763  0.0076
  331MOL0     C45607   1.264   3.372   3.085  0.9033 -0.0489  0.2090
  331MOL0     C45608   1.161   3.381   2.977 -0.5133 -0.1519  0.6768
  331MOL0     H45609   1.132   2.845   3.118 -2.1556 -1.1123  0.4902
  331MOL0     H45610   1.103   2.643   2.964 -1.2013  2.5444  4.4818
  331MOL0     H45611   0.959   2.750   2.510 -3.7334 -0.4703 -1.5967
  331MOL0     H45612   0.864   2.747   2.666  1.4063  0.9199  0.7065
  331MOL0     H45613   0.969   2.519   2.496 -0.5536 -1.6146 -0.4776
  331MOL0     H45614   0.874   2.497   2.658 -3.3961  4.6999  1.4125
  331MOL0     H45615   0.752   2.436   2.440  0.2597 -0.9233  1.8825
  331MOL0     H45616   0.678   2.560   2.554  0.6213  0.1842 -0.0203
  331MOL0     H45617   0.734   2.739   2.405 -0.0561  0.1732 -1.7320
  331MOL0     H45618   0.847   2.643   2.309  0.3918 -1.3192 -0.5400
  331MOL0     H45619   0.553   2.572   2.330 -1.3973  0.3992 -0.5669
  331MOL0     H45620   0.675   2.540   2.199  2.5281  1.8768 -1.5947
  331MOL0     H45621   0.500   2.706   2.138 -1.2454 -2.3090  3.6530
  331MOL0     H45622   0.563   2.819   2.255  1.6080 -0.6832  2.3176
  331MOL0     H45623   0.731   2.696   2.025  0.5192  1.7251 -2.1893
  331MOL0     H45624   0.785   2.831   2.134  0.8882 -0.9760  0.9348
  331MOL0     H45625   0.586   2.806   1.921  0.1152 -2.2678  0.8483
  331MOL0     H45626   0.567   2.949   2.031 -0.1249 -1.2444 -0.3175
  331MOL0     H45627   0.850   3.114   2.025  1.7978 -3.3144  2.8454
  331MOL0     H45628   1.137   3.080   1.804 -0.4999 -2.5297  3.3780
  331MOL0     H45629   1.078   3.142   1.951  0.2298  0.0718  0.1419
  331MOL0     H45630   1.114   3.327   1.763 -0.6937  1.0672 -1.0347
  331MOL0     H45631   0.965   3.267   1.693 -3.0552  1.0064  1.3884
  331MOL0     H45632   0.847   3.295   1.909  0.0276 -0.4452 -0.8296
  331MOL0     H45633   0.995   3.367   1.988  2.9197  0.4070 -1.4602
  331MOL0     H45634   0.859   3.479   1.746  1.6351 -0.6949 -0.6013
  331MOL0     H45635   0.833   3.523   1.919  0.1055  0.7461  0.4375
  331MOL0     H45636   0.822   3.731   1.846 -2.4440  1.3701 -1.7194
  331MOL0     H45637   0.713   3.950   1.711  0.4647  0.3436 -0.6676
  331MOL0     H45638   0.800   4.099   1.753 -0.2886 -1.2574 -2.0397
  331MOL0     H45639   0.745   3.990   1.880  0.7987  3.4699  0.6494
  331MOL0     H45640   1.286   4.351   1.711 -1.8343 -2.3079  0.0900
  331MOL0     H45641   1.386   4.526   1.556 -0.4131  1.0271 -1.7562
  331MOL0     H45642   1.445   4.444   1.133 -0.5420 -1.3708  0.4168
  331MOL0     H45643   1.283   4.493   1.137 -1.2563  1.4916 -0.4873
  331MOL0     H45644   1.439   4.643   1.002 -0.1931 -0.2668  0.2496
  331MOL0     H45645   1.376   4.747   1.119 -0.8900 -0.1016 -1.2611
  331MOL0     H45646   1.578   4.745   1.252  4.5640  1.0405 -0.3325
  331MOL0     H45647   1.633   4.776   1.093 -0.0585  0.2966  0.3594
  331MOL0     H45648   1.678   4.532   1.054  0.5594 -0.7640  0.6401
  331MOL0     H45649   1.645   4.505   1.227  0.3221 -2.6411 -1.5967
  331MOL0     H45650   1.863   4.703   1.129 -0.7686  1.2297  0.7710
  331MOL0     H45651   1.818   4.677   1.294  0.6251 -1.9402  1.3973
  331MOL0     H45652   1.885   4.458   1.307  0.5829 -0.9571 -0.5206
  331MOL0     H45653   2.019   4.565   1.255 -0.4944 -0.6705  1.2801
  331MOL0     H45654   1.998   4.483   1.017  1.6084 -1.6381  0.6676
  331MOL0     H45655   1.864   4.384   1.074  1.4645 -1.8535 -0.3748
  331MOL0     H45656   2.059   4.254   1.056 -2.0900  1.5909 -1.3426
  331MOL0     H45657   2.019   4.266   1.232 -1.7015  1.3562  0.3434
  331MOL0     H45658   1.284   4.285   1.222 -1.0283  0.4741  0.8384
  331MOL0     H45659   1.185   4.130   1.359 -1.8373  1.3832 -2.0701
  331MOL0     H45660   1.235   3.902   1.646  0.4733 -3.9361  0.5273
  331MOL0     H45661   1.225   3.683   1.718 -0.1504 -1.3110 -0.2134
  331MOL0     H45662   1.090   2.922   2.630 -2.7000 -0.5437 -0.0952
  331MOL0     H45663   1.091   3.107   2.794 -1.0474  1.5826  1.9858
  331MOL0     H45664   1.467   3.184   3.284 -2.5925 -2.2579  1.2972
  331MOL0     H45665   1.542   3.398   3.354  1.4562 -0.8607  0.0889
  331MOL0     H45666   1.419   3.822   3.211 -2.9587 -1.6962  1.1408
  331MOL0     H45667   1.578   3.768   3.271  0.9911 -0.1113 -2.2792
  331MOL0     H45668   1.448   3.689   3.011  1.5687 -2.9822 -0.0293
  331MOL0     H45669   1.592   3.620   3.056  0.5415  0.8441 -1.4490
  331MOL0     H45670   1.642   3.817   2.919  2.1929  0.3024  0.4595
  331MOL0     H45671   1.527   3.919   3.015 -0.5725  0.0979 -3.8326
  331MOL0     H45672   1.807   3.798   3.089  2.3546  1.5258 -1.8379
  331MOL0     H45673   1.722   3.914   3.199  4.4658  0.9401  0.1023
  331MOL0     H45674   1.879   4.156   2.872 -4.1869  3.3259  0.5563
  331MOL0     H45675   1.241   3.571   3.099 -3.3002 -0.4089  1.2353
  331MOL0     H45676   1.060   3.368   3.018 -3.2894  2.8167 -4.1466
  331MOL0     H45677   1.169   3.476   2.924  1.2350 -1.1906 -1.0775
  331MOL0     H45678   1.195   3.303   2.908  3.2824  2.4100 -0.6582
  332MOL0     O45679   2.324   9.892   3.673 -0.0499 -0.0943 -0.7435
  332MOL0     C45680   2.245   9.951   3.595 -0.1778  0.3173 -0.7972
  332MOL0     O45681   2.121   9.910   3.573  0.8829  0.6781  0.0643
  332MOL0     C45682   2.080   9.782   3.619  0.3069  0.0868  0.0602
  332MOL0     C45683   2.085   9.737   3.752  0.6955  1.0893  0.2718
  332MOL0     C45684   2.031   9.609   3.775  0.0074  0.2843  0.4861
  332MOL0     C45685   1.970   9.536   3.674  0.7757  0.6321  1.6263
  332MOL0     O45686   1.909   9.415   3.705 -0.3300 -0.3890 -0.7354
  332MOL0     C45687   1.766   9.425   3.728  0.4135 -0.4558  0.5431
  332MOL0     C45688   1.687   9.309   3.667  0.5243 -0.0446 -0.6205
  332MOL0     C45689   1.688   9.189   3.763  0.0016 -1.1128 -0.4337
  332MOL0     C45690   1.616   9.073   3.714  0.7891  1.0900  1.0082
  332MOL0     C45691   1.630   8.955   3.805 -0.2726 -0.0535  0.1010
  332MOL0     C45692   1.551   8.948   3.938  0.7676 -0.4765  0.9438
  332MOL0     C45693   1.576   8.829   4.024  0.0821  0.6673  0.6117
  332MOL0     C45694   1.549   8.690   3.962 -0.0684  0.1597  0.4974
  332MOL0     N45695   1.412   8.676   3.912  0.5269  0.0297  0.0824
  332MOL0     C45696   1.296   8.698   3.989 -0.8067  0.5536  0.1486
  332MOL0     C45697   1.193   8.696   3.903  0.2811 -0.0876  0.4696
  332MOL0     C45698   1.057   8.737   3.926 -0.6094 -0.1009 -1.4205
  332MOL0     C45699   1.056   8.891   3.935 -0.2959  1.3051 -0.3353
  332MOL0     C45700   0.927   8.965   3.927 -0.3502  0.4178  0.1592
  332MOL0     C45701   0.827   8.935   4.042 -0.6707 -0.0854 -0.1158
  332MOL0     O45702   0.780   8.802   4.051  0.2989  0.2334  0.2592
  332MOL0     C45703   0.669   8.783   4.131  0.4676  0.7061  0.2518
  332MOL0     C45704   0.598   8.873   4.206 -0.8432 -0.3006 -0.5919
  332MOL0     C45705   0.494   8.830   4.286  0.4287 -0.5933  1.0095
  332MOL0     C45706   0.436   8.934   4.373 -0.2408 -0.9439 -0.9439
  332MOL0     C45707   0.452   8.693   4.289  0.4707 -0.3552  0.3037
  332MOL0     C45708   0.339   8.641   4.373  0.6762  0.0441  0.4409
  332MOL0     O45709   0.265   8.538   4.304  0.6860  0.2101  0.1990
  332MOL0     C45710   0.177   8.457   4.360 -1.0989 -0.2627  0.8929
  332MOL0     C45711   0.067   8.414   4.295 -0.0755  0.4063 -0.7860
  332MOL0     C45712  -0.017   8.320   4.355 -0.9699  0.2761 -0.1667
  332MOL0     C45713  -0.001   8.273   4.477  1.5586  0.6378 -0.5030
  332MOL0     O45714  -0.088   8.173   4.515 -0.0426 -0.2965 -0.2224
  332MOL0     C45715  -0.035   8.079   4.614 -0.2407 -1.7956  0.0311
  332MOL0     C45716  -0.096   8.114   4.755 -0.9922  0.3979 -0.1192
  332MOL0     C45717  -0.245   8.092   4.777  0.2067 -0.7080  0.1723
  332MOL0     C45718  -0.304   8.152   4.908 -0.2938  0.9655 -0.4501
  332MOL0     C45719  -0.447   8.118   4.939 -0.4244 -0.4055  0.6096
  332MOL0     C45720  -0.558   8.185   4.845 -0.2332  0.4635  0.4021
  332MOL0     C45721  -0.563   8.342   4.855 -0.4552 -0.3584  0.9738
  332MOL0     C45722  -0.701   8.395   4.800  0.3313  0.7190  0.8043
  332MOL0    Cl45723  -0.738   8.346   4.642 -0.2939  0.1258  0.3162
  332MOL0     C45724   0.105   8.324   4.549 -0.1119 -0.5296  0.7356
  332MOL0     C45725   0.195   8.418   4.487  0.0717 -0.1279 -0.0167
  332MOL0     O45726   0.306   8.693   4.479 -0.2989 -0.0489 -0.5389
  332MOL0     C45727   0.537   8.601   4.219 -0.1310  0.1413  0.0345
  332MOL0     C45728   0.642   8.644   4.138  0.0257  0.2003 -0.0252
  332MOL0     N45729   1.245   8.672   3.774 -0.7108  0.2098 -0.5471
  332MOL0     N45730   1.375   8.662   3.784 -0.0399  0.3685  0.2066
  332MOL0     C45731   1.967   9.582   3.544 -0.2834 -0.1068 -0.8136
  332MOL0     C45732   2.014   9.713   3.514 -0.1516  1.2930 -0.4451
  332MOL0     C45733   2.307  10.063   3.526 -0.0114 -1.1505  0.1691
  332MOL0     C45734   2.408  10.130   3.597 -0.0854 -0.7510  0.0936
  332MOL0     C45735   2.475  10.245   3.537 -0.2805  0.1984 -0.0907
  332MOL0     C45736   2.432  10.303   3.416 -0.0863  0.4064 -0.2940
  332MOL0     O45737   2.495  10.408   3.357  0.6500 -0.3898 -0.2324
  332MOL0     C45738   2.417  10.525   3.383  0.4094 -0.4442  0.2621
  332MOL0     C45739   2.414  10.627   3.269  0.4046  0.8683 -0.4362
  332MOL0     C45740   2.555  10.690   3.256  0.2004  0.7172  1.1721
  332MOL0     C45741   2.553  10.822   3.181 -0.2261  0.4211  1.8252
  332MOL0     C45742   2.684  10.902   3.194  0.2684  0.6046 -1.2532
  332MOL0     C45743   2.783  10.974   3.201 -0.1952  0.3173 -0.1553
  332MOL0     C45744   2.322  10.239   3.358 -0.1000  0.4386  0.1095
  332MOL0     C45745   2.268  10.116   3.401 -0.5256  0.1877  0.1219
  332MOL0     C45746   2.153  10.055   3.319 -0.7127 -0.4599  0.0637
  332MOL0     H45747   2.154   9.778   3.824 -0.0025  0.3124  1.4121
  332MOL0     H45748   2.049   9.565   3.872  2.4056  1.8320  0.8388
  332MOL0     H45749   1.739   9.518   3.678  0.8436 -0.8710 -0.4981
  332MOL0     H45750   1.752   9.436   3.836 -0.9045 -0.1293  0.3587
  332MOL0     H45751   1.585   9.349   3.663  0.6165  0.3224  0.3356
  332MOL0     H45752   1.727   9.288   3.568 -3.3301  0.8067 -2.5510
  332MOL0     H45753   1.796   9.172   3.770  0.1261 -0.0106  4.2097
  332MOL0     H45754   1.662   9.215   3.867  0.4490  1.8308 -0.9687
  332MOL0     H45755   1.510   9.096   3.698  0.8265  0.2099 -0.6757
  332MOL0     H45756   1.655   9.045   3.616 -2.0979  3.3574 -0.9743
  332MOL0     H45757   1.737   8.951   3.827 -0.3301  1.8435  0.9035
  332MOL0     H45758   1.604   8.872   3.738 -0.2121  1.6463 -2.1472
  332MOL0     H45759   1.562   9.031   4.008  0.2571  0.3375  0.0818
  332MOL0     H45760   1.444   8.945   3.913  0.8472 -3.3209  0.6487
  332MOL0     H45761   1.506   8.844   4.107 -2.9921  1.4408 -1.9288
  332MOL0     H45762   1.678   8.823   4.065 -0.1981 -4.1471  1.1678
  332MOL0     H45763   1.617   8.680   3.877 -1.6778  0.1106 -0.8424
  332MOL0     H45764   1.561   8.609   4.034 -1.8382 -0.3938  0.2204
  332MOL0     H45765   1.303   8.716   4.096 -1.1983  0.1716  0.2386
  332MOL0     H45766   1.024   8.682   4.015  0.1263  2.4175  0.5016
  332MOL0     H45767   0.995   8.706   3.841 -1.3183 -0.2489 -0.8598
  332MOL0     H45768   1.106   8.918   4.028 -1.8003  1.1502  0.5384
  332MOL0     H45769   1.121   8.919   3.851 -0.5942  2.0286 -0.3361
  332MOL0     H45770   0.955   9.070   3.938 -0.4915  0.2005  3.4972
  332MOL0     H45771   0.886   8.943   3.828 -0.9016 -0.0797  0.4887
  332MOL0     H45772   0.871   8.950   4.141  2.3967  0.5949 -1.4693
  332MOL0     H45773   0.742   9.001   4.022 -0.4407  0.9899  2.1131
  332MOL0     H45774   0.626   8.978   4.197  3.8029 -1.1634  1.5055
  332MOL0     H45775   0.464   8.907   4.475 -2.5397  0.4016  0.1220
  332MOL0     H45776   0.328   8.923   4.356  0.1835 -0.4932 -4.8552
  332MOL0     H45777   0.492   9.027   4.356  4.5051 -3.1730  0.6495
  332MOL0     H45778   0.064   8.446   4.191 -1.8277  1.6698 -0.3934
  332MOL0     H45779  -0.092   8.288   4.283 -1.5787  2.4702 -0.5796
  332MOL0     H45780  -0.066   7.975   4.601 -1.4099 -1.5759  0.9329
  332MOL0     H45781   0.075   8.080   4.620 -0.0147  3.1411 -0.4402
  332MOL0     H45782  -0.038   8.058   4.829  2.3088 -1.3408 -3.6652
  332MOL0     H45783  -0.079   8.217   4.786  1.9461 -0.2213  0.6182
  332MOL0     H45784  -0.263   7.986   4.795  0.0984 -0.5635  0.9661
  332MOL0     H45785  -0.294   8.118   4.683  0.3218 -2.6031 -0.4469
  332MOL0     H45786  -0.295   8.261   4.904 -3.2573  1.2671 -3.1262
  332MOL0     H45787  -0.240   8.111   4.987  2.6764  4.3536 -0.8761
  332MOL0     H45788  -0.450   8.010   4.925  1.5968 -0.2064 -1.9665
  332MOL0     H45789  -0.476   8.140   5.042  0.2961  0.7868  0.5742
  332MOL0     H45790  -0.650   8.127   4.860 -1.0672  1.0797 -1.8699
  332MOL0     H45791  -0.546   8.155   4.740 -2.6286  3.0357 -0.7440
  332MOL0     H45792  -0.480   8.382   4.796 -1.1518 -1.3404 -0.7636
  332MOL0     H45793  -0.549   8.372   4.959 -2.2713 -0.9231  1.4084
  332MOL0     H45794  -0.715   8.502   4.815 -0.9923  0.3128  2.7995
  332MOL0     H45795  -0.776   8.343   4.861 -0.3794 -0.6086 -1.1083
  332MOL0     H45796   0.119   8.295   4.652  1.3450  2.7030  1.5918
  332MOL0     H45797   0.267   8.466   4.552 -1.2316 -0.6107  1.8558
  332MOL0     H45798   0.519   8.494   4.230 -0.2345 -0.0485 -1.7675
  332MOL0     H45799   0.700   8.577   4.076  2.0525  2.7154 -1.0355
  332MOL0     H45800   1.918   9.516   3.473  0.2834  0.2534 -1.5562
  332MOL0     H45801   1.999   9.759   3.417 -2.2469 -1.3503 -1.5071
  332MOL0     H45802   2.453  10.105   3.692  2.0665  1.2622 -0.2841
  332MOL0     H45803   2.565  10.283   3.584 -1.8070  0.3221  3.0002
  332MOL0     H45804   2.316  10.505   3.418  0.3549  0.6571  0.7595
  332MOL0     H45805   2.474  10.566   3.467  1.2900 -0.5862 -0.2448
  332MOL0     H45806   2.349  10.710   3.299 -1.7631 -0.8452 -0.1898
  332MOL0     H45807   2.379  10.587   3.173  0.6097  0.1871 -0.2293
  332MOL0     H45808   2.608  10.719   3.347  2.1401  1.9477 -0.2690
  332MOL0     H45809   2.620  10.615   3.210  0.0958  0.7716  0.9326
  332MOL0     H45810   2.469  10.882   3.217 -0.0422  1.1180  1.1337
  332MOL0     H45811   2.535  10.802   3.075 -0.6205 -1.2504  2.1818
  332MOL0     H45812   2.868  11.037   3.210 -1.1855  1.7797 -0.6361
  332MOL0     H45813   2.275  10.282   3.270 -0.5899 -0.8496 -0.2836
  332MOL0     H45814   2.119  10.112   3.232  1.0066  0.0168 -0.3433
  332MOL0     H45815   2.182   9.954   3.286 -2.2525 -1.0867  0.5515
  332MOL0     H45816   2.066  10.043   3.384 -1.7937  3.5507 -0.3938
  333MOL0     O45817   9.993  11.288   4.765 -0.3259  0.6856  0.1180
  333MOL0     C45818  10.103  11.286   4.823 -0.5804 -0.5266 -0.8823
  333MOL0     O45819  10.122  11.362   4.945  0.4472 -0.3174  0.6536
  333MOL0     C45820  10.026  11.455   4.986  1.2714  0.7294  0.3405
  333MOL0     C45821   9.937  11.418   5.087 -0.6623  0.1711  0.1190
  333MOL0     C45822   9.844  11.505   5.129  1.1629 -0.1149  0.0283
  333MOL0     C45823   9.823  11.633   5.066  0.1885 -0.2662 -0.2418
  333MOL0     O45824   9.730  11.732   5.102 -0.3465  0.1695  0.2860
  333MOL0     C45825   9.646  11.711   5.209  0.8957  0.1071 -1.1982
  333MOL0     C45826   9.721  11.735   5.343  0.5129 -0.4357 -0.8790
  333MOL0     C45827   9.623  11.729   5.461 -0.0085 -0.1845 -0.3135
  333MOL0     C45828   9.705  11.751   5.596 -0.2933 -0.0506 -0.1539
  333MOL0     C45829   9.627  11.820   5.709  0.0691  0.2148  0.4525
  333MOL0     C45830   9.710  11.792   5.838 -0.2931 -0.2301 -0.3041
  333MOL0     C45831   9.640  11.869   5.959 -0.3360  0.0170 -0.3251
  333MOL0     C45832   9.661  12.022   5.954 -0.3884  1.5334  0.3813
  333MOL0     N45833   9.602  12.103   6.068  0.2737 -1.2110  0.7003
  333MOL0     C45834   9.557  12.059   6.191  0.2150 -0.0897  0.2941
  333MOL0     C45835   9.522  12.173   6.250 -0.0650  0.0030 -0.6439
  333MOL0     C45836   9.470  12.194   6.393 -0.2250 -0.1130  1.5400
  333MOL0     C45837   9.467  12.344   6.430 -0.0290 -0.2577 -0.4574
  333MOL0     C45838   9.399  12.351   6.562 -0.0748 -0.8177  0.3496
  333MOL0     C45839   9.402  12.488   6.617  0.2062 -0.4782 -0.2100
  333MOL0     O45840   9.538  12.530   6.633  0.2944  0.5207 -0.5185
  333MOL0     C45841   9.569  12.639   6.707  0.0135 -0.0081  0.4011
  333MOL0     C45842   9.704  12.662   6.732  0.4015 -0.3393 -0.2367
  333MOL0     C45843   9.744  12.783   6.804  0.4398 -0.3509  0.2557
  333MOL0     C45844   9.888  12.814   6.806 -0.0572 -0.6338  0.1925
  333MOL0     C45845   9.648  12.866   6.862  0.5768 -0.4154 -1.1928
  333MOL0     C45846   9.678  12.980   6.944  0.3093 -0.6346 -1.2779
  333MOL0     O45847   9.808  13.006   6.996 -0.0971  0.1951  0.3144
  333MOL0     C45848   9.809  13.093   7.096  0.3104 -0.7641  0.2877
  333MOL0     C45849   9.798  13.033   7.224  0.7086 -0.5732 -0.1911
  333MOL0     C45850   9.805  13.116   7.338 -0.4068 -0.2210  0.2676
  333MOL0     C45851   9.839  13.259   7.323  0.5934  0.4267 -0.0509
  333MOL0     O45852   9.852  13.338   7.429 -0.3607 -1.0026 -0.2510
  333MOL0     C45853   9.924  13.296   7.550 -0.7597 -0.9134  0.2992
  333MOL0     C45854  10.078  13.308   7.524 -0.3865  0.1645 -1.1952
  333MOL0     C45855  10.166  13.278   7.651 -0.0532 -0.0258  0.1604
  333MOL0     C45856  10.311  13.307   7.619  0.1099  0.7017 -0.1639
  333MOL0     C45857  10.409  13.320   7.734 -0.1084  0.1672 -0.1252
  333MOL0     C45858  10.432  13.183   7.806 -1.5723 -0.4315  0.1379
  333MOL0     C45859  10.534  13.197   7.924  0.4540  0.5692  0.0548
  333MOL0     C45860  10.519  13.080   8.030 -0.3284  0.7722 -0.0148
  333MOL0    Cl45861  10.556  13.155   8.198 -0.0598 -0.2083 -0.0969
  333MOL0     C45862   9.838  13.311   7.194 -0.7595 -0.6890  0.3234
  333MOL0     C45863   9.827  13.225   7.084 -0.0428 -0.6465  0.2834
  333MOL0     O45864   9.589  13.064   6.965  1.2735  0.2530 -0.1868
  333MOL0     C45865   9.514  12.837   6.835 -0.5411 -0.1978 -0.3012
  333MOL0     C45866   9.472  12.720   6.762 -0.3072  0.0055  0.5753
  333MOL0     N45867   9.533  12.282   6.162  0.7035 -0.0129  0.9725
  333MOL0     N45868   9.577  12.236   6.056 -0.6158 -0.8909  0.4983
  333MOL0     C45869   9.919  11.673   4.972  0.2252  0.0567  0.4698
  333MOL0     C45870  10.018  11.586   4.930 -0.6001  1.0855  1.3596
  333MOL0     C45871  10.217  11.213   4.773 -0.3436  0.3676 -0.3598
  333MOL0     C45872  10.315  11.179   4.870 -0.4334 -0.0444 -0.6873
  333MOL0     C45873  10.436  11.119   4.838 -0.7301 -0.1003  0.8512
  333MOL0     C45874  10.448  11.074   4.702 -0.4574  0.7871 -0.2735
  333MOL0     O45875  10.563  11.001   4.672  0.6233 -0.0412 -0.3301
  333MOL0     C45876  10.574  10.933   4.547  0.3744 -0.0400 -0.3040
  333MOL0     C45877  10.698  10.850   4.557  1.1553  0.1447 -0.1399
  333MOL0     C45878  10.711  10.755   4.438 -0.1422 -0.1397 -0.3925
  333MOL0     C45879  10.849  10.725   4.399 -0.6967  0.0979 -0.9344
  333MOL0     C45880  10.939  10.717   4.523 -0.6258  0.2151  0.5715
  333MOL0     C45881  10.995  10.687   4.633  0.4144  0.0838  0.3155
  333MOL0     C45882  10.339  11.091   4.610 -0.5820  0.5325 -0.5696
  333MOL0     C45883  10.226  11.163   4.643 -0.0648 -1.3740  0.5314
  333MOL0     C45884  10.125  11.170   4.530  0.8441 -0.2545 -0.4712
  333MOL0     H45885   9.969  11.329   5.140  2.8659  0.7520 -0.7891
  333MOL0     H45886   9.777  11.476   5.210  0.1031 -3.0761 -1.7229
  333MOL0     H45887   9.592  11.616   5.215 -0.3767  0.8207  3.9995
  333MOL0     H45888   9.570  11.789   5.222 -1.0453 -1.9489  0.8570
  333MOL0     H45889   9.800  11.662   5.363 -0.3325 -1.2512 -0.4169
  333MOL0     H45890   9.761  11.837   5.344 -2.2415  0.8049  2.1264
  333MOL0     H45891   9.545  11.803   5.439 -1.6108 -1.5356  0.6777
  333MOL0     H45892   9.579  11.629   5.462  0.4966 -0.4114 -0.4374
  333MOL0     H45893   9.747  11.656   5.630 -1.3221 -1.1844 -1.8395
  333MOL0     H45894   9.795  11.810   5.580 -0.3112 -0.1344 -0.5691
  333MOL0     H45895   9.530  11.772   5.726 -0.3837  1.0248  0.2506
  333MOL0     H45896   9.604  11.924   5.685  1.2889  0.1585 -1.2148
  333MOL0     H45897   9.698  11.689   5.872  0.4716  0.4502  2.2283
  333MOL0     H45898   9.816  11.811   5.819 -0.2149 -1.0300 -0.7219
  333MOL0     H45899   9.681  11.855   6.059 -1.0550  3.3767  0.5802
  333MOL0     H45900   9.536  11.837   5.961  0.3916 -2.4841  0.7669
  333MOL0     H45901   9.769  12.042   5.955 -0.1435  0.4106  2.9732
  333MOL0     H45902   9.627  12.055   5.855  2.8480 -0.0536 -1.4295
  333MOL0     H45903   9.558  11.959   6.233  1.0560 -1.2833 -2.3987
  333MOL0     H45904   9.539  12.132   6.452 -0.9324 -2.0441  0.4217
  333MOL0     H45905   9.369  12.157   6.410 -0.6490  0.2543 -0.0063
  333MOL0     H45906   9.568  12.385   6.426 -0.2501  0.6633  2.0265
  333MOL0     H45907   9.389  12.384   6.365 -0.2734  1.4305  0.8249
  333MOL0     H45908   9.293  12.325   6.553  0.0574 -1.3150  0.2397
  333MOL0     H45909   9.452  12.289   6.635  0.8287 -0.1555  0.2663
  333MOL0     H45910   9.372  12.560   6.540  0.6957 -1.6550 -1.5427
  333MOL0     H45911   9.335  12.490   6.703 -1.0620 -1.6051 -1.1343
  333MOL0     H45912   9.787  12.607   6.688  1.1651 -0.3016  1.0939
  333MOL0     H45913   9.895  12.920   6.781 -1.4328 -0.3267  0.9681
  333MOL0     H45914   9.935  12.750   6.732 -2.1813 -1.0435 -0.8831
  333MOL0     H45915   9.923  12.794   6.908 -0.0164 -2.1943 -0.1110
  333MOL0     H45916   9.790  12.926   7.242  1.3330 -0.6635 -0.4370
  333MOL0     H45917   9.790  13.083   7.440 -0.6077  0.8211  0.5878
  333MOL0     H45918   9.899  13.358   7.636 -4.2324  0.6573 -1.6368
  333MOL0     H45919   9.900  13.191   7.568 -1.9602 -0.7530 -0.2469
  333MOL0     H45920  10.109  13.243   7.442  2.8905 -2.0042  1.4690
  333MOL0     H45921  10.104  13.410   7.494 -0.6454  1.6243  2.9211
  333MOL0     H45922  10.147  13.183   7.703  0.3094 -0.1288  0.1128
  333MOL0     H45923  10.140  13.348   7.730  0.5063  1.1892 -0.7032
  333MOL0     H45924  10.307  13.396   7.555 -1.4198  0.5558 -0.3079
  333MOL0     H45925  10.345  13.220   7.561 -1.0622  0.2178 -0.1450
  333MOL0     H45926  10.505  13.348   7.690 -0.8464 -0.2773 -2.1037
  333MOL0     H45927  10.381  13.400   7.804 -1.4024  0.9070 -1.4263
  333MOL0     H45928  10.468  13.103   7.740  2.4873  0.2119  1.2551
  333MOL0     H45929  10.339  13.139   7.843 -2.1290 -0.2706 -1.0428
  333MOL0     H45930  10.502  13.281   7.988  1.3249  1.4845 -0.6767
  333MOL0     H45931  10.630  13.212   7.874  1.0298  0.2361  1.0355
  333MOL0     H45932  10.587  12.994   8.020  0.5706  1.6046 -1.3334
  333MOL0     H45933  10.418  13.040   8.046  0.3403 -1.9975 -1.9415
  333MOL0     H45934   9.863  13.412   7.165  3.6493 -1.9866 -1.2564
  333MOL0     H45935   9.824  13.271   6.986 -1.1123  1.1203  1.0817
  333MOL0     H45936   9.442  12.910   6.869  0.1154 -0.1913  1.1613
  333MOL0     H45937   9.364  12.714   6.751 -0.7244  4.4935  0.4204
  333MOL0     H45938   9.899  11.775   4.943 -2.2605  0.8909  4.3909
  333MOL0     H45939  10.090  11.605   4.851 -2.7708  1.0640 -0.7136
  333MOL0     H45940  10.317  11.202   4.976  1.3883 -1.5771 -0.3399
  333MOL0     H45941  10.522  11.109   4.905 -0.2882 -0.4532  0.2444
  333MOL0     H45942  10.492  10.862   4.528  1.8326 -1.5394 -1.3227
  333MOL0     H45943  10.585  10.999   4.461 -1.8563 -0.1022 -0.6949
  333MOL0     H45944  10.705  10.796   4.652  3.4772  0.4715 -0.0596
  333MOL0     H45945  10.779  10.923   4.565  1.9205 -0.6387 -0.6094
  333MOL0     H45946  10.665  10.658   4.460  3.4177 -1.9948 -0.3894
  333MOL0     H45947  10.659  10.787   4.348 -2.1373 -1.4752  0.2205
  333MOL0     H45948  10.890  10.813   4.350 -0.5456 -0.4805 -1.8688
  333MOL0     H45949  10.862  10.650   4.321  3.1751 -1.2785  0.7912
  333MOL0     H45950  11.036  10.682   4.731 -0.6879  0.4101  0.8157
  333MOL0     H45951  10.364  11.054   4.511  4.3774  1.0963  0.2383
  333MOL0     H45952  10.171  11.155   4.432  1.1474  2.2665 -0.7664
  333MOL0     H45953  10.048  11.093   4.539 -0.3064  0.4607 -3.1348
  333MOL0     H45954  10.074  11.267   4.527 -0.2099 -0.7463  0.7978
  334MOL0     O45955   8.348   8.863   6.313  0.4015  0.7353  0.0582
  334MOL0     C45956   8.463   8.898   6.270  0.0210  0.2152 -0.2366
  334MOL0     O45957   8.499   9.033   6.252  0.5424 -0.9375  0.3598
  334MOL0     C45958   8.414   9.133   6.279 -0.0671  0.2357  0.8877
  334MOL0     C45959   8.404   9.196   6.407 -0.1091 -0.9253  0.0458
  334MOL0     C45960   8.299   9.290   6.424 -1.7165 -0.2414 -0.1479
  334MOL0     C45961   8.190   9.295   6.335 -0.1497 -0.3203 -0.4568
  334MOL0     O45962   8.074   9.359   6.356 -0.0362 -0.3789  0.5782
  334MOL0     C45963   8.075   9.478   6.429  0.8534 -1.5470  0.6402
  334MOL0     C45964   7.945   9.557   6.409  0.6563 -1.0214  1.1742
  334MOL0     C45965   7.946   9.634   6.274 -0.2743  0.0483  0.7429
  334MOL0     C45966   7.801   9.682   6.223 -0.4941 -0.5765 -0.3269
  334MOL0     C45967   7.804   9.709   6.069  0.3653 -0.3830 -0.0887
  334MOL0     C45968   7.763   9.591   5.989 -0.2201  0.2073 -0.0267
  334MOL0     C45969   7.697   9.643   5.852 -0.5440  0.2166 -0.8181
  334MOL0     C45970   7.601   9.529   5.815 -0.2701  0.2586  0.0262
  334MOL0     N45971   7.588   9.549   5.670 -0.0231 -0.3108  0.0400
  334MOL0     C45972   7.663   9.494   5.577  0.1830 -0.0465  0.0673
  334MOL0     C45973   7.596   9.511   5.457 -0.8346  0.9159  0.4588
  334MOL0     C45974   7.665   9.494   5.321  0.4160  0.4094  0.1850
  334MOL0     C45975   7.643   9.626   5.233  0.4127  0.3361  0.8828
  334MOL0     C45976   7.699   9.749   5.301  0.0361 -0.1391  0.7961
  334MOL0     C45977   7.613   9.827   5.404  0.1403 -0.9213 -0.2683
  334MOL0     O45978   7.604   9.972   5.391 -0.0312 -0.5219 -0.3589
  334MOL0     C45979   7.519  10.034   5.314 -0.3105  0.0662  1.0794
  334MOL0     C45980   7.468  10.158   5.357 -0.4292 -0.6045 -0.4325
  334MOL0     C45981   7.388  10.238   5.270  0.5578  0.0725  0.1097
  334MOL0     C45982   7.346  10.380   5.322 -0.4517  1.1393 -0.3275
  334MOL0     C45983   7.363  10.195   5.138  0.0382 -0.9565 -0.3284
  334MOL0     C45984   7.265  10.270   5.043  0.1515 -0.3544  1.1470
  334MOL0     O45985   7.265  10.236   4.914 -0.1757 -0.6499 -0.4151
  334MOL0     C45986   7.165  10.246   4.820 -0.2624  0.2312  0.7784
  334MOL0     C45987   7.033  10.223   4.849 -0.8081  0.9794  0.1270
  334MOL0     C45988   6.940  10.233   4.746  0.0571  0.5480  0.0260
  334MOL0     C45989   6.976  10.251   4.607  0.7430 -0.8202 -0.1348
  334MOL0     O45990   6.893  10.262   4.495 -0.1601 -0.0316 -0.2085
  334MOL0     C45991   6.758  10.207   4.496 -0.2694  0.6885 -0.2867
  334MOL0     C45992   6.742  10.131   4.361 -0.0898 -0.6007  0.1810
  334MOL0     C45993   6.594  10.101   4.349 -0.8392  0.1007  0.6738
  334MOL0     C45994   6.573  10.024   4.216  0.6480 -0.8308 -0.1666
  334MOL0     C45995   6.624   9.884   4.207 -0.8108 -0.9474  0.1389
  334MOL0     C45996   6.610   9.802   4.333 -0.1142 -0.0573  0.3243
  334MOL0     C45997   6.628   9.645   4.306 -0.5523 -0.0672  0.5930
  334MOL0     C45998   6.638   9.559   4.438 -0.6005 -0.8604  0.7740
  334MOL0    Cl45999   6.472   9.554   4.508 -0.3126 -0.0949 -0.1832
  334MOL0     C46000   7.111  10.258   4.588 -0.4616  0.5751 -0.0744
  334MOL0     C46001   7.213  10.267   4.693  0.1549 -0.4779  0.5786
  334MOL0     O46002   7.186  10.354   5.085  0.7612  0.7327  0.1572
  334MOL0     C46003   7.406  10.068   5.096  0.1005 -0.2820 -0.6315
  334MOL0     C46004   7.486   9.996   5.188 -0.8010  0.2728 -0.0834
  334MOL0     N46005   7.475   9.553   5.486 -0.0998 -1.0550 -0.2453
  334MOL0     N46006   7.470   9.586   5.608 -0.7730  0.0612  0.0993
  334MOL0     C46007   8.201   9.236   6.215 -0.6155  1.3654  0.9675
  334MOL0     C46008   8.313   9.157   6.180  0.9243  0.2601 -0.3324
  334MOL0     C46009   8.578   8.809   6.264 -0.7529  0.3382  0.6261
  334MOL0     C46010   8.712   8.854   6.271  0.1285  0.3333 -0.0327
  334MOL0     C46011   8.817   8.766   6.269  0.1901 -0.0519  0.3351
  334MOL0     C46012   8.795   8.624   6.251 -0.1900  0.2336 -0.2454
  334MOL0     O46013   8.904   8.545   6.231 -0.0695 -1.0514 -0.0020
  334MOL0     C46014   8.961   8.517   6.359  0.5965 -0.4518 -0.6508
  334MOL0     C46015   9.057   8.396   6.327  0.5327 -0.0821  1.0926
  334MOL0     C46016   9.176   8.453   6.248  0.7238  0.7198 -0.0778
  334MOL0     C46017   9.284   8.352   6.228  0.0684  0.7250  0.0670
  334MOL0     C46018   9.409   8.424   6.191 -0.7411 -1.0588  0.1192
  334MOL0     C46019   9.521   8.477   6.172  0.4200  0.5299 -0.3422
  334MOL0     C46020   8.665   8.574   6.236  1.1000 -0.6651 -0.6712
  334MOL0     C46021   8.559   8.671   6.242  0.9647  0.1442 -0.1329
  334MOL0     C46022   8.423   8.605   6.218 -0.6015 -0.2649  0.1330
  334MOL0     H46023   8.480   9.180   6.483 -1.1201 -2.5501  0.7597
  334MOL0     H46024   8.311   9.345   6.516 -0.7390 -1.4335  0.4745
  334MOL0     H46025   8.157   9.534   6.381 -1.4508  0.6250 -1.0103
  334MOL0     H46026   8.098   9.468   6.535 -0.0127 -0.4500  0.9504
  334MOL0     H46027   7.862   9.486   6.406  0.4294 -0.7418 -0.5909
  334MOL0     H46028   7.926   9.627   6.491 -0.0584  0.4132 -0.1495
  334MOL0     H46029   8.014   9.719   6.274 -0.0738 -0.1062 -0.3507
  334MOL0     H46030   7.972   9.564   6.195 -0.1597  0.1266  0.7123
  334MOL0     H46031   7.724   9.608   6.246  0.0229 -1.3120 -0.9001
  334MOL0     H46032   7.781   9.777   6.272 -1.2598  0.9477 -3.3743
  334MOL0     H46033   7.891   9.767   6.036 -2.3362  3.2415 -1.6161
  334MOL0     H46034   7.734   9.793   6.060  0.6901 -0.0674  0.2693
  334MOL0     H46035   7.846   9.521   5.978 -1.2311 -0.8839 -1.0233
  334MOL0     H46036   7.680   9.536   6.035 -0.0047  0.2207  0.3797
  334MOL0     H46037   7.784   9.641   5.786  2.7119 -1.9946  3.0134
  334MOL0     H46038   7.650   9.741   5.840 -2.6649 -0.8079 -1.3107
  334MOL0     H46039   7.645   9.431   5.833 -0.5735  0.0649 -0.2835
  334MOL0     H46040   7.505   9.539   5.867 -0.1342  0.0168  0.3223
  334MOL0     H46041   7.761   9.450   5.592 -0.2742 -1.7556 -1.5378
  334MOL0     H46042   7.628   9.414   5.257 -1.1173 -0.9506  2.5760
  334MOL0     H46043   7.770   9.479   5.348 -0.0996 -1.0986  1.4981
  334MOL0     H46044   7.694   9.606   5.138 -2.7518 -1.1439 -0.6813
  334MOL0     H46045   7.540   9.634   5.198  1.7089  0.2853 -3.5460
  334MOL0     H46046   7.792   9.716   5.349  2.2410  1.6836 -1.9297
  334MOL0     H46047   7.721   9.817   5.219  1.3789  2.6206  3.2523
  334MOL0     H46048   7.515   9.779   5.404 -0.1035 -0.4834  1.4095
  334MOL0     H46049   7.651   9.813   5.505 -3.4583 -0.7602  1.2609
  334MOL0     H46050   7.474  10.191   5.460 -1.4390  0.0780 -0.5801
  334MOL0     H46051   7.377  10.469   5.266  3.7666  0.9325  1.3464
  334MOL0     H46052   7.391  10.394   5.420  1.7115 -0.2610 -1.0463
  334MOL0     H46053   7.236  10.386   5.328 -0.7197  0.5917 -3.1429
  334MOL0     H46054   7.011  10.200   4.952  1.7002  1.6565  0.8753
  334MOL0     H46055   6.834  10.212   4.760  0.6103 -1.8543  1.1616
  334MOL0     H46056   6.756  10.135   4.578 -0.8450 -1.7966 -2.3737
  334MOL0     H46057   6.680  10.283   4.489 -1.9561 -1.0474 -1.1415
  334MOL0     H46058   6.777  10.192   4.276 -3.4357 -0.3616 -1.1752
  334MOL0     H46059   6.807  10.043   4.365 -1.7536 -1.8956 -0.2148
  334MOL0     H46060   6.534  10.191   4.358  0.2257  0.8456  0.5031
  334MOL0     H46061   6.578  10.037   4.436 -0.1093 -0.0601  0.6928
  334MOL0     H46062   6.614  10.075   4.128 -0.8768 -1.5101 -1.3144
  334MOL0     H46063   6.464  10.032   4.206  0.8419  1.5250 -0.9878
  334MOL0     H46064   6.586   9.831   4.119  1.6012 -0.1781 -1.4943
  334MOL0     H46065   6.733   9.891   4.199 -0.7677  4.7480  1.3854
  334MOL0     H46066   6.507   9.807   4.370 -0.2317 -1.4716  0.2311
  334MOL0     H46067   6.684   9.839   4.404  1.1379  0.8852 -1.4185
  334MOL0     H46068   6.724   9.629   4.256  0.1389 -1.0075  2.1553
  334MOL0     H46069   6.550   9.606   4.241 -0.0898 -2.7486  1.5135
  334MOL0     H46070   6.726   9.601   4.488 -0.1569 -3.0059  1.8876
  334MOL0     H46071   6.646   9.453   4.414 -1.3908 -0.5963 -0.7618
  334MOL0     H46072   7.135  10.269   4.483 -1.7922 -1.8196 -0.6848
  334MOL0     H46073   7.315  10.299   4.672 -0.0957 -0.3103 -0.4178
  334MOL0     H46074   7.402  10.029   4.995  0.3436  3.4365 -2.2532
  334MOL0     H46075   7.523   9.902   5.149  1.8114  1.3532 -0.3728
  334MOL0     H46076   8.124   9.256   6.141  1.7772 -1.1288 -2.5258
  334MOL0     H46077   8.317   9.116   6.079 -3.2771 -0.7207 -0.2612
  334MOL0     H46078   8.735   8.955   6.303  0.0708 -0.5948  3.3291
  334MOL0     H46079   8.916   8.810   6.259  0.2490 -0.5798 -1.8297
  334MOL0     H46080   9.015   8.606   6.391 -0.9596  1.3552 -2.7338
  334MOL0     H46081   8.884   8.497   6.434  1.8647 -0.0004  0.8164
  334MOL0     H46082   9.007   8.324   6.261  2.9347  0.0121 -0.9884
  334MOL0     H46083   9.094   8.343   6.415 -0.4545  0.6078  1.9422
  334MOL0     H46084   9.136   8.498   6.157  1.9979  1.7456 -0.1556
  334MOL0     H46085   9.211   8.533   6.314  3.7683 -0.8110  0.3731
  334MOL0     H46086   9.258   8.281   6.149  1.4129  1.5230 -1.1246
  334MOL0     H46087   9.314   8.302   6.320  0.2141 -1.8945 -1.3109
  334MOL0     H46088   9.617   8.522   6.164  0.7473 -0.4374 -2.2865
  334MOL0     H46089   8.651   8.469   6.210  0.4732 -1.6330  2.9755
  334MOL0     H46090   8.430   8.503   6.178  0.0702  0.7603 -2.6098
  334MOL0     H46091   8.379   8.599   6.318  1.9775  1.5704  1.4893
  334MOL0     H46092   8.360   8.657   6.145  0.9904 -3.3526 -3.8434
  335MOL0     O46093   2.375   2.861   8.789 -0.4103  0.3176 -0.2654
  335MOL0     C46094   2.283   2.813   8.715 -0.9380  0.8992  0.1795
  335MOL0     O46095   2.196   2.718   8.755 -0.1714  0.1930  0.0765
  335MOL0     C46096   2.230   2.622   8.854  0.0867 -1.5970  0.4663
  335MOL0     C46097   2.123   2.522   8.862  0.4112 -0.4558 -0.3889
  335MOL0     C46098   2.117   2.427   8.961  0.1345 -0.3209 -0.0465
  335MOL0     C46099   2.218   2.412   9.058  0.3365 -0.6782  0.3459
  335MOL0     O46100   2.216   2.313   9.159 -0.5964 -0.1848  0.2331
  335MOL0     C46101   2.119   2.220   9.158 -0.2521  0.6927  0.5510
  335MOL0     C46102   2.161   2.107   9.251 -0.4154  0.4267  0.1163
  335MOL0     C46103   2.039   2.063   9.344 -0.4885 -0.4242 -0.3026
  335MOL0     C46104   2.079   1.934   9.429 -0.0648 -0.1568  0.3492
  335MOL0     C46105   1.975   1.880   9.526 -0.1455  0.2236 -0.5318
  335MOL0     C46106   2.003   1.746   9.602  0.5856  0.4666  0.0687
  335MOL0     C46107   1.918   1.732   9.722 -0.0710 -0.6439 -0.3043
  335MOL0     C46108   1.958   1.610   9.801 -0.1698  0.2683 -0.4327
  335MOL0     N46109   1.877   1.560   9.912  0.0503  0.5927 -0.2225
  335MOL0     C46110   1.928   1.530  10.031 -0.6382 -0.2048 -0.5088
  335MOL0     C46111   1.818   1.510  10.112 -0.6215  0.3636  0.2919
  335MOL0     C46112   1.812   1.455  10.246 -0.6194 -0.5131  0.2456
  335MOL0     C46113   1.896   1.321  10.244 -0.2320 -0.2400  0.6590
  335MOL0     C46114   1.900   1.246  10.379  0.1356 -0.1051  0.3258
  335MOL0     C46115   1.869   1.318  10.517  0.5770 -0.2102  0.0266
  335MOL0     O46116   1.999   1.361  10.570  0.2054 -1.0878  0.0373
  335MOL0     C46117   2.013   1.373  10.705  0.1208  0.1657 -0.0933
  335MOL0     C46118   1.912   1.420  10.791  0.6219 -0.1084  0.7921
  335MOL0     C46119   1.935   1.432  10.927 -0.8503 -0.4059  0.0152
  335MOL0     C46120   1.837   1.511  11.014 -0.2433  0.2610  0.4277
  335MOL0     C46121   2.072   1.399  10.980  0.4098  0.7698 -0.2588
  335MOL0     C46122   2.113   1.414  11.122 -0.4484 -0.0942 -1.3967
  335MOL0     O46123   2.246   1.403  11.146  0.1260 -1.0108  0.4102
  335MOL0     C46124   2.290   1.399  11.275  0.4568  0.3181  0.0799
  335MOL0     C46125   2.397   1.484  11.322  0.1884 -0.2632 -0.3338
  335MOL0     C46126   2.443   1.484  11.452  0.3696 -0.2501 -0.0693
  335MOL0     C46127   2.390   1.399  11.545 -0.0420  0.2698  0.1772
  335MOL0     O46128   2.453   1.395  11.668  0.6058 -0.2547 -0.6648
  335MOL0     C46129   2.439   1.283  11.754  0.4181 -0.3741 -0.4556
  335MOL0     C46130   2.520   1.297  11.876  0.1246 -0.4167 -0.5035
  335MOL0     C46131   2.526   1.162  11.947 -0.3991  0.1273  0.7589
  335MOL0     C46132   2.391   1.108  11.999  0.3489  1.0397 -0.7708
  335MOL0     C46133   2.412   1.011  12.115 -0.1457 -1.1171  0.6906
  335MOL0     C46134   2.277   0.976  12.171 -1.0895  0.8356  0.0037
  335MOL0     C46135   2.291   0.849  12.262 -0.1297 -0.7455  0.2749
  335MOL0     C46136   2.153   0.836  12.334 -0.2549  0.2578 -0.5128
  335MOL0    Cl46137   2.121   0.971  12.454 -0.2712 -0.1502  0.2934
  335MOL0     C46138   2.294   1.304  11.501 -0.8227 -0.0914 -0.4108
  335MOL0     C46139   2.254   1.304  11.369 -0.7309  0.8631 -0.7415
  335MOL0     O46140   2.028   1.434  11.216 -1.0631  0.4732  0.1322
  335MOL0     C46141   2.169   1.358  10.889 -0.2242  0.1636 -0.1796
  335MOL0     C46142   2.142   1.349  10.753 -0.2429 -0.8531  0.0136
  335MOL0     N46143   1.701   1.524  10.032  0.1984  0.7973 -0.5311
  335MOL0     N46144   1.748   1.571   9.915 -0.4278 -0.0714  0.0397
  335MOL0     C46145   2.324   2.503   9.044 -0.5777  0.0498 -0.6500
  335MOL0     C46146   2.340   2.611   8.941  0.8753  0.0953 -0.0893
  335MOL0     C46147   2.261   2.866   8.580  0.1826 -0.4220  0.0101
  335MOL0     C46148   2.160   2.814   8.509  0.1466  0.8608  0.1789
  335MOL0     C46149   2.161   2.824   8.369  0.1386 -0.6857 -0.2222
  335MOL0     C46150   2.253   2.907   8.307  0.2305 -0.4717 -0.2466
  335MOL0     O46151   2.238   2.942   8.177 -1.2918  0.2361  0.0642
  335MOL0     C46152   2.190   2.854   8.088 -0.7996 -0.2636  0.0228
  335MOL0     C46153   2.173   2.933   7.953 -0.2756  0.5892 -0.0537
  335MOL0     C46154   2.059   3.028   7.957  0.2986 -1.3161 -0.3577
  335MOL0     C46155   2.043   3.130   7.843 -0.4342 -0.0516 -0.3787
  335MOL0     C46156   1.925   3.225   7.864 -0.6363  1.2373 -0.1130
  335MOL0     C46157   1.841   3.307   7.879 -0.2658  0.0997 -0.0971
  335MOL0     C46158   2.342   2.978   8.382  0.6583  0.7615 -0.0408
  335MOL0     C46159   2.352   2.951   8.519 -0.3027  0.1920  0.4812
  335MOL0     C46160   2.452   3.028   8.600 -0.5166 -0.1549  0.3178
  335MOL0     H46161   2.038   2.527   8.794  1.4371 -1.4511 -1.8099
  335MOL0     H46162   2.024   2.371   8.968  0.0928 -0.2555 -0.0709
  335MOL0     H46163   2.095   2.186   9.056 -0.0553 -3.3929  1.6974
  335MOL0     H46164   2.034   2.276   9.198  2.3595  7.6183 -2.1178
  335MOL0     H46165   2.194   2.021   9.192  2.2207  1.9042 -0.7368
  335MOL0     H46166   2.245   2.131   9.317 -2.9695  3.7325  2.5327
  335MOL0     H46167   2.011   2.138   9.418  0.2154  0.4351 -0.8807
  335MOL0     H46168   1.949   2.051   9.282  0.5481 -0.6626 -1.8213
  335MOL0     H46169   2.094   1.850   9.361 -1.8701 -0.9332  0.8640
  335MOL0     H46170   2.176   1.949   9.478 -0.4449  2.6928  0.4164
  335MOL0     H46171   1.878   1.899   9.478 -0.2679  0.0361 -0.3597
  335MOL0     H46172   1.979   1.956   9.605  2.1605 -0.0690 -0.3051
  335MOL0     H46173   1.986   1.660   9.537 -1.0202  3.1750 -3.4195
  335MOL0     H46174   2.106   1.743   9.638  0.0331  0.8759  1.7667
  335MOL0     H46175   1.815   1.727   9.686 -0.1051 -2.3940 -0.0624
  335MOL0     H46176   1.927   1.826   9.776 -1.4379  1.9567 -4.1351
  335MOL0     H46177   1.971   1.532   9.726 -1.0323 -1.3999  1.0948
  335MOL0     H46178   2.059   1.632   9.837 -0.7897  2.0133  0.3847
  335MOL0     H46179   2.032   1.518  10.060 -1.1494 -2.5149  0.6334
  335MOL0     H46180   1.710   1.425  10.267 -0.2688 -1.5606  0.4937
  335MOL0     H46181   1.857   1.529  10.313  0.5233  0.1437 -1.1901
  335MOL0     H46182   1.859   1.257  10.164  0.7779  1.0805 -0.9443
  335MOL0     H46183   1.999   1.345  10.215  0.5831  1.3786  4.3092
  335MOL0     H46184   1.835   1.158  10.376  0.8837 -0.7630  1.9386
  335MOL0     H46185   1.993   1.194  10.403  0.0694 -0.0903  0.6289
  335MOL0     H46186   1.796   1.399  10.503 -0.6407 -1.1670  0.6156
  335MOL0     H46187   1.824   1.243  10.583  0.9501 -0.9016 -0.4956
  335MOL0     H46188   1.831   1.480  10.749  0.2824  0.3427  2.0647
  335MOL0     H46189   1.747   1.540  10.961 -0.4239  0.4491  0.8379
  335MOL0     H46190   1.879   1.605  11.050  0.7020  0.3812 -0.8992
  335MOL0     H46191   1.808   1.443  11.095  0.3561 -0.5598 -0.0172
  335MOL0     H46192   2.431   1.560  11.252 -0.4427  0.8377  0.5225
  335MOL0     H46193   2.510   1.562  11.487  0.5305  0.7859 -2.4941
  335MOL0     H46194   2.334   1.261  11.776  0.2626 -0.2283 -1.0492
  335MOL0     H46195   2.484   1.198  11.701  1.8631 -0.1811  0.3903
  335MOL0     H46196   2.621   1.333  11.853 -0.4531  1.7829  0.1125
  335MOL0     H46197   2.471   1.369  11.943  2.0525 -0.0170  0.5409
  335MOL0     H46198   2.607   1.161  12.020 -1.5114 -0.4810  2.0079
  335MOL0     H46199   2.562   1.101  11.863 -1.7594  1.6489 -1.0327
  335MOL0     H46200   2.342   1.055  11.917 -1.0714  1.8996 -0.5032
  335MOL0     H46201   2.314   1.180  12.025 -0.1644  0.7511 -1.4591
  335MOL0     H46202   2.467   0.923  12.081  0.5356 -1.0261  1.5256
  335MOL0     H46203   2.464   1.061  12.197 -1.3669  0.4973  0.5333
  335MOL0     H46204   2.205   0.947  12.094 -1.7241 -3.1829  1.8543
  335MOL0     H46205   2.229   1.060  12.223 -1.1341  1.1082 -0.4778
  335MOL0     H46206   2.378   0.853  12.329  0.7870  1.7970 -0.9196
  335MOL0     H46207   2.306   0.761  12.199  1.9097 -0.9182  0.9202
  335MOL0     H46208   2.157   0.745  12.394 -0.1047  0.5481 -0.0785
  335MOL0     H46209   2.066   0.830  12.268  0.7431  1.1002 -1.9389
  335MOL0     H46210   2.259   1.226  11.568  1.6207 -2.0823 -1.2817
  335MOL0     H46211   2.171   1.242  11.338  1.3519 -1.7324 -1.4508
  335MOL0     H46212   2.269   1.329  10.916 -0.9669 -1.7281  0.7291
  335MOL0     H46213   2.226   1.333  10.685  0.1557 -1.3233  0.6000
  335MOL0     H46214   2.407   2.507   9.114 -0.6820 -1.3823 -0.4061
  335MOL0     H46215   2.420   2.682   8.928  0.8870 -0.0991 -1.2050
  335MOL0     H46216   2.087   2.746   8.553  1.8158 -0.5759  0.8111
  335MOL0     H46217   2.083   2.776   8.311 -0.1233  0.3591 -0.7647
  335MOL0     H46218   2.261   2.771   8.080  2.4982  2.3066  0.7186
  335MOL0     H46219   2.089   2.818   8.111 -1.0714  0.9052  0.7395
  335MOL0     H46220   2.149   2.861   7.874 -2.0982 -0.1043  1.0623
  335MOL0     H46221   2.261   2.991   7.924  1.0263  0.2024  2.7402
  335MOL0     H46222   1.974   2.961   7.943 -0.3949 -0.3160 -1.0440
  335MOL0     H46223   2.058   3.078   8.055  0.8884 -1.6147 -0.1952
  335MOL0     H46224   2.021   3.062   7.760  1.9847 -0.9927 -0.3081
  335MOL0     H46225   2.132   3.192   7.827 -0.9283  1.1534  1.2763
  335MOL0     H46226   1.761   3.377   7.882 -0.7294 -0.4234 -0.1734
  335MOL0     H46227   2.405   3.049   8.331  3.7880 -2.2306 -0.7092
  335MOL0     H46228   2.497   3.107   8.540 -0.3669 -0.9434 -0.6273
  335MOL0     H46229   2.402   3.073   8.686 -0.5894  0.9100 -0.2594
  335MOL0     H46230   2.531   2.958   8.629  1.2486  2.0464  1.0754
  336MOL0     O46231  10.254   3.579   6.780  0.2378 -0.1693  0.2684
  336MOL0     C46232  10.279   3.561   6.664 -0.6973 -0.3355 -0.1574
  336MOL0     O46233  10.408   3.573   6.612  0.7541 -0.6476  0.1077
  336MOL0     C46234  10.503   3.632   6.686  0.1372  0.0935 -0.0206
  336MOL0     C46235  10.623   3.570   6.704  0.1791  0.9795  0.5293
  336MOL0     C46236  10.720   3.639   6.782  0.0684 -0.2217 -0.3343
  336MOL0     C46237  10.697   3.765   6.844 -0.1908  0.3564  0.9901
  336MOL0     O46238  10.810   3.824   6.914  0.2313  0.4190  0.2801
  336MOL0     C46239  10.796   3.957   6.967 -0.0714  0.3168  0.1837
  336MOL0     C46240  10.937   4.024   6.981 -0.0180  0.5460  0.2651
  336MOL0     C46241  11.042   3.925   7.033 -0.8750 -1.2097 -0.4215
  336MOL0     C46242  11.181   3.991   7.071  0.2294 -0.3844 -0.6984
  336MOL0     C46243  11.286   3.883   7.107  0.0272  0.0255 -0.7038
  336MOL0     C46244  11.271   3.813   7.247  0.0558 -0.1261 -0.5068
  336MOL0     C46245  11.172   3.691   7.242 -0.3853  0.1678 -0.4610
  336MOL0     C46246  11.185   3.609   7.368 -0.0929  0.0327 -0.9743
  336MOL0     N46247  11.317   3.569   7.422 -0.0754  1.1136  0.8231
  336MOL0     C46248  11.411   3.639   7.496  0.9615  0.4523  0.8608
  336MOL0     C46249  11.504   3.551   7.521 -0.2749  0.5042 -0.3417
  336MOL0     C46250  11.635   3.592   7.586 -0.8416  0.7742  0.0076
  336MOL0     C46251  11.624   3.705   7.697  1.2918 -0.0345  0.1400
  336MOL0     C46252  11.759   3.724   7.760  1.3099 -0.3098 -0.3885
  336MOL0     C46253  11.785   3.853   7.842  0.0930 -1.2147  0.3818
  336MOL0     O46254  11.921   3.833   7.890 -0.4694 -0.6318 -0.1785
  336MOL0     C46255  12.005   3.942   7.904  0.3578 -0.1570  0.0030
  336MOL0     C46256  12.122   3.914   7.980 -0.0632 -0.1196  0.2906
  336MOL0     C46257  12.220   4.014   8.002  0.1825  0.5623 -0.9216
  336MOL0     C46258  12.352   3.983   8.076 -0.3777  0.1951  0.4826
  336MOL0     C46259  12.206   4.136   7.932  0.8129 -0.4299 -0.1916
  336MOL0     C46260  12.312   4.244   7.942  0.7762  0.1778  0.5717
  336MOL0     O46261  12.311   4.338   7.837 -0.2239 -1.6490 -1.0933
  336MOL0     C46262  12.384   4.455   7.857 -1.0162 -0.2386 -0.6247
  336MOL0     C46263  12.334   4.558   7.942  0.7489 -0.5568  0.0988
  336MOL0     C46264  12.398   4.684   7.955  0.0190 -0.4910 -0.2610
  336MOL0     C46265  12.515   4.716   7.884 -0.8494  0.6709  0.1470
  336MOL0     O46266  12.555   4.842   7.902 -0.1224 -0.1275  0.1031
  336MOL0     C46267  12.616   4.906   7.783  0.0142 -0.2313 -0.1386
  336MOL0     C46268  12.609   5.061   7.794 -0.3009  0.7027  0.3781
  336MOL0     C46269  12.558   5.124   7.661 -0.3307  0.1572  0.6074
  336MOL0     C46270  12.574   5.272   7.647 -0.0776  0.8532  0.1745
  336MOL0     C46271  12.533   5.324   7.517 -0.9344 -0.4851 -0.1832
  336MOL0     C46272  12.619   5.287   7.397  0.7153 -0.0523  0.0336
  336MOL0     C46273  12.557   5.316   7.264  0.0308  1.1071  0.0333
  336MOL0     C46274  12.464   5.207   7.220  0.4437 -0.3504  0.5609
  336MOL0    Cl46275  12.444   5.200   7.036  0.3005 -0.0856  0.4188
  336MOL0     C46276  12.561   4.610   7.795 -0.6083  0.1262  0.2038
  336MOL0     C46277  12.499   4.482   7.784 -0.5166 -0.2306 -0.0052
  336MOL0     O46278  12.386   4.252   8.037  0.1001  0.6871 -0.8855
  336MOL0     C46279  12.094   4.157   7.847 -0.3714 -0.3382 -0.1148
  336MOL0     C46280  11.991   4.062   7.838  0.0559  0.5952  0.5552
  336MOL0     N46281  11.478   3.431   7.464  0.6716  0.0334  0.3357
  336MOL0     N46282  11.358   3.437   7.420 -0.1859 -0.0198 -0.4132
  336MOL0     C46283  10.575   3.826   6.822  0.8078 -0.0188  0.6398
  336MOL0     C46284  10.475   3.757   6.746 -0.7199  0.2228  1.2918
  336MOL0     C46285  10.176   3.512   6.569 -0.6084  0.0348  0.9738
  336MOL0     C46286  10.190   3.539   6.430 -0.1916  1.1292  0.0694
  336MOL0     C46287  10.095   3.506   6.335  1.1181  1.0214  0.1327
  336MOL0     C46288   9.977   3.449   6.376  1.0621  0.3809 -0.1221
  336MOL0     O46289   9.867   3.409   6.303 -0.4528 -0.3579 -0.0421
  336MOL0     C46290   9.853   3.461   6.168 -0.2917  0.3079  0.0747
  336MOL0     C46291   9.702   3.465   6.121 -0.6812  0.2130 -0.2816
  336MOL0     C46292   9.623   3.337   6.178 -0.2736  0.0223  0.0559
  336MOL0     C46293   9.485   3.317   6.118  0.9009 -0.0220 -0.9255
  336MOL0     C46294   9.396   3.425   6.163 -0.3900 -0.1429  0.2849
  336MOL0     C46295   9.307   3.502   6.184  0.4847 -0.0942 -0.5873
  336MOL0     C46296   9.956   3.423   6.510  0.1855 -0.5379 -0.6396
  336MOL0     C46297  10.054   3.457   6.610  0.3029 -0.1845  0.1376
  336MOL0     C46298   9.999   3.419   6.752 -0.4080 -0.8922  0.6100
  336MOL0     H46299  10.638   3.471   6.662 -1.5227  1.0246 -0.2620
  336MOL0     H46300  10.824   3.606   6.788  0.5437  0.8127 -2.1903
  336MOL0     H46301  10.759   3.945   7.070  0.9390  1.5506  0.7062
  336MOL0     H46302  10.725   4.011   6.903  3.0799  1.7080 -2.3895
  336MOL0     H46303  10.973   4.056   6.882  0.1195 -1.0443 -0.2243
  336MOL0     H46304  10.928   4.111   7.047  1.8216  0.0783  1.2064
  336MOL0     H46305  10.998   3.885   7.125 -0.6864  0.8704  0.6323
  336MOL0     H46306  11.057   3.841   6.965  2.6109 -0.4256 -0.8011
  336MOL0     H46307  11.216   4.050   6.986 -1.3859 -1.2205 -2.0085
  336MOL0     H46308  11.161   4.059   7.154  0.1859  0.4658 -1.3890
  336MOL0     H46309  11.384   3.932   7.116  0.0771 -0.0513 -0.8135
  336MOL0     H46310  11.290   3.806   7.029  2.5765 -1.2734  0.5884
  336MOL0     H46311  11.367   3.776   7.283  0.7829  1.0676 -1.1517
  336MOL0     H46312  11.234   3.884   7.322 -0.6917  0.0263 -1.0066
  336MOL0     H46313  11.204   3.624   7.161  3.7943 -0.8662  1.7338
  336MOL0     H46314  11.065   3.704   7.225  0.2191  4.7209 -2.1652
  336MOL0     H46315  11.139   3.664   7.451  1.3490 -0.2194  0.0227
  336MOL0     H46316  11.132   3.514   7.355 -0.0488 -0.2580  0.7325
  336MOL0     H46317  11.405   3.744   7.522 -1.3804  0.2900  1.1860
  336MOL0     H46318  11.710   3.614   7.509 -1.2386 -1.3097 -1.0344
  336MOL0     H46319  11.680   3.503   7.631  2.9565  1.9826 -1.0277
  336MOL0     H46320  11.602   3.800   7.646 -0.6251 -0.3299  0.3335
  336MOL0     H46321  11.543   3.675   7.765 -1.0520  1.4461 -1.8002
  336MOL0     H46322  11.756   3.641   7.831 -0.4019  0.0038 -0.0464
  336MOL0     H46323  11.843   3.706   7.691 -0.5236 -2.5565 -2.1979
  336MOL0     H46324  11.766   3.940   7.779  0.8056 -0.2932  1.4073
  336MOL0     H46325  11.716   3.859   7.926 -0.2557  1.5505 -0.0109
  336MOL0     H46326  12.131   3.823   8.039 -2.1029  0.7633  2.0999
  336MOL0     H46327  12.443   3.990   8.016 -0.5550 -1.6351 -0.0791
  336MOL0     H46328  12.348   3.879   8.110 -0.6175 -0.1973 -0.7254
  336MOL0     H46329  12.368   4.058   8.154  0.1759 -1.2927  1.8676
  336MOL0     H46330  12.245   4.530   7.998  1.4558  1.6432  2.5063
  336MOL0     H46331  12.367   4.745   8.039  0.7716  0.1014 -0.4054
  336MOL0     H46332  12.719   4.871   7.777  0.4825  1.0703  0.0371
  336MOL0     H46333  12.567   4.868   7.693 -0.7031 -2.4504  1.1165
  336MOL0     H46334  12.542   5.093   7.874 -0.2870 -1.2861  1.2468
  336MOL0     H46335  12.712   5.097   7.806  1.3365 -1.4032 -4.6489
  336MOL0     H46336  12.451   5.108   7.652 -0.6656  2.2978  0.1324
  336MOL0     H46337  12.608   5.071   7.580 -1.9123 -2.5629  1.2924
  336MOL0     H46338  12.683   5.281   7.650  0.1510 -0.6385 -1.5315
  336MOL0     H46339  12.529   5.331   7.727 -2.2757  0.9577 -1.0677
  336MOL0     H46340  12.432   5.287   7.499 -2.1312  1.2380  2.4608
  336MOL0     H46341  12.530   5.433   7.515  3.2838 -0.2066 -1.6230
  336MOL0     H46342  12.653   5.183   7.407  2.3282  0.5773  1.7368
  336MOL0     H46343  12.709   5.350   7.400  1.3299 -0.6732 -2.7592
  336MOL0     H46344  12.641   5.321   7.194 -1.2526  1.1521 -1.5725
  336MOL0     H46345  12.501   5.410   7.269 -0.9526  0.6607 -1.7369
  336MOL0     H46346  12.366   5.222   7.267  0.3021  0.7966 -0.0575
  336MOL0     H46347  12.510   5.112   7.248  5.2250  1.6641  0.4235
  336MOL0     H46348  12.651   4.621   7.735 -2.3255  1.5053 -2.3356
  336MOL0     H46349  12.541   4.394   7.735  0.8187 -0.5985  1.6892
  336MOL0     H46350  12.078   4.254   7.800 -1.3402 -0.5701 -0.2834
  336MOL0     H46351  11.916   4.077   7.762 -0.9517 -0.5629  1.2915
  336MOL0     H46352  10.552   3.926   6.857  1.2907  0.6717 -0.9535
  336MOL0     H46353  10.380   3.809   6.740 -1.7998 -1.5105  2.3541
  336MOL0     H46354  10.274   3.592   6.386 -1.3290  3.0136  0.0626
  336MOL0     H46355  10.109   3.518   6.228  0.7497 -3.3854 -0.6071
  336MOL0     H46356   9.893   3.563   6.163 -0.0583  0.1576 -1.8632
  336MOL0     H46357   9.916   3.403   6.100  0.0789  1.1328 -0.2962
  336MOL0     H46358   9.696   3.467   6.012 -1.1262 -1.9992 -0.3459
  336MOL0     H46359   9.659   3.558   6.160  0.6642 -0.1355  2.2167
  336MOL0     H46360   9.688   3.250   6.164  0.1702  0.0925  1.4532
  336MOL0     H46361   9.605   3.357   6.284 -3.6626  0.4992 -0.4995
  336MOL0     H46362   9.448   3.222   6.156 -2.4273  0.8556 -1.5657
  336MOL0     H46363   9.481   3.320   6.008  1.4156 -1.5824 -1.0115
  336MOL0     H46364   9.219   3.557   6.213 -2.7888 -3.8080 -2.4521
  336MOL0     H46365   9.856   3.392   6.538 -0.4274  0.4261 -1.6574
  336MOL0     H46366  10.070   3.346   6.791 -0.9118 -3.4342 -2.7309
  336MOL0     H46367   9.981   3.504   6.818  0.9619  0.7533 -1.0134
  336MOL0     H46368   9.908   3.359   6.753 -1.5286  0.7072  3.1086
  337MOL0     O46369   9.468   7.959   2.530 -0.5095  0.1372  0.0624
  337MOL0     C46370   9.399   8.059   2.511  0.5154  0.4609 -0.0746
  337MOL0     O46371   9.354   8.112   2.398 -0.3052 -0.0945  0.3309
  337MOL0     C46372   9.403   8.064   2.275 -0.6481  0.0080  0.5679
  337MOL0     C46373   9.509   7.981   2.248 -0.3301 -0.0461  0.9735
  337MOL0     C46374   9.550   7.966   2.111 -0.6164  0.8517 -0.1085
  337MOL0     C46375   9.478   8.023   1.999 -0.6520  0.4574 -0.1840
  337MOL0     O46376   9.515   7.979   1.876  0.6629  0.3608  0.1189
  337MOL0     C46377   9.433   7.987   1.761 -0.3370 -0.3804 -0.8754
  337MOL0     C46378   9.498   7.905   1.645  0.7161  0.1575  0.0693
  337MOL0     C46379   9.514   7.755   1.688 -0.1687  0.1398 -0.0273
  337MOL0     C46380   9.590   7.682   1.582  0.2596 -0.2437 -0.1667
  337MOL0     C46381   9.750   7.693   1.559 -0.3537 -0.2278  0.1539
  337MOL0     C46382   9.787   7.664   1.411 -0.0028  0.0478  0.0179
  337MOL0     C46383   9.940   7.677   1.374  0.3827 -0.1417  1.0793
  337MOL0     C46384   9.954   7.605   1.238  0.4557  0.2546 -0.2672
  337MOL0     N46385  10.081   7.634   1.178 -0.2573  0.2998 -0.2762
  337MOL0     C46386  10.104   7.744   1.110  0.4116 -0.2712 -0.7293
  337MOL0     C46387  10.231   7.745   1.073 -0.5817  0.1936 -0.5846
  337MOL0     C46388  10.304   7.861   1.001  0.2798  0.2843  0.6419
  337MOL0     C46389  10.303   7.987   1.086 -0.7665  1.3913 -0.2144
  337MOL0     C46390  10.430   7.993   1.168  0.1356 -0.3461  0.4082
  337MOL0     C46391  10.407   8.113   1.259  1.3420  0.6106 -0.2358
  337MOL0     O46392  10.485   8.111   1.379  0.4441 -0.1349  0.7487
  337MOL0     C46393  10.586   8.201   1.400  0.5627 -0.0881 -0.4713
  337MOL0     C46394  10.664   8.174   1.508  0.2074 -0.1432  1.2748
  337MOL0     C46395  10.755   8.271   1.551  0.9281  0.4605  0.0991
  337MOL0     C46396  10.823   8.235   1.680 -0.0035  0.4476 -0.4983
  337MOL0     C46397  10.773   8.386   1.477 -0.7848  0.7891 -0.7441
  337MOL0     C46398  10.876   8.478   1.537 -1.4324  0.8871  0.9434
  337MOL0     O46399  10.848   8.604   1.574  0.2738  0.1104  0.2168
  337MOL0     C46400  10.935   8.699   1.635 -0.2202 -0.7446 -0.0031
  337MOL0     C46401  10.930   8.749   1.767  1.4866  0.4492 -0.3513
  337MOL0     C46402  11.028   8.822   1.829  0.2630  0.9647 -0.6989
  337MOL0     C46403  11.132   8.872   1.746  0.5905  0.8718  0.2631
  337MOL0     O46404  11.231   8.953   1.789  0.1919  0.1764 -0.5212
  337MOL0     C46405  11.238   8.975   1.922  0.3412 -0.4973  0.5101
  337MOL0     C46406  11.379   9.019   1.952  0.3871 -0.5330 -0.0150
  337MOL0     C46407  11.412   9.028   2.105  0.0541  0.1255 -0.1739
  337MOL0     C46408  11.543   9.100   2.117  0.0200 -0.6587 -0.9477
  337MOL0     C46409  11.575   9.156   2.266 -0.5099  0.1653 -0.1754
  337MOL0     C46410  11.625   9.296   2.256 -0.6323 -0.6473  0.3165
  337MOL0     C46411  11.766   9.320   2.205 -0.2361  0.3682 -0.5535
  337MOL0     C46412  11.787   9.471   2.178  0.1969 -0.5893  0.3171
  337MOL0    Cl46413  11.693   9.526   2.037 -0.1232  0.3008 -0.2934
  337MOL0     C46414  11.124   8.832   1.607 -1.1538  0.0875 -0.6211
  337MOL0     C46415  11.035   8.744   1.556 -0.1266  0.6077  0.2652
  337MOL0     O46416  10.991   8.427   1.534  0.1502  0.0412  0.2630
  337MOL0     C46417  10.711   8.407   1.360  0.1833 -0.2272 -0.2665
  337MOL0     C46418  10.606   8.324   1.330  0.1495 -0.4628  0.9148
  337MOL0     N46419  10.284   7.618   1.110  0.2740  0.3363  0.3574
  337MOL0     N46420  10.194   7.556   1.190 -0.6539 -0.6092  0.2132
  337MOL0     C46421   9.378   8.109   2.032  0.8048 -0.0691 -0.7212
  337MOL0     C46422   9.344   8.132   2.164 -0.6288  0.2924 -0.4505
  337MOL0     C46423   9.365   8.132   2.636  0.6167  0.4247  0.0203
  337MOL0     C46424   9.373   8.272   2.634 -0.2479 -0.0771  0.4458
  337MOL0     C46425   9.352   8.343   2.754  0.4595  0.6617 -0.3834
  337MOL0     C46426   9.302   8.269   2.868  0.4633 -0.2845 -0.5458
  337MOL0     O46427   9.266   8.348   2.977  0.0850  0.1327  0.5046
  337MOL0     C46428   9.151   8.331   3.064 -0.6984 -0.1366 -0.6357
  337MOL0     C46429   9.023   8.370   2.999 -0.1599  0.1324  1.2424
  337MOL0     C46430   9.032   8.513   2.942 -0.3232  0.0987  0.8203
  337MOL0     C46431   8.891   8.582   2.935 -0.1172  0.3958  0.3218
  337MOL0     C46432   8.862   8.634   3.068  1.0888  0.9406 -0.2539
  337MOL0     C46433   8.832   8.670   3.178  0.2592  0.3886 -0.0126
  337MOL0     C46434   9.276   8.134   2.856  0.0755  0.8206 -0.5111
  337MOL0     C46435   9.311   8.060   2.747 -0.7059 -0.8277  0.4024
  337MOL0     C46436   9.280   7.913   2.742 -0.1189  0.2347 -0.0399
  337MOL0     H46437   9.573   7.932   2.321  4.3574  0.8017 -2.0831
  337MOL0     H46438   9.630   7.898   2.084 -3.7037 -1.9120 -3.2082
  337MOL0     H46439   9.420   8.091   1.731 -2.4172  0.8917  3.6304
  337MOL0     H46440   9.331   7.950   1.779  0.0274 -1.3994 -0.8413
  337MOL0     H46441   9.424   7.904   1.564  1.3507  2.5339 -0.6203
  337MOL0     H46442   9.591   7.955   1.614 -0.6613  2.2241 -1.0419
  337MOL0     H46443   9.570   7.744   1.781  0.0540 -0.2551 -0.2027
  337MOL0     H46444   9.417   7.705   1.701 -0.3102  0.6155  0.8106
  337MOL0     H46445   9.576   7.574   1.588  2.3087 -1.0173 -4.7664
  337MOL0     H46446   9.542   7.717   1.490 -0.1112  3.1951  1.2000
  337MOL0     H46447   9.804   7.619   1.619  1.0145  0.6033  0.0018
  337MOL0     H46448   9.779   7.796   1.583 -1.2239  0.0610  0.0127
  337MOL0     H46449   9.763   7.560   1.391 -2.6106  0.7777 -0.9905
  337MOL0     H46450   9.736   7.732   1.342  3.2943  1.8650 -0.8803
  337MOL0     H46451  10.006   7.630   1.447  1.0004 -1.8864 -0.5165
  337MOL0     H46452   9.966   7.781   1.356 -0.5034 -0.4474 -2.9868
  337MOL0     H46453   9.947   7.497   1.256 -0.6665  0.4655  0.7198
  337MOL0     H46454   9.867   7.633   1.178 -0.3554 -0.9683  0.2950
  337MOL0     H46455  10.026   7.818   1.096  0.6935  1.2614  4.0550
  337MOL0     H46456  10.257   7.884   0.904  0.4355  0.8882  0.7068
  337MOL0     H46457  10.404   7.834   0.966 -0.4110 -0.4363 -0.8987
  337MOL0     H46458  10.302   8.080   1.027 -0.7510  1.0922 -0.6909
  337MOL0     H46459  10.213   7.985   1.148 -2.1218 -0.1521 -2.0942
  337MOL0     H46460  10.446   7.901   1.224 -4.0197  0.3154  3.0794
  337MOL0     H46461  10.521   8.020   1.112 -1.0752  2.8060 -0.2481
  337MOL0     H46462  10.420   8.203   1.197 -3.3659  4.0513  3.0037
  337MOL0     H46463  10.305   8.111   1.300  1.8045 -1.2722  0.9243
  337MOL0     H46464  10.630   8.096   1.575 -2.2269 -0.0687  0.2336
  337MOL0     H46465  10.933   8.236   1.678 -0.0107 -0.0317 -1.8855
  337MOL0     H46466  10.794   8.142   1.730  2.8156 -0.5813 -0.5717
  337MOL0     H46467  10.789   8.309   1.752 -1.4534 -1.5003  0.9498
  337MOL0     H46468  10.830   8.725   1.800  0.7143  0.4587 -2.5661
  337MOL0     H46469  11.028   8.851   1.934 -2.7065 -0.8735 -0.0605
  337MOL0     H46470  11.176   9.062   1.946 -0.3478  0.1855 -3.2212
  337MOL0     H46471  11.207   8.893   1.988 -2.2336  0.6717  0.8940
  337MOL0     H46472  11.458   8.956   1.909 -0.5107 -2.8558  1.5033
  337MOL0     H46473  11.380   9.118   1.907 -0.3516 -1.9394 -3.4687
  337MOL0     H46474  11.417   8.930   2.153 -1.3658  0.8053  1.4691
  337MOL0     H46475  11.335   9.082   2.160  2.6805 -0.1137  4.2507
  337MOL0     H46476  11.561   9.181   2.046  2.6772  0.6313  1.0369
  337MOL0     H46477  11.627   9.030   2.103  1.0102  0.4368 -0.6799
  337MOL0     H46478  11.488   9.153   2.333 -0.8464 -0.5620 -0.6317
  337MOL0     H46479  11.641   9.084   2.317  0.4569  1.3841  0.3313
  337MOL0     H46480  11.631   9.338   2.357 -0.7800 -1.5786  0.7175
  337MOL0     H46481  11.554   9.357   2.200  0.2835 -1.6566 -2.0370
  337MOL0     H46482  11.783   9.254   2.120 -0.7542 -2.1510  1.1858
  337MOL0     H46483  11.838   9.286   2.280 -0.2884  0.3307 -0.5205
  337MOL0     H46484  11.888   9.501   2.150  0.5603  2.5521  4.1032
  337MOL0     H46485  11.770   9.537   2.264 -0.3222  0.2084 -0.3778
  337MOL0     H46486  11.210   8.860   1.546  1.7241 -1.5874  2.3561
  337MOL0     H46487  11.045   8.705   1.455  0.0309  0.3529  0.3783
  337MOL0     H46488  10.717   8.496   1.299 -1.6123 -2.0154 -3.3095
  337MOL0     H46489  10.541   8.350   1.247  0.4052 -1.4926  0.3588
  337MOL0     H46490   9.317   8.150   1.952  1.3636 -1.1145 -1.7158
  337MOL0     H46491   9.274   8.212   2.187  0.0569  0.7901 -0.0223
  337MOL0     H46492   9.405   8.320   2.542 -1.4670  0.0428  0.0707
  337MOL0     H46493   9.358   8.451   2.750  2.9116  0.5591 -1.6321
  337MOL0     H46494   9.131   8.230   3.102 -2.9394  1.1164  1.8431
  337MOL0     H46495   9.166   8.389   3.156 -0.9630 -0.9902 -0.0347
  337MOL0     H46496   8.939   8.357   3.068 -1.8387  0.6663 -0.6070
  337MOL0     H46497   8.994   8.303   2.917  1.3745  0.9627 -0.0290
  337MOL0     H46498   9.107   8.574   2.992  3.6344 -2.0832 -1.9147
  337MOL0     H46499   9.067   8.510   2.838 -3.9188  0.3357 -0.5573
  337MOL0     H46500   8.810   8.512   2.913 -1.2521  1.4993  0.8679
  337MOL0     H46501   8.866   8.660   2.862 -3.3094 -2.9344 -2.5420
  337MOL0     H46502   8.805   8.713   3.272 -1.0898  2.6124 -1.3329
  337MOL0     H46503   9.219   8.085   2.934 -0.8263  1.4386 -0.7690
  337MOL0     H46504   9.232   7.880   2.650 -2.8562 -0.1317  1.4099
  337MOL0     H46505   9.374   7.857   2.747 -0.0260  0.5000  2.3372
  337MOL0     H46506   9.224   7.886   2.832 -1.4206  1.2271 -0.5226
  338MOL0     O46507   0.875  10.722   3.688  1.1162  0.1852 -0.0768
  338MOL0     C46508   0.921  10.655   3.780  0.3942  0.1747  0.6382
  338MOL0     O46509   0.884  10.535   3.816 -0.3863  0.7491  0.1692
  338MOL0     C46510   0.802  10.457   3.745 -0.1024  0.1420 -0.3874
  338MOL0     C46511   0.703  10.400   3.831  0.1663  0.4936  0.7530
  338MOL0     C46512   0.590  10.339   3.770  0.3907  1.4608 -0.1833
  338MOL0     C46513   0.572  10.338   3.635  0.7183  0.2480  0.0920
  338MOL0     O46514   0.459  10.274   3.596  0.3299 -0.2100  0.0087
  338MOL0     C46515   0.404  10.302   3.461 -0.2558 -0.2129 -0.5902
  338MOL0     C46516   0.261  10.229   3.443  0.3395  0.0913  1.1274
  338MOL0     C46517   0.270  10.077   3.488  0.4976 -0.1564 -0.4556
  338MOL0     C46518   0.173   9.997   3.404  0.4276 -0.1067 -0.1025
  338MOL0     C46519   0.168   9.852   3.441 -0.7171 -0.1356  0.1368
  338MOL0     C46520   0.068   9.781   3.342 -0.2965 -0.0861  0.0177
  338MOL0     C46521   0.047   9.636   3.381 -0.6075  0.2000 -0.0485
  338MOL0     C46522  -0.101   9.618   3.426 -0.9344  0.5896  0.5548
  338MOL0     N46523  -0.148   9.480   3.429  0.4647 -0.5683  0.2507
  338MOL0     C46524  -0.084   9.369   3.456  0.1005  0.7740 -0.5199
  338MOL0     C46525  -0.168   9.271   3.411 -0.8742 -0.6676 -0.6732
  338MOL0     C46526  -0.132   9.130   3.417  0.4346 -0.1444 -0.8511
  338MOL0     C46527  -0.200   9.064   3.542 -0.6062  1.7942 -0.4210
  338MOL0     C46528  -0.155   8.910   3.535  0.8548  0.6183  0.4081
  338MOL0     C46529  -0.246   8.829   3.628 -0.0670 -0.2525 -0.4333
  338MOL0     O46530  -0.378   8.848   3.596  0.4738  0.3217 -0.2404
  338MOL0     C46531  -0.478   8.779   3.662  0.6693  0.1896  0.5318
  338MOL0     C46532  -0.601   8.805   3.616 -0.2721  0.1270 -0.1805
  338MOL0     C46533  -0.720   8.766   3.673 -0.0275  0.3223 -0.4796
  338MOL0     C46534  -0.844   8.832   3.634 -0.5758 -0.4330  0.3923
  338MOL0     C46535  -0.713   8.680   3.781  0.3929 -0.2246 -0.0642
  338MOL0     C46536  -0.833   8.621   3.847  0.6967  0.2337  0.4320
  338MOL0     O46537  -0.809   8.556   3.973 -0.2118  0.5634  0.1448
  338MOL0     C46538  -0.903   8.504   4.058  0.0844 -0.6180 -0.1240
  338MOL0     C46539  -1.035   8.557   4.075 -0.5030  0.8869 -0.4926
  338MOL0     C46540  -1.118   8.486   4.172  0.1928 -0.9961  0.4301
  338MOL0     C46541  -1.071   8.384   4.255  0.0327  0.2149 -0.5371
  338MOL0     O46542  -1.163   8.336   4.341  0.1654 -0.2804  0.1862
  338MOL0     C46543  -1.127   8.239   4.434 -0.0387  0.1194  0.1126
  338MOL0     C46544  -1.253   8.215   4.528  0.4923  0.0700  0.3038
  338MOL0     C46545  -1.212   8.099   4.611 -0.0513 -0.0698  0.5514
  338MOL0     C46546  -1.335   8.066   4.700  0.6137  0.5785  0.1471
  338MOL0     C46547  -1.294   7.946   4.791 -0.0039  0.2350  0.4453
  338MOL0     C46548  -1.315   7.980   4.931  0.4950 -0.4887 -0.7216
  338MOL0     C46549  -1.266   7.855   5.011 -0.9925 -0.4088  0.3626
  338MOL0     C46550  -1.257   7.880   5.157 -0.3771  0.7112 -0.0948
  338MOL0    Cl46551  -1.167   7.750   5.240 -0.0524 -0.2653 -0.0453
  338MOL0     C46552  -0.939   8.350   4.248  0.1655 -0.0818 -0.2537
  338MOL0     C46553  -0.862   8.402   4.138  0.1361 -0.4619 -0.1693
  338MOL0     O46554  -0.930   8.596   3.776 -0.2960 -0.0347 -0.0397
  338MOL0     C46555  -0.582   8.644   3.829  0.5205  0.2809  1.3618
  338MOL0     C46556  -0.464   8.691   3.766 -0.3318 -0.4609 -0.4951
  338MOL0     N46557  -0.290   9.320   3.376 -0.6725  0.1511 -0.1960
  338MOL0     N46558  -0.276   9.442   3.391  0.3130 -1.0640  0.4822
  338MOL0     C46559   0.668  10.388   3.552  0.2593  0.5313 -0.0262
  338MOL0     C46560   0.784  10.448   3.610 -0.2193 -0.9183  0.5230
  338MOL0     C46561   1.022  10.707   3.867 -1.1226 -0.4839 -0.3936
  338MOL0     C46562   1.047  10.647   3.995  0.0572  0.0511 -0.6373
  338MOL0     C46563   1.140  10.687   4.095  0.1512  0.1682 -0.5384
  338MOL0     C46564   1.221  10.797   4.063 -0.1457 -0.8629 -0.8678
  338MOL0     O46565   1.314  10.830   4.159 -0.8174  0.1568  0.1668
  338MOL0     C46566   1.420  10.925   4.148  0.2132  0.4284  0.4383
  338MOL0     C46567   1.524  10.902   4.264  0.7860 -0.4722  1.0059
  338MOL0     C46568   1.658  10.980   4.242 -0.1877  0.0297  0.2488
  338MOL0     C46569   1.656  11.119   4.298 -0.2931  0.2750 -0.6318
  338MOL0     C46570   1.787  11.190   4.292  0.5107  0.3335  0.1908
  338MOL0     C46571   1.888  11.261   4.286 -0.0008  0.5293 -0.0978
  338MOL0     C46572   1.195  10.862   3.938 -0.2889 -0.2607  0.1254
  338MOL0     C46573   1.098  10.820   3.839 -0.7443  0.0588 -0.1958
  338MOL0     C46574   1.118  10.885   3.703  0.0899  0.0927  0.6318
  338MOL0     H46575   0.709  10.405   3.939 -0.4024  3.2337  0.7228
  338MOL0     H46576   0.502  10.305   3.824 -0.2113 -1.8072 -2.9025
  338MOL0     H46577   0.472  10.248   3.395  0.2669 -1.0647  0.6062
  338MOL0     H46578   0.402  10.409   3.439  2.7982 -0.7129 -4.1085
  338MOL0     H46579   0.192  10.279   3.512  4.3493  1.6019  4.5101
  338MOL0     H46580   0.235  10.239   3.338  2.6908  1.2381  0.5857
  338MOL0     H46581   0.373  10.040   3.480 -0.3975 -2.8286 -0.7863
  338MOL0     H46582   0.250  10.064   3.595 -0.1571 -1.3622 -0.7007
  338MOL0     H46583   0.071  10.034   3.416  0.1703  0.3797 -3.0578
  338MOL0     H46584   0.196  10.000   3.297 -1.9729  1.8024 -0.6464
  338MOL0     H46585   0.138   9.828   3.544  0.3071 -2.0778  0.0221
  338MOL0     H46586   0.271   9.816   3.436  0.6067  2.8007  2.6905
  338MOL0     H46587  -0.028   9.833   3.330 -0.4788 -0.8923 -2.7888
  338MOL0     H46588   0.098   9.782   3.236 -0.7233  0.9314 -0.1094
  338MOL0     H46589   0.114   9.604   3.461 -0.8522 -2.9543 -0.9759
  338MOL0     H46590   0.073   9.574   3.295  0.2108  1.5290 -0.8009
  338MOL0     H46591  -0.121   9.659   3.525 -3.7657  0.3080  0.1710
  338MOL0     H46592  -0.160   9.665   3.347 -2.2937 -2.1988 -0.1944
  338MOL0     H46593   0.016   9.352   3.495 -0.1433  1.5915  0.4967
  338MOL0     H46594  -0.024   9.114   3.428  0.2411 -1.5726 -0.8180
  338MOL0     H46595  -0.166   9.083   3.324  2.9961 -1.6449 -1.1186
  338MOL0     H46596  -0.183   9.111   3.639  3.1406 -0.6074  0.2918
  338MOL0     H46597  -0.306   9.072   3.519 -1.0709  0.7978  1.1915
  338MOL0     H46598  -0.149   8.875   3.431  0.4632  2.1925 -0.1759
  338MOL0     H46599  -0.051   8.909   3.569  1.5704 -0.3464 -1.6423
  338MOL0     H46600  -0.215   8.725   3.640  2.3936  0.5161  0.3945
  338MOL0     H46601  -0.229   8.877   3.725  0.1451 -1.0353 -0.0779
  338MOL0     H46602  -0.620   8.883   3.543 -1.0780  0.5108  0.4202
  338MOL0     H46603  -0.817   8.932   3.598  0.3120  0.3056  2.8783
  338MOL0     H46604  -0.914   8.849   3.716 -2.9962 -1.0104 -1.4543
  338MOL0     H46605  -0.895   8.772   3.559 -0.6783  1.9435 -1.5536
  338MOL0     H46606  -1.081   8.633   4.013  1.3838  2.1591 -0.4047
  338MOL0     H46607  -1.219   8.523   4.188  1.3345  2.5377  0.3225
  338MOL0     H46608  -1.086   8.148   4.390  4.2942  0.8015  2.1984
  338MOL0     H46609  -1.050   8.281   4.500  0.2855  0.0762 -0.2377
  338MOL0     H46610  -1.277   8.306   4.584  0.4175  1.6827 -2.1757
  338MOL0     H46611  -1.342   8.194   4.467 -0.7404 -3.4785  3.0162
  338MOL0     H46612  -1.127   8.124   4.674 -1.8402  1.4119  2.4942
  338MOL0     H46613  -1.189   8.013   4.546  1.2017 -0.9361  2.0646
  338MOL0     H46614  -1.418   8.026   4.642 -2.1291  0.6727  3.7045
  338MOL0     H46615  -1.365   8.154   4.758 -1.9539 -0.3731  0.3911
  338MOL0     H46616  -1.357   7.863   4.758  1.8531 -2.1135  2.3707
  338MOL0     H46617  -1.194   7.904   4.777 -0.4318 -0.1260 -1.9626
  338MOL0     H46618  -1.420   8.004   4.948  1.4673  4.6902 -0.4237
  338MOL0     H46619  -1.251   8.063   4.962  2.1593 -1.9913  0.0645
  338MOL0     H46620  -1.168   7.823   4.977 -0.3834  0.5521  1.1484
  338MOL0     H46621  -1.339   7.776   4.991 -1.3325 -0.0825  0.2839
  338MOL0     H46622  -1.357   7.890   5.200  0.7028 -1.3561  3.2814
  338MOL0     H46623  -1.210   7.978   5.171  0.0089  0.5571 -0.3028
  338MOL0     H46624  -0.893   8.270   4.306 -1.5136  0.1603  1.5231
  338MOL0     H46625  -0.761   8.365   4.123  0.4189 -0.3499  1.2721
  338MOL0     H46626  -0.573   8.577   3.914  1.7292  1.9710  2.6416
  338MOL0     H46627  -0.362   8.668   3.797  0.4211  2.2570 -0.6628
  338MOL0     H46628   0.650  10.374   3.446  0.1338 -1.4652  0.2197
  338MOL0     H46629   0.867  10.490   3.555 -0.8572  0.3162  0.4690
  338MOL0     H46630   0.983  10.561   4.012 -2.8654  2.1148 -0.3651
  338MOL0     H46631   1.148  10.624   4.183 -5.0098  2.4274  1.9825
  338MOL0     H46632   1.470  10.925   4.051 -0.5822  5.1683 -0.2106
  338MOL0     H46633   1.378  11.026   4.145  0.4928  0.5472 -2.5837
  338MOL0     H46634   1.542  10.794   4.266  1.8894 -0.2895  2.7770
  338MOL0     H46635   1.484  10.928   4.362  2.4754 -0.1844  1.6658
  338MOL0     H46636   1.740  10.935   4.298  0.4750 -0.8052 -1.3221
  338MOL0     H46637   1.670  10.973   4.133 -3.0617 -0.6645 -0.1262
  338MOL0     H46638   1.630  11.112   4.404  0.4961  0.5581 -0.4091
  338MOL0     H46639   1.576  11.172   4.245 -0.1095 -0.8695 -2.1219
  338MOL0     H46640   1.980  11.316   4.292  0.9661 -1.0044 -0.3731
  338MOL0     H46641   1.260  10.946   3.916  1.6304 -1.5212  0.7307
  338MOL0     H46642   1.219  10.928   3.706 -0.8538  2.4260  1.3001
  338MOL0     H46643   1.106  10.819   3.617  2.0257 -1.5665  1.5495
  338MOL0     H46644   1.053  10.972   3.697 -1.1061 -0.7062  1.5809
  339MOL0     O46645   0.339   3.438   9.062 -0.1497  0.4738  0.9322
  339MOL0     C46646   0.302   3.354   8.979 -0.4912 -0.1282 -0.9500
  339MOL0     O46647   0.391   3.260   8.910 -1.3408  0.1902  0.0788
  339MOL0     C46648   0.510   3.244   8.975 -0.5369  0.4934  0.0044
  339MOL0     C46649   0.616   3.326   8.947 -0.5155 -0.1072 -0.3666
  339MOL0     C46650   0.732   3.323   9.029  0.8303 -0.1961  0.0872
  339MOL0     C46651   0.738   3.231   9.133 -0.4962 -0.4420 -0.3895
  339MOL0     O46652   0.853   3.232   9.207  0.4642 -0.2676 -0.0275
  339MOL0     C46653   0.846   3.243   9.352 -0.1932 -0.5626  0.7740
  339MOL0     C46654   0.979   3.262   9.410 -0.5506  0.6079 -0.0395
  339MOL0     C46655   0.983   3.246   9.561  0.3521 -0.1888 -0.0505
  339MOL0     C46656   1.095   3.325   9.623 -0.0259 -0.0614 -0.5896
  339MOL0     C46657   1.129   3.251   9.753 -0.2261 -0.1480 -0.1116
  339MOL0     C46658   1.285   3.270   9.763 -0.5813  0.0486  0.1252
  339MOL0     C46659   1.349   3.205   9.876  0.3774 -0.5385 -0.0629
  339MOL0     C46660   1.502   3.208   9.866 -0.0396 -0.4424  0.1483
  339MOL0     N46661   1.552   3.103   9.775 -0.2943 -0.3130 -0.4595
  339MOL0     C46662   1.600   2.991   9.831  0.9968  0.0413 -0.0306
  339MOL0     C46663   1.651   2.929   9.735  0.7705  0.6431  0.2680
  339MOL0     C46664   1.691   2.783   9.754 -0.5974 -0.0432 -0.2814
  339MOL0     C46665   1.784   2.733   9.646 -0.1217  0.4567  0.9283
  339MOL0     C46666   1.787   2.571   9.652 -0.7042 -0.3961 -0.9523
  339MOL0     C46667   1.892   2.514   9.547 -0.1416 -2.0508  1.1364
  339MOL0     O46668   1.870   2.381   9.561 -0.5496  0.8521 -0.7280
  339MOL0     C46669   1.961   2.309   9.636 -0.9769 -0.2551 -0.7198
  339MOL0     C46670   2.104   2.305   9.607  0.5293 -0.1925  0.2359
  339MOL0     C46671   2.188   2.210   9.668  0.5540 -1.0818  0.8253
  339MOL0     C46672   2.337   2.208   9.628 -0.2595 -0.4683  0.1427
  339MOL0     C46673   2.142   2.121   9.762  0.5228 -0.0677 -0.9706
  339MOL0     C46674   2.221   2.020   9.844  0.0990 -0.5104 -0.5344
  339MOL0     O46675   2.176   1.989   9.974  0.3039  0.1134  0.6352
  339MOL0     C46676   2.253   1.897  10.050 -0.0383 -0.1027  0.4744
  339MOL0     C46677   2.182   1.809  10.136 -0.7759 -0.0708 -0.7647
  339MOL0     C46678   2.242   1.697  10.203  0.3214 -0.4053 -0.5073
  339MOL0     C46679   2.375   1.684  10.204 -0.2533  0.2678  0.0404
  339MOL0     O46680   2.433   1.590  10.287 -0.4824 -0.4296 -0.0065
  339MOL0     C46681   2.558   1.621  10.350 -0.4449 -0.0870 -0.7440
  339MOL0     C46682   2.576   1.530  10.474 -0.8056 -0.3593  0.1250
  339MOL0     C46683   2.459   1.534  10.577  0.8053 -1.0011  0.2520
  339MOL0     C46684   2.443   1.675  10.642 -0.3091  0.1830 -0.5011
  339MOL0     C46685   2.298   1.706  10.704  0.6996  1.3852  0.0540
  339MOL0     C46686   2.171   1.676  10.613  0.4383  0.1428  1.1694
  339MOL0     C46687   2.048   1.754  10.662  0.0896 -0.2106  0.3142
  339MOL0     C46688   1.929   1.730  10.575 -0.4603  0.4144 -0.2526
  339MOL0    Cl46689   1.960   1.803  10.415 -0.1137  0.0486  0.1394
  339MOL0     C46690   2.451   1.768  10.118 -0.6529  0.1312 -0.6491
  339MOL0     C46691   2.392   1.877  10.046  0.1962  0.5017 -0.4009
  339MOL0     O46692   2.309   1.953   9.783  0.4892 -0.0097  0.1213
  339MOL0     C46693   1.996   2.132   9.797  0.0156  0.4043 -0.3470
  339MOL0     C46694   1.906   2.216   9.732 -0.8369 -0.6694 -0.1776
  339MOL0     N46695   1.628   2.992   9.611 -0.0231  0.2962 -0.3537
  339MOL0     N46696   1.571   3.101   9.644 -0.2743 -0.8505  0.7884
  339MOL0     C46697   0.627   3.143   9.155 -0.1452 -0.8279 -0.9461
  339MOL0     C46698   0.513   3.149   9.077 -0.8000  0.1579 -0.0416
  339MOL0     C46699   0.157   3.355   8.941  0.0987  1.1511  0.3419
  339MOL0     C46700   0.121   3.315   8.815 -0.0998 -0.4493  0.9482
  339MOL0     C46701  -0.002   3.341   8.763  0.6846  0.1966 -0.0129
  339MOL0     C46702  -0.105   3.401   8.839 -0.5049 -0.3663 -0.5848
  339MOL0     O46703  -0.228   3.418   8.780 -0.2162  0.1226  0.3886
  339MOL0     C46704  -0.327   3.506   8.836  0.5123  0.8809  0.9083
  339MOL0     C46705  -0.444   3.432   8.910  0.5434  0.0061  0.4096
  339MOL0     C46706  -0.402   3.307   8.990 -0.8020  0.1728  0.0078
  339MOL0     C46707  -0.522   3.272   9.081  0.3052  0.0133  0.5469
  339MOL0     C46708  -0.479   3.198   9.198  0.4482  1.2804 -0.0952
  339MOL0     C46709  -0.433   3.132   9.291 -0.9036 -0.2045  0.7290
  339MOL0     C46710  -0.077   3.429   8.971 -0.0144  0.9490  0.5611
  339MOL0     C46711   0.051   3.406   9.026  0.1146 -0.0276  0.2120
  339MOL0     C46712   0.080   3.442   9.165  0.8251  0.5206 -0.6008
  339MOL0     H46713   0.608   3.405   8.873 -1.2112 -1.1043 -1.3908
  339MOL0     H46714   0.808   3.394   8.997  0.2395  0.5094  0.2296
  339MOL0     H46715   0.817   3.144   9.386  4.3321 -1.6730  2.0073
  339MOL0     H46716   0.779   3.324   9.384  1.5026  0.6683  1.3842
  339MOL0     H46717   1.064   3.199   9.382  1.3437  1.2789  3.5993
  339MOL0     H46718   1.015   3.355   9.365 -1.8573  0.4268 -1.5655
  339MOL0     H46719   0.888   3.284   9.600 -0.2270 -3.2254  1.8203
  339MOL0     H46720   0.982   3.138   9.582 -3.8715 -0.4994 -0.9127
  339MOL0     H46721   1.182   3.332   9.557  0.0801  0.0321 -0.4418
  339MOL0     H46722   1.057   3.425   9.644 -0.7842 -0.1040 -1.7172
  339MOL0     H46723   1.103   3.145   9.763 -1.0735  0.0200 -0.4046
  339MOL0     H46724   1.084   3.303   9.838  2.2101 -2.6298  2.9564
  339MOL0     H46725   1.331   3.234   9.671 -3.7559 -1.1850 -1.1500
  339MOL0     H46726   1.300   3.379   9.768 -2.6876  0.3650  0.6697
  339MOL0     H46727   1.300   3.107   9.871 -0.3185 -0.1203 -2.3640
  339MOL0     H46728   1.317   3.254   9.968 -1.6696 -1.5239 -0.1843
  339MOL0     H46729   1.519   3.298   9.806 -2.3483  0.1665  0.2911
  339MOL0     H46730   1.546   3.229   9.964  0.7762  1.0501 -0.5172
  339MOL0     H46731   1.597   2.955   9.933  0.0967 -0.4663 -0.2213
  339MOL0     H46732   1.604   2.717   9.745 -1.0074  0.3152  0.9712
  339MOL0     H46733   1.730   2.774   9.856 -0.3085  2.4902 -0.1170
  339MOL0     H46734   1.751   2.773   9.550 -1.0834 -0.4022  0.8907
  339MOL0     H46735   1.886   2.769   9.665  1.6570 -3.7034  0.3841
  339MOL0     H46736   1.814   2.535   9.752 -3.6431  1.0277  0.4720
  339MOL0     H46737   1.689   2.529   9.628  0.1274 -2.8615 -0.4012
  339MOL0     H46738   1.886   2.557   9.447  1.3149 -0.1250  1.8145
  339MOL0     H46739   1.991   2.542   9.584  0.0500 -0.2080 -0.6119
  339MOL0     H46740   2.152   2.364   9.530 -1.6451  0.9750 -0.3166
  339MOL0     H46741   2.404   2.246   9.706 -1.3622  1.9027  0.0367
  339MOL0     H46742   2.352   2.282   9.549 -0.3501 -1.2701 -0.6399
  339MOL0     H46743   2.372   2.109   9.599  1.7518 -0.0248  0.9087
  339MOL0     H46744   2.074   1.815  10.137 -0.7560  0.2965 -0.6879
  339MOL0     H46745   2.185   1.631  10.268 -1.0462  1.7923  0.6619
  339MOL0     H46746   2.633   1.606  10.272  3.9705  0.2643  3.0070
  339MOL0     H46747   2.560   1.726  10.381 -0.0204 -0.6860  1.4659
  339MOL0     H46748   2.574   1.428  10.434 -2.1766 -0.3406  0.0871
  339MOL0     H46749   2.672   1.551  10.523 -0.2023  2.2894 -1.9635
  339MOL0     H46750   2.470   1.460  10.656 -0.7820  0.1008  1.5679
  339MOL0     H46751   2.364   1.502  10.533  0.6879 -1.5549  0.9004
  339MOL0     H46752   2.457   1.741  10.556  0.7784  0.3382 -0.2141
  339MOL0     H46753   2.533   1.694  10.702  0.6886  3.5784 -2.7718
  339MOL0     H46754   2.300   1.651  10.798 -1.3006  0.4022 -0.4378
  339MOL0     H46755   2.295   1.812  10.730 -2.1591  0.7421  2.9145
  339MOL0     H46756   2.155   1.570  10.592 -1.2011  0.6448 -0.3889
  339MOL0     H46757   2.196   1.713  10.513  4.1044 -1.0285  1.4943
  339MOL0     H46758   2.074   1.858  10.682 -1.3944  0.5346 -1.3818
  339MOL0     H46759   2.015   1.707  10.756  0.8692 -4.2458 -1.2337
  339MOL0     H46760   1.836   1.774  10.613 -0.1817 -0.3585  1.4081
  339MOL0     H46761   1.912   1.622  10.567  1.3564  0.1391 -0.7929
  339MOL0     H46762   2.558   1.750  10.106 -0.6095 -2.7326  2.6022
  339MOL0     H46763   2.462   1.932   9.984  0.2783  0.1283 -0.6402
  339MOL0     H46764   1.959   2.069   9.878  1.8557  1.0492  1.0760
  339MOL0     H46765   1.804   2.218   9.769 -0.4208  1.6821  0.9735
  339MOL0     H46766   0.619   3.089   9.248 -1.5181  0.3541 -0.3381
  339MOL0     H46767   0.434   3.080   9.104 -1.2284 -0.3279 -2.3325
  339MOL0     H46768   0.192   3.261   8.753 -2.0113 -1.0422 -0.8486
  339MOL0     H46769  -0.024   3.311   8.661  2.8189  0.3008 -0.5400
  339MOL0     H46770  -0.283   3.575   8.908  0.2308  0.7910  1.1688
  339MOL0     H46771  -0.359   3.571   8.754  1.6627  0.0904 -0.2154
  339MOL0     H46772  -0.496   3.393   8.822  1.6113 -1.7891  0.5301
  339MOL0     H46773  -0.515   3.502   8.956 -3.8625 -3.2573 -0.6767
  339MOL0     H46774  -0.386   3.224   8.921  2.0073  1.1001 -0.6066
  339MOL0     H46775  -0.314   3.327   9.053 -2.6395  2.5670  2.0140
  339MOL0     H46776  -0.604   3.213   9.038 -1.0064 -0.1029  3.0035
  339MOL0     H46777  -0.568   3.365   9.115  0.7114 -0.1326  1.5457
  339MOL0     H46778  -0.374   3.088   9.369  0.3593  1.0268  0.5130
  339MOL0     H46779  -0.143   3.492   9.030 -0.0941  3.9267 -2.4153
  339MOL0     H46780  -0.010   3.413   9.221  0.8415 -1.4752 -1.5305
  339MOL0     H46781   0.153   3.380   9.217  1.0068  0.5123 -0.8677
  339MOL0     H46782   0.112   3.546   9.176  0.3890  0.4699  1.6999
  340MOL0     O46783   3.855   6.044   7.334  0.2216  0.9505 -0.3407
  340MOL0     C46784   3.947   5.999   7.263  0.4860  0.0181 -0.0189
  340MOL0     O46785   3.935   5.887   7.184 -0.4092 -0.0956 -0.1563
  340MOL0     C46786   3.837   5.795   7.207 -0.3589  0.0142  0.0582
  340MOL0     C46787   3.870   5.667   7.169 -0.2499 -0.2610 -0.8930
  340MOL0     C46788   3.773   5.561   7.191 -0.3192  1.1794  0.1002
  340MOL0     C46789   3.644   5.580   7.227  0.1000 -0.9356  0.2151
  340MOL0     O46790   3.567   5.465   7.237 -0.9968  0.1184 -0.0177
  340MOL0     C46791   3.421   5.474   7.262 -0.2558 -0.8159 -0.6582
  340MOL0     C46792   3.348   5.527   7.138  0.2973  0.8288  0.8071
  340MOL0     C46793   3.233   5.440   7.097 -0.2979  0.7234 -0.2247
  340MOL0     C46794   3.181   5.484   6.960 -1.5701  0.0386 -0.7737
  340MOL0     C46795   3.067   5.391   6.922  0.1802 -0.2625  0.3089
  340MOL0     C46796   3.108   5.255   6.863  0.6134  0.0169  0.0660
  340MOL0     C46797   3.148   5.265   6.714 -0.8665  0.7790 -0.0110
  340MOL0     C46798   3.182   5.118   6.666 -0.0887 -0.1322  0.8886
  340MOL0     N46799   3.216   5.115   6.525 -0.1326  0.1745  0.0690
  340MOL0     C46800   3.335   5.154   6.473 -0.0902  0.4930 -0.2077
  340MOL0     C46801   3.329   5.118   6.341 -0.2082 -0.2144  0.0029
  340MOL0     C46802   3.449   5.152   6.255 -0.1209  0.1949 -0.0160
  340MOL0     C46803   3.407   5.180   6.114  0.1813 -0.2258 -0.3272
  340MOL0     C46804   3.525   5.196   6.021  0.5875  0.5859  0.6944
  340MOL0     C46805   3.469   5.179   5.871  0.0005  0.1807  0.3583
  340MOL0     O46806   3.403   5.311   5.850 -0.4000 -0.4510 -0.4373
  340MOL0     C46807   3.359   5.352   5.724  0.9555 -0.0740  0.1864
  340MOL0     C46808   3.387   5.289   5.603 -0.4808  0.2793 -0.8107
  340MOL0     C46809   3.346   5.338   5.478  0.4179  0.3689 -0.5744
  340MOL0     C46810   3.417   5.269   5.366 -1.1271  0.5119 -0.1476
  340MOL0     C46811   3.246   5.442   5.475 -0.2911 -1.0014 -0.0519
  340MOL0     C46812   3.193   5.499   5.346  0.3200 -0.0336  0.3472
  340MOL0     O46813   3.143   5.623   5.353  0.7963  0.3491 -0.4387
  340MOL0     C46814   3.062   5.673   5.254  0.1304 -0.5553 -0.4909
  340MOL0     C46815   2.954   5.609   5.194 -0.3718 -0.1237  1.0221
  340MOL0     C46816   2.880   5.663   5.090  0.5452  0.1802 -0.1607
  340MOL0     C46817   2.909   5.790   5.046  0.6220  0.8342 -1.0898
  340MOL0     O46818   2.841   5.830   4.941 -1.0325  0.1761  0.0922
  340MOL0     C46819   2.884   5.949   4.875 -0.3505  0.4718 -0.7922
  340MOL0     C46820   2.807   5.977   4.742 -0.9079 -0.4743 -0.4464
  340MOL0     C46821   2.809   6.131   4.711 -0.7953 -0.2871  0.8163
  340MOL0     C46822   2.690   6.163   4.626 -0.5814  0.8076  0.4114
  340MOL0     C46823   2.697   6.302   4.579  0.0334 -0.5312  0.1265
  340MOL0     C46824   2.555   6.349   4.521 -0.0482  0.4426 -0.4593
  340MOL0     C46825   2.579   6.486   4.477  0.3758 -0.4475  0.1791
  340MOL0     C46826   2.470   6.586   4.524 -0.0264 -0.0923  0.6445
  340MOL0    Cl46827   2.502   6.596   4.705 -0.0513  0.0755 -0.4719
  340MOL0     C46828   3.025   5.857   5.101 -0.2326 -0.7515 -0.1720
  340MOL0     C46829   3.106   5.791   5.197 -0.2065 -0.7112 -0.0947
  340MOL0     O46830   3.196   5.433   5.241  0.4152  0.0501 -1.0836
  340MOL0     C46831   3.225   5.509   5.600  0.1119  0.3232  0.4774
  340MOL0     C46832   3.278   5.466   5.719 -0.5435 -0.5464 -0.1645
  340MOL0     N46833   3.220   5.040   6.318 -0.4291  0.8617 -0.1937
  340MOL0     N46834   3.158   5.028   6.434 -0.3890 -0.4485  0.2368
  340MOL0     C46835   3.605   5.709   7.261  0.1907 -0.5727  0.5112
  340MOL0     C46836   3.700   5.816   7.254 -0.2624  0.3976  0.2624
  340MOL0     C46837   4.061   6.083   7.217 -0.1821 -0.3979  0.3122
  340MOL0     C46838   4.117   6.070   7.090 -0.0954 -0.3882 -0.1746
  340MOL0     C46839   4.227   6.149   7.046 -0.1205  0.3742 -0.0321
  340MOL0     C46840   4.300   6.233   7.136  1.0791 -0.1006 -0.0115
  340MOL0     O46841   4.403   6.297   7.075  0.6743  0.0430 -0.1389
  340MOL0     C46842   4.460   6.410   7.137  0.6593 -0.1477 -0.9963
  340MOL0     C46843   4.368   6.531   7.135  0.5310 -0.0469  0.7417
  340MOL0     C46844   4.366   6.604   6.996 -0.2893  0.0821 -0.0113
  340MOL0     C46845   4.302   6.741   6.996 -0.2108 -0.6834  0.4483
  340MOL0     C46846   4.160   6.731   7.040 -0.2091 -0.8600 -0.0533
  340MOL0     C46847   4.046   6.729   7.067 -0.1520  0.8124  0.3910
  340MOL0     C46848   4.245   6.245   7.260  0.1895 -0.8592  0.0370
  340MOL0     C46849   4.127   6.180   7.304  0.6934  0.1373  0.1203
  340MOL0     C46850   4.069   6.205   7.440  0.9385 -0.6219 -0.5033
  340MOL0     H46851   3.967   5.643   7.126 -0.2357 -1.1825 -0.3760
  340MOL0     H46852   3.816   5.466   7.163  3.2905  2.4846  0.7492
  340MOL0     H46853   3.405   5.526   7.357 -2.6243 -5.0787  1.5816
  340MOL0     H46854   3.396   5.370   7.286  0.0052 -0.4291  1.4833
  340MOL0     H46855   3.310   5.628   7.152  2.6604  1.9073 -0.0363
  340MOL0     H46856   3.426   5.539   7.062  1.1668 -1.2331  1.3056
  340MOL0     H46857   3.270   5.338   7.095  0.2296  0.7588  2.7356
  340MOL0     H46858   3.152   5.440   7.171 -1.5944  1.4583 -1.5840
  340MOL0     H46859   3.158   5.590   6.956  0.5173  0.6394  0.9713
  340MOL0     H46860   3.263   5.476   6.888 -0.6762  1.4192  0.0498
  340MOL0     H46861   2.992   5.442   6.860  1.8466  1.4760 -0.3960
  340MOL0     H46862   3.008   5.375   7.013  0.7995  2.4545  1.2761
  340MOL0     H46863   3.187   5.202   6.916 -1.6512 -2.5943  1.0648
  340MOL0     H46864   3.021   5.189   6.872  0.6124  0.0042 -0.0343
  340MOL0     H46865   3.241   5.321   6.700  1.8482 -2.4687  3.1420
  340MOL0     H46866   3.070   5.316   6.656 -1.3941 -2.8240 -2.8169
  340MOL0     H46867   3.260   5.064   6.720  1.7268  3.4402  2.0953
  340MOL0     H46868   3.086   5.069   6.686  0.1893  0.5531  4.5672
  340MOL0     H46869   3.403   5.207   6.540 -3.0303  0.7158  2.8946
  340MOL0     H46870   3.521   5.070   6.268  0.8537  0.5573 -2.6313
  340MOL0     H46871   3.494   5.244   6.292 -2.2963  1.4612 -0.3786
  340MOL0     H46872   3.339   5.102   6.079  1.5125 -3.1775  3.1341
  340MOL0     H46873   3.353   5.276   6.117  2.3322  1.0610 -0.3980
  340MOL0     H46874   3.586   5.286   6.030  0.4000  0.7451  0.4105
  340MOL0     H46875   3.585   5.107   6.041 -0.7071  0.1190  2.8501
  340MOL0     H46876   3.550   5.174   5.798  0.9262  1.9168  1.2030
  340MOL0     H46877   3.389   5.107   5.849  0.6299 -0.6705  0.7675
  340MOL0     H46878   3.446   5.197   5.604 -3.8382 -2.1190 -2.4656
  340MOL0     H46879   3.447   5.335   5.284 -3.4524  0.7785 -0.8740
  340MOL0     H46880   3.341   5.208   5.317 -2.0957  0.9933  0.6952
  340MOL0     H46881   3.499   5.200   5.385 -0.7910  1.0457  0.4061
  340MOL0     H46882   2.923   5.512   5.232  0.6325  0.1729  2.6886
  340MOL0     H46883   2.797   5.603   5.056  1.3383 -0.8617 -0.3051
  340MOL0     H46884   2.867   6.030   4.946  0.9364 -1.5932  2.0981
  340MOL0     H46885   2.991   5.943   4.856  0.0370 -0.3928  1.3794
  340MOL0     H46886   2.848   5.911   4.665 -0.2778 -1.6809  0.8843
  340MOL0     H46887   2.701   5.955   4.760 -1.9136  2.3425 -2.2750
  340MOL0     H46888   2.901   6.138   4.652 -0.8547  0.5884  0.8286
  340MOL0     H46889   2.809   6.199   4.796 -2.7048  0.3186  0.3781
  340MOL0     H46890   2.594   6.156   4.678 -1.1143 -1.3282 -0.7599
  340MOL0     H46891   2.687   6.093   4.542  0.6329 -1.0685  1.8442
  340MOL0     H46892   2.735   6.354   4.667  0.7611 -1.1063  0.1588
  340MOL0     H46893   2.772   6.312   4.499 -0.2776  2.7350  0.0872
  340MOL0     H46894   2.475   6.338   4.595  0.7921  1.9503  0.7261
  340MOL0     H46895   2.516   6.297   4.433  1.6013 -0.3909 -0.7471
  340MOL0     H46896   2.567   6.485   4.368 -0.9013 -2.1810  0.2950
  340MOL0     H46897   2.676   6.530   4.505 -1.3577  2.3367  2.3997
  340MOL0     H46898   2.373   6.539   4.508  0.1470 -0.3584  0.3670
  340MOL0     H46899   2.465   6.686   4.480 -1.3772 -0.6519 -0.5339
  340MOL0     H46900   3.049   5.956   5.063 -2.2243 -0.2570 -0.2328
  340MOL0     H46901   3.191   5.847   5.232 -0.7160 -0.9953  1.6945
  340MOL0     H46902   3.156   5.593   5.604  1.4064  1.4032  0.8101
  340MOL0     H46903   3.257   5.516   5.813 -1.6673 -1.3468  0.0224
  340MOL0     H46904   3.508   5.735   7.304  1.1354 -2.5385  4.3244
  340MOL0     H46905   3.677   5.919   7.280  4.4098  1.3060  1.6027
  340MOL0     H46906   4.088   5.993   7.020  0.3022  0.8971 -1.8201
  340MOL0     H46907   4.261   6.149   6.943  0.3697  1.2308  0.1188
  340MOL0     H46908   4.484   6.377   7.238 -0.5955 -0.3250 -0.7475
  340MOL0     H46909   4.547   6.448   7.082  1.1517 -1.3003 -1.0390
  340MOL0     H46910   4.407   6.598   7.213  1.6201  0.1177  0.0665
  340MOL0     H46911   4.266   6.507   7.167 -0.0666  1.3513 -0.0107
  340MOL0     H46912   4.466   6.612   6.954 -0.4710 -0.5685 -0.5929
  340MOL0     H46913   4.308   6.538   6.930  0.9306 -0.8597 -0.1767
  340MOL0     H46914   4.306   6.772   6.891 -3.5718 -4.0002 -0.9009
  340MOL0     H46915   4.353   6.813   7.060  0.3733 -1.7278  1.1872
  340MOL0     H46916   3.947   6.702   7.097 -0.3759  0.0333 -0.9964
  340MOL0     H46917   4.289   6.316   7.330 -0.6900  0.1331 -0.3928
  340MOL0     H46918   4.152   6.260   7.487  0.1699  1.1321 -1.0934
  340MOL0     H46919   3.976   6.263   7.442 -0.1604 -2.3358  0.5386
  340MOL0     H46920   4.052   6.115   7.500 -0.1366  1.2885  2.2771
  341MOL0     O46921   1.097   6.677   1.832 -0.8694 -0.3692 -0.0902
  341MOL0     C46922   1.011   6.770   1.836  0.1984  0.2779  0.9624
  341MOL0     O46923   0.999   6.863   1.932  0.5013  0.8792 -0.1604
  341MOL0     C46924   1.106   6.863   2.021 -0.3922  0.1298  0.0354
  341MOL0     C46925   1.102   6.785   2.127 -0.4907 -0.0859  0.5417
  341MOL0     C46926   1.216   6.783   2.212 -0.9040  0.0631 -0.7832
  341MOL0     C46927   1.337   6.849   2.180  0.8773 -0.7406 -0.6725
  341MOL0     O46928   1.444   6.834   2.259  0.1226  0.7436 -0.2701
  341MOL0     C46929   1.466   6.936   2.359  0.2970  0.4187 -0.2240
  341MOL0     C46930   1.583   6.907   2.452  0.5130  0.3886 -0.4729
  341MOL0     C46931   1.586   6.783   2.538 -0.7619 -0.0705  0.8449
  341MOL0     C46932   1.727   6.773   2.596 -1.1212  0.8558 -1.0380
  341MOL0     C46933   1.756   6.655   2.680  0.2606  0.2270  0.2126
  341MOL0     C46934   1.705   6.651   2.827  0.9717 -0.0563 -0.5583
  341MOL0     C46935   1.752   6.756   2.924 -0.2521  1.0514 -1.2698
  341MOL0     C46936   1.903   6.755   2.949 -0.1127  0.7127  0.7914
  341MOL0     N46937   1.949   6.728   3.087 -0.7579  0.7119 -0.0956
  341MOL0     C46938   1.918   6.614   3.145  0.0269  0.1363 -0.5188
  341MOL0     C46939   2.004   6.599   3.245  0.2106 -0.5331  0.2120
  341MOL0     C46940   2.014   6.488   3.335 -0.0891  0.6786 -0.0805
  341MOL0     C46941   1.891   6.448   3.414 -0.2424  0.6805 -0.2607
  341MOL0     C46942   1.927   6.351   3.530 -0.4144 -0.0365 -0.2955
  341MOL0     C46943   1.955   6.204   3.495  0.5183 -1.0342 -0.1535
  341MOL0     O46944   2.082   6.173   3.441 -0.3407 -0.6435 -0.4798
  341MOL0     C46945   2.115   6.045   3.391  0.2408 -0.4336 -0.9452
  341MOL0     C46946   2.019   5.949   3.348  0.5931 -0.6543  0.3987
  341MOL0     C46947   2.061   5.827   3.295  0.6388 -0.5812 -0.0952
  341MOL0     C46948   1.955   5.733   3.246  0.0498 -0.0007  0.0556
  341MOL0     C46949   2.191   5.790   3.292  0.8628 -0.0159  0.8960
  341MOL0     C46950   2.243   5.664   3.239  1.0419 -0.4001 -0.2079
  341MOL0     O46951   2.179   5.560   3.309 -0.3516 -0.3387  0.3218
  341MOL0     C46952   2.270   5.453   3.323  0.4175 -0.3230 -0.7055
  341MOL0     C46953   2.254   5.336   3.253  0.5607  0.9407 -0.0059
  341MOL0     C46954   2.333   5.229   3.293 -0.7746  0.9775  0.2714
  341MOL0     C46955   2.418   5.234   3.404 -0.1391 -0.2140 -0.6731
  341MOL0     O46956   2.489   5.121   3.438 -0.2308 -0.2925  0.3033
  341MOL0     C46957   2.608   5.088   3.367  0.3659 -0.0220  0.8552
  341MOL0     C46958   2.731   5.089   3.463 -0.0133  0.7624  0.4382
  341MOL0     C46959   2.701   4.993   3.587 -0.0562  0.0759  0.9085
  341MOL0     C46960   2.666   5.064   3.711 -1.2048  0.0848  0.0554
  341MOL0     C46961   2.665   4.962   3.835  0.1162 -1.3843  0.5741
  341MOL0     C46962   2.550   4.853   3.829 -0.3004  0.1744  0.0822
  341MOL0     C46963   2.409   4.904   3.796  0.5044 -0.6857 -0.6392
  341MOL0     C46964   2.278   4.822   3.841  0.4856 -0.0172  0.1548
  341MOL0    Cl46965   2.284   4.660   3.768  0.0629 -0.2451 -0.1830
  341MOL0     C46966   2.439   5.354   3.467 -0.2687  0.7944 -0.6385
  341MOL0     C46967   2.368   5.467   3.424  0.0953  0.5032 -0.7567
  341MOL0     O46968   2.327   5.649   3.151 -0.1274  0.3159 -0.6515
  341MOL0     C46969   2.283   5.879   3.342 -0.3414  0.3390 -0.0595
  341MOL0     C46970   2.251   6.009   3.389  0.0483  0.5499 -0.3713
  341MOL0     N46971   2.087   6.710   3.247  0.0659 -0.1755  1.0318
  341MOL0     N46972   2.046   6.795   3.157 -0.3008 -0.3128  0.2839
  341MOL0     C46973   1.342   6.931   2.070 -0.2334 -0.0905 -0.0544
  341MOL0     C46974   1.231   6.929   1.985 -0.1685 -0.0853  0.4557
  341MOL0     C46975   0.899   6.779   1.731 -0.1950  0.6830 -0.1925
  341MOL0     C46976   0.870   6.666   1.663 -0.6587  0.2540 -0.2345
  341MOL0     C46977   0.778   6.664   1.560 -0.7612  0.0118  0.8101
  341MOL0     C46978   0.702   6.774   1.533 -0.3549 -0.6852 -0.8790
  341MOL0     O46979   0.614   6.775   1.430 -0.4172 -0.0867  0.1541
  341MOL0     C46980   0.491   6.712   1.460  0.4235  0.2456 -0.1797
  341MOL0     C46981   0.389   6.810   1.488  0.3675 -1.4454 -0.3567
  341MOL0     C46982   0.334   6.856   1.357  0.6960  0.0031  0.5691
  341MOL0     C46983   0.416   6.961   1.289  0.4116  0.8231  0.1895
  341MOL0     C46984   0.330   7.029   1.189  0.0172  0.4237 -0.1979
  341MOL0     C46985   0.260   7.104   1.118 -0.0463  0.5162  1.4401
  341MOL0     C46986   0.716   6.893   1.613  0.4762  0.7255 -0.1919
  341MOL0     C46987   0.834   6.891   1.691  0.5204 -0.7295 -0.2281
  341MOL0     C46988   0.883   7.029   1.738  0.4692  0.1323  0.3353
  341MOL0     H46989   1.023   6.711   2.137 -0.2468 -0.4409 -0.1016
  341MOL0     H46990   1.215   6.719   2.299  1.2282  0.1636 -0.6428
  341MOL0     H46991   1.381   6.943   2.428 -1.7844  0.9707 -2.6936
  341MOL0     H46992   1.465   7.039   2.323 -2.2196  0.7050  0.4109
  341MOL0     H46993   1.674   6.915   2.391  1.6139  3.0230  1.2732
  341MOL0     H46994   1.591   6.993   2.520 -1.2964 -0.1431  0.4532
  341MOL0     H46995   1.504   6.777   2.609  0.9521  0.5920  2.9795
  341MOL0     H46996   1.571   6.696   2.473  2.5022 -1.9961  2.4189
  341MOL0     H46997   1.796   6.778   2.511 -0.3050 -0.1973 -0.4629
  341MOL0     H46998   1.740   6.862   2.657 -1.3764 -0.3529  0.8942
  341MOL0     H46999   1.865   6.666   2.679  0.2671  0.8692 -2.9488
  341MOL0     H47000   1.725   6.568   2.623  0.6125 -0.5368  1.1574
  341MOL0     H47001   1.597   6.666   2.825  1.3114  3.6574  1.0525
  341MOL0     H47002   1.733   6.550   2.860  2.3908  0.7848  1.0278
  341MOL0     H47003   1.706   6.738   3.022  0.2888 -0.9688 -1.3373
  341MOL0     H47004   1.712   6.853   2.895 -2.1135  0.8868  0.4488
  341MOL0     H47005   1.946   6.674   2.890 -1.7721  0.9636 -0.8670
  341MOL0     H47006   1.950   6.845   2.908 -0.9808 -0.0638 -2.1374
  341MOL0     H47007   1.860   6.530   3.107  1.2483 -0.1828 -1.7581
  341MOL0     H47008   2.098   6.507   3.402  1.2743 -4.9946  0.2848
  341MOL0     H47009   2.035   6.405   3.267  2.5378  0.5448  0.8193
  341MOL0     H47010   1.846   6.541   3.451 -1.1265  0.9141 -1.8278
  341MOL0     H47011   1.819   6.402   3.346  2.5541 -3.1234 -0.9657
  341MOL0     H47012   2.015   6.387   3.584 -3.1130  1.9913  3.1872
  341MOL0     H47013   1.847   6.341   3.604  1.2644 -1.3408  1.4447
  341MOL0     H47014   1.941   6.146   3.588  0.4380  0.6219  0.9048
  341MOL0     H47015   1.875   6.188   3.423  0.9124 -2.3439 -0.3433
  341MOL0     H47016   1.914   5.974   3.359  0.9101 -0.4982  4.4310
  341MOL0     H47017   1.877   5.773   3.179  0.5716 -1.9308 -1.8054
  341MOL0     H47018   1.912   5.669   3.323 -1.5408  0.2984 -0.5331
  341MOL0     H47019   1.997   5.667   3.170 -3.8218 -0.8297 -1.6374
  341MOL0     H47020   2.175   5.323   3.180 -0.3811 -0.8652  1.2603
  341MOL0     H47021   2.328   5.133   3.243  2.0877  2.4763 -3.4701
  341MOL0     H47022   2.583   4.992   3.321 -3.1957 -0.0093  2.4772
  341MOL0     H47023   2.635   5.158   3.286  1.8819  1.0059  2.1884
  341MOL0     H47024   2.819   5.064   3.402 -0.7476  2.9284 -1.6824
  341MOL0     H47025   2.745   5.193   3.494 -1.2707  1.7888 -2.1039
  341MOL0     H47026   2.785   4.923   3.593  0.7129  0.8125 -0.6964
  341MOL0     H47027   2.610   4.936   3.566 -0.9258  2.1365 -1.3657
  341MOL0     H47028   2.570   5.117   3.706 -1.8090 -0.8165  1.4613
  341MOL0     H47029   2.737   5.146   3.723 -1.4561  0.4321 -0.7869
  341MOL0     H47030   2.764   4.915   3.831  0.4882 -0.5537 -1.9161
  341MOL0     H47031   2.665   5.019   3.928  0.4528 -1.7445  0.8007
  341MOL0     H47032   2.537   4.813   3.931  2.0395 -1.2834 -0.1040
  341MOL0     H47033   2.571   4.773   3.757 -3.1899 -0.3103 -0.3308
  341MOL0     H47034   2.403   4.936   3.691 -0.5878 -1.0658 -0.7135
  341MOL0     H47035   2.401   4.994   3.858 -0.4840 -0.3599 -1.2013
  341MOL0     H47036   2.195   4.881   3.802 -1.1289 -1.1456  1.7714
  341MOL0     H47037   2.280   4.820   3.950 -2.9733 -1.2675  0.2997
  341MOL0     H47038   2.521   5.361   3.538 -0.5789  0.6144 -0.2588
  341MOL0     H47039   2.391   5.553   3.486  0.7969  0.2852 -0.7006
  341MOL0     H47040   2.390   5.866   3.344 -0.4988 -1.8619 -1.8991
  341MOL0     H47041   2.330   6.069   3.433 -0.9108  0.4573  1.5986
  341MOL0     H47042   1.432   6.984   2.042  0.4231 -2.0464 -1.8698
  341MOL0     H47043   1.227   6.991   1.896  0.4083  1.3889  1.4046
  341MOL0     H47044   0.914   6.570   1.687  1.2456  0.6817 -1.7869
  341MOL0     H47045   0.750   6.574   1.507 -3.1636  1.7039 -1.0095
  341MOL0     H47046   0.470   6.644   1.377 -0.6895  0.9791 -0.5132
  341MOL0     H47047   0.509   6.654   1.551  2.2855  1.5874  0.3589
  341MOL0     H47048   0.421   6.891   1.555 -0.6375 -1.7641  0.5496
  341MOL0     H47049   0.307   6.767   1.546 -0.1349 -0.5990 -0.4190
  341MOL0     H47050   0.338   6.778   1.281  0.8939  0.5073  0.0501
  341MOL0     H47051   0.232   6.886   1.384  2.0694  3.2873  2.8232
  341MOL0     H47052   0.504   6.923   1.238 -0.7032 -1.3261 -0.2283
  341MOL0     H47053   0.445   7.033   1.366 -1.5225  0.0009  1.7901
  341MOL0     H47054   0.227   7.186   1.058 -0.0075  1.8423  3.1686
  341MOL0     H47055   0.667   6.984   1.580  0.2028  1.0222  0.9748
  341MOL0     H47056   0.838   7.058   1.833  1.0838 -1.8786  1.2860
  341MOL0     H47057   0.992   7.029   1.740  0.4703  0.3882  0.3645
  341MOL0     H47058   0.855   7.097   1.656  1.2488  0.3220  0.2200
  342MOL0     O47059   6.925  10.440  10.276 -0.1083 -0.9971 -0.1332
  342MOL0     C47060   6.845  10.515  10.330  0.0859  0.5621 -0.4033
  342MOL0     O47061   6.810  10.510  10.458  0.2795  0.0682  0.1947
  342MOL0     C47062   6.863  10.412  10.533  0.3909  1.0948 -0.2286
  342MOL0     C47063   6.778  10.316  10.593  0.1183 -0.5095 -0.7225
  342MOL0     C47064   6.822  10.221  10.683  0.2257  0.3036 -0.3936
  342MOL0     C47065   6.950  10.220  10.728 -0.3060 -1.1570  0.1339
  342MOL0     O47066   6.971  10.150  10.838  0.5115  1.0170 -0.0779
  342MOL0     C47067   7.051  10.201  10.948  0.2702 -0.5404 -0.9524
  342MOL0     C47068   7.004  10.345  10.998  0.1186  0.4358  0.2263
  342MOL0     C47069   6.864  10.340  11.056 -0.4141  0.6544  0.1139
  342MOL0     C47070   6.826  10.472  11.121  0.1602 -0.2394  1.1300
  342MOL0     C47071   6.695  10.465  11.182 -0.2914 -1.0179 -0.2466
  342MOL0     C47072   6.653  10.602  11.248  1.2100 -0.3635 -0.3323
  342MOL0     C47073   6.506  10.584  11.311 -0.2039 -0.1482 -0.0450
  342MOL0     C47074   6.478  10.660  11.444  0.6742  0.4977 -0.0542
  342MOL0     N47075   6.367  10.618  11.520  0.2347  0.2675  0.6432
  342MOL0     C47076   6.288  10.677  11.614 -0.5390 -0.1825  0.0443
  342MOL0     C47077   6.215  10.585  11.671  0.6885  0.0647 -0.0911
  342MOL0     C47078   6.117  10.599  11.788  0.6657 -0.6758  0.1170
  342MOL0     C47079   6.104  10.751  11.828 -0.3058  0.0980 -1.1375
  342MOL0     C47080   6.022  10.774  11.962 -0.6696 -0.1223  0.3050
  342MOL0     C47081   5.985  10.920  11.979 -0.0118  0.5838 -0.2904
  342MOL0     O47082   5.885  10.948  11.876  0.2975  0.0107 -0.5291
  342MOL0     C47083   5.811  11.064  11.875  0.5239  0.7848  0.4990
  342MOL0     C47084   5.750  11.093  11.752 -0.4974 -1.1075  0.2898
  342MOL0     C47085   5.692  11.216  11.728  0.1853  0.0979 -0.6070
  342MOL0     C47086   5.629  11.238  11.589 -0.2886  0.5350  0.1795
  342MOL0     C47087   5.696  11.312  11.833  0.0686  0.9922 -0.0983
  342MOL0     C47088   5.652  11.452  11.812 -0.9815  0.5907  0.2123
  342MOL0     O47089   5.609  11.519  11.921 -0.3244  0.4851 -0.4592
  342MOL0     C47090   5.594  11.656  11.911 -0.4442  0.2937 -1.3373
  342MOL0     C47091   5.482  11.710  11.972 -0.5865  1.0116 -0.2517
  342MOL0     C47092   5.467  11.847  11.975 -0.2934 -0.0280  0.1782
  342MOL0     C47093   5.570  11.935  11.935 -0.5054  0.1933  0.4087
  342MOL0     O47094   5.569  12.068  11.938  1.1097  0.4739  0.2260
  342MOL0     C47095   5.495  12.120  11.823  0.4009 -0.1024  0.0304
  342MOL0     C47096   5.531  12.269  11.816 -0.1303  0.3030  0.0970
  342MOL0     C47097   5.518  12.322  11.663  0.4168  1.2094 -0.4972
  342MOL0     C47098   5.388  12.293  11.586 -0.5090 -0.8787 -0.1778
  342MOL0     C47099   5.353  12.406  11.488 -1.0496 -0.4854 -0.1987
  342MOL0     C47100   5.413  12.384  11.347  0.1503 -0.4458  0.0752
  342MOL0     C47101   5.416  12.508  11.256  0.5797 -0.0886  0.2627
  342MOL0     C47102   5.431  12.476  11.104 -0.8219  0.9162  0.6382
  342MOL0    Cl47103   5.526  12.610  11.033 -0.2495 -0.5818 -0.2393
  342MOL0     C47104   5.685  11.872  11.877  0.1961 -0.2165 -0.1153
  342MOL0     C47105   5.702  11.738  11.872  0.5340 -0.2128  0.8208
  342MOL0     O47106   5.654  11.499  11.695 -0.7146  0.2922 -0.3566
  342MOL0     C47107   5.737  11.273  11.959 -0.8793  0.0469 -0.2564
  342MOL0     C47108   5.806  11.157  11.977  0.4739  0.6366 -0.1651
  342MOL0     N47109   6.239  10.460  11.604  0.6433  0.2091 -0.6910
  342MOL0     N47110   6.333  10.487  11.520  0.4943  0.0244  0.0115
  342MOL0     C47111   7.038  10.311  10.667 -0.2509  0.4638 -0.3605
  342MOL0     C47112   6.991  10.402  10.568 -0.0943 -0.3517 -0.2775
  342MOL0     C47113   6.801  10.641  10.243 -0.6297  0.3685 -0.6307
  342MOL0     C47114   6.693  10.704  10.301  0.3713 -0.6693 -0.5427
  342MOL0     C47115   6.632  10.816  10.242  0.1984  0.2775  0.1467
  342MOL0     C47116   6.696  10.863  10.126 -0.0023 -0.7322 -0.3131
  342MOL0     O47117   6.636  10.977  10.075  0.0826 -0.1525  0.0771
  342MOL0     C47118   6.709  11.058   9.979  0.1762  0.2106 -0.8259
  342MOL0     C47119   6.665  11.026   9.832  0.8952  0.2600  0.1184
  342MOL0     C47120   6.768  11.061   9.736  0.1117 -0.0277  0.9872
  342MOL0     C47121   6.779  11.216   9.708  0.8476  0.4757 -0.0821
  342MOL0     C47122   6.881  11.246   9.604  0.3211 -0.1208 -0.0804
  342MOL0     C47123   6.957  11.269   9.510 -0.0057 -0.2071 -0.4008
  342MOL0     C47124   6.813  10.801  10.079  0.1960 -0.2174  0.6749
  342MOL0     C47125   6.864  10.682  10.125 -0.0196  0.4751  0.5523
  342MOL0     C47126   6.955  10.596  10.048 -0.3766  0.5660 -0.7409
  342MOL0     H47127   6.679  10.327  10.551  0.6537  1.6897 -1.5671
  342MOL0     H47128   6.755  10.147  10.724 -1.1006  2.5875  1.8535
  342MOL0     H47129   7.156  10.194  10.920  0.3670 -1.0545 -0.4610
  342MOL0     H47130   7.030  10.138  11.034 -2.8809  2.9216  1.1235
  342MOL0     H47131   7.080  10.373  11.072  1.8138 -1.1380 -0.8239
  342MOL0     H47132   7.017  10.419  10.918 -2.0049  1.0139  0.3684
  342MOL0     H47133   6.799  10.317  10.971  2.0321 -0.4583 -1.5643
  342MOL0     H47134   6.864  10.254  11.124  2.6076  0.6588  0.2540
  342MOL0     H47135   6.901  10.499  11.195  0.5572  1.1855  0.2573
  342MOL0     H47136   6.833  10.554  11.048  1.2391 -2.2224 -1.1134
  342MOL0     H47137   6.695  10.400  11.270  2.7343  1.7208  2.0495
  342MOL0     H47138   6.618  10.443  11.108  0.4053  1.0980 -1.7169
  342MOL0     H47139   6.716  10.626  11.334 -0.0607  0.0739  0.4823
  342MOL0     H47140   6.652  10.682  11.174 -1.6950  0.6428  0.6712
  342MOL0     H47141   6.497  10.477  11.333 -2.9369  0.1015  0.4036
  342MOL0     H47142   6.427  10.603  11.237 -2.8333 -1.1444  2.3301
  342MOL0     H47143   6.570  10.647  11.502 -0.2650  0.3025  1.4471
  342MOL0     H47144   6.453  10.761  11.412 -3.3267  0.0182  1.0436
  342MOL0     H47145   6.316  10.773  11.657  1.6523 -2.0027  2.9715
  342MOL0     H47146   6.149  10.548  11.880 -1.9364  1.0557  2.1178
  342MOL0     H47147   6.019  10.565  11.754 -0.4095  2.2180  0.0619
  342MOL0     H47148   6.202  10.793  11.852  0.1152 -0.5120 -1.7678
  342MOL0     H47149   6.059  10.804  11.744  0.4130 -0.6823 -2.0219
  342MOL0     H47150   5.927  10.720  11.959  0.6010 -2.5806 -3.7039
  342MOL0     H47151   6.078  10.730  12.045 -1.1270 -0.5001  0.4162
  342MOL0     H47152   5.946  10.932  12.081  0.7788  1.0875 -0.0330
  342MOL0     H47153   6.076  10.981  11.981 -0.2155  0.9321 -1.0831
  342MOL0     H47154   5.762  11.021  11.672 -0.4742 -1.0859  0.2733
  342MOL0     H47155   5.693  11.302  11.527  1.6546 -1.6980 -0.2707
  342MOL0     H47156   5.531  11.283  11.602  0.3947  1.5241  2.5183
  342MOL0     H47157   5.625  11.147  11.529 -0.3247  1.0411 -0.6142
  342MOL0     H47158   5.399  11.643  11.993  0.2229 -0.9084 -2.6183
  342MOL0     H47159   5.369  11.877  12.011 -0.1819  2.4180 -1.3353
  342MOL0     H47160   5.543  12.071  11.737  1.0509  1.1953 -0.3631
  342MOL0     H47161   5.388  12.109  11.809  0.4184  2.8285 -3.8778
  342MOL0     H47162   5.462  12.319  11.886 -2.1744  1.3635 -2.4969
  342MOL0     H47163   5.631  12.299  11.849  0.0686 -0.0807 -0.1577
  342MOL0     H47164   5.608  12.292  11.609  1.2271 -2.7452  2.5752
  342MOL0     H47165   5.529  12.431  11.666  0.0490  1.2492  2.6003
  342MOL0     H47166   5.305  12.303  11.656  0.3216 -0.0335  0.7377
  342MOL0     H47167   5.389  12.198  11.532  1.6491 -1.8068  1.3488
  342MOL0     H47168   5.244  12.419  11.494 -0.8688  0.5374  2.8372
  342MOL0     H47169   5.390  12.502  11.526  1.6586 -0.8421 -1.7013
  342MOL0     H47170   5.360  12.303  11.296  1.7287 -0.5767 -1.4638
  342MOL0     H47171   5.517  12.350  11.351  0.5601  0.6105 -0.9831
  342MOL0     H47172   5.495  12.576  11.288 -0.3683  0.6318  1.1422
  342MOL0     H47173   5.318  12.552  11.279  0.7936  1.2846 -1.2663
  342MOL0     H47174   5.338  12.455  11.050 -0.2562 -0.2773  0.0766
  342MOL0     H47175   5.483  12.381  11.087  0.4727  1.4028  1.7045
  342MOL0     H47176   5.767  11.937  11.846 -1.5040  1.1502 -1.9934
  342MOL0     H47177   5.794  11.687  11.847 -0.7865 -3.2675  1.6246
  342MOL0     H47178   5.743  11.343  12.042  0.3180  1.9019 -1.8336
  342MOL0     H47179   5.864  11.140  12.067 -0.9969 -1.4910  0.4409
  342MOL0     H47180   7.145  10.315  10.688  0.3486  0.1245 -2.9516
  342MOL0     H47181   7.059  10.472  10.521  0.0681 -2.1663 -2.9631
  342MOL0     H47182   6.635  10.664  10.383  1.1024 -0.6248  0.0015
  342MOL0     H47183   6.536  10.855  10.274  0.0871  0.2340 -0.1297
  342MOL0     H47184   6.688  11.163   9.998  3.8184  1.0109 -0.5492
  342MOL0     H47185   6.817  11.051   9.987 -0.0312 -2.9671  0.8341
  342MOL0     H47186   6.572  11.080   9.811  0.4325 -0.8843 -0.8864
  342MOL0     H47187   6.631  10.924   9.816  0.3443  0.6121 -1.1496
  342MOL0     H47188   6.865  11.017   9.761  1.9886  2.1114 -1.8346
  342MOL0     H47189   6.749  11.020   9.636  1.5181  1.5987 -0.0157
  342MOL0     H47190   6.811  11.262   9.802 -0.4376  2.1442 -0.4091
  342MOL0     H47191   6.677  11.252   9.695  0.9018  1.5078  1.9784
  342MOL0     H47192   7.029  11.318   9.448  0.0137  2.6644  1.6747
  342MOL0     H47193   6.842  10.839   9.982 -1.3350 -0.8910 -0.0869
  342MOL0     H47194   7.048  10.576  10.102 -0.0636 -0.0120 -1.4726
  342MOL0     H47195   6.900  10.505  10.023 -0.0820  0.5974 -1.5286
  342MOL0     H47196   6.993  10.632   9.952  0.8045  2.1490  0.2580
  343MOL0     O47197  10.088  10.404  11.341  0.0750 -0.2119 -0.4072
  343MOL0     C47198  10.135  10.305  11.283 -0.4877 -0.0069 -0.8894
  343MOL0     O47199  10.185  10.199  11.350 -0.1438  0.7168 -0.7303
  343MOL0     C47200  10.142  10.178  11.480 -0.1871  0.1545  0.3029
  343MOL0     C47201  10.046  10.084  11.517 -0.5995  1.1688 -0.0543
  343MOL0     C47202  10.032  10.050  11.656 -0.0104  0.3954  0.0041
  343MOL0     C47203  10.088  10.135  11.754  0.1164 -0.3898 -0.1693
  343MOL0     O47204  10.069  10.115  11.894 -1.1851  0.4125  0.0702
  343MOL0     C47205  10.184  10.057  11.957 -0.6801  0.3615  0.2587
  343MOL0     C47206  10.159  10.040  12.110 -1.2277 -0.2638  0.8485
  343MOL0     C47207  10.023   9.974  12.142  0.0301 -0.0645 -0.8067
  343MOL0     C47208   9.988   9.957  12.292  0.6099 -0.4556 -0.5656
  343MOL0     C47209   9.860   9.875  12.304  0.6833  1.0447  0.3377
  343MOL0     C47210   9.745   9.966  12.257 -0.1557 -0.0144 -0.3675
  343MOL0     C47211   9.618   9.911  12.325 -1.2293 -0.1450  0.7259
  343MOL0     C47212   9.489   9.984  12.310  0.0748  0.3782 -1.3002
  343MOL0     N47213   9.465  10.077  12.424 -0.2773  0.0104  0.1398
  343MOL0     C47214   9.487  10.217  12.431  0.7234 -0.2837  0.0136
  343MOL0     C47215   9.422  10.264  12.534 -0.5599  0.1509 -0.1999
  343MOL0     C47216   9.399  10.403  12.583  0.2935 -0.2775 -0.8468
  343MOL0     C47217   9.316  10.490  12.487 -0.2423  0.5972 -0.2764
  343MOL0     C47218   9.180  10.431  12.454  0.2011  0.6894 -0.2686
  343MOL0     C47219   9.175  10.348  12.324  0.4055 -0.7134  0.0313
  343MOL0     O47220   9.044  10.294  12.322 -0.0971 -0.2521  0.3636
  343MOL0     C47221   9.004  10.190  12.395 -1.1665  0.7200  0.1555
  343MOL0     C47222   8.878  10.196  12.438  0.4783  0.0938 -0.0362
  343MOL0     C47223   8.811  10.094  12.513  0.0094  0.2356 -0.8840
  343MOL0     C47224   8.670  10.113  12.554 -0.0076  0.3823 -0.5985
  343MOL0     C47225   8.898   9.975  12.551 -0.3298 -0.6896 -0.3168
  343MOL0     C47226   8.849   9.855  12.636  0.1896 -0.1206  0.7832
  343MOL0     O47227   8.930   9.769  12.697 -1.0725 -0.3368 -0.2563
  343MOL0     C47228   8.871   9.648  12.732 -0.8129 -0.5677 -0.2570
  343MOL0     C47229   8.866   9.617  12.867 -0.5461  0.3422 -0.2621
  343MOL0     C47230   8.828   9.491  12.907 -0.1945  0.3675 -1.2587
  343MOL0     C47231   8.788   9.395  12.811 -1.0998  0.4346 -0.8122
  343MOL0     O47232   8.751   9.269  12.848  0.9362  0.0774  0.2033
  343MOL0     C47233   8.731   9.236  12.981  0.1843  0.5487 -0.5420
  343MOL0     C47234   8.701   9.090  12.986 -0.2083 -0.0521  0.0938
  343MOL0     C47235   8.677   9.048  13.127 -0.8262 -0.1704 -0.8078
  343MOL0     C47236   8.672   8.897  13.143 -0.1403  0.0374 -0.3458
  343MOL0     C47237   8.586   8.824  13.052 -0.2300  0.1799 -1.1759
  343MOL0     C47238   8.559   8.674  13.104  0.4407  0.6321  0.2092
  343MOL0     C47239   8.682   8.581  13.083  0.1781  0.3985 -0.1007
  343MOL0     C47240   8.673   8.448  13.162  0.0989 -0.6428  0.4362
  343MOL0    Cl47241   8.634   8.456  13.340 -0.4996 -0.1619 -0.3779
  343MOL0     C47242   8.793   9.431  12.677  0.7051 -0.0014  1.1160
  343MOL0     C47243   8.831   9.560  12.637 -0.0614  0.4790 -0.6377
  343MOL0     O47244   8.721   9.851  12.636  0.5125 -0.8693  0.2797
  343MOL0     C47245   9.032   9.986  12.524  0.2734  0.2215 -0.3698
  343MOL0     C47246   9.086  10.081  12.437 -0.4895 -0.0865 -0.7730
  343MOL0     N47247   9.383  10.149  12.609 -0.4803 -0.2991  0.7820
  343MOL0     N47248   9.413  10.038  12.541 -0.1009 -0.2553  0.8331
  343MOL0     C47249  10.177  10.234  11.709 -0.0285 -0.7028 -0.7096
  343MOL0     C47250  10.205  10.260  11.579  0.2007 -0.8410 -0.1661
  343MOL0     C47251  10.142  10.310  11.132  0.1548 -0.0814  0.3052
  343MOL0     C47252  10.205  10.202  11.075  0.8204  0.2744  0.5949
  343MOL0     C47253  10.220  10.193  10.941 -1.1401 -0.3026  0.3813
  343MOL0     C47254  10.177  10.297  10.852  0.8735 -0.0173  0.9432
  343MOL0     O47255  10.188  10.276  10.713 -0.0236  0.1058 -0.0005
  343MOL0     C47256  10.077  10.321  10.625 -0.4599  0.3238 -0.0492
  343MOL0     C47257  10.082  10.248  10.491 -0.6406 -0.1941  0.5359
  343MOL0     C47258   9.994  10.317  10.388  0.2469  0.2170  0.3950
  343MOL0     C47259  10.055  10.311  10.235 -0.4549 -0.3745 -0.2464
  343MOL0     C47260  10.048  10.174  10.188  0.2792  0.1169  0.5641
  343MOL0     C47261  10.054  10.060  10.153 -0.2363  0.4204 -0.0513
  343MOL0     C47262  10.125  10.414  10.904  1.0141  0.4970 -0.5463
  343MOL0     C47263  10.108  10.416  11.047  0.3440 -0.0737 -0.0724
  343MOL0     C47264  10.039  10.537  11.098 -0.0774 -0.7716 -0.0351
  343MOL0     H47265   9.995  10.013  11.453  0.9989 -0.2688  0.2173
  343MOL0     H47266   9.953   9.979  11.680 -1.4616  1.4969 -1.2735
  343MOL0     H47267  10.277  10.115  11.950 -1.4706  1.9432  1.9282
  343MOL0     H47268  10.198   9.958  11.914 -1.0504  0.0775  0.7754
  343MOL0     H47269  10.244   9.986  12.153 -0.7934  1.8212  2.8337
  343MOL0     H47270  10.172  10.142  12.148  2.0295 -0.2410 -0.0212
  343MOL0     H47271   9.950  10.032  12.086  1.6249  2.3172 -0.5987
  343MOL0     H47272  10.011   9.878  12.092  0.0646 -1.0225  0.9644
  343MOL0     H47273  10.067   9.907  12.349  0.7916  1.3262  0.8535
  343MOL0     H47274   9.983  10.055  12.341  0.2922  0.4812 -2.3909
  343MOL0     H47275   9.838   9.850  12.408 -2.6722  3.9474  0.5123
  343MOL0     H47276   9.864   9.782  12.247  0.1745  1.6546 -0.7320
  343MOL0     H47277   9.773  10.063  12.297  0.4709 -0.6720  0.8463
  343MOL0     H47278   9.732   9.962  12.148  0.4042  1.1422 -0.4829
  343MOL0     H47279   9.643   9.916  12.432  3.7209 -1.9692 -0.0625
  343MOL0     H47280   9.599   9.806  12.301 -3.2581  0.1692  0.7638
  343MOL0     H47281   9.488  10.047  12.220 -0.8130  1.2916 -0.6715
  343MOL0     H47282   9.413   9.905  12.308 -1.8242  2.1355 -2.1292
  343MOL0     H47283   9.539  10.286  12.366 -1.0815  2.6904  1.4871
  343MOL0     H47284   9.497  10.452  12.583  0.3840 -0.3915 -2.9918
  343MOL0     H47285   9.350  10.399  12.681  0.6019 -0.3526 -0.6939
  343MOL0     H47286   9.294  10.588  12.530 -2.9922  1.0535 -2.4257
  343MOL0     H47287   9.368  10.514  12.393  2.0453 -5.2727 -0.9717
  343MOL0     H47288   9.157  10.359  12.532  1.6043 -0.3008 -0.7221
  343MOL0     H47289   9.101  10.506  12.460 -0.4189 -0.0473  2.8890
  343MOL0     H47290   9.189  10.428  12.251  3.0923  1.2726  2.5109
  343MOL0     H47291   9.254  10.273  12.317 -0.6171 -1.7598 -0.8446
  343MOL0     H47292   8.808  10.276  12.412  1.5585  0.5221 -1.7895
  343MOL0     H47293   8.605  10.060  12.484 -0.4381  1.5287 -1.0991
  343MOL0     H47294   8.634  10.216  12.560 -1.4929 -0.1395 -0.1787
  343MOL0     H47295   8.656  10.078  12.657  1.3893 -0.5242 -0.6853
  343MOL0     H47296   8.899   9.684  12.946  0.0072  0.8492 -0.9080
  343MOL0     H47297   8.843   9.474  13.013 -0.1461  2.3382 -0.9132
  343MOL0     H47298   8.821   9.262  13.037 -1.5891  2.4449  1.6918
  343MOL0     H47299   8.654   9.305  13.020  1.0771  0.2057  2.0395
  343MOL0     H47300   8.615   9.066  12.923  0.8252 -0.8160 -1.0777
  343MOL0     H47301   8.782   9.026  12.948 -1.3307 -1.5332  0.0975
  343MOL0     H47302   8.577   9.084  13.152  0.1824 -0.0248  3.7923
  343MOL0     H47303   8.751   9.093  13.194 -0.0479  0.2205 -1.8945
  343MOL0     H47304   8.653   8.877  13.249  0.9855 -0.9646 -0.3162
  343MOL0     H47305   8.776   8.867  13.126 -0.9156 -1.3777 -3.1144
  343MOL0     H47306   8.485   8.865  13.049  0.1149  1.1736 -0.1164
  343MOL0     H47307   8.623   8.822  12.950 -0.2404  4.2437 -1.4053
  343MOL0     H47308   8.492   8.625  13.033  0.3473  3.2644 -1.6894
  343MOL0     H47309   8.516   8.674  13.205  2.3572 -2.6632  1.2052
  343MOL0     H47310   8.773   8.630  13.119  0.1213  0.4899 -0.0797
  343MOL0     H47311   8.707   8.560  12.979 -3.5073  0.0454 -1.0552
  343MOL0     H47312   8.768   8.397  13.142  0.2306  0.0067 -0.7207
  343MOL0     H47313   8.580   8.405  13.124 -1.8648  1.8562  2.0414
  343MOL0     H47314   8.772   9.361  12.597  0.1329  2.4779 -1.0255
  343MOL0     H47315   8.834   9.577  12.530 -0.3625 -0.0862 -0.7425
  343MOL0     H47316   9.090   9.898  12.551 -1.2980 -0.3871  1.1951
  343MOL0     H47317   9.187  10.071  12.399 -0.5807 -0.0983 -1.0167
  343MOL0     H47318  10.216  10.303  11.783 -0.1303 -1.1646 -0.2178
  343MOL0     H47319  10.272  10.344  11.560 -1.3862  0.5288  0.0770
  343MOL0     H47320  10.239  10.119  11.137  0.4290 -1.0372 -0.8994
  343MOL0     H47321  10.262  10.098  10.908 -1.5159 -0.6701  0.9434
  343MOL0     H47322   9.984  10.296  10.678 -0.0807  0.0359  0.5014
  343MOL0     H47323  10.076  10.430  10.613  0.9617  0.2648 -0.7779
  343MOL0     H47324  10.069  10.139  10.491  2.2017 -0.6129 -0.2178
  343MOL0     H47325  10.184  10.256  10.453 -1.3951  0.3538 -1.4950
  343MOL0     H47326   9.896  10.269  10.388  0.5197 -0.3504  0.0796
  343MOL0     H47327   9.981  10.424  10.410  0.0692 -0.2978  3.1574
  343MOL0     H47328  10.159  10.342  10.244 -1.0330  0.9635  4.2929
  343MOL0     H47329   9.996  10.372  10.166 -0.8164 -2.9387 -2.3498
  343MOL0     H47330  10.091   9.968  10.113 -0.3849  0.2138  0.2797
  343MOL0     H47331  10.086  10.495  10.842 -1.1603  0.4697  0.6811
  343MOL0     H47332  10.026  10.617  11.025  0.7107  0.7188  1.3849
  343MOL0     H47333   9.941  10.502  11.132 -0.9593  0.0791 -1.5880
  343MOL0     H47334  10.094  10.587  11.179  0.7492  0.0160 -1.0626
  344MOL0     O47335   1.542   1.023   8.853  0.1857 -0.7160  0.4721
  344MOL0     C47336   1.582   0.912   8.824  0.2885  0.6318 -0.8079
  344MOL0     O47337   1.607   0.873   8.695 -0.2285  0.0455  0.0519
  344MOL0     C47338   1.557   0.961   8.596  1.0276 -1.4658 -0.9465
  344MOL0     C47339   1.440   0.946   8.528 -0.3682  0.4729 -0.2092
  344MOL0     C47340   1.413   1.027   8.415 -0.3169 -0.0581 -0.3724
  344MOL0     C47341   1.499   1.125   8.369 -0.4180  0.4824  0.1949
  344MOL0     O47342   1.471   1.209   8.258 -0.0170  0.4563  0.1577
  344MOL0     C47343   1.381   1.168   8.157  0.5543  1.2255  0.3357
  344MOL0     C47344   1.444   1.244   8.030  0.3388  0.2178 -0.2654
  344MOL0     C47345   1.546   1.163   7.951  0.6999  0.1113  0.2932
  344MOL0     C47346   1.536   1.217   7.812  0.2649 -0.0881  0.8794
  344MOL0     C47347   1.621   1.150   7.710  0.2652  0.7636  0.5661
  344MOL0     C47348   1.572   1.181   7.563  1.2483  0.2580 -0.6201
  344MOL0     C47349   1.647   1.085   7.465  1.4324 -0.8342  0.9032
  344MOL0     C47350   1.601   1.131   7.323  0.8958 -0.3103  0.8486
  344MOL0     N47351   1.664   1.056   7.218  0.4047  0.3976 -0.5967
  344MOL0     C47352   1.685   1.109   7.094  0.3568 -0.0560  0.5513
  344MOL0     C47353   1.710   1.000   7.015  0.6370 -0.0061 -0.2469
  344MOL0     C47354   1.752   0.999   6.873  0.1449 -0.8008  0.0217
  344MOL0     C47355   1.895   1.058   6.847  0.9094 -0.2365  0.4997
  344MOL0     C47356   1.943   1.026   6.713  0.1843 -0.4659  0.7005
  344MOL0     C47357   1.835   1.042   6.602  0.1984 -0.7071 -0.1414
  344MOL0     O47358   1.894   1.026   6.470  0.1104  0.2395 -0.3763
  344MOL0     C47359   1.816   1.096   6.380 -0.4404  0.7683 -0.1794
  344MOL0     C47360   1.798   1.241   6.382 -0.1782  0.5160  0.6048
  344MOL0     C47361   1.709   1.292   6.289  0.5537 -0.5868  0.8055
  344MOL0     C47362   1.708   1.448   6.280 -0.1774  0.3852  0.1193
  344MOL0     C47363   1.628   1.215   6.203  0.3995  1.0481 -0.4325
  344MOL0     C47364   1.536   1.270   6.097  0.6456  0.2455 -0.2810
  344MOL0     O47365   1.413   1.217   6.090 -0.5430  0.2012 -0.2676
  344MOL0     C47366   1.328   1.276   6.007 -0.3040  0.3141 -0.6257
  344MOL0     C47367   1.286   1.406   6.042 -0.5694  0.1995 -0.3631
  344MOL0     C47368   1.183   1.463   5.983  1.0863  0.3042  0.7935
  344MOL0     C47369   1.111   1.390   5.874  0.3680 -0.2746 -1.0231
  344MOL0     O47370   1.002   1.448   5.817 -0.2761  0.2756 -0.4671
  344MOL0     C47371   0.921   1.386   5.719  0.5356 -0.1552  0.8257
  344MOL0     C47372   0.814   1.479   5.690  0.4404  0.0344 -0.8534
  344MOL0     C47373   0.707   1.435   5.592  0.0815 -0.3829  0.0228
  344MOL0     C47374   0.618   1.329   5.651 -0.2028 -0.6379 -0.6015
  344MOL0     C47375   0.525   1.286   5.532 -0.1438  0.3021 -0.4777
  344MOL0     C47376   0.396   1.367   5.521  0.1831 -0.0482 -0.5902
  344MOL0     C47377   0.287   1.298   5.422 -0.7453  0.8604 -0.7162
  344MOL0     C47378   0.145   1.345   5.431  0.1959  0.5569 -0.2315
  344MOL0    Cl47379   0.039   1.241   5.322  0.2704  0.0831  0.5862
  344MOL0     C47380   1.164   1.269   5.831  0.4258  0.0119  0.3120
  344MOL0     C47381   1.267   1.213   5.902 -0.4394 -1.0156  0.0657
  344MOL0     O47382   1.579   1.363   6.035  0.5575 -0.0071 -0.1461
  344MOL0     C47383   1.645   1.080   6.209 -0.8179  0.3344 -1.3581
  344MOL0     C47384   1.738   1.012   6.292  0.3272 -1.3194  0.2016
  344MOL0     N47385   1.688   0.886   7.084 -0.2471 -0.4876 -0.2748
  344MOL0     N47386   1.662   0.916   7.207  0.1374  0.2054 -0.1445
  344MOL0     C47387   1.616   1.141   8.450 -0.2076 -0.5526 -0.2151
  344MOL0     C47388   1.640   1.063   8.560 -0.1938  0.8088  0.0256
  344MOL0     C47389   1.617   0.822   8.930 -0.1324  0.1897  0.2100
  344MOL0     C47390   1.706   0.713   8.904  0.0426  0.5131 -0.4901
  344MOL0     C47391   1.750   0.624   9.004  0.3745  0.1677  0.0925
  344MOL0     C47392   1.707   0.636   9.142 -0.1222 -0.3551 -0.1373
  344MOL0     O47393   1.752   0.570   9.244 -0.3945  0.1678  0.0112
  344MOL0     C47394   1.843   0.472   9.222  0.2252 -0.2482  0.4627
  344MOL0     C47395   1.911   0.449   9.359  0.3231  0.7944 -0.3412
  344MOL0     C47396   1.936   0.299   9.375 -0.7858  0.3964  0.1265
  344MOL0     C47397   2.014   0.265   9.504 -0.0916 -0.0476 -0.8167
  344MOL0     C47398   2.152   0.225   9.470  0.1500 -1.0906  0.3125
  344MOL0     C47399   2.265   0.191   9.452  0.3878 -0.6446  1.3325
  344MOL0     C47400   1.622   0.745   9.170  0.4117  0.2772 -0.8370
  344MOL0     C47401   1.569   0.837   9.071  0.3854 -0.1296  0.5623
  344MOL0     C47402   1.462   0.932   9.116  0.2017 -0.0473 -0.3009
  344MOL0     H47403   1.385   0.859   8.560  2.4115 -0.8143  1.5235
  344MOL0     H47404   1.324   1.013   8.355  0.9708 -0.1944 -2.3251
  344MOL0     H47405   1.278   1.191   8.185 -0.3809 -1.1415 -0.9415
  344MOL0     H47406   1.386   1.060   8.143  0.1847  1.2570 -0.0629
  344MOL0     H47407   1.352   1.255   7.973 -0.9165 -2.2006  1.0962
  344MOL0     H47408   1.475   1.345   8.055  1.1941 -0.4132  1.3505
  344MOL0     H47409   1.646   1.169   7.996  0.7548 -0.2234  0.2182
  344MOL0     H47410   1.523   1.056   7.944 -0.0779  0.3762 -3.4602
  344MOL0     H47411   1.434   1.212   7.773 -0.9733  1.0406  3.6939
  344MOL0     H47412   1.546   1.326   7.800 -1.8475  0.3401  2.4503
  344MOL0     H47413   1.609   1.042   7.721 -1.0442  0.9316  0.9673
  344MOL0     H47414   1.728   1.161   7.728  0.6402  0.2293 -1.1307
  344MOL0     H47415   1.463   1.175   7.555  0.9033  2.7409  0.8950
  344MOL0     H47416   1.592   1.285   7.534  2.8621  0.0865 -0.2052
  344MOL0     H47417   1.622   0.978   7.472 -1.7221 -0.1265  1.9610
  344MOL0     H47418   1.755   1.097   7.481  1.8335 -2.8750  0.0295
  344MOL0     H47419   1.493   1.117   7.317  0.1101  3.6507  2.6479
  344MOL0     H47420   1.615   1.239   7.306  2.4006 -0.4567  1.0357
  344MOL0     H47421   1.710   1.213   7.076  1.0435 -0.6262 -2.2640
  344MOL0     H47422   1.673   1.049   6.817 -0.4831 -1.1789  0.5631
  344MOL0     H47423   1.754   0.896   6.835 -1.7899 -1.0910  0.5761
  344MOL0     H47424   1.894   1.166   6.864  0.9505 -0.1951  0.2527
  344MOL0     H47425   1.968   1.034   6.923  1.2909  0.3478  0.3228
  344MOL0     H47426   2.030   1.086   6.687  0.9180 -1.0428  1.7679
  344MOL0     H47427   1.986   0.925   6.707 -2.5167 -1.7276  0.9705
  344MOL0     H47428   1.746   0.978   6.607 -0.0043 -0.6393 -2.1270
  344MOL0     H47429   1.802   1.144   6.625 -1.2406 -1.1819  0.0207
  344MOL0     H47430   1.853   1.305   6.450 -1.7839  1.7306  0.8173
  344MOL0     H47431   1.608   1.491   6.288 -1.6340 -2.4998 -1.3901
  344MOL0     H47432   1.753   1.479   6.185  0.3028 -0.6032  0.0135
  344MOL0     H47433   1.760   1.492   6.366  0.4706  0.7081 -0.4249
  344MOL0     H47434   1.330   1.457   6.128 -0.8828 -2.0338  1.1899
  344MOL0     H47435   1.144   1.559   6.016 -1.3267  0.0420 -1.1024
  344MOL0     H47436   0.984   1.378   5.629  0.0506  1.7389  0.2696
  344MOL0     H47437   0.876   1.293   5.754 -2.2566  2.0446  3.6179
  344MOL0     H47438   0.769   1.499   5.788  4.2376  0.6756  0.9613
  344MOL0     H47439   0.853   1.578   5.662 -0.3480  0.2409 -1.2279
  344MOL0     H47440   0.757   1.402   5.501  1.0818  0.6475  0.1812
  344MOL0     H47441   0.644   1.523   5.576 -1.0468 -0.6624  2.4377
  344MOL0     H47442   0.560   1.358   5.738 -1.3151  0.2433 -1.6140
  344MOL0     H47443   0.690   1.251   5.679  1.2461  0.9958  0.4421
  344MOL0     H47444   0.589   1.289   5.443  0.2066  1.2653 -0.2065
  344MOL0     H47445   0.489   1.186   5.555 -2.5185  1.4793  1.3795
  344MOL0     H47446   0.404   1.476   5.524 -0.3611 -0.0082 -0.4565
  344MOL0     H47447   0.362   1.364   5.625  0.4631  0.6349 -0.4775
  344MOL0     H47448   0.280   1.194   5.454 -1.0183  0.8646 -0.7598
  344MOL0     H47449   0.320   1.294   5.318 -1.8697  0.5269 -1.0730
  344MOL0     H47450   0.146   1.453   5.412  1.1175  0.4055 -1.1112
  344MOL0     H47451   0.117   1.338   5.536 -1.6261  3.3548 -0.4298
  344MOL0     H47452   1.128   1.225   5.738 -0.7127  0.2273  0.6391
  344MOL0     H47453   1.294   1.109   5.885  0.0271 -1.4217  2.8841
  344MOL0     H47454   1.595   1.031   6.126 -2.8961  0.1463 -0.0603
  344MOL0     H47455   1.743   0.904   6.280 -3.7190 -1.5609 -0.5918
  344MOL0     H47456   1.687   1.220   8.427  0.6642 -0.4450  2.4690
  344MOL0     H47457   1.730   1.071   8.619 -1.6511  0.9137  2.3902
  344MOL0     H47458   1.727   0.679   8.803  0.8341  2.3412 -0.9858
  344MOL0     H47459   1.810   0.545   8.960 -3.0047 -3.2947  1.1471
  344MOL0     H47460   1.798   0.384   9.175  2.8195 -1.7627  0.6112
  344MOL0     H47461   1.923   0.494   9.150 -0.2768 -1.1464 -0.3973
  344MOL0     H47462   1.847   0.476   9.444  2.5429  0.3379  1.5591
  344MOL0     H47463   2.004   0.505   9.367  0.5857  0.3062  0.0727
  344MOL0     H47464   1.837   0.254   9.365 -1.0229  1.2353 -1.8677
  344MOL0     H47465   1.994   0.270   9.286  0.5675 -1.9282  1.6810
  344MOL0     H47466   1.965   0.192   9.570  1.9020  1.1698  2.2571
  344MOL0     H47467   2.027   0.353   9.568 -1.1670 -2.0046  2.3274
  344MOL0     H47468   2.368   0.170   9.432  0.6379  2.4675 -1.6537
  344MOL0     H47469   1.601   0.758   9.275  1.1929  2.7195 -0.9238
  344MOL0     H47470   1.442   0.915   9.222  1.6669 -0.1643 -0.0197
  344MOL0     H47471   1.492   1.035   9.095  0.7509  0.1171  1.2034
  344MOL0     H47472   1.369   0.909   9.063 -0.2671 -0.1993  0.5667
  345MOL0     O47473   0.091   3.086   4.942  0.4114 -0.9930  0.0601
  345MOL0     C47474  -0.011   3.037   4.904 -0.3277 -0.0403  0.3910
  345MOL0     O47475  -0.083   3.078   4.801 -0.1026 -0.4328 -0.2610
  345MOL0     C47476  -0.065   3.205   4.755 -0.1590  0.2132 -0.2070
  345MOL0     C47477  -0.173   3.294   4.779 -0.4436 -0.6831 -0.7416
  345MOL0     C47478  -0.159   3.424   4.734  0.3435  0.2961  0.4068
  345MOL0     C47479  -0.051   3.476   4.676  0.2608  0.7894  1.3872
  345MOL0     O47480  -0.044   3.606   4.631  0.7306 -0.8994 -0.0916
  345MOL0     C47481  -0.171   3.669   4.608 -0.0952 -1.4163 -0.4817
  345MOL0     C47482  -0.169   3.797   4.523 -0.6766 -0.0702  0.1547
  345MOL0     C47483  -0.144   3.924   4.615  0.6288  0.9899  0.0008
  345MOL0     C47484  -0.133   4.043   4.521 -0.6357  0.3122  0.6175
  345MOL0     C47485  -0.094   4.176   4.570 -1.0508 -0.2329  0.0889
  345MOL0     C47486  -0.207   4.231   4.643 -0.0618 -0.0580 -0.1443
  345MOL0     C47487  -0.199   4.382   4.679  0.5380 -0.4901 -0.5696
  345MOL0     C47488  -0.328   4.451   4.713  0.7199 -0.1824 -0.8173
  345MOL0     N47489  -0.299   4.574   4.781 -0.4413 -0.0479  0.0706
  345MOL0     C47490  -0.362   4.621   4.895 -1.1608  0.6427  0.0629
  345MOL0     C47491  -0.310   4.744   4.913  0.2704 -0.0671  0.5659
  345MOL0     C47492  -0.354   4.847   5.014 -1.2326  0.3823 -0.4765
  345MOL0     C47493  -0.294   4.806   5.149  0.2994  0.0181 -0.1436
  345MOL0     C47494  -0.362   4.877   5.265 -0.1242  0.3305 -0.8819
  345MOL0     C47495  -0.342   5.031   5.260 -0.1045 -0.3935 -0.2628
  345MOL0     O47496  -0.443   5.072   5.157 -0.4128  0.4536 -0.1282
  345MOL0     C47497  -0.538   5.157   5.180  0.0489 -0.1491 -0.1338
  345MOL0     C47498  -0.500   5.279   5.223 -0.0343  0.5389  0.6297
  345MOL0     C47499  -0.595   5.375   5.253 -0.3388 -0.0075 -0.2057
  345MOL0     C47500  -0.546   5.501   5.309 -0.5789  0.5782  0.3227
  345MOL0     C47501  -0.734   5.343   5.246  0.3712  0.9639 -0.5348
  345MOL0     C47502  -0.846   5.436   5.277 -0.1854 -0.1193 -0.1185
  345MOL0     O47503  -0.962   5.404   5.204  0.2829  0.5897 -0.4101
  345MOL0     C47504  -1.079   5.480   5.208 -0.0797  0.1541  0.0869
  345MOL0     C47505  -1.172   5.427   5.291  0.1249  0.0362 -0.2728
  345MOL0     C47506  -1.278   5.503   5.341 -0.2837  0.2618 -0.5502
  345MOL0     C47507  -1.305   5.640   5.287 -0.3870  1.0080 -1.2440
  345MOL0     O47508  -1.417   5.694   5.330 -0.3898 -0.2142 -0.4859
  345MOL0     C47509  -1.490   5.767   5.231  0.4421  0.2406  0.0658
  345MOL0     C47510  -1.629   5.828   5.290  0.2090  0.4047  1.1891
  345MOL0     C47511  -1.717   5.710   5.353  0.0672  0.2346  0.6204
  345MOL0     C47512  -1.847   5.677   5.280 -0.6058 -1.8065 -0.4537
  345MOL0     C47513  -1.923   5.571   5.352  0.2659  0.4480  0.2834
  345MOL0     C47514  -2.009   5.485   5.257 -0.7369 -0.2897 -0.4060
  345MOL0     C47515  -2.111   5.562   5.179  1.3565  0.6699 -0.6708
  345MOL0     C47516  -2.149   5.497   5.041  0.5246  0.1994  0.2074
  345MOL0    Cl47517  -2.254   5.342   5.031  0.1200 -0.4937  0.6455
  345MOL0     C47518  -1.224   5.680   5.187 -0.2554  0.0659 -0.7455
  345MOL0     C47519  -1.098   5.612   5.162 -0.5796 -0.4083  0.0996
  345MOL0     O47520  -0.843   5.514   5.368 -0.5431 -0.7483 -0.5420
  345MOL0     C47521  -0.769   5.218   5.194  0.6503 -1.3949  0.2227
  345MOL0     C47522  -0.672   5.128   5.157 -0.5141 -0.2614 -0.0648
  345MOL0     N47523  -0.225   4.776   4.805  0.0628 -0.0142 -0.6319
  345MOL0     N47524  -0.221   4.671   4.730  0.3796  0.3880  0.7577
  345MOL0     C47525   0.051   3.380   4.653  0.3176 -0.4714  0.5043
  345MOL0     C47526   0.046   3.252   4.688  0.3989 -0.5915  0.2576
  345MOL0     C47527  -0.060   2.903   4.947  0.6086  1.1230 -0.4855
  345MOL0     C47528  -0.203   2.876   4.955 -0.2807  0.8694  0.4060
  345MOL0     C47529  -0.248   2.756   4.995  0.0878 -0.2807  0.4284
  345MOL0     C47530  -0.162   2.655   5.032  0.0108 -0.7570 -0.0217
  345MOL0     O47531  -0.197   2.528   5.073 -0.1531  0.0576 -0.0109
  345MOL0     C47532  -0.329   2.494   5.119 -0.0628 -0.8595 -0.7323
  345MOL0     C47533  -0.409   2.455   4.992 -0.0359  0.4651  0.4914
  345MOL0     C47534  -0.431   2.299   5.004  0.9640 -0.1469  0.9775
  345MOL0     C47535  -0.515   2.241   4.893  0.5707 -0.5216  0.3330
  345MOL0     C47536  -0.463   2.279   4.756 -0.3493 -0.3805  0.2690
  345MOL0     C47537  -0.427   2.312   4.644  0.2313  0.6585  0.5731
  345MOL0     C47538  -0.027   2.683   5.032 -0.1553 -0.1159  1.5413
  345MOL0     C47539   0.027   2.804   4.985 -0.5486  0.4353 -1.1262
  345MOL0     C47540   0.172   2.811   4.981  0.3522 -0.4487  0.5264
  345MOL0     H47541  -0.266   3.254   4.817 -0.4122  0.0092  0.0810
  345MOL0     H47542  -0.240   3.495   4.750 -0.7313 -0.3622 -1.7530
  345MOL0     H47543  -0.202   3.689   4.711  2.4497  0.5024  0.0232
  345MOL0     H47544  -0.243   3.605   4.557  0.2075 -2.5183  0.4412
  345MOL0     H47545  -0.090   3.793   4.447 -1.3483  3.3176 -0.8843
  345MOL0     H47546  -0.262   3.811   4.467  1.0477 -0.6347 -3.1023
  345MOL0     H47547  -0.227   3.932   4.685  0.2477 -1.7478 -0.0191
  345MOL0     H47548  -0.047   3.925   4.664  2.1589 -1.6865 -2.6557
  345MOL0     H47549  -0.067   4.022   4.436 -0.1196  1.8844  0.5934
  345MOL0     H47550  -0.228   4.058   4.468 -1.1324 -0.6816  1.2002
  345MOL0     H47551  -0.076   4.246   4.489 -0.1701 -1.5699 -0.9128
  345MOL0     H47552  -0.003   4.178   4.631 -0.6188 -0.1691 -0.5564
  345MOL0     H47553  -0.297   4.226   4.580 -1.7686  2.2914  1.9013
  345MOL0     H47554  -0.223   4.168   4.730 -2.5722  0.7386  0.0445
  345MOL0     H47555  -0.148   4.445   4.606  2.1950 -1.8708 -0.6667
  345MOL0     H47556  -0.130   4.393   4.763 -0.5791 -1.4008  0.5282
  345MOL0     H47557  -0.382   4.468   4.619 -0.2113  0.4475 -0.1845
  345MOL0     H47558  -0.398   4.396   4.776 -0.3602 -3.1622 -4.2349
  345MOL0     H47559  -0.410   4.567   4.976  4.0081 -0.1752  3.0425
  345MOL0     H47560  -0.463   4.845   5.022 -1.2003 -4.6781  3.5374
  345MOL0     H47561  -0.320   4.947   4.984 -0.5400 -0.4135 -2.5620
  345MOL0     H47562  -0.304   4.697   5.158 -2.0456 -0.0789 -2.8245
  345MOL0     H47563  -0.186   4.821   5.161  0.2788 -1.5399  3.2294
  345MOL0     H47564  -0.467   4.845   5.257  0.2628 -1.8233  1.3910
  345MOL0     H47565  -0.326   4.824   5.354 -2.2262 -1.3051 -0.8986
  345MOL0     H47566  -0.363   5.085   5.353 -0.8373 -1.6274  0.3164
  345MOL0     H47567  -0.241   5.053   5.224  1.1343  0.8334  3.5586
  345MOL0     H47568  -0.392   5.294   5.219  0.1409 -0.8902 -0.9543
  345MOL0     H47569  -0.444   5.516   5.271 -1.1994  1.5884 -1.0443
  345MOL0     H47570  -0.539   5.503   5.418  2.4515 -1.7098  0.3104
  345MOL0     H47571  -0.604   5.588   5.279 -1.1305  0.8053  1.9781
  345MOL0     H47572  -1.161   5.327   5.332 -4.8282 -0.0399  1.5607
  345MOL0     H47573  -1.335   5.457   5.421  2.8124  0.2053  1.8073
  345MOL0     H47574  -1.431   5.850   5.191  1.3088 -0.3027  0.2145
  345MOL0     H47575  -1.506   5.689   5.156 -2.7659  0.7924  0.0080
  345MOL0     H47576  -1.604   5.905   5.364  1.0978  4.6611 -2.9818
  345MOL0     H47577  -1.689   5.882   5.215 -0.0252  1.4615  2.1055
  345MOL0     H47578  -1.743   5.748   5.452  1.5838 -1.8359  1.8853
  345MOL0     H47579  -1.650   5.625   5.369  2.0208  1.3831 -0.9499
  345MOL0     H47580  -1.826   5.647   5.177  0.2355  0.9871 -1.2065
  345MOL0     H47581  -1.902   5.772   5.280 -0.1442 -1.4283 -3.3637
  345MOL0     H47582  -1.851   5.508   5.405  0.0793  1.8758  2.3566
  345MOL0     H47583  -1.987   5.620   5.426  0.9402 -0.3172  1.4107
  345MOL0     H47584  -2.055   5.407   5.318  2.6051 -1.5032  0.8176
  345MOL0     H47585  -1.949   5.430   5.184  0.1721 -0.5508  0.5088
  345MOL0     H47586  -2.067   5.660   5.160  3.3266  0.0752  0.5738
  345MOL0     H47587  -2.204   5.573   5.237 -0.1471 -0.3687 -2.7492
  345MOL0     H47588  -2.060   5.480   4.980  0.5363  1.0186 -0.0183
  345MOL0     H47589  -2.210   5.571   4.987 -1.6929  0.5703  2.9774
  345MOL0     H47590  -1.242   5.765   5.122 -1.6624  3.0261  3.1064
  345MOL0     H47591  -1.023   5.650   5.094  1.2065  0.6882  2.5689
  345MOL0     H47592  -0.871   5.187   5.173 -0.1558  1.4007 -0.4224
  345MOL0     H47593  -0.696   5.033   5.110  1.6911  0.2966 -2.5505
  345MOL0     H47594   0.141   3.415   4.606  1.0496 -2.7099  0.1265
  345MOL0     H47595   0.125   3.181   4.666  2.5222  0.7597  2.8462
  345MOL0     H47596  -0.280   2.942   4.918 -0.1831  0.3834 -0.7089
  345MOL0     H47597  -0.354   2.737   4.979  0.3491 -1.9295  0.4724
  345MOL0     H47598  -0.326   2.412   5.192  2.1843  0.5726  0.9209
  345MOL0     H47599  -0.376   2.583   5.162 -0.6497 -0.9320 -1.2054
  345MOL0     H47600  -0.362   2.483   4.898 -0.9984 -1.1875 -0.5329
  345MOL0     H47601  -0.507   2.503   4.990 -0.7415 -0.9059 -0.8766
  345MOL0     H47602  -0.332   2.252   5.002  1.5751  1.1255 -0.3899
  345MOL0     H47603  -0.470   2.267   5.102  1.8203 -1.4504  0.9252
  345MOL0     H47604  -0.618   2.278   4.893  0.5343 -0.2903 -2.9477
  345MOL0     H47605  -0.505   2.134   4.911  2.6960 -0.5524 -0.6616
  345MOL0     H47606  -0.385   2.359   4.557  0.5325 -1.1941 -0.3286
  345MOL0     H47607   0.033   2.596   5.059  0.0632 -0.3989  0.2266
  345MOL0     H47608   0.204   2.849   4.883 -1.9282  2.5378  0.8133
  345MOL0     H47609   0.201   2.889   5.051 -1.1438 -1.3577  2.2289
  345MOL0     H47610   0.222   2.720   5.017 -0.2976 -0.4971  1.3156
  346MOL0     O47611   4.790   1.553   9.819  0.2259  0.2608 -0.2608
  346MOL0     C47612   4.707   1.626   9.762  0.1373  0.2417  0.3263
  346MOL0     O47613   4.731   1.709   9.647 -0.5445 -0.0626 -0.7182
  346MOL0     C47614   4.860   1.745   9.642  0.5018  0.0277  0.0367
  346MOL0     C47615   4.961   1.672   9.584 -1.0992  0.0223 -0.4072
  346MOL0     C47616   5.090   1.693   9.602 -0.2601 -0.6208  0.8329
  346MOL0     C47617   5.131   1.813   9.662  1.1206  0.3469 -0.8494
  346MOL0     O47618   5.262   1.835   9.691  0.3598 -0.1099 -0.6400
  346MOL0     C47619   5.359   1.756   9.614 -0.4575  0.7216  0.4283
  346MOL0     C47620   5.496   1.824   9.642  0.5300 -0.2986  0.6279
  346MOL0     C47621   5.529   1.832   9.795  0.5168  0.5670  0.8122
  346MOL0     C47622   5.662   1.889   9.831 -0.4681 -1.0134 -1.7923
  346MOL0     C47623   5.699   1.836   9.971 -0.9613  0.7797  0.1279
  346MOL0     C47624   5.611   1.887  10.085 -0.1228  0.1469 -0.2650
  346MOL0     C47625   5.638   1.794  10.210 -0.2086  0.2334 -0.6631
  346MOL0     C47626   5.593   1.865  10.335 -0.0913  0.0433  0.5725
  346MOL0     N47627   5.580   1.769  10.442  0.6608 -0.5907 -0.0912
  346MOL0     C47628   5.654   1.782  10.555  0.1571 -1.3205  0.1686
  346MOL0     C47629   5.622   1.673  10.629 -1.0008 -0.6556  0.6305
  346MOL0     C47630   5.664   1.646  10.770 -0.2729 -0.8008  0.7871
  346MOL0     C47631   5.698   1.498  10.793 -0.2046  0.3206 -0.2317
  346MOL0     C47632   5.749   1.475  10.934 -0.6114 -0.2312 -0.2049
  346MOL0     C47633   5.896   1.506  10.941 -0.2441 -0.4872  0.6181
  346MOL0     O47634   5.973   1.396  10.890  0.2946 -0.1862 -0.9107
  346MOL0     C47635   6.110   1.396  10.923  0.9441  1.2861 -0.3382
  346MOL0     C47636   6.203   1.400  10.821 -0.8738 -1.6452  0.3879
  346MOL0     C47637   6.345   1.414  10.850  0.4345  0.0618  0.5268
  346MOL0     C47638   6.443   1.449  10.741  0.6987 -0.8089 -0.1991
  346MOL0     C47639   6.377   1.410  10.985  0.1025  0.3329  0.5910
  346MOL0     C47640   6.520   1.430  11.029  0.6222 -0.3205  0.5197
  346MOL0     O47641   6.549   1.494  11.147  0.0526  0.4787  0.3349
  346MOL0     C47642   6.676   1.494  11.201  0.1896 -0.2100 -0.1571
  346MOL0     C47643   6.715   1.602  11.276 -0.0698 -0.3767 -0.0075
  346MOL0     C47644   6.843   1.622  11.332 -0.2695  0.1058  0.0754
  346MOL0     C47645   6.934   1.512  11.325  0.5364  0.1893 -0.7331
  346MOL0     O47646   7.055   1.522  11.386 -0.3616  0.1568 -0.3899
  346MOL0     C47647   7.046   1.424  11.486 -0.9149  0.0758 -0.6939
  346MOL0     C47648   7.151   1.422  11.602 -0.9983  0.2806  0.3440
  346MOL0     C47649   7.152   1.559  11.674  0.1459  1.2572 -0.0812
  346MOL0     C47650   7.030   1.615  11.754 -1.0839  0.1653  0.0703
  346MOL0     C47651   7.051   1.744  11.824  0.1958 -0.5891 -1.2642
  346MOL0     C47652   7.011   1.862  11.734 -1.2479 -0.3093 -0.1152
  346MOL0     C47653   7.069   1.996  11.794  0.1873 -0.1673 -0.1042
  346MOL0     C47654   7.093   2.102  11.689  0.1364 -0.0516 -0.4186
  346MOL0    Cl47655   6.939   2.174  11.627  0.4836 -0.1386 -0.2315
  346MOL0     C47656   6.900   1.403  11.243  0.9158 -0.7066  0.1746
  346MOL0     C47657   6.780   1.398  11.183 -0.0000  0.0761 -0.9635
  346MOL0     O47658   6.602   1.391  10.947 -0.5389  0.5439  0.0383
  346MOL0     C47659   6.284   1.391  11.089 -0.7318 -0.6753 -0.2292
  346MOL0     C47660   6.150   1.382  11.057  0.5136 -0.4867 -0.2156
  346MOL0     N47661   5.550   1.580  10.551 -0.3983 -0.7204 -0.1298
  346MOL0     N47662   5.518   1.643  10.443  1.0378  0.1753  0.5525
  346MOL0     C47663   5.040   1.905   9.715  0.0519  0.3320 -0.0842
  346MOL0     C47664   4.899   1.868   9.705 -0.6135 -0.3688  0.2198
  346MOL0     C47665   4.571   1.647   9.823 -0.1871  0.7429  0.2640
  346MOL0     C47666   4.467   1.694   9.744  0.8713  0.0123 -0.8525
  346MOL0     C47667   4.337   1.695   9.775  0.7049 -1.1820  0.3022
  346MOL0     C47668   4.302   1.677   9.909  0.7052 -0.5779 -1.1865
  346MOL0     O47669   4.171   1.707   9.951  0.1636  0.5811  0.2149
  346MOL0     C47670   4.136   1.706  10.084  0.2684  0.2713 -0.1003
  346MOL0     C47671   4.018   1.800  10.097  0.1145  0.7150 -0.5940
  346MOL0     C47672   3.971   1.797  10.247  0.3011  0.0245  0.1693
  346MOL0     C47673   3.846   1.882  10.286 -0.9051 -0.1487 -0.0544
  346MOL0     C47674   3.883   2.022  10.278 -0.7683 -0.9524  0.1367
  346MOL0     C47675   3.907   2.139  10.267  0.0359  1.1587  0.0567
  346MOL0     C47676   4.400   1.627   9.999 -1.0041  0.1209 -0.1302
  346MOL0     C47677   4.532   1.603   9.955 -0.1461 -1.0877 -0.1005
  346MOL0     C47678   4.631   1.549  10.067  0.2310  0.4409 -0.5358
  346MOL0     H47679   4.926   1.581   9.535 -0.7828 -0.9356  1.0712
  346MOL0     H47680   5.164   1.623   9.563  1.4345  0.1352  2.4870
  346MOL0     H47681   5.339   1.751   9.506 -0.6061 -2.6958  0.5081
  346MOL0     H47682   5.352   1.649   9.636 -3.0062  0.6027 -0.6137
  346MOL0     H47683   5.569   1.765   9.586  1.1382  0.7379  0.3043
  346MOL0     H47684   5.495   1.923   9.595 -2.4732 -0.3153  0.4581
  346MOL0     H47685   5.444   1.872   9.850  2.2402  3.4173  1.6270
  346MOL0     H47686   5.528   1.730   9.833  1.0651  0.5122  0.6831
  346MOL0     H47687   5.739   1.848   9.765  0.4374 -0.5651 -1.0464
  346MOL0     H47688   5.673   1.998   9.831 -1.4558 -0.7929 -5.0160
  346MOL0     H47689   5.804   1.858   9.992 -0.5071 -2.7394  2.4293
  346MOL0     H47690   5.696   1.727   9.980 -0.0890  0.8888  2.4417
  346MOL0     H47691   5.641   1.991  10.104 -0.0882  0.3382 -1.3124
  346MOL0     H47692   5.505   1.878  10.059 -0.4629  0.8148  0.8143
  346MOL0     H47693   5.744   1.773  10.225 -0.1839 -1.0521 -2.3466
  346MOL0     H47694   5.581   1.702  10.194  1.9862 -0.9640 -2.0093
  346MOL0     H47695   5.662   1.947  10.356 -0.7404  0.1608  2.4584
  346MOL0     H47696   5.493   1.907  10.326  0.2656  1.0244  1.0908
  346MOL0     H47697   5.709   1.868  10.590 -2.5055  0.0177  1.3269
  346MOL0     H47698   5.584   1.680  10.837  0.3562  2.3547  0.0968
  346MOL0     H47699   5.755   1.699  10.798  1.0040 -3.6844  2.6465
  346MOL0     H47700   5.599   1.452  10.786 -1.5747  2.3838  3.2316
  346MOL0     H47701   5.762   1.444  10.722 -0.8208 -1.6152  0.6325
  346MOL0     H47702   5.698   1.541  11.004  1.5671 -0.9647  2.2130
  346MOL0     H47703   5.734   1.373  10.970  0.9688 -0.6948 -0.7764
  346MOL0     H47704   5.923   1.593  10.880 -3.9615 -0.9224 -2.0512
  346MOL0     H47705   5.920   1.534  11.044  0.0024 -0.9128  0.6824
  346MOL0     H47706   6.172   1.414  10.718 -3.4488  1.4658  1.4377
  346MOL0     H47707   6.385   1.488  10.656  0.1480 -1.2203 -0.0180
  346MOL0     H47708   6.492   1.357  10.709  1.7411  0.1635 -1.5578
  346MOL0     H47709   6.509   1.531  10.771 -2.1225  0.8882  1.8822
  346MOL0     H47710   6.646   1.686  11.278  0.0867 -0.2123 -0.8674
  346MOL0     H47711   6.875   1.712  11.383  3.0483 -0.3064 -1.0800
  346MOL0     H47712   6.950   1.424  11.538 -0.5750  1.0656 -0.0408
  346MOL0     H47713   7.069   1.330  11.436 -1.0550  1.4090 -3.4456
  346MOL0     H47714   7.120   1.344  11.673 -1.2659  1.4138  1.5132
  346MOL0     H47715   7.240   1.395  11.545 -0.4265 -1.8180  2.0955
  346MOL0     H47716   7.179   1.633  11.598 -4.3385  0.6171 -2.6366
  346MOL0     H47717   7.245   1.551  11.732 -0.0471 -2.7898 -0.0597
  346MOL0     H47718   6.994   1.533  11.817 -1.3906 -2.0883 -2.8467
  346MOL0     H47719   6.954   1.635  11.678  0.7391  0.8515 -1.6714
  346MOL0     H47720   7.003   1.747  11.922  1.6427  1.4332 -0.5563
  346MOL0     H47721   7.159   1.743  11.846  0.2147 -0.7539 -1.3637
  346MOL0     H47722   6.904   1.876  11.714 -1.2508 -1.0411 -0.6563
  346MOL0     H47723   7.058   1.842  11.637  1.3809 -2.5723  1.4959
  346MOL0     H47724   7.172   1.977  11.828  0.1732 -1.2920 -0.6473
  346MOL0     H47725   7.013   2.035  11.879 -0.5116  3.0279 -1.8677
  346MOL0     H47726   7.137   2.075  11.593 -2.6003  0.1553 -1.8249
  346MOL0     H47727   7.149   2.175  11.748  0.8273 -2.1867  1.7210
  346MOL0     H47728   6.973   1.327  11.219  1.2773  0.1478 -1.6044
  346MOL0     H47729   6.765   1.324  11.106  2.7312 -0.7952 -0.7722
  346MOL0     H47730   6.308   1.377  11.193  2.8993  0.6325 -0.7424
  346MOL0     H47731   6.066   1.372  11.125 -1.2650  0.9426 -2.0485
  346MOL0     H47732   5.074   1.990   9.773 -0.8415 -0.4060  1.5768
  346MOL0     H47733   4.821   1.941   9.726 -2.7100 -1.4267 -3.1688
  346MOL0     H47734   4.499   1.722   9.644  1.2589 -0.2032 -0.7932
  346MOL0     H47735   4.254   1.716   9.707  0.6887 -0.0623  0.6380
  346MOL0     H47736   4.107   1.603  10.106 -1.0159  0.9639  1.7099
  346MOL0     H47737   4.215   1.734  10.154 -0.8291 -1.1792  1.8114
  346MOL0     H47738   3.937   1.770  10.030 -0.8271  2.7299 -0.4459
  346MOL0     H47739   4.060   1.900  10.081 -2.3084  2.4510  2.5443
  346MOL0     H47740   3.966   1.695  10.286  3.5012 -0.0533  0.6993
  346MOL0     H47741   4.049   1.850  10.304 -0.1499  1.2373 -0.3018
  346MOL0     H47742   3.828   1.877  10.394  2.3486 -1.2766  0.5461
  346MOL0     H47743   3.756   1.846  10.236 -3.2053 -0.1807  3.7349
  346MOL0     H47744   3.927   2.244  10.259 -2.9914  1.7611 -1.2256
  346MOL0     H47745   4.383   1.616  10.105  3.6147 -2.6491  0.5825
  346MOL0     H47746   4.706   1.621  10.102  0.9214 -1.3466  1.9762
  346MOL0     H47747   4.572   1.515  10.153 -1.0670  0.2276 -1.4850
  346MOL0     H47748   4.699   1.470  10.035  1.8107  1.4003  0.3265
  347MOL0     O47749   9.043   5.226   0.746  0.8789 -0.3187 -0.5824
  347MOL0     C47750   8.998   5.122   0.695 -0.3055  1.1771  0.0569
  347MOL0     O47751   8.867   5.082   0.687 -0.3122 -0.2645 -0.0281
  347MOL0     C47752   8.776   5.188   0.718 -0.2228  0.9279  0.0659
  347MOL0     C47753   8.711   5.191   0.844  0.1724  0.4786 -0.2409
  347MOL0     C47754   8.628   5.296   0.878 -0.1722  0.0223  0.2598
  347MOL0     C47755   8.609   5.401   0.790 -0.0643 -0.2675  0.4114
  347MOL0     O47756   8.562   5.516   0.854 -0.1848  0.2139 -0.1699
  347MOL0     C47757   8.531   5.626   0.770 -0.4444 -0.2243  0.7863
  347MOL0     C47758   8.483   5.743   0.858  0.0152 -0.1940  0.2821
  347MOL0     C47759   8.333   5.734   0.894  0.1858  0.2281 -0.2181
  347MOL0     C47760   8.287   5.840   0.995 -0.6570  0.3361 -0.4434
  347MOL0     C47761   8.139   5.868   0.996 -0.5009 -0.0173 -0.1911
  347MOL0     C47762   8.100   6.002   1.081 -0.2587  0.5472 -0.9516
  347MOL0     C47763   7.942   6.016   1.102  0.1881  0.4016 -0.2621
  347MOL0     C47764   7.925   6.135   1.194  0.3821  0.0295  1.0909
  347MOL0     N47765   7.784   6.177   1.218  0.0063  0.1527 -0.1817
  347MOL0     C47766   7.691   6.194   1.120 -0.3211 -0.6492 -0.3474
  347MOL0     C47767   7.583   6.220   1.199  0.1017  0.2430  0.9859
  347MOL0     C47768   7.460   6.263   1.135  0.0629  1.0361  1.0219
  347MOL0     C47769   7.331   6.211   1.204  0.1435 -0.7061  0.4200
  347MOL0     C47770   7.201   6.245   1.138  0.4563 -0.6302  0.2399
  347MOL0     C47771   7.079   6.168   1.194 -0.6258  0.1341 -0.6283
  347MOL0     O47772   7.025   6.236   1.308 -0.5852 -0.3244  0.9572
  347MOL0     C47773   6.912   6.192   1.367  0.3451  0.4099 -0.1692
  347MOL0     C47774   6.809   6.116   1.300 -0.4777 -0.0128 -0.0090
  347MOL0     C47775   6.700   6.065   1.376 -0.1628  0.5180  0.7475
  347MOL0     C47776   6.600   5.990   1.300 -0.5950 -1.1715 -0.1441
  347MOL0     C47777   6.679   6.113   1.510 -0.2585 -0.5496  0.7606
  347MOL0     C47778   6.553   6.092   1.594  0.2214  0.1253 -0.5914
  347MOL0     O47779   6.553   6.126   1.724  0.2748 -0.6767 -0.2394
  347MOL0     C47780   6.446   6.096   1.799  0.9644 -0.2485  0.6074
  347MOL0     C47781   6.311   6.117   1.768 -1.0915 -0.2999 -0.9231
  347MOL0     C47782   6.209   6.086   1.869 -0.7301  0.1213  0.7777
  347MOL0     C47783   6.248   6.032   1.993  0.1922 -0.0301 -0.3096
  347MOL0     O47784   6.147   5.996   2.079 -0.2710 -0.7698 -0.1280
  347MOL0     C47785   6.174   6.021   2.224 -0.3094 -0.5032  0.1053
  347MOL0     C47786   6.039   6.021   2.293  0.5252 -0.0965  0.0900
  347MOL0     C47787   5.932   6.120   2.251 -0.0523  0.2619 -0.3502
  347MOL0     C47788   5.995   6.258   2.226 -0.0011  0.0901  0.8559
  347MOL0     C47789   5.896   6.375   2.187  0.0505  0.3055  0.7733
  347MOL0     C47790   5.801   6.357   2.069 -0.1040  0.3780 -0.6790
  347MOL0     C47791   5.701   6.468   2.033  0.5013 -0.0387 -0.2769
  347MOL0     C47792   5.760   6.584   1.947 -0.2113  0.5858 -0.6907
  347MOL0    Cl47793   5.619   6.669   1.874 -0.0812  0.7372  0.1728
  347MOL0     C47794   6.382   6.027   2.028 -0.9050  0.2638 -0.4940
  347MOL0     C47795   6.473   6.054   1.932 -0.1706  0.1797  0.1979
  347MOL0     O47796   6.459   6.030   1.537  0.2816 -0.2531 -0.1745
  347MOL0     C47797   6.780   6.185   1.568  0.0296 -0.1825 -0.6556
  347MOL0     C47798   6.893   6.230   1.507 -0.5166 -0.4149 -1.2601
  347MOL0     N47799   7.616   6.229   1.326  0.2308 -0.2147 -0.9097
  347MOL0     N47800   7.736   6.188   1.345  1.0515 -0.8647  0.4140
  347MOL0     C47801   8.652   5.385   0.662 -0.3656 -0.7645  0.2641
  347MOL0     C47802   8.736   5.280   0.626  0.0683  0.6446  0.3449
  347MOL0     C47803   9.105   5.036   0.637  1.0009  0.0797 -0.8199
  347MOL0     C47804   9.224   5.093   0.601 -0.0297 -0.8698  0.4662
  347MOL0     C47805   9.332   5.013   0.570 -0.1396 -0.4183 -0.2361
  347MOL0     C47806   9.334   4.881   0.586  0.3098 -0.1523  0.9713
  347MOL0     O47807   9.454   4.815   0.566  1.0087  0.3740 -1.0243
  347MOL0     C47808   9.460   4.676   0.604  0.6389  0.3846 -0.3579
  347MOL0     C47809   9.605   4.638   0.577 -0.7969  0.6083  0.6924
  347MOL0     C47810   9.630   4.492   0.620 -0.1115  0.7069 -0.1095
  347MOL0     C47811   9.791   4.472   0.645 -0.4518 -0.3463 -0.8723
  347MOL0     C47812   9.870   4.497   0.525 -0.4382  0.2907  0.3450
  347MOL0     C47813   9.921   4.535   0.421  0.7296 -0.8417  0.2047
  347MOL0     C47814   9.211   4.815   0.604  0.0309 -0.8474  0.0718
  347MOL0     C47815   9.100   4.892   0.635  1.0222 -0.5114 -0.0623
  347MOL0     C47816   8.977   4.806   0.674  0.6553 -0.8035  0.9205
  347MOL0     H47817   8.738   5.109   0.909  2.4846  1.0227 -0.3984
  347MOL0     H47818   8.583   5.307   0.976 -1.1681  1.3434 -0.3134
  347MOL0     H47819   8.445   5.598   0.708 -0.9269 -0.1698  1.4175
  347MOL0     H47820   8.624   5.648   0.718  0.1504  0.1146  1.9607
  347MOL0     H47821   8.543   5.758   0.948  2.0276  0.0779 -1.0400
  347MOL0     H47822   8.499   5.838   0.807 -0.9197  1.4413  2.8844
  347MOL0     H47823   8.283   5.756   0.799  3.2229  0.8560 -1.8029
  347MOL0     H47824   8.304   5.637   0.933 -1.4059  0.3869 -0.9229
  347MOL0     H47825   8.309   5.815   1.099 -0.1845  1.5156 -0.2445
  347MOL0     H47826   8.348   5.929   0.975 -0.6769 -0.0566 -2.4338
  347MOL0     H47827   8.090   5.780   1.036  1.8173 -0.9273  0.8058
  347MOL0     H47828   8.115   5.876   0.889  2.6227  4.1156 -0.8367
  347MOL0     H47829   8.156   5.993   1.175 -0.2378  2.7248 -0.7227
  347MOL0     H47830   8.141   6.094   1.038  0.5473  1.0325  0.7616
  347MOL0     H47831   7.892   5.927   1.142  4.7030 -2.6115 -0.4947
  347MOL0     H47832   7.896   6.047   1.008  0.2138  2.3846  0.3353
  347MOL0     H47833   7.970   6.115   1.292  1.0660 -2.9643  0.2567
  347MOL0     H47834   7.970   6.224   1.150 -3.4124  2.2616  1.2613
  347MOL0     H47835   7.681   6.198   1.012 -0.0326 -2.1272 -0.4508
  347MOL0     H47836   7.466   6.226   1.032  0.0354 -1.1377  1.7433
  347MOL0     H47837   7.453   6.372   1.136 -0.3506  1.0581 -0.6505
  347MOL0     H47838   7.340   6.103   1.221  0.1553 -0.4592  2.1527
  347MOL0     H47839   7.325   6.243   1.308 -0.7231  0.4656  0.0270
  347MOL0     H47840   7.180   6.351   1.157  2.6283 -0.2770  0.9519
  347MOL0     H47841   7.223   6.215   1.036  5.0129 -3.1874  1.7223
  347MOL0     H47842   6.998   6.171   1.122 -1.2232  2.4847  0.0628
  347MOL0     H47843   7.108   6.070   1.234 -1.4569 -0.1685 -0.7530
  347MOL0     H47844   6.811   6.077   1.199 -0.2860 -0.1063  0.0293
  347MOL0     H47845   6.636   5.931   1.215 -2.2037 -1.2148 -0.8340
  347MOL0     H47846   6.526   6.057   1.255  0.6342 -0.1191 -0.6784
  347MOL0     H47847   6.552   5.913   1.360  0.2797 -1.2775  0.4507
  347MOL0     H47848   6.295   6.165   1.671 -1.6789 -0.0853 -0.7276
  347MOL0     H47849   6.104   6.102   1.846 -0.1360  0.0601 -2.4159
  347MOL0     H47850   6.240   5.945   2.265  1.2169  0.0949 -1.1449
  347MOL0     H47851   6.230   6.112   2.248 -0.6474 -0.1234 -0.5019
  347MOL0     H47852   5.991   5.926   2.270 -3.2321  2.1537 -2.6134
  347MOL0     H47853   6.051   6.040   2.400 -4.3280  0.7282  0.7209
  347MOL0     H47854   5.867   6.138   2.337  0.9799  2.3126  0.0604
  347MOL0     H47855   5.887   6.091   2.155  1.8511  1.2932 -1.6198
  347MOL0     H47856   6.069   6.244   2.147  0.8309 -0.7747  1.7679
  347MOL0     H47857   6.049   6.282   2.318 -1.0406  0.9407  1.2692
  347MOL0     H47858   5.831   6.401   2.271 -2.7359  1.7065 -1.6243
  347MOL0     H47859   5.951   6.463   2.155  0.7647 -1.0135 -1.8817
  347MOL0     H47860   5.752   6.260   2.085  2.3310 -0.7240  0.7841
  347MOL0     H47861   5.857   6.350   1.975 -1.4504  3.4540 -1.8306
  347MOL0     H47862   5.660   6.510   2.125 -0.2979  1.2747 -1.1849
  347MOL0     H47863   5.627   6.419   1.968  0.6967 -0.7611  0.0345
  347MOL0     H47864   5.830   6.547   1.872  1.0110 -0.0418  0.7036
  347MOL0     H47865   5.823   6.641   2.016  2.3013 -3.6218  0.8884
  347MOL0     H47866   6.427   6.024   2.127  0.8563  1.2132 -1.2148
  347MOL0     H47867   6.579   6.046   1.954 -0.6132 -1.5904  2.0137
  347MOL0     H47868   6.770   6.235   1.664  0.4112  0.4003 -0.9140
  347MOL0     H47869   6.954   6.296   1.569 -1.6201  2.7394 -3.2914
  347MOL0     H47870   8.638   5.467   0.592  2.7643  0.3447  0.7819
  347MOL0     H47871   8.784   5.269   0.529  1.2450 -0.3818  1.0187
  347MOL0     H47872   9.245   5.200   0.602 -0.9689 -0.6841  0.8949
  347MOL0     H47873   9.429   5.053   0.543  1.5855 -1.3682  3.8662
  347MOL0     H47874   9.449   4.663   0.712  2.2848  1.8953  0.0450
  347MOL0     H47875   9.392   4.607   0.553 -0.0674  0.2074  0.7626
  347MOL0     H47876   9.668   4.710   0.631  1.2771  0.7870 -1.7895
  347MOL0     H47877   9.623   4.657   0.471  3.5332 -1.9632  0.7128
  347MOL0     H47878   9.583   4.469   0.715  0.2873  1.0738  0.1810
  347MOL0     H47879   9.603   4.427   0.536  0.0257 -0.3844  0.6751
  347MOL0     H47880   9.820   4.370   0.670  1.4056  0.6658  1.5436
  347MOL0     H47881   9.817   4.539   0.728 -4.7961 -0.7631  1.0725
  347MOL0     H47882   9.947   4.566   0.321 -0.5801  1.8757  0.6263
  347MOL0     H47883   9.211   4.707   0.600  1.2818 -0.8803  0.4458
  347MOL0     H47884   8.907   4.797   0.591  1.7389  2.6579 -0.5835
  347MOL0     H47885   9.005   4.706   0.709  2.3361 -0.5039  0.5125
  347MOL0     H47886   8.918   4.849   0.756  2.0090 -0.0832  1.5560
  348MOL0     O47887   4.800   1.831  11.037 -0.1379 -0.5387 -0.5838
  348MOL0     C47888   4.813   1.725  11.104  0.0863  0.8979  0.3845
  348MOL0     O47889   4.858   1.709  11.234 -0.0474  0.3080 -0.9043
  348MOL0     C47890   4.881   1.821  11.311 -0.6253  0.3455  0.8234
  348MOL0     C47891   4.779   1.901  11.354  0.3619  0.5223 -1.1959
  348MOL0     C47892   4.812   1.993  11.458 -0.0733  0.2915  0.2653
  348MOL0     C47893   4.942   2.000  11.506  0.3146 -0.1635 -0.1609
  348MOL0     O47894   4.990   2.095  11.598 -0.6513  0.4788  0.4696
  348MOL0     C47895   4.905   2.172  11.680 -0.9243  0.5707 -0.2810
  348MOL0     C47896   4.899   2.123  11.823  0.2368 -0.2486 -0.6084
  348MOL0     C47897   4.801   2.205  11.917  0.3507  0.1802 -0.3492
  348MOL0     C47898   4.656   2.141  11.926  0.1431 -0.7205  0.3614
  348MOL0     C47899   4.554   2.242  11.986 -0.5069  0.5675  0.3098
  348MOL0     C47900   4.418   2.184  12.002 -0.5381 -0.6615 -0.8834
  348MOL0     C47901   4.366   2.107  11.883 -0.1250 -0.3274 -0.0966
  348MOL0     C47902   4.220   2.069  11.914 -0.4266 -0.4633  0.1335
  348MOL0     N47903   4.158   2.027  11.787  0.0747 -0.4478 -0.2665
  348MOL0     C47904   4.185   1.919  11.705  1.2059 -1.4663  0.0821
  348MOL0     C47905   4.113   1.938  11.589  0.0624  0.5522 -0.4456
  348MOL0     C47906   4.112   1.839  11.471 -0.4704 -0.8704 -0.2580
  348MOL0     C47907   4.024   1.715  11.480 -0.6701 -0.2213  0.7612
  348MOL0     C47908   4.046   1.619  11.590  0.7034  0.8788  0.0101
  348MOL0     C47909   3.957   1.642  11.705  0.1034  0.5111 -0.0920
  348MOL0     O47910   4.002   1.560  11.817 -0.5350 -0.4602  0.7032
  348MOL0     C47911   3.914   1.498  11.899 -0.2335 -0.5120 -0.3452
  348MOL0     C47912   3.971   1.428  12.006  0.7750  0.6749 -0.6782
  348MOL0     C47913   3.893   1.347  12.105 -0.7596 -0.5002  0.5067
  348MOL0     C47914   3.975   1.289  12.224  0.0216 -0.2487 -0.1126
  348MOL0     C47915   3.754   1.357  12.088 -0.1477  0.0408 -0.9454
  348MOL0     C47916   3.655   1.279  12.175  0.0274 -0.8488 -0.6031
  348MOL0     O47917   3.523   1.295  12.158  0.3438 -0.1746  0.9118
  348MOL0     C47918   3.436   1.249  12.253 -0.5205  0.3668  0.9155
  348MOL0     C47919   3.341   1.166  12.193  0.4874  0.3254 -0.7689
  348MOL0     C47920   3.244   1.100  12.279  0.2098  0.6233  0.4675
  348MOL0     C47921   3.245   1.137  12.413 -0.7977  0.9258 -0.5107
  348MOL0     O47922   3.157   1.088  12.510 -0.8607  0.0394  0.3739
  348MOL0     C47923   3.095   0.963  12.481  0.5104  0.5796 -0.1544
  348MOL0     C47924   3.033   0.898  12.608  0.6362  0.2897  0.2157
  348MOL0     C47925   3.139   0.892  12.724  0.5788  0.3037  0.0793
  348MOL0     C47926   3.163   1.033  12.802 -0.0444  0.0213 -0.7973
  348MOL0     C47927   3.261   1.019  12.930  0.2860 -0.3286  0.5136
  348MOL0     C47928   3.208   0.920  13.031 -0.0455 -0.0808  0.1351
  348MOL0     C47929   3.308   0.894  13.145 -0.2608 -0.3595  0.3931
  348MOL0     C47930   3.363   1.014  13.208 -0.9712  0.3208 -0.6189
  348MOL0    Cl47931   3.227   1.101  13.260  0.5545 -0.4765 -0.3020
  348MOL0     C47932   3.338   1.219  12.473 -1.0257  0.5586 -0.4339
  348MOL0     C47933   3.433   1.273  12.388 -0.8100 -0.2694 -0.0709
  348MOL0     O47934   3.700   1.207  12.267  0.3673 -0.1057  0.7766
  348MOL0     C47935   3.707   1.419  11.973  0.2970  0.1131  0.0482
  348MOL0     C47936   3.774   1.487  11.879  0.2604 -0.1837 -0.6703
  348MOL0     N47937   4.055   2.061  11.599  0.8678 -0.9080 -0.6551
  348MOL0     N47938   4.063   2.103  11.722 -0.2907  0.2424  0.3376
  348MOL0     C47939   5.038   1.914  11.461 -0.4840 -0.7379 -0.4292
  348MOL0     C47940   5.004   1.828  11.356 -0.2202  0.0571  0.2951
  348MOL0     C47941   4.780   1.595  11.026 -0.1182 -0.0024 -0.4064
  348MOL0     C47942   4.684   1.599  10.918  0.0873  0.1374 -0.0689
  348MOL0     C47943   4.643   1.492  10.842  0.1636  0.5441 -0.3536
  348MOL0     C47944   4.701   1.369  10.867  0.1785  0.4481 -0.4793
  348MOL0     O47945   4.671   1.270  10.780 -0.4967  0.0612  0.2755
  348MOL0     C47946   4.713   1.132  10.802 -0.0269  0.3597  0.3998
  348MOL0     C47947   4.834   1.095  10.724 -0.4122 -0.9599 -0.2987
  348MOL0     C47948   4.912   0.973  10.779 -0.2041 -0.0089  1.1371
  348MOL0     C47949   4.970   0.970  10.928  0.3227 -0.6544 -0.2202
  348MOL0     C47950   5.079   1.064  10.948 -0.1176 -0.2198  1.2584
  348MOL0     C47951   5.179   1.138  10.950  0.8445 -0.3011 -0.1356
  348MOL0     C47952   4.797   1.359  10.967 -0.4538 -0.3231 -0.7315
  348MOL0     C47953   4.850   1.469  11.040  0.9945 -0.5244 -0.2097
  348MOL0     C47954   4.963   1.459  11.124  0.2210 -0.0475 -1.5005
  348MOL0     H47955   4.679   1.903  11.312 -0.1043  4.4088 -0.2205
  348MOL0     H47956   4.727   2.042  11.504 -0.3014  1.2234 -1.0778
  348MOL0     H47957   4.798   2.169  11.655 -0.5652  2.2012 -2.2857
  348MOL0     H47958   4.930   2.278  11.686  3.7055 -0.4153  2.0047
  348MOL0     H47959   4.867   2.020  11.808 -1.7958  0.5607 -2.3724
  348MOL0     H47960   4.997   2.117  11.872  2.9527  4.5579 -4.5408
  348MOL0     H47961   4.852   2.201  12.013  0.8370 -2.2666 -0.6345
  348MOL0     H47962   4.794   2.307  11.878 -2.8057  0.6067  1.0101
  348MOL0     H47963   4.623   2.117  11.824 -1.5830  3.1476 -0.1895
  348MOL0     H47964   4.658   2.055  11.993  0.6743  0.6098  2.1398
  348MOL0     H47965   4.552   2.330  11.921 -0.0770  0.5987  0.3366
  348MOL0     H47966   4.598   2.252  12.085  0.9229  0.6871 -0.3215
  348MOL0     H47967   4.434   2.103  12.074  1.2129 -0.3515 -0.8896
  348MOL0     H47968   4.352   2.261  12.043  1.6700  2.8863 -3.4763
  348MOL0     H47969   4.421   2.013  11.875 -0.4205 -0.8622  2.9592
  348MOL0     H47970   4.360   2.172  11.795 -1.6401 -0.6170 -0.2472
  348MOL0     H47971   4.231   1.985  11.983  0.9559 -0.1523  0.3185
  348MOL0     H47972   4.173   2.154  11.965 -0.8454  0.2807 -1.4371
  348MOL0     H47973   4.236   1.824  11.719 -1.0562 -2.6266  1.1079
  348MOL0     H47974   4.214   1.799  11.462 -0.3102 -0.5682  0.1904
  348MOL0     H47975   4.082   1.879  11.374 -0.5928 -2.0060 -0.7069
  348MOL0     H47976   3.922   1.751  11.494 -0.1616  1.6176 -0.0381
  348MOL0     H47977   4.036   1.657  11.389  1.2135  0.6893  0.3719
  348MOL0     H47978   4.020   1.517  11.563 -1.4267  0.5006  2.9128
  348MOL0     H47979   4.153   1.627  11.611  1.3387  2.0076 -3.1674
  348MOL0     H47980   3.967   1.747  11.734 -0.2437  0.4672  0.1954
  348MOL0     H47981   3.857   1.620  11.667  1.2864 -0.7101 -2.7732
  348MOL0     H47982   4.078   1.413  11.997  0.5755  0.2747 -3.3935
  348MOL0     H47983   3.928   1.327  12.316 -2.0378  3.7122 -2.5342
  348MOL0     H47984   4.079   1.322  12.223  0.0616 -0.3899 -0.8295
  348MOL0     H47985   3.977   1.179  12.225  1.5230 -0.2807  2.3425
  348MOL0     H47986   3.338   1.155  12.085 -0.3186  2.8737 -1.0618
  348MOL0     H47987   3.166   1.032  12.246  4.9936 -5.4001 -0.2633
  348MOL0     H47988   3.021   1.000  12.410 -1.0377 -0.8298  0.6528
  348MOL0     H47989   3.153   0.892  12.420 -1.0743  1.8905 -3.3988
  348MOL0     H47990   2.941   0.949  12.639  0.3608  0.7076 -1.2326
  348MOL0     H47991   3.000   0.798  12.581  0.5224 -0.5100  3.0019
  348MOL0     H47992   3.236   0.863  12.683  1.2074  2.1906  0.1387
  348MOL0     H47993   3.110   0.809  12.789  1.3410  0.9113  1.2295
  348MOL0     H47994   3.070   1.070  12.847 -1.6045 -1.7194 -2.3957
  348MOL0     H47995   3.204   1.111  12.737  1.0378  0.0226 -0.1328
  348MOL0     H47996   3.358   0.985  12.892  0.8930  4.2772 -2.8549
  348MOL0     H47997   3.277   1.122  12.962 -2.9273  0.6296 -0.5605
  348MOL0     H47998   3.183   0.825  12.982 -1.7561  0.6089 -0.4127
  348MOL0     H47999   3.115   0.952  13.079  0.7814 -1.4856  2.9093
  348MOL0     H48000   3.390   0.831  13.112 -0.6739 -0.3831 -0.6105
  348MOL0     H48001   3.253   0.839  13.222  3.1896 -1.6087  2.1700
  348MOL0     H48002   3.424   1.081  13.147 -0.7159 -0.3781 -1.1553
  348MOL0     H48003   3.433   0.978  13.285 -1.7189  0.6215  0.2085
  348MOL0     H48004   3.330   1.238  12.579  1.8901 -1.0305  0.1956
  348MOL0     H48005   3.508   1.339  12.430 -0.4229 -2.3690  2.8549
  348MOL0     H48006   3.600   1.402  11.961 -0.4173  1.3081  3.5415
  348MOL0     H48007   3.718   1.524  11.793 -0.6541  1.3996  0.5495
  348MOL0     H48008   5.139   1.907  11.500  0.3615 -2.6828 -2.6835
  348MOL0     H48009   5.085   1.766  11.321  0.1636  0.1750  0.9618
  348MOL0     H48010   4.653   1.699  10.890  0.3230 -0.4521 -2.6794
  348MOL0     H48011   4.564   1.499  10.768 -1.5383  0.2411  1.3550
  348MOL0     H48012   4.724   1.105  10.908  2.4014 -3.3491 -0.6161
  348MOL0     H48013   4.630   1.066  10.775  1.8557 -1.9312 -0.1710
  348MOL0     H48014   4.896   1.184  10.736 -2.0279  0.8739 -3.9105
  348MOL0     H48015   4.803   1.095  10.619 -1.0594  1.8537 -0.1790
  348MOL0     H48016   4.839   0.891  10.776  0.6981 -0.7957 -0.2287
  348MOL0     H48017   4.995   0.963  10.708  0.6094  0.3315  2.0207
  348MOL0     H48018   5.022   0.873  10.931  3.1875  0.6739  4.7232
  348MOL0     H48019   4.894   0.996  11.002 -0.5025  1.7125 -1.7865
  348MOL0     H48020   5.266   1.200  10.959  0.7511 -0.4700  3.0484
  348MOL0     H48021   4.842   1.261  10.975  3.2096  1.3438  2.1601
  348MOL0     H48022   5.023   1.376  11.086 -0.7203  0.0088 -3.1897
  348MOL0     H48023   5.025   1.549  11.121  0.3442 -0.0898 -0.5476
  348MOL0     H48024   4.930   1.442  11.227 -0.6417  1.3123 -1.5320
  349MOL0     O48025   8.169   2.554  11.446  0.1634 -0.4409 -0.3602
  349MOL0     C48026   8.178   2.583  11.325 -0.7827  0.7251 -0.4290
  349MOL0     O48027   8.292   2.631  11.263  0.3132 -0.0252 -0.1194
  349MOL0     C48028   8.411   2.612  11.329 -0.0976  0.9627  0.3971
  349MOL0     C48029   8.507   2.705  11.314 -0.2680 -0.8376  0.7677
  349MOL0     C48030   8.634   2.703  11.379 -0.2651  0.4248  0.7902
  349MOL0     C48031   8.670   2.581  11.433  0.5876 -0.0001  0.2881
  349MOL0     O48032   8.797   2.567  11.488  0.3670 -0.3600 -1.1624
  349MOL0     C48033   8.900   2.563  11.390  0.2371 -0.7908 -0.0493
  349MOL0     C48034   9.009   2.474  11.451  0.1298 -1.0703  0.2162
  349MOL0     C48035   8.970   2.340  11.509  0.2798  0.5001 -0.7454
  349MOL0     C48036   8.910   2.344  11.653  0.1619 -0.2669 -0.0397
  349MOL0     C48037   8.992   2.246  11.738 -0.0663 -0.3172 -0.3915
  349MOL0     C48038   8.918   2.209  11.871  0.3314 -1.1309  0.2383
  349MOL0     C48039   9.027   2.163  11.979 -0.6981 -0.5398  0.8985
  349MOL0     C48040   8.946   2.132  12.111  0.2781  0.8068  0.7681
  349MOL0     N48041   8.854   2.018  12.078 -0.1625 -0.2812  0.1385
  349MOL0     C48042   8.894   1.891  12.093  0.5179 -0.2689  1.1715
  349MOL0     C48043   8.783   1.808  12.098 -1.4051  0.2519 -0.0220
  349MOL0     C48044   8.777   1.652  12.133 -0.4994 -0.1859  0.0296
  349MOL0     C48045   8.795   1.551  12.014 -0.1771  0.6927  0.6469
  349MOL0     C48046   8.717   1.413  12.029  0.1920 -0.4116  0.5720
  349MOL0     C48047   8.755   1.295  11.942 -0.7099 -0.0053 -0.0540
  349MOL0     O48048   8.890   1.259  11.954  0.4643  0.2711  0.1005
  349MOL0     C48049   8.905   1.133  11.897 -0.8309 -0.0291  0.2472
  349MOL0     C48050   9.014   1.069  11.933  0.4660 -1.3851 -0.3043
  349MOL0     C48051   9.057   0.944  11.875 -0.0606 -0.8403 -0.5453
  349MOL0     C48052   9.178   0.873  11.941  0.3462  0.2122  1.5616
  349MOL0     C48053   8.990   0.892  11.765  0.6367  0.3023  0.2894
  349MOL0     C48054   9.043   0.770  11.689  1.0895 -0.2413  0.0169
  349MOL0     O48055   9.172   0.757  11.668 -0.4212 -0.2656  0.4570
  349MOL0     C48056   9.227   0.639  11.625 -0.1313  0.5945  0.3207
  349MOL0     C48057   9.179   0.582  11.498  0.2529 -0.2922  0.5008
  349MOL0     C48058   9.239   0.469  11.439 -0.2027 -0.3401 -0.2072
  349MOL0     C48059   9.355   0.416  11.507 -0.3471 -0.0950 -0.1819
  349MOL0     O48060   9.406   0.299  11.450  0.1523  0.1713  0.4387
  349MOL0     C48061   9.485   0.201  11.516 -0.4843 -0.3160 -0.7262
  349MOL0     C48062   9.622   0.186  11.447 -0.0991  0.0596 -0.3047
  349MOL0     C48063   9.722   0.092  11.529  0.1699 -0.0891  0.2431
  349MOL0     C48064   9.851   0.050  11.449  0.9185 -0.1254 -0.6352
  349MOL0     C48065   9.967  -0.021  11.525 -0.5927 -0.0524 -0.7976
  349MOL0     C48066  10.088  -0.026  11.439 -0.7666 -0.4341 -0.5500
  349MOL0     C48067  10.154   0.116  11.434  0.3123  0.2013 -0.7805
  349MOL0     C48068  10.301   0.112  11.389 -0.4058  1.0670  0.0976
  349MOL0    Cl48069  10.320   0.065  11.221 -0.4400 -0.0001 -0.4736
  349MOL0     C48070   9.398   0.478  11.630 -0.4138  0.4869 -0.4912
  349MOL0     C48071   9.333   0.589  11.695 -0.9294  0.5901 -0.4329
  349MOL0     O48072   8.959   0.684  11.670  0.3592  0.1468  0.5580
  349MOL0     C48073   8.874   0.957  11.721  0.6902  1.3084  0.8342
  349MOL0     C48074   8.830   1.076  11.783 -0.0894  0.1947 -0.8677
  349MOL0     N48075   8.670   1.892  12.083 -0.2779 -0.2468 -0.8008
  349MOL0     N48076   8.716   2.012  12.079  0.2404 -0.2718  0.1785
  349MOL0     C48077   8.577   2.476  11.440  0.5115 -0.7289  0.8910
  349MOL0     C48078   8.452   2.494  11.388  0.1362  0.8483  0.5114
  349MOL0     C48079   8.071   2.549  11.232 -0.0783 -0.2459  0.2482
  349MOL0     C48080   8.098   2.537  11.097 -1.2005  0.6710  1.3861
  349MOL0     C48081   8.010   2.497  11.004 -0.0120  0.7038  1.3945
  349MOL0     C48082   7.875   2.467  11.045 -0.7897 -0.3082  0.4522
  349MOL0     O48083   7.783   2.438  10.954  0.2613 -0.7241  0.2297
  349MOL0     C48084   7.743   2.532  10.857 -0.9350  0.1241 -0.2690
  349MOL0     C48085   7.725   2.679  10.909  0.8911  0.0895 -0.0839
  349MOL0     C48086   7.674   2.763  10.796 -0.3489  0.9457 -0.0514
  349MOL0     C48087   7.651   2.911  10.843 -0.7156  0.3620 -0.0363
  349MOL0     C48088   7.558   2.921  10.948 -0.1111  0.3114 -0.1091
  349MOL0     C48089   7.481   2.912  11.040 -0.2856  0.6312 -0.4922
  349MOL0     C48090   7.841   2.474  11.181 -0.2315 -0.1777  0.4712
  349MOL0     C48091   7.936   2.523  11.270 -0.8692  0.2260  0.0622
  349MOL0     C48092   7.881   2.548  11.410 -0.1333  0.1077 -0.0362
  349MOL0     H48093   8.485   2.793  11.253 -3.1873  0.3723  3.3256
  349MOL0     H48094   8.704   2.786  11.375 -1.8344  1.8758  2.0935
  349MOL0     H48095   8.937   2.665  11.375 -1.9362  0.1949  0.8236
  349MOL0     H48096   8.870   2.531  11.291  0.8727 -0.8891 -0.2173
  349MOL0     H48097   9.072   2.452  11.365  0.5992 -1.5803  0.6809
  349MOL0     H48098   9.067   2.537  11.520 -0.4857 -0.2549  0.0005
  349MOL0     H48099   8.886   2.295  11.454 -1.1024  1.5794  0.3997
  349MOL0     H48100   9.048   2.263  11.502 -1.6449 -1.6976  0.5632
  349MOL0     H48101   8.920   2.445  11.696  1.2539 -0.2106 -0.4077
  349MOL0     H48102   8.806   2.311  11.650  0.2367 -0.4551 -1.9226
  349MOL0     H48103   9.084   2.299  11.766 -1.3484  0.3002  3.2678
  349MOL0     H48104   9.023   2.156  11.686 -0.3657 -1.1417  0.8124
  349MOL0     H48105   8.875   2.303  11.906  0.2010 -0.4039 -1.7901
  349MOL0     H48106   8.829   2.147  11.857  0.7693 -1.3678 -1.6978
  349MOL0     H48107   9.105   2.235  12.001 -1.4056  0.5872 -0.1517
  349MOL0     H48108   9.083   2.075  11.947  0.0449  0.2320  0.0124
  349MOL0     H48109   9.017   2.092  12.184  1.0378 -0.9157 -0.8187
  349MOL0     H48110   8.884   2.210  12.156 -3.7245 -1.2322 -0.7476
  349MOL0     H48111   8.997   1.857  12.100  0.3056 -0.7180  2.3076
  349MOL0     H48112   8.676   1.626  12.165 -0.1167 -0.4296  1.0871
  349MOL0     H48113   8.850   1.622  12.209  2.2789  0.3370 -2.2640
  349MOL0     H48114   8.747   1.602  11.930 -3.6172  0.4250  2.2710
  349MOL0     H48115   8.897   1.528  11.981 -1.2944 -3.0048 -0.7402
  349MOL0     H48116   8.739   1.391  12.134 -0.2018 -1.2400  0.4902
  349MOL0     H48117   8.613   1.447  12.022  0.3712  0.5115  1.9723
  349MOL0     H48118   8.689   1.209  11.958 -2.4852  1.7239  2.6338
  349MOL0     H48119   8.750   1.322  11.836  1.3781  0.0616 -0.1750
  349MOL0     H48120   9.078   1.106  12.012 -1.0234  0.8830 -0.0854
  349MOL0     H48121   9.207   0.932  12.028 -1.9067  3.0675  0.5379
  349MOL0     H48122   9.261   0.842  11.876 -2.2427 -1.9104 -1.0335
  349MOL0     H48123   9.148   0.783  11.995 -0.4820 -0.0286  0.7249
  349MOL0     H48124   9.087   0.615  11.451  0.7644  0.4244 -0.0025
  349MOL0     H48125   9.196   0.419  11.353 -1.2755 -1.1443  0.7613
  349MOL0     H48126   9.492   0.227  11.622 -1.3801 -2.4722 -0.1013
  349MOL0     H48127   9.429   0.107  11.512  0.9399 -1.2068 -0.4164
  349MOL0     H48128   9.608   0.142  11.348 -0.5688  2.2760 -1.2866
  349MOL0     H48129   9.661   0.288  11.434 -2.5705  1.4667  2.3381
  349MOL0     H48130   9.680  -0.001  11.570  0.3412  1.4500  4.3870
  349MOL0     H48131   9.750   0.153  11.615  1.3695  2.3096 -1.7159
  349MOL0     H48132   9.889   0.143  11.408 -0.0827  1.4727  1.8134
  349MOL0     H48133   9.811  -0.021  11.376  0.6070 -1.7388  1.0107
  349MOL0     H48134   9.989   0.021  11.623  0.1730 -0.6296 -0.7151
  349MOL0     H48135   9.937  -0.120  11.558  1.6706 -0.3906  0.4166
  349MOL0     H48136  10.062  -0.059  11.338  2.7475 -3.3163 -0.7166
  349MOL0     H48137  10.149  -0.104  11.486  1.9386  1.8199 -0.0339
  349MOL0     H48138  10.136   0.160  11.532 -0.2684 -2.5022  0.4286
  349MOL0     H48139  10.094   0.188  11.378  1.1981  2.2038  0.7417
  349MOL0     H48140  10.358   0.050  11.458 -1.7340 -1.6813 -1.1401
  349MOL0     H48141  10.335   0.214  11.412  1.7957  0.4951 -0.3194
  349MOL0     H48142   9.481   0.425  11.676 -0.6286 -1.0454 -1.7644
  349MOL0     H48143   9.374   0.640  11.782  0.2992  1.0673 -1.2590
  349MOL0     H48144   8.809   0.915  11.644 -0.3743  0.9705  1.8871
  349MOL0     H48145   8.747   1.134  11.742  1.7085  2.5247 -1.4512
  349MOL0     H48146   8.604   2.377  11.478  1.4222 -1.2309 -0.9429
  349MOL0     H48147   8.377   2.417  11.372  0.6127  1.0812 -4.2850
  349MOL0     H48148   8.194   2.564  11.053 -1.4240 -0.5298  0.0873
  349MOL0     H48149   8.024   2.492  10.896 -2.6614 -1.8778  1.0282
  349MOL0     H48150   7.818   2.534  10.777 -0.3559  2.8187  0.2381
  349MOL0     H48151   7.649   2.494  10.815 -2.2847  2.4513  0.4252
  349MOL0     H48152   7.819   2.718  10.948  1.0235 -1.6439  1.4552
  349MOL0     H48153   7.660   2.678  10.996  2.1274  1.5766  0.9006
  349MOL0     H48154   7.747   2.746  10.716 -2.1919  1.6353 -1.9892
  349MOL0     H48155   7.575   2.725  10.769  0.2805 -1.8759  1.3199
  349MOL0     H48156   7.623   2.977  10.760  0.6198 -1.7343 -2.3102
  349MOL0     H48157   7.748   2.942  10.884  0.1232 -2.9896  0.8442
  349MOL0     H48158   7.410   2.881  11.114 -0.8563  1.4145 -0.7031
  349MOL0     H48159   7.735   2.471  11.204  0.0465  1.9686  2.3330
  349MOL0     H48160   7.895   2.651  11.444 -3.3217  1.2060 -1.6196
  349MOL0     H48161   7.775   2.521  11.417 -0.3383  0.7639 -0.5278
  349MOL0     H48162   7.935   2.478  11.475  0.0668 -0.1334 -0.4560
  350MOL0     O48163   1.218   1.664   0.601  0.3900  0.5248 -0.3305
  350MOL0     C48164   1.178   1.641   0.719 -0.4663  0.3286  0.0145
  350MOL0     O48165   1.058   1.579   0.746 -0.1144  0.2161 -0.1919
  350MOL0     C48166   0.945   1.564   0.667  0.0341 -0.3594 -1.0947
  350MOL0     C48167   0.838   1.496   0.718 -0.2446 -0.6127 -0.7296
  350MOL0     C48168   0.726   1.476   0.653  0.1277 -0.3856 -0.0705
  350MOL0     C48169   0.700   1.538   0.525 -0.0422 -0.3784 -0.8117
  350MOL0     O48170   0.580   1.515   0.476  0.1278  0.4522  0.1652
  350MOL0     C48171   0.536   1.609   0.375  0.8302 -0.1086  0.1290
  350MOL0     C48172   0.393   1.579   0.339  0.5197 -0.5382 -0.0198
  350MOL0     C48173   0.379   1.442   0.280 -0.2624  0.7330 -0.0206
  350MOL0     C48174   0.234   1.419   0.230  1.5362  0.3850  0.1562
  350MOL0     C48175   0.231   1.268   0.203 -0.3288  0.2642  1.5085
  350MOL0     C48176   0.090   1.222   0.171 -0.4649 -0.3116  0.4723
  350MOL0     C48177   0.003   1.215   0.296  0.3893  0.4536 -0.3533
  350MOL0     C48178  -0.132   1.151   0.269 -0.8336 -0.2399  0.4939
  350MOL0     N48179  -0.223   1.171   0.385  0.4342  0.5984 -1.3642
  350MOL0     C48180  -0.294   1.288   0.411 -0.1340  0.0179  0.4270
  350MOL0     C48181  -0.344   1.260   0.538  0.1579  0.5334  0.0255
  350MOL0     C48182  -0.423   1.348   0.620  0.2033 -0.2651 -0.5950
  350MOL0     C48183  -0.548   1.405   0.551 -0.1149 -0.0221 -1.2333
  350MOL0     C48184  -0.638   1.306   0.472 -0.4821 -0.1218  0.1656
  350MOL0     C48185  -0.776   1.349   0.445 -0.8275  0.1686  0.1199
  350MOL0     O48186  -0.794   1.480   0.385 -0.2814 -0.2005 -0.0465
  350MOL0     C48187  -0.916   1.493   0.315  0.3540 -0.5015 -0.3081
  350MOL0     C48188  -0.913   1.549   0.183 -0.6629  1.3261  0.0035
  350MOL0     C48189  -1.031   1.565   0.108 -0.2073 -0.0925 -1.3854
  350MOL0     C48190  -1.023   1.614  -0.026 -0.5435  1.2093  0.1461
  350MOL0     C48191  -1.157   1.522   0.167 -0.2755  0.1050 -0.3258
  350MOL0     C48192  -1.289   1.524   0.099 -0.0544 -0.2912 -0.2029
  350MOL0     O48193  -1.395   1.554   0.178 -0.1903 -0.4084  0.2455
  350MOL0     C48194  -1.521   1.530   0.119 -0.0216  0.4489 -0.4783
  350MOL0     C48195  -1.603   1.636   0.081  1.0996 -0.7210  0.3839
  350MOL0     C48196  -1.735   1.611   0.047  0.5454 -0.0786 -0.0612
  350MOL0     C48197  -1.792   1.486   0.055 -0.7782  0.2841  0.1619
  350MOL0     O48198  -1.920   1.454   0.021  0.0015  0.4335  0.1082
  350MOL0     C48199  -2.021   1.551   0.044  0.3201  0.5095 -0.0902
  350MOL0     C48200  -2.159   1.502   0.019 -0.0634 -0.7421  0.4348
  350MOL0     C48201  -2.201   1.486  -0.121 -0.2654 -0.0817 -0.1590
  350MOL0     C48202  -2.163   1.356  -0.189  0.2601 -0.2461  0.8075
  350MOL0     C48203  -2.227   1.355  -0.328  0.3069  0.2583 -1.3582
  350MOL0     C48204  -2.170   1.246  -0.417 -0.5471 -0.1534  0.2143
  350MOL0     C48205  -2.026   1.278  -0.464  0.7459  0.7224 -0.3653
  350MOL0     C48206  -1.984   1.182  -0.568  0.1372 -0.2557 -0.0376
  350MOL0    Cl48207  -2.054   1.227  -0.730  0.0834  0.0043  0.1755
  350MOL0     C48208  -1.709   1.377   0.094  0.0166  0.2552  0.3725
  350MOL0     C48209  -1.576   1.401   0.127  0.3041  0.6484 -0.3677
  350MOL0     O48210  -1.294   1.493  -0.016 -0.0231  0.4518  0.5594
  350MOL0     C48211  -1.156   1.480   0.299 -0.3699  0.2625 -0.0548
  350MOL0     C48212  -1.042   1.461   0.369  0.8718  0.7641  0.2455
  350MOL0     N48213  -0.305   1.133   0.578  0.3897  0.1467 -0.0784
  350MOL0     N48214  -0.243   1.078   0.484  0.0527 -0.4183  0.3497
  350MOL0     C48215   0.801   1.629   0.476 -0.3210  0.4275  0.9060
  350MOL0     C48216   0.930   1.629   0.541 -0.4167  0.3533 -0.0627
  350MOL0     C48217   1.277   1.681   0.823 -0.8367  0.6842 -1.0139
  350MOL0     C48218   1.416   1.683   0.786 -0.0769 -0.0313  0.2631
  350MOL0     C48219   1.519   1.706   0.879 -0.0087  1.1080  0.6725
  350MOL0     C48220   1.486   1.733   1.010  0.7376 -0.6993 -1.0126
  350MOL0     O48221   1.586   1.758   1.105  0.2844  0.1454  0.4367
  350MOL0     C48222   1.562   1.819   1.233  0.1064 -0.0315  1.0761
  350MOL0     C48223   1.643   1.938   1.236  0.3029 -0.7755 -0.1191
  350MOL0     C48224   1.616   2.053   1.337 -0.1702 -0.7014  1.0518
  350MOL0     C48225   1.665   2.022   1.480 -0.0383 -0.1297  0.4467
  350MOL0     C48226   1.590   1.908   1.536  0.3688 -0.5111  0.2287
  350MOL0     C48227   1.549   1.797   1.565  0.5982  0.6298 -0.2608
  350MOL0     C48228   1.345   1.729   1.050  0.2951  0.1972 -0.3706
  350MOL0     C48229   1.247   1.697   0.957 -0.5948 -0.4507 -0.2730
  350MOL0     C48230   1.110   1.687   1.009  1.2320  1.2726  0.4150
  350MOL0     H48231   0.854   1.441   0.810 -0.4456 -1.4219 -1.1718
  350MOL0     H48232   0.645   1.413   0.688 -0.4943  0.7459  0.5598
  350MOL0     H48233   0.593   1.618   0.282  0.0621  1.0192 -0.2572
  350MOL0     H48234   0.536   1.707   0.424  0.0863  0.7297 -1.4778
  350MOL0     H48235   0.328   1.592   0.426  1.8128  2.7530  0.5746
  350MOL0     H48236   0.364   1.649   0.260  0.4441 -1.9298 -1.2965
  350MOL0     H48237   0.454   1.427   0.202  2.5780  2.6418  2.1331
  350MOL0     H48238   0.405   1.369   0.357  1.3019 -0.3547 -1.4969
  350MOL0     H48239   0.164   1.450   0.308 -2.0494 -2.1453 -1.7904
  350MOL0     H48240   0.217   1.481   0.142  1.5144  3.4168  2.1491
  350MOL0     H48241   0.274   1.210   0.285  1.0047  0.2414  0.8290
  350MOL0     H48242   0.295   1.247   0.116  0.1505 -0.9045  2.1187
  350MOL0     H48243   0.050   1.294   0.099  0.6536 -1.8622 -1.8025
  350MOL0     H48244   0.090   1.123   0.125 -2.6274 -0.2408  0.2128
  350MOL0     H48245  -0.029   1.312   0.334 -0.9708  0.0508 -0.3768
  350MOL0     H48246   0.063   1.167   0.374  2.1450  1.2524 -1.1830
  350MOL0     H48247  -0.179   1.183   0.175  1.3789  3.0488  0.3563
  350MOL0     H48248  -0.120   1.042   0.267 -0.7004 -0.2352 -1.7377
  350MOL0     H48249  -0.293   1.376   0.347  1.9897  0.1736  0.5830
  350MOL0     H48250  -0.355   1.431   0.641  0.2465 -0.2805 -0.6763
  350MOL0     H48251  -0.460   1.297   0.710  3.0873 -3.5821 -1.0814
  350MOL0     H48252  -0.606   1.452   0.631 -0.4947 -3.3389  0.6294
  350MOL0     H48253  -0.518   1.482   0.480 -0.5423  1.2493 -0.0622
  350MOL0     H48254  -0.581   1.286   0.380  1.7658  3.8758  0.4132
  350MOL0     H48255  -0.655   1.209   0.519 -2.7194 -1.1553 -2.5127
  350MOL0     H48256  -0.834   1.280   0.383 -1.2962  2.0607 -1.6466
  350MOL0     H48257  -0.820   1.353   0.545  0.2082 -0.8350  0.6419
  350MOL0     H48258  -0.816   1.576   0.141 -0.7496  1.6258 -0.0103
  350MOL0     H48259  -0.930   1.660  -0.059 -0.6525  1.4092  0.1114
  350MOL0     H48260  -1.102   1.682  -0.059  0.4166  1.2274 -2.3331
  350MOL0     H48261  -1.037   1.526  -0.089 -0.6060  1.4752 -0.2146
  350MOL0     H48262  -1.563   1.737   0.081 -0.7765  0.0683 -0.9745
  350MOL0     H48263  -1.794   1.696   0.013 -1.6343 -1.3961  0.2435
  350MOL0     H48264  -2.009   1.586   0.147  1.6008 -0.7502  0.2145
  350MOL0     H48265  -2.000   1.633  -0.025  1.1220 -0.0737 -0.5604
  350MOL0     H48266  -2.191   1.411   0.072 -1.2709 -1.3507 -1.2739
  350MOL0     H48267  -2.227   1.581   0.053 -3.3048 -3.0249 -0.1648
  350MOL0     H48268  -2.167   1.573  -0.177 -1.0858  2.0370  2.4297
  350MOL0     H48269  -2.310   1.497  -0.124 -0.6105 -2.8383 -0.6910
  350MOL0     H48270  -2.195   1.270  -0.130 -2.5690 -0.4535 -0.8625
  350MOL0     H48271  -2.054   1.363  -0.194  0.1453  5.1555  0.2385
  350MOL0     H48272  -2.335   1.342  -0.320  0.8133 -4.2589  2.6274
  350MOL0     H48273  -2.214   1.455  -0.370  2.4178  0.6269  0.0091
  350MOL0     H48274  -2.232   1.241  -0.507  0.9482 -1.4346 -0.8088
  350MOL0     H48275  -2.165   1.150  -0.363  0.5372 -0.0372  0.3510
  350MOL0     H48276  -1.961   1.281  -0.376  0.0692 -1.1660  0.2500
  350MOL0     H48277  -2.030   1.375  -0.514  1.0494  1.4757  1.0240
  350MOL0     H48278  -2.014   1.082  -0.536  1.2749 -0.8429 -0.7472
  350MOL0     H48279  -1.875   1.189  -0.573  0.1454  0.6476  0.9030
  350MOL0     H48280  -1.756   1.280   0.101  0.1744 -0.0144 -1.8404
  350MOL0     H48281  -1.520   1.316   0.165 -0.2122  0.5514  0.2038
  350MOL0     H48282  -1.241   1.425   0.337  0.8692 -1.8509 -0.2208
  350MOL0     H48283  -1.037   1.411   0.466 -1.9332 -1.0674 -0.4325
  350MOL0     H48284   0.796   1.686   0.384  1.9238 -1.5266 -0.5573
  350MOL0     H48285   1.011   1.695   0.512 -1.0027  0.4652 -1.5541
  350MOL0     H48286   1.443   1.660   0.683 -0.0746  0.3572  0.1719
  350MOL0     H48287   1.622   1.694   0.849 -0.3553 -0.4413  0.0198
  350MOL0     H48288   1.461   1.859   1.249  0.2751  1.0839 -0.4108
  350MOL0     H48289   1.586   1.747   1.311  3.3493 -2.1862 -1.6445
  350MOL0     H48290   1.634   1.983   1.137 -2.7558 -0.2579  0.3040
  350MOL0     H48291   1.748   1.906   1.248  0.1201 -0.6103  2.6931
  350MOL0     H48292   1.664   2.147   1.306  0.7322 -0.9837  1.5507
  350MOL0     H48293   1.509   2.076   1.343 -0.1818 -0.9968  2.1251
  350MOL0     H48294   1.638   2.109   1.540 -4.5366 -2.9813  3.1164
  350MOL0     H48295   1.771   1.998   1.477  0.4966  2.0210  0.4199
  350MOL0     H48296   1.522   1.706   1.614 -0.8566  0.7175 -0.8595
  350MOL0     H48297   1.329   1.750   1.155  0.6969 -1.8522  0.1409
  350MOL0     H48298   1.112   1.708   1.116  1.1464  1.4213  0.3880
  350MOL0     H48299   1.032   1.753   0.969 -2.6287 -0.5982  4.0290
  350MOL0     H48300   1.070   1.586   0.998  2.4834  0.4538  2.6618
  351MOL0     O48301   7.954   2.483   1.890  0.4711 -0.0972  0.5535
  351MOL0     C48302   8.016   2.573   1.947  0.2149 -1.0210  0.3561
  351MOL0     O48303   8.077   2.558   2.076  0.9400  0.5770  0.1617
  351MOL0     C48304   8.122   2.429   2.115 -0.4417  0.0146  0.1149
  351MOL0     C48305   8.205   2.351   2.028  1.2935  0.2334 -0.7302
  351MOL0     C48306   8.255   2.232   2.078 -0.1006  0.4743  0.2627
  351MOL0     C48307   8.242   2.183   2.205  0.6630  0.2849 -0.2468
  351MOL0     O48308   8.307   2.067   2.238 -0.5987  0.1211 -0.0589
  351MOL0     C48309   8.249   1.986   2.347 -0.6963 -0.2291  0.5408
  351MOL0     C48310   8.324   1.853   2.327 -0.4458 -0.1797 -0.0350
  351MOL0     C48311   8.285   1.749   2.427 -0.5425  0.5953 -0.3710
  351MOL0     C48312   8.380   1.623   2.429 -0.2520 -0.0404 -0.4034
  351MOL0     C48313   8.369   1.534   2.555  0.4436  0.8734  0.1669
  351MOL0     C48314   8.450   1.398   2.559 -0.2481 -0.7298  0.1047
  351MOL0     C48315   8.455   1.336   2.700  0.6935 -0.4538 -0.9133
  351MOL0     C48316   8.333   1.246   2.736 -0.7393 -0.4219  0.7652
  351MOL0     N48317   8.358   1.100   2.703  0.1086 -0.7603  1.1645
  351MOL0     C48318   8.369   1.040   2.576 -0.1066  0.8417 -0.2100
  351MOL0     C48319   8.428   0.918   2.598 -0.1492  0.9819 -1.2270
  351MOL0     C48320   8.460   0.807   2.495  0.1129 -0.0040 -0.0018
  351MOL0     C48321   8.614   0.790   2.468 -0.4803 -0.2601  0.1147
  351MOL0     C48322   8.639   0.710   2.335  0.0133 -0.2407  0.1177
  351MOL0     C48323   8.575   0.566   2.342  0.2081  0.0820  0.5522
  351MOL0     O48324   8.625   0.487   2.453  0.1726  0.0013 -0.8685
  351MOL0     C48325   8.605   0.357   2.459  0.3815 -0.2330 -0.0854
  351MOL0     C48326   8.707   0.268   2.444  1.2008 -0.0161 -0.1659
  351MOL0     C48327   8.691   0.124   2.448 -0.2226  0.9002 -0.9669
  351MOL0     C48328   8.814   0.046   2.430  0.1123 -0.2069  0.4077
  351MOL0     C48329   8.557   0.071   2.471  0.6290 -0.5642  0.2881
  351MOL0     C48330   8.517  -0.076   2.479  0.3810 -0.4283 -0.0876
  351MOL0     O48331   8.386  -0.101   2.465  0.5847 -0.0996 -0.4538
  351MOL0     C48332   8.355  -0.236   2.446  0.7303 -0.6026 -0.2725
  351MOL0     C48333   8.345  -0.298   2.324  1.2866 -0.5392  0.0054
  351MOL0     C48334   8.307  -0.431   2.316 -0.1004  0.2098  1.1532
  351MOL0     C48335   8.304  -0.519   2.425 -0.4411  0.0355  0.2737
  351MOL0     O48336   8.304  -0.653   2.406 -0.8626 -0.5807  0.1037
  351MOL0     C48337   8.316  -0.730   2.525 -0.5165  1.1083  0.3010
  351MOL0     C48338   8.302  -0.874   2.483 -0.4907  0.9400 -0.5909
  351MOL0     C48339   8.406  -0.938   2.388 -0.1644 -1.8692  0.6918
  351MOL0     C48340   8.549  -0.957   2.446  0.2075  0.4286  0.4577
  351MOL0     C48341   8.618  -1.076   2.377 -0.1754  0.8849 -0.6404
  351MOL0     C48342   8.576  -1.208   2.449 -0.7357 -0.6093  0.9649
  351MOL0     C48343   8.647  -1.325   2.370  0.5981  0.9031  1.2215
  351MOL0     C48344   8.782  -1.360   2.441 -0.0216  1.1754  0.5573
  351MOL0    Cl48345   8.856  -1.493   2.354 -0.3219 -0.4647 -0.3255
  351MOL0     C48346   8.315  -0.451   2.549  1.0447  0.3847 -1.2894
  351MOL0     C48347   8.340  -0.315   2.559  0.3323 -0.4083  0.2206
  351MOL0     O48348   8.604  -0.163   2.485 -0.6210 -0.5848 -0.5273
  351MOL0     C48349   8.457   0.165   2.484  0.3221 -0.4230  0.1602
  351MOL0     C48350   8.473   0.306   2.480 -0.1841 -1.2835  0.0258
  351MOL0     N48351   8.465   0.922   2.731 -0.6706 -0.4286 -0.1721
  351MOL0     N48352   8.416   1.023   2.792  0.2476 -0.1552 -0.6729
  351MOL0     C48353   8.153   2.262   2.285 -0.1631  0.4826 -0.8030
  351MOL0     C48354   8.088   2.380   2.244 -0.4485  0.4619 -0.1988
  351MOL0     C48355   8.033   2.710   1.886  1.5508 -0.2208  1.0890
  351MOL0     C48356   8.140   2.793   1.918 -0.2041  0.5544 -0.6739
  351MOL0     C48357   8.143   2.924   1.868 -0.7284  0.3410 -0.5004
  351MOL0     C48358   8.044   2.977   1.796  0.2957 -0.0545  0.0927
  351MOL0     O48359   8.030   3.117   1.769  0.1005  0.3571 -0.4662
  351MOL0     C48360   8.088   3.216   1.862 -0.0355  1.2572 -0.1691
  351MOL0     C48361   8.083   3.353   1.801  0.2595 -0.1237  0.5920
  351MOL0     C48362   8.202   3.404   1.718 -0.6805  0.2949 -1.0479
  351MOL0     C48363   8.157   3.547   1.680 -0.8366 -0.0392 -0.3968
  351MOL0     C48364   8.095   3.552   1.551  0.7516  0.2885  0.1343
  351MOL0     C48365   8.030   3.576   1.450  0.3814 -0.3676  0.0948
  351MOL0     C48366   7.937   2.898   1.759  0.0210  0.0790 -0.8044
  351MOL0     C48367   7.931   2.767   1.798 -0.2788 -0.3620 -0.1229
  351MOL0     C48368   7.815   2.690   1.745  0.2728 -0.4246 -0.6583
  351MOL0     H48369   8.230   2.384   1.928  3.6521 -1.0485 -0.6481
  351MOL0     H48370   8.312   2.166   2.012  0.2208 -0.0776  1.0802
  351MOL0     H48371   8.141   1.990   2.336 -0.7293  3.0859  0.9568
  351MOL0     H48372   8.293   2.035   2.435  1.5166 -1.5676  0.2706
  351MOL0     H48373   8.303   1.813   2.228 -2.0227 -1.5422  0.7991
  351MOL0     H48374   8.430   1.871   2.347  0.1894 -5.7744  3.9051
  351MOL0     H48375   8.295   1.798   2.524 -0.2046  0.3745 -0.2918
  351MOL0     H48376   8.185   1.710   2.410  1.4555 -3.9051 -4.0532
  351MOL0     H48377   8.359   1.562   2.340 -1.0936  1.9806 -1.6544
  351MOL0     H48378   8.481   1.664   2.417  0.3891 -1.6598 -0.9871
  351MOL0     H48379   8.268   1.494   2.568  0.8357 -0.4401 -0.5901
  351MOL0     H48380   8.395   1.598   2.640 -1.7433  2.1870 -0.0734
  351MOL0     H48381   8.426   1.324   2.481 -1.2637  0.5351 -0.8374
  351MOL0     H48382   8.548   1.434   2.527  0.0382 -1.7389 -0.2014
  351MOL0     H48383   8.465   1.416   2.774 -0.2760 -2.6192  1.7184
  351MOL0     H48384   8.543   1.270   2.703  1.8476  0.9880 -1.5657
  351MOL0     H48385   8.319   1.255   2.844  2.1146 -2.3455  1.3995
  351MOL0     H48386   8.242   1.285   2.690  2.4026  2.7236 -3.6661
  351MOL0     H48387   8.347   1.086   2.480  2.4336  1.1335 -0.7102
  351MOL0     H48388   8.402   0.827   2.404  0.2506 -1.8709 -0.5325
  351MOL0     H48389   8.419   0.714   2.534  0.3865  0.1610  0.6967
  351MOL0     H48390   8.656   0.890   2.453 -2.2465  0.3024 -1.5135
  351MOL0     H48391   8.670   0.744   2.550  1.2753  0.7573 -0.4462
  351MOL0     H48392   8.607   0.761   2.244  1.7587 -1.6049 -1.3248
  351MOL0     H48393   8.746   0.698   2.319  0.2080 -0.8930  1.7231
  351MOL0     H48394   8.466   0.578   2.350  0.1849 -0.6085  1.3842
  351MOL0     H48395   8.585   0.508   2.250 -0.1740 -0.6844  0.9804
  351MOL0     H48396   8.808   0.305   2.427  1.4659 -0.2730  0.7909
  351MOL0     H48397   8.804  -0.016   2.340 -1.2564 -0.8529  0.9755
  351MOL0     H48398   8.831  -0.026   2.511 -0.0212 -2.1440 -1.1937
  351MOL0     H48399   8.907   0.103   2.422  1.3870 -2.3945 -1.9596
  351MOL0     H48400   8.348  -0.234   2.237  0.8038 -1.9245 -1.0747
  351MOL0     H48401   8.286  -0.477   2.220  0.5112 -0.3697  1.2927
  351MOL0     H48402   8.413  -0.721   2.575 -0.5817 -0.1044  0.6762
  351MOL0     H48403   8.235  -0.704   2.594 -2.0182 -0.2302 -0.8805
  351MOL0     H48404   8.281  -0.934   2.572 -1.5602  0.5696 -1.0709
  351MOL0     H48405   8.212  -0.882   2.421 -0.1875 -1.6509 -0.7752
  351MOL0     H48406   8.409  -0.879   2.295 -0.2041  1.5679  2.7216
  351MOL0     H48407   8.373  -1.040   2.367  2.8293 -2.8695  0.4201
  351MOL0     H48408   8.553  -0.957   2.555  1.6348 -1.2604  0.4453
  351MOL0     H48409   8.609  -0.867   2.427 -2.0556  1.5131 -2.3183
  351MOL0     H48410   8.584  -1.073   2.274 -1.0903 -1.7192 -0.4970
  351MOL0     H48411   8.727  -1.081   2.383 -0.2482 -1.2008 -0.1754
  351MOL0     H48412   8.467  -1.204   2.440 -0.6480  1.8749  0.2771
  351MOL0     H48413   8.588  -1.198   2.557 -2.3532  3.4325  0.9741
  351MOL0     H48414   8.667  -1.303   2.265  1.7327  0.3209  1.2952
  351MOL0     H48415   8.586  -1.416   2.364  0.9828  0.7343 -0.6889
  351MOL0     H48416   8.773  -1.379   2.548 -1.5195 -1.0452  0.1152
  351MOL0     H48417   8.846  -1.273   2.427 -2.5262  4.0324  4.5410
  351MOL0     H48418   8.311  -0.498   2.647  1.3974  1.1108 -0.9220
  351MOL0     H48419   8.335  -0.265   2.656 -1.0163 -1.1075  0.5426
  351MOL0     H48420   8.356   0.128   2.495  0.6503 -1.2767  0.3716
  351MOL0     H48421   8.385   0.370   2.485  0.6483 -0.1653  3.3232
  351MOL0     H48422   8.134   2.222   2.385 -2.5179 -2.7041 -2.3167
  351MOL0     H48423   8.035   2.448   2.311  0.0533  0.1831  0.4962
  351MOL0     H48424   8.219   2.749   1.979 -0.7340  0.9847  0.3335
  351MOL0     H48425   8.229   2.978   1.908 -1.7824 -0.0760  2.5930
  351MOL0     H48426   8.029   3.207   1.953  0.8604 -0.7287  0.2719
  351MOL0     H48427   8.188   3.177   1.884  0.6664  2.0660 -1.7266
  351MOL0     H48428   8.070   3.417   1.889 -2.9004 -1.1970  1.0362
  351MOL0     H48429   7.998   3.362   1.733  0.0179  1.6934  1.0838
  351MOL0     H48430   8.289   3.401   1.784 -1.2167 -1.1629 -0.3759
  351MOL0     H48431   8.231   3.344   1.631 -1.4114  0.2253 -1.2453
  351MOL0     H48432   8.246   3.609   1.666 -0.2231 -0.7618  0.2681
  351MOL0     H48433   8.099   3.585   1.765  1.9160  0.5369  1.3667
  351MOL0     H48434   7.964   3.587   1.366 -1.3105 -1.0284  1.2711
  351MOL0     H48435   7.857   2.950   1.706 -1.4366 -1.9034 -0.6511
  351MOL0     H48436   7.852   2.623   1.667 -1.2500 -1.1333 -0.8081
  351MOL0     H48437   7.768   2.626   1.820 -2.2138  0.8477 -1.0055
  351MOL0     H48438   7.734   2.752   1.704 -2.0832 -2.5051  0.5279
  352MOL0     O48439  11.230   4.804   0.032 -0.1486 -0.4079  0.2384
  352MOL0     C48440  11.170   4.844   0.126  0.5546  0.5079 -0.7004
  352MOL0     O48441  11.057   4.913   0.126  0.4706 -0.7362 -0.2767
  352MOL0     C48442  10.992   4.951   0.007 -0.1054 -0.2723 -0.5078
  352MOL0     C48443  11.052   4.958  -0.125 -0.1718  0.4068 -0.7079
  352MOL0     C48444  10.982   4.982  -0.242  0.6247 -0.6510  0.7621
  352MOL0     C48445  10.839   5.011  -0.235  0.1810 -0.5202 -0.1934
  352MOL0     O48446  10.764   5.045  -0.343  0.2637 -0.6470  0.6158
  352MOL0     C48447  10.802   5.007  -0.468 -0.7452 -0.1064  0.0021
  352MOL0     C48448  10.800   4.856  -0.491  0.7175 -0.4281  0.5710
  352MOL0     C48449  10.684   4.777  -0.430 -0.4079 -0.0185  0.0470
  352MOL0     C48450  10.541   4.828  -0.458  0.2106  0.3085 -0.0446
  352MOL0     C48451  10.441   4.716  -0.416 -0.8199  0.0837 -0.6221
  352MOL0     C48452  10.306   4.758  -0.456  1.0584 -0.3902 -0.2439
  352MOL0     C48453  10.262   4.881  -0.372  0.1296 -0.0776  0.7897
  352MOL0     C48454  10.237   4.997  -0.469  0.2564  0.3124 -0.4910
  352MOL0     N48455  10.162   5.109  -0.397  0.2308  0.0955  0.1309
  352MOL0     C48456  10.027   5.130  -0.401  0.6335 -0.9070  0.2756
  352MOL0     C48457  10.015   5.250  -0.336 -0.3834  1.0633 -1.2047
  352MOL0     C48458   9.884   5.317  -0.324 -1.4975 -0.1835 -0.6813
  352MOL0     C48459   9.848   5.433  -0.412  0.3815 -0.6813 -0.1770
  352MOL0     C48460   9.839   5.400  -0.564 -0.8237  0.2995  0.2152
  352MOL0     C48461   9.796   5.520  -0.639  0.5708 -0.1684 -0.2555
  352MOL0     O48462   9.784   5.474  -0.770  0.0463 -0.6450  0.1159
  352MOL0     C48463   9.764   5.576  -0.866  0.2785 -0.6298 -0.5425
  352MOL0     C48464   9.842   5.578  -0.982  0.2312  0.9337 -0.5819
  352MOL0     C48465   9.807   5.667  -1.088 -0.0077  0.1207  0.5247
  352MOL0     C48466   9.901   5.646  -1.211 -1.5447 -0.0663  0.5986
  352MOL0     C48467   9.696   5.754  -1.072 -0.0949 -0.5459 -0.2129
  352MOL0     C48468   9.642   5.834  -1.180 -0.6759  0.3925 -0.3453
  352MOL0     O48469   9.593   5.958  -1.140  0.1736 -0.6345  0.5247
  352MOL0     C48470   9.581   6.061  -1.227  0.1065 -0.2332  0.9445
  352MOL0     C48471   9.683   6.154  -1.229  0.0795 -0.0927 -0.2008
  352MOL0     C48472   9.678   6.260  -1.312  0.2142 -0.3799  0.0786
  352MOL0     C48473   9.587   6.261  -1.420  0.5526 -0.0117 -0.7057
  352MOL0     O48474   9.586   6.366  -1.510 -0.8621  0.1737 -0.4454
  352MOL0     C48475   9.561   6.331  -1.643 -0.0010  0.3855 -0.5431
  352MOL0     C48476   9.607   6.449  -1.727 -0.4492  0.0256 -0.3381
  352MOL0     C48477   9.566   6.434  -1.875 -0.1560 -0.4904 -0.9394
  352MOL0     C48478   9.676   6.466  -1.972  0.7187 -0.0090 -0.4658
  352MOL0     C48479   9.611   6.449  -2.118 -0.2354 -0.3154 -0.3465
  352MOL0     C48480   9.724   6.413  -2.212 -0.2537  0.8558  0.2443
  352MOL0     C48481   9.693   6.424  -2.360 -1.0943 -0.3764 -0.6386
  352MOL0     C48482   9.636   6.570  -2.394  0.5223  0.0685 -0.3599
  352MOL0    Cl48483   9.753   6.703  -2.354  0.0555 -0.0362 -0.1888
  352MOL0     C48484   9.486   6.163  -1.419  0.1499 -0.3607 -0.2918
  352MOL0     C48485   9.477   6.060  -1.326 -0.7418 -0.0663 -0.5446
  352MOL0     O48486   9.654   5.792  -1.291  0.3931  0.6594  0.8752
  352MOL0     C48487   9.637   5.770  -0.947  0.2762  0.2606  0.1655
  352MOL0     C48488   9.669   5.674  -0.847  0.4403  0.1953  1.3437
  352MOL0     N48489  10.138   5.297  -0.296  0.0008  0.3796 -0.3538
  352MOL0     N48490  10.232   5.210  -0.331 -0.5283  0.0888  0.6750
  352MOL0     C48491  10.779   5.007  -0.105 -0.1191 -0.0578 -0.4600
  352MOL0     C48492  10.857   4.978   0.012 -0.3474  0.2795 -0.2855
  352MOL0     C48493  11.218   4.810   0.262 -0.4210 -0.0744 -0.1535
  352MOL0     C48494  11.134   4.871   0.366  0.6264  0.1209  0.8246
  352MOL0     C48495  11.171   4.847   0.501 -0.1974 -0.1912  0.1366
  352MOL0     C48496  11.276   4.769   0.536 -0.3416  0.4283  0.7545
  352MOL0     O48497  11.319   4.759   0.669  0.0435 -0.6618  0.3389
  352MOL0     C48498  11.347   4.628   0.724  0.6232 -0.1063 -0.1053
  352MOL0     C48499  11.487   4.628   0.779 -0.1581 -0.2418 -0.3177
  352MOL0     C48500  11.513   4.489   0.846  0.2483  0.0385  0.1269
  352MOL0     C48501  11.643   4.484   0.924  0.4526  0.3042 -0.0147
  352MOL0     C48502  11.753   4.482   0.826  0.3730  0.3297 -0.1548
  352MOL0     C48503  11.845   4.463   0.745 -0.1646 -0.0015 -1.3373
  352MOL0     C48504  11.346   4.704   0.432 -0.1992 -0.4794  0.0131
  352MOL0     C48505  11.323   4.722   0.299  0.0127  0.4623 -0.7349
  352MOL0     C48506  11.421   4.655   0.208  0.2300  0.0295  0.2687
  352MOL0     H48507  11.158   4.942  -0.140  0.0184  0.3436  0.5985
  352MOL0     H48508  11.035   4.987  -0.336 -0.7641  0.3588 -0.0134
  352MOL0     H48509  10.899   5.046  -0.500 -1.9597  1.9265 -1.4662
  352MOL0     H48510  10.729   5.046  -0.540 -2.0843  1.5554  2.1346
  352MOL0     H48511  10.807   4.832  -0.597  1.5131 -3.0181  1.1348
  352MOL0     H48512  10.892   4.819  -0.446  0.7009  1.6933  2.5603
  352MOL0     H48513  10.693   4.674  -0.465 -0.8282  0.2266 -0.8209
  352MOL0     H48514  10.706   4.768  -0.324  1.5373 -3.1076 -0.5009
  352MOL0     H48515  10.519   4.922  -0.406  0.3142 -0.6914  1.8812
  352MOL0     H48516  10.543   4.853  -0.564  2.8403 -0.9562 -0.3712
  352MOL0     H48517  10.428   4.708  -0.307 -1.9234 -2.0789 -0.8694
  352MOL0     H48518  10.460   4.619  -0.462 -4.2244 -1.4573  0.8890
  352MOL0     H48519  10.296   4.787  -0.561  1.4805 -0.3974 -0.2915
  352MOL0     H48520  10.239   4.674  -0.436  0.8916 -0.4688 -1.1091
  352MOL0     H48521  10.331   4.904  -0.290 -0.7372  0.7956  1.3052
  352MOL0     H48522  10.164   4.864  -0.327  0.3898 -0.4851  1.2164
  352MOL0     H48523  10.329   5.041  -0.510 -0.0362  0.4419 -1.0172
  352MOL0     H48524  10.161   4.973  -0.543 -0.8613  4.6394 -1.0170
  352MOL0     H48525   9.948   5.079  -0.455 -1.5392  0.4627  1.9805
  352MOL0     H48526   9.865   5.353  -0.222  2.8924 -1.0591  0.6539
  352MOL0     H48527   9.808   5.241  -0.343 -0.9745 -0.7130 -0.6815
  352MOL0     H48528   9.764   5.485  -0.367  2.7239  1.8386  1.6475
  352MOL0     H48529   9.929   5.505  -0.395 -0.7713  0.8715 -1.0248
  352MOL0     H48530   9.938   5.364  -0.594 -1.2352  1.1750 -2.4325
  352MOL0     H48531   9.769   5.320  -0.591  2.2758 -2.2850 -0.7746
  352MOL0     H48532   9.698   5.555  -0.604  0.5664 -0.5362  0.1100
  352MOL0     H48533   9.871   5.597  -0.623  1.9248 -1.7983  1.8146
  352MOL0     H48534   9.918   5.500  -0.987 -1.5215 -1.2768  2.6550
  352MOL0     H48535   9.940   5.745  -1.235  0.0007 -0.4135  1.5190
  352MOL0     H48536   9.855   5.598  -1.298 -1.0058  0.8104 -0.1858
  352MOL0     H48537   9.994   5.598  -1.179  1.9563  2.7442 -4.0171
  352MOL0     H48538   9.771   6.159  -1.165 -0.1090  4.7153  0.0552
  352MOL0     H48539   9.754   6.336  -1.296  0.3351 -0.5411  0.2683
  352MOL0     H48540   9.599   6.231  -1.661  1.6200  0.5502  1.6179
  352MOL0     H48541   9.452   6.327  -1.658 -0.1478 -0.3378  0.6442
  352MOL0     H48542   9.554   6.532  -1.679 -1.4897 -0.5133 -0.5203
  352MOL0     H48543   9.715   6.459  -1.714 -0.7686  0.9547  2.2486
  352MOL0     H48544   9.477   6.496  -1.892 -0.6009 -1.4364 -2.2626
  352MOL0     H48545   9.541   6.328  -1.888  0.7346 -0.9514  0.8602
  352MOL0     H48546   9.765   6.405  -1.954  1.2517  1.4461  2.4667
  352MOL0     H48547   9.710   6.568  -1.948  1.1574 -0.8790  3.2898
  352MOL0     H48548   9.539   6.367  -2.119  0.3151 -0.8254  0.3054
  352MOL0     H48549   9.568   6.549  -2.127  0.8870  0.3255  0.9303
  352MOL0     H48550   9.754   6.310  -2.193 -3.2377 -0.7234 -2.6717
  352MOL0     H48551   9.802   6.485  -2.184  0.6297 -1.2494  3.8407
  352MOL0     H48552   9.629   6.350  -2.409 -0.4938 -2.6895  1.8774
  352MOL0     H48553   9.787   6.414  -2.414 -0.6162 -3.1767  0.5535
  352MOL0     H48554   9.532   6.594  -2.368 -0.3251 -4.0691  0.7603
  352MOL0     H48555   9.618   6.573  -2.502 -0.5171 -1.5343 -0.2649
  352MOL0     H48556   9.425   6.139  -1.506 -0.5744 -3.6461  0.9768
  352MOL0     H48557   9.404   5.981  -1.326 -4.5719  3.1566 -1.4362
  352MOL0     H48558   9.566   5.848  -0.922 -0.0972 -0.4041  1.2464
  352MOL0     H48559   9.608   5.679  -0.757 -2.7732 -1.0114 -0.5860
  352MOL0     H48560  10.677   5.030  -0.076  1.0867  1.9222  2.9103
  352MOL0     H48561  10.812   4.958   0.109 -0.1150  0.7228 -0.0784
  352MOL0     H48562  11.050   4.938   0.349  0.9960  0.2862 -0.4233
  352MOL0     H48563  11.131   4.922   0.568  1.0403 -0.1222  0.8128
  352MOL0     H48564  11.286   4.607   0.812  2.3724  0.6148  1.3662
  352MOL0     H48565  11.332   4.547   0.653 -0.9540  1.0278 -1.1146
  352MOL0     H48566  11.499   4.713   0.848  0.5608  0.8381 -1.7094
  352MOL0     H48567  11.556   4.655   0.698 -0.6759  2.1641 -0.0567
  352MOL0     H48568  11.428   4.464   0.910  0.4462 -2.3923 -0.4585
  352MOL0     H48569  11.516   4.411   0.769  3.4919 -0.6967  0.8238
  352MOL0     H48570  11.650   4.390   0.979  1.9935  0.5752  0.2948
  352MOL0     H48571  11.659   4.561   1.001  1.5824 -0.7884  0.8888
  352MOL0     H48572  11.919   4.451   0.668  0.8428 -0.3464 -0.3469
  352MOL0     H48573  11.434   4.643   0.449 -0.1850 -0.5554 -0.3187
  352MOL0     H48574  11.489   4.729   0.165 -1.7321  0.9233 -1.4747
  352MOL0     H48575  11.483   4.587   0.269 -0.4101 -0.0799  0.8104
  352MOL0     H48576  11.363   4.603   0.131 -1.6172  2.3000  0.0102
  353MOL0     O48577   8.515   1.117   0.267  0.0587 -0.0156  0.2476
  353MOL0     C48578   8.409   1.151   0.318  0.3858  0.4058 -0.5260
  353MOL0     O48579   8.314   1.063   0.385 -0.5354  0.2058  0.3945
  353MOL0     C48580   8.358   0.939   0.439 -0.3232 -0.4475  0.0891
  353MOL0     C48581   8.469   0.859   0.389  0.7896  0.4103 -0.5430
  353MOL0     C48582   8.493   0.732   0.452 -0.0190 -0.8748  0.2910
  353MOL0     C48583   8.414   0.681   0.559 -0.1670  0.3776  0.1231
  353MOL0     O48584   8.437   0.562   0.629  0.4485 -0.2993  0.9207
  353MOL0     C48585   8.573   0.513   0.639 -0.2717  0.2718  0.0839
  353MOL0     C48586   8.664   0.609   0.727 -0.0708 -0.4335 -0.2217
  353MOL0     C48587   8.586   0.665   0.847  0.1494 -1.1421  0.6813
  353MOL0     C48588   8.549   0.571   0.958  0.1091 -0.0105 -0.0394
  353MOL0     C48589   8.669   0.507   1.032  0.1865  0.3816  0.5737
  353MOL0     C48590   8.667   0.530   1.182  0.0787 -1.0828 -0.4212
  353MOL0     C48591   8.778   0.460   1.251 -0.3209  0.3566  0.0291
  353MOL0     C48592   8.790   0.518   1.395  1.0345  0.0636  1.8466
  353MOL0     N48593   8.886   0.445   1.471  0.9406  0.3860 -0.5180
  353MOL0     C48594   8.862   0.408   1.605 -0.3298  0.5527  0.0602
  353MOL0     C48595   8.990   0.384   1.665  0.3836 -0.3898  0.3068
  353MOL0     C48596   8.998   0.323   1.803  0.1655 -0.0856  0.5926
  353MOL0     C48597   8.977   0.429   1.910 -0.0493  0.4800 -0.5828
  353MOL0     C48598   8.944   0.365   2.049 -0.3526  0.0505 -0.8398
  353MOL0     C48599   8.800   0.311   2.053  0.0323 -0.0787  0.0700
  353MOL0     O48600   8.699   0.418   2.065 -0.0213 -0.4618  0.1594
  353MOL0     C48601   8.646   0.475   1.958  0.2641  0.3661  0.1358
  353MOL0     C48602   8.660   0.608   1.923 -0.0848 -0.4567  0.3251
  353MOL0     C48603   8.610   0.662   1.806 -0.6563  0.0155  0.6813
  353MOL0     C48604   8.647   0.805   1.761 -0.0035 -0.1120 -0.0935
  353MOL0     C48605   8.528   0.578   1.723  1.0627  1.1517  0.6300
  353MOL0     C48606   8.468   0.615   1.595  0.5349 -0.3081  0.8024
  353MOL0     O48607   8.361   0.547   1.547 -0.4804 -0.3398 -0.5365
  353MOL0     C48608   8.270   0.618   1.469  0.1408  0.2701 -0.0110
  353MOL0     C48609   8.247   0.759   1.482  1.1425 -0.0778  0.0734
  353MOL0     C48610   8.162   0.829   1.393 -0.2435 -0.0771  0.4599
  353MOL0     C48611   8.088   0.747   1.303 -0.5245  0.2393  0.7667
  353MOL0     O48612   7.985   0.790   1.223  0.4105 -0.3098 -0.4689
  353MOL0     C48613   8.009   0.893   1.134  0.1171  0.3600  0.2603
  353MOL0     C48614   7.874   0.949   1.093  0.0227  1.3509 -0.8170
  353MOL0     C48615   7.882   1.028   0.958 -0.5443  0.0651 -0.1692
  353MOL0     C48616   7.748   1.102   0.933  0.0508  0.4447  0.1843
  353MOL0     C48617   7.740   1.138   0.781  0.0982  0.1039 -0.0702
  353MOL0     C48618   7.852   1.244   0.734  0.4143 -0.0051 -0.7409
  353MOL0     C48619   7.940   1.192   0.618 -0.1190 -0.5188 -0.0529
  353MOL0     C48620   7.870   1.169   0.483 -0.6576 -0.0603  0.6873
  353MOL0    Cl48621   7.993   1.180   0.348  0.0423 -0.1150  0.3933
  353MOL0     C48622   8.109   0.607   1.291 -0.6917  0.6797  0.9282
  353MOL0     C48623   8.213   0.549   1.362  0.3704  0.4432 -0.1726
  353MOL0     O48624   8.522   0.706   1.532 -0.2734  0.5576  0.7182
  353MOL0     C48625   8.497   0.450   1.768 -0.6217 -0.5165  0.0708
  353MOL0     C48626   8.568   0.394   1.874  0.1209  0.0670 -0.1665
  353MOL0     N48627   9.079   0.418   1.569  0.9276  0.1340 -0.3501
  353MOL0     N48628   9.022   0.454   1.457 -0.1780  0.7621 -0.0421
  353MOL0     C48629   8.311   0.755   0.597  1.3701 -0.3337 -0.8234
  353MOL0     C48630   8.280   0.888   0.541  0.1578 -0.0421  0.2650
  353MOL0     C48631   8.373   1.294   0.317  0.3694  0.1568 -0.1357
  353MOL0     C48632   8.278   1.342   0.401  0.2434  0.5303 -0.6277
  353MOL0     C48633   8.224   1.471   0.390 -0.7125 -0.3640 -0.3487
  353MOL0     C48634   8.293   1.570   0.307  0.1972  0.6514 -0.8127
  353MOL0     O48635   8.266   1.707   0.296 -0.6893  0.2495  0.4499
  353MOL0     C48636   8.166   1.761   0.386  0.3298 -0.3570  0.1347
  353MOL0     C48637   8.149   1.901   0.332 -0.3262 -0.7958  0.6938
  353MOL0     C48638   8.091   1.984   0.448  0.1258  0.0025 -1.1287
  353MOL0     C48639   8.078   2.128   0.406  0.6887 -0.2250  0.2399
  353MOL0     C48640   7.975   2.149   0.304  0.9222 -0.5164  0.7266
  353MOL0     C48641   7.898   2.185   0.220 -0.1594 -0.9699  0.8002
  353MOL0     C48642   8.399   1.517   0.226 -0.2851 -0.9441  0.0623
  353MOL0     C48643   8.427   1.379   0.218 -0.7015  0.0261  0.2814
  353MOL0     C48644   8.528   1.357   0.110  0.4970  0.5051 -0.6024
  353MOL0     H48645   8.526   0.879   0.299  1.1570 -0.0453 -0.4123
  353MOL0     H48646   8.578   0.677   0.411 -1.2503 -3.4018  0.9164
  353MOL0     H48647   8.632   0.503   0.547  2.6495  0.5382  1.8255
  353MOL0     H48648   8.586   0.413   0.681  1.8549  0.5878  0.2652
  353MOL0     H48649   8.755   0.563   0.766 -0.3181  0.7862  1.8892
  353MOL0     H48650   8.695   0.687   0.658  0.1152  1.9786  2.4321
  353MOL0     H48651   8.645   0.742   0.898  0.2997 -0.7675 -0.0503
  353MOL0     H48652   8.497   0.717   0.810  0.5157 -0.1882  1.1091
  353MOL0     H48653   8.478   0.624   1.022 -0.0638  1.7649 -1.6099
  353MOL0     H48654   8.495   0.484   0.919 -0.2277  1.1604 -2.3473
  353MOL0     H48655   8.767   0.536   0.993  0.1239  0.4237  0.4472
  353MOL0     H48656   8.658   0.398   1.026  0.8219  0.0979  3.1177
  353MOL0     H48657   8.676   0.634   1.214 -1.1129 -1.2403  0.5326
  353MOL0     H48658   8.563   0.504   1.205 -0.4180  1.4595  0.5413
  353MOL0     H48659   8.877   0.479   1.209 -0.6089  1.0010 -0.3693
  353MOL0     H48660   8.752   0.354   1.262 -1.1937  0.6196  0.6179
  353MOL0     H48661   8.825   0.622   1.395  0.8513  0.1358  0.7177
  353MOL0     H48662   8.691   0.514   1.442  0.0290 -2.6622 -0.2159
  353MOL0     H48663   8.770   0.397   1.662 -1.2077  0.3275 -1.3455
  353MOL0     H48664   9.094   0.273   1.816  0.1530 -0.7203 -1.4021
  353MOL0     H48665   8.914   0.254   1.810 -0.7351  0.8948 -0.1259
  353MOL0     H48666   9.065   0.493   1.913  2.2372 -2.0358 -4.3374
  353MOL0     H48667   8.892   0.493   1.883 -0.0920  0.5761 -0.2225
  353MOL0     H48668   9.011   0.280   2.066 -1.5912 -0.4305  2.2453
  353MOL0     H48669   8.959   0.442   2.126  3.9355 -3.1239  2.0229
  353MOL0     H48670   8.785   0.239   1.971  2.1725  1.1489 -1.5167
  353MOL0     H48671   8.795   0.252   2.145  3.1726  1.2145  1.2026
  353MOL0     H48672   8.710   0.684   1.982 -0.4355 -1.0037  1.3310
  353MOL0     H48673   8.721   0.810   1.681 -0.7545  0.5531 -0.7666
  353MOL0     H48674   8.681   0.865   1.846 -0.5389 -2.5597  1.9886
  353MOL0     H48675   8.564   0.866   1.724 -0.2229 -0.2550  0.1532
  353MOL0     H48676   8.295   0.813   1.563 -0.6824 -0.3587  1.4137
  353MOL0     H48677   8.138   0.934   1.411 -0.4874 -0.0705  0.1203
  353MOL0     H48678   8.071   0.972   1.178 -3.3527  2.3198  2.0449
  353MOL0     H48679   8.060   0.840   1.053  0.5637 -0.0920  0.8220
  353MOL0     H48680   7.806   0.865   1.074  0.4837  0.9089 -0.5357
  353MOL0     H48681   7.836   0.996   1.184 -0.6578 -1.3204  0.3767
  353MOL0     H48682   7.904   0.970   0.867 -0.7472  2.3706 -1.7683
  353MOL0     H48683   7.961   1.104   0.967  0.1063 -0.6514  0.2941
  353MOL0     H48684   7.753   1.183   1.007  1.2568  0.0534  0.5553
  353MOL0     H48685   7.657   1.044   0.952 -1.8284  2.9753 -0.5714
  353MOL0     H48686   7.757   1.043   0.730  2.9014  1.2203 -1.4452
  353MOL0     H48687   7.638   1.174   0.766  0.2431  0.5457 -0.0138
  353MOL0     H48688   7.911   1.278   0.820  0.1609 -0.6051 -0.3205
  353MOL0     H48689   7.795   1.334   0.711  0.7967  1.2673  2.7484
  353MOL0     H48690   7.976   1.098   0.661  1.8033 -0.8400 -2.1834
  353MOL0     H48691   8.027   1.256   0.598 -0.5776  0.1202 -0.0573
  353MOL0     H48692   7.803   1.254   0.464  0.6746  0.6331 -1.1921
  353MOL0     H48693   7.815   1.074   0.480 -1.0482  0.1804  0.0980
  353MOL0     H48694   8.059   0.550   1.213  2.5056 -0.1644 -0.6381
  353MOL0     H48695   8.231   0.444   1.342 -1.4017  0.1116 -0.1306
  353MOL0     H48696   8.435   0.384   1.709 -0.5762 -0.3253 -0.1882
  353MOL0     H48697   8.562   0.287   1.893 -0.4739  0.0220 -0.5784
  353MOL0     H48698   8.253   0.715   0.680  1.5067 -3.1555 -1.9535
  353MOL0     H48699   8.203   0.953   0.581  1.0367  1.9110 -1.0318
  353MOL0     H48700   8.237   1.279   0.479  1.5076  0.8434  0.3204
  353MOL0     H48701   8.143   1.507   0.452 -1.7544  1.3487 -2.5697
  353MOL0     H48702   8.076   1.699   0.386  0.7035 -1.1716 -4.0294
  353MOL0     H48703   8.214   1.767   0.484 -0.9248  1.6428  0.6948
  353MOL0     H48704   8.064   1.900   0.263 -1.4306 -0.6959  1.9995
  353MOL0     H48705   8.245   1.936   0.294 -0.2962 -0.8655  0.7052
  353MOL0     H48706   7.994   1.945   0.481 -0.2145  1.8393  0.1644
  353MOL0     H48707   8.155   1.972   0.535  1.1140 -0.5900 -1.9195
  353MOL0     H48708   8.167   2.175   0.363 -2.2877  2.1821 -4.0424
  353MOL0     H48709   8.047   2.176   0.499 -0.0437 -0.3208  0.0510
  353MOL0     H48710   7.828   2.220   0.147  0.9194  2.0111  1.0249
  353MOL0     H48711   8.442   1.590   0.158  1.2326 -2.1976 -0.3737
  353MOL0     H48712   8.541   1.254   0.075  2.5682  1.3701 -2.6800
  353MOL0     H48713   8.506   1.408   0.015  1.2958 -0.5571 -1.3885
  353MOL0     H48714   8.623   1.396   0.146  0.3299  1.7354 -1.3936
  354MOL0     O48715   5.115   1.111   2.200 -0.0959  1.2755 -0.3083
  354MOL0     C48716   5.212   1.027   2.212  0.0376  0.0810 -0.0175
  354MOL0     O48717   5.295   0.987   2.119  0.8862 -0.8363 -0.3323
  354MOL0     C48718   5.289   1.050   1.994  0.8341 -0.0108 -0.5822
  354MOL0     C48719   5.357   1.176   1.980 -0.3278  0.6027  0.3781
  354MOL0     C48720   5.364   1.244   1.860  0.0804 -0.2485  0.2117
  354MOL0     C48721   5.296   1.184   1.749 -0.0566 -0.7432 -1.0500
  354MOL0     O48722   5.302   1.258   1.630 -0.0354 -0.0225 -0.0748
  354MOL0     C48723   5.356   1.190   1.512  0.0144  0.0871 -1.5472
  354MOL0     C48724   5.333   1.291   1.396  1.0555  0.2069 -0.3304
  354MOL0     C48725   5.301   1.228   1.250  0.1130  0.0348 -0.4662
  354MOL0     C48726   5.389   1.284   1.145 -0.5599  0.0112 -0.2813
  354MOL0     C48727   5.383   1.444   1.142 -0.1554  0.3586  0.5038
  354MOL0     C48728   5.496   1.507   1.062  0.9851  0.8120 -0.2561
  354MOL0     C48729   5.623   1.524   1.143  0.0936  0.1535  0.5399
  354MOL0     C48730   5.750   1.517   1.054  0.5272  0.5459 -0.3544
  354MOL0     N48731   5.751   1.641   0.969  0.2810 -0.1456 -0.4405
  354MOL0     C48732   5.721   1.775   0.992  0.6350  0.2685 -0.3845
  354MOL0     C48733   5.726   1.826   0.868  0.1152 -0.2439 -0.3201
  354MOL0     C48734   5.719   1.976   0.857 -0.9423  0.3390  0.7507
  354MOL0     C48735   5.695   2.024   0.713 -0.1331  0.3023  0.1013
  354MOL0     C48736   5.553   2.039   0.659  0.6582 -0.2676  0.4190
  354MOL0     C48737   5.454   1.923   0.693  0.6519  1.4238 -0.5008
  354MOL0     O48738   5.326   1.945   0.635  0.2852 -0.1592  0.2424
  354MOL0     C48739   5.267   1.844   0.572 -0.6397 -0.2738  0.9726
  354MOL0     C48740   5.255   1.716   0.630  0.4165  0.7174  0.0847
  354MOL0     C48741   5.171   1.614   0.561 -1.2300 -0.3479 -0.7484
  354MOL0     C48742   5.173   1.481   0.621 -0.1673 -0.4536 -0.0028
  354MOL0     C48743   5.117   1.645   0.433 -0.3872 -0.0916  1.2035
  354MOL0     C48744   5.038   1.554   0.348 -0.5075 -0.0479 -0.1711
  354MOL0     O48745   4.978   1.601   0.232  0.2752 -0.0701 -0.3387
  354MOL0     C48746   4.886   1.525   0.159  1.4664 -0.6424  0.2152
  354MOL0     C48747   4.834   1.406   0.194 -0.0375 -0.6793  0.3999
  354MOL0     C48748   4.768   1.322   0.113 -0.3079  0.8142  0.3296
  354MOL0     C48749   4.729   1.366  -0.013 -0.7962 -0.2065  0.4306
  354MOL0     O48750   4.652   1.274  -0.090  0.2098  0.1959 -0.4662
  354MOL0     C48751   4.650   1.297  -0.230 -0.4910  0.4009 -1.1162
  354MOL0     C48752   4.578   1.187  -0.307  0.3048  0.9320  0.4428
  354MOL0     C48753   4.606   1.041  -0.260 -0.3353  0.0348 -0.1199
  354MOL0     C48754   4.747   0.988  -0.282  0.2956  0.2659  0.9558
  354MOL0     C48755   4.775   0.869  -0.189  0.6924 -0.4889  0.3849
  354MOL0     C48756   4.893   0.775  -0.231 -0.1995  0.3875 -1.1143
  354MOL0     C48757   4.870   0.693  -0.352  0.8784  0.0957  0.5884
  354MOL0     C48758   4.984   0.606  -0.395 -0.3410  0.3791 -0.8147
  354MOL0    Cl48759   5.123   0.715  -0.433 -0.1957 -0.4741 -0.1766
  354MOL0     C48760   4.773   1.499  -0.057 -0.3382  0.2296 -0.6340
  354MOL0     C48761   4.845   1.577   0.036  0.1153 -0.0400 -0.5453
  354MOL0     O48762   5.048   1.435   0.374 -1.2457 -0.7896  0.1415
  354MOL0     C48763   5.136   1.769   0.377 -0.1062  0.9424 -0.4742
  354MOL0     C48764   5.212   1.866   0.452 -0.3398  0.0629  0.1373
  354MOL0     N48765   5.750   1.736   0.773 -0.4191 -0.0513 -0.1673
  354MOL0     N48766   5.760   1.625   0.836  0.5683 -0.4185 -0.5102
  354MOL0     C48767   5.238   1.057   1.766 -0.0120  0.2009 -0.0707
  354MOL0     C48768   5.229   0.994   1.886 -0.1235  0.2081  0.3504
  354MOL0     C48769   5.196   0.934   2.322  0.0597 -0.5677 -0.7650
  354MOL0     C48770   5.205   0.795   2.305 -0.2427 -0.1376 -0.6450
  354MOL0     C48771   5.169   0.700   2.404 -0.2216 -0.8947 -0.5087
  354MOL0     C48772   5.140   0.744   2.531 -0.0449 -0.1450 -0.0466
  354MOL0     O48773   5.138   0.657   2.638 -0.0384 -0.0190 -0.1982
  354MOL0     C48774   5.174   0.526   2.619 -0.4418 -1.2898 -0.0294
  354MOL0     C48775   5.216   0.462   2.752 -0.1222  1.1149 -1.7581
  354MOL0     C48776   5.096   0.468   2.848 -0.1502  0.0243  0.0785
  354MOL0     C48777   5.097   0.362   2.956  0.0774 -0.5127 -0.4708
  354MOL0     C48778   4.996   0.408   3.051  0.4748  0.2661 -0.5837
  354MOL0     C48779   4.900   0.458   3.115 -1.0650  0.4518 -0.7109
  354MOL0     C48780   5.135   0.884   2.559 -0.2341  0.5477  0.3813
  354MOL0     C48781   5.169   0.982   2.460  1.1164  0.0948  0.1050
  354MOL0     C48782   5.153   1.125   2.516  0.3183  0.7187  0.6677
  354MOL0     H48783   5.399   1.225   2.067 -3.2964  1.3763  1.5185
  354MOL0     H48784   5.401   1.346   1.855  0.7994 -0.5587 -2.1180
  354MOL0     H48785   5.303   1.097   1.488  0.1269 -0.3357 -0.2120
  354MOL0     H48786   5.463   1.170   1.507 -0.0752 -0.2132 -2.4075
  354MOL0     H48787   5.241   1.341   1.428  0.2873 -1.5463  0.3400
  354MOL0     H48788   5.426   1.348   1.396  1.1101  0.1263  0.1839
  354MOL0     H48789   5.310   1.120   1.266  2.0600  0.6773  5.1138
  354MOL0     H48790   5.199   1.257   1.224 -1.1677 -0.3974  3.4586
  354MOL0     H48791   5.494   1.266   1.170 -1.0351  0.1876  2.0625
  354MOL0     H48792   5.362   1.241   1.048 -4.9373 -2.2035  1.6420
  354MOL0     H48793   5.371   1.489   1.241 -0.8067 -1.5340  1.3224
  354MOL0     H48794   5.300   1.465   1.073 -0.1185  0.4455  0.4857
  354MOL0     H48795   5.517   1.445   0.975  0.8715 -0.3242  0.5077
  354MOL0     H48796   5.473   1.611   1.036  0.3305  0.5359 -0.7854
  354MOL0     H48797   5.645   1.449   1.219  3.9553 -0.2906 -0.7833
  354MOL0     H48798   5.617   1.621   1.195 -2.8659  0.3451 -0.0052
  354MOL0     H48799   5.841   1.505   1.114  0.5897 -0.8060 -0.6909
  354MOL0     H48800   5.746   1.434   0.983  3.6162  0.2371 -0.3284
  354MOL0     H48801   5.715   1.833   1.083  0.0936 -0.1288 -0.1582
  354MOL0     H48802   5.817   2.014   0.888 -0.6654  0.5317 -0.3344
  354MOL0     H48803   5.642   2.009   0.927 -0.0515  1.3825  1.2831
  354MOL0     H48804   5.732   2.127   0.707 -0.6153  0.3843 -1.9081
  354MOL0     H48805   5.753   1.958   0.649 -1.6603 -0.4874 -0.5231
  354MOL0     H48806   5.511   2.135   0.691 -1.8245 -1.5069  1.1292
  354MOL0     H48807   5.574   2.054   0.553  0.0496 -0.0597  0.3198
  354MOL0     H48808   5.501   1.829   0.661 -1.2685  0.0726  0.4394
  354MOL0     H48809   5.430   1.928   0.799  0.0148 -0.6852 -0.4986
  354MOL0     H48810   5.292   1.693   0.729 -2.7644 -4.9335  0.3461
  354MOL0     H48811   5.077   1.440   0.656  1.9266 -3.8638  2.3757
  354MOL0     H48812   5.245   1.482   0.703  2.6065 -2.0218 -2.2334
  354MOL0     H48813   5.200   1.408   0.544 -3.2077  1.6866 -3.3813
  354MOL0     H48814   4.848   1.355   0.289  3.7095  2.0446  1.5386
  354MOL0     H48815   4.722   1.231   0.149 -0.8992  1.4638  1.2400
  354MOL0     H48816   4.612   1.396  -0.257  0.0314  1.6918  2.3726
  354MOL0     H48817   4.751   1.297  -0.270 -0.4322 -1.4934 -1.0883
  354MOL0     H48818   4.470   1.199  -0.300  0.2058 -0.4375  1.7698
  354MOL0     H48819   4.608   1.197  -0.412  0.9121  3.0585  0.7822
  354MOL0     H48820   4.536   0.966  -0.297 -0.4802  0.4115 -0.6234
  354MOL0     H48821   4.604   1.047  -0.151 -0.6557 -0.4935 -0.0958
  354MOL0     H48822   4.823   1.066  -0.269 -0.8364  1.4424  0.6948
  354MOL0     H48823   4.742   0.962  -0.388  1.6640 -0.1589  0.9836
  354MOL0     H48824   4.789   0.910  -0.088 -3.7556  0.5155  0.7903
  354MOL0     H48825   4.686   0.806  -0.186  1.9869 -2.4158  3.5193
  354MOL0     H48826   4.928   0.718  -0.145 -1.1546 -2.2021 -2.3425
  354MOL0     H48827   4.980   0.839  -0.248 -0.3460  1.1541  0.8244
  354MOL0     H48828   4.823   0.752  -0.431  0.6401  0.4307  0.9781
  354MOL0     H48829   4.795   0.619  -0.321 -0.2046  1.8745  2.3975
  354MOL0     H48830   4.945   0.546  -0.477 -1.4815 -1.6634  1.1164
  354MOL0     H48831   5.002   0.546  -0.305  3.3701  1.2662 -0.7883
  354MOL0     H48832   4.738   1.554  -0.143  0.2445  0.5593 -0.6655
  354MOL0     H48833   4.866   1.680   0.009  1.9045 -0.3761 -0.4955
  354MOL0     H48834   5.096   1.789   0.278 -1.7951 -2.9539 -0.7769
  354MOL0     H48835   5.237   1.950   0.389  2.8065 -0.9202 -0.1115
  354MOL0     H48836   5.189   1.008   1.682 -0.2827 -1.0919  0.8148
  354MOL0     H48837   5.173   0.902   1.899  1.6051 -0.8436  0.5618
  354MOL0     H48838   5.235   0.755   2.208  1.9259  3.6331 -1.7369
  354MOL0     H48839   5.179   0.598   2.368  0.0344 -1.4912  1.1683
  354MOL0     H48840   5.089   0.472   2.577 -3.2963  1.5436  1.6398
  354MOL0     H48841   5.268   0.516   2.564  0.2169  1.8720  0.2877
  354MOL0     H48842   5.306   0.506   2.797  0.6893 -0.1517 -2.0978
  354MOL0     H48843   5.235   0.356   2.738  1.9648  0.7048  2.5526
  354MOL0     H48844   5.093   0.565   2.899 -1.6752 -0.1701  0.4114
  354MOL0     H48845   4.998   0.462   2.800 -1.6235  3.0076  2.3428
  354MOL0     H48846   5.200   0.356   2.994  0.0996  0.1824 -0.4182
  354MOL0     H48847   5.073   0.263   2.916  0.8893 -1.9226  2.2387
  354MOL0     H48848   4.823   0.509   3.170  1.2465  3.9324 -0.3816
  354MOL0     H48849   5.090   0.914   2.653 -1.1709  2.4700 -0.6261
  354MOL0     H48850   5.254   1.166   2.514  0.8791 -0.6183  0.4025
  354MOL0     H48851   5.091   1.189   2.452  1.6319 -0.4155 -1.9206
  354MOL0     H48852   5.121   1.122   2.620 -0.4898 -0.6237  0.4118
  355MOL0     O48853   8.185  10.176   9.556 -0.0447  0.3648  1.1658
  355MOL0     C48854   8.145  10.207   9.666  0.6368  0.8832  0.1593
  355MOL0     O48855   8.017  10.241   9.686 -0.0678  0.6604  0.8033
  355MOL0     C48856   7.928  10.257   9.584 -0.7347 -1.3330  0.5257
  355MOL0     C48857   7.935  10.378   9.508  0.2376  0.5558 -0.2596
  355MOL0     C48858   7.843  10.422   9.418 -0.7022  0.3575  0.4189
  355MOL0     C48859   7.726  10.354   9.407 -0.0709  0.3251  0.9274
  355MOL0     O48860   7.617  10.385   9.329  0.7096 -0.2487  0.9266
  355MOL0     C48861   7.575  10.520   9.312 -0.4217 -0.8409 -0.3145
  355MOL0     C48862   7.502  10.567   9.433 -0.4984  0.8045 -0.3972
  355MOL0     C48863   7.376  10.647   9.421 -0.1367 -0.4243  0.0719
  355MOL0     C48864   7.397  10.799   9.380 -0.3806  0.0347  1.0176
  355MOL0     C48865   7.285  10.889   9.396  0.4830 -0.4993  0.0008
  355MOL0     C48866   7.281  11.012   9.305 -0.9659 -0.4979  0.6136
  355MOL0     C48867   7.392  11.107   9.345  0.1925  0.1811  0.3354
  355MOL0     C48868   7.425  11.205   9.230 -0.3159 -0.1388  0.4087
  355MOL0     N48869   7.518  11.309   9.280  0.2600  0.5652 -0.4600
  355MOL0     C48870   7.483  11.413   9.361  0.1805 -0.1158  0.5909
  355MOL0     C48871   7.587  11.499   9.365 -0.5135 -0.3772  1.1770
  355MOL0     C48872   7.589  11.638   9.429  0.5896 -0.4047  0.2258
  355MOL0     C48873   7.729  11.696   9.441 -0.2523  0.1471 -0.5738
  355MOL0     C48874   7.811  11.603   9.531 -0.5771 -0.7076  0.9019
  355MOL0     C48875   7.964  11.649   9.535 -0.0140 -0.2705 -0.6075
  355MOL0     O48876   8.040  11.539   9.598 -0.4860 -0.5112 -0.0772
  355MOL0     C48877   8.033  11.528   9.736 -0.6146 -0.2410  0.5894
  355MOL0     C48878   7.982  11.635   9.814  0.9877 -0.7083 -0.8738
  355MOL0     C48879   7.982  11.631   9.956  0.9160 -0.4352 -1.0855
  355MOL0     C48880   7.934  11.755  10.020  0.4191  0.6594 -0.0103
  355MOL0     C48881   8.047  11.516  10.022  0.4836 -0.3617  0.1886
  355MOL0     C48882   8.047  11.501  10.167 -0.2883  0.1962  0.7511
  355MOL0     O48883   8.076  11.379  10.211 -0.4425  0.5813 -0.1263
  355MOL0     C48884   8.146  11.359  10.329 -0.4611 -0.5873  0.6966
  355MOL0     C48885   8.088  11.279  10.429  0.0839 -0.3206  0.1421
  355MOL0     C48886   8.146  11.274  10.557 -0.6660  0.0462  0.6690
  355MOL0     C48887   8.282  11.329  10.572  0.2182  0.2130 -0.7969
  355MOL0     O48888   8.339  11.314  10.698  0.1686  0.1817 -0.3855
  355MOL0     C48889   8.433  11.411  10.739  0.2969 -0.9676 -0.1515
  355MOL0     C48890   8.456  11.409  10.890  0.7887 -0.5429  0.5124
  355MOL0     C48891   8.327  11.452  10.957 -0.5590  0.0644  0.6002
  355MOL0     C48892   8.254  11.326  11.008 -0.9731 -0.9427 -0.2439
  355MOL0     C48893   8.130  11.370  11.083  0.2653 -0.0352  0.3734
  355MOL0     C48894   8.053  11.254  11.140  1.2249  0.0329 -0.2662
  355MOL0     C48895   7.953  11.296  11.254 -0.6756 -0.1689  0.4051
  355MOL0     C48896   7.938  11.183  11.358  0.4104  0.5124 -0.7637
  355MOL0    Cl48897   7.921  11.014  11.301  0.1953 -0.1716 -0.1727
  355MOL0     C48898   8.350  11.391  10.469  0.0872 -0.3542  0.3104
  355MOL0     C48899   8.277  11.408  10.347 -0.1976 -1.9336  0.5345
  355MOL0     O48900   8.058  11.607  10.233  0.6970  0.2344  0.0427
  355MOL0     C48901   8.095  11.408   9.942 -0.2907 -0.3971  0.2144
  355MOL0     C48902   8.095  11.419   9.800 -0.0353 -0.4535  0.2701
  355MOL0     N48903   7.687  11.436   9.288  0.0388  0.2102 -0.3380
  355MOL0     N48904   7.646  11.323   9.246  0.4155  0.4067  0.2062
  355MOL0     C48905   7.724  10.224   9.475 -0.1785  0.0758  0.8878
  355MOL0     C48906   7.815  10.177   9.567  0.0453 -0.0866 -1.0071
  355MOL0     C48907   8.241  10.200   9.781 -1.1416  0.7366  1.0944
  355MOL0     C48908   8.195  10.257   9.900  0.6092 -0.2368  0.2077
  355MOL0     C48909   8.285  10.273  10.007  0.2334  0.8747 -0.1436
  355MOL0     C48910   8.408  10.207  10.019 -1.0061  0.1016  0.4474
  355MOL0     O48911   8.487  10.199  10.127 -1.0514 -0.1200 -0.9367
  355MOL0     C48912   8.493  10.309  10.222 -0.6199  0.4228 -1.1536
  355MOL0     C48913   8.607  10.282  10.315 -1.0967  0.5598  1.5504
  355MOL0     C48914   8.739  10.297  10.237 -0.4100 -0.1815 -0.4866
  355MOL0     C48915   8.856  10.329  10.336 -0.4994  0.4619 -0.2567
  355MOL0     C48916   8.893  10.199  10.387 -1.3279 -0.8308  0.1626
  355MOL0     C48917   8.930  10.086  10.427  0.0179  0.3208 -0.0646
  355MOL0     C48918   8.447  10.132   9.904 -0.7764 -0.1336  0.0803
  355MOL0     C48919   8.370  10.137   9.786 -0.1590  1.2232 -0.5774
  355MOL0     C48920   8.422  10.051   9.678  0.0062 -0.6511  0.4799
  355MOL0     H48921   8.030  10.426   9.528  0.1191  0.9280 -0.5917
  355MOL0     H48922   7.877  10.503   9.354  1.1177 -0.0965  0.7718
  355MOL0     H48923   7.505  10.518   9.228 -0.1262 -1.9730 -0.5420
  355MOL0     H48924   7.653  10.591   9.284 -0.3330  0.1245  2.1418
  355MOL0     H48925   7.478  10.478   9.493  0.8987 -0.5927 -1.7967
  355MOL0     H48926   7.573  10.622   9.495  0.0432 -0.0601 -0.2283
  355MOL0     H48927   7.312  10.597   9.348  4.8676 -3.0277 -3.1181
  355MOL0     H48928   7.326  10.654   9.518  1.1166 -2.0052  0.8861
  355MOL0     H48929   7.479  10.842   9.438 -1.7170  1.8491  1.6814
  355MOL0     H48930   7.425  10.797   9.274 -0.9100  3.4660  0.7010
  355MOL0     H48931   7.274  10.921   9.500 -0.3827  4.5766 -1.4091
  355MOL0     H48932   7.200  10.827   9.367 -0.1184  1.3319 -2.4822
  355MOL0     H48933   7.288  10.979   9.201 -2.1948  1.2168 -0.0544
  355MOL0     H48934   7.187  11.066   9.317 -1.3828 -1.0097 -0.2367
  355MOL0     H48935   7.486  11.054   9.362  0.8618 -0.3482 -3.8222
  355MOL0     H48936   7.358  11.164   9.432  0.2812  0.2607  0.3184
  355MOL0     H48937   7.476  11.151   9.150 -1.1182 -0.6365  0.2137
  355MOL0     H48938   7.334  11.252   9.191 -0.4735  0.4594  1.4675
  355MOL0     H48939   7.398  11.429   9.427  0.8777  1.7888  1.0966
  355MOL0     H48940   7.544  11.638   9.529  1.3256  1.1263  0.5909
  355MOL0     H48941   7.525  11.715   9.386  0.4763 -1.3110 -1.2853
  355MOL0     H48942   7.787  11.703   9.348 -0.1274  2.0500 -0.3899
  355MOL0     H48943   7.732  11.792   9.493  2.7062  0.0929 -0.4860
  355MOL0     H48944   7.754  11.606   9.624 -3.0434 -3.6275 -0.3623
  355MOL0     H48945   7.805  11.496   9.512 -3.7964 -0.5814  0.6880
  355MOL0     H48946   8.000  11.670   9.434 -0.9163  1.2861 -0.6404
  355MOL0     H48947   7.960  11.750   9.577 -1.1689 -0.3519 -0.4740
  355MOL0     H48948   7.954  11.732   9.777  1.9074 -0.3051 -0.5424
  355MOL0     H48949   7.890  11.737  10.119  0.4808 -3.6716 -0.5660
  355MOL0     H48950   7.854  11.805   9.965  0.9802  1.7900  0.1607
  355MOL0     H48951   8.013  11.829  10.034  0.6444  0.4131  0.0306
  355MOL0     H48952   7.986  11.240  10.420 -0.1452  0.7614 -3.6550
  355MOL0     H48953   8.098  11.223  10.640  2.9337  2.1960  4.4678
  355MOL0     H48954   8.530  11.396  10.692  1.0772  0.2501  1.0252
  355MOL0     H48955   8.407  11.513  10.711  0.8173 -0.9967 -0.7484
  355MOL0     H48956   8.507  11.319  10.925 -0.9878 -0.6825  3.0353
  355MOL0     H48957   8.535  11.480  10.915 -0.0781  0.1470  1.4274
  355MOL0     H48958   8.268  11.503  10.880 -1.6751 -2.0978 -0.0818
  355MOL0     H48959   8.357  11.530  11.027  1.2778  0.4743 -0.5646
  355MOL0     H48960   8.326  11.274  11.072 -1.0884 -2.0386 -0.9783
  355MOL0     H48961   8.221  11.249  10.938 -0.1227 -2.6430  1.1442
  355MOL0     H48962   8.169  11.434  11.163  0.2746  0.4870 -0.0442
  355MOL0     H48963   8.071  11.424  11.009  1.7418  0.2769 -0.6301
  355MOL0     H48964   8.123  11.177  11.173 -1.4319 -1.6175  2.0454
  355MOL0     H48965   7.991  11.203  11.066  1.4561 -3.2384  1.6108
  355MOL0     H48966   7.863  11.311  11.193 -1.0052 -1.0114  0.6779
  355MOL0     H48967   7.984  11.386  11.309  1.1750 -1.5919  1.8378
  355MOL0     H48968   7.853  11.224  11.414  1.9157  2.3760  0.3127
  355MOL0     H48969   8.029  11.176  11.419 -0.7629  0.8280  1.1111
  355MOL0     H48970   8.452  11.427  10.476  0.2554  0.2115 -3.1622
  355MOL0     H48971   8.320  11.467  10.267 -0.4211 -2.0121  0.3558
  355MOL0     H48972   8.144  11.322   9.986 -0.7984 -1.0809 -0.5536
  355MOL0     H48973   8.137  11.337   9.742  1.9484 -2.9362  4.6399
  355MOL0     H48974   7.632  10.171   9.452  0.2138  0.7010 -2.7242
  355MOL0     H48975   7.777  10.092   9.623 -2.6463  1.1685 -0.7278
  355MOL0     H48976   8.095  10.296   9.913  0.9184  0.5847  0.1447
  355MOL0     H48977   8.263  10.319  10.103  2.1979 -2.6648  2.2515
  355MOL0     H48978   8.489  10.401  10.162 -0.5938  0.3596 -1.2534
  355MOL0     H48979   8.403  10.313  10.284  0.5186  3.5588  0.5300
  355MOL0     H48980   8.599  10.181  10.357 -1.6114 -0.6072 -1.1415
  355MOL0     H48981   8.603  10.343  10.405  0.0806 -0.7599  2.5501
  355MOL0     H48982   8.758  10.207  10.178  1.2863 -0.7224  0.8002
  355MOL0     H48983   8.734  10.382  10.169  2.4140  1.2078  0.8500
  355MOL0     H48984   8.814  10.389  10.417 -0.3690 -0.6344  0.6443
  355MOL0     H48985   8.938  10.384  10.289  0.5446 -1.7176 -1.1036
  355MOL0     H48986   8.958   9.985  10.450 -1.6582  0.0975  1.1245
  355MOL0     H48987   8.538  10.073   9.912 -0.3868  0.4262 -0.2041
  355MOL0     H48988   8.360   9.961   9.675  0.5997 -1.0481 -1.9658
  355MOL0     H48989   8.408  10.095   9.579 -0.0510 -0.6686  0.4804
  355MOL0     H48990   8.530  10.033   9.685  0.3546  1.4354  1.5504
  356MOL0     O48991   2.405  10.352  10.284  0.5972 -0.5124  0.2552
  356MOL0     C48992   2.350  10.438  10.208 -0.9921  0.1649 -0.6134
  356MOL0     O48993   2.412  10.560  10.165  0.3292 -1.0762  0.2371
  356MOL0     C48994   2.525  10.607  10.229 -0.4557  0.3334  0.1203
  356MOL0     C48995   2.548  10.598  10.370 -0.3407 -0.2976 -0.2232
  356MOL0     C48996   2.661  10.642  10.425 -0.0778  0.3642 -1.0350
  356MOL0     C48997   2.761  10.712  10.354  0.4737 -0.4371 -0.6108
  356MOL0     O48998   2.863  10.775  10.415  0.0358 -0.1670  0.0024
  356MOL0     C48999   2.926  10.882  10.359  0.6167  0.0499 -0.0725
  356MOL0     C49000   3.030  10.917  10.467 -0.4502  0.2901  0.3581
  356MOL0     C49001   3.141  10.814  10.471 -0.3894 -0.2506  0.0752
  356MOL0     C49002   3.251  10.852  10.568  0.5556 -0.4271  0.6357
  356MOL0     C49003   3.344  10.740  10.598 -0.2245  0.4258 -0.5346
  356MOL0     C49004   3.428  10.705  10.477 -0.1399  0.7212  0.2960
  356MOL0     C49005   3.545  10.613  10.519  0.1328 -0.5806  0.5453
  356MOL0     C49006   3.599  10.539  10.401 -0.5617  0.2962  0.2280
  356MOL0     N49007   3.724  10.468  10.437  0.4581  0.9790  0.1341
  356MOL0     C49008   3.724  10.377  10.543  0.1980 -0.1675  0.5716
  356MOL0     C49009   3.854  10.378  10.588  0.2387  0.0569 -0.8597
  356MOL0     C49010   3.922  10.290  10.693 -0.4383 -0.0463  0.4163
  356MOL0     C49011   3.832  10.261  10.804 -0.0038 -0.1852 -1.1223
  356MOL0     C49012   3.894  10.187  10.921 -0.5923  0.0861  0.8220
  356MOL0     C49013   3.975  10.061  10.878  1.7036 -0.6820 -0.2158
  356MOL0     O49014   3.886   9.947  10.839  0.0011  0.8952  0.7638
  356MOL0     C49015   3.797   9.894  10.927 -0.2803  0.8649 -0.5963
  356MOL0     C49016   3.661   9.895  10.892 -0.0237  0.6915  0.2531
  356MOL0     C49017   3.558   9.865  10.973  0.1212  0.1280  0.3861
  356MOL0     C49018   3.413   9.879  10.915  0.4681 -0.1065  0.5281
  356MOL0     C49019   3.599   9.792  11.090 -0.2544  0.1639 -0.6698
  356MOL0     C49020   3.505   9.727  11.186  0.5459  0.6347  0.2349
  356MOL0     O49021   3.554   9.641  11.279 -0.1743 -0.3849 -0.1636
  356MOL0     C49022   3.469   9.572  11.360 -0.0677 -0.1628  0.9493
  356MOL0     C49023   3.362   9.492  11.311 -0.6690 -0.0099  0.2627
  356MOL0     C49024   3.282   9.409  11.399 -1.1242 -0.3104  0.1424
  356MOL0     C49025   3.325   9.401  11.529  0.0551 -0.2036 -0.3217
  356MOL0     O49026   3.262   9.328  11.626 -0.5617 -0.2060  0.5163
  356MOL0     C49027   3.126   9.278  11.611  0.6550 -0.6059  0.6514
  356MOL0     C49028   3.019   9.389  11.637 -0.5039 -0.7211 -0.0596
  356MOL0     C49029   2.929   9.347  11.752 -0.5668 -0.6248  0.7269
  356MOL0     C49030   2.841   9.462  11.786 -0.1980 -0.0172  0.3909
  356MOL0     C49031   2.711   9.418  11.852  0.0126  1.0938 -0.2636
  356MOL0     C49032   2.732   9.340  11.980 -0.7828  0.2492 -1.2551
  356MOL0     C49033   2.613   9.258  12.012 -0.2599  0.0190 -1.2730
  356MOL0     C49034   2.627   9.192  12.150 -0.1245 -0.5799 -0.5333
  356MOL0    Cl49035   2.646   9.326  12.275  0.1931 -0.0509 -0.1225
  356MOL0     C49036   3.437   9.473  11.569 -0.5125  0.1529 -0.2822
  356MOL0     C49037   3.509   9.557  11.485 -0.1503 -0.2554  0.7960
  356MOL0     O49038   3.391   9.776  11.184 -0.3016  0.0966 -0.3163
  356MOL0     C49039   3.735   9.783  11.128 -0.0120 -0.7859 -0.0405
  356MOL0     C49040   3.829   9.828  11.043 -0.0734 -0.0081 -0.1573
  356MOL0     N49041   3.928  10.478  10.510 -0.5214 -0.1804  0.2968
  356MOL0     N49042   3.847  10.521  10.419 -0.1578 -0.6595  0.0530
  356MOL0     C49043   2.738  10.723  10.217 -0.2469 -0.3115  0.4661
  356MOL0     C49044   2.625  10.670  10.157 -0.2151  0.5387  0.0443
  356MOL0     C49045   2.225  10.404  10.143  1.0952  0.7598  0.6731
  356MOL0     C49046   2.197  10.482  10.028  0.2103 -0.2410 -0.5880
  356MOL0     C49047   2.088  10.447   9.956  1.0601  0.5741 -0.6127
  356MOL0     C49048   2.004  10.336   9.988  0.2847 -0.4766  0.0139
  356MOL0     O49049   1.904  10.286   9.900  0.0132 -0.8856  0.3733
  356MOL0     C49050   1.776  10.348   9.912  0.4788  0.3534 -0.0915
  356MOL0     C49051   1.746  10.377   9.761  0.7956 -0.2867 -0.6927
  356MOL0     C49052   1.603  10.416   9.742 -0.1110  0.7014 -0.1984
  356MOL0     C49053   1.570  10.378   9.595 -0.1629 -0.9772  1.0449
  356MOL0     C49054   1.439  10.410   9.541  0.1260 -1.1489 -0.0995
  356MOL0     C49055   1.343  10.429   9.478  0.5923 -0.0526  0.1664
  356MOL0     C49056   2.037  10.260  10.103 -0.6891 -0.2084  1.1526
  356MOL0     C49057   2.147  10.289  10.182 -0.1085  0.2727 -0.6553
  356MOL0     C49058   2.168  10.200  10.304 -0.7033 -0.2244 -0.1114
  356MOL0     H49059   2.471  10.560  10.436 -0.5911  0.9104  0.2151
  356MOL0     H49060   2.669  10.613  10.530  0.1648 -4.6788 -2.1535
  356MOL0     H49061   2.852  10.962  10.346 -0.7427 -1.0828  0.5586
  356MOL0     H49062   2.975  10.871  10.262  0.3741 -0.0787 -0.1782
  356MOL0     H49063   3.065  11.015  10.432 -0.9850  0.5972  0.6769
  356MOL0     H49064   2.964  10.916  10.554 -3.1755  0.3962 -1.5614
  356MOL0     H49065   3.096  10.716  10.489 -0.4859 -0.0417  1.0034
  356MOL0     H49066   3.174  10.807  10.367  0.5791 -2.5461  0.4711
  356MOL0     H49067   3.308  10.938  10.530  0.7365  0.3732  2.5996
  356MOL0     H49068   3.201  10.881  10.661 -1.5125 -1.4159 -0.1138
  356MOL0     H49069   3.295  10.650  10.637 -0.8015 -0.8189 -3.8260
  356MOL0     H49070   3.409  10.769  10.682 -0.3251 -2.6806  0.7422
  356MOL0     H49071   3.359  10.658  10.407 -0.0340  1.0816 -0.0532
  356MOL0     H49072   3.462  10.791  10.419 -0.8053 -0.1248 -1.4041
  356MOL0     H49073   3.520  10.533  10.589  0.3776 -0.5667  0.6495
  356MOL0     H49074   3.627  10.667  10.567  1.2585 -1.2295 -0.5777
  356MOL0     H49075   3.523  10.477  10.351 -1.9415 -0.5663  3.1634
  356MOL0     H49076   3.643  10.612  10.332  0.7814 -2.8045 -2.4637
  356MOL0     H49077   3.648  10.311  10.584  0.9214 -0.8273  0.8659
  356MOL0     H49078   4.021  10.321  10.728 -0.0632 -0.4408 -0.2650
  356MOL0     H49079   3.948  10.196  10.643  3.5066  0.9432  0.2830
  356MOL0     H49080   3.789  10.358  10.832  1.4860 -0.5265  3.0020
  356MOL0     H49081   3.766  10.194  10.748 -3.2753  3.7344 -2.3793
  356MOL0     H49082   3.967  10.262  10.954 -2.0380  2.7650 -1.6069
  356MOL0     H49083   3.818  10.163  10.996 -0.1355 -0.4643  1.1236
  356MOL0     H49084   4.051  10.078  10.801  1.7898 -1.2032 -0.2527
  356MOL0     H49085   4.026  10.027  10.969  1.9105  0.9543  0.3011
  356MOL0     H49086   3.638   9.935  10.793  2.0746 -0.8699 -0.9660
  356MOL0     H49087   3.344   9.800  10.946  0.7707 -1.2810 -1.5768
  356MOL0     H49088   3.418   9.862  10.807 -1.7632  0.1105  0.3455
  356MOL0     H49089   3.367   9.977  10.932  0.7156  0.3167 -1.0905
  356MOL0     H49090   3.340   9.505  11.206  1.3113  3.1216  0.1154
  356MOL0     H49091   3.198   9.357  11.353 -2.2737  0.2898  1.5036
  356MOL0     H49092   3.103   9.222  11.519  0.0102 -0.4109  0.6920
  356MOL0     H49093   3.104   9.204  11.688  0.4026 -0.9921  0.2151
  356MOL0     H49094   3.075   9.479  11.665  0.5068 -0.9588 -1.2050
  356MOL0     H49095   2.968   9.411  11.543  2.6006 -3.0410 -2.5460
  356MOL0     H49096   2.987   9.318  11.840  0.4917 -1.3088 -0.1681
  356MOL0     H49097   2.881   9.257  11.712  1.2631 -1.2554 -0.1423
  356MOL0     H49098   2.809   9.519  11.698 -1.2183 -2.8382 -1.1789
  356MOL0     H49099   2.895   9.523  11.859  0.1805 -0.3165  0.3609
  356MOL0     H49100   2.637   9.497  11.868  0.3894  1.3129  0.4259
  356MOL0     H49101   2.665   9.342  11.788 -2.3249  0.4916  1.9563
  356MOL0     H49102   2.755   9.415  12.057 -3.9016 -0.9944  1.0763
  356MOL0     H49103   2.809   9.263  11.965  1.7292  1.9833  1.5417
  356MOL0     H49104   2.606   9.171  11.946 -1.1400 -0.7075 -0.2678
  356MOL0     H49105   2.517   9.310  12.003  2.0142  5.0892  0.0575
  356MOL0     H49106   2.721   9.135  12.154  1.0585  1.3323  0.1804
  356MOL0     H49107   2.540   9.129  12.172 -2.8644  2.3724 -2.1301
  356MOL0     H49108   3.464   9.464  11.674 -2.9166  1.5210  0.5523
  356MOL0     H49109   3.596   9.607  11.527 -0.4911  0.9633  0.1067
  356MOL0     H49110   3.770   9.717  11.207  0.8520 -1.1970 -0.7470
  356MOL0     H49111   3.928   9.808  11.082 -0.8792 -1.4108  1.2891
  356MOL0     H49112   2.806  10.783  10.156  2.6889  1.3802  4.8839
  356MOL0     H49113   2.618  10.665  10.048  0.4595 -0.9600  0.0438
  356MOL0     H49114   2.257  10.553   9.973  0.0690 -1.7256 -2.7688
  356MOL0     H49115   2.051  10.491   9.864 -2.6921  1.0401  0.9046
  356MOL0     H49116   1.703  10.285   9.963  2.5791 -1.2235  1.1416
  356MOL0     H49117   1.774  10.439   9.972  3.0220  0.2371  0.2734
  356MOL0     H49118   1.766  10.292   9.695 -0.2600 -0.2980 -1.0134
  356MOL0     H49119   1.801  10.466   9.729 -1.0984  0.2040 -2.8764
  356MOL0     H49120   1.534  10.355   9.801 -1.8574  0.8661 -1.9520
  356MOL0     H49121   1.594  10.523   9.763 -2.4462  0.5603 -0.2048
  356MOL0     H49122   1.573  10.269   9.593 -2.5632 -1.0939 -1.1840
  356MOL0     H49123   1.644  10.420   9.527  2.1350 -4.1127  1.3890
  356MOL0     H49124   1.260  10.458   9.417 -0.8090  0.6007  2.2713
  356MOL0     H49125   1.978  10.173  10.129  1.0025 -1.7065  0.2529
  356MOL0     H49126   2.196  10.256  10.394 -2.3092  0.8186 -0.2279
  356MOL0     H49127   2.077  10.152  10.341 -0.5358  1.1467  2.2829
  356MOL0     H49128   2.252  10.134  10.281 -0.4006  0.7401 -1.8550
  357MOL0     O49129  10.324   6.196   3.229 -0.2132  0.5101 -0.1721
  357MOL0     C49130  10.383   6.296   3.185 -0.8790  0.1261  0.2836
  357MOL0     O49131  10.328   6.423   3.164  0.4513  1.0622 -0.3898
  357MOL0     C49132  10.187   6.446   3.188  0.0745  0.1244  0.9292
  357MOL0     C49133  10.106   6.483   3.088  0.3423 -0.1057 -0.4148
  357MOL0     C49134   9.976   6.495   3.101 -0.1165 -0.3504  0.2166
  357MOL0     C49135   9.909   6.489   3.221 -0.2663  0.0634 -0.3194
  357MOL0     O49136   9.772   6.501   3.239  0.0089 -0.1028  0.3580
  357MOL0     C49137   9.701   6.540   3.119 -0.0667  0.1311  1.2745
  357MOL0     C49138   9.542   6.550   3.138 -1.1191 -0.4815  0.6714
  357MOL0     C49139   9.503   6.645   3.246 -0.7225 -0.6955  0.7138
  357MOL0     C49140   9.351   6.644   3.267  1.1148  0.8747 -0.2144
  357MOL0     C49141   9.313   6.754   3.374  0.0224  0.6542  0.4630
  357MOL0     C49142   9.341   6.719   3.519  0.6451 -0.0430 -0.5737
  357MOL0     C49143   9.483   6.748   3.572 -0.4764  0.6948 -0.4974
  357MOL0     C49144   9.491   6.758   3.722 -0.6782 -0.5508  1.0270
  357MOL0     N49145   9.416   6.654   3.783  0.6468  0.2521  0.1399
  357MOL0     C49146   9.455   6.536   3.839 -0.7079  0.6185  0.2588
  357MOL0     C49147   9.351   6.497   3.914  1.0783 -0.7904 -1.2040
  357MOL0     C49148   9.354   6.383   4.011  0.7055  0.1428  1.2667
  357MOL0     C49149   9.320   6.441   4.145 -0.0100 -0.1232 -0.2446
  357MOL0     C49150   9.351   6.335   4.261 -0.0088  0.0389  0.2649
  357MOL0     C49151   9.490   6.305   4.310 -0.6828  0.1158  0.0972
  357MOL0     O49152   9.554   6.211   4.219 -0.3422 -0.4134 -0.3329
  357MOL0     C49153   9.675   6.155   4.259 -0.3633  0.1346  0.4481
  357MOL0     C49154   9.719   6.048   4.172  0.2977 -0.3686  0.6792
  357MOL0     C49155   9.845   5.984   4.185  0.8502  0.4014 -0.0990
  357MOL0     C49156   9.888   5.881   4.084  0.1567 -0.6389  0.6223
  357MOL0     C49157   9.928   6.029   4.292 -0.6783  0.3943  0.5526
  357MOL0     C49158  10.064   5.981   4.313  0.5438  0.7080 -0.0950
  357MOL0     O49159  10.101   5.983   4.448 -0.8485  0.4634 -0.5143
  357MOL0     C49160  10.235   5.949   4.469  0.7496 -0.2834 -0.5045
  357MOL0     C49161  10.326   6.048   4.450 -0.6968 -0.7409  0.3116
  357MOL0     C49162  10.463   6.023   4.482 -0.4702  0.0660 -0.0566
  357MOL0     C49163  10.505   5.907   4.540 -0.2623  0.2334 -0.0668
  357MOL0     O49164  10.637   5.875   4.547 -0.4359  0.0166 -0.1384
  357MOL0     C49165  10.726   5.964   4.615 -0.8544  0.6633 -0.6144
  357MOL0     C49166  10.820   6.058   4.531 -0.9112  0.0306 -0.6004
  357MOL0     C49167  10.879   6.165   4.626  0.5286  0.3376  0.1300
  357MOL0     C49168  11.026   6.146   4.656  0.1630 -0.6624 -0.1642
  357MOL0     C49169  11.075   6.239   4.760  0.5698  0.5445 -0.1657
  357MOL0     C49170  11.035   6.206   4.902  0.5840  0.2868 -0.1478
  357MOL0     C49171  11.115   6.272   5.003  0.5515 -0.3483  0.2083
  357MOL0     C49172  11.034   6.267   5.131 -0.2420  0.3506  0.3343
  357MOL0    Cl49173  10.925   6.408   5.131  0.1755 -0.3701  0.0839
  357MOL0     C49174  10.413   5.805   4.557  0.1575 -1.0888 -0.3885
  357MOL0     C49175  10.273   5.829   4.527  0.3959 -0.3019 -0.4211
  357MOL0     O49176  10.137   5.981   4.217 -0.2826 -0.5495  0.1670
  357MOL0     C49177   9.886   6.136   4.369 -0.7708 -1.3780  0.4115
  357MOL0     C49178   9.762   6.206   4.354 -0.2053  1.1249 -0.1060
  357MOL0     N49179   9.249   6.589   3.899  0.7383  0.6186 -0.6748
  357MOL0     N49180   9.294   6.685   3.822 -0.4045  0.4881 -0.6469
  357MOL0     C49181   9.988   6.454   3.330 -1.5573  0.1720 -0.6549
  357MOL0     C49182  10.130   6.423   3.316 -0.4654 -0.2806 -1.4037
  357MOL0     C49183  10.522   6.277   3.158 -0.8515  0.6817  0.6773
  357MOL0     C49184  10.579   6.358   3.059 -0.4639 -0.1833  0.6367
  357MOL0     C49185  10.713   6.345   3.010  0.2026 -0.3254  0.5519
  357MOL0     C49186  10.792   6.247   3.078 -0.2727  0.0900 -0.3466
  357MOL0     O49187  10.921   6.254   3.024 -0.0269 -0.5751 -0.2200
  357MOL0     C49188  11.014   6.147   3.050 -0.6172  0.2860  0.6544
  357MOL0     C49189  11.135   6.167   2.961  0.1462  0.1119 -0.4126
  357MOL0     C49190  11.210   6.037   2.957  0.5725 -0.5814  0.1282
  357MOL0     C49191  11.344   6.063   2.878  0.4911 -0.8675 -0.4311
  357MOL0     C49192  11.388   5.934   2.826 -0.3407 -0.3793 -0.5518
  357MOL0     C49193  11.406   5.823   2.775 -0.7539 -0.4589  0.1897
  357MOL0     C49194  10.737   6.166   3.182  0.3528 -0.1750  0.3012
  357MOL0     C49195  10.602   6.174   3.221 -0.9846 -0.9813  1.3180
  357MOL0     C49196  10.574   6.074   3.331 -0.7745 -0.0055  0.0118
  357MOL0     H49197  10.162   6.485   2.995  1.2491 -1.0667  0.0892
  357MOL0     H49198   9.924   6.519   3.009 -2.8728 -2.3215  1.1384
  357MOL0     H49199   9.714   6.464   3.041 -0.4279 -1.0770  2.3490
  357MOL0     H49200   9.736   6.637   3.083  1.7103 -0.2700  1.7923
  357MOL0     H49201   9.491   6.589   3.049 -1.0286 -0.9367  0.4114
  357MOL0     H49202   9.510   6.447   3.155  1.6641 -1.5519 -0.0497
  357MOL0     H49203   9.567   6.638   3.334 -1.0569 -1.4399  0.9125
  357MOL0     H49204   9.537   6.741   3.207 -0.3854 -0.9829  0.2880
  357MOL0     H49205   9.297   6.669   3.175  1.2190  1.3430 -0.1491
  357MOL0     H49206   9.323   6.541   3.292  0.2844  1.2460  0.4233
  357MOL0     H49207   9.207   6.779   3.367 -0.0981  0.2295  0.7033
  357MOL0     H49208   9.376   6.840   3.351  1.6520  0.0311  2.2496
  357MOL0     H49209   9.288   6.790   3.583  1.4903  0.2588 -0.1936
  357MOL0     H49210   9.300   6.621   3.549  1.6350  0.0224  1.0920
  357MOL0     H49211   9.531   6.836   3.528  1.6927  0.5751  1.4470
  357MOL0     H49212   9.552   6.670   3.538  1.4698  1.7687  0.8449
  357MOL0     H49213   9.589   6.747   3.769 -0.8514 -6.3735  0.7743
  357MOL0     H49214   9.451   6.858   3.742  0.1837  0.4772 -1.8936
  357MOL0     H49215   9.554   6.494   3.829  0.9510  4.2022  0.2122
  357MOL0     H49216   9.456   6.344   4.008  0.8532  0.5587  0.2689
  357MOL0     H49217   9.302   6.297   3.966  3.4792  0.4469 -3.2628
  357MOL0     H49218   9.377   6.532   4.163  2.6881 -1.3823 -1.7497
  357MOL0     H49219   9.213   6.464   4.141  0.0803  0.2435 -4.3960
  357MOL0     H49220   9.300   6.367   4.353 -0.2499 -1.1041  0.5556
  357MOL0     H49221   9.300   6.240   4.241  0.5280 -0.1147 -0.4098
  357MOL0     H49222   9.547   6.397   4.329 -0.8789  0.0719  0.9572
  357MOL0     H49223   9.484   6.260   4.409  1.0772 -3.5997 -1.3184
  357MOL0     H49224   9.645   6.017   4.098 -0.8030 -0.5638  1.8169
  357MOL0     H49225   9.799   5.821   4.062  0.9586 -1.9430  0.7909
  357MOL0     H49226   9.973   5.820   4.119  0.3154 -0.7066  0.1192
  357MOL0     H49227   9.919   5.944   4.001  1.0231  0.8100  1.9726
  357MOL0     H49228  10.306   6.146   4.408  3.1190  0.5698  1.1117
  357MOL0     H49229  10.532   6.106   4.480 -1.2661  0.7376 -0.8544
  357MOL0     H49230  10.667   6.030   4.679  1.4253  2.8822 -0.6493
  357MOL0     H49231  10.794   5.903   4.675  0.6669  0.6623 -2.2471
  357MOL0     H49232  10.903   6.004   4.483 -3.1784 -2.6591 -1.8238
  357MOL0     H49233  10.765   6.105   4.449  1.0053 -0.3052 -2.1396
  357MOL0     H49234  10.820   6.160   4.718 -4.1295  1.4969 -2.4495
  357MOL0     H49235  10.857   6.261   4.580  1.5330  0.3556 -0.3403
  357MOL0     H49236  11.077   6.146   4.560  2.5924 -0.3547  1.0558
  357MOL0     H49237  11.050   6.047   4.696 -2.1441 -2.6079 -3.1342
  357MOL0     H49238  11.179   6.212   4.742  0.4042  0.9551 -1.9118
  357MOL0     H49239  11.054   6.343   4.732 -0.3548  1.8224  4.3549
  357MOL0     H49240  11.046   6.098   4.917 -0.1130  0.2270 -0.0309
  357MOL0     H49241  10.931   6.232   4.922  1.0129  0.9389  1.4087
  357MOL0     H49242  11.148   6.372   4.974  1.5720 -0.9353 -0.7054
  357MOL0     H49243  11.210   6.220   5.018  1.4368  0.7831 -1.1883
  357MOL0     H49244  11.090   6.272   5.224 -0.6469  1.5813  0.5290
  357MOL0     H49245  10.974   6.176   5.148 -2.3523  1.7913  1.0251
  357MOL0     H49246  10.449   5.711   4.598  1.9686 -0.2685 -0.0151
  357MOL0     H49247  10.200   5.749   4.538 -1.2863  1.1740 -0.4917
  357MOL0     H49248   9.947   6.174   4.450  0.2887  3.6444 -2.3543
  357MOL0     H49249   9.727   6.284   4.421  0.0077 -0.5565  2.0594
  357MOL0     H49250   9.941   6.427   3.425  0.0283  3.2335  1.1496
  357MOL0     H49251  10.182   6.380   3.401 -1.4675 -2.8910 -2.0032
  357MOL0     H49252  10.517   6.426   3.001 -0.1723  0.9987  1.6616
  357MOL0     H49253  10.756   6.409   2.934  1.0485 -0.6442  0.7546
  357MOL0     H49254  11.045   6.140   3.155  1.5050  1.3404  0.1539
  357MOL0     H49255  10.969   6.049   3.032 -0.2037 -0.3335  2.6910
  357MOL0     H49256  11.196   6.252   2.994 -0.6695  0.7627 -0.5641
  357MOL0     H49257  11.101   6.189   2.859 -0.2641  1.5569  0.0175
  357MOL0     H49258  11.224   5.990   3.055 -2.0523 -5.4265 -1.4596
  357MOL0     H49259  11.150   5.966   2.899 -0.9882  1.4911 -0.9135
  357MOL0     H49260  11.417   6.107   2.945 -0.2963 -0.6617  0.3022
  357MOL0     H49261  11.330   6.128   2.791  0.1116  0.0870  0.3206
  357MOL0     H49262  11.415   5.735   2.715 -0.4289  0.4887 -1.2164
  357MOL0     H49263  10.811   6.096   3.220  0.0924 -1.0556 -0.7620
  357MOL0     H49264  10.494   6.117   3.392  0.5211 -0.0492  1.8614
  357MOL0     H49265  10.543   5.981   3.284 -2.7853 -1.6025  4.0230
  357MOL0     H49266  10.658   6.045   3.395 -0.1442  0.7694 -0.4475
  358MOL0     O49267   1.240   2.969   6.415  0.2776  0.9579  0.4618
  358MOL0     C49268   1.114   2.966   6.405 -0.9751  0.8117  0.1466
  358MOL0     O49269   1.034   3.047   6.472  0.2930  0.0996  1.3627
  358MOL0     C49270   1.089   3.162   6.518 -0.5782  0.1139  1.0138
  358MOL0     C49271   1.136   3.159   6.645  0.3438 -0.3796 -0.6547
  358MOL0     C49272   1.165   3.275   6.717  0.2070 -0.6981 -0.5349
  358MOL0     C49273   1.175   3.397   6.653  0.0219  0.0854  0.6116
  358MOL0     O49274   1.220   3.494   6.728 -0.5373 -0.2151 -0.1311
  358MOL0     C49275   1.335   3.562   6.683 -0.2959 -0.1857  0.1414
  358MOL0     C49276   1.377   3.642   6.807  0.1662  0.5152  0.0806
  358MOL0     C49277   1.285   3.755   6.844  0.6080 -0.5607 -0.9773
  358MOL0     C49278   1.353   3.822   6.974  0.1525  0.6241  0.5317
  358MOL0     C49279   1.289   3.948   7.009 -0.3137 -0.2896 -0.2512
  358MOL0     C49280   1.322   3.995   7.153 -0.1143  0.5966 -0.8675
  358MOL0     C49281   1.474   4.033   7.180 -1.4643  0.4232  0.0868
  358MOL0     C49282   1.513   3.984   7.318 -0.0259 -0.2289 -0.1854
  358MOL0     N49283   1.497   3.836   7.336  0.3823  0.0226 -0.3360
  358MOL0     C49284   1.560   3.736   7.266 -0.1888 -0.0999 -0.2377
  358MOL0     C49285   1.523   3.621   7.326  0.3177 -0.2408 -0.1238
  358MOL0     C49286   1.582   3.487   7.277  0.7136  1.0324  0.4160
  358MOL0     C49287   1.506   3.447   7.145  0.3559 -0.0857  0.8842
  358MOL0     C49288   1.534   3.309   7.080 -0.4405  0.2084  0.0033
  358MOL0     C49289   1.541   3.189   7.168  0.1245 -0.1876 -0.3811
  358MOL0     O49290   1.652   3.196   7.266  0.3760 -0.0200 -0.4400
  358MOL0     C49291   1.661   3.090   7.357  0.1726  0.2430  0.7006
  358MOL0     C49292   1.559   3.001   7.382  1.1490  0.2347 -0.1206
  358MOL0     C49293   1.562   2.897   7.473  0.5521 -0.0841  0.3181
  358MOL0     C49294   1.446   2.813   7.506  0.1258  0.3667  0.5357
  358MOL0     C49295   1.678   2.886   7.552 -0.3818  0.0777 -0.8705
  358MOL0     C49296   1.707   2.786   7.656  0.6494  0.4688  0.1210
  358MOL0     O49297   1.836   2.785   7.699 -0.5554  0.0262  0.2176
  358MOL0     C49298   1.858   2.710   7.813 -0.0172 -0.0252  0.0090
  358MOL0     C49299   1.920   2.589   7.793 -0.3091  0.2440 -0.2516
  358MOL0     C49300   1.937   2.506   7.902  0.2829  0.1673  0.1829
  358MOL0     C49301   1.894   2.538   8.032  0.2979  0.3897 -0.3379
  358MOL0     O49302   1.922   2.444   8.135 -0.0613  0.1710 -0.1597
  358MOL0     C49303   1.941   2.495   8.267  0.7384  0.9851  0.4169
  358MOL0     C49304   1.993   2.375   8.353  0.4920  0.2488  0.3550
  358MOL0     C49305   2.056   2.412   8.489  0.8653 -0.6221  0.3519
  358MOL0     C49306   2.196   2.471   8.463 -0.2120  0.0165 -0.2391
  358MOL0     C49307   2.303   2.416   8.551 -0.6719 -0.2654  0.3103
  358MOL0     C49308   2.328   2.269   8.536  0.4335  1.3546 -0.4495
  358MOL0     C49309   2.424   2.216   8.643  0.3692  0.0790  0.5310
  358MOL0     C49310   2.377   2.080   8.712 -0.4480  0.5751 -0.3170
  358MOL0    Cl49311   2.241   2.119   8.823  0.1260  0.1919  0.1671
  358MOL0     C49312   1.818   2.657   8.046 -0.7922  0.1129 -1.0330
  358MOL0     C49313   1.810   2.748   7.941 -0.3778  0.5557 -0.4006
  358MOL0     O49314   1.617   2.716   7.705 -0.7437 -0.1191 -0.8672
  358MOL0     C49315   1.791   2.978   7.522  0.1072  0.7963 -0.2817
  358MOL0     C49316   1.779   3.072   7.419 -0.0283  0.3926 -0.0895
  358MOL0     N49317   1.427   3.649   7.425  0.1981 -1.1254 -0.3408
  358MOL0     N49318   1.407   3.781   7.419  0.4683 -0.7485  0.3875
  358MOL0     C49319   1.146   3.398   6.513  0.5643 -0.0442 -0.0520
  358MOL0     C49320   1.099   3.283   6.446  1.0377  0.6341 -0.0064
  358MOL0     C49321   1.064   2.839   6.337 -0.6671  0.1205  0.2961
  358MOL0     C49322   0.969   2.858   6.224 -0.9079 -0.0441  0.0938
  358MOL0     C49323   0.929   2.745   6.155 -1.0149 -0.0770 -0.5884
  358MOL0     C49324   0.992   2.619   6.172  0.0578 -0.0113 -0.1181
  358MOL0     O49325   0.978   2.504   6.097  0.1576 -0.1063 -0.2845
  358MOL0     C49326   0.906   2.493   5.971 -0.3556  0.6831 -1.0199
  358MOL0     C49327   1.009   2.573   5.879 -0.1136  0.8024 -0.0076
  358MOL0     C49328   1.026   2.498   5.747  1.4601  0.6903  0.8769
  358MOL0     C49329   1.147   2.529   5.663 -0.6884  0.2070 -0.2875
  358MOL0     C49330   1.262   2.452   5.716  1.0957 -0.3066  0.6574
  358MOL0     C49331   1.361   2.386   5.740 -0.1734 -0.7752  0.4574
  358MOL0     C49332   1.088   2.609   6.272 -0.4683 -0.4671  0.9925
  358MOL0     C49333   1.130   2.711   6.350 -0.3199 -0.3660 -0.3146
  358MOL0     C49334   1.247   2.689   6.453  1.2875  0.1072 -0.7551
  358MOL0     H49335   1.131   3.066   6.699  2.5393  0.3925  1.0582
  358MOL0     H49336   1.189   3.285   6.823  0.7066  0.4997 -0.7434
  358MOL0     H49337   1.311   3.619   6.593  0.2074 -0.9667 -0.4952
  358MOL0     H49338   1.413   3.496   6.645 -0.2286  1.0739 -2.0749
  358MOL0     H49339   1.365   3.578   6.895 -3.7791 -0.3738 -0.8981
  358MOL0     H49340   1.476   3.687   6.794 -0.1428  1.0983 -0.2921
  358MOL0     H49341   1.281   3.831   6.765  2.7253  0.2006 -0.4260
  358MOL0     H49342   1.186   3.717   6.868  0.0977 -0.8789 -3.3023
  358MOL0     H49343   1.356   3.752   7.058  0.2152  0.4256  0.3669
  358MOL0     H49344   1.458   3.842   6.951 -0.0527 -1.1779 -2.5731
  358MOL0     H49345   1.180   3.945   7.010 -0.4197  0.9323 -2.1638
  358MOL0     H49346   1.325   4.018   6.933  4.0198  1.0104  2.6241
  358MOL0     H49347   1.263   4.083   7.180  0.1183  0.0633  1.6068
  358MOL0     H49348   1.290   3.917   7.222  1.8823  0.2840 -0.2334
  358MOL0     H49349   1.497   4.139   7.167 -1.6359  0.5051  0.4344
  358MOL0     H49350   1.536   3.985   7.104 -1.0834 -1.4342  1.4974
  358MOL0     H49351   1.617   4.012   7.336  0.0616 -0.3993 -0.4364
  358MOL0     H49352   1.445   4.022   7.396 -0.3057 -0.0329 -0.5202
  358MOL0     H49353   1.641   3.744   7.194  0.3064  1.1728  0.4345
  358MOL0     H49354   1.579   3.408   7.352 -0.0383 -0.8709 -1.5265
  358MOL0     H49355   1.689   3.499   7.257  1.0736 -0.5350  1.3080
  358MOL0     H49356   1.399   3.454   7.164  0.4821  2.2301  0.9429
  358MOL0     H49357   1.529   3.529   7.076  3.4026  0.7505  2.6989
  358MOL0     H49358   1.465   3.290   6.998 -1.0643  1.5438  0.1865
  358MOL0     H49359   1.638   3.319   7.047 -0.0936  3.9077  1.6784
  358MOL0     H49360   1.442   3.187   7.213 -0.2813  4.6127 -0.5453
  358MOL0     H49361   1.554   3.102   7.103  1.1535 -1.1745  1.0946
  358MOL0     H49362   1.463   3.008   7.331  1.3835  0.3386 -0.5435
  358MOL0     H49363   1.353   2.845   7.456  0.3562  0.8878  0.4277
  358MOL0     H49364   1.410   2.841   7.605 -3.0588 -2.6805  0.4234
  358MOL0     H49365   1.466   2.706   7.494  2.8260  0.7747  0.7190
  358MOL0     H49366   1.948   2.549   7.695  3.6103 -0.7828  1.0669
  358MOL0     H49367   1.993   2.414   7.887 -0.4108 -0.6297  2.1944
  358MOL0     H49368   2.009   2.581   8.276  0.4951  1.4901 -1.8505
  358MOL0     H49369   1.839   2.521   8.296 -0.0539  1.6511 -2.6221
  358MOL0     H49370   1.911   2.303   8.364  3.1974 -2.8426  1.7419
  358MOL0     H49371   2.068   2.317   8.299 -0.6880 -0.2506 -0.7970
  358MOL0     H49372   2.062   2.333   8.565  3.5009 -0.8798 -0.0150
  358MOL0     H49373   1.987   2.485   8.532 -0.2370 -3.0134  3.0026
  358MOL0     H49374   2.201   2.577   8.488 -2.1141 -0.0353  0.4936
  358MOL0     H49375   2.234   2.440   8.365  1.6661 -2.6333  1.1877
  358MOL0     H49376   2.392   2.478   8.535  1.0363 -1.8445  2.9115
  358MOL0     H49377   2.276   2.439   8.655 -0.7144 -0.3318  0.3145
  358MOL0     H49378   2.370   2.250   8.437 -0.6535 -0.6236 -0.5742
  358MOL0     H49379   2.232   2.219   8.547  1.0076  0.4485  0.6203
  358MOL0     H49380   2.444   2.290   8.720  0.2206  1.7380 -0.9721
  358MOL0     H49381   2.521   2.202   8.595 -0.1113  1.3828 -0.8903
  358MOL0     H49382   2.459   2.040   8.773 -1.6021 -1.5088 -0.0519
  358MOL0     H49383   2.348   2.013   8.630 -0.4323  0.1055  0.0569
  358MOL0     H49384   1.792   2.699   8.143 -2.8943 -0.2264 -1.3941
  358MOL0     H49385   1.764   2.846   7.946 -1.1891  0.1400  0.7146
  358MOL0     H49386   1.887   2.978   7.571 -0.2432  1.4982  0.4232
  358MOL0     H49387   1.854   3.147   7.395 -1.2414  1.2542 -1.3439
  358MOL0     H49388   1.150   3.489   6.454 -3.0847  0.2073 -0.1476
  358MOL0     H49389   1.067   3.294   6.343  0.4807  4.1169  0.4204
  358MOL0     H49390   0.936   2.957   6.193  0.7552 -0.1526 -2.2734
  358MOL0     H49391   0.856   2.768   6.079  0.1065 -1.6917 -2.2305
  358MOL0     H49392   0.897   2.386   5.953 -2.0330  0.5354  0.3978
  358MOL0     H49393   0.811   2.547   5.962 -0.1235  1.3717  0.3628
  358MOL0     H49394   1.108   2.582   5.925 -0.0622 -0.8193  0.2538
  358MOL0     H49395   0.958   2.669   5.870 -2.2009 -0.4368 -3.0901
  358MOL0     H49396   1.006   2.392   5.766 -1.0240  1.3515  2.5376
  358MOL0     H49397   0.940   2.529   5.687  1.5997  1.9120  1.2786
  358MOL0     H49398   1.175   2.634   5.664 -2.1234  0.6264  1.3541
  358MOL0     H49399   1.136   2.495   5.560  1.6809 -1.8405  0.0354
  358MOL0     H49400   1.453   2.337   5.763  1.0516  1.4662  0.6083
  358MOL0     H49401   1.130   2.511   6.291  0.6227 -0.1953  0.1059
  358MOL0     H49402   1.341   2.716   6.403  1.9538 -3.2735 -1.6187
  358MOL0     H49403   1.227   2.740   6.547  0.3976  0.7216 -1.2627
  358MOL0     H49404   1.260   2.583   6.474  0.1915  0.3984  1.6139
  359MOL0     O49405   0.494   3.348  11.378 -0.2735  0.4650  0.0390
  359MOL0     C49406   0.565   3.293  11.467 -0.2323 -1.2082 -0.1042
  359MOL0     O49407   0.673   3.223  11.451  0.1592  0.2384  0.4948
  359MOL0     C49408   0.722   3.194  11.329 -0.3614  0.1109  0.2253
  359MOL0     C49409   0.699   3.063  11.284 -0.1081  0.0304 -0.3649
  359MOL0     C49410   0.746   3.018  11.166  0.5673  0.2090  0.5197
  359MOL0     C49411   0.835   3.101  11.095  0.4933 -0.3855 -0.2748
  359MOL0     O49412   0.886   3.071  10.969  0.2539  0.6265  0.4510
  359MOL0     C49413   0.895   2.926  10.941 -0.1207  0.9161 -1.0162
  359MOL0     C49414   0.966   2.898  10.809 -0.4736  0.2320  0.0056
  359MOL0     C49415   0.906   2.979  10.704  0.2092 -1.0947  0.2414
  359MOL0     C49416   0.956   2.933  10.568  0.1442 -0.8044  0.3943
  359MOL0     C49417   0.866   2.988  10.448  0.2119  0.6838  0.5491
  359MOL0     C49418   0.891   2.904  10.318  0.2473 -0.2496  0.3425
  359MOL0     C49419   0.760   2.898  10.232 -0.1434 -0.2229 -0.6845
  359MOL0     C49420   0.787   2.829  10.094  0.4404  0.6356 -0.5193
  359MOL0     N49421   0.816   2.684  10.105  0.5046 -0.1851 -0.3768
  359MOL0     C49422   0.717   2.582  10.124 -0.2592  0.5164 -1.0472
  359MOL0     C49423   0.796   2.468  10.142  0.0177 -0.2403  0.1315
  359MOL0     C49424   0.735   2.333  10.160  0.0455 -0.2890  0.4111
  359MOL0     C49425   0.817   2.248  10.258  0.0896  0.3836 -0.6613
  359MOL0     C49426   0.756   2.111  10.265  0.5065  0.3286  0.2567
  359MOL0     C49427   0.836   2.020  10.361 -0.1810 -0.9248  0.7080
  359MOL0     O49428   0.853   2.089  10.488 -0.5391 -0.0974 -0.1866
  359MOL0     C49429   0.936   2.020  10.573  0.8005 -0.3205  0.2525
  359MOL0     C49430   0.959   1.880  10.583  0.1148  0.2594  0.8118
  359MOL0     C49431   1.063   1.826  10.661 -0.5856 -0.1928  0.3532
  359MOL0     C49432   1.080   1.680  10.646 -0.1925 -0.2447  0.2789
  359MOL0     C49433   1.148   1.910  10.734  0.4758 -0.1657 -0.0078
  359MOL0     C49434   1.239   1.867  10.845 -0.4384 -0.7667  0.1220
  359MOL0     O49435   1.312   1.968  10.907 -1.0729 -0.3511 -0.2839
  359MOL0     C49436   1.427   1.929  10.971 -0.6616 -0.3305 -0.5205
  359MOL0     C49437   1.543   1.992  10.930 -0.6752  0.2458  1.1107
  359MOL0     C49438   1.664   1.978  10.988 -0.4412 -0.0910 -0.5703
  359MOL0     C49439   1.677   1.885  11.096  0.2538 -0.3554 -0.0790
  359MOL0     O49440   1.798   1.859  11.148 -0.2982  0.2385 -0.0079
  359MOL0     C49441   1.916   1.902  11.066  0.5170  0.0579  0.3331
  359MOL0     C49442   2.038   1.867  11.159  0.7142 -0.2436 -0.0707
  359MOL0     C49443   2.168   1.850  11.075  0.9765 -0.2910  0.0990
  359MOL0     C49444   2.277   1.809  11.168 -0.6691  0.0809 -0.1762
  359MOL0     C49445   2.416   1.779  11.107 -0.1626  0.2579  0.3211
  359MOL0     C49446   2.522   1.818  11.206  0.0537 -0.1684 -0.0974
  359MOL0     C49447   2.667   1.798  11.155 -0.6192 -0.5653 -0.4453
  359MOL0     C49448   2.779   1.814  11.250  0.3573 -0.0120 -0.2845
  359MOL0    Cl49449   2.939   1.768  11.183 -0.1013  0.0222  0.2274
  359MOL0     C49450   1.555   1.820  11.149  0.7785 -0.3352  0.4732
  359MOL0     C49451   1.429   1.847  11.085  0.0142  0.3423 -0.7873
  359MOL0     O49452   1.242   1.744  10.868  0.5995 -0.2467 -0.0019
  359MOL0     C49453   1.128   2.047  10.717 -0.3870  0.1732 -0.5048
  359MOL0     C49454   1.019   2.099  10.644  0.1593 -0.2528  1.0963
  359MOL0     N49455   0.936   2.502  10.137 -0.2206 -0.4404 -1.1036
  359MOL0     N49456   0.940   2.630  10.104  0.3990  0.0088 -0.4743
  359MOL0     C49457   0.874   3.218  11.153  0.4740 -0.2705  0.2924
  359MOL0     C49458   0.816   3.273  11.268 -0.2309  0.1764  0.5956
  359MOL0     C49459   0.553   3.345  11.611 -0.4371  0.8595 -1.3478
  359MOL0     C49460   0.668   3.394  11.665 -0.2326 -0.2774  0.6390
  359MOL0     C49461   0.674   3.442  11.797 -0.2341 -0.0649  0.8403
  359MOL0     C49462   0.555   3.451  11.867  0.5680  0.3571 -0.8889
  359MOL0     O49463   0.547   3.505  11.992  0.3990  0.0261  0.0011
  359MOL0     C49464   0.662   3.515  12.077  0.1381 -0.9786 -0.0910
  359MOL0     C49465   0.611   3.547  12.215  0.0798  0.8706 -0.4032
  359MOL0     C49466   0.555   3.686  12.233  0.9383  0.3265  0.8152
  359MOL0     C49467   0.549   3.745  12.375 -0.1519 -0.4814 -0.9024
  359MOL0     C49468   0.461   3.668  12.469 -0.0332 -0.2328 -1.6568
  359MOL0     C49469   0.404   3.598  12.548  0.1189  0.1550  0.1267
  359MOL0     C49470   0.434   3.404  11.818  0.4536  0.3283  0.6459
  359MOL0     C49471   0.430   3.342  11.684 -0.3684 -0.3451 -0.3891
  359MOL0     C49472   0.297   3.297  11.613 -0.5118 -0.3123 -0.3865
  359MOL0     H49473   0.640   3.002  11.352  2.0699 -0.4858  1.1707
  359MOL0     H49474   0.703   2.921  11.148  2.1393 -0.7565  1.7129
  359MOL0     H49475   0.796   2.882  10.923  0.8967 -2.2623  0.3165
  359MOL0     H49476   0.924   2.868  11.030  0.2377  0.0428 -1.6886
  359MOL0     H49477   1.073   2.915  10.826 -0.2822 -0.7690 -0.1571
  359MOL0     H49478   0.946   2.793  10.786 -2.8953  0.1852  2.0124
  359MOL0     H49479   0.797   2.984  10.716  0.2311  2.1551 -0.0994
  359MOL0     H49480   0.937   3.081  10.729 -3.7476  0.0645  1.1673
  359MOL0     H49481   1.051   2.982  10.547 -1.1577  1.2746 -0.9809
  359MOL0     H49482   0.961   2.824  10.564  0.7988 -0.9494  3.1778
  359MOL0     H49483   0.889   3.095  10.439  2.8803  0.2248  1.1676
  359MOL0     H49484   0.761   2.974  10.475 -0.1204 -0.3453 -1.1176
  359MOL0     H49485   0.969   2.953  10.258 -0.2312  0.8774  0.6041
  359MOL0     H49486   0.933   2.806  10.339  1.4544  0.4760  1.4676
  359MOL0     H49487   0.718   2.995  10.204 -0.8202 -0.7101 -1.4065
  359MOL0     H49488   0.678   2.846  10.281 -1.2585  1.9014 -0.1522
  359MOL0     H49489   0.695   2.834  10.035 -0.3785  0.4038  0.6931
  359MOL0     H49490   0.871   2.873  10.041  0.7030  0.2656 -0.4118
  359MOL0     H49491   0.613   2.607  10.138 -0.1280  1.4258 -1.5745
  359MOL0     H49492   0.718   2.276  10.068  0.0127  1.9278 -1.0551
  359MOL0     H49493   0.631   2.342  10.195  0.1377  2.3087  0.1867
  359MOL0     H49494   0.922   2.232  10.233 -0.2651 -3.7083 -0.1758
  359MOL0     H49495   0.809   2.299  10.354  0.8539 -0.5253 -0.0957
  359MOL0     H49496   0.654   2.116  10.303  0.6795 -1.0398  0.9586
  359MOL0     H49497   0.760   2.056  10.171 -1.8383 -1.5301  1.1260
  359MOL0     H49498   0.785   1.923  10.358 -0.8115 -0.6250  1.4485
  359MOL0     H49499   0.936   1.993  10.326  0.7834  0.0296  2.5640
  359MOL0     H49500   0.885   1.820  10.530  0.1310 -2.2298  3.3680
  359MOL0     H49501   1.000   1.636  10.585 -0.5106  1.1824 -0.3739
  359MOL0     H49502   1.080   1.627  10.742  0.1469 -0.0360  0.3926
  359MOL0     H49503   1.172   1.654  10.594  0.9470 -0.2917  2.2438
  359MOL0     H49504   1.544   2.068  10.852  4.1824 -0.1472  0.4769
  359MOL0     H49505   1.750   2.030  10.947  0.5733 -0.6305  0.7694
  359MOL0     H49506   1.904   1.841  10.976 -4.6843  2.3857 -0.9242
  359MOL0     H49507   1.929   2.005  11.032 -1.4115 -0.4845 -2.4118
  359MOL0     H49508   2.047   1.940  11.240 -1.9934 -1.8893  1.9002
  359MOL0     H49509   2.013   1.773  11.209  1.2253  0.9169  2.5302
  359MOL0     H49510   2.185   1.944  11.021 -4.4778  2.1580  1.8593
  359MOL0     H49511   2.156   1.764  11.010 -0.0520 -2.2963  2.7468
  359MOL0     H49512   2.240   1.715  11.212  3.2634 -1.7109 -0.2083
  359MOL0     H49513   2.276   1.874  11.256  0.1402  0.0754 -0.1537
  359MOL0     H49514   2.425   1.674  11.079  0.1975  0.2571  0.4345
  359MOL0     H49515   2.435   1.831  11.012  2.8249 -3.2612 -1.2898
  359MOL0     H49516   2.523   1.768  11.303 -3.0330  0.7415  0.4975
  359MOL0     H49517   2.510   1.926  11.220  1.8704  0.2064 -1.0947
  359MOL0     H49518   2.674   1.844  11.057 -0.1727 -1.7688 -1.0068
  359MOL0     H49519   2.654   1.695  11.120 -1.6019 -0.0328 -1.7145
  359MOL0     H49520   2.758   1.768  11.347  2.6395 -0.2250  0.1709
  359MOL0     H49521   2.783   1.923  11.260 -0.3848  0.5237 -4.2528
  359MOL0     H49522   1.564   1.757  11.237  3.6284 -2.7725 -1.3621
  359MOL0     H49523   1.334   1.799  11.109  0.4178  0.6643  1.7983
  359MOL0     H49524   1.196   2.117  10.765 -1.9371  0.6012  1.1424
  359MOL0     H49525   0.992   2.204  10.634 -0.1057 -0.4624 -0.7539
  359MOL0     H49526   0.951   3.271  11.097  0.6664  0.2904  1.0655
  359MOL0     H49527   0.842   3.371  11.307  0.1705  0.6567 -0.8356
  359MOL0     H49528   0.762   3.396  11.612 -1.1359 -1.1643 -1.0746
  359MOL0     H49529   0.775   3.477  11.817 -0.9377  2.4002  0.3482
  359MOL0     H49530   0.722   3.424  12.067  1.9160 -0.6771  5.0371
  359MOL0     H49531   0.726   3.599  12.048  0.3344 -1.2099 -0.3323
  359MOL0     H49532   0.690   3.540  12.290  0.2949  1.0951 -0.6072
  359MOL0     H49533   0.542   3.471  12.251  3.6420 -1.7753  1.5431
  359MOL0     H49534   0.610   3.756  12.169  3.3125  0.6682  3.0352
  359MOL0     H49535   0.451   3.683  12.199  0.7581  1.7602  1.1535
  359MOL0     H49536   0.524   3.851  12.365  0.6774 -0.1920 -0.1230
  359MOL0     H49537   0.648   3.735  12.421 -0.8331 -0.5600  0.6054
  359MOL0     H49538   0.345   3.553  12.625 -1.3929  0.7943 -0.6091
  359MOL0     H49539   0.341   3.427  11.867 -1.4851 -3.0204 -1.0930
  359MOL0     H49540   0.261   3.377  11.547  2.5306 -2.2766 -5.0003
  359MOL0     H49541   0.320   3.216  11.542  1.7969  2.2374 -2.7916
  359MOL0     H49542   0.225   3.264  11.689  0.8474  2.1990  2.1554
  360MOL0     O49543   6.358   5.508   0.150 -0.5557  0.6307  0.4080
  360MOL0     C49544   6.437   5.528   0.242  0.4793  0.5355 -0.1175
  360MOL0     O49545   6.443   5.642   0.316 -0.2902 -0.3618 -0.1593
  360MOL0     C49546   6.357   5.745   0.290 -0.4893 -0.7706 -0.1778
  360MOL0     C49547   6.303   5.778   0.166 -0.3490  0.2935 -0.6080
  360MOL0     C49548   6.215   5.885   0.148  0.1057 -1.4238 -0.0208
  360MOL0     C49549   6.189   5.977   0.249  0.3520 -0.1651  0.6503
  360MOL0     O49550   6.093   6.079   0.245  0.1531  0.0429  0.5223
  360MOL0     C49551   5.987   6.072   0.146  0.4063  0.2005 -0.1249
  360MOL0     C49552   5.907   5.947   0.160  0.2451  0.6224 -0.0870
  360MOL0     C49553   5.773   5.965   0.109 -0.1988 -0.8436  0.1754
  360MOL0     C49554   5.770   5.960  -0.046  0.3022  1.0299 -0.2041
  360MOL0     C49555   5.619   5.992  -0.085 -0.5699 -0.0704 -0.8635
  360MOL0     C49556   5.576   5.971  -0.225 -0.0483 -0.0103  0.4615
  360MOL0     C49557   5.642   6.072  -0.316  0.4735  0.1445  0.2483
  360MOL0     C49558   5.564   6.099  -0.446 -0.5699 -0.1091  0.1091
  360MOL0     N49559   5.526   5.970  -0.507  0.0910 -0.8593 -0.4841
  360MOL0     C49560   5.610   5.908  -0.596  0.0102  0.3519  0.0678
  360MOL0     C49561   5.515   5.842  -0.672 -1.0954 -0.3902 -0.2941
  360MOL0     C49562   5.540   5.765  -0.796 -0.9975 -0.7377  0.2305
  360MOL0     C49563   5.488   5.846  -0.921 -0.6650  0.8906 -0.0819
  360MOL0     C49564   5.337   5.833  -0.948  0.1867 -1.2460  0.5858
  360MOL0     C49565   5.295   5.946  -1.049 -0.3067 -0.3611  0.7388
  360MOL0     O49566   5.153   5.942  -1.034  0.6697  0.9563 -0.1968
  360MOL0     C49567   5.085   6.019  -1.119 -0.8271 -0.4138 -0.2452
  360MOL0     C49568   5.127   6.139  -1.184  0.2821  0.9468  0.3826
  360MOL0     C49569   5.039   6.213  -1.277  0.5908  0.8785 -0.7105
  360MOL0     C49570   5.110   6.333  -1.350  0.0318 -0.3260 -0.3329
  360MOL0     C49571   4.907   6.166  -1.298 -0.2874 -0.4216  0.3355
  360MOL0     C49572   4.809   6.232  -1.382 -0.3269 -0.8808  1.2341
  360MOL0     O49573   4.853   6.353  -1.454  0.4184 -0.0411 -0.1523
  360MOL0     C49574   4.759   6.411  -1.535  0.1781 -1.1121 -1.1997
  360MOL0     C49575   4.644   6.473  -1.484  0.0137 -0.3892  0.1280
  360MOL0     C49576   4.558   6.538  -1.577 -0.1274  0.2727 -0.1294
  360MOL0     C49577   4.587   6.552  -1.715  0.2631  0.2738 -0.6147
  360MOL0     O49578   4.493   6.617  -1.799 -0.6745 -0.1111 -0.2185
  360MOL0     C49579   4.524   6.605  -1.936 -0.1107 -0.4104 -0.5098
  360MOL0     C49580   4.407   6.688  -1.999 -0.2519 -0.0041 -0.0494
  360MOL0     C49581   4.283   6.599  -2.014  0.5954  0.0066  0.3291
  360MOL0     C49582   4.157   6.661  -2.082 -0.3683 -0.5836  0.7284
  360MOL0     C49583   4.055   6.555  -2.134 -0.2989  0.0726  0.7513
  360MOL0     C49584   3.961   6.493  -2.036 -0.4582  0.4242  0.9821
  360MOL0     C49585   3.907   6.374  -2.110  0.1677  0.7398 -0.0148
  360MOL0     C49586   3.792   6.305  -2.033 -0.8053 -0.4506  0.0415
  360MOL0    Cl49587   3.802   6.128  -2.091 -0.0152  0.1226 -0.3898
  360MOL0     C49588   4.710   6.486  -1.762  0.0734  0.7795 -0.3619
  360MOL0     C49589   4.794   6.419  -1.668 -0.2931 -1.2012 -0.2887
  360MOL0     O49590   4.700   6.180  -1.394  0.5319  0.3757  0.0595
  360MOL0     C49591   4.873   6.050  -1.229  0.6820  0.0868  0.1577
  360MOL0     C49592   4.954   5.974  -1.134  0.0420 -0.1279 -0.2391
  360MOL0     N49593   5.386   5.855  -0.623  0.1969 -0.1831  0.8295
  360MOL0     N49594   5.390   5.937  -0.523  0.0925  0.1221 -0.0203
  360MOL0     C49595   6.244   5.943   0.378 -0.7679 -0.0327 -0.0597
  360MOL0     C49596   6.329   5.828   0.399  0.0848 -0.8648 -0.4742
  360MOL0     C49597   6.529   5.417   0.276  0.3688  0.0185  0.1400
  360MOL0     C49598   6.525   5.306   0.191  0.2009  0.1641  1.2764
  360MOL0     C49599   6.602   5.197   0.209  0.2305 -0.0153 -1.0592
  360MOL0     C49600   6.690   5.192   0.316 -0.9038  0.6269 -0.1674
  360MOL0     O49601   6.782   5.095   0.341  0.8456 -1.0972 -0.3401
  360MOL0     C49602   6.757   5.017   0.463  0.1364  0.8528 -0.0353
  360MOL0     C49603   6.622   4.944   0.468 -0.0107 -0.7427 -0.2738
  360MOL0     C49604   6.605   4.856   0.344  1.0275  0.2549 -0.7704
  360MOL0     C49605   6.477   4.772   0.357 -0.7854  0.0524  0.3501
  360MOL0     C49606   6.443   4.702   0.226 -0.5105 -1.2402 -0.3921
  360MOL0     C49607   6.422   4.651   0.120  0.1690  0.5338  0.5123
  360MOL0     C49608   6.707   5.305   0.390  0.0883  0.0838 -0.7449
  360MOL0     C49609   6.616   5.413   0.391 -0.2312  0.1001 -0.1390
  360MOL0     C49610   6.618   5.497   0.511  0.1571  0.6397  0.0987
  360MOL0     H49611   6.332   5.724   0.076  2.4042  1.6394 -0.6579
  360MOL0     H49612   6.195   5.921   0.048  1.1207 -0.4540  0.1027
  360MOL0     H49613   6.034   6.080   0.048  2.1777  2.4625  0.8094
  360MOL0     H49614   5.934   6.166   0.162 -0.1229 -0.1392  0.1548
  360MOL0     H49615   5.946   5.853   0.119 -0.2892 -0.7240  2.2905
  360MOL0     H49616   5.893   5.921   0.266 -1.6122  0.3476 -0.3623
  360MOL0     H49617   5.702   5.888   0.142 -2.3020  0.5141 -0.9133
  360MOL0     H49618   5.728   6.060   0.140 -1.5702  0.2443 -4.3563
  360MOL0     H49619   5.836   6.030  -0.096  0.7324  1.3175  0.7427
  360MOL0     H49620   5.795   5.865  -0.095 -1.2813  1.2353 -1.4902
  360MOL0     H49621   5.601   6.096  -0.056  0.2172 -0.5069  1.4438
  360MOL0     H49622   5.550   5.949  -0.012  0.6316 -2.0664 -0.8361
  360MOL0     H49623   5.594   5.865  -0.247 -0.7210  0.0522 -0.3931
  360MOL0     H49624   5.474   6.004  -0.245  0.4151 -0.1096 -2.4484
  360MOL0     H49625   5.737   6.027  -0.348  1.4949 -0.7083  3.9967
  360MOL0     H49626   5.646   6.160  -0.251  2.2313 -0.0855  0.5207
  360MOL0     H49627   5.475   6.162  -0.443 -4.0065 -4.4895  2.0844
  360MOL0     H49628   5.634   6.137  -0.521  0.3150 -0.0062  0.9755
  360MOL0     H49629   5.718   5.915  -0.607 -0.0552  0.1253 -0.7498
  360MOL0     H49630   5.504   5.663  -0.783 -0.9905 -1.1699 -2.5332
  360MOL0     H49631   5.649   5.763  -0.809 -0.8791  0.3683  0.9861
  360MOL0     H49632   5.519   5.950  -0.908  3.3129 -0.3726  2.7246
  360MOL0     H49633   5.548   5.805  -1.003 -1.6624  1.9240 -1.3805
  360MOL0     H49634   5.316   5.735  -0.991  2.5954 -1.2549 -0.7101
  360MOL0     H49635   5.278   5.850  -0.857 -5.2981  1.7353 -2.9131
  360MOL0     H49636   5.330   6.048  -1.031 -2.3389  0.5031  0.0482
  360MOL0     H49637   5.316   5.927  -1.154 -0.9440 -1.0677  0.7297
  360MOL0     H49638   5.212   6.198  -1.153 -0.0029  1.2920  0.5136
  360MOL0     H49639   5.126   6.310  -1.456  0.2317  0.1177 -0.4057
  360MOL0     H49640   5.213   6.359  -1.322  0.4746  0.8458 -2.7662
  360MOL0     H49641   5.054   6.427  -1.348  3.3218  1.9694 -3.1918
  360MOL0     H49642   4.614   6.457  -1.381 -2.2048 -1.0219 -0.5623
  360MOL0     H49643   4.464   6.584  -1.548  0.6380  1.4636  0.5314
  360MOL0     H49644   4.616   6.653  -1.971  2.0863 -2.4562  2.0623
  360MOL0     H49645   4.536   6.499  -1.959 -2.3247 -0.7196 -0.4821
  360MOL0     H49646   4.377   6.775  -1.941 -1.3381 -0.7672  0.5595
  360MOL0     H49647   4.448   6.733  -2.090  1.9015  2.8589  2.1513
  360MOL0     H49648   4.260   6.586  -1.908  0.3070  4.2371  0.9523
  360MOL0     H49649   4.304   6.511  -2.075  1.2373  2.4994 -3.3966
  360MOL0     H49650   4.196   6.720  -2.165  0.6080  0.8647  2.1473
  360MOL0     H49651   4.107   6.735  -2.018  0.5939  1.6008 -0.9205
  360MOL0     H49652   3.994   6.596  -2.215  0.5895 -2.1171 -1.1383
  360MOL0     H49653   4.109   6.474  -2.185 -0.6678  1.1025 -1.4000
  360MOL0     H49654   3.892   6.564  -1.991  0.1566  1.7103 -0.0525
  360MOL0     H49655   4.019   6.447  -1.955 -0.3537 -1.5297 -0.1420
  360MOL0     H49656   3.989   6.302  -2.120  0.0250  0.1914  2.3699
  360MOL0     H49657   3.882   6.396  -2.215 -0.0696 -1.0310 -0.3665
  360MOL0     H49658   3.697   6.356  -2.046 -0.9955 -0.6240  0.7183
  360MOL0     H49659   3.822   6.307  -1.928 -2.3069  3.5745  0.5666
  360MOL0     H49660   4.733   6.485  -1.868 -4.6858 -2.0358 -1.6779
  360MOL0     H49661   4.893   6.390  -1.702  1.1536  1.7383  1.0868
  360MOL0     H49662   4.773   6.011  -1.247 -0.1398  2.3216 -0.4593
  360MOL0     H49663   4.918   5.898  -1.065 -2.4113  1.2303  0.1049
  360MOL0     H49664   6.197   5.991   0.464  1.0435  0.0807  0.9103
  360MOL0     H49665   6.364   5.819   0.501  2.1438  1.4407 -0.8720
  360MOL0     H49666   6.464   5.300   0.101  1.4207  3.1743  0.1276
  360MOL0     H49667   6.604   5.114   0.140 -0.9071 -0.9465 -0.0138
  360MOL0     H49668   6.839   4.946   0.472  0.4649  1.4734  2.8410
  360MOL0     H49669   6.773   5.077   0.553  2.8229 -1.1596  0.9410
  360MOL0     H49670   6.543   5.019   0.474 -0.3858 -1.1687  0.2591
  360MOL0     H49671   6.607   4.895   0.565 -2.2160 -2.2902 -1.3266
  360MOL0     H49672   6.586   4.918   0.256  0.5830  0.6198 -0.4198
  360MOL0     H49673   6.686   4.784   0.328 -0.0017 -0.6238 -2.1457
  360MOL0     H49674   6.390   4.834   0.383  1.1532  2.6056  1.1575
  360MOL0     H49675   6.490   4.690   0.428  1.6217 -0.1132 -0.2236
  360MOL0     H49676   6.410   4.604   0.025 -2.2918  3.1193 -0.5943
  360MOL0     H49677   6.774   5.304   0.475  0.0719 -0.8201 -0.7361
  360MOL0     H49678   6.540   5.463   0.579 -1.1711 -0.0585 -1.6804
  360MOL0     H49679   6.708   5.481   0.570 -1.2298 -0.1113  2.1206
  360MOL0     H49680   6.603   5.602   0.483 -2.0191  0.2535 -0.3316
  361MOL0     O49681   9.844   1.721   9.850 -0.5374 -0.0363 -0.1014
  361MOL0     C49682   9.959   1.752   9.885 -0.6151  0.0537 -0.4972
  361MOL0     O49683  10.078   1.734   9.817 -0.1231 -0.1514  0.7801
  361MOL0     C49684  10.065   1.711   9.681  0.4754 -0.8578  0.1844
  361MOL0     C49685  10.145   1.612   9.632 -0.1302 -0.4823 -0.0029
  361MOL0     C49686  10.147   1.585   9.495  0.1309  0.2574 -0.5817
  361MOL0     C49687  10.067   1.656   9.402 -0.5010  0.5477 -1.2562
  361MOL0     O49688  10.056   1.652   9.267  0.3751  1.1415 -0.3173
  361MOL0     C49689  10.157   1.584   9.195 -0.6996  0.2531 -0.4193
  361MOL0     C49690  10.136   1.620   9.042 -0.3684  0.0709  0.5007
  361MOL0     C49691  10.182   1.769   9.005  0.1263 -0.3706  0.1973
  361MOL0     C49692  10.142   1.791   8.854  0.1336 -0.2039  0.4535
  361MOL0     C49693  10.008   1.865   8.833 -0.2239  0.1821 -0.9851
  361MOL0     C49694  10.021   2.013   8.857 -0.3159  0.6866  0.2125
  361MOL0     C49695   9.931   2.089   8.762 -0.2557 -0.1731 -0.9080
  361MOL0     C49696   9.789   2.039   8.757 -0.5860 -0.1790  0.3938
  361MOL0     N49697   9.727   2.124   8.651  0.2196  1.1038  0.2787
  361MOL0     C49698   9.751   2.112   8.519  0.1958 -0.3245 -0.5566
  361MOL0     C49699   9.680   2.219   8.478  0.2786  0.0886 -0.0791
  361MOL0     C49700   9.676   2.273   8.338  1.0779 -0.2583  0.0837
  361MOL0     C49701   9.554   2.208   8.265  0.3104  0.5645  0.1180
  361MOL0     C49702   9.499   2.304   8.160 -0.4132  0.2102 -0.6524
  361MOL0     C49703   9.570   2.320   8.030  0.2380 -0.5420 -0.3782
  361MOL0     O49704   9.501   2.416   7.954 -0.5308 -0.9800  0.5554
  361MOL0     C49705   9.404   2.375   7.858  0.3847 -0.4112 -0.7559
  361MOL0     C49706   9.359   2.483   7.780 -0.2363 -1.0823  0.1602
  361MOL0     C49707   9.271   2.476   7.671 -0.4549  0.2334  0.3546
  361MOL0     C49708   9.248   2.602   7.592  1.1055 -0.2838 -0.6635
  361MOL0     C49709   9.225   2.346   7.642  0.3030  0.6790  0.3947
  361MOL0     C49710   9.153   2.311   7.512  0.0791  0.9198  0.0233
  361MOL0     O49711   9.156   2.176   7.489 -0.6376 -0.6591 -0.2285
  361MOL0     C49712   9.120   2.130   7.367 -0.0083 -0.3369  0.5312
  361MOL0     C49713   9.101   2.202   7.245  0.1585  0.1214  0.0628
  361MOL0     C49714   9.058   2.130   7.127  0.3772 -0.5355  0.8647
  361MOL0     C49715   9.039   1.989   7.126  0.4125 -0.4743  0.3226
  361MOL0     O49716   9.002   1.925   7.004 -0.3038 -0.2072 -0.5609
  361MOL0     C49717   9.071   1.805   6.959 -0.3560 -0.5369 -0.6401
  361MOL0     C49718   8.977   1.704   6.877  0.6724  0.2404 -0.1750
  361MOL0     C49719   9.059   1.586   6.830  0.0051 -0.1012  0.0750
  361MOL0     C49720   8.946   1.481   6.800  1.3547 -0.3584  0.7312
  361MOL0     C49721   9.004   1.351   6.733 -0.7833  0.0842 -0.2702
  361MOL0     C49722   9.096   1.274   6.834  0.5238  0.5920  0.1276
  361MOL0     C49723   9.017   1.211   6.953  0.2939 -0.5936 -0.1689
  361MOL0     C49724   9.119   1.164   7.054  1.0459 -0.4217 -0.8862
  361MOL0    Cl49725   9.214   1.036   6.977 -0.4727  0.2640  0.0650
  361MOL0     C49726   9.069   1.924   7.251 -0.1247  0.1706  0.5885
  361MOL0     C49727   9.109   1.992   7.371  0.3686 -0.1465  0.1528
  361MOL0     O49728   9.078   2.402   7.460  0.0748  0.2917 -0.2457
  361MOL0     C49729   9.258   2.241   7.726 -0.1696 -0.0503  1.1455
  361MOL0     C49730   9.340   2.250   7.836 -0.0644 -0.0817  0.2974
  361MOL0     N49731   9.601   2.278   8.577 -0.0961 -1.3267  0.1610
  361MOL0     N49732   9.629   2.209   8.678 -0.1660 -0.3878  0.1253
  361MOL0     C49733   9.982   1.752   9.453 -0.3766  0.2187  0.5259
  361MOL0     C49734   9.977   1.779   9.591  0.3324 -0.4771  0.3008
  361MOL0     C49735   9.988   1.820  10.016  0.1008 -0.1231  0.0739
  361MOL0     C49736   9.894   1.798  10.123  0.9476 -0.1582  0.5715
  361MOL0     C49737   9.916   1.846  10.245  0.1485  0.9746 -0.3257
  361MOL0     C49738  10.035   1.925  10.276 -0.5343  0.1656 -0.1885
  361MOL0     O49739  10.059   1.988  10.399  0.1979  0.4832  0.4260
  361MOL0     C49740   9.990   1.931  10.506  0.1237 -0.1388 -0.0767
  361MOL0     C49741  10.034   2.016  10.624 -0.3315  0.0129 -0.6561
  361MOL0     C49742   9.952   1.971  10.745  0.6888 -0.1619  0.0875
  361MOL0     C49743   9.975   2.029  10.882 -0.7050 -0.0440  0.6920
  361MOL0     C49744   9.952   2.184  10.874 -0.5638  0.3500  0.2337
  361MOL0     C49745   9.927   2.299  10.863  0.4224  0.1723  0.1636
  361MOL0     C49746  10.126   1.946  10.176  0.1725 -0.3981 -0.5681
  361MOL0     C49747  10.105   1.906  10.042 -0.0699 -0.4367  0.9732
  361MOL0     C49748  10.194   1.950   9.931 -0.7032  0.1159 -0.4937
  361MOL0     H49749  10.210   1.560   9.701 -1.7070  0.5405  2.3764
  361MOL0     H49750  10.207   1.506   9.451 -1.1632 -1.3783  0.4773
  361MOL0     H49751  10.158   1.475   9.205  0.7524  0.3189  0.4117
  361MOL0     H49752  10.256   1.619   9.223 -0.7005  0.3584 -0.5480
  361MOL0     H49753  10.196   1.547   8.988 -0.4196 -0.9575  1.8100
  361MOL0     H49754  10.029   1.619   9.018 -0.7726  1.7470  1.9741
  361MOL0     H49755  10.140   1.847   9.069  0.5283 -0.9724  1.2182
  361MOL0     H49756  10.290   1.784   9.006  0.5170 -2.7532  0.4310
  361MOL0     H49757  10.226   1.845   8.809 -0.1480  0.3754  0.6195
  361MOL0     H49758  10.133   1.692   8.807 -0.7394 -0.3230  0.8408
  361MOL0     H49759   9.933   1.807   8.890  0.0211  0.5025 -0.3263
  361MOL0     H49760   9.975   1.854   8.729  1.9003 -3.8819 -1.4391
  361MOL0     H49761  10.009   2.039   8.962  2.4417 -1.0467  1.0858
  361MOL0     H49762  10.129   2.025   8.842 -0.2087  0.8037  1.0438
  361MOL0     H49763   9.972   2.113   8.663 -0.2879  3.5405 -0.1746
  361MOL0     H49764   9.926   2.183   8.817  1.9661 -0.8281  0.5496
  361MOL0     H49765   9.768   1.939   8.720  1.1484 -0.0611 -1.0074
  361MOL0     H49766   9.748   2.056   8.857  2.0835  3.9212  1.0254
  361MOL0     H49767   9.823   2.041   8.481  0.4094 -1.5905  1.9803
  361MOL0     H49768   9.761   2.240   8.278  0.3761 -4.1063  0.9774
  361MOL0     H49769   9.677   2.383   8.342 -0.1055 -0.0727 -2.6813
  361MOL0     H49770   9.579   2.113   8.217 -2.1196  1.3987 -3.1475
  361MOL0     H49771   9.479   2.182   8.340 -0.8001  0.3217 -1.0379
  361MOL0     H49772   9.405   2.252   8.140 -0.0067 -1.5605  1.6681
  361MOL0     H49773   9.487   2.405   8.202  3.3401 -0.6906  3.2435
  361MOL0     H49774   9.673   2.350   8.053  1.3922 -4.6908  0.8895
  361MOL0     H49775   9.566   2.226   7.975  2.5738 -0.9976  0.1252
  361MOL0     H49776   9.396   2.579   7.816 -3.3340  0.3426 -0.0785
  361MOL0     H49777   9.141   2.622   7.582  0.5487 -0.7347  2.9785
  361MOL0     H49778   9.282   2.586   7.490 -0.4149  0.8768 -1.4024
  361MOL0     H49779   9.296   2.689   7.637  3.6999 -0.8471 -2.1805
  361MOL0     H49780   9.106   2.309   7.228 -0.0936  0.2581  0.8273
  361MOL0     H49781   9.031   2.188   7.039 -1.7651 -1.5530  0.7874
  361MOL0     H49782   9.153   1.834   6.893 -2.3296  1.6257 -2.3347
  361MOL0     H49783   9.106   1.748   7.046  0.3197  2.7347  1.3847
  361MOL0     H49784   8.887   1.670   6.930 -1.4756  0.1931 -3.5318
  361MOL0     H49785   8.948   1.767   6.793 -0.8050 -0.5900 -0.3346
  361MOL0     H49786   9.124   1.558   6.914 -1.5477  2.5969  2.3257
  361MOL0     H49787   9.125   1.601   6.744 -1.3085  0.5316 -0.8447
  361MOL0     H49788   8.883   1.540   6.732  1.5459  2.5710  2.9020
  361MOL0     H49789   8.875   1.460   6.881  0.7161  4.4584  1.6996
  361MOL0     H49790   8.926   1.279   6.704 -1.7460  0.2313  1.7961
  361MOL0     H49791   9.062   1.379   6.645  1.5435  2.1287  1.7691
  361MOL0     H49792   9.165   1.348   6.876  1.2932 -0.4016  0.6520
  361MOL0     H49793   9.151   1.193   6.786 -1.6555 -0.5965 -0.5450
  361MOL0     H49794   8.961   1.131   6.905  0.1742  0.6986 -2.3020
  361MOL0     H49795   8.948   1.281   7.003 -0.3036 -1.0749 -0.3030
  361MOL0     H49796   9.073   1.124   7.145  0.3888  1.9573 -0.0958
  361MOL0     H49797   9.181   1.252   7.076  0.0242  0.5978 -1.8866
  361MOL0     H49798   9.049   1.817   7.255  1.7816 -0.3305 -1.4752
  361MOL0     H49799   9.099   1.948   7.469 -1.7255  0.7079  0.3568
  361MOL0     H49800   9.205   2.147   7.719  0.4661 -0.4707  1.8825
  361MOL0     H49801   9.349   2.164   7.902 -0.2938  0.3789  0.9394
  361MOL0     H49802   9.911   1.793   9.381  0.3536 -2.3429 -1.7776
  361MOL0     H49803   9.907   1.850   9.635 -0.0939  0.7383 -2.1205
  361MOL0     H49804   9.802   1.741  10.118  1.5850 -1.1374 -1.1366
  361MOL0     H49805   9.849   1.827  10.329  0.2435 -1.6812 -0.7710
  361MOL0     H49806   9.883   1.946  10.489  0.1802 -0.2259 -0.5152
  361MOL0     H49807  10.019   1.827  10.524 -1.4600 -0.6082 -0.1381
  361MOL0     H49808  10.007   2.121  10.611  0.1521  0.1524 -0.5364
  361MOL0     H49809  10.140   1.994  10.642 -0.6779 -0.2078  1.2813
  361MOL0     H49810   9.846   1.982  10.723  0.7822  1.2776  0.3165
  361MOL0     H49811   9.986   1.867  10.745  0.4116 -0.2958 -1.8525
  361MOL0     H49812  10.076   1.994  10.905  0.6363  0.6050 -3.3602
  361MOL0     H49813   9.901   1.990  10.952 -5.4108  1.4107 -2.8683
  361MOL0     H49814   9.911   2.405  10.859  2.4731  0.4987 -0.4693
  361MOL0     H49815  10.221   1.989  10.206  0.4653 -0.5934 -1.2014
  361MOL0     H49816  10.155   1.963   9.830  0.4942  0.5182 -0.9303
  361MOL0     H49817  10.251   2.035   9.971 -0.2767  0.2425 -1.3550
  361MOL0     H49818  10.269   1.870   9.928 -1.6978 -0.9260 -5.2515
  362MOL0     O49819  10.585   5.549   2.735 -0.4960  0.3246  0.9452
  362MOL0     C49820  10.563   5.614   2.836 -1.2360 -0.6827 -0.5186
  362MOL0     O49821  10.586   5.574   2.969 -0.0081  0.5327  0.8439
  362MOL0     C49822  10.669   5.462   2.987  0.0816  0.1418  0.6538
  362MOL0     C49823  10.619   5.357   3.062 -0.1775 -0.1096 -0.2077
  362MOL0     C49824  10.686   5.239   3.063 -0.3218  0.2780 -0.1014
  362MOL0     C49825  10.819   5.231   3.013  0.5927 -0.0299 -0.5306
  362MOL0     O49826  10.897   5.116   3.020  0.2934  0.2907  0.1216
  362MOL0     C49827  10.823   4.996   2.995 -0.1170  0.0038  0.0373
  362MOL0     C49828  10.919   4.887   2.936  0.0784 -0.7421 -0.1680
  362MOL0     C49829  10.834   4.766   2.899  0.3431 -0.0913  0.4263
  362MOL0     C49830  10.927   4.651   2.858  0.7729  0.1047  0.0345
  362MOL0     C49831  10.894   4.583   2.725  0.2849 -0.2014  0.0578
  362MOL0     C49832  10.921   4.657   2.596 -0.8912  0.0071  0.4984
  362MOL0     C49833  10.873   4.577   2.468  0.6343  0.4240 -0.4640
  362MOL0     C49834  10.747   4.638   2.406 -0.0661 -0.9134  0.1881
  362MOL0     N49835  10.638   4.674   2.496  0.2836  0.2458 -0.5435
  362MOL0     C49836  10.534   4.592   2.543 -0.5498 -0.2537  0.4657
  362MOL0     C49837  10.430   4.673   2.564 -0.8729 -0.3705  0.2614
  362MOL0     C49838  10.290   4.625   2.600  0.1578  0.4424  0.3767
  362MOL0     C49839  10.237   4.569   2.470  0.0187 -0.4909 -0.3846
  362MOL0     C49840  10.098   4.506   2.483  0.8666  0.5058 -0.1853
  362MOL0     C49841  10.054   4.461   2.340 -0.0127  0.5310 -0.4434
  362MOL0     O49842   9.938   4.383   2.339 -0.4490 -0.4329 -0.2679
  362MOL0     C49843   9.943   4.255   2.380 -0.6850 -0.5133 -0.4274
  362MOL0     C49844   9.836   4.187   2.442  0.3202  0.3834 -0.8584
  362MOL0     C49845   9.838   4.054   2.492  0.0006  0.2902  0.0659
  362MOL0     C49846   9.726   3.996   2.567  0.3432 -0.5573 -0.8983
  362MOL0     C49847   9.965   3.980   2.481  0.7267 -0.6868 -0.1700
  362MOL0     C49848   9.985   3.845   2.542  0.6809  0.2131 -0.0142
  362MOL0     O49849   9.890   3.745   2.518 -0.7351 -0.3404 -0.1260
  362MOL0     C49850   9.917   3.609   2.534  0.1218 -0.3729  0.1815
  362MOL0     C49851  10.049   3.554   2.500  0.0733 -0.4269  0.2620
  362MOL0     C49852  10.072   3.420   2.519  0.8607  0.2560  0.3261
  362MOL0     C49853   9.971   3.348   2.582 -0.6824 -0.2125  0.6060
  362MOL0     O49854   9.988   3.217   2.617  0.0740 -0.1854 -0.0439
  362MOL0     C49855  10.084   3.126   2.564  0.0592  0.7908  0.1417
  362MOL0     C49856  10.048   2.986   2.590  0.0364 -0.2161 -0.3928
  362MOL0     C49857  10.177   2.901   2.574  0.0018 -0.7095  0.1774
  362MOL0     C49858  10.180   2.758   2.641 -0.1883 -0.1181  0.4009
  362MOL0     C49859  10.272   2.671   2.556  0.1778  0.7732  0.3679
  362MOL0     C49860  10.332   2.567   2.648 -0.1389 -0.2867 -0.3292
  362MOL0     C49861  10.431   2.460   2.589  0.0987 -1.1064  0.3341
  362MOL0     C49862  10.387   2.328   2.640 -0.8755  0.0369 -0.0008
  362MOL0    Cl49863  10.392   2.315   2.815  0.1182  0.4899  0.0771
  362MOL0     C49864   9.849   3.400   2.628 -0.8104  0.1424  0.4273
  362MOL0     C49865   9.825   3.533   2.601  0.3809 -0.5637  1.0957
  362MOL0     O49866  10.098   3.831   2.585 -0.5792 -0.2051  0.6389
  362MOL0     C49867  10.061   4.043   2.399  0.0433  0.5002  0.0194
  362MOL0     C49868  10.048   4.170   2.354 -0.1863 -0.1496 -0.2010
  362MOL0     N49869  10.474   4.801   2.568 -0.0454 -0.2886  0.2989
  362MOL0     N49870  10.595   4.803   2.515 -0.0009  0.4841  0.2181
  362MOL0     C49871  10.864   5.327   2.932 -0.4164 -0.2396  0.1935
  362MOL0     C49872  10.785   5.440   2.917  0.4379 -0.3743  1.2295
  362MOL0     C49873  10.498   5.744   2.834  0.1244 -0.9655 -0.2995
  362MOL0     C49874  10.422   5.786   2.944  0.1450 -0.2415 -0.0030
  362MOL0     C49875  10.377   5.917   2.959 -0.0074  0.5910 -0.0956
  362MOL0     C49876  10.386   6.007   2.846 -0.6811  0.3588 -0.9144
  362MOL0     O49877  10.329   6.124   2.858 -0.2740 -0.2647 -0.5141
  362MOL0     C49878  10.349   6.223   2.757  0.1365  0.4896 -0.0508
  362MOL0     C49879  10.256   6.337   2.779  0.0097  0.2797  0.2309
  362MOL0     C49880  10.242   6.441   2.670  0.0065 -0.3033  0.8945
  362MOL0     C49881  10.353   6.470   2.568 -0.4484 -0.5854 -0.5628
  362MOL0     C49882  10.490   6.504   2.614  0.2004  0.3766 -0.0978
  362MOL0     C49883  10.603   6.531   2.652 -0.1790 -0.3397 -0.2670
  362MOL0     C49884  10.462   5.961   2.727  1.1620 -0.4399 -0.3281
  362MOL0     C49885  10.511   5.829   2.724  0.3290 -0.8899  0.4659
  362MOL0     C49886  10.614   5.801   2.618 -0.3426 -0.3858  0.8143
  362MOL0     H49887  10.518   5.364   3.100  0.4226 -0.3599  1.4961
  362MOL0     H49888  10.628   5.157   3.106 -5.2867  3.6191  0.3406
  362MOL0     H49889  10.751   5.002   2.913  2.7988 -1.0716 -2.8144
  362MOL0     H49890  10.779   4.951   3.084 -0.9787  1.1166  0.1971
  362MOL0     H49891  10.961   4.938   2.849  1.8526 -1.3628  0.2800
  362MOL0     H49892  11.002   4.858   3.001  0.0837 -2.0736 -0.7450
  362MOL0     H49893  10.755   4.731   2.965 -1.9337 -0.5220 -2.3671
  362MOL0     H49894  10.791   4.806   2.806 -0.1621 -1.1323  0.2009
  362MOL0     H49895  11.030   4.685   2.846 -0.0273  2.8866  0.5200
  362MOL0     H49896  10.906   4.573   2.931  1.4032 -2.1510 -2.0371
  362MOL0     H49897  10.789   4.554   2.721  0.0320  0.8331 -3.0840
  362MOL0     H49898  10.955   4.492   2.717 -0.9828 -0.9055 -2.9472
  362MOL0     H49899  10.870   4.752   2.580 -0.7135 -0.2354 -1.8946
  362MOL0     H49900  11.030   4.669   2.598 -0.8047 -0.4021 -0.6550
  362MOL0     H49901  10.848   4.472   2.488 -0.7704  0.6962 -0.6495
  362MOL0     H49902  10.957   4.571   2.399 -0.4484 -0.9046 -1.7386
  362MOL0     H49903  10.788   4.729   2.361  1.9010 -0.3002  2.9349
  362MOL0     H49904  10.716   4.571   2.326 -0.1664 -0.1540 -0.4227
  362MOL0     H49905  10.528   4.484   2.539  1.0642 -0.4210  1.6603
  362MOL0     H49906  10.232   4.713   2.631 -3.8042 -1.7144 -0.3196
  362MOL0     H49907  10.289   4.547   2.676 -0.0090 -2.3937 -2.3502
  362MOL0     H49908  10.231   4.657   2.406 -0.8555 -1.6953 -2.0389
  362MOL0     H49909  10.306   4.509   2.411 -0.2665 -1.1810 -0.0314
  362MOL0     H49910  10.101   4.415   2.543  2.2569 -0.3263 -1.4686
  362MOL0     H49911  10.033   4.579   2.532 -0.1952  0.4485 -1.4795
  362MOL0     H49912  10.026   4.555   2.291 -2.2122 -0.7958 -1.8792
  362MOL0     H49913  10.135   4.418   2.281 -1.2707 -1.2589 -0.9461
  362MOL0     H49914   9.746   4.247   2.454 -0.2303 -0.5061 -0.4540
  362MOL0     H49915   9.758   3.951   2.661 -0.5182  0.9068  0.1313
  362MOL0     H49916   9.660   3.948   2.494  0.1276 -1.3004 -0.2158
  362MOL0     H49917   9.663   4.079   2.600  1.4766  0.7050 -1.7695
  362MOL0     H49918  10.131   3.607   2.453  1.3120 -1.3450  1.3322
  362MOL0     H49919  10.164   3.369   2.490  2.8856  2.3154  2.6246
  362MOL0     H49920  10.092   3.144   2.457 -1.6808 -2.4944 -0.6728
  362MOL0     H49921  10.183   3.151   2.605  0.2093 -0.4138  0.5724
  362MOL0     H49922   9.995   2.980   2.685 -0.9144  0.4369 -0.8608
  362MOL0     H49923   9.978   2.963   2.509 -1.8686  2.0842  0.5060
  362MOL0     H49924  10.263   2.959   2.609 -0.1689 -1.1963  1.4498
  362MOL0     H49925  10.202   2.904   2.467 -1.3096  0.9934 -0.1153
  362MOL0     H49926  10.081   2.715   2.661  0.3133  0.1799  4.5581
  362MOL0     H49927  10.227   2.771   2.739  0.3629 -0.7480  0.2253
  362MOL0     H49928  10.218   2.623   2.474  2.0588  0.8890 -1.0010
  362MOL0     H49929  10.354   2.727   2.509  1.4610  0.2159  1.8761
  362MOL0     H49930  10.252   2.511   2.698  0.6440 -1.6102 -0.5090
  362MOL0     H49931  10.386   2.621   2.726  0.7744 -1.5427 -0.0587
  362MOL0     H49932  10.529   2.488   2.629 -0.4061  1.0949  0.1422
  362MOL0     H49933  10.422   2.478   2.481  0.3338  3.7107  0.8994
  362MOL0     H49934  10.453   2.247   2.609 -0.5888 -0.3504  1.5436
  362MOL0     H49935  10.294   2.318   2.582  0.2122  2.3897 -2.3819
  362MOL0     H49936   9.781   3.352   2.697 -2.4118 -0.8848 -1.7554
  362MOL0     H49937   9.738   3.588   2.634 -0.4575 -1.2181  0.0656
  362MOL0     H49938  10.160   4.000   2.387 -0.5270 -0.8513 -0.0621
  362MOL0     H49939  10.131   4.214   2.299 -0.6319  1.4224  0.3305
  362MOL0     H49940  10.958   5.322   2.879 -1.4982 -1.1936 -1.7467
  362MOL0     H49941  10.813   5.521   2.849 -2.4000 -0.8337 -0.6564
  362MOL0     H49942  10.411   5.727   3.034 -0.3237  3.5487  2.6571
  362MOL0     H49943  10.331   5.949   3.052 -0.0708 -0.0980  0.1148
  362MOL0     H49944  10.452   6.259   2.759  1.5956 -3.0209 -2.6660
  362MOL0     H49945  10.327   6.190   2.655 -4.3029  0.7354  0.6143
  362MOL0     H49946  10.291   6.387   2.871  0.6561  1.4874 -0.6446
  362MOL0     H49947  10.153   6.306   2.798  0.0211 -1.5465 -2.2735
  362MOL0     H49948  10.159   6.408   2.607 -2.3222  4.0355  1.2829
  362MOL0     H49949  10.211   6.540   2.706 -0.4410  0.5453 -1.6222
  362MOL0     H49950  10.323   6.555   2.505  1.9951  2.9861  2.5864
  362MOL0     H49951  10.372   6.382   2.506 -0.9696 -0.8903 -0.2970
  362MOL0     H49952  10.701   6.564   2.680  0.2371 -0.6979 -1.2667
  362MOL0     H49953  10.483   6.031   2.647 -1.7379  2.2545  1.0552
  362MOL0     H49954  10.699   5.739   2.649 -1.8643 -1.6701  2.6670
  362MOL0     H49955  10.567   5.758   2.530  0.2475  2.6200 -1.0893
  362MOL0     H49956  10.651   5.899   2.589  0.1055 -0.7665  0.0668
  363MOL0     O49957   1.932  10.141   7.600 -0.5564  1.0036  0.3134
  363MOL0     C49958   1.835  10.178   7.651  0.6892 -0.1153  0.4479
  363MOL0     O49959   1.772  10.114   7.759 -0.0296  0.3408 -0.9806
  363MOL0     C49960   1.796   9.977   7.768  0.2889 -0.5276  0.5621
  363MOL0     C49961   1.793   9.878   7.668 -0.0727  0.2922 -0.7151
  363MOL0     C49962   1.839   9.748   7.682 -0.3898  0.5105  0.2012
  363MOL0     C49963   1.882   9.706   7.807  0.3361  0.0275 -0.1125
  363MOL0     O49964   1.930   9.583   7.847  0.2663 -0.0109  0.5441
  363MOL0     C49965   1.860   9.476   7.773 -0.4073 -0.1321  0.2098
  363MOL0     C49966   1.898   9.354   7.845 -0.0369  0.1887  0.8675
  363MOL0     C49967   1.843   9.215   7.793 -0.4261 -0.6472 -0.7039
  363MOL0     C49968   1.880   9.103   7.888  0.6283 -0.6307 -0.0221
  363MOL0     C49969   1.828   8.961   7.854  0.4002  0.6788 -0.9788
  363MOL0     C49970   1.675   8.963   7.845 -0.9327  0.7352  0.7424
  363MOL0     C49971   1.617   8.822   7.855 -0.6051 -0.3618  0.2438
  363MOL0     C49972   1.476   8.817   7.905  0.8006 -0.0291 -0.0660
  363MOL0     N49973   1.373   8.830   7.803  0.5028 -0.2710 -0.3317
  363MOL0     C49974   1.368   8.924   7.706 -0.9126  0.3622  0.7565
  363MOL0     C49975   1.254   8.904   7.639  0.0955  0.3324  0.8346
  363MOL0     C49976   1.176   8.993   7.543 -0.4782  0.0780 -0.1356
  363MOL0     C49977   1.263   9.008   7.415 -0.2690 -0.0568 -0.8266
  363MOL0     C49978   1.213   9.128   7.328  0.0136  0.2259  0.3987
  363MOL0     C49979   1.068   9.121   7.254 -0.1920  0.1166 -0.9123
  363MOL0     O49980   1.063   9.002   7.169 -0.0252  0.1158  0.2621
  363MOL0     C49981   0.943   8.988   7.093 -0.6482  0.8669 -0.7176
  363MOL0     C49982   0.827   9.058   7.129  0.0032  0.9125  0.4753
  363MOL0     C49983   0.705   9.036   7.059  0.4393  0.4019 -0.3780
  363MOL0     C49984   0.577   9.108   7.109  0.2933  0.2134 -0.1455
  363MOL0     C49985   0.705   8.945   6.955  0.3720  0.0617  0.6877
  363MOL0     C49986   0.586   8.910   6.866 -0.6004  0.9855 -0.1473
  363MOL0     O49987   0.605   8.871   6.739 -0.7454  0.6367  0.4616
  363MOL0     C49988   0.491   8.827   6.671 -1.0877  1.1804  0.2602
  363MOL0     C49989   0.483   8.687   6.632 -0.2333 -1.3185  0.3796
  363MOL0     C49990   0.353   8.638   6.582  0.5194 -0.3867  0.1750
  363MOL0     C49991   0.245   8.717   6.569  0.0006  0.7057 -0.5275
  363MOL0     O49992   0.115   8.671   6.542 -0.1712 -0.7584  0.3590
  363MOL0     C49993   0.097   8.535   6.502  0.5859  0.2358 -0.5130
  363MOL0     C49994  -0.056   8.520   6.462  0.3350  0.0167 -0.3555
  363MOL0     C49995  -0.160   8.585   6.547  0.2881 -1.0267  1.0167
  363MOL0     C49996  -0.155   8.539   6.697  0.2125 -0.1285 -0.2986
  363MOL0     C49997  -0.279   8.599   6.779 -0.3937 -0.4651  0.3002
  363MOL0     C49998  -0.273   8.761   6.800  0.4809  0.1693  0.5880
  363MOL0     C49999  -0.400   8.815   6.869  0.4491  0.2104 -0.8123
  363MOL0     C50000  -0.370   8.945   6.925 -0.7121 -0.2310  0.2597
  363MOL0    Cl50001  -0.313   8.927   7.091 -0.1654 -0.0951 -0.0057
  363MOL0     C50002   0.262   8.858   6.592 -0.0088 -0.1742  0.2837
  363MOL0     C50003   0.380   8.911   6.650  1.2508  1.3098 -0.0784
  363MOL0     O50004   0.482   8.924   6.920 -0.1350  0.6859 -0.1383
  363MOL0     C50005   0.823   8.886   6.915  0.5365 -0.1937  0.8957
  363MOL0     C50006   0.936   8.900   6.991  0.4022  0.2398  0.4136
  363MOL0     N50007   1.197   8.783   7.699 -0.0588 -0.2203 -0.1694
  363MOL0     N50008   1.275   8.737   7.784 -0.4721  0.5905  0.1867
  363MOL0     C50009   1.884   9.802   7.910  0.7135  0.1046 -0.2275
  363MOL0     C50010   1.839   9.932   7.889  0.5413  0.9087  0.9001
  363MOL0     C50011   1.790  10.318   7.621 -0.4785 -0.4908 -0.0088
  363MOL0     C50012   1.821  10.375   7.500  0.2721  0.1344 -0.1922
  363MOL0     C50013   1.782  10.498   7.467 -0.1958  0.3076  0.5197
  363MOL0     C50014   1.702  10.577   7.554 -0.0817  0.6404 -0.5361
  363MOL0     O50015   1.693  10.709   7.533 -0.0046 -0.5503 -0.2295
  363MOL0     C50016   1.572  10.777   7.577 -0.3488 -0.2640 -0.0504
  363MOL0     C50017   1.558  10.910   7.513  1.1839  0.2307 -0.1795
  363MOL0     C50018   1.566  10.894   7.363 -0.4740  0.6834  0.5109
  363MOL0     C50019   1.565  11.032   7.293 -0.7071  0.3312 -0.1550
  363MOL0     C50020   1.540  11.002   7.152 -0.1196  0.3814 -1.2213
  363MOL0     C50021   1.510  10.967   7.035  0.9560  0.1462  0.8894
  363MOL0     C50022   1.679  10.526   7.680  0.3591 -0.4496 -0.7021
  363MOL0     C50023   1.719  10.395   7.712  0.1096 -0.3750  0.5250
  363MOL0     C50024   1.681  10.356   7.849  1.0158  0.0959  0.4630
  363MOL0     H50025   1.757   9.911   7.571  1.9156  0.1223 -1.5588
  363MOL0     H50026   1.835   9.683   7.595  0.9218  1.3350 -0.5164
  363MOL0     H50027   1.896   9.474   7.670  2.1361  1.1832  0.9863
  363MOL0     H50028   1.751   9.476   7.785 -0.1710 -1.7134  3.0378
  363MOL0     H50029   2.006   9.361   7.825 -0.2289  2.3926  0.2468
  363MOL0     H50030   1.867   9.361   7.949 -1.8764  0.8762  0.3125
  363MOL0     H50031   1.735   9.223   7.781 -0.5073 -0.3675  0.1465
  363MOL0     H50032   1.892   9.187   7.700 -0.0373 -0.2701 -0.6173
  363MOL0     H50033   1.989   9.099   7.891  0.6851  0.7558  0.4983
  363MOL0     H50034   1.851   9.130   7.990  2.9715 -1.3385  0.8946
  363MOL0     H50035   1.855   8.900   7.941 -0.5954  1.8993  0.2315
  363MOL0     H50036   1.863   8.924   7.757  1.5827  1.6881 -0.9602
  363MOL0     H50037   1.638   9.018   7.933  0.3446  1.0836  1.0760
  363MOL0     H50038   1.640   9.021   7.760  1.7194 -1.6072 -2.1641
  363MOL0     H50039   1.676   8.766   7.928 -1.2638  0.7756  1.6891
  363MOL0     H50040   1.617   8.767   7.761 -3.3615  0.0428 -0.0826
  363MOL0     H50041   1.456   8.725   7.960 -2.0457  0.3683 -0.3172
  363MOL0     H50042   1.459   8.895   7.980 -0.3424  0.2051 -0.5505
  363MOL0     H50043   1.432   9.010   7.692 -0.4756  0.0362  0.7030
  363MOL0     H50044   1.164   9.093   7.586 -2.2210  0.2568 -0.9408
  363MOL0     H50045   1.091   8.932   7.509  1.2734 -0.6108 -3.8561
  363MOL0     H50046   1.366   9.021   7.450 -0.6182 -3.5256  2.1278
  363MOL0     H50047   1.262   8.913   7.361  0.3503  0.5757 -1.9645
  363MOL0     H50048   1.209   9.217   7.391  2.3473 -0.0894  1.0686
  363MOL0     H50049   1.277   9.146   7.241 -0.2343 -0.8120 -0.0165
  363MOL0     H50050   0.996   9.110   7.335 -2.8889 -1.2848 -3.2810
  363MOL0     H50051   1.058   9.217   7.202 -0.1849  0.1705 -0.8135
  363MOL0     H50052   0.828   9.143   7.196  1.2639  2.3216 -1.2244
  363MOL0     H50053   0.598   9.171   7.196 -1.1554  4.6068 -2.6688
  363MOL0     H50054   0.487   9.053   7.140  0.2871  0.3777  0.1334
  363MOL0     H50055   0.543   9.179   7.034  0.9313  0.0766 -0.5670
  363MOL0     H50056   0.565   8.617   6.641 -0.6661 -1.5634  3.8458
  363MOL0     H50057   0.360   8.539   6.539 -1.0453 -0.5432  0.2352
  363MOL0     H50058   0.167   8.508   6.422  3.3307  1.4697  1.2978
  363MOL0     H50059   0.118   8.470   6.588  4.8654  0.4939 -1.1529
  363MOL0     H50060  -0.063   8.575   6.367  1.6658 -0.1733 -0.5803
  363MOL0     H50061  -0.086   8.416   6.449 -1.4178  0.3894  0.4220
  363MOL0     H50062  -0.249   8.546   6.498  2.5444 -3.7039 -1.3346
  363MOL0     H50063  -0.146   8.692   6.527  2.2560 -1.8005 -2.9802
  363MOL0     H50064  -0.061   8.558   6.749  0.0605 -1.7781  0.6414
  363MOL0     H50065  -0.161   8.431   6.683  3.5067 -0.9951  3.3457
  363MOL0     H50066  -0.365   8.590   6.711  0.6683  2.9815 -1.7896
  363MOL0     H50067  -0.296   8.542   6.870  1.0878 -2.0495 -0.3696
  363MOL0     H50068  -0.265   8.808   6.701  1.9110  0.1726  0.6748
  363MOL0     H50069  -0.185   8.788   6.860  1.0526  0.0634 -0.1790
  363MOL0     H50070  -0.431   8.748   6.950 -2.1046  0.7560 -1.2700
  363MOL0     H50071  -0.479   8.828   6.795 -0.7383 -1.2967  0.1442
  363MOL0     H50072  -0.448   9.023   6.919 -0.6828 -0.2990 -1.9552
  363MOL0     H50073  -0.287   8.990   6.870 -0.7401 -0.9670 -0.4005
  363MOL0     H50074   0.174   8.921   6.583 -0.4931 -0.8625  0.1107
  363MOL0     H50075   0.387   9.018   6.669  0.9694  1.1628  0.8886
  363MOL0     H50076   0.833   8.834   6.820  0.3707  1.0561  0.1844
  363MOL0     H50077   1.017   8.834   6.962 -1.0652 -1.6268  0.4030
  363MOL0     H50078   1.925   9.775   8.007  3.1004 -0.6456 -1.3592
  363MOL0     H50079   1.852  10.004   7.969 -3.5054  0.2279  2.4344
  363MOL0     H50080   1.879  10.318   7.427 -2.0261 -0.4912 -1.6185
  363MOL0     H50081   1.822  10.558   7.386  0.8224  1.2522  1.6705
  363MOL0     H50082   1.484  10.718   7.551 -1.1907  0.6271  0.7269
  363MOL0     H50083   1.558  10.782   7.685 -1.1335 -0.5235 -0.1331
  363MOL0     H50084   1.631  10.987   7.540 -0.0899  1.2300  0.5257
  363MOL0     H50085   1.469  10.963   7.546  1.9565  1.9390 -0.7584
  363MOL0     H50086   1.660  10.848   7.331 -1.2910 -2.2486  1.9736
  363MOL0     H50087   1.480  10.835   7.328  0.4123  0.9062 -2.3524
  363MOL0     H50088   1.664  11.078   7.298 -0.4660 -0.0900 -0.8498
  363MOL0     H50089   1.492  11.107   7.325  0.2517  1.9022 -1.4973
  363MOL0     H50090   1.485  10.930   6.938  1.1271 -0.7855  1.1900
  363MOL0     H50091   1.619  10.587   7.746  0.0055  2.1755 -3.2791
  363MOL0     H50092   1.761  10.303   7.901  0.5635  0.4999  1.6222
  363MOL0     H50093   1.663  10.439   7.919  1.2919  0.2170  0.3927
  363MOL0     H50094   1.586  10.301   7.844 -0.7277  2.8773  0.5971
  364MOL0     O50095   5.679   2.363   6.516  0.2867  0.2596 -0.5334
  364MOL0     C50096   5.734   2.451   6.447  0.7915 -0.4310  0.5956
  364MOL0     O50097   5.818   2.419   6.350 -0.1745 -0.9020 -0.2289
  364MOL0     C50098   5.843   2.282   6.327 -0.2435 -0.2454  0.7255
  364MOL0     C50099   5.783   2.214   6.226 -0.1867 -0.5754  0.2498
  364MOL0     C50100   5.808   2.084   6.202 -0.9572  0.9814  0.0557
  364MOL0     C50101   5.916   2.015   6.271  0.1719 -0.4404 -0.3551
  364MOL0     O50102   5.962   1.890   6.229  0.7567  0.2868 -0.7218
  364MOL0     C50103   5.906   1.831   6.109 -0.0442 -0.0918 -0.4223
  364MOL0     C50104   5.970   1.690   6.098  1.4188 -0.2490  0.5285
  364MOL0     C50105   5.919   1.634   5.952  1.3597  0.5902 -0.3804
  364MOL0     C50106   5.929   1.473   5.949 -0.1027 -1.3249 -0.2534
  364MOL0     C50107   6.064   1.425   5.901 -0.6612 -0.0555  0.1576
  364MOL0     C50108   6.075   1.277   5.856  0.6101 -0.4785  0.1954
  364MOL0     C50109   6.038   1.181   5.977 -0.2505 -0.8108  0.2296
  364MOL0     C50110   6.163   1.153   6.059 -0.6398  0.0461 -0.9959
  364MOL0     N50111   6.218   1.269   6.128 -0.4296  0.2208  0.3792
  364MOL0     C50112   6.162   1.352   6.222  1.0424 -0.1600 -0.0028
  364MOL0     C50113   6.255   1.446   6.247  0.5398  0.5209  0.5780
  364MOL0     C50114   6.222   1.556   6.339 -0.5234  0.0905  0.6393
  364MOL0     C50115   6.294   1.549   6.474  0.1837 -0.0681 -0.4458
  364MOL0     C50116   6.245   1.670   6.569 -0.5543  0.5967  0.2932
  364MOL0     C50117   6.277   1.817   6.545  0.0940  0.6294  0.5487
  364MOL0     O50118   6.417   1.841   6.569 -0.2039 -0.0889  0.5964
  364MOL0     C50119   6.447   1.966   6.619 -0.1871  0.4751 -0.0787
  364MOL0     C50120   6.558   1.976   6.706  0.4706 -0.0016  0.0773
  364MOL0     C50121   6.587   2.091   6.787  0.2534 -0.1904 -0.3167
  364MOL0     C50122   6.713   2.090   6.872 -0.2902  0.0662 -0.3478
  364MOL0     C50123   6.502   2.201   6.774  0.1497  0.4735  0.1737
  364MOL0     C50124   6.539   2.333   6.830 -0.8830 -0.9239 -0.0323
  364MOL0     O50125   6.524   2.431   6.733  0.4348 -0.1380  0.2640
  364MOL0     C50126   6.530   2.562   6.774  0.2375  0.0282 -0.3981
  364MOL0     C50127   6.436   2.615   6.862  0.1684  0.6863 -0.0005
  364MOL0     C50128   6.431   2.752   6.893 -0.0222 -1.0185  0.1883
  364MOL0     C50129   6.509   2.842   6.822  0.3277 -0.0188 -0.2660
  364MOL0     O50130   6.494   2.972   6.855  0.6325 -0.2127 -0.0897
  364MOL0     C50131   6.604   3.064   6.819 -0.6952  0.2409 -0.5845
  364MOL0     C50132   6.550   3.203   6.810  0.0692 -0.2868  0.3579
  364MOL0     C50133   6.478   3.240   6.678 -0.4566 -0.4078 -0.2937
  364MOL0     C50134   6.412   3.370   6.686  0.2395 -0.3346  0.7808
  364MOL0     C50135   6.334   3.401   6.565  0.4460 -0.0711  0.6057
  364MOL0     C50136   6.237   3.520   6.589 -0.7311 -0.0817 -0.9260
  364MOL0     C50137   6.309   3.649   6.562  0.1068 -0.1421 -0.1304
  364MOL0     C50138   6.220   3.761   6.578  0.3622 -0.1857 -0.3958
  364MOL0    Cl50139   6.162   3.783   6.745  0.0278 -0.3581  0.0011
  364MOL0     C50140   6.604   2.786   6.734  0.0330 -0.1284  1.2138
  364MOL0     C50141   6.610   2.653   6.708 -0.6494  0.1313 -0.2753
  364MOL0     O50142   6.567   2.351   6.947  0.7407  0.6144  0.0796
  364MOL0     C50143   6.389   2.192   6.690  0.6128 -0.6251 -0.0025
  364MOL0     C50144   6.359   2.072   6.617  0.0339 -0.5704 -0.2763
  364MOL0     N50145   6.374   1.417   6.180  0.7910  0.6834 -0.1062
  364MOL0     N50146   6.349   1.310   6.107 -0.3986 -0.8984  0.2070
  364MOL0     C50147   5.988   2.096   6.369  0.3063 -0.3187  0.4388
  364MOL0     C50148   5.948   2.230   6.394 -1.0025 -0.2757 -0.4383
  364MOL0     C50149   5.691   2.590   6.463  0.2947  0.7457 -0.2563
  364MOL0     C50150   5.783   2.691   6.420  0.3604 -0.2487 -0.7988
  364MOL0     C50151   5.753   2.821   6.407 -0.4107 -0.6062 -0.4505
  364MOL0     C50152   5.630   2.863   6.454  0.1199  0.1287 -0.0344
  364MOL0     O50153   5.615   2.996   6.447  0.3350 -0.2106  0.1209
  364MOL0     C50154   5.519   3.085   6.521 -0.0487 -0.4115  0.1085
  364MOL0     C50155   5.572   3.113   6.664 -0.3752 -0.1180 -0.5165
  364MOL0     C50156   5.703   3.194   6.658 -0.9194  0.8457  0.5238
  364MOL0     C50157   5.757   3.219   6.806  0.0352 -0.6546 -0.3209
  364MOL0     C50158   5.671   3.313   6.881  0.1837  0.3187  0.0734
  364MOL0     C50159   5.604   3.392   6.945 -0.8740 -1.2855 -0.2830
  364MOL0     C50160   5.535   2.772   6.511 -0.6983  0.4341 -0.2691
  364MOL0     C50161   5.565   2.635   6.515 -1.4543  0.5387 -0.0401
  364MOL0     C50162   5.449   2.535   6.554 -0.8065 -0.9844 -0.8163
  364MOL0     H50163   5.702   2.256   6.167 -0.7924 -0.9436  0.8066
  364MOL0     H50164   5.745   2.037   6.126 -1.2501  1.7608 -0.1947
  364MOL0     H50165   5.929   1.896   6.024  2.3783 -1.4157 -0.8709
  364MOL0     H50166   5.798   1.813   6.112 -0.6613  2.8804 -1.0989
  364MOL0     H50167   6.078   1.705   6.098  1.7505 -2.3778  0.5615
  364MOL0     H50168   5.939   1.628   6.182  0.1435  0.3010  0.4897
  364MOL0     H50169   5.819   1.677   5.942  0.2032 -2.0107 -0.8842
  364MOL0     H50170   5.983   1.663   5.868 -0.9577  1.0201 -2.0970
  364MOL0     H50171   5.893   1.433   6.044  0.8693 -1.5041  0.0407
  364MOL0     H50172   5.854   1.443   5.875  0.5970 -1.4887 -0.9051
  364MOL0     H50173   6.150   1.458   5.961 -1.3161  0.8502  0.6144
  364MOL0     H50174   6.076   1.477   5.805  1.4993 -0.5838  0.0929
  364MOL0     H50175   6.011   1.267   5.768  4.3044  0.2393 -2.8268
  364MOL0     H50176   6.178   1.253   5.827  1.3586  4.0124 -1.5764
  364MOL0     H50177   6.007   1.080   5.952 -0.5271 -0.6489 -0.0821
  364MOL0     H50178   5.956   1.220   6.038  0.0848  0.1010  0.1152
  364MOL0     H50179   6.143   1.074   6.132  0.0995 -0.6045 -1.4788
  364MOL0     H50180   6.244   1.110   6.000  0.1563  2.9167 -2.1755
  364MOL0     H50181   6.068   1.341   6.277  1.2518 -1.2886  0.1552
  364MOL0     H50182   6.113   1.561   6.348 -0.9714  1.0360 -3.4901
  364MOL0     H50183   6.249   1.647   6.284 -2.5039  1.7443  2.2114
  364MOL0     H50184   6.276   1.459   6.533 -2.8668  2.2752  2.6254
  364MOL0     H50185   6.402   1.554   6.456  0.2960  0.6698  0.3525
  364MOL0     H50186   6.138   1.651   6.571 -0.3864 -0.3638  0.8600
  364MOL0     H50187   6.276   1.657   6.673 -2.5525  0.0241  0.8582
  364MOL0     H50188   6.256   1.840   6.440 -0.2317 -0.8173  0.2609
  364MOL0     H50189   6.204   1.875   6.601 -1.2343 -0.3070 -0.1414
  364MOL0     H50190   6.629   1.894   6.703  2.9182  1.9970  0.5768
  364MOL0     H50191   6.802   2.109   6.810 -0.1677 -3.8815 -1.6708
  364MOL0     H50192   6.735   1.990   6.911  0.2889  0.2637 -0.1668
  364MOL0     H50193   6.714   2.153   6.961  2.1585  0.6687 -0.7321
  364MOL0     H50194   6.356   2.550   6.897  0.6237 -0.5986 -1.2329
  364MOL0     H50195   6.363   2.807   6.956  2.2285 -0.0388  1.9105
  364MOL0     H50196   6.680   3.056   6.897  0.4601  1.2165 -1.5716
  364MOL0     H50197   6.646   3.035   6.722 -1.6928 -1.9609 -0.4238
  364MOL0     H50198   6.495   3.214   6.904 -0.8478 -1.3532 -0.0351
  364MOL0     H50199   6.642   3.259   6.829  0.2878 -0.7886  0.7959
  364MOL0     H50200   6.405   3.162   6.653 -0.5574  0.1838 -1.8944
  364MOL0     H50201   6.546   3.232   6.593  2.4980 -0.4255  1.9205
  364MOL0     H50202   6.505   3.427   6.689  0.5802 -0.8764  0.4990
  364MOL0     H50203   6.364   3.382   6.784  2.7295 -0.4314  2.0860
  364MOL0     H50204   6.397   3.406   6.476  0.7567  0.6870  0.8575
  364MOL0     H50205   6.260   3.322   6.550  0.9881 -0.2129 -1.6557
  364MOL0     H50206   6.188   3.518   6.687 -0.7006  3.2817 -0.6975
  364MOL0     H50207   6.163   3.525   6.509 -1.3113 -2.6298 -0.6166
  364MOL0     H50208   6.345   3.658   6.459  0.7949 -1.2034 -0.0056
  364MOL0     H50209   6.391   3.674   6.629 -1.5073  0.4289  1.7458
  364MOL0     H50210   6.140   3.757   6.504 -0.9477 -0.7234  1.0085
  364MOL0     H50211   6.279   3.851   6.556 -2.8127  1.9506 -0.8387
  364MOL0     H50212   6.670   2.849   6.675  0.8575 -1.5666  0.5351
  364MOL0     H50213   6.675   2.617   6.629  0.0849 -0.4586  0.5819
  364MOL0     H50214   6.327   2.280   6.678  2.8459  0.8276 -1.7528
  364MOL0     H50215   6.278   2.065   6.545  0.5960  0.2215 -1.0024
  364MOL0     H50216   6.073   2.045   6.412  0.5128 -2.2539 -2.0157
  364MOL0     H50217   6.005   2.294   6.460  0.6356  1.5527 -3.4111
  364MOL0     H50218   5.875   2.664   6.370  0.4648 -0.2491 -0.6091
  364MOL0     H50219   5.816   2.898   6.363  0.5974 -0.5227  1.0757
  364MOL0     H50220   5.516   3.176   6.461  2.7634  0.3214  0.9314
  364MOL0     H50221   5.415   3.049   6.525 -0.7730  1.5822  3.5969
  364MOL0     H50222   5.595   3.018   6.712 -1.3632 -0.4751 -0.7244
  364MOL0     H50223   5.491   3.158   6.723 -2.2319 -0.7986 -2.4183
  364MOL0     H50224   5.785   3.140   6.610 -0.2632  1.6266  0.7396
  364MOL0     H50225   5.697   3.284   6.596 -1.0279 -1.3299 -2.8349
  364MOL0     H50226   5.859   3.257   6.802  0.3527 -1.6111 -1.5821
  364MOL0     H50227   5.774   3.129   6.866 -1.3737  0.3722  1.7450
  364MOL0     H50228   5.553   3.457   7.012 -0.6426 -3.3069  2.0006
  364MOL0     H50229   5.436   2.800   6.545 -1.8877 -1.1062 -2.2771
  364MOL0     H50230   5.349   2.577   6.563 -0.4125 -0.2149  0.1476
  364MOL0     H50231   5.448   2.451   6.483 -0.8384  0.0229 -2.0316
  364MOL0     H50232   5.484   2.500   6.652  0.8517  0.5323 -0.8336
  365MOL0     O50233   0.241   1.779   5.929 -0.8691 -0.0014  0.0530
  365MOL0     C50234   0.221   1.665   5.906 -0.2037 -0.1139  0.1924
  365MOL0     O50235   0.224   1.610   5.781 -0.6041 -0.5030 -0.4114
  365MOL0     C50236   0.270   1.706   5.695 -0.0659  0.4097  0.0290
  365MOL0     C50237   0.169   1.759   5.618  0.3488  0.1019  0.3954
  365MOL0     C50238   0.199   1.842   5.509  0.2382  0.1718  0.0495
  365MOL0     C50239   0.338   1.864   5.482  0.4887 -0.2581  0.3673
  365MOL0     O50240   0.385   1.956   5.385  0.0681 -0.2087 -1.1020
  365MOL0     C50241   0.323   2.085   5.356 -0.7559  0.5171 -0.3407
  365MOL0     C50242   0.371   2.139   5.217  0.6234 -0.2155 -1.1797
  365MOL0     C50243   0.307   2.049   5.102 -0.4321  0.3481  0.1021
  365MOL0     C50244   0.383   2.063   4.976  0.7494 -0.2363 -0.4860
  365MOL0     C50245   0.340   1.953   4.889  0.5800  0.1665 -0.3359
  365MOL0     C50246   0.392   1.985   4.741 -0.3583  0.0897  0.0617
  365MOL0     C50247   0.540   2.003   4.711 -0.1606  0.2236  0.3371
  365MOL0     C50248   0.587   1.901   4.602  0.2043 -0.4680  0.7877
  365MOL0     N50249   0.725   1.909   4.563  0.0650 -1.0247 -0.2024
  365MOL0     C50250   0.752   1.948   4.434  0.3188 -0.0161 -0.0869
  365MOL0     C50251   0.877   1.903   4.416  0.2994  0.4867  0.3225
  365MOL0     C50252   0.977   1.916   4.299  0.6773  0.5380  0.5311
  365MOL0     C50253   1.047   2.056   4.300  0.0867  0.2370 -0.0762
  365MOL0     C50254   1.125   2.069   4.176 -0.2143 -0.3787  0.3087
  365MOL0     C50255   1.261   1.995   4.154  0.0868  0.9642  0.3903
  365MOL0     O50256   1.356   2.051   4.250 -0.6378  0.3867 -0.3505
  365MOL0     C50257   1.464   2.118   4.195 -0.3160 -0.6524 -0.8435
  365MOL0     C50258   1.489   2.250   4.253  0.3932 -0.3881 -0.6645
  365MOL0     C50259   1.581   2.340   4.205 -0.8903 -0.3348 -0.2915
  365MOL0     C50260   1.601   2.467   4.284 -0.3974  0.1786  0.0617
  365MOL0     C50261   1.660   2.303   4.095  0.7228  0.2589 -0.6984
  365MOL0     C50262   1.770   2.375   4.033  0.2136  0.2574 -0.7706
  365MOL0     O50263   1.787   2.360   3.895  0.7354 -0.2441 -1.0382
  365MOL0     C50264   1.893   2.421   3.834  0.6727 -0.2546 -0.0922
  365MOL0     C50265   2.027   2.372   3.858 -0.2479 -0.2382  1.3779
  365MOL0     C50266   2.130   2.427   3.778 -0.2609  0.1547 -0.1458
  365MOL0     C50267   2.110   2.518   3.672 -0.3246  0.3891 -0.1975
  365MOL0     O50268   2.217   2.560   3.599  0.4164  0.0632 -0.6327
  365MOL0     C50269   2.219   2.693   3.550  0.2289 -0.5714  0.3604
  365MOL0     C50270   2.310   2.778   3.630  0.1098  1.0348 -0.3730
  365MOL0     C50271   2.450   2.727   3.614 -0.2651  0.3802 -0.0279
  365MOL0     C50272   2.535   2.808   3.714  1.0116  0.6324  0.4970
  365MOL0     C50273   2.676   2.758   3.722 -0.6355  0.4791  0.5264
  365MOL0     C50274   2.763   2.836   3.814 -0.8136  0.8413  0.4430
  365MOL0     C50275   2.813   2.965   3.758  0.3075 -0.0221 -0.3331
  365MOL0     C50276   2.868   3.058   3.865  0.1133 -0.1249 -0.2417
  365MOL0    Cl50277   2.988   2.972   3.960  0.3366  0.4298  0.1831
  365MOL0     C50278   1.979   2.557   3.650 -0.1017  0.6135  0.8009
  365MOL0     C50279   1.876   2.508   3.730  0.0610 -0.5422 -0.5792
  365MOL0     O50280   1.841   2.447   4.105  0.8822  0.9516 -0.5944
  365MOL0     C50281   1.625   2.178   4.033 -0.8848 -0.2292  0.5178
  365MOL0     C50282   1.538   2.088   4.083 -0.6706  0.4763 -0.0791
  365MOL0     N50283   0.926   1.840   4.530  0.1849 -0.9923  0.9303
  365MOL0     N50284   0.835   1.852   4.616  0.6103 -1.0489 -0.1849
  365MOL0     C50285   0.444   1.812   5.561  0.1751 -0.0833  0.9658
  365MOL0     C50286   0.404   1.735   5.669 -0.8536  0.4362 -0.0123
  365MOL0     C50287   0.189   1.587   6.026 -0.1153  0.5105 -0.3238
  365MOL0     C50288   0.192   1.649   6.157 -0.9919 -0.9128  0.1706
  365MOL0     C50289   0.171   1.583   6.271 -0.6090  0.4985 -0.3269
  365MOL0     C50290   0.141   1.442   6.269 -0.2776 -0.0473 -1.1812
  365MOL0     O50291   0.104   1.358   6.375 -0.4781 -0.6503 -0.1721
  365MOL0     C50292   0.105   1.417   6.508  0.4131 -0.0064 -0.4140
  365MOL0     C50293  -0.031   1.485   6.541 -0.1415  0.2580  0.2337
  365MOL0     C50294  -0.134   1.381   6.560 -1.0032  0.1783  0.5866
  365MOL0     C50295  -0.282   1.431   6.557 -0.1254  0.8370  0.0707
  365MOL0     C50296  -0.317   1.494   6.430  0.9962  0.4985  1.0627
  365MOL0     C50297  -0.321   1.531   6.315  0.2497  0.7518  0.2830
  365MOL0     C50298   0.146   1.370   6.140 -0.1331 -0.4953 -0.3724
  365MOL0     C50299   0.174   1.440   6.023  0.3213 -0.6057  0.2796
  365MOL0     C50300   0.172   1.371   5.889  0.4700  0.5734  0.1743
  365MOL0     H50301   0.067   1.727   5.639  0.5210 -0.6446  0.1466
  365MOL0     H50302   0.140   1.899   5.437  4.5458  0.4426 -3.7300
  365MOL0     H50303   0.346   2.152   5.440  2.0593 -0.6376 -0.0749
  365MOL0     H50304   0.216   2.066   5.343 -1.0926  0.6484  1.7550
  365MOL0     H50305   0.346   2.243   5.195  2.4057  0.0425 -2.1701
  365MOL0     H50306   0.480   2.129   5.208  0.4061 -1.6757 -2.8243
  365MOL0     H50307   0.311   1.943   5.128 -2.4061  0.2069 -0.0339
  365MOL0     H50308   0.201   2.068   5.084 -0.2664 -0.7469 -2.4701
  365MOL0     H50309   0.355   2.158   4.929  1.1397  0.5706  0.8497
  365MOL0     H50310   0.491   2.066   4.993  0.5444  0.1864  0.9367
  365MOL0     H50311   0.231   1.948   4.896  0.4993  2.6654  1.6785
  365MOL0     H50312   0.378   1.858   4.929  0.6160  0.2028 -0.2827
  365MOL0     H50313   0.358   1.903   4.676  0.8125 -1.4582  1.3022
  365MOL0     H50314   0.351   2.082   4.711 -1.7914 -0.9080 -1.4130
  365MOL0     H50315   0.611   1.980   4.791 -0.1831 -1.7793 -0.1712
  365MOL0     H50316   0.555   2.108   4.685  0.7973 -0.3236 -1.5668
  365MOL0     H50317   0.571   1.802   4.647 -1.4865  0.4595  2.3629
  365MOL0     H50318   0.536   1.900   4.505  1.7848  0.9119 -0.1049
  365MOL0     H50319   0.675   1.990   4.370 -0.3843 -1.9578 -0.5786
  365MOL0     H50320   0.913   1.920   4.210 -1.6631 -2.1410  1.9244
  365MOL0     H50321   1.063   1.849   4.296  1.5041  1.5471 -3.3055
  365MOL0     H50322   0.974   2.137   4.295  0.8160  0.9257  0.3272
  365MOL0     H50323   1.108   2.055   4.390 -0.1219  0.7972  0.0713
  365MOL0     H50324   1.072   2.060   4.082  2.1936  1.7377 -1.4009
  365MOL0     H50325   1.138   2.178   4.174  0.4589 -0.4369  0.8034
  365MOL0     H50326   1.248   1.888   4.174 -0.9863  1.0857  0.3861
  365MOL0     H50327   1.304   2.014   4.055  0.5293  1.1983  0.6226
  365MOL0     H50328   1.447   2.273   4.351  2.0574  0.0943 -0.0241
  365MOL0     H50329   1.552   2.551   4.234 -1.4247  0.3320  1.2945
  365MOL0     H50330   1.704   2.504   4.291 -0.2271 -0.3765  0.5333
  365MOL0     H50331   1.561   2.459   4.385  1.9471 -0.0359  1.0321
  365MOL0     H50332   2.047   2.293   3.929  1.1042  0.9849  2.4063
  365MOL0     H50333   2.228   2.379   3.780 -1.2810 -2.1011 -0.9851
  365MOL0     H50334   2.256   2.693   3.447  0.9381 -1.5605  0.6058
  365MOL0     H50335   2.118   2.735   3.543  1.1014  1.3837 -2.1979
  365MOL0     H50336   2.301   2.886   3.614 -1.1562  0.5009 -4.1838
  365MOL0     H50337   2.272   2.769   3.732  2.4910 -0.2435  0.4833
  365MOL0     H50338   2.491   2.734   3.512 -0.4591  0.5488 -0.0951
  365MOL0     H50339   2.459   2.621   3.638  1.2821  1.0552  2.7392
  365MOL0     H50340   2.498   2.789   3.815  1.2278  0.8008  0.6075
  365MOL0     H50341   2.534   2.915   3.694 -1.3683  0.5846  0.0869
  365MOL0     H50342   2.677   2.659   3.769 -0.7073 -0.5346 -1.5322
  365MOL0     H50343   2.727   2.738   3.628  1.2038 -4.7097  2.2585
  365MOL0     H50344   2.847   2.767   3.826 -2.4739 -1.2220  0.7536
  365MOL0     H50345   2.712   2.845   3.911  1.4856 -1.8938  2.1037
  365MOL0     H50346   2.731   3.009   3.700 -0.3795 -2.0835 -1.0291
  365MOL0     H50347   2.889   2.947   3.681  0.0103  0.6271 -0.7931
  365MOL0     H50348   2.785   3.095   3.925 -0.3110 -0.7746 -0.4099
  365MOL0     H50349   2.910   3.147   3.819  0.0358  0.6210  1.0905
  365MOL0     H50350   1.956   2.619   3.564  1.8761  0.6274  0.2253
  365MOL0     H50351   1.774   2.543   3.716  1.0250  2.6114 -0.4185
  365MOL0     H50352   1.682   2.165   3.942 -1.0089 -1.5110  0.6137
  365MOL0     H50353   1.531   1.991   4.037  0.2144  0.9043 -1.1742
  365MOL0     H50354   0.546   1.836   5.531 -1.1623  1.7391 -2.7375
  365MOL0     H50355   0.477   1.694   5.737 -4.3357  0.3932  4.1622
  365MOL0     H50356   0.211   1.756   6.159  0.8256 -1.1776 -0.8348
  365MOL0     H50357   0.178   1.634   6.366 -0.1204  1.6041 -0.9302
  365MOL0     H50358   0.128   1.340   6.582  0.1290  1.5825  1.3963
  365MOL0     H50359   0.192   1.482   6.522 -0.4420  1.2830 -0.8705
  365MOL0     H50360  -0.047   1.561   6.464  2.2255 -0.5529 -1.1631
  365MOL0     H50361  -0.015   1.545   6.631  0.5248  1.0326 -0.3936
  365MOL0     H50362  -0.119   1.306   6.481 -2.2802  0.3551  0.1510
  365MOL0     H50363  -0.110   1.342   6.659  2.4897 -0.5513 -0.4006
  365MOL0     H50364  -0.311   1.496   6.640 -0.0090 -0.3007  1.0324
  365MOL0     H50365  -0.359   1.354   6.572 -0.8949  1.9167  2.0271
  365MOL0     H50366  -0.337   1.569   6.216 -0.0410 -1.3130 -0.5115
  365MOL0     H50367   0.102   1.272   6.142 -3.7701  0.9990 -0.3824
  365MOL0     H50368   0.276   1.363   5.856  0.3644 -0.4747  0.0595
  365MOL0     H50369   0.138   1.270   5.916 -2.4804  1.3890 -0.1278
  365MOL0     H50370   0.099   1.406   5.816  0.6657 -1.3248 -1.0051
  366MOL0     O50371   9.966   4.196   9.224  0.4388 -0.4310 -0.6988
  366MOL0     C50372   9.927   4.121   9.137 -1.0126  0.5783  0.0157
  366MOL0     O50373   9.961   4.125   9.005 -0.2099  0.3176  0.1660
  366MOL0     C50374  10.072   4.204   8.987  0.6355  0.3321 -0.1188
  366MOL0     C50375  10.060   4.299   8.889 -0.0547  0.0245  0.3256
  366MOL0     C50376  10.162   4.396   8.861  0.1960 -0.6191 -0.4179
  366MOL0     C50377  10.283   4.385   8.935  0.7928  0.0414 -0.2345
  366MOL0     O50378  10.371   4.495   8.907  0.6099  0.9128  0.1450
  366MOL0     C50379  10.477   4.517   9.005  0.5344  0.1925 -0.8158
  366MOL0     C50380  10.556   4.633   8.950 -0.2420 -0.4573 -0.3783
  366MOL0     C50381  10.688   4.666   9.032 -0.2825 -0.2066  0.8858
  366MOL0     C50382  10.678   4.815   9.064  1.2188 -0.1495  0.4096
  366MOL0     C50383  10.817   4.874   9.093  0.9539  0.1023  1.2710
  366MOL0     C50384  10.878   4.926   8.970  0.6127  0.3493 -0.2295
  366MOL0     C50385  11.030   4.974   9.000  0.0316 -0.4311  0.6065
  366MOL0     C50386  11.056   5.125   8.982  0.5684 -0.2038 -0.0179
  366MOL0     N50387  11.043   5.157   8.842 -0.7464 -0.2272  0.2970
  366MOL0     C50388  11.112   5.097   8.747  0.1209  0.2576  0.3328
  366MOL0     C50389  11.047   5.119   8.632 -0.9918 -0.1119 -0.9804
  366MOL0     C50390  11.108   5.071   8.506  0.0693  1.2869 -0.0603
  366MOL0     C50391  11.106   4.924   8.520  0.0096 -0.3943 -0.2898
  366MOL0     C50392  11.132   4.846   8.389 -0.3519  0.4312  0.7052
  366MOL0     C50393  11.010   4.848   8.299  0.3366  0.1039  0.3645
  366MOL0     O50394  11.045   4.784   8.173 -0.5241 -0.0322  0.1129
  366MOL0     C50395  11.120   4.841   8.075  0.3620  0.1983 -0.3626
  366MOL0     C50396  11.173   4.966   8.077 -0.6134  1.4355 -1.2488
  366MOL0     C50397  11.240   5.019   7.970 -1.0318  0.8071 -0.8963
  366MOL0     C50398  11.266   5.170   7.976  0.0214  0.3713 -0.0406
  366MOL0     C50399  11.261   4.940   7.858  0.5126 -0.0871 -0.2612
  366MOL0     C50400  11.335   4.998   7.740 -0.0440  0.1666  0.2312
  366MOL0     O50401  11.284   4.956   7.619 -0.6784  0.4039  0.1804
  366MOL0     C50402  11.368   4.986   7.513  0.0382 -0.6454 -0.0530
  366MOL0     C50403  11.470   4.893   7.472  0.8758 -0.2747  1.0068
  366MOL0     C50404  11.566   4.927   7.375  0.2814 -0.4325 -0.6941
  366MOL0     C50405  11.552   5.048   7.311  0.4929 -0.3451  0.0167
  366MOL0     O50406  11.624   5.085   7.201  0.3597 -0.1308 -0.5486
  366MOL0     C50407  11.736   5.007   7.158 -0.6605  0.1621  0.9227
  366MOL0     C50408  11.818   5.099   7.050  0.9951 -0.9203 -0.2373
  366MOL0     C50409  11.845   5.237   7.110  0.1941 -0.3020 -0.1109
  366MOL0     C50410  11.923   5.333   7.019 -0.6499  0.6042  0.1255
  366MOL0     C50411  11.835   5.412   6.923  0.9269 -0.7923  0.6957
  366MOL0     C50412  11.922   5.512   6.842 -0.3677 -0.1195 -0.1518
  366MOL0     C50413  12.007   5.437   6.731  0.6504 -0.2889 -0.4040
  366MOL0     C50414  11.926   5.348   6.640 -0.4985 -0.3077 -0.5417
  366MOL0    Cl50415  12.002   5.309   6.499  0.4819  0.1882  0.0049
  366MOL0     C50416  11.452   5.143   7.352 -0.7632  0.2911 -0.9062
  366MOL0     C50417  11.363   5.113   7.451  0.1345  0.5996 -1.8353
  366MOL0     O50418  11.441   5.056   7.757  0.0029  0.3570  0.5341
  366MOL0     C50419  11.207   4.810   7.855  0.0594 -0.2148 -0.6518
  366MOL0     C50420  11.133   4.759   7.961 -0.1303  0.1021  0.4916
  366MOL0     N50421  10.932   5.196   8.655 -0.5354 -0.9141 -0.1725
  366MOL0     N50422  10.934   5.215   8.783 -0.2333 -0.2756 -0.1025
  366MOL0     C50423  10.293   4.286   9.033  0.9565  0.9768  0.3301
  366MOL0     C50424  10.192   4.191   9.055  0.0732 -0.2527  0.6302
  366MOL0     C50425   9.840   4.012   9.182  0.5057 -0.0390  0.5943
  366MOL0     C50426   9.839   3.894   9.107  0.8758 -0.2917 -0.0406
  366MOL0     C50427   9.775   3.778   9.144 -0.0549  0.3629  0.0747
  366MOL0     C50428   9.710   3.771   9.266  0.3084 -1.0398  0.4751
  366MOL0     O50429   9.653   3.659   9.328  0.1472  0.2464 -0.3438
  366MOL0     C50430   9.667   3.517   9.278  0.1651  0.9364 -0.5820
  366MOL0     C50431   9.550   3.419   9.342  0.8047 -1.1360  0.1367
  366MOL0     C50432   9.533   3.305   9.244  0.2904  0.6154  0.8501
  366MOL0     C50433   9.410   3.210   9.279  0.0770  0.2902 -0.6133
  366MOL0     C50434   9.418   3.172   9.417  0.5419  0.5316  0.0439
  366MOL0     C50435   9.419   3.149   9.536 -0.0776  0.3759  0.5325
  366MOL0     C50436   9.708   3.889   9.345 -0.2713  0.2484 -0.4787
  366MOL0     C50437   9.770   4.004   9.310  0.7274  0.2668 -0.2895
  366MOL0     C50438   9.753   4.124   9.391  0.0939 -0.4319  0.1111
  366MOL0     H50439   9.975   4.285   8.822  1.5477 -0.7780 -1.6667
  366MOL0     H50440  10.148   4.467   8.780 -0.2943 -0.4094 -0.1563
  366MOL0     H50441  10.549   4.436   9.021  1.7392  1.4464  0.5209
  366MOL0     H50442  10.442   4.540   9.106 -1.6229 -2.4875 -0.8562
  366MOL0     H50443  10.583   4.602   8.849  0.2893  0.3287 -0.4834
  366MOL0     H50444  10.496   4.724   8.946  0.1505 -0.2334 -1.4521
  366MOL0     H50445  10.697   4.603   9.120  0.0118 -1.3222  0.0845
  366MOL0     H50446  10.769   4.648   8.960  0.5006 -0.7054  1.8672
  366MOL0     H50447  10.621   4.870   8.989 -0.6903 -0.6565  1.4241
  366MOL0     H50448  10.626   4.803   9.159  0.7202 -4.6164 -0.2291
  366MOL0     H50449  10.882   4.800   9.141  1.9838  0.3099  0.2567
  366MOL0     H50450  10.797   4.957   9.161 -0.3779  2.2850 -1.5554
  366MOL0     H50451  10.855   4.848   8.898 -1.1457  0.6467 -0.0271
  366MOL0     H50452  10.828   5.020   8.943  2.7966  1.9766  0.9986
  366MOL0     H50453  11.095   4.916   8.934 -1.3554 -0.6957 -0.5897
  366MOL0     H50454  11.052   4.938   9.101  0.6711 -1.2407  0.1895
  366MOL0     H50455  10.995   5.191   9.045 -0.7991 -0.1591 -1.3356
  366MOL0     H50456  11.152   5.152   9.028  1.1724 -1.2329 -0.6409
  366MOL0     H50457  11.202   5.036   8.747  1.1368  1.7137 -0.4152
  366MOL0     H50458  11.213   5.097   8.486  0.2773 -0.6690 -1.7949
  366MOL0     H50459  11.048   5.082   8.415 -2.4940 -1.1956  1.1674
  366MOL0     H50460  11.180   4.885   8.590  1.6531 -1.6145 -2.5725
  366MOL0     H50461  11.004   4.901   8.553 -0.5415  0.5366 -1.2717
  366MOL0     H50462  11.224   4.879   8.340 -0.2631  2.3480  2.0006
  366MOL0     H50463  11.142   4.744   8.428 -1.0763 -0.2499 -0.8360
  366MOL0     H50464  10.928   4.791   8.342 -1.8084  4.4617  2.7457
  366MOL0     H50465  10.965   4.948   8.289  0.1012  0.3829  3.2777
  366MOL0     H50466  11.145   5.027   8.162  0.4950  1.8074 -1.1344
  366MOL0     H50467  11.206   5.215   7.896  0.2186 -3.2393 -2.4769
  366MOL0     H50468  11.372   5.182   7.952 -0.3999 -1.1416 -3.2835
  366MOL0     H50469  11.256   5.213   8.076 -2.7456 -1.0618  0.4039
  366MOL0     H50470  11.480   4.793   7.512  0.7146 -0.4188  0.6862
  366MOL0     H50471  11.639   4.853   7.347  2.5063  0.2208  2.7952
  366MOL0     H50472  11.809   4.975   7.233 -0.1577  0.0247  0.3816
  366MOL0     H50473  11.698   4.917   7.110  0.6116 -0.3639  0.8768
  366MOL0     H50474  11.919   5.061   7.032  1.3154 -0.4540  0.5462
  366MOL0     H50475  11.771   5.104   6.951  4.2203 -3.4421 -2.0958
  366MOL0     H50476  11.912   5.227   7.196  1.3847 -2.3626 -1.1965
  366MOL0     H50477  11.755   5.282   7.153  0.7102 -1.1274  1.9289
  366MOL0     H50478  12.000   5.272   6.971  0.5636  1.4676  0.9372
  366MOL0     H50479  11.973   5.406   7.082 -1.2918  1.7490 -0.6481
  366MOL0     H50480  11.780   5.344   6.857 -0.2366  0.4605  0.3309
  366MOL0     H50481  11.764   5.472   6.981 -0.6721 -2.7853  0.9183
  366MOL0     H50482  11.982   5.577   6.906 -2.3357  2.1142 -0.3867
  366MOL0     H50483  11.853   5.580   6.790  0.0460  0.8001  0.4722
  366MOL0     H50484  12.098   5.396   6.775 -0.6004 -0.3470  2.3654
  366MOL0     H50485  12.043   5.516   6.665 -0.4464  0.0436 -0.6329
  366MOL0     H50486  11.827   5.387   6.616 -1.1993 -0.9148  1.1970
  366MOL0     H50487  11.906   5.252   6.688  1.0110 -0.6271 -0.4841
  366MOL0     H50488  11.446   5.235   7.294  1.2585 -1.4975 -4.3056
  366MOL0     H50489  11.290   5.190   7.478 -0.1965  0.0269 -1.0715
  366MOL0     H50490  11.234   4.757   7.764  2.4203  0.1915 -0.2389
  366MOL0     H50491  11.094   4.659   7.942  0.5567 -0.0761 -0.0434
  366MOL0     H50492  10.374   4.279   9.105  1.8989 -2.6526 -0.8757
  366MOL0     H50493  10.222   4.127   9.138  2.9185 -1.9899 -1.5423
  366MOL0     H50494   9.889   3.894   9.010 -0.4179 -2.5729 -0.7811
  366MOL0     H50495   9.780   3.697   9.073  0.4079  0.4573 -0.0003
  366MOL0     H50496   9.670   3.500   9.170  3.2152  1.1421 -0.6284
  366MOL0     H50497   9.762   3.471   9.308  0.8529  1.1814 -2.2970
  366MOL0     H50498   9.459   3.476   9.360 -0.4703 -3.1923  0.4679
  366MOL0     H50499   9.587   3.382   9.439 -0.4745 -1.2676  0.5921
  366MOL0     H50500   9.514   3.351   9.147 -0.6589  1.1979  1.3023
  366MOL0     H50501   9.614   3.233   9.234 -2.4598 -2.6110 -0.1804
  366MOL0     H50502   9.401   3.128   9.207  0.5221 -0.6122  0.3313
  366MOL0     H50503   9.313   3.259   9.275 -0.8998 -1.1315  2.4173
  366MOL0     H50504   9.416   3.121   9.640 -1.3075 -0.3679  0.3215
  366MOL0     H50505   9.656   3.890   9.441 -0.9726 -1.7383 -0.7827
  366MOL0     H50506   9.837   4.165   9.448 -0.4097  0.7680  0.0271
  366MOL0     H50507   9.723   4.201   9.319  3.3474  0.5105 -0.3750
  366MOL0     H50508   9.667   4.115   9.458 -1.7431  3.6957 -1.3048
  367MOL0     O50509   8.647   5.671   1.484  0.4355  0.0795  0.0101
  367MOL0     C50510   8.728   5.756   1.437 -0.1585  0.2430  0.6815
  367MOL0     O50511   8.781   5.848   1.513  0.2671  0.1350 -0.6060
  367MOL0     C50512   8.735   5.868   1.638 -0.5377  0.7118  0.1180
  367MOL0     C50513   8.812   5.849   1.747  0.5766  0.4814 -0.7100
  367MOL0     C50514   8.775   5.879   1.879 -0.1253  0.2400  0.2210
  367MOL0     C50515   8.647   5.930   1.908 -0.9421 -0.0783  0.3831
  367MOL0     O50516   8.631   5.970   2.043 -0.2259  0.0614 -0.0157
  367MOL0     C50517   8.493   5.962   2.091 -0.7187 -0.9327 -0.5277
  367MOL0     C50518   8.495   5.933   2.246 -0.0563  0.2634  0.5262
  367MOL0     C50519   8.359   5.968   2.300 -0.1520 -0.0181  0.4029
  367MOL0     C50520   8.360   5.948   2.448 -0.2383 -0.4780 -0.3234
  367MOL0     C50521   8.229   6.000   2.509 -0.0333  0.4392 -0.6901
  367MOL0     C50522   8.223   5.980   2.660 -0.1480  0.9368 -0.3823
  367MOL0     C50523   8.202   5.826   2.690 -0.8074  0.0765  0.9650
  367MOL0     C50524   8.189   5.802   2.845 -0.7308  0.7832  0.4016
  367MOL0     N50525   8.093   5.697   2.854  0.3731  0.5132  1.2291
  367MOL0     C50526   7.961   5.708   2.883 -0.3954 -0.3935 -0.4597
  367MOL0     C50527   7.900   5.596   2.840 -0.5737  0.5792 -0.7452
  367MOL0     C50528   7.750   5.564   2.856  0.0707 -0.5931  0.2151
  367MOL0     C50529   7.672   5.684   2.796  0.9696  0.2658 -0.8231
  367MOL0     C50530   7.539   5.627   2.749 -0.6251  0.7989  0.5875
  367MOL0     C50531   7.473   5.723   2.658 -0.2499 -0.5667 -0.7167
  367MOL0     O50532   7.497   5.857   2.694 -0.1794 -0.8561 -0.4461
  367MOL0     C50533   7.398   5.947   2.723 -0.0910 -0.6321  0.2142
  367MOL0     C50534   7.426   6.078   2.770  0.2638  0.3942  0.4679
  367MOL0     C50535   7.327   6.176   2.800 -1.5748 -0.3599  0.6174
  367MOL0     C50536   7.375   6.319   2.852  0.5890 -0.7490 -0.2777
  367MOL0     C50537   7.190   6.144   2.776  0.4551  0.4905 -0.8718
  367MOL0     C50538   7.078   6.231   2.824  0.4196 -0.6150 -0.3654
  367MOL0     O50539   7.042   6.350   2.758  0.2217  0.7976  0.1826
  367MOL0     C50540   6.939   6.434   2.796  0.3706 -0.3248 -0.0361
  367MOL0     C50541   6.928   6.499   2.925  0.5943  0.3865  0.4339
  367MOL0     C50542   6.829   6.595   2.943 -0.0383 -0.6491  0.3003
  367MOL0     C50543   6.757   6.641   2.837 -0.7425 -0.4048  0.2913
  367MOL0     O50544   6.672   6.748   2.836  0.5605  0.6394 -0.1166
  367MOL0     C50545   6.627   6.803   2.959 -0.3223  0.2184 -0.1856
  367MOL0     C50546   6.522   6.899   2.941 -0.6676  0.5770 -0.1428
  367MOL0     C50547   6.399   6.817   2.892 -1.0838 -0.3522 -0.3841
  367MOL0     C50548   6.293   6.920   2.855  0.7422  0.3389 -0.3964
  367MOL0     C50549   6.156   6.859   2.798 -1.0410 -0.0907 -0.1674
  367MOL0     C50550   6.064   6.766   2.887 -0.2665  1.5099 -1.1919
  367MOL0     C50551   5.988   6.829   3.002 -0.1928 -0.3151  1.2054
  367MOL0     C50552   5.907   6.726   3.078 -0.3168 -0.4239 -0.7536
  367MOL0    Cl50553   5.866   6.796   3.238 -0.0378 -0.0841  0.4550
  367MOL0     C50554   6.763   6.579   2.712 -0.2056 -0.7902 -0.4813
  367MOL0     C50555   6.848   6.466   2.693  0.0649  0.2261 -0.4797
  367MOL0     O50556   7.004   6.180   2.906  0.5261 -0.7969 -0.3259
  367MOL0     C50557   7.169   6.025   2.720 -0.4804  0.9434 -0.0316
  367MOL0     C50558   7.268   5.925   2.686  0.9324  0.4421  0.1424
  367MOL0     N50559   7.996   5.511   2.804  0.2506  0.4007 -0.4018
  367MOL0     N50560   8.109   5.572   2.816  0.6259 -0.2882  0.2811
  367MOL0     C50561   8.562   5.954   1.797  0.8948  0.1620 -0.4929
  367MOL0     C50562   8.602   5.923   1.669 -0.1597  0.0034  0.4577
  367MOL0     C50563   8.791   5.728   1.304 -0.7359  0.5369 -0.1774
  367MOL0     C50564   8.923   5.770   1.284  0.5873 -0.8050 -0.0267
  367MOL0     C50565   8.999   5.734   1.165  0.6891  0.1085  0.1114
  367MOL0     C50566   8.954   5.639   1.077  0.4304 -0.8619  0.6474
  367MOL0     O50567   9.026   5.612   0.967 -0.2013  0.5799 -0.1124
  367MOL0     C50568   8.960   5.552   0.852 -0.0987 -0.4114 -0.5389
  367MOL0     C50569   9.055   5.540   0.734  0.3253 -0.0304 -0.0895
  367MOL0     C50570   9.102   5.677   0.665 -0.8660  0.1161 -0.0077
  367MOL0     C50571   9.201   5.644   0.548 -0.0501 -0.0149  0.0241
  367MOL0     C50572   9.325   5.573   0.590 -1.0380 -0.3501 -0.2655
  367MOL0     C50573   9.426   5.522   0.632  0.7241 -0.2602 -0.2052
  367MOL0     C50574   8.813   5.596   1.097  0.1740  0.2798  1.2356
  367MOL0     C50575   8.740   5.634   1.207 -0.1313 -0.0870  0.1818
  367MOL0     C50576   8.603   5.570   1.223 -0.3489  0.3782 -0.2830
  367MOL0     H50577   8.918   5.828   1.731  0.2383 -0.9497 -1.3060
  367MOL0     H50578   8.846   5.872   1.961  0.9432  0.7547 -0.6304
  367MOL0     H50579   8.461   5.863   2.055 -1.4245 -0.4669 -1.2178
  367MOL0     H50580   8.428   6.046   2.068  1.2097  0.8673  0.2783
  367MOL0     H50581   8.514   5.828   2.271 -0.2139  0.3949  1.2191
  367MOL0     H50582   8.575   5.991   2.292  1.2364  0.8979 -2.2934
  367MOL0     H50583   8.326   6.067   2.266 -1.3007 -0.3316  0.5353
  367MOL0     H50584   8.282   5.904   2.256  0.6050 -1.3878  0.9983
  367MOL0     H50585   8.386   5.844   2.472 -1.6089 -0.7190  0.2152
  367MOL0     H50586   8.438   6.006   2.497 -0.7301 -0.9003  0.9886
  367MOL0     H50587   8.153   5.940   2.458  1.9174 -1.6370 -1.3343
  367MOL0     H50588   8.211   6.107   2.492  0.2670  1.3428  3.5487
  367MOL0     H50589   8.312   6.012   2.715 -0.0400 -0.0347  0.0207
  367MOL0     H50590   8.139   6.032   2.707  1.0933  0.9765  1.8902
  367MOL0     H50591   8.290   5.771   2.655 -2.4617 -0.9529 -1.8852
  367MOL0     H50592   8.109   5.790   2.645 -1.0162 -0.1330  1.5543
  367MOL0     H50593   8.286   5.767   2.879 -0.6756  1.4333  0.9294
  367MOL0     H50594   8.158   5.889   2.904  0.5182  1.7833 -0.3665
  367MOL0     H50595   7.909   5.789   2.935 -1.2998 -0.5776 -1.0593
  367MOL0     H50596   7.717   5.551   2.960 -0.1001 -3.3934 -0.1202
  367MOL0     H50597   7.746   5.463   2.816  2.4082 -0.2866 -0.9052
  367MOL0     H50598   7.650   5.760   2.872 -0.3938 -1.1567  0.2699
  367MOL0     H50599   7.730   5.731   2.716 -0.4608  0.0432 -2.0327
  367MOL0     H50600   7.543   5.535   2.690 -0.1796  0.5251  1.0271
  367MOL0     H50601   7.478   5.598   2.835 -1.2097 -4.9564 -1.3310
  367MOL0     H50602   7.509   5.708   2.556  0.4985 -2.3219 -0.2437
  367MOL0     H50603   7.368   5.696   2.642  0.5415 -2.9228 -2.5223
  367MOL0     H50604   7.521   6.106   2.815  0.4442 -3.4579  2.9176
  367MOL0     H50605   7.437   6.372   2.778 -1.0425 -0.1697 -1.2787
  367MOL0     H50606   7.440   6.307   2.939 -0.5957 -1.1159  0.5735
  367MOL0     H50607   7.290   6.383   2.877  1.7328 -0.5660  3.8796
  367MOL0     H50608   6.978   6.466   3.015  0.6442 -1.8884 -0.3820
  367MOL0     H50609   6.807   6.626   3.044 -2.6893 -0.3563 -0.3058
  367MOL0     H50610   6.598   6.730   3.035  0.9978  0.0989  0.2320
  367MOL0     H50611   6.722   6.844   2.997  0.5880 -0.1431 -1.9798
  367MOL0     H50612   6.503   6.940   3.041  1.6986  0.5227  0.4114
  367MOL0     H50613   6.539   6.978   2.867  3.7779  0.0204  0.0055
  367MOL0     H50614   6.383   6.741   2.969  0.9875 -1.3248 -0.8484
  367MOL0     H50615   6.421   6.765   2.798  0.3876 -0.8589  0.2089
  367MOL0     H50616   6.330   6.972   2.766 -0.8999 -0.0475 -1.3429
  367MOL0     H50617   6.276   6.992   2.935 -4.5276 -1.4690  0.4757
  367MOL0     H50618   6.086   6.939   2.771 -0.0770  0.6743 -0.4464
  367MOL0     H50619   6.188   6.790   2.719 -0.1328  3.2999 -3.0037
  367MOL0     H50620   6.131   6.687   2.922  0.0879 -0.0768 -5.0166
  367MOL0     H50621   5.987   6.709   2.836  1.7261 -0.9336 -1.6605
  367MOL0     H50622   5.929   6.909   2.956 -0.7384 -2.0067 -1.2196
  367MOL0     H50623   6.058   6.874   3.073  0.4522  2.8940 -1.1955
  367MOL0     H50624   5.965   6.637   3.102 -1.5311 -1.1703 -0.5212
  367MOL0     H50625   5.813   6.696   3.031  1.0924 -0.2871 -3.8426
  367MOL0     H50626   6.708   6.620   2.627  1.3755 -0.0434 -1.1762
  367MOL0     H50627   6.848   6.405   2.603 -0.7267 -0.0849 -0.2761
  367MOL0     H50628   7.065   5.994   2.707 -0.6153  1.8502 -1.3895
  367MOL0     H50629   7.238   5.845   2.619  2.9633  2.6915 -3.8615
  367MOL0     H50630   8.459   5.988   1.806  0.4721 -0.8193 -1.3139
  367MOL0     H50631   8.531   5.931   1.588 -0.6473  1.0074  0.9641
  367MOL0     H50632   8.954   5.840   1.361 -1.1698  0.0019 -0.0030
  367MOL0     H50633   9.096   5.781   1.151 -0.3333  2.0291 -1.1065
  367MOL0     H50634   8.925   5.453   0.883 -0.5317 -1.0384 -2.8198
  367MOL0     H50635   8.869   5.606   0.824 -0.3953  1.0709  2.7590
  367MOL0     H50636   9.009   5.471   0.663 -0.6894  0.1066  0.4055
  367MOL0     H50637   9.147   5.491   0.767  1.8900 -0.4020 -4.4461
  367MOL0     H50638   9.016   5.729   0.622  0.0703  1.1248 -0.7058
  367MOL0     H50639   9.151   5.741   0.740 -1.0960 -0.0073  0.2499
  367MOL0     H50640   9.228   5.742   0.506  1.8561 -1.4849 -2.4873
  367MOL0     H50641   9.150   5.590   0.469  0.6827 -2.1106  0.9271
  367MOL0     H50642   9.524   5.495   0.666  1.0566 -0.8972 -1.6255
  367MOL0     H50643   8.763   5.531   1.027  1.3033 -0.9810  1.5462
  367MOL0     H50644   8.574   5.515   1.133 -0.3190 -0.1696  0.0376
  367MOL0     H50645   8.591   5.503   1.308 -1.8790  0.2848 -0.5308
  367MOL0     H50646   8.525   5.647   1.227 -0.5806  0.1766 -0.8159
  368MOL0     O50647  10.900   0.957   4.251  0.2432 -0.1096  0.6643
  368MOL0     C50648  10.958   0.851   4.262  0.9705 -0.3303 -0.2189
  368MOL0     O50649  11.000   0.800   4.380 -0.5137  0.3835  0.0184
  368MOL0     C50650  10.971   0.874   4.492 -0.0498 -0.2511  0.8925
  368MOL0     C50651  11.072   0.953   4.540  1.1718  0.4574  0.1457
  368MOL0     C50652  11.067   0.997   4.673 -0.1008 -0.1614 -0.3530
  368MOL0     C50653  10.960   0.958   4.762 -0.2180  0.1182 -0.4701
  368MOL0     O50654  10.949   0.995   4.893 -0.7971 -0.6910 -0.2233
  368MOL0     C50655  10.842   0.934   4.980  0.4113  0.3632  1.0354
  368MOL0     C50656  10.870   0.964   5.120 -0.1147  0.0508  0.3627
  368MOL0     C50657  10.768   0.892   5.210  0.7117  0.0791 -0.3799
  368MOL0     C50658  10.819   0.753   5.246  0.8158  0.5517 -0.2514
  368MOL0     C50659  10.721   0.661   5.308  0.6375 -0.1875  0.2295
  368MOL0     C50660  10.748   0.517   5.291 -0.7150  0.0400  0.6120
  368MOL0     C50661  10.861   0.473   5.390  0.7971  0.4593 -0.1697
  368MOL0     C50662  10.920   0.335   5.375  0.6640  0.0390 -0.2476
  368MOL0     N50663  10.974   0.321   5.239 -0.6815 -0.3147 -0.1107
  368MOL0     C50664  11.079   0.401   5.193 -0.5293 -0.5382 -0.7509
  368MOL0     C50665  11.099   0.355   5.071 -0.1867 -0.7145  0.4246
  368MOL0     C50666  11.189   0.405   4.961 -0.5979 -0.6873  1.0600
  368MOL0     C50667  11.129   0.548   4.915 -0.3417  0.8578 -0.6253
  368MOL0     C50668  11.202   0.633   4.811 -0.0156  0.3515 -0.2433
  368MOL0     C50669  11.226   0.561   4.677  0.3635  0.3315 -0.1364
  368MOL0     O50670  11.317   0.643   4.604  0.7122  0.1991  0.5047
  368MOL0     C50671  11.359   0.587   4.478 -0.0156  0.0528 -0.7172
  368MOL0     C50672  11.313   0.466   4.413 -0.1926 -0.6096 -0.5529
  368MOL0     C50673  11.380   0.420   4.290  1.1287 -0.2536  0.1740
  368MOL0     C50674  11.338   0.292   4.238  0.2878  0.0807 -0.6248
  368MOL0     C50675  11.486   0.505   4.237 -0.4362  0.3223  0.4675
  368MOL0     C50676  11.559   0.478   4.109 -0.1086 -0.3734  0.1150
  368MOL0     O50677  11.677   0.549   4.084  0.4632  0.2763 -0.3297
  368MOL0     C50678  11.706   0.581   3.954  0.5426 -0.5274  0.3082
  368MOL0     C50679  11.613   0.596   3.848 -0.8846  0.3252 -0.6119
  368MOL0     C50680  11.657   0.637   3.723  0.2474 -0.0380 -0.0499
  368MOL0     C50681  11.792   0.673   3.707 -0.0036 -0.4993 -0.9986
  368MOL0     O50682  11.834   0.693   3.581 -0.5562  0.3641 -0.6748
  368MOL0     C50683  11.804   0.818   3.517 -0.3660  0.5591  0.1938
  368MOL0     C50684  11.906   0.922   3.487 -0.2934  0.0073  0.2866
  368MOL0     C50685  11.934   1.005   3.616 -0.7740  0.7801  0.2821
  368MOL0     C50686  12.059   1.089   3.600 -0.2054 -0.8333  0.6822
  368MOL0     C50687  12.138   1.119   3.731 -0.7993 -0.0151  0.9321
  368MOL0     C50688  12.259   1.211   3.704 -0.2704  0.7802 -0.5337
  368MOL0     C50689  12.363   1.191   3.822  0.2417  1.1027 -0.6174
  368MOL0     C50690  12.317   1.235   3.957 -0.5356 -0.0537  0.0033
  368MOL0    Cl50691  12.440   1.206   4.087  0.1810 -0.2864 -0.2276
  368MOL0     C50692  11.880   0.658   3.815  0.6015 -0.9250  0.3326
  368MOL0     C50693  11.835   0.620   3.942 -0.7076 -0.1102  0.0788
  368MOL0     O50694  11.511   0.397   4.034 -0.6227 -0.3257  0.4345
  368MOL0     C50695  11.540   0.614   4.315  0.5317  0.0372 -0.0827
  368MOL0     C50696  11.465   0.658   4.429  0.2574 -0.0365  0.3334
  368MOL0     N50697  11.026   0.242   5.049 -0.4150 -0.2929  0.2796
  368MOL0     N50698  10.944   0.220   5.145 -0.0681 -0.9365 -0.0400
  368MOL0     C50699  10.856   0.881   4.701 -0.0863 -0.8498  0.1542
  368MOL0     C50700  10.866   0.842   4.568 -0.0322 -0.0810 -0.6124
  368MOL0     C50701  11.002   0.760   4.148  0.1015 -0.2131  0.9505
  368MOL0     C50702  11.012   0.622   4.162 -0.7091  1.2403 -0.0480
  368MOL0     C50703  11.035   0.537   4.054  0.3092 -0.1611  0.3526
  368MOL0     C50704  11.051   0.591   3.921  0.9326  0.1509 -0.0676
  368MOL0     O50705  11.063   0.502   3.817  0.6435  0.2709  0.5491
  368MOL0     C50706  11.166   0.403   3.837  0.6032 -1.1643 -0.8857
  368MOL0     C50707  11.227   0.366   3.705 -0.1154  1.0106 -1.1741
  368MOL0     C50708  11.341   0.260   3.729 -0.1121 -0.3754  0.0741
  368MOL0     C50709  11.381   0.182   3.599  0.9113 -1.1113  0.2821
  368MOL0     C50710  11.286   0.078   3.556  0.7015  0.7881 -0.0979
  368MOL0     C50711  11.216  -0.010   3.522  0.1770  0.9525 -0.2233
  368MOL0     C50712  11.037   0.729   3.905 -0.0712 -0.6969 -0.2363
  368MOL0     C50713  11.017   0.815   4.017  0.4112 -0.1041 -0.1779
  368MOL0     C50714  11.023   0.971   3.983 -0.8818 -0.5074  0.2917
  368MOL0     H50715  11.148   0.971   4.464 -2.2423 -0.2275 -3.7764
  368MOL0     H50716  11.151   1.057   4.705 -0.7206 -0.3148  1.7283
  368MOL0     H50717  10.856   0.826   4.969 -0.4303  0.4105 -0.7380
  368MOL0     H50718  10.743   0.972   4.954  0.2861  0.8190  2.1002
  368MOL0     H50719  10.965   0.942   5.170  0.1851  0.9242  0.1873
  368MOL0     H50720  10.857   1.072   5.131  2.7932  0.3983  1.1593
  368MOL0     H50721  10.741   0.947   5.300  1.6452 -0.6347  0.3567
  368MOL0     H50722  10.672   0.885   5.159 -0.8334 -1.6640  2.5188
  368MOL0     H50723  10.852   0.688   5.164  1.3154 -1.5292  1.4951
  368MOL0     H50724  10.908   0.761   5.309  0.6440 -0.4187  0.1409
  368MOL0     H50725  10.622   0.673   5.263  0.5130 -0.4452  0.4308
  368MOL0     H50726  10.706   0.684   5.414  0.1046  0.2386  0.0685
  368MOL0     H50727  10.657   0.458   5.299 -1.1398  0.2750 -1.7941
  368MOL0     H50728  10.774   0.494   5.188 -1.2190 -2.2556  0.9551
  368MOL0     H50729  10.838   0.481   5.496  4.2028  1.4384  0.6158
  368MOL0     H50730  10.939   0.543   5.358 -0.6132  2.0259 -0.3293
  368MOL0     H50731  11.012   0.325   5.434  0.1736 -2.8224  0.1767
  368MOL0     H50732  10.862   0.252   5.416 -1.5813  1.8332  0.3984
  368MOL0     H50733  11.122   0.492   5.234 -0.7229 -0.7232 -0.1259
  368MOL0     H50734  11.178   0.334   4.879 -0.1367 -0.4164  0.7548
  368MOL0     H50735  11.294   0.422   4.987 -1.0137  1.0448  1.7871
  368MOL0     H50736  11.022   0.544   4.894 -0.8223  2.7169  1.1235
  368MOL0     H50737  11.136   0.612   5.003  0.0895  1.8018 -1.3334
  368MOL0     H50738  11.143   0.725   4.808  1.7217  1.6183  1.5928
  368MOL0     H50739  11.299   0.657   4.856  0.2858 -1.6138  0.2645
  368MOL0     H50740  11.251   0.455   4.689 -4.9446 -1.1858 -0.0441
  368MOL0     H50741  11.133   0.560   4.620  0.4395 -0.9676 -0.2716
  368MOL0     H50742  11.238   0.397   4.452 -0.9532 -0.6130 -1.9604
  368MOL0     H50743  11.284   0.236   4.315  1.0482  4.0845  3.2138
  368MOL0     H50744  11.428   0.233   4.216  1.2375  0.9905  0.6558
  368MOL0     H50745  11.277   0.293   4.148 -0.2707 -2.4062 -0.3484
  368MOL0     H50746  11.508   0.573   3.861 -0.7908  0.5575  0.7786
  368MOL0     H50747  11.580   0.642   3.646 -0.1238  1.1062  0.3763
  368MOL0     H50748  11.760   0.768   3.430 -2.1765 -0.2176  1.4879
  368MOL0     H50749  11.722   0.866   3.571  0.9843  0.4037  2.5170
  368MOL0     H50750  11.997   0.873   3.452  1.1549  2.0395  1.0179
  368MOL0     H50751  11.869   0.993   3.412  0.8556  2.0591  1.5788
  368MOL0     H50752  11.969   0.935   3.693  1.6077  1.2542 -0.2962
  368MOL0     H50753  11.843   1.054   3.652  0.2560  1.7300  1.7038
  368MOL0     H50754  12.044   1.187   3.555 -1.2141 -0.5065  1.6758
  368MOL0     H50755  12.127   1.034   3.535 -2.0305  1.0612 -3.0945
  368MOL0     H50756  12.066   1.169   3.797 -0.4243 -0.5409  1.7526
  368MOL0     H50757  12.171   1.023   3.773 -0.2979  0.0516  0.6953
  368MOL0     H50758  12.234   1.316   3.683 -0.2808  1.1983  1.3500
  368MOL0     H50759  12.305   1.160   3.620 -3.5933  1.3469 -2.8953
  368MOL0     H50760  12.458   1.244   3.812  1.5989 -0.1579  3.4667
  368MOL0     H50761  12.384   1.084   3.813 -2.8108  0.4155 -0.5715
  368MOL0     H50762  12.217   1.194   3.978  0.6861 -1.6562  3.5860
  368MOL0     H50763  12.314   1.343   3.945 -2.3100 -0.0041  0.5513
  368MOL0     H50764  11.983   0.691   3.807 -0.0924  2.1780  2.2227
  368MOL0     H50765  11.912   0.607   4.017  1.4985 -2.4516 -2.3831
  368MOL0     H50766  11.630   0.670   4.295  0.6849  0.4856  1.6586
  368MOL0     H50767  11.498   0.750   4.474 -1.7746  0.3070  1.2305
  368MOL0     H50768  10.773   0.836   4.755  1.3017 -1.6731  1.6910
  368MOL0     H50769  10.791   0.780   4.521  1.1982 -1.1753 -1.2229
  368MOL0     H50770  11.015   0.577   4.261  0.4724 -2.8602 -1.7156
  368MOL0     H50771  11.057   0.433   4.074 -0.1381 -0.3493 -0.1117
  368MOL0     H50772  11.242   0.439   3.907 -1.6841 -0.6346  1.4637
  368MOL0     H50773  11.118   0.313   3.877 -0.1290 -0.2279  0.3804
  368MOL0     H50774  11.280   0.452   3.663  3.3745  0.1601  1.0634
  368MOL0     H50775  11.153   0.315   3.643  1.1025 -0.8825 -1.1322
  368MOL0     H50776  11.421   0.319   3.775 -1.7662  1.8513  0.2738
  368MOL0     H50777  11.306   0.186   3.802  1.3668 -2.2141 -1.0017
  368MOL0     H50778  11.482   0.142   3.597  1.0335 -0.7806 -0.1617
  368MOL0     H50779  11.388   0.245   3.511 -0.4378 -0.9196  0.2846
  368MOL0     H50780  11.138  -0.076   3.489 -1.1038  1.1567  2.1940
  368MOL0     H50781  11.039   0.767   3.803  1.1361  1.0526  0.3967
  368MOL0     H50782  11.052   0.989   3.879 -1.9390  0.2490  0.1161
  368MOL0     H50783  10.925   1.018   3.992 -2.6185 -3.7720  0.2453
  368MOL0     H50784  11.088   1.013   4.060 -0.1382  0.7495 -0.9884
  369MOL0     O50785   5.434   6.619   7.739  0.1459 -0.2461  0.3873
  369MOL0     C50786   5.529   6.638   7.665  0.4276  0.0091 -0.1664
  369MOL0     O50787   5.545   6.737   7.565  0.3317  0.0138  0.8991
  369MOL0     C50788   5.473   6.854   7.568 -0.2444  0.3529  0.7099
  369MOL0     C50789   5.334   6.844   7.557 -1.1360  1.1716 -0.0981
  369MOL0     C50790   5.254   6.957   7.528 -0.6404 -1.3046 -0.0781
  369MOL0     C50791   5.310   7.079   7.502  0.2731 -0.1364 -0.3363
  369MOL0     O50792   5.239   7.197   7.470  0.2673  0.1156 -0.5235
  369MOL0     C50793   5.111   7.209   7.539  1.0141 -1.1174  0.7712
  369MOL0     C50794   5.064   7.365   7.519 -0.3969 -0.0958 -0.3625
  369MOL0     C50795   4.994   7.395   7.376  0.1688  0.3721 -0.3710
  369MOL0     C50796   5.088   7.372   7.263 -0.1666  0.2002 -1.4836
  369MOL0     C50797   5.026   7.448   7.143  0.2007  0.3346 -0.2204
  369MOL0     C50798   4.892   7.380   7.095  0.3808 -0.1920 -0.0129
  369MOL0     C50799   4.829   7.471   6.990  0.6711 -0.0610  0.0861
  369MOL0     C50800   4.700   7.407   6.927 -0.7865 -0.7771 -0.1280
  369MOL0     N50801   4.727   7.289   6.850  0.2149  0.6955  0.6399
  369MOL0     C50802   4.724   7.161   6.894 -0.2019  0.1801  0.5461
  369MOL0     C50803   4.752   7.084   6.787  0.1548  0.1095 -0.2881
  369MOL0     C50804   4.742   6.936   6.762 -0.3000 -0.4120 -0.2580
  369MOL0     C50805   4.865   6.887   6.702  0.3432 -0.0708 -0.3696
  369MOL0     C50806   4.984   6.902   6.798 -0.7979  0.1304  0.2113
  369MOL0     C50807   5.107   6.823   6.736  0.9189 -0.5703  0.0830
  369MOL0     O50808   5.214   6.847   6.835 -0.2134 -0.3554 -0.1977
  369MOL0     C50809   5.287   6.740   6.863  0.8485  1.3097 -0.3053
  369MOL0     C50810   5.295   6.715   7.003 -0.5044  0.1056 -0.1644
  369MOL0     C50811   5.353   6.599   7.053 -0.0521 -0.7668 -0.0646
  369MOL0     C50812   5.353   6.586   7.208  0.4275  0.8182  0.5030
  369MOL0     C50813   5.404   6.509   6.976  0.0427  0.1471  0.5814
  369MOL0     C50814   5.466   6.380   7.012  0.9380  0.2615 -0.5114
  369MOL0     O50815   5.547   6.377   7.125 -0.2516 -0.7575 -0.0140
  369MOL0     C50816   5.546   6.254   7.193 -0.5413  0.5856  0.2092
  369MOL0     C50817   5.437   6.173   7.225 -0.3486 -0.7336 -0.1292
  369MOL0     C50818   5.444   6.062   7.313  0.0432  0.4343 -0.4154
  369MOL0     C50819   5.568   6.009   7.362 -0.7591 -1.0414  0.1124
  369MOL0     O50820   5.580   5.892   7.423  0.1117 -0.4417 -0.1140
  369MOL0     C50821   5.457   5.814   7.452 -0.1200  0.5289 -0.4648
  369MOL0     C50822   5.367   5.868   7.559 -0.0755  0.8488  1.2398
  369MOL0     C50823   5.428   5.966   7.655 -1.3868 -0.1788 -0.9893
  369MOL0     C50824   5.500   5.893   7.776 -0.4762  0.8559 -0.5052
  369MOL0     C50825   5.544   5.998   7.872 -0.2434  0.2031 -0.3717
  369MOL0     C50826   5.620   5.935   7.987  0.7497 -0.4577  0.5327
  369MOL0     C50827   5.611   6.024   8.113 -0.8211 -0.3941 -0.5782
  369MOL0     C50828   5.671   5.952   8.246 -0.1625 -0.0758 -0.2074
  369MOL0    Cl50829   5.692   6.065   8.379  0.0723 -0.0111 -0.5232
  369MOL0     C50830   5.679   6.088   7.324 -0.6549  0.2135 -0.1986
  369MOL0     C50831   5.668   6.213   7.250  0.2041 -0.7496  0.0335
  369MOL0     O50832   5.442   6.281   6.951 -0.5150 -0.1212 -0.1670
  369MOL0     C50833   5.390   6.528   6.829  0.2290 -0.4296 -0.8454
  369MOL0     C50834   5.327   6.640   6.780  0.5896  0.0031 -0.4370
  369MOL0     N50835   4.782   7.165   6.678 -0.5176 -0.0471 -0.4248
  369MOL0     N50836   4.776   7.287   6.723 -0.4617  0.4080 -0.4589
  369MOL0     C50837   5.454   7.089   7.505  0.8583 -0.1079  0.9398
  369MOL0     C50838   5.527   6.974   7.541 -1.1910 -0.3210 -0.8329
  369MOL0     C50839   5.633   6.539   7.674  0.2839 -0.4847  0.2122
  369MOL0     C50840   5.604   6.412   7.631  0.9767  0.7697  0.0186
  369MOL0     C50841   5.706   6.319   7.634 -0.6820  1.4295 -0.4601
  369MOL0     C50842   5.834   6.350   7.672  0.1234  0.0359  0.6465
  369MOL0     O50843   5.916   6.246   7.659  0.0916 -0.2849  0.2661
  369MOL0     C50844   6.050   6.257   7.700 -0.2719 -0.0163 -0.6400
  369MOL0     C50845   6.053   6.220   7.845 -0.1995 -0.7711 -0.2718
  369MOL0     C50846   6.044   6.069   7.871 -0.1245 -0.1182  0.7980
  369MOL0     C50847   6.069   6.041   8.023  0.0369  0.7376 -0.5667
  369MOL0     C50848   6.091   5.896   8.019 -0.9041  0.1984  0.8632
  369MOL0     C50849   6.111   5.767   8.020 -0.3134 -0.6393 -0.2534
  369MOL0     C50850   5.863   6.479   7.711 -0.9063  0.7347  0.4568
  369MOL0     C50851   5.761   6.575   7.711 -0.8155 -0.6270  0.1904
  369MOL0     C50852   5.805   6.718   7.738 -0.2337 -0.6398  1.0773
  369MOL0     H50853   5.277   6.754   7.576 -0.0215  0.6019  0.6117
  369MOL0     H50854   5.149   6.930   7.527 -1.2449  0.7792 -2.0170
  369MOL0     H50855   5.112   7.190   7.647 -5.0190  0.2565  1.3986
  369MOL0     H50856   5.039   7.144   7.489 -0.4665 -0.0090  1.4093
  369MOL0     H50857   4.986   7.378   7.593 -1.0473 -2.9942 -0.4380
  369MOL0     H50858   5.142   7.436   7.549 -1.0585  1.1856 -1.5149
  369MOL0     H50859   4.916   7.318   7.373  3.0255 -2.7935 -0.1954
  369MOL0     H50860   4.955   7.497   7.375  1.0950  0.7449 -0.9519
  369MOL0     H50861   5.189   7.399   7.295 -1.8697  3.5654  1.8788
  369MOL0     H50862   5.094   7.267   7.235  1.2996 -1.5676  4.0958
  369MOL0     H50863   5.098   7.432   7.063 -1.1259  0.6878 -1.5236
  369MOL0     H50864   5.013   7.556   7.158 -2.4581 -0.1608  1.8137
  369MOL0     H50865   4.917   7.279   7.062  2.5778  0.8006 -1.6225
  369MOL0     H50866   4.815   7.381   7.173  0.9831 -0.8874  0.6004
  369MOL0     H50867   4.911   7.475   6.917  2.2335 -0.9595  1.7019
  369MOL0     H50868   4.799   7.573   7.018 -2.1731  0.6785 -4.5756
  369MOL0     H50869   4.630   7.374   7.005  0.2929 -1.2372  0.6768
  369MOL0     H50870   4.664   7.482   6.856  4.9116  0.0194 -2.6756
  369MOL0     H50871   4.698   7.121   6.992 -3.1014 -0.4497 -0.3811
  369MOL0     H50872   4.653   6.921   6.701  0.6518  0.2215 -1.8592
  369MOL0     H50873   4.731   6.883   6.857  2.8542 -0.2004  0.3356
  369MOL0     H50874   4.853   6.783   6.669 -3.2958  0.2003 -0.2913
  369MOL0     H50875   4.881   6.939   6.608  0.2980 -0.0523 -0.3668
  369MOL0     H50876   5.005   7.009   6.809 -0.3192 -0.0270  0.8667
  369MOL0     H50877   4.974   6.857   6.898  3.5152 -0.2385  0.6347
  369MOL0     H50878   5.079   6.718   6.722 -1.2610 -0.3294  2.0583
  369MOL0     H50879   5.134   6.860   6.637  1.3087 -2.4557 -0.5612
  369MOL0     H50880   5.256   6.783   7.078 -2.9143 -1.7019  0.3334
  369MOL0     H50881   5.455   6.601   7.245  0.4745  1.5448  0.0943
  369MOL0     H50882   5.309   6.493   7.244 -2.4793  2.2748  1.0240
  369MOL0     H50883   5.277   6.652   7.251  0.5642  0.9023  0.6185
  369MOL0     H50884   5.337   6.198   7.193  0.4070  1.7429 -0.7950
  369MOL0     H50885   5.346   6.016   7.323  1.0682 -1.9939 -0.9534
  369MOL0     H50886   5.389   5.785   7.371 -1.1904 -2.2751  1.2907
  369MOL0     H50887   5.492   5.720   7.494 -1.9554  1.2050  2.8481
  369MOL0     H50888   5.284   5.915   7.506  0.5071 -1.3519 -1.8629
  369MOL0     H50889   5.328   5.783   7.615  0.7027 -0.1686  0.2851
  369MOL0     H50890   5.353   6.032   7.698  1.0738  1.3064  1.3846
  369MOL0     H50891   5.499   6.037   7.610  0.9769  0.6064  3.4182
  369MOL0     H50892   5.580   5.825   7.745  1.7606  2.2015  1.8442
  369MOL0     H50893   5.428   5.831   7.831  0.2494  0.1362 -0.3379
  369MOL0     H50894   5.608   6.070   7.819 -4.4099  3.0252 -2.1161
  369MOL0     H50895   5.458   6.061   7.899 -0.6425 -0.7575  0.6381
  369MOL0     H50896   5.726   5.928   7.962  1.0996  1.4717  1.2674
  369MOL0     H50897   5.589   5.833   8.009  0.3767 -0.7483 -1.2062
  369MOL0     H50898   5.506   6.051   8.130 -0.9200 -1.3999  0.5559
  369MOL0     H50899   5.668   6.113   8.085  0.6852 -1.2486 -0.3107
  369MOL0     H50900   5.760   5.893   8.222  0.9764  1.4423  0.1408
  369MOL0     H50901   5.602   5.876   8.287 -0.6965 -0.1182 -1.1490
  369MOL0     H50902   5.780   6.065   7.357  0.0258  1.9495 -0.9324
  369MOL0     H50903   5.750   6.283   7.242 -0.3521  0.1441  1.6431
  369MOL0     H50904   5.439   6.457   6.763 -2.4040 -3.2581  0.0707
  369MOL0     H50905   5.327   6.649   6.672  2.5277  0.5263 -0.4343
  369MOL0     H50906   5.498   7.182   7.471 -1.7433  1.6115  1.9441
  369MOL0     H50907   5.635   6.971   7.548 -1.2841 -2.9700  0.9051
  369MOL0     H50908   5.501   6.392   7.603  1.7516 -1.9480 -1.2111
  369MOL0     H50909   5.685   6.213   7.618 -1.5121  2.0365 -4.0485
  369MOL0     H50910   6.102   6.179   7.644 -2.2687 -0.3784 -2.0769
  369MOL0     H50911   6.092   6.354   7.673 -0.7737 -0.0139 -1.4527
  369MOL0     H50912   5.985   6.281   7.904 -2.5017  1.3365 -4.5647
  369MOL0     H50913   6.152   6.249   7.880 -0.9733  0.4581  1.0081
  369MOL0     H50914   5.944   6.029   7.850  0.2295 -1.2135  1.1176
  369MOL0     H50915   6.114   6.013   7.807 -0.3179  0.6381 -0.1056
  369MOL0     H50916   5.985   6.074   8.085  2.3377  0.8409  2.7897
  369MOL0     H50917   6.156   6.092   8.064 -0.6358  2.9750 -1.7622
  369MOL0     H50918   6.126   5.662   8.014  1.9597 -0.4707  1.3954
  369MOL0     H50919   5.960   6.514   7.743 -0.4675 -0.4022  0.4130
  369MOL0     H50920   5.751   6.794   7.680  0.2787 -0.3928  0.9178
  369MOL0     H50921   5.783   6.736   7.844 -1.5641 -0.5930  0.8030
  369MOL0     H50922   5.912   6.740   7.727 -0.9432  3.6264  0.7486
  370MOL0     O50923   7.749   2.425   9.874 -0.1366  0.0075 -0.4318
  370MOL0     C50924   7.812   2.522   9.919 -1.2577  1.1915 -0.3039
  370MOL0     O50925   7.776   2.650   9.916  0.0913 -0.3914 -0.1490
  370MOL0     C50926   7.666   2.685   9.847  0.5864  0.3537 -1.3743
  370MOL0     C50927   7.690   2.727   9.719  1.1367 -0.4004 -0.5379
  370MOL0     C50928   7.585   2.758   9.630  0.2071 -0.4627 -0.7024
  370MOL0     C50929   7.458   2.756   9.691 -0.7860 -0.0778 -0.2379
  370MOL0     O50930   7.345   2.805   9.634  0.4796 -0.2293  0.3785
  370MOL0     C50931   7.344   2.896   9.524  0.7315  0.1835  0.7073
  370MOL0     C50932   7.208   2.958   9.491  0.2110  0.5058 -0.4614
  370MOL0     C50933   7.233   3.054   9.379  0.7804  0.5392 -0.1646
  370MOL0     C50934   7.117   3.121   9.311 -0.2249  0.3071 -0.1818
  370MOL0     C50935   7.027   3.209   9.400  0.0785  0.1262  0.1584
  370MOL0     C50936   7.097   3.336   9.463 -0.9857  0.0871 -0.0335
  370MOL0     C50937   7.020   3.396   9.577 -0.8296  0.0531 -0.8498
  370MOL0     C50938   7.086   3.513   9.634  0.8558 -0.1963  0.8478
  370MOL0     N50939   7.068   3.634   9.544  0.3141 -0.1476  0.1216
  370MOL0     C50940   7.143   3.678   9.443 -0.0735 -0.2669 -0.3146
  370MOL0     C50941   7.077   3.786   9.400  0.2814 -0.0560 -0.9867
  370MOL0     C50942   7.137   3.872   9.290 -0.7945 -0.4639  0.0941
  370MOL0     C50943   7.040   3.945   9.196  0.4303  0.2044 -0.1698
  370MOL0     C50944   7.115   4.031   9.101  0.7743  0.6504 -0.6454
  370MOL0     C50945   7.026   4.156   9.076  0.5776 -0.0767  0.0605
  370MOL0     O50946   6.883   4.130   9.044 -0.3700  0.5487  0.1223
  370MOL0     C50947   6.830   4.138   8.916  0.5718  0.4771  0.3999
  370MOL0     C50948   6.900   4.123   8.806  0.7015  0.4819  0.2706
  370MOL0     C50949   6.844   4.150   8.682  0.5112  0.1519  0.0694
  370MOL0     C50950   6.927   4.110   8.568  0.4865  0.4679  0.1432
  370MOL0     C50951   6.706   4.189   8.671 -0.0825  0.6436 -0.6604
  370MOL0     C50952   6.636   4.238   8.545 -1.1303  0.5495 -0.1678
  370MOL0     O50953   6.497   4.259   8.558  0.3340  0.1326  0.2116
  370MOL0     C50954   6.434   4.317   8.450  0.3183 -1.1135  0.4250
  370MOL0     C50955   6.346   4.413   8.496  0.6896  0.4861  0.3461
  370MOL0     C50956   6.278   4.499   8.412  0.0559 -0.3787 -0.4234
  370MOL0     C50957   6.280   4.471   8.274 -0.5919  1.0774 -0.3973
  370MOL0     O50958   6.206   4.558   8.195 -0.1929  0.3070  0.4576
  370MOL0     C50959   6.214   4.528   8.055 -0.2251 -0.3433 -0.5846
  370MOL0     C50960   6.120   4.625   7.992 -0.5795 -0.9028  0.1793
  370MOL0     C50961   6.158   4.773   7.993  0.5090 -0.1951 -0.1136
  370MOL0     C50962   6.040   4.858   7.945  0.2755 -0.0833 -0.7486
  370MOL0     C50963   6.093   5.000   7.910 -0.1577  0.9359  0.3753
  370MOL0     C50964   5.993   5.081   7.829 -0.3441  0.2549  0.3056
  370MOL0     C50965   6.062   5.219   7.794 -0.1258 -0.8212 -0.3244
  370MOL0     C50966   5.996   5.305   7.685  0.7333  0.4948 -0.1454
  370MOL0    Cl50967   6.046   5.235   7.523 -0.5151 -0.5612 -0.1785
  370MOL0     C50968   6.350   4.356   8.224  0.8308 -0.0133  1.1682
  370MOL0     C50969   6.431   4.287   8.314  0.8404  0.8936  0.6977
  370MOL0     O50970   6.696   4.247   8.433  0.9145  0.2282 -0.0062
  370MOL0     C50971   6.635   4.200   8.792  0.4250  0.6885  0.2513
  370MOL0     C50972   6.702   4.183   8.913 -0.7413  0.3569 -0.4260
  370MOL0     N50973   6.959   3.810   9.472 -0.4951  0.1130  0.1873
  370MOL0     N50974   6.955   3.715   9.554  0.1232 -0.2668 -0.0656
  370MOL0     C50975   7.438   2.704   9.820  0.3614 -0.5454 -0.0374
  370MOL0     C50976   7.542   2.669   9.907 -0.1192 -0.6569  0.4254
  370MOL0     C50977   7.937   2.493   9.995  0.5407  0.4539  0.0946
  370MOL0     C50978   7.982   2.365  10.009  0.4090 -0.2123  0.7958
  370MOL0     C50979   8.118   2.325  10.061 -0.9305  0.3990 -0.0942
  370MOL0     C50980   8.201   2.427  10.110  0.3233  0.0661 -0.2299
  370MOL0     O50981   8.320   2.406  10.174 -0.5898  0.0570  0.1139
  370MOL0     C50982   8.380   2.273  10.157  0.7116  0.8710  0.5799
  370MOL0     C50983   8.523   2.275  10.226  0.2015 -0.4327  0.1842
  370MOL0     C50984   8.522   2.397  10.326  0.0966 -0.0295 -0.0473
  370MOL0     C50985   8.656   2.407  10.394 -0.8324  0.9088 -0.5362
  370MOL0     C50986   8.654   2.519  10.492 -0.0639 -0.7066  0.9789
  370MOL0     C50987   8.641   2.610  10.570  0.0953 -0.2672  0.8228
  370MOL0     C50988   8.158   2.562  10.089 -1.1475 -0.0701 -0.7336
  370MOL0     C50989   8.036   2.595  10.029 -0.0354  0.0827 -0.0759
  370MOL0     C50990   8.029   2.745   9.996 -1.0469  0.4036 -0.3886
  370MOL0     H50991   7.790   2.740   9.679 -0.0518  1.2757 -3.2491
  370MOL0     H50992   7.599   2.803   9.532 -2.5218  0.2388 -0.8631
  370MOL0     H50993   7.375   2.841   9.435 -1.8823  1.1724 -0.9533
  370MOL0     H50994   7.403   2.981   9.556  1.1224  0.2437 -0.1532
  370MOL0     H50995   7.141   2.879   9.456 -0.2686  0.6206  0.1782
  370MOL0     H50996   7.169   3.011   9.578 -0.4771 -0.7769  0.0434
  370MOL0     H50997   7.296   3.134   9.417  1.1632  0.4387 -0.5800
  370MOL0     H50998   7.271   2.996   9.294 -3.0637 -0.1154 -1.6695
  370MOL0     H50999   7.159   3.182   9.230  0.5879  0.6352  0.4829
  370MOL0     H51000   7.053   3.055   9.251 -0.3236  1.9898 -2.0467
  370MOL0     H51001   6.986   3.147   9.480  1.6017 -1.3755 -0.1903
  370MOL0     H51002   6.934   3.239   9.349 -0.1206 -1.3521 -0.3990
  370MOL0     H51003   7.197   3.312   9.499 -0.9070 -1.5505 -1.2520
  370MOL0     H51004   7.106   3.409   9.382  1.0328 -0.2913 -0.1994
  370MOL0     H51005   7.020   3.333   9.666 -1.4554 -0.6637 -1.3524
  370MOL0     H51006   6.914   3.410   9.553 -0.9297 -0.1779 -0.5542
  370MOL0     H51007   7.033   3.534   9.728  0.1875 -1.5482  0.7964
  370MOL0     H51008   7.193   3.497   9.649  1.1594  0.0943 -0.8603
  370MOL0     H51009   7.235   3.626   9.417 -0.7547 -1.2602 -0.7990
  370MOL0     H51010   7.210   3.814   9.233 -0.2610  1.8237 -1.7512
  370MOL0     H51011   7.186   3.953   9.345 -2.6479  1.1593 -0.5138
  370MOL0     H51012   6.979   3.876   9.136  0.0864  0.1480  0.2419
  370MOL0     H51013   6.967   3.997   9.258 -1.1227 -1.7001 -0.3179
  370MOL0     H51014   7.201   4.079   9.148 -1.6404  0.6536  4.5094
  370MOL0     H51015   7.126   3.963   9.016 -2.7466 -1.6832  0.5210
  370MOL0     H51016   7.018   4.201   9.176  0.5932 -0.3216  0.1741
  370MOL0     H51017   7.081   4.222   9.009 -0.6378 -1.2408 -2.1993
  370MOL0     H51018   7.001   4.086   8.822  1.7400  3.6352  1.9015
  370MOL0     H51019   7.029   4.099   8.605 -0.0135  0.0017  1.4481
  370MOL0     H51020   6.924   4.185   8.488 -0.2211  0.0033 -0.2774
  370MOL0     H51021   6.897   4.014   8.526  2.6112  0.8258 -2.4401
  370MOL0     H51022   6.347   4.431   8.603  0.4751  5.3902 -0.2555
  370MOL0     H51023   6.208   4.571   8.451  0.3303 -1.5088  2.3914
  370MOL0     H51024   6.320   4.540   8.031 -0.6063  0.0002 -2.2115
  370MOL0     H51025   6.173   4.427   8.045 -0.7559 -0.1721 -0.1667
  370MOL0     H51026   6.100   4.601   7.888  2.5065  3.0836 -1.6297
  370MOL0     H51027   6.020   4.617   8.036 -1.1029 -1.6376 -1.1152
  370MOL0     H51028   6.247   4.789   7.932  0.9545  1.3020  0.8634
  370MOL0     H51029   6.184   4.811   8.093 -1.2555  1.4602 -0.2141
  370MOL0     H51030   5.971   4.869   8.029  1.7269  0.9560  0.3564
  370MOL0     H51031   5.995   4.806   7.860 -3.1025 -0.2452  0.9491
  370MOL0     H51032   6.103   5.049   8.007  2.0921  0.0350  0.6603
  370MOL0     H51033   6.183   4.996   7.848 -0.0866 -1.8993  0.5257
  370MOL0     H51034   5.895   5.093   7.875 -2.5236 -1.9695 -3.2330
  370MOL0     H51035   5.965   5.032   7.735 -1.3513  0.1154  0.6703
  370MOL0     H51036   6.170   5.202   7.785 -0.2541 -0.8588 -2.1580
  370MOL0     H51037   6.066   5.283   7.883  3.7861  3.5623 -3.2096
  370MOL0     H51038   6.014   5.412   7.703 -0.6439  0.6240  0.5794
  370MOL0     H51039   5.887   5.298   7.687  0.8569 -2.7915 -0.8358
  370MOL0     H51040   6.358   4.340   8.117  1.2969  2.8427  0.6959
  370MOL0     H51041   6.491   4.212   8.264  0.7239  1.5459 -0.4577
  370MOL0     H51042   6.534   4.235   8.779  0.0877 -0.8958 -1.9649
  370MOL0     H51043   6.646   4.193   9.005  2.1787 -1.4966  1.6973
  370MOL0     H51044   7.339   2.695   9.863  0.1034 -1.4843 -0.8064
  370MOL0     H51045   7.527   2.630  10.008 -0.8627  0.7368  0.8700
  370MOL0     H51046   7.912   2.289   9.977  1.5329 -1.2172  0.6554
  370MOL0     H51047   8.126   2.218  10.080 -1.3386  0.1231 -1.3535
  370MOL0     H51048   8.325   2.195  10.211  0.0751  0.8185 -0.1299
  370MOL0     H51049   8.390   2.227  10.058  2.6121 -1.1506  1.6108
  370MOL0     H51050   8.598   2.289  10.148  0.2150 -0.9900  0.0961
  370MOL0     H51051   8.545   2.176  10.267 -2.2618 -1.7986 -1.5193
  370MOL0     H51052   8.509   2.495  10.279 -1.0573 -0.2052 -0.1123
  370MOL0     H51053   8.435   2.386  10.392 -0.8973  0.7842 -1.1701
  370MOL0     H51054   8.745   2.437  10.336  1.9517  0.3784  3.1009
  370MOL0     H51055   8.684   2.310  10.436 -2.9305 -1.4084 -3.9397
  370MOL0     H51056   8.619   2.688  10.639  1.1517 -1.8191  3.0194
  370MOL0     H51057   8.230   2.639  10.117 -2.8377  1.0188  0.8789
  370MOL0     H51058   8.125   2.798   9.997 -1.4344  2.0077  6.5525
  370MOL0     H51059   7.994   2.761   9.894  1.1184 -1.0325 -1.4209
  370MOL0     H51060   7.975   2.802  10.072 -1.7133 -1.4085  0.5558
  371MOL0     O51061   8.256   1.385   1.854  0.1773  0.1606 -0.1815
  371MOL0     C51062   8.375   1.386   1.815  0.6530 -0.3958 -1.0541
  371MOL0     O51063   8.467   1.293   1.828  0.0121 -0.7629 -0.0537
  371MOL0     C51064   8.425   1.175   1.879 -0.4449 -0.0482  0.2593
  371MOL0     C51065   8.466   1.144   2.005  0.4553  1.1219  0.4053
  371MOL0     C51066   8.436   1.018   2.066  0.4697 -0.5750 -0.3107
  371MOL0     C51067   8.368   0.926   1.991  0.0494 -0.3505  0.2927
  371MOL0     O51068   8.375   0.804   2.038  0.2903 -0.0813  0.5222
  371MOL0     C51069   8.275   0.710   2.000  0.0086  0.1927 -0.5061
  371MOL0     C51070   8.321   0.591   2.061 -0.0822  0.2075 -0.2269
  371MOL0     C51071   8.235   0.466   2.051 -0.4271  0.2476 -0.9700
  371MOL0     C51072   8.306   0.350   2.112  0.1965  1.1322  0.0334
  371MOL0     C51073   8.240   0.215   2.082 -0.1569 -0.6846  0.4309
  371MOL0     C51074   8.316   0.094   2.130 -0.1426 -0.1951  0.4968
  371MOL0     C51075   8.462   0.095   2.067  0.2343 -0.6179  0.7691
  371MOL0     C51076   8.525  -0.052   2.076 -0.1860 -0.9274  0.0403
  371MOL0     N51077   8.654  -0.068   2.009  0.6099  0.2554 -0.1958
  371MOL0     C51078   8.770  -0.129   2.059 -0.0382 -0.3730  0.0586
  371MOL0     C51079   8.864  -0.087   1.973  0.6742 -0.1087  0.0144
  371MOL0     C51080   9.012  -0.123   1.997 -0.4245 -0.0187  0.0574
  371MOL0     C51081   9.057  -0.229   1.904  0.4789 -0.1872 -0.5766
  371MOL0     C51082   9.019  -0.367   1.942 -0.4001  0.3710 -0.5411
  371MOL0     C51083   9.058  -0.471   1.824 -0.7586  0.1306  0.3807
  371MOL0     O51084   8.991  -0.591   1.857  0.0226  0.1254  0.0877
  371MOL0     C51085   9.030  -0.674   1.964  0.1879 -0.0392 -0.5421
  371MOL0     C51086   8.939  -0.776   2.011 -0.3096 -0.5741 -0.3134
  371MOL0     C51087   8.978  -0.874   2.100 -0.7375  0.5879  0.2579
  371MOL0     C51088   8.868  -0.969   2.153  0.7596  0.1736  0.1312
  371MOL0     C51089   9.110  -0.881   2.148  0.2617  0.2701 -0.0547
  371MOL0     C51090   9.159  -0.971   2.259  0.7072  0.5229  1.7930
  371MOL0     O51091   9.289  -0.952   2.284  0.4907 -0.0188 -0.2841
  371MOL0     C51092   9.359  -0.999   2.395  0.1970 -0.8847  0.7882
  371MOL0     C51093   9.310  -1.084   2.502 -0.9677  0.3666  0.3387
  371MOL0     C51094   9.391  -1.126   2.609  1.0196  0.0077 -0.8083
  371MOL0     C51095   9.522  -1.084   2.618  0.5973 -0.4093  0.3099
  371MOL0     O51096   9.599  -1.120   2.723  0.1772  0.1793 -0.7786
  371MOL0     C51097   9.674  -1.239   2.709  0.6621  0.2065  0.8261
  371MOL0     C51098   9.670  -1.345   2.822  0.3537  0.2605 -0.1510
  371MOL0     C51099   9.681  -1.278   2.964 -0.4951  0.2473  0.2822
  371MOL0     C51100   9.692  -1.375   3.087  0.2148 -0.7712  0.0131
  371MOL0     C51101   9.754  -1.295   3.200 -0.5808  0.3543 -0.4260
  371MOL0     C51102   9.652  -1.209   3.273  0.7259 -0.7699 -1.3492
  371MOL0     C51103   9.669  -1.200   3.419  0.0349 -1.0826 -0.9601
  371MOL0     C51104   9.566  -1.100   3.479 -0.2377 -0.5416 -0.6462
  371MOL0    Cl51105   9.394  -1.167   3.495  0.0450  0.1890  0.3973
  371MOL0     C51106   9.572  -0.991   2.514 -0.2519  1.4015  0.0203
  371MOL0     C51107   9.495  -0.954   2.407 -0.7238  0.6533 -0.0553
  371MOL0     O51108   9.093  -1.054   2.314 -0.4176 -0.2602  0.8998
  371MOL0     C51109   9.189  -0.776   2.108 -0.5059  0.4482  0.6548
  371MOL0     C51110   9.150  -0.684   2.017 -0.2821  1.3226  0.2152
  371MOL0     N51111   8.816  -0.004   1.877  0.3335  0.1742 -0.1201
  371MOL0     N51112   8.691  -0.004   1.892 -0.2787  1.0175 -0.2302
  371MOL0     C51113   8.317   0.963   1.858 -0.1354 -0.8447  0.0949
  371MOL0     C51114   8.355   1.083   1.799  0.3469  0.0147  1.4476
  371MOL0     C51115   8.425   1.509   1.747  0.4676 -0.0629 -1.3190
  371MOL0     C51116   8.565   1.540   1.756  0.2108  0.4631  0.7251
  371MOL0     C51117   8.623   1.641   1.684 -0.5662 -0.4765  0.7952
  371MOL0     C51118   8.536   1.738   1.625 -0.3941  0.3729  0.1361
  371MOL0     O51119   8.576   1.853   1.559 -0.5241  0.7023 -0.4220
  371MOL0     C51120   8.717   1.867   1.533 -0.8595  0.0167  0.8002
  371MOL0     C51121   8.731   1.993   1.442  0.5238  0.3726  0.5945
  371MOL0     C51122   8.672   1.964   1.301 -0.4962 -0.4226 -0.9764
  371MOL0     C51123   8.693   2.091   1.212  0.3923 -0.1883 -0.1650
  371MOL0     C51124   8.625   2.211   1.250  0.0857  0.3251  0.0171
  371MOL0     C51125   8.568   2.318   1.270 -0.5071  0.0733 -0.7697
  371MOL0     C51126   8.404   1.711   1.616  0.4012  0.5525  0.0585
  371MOL0     C51127   8.340   1.592   1.676  0.2474 -0.2733  0.4273
  371MOL0     C51128   8.204   1.556   1.638  0.0026  0.4183  0.0276
  371MOL0     H51129   8.524   1.207   2.072 -0.2988  1.2101  0.9983
  371MOL0     H51130   8.464   0.992   2.167  0.7944 -0.5859 -0.4019
  371MOL0     H51131   8.258   0.706   1.892 -3.1820  1.5480 -0.1458
  371MOL0     H51132   8.175   0.732   2.037 -0.1391 -0.2367 -0.6405
  371MOL0     H51133   8.426   0.581   2.033  1.1499  2.6328  2.8622
  371MOL0     H51134   8.316   0.618   2.167  0.2665  0.1960 -0.2050
  371MOL0     H51135   8.137   0.480   2.097  0.6971  1.9431  1.0666
  371MOL0     H51136   8.224   0.456   1.942 -1.1876 -1.0962 -0.7919
  371MOL0     H51137   8.404   0.338   2.066 -0.1778  1.1754 -0.7859
  371MOL0     H51138   8.304   0.364   2.221  1.3573 -0.9279  0.3756
  371MOL0     H51139   8.239   0.194   1.975 -2.6774 -0.5615  0.3732
  371MOL0     H51140   8.138   0.220   2.122  0.8524  2.3738  3.0521
  371MOL0     H51141   8.353   0.107   2.232  2.5403 -0.1402 -0.4074
  371MOL0     H51142   8.261   0.002   2.112 -2.0577  1.3000 -1.9668
  371MOL0     H51143   8.527   0.167   2.117  2.7054 -0.7354 -1.9804
  371MOL0     H51144   8.456   0.135   1.966 -3.3273 -0.3463  0.9636
  371MOL0     H51145   8.523  -0.084   2.181  0.2211 -0.8722  0.0670
  371MOL0     H51146   8.455  -0.119   2.026  0.9468 -2.3048  0.2434
  371MOL0     H51147   8.773  -0.182   2.153 -0.7373 -0.1846  0.1936
  371MOL0     H51148   9.046  -0.140   2.100  0.5987 -0.3401 -0.3190
  371MOL0     H51149   9.073  -0.035   1.976 -0.7919 -0.0033 -1.0071
  371MOL0     H51150   9.026  -0.205   1.802  0.6487  3.1144  0.0385
  371MOL0     H51151   9.166  -0.231   1.904  0.5055  0.4963  0.3689
  371MOL0     H51152   9.073  -0.397   2.032  2.0855  0.1908 -2.0017
  371MOL0     H51153   8.913  -0.368   1.969  0.3524  2.0183  3.1919
  371MOL0     H51154   9.026  -0.443   1.723  1.0144  1.0104  0.0285
  371MOL0     H51155   9.166  -0.485   1.823 -1.1107 -3.7181  0.5589
  371MOL0     H51156   8.845  -0.775   1.956  0.3335  0.0405 -1.4504
  371MOL0     H51157   8.772  -0.968   2.100 -0.7935  1.8383  2.7506
  371MOL0     H51158   8.830  -0.932   2.249  4.3642  3.2624  0.6028
  371MOL0     H51159   8.897  -1.075   2.160  2.0465  0.3380 -2.0355
  371MOL0     H51160   9.214  -1.134   2.510 -0.9975  0.5379  1.1728
  371MOL0     H51161   9.357  -1.192   2.689  2.1600  0.2983 -0.0549
  371MOL0     H51162   9.636  -1.295   2.624 -0.8713  1.0128  0.9514
  371MOL0     H51163   9.778  -1.215   2.686  0.0949  0.7618 -1.3805
  371MOL0     H51164   9.573  -1.396   2.816  1.1156 -1.2510 -0.1467
  371MOL0     H51165   9.746  -1.423   2.805  0.5973  0.7831 -1.6318
  371MOL0     H51166   9.581  -1.233   2.966 -1.0691 -0.8218 -1.7625
  371MOL0     H51167   9.754  -1.197   2.958 -1.3242  1.0205  0.4163
  371MOL0     H51168   9.766  -1.451   3.059 -0.6836 -1.6964  0.1049
  371MOL0     H51169   9.599  -1.422   3.119  0.4881  0.4170  2.8351
  371MOL0     H51170   9.803  -1.364   3.270 -0.9361  0.2532 -0.2710
  371MOL0     H51171   9.841  -1.231   3.184  0.1147  0.0267  1.6411
  371MOL0     H51172   9.550  -1.239   3.243  0.3326  2.0646 -3.2006
  371MOL0     H51173   9.667  -1.108   3.234  1.5615 -1.1298 -1.9781
  371MOL0     H51174   9.768  -1.160   3.442 -1.0221  2.4993 -1.9640
  371MOL0     H51175   9.655  -1.301   3.458 -1.7363  0.0541  1.6274
  371MOL0     H51176   9.563  -1.016   3.409 -3.5463  0.7189  0.7834
  371MOL0     H51177   9.605  -1.071   3.576 -0.3960 -1.3785 -0.3213
  371MOL0     H51178   9.678  -0.971   2.510  0.0383 -0.1590 -2.6304
  371MOL0     H51179   9.546  -0.895   2.331 -0.9095  0.3901 -0.3857
  371MOL0     H51180   9.294  -0.779   2.133 -0.2034 -0.1745 -0.6158
  371MOL0     H51181   9.228  -0.615   1.988  0.4607  0.5860  0.4185
  371MOL0     H51182   8.264   0.895   1.793  1.6345 -2.2887  0.1026
  371MOL0     H51183   8.327   1.119   1.700 -0.1043  0.8301  1.8629
  371MOL0     H51184   8.626   1.457   1.790  0.6222  1.7383  3.4182
  371MOL0     H51185   8.731   1.643   1.686 -0.5660  2.3395  1.6291
  371MOL0     H51186   8.778   1.873   1.624  1.5137 -0.1923 -0.6892
  371MOL0     H51187   8.759   1.775   1.490 -2.3894 -0.2421 -0.2353
  371MOL0     H51188   8.838   1.999   1.418  0.4820 -2.0108 -0.4452
  371MOL0     H51189   8.693   2.087   1.483 -4.2620 -1.5499  1.1116
  371MOL0     H51190   8.735   1.883   1.263  1.7324  0.9415 -0.3474
  371MOL0     H51191   8.567   1.934   1.309 -0.7846  0.8276  0.2313
  371MOL0     H51192   8.648   2.067   1.116 -2.0718 -2.0592  1.3264
  371MOL0     H51193   8.803   2.097   1.209  0.4688 -0.4350  1.2137
  371MOL0     H51194   8.543   2.422   1.274  0.4216  0.3231 -1.2013
  371MOL0     H51195   8.355   1.788   1.557  2.4447  0.3659 -2.0641
  371MOL0     H51196   8.167   1.610   1.550  1.6551  0.8582 -0.4447
  371MOL0     H51197   8.202   1.448   1.623  2.8886  0.1558  0.8773
  371MOL0     H51198   8.141   1.570   1.726 -0.8179 -1.3865 -0.2328
  372MOL0     O51199   8.950   9.413   3.425  0.1116  0.4352  0.1674
  372MOL0     C51200   8.908   9.448   3.319  0.0379  0.0432 -0.1094
  372MOL0     O51201   8.934   9.385   3.202  0.1611 -0.1573  0.2588
  372MOL0     C51202   9.007   9.268   3.216  0.0404 -0.8654  0.1066
  372MOL0     C51203   8.947   9.141   3.193 -0.6145 -1.2874  0.1486
  372MOL0     C51204   9.027   9.027   3.188  0.5364 -0.8000  0.9674
  372MOL0     C51205   9.166   9.025   3.214  0.5338  0.1828  0.3430
  372MOL0     O51206   9.242   8.920   3.187  0.0335  0.5334 -0.3592
  372MOL0     C51207   9.170   8.786   3.194 -0.3105  0.2178  0.0571
  372MOL0     C51208   9.112   8.748   3.329 -0.6812  0.1126 -0.3074
  372MOL0     C51209   9.208   8.717   3.442 -1.1252  0.2151 -0.3832
  372MOL0     C51210   9.306   8.603   3.407 -0.6256  0.0067  0.6414
  372MOL0     C51211   9.370   8.540   3.534  0.2724 -0.1903  0.0428
  372MOL0     C51212   9.266   8.488   3.645  0.5450 -0.9825 -0.1807
  372MOL0     C51213   9.343   8.401   3.748  0.9539 -0.0491  0.9835
  372MOL0     C51214   9.355   8.249   3.707  0.2158 -0.5936 -0.4483
  372MOL0     N51215   9.413   8.164   3.815 -0.0028  0.3082 -0.0456
  372MOL0     C51216   9.504   8.217   3.904 -1.2122 -0.6966 -0.0823
  372MOL0     C51217   9.506   8.131   4.006 -0.5862 -0.9261 -0.5425
  372MOL0     C51218   9.602   8.125   4.128  0.3487  0.0666  0.3406
  372MOL0     C51219   9.677   8.253   4.170  0.7887 -0.0526  0.6428
  372MOL0     C51220   9.783   8.246   4.278 -0.1828 -0.4394 -0.4802
  372MOL0     C51221   9.778   8.381   4.360 -0.7112  0.1471  0.2104
  372MOL0     O51222   9.889   8.380   4.450  0.2007  0.2503  0.1363
  372MOL0     C51223   9.868   8.322   4.570  0.6304  0.7911 -0.3685
  372MOL0     C51224   9.769   8.219   4.608  0.0259 -0.2174  1.3852
  372MOL0     C51225   9.765   8.149   4.726 -0.2897  0.1927 -0.1293
  372MOL0     C51226   9.658   8.039   4.742 -0.1100 -1.3935 -0.6957
  372MOL0     C51227   9.858   8.191   4.820  0.5029 -0.2690  1.2415
  372MOL0     C51228   9.847   8.150   4.968 -0.1476  0.1850 -0.1738
  372MOL0     O51229   9.747   8.062   5.009  0.2901  0.0162 -0.2624
  372MOL0     C51230   9.743   7.993   5.128  0.3739 -0.0008 -0.4319
  372MOL0     C51231   9.618   7.993   5.191 -1.1633  0.5993  0.0667
  372MOL0     C51232   9.607   7.930   5.316  0.0205  0.0460  0.6318
  372MOL0     C51233   9.711   7.857   5.374  1.2839 -0.3985  0.2464
  372MOL0     O51234   9.693   7.808   5.502  0.7846  0.1015 -0.1378
  372MOL0     C51235   9.785   7.740   5.580  0.3126 -0.8362 -1.2459
  372MOL0     C51236   9.723   7.671   5.700 -0.2100 -0.6539  0.6277
  372MOL0     C51237   9.814   7.638   5.823  0.2167 -0.6844 -0.3128
  372MOL0     C51238   9.908   7.528   5.785  0.4309  0.4813  0.1398
  372MOL0     C51239  10.012   7.504   5.901  0.2386 -0.0459 -0.3441
  372MOL0     C51240   9.951   7.493   6.045  0.1422 -0.2108  0.1208
  372MOL0     C51241  10.066   7.447   6.130  0.4149  0.6415  0.3997
  372MOL0     C51242  10.005   7.410   6.264 -0.6504 -0.0119  0.3627
  372MOL0    Cl51243  10.149   7.409   6.372  0.2821 -0.1948  0.0698
  372MOL0     C51244   9.834   7.836   5.301 -0.1001  0.0425  0.4852
  372MOL0     C51245   9.851   7.914   5.184  0.8567  0.4378 -0.3311
  372MOL0     O51246   9.938   8.186   5.038 -0.8833  0.8454  0.3924
  372MOL0     C51247   9.951   8.293   4.787 -1.2551 -1.7546 -0.4042
  372MOL0     C51248   9.963   8.356   4.665 -0.3031 -0.4534  1.1676
  372MOL0     N51249   9.416   8.030   3.982 -0.1062  0.0316  0.4455
  372MOL0     N51250   9.371   8.050   3.865 -0.1862  0.3385  0.0388
  372MOL0     C51251   9.224   9.149   3.239  0.0957 -0.1866 -0.7605
  372MOL0     C51252   9.147   9.265   3.242  0.4481  0.4109  0.3136
  372MOL0     C51253   8.819   9.569   3.309 -0.5769  0.3509  0.3288
  372MOL0     C51254   8.741   9.581   3.197 -1.0646 -0.6705  0.4607
  372MOL0     C51255   8.665   9.692   3.179  0.4598 -0.7506  0.9342
  372MOL0     C51256   8.656   9.801   3.269 -1.0639  0.5672 -1.1756
  372MOL0     O51257   8.574   9.909   3.238 -0.1940 -0.9861  0.1980
  372MOL0     C51258   8.438   9.938   3.275  0.4323 -0.1967 -0.3014
  372MOL0     C51259   8.364   9.949   3.143  0.3796  0.4902  0.0342
  372MOL0     C51260   8.286   9.823   3.118  0.2452 -0.1363 -0.0440
  372MOL0     C51261   8.196   9.823   2.989  0.4956 -1.1112 -0.1699
  372MOL0     C51262   8.067   9.875   3.027  0.9725 -0.7604  1.0979
  372MOL0     C51263   7.971   9.944   3.055 -0.2542 -0.2451  0.1171
  372MOL0     C51264   8.731   9.786   3.388 -0.0885  0.0126  0.3106
  372MOL0     C51265   8.809   9.672   3.413  0.6190  0.4544 -0.1038
  372MOL0     C51266   8.882   9.670   3.543 -0.5938  0.3865 -0.7387
  372MOL0     H51267   8.840   9.129   3.178 -0.5277 -0.2067 -1.7647
  372MOL0     H51268   8.981   8.930   3.173  3.5138 -2.1760 -0.0640
  372MOL0     H51269   9.238   8.701   3.188  0.0242  0.2152  2.5631
  372MOL0     H51270   9.097   8.782   3.113 -2.3135 -1.2993  1.8126
  372MOL0     H51271   9.040   8.825   3.359 -0.5614 -0.6500  2.1684
  372MOL0     H51272   9.052   8.658   3.316  0.8725 -1.3498  1.8835
  372MOL0     H51273   9.256   8.810   3.475  1.2927 -1.2272  0.4008
  372MOL0     H51274   9.140   8.677   3.518  2.4743 -1.1822  2.3836
  372MOL0     H51275   9.250   8.520   3.363 -0.5986  1.4090 -2.2615
  372MOL0     H51276   9.391   8.633   3.345 -1.1008 -1.8530 -1.0217
  372MOL0     H51277   9.432   8.617   3.580 -0.8358  1.8375 -1.7012
  372MOL0     H51278   9.423   8.454   3.492 -0.9178  0.0360 -2.0755
  372MOL0     H51279   9.227   8.578   3.692  1.8612 -1.0008  1.0166
  372MOL0     H51280   9.193   8.442   3.578 -1.9301  2.3817 -0.0249
  372MOL0     H51281   9.293   8.406   3.844  1.5212 -1.4592  1.3894
  372MOL0     H51282   9.442   8.445   3.762 -0.3364  3.1601  0.7701
  372MOL0     H51283   9.251   8.222   3.687 -1.1871  2.9138  1.2870
  372MOL0     H51284   9.416   8.227   3.618  2.5606 -0.7524  1.1066
  372MOL0     H51285   9.565   8.305   3.888 -0.2182 -1.2781  0.4423
  372MOL0     H51286   9.670   8.041   4.114  1.5331  1.3870 -2.8440
  372MOL0     H51287   9.547   8.114   4.222  0.1911 -2.0213  0.0515
  372MOL0     H51288   9.728   8.305   4.088 -5.7774  3.0776 -2.1159
  372MOL0     H51289   9.602   8.320   4.213  1.4275  0.3962  1.0851
  372MOL0     H51290   9.761   8.159   4.341  1.7136  1.1016  2.5842
  372MOL0     H51291   9.879   8.240   4.226  0.4180  2.2409  0.1832
  372MOL0     H51292   9.786   8.459   4.284 -0.7188  0.1384  0.2004
  372MOL0     H51293   9.681   8.400   4.407  0.3983  1.2730  2.1849
  372MOL0     H51294   9.686   8.186   4.548  0.0583 -1.4296  1.9774
  372MOL0     H51295   9.591   8.081   4.817  0.4418 -0.0787 -0.9063
  372MOL0     H51296   9.701   7.946   4.780 -0.2872 -0.6351  1.4804
  372MOL0     H51297   9.600   8.020   4.651 -1.0384 -2.1829  0.0490
  372MOL0     H51298   9.531   8.047   5.153 -1.1922  0.2151 -0.4350
  372MOL0     H51299   9.510   7.943   5.363  0.3896  0.1416  1.3834
  372MOL0     H51300   9.848   7.670   5.525  1.1075  0.8450 -2.5718
  372MOL0     H51301   9.846   7.822   5.619  1.3466 -1.6712 -1.0645
  372MOL0     H51302   9.640   7.738   5.725 -1.8447 -1.8063 -1.3551
  372MOL0     H51303   9.673   7.582   5.660 -3.2076  1.9833 -2.1335
  372MOL0     H51304   9.750   7.608   5.906  1.4613  1.4998  1.5305
  372MOL0     H51305   9.870   7.724   5.859  2.8526 -2.0420 -0.8863
  372MOL0     H51306   9.963   7.557   5.695  2.9171  1.0273  1.7525
  372MOL0     H51307   9.842   7.443   5.768 -0.4140  0.9705  0.8416
  372MOL0     H51308  10.078   7.420   5.875  0.8889  0.4689 -0.3992
  372MOL0     H51309  10.069   7.598   5.905  3.0919 -1.5840 -1.6293
  372MOL0     H51310   9.881   7.409   6.047 -0.0490 -0.0419  0.5506
  372MOL0     H51311   9.913   7.584   6.092 -0.2420 -1.2116  1.8544
  372MOL0     H51312  10.129   7.536   6.139  0.3532  0.8858 -1.3327
  372MOL0     H51313  10.112   7.364   6.076  1.4664  0.3895  1.6501
  372MOL0     H51314   9.961   7.311   6.271 -0.2498 -0.2702 -0.5437
  372MOL0     H51315   9.940   7.490   6.300  0.8675  0.7078  1.6771
  372MOL0     H51316   9.912   7.767   5.330 -0.6947 -1.0743 -0.4914
  372MOL0     H51317   9.936   7.895   5.119  0.6537 -1.0280 -0.2032
  372MOL0     H51318  10.018   8.336   4.860  0.8707 -2.2016 -1.9962
  372MOL0     H51319  10.034   8.431   4.631 -0.6795 -0.7378 -0.3361
  372MOL0     H51320   9.332   9.154   3.248  0.6270 -3.8012 -3.0145
  372MOL0     H51321   9.205   9.350   3.276  1.2695 -0.6680  1.7392
  372MOL0     H51322   8.739   9.516   3.111 -3.3518 -1.0556  0.7384
  372MOL0     H51323   8.599   9.692   3.093 -2.3909 -1.6032  2.9805
  372MOL0     H51324   8.398   9.862   3.344 -0.2653  0.8099  0.4341
  372MOL0     H51325   8.435  10.033   3.329  3.4864 -0.0007 -0.3243
  372MOL0     H51326   8.430   9.958   3.057 -0.5363  0.0392 -0.7381
  372MOL0     H51327   8.298  10.035   3.158  0.8463  0.7615  0.5507
  372MOL0     H51328   8.354   9.738   3.110 -0.1012 -0.5829  1.5371
  372MOL0     H51329   8.224   9.802   3.205 -0.3236  1.1068 -0.1278
  372MOL0     H51330   8.190   9.721   2.949  0.7715 -0.3829 -2.2098
  372MOL0     H51331   8.244   9.875   2.905 -1.1085  0.9071  0.0850
  372MOL0     H51332   7.894  10.015   3.075  2.1214  2.3012  0.8763
  372MOL0     H51333   8.717   9.872   3.452 -0.9167  0.2794 -0.2095
  372MOL0     H51334   8.847   9.601   3.620  3.8692  0.4362  1.6815
  372MOL0     H51335   8.982   9.639   3.509  0.8479  2.4689  1.3104
  372MOL0     H51336   8.888   9.762   3.601  1.7353  0.0982 -0.4346
  373MOL0     O51337   8.769  11.469   0.771 -0.3455 -0.4889  0.2150
  373MOL0     C51338   8.662  11.408   0.789 -0.5824 -0.7366 -1.1734
  373MOL0     O51339   8.650  11.280   0.833 -0.0605  0.1503 -0.5627
  373MOL0     C51340   8.775  11.214   0.857 -0.2974 -0.4690  0.3167
  373MOL0     C51341   8.800  11.116   0.758 -0.3505  0.0902 -1.2322
  373MOL0     C51342   8.917  11.043   0.779 -0.6647  0.7247  0.5154
  373MOL0     C51343   9.011  11.070   0.882  1.1483  0.0940  1.3562
  373MOL0     O51344   9.125  10.991   0.882  0.5129  0.4817  1.0472
  373MOL0     C51345   9.186  10.983   1.008 -0.2734  0.2560 -0.2633
  373MOL0     C51346   9.321  10.911   1.003  0.1481 -0.3194 -0.2634
  373MOL0     C51347   9.383  10.904   1.148  0.4935 -0.1042 -0.0382
  373MOL0     C51348   9.508  10.807   1.157  0.0064 -0.0621  0.3132
  373MOL0     C51349   9.567  10.807   1.292 -0.9965 -0.5109 -1.3046
  373MOL0     C51350   9.700  10.724   1.313 -0.6327 -0.2452 -0.2775
  373MOL0     C51351   9.763  10.739   1.458  0.0808 -0.7188  0.7470
  373MOL0     C51352   9.871  10.640   1.482 -0.3036 -0.5158 -0.5016
  373MOL0     N51353   9.911  10.651   1.624 -0.0816 -0.0586 -0.0899
  373MOL0     C51354  10.008  10.735   1.677 -0.5813 -0.3313 -0.2543
  373MOL0     C51355  10.032  10.679   1.795 -0.8926  0.0309  0.2673
  373MOL0     C51356  10.144  10.740   1.881 -0.4944 -1.1798  0.1576
  373MOL0     C51357  10.130  10.683   2.019  0.3826 -0.0657  0.4335
  373MOL0     C51358  10.160  10.803   2.117 -0.4794  0.7892  0.1186
  373MOL0     C51359  10.151  10.731   2.261  0.9353  0.0976 -0.1717
  373MOL0     O51360  10.029  10.657   2.284  0.0952 -0.5328  0.0862
  373MOL0     C51361  10.045  10.561   2.384 -0.7749 -0.6621  0.2571
  373MOL0     C51362   9.987  10.437   2.361 -0.1525 -0.5236 -0.2257
  373MOL0     C51363   9.976  10.344   2.469 -0.8102  0.5622 -0.2888
  373MOL0     C51364   9.904  10.217   2.438  0.0831 -0.2666 -0.1728
  373MOL0     C51365  10.052  10.360   2.589  1.1713  0.8674 -0.5632
  373MOL0     C51366  10.057  10.253   2.707  0.2301 -0.7637  0.6455
  373MOL0     O51367  10.112  10.306   2.823 -0.1389  0.0385  0.2202
  373MOL0     C51368  10.109  10.242   2.940  0.0207  1.2608  0.6029
  373MOL0     C51369  10.114  10.327   3.050 -1.0928 -0.0610 -0.1365
  373MOL0     C51370  10.127  10.278   3.179  0.7922 -0.1699  0.4499
  373MOL0     C51371  10.132  10.143   3.210  0.1556  0.2597 -0.2706
  373MOL0     O51372  10.173  10.105   3.345  0.7187  0.0646  0.6537
  373MOL0     C51373  10.279  10.180   3.409 -0.2456  0.3571  0.1743
  373MOL0     C51374  10.270  10.118   3.546  0.0102  0.0291  0.3784
  373MOL0     C51375  10.363  10.205   3.632 -0.1850 -0.2442  0.0633
  373MOL0     C51376  10.414  10.139   3.754 -0.0219  0.4172  0.0084
  373MOL0     C51377  10.492  10.247   3.840 -0.0227  1.2536  0.5023
  373MOL0     C51378  10.605  10.193   3.922 -1.1553  0.3795 -0.4737
  373MOL0     C51379  10.652  10.273   4.044 -0.5917  0.4211 -0.2957
  373MOL0     C51380  10.729  10.177   4.140 -0.3442 -0.8357 -0.0525
  373MOL0    Cl51381  10.780  10.277   4.286 -0.2035 -0.3025  0.1914
  373MOL0     C51382  10.130  10.055   3.103  0.5104 -0.3766 -0.2670
  373MOL0     C51383  10.116  10.107   2.968 -0.4113  0.0485  0.1934
  373MOL0     O51384  10.018  10.143   2.691  0.1549  0.2824  0.5066
  373MOL0     C51385  10.118  10.487   2.605  0.0497 -0.0559 -0.3073
  373MOL0     C51386  10.128  10.576   2.499 -0.2380 -0.3253 -1.2145
  373MOL0     N51387   9.959  10.566   1.822  0.2038  0.1683 -0.6642
  373MOL0     N51388   9.883  10.553   1.716  0.1549 -0.1533 -1.4559
  373MOL0     C51389   8.977  11.179   0.973 -0.0970  0.7458 -0.5459
  373MOL0     C51390   8.850  11.239   0.971 -0.8537  0.2340 -0.8508
  373MOL0     C51391   8.536  11.486   0.780 -0.0760  0.1202 -0.6203
  373MOL0     C51392   8.418  11.423   0.837  0.4678  0.2763 -0.0864
  373MOL0     C51393   8.298  11.484   0.832  0.0572  0.1368 -0.0973
  373MOL0     C51394   8.281  11.611   0.783  0.7512 -1.0603 -0.3508
  373MOL0     O51395   8.157  11.673   0.790 -0.7580 -0.5829 -0.3340
  373MOL0     C51396   8.123  11.792   0.711 -0.2630  0.3745  0.5039
  373MOL0     C51397   8.119  11.770   0.561 -1.0749 -0.5330 -0.7019
  373MOL0     C51398   8.146  11.906   0.499 -0.3547  0.0398 -0.5043
  373MOL0     C51399   8.108  11.899   0.351 -0.8642  0.0341 -1.4860
  373MOL0     C51400   8.149  12.020   0.281  0.2334  0.3952 -0.1848
  373MOL0     C51401   8.169  12.119   0.215 -0.2284  1.0620  1.0351
  373MOL0     C51402   8.395  11.672   0.726  0.1017 -0.0657 -1.0820
  373MOL0     C51403   8.521  11.607   0.712  0.1467  0.1263 -0.2757
  373MOL0     C51404   8.622  11.676   0.628 -0.1219 -0.4129 -0.7842
  373MOL0     H51405   8.727  11.090   0.682 -2.6552 -1.2357  1.2676
  373MOL0     H51406   8.962  10.966   0.718  1.8406  2.0163  0.6256
  373MOL0     H51407   9.125  10.933   1.084  2.2835 -1.1612  0.9868
  373MOL0     H51408   9.209  11.085   1.042 -0.5801 -0.4768  2.3759
  373MOL0     H51409   9.313  10.809   0.964 -1.4162 -0.4844  0.3900
  373MOL0     H51410   9.389  10.972   0.943  0.4187 -2.7512 -2.6030
  373MOL0     H51411   9.402  11.005   1.183 -3.4745  0.8130 -0.1239
  373MOL0     H51412   9.309  10.854   1.210  0.0154  0.2643 -0.3086
  373MOL0     H51413   9.488  10.704   1.125  0.9985  0.8527 -3.8942
  373MOL0     H51414   9.575  10.841   1.077 -0.7471  0.0011 -0.2988
  373MOL0     H51415   9.497  10.763   1.363  1.9472 -3.0999  0.2810
  373MOL0     H51416   9.590  10.912   1.310  2.0235 -1.2207 -0.3730
  373MOL0     H51417   9.685  10.617   1.297 -0.8879 -0.1269 -0.8678
  373MOL0     H51418   9.775  10.757   1.241  1.4568 -3.4884  0.2166
  373MOL0     H51419   9.684  10.736   1.534  2.0431 -0.0796  2.9642
  373MOL0     H51420   9.809  10.838   1.457  2.6118 -1.8303  0.3227
  373MOL0     H51421   9.848  10.540   1.446  2.8016 -1.5766  0.0672
  373MOL0     H51422   9.963  10.672   1.432  0.4443  0.7196  1.5161
  373MOL0     H51423  10.054  10.817   1.622  0.7551 -0.4608  0.6104
  373MOL0     H51424  10.119  10.847   1.882  0.4482 -0.8588 -2.1632
  373MOL0     H51425  10.248  10.736   1.847  0.0822  0.3965  1.5825
  373MOL0     H51426  10.025  10.654   2.030  0.4720 -1.3535 -1.5557
  373MOL0     H51427  10.204  10.607   2.042 -0.5963 -0.3403  3.0319
  373MOL0     H51428  10.263  10.839   2.108 -0.4703  0.3677 -1.8682
  373MOL0     H51429  10.094  10.886   2.091  0.1868  0.9159 -1.2512
  373MOL0     H51430  10.227  10.652   2.264  0.9170  0.1130  0.8600
  373MOL0     H51431  10.169  10.801   2.342 -0.9995 -0.2170  0.5928
  373MOL0     H51432   9.943  10.406   2.266 -0.4779 -1.2823  0.1679
  373MOL0     H51433   9.858  10.179   2.529 -0.8362 -0.9822 -0.9246
  373MOL0     H51434   9.979  10.152   2.391 -0.9799 -2.8289  1.4826
  373MOL0     H51435   9.825  10.246   2.368  0.5975 -0.0973 -0.6912
  373MOL0     H51436  10.116  10.433   3.028 -2.0143  0.4084  1.7693
  373MOL0     H51437  10.122  10.350   3.260 -0.9659 -0.5735  0.7271
  373MOL0     H51438  10.374  10.161   3.358 -0.2434 -0.6191  0.5037
  373MOL0     H51439  10.260  10.286   3.423  0.0587  0.1993  2.0330
  373MOL0     H51440  10.164  10.118   3.572 -0.3182 -2.7834 -0.6041
  373MOL0     H51441  10.306  10.015   3.557 -0.1440 -0.0930 -0.2162
  373MOL0     H51442  10.310  10.289   3.678  1.7478  0.4985  1.0518
  373MOL0     H51443  10.449  10.241   3.574  3.0024 -1.6020  3.5565
  373MOL0     H51444  10.482  10.062   3.715  0.8305  0.5937  1.0855
  373MOL0     H51445  10.339  10.099   3.822 -0.7655  1.1028 -0.3886
  373MOL0     H51446  10.530  10.324   3.772 -2.5322  1.0178 -1.3198
  373MOL0     H51447  10.416  10.289   3.906 -2.4520 -1.1842 -0.5452
  373MOL0     H51448  10.689  10.184   3.852 -0.0772  3.2044  0.3280
  373MOL0     H51449  10.576  10.099   3.971 -2.7788  2.4815  2.9851
  373MOL0     H51450  10.572  10.325   4.096  0.3935  1.1979  0.4891
  373MOL0     H51451  10.716  10.351   4.002 -1.4975  2.8949  2.5904
  373MOL0     H51452  10.813  10.118   4.101 -0.3743 -0.1207 -1.2806
  373MOL0     H51453  10.656  10.109   4.184 -3.2175  0.4104 -2.5171
  373MOL0     H51454  10.142   9.948   3.114 -4.4979 -1.3523 -1.5064
  373MOL0     H51455  10.114  10.041   2.881  2.1447 -0.4636  0.4435
  373MOL0     H51456  10.161  10.499   2.704 -0.1549 -1.2659 -0.0585
  373MOL0     H51457  10.190  10.662   2.522 -1.1089  0.2300 -0.9097
  373MOL0     H51458   9.053  11.201   1.047  0.5012  0.2093 -0.9951
  373MOL0     H51459   8.819  11.305   1.051  1.7318 -0.4809  0.8498
  373MOL0     H51460   8.421  11.328   0.890  2.5635 -0.2616 -1.0768
  373MOL0     H51461   8.222  11.424   0.880 -0.2819 -0.4593 -1.3341
  373MOL0     H51462   8.021  11.820   0.739  0.1762  1.7125  0.8018
  373MOL0     H51463   8.193  11.870   0.743  0.4391 -0.6705  1.6198
  373MOL0     H51464   8.024  11.721   0.536 -1.6278 -1.3467  2.5270
  373MOL0     H51465   8.202  11.702   0.541 -3.1609 -3.6740  0.5694
  373MOL0     H51466   8.111  11.988   0.562  2.4210  0.7820  0.2314
  373MOL0     H51467   8.252  11.919   0.524 -1.0840  1.3313  2.3216
  373MOL0     H51468   8.002  11.883   0.332 -0.7935 -1.7226 -0.5623
  373MOL0     H51469   8.172  11.824   0.305 -1.3212 -1.1914 -0.1998
  373MOL0     H51470   8.184  12.202   0.150  0.4164 -0.3627 -0.6942
  373MOL0     H51471   8.374  11.770   0.683 -3.4056 -0.2139 -0.0189
  373MOL0     H51472   8.572  11.741   0.556 -0.4082  1.3309  0.9201
  373MOL0     H51473   8.702  11.730   0.681 -0.8206  0.6731 -0.8024
  373MOL0     H51474   8.676  11.601   0.570  1.2396 -0.3797  0.3691
  374MOL0     O51475   1.364  10.364  11.288 -1.0623  0.6240  1.5689
  374MOL0     C51476   1.360  10.448  11.198  0.2311 -0.4939 -0.3187
  374MOL0     O51477   1.468  10.495  11.127 -0.7587  0.3523 -0.1532
  374MOL0     C51478   1.583  10.425  11.128  0.0740  0.4061  0.2039
  374MOL0     C51479   1.642  10.365  11.023  0.5340  0.3379 -0.2152
  374MOL0     C51480   1.755  10.286  11.043  0.4346  0.5412 -1.0764
  374MOL0     C51481   1.806  10.261  11.173 -0.2468 -1.1065  0.1786
  374MOL0     O51482   1.915  10.185  11.198 -0.2238 -0.6183  0.3411
  374MOL0     C51483   1.893  10.042  11.181 -0.8083 -0.2812 -0.2739
  374MOL0     C51484   2.017   9.976  11.240 -0.2515 -0.4976 -0.0242
  374MOL0     C51485   2.129   9.960  11.134  0.6979 -0.5091  0.2392
  374MOL0     C51486   2.257   9.929  11.206 -0.1164  0.6897  0.2571
  374MOL0     C51487   2.371   9.896  11.109 -0.6486  0.3386 -0.0155
  374MOL0     C51488   2.502   9.829  11.185  0.5892 -0.1239  1.5692
  374MOL0     C51489   2.625   9.817  11.096 -0.4438  0.4779  0.1903
  374MOL0     C51490   2.669   9.954  11.030 -0.5966 -0.0492 -0.7204
  374MOL0     N51491   2.801   9.940  10.964  0.0706  0.0638  0.2557
  374MOL0     C51492   2.805   9.926  10.834  0.1016  0.7342  0.5463
  374MOL0     C51493   2.931   9.888  10.811  1.2918  0.4008  0.1342
  374MOL0     C51494   2.969   9.842  10.673  0.2267  1.7062 -0.4165
  374MOL0     C51495   3.091   9.924  10.617  0.0406  1.0308  0.0028
  374MOL0     C51496   3.154   9.853  10.491 -0.2644  0.6759  1.0742
  374MOL0     C51497   3.066   9.856  10.367  1.1765 -0.5422 -0.2816
  374MOL0     O51498   3.118   9.800  10.256  0.1389  0.0980  0.0993
  374MOL0     C51499   3.100   9.660  10.234 -0.9643  0.2903  0.0521
  374MOL0     C51500   2.977   9.602  10.198 -0.5322 -0.0049 -0.6463
  374MOL0     C51501   2.953   9.463  10.195  0.0740 -0.0160 -0.3633
  374MOL0     C51502   2.813   9.427  10.131 -0.2367  0.0319 -0.4664
  374MOL0     C51503   3.048   9.382  10.250 -0.6631 -0.0444 -0.9897
  374MOL0     C51504   3.037   9.239  10.244 -0.2193  0.2246 -0.5706
  374MOL0     O51505   2.919   9.177  10.221 -0.2111  0.2645  0.2795
  374MOL0     C51506   2.928   9.037  10.212  0.7441 -0.2695  0.6537
  374MOL0     C51507   2.906   8.962  10.334  0.8692 -0.4016  1.3009
  374MOL0     C51508   2.902   8.819  10.324 -0.1912 -0.2769  0.3899
  374MOL0     C51509   2.925   8.756  10.200 -0.0108  0.7263 -0.4707
  374MOL0     O51510   2.910   8.623  10.179 -0.4948  0.5591 -0.5629
  374MOL0     C51511   2.891   8.533  10.293  0.5589 -0.6952  0.2749
  374MOL0     C51512   2.938   8.391  10.240  0.4517 -0.3324  0.1899
  374MOL0     C51513   2.919   8.284  10.341 -0.5647  0.0420 -0.4492
  374MOL0     C51514   2.985   8.309  10.479 -0.2307  0.3140  0.0270
  374MOL0     C51515   2.979   8.196  10.577 -0.1181 -0.3546 -0.6814
  374MOL0     C51516   3.013   8.249  10.716 -0.2576  0.8453 -0.3331
  374MOL0     C51517   3.016   8.142  10.829 -0.4192  0.6158 -0.6134
  374MOL0     C51518   3.119   8.151  10.945 -0.1355 -0.3337  1.2365
  374MOL0    Cl51519   3.273   8.082  10.884 -0.5584 -0.0742 -0.3333
  374MOL0     C51520   2.957   8.837  10.089 -0.2939  0.8336 -0.2115
  374MOL0     C51521   2.961   8.975  10.093  0.1448  0.2527  0.0070
  374MOL0     O51522   3.143   9.181  10.276 -0.2533 -0.3345  0.4509
  374MOL0     C51523   3.168   9.439  10.302 -0.7882 -0.6758  0.1365
  374MOL0     C51524   3.201   9.579  10.284  0.7166  0.0362 -0.7085
  374MOL0     N51525   3.005   9.903  10.924 -0.5193  0.0592  1.0265
  374MOL0     N51526   2.919   9.929  11.020  0.4551 -0.1993  0.5116
  374MOL0     C51527   1.754  10.335  11.271 -0.4592 -0.8460  0.3722
  374MOL0     C51528   1.649  10.418  11.250 -0.4294  0.5691  0.2985
  374MOL0     C51529   1.225  10.490  11.157  0.2923 -0.2827  0.2410
  374MOL0     C51530   1.105  10.433  11.215  0.1054 -0.4675  0.1658
  374MOL0     C51531   0.979  10.473  11.179 -0.1015 -0.7184  1.1288
  374MOL0     C51532   0.960  10.572  11.076 -0.0999 -0.4025  0.5758
  374MOL0     O51533   0.837  10.614  11.033 -0.3968  0.4504  0.2881
  374MOL0     C51534   0.743  10.503  11.016 -0.3648  0.0604 -0.3471
  374MOL0     C51535   0.637  10.553  10.908  0.2199  0.4134 -0.3653
  374MOL0     C51536   0.566  10.445  10.829 -0.3126 -0.5906  0.4578
  374MOL0     C51537   0.523  10.328  10.916 -0.3597 -0.3076 -0.5752
  374MOL0     C51538   0.453  10.368  11.039 -0.0670 -0.5430  0.4492
  374MOL0     C51539   0.383  10.394  11.133  0.8199  1.4148 -0.0588
  374MOL0     C51540   1.074  10.634  11.024  0.5508  0.4415  0.2421
  374MOL0     C51541   1.206  10.602  11.069  0.4813  0.3407 -0.7491
  374MOL0     C51542   1.311  10.697  11.013 -0.3297 -0.2702 -0.0009
  374MOL0     H51543   1.590  10.381  10.929 -2.0914 -1.2597  0.8439
  374MOL0     H51544   1.795  10.232  10.958  1.2901 -3.6721  1.6840
  374MOL0     H51545   1.890  10.022  11.073 -0.7083  0.9005 -0.5118
  374MOL0     H51546   1.800  10.015  11.231  0.0310 -5.5665 -0.9968
  374MOL0     H51547   2.050  10.034  11.327 -1.1981  1.9938 -1.2517
  374MOL0     H51548   1.994   9.872  11.266 -0.8730 -0.1604  0.8445
  374MOL0     H51549   2.111   9.884  11.057 -0.1827 -2.2063  2.0157
  374MOL0     H51550   2.149  10.055  11.084 -0.1838 -0.5221 -0.1648
  374MOL0     H51551   2.269  10.023  11.261 -3.6192  1.3022  0.2193
  374MOL0     H51552   2.243   9.843  11.272  0.0338 -1.5834 -2.4672
  374MOL0     H51553   2.391   9.986  11.050  0.1528  0.9190  1.0990
  374MOL0     H51554   2.344   9.821  11.034  3.6163 -0.3141 -1.1575
  374MOL0     H51555   2.535   9.889  11.270 -0.3573  0.3398  1.6274
  374MOL0     H51556   2.473   9.731  11.224 -1.6333  0.4049  1.3906
  374MOL0     H51557   2.612   9.745  11.015 -0.1179 -0.4180  0.9111
  374MOL0     H51558   2.707   9.772  11.153  1.2545 -1.7110 -3.5867
  374MOL0     H51559   2.596   9.985  10.955  0.8868  0.6865 -1.9178
  374MOL0     H51560   2.674  10.042  11.095  1.8393  0.5533 -1.6209
  374MOL0     H51561   2.719   9.933  10.769  1.5234  0.0626 -1.5370
  374MOL0     H51562   2.880   9.831  10.610  0.9526 -0.6841 -1.1385
  374MOL0     H51563   3.002   9.739  10.690 -3.6285  0.7945  3.1221
  374MOL0     H51564   3.052  10.024  10.597  2.0322  1.2129 -4.1145
  374MOL0     H51565   3.156   9.925  10.704  0.4016  0.7077 -0.2568
  374MOL0     H51566   3.250   9.904  10.480  0.7736 -0.9584  2.0645
  374MOL0     H51567   3.178   9.749  10.515  4.7208  1.0839 -0.9270
  374MOL0     H51568   2.975   9.798  10.385  1.3504 -0.5309  0.7236
  374MOL0     H51569   3.046   9.961  10.346 -0.2781 -0.6643  0.3922
  374MOL0     H51570   2.899   9.665  10.157  0.1216 -0.8952 -3.5103
  374MOL0     H51571   2.769   9.353  10.199  0.6966 -0.0730  0.0334
  374MOL0     H51572   2.813   9.379  10.033  1.1006 -1.7721  0.3629
  374MOL0     H51573   2.756   9.521  10.126  1.5881  1.4859  3.0185
  374MOL0     H51574   2.895   9.020  10.425  0.9598 -0.6685  1.4829
  374MOL0     H51575   2.872   8.753  10.405  0.5711 -0.7493  0.2927
  374MOL0     H51576   2.968   8.556  10.367  0.0050 -1.1069  0.9896
  374MOL0     H51577   2.792   8.533  10.340  0.7635 -0.2868  0.7130
  374MOL0     H51578   2.886   8.361  10.148 -1.0770  0.3420  0.8032
  374MOL0     H51579   3.045   8.399  10.216  1.3058  0.6554  3.6839
  374MOL0     H51580   2.954   8.186  10.308 -1.3842 -0.4379  0.0525
  374MOL0     H51581   2.811   8.274  10.355 -0.4695  0.1228  0.4480
  374MOL0     H51582   2.937   8.397  10.522 -1.0745  1.0183 -2.2157
  374MOL0     H51583   3.090   8.332  10.458 -0.6381  1.6080 -0.7389
  374MOL0     H51584   2.882   8.146  10.590  0.1000 -0.6790 -0.2833
  374MOL0     H51585   3.047   8.120  10.537  1.3042 -0.1569  1.2580
  374MOL0     H51586   2.934   8.317  10.749 -0.9352 -1.4026  3.2181
  374MOL0     H51587   3.108   8.304  10.722  2.1527 -2.7466 -2.1541
  374MOL0     H51588   3.035   8.051  10.772 -2.3998 -0.1885 -0.0929
  374MOL0     H51589   2.922   8.136  10.886  1.1175  3.1471  2.5150
  374MOL0     H51590   3.090   8.097  11.035  1.4827 -0.8463  1.4915
  374MOL0     H51591   3.134   8.254  10.979 -0.4512  0.4945 -0.9897
  374MOL0     H51592   2.977   8.786   9.995 -0.8162  0.6870 -0.2466
  374MOL0     H51593   2.991   9.037  10.010  0.8643 -1.8808 -1.4109
  374MOL0     H51594   3.248   9.375  10.337 -0.2092 -0.5051 -0.8338
  374MOL0     H51595   3.287   9.612  10.341  0.1806  1.3517 -0.6390
  374MOL0     H51596   1.786  10.319  11.373  0.1189  0.8822  0.4883
  374MOL0     H51597   1.604  10.460  11.339  0.1365  0.2290  0.7575
  374MOL0     H51598   1.095  10.360  11.295 -2.6527  1.0725  1.4025
  374MOL0     H51599   0.900  10.419  11.229  0.7699 -1.8583  1.3019
  374MOL0     H51600   0.800  10.417  10.981  1.9651  0.9344  1.0253
  374MOL0     H51601   0.705  10.474  11.114  3.0215 -2.6495  0.3601
  374MOL0     H51602   0.691  10.608  10.830 -0.7581 -1.2567 -2.3089
  374MOL0     H51603   0.560  10.619  10.949 -1.3248 -0.0982 -2.2713
  374MOL0     H51604   0.475  10.477  10.777  0.4126 -4.5390 -3.9021
  374MOL0     H51605   0.650  10.417  10.764  0.6781  3.2251 -0.2032
  374MOL0     H51606   0.612  10.269  10.941  1.1086  1.8174 -0.6054
  374MOL0     H51607   0.460  10.265  10.852  1.9933 -1.4474 -1.9524
  374MOL0     H51608   0.311  10.424  11.206 -2.9650  1.4651 -3.4658
  374MOL0     H51609   1.057  10.706  10.944 -1.2819 -3.2373 -3.0724
  374MOL0     H51610   1.387  10.721  11.088  0.4303 -1.0845 -0.4928
  374MOL0     H51611   1.370  10.657  10.930  0.2904 -0.2181  0.4058
  374MOL0     H51612   1.275  10.788  10.964  3.5068  0.2558 -2.2672
  375MOL0     O51613   6.399   2.001   4.451  0.1243 -0.7695 -0.0718
  375MOL0     C51614   6.488   2.071   4.498  0.3257 -0.6900 -0.0407
  375MOL0     O51615   6.609   2.097   4.442 -0.2636 -0.0442 -0.4898
  375MOL0     C51616   6.636   2.099   4.313 -0.7398  0.1784 -0.1518
  375MOL0     C51617   6.776   2.078   4.296  0.2768 -0.6701  0.5969
  375MOL0     C51618   6.822   2.083   4.162  0.4671  0.7552  0.1225
  375MOL0     C51619   6.733   2.074   4.052  0.0837  0.3133  0.4256
  375MOL0     O51620   6.786   2.046   3.928 -0.1415  0.4667  0.3396
  375MOL0     C51621   6.707   2.011   3.817  0.3337 -0.2739 -0.0705
  375MOL0     C51622   6.793   1.938   3.718 -0.1260  0.2387  0.2113
  375MOL0     C51623   6.706   1.864   3.618  0.0052 -1.1956  0.0448
  375MOL0     C51624   6.786   1.799   3.501  0.0323 -0.0374 -0.5266
  375MOL0     C51625   6.703   1.693   3.433  0.9149  0.9503 -0.3645
  375MOL0     C51626   6.801   1.570   3.377  0.6368 -1.0157 -0.5340
  375MOL0     C51627   6.708   1.470   3.318 -0.3428 -0.6462  0.4963
  375MOL0     C51628   6.789   1.336   3.282 -0.1971 -0.4200  0.3932
  375MOL0     N51629   6.842   1.346   3.146 -0.0812  0.4511  0.7697
  375MOL0     C51630   6.970   1.379   3.110 -0.0563 -0.2041  0.1605
  375MOL0     C51631   6.966   1.375   2.977 -0.2469  0.1687 -0.7632
  375MOL0     C51632   7.078   1.408   2.884  0.0819 -0.2348 -0.5182
  375MOL0     C51633   7.180   1.297   2.870  0.4609  1.7988 -0.5318
  375MOL0     C51634   7.119   1.184   2.791  0.3630 -0.5189 -0.1580
  375MOL0     C51635   7.225   1.097   2.749 -0.7612  0.6073  0.8001
  375MOL0     O51636   7.173   0.979   2.684  0.9479 -0.2119  0.0656
  375MOL0     C51637   7.259   0.893   2.624 -0.1001  0.2158 -1.4793
  375MOL0     C51638   7.399   0.895   2.643  0.0995 -0.0133 -0.2070
  375MOL0     C51639   7.480   0.822   2.554  0.0049 -0.3215  1.1173
  375MOL0     C51640   7.623   0.858   2.567 -0.0597 -0.1788 -0.9666
  375MOL0     C51641   7.420   0.726   2.461  0.1461 -0.7845 -0.8215
  375MOL0     C51642   7.494   0.649   2.355 -1.2696  0.3021  0.3633
  375MOL0     O51643   7.414   0.564   2.286  0.1697 -0.2032 -0.7541
  375MOL0     C51644   7.472   0.485   2.188 -0.3554  0.0005  0.3319
  375MOL0     C51645   7.502   0.358   2.229 -0.3891  0.0389 -0.5863
  375MOL0     C51646   7.557   0.268   2.138  0.9705 -0.2002 -0.4239
  375MOL0     C51647   7.569   0.296   2.002  0.4296  0.0361 -0.5105
  375MOL0     O51648   7.616   0.218   1.909  0.5170 -0.2085  0.1572
  375MOL0     C51649   7.626   0.077   1.928 -0.2325 -0.3020 -1.0803
  375MOL0     C51650   7.767   0.038   1.955  0.4978  0.1675 -0.6656
  375MOL0     C51651   7.795  -0.110   1.966  0.1642  0.2981  0.6673
  375MOL0     C51652   7.944  -0.121   1.997  0.9255  1.1927 -0.3215
  375MOL0     C51653   7.993  -0.270   1.969  0.1675  0.2978  0.5956
  375MOL0     C51654   7.934  -0.374   2.067 -0.2571  0.3392 -0.6333
  375MOL0     C51655   7.960  -0.325   2.212  0.8286  0.8866  0.3266
  375MOL0     C51656   7.941  -0.434   2.314  0.1120 -0.5515  0.6316
  375MOL0    Cl51657   7.769  -0.476   2.331  0.3841 -0.3627 -0.2665
  375MOL0     C51658   7.529   0.424   1.956  0.0698 -0.2616 -0.2978
  375MOL0     C51659   7.483   0.519   2.053  0.8686 -0.2717 -0.1424
  375MOL0     O51660   7.622   0.645   2.359  0.1817  0.4763  0.3507
  375MOL0     C51661   7.277   0.704   2.473  0.0560 -0.2923 -1.1580
  375MOL0     C51662   7.202   0.786   2.557 -0.7115 -0.4497 -0.6680
  375MOL0     N51663   6.837   1.336   2.936  0.2959 -0.5833  0.3393
  375MOL0     N51664   6.764   1.323   3.037 -0.1220  0.2744 -0.4330
  375MOL0     C51665   6.594   2.094   4.076  0.5666  0.6232  0.1749
  375MOL0     C51666   6.547   2.111   4.206 -0.3111 -0.0804  0.1104
  375MOL0     C51667   6.464   2.119   4.629 -0.2727  0.4918 -0.6277
  375MOL0     C51668   6.358   2.065   4.707  0.0634  0.3252  0.6081
  375MOL0     C51669   6.326   2.100   4.838 -0.5902 -0.2097 -1.0053
  375MOL0     C51670   6.402   2.202   4.898 -0.3384 -0.6721  0.4825
  375MOL0     O51671   6.395   2.234   5.038  0.4955 -0.2220  0.5683
  375MOL0     C51672   6.259   2.237   5.095  0.0482 -0.2943  0.0306
  375MOL0     C51673   6.233   2.353   5.184 -0.8367  0.2836 -0.0493
  375MOL0     C51674   6.090   2.354   5.227 -0.7617 -0.3489 -0.4209
  375MOL0     C51675   6.080   2.456   5.338 -0.1894  0.0534 -0.3133
  375MOL0     C51676   5.969   2.413   5.431  0.1276 -0.1387 -0.5586
  375MOL0     C51677   5.887   2.379   5.511 -0.6782 -0.1970  0.0210
  375MOL0     C51678   6.497   2.268   4.817  0.9727 -0.8715  0.6114
  375MOL0     C51679   6.534   2.235   4.684 -0.2138  0.0211 -0.7056
  375MOL0     C51680   6.636   2.321   4.614  0.1138 -0.3102 -0.1781
  375MOL0     H51681   6.836   2.073   4.386 -0.1879 -2.3338  0.8441
  375MOL0     H51682   6.929   2.068   4.150  1.2686  3.0923  3.0420
  375MOL0     H51683   6.676   2.106   3.773 -1.9255 -1.7436 -1.9121
  375MOL0     H51684   6.619   1.951   3.841 -0.4183  0.8997  0.1677
  375MOL0     H51685   6.859   2.007   3.665  2.9601 -1.6579  1.3301
  375MOL0     H51686   6.854   1.865   3.772 -0.1579 -1.7166 -2.1771
  375MOL0     H51687   6.657   1.783   3.673 -1.0778 -0.7465 -0.2330
  375MOL0     H51688   6.624   1.928   3.587  0.1744  0.3598  2.5259
  375MOL0     H51689   6.814   1.880   3.433 -2.9926  0.0702 -1.8074
  375MOL0     H51690   6.881   1.761   3.540 -0.8365 -1.2723  0.4306
  375MOL0     H51691   6.626   1.728   3.365  2.7887  3.7953 -1.2087
  375MOL0     H51692   6.631   1.648   3.502 -0.4960 -2.7063 -3.7905
  375MOL0     H51693   6.870   1.613   3.304  0.9603 -0.9464 -0.1892
  375MOL0     H51694   6.858   1.542   3.466  0.2045  2.1368  0.8792
  375MOL0     H51695   6.654   1.504   3.229  3.5002  0.2658 -1.7382
  375MOL0     H51696   6.632   1.446   3.392  1.6918 -1.2345  2.5093
  375MOL0     H51697   6.866   1.317   3.357 -0.7074 -0.7659  0.8346
  375MOL0     H51698   6.716   1.255   3.290  0.1007 -0.6588  0.7557
  375MOL0     H51699   7.048   1.392   3.184  0.4621  1.9313 -0.6692
  375MOL0     H51700   7.131   1.499   2.916  0.3706  0.2338 -2.2186
  375MOL0     H51701   7.025   1.429   2.791  0.9148 -2.8579 -1.6792
  375MOL0     H51702   7.268   1.331   2.816  1.9669 -0.7514  0.1692
  375MOL0     H51703   7.212   1.269   2.971  0.2799  1.1516 -0.6519
  375MOL0     H51704   7.049   1.132   2.857  0.0348 -0.7559 -0.6851
  375MOL0     H51705   7.061   1.216   2.703  0.3267 -1.3479 -0.4473
  375MOL0     H51706   7.288   1.153   2.679  1.8610 -1.4460  1.3623
  375MOL0     H51707   7.276   1.071   2.843 -1.1941 -0.8096  0.6656
  375MOL0     H51708   7.448   0.974   2.699  0.9573  1.9706 -3.4420
  375MOL0     H51709   7.634   0.966   2.552 -2.5018 -0.1517 -3.3866
  375MOL0     H51710   7.689   0.815   2.491 -1.6049 -2.3624 -1.1703
  375MOL0     H51711   7.653   0.827   2.668 -1.5929  0.8633 -0.1347
  375MOL0     H51712   7.490   0.334   2.334 -3.4409 -0.8518 -1.0472
  375MOL0     H51713   7.593   0.169   2.165  1.6924 -0.1818 -1.2629
  375MOL0     H51714   7.565   0.049   2.014  0.4436  3.0006  0.6453
  375MOL0     H51715   7.581   0.024   1.843  2.3453 -2.2819 -1.3321
  375MOL0     H51716   7.819   0.082   1.869 -0.6600  2.1766 -0.4152
  375MOL0     H51717   7.805   0.083   2.048 -1.4327  0.2500  0.1305
  375MOL0     H51718   7.776  -0.160   1.870  0.2260  0.2153  0.6979
  375MOL0     H51719   7.735  -0.165   2.039  0.0416 -2.5291 -1.4147
  375MOL0     H51720   7.952  -0.093   2.102 -1.6988  0.8197  0.0440
  375MOL0     H51721   8.001  -0.053   1.933 -1.1006  1.8195 -1.5537
  375MOL0     H51722   7.970  -0.313   1.871 -0.0813  0.3668  0.6219
  375MOL0     H51723   8.101  -0.278   1.983  0.5181 -0.5292 -2.0876
  375MOL0     H51724   7.981  -0.472   2.055 -0.0563  0.5791 -1.9689
  375MOL0     H51725   7.826  -0.385   2.053 -0.1541 -0.7446 -0.6897
  375MOL0     H51726   7.887  -0.247   2.238 -2.3409 -1.8298  0.3538
  375MOL0     H51727   8.065  -0.296   2.222  0.5978  1.0332  3.5075
  375MOL0     H51728   7.992  -0.401   2.405 -0.0200  0.1443  0.4607
  375MOL0     H51729   7.980  -0.531   2.281 -1.4814 -1.9095  2.4999
  375MOL0     H51730   7.526   0.446   1.850 -1.7521  0.8715 -0.0438
  375MOL0     H51731   7.439   0.611   2.017  2.9503  0.9127  0.2356
  375MOL0     H51732   7.239   0.629   2.405  1.6317 -0.9219 -1.3873
  375MOL0     H51733   7.096   0.766   2.566 -0.2803 -2.6938 -0.0939
  375MOL0     H51734   6.522   2.091   3.995 -0.7302  0.8769  1.2954
  375MOL0     H51735   6.442   2.138   4.202  0.0103  1.0616 -1.9701
  375MOL0     H51736   6.301   1.981   4.668  1.2570  0.7766 -2.3802
  375MOL0     H51737   6.247   2.044   4.887 -0.1772  0.4803  0.5012
  375MOL0     H51738   6.190   2.249   5.012 -0.1921 -1.1523  0.0934
  375MOL0     H51739   6.232   2.143   5.144 -1.2259  1.1587  2.2454
  375MOL0     H51740   6.265   2.450   5.145 -0.9513  0.6281  0.7054
  375MOL0     H51741   6.305   2.338   5.265 -1.7796  1.1691  0.9821
  375MOL0     H51742   6.019   2.386   5.150 -0.3085  4.0773  0.7020
  375MOL0     H51743   6.061   2.261   5.278  0.4325 -0.4048  0.1839
  375MOL0     H51744   6.061   2.555   5.294  3.2735 -0.4679 -3.5481
  375MOL0     H51745   6.164   2.456   5.407 -2.1311  0.1026  2.1802
  375MOL0     H51746   5.812   2.331   5.570 -1.2393 -0.6292 -1.0289
  375MOL0     H51747   6.532   2.364   4.855  1.4366 -0.5322 -0.6094
  375MOL0     H51748   6.663   2.290   4.513 -4.3259 -0.4566 -1.5181
  375MOL0     H51749   6.602   2.425   4.615 -0.4047 -0.4510 -1.6382
  375MOL0     H51750   6.727   2.304   4.673  0.9184  2.8065 -0.3284
  376MOL0     O51751   2.139   1.881   8.462 -0.7257 -0.3500 -0.0403
  376MOL0     C51752   2.056   1.930   8.382 -1.4351  0.0953 -1.0591
  376MOL0     O51753   2.087   1.982   8.258 -0.7659 -0.1777 -0.1993
  376MOL0     C51754   2.200   1.926   8.199  0.7757 -0.4140  0.3496
  376MOL0     C51755   2.335   1.954   8.241  0.2106 -0.6145 -0.6900
  376MOL0     C51756   2.444   1.902   8.173 -0.9870 -0.7188 -0.5782
  376MOL0     C51757   2.418   1.829   8.056 -0.1894 -0.3611 -0.4989
  376MOL0     O51758   2.522   1.764   7.992  0.1399  0.5741  0.5793
  376MOL0     C51759   2.633   1.725   8.069 -0.8947  0.8742  0.2924
  376MOL0     C51760   2.740   1.659   7.977  0.1007  0.6607 -0.0299
  376MOL0     C51761   2.792   1.748   7.857 -0.0089 -0.0228 -0.8205
  376MOL0     C51762   2.894   1.673   7.776 -0.9051  0.1303  0.5129
  376MOL0     C51763   3.038   1.677   7.840 -0.1860  0.0540  0.7382
  376MOL0     C51764   3.125   1.567   7.773  0.9608 -0.7541  0.1033
  376MOL0     C51765   3.269   1.565   7.817  0.1846 -0.1861 -0.9663
  376MOL0     C51766   3.355   1.674   7.756 -0.2544 -0.9617 -0.4100
  376MOL0     N51767   3.320   1.718   7.624  0.8313  0.0298 -0.1119
  376MOL0     C51768   3.240   1.821   7.594  0.4975  0.0700 -0.7812
  376MOL0     C51769   3.245   1.839   7.460  0.4683  0.1239 -0.6409
  376MOL0     C51770   3.160   1.931   7.377  0.0211 -0.4947 -0.4939
  376MOL0     C51771   3.239   2.072   7.360  0.4409  0.0691 -0.3266
  376MOL0     C51772   3.344   2.076   7.249  0.3302 -0.9268 -0.1780
  376MOL0     C51773   3.482   2.017   7.284  0.3999  0.3484 -0.1707
  376MOL0     O51774   3.528   2.089   7.403 -0.0561  0.2175  0.0172
  376MOL0     C51775   3.565   2.004   7.500 -0.0533 -0.1206  0.2537
  376MOL0     C51776   3.635   1.882   7.478 -0.3075 -0.9296 -0.0353
  376MOL0     C51777   3.678   1.804   7.590  0.3840 -0.3466  0.1827
  376MOL0     C51778   3.732   1.673   7.549 -0.3910  1.0250 -0.1506
  376MOL0     C51779   3.640   1.837   7.723  0.3619 -0.2835 -0.1909
  376MOL0     C51780   3.674   1.749   7.840  0.6574  0.4508 -0.3271
  376MOL0     O51781   3.685   1.616   7.827 -0.3755  0.1403  0.7294
  376MOL0     C51782   3.707   1.527   7.922 -0.2627  0.6491 -0.2725
  376MOL0     C51783   3.684   1.398   7.869 -0.1937 -0.0350 -0.7141
  376MOL0     C51784   3.716   1.287   7.943 -0.4007  0.1838 -0.4463
  376MOL0     C51785   3.750   1.292   8.078 -0.4402  0.1181 -0.7176
  376MOL0     O51786   3.778   1.182   8.159  0.1196  0.1779 -0.1594
  376MOL0     C51787   3.704   1.063   8.132 -0.7468  0.3820  0.1041
  376MOL0     C51788   3.711   0.971   8.261 -0.1529  0.7292  0.4436
  376MOL0     C51789   3.573   0.915   8.267 -0.1558 -0.2829  0.4259
  376MOL0     C51790   3.566   0.847   8.406 -0.1796  1.8784  0.2427
  376MOL0     C51791   3.570   0.689   8.408  0.6632  0.4235 -0.3482
  376MOL0     C51792   3.701   0.619   8.423  0.6004 -0.1349 -0.2344
  376MOL0     C51793   3.667   0.472   8.434  0.1750  0.4925  0.9477
  376MOL0     C51794   3.790   0.384   8.419  0.4501 -0.5477 -0.6356
  376MOL0    Cl51795   3.838   0.388   8.252  0.1625  0.1284 -0.0570
  376MOL0     C51796   3.781   1.421   8.128  0.4163  0.3925 -0.1826
  376MOL0     C51797   3.770   1.540   8.049  0.5349 -0.3606  0.3901
  376MOL0     O51798   3.691   1.810   7.948  0.3090 -0.3737  0.8534
  376MOL0     C51799   3.587   1.967   7.744  0.3514  0.2271  0.8750
  376MOL0     C51800   3.548   2.052   7.633 -0.5225  0.5336 -0.4091
  376MOL0     N51801   3.334   1.741   7.409  0.4192 -0.8812 -1.0934
  376MOL0     N51802   3.377   1.673   7.512  0.0890 -0.1314  0.3410
  376MOL0     C51803   2.287   1.810   8.005  0.7119 -0.4658 -0.0428
  376MOL0     C51804   2.185   1.843   8.090  0.7105 -0.0065  0.0842
  376MOL0     C51805   1.912   1.918   8.421 -0.2145  1.1031 -0.2471
  376MOL0     C51806   1.820   1.904   8.315 -0.2601 -0.4086 -0.7411
  376MOL0     C51807   1.684   1.866   8.347  1.2449 -0.7819  0.5495
  376MOL0     C51808   1.634   1.860   8.471 -0.7233  0.6091  0.1929
  376MOL0     O51809   1.504   1.822   8.487 -0.8157  0.3122  0.6165
  376MOL0     C51810   1.458   1.807   8.618 -0.6489  0.9737 -1.0132
  376MOL0     C51811   1.341   1.714   8.609 -0.8019  0.6353 -0.4801
  376MOL0     C51812   1.386   1.566   8.581  0.5112  0.4677 -0.1532
  376MOL0     C51813   1.254   1.480   8.580 -0.7374 -0.0167  1.0029
  376MOL0     C51814   1.283   1.349   8.626 -0.1007 -0.3295  0.5468
  376MOL0     C51815   1.305   1.240   8.671 -1.3346  0.2869  0.1089
  376MOL0     C51816   1.728   1.889   8.570  0.1005 -0.9633 -0.5757
  376MOL0     C51817   1.864   1.912   8.554 -0.2331 -0.8086 -0.1524
  376MOL0     C51818   1.938   1.937   8.688  0.1374 -0.2910 -0.3276
  376MOL0     H51819   2.343   2.016   8.330  0.2541 -0.1439 -1.0169
  376MOL0     H51820   2.542   1.934   8.209 -2.4610  2.4332  0.9895
  376MOL0     H51821   2.584   1.663   8.145  0.0541  0.9861  1.0121
  376MOL0     H51822   2.678   1.813   8.116  0.1790 -0.9797  3.0064
  376MOL0     H51823   2.829   1.633   8.035 -1.0768 -0.3320  1.4192
  376MOL0     H51824   2.699   1.565   7.941 -1.0393  0.9379  0.4740
  376MOL0     H51825   2.713   1.773   7.787 -2.0850 -1.5498  0.8454
  376MOL0     H51826   2.843   1.837   7.895 -1.8192 -0.6126  3.5851
  376MOL0     H51827   2.862   1.569   7.762  2.2185 -1.3811  3.1620
  376MOL0     H51828   2.909   1.718   7.677 -0.0008 -0.8620  0.1766
  376MOL0     H51829   3.029   1.660   7.948  0.3609 -2.3737  0.4700
  376MOL0     H51830   3.083   1.776   7.826 -1.1906  0.6685  1.6764
  376MOL0     H51831   3.076   1.470   7.789 -1.4794  0.2285 -0.9247
  376MOL0     H51832   3.124   1.571   7.664 -0.7883 -1.9817  0.0199
  376MOL0     H51833   3.322   1.472   7.798  1.6369 -0.4768  3.3996
  376MOL0     H51834   3.282   1.570   7.926 -0.1051 -0.5160 -0.9150
  376MOL0     H51835   3.370   1.767   7.812  1.0659 -1.5328  0.2161
  376MOL0     H51836   3.452   1.625   7.751  1.1312  1.1561  2.5713
  376MOL0     H51837   3.177   1.877   7.663  0.1526 -2.7080  1.3393
  376MOL0     H51838   3.065   1.939   7.430 -0.0409  0.8661 -0.7759
  376MOL0     H51839   3.134   1.892   7.278 -2.0187 -0.8401  0.1259
  376MOL0     H51840   3.156   2.138   7.332  0.3083 -1.1086 -3.0098
  376MOL0     H51841   3.299   2.096   7.449  3.3673 -1.7449 -1.6757
  376MOL0     H51842   3.294   2.037   7.160 -1.8199  0.4019  0.3737
  376MOL0     H51843   3.365   2.181   7.228  0.4494 -0.9354 -0.1007
  376MOL0     H51844   3.455   1.911   7.297 -2.2911  1.0053  0.1544
  376MOL0     H51845   3.565   2.029   7.214 -0.3414 -0.3072 -1.1775
  376MOL0     H51846   3.672   1.856   7.379  2.1516  1.6828  0.0599
  376MOL0     H51847   3.827   1.670   7.603 -0.0973  3.2194 -0.4766
  376MOL0     H51848   3.754   1.668   7.442  0.7118  2.2713 -0.0020
  376MOL0     H51849   3.653   1.601   7.573 -0.2338  1.0818  0.5681
  376MOL0     H51850   3.634   1.396   7.773 -1.2028 -0.3476 -0.1907
  376MOL0     H51851   3.699   1.187   7.903  0.0757 -1.2780  2.7114
  376MOL0     H51852   3.605   1.108   8.115 -1.0714 -0.4184 -0.1398
  376MOL0     H51853   3.753   1.015   8.047 -0.3715  2.5961 -1.0292
  376MOL0     H51854   3.784   0.889   8.255 -2.3823 -1.2604 -1.1108
  376MOL0     H51855   3.735   1.023   8.354  2.4960 -1.3856  1.0604
  376MOL0     H51856   3.551   0.833   8.197 -0.6422 -0.4738  0.7915
  376MOL0     H51857   3.502   0.998   8.265  0.5527  0.3284  0.5408
  376MOL0     H51858   3.471   0.877   8.452  0.1175  2.6727  0.3613
  376MOL0     H51859   3.643   0.888   8.472  0.4155 -1.3024  1.7334
  376MOL0     H51860   3.523   0.653   8.500 -1.3973  0.3787 -1.3722
  376MOL0     H51861   3.512   0.654   8.323 -0.6178  1.0028  0.2544
  376MOL0     H51862   3.754   0.662   8.508 -1.3888  4.6059 -1.0551
  376MOL0     H51863   3.751   0.644   8.329 -1.1447  4.4558 -0.2119
  376MOL0     H51864   3.595   0.439   8.358  1.2478 -1.6827  0.8047
  376MOL0     H51865   3.630   0.450   8.535  1.4174 -0.2095  1.2716
  376MOL0     H51866   3.767   0.282   8.453  1.9772 -1.4163 -2.0212
  376MOL0     H51867   3.865   0.437   8.478 -2.0267 -0.0120  2.2510
  376MOL0     H51868   3.796   1.432   8.235 -0.9774 -3.5780  0.5871
  376MOL0     H51869   3.803   1.636   8.086 -1.9168  0.2878  1.0810
  376MOL0     H51870   3.558   2.011   7.839  2.3868 -1.8401  2.5594
  376MOL0     H51871   3.496   2.146   7.644 -0.2291  0.4305  2.6569
  376MOL0     H51872   2.272   1.750   7.915 -1.4847 -1.2618  0.7859
  376MOL0     H51873   2.085   1.813   8.061  1.2168  1.7408 -4.2854
  376MOL0     H51874   1.842   1.907   8.208 -0.3635 -2.4985 -0.8711
  376MOL0     H51875   1.609   1.859   8.269  1.7905  6.8998 -1.4392
  376MOL0     H51876   1.539   1.777   8.685 -0.9577  2.8011  0.2499
  376MOL0     H51877   1.434   1.910   8.648  1.1140  0.2839  3.5909
  376MOL0     H51878   1.271   1.760   8.538 -0.7285  2.5186  0.6055
  376MOL0     H51879   1.302   1.722   8.711  2.3081 -0.4203  0.8967
  376MOL0     H51880   1.436   1.561   8.484 -2.3375  0.8195 -1.7757
  376MOL0     H51881   1.454   1.527   8.657 -2.2382 -1.4921  1.4817
  376MOL0     H51882   1.218   1.467   8.477  0.3398  0.7575  0.5124
  376MOL0     H51883   1.185   1.522   8.654  0.1908  1.3704  1.1067
  376MOL0     H51884   1.316   1.137   8.697 -0.2616 -0.0733 -1.6429
  376MOL0     H51885   1.698   1.893   8.674  0.0400  1.6071 -0.6286
  376MOL0     H51886   1.971   2.041   8.699  0.0781 -0.5434  3.8769
  376MOL0     H51887   1.865   1.924   8.769 -2.0889 -1.8868 -2.4504
  376MOL0     H51888   2.026   1.877   8.710 -0.1444 -0.5568  0.0969
  377MOL0     O51889   8.263   3.965   6.558  0.3575 -1.3576 -0.1843
  377MOL0     C51890   8.338   4.019   6.636  0.0817 -0.5579  1.3202
  377MOL0     O51891   8.300   4.086   6.745 -0.4681  0.1105 -0.8291
  377MOL0     C51892   8.176   4.059   6.797  0.7375  0.7415 -0.3467
  377MOL0     C51893   8.088   4.166   6.799  0.5503 -0.4080  0.2259
  377MOL0     C51894   7.962   4.153   6.868 -0.1986 -0.3172 -0.9701
  377MOL0     C51895   7.935   4.034   6.939 -0.3609  0.8346  0.2148
  377MOL0     O51896   7.823   4.022   7.007  0.5007  0.8282  0.0479
  377MOL0     C51897   7.819   4.066   7.145  0.3757  0.8832  0.2250
  377MOL0     C51898   7.798   3.937   7.226  0.2871  0.3504 -0.5460
  377MOL0     C51899   7.700   3.825   7.175  0.0971 -0.2679 -0.9285
  377MOL0     C51900   7.695   3.708   7.280  0.1001 -0.1701 -0.5707
  377MOL0     C51901   7.648   3.749   7.420  0.4646 -0.1145 -0.5360
  377MOL0     C51902   7.585   3.645   7.510  1.0172  0.0235  0.0609
  377MOL0     C51903   7.649   3.498   7.518  0.0041 -1.1088  0.3446
  377MOL0     C51904   7.589   3.421   7.629  1.0392  0.2072  0.4262
  377MOL0     N51905   7.671   3.309   7.664  0.1345  0.1392  0.5224
  377MOL0     C51906   7.635   3.178   7.638 -0.5605  0.1416  0.7376
  377MOL0     C51907   7.728   3.104   7.709  0.0938 -0.0054 -1.3061
  377MOL0     C51908   7.712   2.959   7.743  0.1889 -0.1188  0.5220
  377MOL0     C51909   7.675   2.953   7.895 -0.1628  0.4436  0.2060
  377MOL0     C51910   7.681   2.802   7.932  0.2067 -0.9717  0.7381
  377MOL0     C51911   7.684   2.785   8.087 -0.5557 -0.2724  0.3190
  377MOL0     O51912   7.627   2.661   8.120  0.0405  0.5989  0.6162
  377MOL0     C51913   7.707   2.543   8.115  1.0237 -0.7996  0.0669
  377MOL0     C51914   7.653   2.427   8.065 -0.5930 -0.0944  0.3876
  377MOL0     C51915   7.726   2.306   8.053  0.7716  0.0787  0.2727
  377MOL0     C51916   7.648   2.186   7.991  0.5025 -0.9753  0.0036
  377MOL0     C51917   7.866   2.307   8.079 -0.2538 -0.6121  0.8334
  377MOL0     C51918   7.961   2.195   8.055  0.0446 -0.1878 -0.4339
  377MOL0     O51919   8.087   2.229   8.088 -0.6423  0.8284  1.0195
  377MOL0     C51920   8.189   2.135   8.095  0.3032  0.0519  0.0086
  377MOL0     C51921   8.176   1.998   8.120  1.7810 -0.1351 -0.3802
  377MOL0     C51922   8.286   1.920   8.130  0.6105 -0.1367 -0.0167
  377MOL0     C51923   8.420   1.972   8.100  0.9741 -0.4005  0.3874
  377MOL0     O51924   8.520   1.884   8.092 -0.0736  0.1525 -0.3728
  377MOL0     C51925   8.648   1.908   8.153  0.0124 -0.5086  0.0478
  377MOL0     C51926   8.661   1.881   8.301  0.8496  0.4505 -0.5523
  377MOL0     C51927   8.643   1.735   8.339  0.4397 -0.0770  0.1693
  377MOL0     C51928   8.654   1.701   8.488 -0.0894  0.0047 -0.3848
  377MOL0     C51929   8.591   1.568   8.529 -0.1506 -0.2954  0.5554
  377MOL0     C51930   8.633   1.520   8.668  0.8253  0.1004 -0.1912
  377MOL0     C51931   8.783   1.484   8.671  0.4243 -0.2817  0.6808
  377MOL0     C51932   8.810   1.429   8.809 -0.6619 -0.0026 -0.5263
  377MOL0    Cl51933   8.979   1.385   8.834  0.4211 -0.4119 -0.4216
  377MOL0     C51934   8.427   2.104   8.073 -0.8976  0.3165  0.5007
  377MOL0     C51935   8.316   2.185   8.073  0.1049 -0.2581  0.9612
  377MOL0     O51936   7.921   2.084   8.008 -0.4717  0.1277  0.5281
  377MOL0     C51937   7.921   2.426   8.136 -0.0133  0.7252 -1.2243
  377MOL0     C51938   7.842   2.537   8.153  0.6481  0.2488  0.3226
  377MOL0     N51939   7.815   3.188   7.773 -0.6185  0.1829 -0.0808
  377MOL0     N51940   7.766   3.309   7.764 -0.4837 -0.0835 -0.0056
  377MOL0     C51941   8.021   3.929   6.931 -0.1862 -0.2246 -0.6928
  377MOL0     C51942   8.141   3.933   6.857 -0.5845 -0.4288  0.3738
  377MOL0     C51943   8.488   4.011   6.622 -0.4129 -0.0484 -1.0480
  377MOL0     C51944   8.563   4.129   6.597  0.4467 -0.0768  0.4506
  377MOL0     C51945   8.695   4.121   6.563 -0.6079  0.4790 -0.4051
  377MOL0     C51946   8.764   4.005   6.570  0.9022  1.2408 -0.4394
  377MOL0     O51947   8.899   3.989   6.554  0.6976 -0.4954  0.0852
  377MOL0     C51948   8.983   4.094   6.602  0.1242 -0.5732 -0.9848
  377MOL0     C51949   9.135   4.086   6.575 -0.5217  0.9891  0.6083
  377MOL0     C51950   9.157   4.091   6.421  0.0583 -0.1849 -0.0686
  377MOL0     C51951   9.308   4.092   6.391 -0.4963  1.4287 -1.3254
  377MOL0     C51952   9.375   3.958   6.413  0.1836 -0.2515  0.9008
  377MOL0     C51953   9.389   3.834   6.412 -0.4662 -0.4722  0.0404
  377MOL0     C51954   8.688   3.893   6.612  0.0627  0.1200 -0.9002
  377MOL0     C51955   8.556   3.890   6.631 -0.7979  0.1856 -1.0089
  377MOL0     C51956   8.487   3.755   6.662 -0.4225 -0.3807 -0.1464
  377MOL0     H51957   8.114   4.256   6.744 -0.5936 -0.3448 -0.2437
  377MOL0     H51958   7.884   4.229   6.867 -2.5494 -2.5394 -3.2302
  377MOL0     H51959   7.743   4.144   7.157  0.9603  1.5292 -0.1247
  377MOL0     H51960   7.904   4.129   7.173  1.9819 -0.2734 -1.7254
  377MOL0     H51961   7.899   3.899   7.215  0.7946  2.2360 -3.9850
  377MOL0     H51962   7.774   3.968   7.328 -1.2809 -1.8097 -0.1937
  377MOL0     H51963   7.596   3.858   7.161  0.1660  0.1140 -0.5457
  377MOL0     H51964   7.742   3.780   7.084  0.2827  0.3880 -1.1748
  377MOL0     H51965   7.628   3.629   7.244  0.7265 -0.0575 -2.0719
  377MOL0     H51966   7.798   3.673   7.291  0.3610  1.2484  2.8244
  377MOL0     H51967   7.571   3.823   7.397 -3.2083 -2.6451  2.2743
  377MOL0     H51968   7.737   3.789   7.468  0.2054  2.0773 -1.7400
  377MOL0     H51969   7.586   3.689   7.610 -1.4000  1.6618 -0.5489
  377MOL0     H51970   7.477   3.641   7.492  1.2411 -0.3963 -1.3452
  377MOL0     H51971   7.755   3.518   7.539 -0.3282 -0.5937  1.6332
  377MOL0     H51972   7.637   3.455   7.419 -2.4926 -0.6577  0.3986
  377MOL0     H51973   7.588   3.492   7.712 -0.2366  0.3177  0.3264
  377MOL0     H51974   7.488   3.391   7.599  1.7620 -3.0041  0.7964
  377MOL0     H51975   7.546   3.145   7.586 -0.5238  1.5782 -0.2965
  377MOL0     H51976   7.798   2.896   7.717  0.2451 -0.1565  0.7925
  377MOL0     H51977   7.628   2.924   7.683  1.0435 -1.9512  0.3329
  377MOL0     H51978   7.742   3.007   7.962  1.2610 -0.1150 -0.7386
  377MOL0     H51979   7.571   2.985   7.908 -0.9432 -1.5632 -0.6905
  377MOL0     H51980   7.597   2.753   7.881 -0.4962  4.3306 -4.1719
  377MOL0     H51981   7.772   2.754   7.896 -0.6448 -0.3537 -2.6284
  377MOL0     H51982   7.784   2.804   8.128  0.3371  0.3636 -1.9697
  377MOL0     H51983   7.620   2.866   8.124 -2.2360  0.4291 -3.6203
  377MOL0     H51984   7.545   2.414   8.063 -0.4930 -1.6109  1.8780
  377MOL0     H51985   7.686   2.092   8.030  2.1386 -0.4169 -0.1884
  377MOL0     H51986   7.648   2.183   7.882 -2.1051 -1.7281 -0.0551
  377MOL0     H51987   7.541   2.185   8.016  0.4945 -1.3210 -0.0459
  377MOL0     H51988   8.083   1.949   8.146  0.9614  2.4381  2.0171
  377MOL0     H51989   8.274   1.815   8.154 -0.2247  0.6555  3.7256
  377MOL0     H51990   8.720   1.839   8.108 -0.1827  0.0057 -1.0979
  377MOL0     H51991   8.667   2.014   8.137  0.5197 -0.2331  2.1621
  377MOL0     H51992   8.762   1.912   8.328  1.4796 -1.1403 -0.9772
  377MOL0     H51993   8.582   1.941   8.349 -0.9465  0.5496 -3.4274
  377MOL0     H51994   8.720   1.675   8.290  0.4854  0.1008  0.0238
  377MOL0     H51995   8.549   1.701   8.294  1.1948 -1.3331 -0.5135
  377MOL0     H51996   8.615   1.786   8.545 -0.6175  1.9686 -3.4653
  377MOL0     H51997   8.756   1.682   8.521 -0.5447 -1.0121  0.5237
  377MOL0     H51998   8.483   1.583   8.534  0.0979  1.6389  1.1337
  377MOL0     H51999   8.612   1.496   8.449  0.8253  2.2108 -1.5973
  377MOL0     H52000   8.583   1.428   8.699  1.3643 -0.1296  0.0073
  377MOL0     H52001   8.591   1.590   8.741  1.3696  2.7653 -2.2834
  377MOL0     H52002   8.849   1.571   8.665  0.8733 -0.6121  0.7419
  377MOL0     H52003   8.805   1.417   8.587 -1.1227 -1.9787  1.5548
  377MOL0     H52004   8.750   1.340   8.829 -0.2809 -0.3006 -0.7025
  377MOL0     H52005   8.793   1.513   8.877  1.2525  2.3502 -2.7330
  377MOL0     H52006   8.528   2.138   8.054 -0.6640 -0.9039 -0.5743
  377MOL0     H52007   8.332   2.291   8.063 -0.9973 -0.2694 -1.5387
  377MOL0     H52008   8.024   2.442   8.166 -1.6229  0.4965  6.3405
  377MOL0     H52009   7.894   2.624   8.193 -0.3231  1.5156 -1.0726
  377MOL0     H52010   8.020   3.839   6.991  2.2219 -1.0160 -1.7109
  377MOL0     H52011   8.211   3.850   6.848 -1.7272 -1.2414 -5.2658
  377MOL0     H52012   8.508   4.223   6.594  0.1592 -0.1982  1.5069
  377MOL0     H52013   8.746   4.211   6.531 -1.0724  1.3700  1.2420
  377MOL0     H52014   8.953   4.197   6.579  0.5397 -0.1228  0.4081
  377MOL0     H52015   8.976   4.085   6.710  0.3224 -2.6052 -1.0985
  377MOL0     H52016   9.178   3.992   6.612 -2.3098 -0.7803 -1.5233
  377MOL0     H52017   9.195   4.166   6.619  1.6081 -0.7126  0.9858
  377MOL0     H52018   9.128   4.001   6.367  1.5204 -1.8695  1.8146
  377MOL0     H52019   9.111   4.185   6.388  0.1962  0.7823  2.2521
  377MOL0     H52020   9.363   4.168   6.448 -0.7323  0.9150 -0.3878
  377MOL0     H52021   9.304   4.122   6.286 -2.0483  0.6822 -1.4961
  377MOL0     H52022   9.403   3.728   6.414  1.7299 -0.2318  2.1100
  377MOL0     H52023   8.741   3.799   6.604 -3.6975 -2.0822 -2.8219
  377MOL0     H52024   8.569   3.683   6.655  2.0894  2.4620 -2.5470
  377MOL0     H52025   8.438   3.758   6.759  2.2121  2.0054  1.2582
  377MOL0     H52026   8.406   3.728   6.593  0.4041  0.3185 -1.4202
  378MOL0     O52027   2.020   6.030   3.920  0.6570  0.4561  0.1465
  378MOL0     C52028   1.941   6.047   4.010  0.0803 -0.0444 -0.5287
  378MOL0     O52029   1.832   5.967   4.049 -1.4272  0.5660  0.2887
  378MOL0     C52030   1.839   5.841   3.986  0.2259  0.6399  1.1453
  378MOL0     C52031   1.769   5.812   3.863  0.8041  0.6146 -0.3685
  378MOL0     C52032   1.752   5.675   3.820  0.1578 -1.3706  0.3222
  378MOL0     C52033   1.818   5.583   3.899  1.0801  0.1497  0.2573
  378MOL0     O52034   1.821   5.457   3.857 -0.1882 -0.2294 -0.8621
  378MOL0     C52035   1.703   5.389   3.813  0.0763 -0.7813  0.2336
  378MOL0     C52036   1.736   5.246   3.769 -1.1693  0.3590 -0.3098
  378MOL0     C52037   1.782   5.166   3.897  0.0434 -0.1424 -0.1803
  378MOL0     C52038   1.671   5.087   3.958  0.9182 -0.0922 -0.4578
  378MOL0     C52039   1.695   5.020   4.086  0.8887  0.4465 -0.0544
  378MOL0     C52040   1.682   5.126   4.204 -0.2796 -0.3309 -0.0187
  378MOL0     C52041   1.618   5.271   4.175 -0.1684  0.9097  0.1021
  378MOL0     C52042   1.652   5.365   4.291 -0.4397 -0.4672  0.3536
  378MOL0     N52043   1.628   5.309   4.428  0.1765 -0.0519  0.5752
  378MOL0     C52044   1.503   5.279   4.483 -0.0864 -0.5711 -0.0649
  378MOL0     C52045   1.532   5.218   4.595 -0.2596 -0.8103  0.2911
  378MOL0     C52046   1.437   5.164   4.701  0.1706 -0.0368  0.8645
  378MOL0     C52047   1.489   5.028   4.743 -0.5530  0.1072  0.3488
  378MOL0     C52048   1.386   4.946   4.818  0.6040  0.7082 -0.4629
  378MOL0     C52049   1.437   4.815   4.883  1.0422  0.1639  0.0572
  378MOL0     O52050   1.530   4.837   4.990  0.6642 -0.4522  0.5760
  378MOL0     C52051   1.575   4.735   5.071 -0.3080  0.1904  0.7583
  378MOL0     C52052   1.529   4.606   5.057  1.0848 -0.6966  0.1369
  378MOL0     C52053   1.541   4.506   5.152 -0.7416 -0.7754 -0.9324
  378MOL0     C52054   1.514   4.367   5.109 -0.1364  0.0350  0.6764
  378MOL0     C52055   1.612   4.533   5.269 -0.2220 -0.2403 -0.0876
  378MOL0     C52056   1.649   4.435   5.371 -0.8850  0.4007 -0.0281
  378MOL0     O52057   1.784   4.416   5.394  0.4119 -0.2855 -0.2093
  378MOL0     C52058   1.816   4.315   5.487  0.2447 -0.3196  0.3201
  378MOL0     C52059   1.852   4.186   5.440 -0.6481  1.0848 -0.2826
  378MOL0     C52060   1.865   4.083   5.537 -0.6322  0.2580 -0.1170
  378MOL0     C52061   1.877   4.104   5.671 -0.0233 -0.6274  1.4438
  378MOL0     O52062   1.922   4.011   5.757 -0.0656  0.5456  0.2374
  378MOL0     C52063   1.819   3.947   5.832 -0.0907  0.4375  0.1644
  378MOL0     C52064   1.875   3.846   5.929  0.3209  0.2860 -1.0158
  378MOL0     C52065   1.963   3.935   6.026 -0.3770  0.2343 -0.9907
  378MOL0     C52066   2.035   3.864   6.142 -1.1735  0.1083 -0.5704
  378MOL0     C52067   2.110   3.961   6.242  0.4724 -1.1837  0.1483
  378MOL0     C52068   2.169   3.885   6.363  0.4588 -0.1477  0.0325
  378MOL0     C52069   2.270   3.775   6.327 -0.0638  1.0883 -0.6496
  378MOL0     C52070   2.338   3.709   6.451 -0.1963  0.2350 -0.3268
  378MOL0    Cl52071   2.448   3.588   6.389  0.1103  0.2157  0.4055
  378MOL0     C52072   1.834   4.231   5.717  0.0969 -0.4694  0.4007
  378MOL0     C52073   1.798   4.330   5.623  1.4094  0.9808 -0.8527
  378MOL0     O52074   1.558   4.373   5.424  0.0071  0.9696  0.5097
  378MOL0     C52075   1.676   4.663   5.275 -0.9756 -0.3106  0.3853
  378MOL0     C52076   1.656   4.764   5.178  0.2729  0.1998 -0.3272
  378MOL0     N52077   1.671   5.208   4.605  0.2043  0.0789  0.0275
  378MOL0     N52078   1.726   5.271   4.507  0.6678 -0.1579 -0.1675
  378MOL0     C52079   1.890   5.614   4.015  0.2555 -0.2452 -1.0020
  378MOL0     C52080   1.904   5.744   4.054  0.2235  0.1431 -0.5758
  378MOL0     C52081   1.941   6.189   4.080  0.2224  0.2411  0.2828
  378MOL0     C52082   1.879   6.208   4.205 -0.2058 -1.0060  0.3605
  378MOL0     C52083   1.861   6.340   4.257  0.5041 -0.4524  0.5563
  378MOL0     C52084   1.914   6.449   4.192 -0.0132 -0.2654 -0.5526
  378MOL0     O52085   1.915   6.584   4.225 -0.7672  0.0764  0.5467
  378MOL0     C52086   1.881   6.622   4.362 -0.1749 -0.2758 -0.0481
  378MOL0     C52087   1.993   6.704   4.421 -0.2109 -0.4803  0.4528
  378MOL0     C52088   1.982   6.733   4.569  0.2619 -0.3938  0.1860
  378MOL0     C52089   2.086   6.667   4.655  0.4342 -0.0401 -0.2140
  378MOL0     C52090   2.072   6.702   4.797  0.9823 -0.4966  0.0973
  378MOL0     C52091   2.045   6.728   4.910  0.0518 -0.3188 -0.3093
  378MOL0     C52092   1.988   6.428   4.080  0.7715  0.2585  0.8846
  378MOL0     C52093   2.001   6.298   4.016  0.8334  0.6283 -0.5689
  378MOL0     C52094   2.085   6.296   3.887  0.1158  0.5493 -0.6806
  378MOL0     H52095   1.734   5.884   3.791 -1.2435 -0.8184 -0.8932
  378MOL0     H52096   1.709   5.653   3.723  3.8334 -1.7627 -1.3839
  378MOL0     H52097   1.664   5.440   3.724  0.1668  1.0365  1.1770
  378MOL0     H52098   1.630   5.386   3.894  0.5408  0.1191  0.7042
  378MOL0     H52099   1.650   5.207   3.714 -0.2578 -1.5261 -0.4881
  378MOL0     H52100   1.814   5.237   3.693 -2.6158  3.2308 -2.2985
  378MOL0     H52101   1.868   5.104   3.871  0.6485  0.8058 -0.5244
  378MOL0     H52102   1.814   5.227   3.983 -2.2091 -0.2250  0.7886
  378MOL0     H52103   1.575   5.140   3.963  1.2992  0.4897  2.2836
  378MOL0     H52104   1.649   5.007   3.888 -1.0957  0.9187 -1.0674
  378MOL0     H52105   1.782   4.955   4.099  0.5068 -0.1291 -0.3708
  378MOL0     H52106   1.606   4.961   4.111  2.2138 -0.3554  3.3338
  378MOL0     H52107   1.637   5.074   4.289 -1.6788 -0.6461 -0.9204
  378MOL0     H52108   1.784   5.156   4.228 -0.2389  0.1638 -0.7527
  378MOL0     H52109   1.514   5.257   4.146  0.3450  0.7662 -1.8041
  378MOL0     H52110   1.667   5.319   4.089 -1.2040 -3.5445 -3.3247
  378MOL0     H52111   1.761   5.378   4.282 -0.3673 -1.4076 -0.2932
  378MOL0     H52112   1.600   5.462   4.288  1.8274  0.8243  0.3729
  378MOL0     H52113   1.406   5.301   4.440  0.1351  1.4898  0.3474
  378MOL0     H52114   1.334   5.164   4.665  0.4762  1.6160 -0.0766
  378MOL0     H52115   1.443   5.214   4.798 -2.6899 -0.0232  1.1063
  378MOL0     H52116   1.517   4.967   4.656  0.8497 -0.2424  1.0213
  378MOL0     H52117   1.579   5.033   4.804  1.8438  1.0867 -2.9679
  378MOL0     H52118   1.340   5.009   4.895 -1.6190  0.6206 -1.6415
  378MOL0     H52119   1.316   4.915   4.740 -0.1856 -1.9982  1.2055
  378MOL0     H52120   1.355   4.766   4.936  4.1378  0.3236  5.7495
  378MOL0     H52121   1.479   4.753   4.802  0.4241  1.3106 -1.1690
  378MOL0     H52122   1.480   4.574   4.966  3.6571  1.0895 -2.0226
  378MOL0     H52123   1.563   4.286   5.164  0.5190  0.9375  1.4598
  378MOL0     H52124   1.537   4.345   5.004 -2.8716 -0.0080  0.0035
  378MOL0     H52125   1.408   4.345   5.125  0.0361 -1.2192  0.2101
  378MOL0     H52126   1.862   4.171   5.333  1.7937 -2.3371  0.2473
  378MOL0     H52127   1.883   3.988   5.488  0.9899 -0.3803  1.6084
  378MOL0     H52128   1.778   4.025   5.896 -0.1789 -0.3569  1.1076
  378MOL0     H52129   1.744   3.909   5.762  0.5728  1.0374 -0.9061
  378MOL0     H52130   1.791   3.799   5.981  0.5029 -0.7522 -1.6226
  378MOL0     H52131   1.927   3.768   5.872  1.9280 -0.2091  1.0145
  378MOL0     H52132   1.916   4.021   6.075  0.8787 -0.8109  2.3671
  378MOL0     H52133   2.041   3.991   5.974 -1.1362  1.8435 -0.4734
  378MOL0     H52134   2.108   3.795   6.099 -0.4348  1.8172 -2.2279
  378MOL0     H52135   1.971   3.802   6.205  2.7744 -2.2719  1.5112
  378MOL0     H52136   2.184   4.014   6.182 -0.2774  0.2533  0.4497
  378MOL0     H52137   2.044   4.041   6.276 -2.2724 -1.6738 -3.4701
  378MOL0     H52138   2.083   3.847   6.419  0.1129  3.2353  2.0354
  378MOL0     H52139   2.209   3.967   6.423 -0.4594 -0.5148  1.1635
  378MOL0     H52140   2.345   3.828   6.269  0.3424  0.2519 -0.8978
  378MOL0     H52141   2.222   3.700   6.263  3.1208  0.4947 -2.5387
  378MOL0     H52142   2.257   3.665   6.510 -0.6343  1.3053 -0.1077
  378MOL0     H52143   2.389   3.786   6.511  0.5027  0.4146 -1.1340
  378MOL0     H52144   1.848   4.256   5.822 -1.4755  0.1395  0.4926
  378MOL0     H52145   1.771   4.429   5.660  1.1890  0.7257 -0.3193
  378MOL0     H52146   1.728   4.694   5.364 -3.3584 -2.2333  2.5986
  378MOL0     H52147   1.704   4.861   5.180  2.6831 -0.6712 -4.0986
  378MOL0     H52148   1.945   5.533   4.061 -0.0273  0.1429  0.0422
  378MOL0     H52149   1.951   5.741   4.151 -1.8751 -2.3353  0.5113
  378MOL0     H52150   1.829   6.124   4.252 -1.5139 -1.3342 -1.4909
  378MOL0     H52151   1.802   6.358   4.346  1.7811 -0.6950  1.4868
  378MOL0     H52152   1.782   6.667   4.351  1.4268  3.2458 -1.7389
  378MOL0     H52153   1.876   6.528   4.418 -1.7698 -1.4132 -1.9809
  378MOL0     H52154   1.992   6.803   4.374 -0.8627 -1.8168 -2.6105
  378MOL0     H52155   2.089   6.656   4.400  0.0251 -0.1110  0.6814
  378MOL0     H52156   1.991   6.842   4.579 -1.7469 -0.0867 -0.8532
  378MOL0     H52157   1.882   6.709   4.607 -0.0937 -0.6844 -0.9069
  378MOL0     H52158   2.180   6.715   4.624  0.3243  0.8379  0.7289
  378MOL0     H52159   2.091   6.559   4.644 -0.7219 -0.0255 -1.0474
  378MOL0     H52160   2.026   6.750   5.013 -1.5862 -2.5139 -0.0552
  378MOL0     H52161   2.034   6.508   4.022  2.4124 -1.0965  0.2470
  378MOL0     H52162   2.119   6.393   3.850 -0.6720  1.6068  1.2282
  378MOL0     H52163   2.174   6.237   3.912 -0.8440 -1.2193 -1.2387
  378MOL0     H52164   2.041   6.249   3.798 -0.0738  1.2599 -0.9659
  379MOL0     O52165   9.096   0.467   1.061  0.1833 -0.3630 -0.0863
  379MOL0     C52166   9.202   0.413   1.045  0.8113 -0.5332  0.0466
  379MOL0     O52167   9.318   0.475   1.062 -0.1849  0.3891 -0.3351
  379MOL0     C52168   9.318   0.589   1.128 -0.6545  0.3350 -0.0935
  379MOL0     C52169   9.262   0.605   1.253 -0.3506 -0.6554 -0.8502
  379MOL0     C52170   9.242   0.734   1.305  0.0004 -0.4016 -0.1960
  379MOL0     C52171   9.294   0.846   1.239 -0.4330  0.3862 -0.0529
  379MOL0     O52172   9.267   0.963   1.308 -0.8460 -0.0011  0.2864
  379MOL0     C52173   9.269   1.087   1.231  0.5578 -0.0767 -0.5599
  379MOL0     C52174   9.222   1.215   1.320 -0.4409  1.3528  0.1782
  379MOL0     C52175   9.274   1.346   1.261 -0.4994 -0.8101  0.8046
  379MOL0     C52176   9.217   1.348   1.118  0.2587 -0.3591 -0.5017
  379MOL0     C52177   9.221   1.489   1.070  0.0157  0.4321  0.4308
  379MOL0     C52178   9.250   1.496   0.915  0.7624 -0.3980 -0.0686
  379MOL0     C52179   9.275   1.639   0.879  0.0174 -0.1869  0.2700
  379MOL0     C52180   9.310   1.653   0.735  0.1980  0.3758  0.5424
  379MOL0     N52181   9.317   1.793   0.674  0.0794 -0.1447 -0.2260
  379MOL0     C52182   9.423   1.834   0.606  0.0771 -0.0396 -0.4411
  379MOL0     C52183   9.397   1.961   0.573 -0.0295 -1.0186 -0.3590
  379MOL0     C52184   9.473   2.053   0.490 -0.1247  0.0845 -0.6291
  379MOL0     C52185   9.436   2.039   0.342 -0.7267  0.0406 -0.1640
  379MOL0     C52186   9.388   1.896   0.286  0.3270  1.0894  0.1144
  379MOL0     C52187   9.384   1.891   0.130 -0.1758 -0.1788  0.1095
  379MOL0     O52188   9.522   1.908   0.079  0.1400  0.1191 -0.1518
  379MOL0     C52189   9.524   1.942  -0.055 -0.2775 -0.0536 -0.1026
  379MOL0     C52190   9.641   1.985  -0.102 -0.5450  0.6247  0.5899
  379MOL0     C52191   9.664   2.006  -0.235  0.1231 -0.9849 -0.8434
  379MOL0     C52192   9.800   2.054  -0.280 -0.0858  0.0731 -0.4738
  379MOL0     C52193   9.547   2.008  -0.317 -0.2792 -0.0852  1.0465
  379MOL0     C52194   9.551   2.028  -0.462 -0.4586 -0.6947  0.4270
  379MOL0     O52195   9.436   2.029  -0.529 -0.0606 -0.1268  1.2423
  379MOL0     C52196   9.438   2.047  -0.671 -0.2395 -1.1408  0.4058
  379MOL0     C52197   9.533   2.111  -0.763  0.3608 -0.2312 -0.1180
  379MOL0     C52198   9.524   2.097  -0.896 -0.7589  0.6119  1.1243
  379MOL0     C52199   9.414   2.032  -0.961  0.5431 -0.5617  0.6159
  379MOL0     O52200   9.400   2.021  -1.098  0.5383  0.6908  0.6583
  379MOL0     C52201   9.489   2.106  -1.171  0.1094  0.3674 -0.2615
  379MOL0     C52202   9.440   2.095  -1.317 -0.5911 -0.0407 -0.2166
  379MOL0     C52203   9.465   1.959  -1.393  0.4289  0.3262  0.1155
  379MOL0     C52204   9.482   1.987  -1.537 -0.1759  0.3253  0.8070
  379MOL0     C52205   9.491   1.851  -1.604  0.1047 -0.0644 -0.1311
  379MOL0     C52206   9.514   1.874  -1.753  0.9588 -0.4290  0.8710
  379MOL0     C52207   9.523   1.736  -1.835 -0.0833 -0.5850 -1.1193
  379MOL0     C52208   9.498   1.741  -1.982  0.0713  0.7349 -0.2536
  379MOL0    Cl52209   9.335   1.805  -2.031  0.1488 -0.2660  0.0920
  379MOL0     C52210   9.308   1.988  -0.876 -0.0776 -0.7847  0.0738
  379MOL0     C52211   9.321   1.998  -0.734  0.8625 -0.1829  1.2248
  379MOL0     O52212   9.658   2.046  -0.511  0.1062  0.3571  0.9816
  379MOL0     C52213   9.425   1.957  -0.273  0.8795 -0.3687  0.2082
  379MOL0     C52214   9.416   1.915  -0.142  0.5033  0.2419  0.1398
  379MOL0     N52215   9.275   1.995   0.624 -0.8468  0.1531 -0.4051
  379MOL0     N52216   9.224   1.892   0.686  0.0459  0.0996  0.1841
  379MOL0     C52217   9.367   0.831   1.126  0.1591 -0.7299  0.6783
  379MOL0     C52218   9.375   0.704   1.067 -0.5200  0.5079  0.4257
  379MOL0     C52219   9.210   0.284   0.988  1.5250  0.2272 -0.7129
  379MOL0     C52220   9.320   0.244   0.908  0.7027 -0.9415 -0.8241
  379MOL0     C52221   9.346   0.125   0.845  0.5579 -0.1615 -0.2150
  379MOL0     C52222   9.246   0.026   0.849  0.4679  0.1534 -0.8423
  379MOL0     O52223   9.260  -0.093   0.782 -0.6128  0.0275  0.6289
  379MOL0     C52224   9.161  -0.114   0.689  0.8081  0.8731 -0.1262
  379MOL0     C52225   9.179  -0.022   0.568 -0.4634 -0.3235 -0.2288
  379MOL0     C52226   9.309  -0.046   0.486 -0.0559 -0.9376  0.3220
  379MOL0     C52227   9.302   0.043   0.358 -0.5688  0.5365  0.1805
  379MOL0     C52228   9.435   0.111   0.331 -0.9926 -0.0348 -0.4599
  379MOL0     C52229   9.555   0.139   0.321 -0.7753 -0.8668 -0.4230
  379MOL0     C52230   9.134   0.060   0.931 -0.4067  0.0163 -0.6984
  379MOL0     C52231   9.109   0.183   0.996 -0.0737  0.9186 -0.8426
  379MOL0     C52232   8.965   0.201   1.058 -1.1873  0.3922  0.6716
  379MOL0     H52233   9.209   0.530   1.312 -1.3442  0.3864 -0.3770
  379MOL0     H52234   9.173   0.754   1.386  0.1833  0.9282 -0.3390
  379MOL0     H52235   9.204   1.076   1.144 -0.9336 -0.8569  0.5919
  379MOL0     H52236   9.369   1.091   1.188  0.9992 -1.5624  0.2574
  379MOL0     H52237   9.114   1.215   1.335 -0.5504  0.3357 -0.4672
  379MOL0     H52238   9.255   1.209   1.424 -0.6172  0.4966  0.1929
  379MOL0     H52239   9.254   1.435   1.321 -3.2135  0.1162 -1.2151
  379MOL0     H52240   9.380   1.345   1.234 -1.0116 -0.2339 -1.5003
  379MOL0     H52241   9.268   1.274   1.055 -0.5184 -0.4156 -1.0815
  379MOL0     H52242   9.114   1.310   1.111  0.3594 -0.7087 -0.1175
  379MOL0     H52243   9.311   1.541   1.104  1.4142 -0.6494 -1.4880
  379MOL0     H52244   9.122   1.532   1.092 -0.7026 -0.6126 -0.6381
  379MOL0     H52245   9.340   1.437   0.895  0.2842 -1.2670  0.2551
  379MOL0     H52246   9.165   1.454   0.859 -1.9608  0.3891  3.1559
  379MOL0     H52247   9.354   1.692   0.933 -0.7106 -1.7583  3.1058
  379MOL0     H52248   9.177   1.686   0.887  0.8461  1.6014  0.3796
  379MOL0     H52249   9.411   1.610   0.741 -0.3624 -0.9466  0.7277
  379MOL0     H52250   9.253   1.588   0.668  0.1131  3.1676 -2.3234
  379MOL0     H52251   9.511   1.778   0.577 -0.3547 -0.4891 -0.9169
  379MOL0     H52252   9.578   2.027   0.503  0.3556  1.5512 -1.4051
  379MOL0     H52253   9.460   2.158   0.518  2.1438  0.7439 -1.7759
  379MOL0     H52254   9.350   2.103   0.322 -3.1825 -1.7324  3.4774
  379MOL0     H52255   9.528   2.070   0.291 -0.5011  1.1663  0.8810
  379MOL0     H52256   9.452   1.816   0.324 -2.1391 -0.1523  2.0005
  379MOL0     H52257   9.290   1.877   0.332  0.3589 -1.8723 -0.8720
  379MOL0     H52258   9.336   1.797   0.101 -0.4874  0.3019 -0.9721
  379MOL0     H52259   9.323   1.978   0.102  2.2494  1.2196 -1.1219
  379MOL0     H52260   9.731   1.998  -0.043  0.9318 -3.7217 -0.2810
  379MOL0     H52261   9.790   2.146  -0.337 -1.1258  2.1737  2.7934
  379MOL0     H52262   9.841   1.976  -0.345 -1.5072  0.7162 -2.2076
  379MOL0     H52263   9.873   2.091  -0.206  1.0259  0.0185 -1.5114
  379MOL0     H52264   9.615   2.168  -0.719 -0.0069 -0.4448  0.8727
  379MOL0     H52265   9.607   2.134  -0.955 -0.1604 -1.4322  0.5953
  379MOL0     H52266   9.486   2.209  -1.135 -0.5759 -0.2673  1.6099
  379MOL0     H52267   9.590   2.064  -1.165  0.0513  0.3274  0.4941
  379MOL0     H52268   9.333   2.119  -1.320 -0.7363 -0.6064 -3.5136
  379MOL0     H52269   9.491   2.182  -1.361  0.7611  1.2298  3.4939
  379MOL0     H52270   9.380   1.891  -1.379 -1.1006  1.7636 -1.5641
  379MOL0     H52271   9.554   1.908  -1.355  0.1373 -1.0303 -0.9239
  379MOL0     H52272   9.574   2.041  -1.561  0.3986 -1.3786 -1.1710
  379MOL0     H52273   9.397   2.040  -1.580  0.0022 -1.7337 -2.3910
  379MOL0     H52274   9.566   1.784  -1.563  0.3396  1.5348  2.2246
  379MOL0     H52275   9.391   1.808  -1.588 -1.6016  3.2334 -0.8443
  379MOL0     H52276   9.606   1.930  -1.776  0.2388  0.4867  0.1119
  379MOL0     H52277   9.426   1.926  -1.791 -0.1487 -1.0286  2.5422
  379MOL0     H52278   9.454   1.661  -1.796  0.0509 -0.7055 -1.1130
  379MOL0     H52279   9.625   1.695  -1.833 -0.3278 -1.1934 -1.0076
  379MOL0     H52280   9.513   1.643  -2.028  1.6385  1.4848 -1.4279
  379MOL0     H52281   9.577   1.802  -2.026  1.1893  0.5092  1.3377
  379MOL0     H52282   9.223   1.934  -0.916 -0.0896 -0.7577  0.0617
  379MOL0     H52283   9.249   1.948  -0.669  0.3137 -0.7135  0.2424
  379MOL0     H52284   9.346   1.949  -0.347  0.9931  2.8066 -0.4057
  379MOL0     H52285   9.322   1.866  -0.116 -1.3987  2.8121 -1.4110
  379MOL0     H52286   9.419   0.909   1.072  0.4329 -1.1863  0.2680
  379MOL0     H52287   9.432   0.697   0.975 -1.0518  2.5545 -0.1120
  379MOL0     H52288   9.404   0.313   0.905  0.8526 -1.1277 -1.0007
  379MOL0     H52289   9.441   0.107   0.798  2.6720  1.7008  2.9364
  379MOL0     H52290   9.160  -0.221   0.664  2.7446  1.2569 -2.0918
  379MOL0     H52291   9.067  -0.076   0.731  1.8873  2.1682  1.2266
  379MOL0     H52292   9.172   0.084   0.595  1.9558 -0.6281  2.0041
  379MOL0     H52293   9.094  -0.045   0.503 -2.0214  1.5314  1.0391
  379MOL0     H52294   9.396  -0.015   0.544  0.6004 -1.0651 -0.5833
  379MOL0     H52295   9.317  -0.151   0.459 -1.2189 -1.2973  1.2929
  379MOL0     H52296   9.218   0.110   0.376 -1.3877 -0.7745  1.4625
  379MOL0     H52297   9.285  -0.015   0.267 -2.7935 -2.4146  2.2562
  379MOL0     H52298   9.652   0.180   0.306 -1.9317  3.1970  1.5415
  379MOL0     H52299   9.049  -0.007   0.924  1.3843 -2.2027 -2.9293
  379MOL0     H52300   8.960   0.244   1.158 -3.2695  2.8122 -0.3522
  379MOL0     H52301   8.908   0.267   0.992  0.4362 -2.5037 -4.1368
  379MOL0     H52302   8.918   0.102   1.056 -0.6931  0.1599 -0.4174
  380MOL0     O52303   5.231   7.500   2.913  0.7434 -0.3798 -0.3674
  380MOL0     C52304   5.266   7.458   3.026 -0.3105 -0.9221  0.2829
  380MOL0     O52305   5.361   7.361   3.047 -0.6154 -0.0097  0.8451
  380MOL0     C52306   5.413   7.283   2.944 -0.9173 -1.0423  0.2171
  380MOL0     C52307   5.351   7.249   2.818 -0.4874 -0.8687 -0.7415
  380MOL0     C52308   5.417   7.179   2.721 -0.6285 -0.2844  0.3983
  380MOL0     C52309   5.538   7.113   2.754  0.2589  0.3148 -0.2948
  380MOL0     O52310   5.601   7.017   2.678 -0.4485 -0.3045  0.0434
  380MOL0     C52311   5.586   7.032   2.536  0.8476 -0.5501 -0.4433
  380MOL0     C52312   5.615   6.896   2.466 -0.2902  0.2390 -0.8961
  380MOL0     C52313   5.744   6.825   2.513 -0.8217 -0.4379 -0.5722
  380MOL0     C52314   5.778   6.722   2.405 -0.4061  0.6571  1.4346
  380MOL0     C52315   5.904   6.651   2.440 -0.4001  0.4904 -0.6365
  380MOL0     C52316   5.883   6.536   2.532 -0.2159 -0.3720 -1.1042
  380MOL0     C52317   6.018   6.487   2.587 -0.0794 -0.6009 -0.3818
  380MOL0     C52318   6.025   6.353   2.656  0.7432 -0.2496  0.4488
  380MOL0     N52319   5.960   6.352   2.786 -1.1440 -0.5416  0.4739
  380MOL0     C52320   5.829   6.308   2.799 -0.5372  0.1834  0.2682
  380MOL0     C52321   5.789   6.351   2.922  0.1561 -0.0173  0.4336
  380MOL0     C52322   5.649   6.343   2.964 -0.3503  0.5675  0.3786
  380MOL0     C52323   5.554   6.421   2.880  0.5547 -0.4371  0.0458
  380MOL0     C52324   5.418   6.385   2.941  0.0156  0.2083  0.4294
  380MOL0     C52325   5.314   6.480   2.870  0.8550  0.3714 -0.1874
  380MOL0     O52326   5.327   6.620   2.911 -0.3612  0.8492  0.3434
  380MOL0     C52327   5.292   6.661   3.034  0.4313  0.4011 -0.3006
  380MOL0     C52328   5.335   6.787   3.072 -0.5606  0.4351  0.3236
  380MOL0     C52329   5.275   6.861   3.174 -0.3453 -0.1630  0.0544
  380MOL0     C52330   5.335   6.997   3.211  0.6971  0.8468  0.0762
  380MOL0     C52331   5.173   6.808   3.247 -1.1418  0.4795  0.3200
  380MOL0     C52332   5.091   6.889   3.350 -0.5443  1.8463  0.6660
  380MOL0     O52333   5.014   6.806   3.429 -0.2057  0.2040 -0.0301
  380MOL0     C52334   4.959   6.860   3.547  1.3576 -0.1351 -0.6617
  380MOL0     C52335   4.990   6.984   3.614  0.0944  0.0099  0.5881
  380MOL0     C52336   4.914   7.038   3.719 -0.4318  0.6611  0.5122
  380MOL0     C52337   4.827   6.958   3.786 -0.2228  0.6257  0.3962
  380MOL0     O52338   4.762   7.000   3.902  0.3184  0.4301 -0.6264
  380MOL0     C52339   4.704   7.132   3.910  0.8106 -0.4789  0.0179
  380MOL0     C52340   4.580   7.150   3.816 -0.5312 -0.0921  0.6168
  380MOL0     C52341   4.457   7.111   3.898 -0.2773  0.3415 -0.4542
  380MOL0     C52342   4.334   7.157   3.824  0.9894 -0.5032  0.2108
  380MOL0     C52343   4.214   7.137   3.924  0.0139  0.8875 -0.8488
  380MOL0     C52344   4.074   7.176   3.869 -0.2872 -0.0663  0.4065
  380MOL0     C52345   4.039   7.131   3.723 -0.5713  0.5859 -0.2775
  380MOL0     C52346   3.890   7.159   3.690 -0.2040 -0.5522 -0.2858
  380MOL0    Cl52347   3.772   7.078   3.805  0.3935  0.2377 -0.1820
  380MOL0     C52348   4.812   6.823   3.740  0.2071 -0.2229  0.8742
  380MOL0     C52349   4.872   6.774   3.624  0.6214 -0.3929 -0.0961
  380MOL0     O52350   5.083   7.012   3.342 -0.2591 -0.4035 -0.5317
  380MOL0     C52351   5.139   6.674   3.221  0.4143 -0.1912  0.3430
  380MOL0     C52352   5.204   6.598   3.119  0.2942  0.1753  0.6370
  380MOL0     N52353   5.901   6.407   2.984 -0.4636  0.7145  0.1304
  380MOL0     N52354   6.006   6.407   2.899 -0.0696 -0.1386  0.4614
  380MOL0     C52355   5.595   7.146   2.876  0.2311  0.8040  0.2532
  380MOL0     C52356   5.536   7.229   2.966 -0.7615 -0.1796 -0.8164
  380MOL0     C52357   5.201   7.520   3.139 -0.0907  0.0526 -0.5917
  380MOL0     C52358   5.182   7.429   3.251 -0.0934 -0.2900 -0.7471
  380MOL0     C52359   5.102   7.474   3.361 -0.4186  0.1747 -0.6163
  380MOL0     C52360   5.054   7.602   3.364 -0.1149  0.0924 -0.1931
  380MOL0     O52361   4.981   7.643   3.466 -0.5904  0.5736 -0.7278
  380MOL0     C52362   4.944   7.781   3.495  0.2218 -0.2731 -0.3522
  380MOL0     C52363   5.051   7.873   3.534  0.6775 -0.0260 -0.4484
  380MOL0     C52364   4.999   8.006   3.569 -0.9912 -1.1067 -0.0792
  380MOL0     C52365   5.109   8.122   3.571  0.1256 -0.2162 -0.9338
  380MOL0     C52366   5.156   8.169   3.437  0.6909  0.5871  0.2317
  380MOL0     C52367   5.191   8.207   3.332  0.1021  0.3034  0.6782
  380MOL0     C52368   5.073   7.683   3.255  0.0088 -0.4390 -0.1177
  380MOL0     C52369   5.147   7.647   3.141  0.2498 -0.1945 -0.2914
  380MOL0     C52370   5.139   7.748   3.037  0.4870  0.0781 -0.6084
  380MOL0     H52371   5.257   7.300   2.798 -0.5640 -1.4514 -2.0093
  380MOL0     H52372   5.363   7.170   2.627 -1.7023  1.3081  0.8193
  380MOL0     H52373   5.655   7.106   2.495  0.5566 -0.1424 -0.1972
  380MOL0     H52374   5.482   7.052   2.508  0.8972  0.6678  0.1716
  380MOL0     H52375   5.537   6.825   2.493 -1.1769  1.8040  0.8767
  380MOL0     H52376   5.605   6.909   2.358 -0.6033  1.7121 -0.7195
  380MOL0     H52377   5.831   6.890   2.525 -1.0067 -0.5029  1.3679
  380MOL0     H52378   5.735   6.771   2.608  0.3817  1.1219  0.4698
  380MOL0     H52379   5.689   6.663   2.381 -1.0507  2.5688 -1.2486
  380MOL0     H52380   5.804   6.777   2.314 -1.5026  0.6805  1.1273
  380MOL0     H52381   5.966   6.730   2.482 -0.0026  0.0080 -0.2973
  380MOL0     H52382   5.947   6.611   2.348  0.4871  1.5688 -0.7010
  380MOL0     H52383   5.818   6.562   2.616  0.6536 -1.3339 -0.1061
  380MOL0     H52384   5.816   6.462   2.488 -0.9820  1.0474 -2.4606
  380MOL0     H52385   6.071   6.548   2.660  1.2714 -1.4633 -0.5989
  380MOL0     H52386   6.087   6.489   2.502  1.3714  0.4707  0.7816
  380MOL0     H52387   5.971   6.279   2.597  0.1219 -0.9194  1.8172
  380MOL0     H52388   6.128   6.316   2.661  0.4295 -0.9457  2.8497
  380MOL0     H52389   5.767   6.260   2.724  1.0980 -4.3437  1.4909
  380MOL0     H52390   5.658   6.386   3.065 -4.1897  1.2875  0.5541
  380MOL0     H52391   5.618   6.239   2.976  1.5168  0.2890  5.1682
  380MOL0     H52392   5.568   6.530   2.887 -0.1133 -0.3026 -0.6189
  380MOL0     H52393   5.573   6.391   2.776  1.3662 -3.1160  0.8824
  380MOL0     H52394   5.407   6.279   2.916 -3.3553  0.1273  1.7916
  380MOL0     H52395   5.421   6.408   3.048  2.6530 -0.6323  0.6275
  380MOL0     H52396   5.322   6.473   2.761 -4.6368  1.6307 -0.9154
  380MOL0     H52397   5.213   6.448   2.895  0.6157 -0.2145 -1.8170
  380MOL0     H52398   5.415   6.832   3.014  0.8003 -0.9220  1.0712
  380MOL0     H52399   5.349   7.023   3.316  3.0060  0.0334  0.0172
  380MOL0     H52400   5.272   7.070   3.160 -0.2027 -2.7490 -4.7540
  380MOL0     H52401   5.434   7.004   3.167  0.4369  0.9491 -0.5043
  380MOL0     H52402   5.061   7.052   3.568  2.1930 -2.7389 -0.5230
  380MOL0     H52403   4.928   7.141   3.751 -3.0979  0.9637  0.9566
  380MOL0     H52404   4.679   7.160   4.012  1.7639  2.8272 -0.5128
  380MOL0     H52405   4.783   7.207   3.893 -1.5745  1.6560 -2.7672
  380MOL0     H52406   4.581   7.256   3.789 -2.3240 -0.4200 -0.9504
  380MOL0     H52407   4.593   7.091   3.724 -1.4154  2.3422 -1.1848
  380MOL0     H52408   4.458   7.146   4.001  0.6654 -3.4191  0.9482
  380MOL0     H52409   4.460   7.002   3.902 -0.9878  0.2878 -1.1118
  380MOL0     H52410   4.320   7.088   3.741  0.9832 -1.9086  1.3316
  380MOL0     H52411   4.342   7.263   3.795  2.8143 -0.6506  0.0195
  380MOL0     H52412   4.219   7.031   3.951  2.7963  0.8308 -1.2363
  380MOL0     H52413   4.227   7.189   4.019  2.5645  1.0780 -1.2202
  380MOL0     H52414   4.064   7.285   3.878  1.7959  0.2206 -0.2530
  380MOL0     H52415   3.997   7.140   3.937 -0.9866 -0.7223 -0.6918
  380MOL0     H52416   4.056   7.023   3.725  0.1285  0.6990  0.3016
  380MOL0     H52417   4.104   7.174   3.646 -1.7046  1.7819 -0.5894
  380MOL0     H52418   3.866   7.136   3.586 -1.5193  2.7833 -0.8780
  380MOL0     H52419   3.875   7.267   3.699 -0.6486 -0.4468 -1.9244
  380MOL0     H52420   4.741   6.759   3.792 -3.1569  0.7495 -2.0390
  380MOL0     H52421   4.852   6.673   3.592  3.0472 -1.0275  0.1697
  380MOL0     H52422   5.057   6.625   3.271 -0.0013 -0.0649 -0.2035
  380MOL0     H52423   5.170   6.498   3.091 -0.8513  0.1663  1.9224
  380MOL0     H52424   5.688   7.100   2.908 -0.2097  0.0339  0.4401
  380MOL0     H52425   5.585   7.268   3.055  0.5916  1.5858 -2.2608
  380MOL0     H52426   5.235   7.335   3.242 -0.7593 -0.5614 -2.1328
  380MOL0     H52427   5.073   7.409   3.443  4.6961  1.0982  2.3558
  380MOL0     H52428   4.890   7.818   3.407 -1.9319 -0.6376  0.7677
  380MOL0     H52429   4.867   7.779   3.572 -0.0119 -2.3656 -0.5780
  380MOL0     H52430   5.112   7.875   3.444 -0.1480 -0.3695 -1.0234
  380MOL0     H52431   5.100   7.823   3.618  0.0933  0.9536  0.5133
  380MOL0     H52432   4.914   8.042   3.510 -2.7148  0.0811  2.8572
  380MOL0     H52433   4.976   8.008   3.676  0.9668  0.5424  0.3766
  380MOL0     H52434   5.187   8.077   3.633 -0.4627  1.1236  0.8478
  380MOL0     H52435   5.073   8.211   3.623  0.9582  0.2793 -1.1997
  380MOL0     H52436   5.230   8.244   3.239 -0.3108 -0.0739  0.3509
  380MOL0     H52437   5.029   7.782   3.267 -2.9655 -1.7553  0.6184
  380MOL0     H52438   5.238   7.760   2.993  0.6103 -0.5536 -0.5132
  380MOL0     H52439   5.064   7.723   2.962 -0.3489 -2.1912  0.8501
  380MOL0     H52440   5.102   7.840   3.083 -0.5796 -1.2042  1.2313
  381MOL0     O52441   8.611   3.376   6.525  0.5656 -0.8478  0.1246
  381MOL0     C52442   8.575   3.257   6.507 -0.1698 -0.0408  0.6014
  381MOL0     O52443   8.456   3.217   6.459  0.2791  0.1224  0.2502
  381MOL0     C52444   8.351   3.306   6.441  0.5444  0.9410 -0.8784
  381MOL0     C52445   8.266   3.308   6.333  0.0864 -0.1399 -0.3559
  381MOL0     C52446   8.161   3.408   6.317 -0.1875 -0.6319  0.1234
  381MOL0     C52447   8.134   3.500   6.417 -0.6134  0.4544 -0.6306
  381MOL0     O52448   8.027   3.579   6.415  0.6791 -0.0009  0.2456
  381MOL0     C52449   8.040   3.709   6.476 -0.1325 -0.7543 -0.6674
  381MOL0     C52450   7.939   3.801   6.401  0.0921  0.2749  0.7192
  381MOL0     C52451   7.805   3.732   6.371  0.0539  0.8596  0.3898
  381MOL0     C52452   7.695   3.840   6.334 -0.8978 -0.3430  0.2331
  381MOL0     C52453   7.556   3.774   6.315  0.3593  0.0133 -0.1251
  381MOL0     C52454   7.448   3.882   6.300 -0.9680  0.4425  0.2350
  381MOL0     C52455   7.450   3.905   6.149  0.2566 -1.5632 -0.1823
  381MOL0     C52456   7.325   3.973   6.092  0.7736 -1.0908 -0.6758
  381MOL0     N52457   7.286   4.096   6.171 -1.5151 -0.4080 -0.6729
  381MOL0     C52458   7.380   4.195   6.200  0.4501  0.9815  0.2881
  381MOL0     C52459   7.331   4.250   6.312  0.1632 -0.6595 -0.5300
  381MOL0     C52460   7.391   4.351   6.408 -0.6909  0.0464 -0.0016
  381MOL0     C52461   7.535   4.317   6.453  0.0085 -0.2679  0.3968
  381MOL0     C52462   7.580   4.402   6.574  0.0610 -0.3792  0.2622
  381MOL0     C52463   7.731   4.415   6.604 -0.0519  0.3541 -0.0321
  381MOL0     O52464   7.798   4.416   6.477 -0.1552 -0.6809  0.3240
  381MOL0     C52465   7.939   4.414   6.471 -0.1869  0.2343 -0.3481
  381MOL0     C52466   8.036   4.461   6.564 -0.9677 -0.6787  0.0476
  381MOL0     C52467   8.171   4.442   6.535  0.4632  0.4469  0.3505
  381MOL0     C52468   8.261   4.473   6.650  1.2973 -0.7727 -0.6071
  381MOL0     C52469   8.211   4.384   6.412 -0.2413  0.5807 -0.0572
  381MOL0     C52470   8.352   4.349   6.380 -0.1480 -0.3446  0.7428
  381MOL0     O52471   8.362   4.247   6.293 -0.3146  0.1714 -0.6479
  381MOL0     C52472   8.481   4.199   6.247  0.2747 -0.7208  0.2335
  381MOL0     C52473   8.555   4.281   6.162  0.1692  0.0714  1.4624
  381MOL0     C52474   8.661   4.225   6.083 -0.0618  0.7136 -1.3026
  381MOL0     C52475   8.712   4.100   6.106 -0.2088 -0.3645 -0.2295
  381MOL0     O52476   8.820   4.043   6.048 -0.7600 -0.5260  0.0660
  381MOL0     C52477   8.947   4.120   6.025  0.4185 -0.6922  0.1757
  381MOL0     C52478   9.030   4.044   5.920 -0.1690  0.6718 -0.0514
  381MOL0     C52479   9.095   3.913   5.968  0.0545  0.5749  0.1050
  381MOL0     C52480   9.154   3.849   5.835  0.3022  0.1618  0.6334
  381MOL0     C52481   9.228   3.716   5.862 -0.3248  0.5954  0.5132
  381MOL0     C52482   9.254   3.636   5.744 -1.0375 -1.3753  0.4507
  381MOL0     C52483   9.327   3.510   5.791  0.2672  0.5456  0.4810
  381MOL0     C52484   9.358   3.408   5.680  1.0905  0.0975  0.4924
  381MOL0    Cl52485   9.405   3.259   5.767  0.0318  0.0591 -0.1237
  381MOL0     C52486   8.632   4.022   6.195 -0.8586  1.3464  0.2992
  381MOL0     C52487   8.522   4.068   6.264  0.2061  0.1340  1.4199
  381MOL0     O52488   8.448   4.404   6.430  0.0488  0.1152  0.1072
  381MOL0     C52489   8.109   4.357   6.321 -0.1529  0.5543  0.1073
  381MOL0     C52490   7.971   4.375   6.345 -0.1266 -0.1998  0.1780
  381MOL0     N52491   7.204   4.207   6.339  0.4897  0.7154 -0.7389
  381MOL0     N52492   7.190   4.101   6.263 -0.1404 -0.7534 -0.2499
  381MOL0     C52493   8.225   3.498   6.524 -0.4545 -0.7168  0.6563
  381MOL0     C52494   8.325   3.405   6.536  0.8232  0.4214  0.0174
  381MOL0     C52495   8.673   3.149   6.508 -1.0892 -0.1412 -0.1837
  381MOL0     C52496   8.632   3.045   6.589  0.0465  0.2689  0.2272
  381MOL0     C52497   8.723   2.941   6.608 -0.5732  0.4837 -0.1446
  381MOL0     C52498   8.856   2.940   6.575 -0.2375 -0.7628  0.1742
  381MOL0     O52499   8.938   2.835   6.591  0.1365 -0.1386  0.0134
  381MOL0     C52500   8.928   2.766   6.714 -0.3963 -0.1987 -1.1001
  381MOL0     C52501   9.072   2.712   6.755  0.0269  0.2051  0.0045
  381MOL0     C52502   9.068   2.625   6.885 -0.0277  1.2828  0.2343
  381MOL0     C52503   9.201   2.562   6.923 -0.1129 -1.0723  0.0663
  381MOL0     C52504   9.206   2.543   7.071 -0.1542  0.1886  0.6757
  381MOL0     C52505   9.201   2.552   7.193 -0.0849 -0.2204  0.6726
  381MOL0     C52506   8.893   3.052   6.497  0.2624 -0.3730 -0.3454
  381MOL0     C52507   8.803   3.157   6.454  0.9498  0.3445  0.3627
  381MOL0     C52508   8.847   3.277   6.368 -0.2838  0.3845 -0.4434
  381MOL0     H52509   8.277   3.218   6.272  1.1460 -0.0450 -0.3264
  381MOL0     H52510   8.092   3.406   6.233 -1.3980 -2.7824  1.1054
  381MOL0     H52511   8.140   3.753   6.473 -0.1793 -0.6009 -0.0572
  381MOL0     H52512   8.017   3.699   6.583 -0.2261  1.2671 -0.4540
  381MOL0     H52513   7.913   3.889   6.460 -1.5242 -1.3290  2.5672
  381MOL0     H52514   7.991   3.827   6.309 -1.7328  1.3136 -0.0639
  381MOL0     H52515   7.829   3.658   6.293  4.5916  1.7033  0.6773
  381MOL0     H52516   7.770   3.669   6.454 -0.0884 -0.8255 -0.8846
  381MOL0     H52517   7.691   3.922   6.406 -0.1718 -0.8553  0.8557
  381MOL0     H52518   7.717   3.894   6.241 -1.9764  1.0299  0.7240
  381MOL0     H52519   7.526   3.706   6.395  5.1040 -0.5856  1.4166
  381MOL0     H52520   7.574   3.714   6.226  1.6733  1.3293 -0.7905
  381MOL0     H52521   7.348   3.845   6.325 -0.5998 -0.2914  0.6518
  381MOL0     H52522   7.455   3.979   6.350 -1.2226  0.8749 -0.5660
  381MOL0     H52523   7.452   3.806   6.103  0.2548 -0.2271 -3.2673
  381MOL0     H52524   7.532   3.968   6.115  0.1592 -1.1260  0.3661
  381MOL0     H52525   7.347   3.994   5.987  2.2012  0.7059 -0.0777
  381MOL0     H52526   7.241   3.904   6.098  0.8790 -1.0880  1.5101
  381MOL0     H52527   7.475   4.201   6.148  0.0003 -0.8716 -0.8085
  381MOL0     H52528   7.328   4.354   6.497 -0.0511  0.2265  0.4507
  381MOL0     H52529   7.392   4.447   6.355 -1.3128 -0.1681 -0.4192
  381MOL0     H52530   7.531   4.215   6.493 -0.4147 -0.8098 -0.9640
  381MOL0     H52531   7.593   4.336   6.363 -1.5182  2.8994 -0.0306
  381MOL0     H52532   7.545   4.499   6.539 -1.4168 -0.7955  0.4996
  381MOL0     H52533   7.521   4.386   6.664 -2.2275 -0.6304 -1.1828
  381MOL0     H52534   7.762   4.512   6.643 -0.3770  2.1025 -3.7204
  381MOL0     H52535   7.763   4.334   6.671  1.6158  0.8814 -0.1634
  381MOL0     H52536   8.007   4.493   6.664  3.1841 -0.8843  1.4779
  381MOL0     H52537   8.324   4.386   6.669 -0.1207 -2.0432 -1.4548
  381MOL0     H52538   8.207   4.498   6.742  0.4851 -1.4327 -0.8954
  381MOL0     H52539   8.314   4.566   6.625  0.8888 -0.2592  0.3479
  381MOL0     H52540   8.517   4.382   6.156 -3.8393 -1.3107  0.2038
  381MOL0     H52541   8.722   4.288   6.019  3.0939 -2.3068 -1.5766
  381MOL0     H52542   8.924   4.219   5.983 -0.1283  0.0413  2.0703
  381MOL0     H52543   9.004   4.136   6.117  1.9556  0.8485 -1.0012
  381MOL0     H52544   8.978   4.037   5.824 -0.5779 -2.8262  0.2664
  381MOL0     H52545   9.115   4.109   5.900 -0.8199  2.2367  1.9350
  381MOL0     H52546   9.020   3.849   6.018  0.4830  1.0346  1.3837
  381MOL0     H52547   9.182   3.943   6.027  0.2044  0.8435 -0.2520
  381MOL0     H52548   9.216   3.917   5.775 -1.6293  0.0644 -1.6374
  381MOL0     H52549   9.068   3.807   5.782  1.6449 -2.5810  0.4606
  381MOL0     H52550   9.324   3.747   5.904 -1.5206  1.6568  2.6370
  381MOL0     H52551   9.171   3.664   5.940 -0.4334  4.5715  3.4061
  381MOL0     H52552   9.317   3.698   5.680 -3.7483  0.0655 -0.9967
  381MOL0     H52553   9.158   3.611   5.697 -1.4831 -0.8626  1.0714
  381MOL0     H52554   9.274   3.445   5.862  1.7043 -2.4636 -1.0247
  381MOL0     H52555   9.426   3.519   5.837  1.2338 -1.5392 -1.0305
  381MOL0     H52556   9.441   3.436   5.615  1.7754 -2.0047  0.3805
  381MOL0     H52557   9.276   3.382   5.612  3.0029 -2.5817 -0.9908
  381MOL0     H52558   8.646   3.916   6.214 -0.1686  1.0287 -1.7405
  381MOL0     H52559   8.444   4.008   6.311 -0.9617  1.1052  0.7920
  381MOL0     H52560   8.111   4.303   6.227  0.4130  1.0151 -0.1513
  381MOL0     H52561   7.888   4.363   6.276  0.2007 -1.6603  0.0000
  381MOL0     H52562   8.222   3.566   6.609 -0.3228  0.2519 -0.1001
  381MOL0     H52563   8.385   3.410   6.626 -0.2876  0.0318  0.8021
  381MOL0     H52564   8.532   3.044   6.630 -0.9911  2.8972 -1.9152
  381MOL0     H52565   8.693   2.861   6.675 -0.6667 -0.8115 -1.6722
  381MOL0     H52566   8.894   2.833   6.794 -1.9682  0.5922 -2.3571
  381MOL0     H52567   8.850   2.690   6.705 -1.4622  0.6590  0.4168
  381MOL0     H52568   9.133   2.800   6.778 -2.3245  2.1766 -0.9083
  381MOL0     H52569   9.115   2.657   6.671 -1.5965 -0.6167 -0.3103
  381MOL0     H52570   9.035   2.693   6.964  2.6805  0.6239  2.0523
  381MOL0     H52571   8.993   2.545   6.877 -1.8192  2.9506 -0.6598
  381MOL0     H52572   9.280   2.635   6.904  0.1271 -1.8987 -2.4413
  381MOL0     H52573   9.230   2.473   6.868 -0.6730 -1.2628  0.0664
  381MOL0     H52574   9.196   2.565   7.299  0.3305  4.4874  0.3038
  381MOL0     H52575   8.997   3.054   6.466  0.4475 -0.2825  0.2707
  381MOL0     H52576   8.758   3.330   6.333  0.0268 -0.0076 -1.9125
  381MOL0     H52577   8.926   3.332   6.419 -2.1788  3.3426 -0.4580
  381MOL0     H52578   8.888   3.244   6.272 -0.5329 -1.1328 -0.0511
  382MOL0     O52579   9.249   5.095   4.692  0.1826  0.2470  0.4102
  382MOL0     C52580   9.347   5.051   4.745  0.1882  0.3424 -0.5553
  382MOL0     O52581   9.474   5.060   4.695  0.2603  0.2630 -0.0255
  382MOL0     C52582   9.485   5.158   4.592  0.3379 -0.0933  0.2370
  382MOL0     C52583   9.455   5.290   4.619 -0.7017  0.4521  0.2620
  382MOL0     C52584   9.447   5.382   4.514  0.4146 -0.1292  0.3097
  382MOL0     C52585   9.462   5.346   4.378  1.1068 -0.1061  0.3283
  382MOL0     O52586   9.437   5.401   4.258  0.5043 -0.9621 -0.1127
  382MOL0     C52587   9.413   5.541   4.242 -0.3355 -0.0675 -0.1643
  382MOL0     C52588   9.496   5.595   4.129 -0.9615  0.1059 -0.7087
  382MOL0     C52589   9.435   5.556   3.993  0.6200  0.0132  0.4291
  382MOL0     C52590   9.510   5.647   3.898  0.1004 -0.1332 -0.6312
  382MOL0     C52591   9.454   5.643   3.754  0.1169  0.1486 -0.8408
  382MOL0     C52592   9.453   5.505   3.682 -0.2887  0.8028 -1.1319
  382MOL0     C52593   9.454   5.513   3.527  0.0498  0.4983 -0.6765
  382MOL0     C52594   9.483   5.378   3.463 -0.2952  0.0457 -0.8544
  382MOL0     N52595   9.494   5.391   3.319 -0.3567 -0.2126 -0.8989
  382MOL0     C52596   9.600   5.458   3.263 -0.1956 -0.2327  0.0745
  382MOL0     C52597   9.587   5.458   3.127  0.1016 -0.3125  0.6972
  382MOL0     C52598   9.690   5.530   3.026  1.0286 -0.6497  0.2554
  382MOL0     C52599   9.627   5.665   3.004 -0.5654  0.2366  0.5313
  382MOL0     C52600   9.693   5.752   2.907  1.3921  0.3196  0.2439
  382MOL0     C52601   9.631   5.893   2.902 -0.0763  0.3957  0.2757
  382MOL0     O52602   9.489   5.901   2.888  0.4883  0.6967 -0.6314
  382MOL0     C52603   9.448   6.032   2.865  0.3885  0.3608 -0.7068
  382MOL0     C52604   9.316   6.049   2.826 -0.0929  0.6531 -0.6688
  382MOL0     C52605   9.268   6.176   2.783  0.5102  0.3823 -0.0001
  382MOL0     C52606   9.130   6.173   2.720  0.1268  0.6774  0.0214
  382MOL0     C52607   9.345   6.289   2.782  0.9021 -0.1838 -0.0337
  382MOL0     C52608   9.296   6.427   2.754 -0.4124 -0.9431  0.4257
  382MOL0     O52609   9.164   6.476   2.768 -0.3342 -0.3983 -0.2318
  382MOL0     C52610   9.144   6.611   2.766  0.4587 -0.6281 -0.4713
  382MOL0     C52611   9.179   6.702   2.867  0.0778 -0.2760  0.5779
  382MOL0     C52612   9.146   6.836   2.858 -1.6341 -0.1393 -0.2707
  382MOL0     C52613   9.075   6.884   2.752  0.2723  0.4924 -0.0856
  382MOL0     O52614   9.043   7.017   2.747 -0.0428 -0.2678 -0.4358
  382MOL0     C52615   9.089   7.079   2.628 -0.1070 -1.0033 -1.3974
  382MOL0     C52616   9.241   7.120   2.645 -0.3352  0.3633  0.5232
  382MOL0     C52617   9.289   7.221   2.542  0.2077 -0.3363  0.5654
  382MOL0     C52618   9.431   7.232   2.540 -0.8314 -0.3245 -0.2570
  382MOL0     C52619   9.479   7.286   2.684 -0.3285 -0.0675  0.0760
  382MOL0     C52620   9.432   7.431   2.739 -0.1220  0.8034 -0.1663
  382MOL0     C52621   9.546   7.537   2.755  0.0584 -0.1234  0.4870
  382MOL0     C52622   9.565   7.612   2.627  0.3270  0.7050 -0.2445
  382MOL0    Cl52623   9.674   7.528   2.500  0.1125 -0.0417 -0.2263
  382MOL0     C52624   9.050   6.797   2.644 -0.1844 -0.4286 -0.5876
  382MOL0     C52625   9.082   6.670   2.650  0.3840 -0.0410  0.0130
  382MOL0     O52626   9.393   6.504   2.723  0.7932 -0.0684  0.2859
  382MOL0     C52627   9.481   6.267   2.827 -0.0990 -0.3513  0.2050
  382MOL0     C52628   9.526   6.146   2.878  0.0231  0.4825 -0.0650
  382MOL0     N52629   9.469   5.391   3.096 -0.4234  0.2164 -1.0337
  382MOL0     N52630   9.416   5.360   3.215 -0.3409 -0.7532  0.0143
  382MOL0     C52631   9.487   5.215   4.358 -0.3694  0.2685  0.0789
  382MOL0     C52632   9.504   5.118   4.462 -0.0752 -0.0464 -0.5790
  382MOL0     C52633   9.318   4.967   4.865 -0.5529  0.2824 -0.3650
  382MOL0     C52634   9.199   4.990   4.943  0.8054 -0.5730 -0.4204
  382MOL0     C52635   9.194   4.925   5.064 -0.0953  0.0909  0.3827
  382MOL0     C52636   9.280   4.830   5.110 -0.5994  0.0263  0.1459
  382MOL0     O52637   9.264   4.783   5.236 -0.4373 -0.0471  0.6164
  382MOL0     C52638   9.323   4.662   5.282  0.4590 -0.6952 -0.3540
  382MOL0     C52639   9.279   4.534   5.203 -0.1942 -0.0962  1.0908
  382MOL0     C52640   9.323   4.411   5.284 -0.3680  0.1928  0.0732
  382MOL0     C52641   9.333   4.272   5.211 -0.2347  0.5892 -0.2763
  382MOL0     C52642   9.244   4.259   5.097 -0.5709  0.0973  0.7548
  382MOL0     C52643   9.171   4.249   5.007  0.0959 -0.3792  0.4854
  382MOL0     C52644   9.384   4.791   5.029  0.9018  0.4335  0.6436
  382MOL0     C52645   9.406   4.863   4.906  1.0556 -0.6304  0.4325
  382MOL0     C52646   9.526   4.811   4.830  0.3752  0.2521 -0.4996
  382MOL0     H52647   9.416   5.316   4.717 -0.4598 -2.0736  1.0998
  382MOL0     H52648   9.411   5.483   4.532  1.5812  0.2487  0.6474
  382MOL0     H52649   9.434   5.600   4.332 -1.0162 -0.7103  0.4221
  382MOL0     H52650   9.308   5.563   4.225  0.7555  5.8479 -1.4952
  382MOL0     H52651   9.502   5.702   4.148  0.8353 -0.6961  6.0422
  382MOL0     H52652   9.601   5.565   4.128 -1.3045 -1.2218  0.4238
  382MOL0     H52653   9.444   5.451   3.964 -1.8849  0.4461 -2.5965
  382MOL0     H52654   9.328   5.581   3.994  0.4253 -0.7606  1.8707
  382MOL0     H52655   9.505   5.751   3.931 -2.1213 -0.4281  0.1924
  382MOL0     H52656   9.617   5.628   3.903 -0.1746 -1.5574  0.7110
  382MOL0     H52657   9.509   5.712   3.690  1.5970 -1.0315 -0.9123
  382MOL0     H52658   9.346   5.655   3.763  0.3116  1.3855  0.1811
  382MOL0     H52659   9.539   5.448   3.717  0.4216  3.2109  1.3813
  382MOL0     H52660   9.367   5.442   3.708  1.8173 -1.1609  1.7872
  382MOL0     H52661   9.540   5.576   3.501  1.1456 -1.7927 -3.0954
  382MOL0     H52662   9.368   5.568   3.489 -2.3272 -2.1891  0.4127
  382MOL0     H52663   9.571   5.320   3.495 -0.5320 -0.8359 -1.7339
  382MOL0     H52664   9.400   5.309   3.483  0.6462 -0.3382  2.4406
  382MOL0     H52665   9.684   5.508   3.309 -0.6691  1.2797 -0.6577
  382MOL0     H52666   9.696   5.471   2.934  0.9897  2.3716 -1.8228
  382MOL0     H52667   9.792   5.541   3.063  0.8806  0.4169  0.3622
  382MOL0     H52668   9.529   5.648   2.959 -0.7118  0.8435  0.6230
  382MOL0     H52669   9.622   5.723   3.097  0.8751 -1.2401  1.5900
  382MOL0     H52670   9.798   5.769   2.934  1.6356  1.3318 -1.1957
  382MOL0     H52671   9.687   5.702   2.810 -0.3922 -0.9120  0.9470
  382MOL0     H52672   9.670   5.946   2.989  3.0965 -0.3244 -0.5619
  382MOL0     H52673   9.674   5.933   2.809  0.4612 -2.8137 -1.0123
  382MOL0     H52674   9.249   5.964   2.819  1.0352 -0.6809  2.8802
  382MOL0     H52675   9.065   6.240   2.777  0.5634  1.4415 -0.3667
  382MOL0     H52676   9.089   6.071   2.713 -0.4299  0.8640  0.4386
  382MOL0     H52677   9.132   6.216   2.620  1.2071  3.2564  1.0745
  382MOL0     H52678   9.240   6.660   2.946 -0.2599 -1.1643  0.3733
  382MOL0     H52679   9.163   6.907   2.938 -0.6290 -0.8936  0.1972
  382MOL0     H52680   9.087   7.016   2.539 -1.1223 -0.8837 -1.4651
  382MOL0     H52681   9.030   7.168   2.607  1.5029  1.3195  2.7066
  382MOL0     H52682   9.255   7.151   2.749 -0.4146 -0.2552  0.7224
  382MOL0     H52683   9.294   7.026   2.629  1.8778  1.0318  3.1070
  382MOL0     H52684   9.248   7.322   2.554 -0.6929 -0.1663 -2.7631
  382MOL0     H52685   9.260   7.187   2.442  0.5433 -4.0303  1.5898
  382MOL0     H52686   9.455   7.304   2.461  0.7379  0.2717  0.7190
  382MOL0     H52687   9.480   7.138   2.514 -3.1537 -1.2952 -1.4191
  382MOL0     H52688   9.454   7.211   2.759 -1.4361 -0.4845 -0.6805
  382MOL0     H52689   9.588   7.296   2.678 -0.2824 -0.0479  0.8772
  382MOL0     H52690   9.409   7.411   2.844  3.0786  0.3734  0.5474
  382MOL0     H52691   9.340   7.465   2.691 -2.8165 -2.1383  2.4323
  382MOL0     H52692   9.635   7.479   2.781 -0.7216 -1.0542  1.1770
  382MOL0     H52693   9.527   7.605   2.838  0.3848  1.2792 -0.5577
  382MOL0     H52694   9.611   7.708   2.651 -0.5035  1.6878 -2.3238
  382MOL0     H52695   9.471   7.630   2.573 -0.3522 -0.2026  0.5991
  382MOL0     H52696   8.989   6.828   2.559 -2.4880 -0.5613  0.9384
  382MOL0     H52697   9.035   6.603   2.579 -2.2075  0.3122  1.2719
  382MOL0     H52698   9.557   6.343   2.836 -0.1615 -0.2311 -0.2368
  382MOL0     H52699   9.623   6.151   2.926 -0.8583  0.3830  1.8272
  382MOL0     H52700   9.495   5.174   4.258 -1.9388  1.9751 -0.7987
  382MOL0     H52701   9.530   5.017   4.431 -0.8376 -0.0153 -1.3936
  382MOL0     H52702   9.138   5.079   4.930 -1.0944 -1.4907  1.5110
  382MOL0     H52703   9.116   4.949   5.137 -0.2715  0.9845 -0.0813
  382MOL0     H52704   9.433   4.665   5.276  0.5103 -0.2908  0.6792
  382MOL0     H52705   9.299   4.654   5.388 -0.3854  1.9630 -0.2682
  382MOL0     H52706   9.333   4.518   5.109 -1.6993 -3.0737  0.6363
  382MOL0     H52707   9.173   4.542   5.179 -0.9563 -3.1156  2.9750
  382MOL0     H52708   9.421   4.435   5.328 -0.7632  0.0616  1.0487
  382MOL0     H52709   9.251   4.398   5.365 -1.2423 -0.5423 -0.7931
  382MOL0     H52710   9.308   4.193   5.282  0.6638 -0.4432 -1.0794
  382MOL0     H52711   9.436   4.276   5.176  0.4316  1.3327  1.6066
  382MOL0     H52712   9.099   4.248   4.927 -1.4285 -1.3646  1.7941
  382MOL0     H52713   9.457   4.715   5.052  0.4667 -0.4787 -0.8453
  382MOL0     H52714   9.510   4.813   4.722  0.5716 -0.8771 -0.5631
  382MOL0     H52715   9.615   4.873   4.845 -0.4852  1.5699 -0.7061
  382MOL0     H52716   9.552   4.712   4.867  1.2017  1.0545  1.1621
  383MOL0     O52717   5.317  10.837   6.087 -1.1003  0.8034 -0.7505
  383MOL0     C52718   5.422  10.772   6.100 -0.0162  0.3714  0.3381
  383MOL0     O52719   5.530  10.818   6.176  0.4083  0.0297 -0.2258
  383MOL0     C52720   5.531  10.938   6.240 -1.1031 -0.3277  0.3970
  383MOL0     C52721   5.475  11.054   6.190 -0.0178 -0.5288  0.3021
  383MOL0     C52722   5.477  11.173   6.258 -0.2790  0.6209  0.3212
  383MOL0     C52723   5.533  11.175   6.388 -0.1809 -0.3440 -0.3301
  383MOL0     O52724   5.549  11.292   6.468  0.7724 -0.0516 -0.6961
  383MOL0     C52725   5.435  11.382   6.483  0.7876  0.3886  0.1370
  383MOL0     C52726   5.479  11.520   6.472 -0.9333 -0.2511 -0.5101
  383MOL0     C52727   5.537  11.564   6.337 -0.0913 -0.0689  0.3063
  383MOL0     C52728   5.480  11.710   6.310 -0.3684 -0.2311 -0.9004
  383MOL0     C52729   5.557  11.778   6.204 -0.7068 -0.5857  1.3335
  383MOL0     C52730   5.544  11.932   6.192 -0.3391  0.6447  0.2043
  383MOL0     C52731   5.659  11.998   6.106 -0.3659 -0.6271  0.6099
  383MOL0     C52732   5.649  12.013   5.951  0.3668 -0.8141 -0.1627
  383MOL0     N52733   5.542  12.112   5.914  0.6987 -0.2601 -0.7503
  383MOL0     C52734   5.415  12.075   5.873 -0.0489 -0.4646  1.1858
  383MOL0     C52735   5.359  12.194   5.874 -1.0705  0.6087  0.2182
  383MOL0     C52736   5.213  12.232   5.840 -0.4920  0.0176  0.1521
  383MOL0     C52737   5.205  12.307   5.710  0.8169 -0.2546  0.0482
  383MOL0     C52738   5.057  12.346   5.668 -0.4937 -0.1945  0.1187
  383MOL0     C52739   5.066  12.447   5.562  0.0761 -0.4116  0.6874
  383MOL0     O52740   5.131  12.403   5.443 -0.0909  0.5344  0.5646
  383MOL0     C52741   5.140  12.507   5.347  0.1478 -0.3676  0.1849
  383MOL0     C52742   5.032  12.550   5.281  1.4115 -0.2465  0.1427
  383MOL0     C52743   5.042  12.653   5.185 -0.6510 -0.1724  0.1076
  383MOL0     C52744   4.916  12.681   5.116  0.2722 -0.4970 -0.8699
  383MOL0     C52745   5.166  12.712   5.150  0.0558  0.5082 -0.1796
  383MOL0     C52746   5.190  12.816   5.048 -0.4827 -0.7432  1.2001
  383MOL0     O52747   5.092  12.897   5.021 -0.4321  0.1747  0.6370
  383MOL0     C52748   5.100  12.989   4.920 -1.0093 -0.1212 -0.6952
  383MOL0     C52749   5.191  12.977   4.810  0.6348  0.2513 -0.0937
  383MOL0     C52750   5.215  13.081   4.719  0.1035  0.8142 -0.5741
  383MOL0     C52751   5.143  13.198   4.736 -0.9198 -0.2668  0.5437
  383MOL0     O52752   5.178  13.302   4.655 -1.0618  0.1090 -0.9613
  383MOL0     C52753   5.217  13.288   4.513 -0.8122  0.4912  0.2311
  383MOL0     C52754   5.217  13.421   4.433  0.0903  0.5570 -0.3034
  383MOL0     C52755   5.316  13.511   4.515 -0.0676 -0.1963  0.7062
  383MOL0     C52756   5.365  13.631   4.433  0.5456 -0.1580 -0.0939
  383MOL0     C52757   5.453  13.713   4.526 -0.1083 -0.7850  0.5011
  383MOL0     C52758   5.367  13.794   4.624  0.2322 -0.0494  0.8853
  383MOL0     C52759   5.411  13.939   4.642 -0.0713 -0.5377  0.6612
  383MOL0     C52760   5.313  14.023   4.736  0.0709  0.6579  0.1575
  383MOL0    Cl52761   5.308  13.948   4.899 -0.2360 -0.0831  0.8124
  383MOL0     C52762   5.064  13.220   4.845  0.4047 -0.2724  0.7937
  383MOL0     C52763   5.030  13.112   4.933  0.0344 -0.0248  0.4336
  383MOL0     O52764   5.301  12.812   5.003 -0.2892  0.3102  0.1244
  383MOL0     C52765   5.276  12.672   5.231  0.0831 -0.6676  0.7287
  383MOL0     C52766   5.264  12.573   5.323  0.2836 -0.8886 -1.1832
  383MOL0     N52767   5.447  12.296   5.899  0.2315 -0.6499  0.2304
  383MOL0     N52768   5.563  12.253   5.919 -0.4950  0.6960  0.4855
  383MOL0     C52769   5.589  11.060   6.440  0.3583  0.0434 -0.1364
  383MOL0     C52770   5.584  10.940   6.369 -0.1541 -0.4928 -0.6735
  383MOL0     C52771   5.438  10.630   6.032  0.1230  0.6196 -0.0701
  383MOL0     C52772   5.571  10.584   6.013 -0.0768 -0.1376 -0.4119
  383MOL0     C52773   5.596  10.460   5.966 -0.2454  0.7070 -0.0099
  383MOL0     C52774   5.492  10.371   5.940  0.2204 -0.0945  0.4177
  383MOL0     O52775   5.505  10.251   5.877 -0.0355  0.1798 -1.1545
  383MOL0     C52776   5.628  10.206   5.816 -1.2246 -0.5634 -0.2008
  383MOL0     C52777   5.695  10.104   5.907  0.3109 -0.4033  0.0512
  383MOL0     C52778   5.609   9.972   5.957 -0.8488 -0.7880  0.0031
  383MOL0     C52779   5.517   9.918   5.853  0.2199  0.2242  0.1725
  383MOL0     C52780   5.489   9.779   5.882 -0.1735 -0.1013 -0.5628
  383MOL0     C52781   5.475   9.655   5.894 -0.3654 -1.2341  0.5696
  383MOL0     C52782   5.357  10.414   5.965 -0.0180 -0.4336  0.6719
  383MOL0     C52783   5.328  10.542   5.997 -0.1878 -1.3479 -0.3008
  383MOL0     C52784   5.175  10.582   6.022  0.3571 -1.0003 -0.4890
  383MOL0     H52785   5.433  11.050   6.091  1.1922 -4.2824 -0.1957
  383MOL0     H52786   5.445  11.259   6.200 -0.9972  0.6732  0.7856
  383MOL0     H52787   5.377  11.358   6.573 -0.3335  0.8924 -0.4300
  383MOL0     H52788   5.364  11.367   6.402 -0.8832  0.0191  1.6022
  383MOL0     H52789   5.392  11.583   6.488 -0.6111 -0.3002  1.7502
  383MOL0     H52790   5.549  11.536   6.554 -0.9663  0.5619 -0.6336
  383MOL0     H52791   5.646  11.563   6.342 -0.1217 -0.6578  0.8403
  383MOL0     H52792   5.501  11.503   6.253  3.4334 -0.9109 -0.7448
  383MOL0     H52793   5.376  11.696   6.278  0.1433  1.0450 -3.4233
  383MOL0     H52794   5.493  11.767   6.402 -0.5616  1.7035 -2.0127
  383MOL0     H52795   5.542  11.725   6.109  0.1767  1.2483  0.1028
  383MOL0     H52796   5.658  11.759   6.243 -0.5943  0.6345  1.6603
  383MOL0     H52797   5.443  11.965   6.163  0.1033  1.2587 -0.6637
  383MOL0     H52798   5.556  11.963   6.296  2.2788 -5.0285  1.9573
  383MOL0     H52799   5.758  11.955   6.127 -0.7103 -2.7758 -1.6381
  383MOL0     H52800   5.649  12.101   6.139 -3.1454 -0.5461 -0.2507
  383MOL0     H52801   5.738  12.051   5.902  1.2036  3.6263  4.0137
  383MOL0     H52802   5.627  11.916   5.907 -1.5761 -0.9364  0.9409
  383MOL0     H52803   5.389  11.973   5.845  2.9077 -0.9522 -0.1651
  383MOL0     H52804   5.169  12.291   5.920 -2.4554 -1.3515  0.1288
  383MOL0     H52805   5.162  12.136   5.830  1.2184 -0.7429 -2.1902
  383MOL0     H52806   5.256  12.399   5.740  2.4307 -1.3662  0.8623
  383MOL0     H52807   5.257  12.261   5.625 -1.1110  2.8872 -3.0965
  383MOL0     H52808   5.002  12.256   5.638 -0.4621 -0.4219  0.7232
  383MOL0     H52809   4.996  12.376   5.754  2.5424 -2.6656  3.4379
  383MOL0     H52810   4.965  12.484   5.541 -0.6902 -2.3773  0.6899
  383MOL0     H52811   5.115  12.530   5.614 -1.3561 -1.9064  4.7726
  383MOL0     H52812   4.939  12.497   5.297 -0.8089  2.5621 -2.5021
  383MOL0     H52813   4.938  12.701   5.011  1.0471  0.0835 -0.6111
  383MOL0     H52814   4.873  12.772   5.160  2.3343 -0.9455  2.3564
  383MOL0     H52815   4.851  12.594   5.129  3.1992 -2.5251  1.8174
  383MOL0     H52816   5.248  12.886   4.796 -0.1457 -0.7171  2.3751
  383MOL0     H52817   5.292  13.073   4.642 -0.1747  3.5405 -1.2606
  383MOL0     H52818   5.320  13.252   4.506 -0.8136  0.4240  0.5565
  383MOL0     H52819   5.145  13.222   4.464  0.7923 -0.5232 -0.8542
  383MOL0     H52820   5.250  13.406   4.330 -2.3432  2.4095 -1.4840
  383MOL0     H52821   5.120  13.472   4.425  0.4946  1.1240 -1.8873
  383MOL0     H52822   5.401  13.447   4.542 -1.2581 -1.8510  0.7291
  383MOL0     H52823   5.260  13.546   4.602 -0.8081  0.3285  0.0243
  383MOL0     H52824   5.281  13.690   4.396  0.0353  0.8950  2.5025
  383MOL0     H52825   5.438  13.601   4.358  0.9139  1.9506 -0.6122
  383MOL0     H52826   5.526  13.650   4.576  2.1154 -1.8152 -3.5359
  383MOL0     H52827   5.520  13.779   4.470  0.1744 -0.0218  1.7021
  383MOL0     H52828   5.378  13.739   4.718 -1.4737 -2.4569 -0.2283
  383MOL0     H52829   5.265  13.779   4.589  0.8942  2.1780 -2.4154
  383MOL0     H52830   5.417  13.986   4.543  3.2688  0.0752  1.0189
  383MOL0     H52831   5.512  13.942   4.685  0.2556  0.7784 -0.1225
  383MOL0     H52832   5.209  14.020   4.702  0.0018 -1.6332  0.4039
  383MOL0     H52833   5.339  14.129   4.743  0.8949  0.4336  0.6520
  383MOL0     H52834   5.021  13.320   4.842 -0.4436 -0.5728 -3.6335
  383MOL0     H52835   4.972  13.122   5.024  3.5783  1.3299  2.7702
  383MOL0     H52836   5.369  12.720   5.206 -0.4576 -1.0375 -2.5161
  383MOL0     H52837   5.346  12.544   5.387 -0.2151 -0.2090 -0.2196
  383MOL0     H52838   5.639  11.055   6.535  2.3024  0.1319 -1.1069
  383MOL0     H52839   5.635  10.851   6.404  1.7211  1.3887  1.6130
  383MOL0     H52840   5.662  10.639   6.034  2.5235 -3.7093 -1.3746
  383MOL0     H52841   5.701  10.438   5.946 -0.1825  1.0416 -0.0707
  383MOL0     H52842   5.610  10.161   5.719  1.8073 -0.4195 -0.9282
  383MOL0     H52843   5.699  10.289   5.801 -4.5190  3.0458  2.1015
  383MOL0     H52844   5.705  10.152   6.005  0.5893 -2.4930  1.1101
  383MOL0     H52845   5.790  10.073   5.863 -0.9291 -0.0196 -3.1730
  383MOL0     H52846   5.685   9.896   5.979 -1.5600 -1.8707 -1.1956
  383MOL0     H52847   5.555   9.993   6.050  0.0479  0.2954  0.3052
  383MOL0     H52848   5.571   9.921   5.758  2.5145  1.9314  1.4332
  383MOL0     H52849   5.437   9.992   5.847  0.8717  1.0473  1.2082
  383MOL0     H52850   5.454   9.551   5.909  0.8563 -1.6606 -0.4767
  383MOL0     H52851   5.272  10.347   5.953 -0.0553 -0.1558 -0.6922
  383MOL0     H52852   5.124  10.545   6.112 -4.0331  1.6094 -1.5995
  383MOL0     H52853   5.149  10.688   6.030 -2.3463 -1.4469 -2.0712
  383MOL0     H52854   5.109  10.554   5.939  0.1550  0.3035 -0.7941
  384MOL0     O52855   7.105  10.196   8.408  1.0180 -0.0712 -0.0572
  384MOL0     C52856   7.152  10.246   8.307 -0.0669 -1.1040  0.1035
  384MOL0     O52857   7.269  10.307   8.305 -0.0124 -0.0257  0.9852
  384MOL0     C52858   7.344  10.352   8.411 -1.1159  0.2261 -0.2121
  384MOL0     C52859   7.482  10.344   8.408 -0.5808  0.2128 -0.0074
  384MOL0     C52860   7.562  10.399   8.514  0.3207  0.0028 -0.1611
  384MOL0     C52861   7.499  10.453   8.626  0.6550 -1.1862 -0.6806
  384MOL0     O52862   7.566  10.518   8.731 -0.0505  0.2510  0.2535
  384MOL0     C52863   7.704  10.492   8.757 -0.9384 -0.6584  0.3393
  384MOL0     C52864   7.741  10.554   8.891  0.4539  0.5350 -0.5233
  384MOL0     C52865   7.711  10.698   8.895 -0.3587 -0.0729  0.1624
  384MOL0     C52866   7.784  10.764   9.010  0.5937  0.0007  0.5229
  384MOL0     C52867   7.750  10.912   9.011 -0.6773 -0.5329 -0.3461
  384MOL0     C52868   7.834  10.993   8.908  1.0256  0.5026  0.1752
  384MOL0     C52869   7.796  11.138   8.899  0.1224  0.3707  0.2006
  384MOL0     C52870   7.659  11.153   8.829 -0.0080 -0.3315 -0.0999
  384MOL0     N52871   7.646  11.296   8.799 -0.3484  0.1089  1.1533
  384MOL0     C52872   7.636  11.402   8.880  0.1581 -0.0984  0.2776
  384MOL0     C52873   7.600  11.505   8.806 -0.2001 -1.2172 -0.6139
  384MOL0     C52874   7.583  11.647   8.854  0.6392 -0.2608  1.0441
  384MOL0     C52875   7.682  11.699   8.959  0.2874 -0.3188 -0.5043
  384MOL0     C52876   7.714  11.847   8.946 -0.6200 -0.4175  0.5277
  384MOL0     C52877   7.602  11.948   8.988  0.0677 -1.1085  0.0424
  384MOL0     O52878   7.614  11.952   9.128  0.2140  0.0436 -0.1159
  384MOL0     C52879   7.513  12.022   9.199 -0.9579 -0.1854 -0.4275
  384MOL0     C52880   7.407  12.081   9.142  0.6022 -0.5920  0.1610
  384MOL0     C52881   7.321  12.170   9.211 -1.2364  0.0011  1.1541
  384MOL0     C52882   7.195  12.207   9.135 -0.7294  0.0450  0.4613
  384MOL0     C52883   7.344  12.201   9.349  0.2941  0.1057  0.0392
  384MOL0     C52884   7.262  12.295   9.432 -0.6905 -0.3450  0.0742
  384MOL0     O52885   7.302  12.329   9.552 -1.0631 -0.2544 -0.4452
  384MOL0     C52886   7.219  12.413   9.631 -0.1730 -0.5786 -0.2125
  384MOL0     C52887   7.240  12.551   9.618  0.1841  0.6243  0.0642
  384MOL0     C52888   7.159  12.638   9.694  0.5515 -0.8628  0.2902
  384MOL0     C52889   7.050  12.587   9.759  0.8453 -0.0783  0.4958
  384MOL0     O52890   6.971  12.686   9.817 -0.0204 -0.3579 -0.7138
  384MOL0     C52891   6.832  12.700   9.771 -0.4125  0.1170 -0.0811
  384MOL0     C52892   6.737  12.719   9.889  0.4388  0.3483 -0.1434
  384MOL0     C52893   6.732  12.866   9.929 -0.3632 -0.2200  0.3980
  384MOL0     C52894   6.695  12.891  10.073  0.0488 -0.9184 -0.4934
  384MOL0     C52895   6.712  13.037  10.120 -0.2969 -1.0764 -0.4680
  384MOL0     C52896   6.656  13.049  10.261  0.1899 -0.2488  0.6139
  384MOL0     C52897   6.703  13.180  10.322 -0.2759  0.0765 -0.0436
  384MOL0     C52898   6.624  13.212  10.451 -0.8534 -0.4932  0.6514
  384MOL0    Cl52899   6.438  13.188  10.446 -0.2418  0.1011  0.2473
  384MOL0     C52900   7.024  12.449   9.783 -0.1289 -0.7232  0.2677
  384MOL0     C52901   7.115  12.361   9.715  0.0340 -0.1150  0.3633
  384MOL0     O52902   7.166  12.342   9.381  0.0443 -0.6852 -0.0580
  384MOL0     C52903   7.444  12.124   9.407 -0.3323 -0.2690  0.1991
  384MOL0     C52904   7.527  12.042   9.335 -0.2371  0.0021  1.0061
  384MOL0     N52905   7.590  11.464   8.678 -0.0212 -0.2437  0.1692
  384MOL0     N52906   7.617  11.340   8.673  0.6069  0.4897  0.9783
  384MOL0     C52907   7.359  10.466   8.627 -0.4809  0.3686  0.3069
  384MOL0     C52908   7.284  10.419   8.518 -0.9099  1.1802  0.3233
  384MOL0     C52909   7.093  10.220   8.176  0.7630  0.2526  0.4024
  384MOL0     C52910   7.037  10.090   8.151 -0.0734 -0.5707  0.3904
  384MOL0     C52911   6.976  10.070   8.030  1.0037  0.2316  0.3541
  384MOL0     C52912   6.977  10.156   7.926 -0.2007 -0.0873  0.3273
  384MOL0     O52913   6.937  10.125   7.798  0.0841 -0.0098 -0.5038
  384MOL0     C52914   7.002  10.007   7.746 -0.0358 -0.0676  1.1855
  384MOL0     C52915   7.013  10.020   7.590  0.3943  0.2204  0.5480
  384MOL0     C52916   6.884  10.060   7.529 -0.2754 -0.7192  0.3650
  384MOL0     C52917   6.890  10.052   7.373  0.2173  0.4570  0.3559
  384MOL0     C52918   6.923   9.913   7.334  0.6709 -0.0986 -0.0784
  384MOL0     C52919   6.948   9.792   7.301  0.6746 -0.2809  0.2709
  384MOL0     C52920   7.010  10.286   7.963 -0.0076  0.1503 -0.2422
  384MOL0     C52921   7.066  10.323   8.086 -0.6266  0.4072  0.6371
  384MOL0     C52922   7.096  10.468   8.108  0.5308  0.7199 -0.2566
  384MOL0     H52923   7.527  10.307   8.316  1.4342  1.2071  0.5258
  384MOL0     H52924   7.669  10.410   8.506  0.1899  3.4420  1.0869
  384MOL0     H52925   7.756  10.532   8.669 -2.1052 -0.5578 -0.3280
  384MOL0     H52926   7.726  10.385   8.756  4.1168  0.0677 -2.4069
  384MOL0     H52927   7.685  10.494   8.963 -1.0554  0.6673 -1.5341
  384MOL0     H52928   7.847  10.539   8.912  0.0352  0.4171  1.6615
  384MOL0     H52929   7.760  10.739   8.806  1.1489 -1.0219  0.5200
  384MOL0     H52930   7.606  10.728   8.883 -0.4066  0.4437  1.7401
  384MOL0     H52931   7.736  10.721   9.099  1.4400 -2.6689 -0.2428
  384MOL0     H52932   7.892  10.748   9.011  1.0116  2.0127 -1.7847
  384MOL0     H52933   7.788  10.935   9.111  1.9629 -0.6455 -1.2534
  384MOL0     H52934   7.642  10.931   9.007 -0.6403  0.0810  1.1023
  384MOL0     H52935   7.934  11.003   8.950  0.5828 -1.3529  1.8860
  384MOL0     H52936   7.830  10.944   8.810  0.8190  1.3259 -0.2277
  384MOL0     H52937   7.884  11.174   8.845  1.2689 -1.6450  0.6369
  384MOL0     H52938   7.789  11.175   9.002  0.2503  0.6593  0.1060
  384MOL0     H52939   7.658  11.097   8.734  1.1777  0.5176 -0.6227
  384MOL0     H52940   7.576  11.124   8.895  0.3865  1.0478  1.0412
  384MOL0     H52941   7.649  11.396   8.988  0.1593  1.9211  0.4343
  384MOL0     H52942   7.481  11.657   8.891  0.0161  1.1702 -0.8727
  384MOL0     H52943   7.598  11.696   8.757  1.1527 -4.4990 -1.2747
  384MOL0     H52944   7.652  11.682   9.062  1.4440 -0.3489 -0.1548
  384MOL0     H52945   7.772  11.637   8.951  0.6301 -0.1522  1.5871
  384MOL0     H52946   7.806  11.877   8.997 -0.7448 -2.3351  2.0053
  384MOL0     H52947   7.730  11.867   8.840 -2.5702 -0.9035  0.1071
  384MOL0     H52948   7.613  12.049   8.948 -0.8202  0.0045  2.4288
  384MOL0     H52949   7.508  11.898   8.961  1.1007 -4.7042  2.3447
  384MOL0     H52950   7.378  12.054   9.041  0.3672 -0.2285  0.1291
  384MOL0     H52951   7.194  12.308   9.093 -0.4180  0.2860  1.0247
  384MOL0     H52952   7.100  12.205   9.191 -0.7153  0.0151  0.4842
  384MOL0     H52953   7.185  12.134   9.054  2.9749 -1.4400  1.1456
  384MOL0     H52954   7.317  12.587   9.552  1.5860 -0.5944  0.9790
  384MOL0     H52955   7.179  12.744   9.688 -3.4467  0.1380  1.9830
  384MOL0     H52956   6.818  12.784   9.703 -1.2091 -1.1243 -1.5214
  384MOL0     H52957   6.814  12.616   9.704  0.7946  1.6493 -2.4318
  384MOL0     H52958   6.636  12.705   9.849  0.4204 -0.6375  0.2211
  384MOL0     H52959   6.770  12.655   9.971  0.2611 -0.8686 -0.9871
  384MOL0     H52960   6.665  12.929   9.870  0.5079  0.1621 -0.1968
  384MOL0     H52961   6.831  12.906   9.907 -1.2240  0.9975 -1.5044
  384MOL0     H52962   6.759  12.821  10.127 -2.3667 -1.1475  2.3655
  384MOL0     H52963   6.588  12.868  10.078 -0.2028  0.3464  0.4405
  384MOL0     H52964   6.819  13.061  10.116 -0.9487  2.2287 -0.7216
  384MOL0     H52965   6.655  13.107  10.059 -3.4653 -1.3520  1.9150
  384MOL0     H52966   6.701  12.976  10.330 -0.9918  0.7263  2.4998
  384MOL0     H52967   6.547  13.047  10.253  0.2632 -1.1041 -0.3781
  384MOL0     H52968   6.685  13.262  10.252 -0.7055  0.0150 -0.0085
  384MOL0     H52969   6.809  13.172  10.346  0.4525  0.8663 -2.6193
  384MOL0     H52970   6.658  13.310  10.483  0.7803  0.7935 -4.1440
  384MOL0     H52971   6.659  13.141  10.526 -0.7748 -1.8160 -0.5789
  384MOL0     H52972   6.941  12.413   9.842  0.0253  1.5768  2.0419
  384MOL0     H52973   7.114  12.252   9.724  0.8915 -0.0050  2.1785
  384MOL0     H52974   7.469  12.135   9.512  0.6415 -1.7288  0.1455
  384MOL0     H52975   7.612  11.986   9.372 -0.1294 -2.2598 -2.2564
  384MOL0     H52976   7.316  10.516   8.713 -2.4358  0.2211 -0.5309
  384MOL0     H52977   7.176  10.422   8.525 -0.8874  0.0029  1.5970
  384MOL0     H52978   7.037  10.009   8.224  1.2496 -2.8303 -1.9550
  384MOL0     H52979   6.922   9.978   8.012 -0.3900  1.7635 -4.8818
  384MOL0     H52980   7.092   9.988   7.805  0.3034 -1.7454  0.1680
  384MOL0     H52981   6.947   9.913   7.754  0.3033 -0.6824 -2.3862
  384MOL0     H52982   7.043   9.924   7.546 -0.2301 -0.0438  0.6751
  384MOL0     H52983   7.080  10.104   7.569 -0.4703  0.8160  0.0914
  384MOL0     H52984   6.803  10.001   7.573 -1.2930  0.9133  0.7442
  384MOL0     H52985   6.853  10.161   7.554 -3.5679 -1.8664  1.4156
  384MOL0     H52986   6.950  10.132   7.327 -0.6655 -0.2147 -2.1497
  384MOL0     H52987   6.790  10.069   7.332 -0.3957 -1.2635  1.0791
  384MOL0     H52988   6.951   9.688   7.279  0.1626 -0.0817 -0.8195
  384MOL0     H52989   6.997  10.369   7.895  0.8665  0.1083 -0.4783
  384MOL0     H52990   7.004  10.522   8.133 -0.4010 -0.3858 -1.1608
  384MOL0     H52991   7.174  10.489   8.182 -1.2309 -2.2199  2.7030
  384MOL0     H52992   7.133  10.508   8.013 -0.8150  0.4546 -0.9303
  385MOL0     O52993   3.201   6.531   3.805  0.9276 -0.4262  0.0436
  385MOL0     C52994   3.125   6.485   3.895  0.3975  0.7496 -0.2543
  385MOL0     O52995   3.161   6.388   3.982 -0.6371  0.5876 -0.3089
  385MOL0     C52996   3.294   6.347   3.983 -0.3268 -0.4283 -0.6333
  385MOL0     C52997   3.354   6.282   3.877  0.0459 -0.1701  1.1129
  385MOL0     C52998   3.477   6.222   3.895 -1.4144 -0.7067 -0.0975
  385MOL0     C52999   3.545   6.229   4.016  0.0815  0.4819 -0.4855
  385MOL0     O53000   3.673   6.193   4.043 -0.0385  0.5480 -0.0985
  385MOL0     C53001   3.762   6.149   3.939 -0.4579 -0.4179 -0.6723
  385MOL0     C53002   3.906   6.183   3.990 -0.6156 -0.7944  0.2436
  385MOL0     C53003   3.958   6.115   4.126 -0.3534 -0.0589  0.0934
  385MOL0     C53004   4.080   6.188   4.186 -0.0536  0.2238 -0.1918
  385MOL0     C53005   4.138   6.116   4.306  0.2938  0.0240  0.2120
  385MOL0     C53006   4.057   6.116   4.435 -0.1764 -1.0305 -0.0679
  385MOL0     C53007   4.050   6.250   4.518 -0.1604  0.1261  0.5716
  385MOL0     C53008   3.910   6.304   4.541 -0.8594  0.5365 -0.2713
  385MOL0     N53009   3.896   6.448   4.570  0.4603  0.4735  0.8288
  385MOL0     C53010   3.889   6.511   4.688  0.4207 -0.0115 -0.2580
  385MOL0     C53011   3.862   6.637   4.653 -0.2537 -0.1469  0.8983
  385MOL0     C53012   3.844   6.746   4.757  0.2788  0.7460 -0.8512
  385MOL0     C53013   3.974   6.818   4.788 -0.9072  0.6828  0.2424
  385MOL0     C53014   4.044   6.751   4.898  0.1850 -0.7944 -0.0665
  385MOL0     C53015   4.186   6.811   4.913 -0.1690  0.5167  0.3539
  385MOL0     O53016   4.193   6.943   4.962 -0.0377 -0.2139 -0.4093
  385MOL0     C53017   4.211   6.964   5.098 -1.0782  0.2248 -0.4575
  385MOL0     C53018   4.239   7.092   5.141  0.0615 -0.7283 -0.7354
  385MOL0     C53019   4.272   7.127   5.273  0.6801  0.0592  0.2642
  385MOL0     C53020   4.317   7.274   5.296  0.0557 -0.2248 -0.0969
  385MOL0     C53021   4.254   7.030   5.374 -0.0993 -0.1746  0.7699
  385MOL0     C53022   4.275   7.055   5.524  0.1982 -0.1118 -0.0875
  385MOL0     O53023   4.276   6.939   5.604  0.2250  0.1809  0.6148
  385MOL0     C53024   4.278   6.948   5.739  0.2820 -0.0827  0.6802
  385MOL0     C53025   4.368   6.866   5.810  0.3162  0.0951 -0.2786
  385MOL0     C53026   4.366   6.869   5.955 -1.0888  1.0118 -0.6709
  385MOL0     C53027   4.282   6.946   6.026  0.1473 -0.3329  0.1433
  385MOL0     O53028   4.295   6.942   6.163  0.2483  0.9093  0.2019
  385MOL0     C53029   4.175   6.946   6.232  0.3254  1.2460 -0.0277
  385MOL0     C53030   4.203   6.903   6.386 -0.7762  0.0729 -0.1610
  385MOL0     C53031   4.248   7.026   6.465 -1.2869 -0.2233 -0.3064
  385MOL0     C53032   4.295   6.978   6.605  0.0622  0.0624 -1.0081
  385MOL0     C53033   4.290   7.082   6.722  0.5857 -0.2359  0.2338
  385MOL0     C53034   4.401   7.192   6.714  0.8842 -0.1784  0.5614
  385MOL0     C53035   4.398   7.320   6.632  0.2093 -0.1332 -0.5475
  385MOL0     C53036   4.295   7.406   6.695 -0.3149  0.9135 -0.3524
  385MOL0    Cl53037   4.334   7.462   6.861  0.0780 -0.2126  0.1840
  385MOL0     C53038   4.190   7.024   5.952  0.3456 -0.2084  0.1355
  385MOL0     C53039   4.185   7.026   5.810 -0.9758 -0.4923 -0.5548
  385MOL0     O53040   4.294   7.165   5.561 -0.6139 -0.0204 -0.2604
  385MOL0     C53041   4.219   6.899   5.325  0.2881  0.1405 -0.4214
  385MOL0     C53042   4.208   6.872   5.191  0.4933  0.7416 -0.8355
  385MOL0     N53043   3.853   6.649   4.510 -0.0433  0.5290  0.2632
  385MOL0     N53044   3.883   6.536   4.471 -0.6704  1.0849  0.3188
  385MOL0     C53045   3.479   6.285   4.129  0.6688 -0.8973 -0.2576
  385MOL0     C53046   3.355   6.346   4.109 -0.0717 -1.3825 -0.2099
  385MOL0     C53047   3.001   6.560   3.918 -0.4930 -0.0360  0.0140
  385MOL0     C53048   2.929   6.606   3.804  0.1631 -0.0556 -0.8077
  385MOL0     C53049   2.790   6.643   3.824 -0.5903  0.4677  0.1584
  385MOL0     C53050   2.726   6.640   3.954  0.1010  0.5867  0.7598
  385MOL0     O53051   2.590   6.665   3.960 -0.7110  0.3279  0.4057
  385MOL0     C53052   2.558   6.807   3.934  0.0243  0.0480 -0.7994
  385MOL0     C53053   2.443   6.842   4.019 -0.0206 -0.0072  1.3324
  385MOL0     C53054   2.316   6.755   3.999  0.7711 -0.2204  0.3122
  385MOL0     C53055   2.207   6.779   4.104 -0.0491  0.2011  0.2874
  385MOL0     C53056   2.170   6.918   4.122  0.5785 -0.8648 -0.0506
  385MOL0     C53057   2.137   7.033   4.157  0.3179 -0.1351  1.0020
  385MOL0     C53058   2.801   6.592   4.064  0.6824  0.6667 -0.3767
  385MOL0     C53059   2.938   6.560   4.053  0.6801 -0.5367  1.4164
  385MOL0     C53060   2.990   6.492   4.182 -0.6303  0.1951  0.1223
  385MOL0     H53061   3.317   6.287   3.775  1.7996  1.8698  0.5114
  385MOL0     H53062   3.519   6.199   3.798 -2.8579 -1.3901 -0.5982
  385MOL0     H53063   3.730   6.197   3.846 -2.1362 -1.7014 -0.8050
  385MOL0     H53064   3.751   6.040   3.931  3.7671 -1.5509  3.8648
  385MOL0     H53065   3.974   6.152   3.911 -0.7628 -0.9756  0.1861
  385MOL0     H53066   3.913   6.292   4.000 -0.5348 -0.5998 -1.6538
  385MOL0     H53067   3.878   6.120   4.201  1.0957  2.1452  1.6362
  385MOL0     H53068   3.988   6.013   4.103  2.0972  0.3300  1.2335
  385MOL0     H53069   4.153   6.211   4.108  0.6971  1.6834  0.9146
  385MOL0     H53070   4.043   6.282   4.226 -0.3724 -0.4139  1.0616
  385MOL0     H53071   4.233   6.170   4.315  0.5365 -0.7641  3.7099
  385MOL0     H53072   4.170   6.014   4.281  0.1693  0.3497 -1.3878
  385MOL0     H53073   3.953   6.093   4.411 -0.4034  1.4367 -1.7383
  385MOL0     H53074   4.104   6.040   4.499  3.6927  1.7310  0.7768
  385MOL0     H53075   4.109   6.326   4.465  1.5086 -0.4168  1.5841
  385MOL0     H53076   4.098   6.239   4.616  0.7514 -2.2445 -0.0827
  385MOL0     H53077   3.837   6.266   4.469  0.7825  1.5300 -2.5703
  385MOL0     H53078   3.876   6.250   4.630  1.4112  3.0184  2.3144
  385MOL0     H53079   3.890   6.474   4.789  1.8568  0.8177  0.0724
  385MOL0     H53080   3.800   6.720   4.853  2.1180 -0.3129 -0.2437
  385MOL0     H53081   3.766   6.816   4.724 -0.3504 -1.0281 -3.3745
  385MOL0     H53082   4.045   6.820   4.705 -0.6021 -0.1885  0.4649
  385MOL0     H53083   3.946   6.917   4.826 -1.7888 -0.2372  2.1849
  385MOL0     H53084   3.989   6.754   4.993 -2.3194  1.1905 -1.4606
  385MOL0     H53085   4.048   6.647   4.864 -2.0513 -1.1685  0.6442
  385MOL0     H53086   4.254   6.739   4.958  0.4663 -0.1662 -1.5915
  385MOL0     H53087   4.217   6.810   4.808 -0.1361 -1.8033  0.3386
  385MOL0     H53088   4.223   7.158   5.055  1.2613 -2.3369 -2.2538
  385MOL0     H53089   4.422   7.289   5.323  0.0250  0.7065 -0.4643
  385MOL0     H53090   4.254   7.311   5.378 -0.1477 -1.1891  0.2010
  385MOL0     H53091   4.291   7.339   5.212 -0.4092 -0.4494 -0.1312
  385MOL0     H53092   4.437   6.796   5.763  1.0123  0.5586  0.0317
  385MOL0     H53093   4.435   6.812   6.016 -1.6489 -0.0205 -0.9715
  385MOL0     H53094   4.132   7.047   6.227 -0.4816  0.9319  0.4142
  385MOL0     H53095   4.106   6.874   6.187  1.3438 -0.0022  0.3764
  385MOL0     H53096   4.115   6.866   6.438 -0.2491  1.4071  1.7820
  385MOL0     H53097   4.285   6.830   6.387  0.0366  0.9549 -0.6851
  385MOL0     H53098   4.157   7.087   6.470 -0.1421  1.5243  0.0875
  385MOL0     H53099   4.329   7.083   6.419 -0.0286 -1.7326 -0.0305
  385MOL0     H53100   4.394   6.931   6.604  0.8317  1.6073 -1.7602
  385MOL0     H53101   4.220   6.909   6.645  1.7791 -0.4691  1.5270
  385MOL0     H53102   4.193   7.131   6.728  0.5549 -0.2746  0.0614
  385MOL0     H53103   4.297   7.027   6.816  1.5917  2.6927  2.0155
  385MOL0     H53104   4.485   7.135   6.672 -0.9508 -0.8151 -2.5118
  385MOL0     H53105   4.428   7.228   6.814 -1.0121  1.9001  0.4084
  385MOL0     H53106   4.371   7.287   6.532 -0.7297  1.4052 -0.8372
  385MOL0     H53107   4.492   7.375   6.640 -0.0611  0.0982  1.7900
  385MOL0     H53108   4.197   7.357   6.698  0.9243 -1.7310 -0.1063
  385MOL0     H53109   4.304   7.500   6.640  1.7883  2.6220  2.5935
  385MOL0     H53110   4.116   7.082   6.006  0.0410  0.0815 -0.5822
  385MOL0     H53111   4.106   7.070   5.749 -2.0962 -0.7471  0.6529
  385MOL0     H53112   4.209   6.822   5.401 -2.9697 -0.9351 -1.7658
  385MOL0     H53113   4.178   6.768   5.185  0.1148  0.2585  4.5091
  385MOL0     H53114   3.526   6.292   4.227 -0.8264 -1.5969  0.5463
  385MOL0     H53115   3.303   6.391   4.193  0.5196 -0.0363 -0.5416
  385MOL0     H53116   2.962   6.628   3.703 -0.4123  2.3504 -0.5177
  385MOL0     H53117   2.730   6.681   3.741 -2.1511 -1.4582  0.3384
  385MOL0     H53118   2.637   6.882   3.932 -1.0150  1.1451 -1.5998
  385MOL0     H53119   2.515   6.802   3.834 -1.0119 -0.6786 -0.3414
  385MOL0     H53120   2.414   6.946   4.002 -0.3974 -0.2049  0.7522
  385MOL0     H53121   2.477   6.832   4.122  0.7121  1.1544  1.2199
  385MOL0     H53122   2.266   6.771   3.903  1.1132 -0.6038  0.0649
  385MOL0     H53123   2.336   6.649   4.014 -0.6888 -0.5111  0.3192
  385MOL0     H53124   2.234   6.739   4.202 -4.0755  0.3366  1.6234
  385MOL0     H53125   2.123   6.719   4.067  3.1503 -1.6055 -5.1189
  385MOL0     H53126   2.098   7.128   4.187  0.0312 -0.5825  2.1023
  385MOL0     H53127   2.747   6.594   4.159 -3.4598  1.3424 -2.4890
  385MOL0     H53128   3.089   6.533   4.204 -1.1246  0.6052  1.7025
  385MOL0     H53129   2.944   6.532   4.273 -1.5385 -1.6404  0.5147
  385MOL0     H53130   3.014   6.386   4.177  2.4123  0.8116 -0.1275
  386MOL0     O53131   7.233   0.960   8.851  0.4683  0.0053 -0.8191
  386MOL0     C53132   7.113   0.967   8.842 -0.2588 -0.5408  0.4008
  386MOL0     O53133   7.026   1.004   8.938 -0.2996 -0.1181 -0.6090
  386MOL0     C53134   7.087   1.076   9.038  0.0435 -0.2469 -0.2700
  386MOL0     C53135   7.139   1.205   8.998  0.7442  0.4411 -0.3266
  386MOL0     C53136   7.171   1.300   9.094 -0.0468 -0.3993 -0.1832
  386MOL0     C53137   7.164   1.270   9.234 -0.1350 -0.2948  1.0896
  386MOL0     O53138   7.210   1.356   9.323 -0.4021 -1.0079  0.1107
  386MOL0     C53139   7.122   1.381   9.435 -0.5461 -0.1836  0.0524
  386MOL0     C53140   7.146   1.502   9.527  0.1950 -0.2660 -0.8004
  386MOL0     C53141   7.053   1.499   9.652 -0.4456 -0.1809  0.4586
  386MOL0     C53142   7.086   1.623   9.723 -0.2697 -0.1392 -0.6145
  386MOL0     C53143   7.000   1.660   9.851  0.8181 -0.3762  0.4082
  386MOL0     C53144   7.054   1.791   9.922 -1.0655  0.1410  0.4501
  386MOL0     C53145   6.983   1.795  10.063 -0.3776 -0.0001  0.3132
  386MOL0     C53146   7.037   1.918  10.148 -0.0069 -0.5831 -0.1696
  386MOL0     N53147   6.966   1.918  10.275 -0.4869  0.1519 -0.4100
  386MOL0     C53148   7.011   1.861  10.395  0.2934 -0.2275 -0.2510
  386MOL0     C53149   6.915   1.888  10.482  0.3298 -0.6028 -0.0704
  386MOL0     C53150   6.923   1.862  10.631 -0.1447  0.4329  0.6821
  386MOL0     C53151   6.949   1.995  10.702 -0.7005  0.0470 -0.3347
  386MOL0     C53152   7.099   2.043  10.702 -0.2986 -0.3641 -0.5131
  386MOL0     C53153   7.185   1.947  10.786 -0.2729  0.7284 -0.4259
  386MOL0     O53154   7.320   2.002  10.786  0.2466  0.1947 -0.6937
  386MOL0     C53155   7.425   1.939  10.840 -0.1489  0.2717  0.1128
  386MOL0     C53156   7.547   1.996  10.820 -0.5586  1.3623  0.1018
  386MOL0     C53157   7.664   1.947  10.874  0.3666 -0.5444  0.7862
  386MOL0     C53158   7.786   2.029  10.847  0.6708 -0.1869 -0.1037
  386MOL0     C53159   7.659   1.830  10.957 -0.4345 -0.3458 -1.2409
  386MOL0     C53160   7.776   1.778  11.041 -1.2246  0.2048 -0.3990
  386MOL0     O53161   7.903   1.815  10.993  0.7353  0.8961  0.3769
  386MOL0     C53162   8.027   1.750  11.032 -0.0083 -0.3041  0.4439
  386MOL0     C53163   8.060   1.667  11.145  0.3321  0.7304  0.0630
  386MOL0     C53164   8.191   1.623  11.170 -0.5474 -1.0619  0.3075
  386MOL0     C53165   8.302   1.668  11.093 -0.8298  0.2998 -1.1238
  386MOL0     O53166   8.431   1.643  11.134 -0.1176  0.5025 -0.3150
  386MOL0     C53167   8.459   1.507  11.169  0.3549  0.7283 -0.1225
  386MOL0     C53168   8.611   1.482  11.176  0.3502  0.2725 -0.2458
  386MOL0     C53169   8.688   1.586  11.267  1.4508 -0.4850 -0.5714
  386MOL0     C53170   8.842   1.566  11.238  1.8259 -0.4475  0.1269
  386MOL0     C53171   8.898   1.443  11.291  0.4148 -0.7997  0.1583
  386MOL0     C53172   8.900   1.443  11.444 -0.1560 -0.5226  0.8111
  386MOL0     C53173   8.976   1.318  11.509 -0.4149 -0.6106 -0.4478
  386MOL0     C53174   8.917   1.189  11.447 -0.2366  0.2284  0.1084
  386MOL0    Cl53175   9.040   1.057  11.473 -0.0748  0.2079  0.4685
  386MOL0     C53176   8.274   1.751  10.989  0.2213  0.4984 -0.9338
  386MOL0     C53177   8.146   1.794  10.968  0.1802 -0.2615  0.4765
  386MOL0     O53178   7.753   1.694  11.130  0.3545  0.8656  0.3448
  386MOL0     C53179   7.527   1.776  10.973  0.6724 -0.6680  0.0738
  386MOL0     C53180   7.414   1.823  10.916 -0.3308  0.5042  0.9747
  386MOL0     N53181   6.817   1.955  10.412 -0.2477 -0.3589 -0.1174
  386MOL0     N53182   6.845   1.964  10.295  0.3429 -0.6885 -0.3533
  386MOL0     C53183   7.120   1.141   9.265 -0.4310 -0.1189 -0.3587
  386MOL0     C53184   7.078   1.046   9.169  0.0191 -0.4328 -1.1289
  386MOL0     C53185   7.057   0.950   8.699  1.0784 -0.2054  0.0104
  386MOL0     C53186   6.920   0.960   8.676  0.1955  0.3121 -0.2788
  386MOL0     C53187   6.856   0.938   8.555  0.2564  0.2017 -0.5076
  386MOL0     C53188   6.931   0.935   8.435 -0.0009  0.6405  0.3976
  386MOL0     O53189   6.876   0.930   8.309 -0.0133  0.5742  0.1381
  386MOL0     C53190   6.735   0.914   8.308  0.6413 -0.5782 -0.6293
  386MOL0     C53191   6.695   0.924   8.162  0.4437  0.3552 -0.2196
  386MOL0     C53192   6.695   0.785   8.095  0.9158  0.7396 -0.4205
  386MOL0     C53193   6.841   0.744   8.056 -0.1155  0.8507  0.2728
  386MOL0     C53194   6.843   0.605   7.992 -0.0413  0.5998  0.6736
  386MOL0     C53195   6.837   0.490   7.939  0.5317 -1.0332 -0.5034
  386MOL0     C53196   7.064   0.918   8.451 -0.0610 -0.5825 -0.4356
  386MOL0     C53197   7.129   0.915   8.582 -0.5255  0.1556  0.7178
  386MOL0     C53198   7.273   0.862   8.573  0.3418 -0.4837  0.3419
  386MOL0     H53199   7.141   1.235   8.893  0.2055  1.5998 -0.0287
  386MOL0     H53200   7.218   1.394   9.068  0.8820 -1.1936 -1.4647
  386MOL0     H53201   7.139   1.291   9.495 -0.5541 -1.0818 -1.2518
  386MOL0     H53202   7.016   1.375   9.407 -1.0851  2.8714  1.0701
  386MOL0     H53203   7.253   1.509   9.548 -0.4084  0.3294  2.6695
  386MOL0     H53204   7.115   1.592   9.473  1.1123 -0.4311 -1.6445
  386MOL0     H53205   6.952   1.482   9.613 -0.2509 -1.8993  0.6201
  386MOL0     H53206   7.073   1.421   9.726 -0.4164 -1.7393 -1.1335
  386MOL0     H53207   7.194   1.622   9.740  0.0928  2.2704 -2.2992
  386MOL0     H53208   7.064   1.699   9.647  1.6747 -0.8792 -2.0022
  386MOL0     H53209   7.004   1.573   9.918 -1.8057 -2.1721 -1.5295
  386MOL0     H53210   6.902   1.688   9.813  1.9188  1.0110 -1.6267
  386MOL0     H53211   7.164   1.786   9.918 -1.0819 -0.2969  0.4546
  386MOL0     H53212   7.028   1.883   9.870  2.1774  1.7798  1.4257
  386MOL0     H53213   7.000   1.702  10.118 -0.0384  0.3902  0.8951
  386MOL0     H53214   6.879   1.820  10.043  0.0296 -0.1608 -2.3399
  386MOL0     H53215   7.146   1.919  10.158  0.1067  3.9184  0.1787
  386MOL0     H53216   7.025   2.015  10.098  1.4033  0.3213  1.1502
  386MOL0     H53217   7.110   1.831  10.428  0.5069  1.0261  0.3146
  386MOL0     H53218   7.010   1.799  10.650  0.1745  1.0607  1.3374
  386MOL0     H53219   6.831   1.814  10.665  0.6165  0.8173  3.5270
  386MOL0     H53220   6.890   2.078  10.660  2.2289  1.8245 -1.2384
  386MOL0     H53221   6.929   1.969  10.806  3.4212  0.0502  0.6379
  386MOL0     H53222   7.120   2.048  10.595  1.1548 -4.0895 -0.5726
  386MOL0     H53223   7.110   2.144  10.741  0.3582  0.2306 -2.1672
  386MOL0     H53224   7.141   1.927  10.884 -0.2695  0.4821 -0.4736
  386MOL0     H53225   7.192   1.844  10.750  0.8758  0.2373  1.1140
  386MOL0     H53226   7.540   2.086  10.759  0.7868  2.0278  0.8871
  386MOL0     H53227   7.757   2.107  10.776 -0.6373 -1.2560 -0.7958
  386MOL0     H53228   7.870   1.978  10.798  0.2803  0.8729 -1.9630
  386MOL0     H53229   7.819   2.080  10.938 -1.2156 -1.8410  1.6326
  386MOL0     H53230   7.985   1.647  11.220  1.5186 -0.7174  0.9302
  386MOL0     H53231   8.199   1.557  11.255 -1.7912 -2.2450 -0.4421
  386MOL0     H53232   8.423   1.496  11.272 -0.0480 -1.1837 -0.4285
  386MOL0     H53233   8.390   1.439  11.119  0.8772 -0.7387  1.0638
  386MOL0     H53234   8.633   1.385  11.222  0.8028 -0.3307 -1.6779
  386MOL0     H53235   8.651   1.475  11.075 -1.9180 -4.5758 -1.1397
  386MOL0     H53236   8.656   1.576  11.371 -1.1149  1.1193 -1.1156
  386MOL0     H53237   8.657   1.688  11.242 -1.4958 -0.6787  1.7409
  386MOL0     H53238   8.900   1.650  11.279 -1.0937  0.1635  3.4567
  386MOL0     H53239   8.848   1.555  11.130  0.8297 -2.3294  0.2209
  386MOL0     H53240   8.849   1.361  11.237  1.9196 -2.2853  0.9383
  386MOL0     H53241   9.001   1.437  11.256  0.9379 -1.1819  1.6618
  386MOL0     H53242   8.795   1.436  11.475  0.3474  0.3864  2.8948
  386MOL0     H53243   8.939   1.536  11.485 -1.2794 -0.8016  2.6046
  386MOL0     H53244   8.974   1.312  11.619 -1.1766  0.6666 -0.3715
  386MOL0     H53245   9.082   1.326  11.484  0.1526 -0.5540  1.7545
  386MOL0     H53246   8.905   1.201  11.339  3.0116 -0.1890 -0.3842
  386MOL0     H53247   8.823   1.158  11.493  0.9875 -2.2549  1.1147
  386MOL0     H53248   8.362   1.788  10.938  2.1618 -0.3967  1.5789
  386MOL0     H53249   8.116   1.858  10.885 -1.3640 -1.3402  0.1656
  386MOL0     H53250   7.520   1.688  11.037  1.5999 -0.6752  0.1691
  386MOL0     H53251   7.314   1.789  10.940  0.0147  0.1236  1.9325
  386MOL0     H53252   7.109   1.101   9.366 -0.7393  0.2697 -0.2332
  386MOL0     H53253   7.045   0.945   9.187  0.9464 -0.4924  0.5376
  386MOL0     H53254   6.862   1.005   8.756  0.0168  3.4174 -1.9789
  386MOL0     H53255   6.748   0.940   8.564  0.3113 -0.4436  0.3594
  386MOL0     H53256   6.712   0.815   8.346  0.1779  0.4110  1.8117
  386MOL0     H53257   6.687   0.988   8.373  2.4360 -1.7067  2.1573
  386MOL0     H53258   6.757   0.999   8.113  0.9039  3.4781  4.5133
  386MOL0     H53259   6.591   0.956   8.147  0.2250 -0.9257 -1.7675
  386MOL0     H53260   6.661   0.702   8.159  1.9786  0.2349 -0.4813
  386MOL0     H53261   6.633   0.790   8.005  1.2850  1.7083 -0.6317
  386MOL0     H53262   6.918   0.741   8.134  0.0500  0.2887  0.0911
  386MOL0     H53263   6.883   0.814   7.983 -2.3857  1.5351 -0.4474
  386MOL0     H53264   6.840   0.391   7.898 -2.7161 -1.8480  0.8792
  386MOL0     H53265   7.124   0.895   8.363  2.4959  1.4744  0.6367
  386MOL0     H53266   7.321   0.841   8.477 -0.6735  0.4489 -0.3911
  386MOL0     H53267   7.349   0.925   8.620  3.2080 -3.5071  0.1136
  386MOL0     H53268   7.263   0.778   8.642  0.3365 -0.1578  0.7436
  387MOL0     O53269   4.989   5.074   6.114  0.5957 -0.0407 -0.7434
  387MOL0     C53270   5.096   5.090   6.161 -0.7123 -0.4191 -0.1639
  387MOL0     O53271   5.208   5.042   6.106 -0.4935 -0.0075  1.0842
  387MOL0     C53272   5.205   4.956   5.991  0.5694 -0.4318 -0.2945
  387MOL0     C53273   5.290   4.985   5.899  0.2220 -0.3858 -0.4837
  387MOL0     C53274   5.295   4.909   5.776  0.5339  0.4963  0.4629
  387MOL0     C53275   5.205   4.800   5.757  0.1323  0.4801  0.3820
  387MOL0     O53276   5.218   4.725   5.644 -0.2553 -0.1867  0.1083
  387MOL0     C53277   5.136   4.609   5.638  0.5422 -0.0072  0.2330
  387MOL0     C53278   5.187   4.484   5.565 -0.1382 -0.6384 -0.5294
  387MOL0     C53279   5.283   4.505   5.448 -0.1470 -0.5819 -0.4868
  387MOL0     C53280   5.200   4.589   5.341  0.4746 -0.2399  0.4964
  387MOL0     C53281   5.242   4.564   5.194  0.0280  0.7622  0.7302
  387MOL0     C53282   5.379   4.610   5.159  0.8420  0.0336  0.1129
  387MOL0     C53283   5.428   4.611   5.010 -0.9267 -0.0372 -0.7608
  387MOL0     C53284   5.321   4.655   4.916 -0.6738  0.4845 -0.1302
  387MOL0     N53285   5.392   4.707   4.788  0.8956 -0.2719  0.3021
  387MOL0     C53286   5.412   4.636   4.673 -0.3303 -0.1888 -0.4171
  387MOL0     C53287   5.465   4.726   4.588 -0.1129 -0.9747  0.5332
  387MOL0     C53288   5.504   4.679   4.449  0.1393  0.0703  1.0135
  387MOL0     C53289   5.653   4.654   4.446  1.1142  0.2258  0.0245
  387MOL0     C53290   5.701   4.574   4.572  0.2002 -0.4661  0.6189
  387MOL0     C53291   5.840   4.508   4.547 -0.5496 -1.3214 -0.0886
  387MOL0     O53292   5.812   4.408   4.454 -0.0879 -0.4884  0.6227
  387MOL0     C53293   5.907   4.389   4.350  0.2183  0.0066 -0.2319
  387MOL0     C53294   5.860   4.338   4.236 -0.5548 -0.0594  0.4609
  387MOL0     C53295   5.939   4.318   4.122 -0.0047  0.0875 -0.2895
  387MOL0     C53296   5.874   4.288   3.982 -0.5545 -0.4729 -0.1939
  387MOL0     C53297   6.085   4.337   4.134 -0.0806  0.3418  0.3683
  387MOL0     C53298   6.182   4.331   4.022 -0.9654 -0.4273  1.6879
  387MOL0     O53299   6.310   4.317   4.058  0.1397 -0.1755 -0.5191
  387MOL0     C53300   6.405   4.330   3.963 -0.3314  0.5178  0.5728
  387MOL0     C53301   6.496   4.435   3.976 -0.8781  0.2574 -0.6188
  387MOL0     C53302   6.609   4.456   3.897  0.4981 -0.1959 -0.0407
  387MOL0     C53303   6.614   4.376   3.785 -0.8284  0.2082  0.5675
  387MOL0     O53304   6.713   4.395   3.693 -0.1980 -0.5335 -0.1345
  387MOL0     C53305   6.845   4.349   3.721  0.5482 -0.4065 -0.4886
  387MOL0     C53306   6.849   4.198   3.704  0.3351  0.5819  0.1779
  387MOL0     C53307   6.812   4.135   3.565  0.0408  0.4733  0.3299
  387MOL0     C53308   6.943   4.124   3.492  0.2819  0.2690  0.3227
  387MOL0     C53309   6.911   4.070   3.354 -0.9920 -0.7912  0.6409
  387MOL0     C53310   6.881   3.923   3.338  0.1998 -0.1426  0.3926
  387MOL0     C53311   6.987   3.835   3.400  0.0405 -0.5406  0.3211
  387MOL0     C53312   6.937   3.746   3.508 -0.2511 -0.2165 -0.0411
  387MOL0    Cl53313   6.782   3.659   3.474  0.0255 -0.1997  0.4372
  387MOL0     C53314   6.526   4.271   3.762  0.2918 -0.3521 -0.1357
  387MOL0     C53315   6.428   4.248   3.857 -0.1304  0.0547  0.3625
  387MOL0     O53316   6.138   4.342   3.909  0.3169 -0.3574 -0.3161
  387MOL0     C53317   6.130   4.374   4.262 -0.3329  0.8495  0.1305
  387MOL0     C53318   6.043   4.399   4.368 -1.2179 -0.4246  0.0946
  387MOL0     N53319   5.483   4.850   4.649 -0.8292  0.1540 -0.5471
  387MOL0     N53320   5.441   4.838   4.778 -0.2983 -0.1256  0.4951
  387MOL0     C53321   5.110   4.784   5.852 -0.4845  0.8561 -0.0192
  387MOL0     C53322   5.106   4.859   5.971 -0.4076 -0.2501 -0.1243
  387MOL0     C53323   5.103   5.146   6.298 -0.2761 -0.4170  0.5696
  387MOL0     C53324   5.205   5.099   6.381  0.1624 -0.2540 -0.1650
  387MOL0     C53325   5.215   5.148   6.513  0.1321  0.5241 -0.3810
  387MOL0     C53326   5.139   5.248   6.565  1.2618  0.1579  0.9456
  387MOL0     O53327   5.144   5.301   6.693 -0.8649 -0.1846  0.4059
  387MOL0     C53328   5.062   5.258   6.799  0.5006  0.3518 -0.7462
  387MOL0     C53329   5.051   5.356   6.922 -0.1894 -0.7467  0.6221
  387MOL0     C53330   5.187   5.369   6.998 -0.5051 -0.0111  0.6205
  387MOL0     C53331   5.151   5.432   7.139  0.0553  0.8207  0.4913
  387MOL0     C53332   5.267   5.438   7.224  0.8889 -0.0700  0.0022
  387MOL0     C53333   5.365   5.445   7.295 -0.4307 -0.5513 -0.5454
  387MOL0     C53334   5.049   5.303   6.483  0.1624  0.5457  0.9816
  387MOL0     C53335   5.028   5.254   6.356  0.2033  1.0223  0.8985
  387MOL0     C53336   4.905   5.310   6.277 -0.1288  0.6128  0.2663
  387MOL0     H53337   5.362   5.065   5.912  1.2458 -1.6423  2.3061
  387MOL0     H53338   5.378   4.937   5.712  0.8663  0.1392  0.7289
  387MOL0     H53339   5.052   4.645   5.578 -1.5872 -4.8817 -0.1542
  387MOL0     H53340   5.106   4.570   5.736  1.7663 -1.9340 -0.1113
  387MOL0     H53341   5.229   4.416   5.640 -2.1156  2.9646  4.3976
  387MOL0     H53342   5.096   4.436   5.529 -1.3121  1.6452 -0.8479
  387MOL0     H53343   5.370   4.563   5.480 -1.4517 -0.0396  2.4701
  387MOL0     H53344   5.315   4.410   5.404  0.3764 -0.8677  0.4763
  387MOL0     H53345   5.095   4.558   5.339 -0.2489  1.9057  1.4619
  387MOL0     H53346   5.176   4.692   5.371 -2.9929 -0.3034 -1.5476
  387MOL0     H53347   5.172   4.618   5.130  1.2515 -0.3013 -1.6542
  387MOL0     H53348   5.240   4.457   5.172 -0.9416  1.1898 -1.5220
  387MOL0     H53349   5.387   4.713   5.197 -1.4475  0.7419 -1.1308
  387MOL0     H53350   5.435   4.550   5.230 -1.7680 -0.3417  1.9829
  387MOL0     H53351   5.461   4.511   4.982 -1.3856  0.1972 -2.1689
  387MOL0     H53352   5.514   4.679   5.008 -1.1016  0.4105  2.1438
  387MOL0     H53353   5.250   4.574   4.898  0.9635 -1.4417  1.5221
  387MOL0     H53354   5.274   4.744   4.958 -0.6601  0.9897 -1.1535
  387MOL0     H53355   5.397   4.532   4.643  3.0719 -0.8075 -0.3736
  387MOL0     H53356   5.492   4.758   4.375  6.2956 -0.2530 -0.9256
  387MOL0     H53357   5.453   4.588   4.415  1.3240 -0.6422  1.0847
  387MOL0     H53358   5.664   4.577   4.370 -2.4199 -2.9185  2.3279
  387MOL0     H53359   5.706   4.749   4.433  2.9685 -0.7808 -0.1373
  387MOL0     H53360   5.721   4.643   4.655  1.1492 -1.0366  0.8925
  387MOL0     H53361   5.622   4.503   4.600 -2.7509  2.1513 -0.5071
  387MOL0     H53362   5.891   4.596   4.506 -2.4733 -0.7922 -1.5340
  387MOL0     H53363   5.883   4.464   4.637  0.0792  1.0016  0.8088
  387MOL0     H53364   5.752   4.325   4.230 -1.1025  1.8985  3.5639
  387MOL0     H53365   5.769   4.260   3.988 -0.9074  1.0181  1.2387
  387MOL0     H53366   5.934   4.213   3.929 -0.1844  0.2564 -0.8359
  387MOL0     H53367   5.870   4.377   3.919 -2.3379 -0.7875 -0.5702
  387MOL0     H53368   6.486   4.487   4.071  0.8735 -0.7028  0.1584
  387MOL0     H53369   6.693   4.517   3.928  0.2769  1.5388 -2.5287
  387MOL0     H53370   6.914   4.391   3.648  3.1550  0.2067  2.1752
  387MOL0     H53371   6.871   4.375   3.824  0.2697 -0.7407 -0.3271
  387MOL0     H53372   6.953   4.171   3.727  0.8933  1.3504 -1.3144
  387MOL0     H53373   6.785   4.150   3.779  0.8510  0.1029  0.3249
  387MOL0     H53374   6.751   4.204   3.507  0.9006  0.0155 -1.1872
  387MOL0     H53375   6.769   4.035   3.552  0.8374  0.2348 -0.6025
  387MOL0     H53376   7.014   4.075   3.559 -3.1225 -4.6571  0.9348
  387MOL0     H53377   6.980   4.225   3.473  3.1766 -0.9108 -1.0742
  387MOL0     H53378   6.832   4.134   3.312 -1.2665 -0.8203  1.1054
  387MOL0     H53379   6.994   4.081   3.284 -1.7824 -0.9232 -0.3411
  387MOL0     H53380   6.866   3.884   3.237 -2.8161  0.5811  0.4769
  387MOL0     H53381   6.782   3.904   3.381 -0.0987 -2.3446 -1.1036
  387MOL0     H53382   7.073   3.890   3.437 -0.2835 -0.9567  1.7690
  387MOL0     H53383   7.040   3.779   3.322  1.1890  1.0570 -0.0797
  387MOL0     H53384   6.915   3.808   3.595  2.6245 -0.4633  0.9581
  387MOL0     H53385   7.022   3.679   3.526  3.0121  3.2079 -1.2533
  387MOL0     H53386   6.548   4.211   3.675 -0.4658 -1.8565  0.6576
  387MOL0     H53387   6.360   4.169   3.826  1.8069 -1.9642  1.0139
  387MOL0     H53388   6.236   4.368   4.282 -0.0457  2.7568 -0.5887
  387MOL0     H53389   6.092   4.436   4.458  1.7411 -0.7248 -1.2527
  387MOL0     H53390   5.028   4.714   5.854  0.7459 -0.6525  2.1652
  387MOL0     H53391   5.029   4.844   6.047 -1.4074 -0.2194 -1.1123
  387MOL0     H53392   5.284   5.039   6.336  1.2969  1.4464 -0.5681
  387MOL0     H53393   5.294   5.110   6.578  0.2548 -0.7520 -1.2493
  387MOL0     H53394   4.958   5.244   6.770  0.0744 -0.5544  1.0840
  387MOL0     H53395   5.102   5.158   6.819 -3.6315 -1.5209 -0.8610
  387MOL0     H53396   4.982   5.321   7.000 -0.7208  0.5113  0.7461
  387MOL0     H53397   5.018   5.448   6.873 -1.2850 -2.8589 -2.8947
  387MOL0     H53398   5.224   5.267   7.008 -1.6271 -0.4294  0.5972
  387MOL0     H53399   5.251   5.433   6.935  4.6000 -2.1173  3.0385
  387MOL0     H53400   5.080   5.365   7.189 -0.3615 -0.2017 -1.4007
  387MOL0     H53401   5.109   5.530   7.114  3.1296  2.6662  1.9441
  387MOL0     H53402   5.455   5.454   7.351  0.8994 -1.9721 -2.3259
  387MOL0     H53403   5.002   5.396   6.514  0.5961  1.6691 -1.4725
  387MOL0     H53404   4.926   5.290   6.171  2.1723 -4.1862  1.3683
  387MOL0     H53405   4.814   5.257   6.307  0.5228 -0.4105  0.4771
  387MOL0     H53406   4.897   5.417   6.295  0.9310  0.4839  1.6508
  388MOL0     O53407   1.303   8.064   1.836  0.6665 -0.3439 -0.5210
  388MOL0     C53408   1.190   8.069   1.894 -0.5721  0.2568 -0.1577
  388MOL0     O53409   1.169   8.126   2.020 -0.6085  0.7827 -0.0196
  388MOL0     C53410   1.268   8.207   2.067 -0.0077 -0.0302 -0.6514
  388MOL0     C53411   1.271   8.340   2.024  0.3930 -0.9173 -0.2908
  388MOL0     C53412   1.356   8.440   2.068  0.0778  0.6190 -0.5579
  388MOL0     C53413   1.451   8.401   2.165 -0.7969 -0.5413 -0.0045
  388MOL0     O53414   1.551   8.483   2.216 -0.6462 -0.3001 -0.3484
  388MOL0     C53415   1.497   8.610   2.253 -0.2852 -0.3222 -0.5633
  388MOL0     C53416   1.538   8.722   2.160 -0.7430  0.8495  0.8110
  388MOL0     C53417   1.689   8.748   2.141  0.9811  0.1353  0.0538
  388MOL0     C53418   1.710   8.842   2.020 -0.2701  0.2965 -0.0538
  388MOL0     C53419   1.844   8.823   1.947  0.7869 -0.8119 -0.5726
  388MOL0     C53420   1.862   8.675   1.903  0.2021  0.8691  0.2685
  388MOL0     C53421   1.976   8.660   1.810 -0.6956  0.0629  0.0788
  388MOL0     C53422   1.979   8.515   1.743  0.2704  0.1907 -0.6997
  388MOL0     N53423   2.082   8.510   1.637  0.5903 -0.6963  0.6189
  388MOL0     C53424   2.216   8.516   1.667 -0.0729 -0.0744  0.1362
  388MOL0     C53425   2.272   8.589   1.563 -0.6660  0.3566 -0.0737
  388MOL0     C53426   2.407   8.650   1.538 -0.8970 -0.2175 -0.6282
  388MOL0     C53427   2.445   8.754   1.652  0.0400  0.4998 -0.2212
  388MOL0     C53428   2.563   8.856   1.621  0.1651 -0.0074 -0.3615
  388MOL0     C53429   2.602   8.934   1.756  0.0646 -0.2026 -0.5159
  388MOL0     O53430   2.717   9.005   1.732 -0.3960  0.2283  0.3913
  388MOL0     C53431   2.791   9.058   1.837 -0.3439 -0.0952  0.5198
  388MOL0     C53432   2.908   9.120   1.808 -0.2405 -0.2554  0.4720
  388MOL0     C53433   2.997   9.143   1.919  0.3138 -0.1616  0.2766
  388MOL0     C53434   3.140   9.172   1.869 -0.4448 -0.1361  0.4051
  388MOL0     C53435   2.961   9.117   2.048  0.2425  0.4461 -0.3950
  388MOL0     C53436   3.059   9.125   2.164  0.8458  0.4071  1.0517
  388MOL0     O53437   2.994   9.134   2.286 -0.2074  0.2622  0.1737
  388MOL0     C53438   3.080   9.145   2.392 -0.2583 -0.3122 -0.0295
  388MOL0     C53439   3.143   9.270   2.415  0.2717 -0.8546 -0.4239
  388MOL0     C53440   3.234   9.277   2.527 -0.0985 -0.9165  0.5446
  388MOL0     C53441   3.249   9.174   2.616  0.3237  0.6257 -0.0680
  388MOL0     O53442   3.320   9.195   2.734  0.5812  0.9027  0.8899
  388MOL0     C53443   3.459   9.223   2.717 -1.2142  1.0753 -0.8371
  388MOL0     C53444   3.523   9.243   2.850  0.3426  0.4242 -0.2518
  388MOL0     C53445   3.481   9.130   2.943 -0.3854  0.6044  1.2209
  388MOL0     C53446   3.547   9.145   3.077  0.8208  0.1779  0.8842
  388MOL0     C53447   3.570   9.013   3.166  0.4458  0.1429 -0.0790
  388MOL0     C53448   3.677   9.060   3.258 -0.1807 -0.6650  0.2948
  388MOL0     C53449   3.682   8.952   3.362  0.6220 -0.0345  0.9105
  388MOL0     C53450   3.786   8.979   3.463  0.5339  0.2887  0.4175
  388MOL0    Cl53451   3.780   9.152   3.525  0.4392  0.1251 -0.2889
  388MOL0     C53452   3.177   9.060   2.598  0.0850 -0.5555  0.3972
  388MOL0     C53453   3.100   9.039   2.485  1.8804  0.5100 -0.7682
  388MOL0     O53454   3.182   9.127   2.147 -0.5257  0.0866 -0.5619
  388MOL0     C53455   2.828   9.091   2.077 -0.1274  0.1356  0.0373
  388MOL0     C53456   2.742   9.055   1.972  0.4172 -0.1261 -0.6250
  388MOL0     N53457   2.165   8.623   1.473  0.7868  0.6576  0.2505
  388MOL0     N53458   2.056   8.563   1.513  0.7710 -0.4537 -0.3096
  388MOL0     C53459   1.462   8.268   2.200  0.0550 -0.9080  0.0999
  388MOL0     C53460   1.373   8.173   2.146  0.1206 -0.2045 -0.6204
  388MOL0     C53461   1.066   8.023   1.815  0.6410  1.0859  0.0449
  388MOL0     C53462   0.945   8.061   1.870 -0.5482 -0.6208  0.7691
  388MOL0     C53463   0.832   8.019   1.817  0.1205 -0.4594 -0.9148
  388MOL0     C53464   0.820   7.945   1.702  0.0954 -0.4128 -0.4578
  388MOL0     O53465   0.692   7.914   1.666  0.4966 -0.6123  0.4905
  388MOL0     C53466   0.665   7.972   1.542  0.0425 -0.2480  0.2198
  388MOL0     C53467   0.523   7.929   1.511 -0.5333  0.1312 -0.0385
  388MOL0     C53468   0.476   7.990   1.369 -0.1017  0.5769  0.2202
  388MOL0     C53469   0.328   8.028   1.372  0.2232  0.1421 -0.6509
  388MOL0     C53470   0.238   7.923   1.425 -0.2323  0.3742  0.2615
  388MOL0     C53471   0.173   7.830   1.466 -0.1946 -0.0738  0.1158
  388MOL0     C53472   0.944   7.918   1.640  0.3687  0.1174 -0.4736
  388MOL0     C53473   1.072   7.952   1.691  1.0592  0.3082 -0.3583
  388MOL0     C53474   1.191   7.922   1.604 -0.4807  0.1619 -0.5528
  388MOL0     H53475   1.200   8.376   1.951  1.0524 -0.5533 -0.7618
  388MOL0     H53476   1.352   8.540   2.026  0.8326 -0.3176 -3.0536
  388MOL0     H53477   1.542   8.630   2.350  0.3147 -2.8685 -0.2659
  388MOL0     H53478   1.390   8.613   2.279 -0.2724  0.6435 -0.5932
  388MOL0     H53479   1.494   8.691   2.065  1.0094  0.5369  0.0673
  388MOL0     H53480   1.488   8.819   2.174 -0.4450  1.2419 -0.7191
  388MOL0     H53481   1.713   8.801   2.234  2.7680  1.0924 -0.9021
  388MOL0     H53482   1.736   8.649   2.130 -0.3450 -0.4796 -0.2106
  388MOL0     H53483   1.619   8.830   1.961 -1.8889 -0.6908  2.4531
  388MOL0     H53484   1.710   8.944   2.059  2.0812 -0.5985  2.6401
  388MOL0     H53485   1.930   8.850   2.010  0.0973  0.6273 -0.2112
  388MOL0     H53486   1.858   8.894   1.864 -0.8906 -0.0078 -0.1990
  388MOL0     H53487   1.874   8.603   1.985  0.4612 -1.0006 -1.3478
  388MOL0     H53488   1.769   8.652   1.852 -1.3989  1.5169  2.7067
  388MOL0     H53489   2.059   8.693   1.871 -0.8538  1.4488 -0.4238
  388MOL0     H53490   1.964   8.737   1.733  1.2571  0.9060  0.5851
  388MOL0     H53491   2.002   8.439   1.817 -0.5617  2.4079  1.9943
  388MOL0     H53492   1.888   8.485   1.690  1.3523 -2.9611 -0.9522
  388MOL0     H53493   2.254   8.485   1.764 -2.4552  0.2715  1.2585
  388MOL0     H53494   2.393   8.722   1.458 -0.7904  0.9401  0.3640
  388MOL0     H53495   2.488   8.577   1.529 -1.2830 -0.9934  1.5607
  388MOL0     H53496   2.352   8.806   1.680 -0.1832  0.9353 -1.6736
  388MOL0     H53497   2.476   8.679   1.725 -2.0492 -0.6476 -0.4300
  388MOL0     H53498   2.650   8.801   1.582  0.4215  1.1840 -1.5627
  388MOL0     H53499   2.538   8.921   1.537  2.0967 -0.4922 -1.3877
  388MOL0     H53500   2.519   8.999   1.784 -1.3862 -2.3353  0.4583
  388MOL0     H53501   2.623   8.858   1.831  1.2499  1.8646  1.3587
  388MOL0     H53502   2.927   9.132   1.702  0.2904 -3.6736  0.0724
  388MOL0     H53503   3.182   9.257   1.924 -1.6285 -0.2730  1.5726
  388MOL0     H53504   3.146   9.213   1.768 -1.3314  0.9144  0.7604
  388MOL0     H53505   3.208   9.087   1.878  1.7314  1.7437  4.1238
  388MOL0     H53506   3.120   9.355   2.352 -0.3495  0.1023  1.0261
  388MOL0     H53507   3.276   9.370   2.565  0.1689  0.1551 -2.1901
  388MOL0     H53508   3.510   9.140   2.668 -2.5442  1.2039 -2.5401
  388MOL0     H53509   3.469   9.298   2.637  1.4345 -0.4041 -2.0382
  388MOL0     H53510   3.631   9.228   2.849  0.3585 -0.7251  3.5290
  388MOL0     H53511   3.507   9.346   2.886  0.3207  0.3775 -0.1261
  388MOL0     H53512   3.507   9.038   2.890 -3.2819  0.8364 -0.8797
  388MOL0     H53513   3.372   9.125   2.944 -0.6328 -3.2859 -3.9019
  388MOL0     H53514   3.484   9.220   3.126 -0.8758 -0.2006 -0.5961
  388MOL0     H53515   3.646   9.189   3.063  1.8607 -1.7940  1.5801
  388MOL0     H53516   3.476   8.985   3.215 -1.6568  3.7630 -1.6748
  388MOL0     H53517   3.606   8.927   3.107 -0.7001  0.6677 -1.6056
  388MOL0     H53518   3.650   9.153   3.309 -1.4926 -0.7484 -0.1998
  388MOL0     H53519   3.773   9.062   3.205  0.2272  0.1084  1.0389
  388MOL0     H53520   3.708   8.860   3.308 -1.1986  1.7997 -3.5717
  388MOL0     H53521   3.588   8.932   3.414 -0.3768  1.5884 -0.1997
  388MOL0     H53522   3.889   8.960   3.430  1.7516  3.6328  1.8374
  388MOL0     H53523   3.762   8.917   3.550 -0.8181  0.4092  0.1460
  388MOL0     H53524   3.171   8.983   2.673  0.4013 -0.1877  0.8036
  388MOL0     H53525   3.045   8.945   2.482  1.8965  0.4423  0.5942
  388MOL0     H53526   2.801   9.099   2.182  0.8203  2.4653  0.1417
  388MOL0     H53527   2.647   9.010   1.999 -0.5548  2.0943 -0.1348
  388MOL0     H53528   1.538   8.240   2.272 -0.5242  1.6594  1.8391
  388MOL0     H53529   1.387   8.070   2.178  0.2546 -0.3776 -1.2154
  388MOL0     H53530   0.938   8.124   1.958  2.7619 -0.8563  1.3083
  388MOL0     H53531   0.744   8.050   1.873  1.4842  1.2398  0.3657
  388MOL0     H53532   0.684   8.079   1.528  0.7010 -0.5816 -1.7207
  388MOL0     H53533   0.729   7.925   1.467 -0.3087  1.7495 -1.4223
  388MOL0     H53534   0.468   7.979   1.591 -1.2940 -0.0078 -0.4629
  388MOL0     H53535   0.510   7.820   1.515 -0.6424  0.1553  0.2509
  388MOL0     H53536   0.529   8.079   1.335 -1.3453  0.8386 -1.1221
  388MOL0     H53537   0.506   7.916   1.294  1.0701  0.6508  0.5954
  388MOL0     H53538   0.288   8.053   1.273  1.2407  0.6647 -0.9437
  388MOL0     H53539   0.319   8.118   1.434  0.1894 -0.8629  0.8691
  388MOL0     H53540   0.132   7.739   1.504  0.9662 -1.6619 -2.2020
  388MOL0     H53541   0.947   7.849   1.557 -2.3186 -1.6554  0.7765
  388MOL0     H53542   1.251   8.010   1.576  2.3535 -1.4246  0.0938
  388MOL0     H53543   1.268   7.857   1.648 -1.2699  0.1421  0.8511
  388MOL0     H53544   1.157   7.881   1.508  0.6839 -2.6122  0.1119
  389MOL0     O53545   9.847   5.386   3.486 -0.2361 -0.0569 -0.2983
  389MOL0     C53546   9.879   5.345   3.602 -0.5705 -0.3063 -0.1006
  389MOL0     O53547   9.948   5.422   3.684 -0.4512 -0.1336 -0.1252
  389MOL0     C53548   9.984   5.554   3.649  0.6995 -0.1171 -0.0063
  389MOL0     C53549   9.885   5.654   3.682 -1.0740  0.1136 -0.1384
  389MOL0     C53550   9.932   5.781   3.672 -0.3216 -0.1813 -1.3249
  389MOL0     C53551  10.065   5.825   3.643 -0.0016 -0.0920  0.4383
  389MOL0     O53552  10.095   5.952   3.657 -0.3328  0.4596 -0.4773
  389MOL0     C53553  10.229   6.002   3.630  1.2163 -0.0718  0.9742
  389MOL0     C53554  10.207   6.147   3.635 -0.0163  0.2076 -0.2729
  389MOL0     C53555  10.327   6.229   3.620  0.8849  0.2493 -0.0023
  389MOL0     C53556  10.319   6.355   3.701  0.3283 -0.2085 -0.3582
  389MOL0     C53557  10.425   6.374   3.803 -0.2181 -0.2386 -0.8103
  389MOL0     C53558  10.403   6.264   3.902  0.6829  0.7971 -0.1932
  389MOL0     C53559  10.498   6.268   4.021 -0.3768 -0.0537  0.2505
  389MOL0     C53560  10.656   6.256   3.978 -0.3380 -0.3882 -0.1171
  389MOL0     N53561  10.747   6.288   4.087 -0.9804 -0.1942 -0.4024
  389MOL0     C53562  10.763   6.412   4.141  0.1058 -0.4028 -0.7306
  389MOL0     C53563  10.854   6.397   4.240 -0.0466 -0.0461  0.3115
  389MOL0     C53564  10.890   6.496   4.348  0.6553  1.7493  0.3936
  389MOL0     C53565  10.987   6.591   4.285 -0.7454 -0.6994  0.2514
  389MOL0     C53566  11.055   6.684   4.381  0.1657  0.1259 -0.3293
  389MOL0     C53567  11.190   6.738   4.323 -0.5848  0.3375  0.3038
  389MOL0     O53568  11.153   6.814   4.199 -0.1659 -0.2983  0.0286
  389MOL0     C53569  11.246   6.824   4.097  0.2028  0.2705 -0.4470
  389MOL0     C53570  11.385   6.823   4.101  0.2058 -0.5837 -0.3536
  389MOL0     C53571  11.466   6.854   3.998 -0.3148 -0.3040 -0.0769
  389MOL0     C53572  11.614   6.853   4.020  0.5610 -0.9164  0.1607
  389MOL0     C53573  11.411   6.896   3.878 -0.5478  0.6088 -1.1106
  389MOL0     C53574  11.489   6.934   3.751  0.5996  0.1258 -0.2205
  389MOL0     O53575  11.420   6.985   3.646 -0.3117 -0.4276 -0.2654
  389MOL0     C53576  11.510   7.038   3.554 -0.0824 -1.0184 -0.1547
  389MOL0     C53577  11.557   7.174   3.573 -0.3919  0.0613  0.5820
  389MOL0     C53578  11.647   7.224   3.484 -0.2877 -0.1359  0.7792
  389MOL0     C53579  11.673   7.159   3.363 -0.1474  0.5606 -0.1109
  389MOL0     O53580  11.761   7.215   3.273  1.2476  0.4458  0.1946
  389MOL0     C53581  11.716   7.228   3.138 -0.5265 -0.6719  0.2147
  389MOL0     C53582  11.587   7.322   3.125 -0.1447 -0.2434 -0.4832
  389MOL0     C53583  11.621   7.470   3.176  0.0673 -0.7226  1.2599
  389MOL0     C53584  11.502   7.573   3.167  0.1568 -0.3305 -0.1133
  389MOL0     C53585  11.371   7.511   3.242  0.4988 -0.5733 -0.3267
  389MOL0     C53586  11.266   7.623   3.265  0.5262  0.2076 -0.1803
  389MOL0     C53587  11.293   7.708   3.392 -0.4192  0.4092 -0.3321
  389MOL0     C53588  11.218   7.840   3.405  0.3849  0.7589 -0.8788
  389MOL0    Cl53589  11.271   7.950   3.278 -0.1373 -0.0385 -0.2807
  389MOL0     C53590  11.631   7.022   3.353 -0.3300 -0.0285 -0.5744
  389MOL0     C53591  11.554   6.966   3.452  0.0569  0.4248  0.6228
  389MOL0     O53592  11.612   6.915   3.760  0.3364  0.2729  0.0367
  389MOL0     C53593  11.270   6.877   3.871 -0.2582 -0.2269  0.3361
  389MOL0     C53594  11.188   6.829   3.974 -0.4364 -0.4521 -0.3017
  389MOL0     N53595  10.903   6.260   4.239 -0.3372 -0.2912 -1.0112
  389MOL0     N53596  10.843   6.207   4.148 -0.0566 -0.1360  0.1953
  389MOL0     C53597  10.158   5.721   3.623 -0.5773 -0.9430 -0.2822
  389MOL0     C53598  10.116   5.589   3.628  0.7575 -0.2862  0.0044
  389MOL0     C53599   9.818   5.218   3.647  0.9004 -0.6353 -0.0243
  389MOL0     C53600   9.820   5.194   3.786  0.8057 -0.2770 -0.7980
  389MOL0     C53601   9.756   5.072   3.839 -0.6087  0.0102 -0.6919
  389MOL0     C53602   9.708   4.970   3.752 -0.4453 -0.0080  0.9610
  389MOL0     O53603   9.637   4.863   3.791  0.1483  0.2118  0.0086
  389MOL0     C53604   9.631   4.833   3.936 -0.5500 -0.7793  0.0364
  389MOL0     C53605   9.545   4.712   3.959  0.1523 -0.4808 -0.1314
  389MOL0     C53606   9.587   4.637   4.086 -0.7645  0.0099 -1.0443
  389MOL0     C53607   9.520   4.706   4.211  0.6103 -0.4619  0.3015
  389MOL0     C53608   9.490   4.613   4.315 -0.9786 -0.2647 -0.1907
  389MOL0     C53609   9.476   4.539   4.406  0.7853  1.0065 -0.6960
  389MOL0     C53610   9.714   4.992   3.615  1.2544 -0.2061 -0.4850
  389MOL0     C53611   9.765   5.118   3.564  0.1366  0.0152  0.3985
  389MOL0     C53612   9.752   5.129   3.422 -0.1211 -0.4158  1.0708
  389MOL0     H53613   9.784   5.629   3.713 -0.9804 -2.1114 -1.3909
  389MOL0     H53614   9.856   5.858   3.686  0.4390  0.3713 -0.0246
  389MOL0     H53615  10.274   5.970   3.535  0.7760  0.6431  0.5131
  389MOL0     H53616  10.302   5.967   3.703  1.5367 -1.5054  0.0162
  389MOL0     H53617  10.130   6.180   3.565 -1.4053 -1.7943  0.2231
  389MOL0     H53618  10.161   6.169   3.732 -2.9869  0.0865 -1.5695
  389MOL0     H53619  10.408   6.164   3.657  0.5802  1.4174  2.9601
  389MOL0     H53620  10.328   6.237   3.511 -2.0447 -2.0625 -0.3297
  389MOL0     H53621  10.334   6.439   3.633  0.2678  0.4499  0.4200
  389MOL0     H53622  10.221   6.373   3.745 -0.0938  2.6095 -2.2133
  389MOL0     H53623  10.415   6.471   3.853  1.5008 -1.9269  3.3212
  389MOL0     H53624  10.522   6.358   3.755 -0.4685 -1.0894 -1.0485
  389MOL0     H53625  10.305   6.276   3.950  1.0555  1.1446  0.4822
  389MOL0     H53626  10.418   6.163   3.862 -2.5544 -0.4354  1.3354
  389MOL0     H53627  10.474   6.189   4.093  0.4461  0.8071  1.5134
  389MOL0     H53628  10.480   6.364   4.069  1.1858  2.1752 -3.2050
  389MOL0     H53629  10.673   6.155   3.941  1.5988  0.2443 -1.0925
  389MOL0     H53630  10.685   6.322   3.895 -3.1150  1.0934 -0.0396
  389MOL0     H53631  10.697   6.497   4.132  1.7510  1.2104  1.3162
  389MOL0     H53632  10.934   6.435   4.428  1.4938 -0.1957 -1.4621
  389MOL0     H53633  10.794   6.541   4.375 -3.2400 -3.2356 -3.1679
  389MOL0     H53634  11.071   6.547   4.230  0.7080  3.7419 -1.6205
  389MOL0     H53635  10.933   6.652   4.212 -0.4630 -2.1108 -1.1826
  389MOL0     H53636  11.001   6.779   4.375 -0.8201 -0.3531  0.6065
  389MOL0     H53637  11.046   6.646   4.483 -2.4664 -1.5804 -1.0875
  389MOL0     H53638  11.248   6.796   4.395  2.2019 -0.5646 -1.0819
  389MOL0     H53639  11.256   6.653   4.303  1.5190  1.7882  0.7475
  389MOL0     H53640  11.428   6.802   4.198  2.2723 -2.0518 -1.5163
  389MOL0     H53641  11.674   6.787   3.957  0.9497  0.7902 -1.3292
  389MOL0     H53642  11.633   6.822   4.124  1.5012 -0.8304  0.0248
  389MOL0     H53643  11.644   6.957   4.007  2.0901 -1.5172 -1.5360
  389MOL0     H53644  11.533   7.223   3.666 -0.8263  0.9840 -0.0034
  389MOL0     H53645  11.698   7.318   3.502 -0.5460  0.6339 -1.9788
  389MOL0     H53646  11.799   7.275   3.086  0.1790 -1.2327  0.8165
  389MOL0     H53647  11.701   7.129   3.095 -0.9870 -1.8141  2.7983
  389MOL0     H53648  11.547   7.319   3.023 -2.5626 -1.2033  0.4078
  389MOL0     H53649  11.517   7.274   3.194  2.4318 -0.8890  1.8129
  389MOL0     H53650  11.709   7.509   3.124  0.8363 -1.9688  1.5849
  389MOL0     H53651  11.667   7.461   3.275  2.7620 -0.0050  0.1788
  389MOL0     H53652  11.478   7.595   3.062  3.7194  1.2745 -0.7183
  389MOL0     H53653  11.526   7.670   3.211  1.4441 -1.1308  1.0252
  389MOL0     H53654  11.329   7.435   3.175  2.5620 -1.6854 -0.4653
  389MOL0     H53655  11.401   7.465   3.337 -1.7934  0.4394  0.9587
  389MOL0     H53656  11.172   7.570   3.280  0.5438 -0.3150 -1.8260
  389MOL0     H53657  11.267   7.676   3.170 -1.8598 -0.9574 -0.9172
  389MOL0     H53658  11.397   7.743   3.390  0.0366 -0.5392  2.3538
  389MOL0     H53659  11.272   7.648   3.481 -0.5541  1.4961  0.4025
  389MOL0     H53660  11.234   7.891   3.501 -0.8920  0.8057 -0.6696
  389MOL0     H53661  11.112   7.814   3.407  0.8346 -1.5086  2.5611
  389MOL0     H53662  11.670   6.958   3.275 -4.3811 -0.7979 -2.2366
  389MOL0     H53663  11.531   6.862   3.430  2.7268 -0.4151  1.3850
  389MOL0     H53664  11.214   6.902   3.781 -0.1631 -0.1128  0.3071
  389MOL0     H53665  11.080   6.822   3.965 -0.4523 -1.0568  0.3263
  389MOL0     H53666  10.261   5.742   3.598  1.0448 -3.8364  3.0609
  389MOL0     H53667  10.178   5.500   3.619 -0.7782 -1.1526 -3.1543
  389MOL0     H53668   9.870   5.268   3.849 -0.9916  2.6597 -2.6124
  389MOL0     H53669   9.756   5.076   3.947 -1.3053 -1.3410 -0.6259
  389MOL0     H53670   9.729   4.814   3.980 -0.9097 -1.7942  0.4188
  389MOL0     H53671   9.598   4.922   3.991 -0.0771 -0.0636 -0.8121
  389MOL0     H53672   9.554   4.645   3.873 -0.9545  1.1725 -1.5942
  389MOL0     H53673   9.439   4.739   3.966  0.6304  1.7769 -1.0287
  389MOL0     H53674   9.551   4.535   4.102 -2.4185  0.8031  0.7168
  389MOL0     H53675   9.694   4.648   4.104 -0.8237 -1.2361  0.2335
  389MOL0     H53676   9.435   4.764   4.173 -0.6942 -2.4267  0.0831
  389MOL0     H53677   9.584   4.781   4.258  0.1255  0.4497 -0.4511
  389MOL0     H53678   9.462   4.479   4.495 -1.5358 -1.5011 -2.5843
  389MOL0     H53679   9.667   4.918   3.552  0.0604 -0.6358  0.8643
  389MOL0     H53680   9.758   5.030   3.375 -3.0146 -0.5718  0.8464
  389MOL0     H53681   9.659   5.172   3.386  1.0320  0.6921 -0.7310
  389MOL0     H53682   9.842   5.178   3.382  0.1075 -2.5438 -1.2793
  390MOL0     O53683   4.147   5.362   0.019 -0.2549 -0.5878 -0.7578
  390MOL0     C53684   4.119   5.297  -0.080 -0.1573 -0.4917  0.8396
  390MOL0     O53685   4.038   5.177  -0.068  0.0354  0.3247  0.3174
  390MOL0     C53686   4.061   5.104   0.047  1.0452  0.1958  0.2998
  390MOL0     C53687   4.188   5.083   0.101  0.4064  0.7903  0.9218
  390MOL0     C53688   4.198   4.998   0.219  0.7908 -1.3031  0.1725
  390MOL0     C53689   4.080   4.953   0.280 -0.0865 -0.2991 -0.3007
  390MOL0     O53690   4.097   4.884   0.401  0.2257 -0.1644 -0.9791
  390MOL0     C53691   3.997   4.906   0.506  0.6126 -0.2017  0.7680
  390MOL0     C53692   4.054   4.856   0.633 -0.0298  0.2334 -0.6010
  390MOL0     C53693   4.142   4.974   0.700  0.9609  1.1492  0.7503
  390MOL0     C53694   4.192   4.923   0.837 -0.0716  1.0929 -0.3258
  390MOL0     C53695   4.255   4.776   0.817 -0.6386  0.0017 -1.4287
  390MOL0     C53696   4.352   4.744   0.938 -0.2809 -0.3324 -0.0748
  390MOL0     C53697   4.437   4.613   0.941 -0.1568 -0.6481 -0.2551
  390MOL0     C53698   4.555   4.622   0.852  0.0500 -0.2217 -0.1368
  390MOL0     N53699   4.666   4.537   0.895  0.3616  0.6328  0.9160
  390MOL0     C53700   4.734   4.559   1.009 -0.0462  0.2499 -0.8156
  390MOL0     C53701   4.833   4.462   1.007  0.4567 -0.1397  0.2688
  390MOL0     C53702   4.930   4.460   1.123  0.4424 -0.7466 -0.1795
  390MOL0     C53703   4.931   4.327   1.199 -0.8029 -0.3441 -0.2412
  390MOL0     C53704   5.018   4.329   1.327 -0.9513 -0.5767  0.5029
  390MOL0     C53705   4.948   4.387   1.439 -0.3136 -0.0198 -0.3299
  390MOL0     O53706   5.054   4.439   1.521  0.4981 -0.3258 -0.2488
  390MOL0     C53707   5.101   4.372   1.634 -0.2632 -1.0411  1.1204
  390MOL0     C53708   5.063   4.252   1.674  0.0799  0.7138  0.0995
  390MOL0     C53709   5.109   4.194   1.792  0.1358  1.1331 -0.1732
  390MOL0     C53710   5.037   4.062   1.814  1.0703  0.2292 -0.0480
  390MOL0     C53711   5.190   4.263   1.881  0.3904 -0.5233 -0.3563
  390MOL0     C53712   5.237   4.195   2.002  0.4821 -0.3820  0.8336
  390MOL0     O53713   5.371   4.186   2.025  0.6222  0.5651  0.1820
  390MOL0     C53714   5.416   4.101   2.129 -0.1882  0.5404  0.4261
  390MOL0     C53715   5.533   4.128   2.195 -0.3663  0.0149 -0.7021
  390MOL0     C53716   5.575   4.055   2.311 -0.6672  0.1114 -0.0648
  390MOL0     C53717   5.505   3.937   2.347  0.2345  0.4220  0.1696
  390MOL0     O53718   5.520   3.863   2.467  0.3504  0.7707  0.0802
  390MOL0     C53719   5.625   3.906   2.554 -0.3542 -0.6190 -0.2742
  390MOL0     C53720   5.751   3.828   2.540  0.1900 -0.5929  0.4209
  390MOL0     C53721   5.851   3.856   2.652  0.5203 -0.5783  0.3517
  390MOL0     C53722   5.964   3.761   2.636  0.0109 -0.6809 -0.0486
  390MOL0     C53723   6.069   3.785   2.732  0.2972 -0.1048 -0.2674
  390MOL0     C53724   6.137   3.923   2.720  0.5629  0.0115  0.4459
  390MOL0     C53725   6.262   3.929   2.813  0.3335  0.3092 -0.9855
  390MOL0     C53726   6.285   4.077   2.861  0.0373 -0.3668  0.2616
  390MOL0    Cl53727   6.412   4.087   2.987 -0.1804 -0.2521  0.1240
  390MOL0     C53728   5.400   3.897   2.265 -0.2809  0.4207  0.3506
  390MOL0     C53729   5.361   3.970   2.156  0.4146  0.0131  0.6376
  390MOL0     O53730   5.151   4.160   2.076  0.1847 -0.2090 -0.2204
  390MOL0     C53731   5.236   4.387   1.831 -0.7825 -0.2621 -0.7838
  390MOL0     C53732   5.187   4.441   1.716  0.6486  0.2855 -0.0596
  390MOL0     N53733   4.816   4.379   0.894  0.6410 -0.0720  0.4281
  390MOL0     N53734   4.717   4.423   0.831 -0.0305 -0.1937 -0.6086
  390MOL0     C53735   3.954   4.978   0.232  0.4002 -0.7597  0.3794
  390MOL0     C53736   3.948   5.055   0.114  0.5292  1.2319 -0.7475
  390MOL0     C53737   4.174   5.332  -0.214  0.0634 -0.3475 -0.8372
  390MOL0     C53738   4.127   5.266  -0.324 -0.2141  0.8541 -1.2611
  390MOL0     C53739   4.173   5.293  -0.452  0.2520  0.0665  0.3279
  390MOL0     C53740   4.275   5.395  -0.471  1.0497  0.4794  1.2923
  390MOL0     O53741   4.315   5.434  -0.597  0.0445 -0.1128 -0.3672
  390MOL0     C53742   4.280   5.370  -0.721  0.7556 -0.7074  0.5394
  390MOL0     C53743   4.155   5.428  -0.797 -0.4296  1.1208 -0.4728
  390MOL0     C53744   4.190   5.575  -0.824 -0.8238 -1.1182  0.2146
  390MOL0     C53745   4.067   5.647  -0.875 -0.0379  0.4305 -0.5964
  390MOL0     C53746   4.032   5.594  -1.011  0.6609 -0.2603  0.6852
  390MOL0     C53747   3.996   5.531  -1.116  0.1239  0.0492  0.2138
  390MOL0     C53748   4.327   5.458  -0.366 -0.1804  0.9705  0.7969
  390MOL0     C53749   4.279   5.422  -0.234 -0.5887 -1.2398  0.0546
  390MOL0     C53750   4.334   5.511  -0.122  0.1138  0.8404  0.4669
  390MOL0     H53751   4.273   5.125   0.047  0.9321 -2.5117 -1.0792
  390MOL0     H53752   4.295   4.981   0.264  1.8791  3.2031 -0.0492
  390MOL0     H53753   3.906   4.849   0.487 -1.7513  3.2610  0.8109
  390MOL0     H53754   3.979   5.013   0.518  0.4810 -0.0498 -0.5853
  390MOL0     H53755   3.966   4.835   0.693  1.7799 -0.3635  2.0061
  390MOL0     H53756   4.115   4.770   0.603 -0.2781 -0.4545  0.8311
  390MOL0     H53757   4.224   5.001   0.632  0.6256  0.7145  0.1569
  390MOL0     H53758   4.090   5.066   0.726 -1.8465  0.2072 -1.1259
  390MOL0     H53759   4.272   4.986   0.877  1.6086 -1.2971  0.3119
  390MOL0     H53760   4.106   4.918   0.905 -1.0385 -2.5171 -1.6085
  390MOL0     H53761   4.319   4.789   0.728  1.5615 -3.3649 -0.5015
  390MOL0     H53762   4.182   4.697   0.798  1.5617 -2.4162 -0.2817
  390MOL0     H53763   4.410   4.836   0.950 -2.4659  1.3699 -1.7499
  390MOL0     H53764   4.283   4.732   1.022 -0.4192 -1.0060 -0.2762
  390MOL0     H53765   4.374   4.527   0.915 -0.7626 -0.2828 -0.0150
  390MOL0     H53766   4.469   4.602   1.045  0.5676  1.1067 -0.2628
  390MOL0     H53767   4.538   4.627   0.744  3.9053  0.6236 -0.8810
  390MOL0     H53768   4.598   4.722   0.866 -0.5879  0.4031 -2.1950
  390MOL0     H53769   4.722   4.627   1.093  0.5625  1.7128 -1.8695
  390MOL0     H53770   4.901   4.539   1.193 -2.8748 -1.2689 -0.8013
  390MOL0     H53771   5.032   4.480   1.091  1.0825 -1.3269  1.3868
  390MOL0     H53772   4.830   4.294   1.224 -1.3231  1.9183  0.8858
  390MOL0     H53773   4.978   4.253   1.134 -0.7830 -0.0941 -0.5159
  390MOL0     H53774   5.031   4.222   1.345 -0.1511 -0.4782  0.5714
  390MOL0     H53775   5.117   4.371   1.307 -1.5351  0.5231 -0.1645
  390MOL0     H53776   4.897   4.477   1.403  2.5713  0.7424 -2.9548
  390MOL0     H53777   4.884   4.318   1.495  1.7070 -1.0493  0.8394
  390MOL0     H53778   4.995   4.189   1.617  2.3250 -1.1611 -0.6491
  390MOL0     H53779   5.079   3.998   1.892 -1.0937 -2.7100 -1.0701
  390MOL0     H53780   5.032   4.004   1.721 -0.5062 -0.4914  0.4521
  390MOL0     H53781   4.934   4.080   1.846  1.0426 -3.1066  2.3153
  390MOL0     H53782   5.589   4.215   2.163  2.6296 -0.0306  3.5506
  390MOL0     H53783   5.659   4.079   2.375  1.0317 -0.5359 -1.9416
  390MOL0     H53784   5.641   4.014   2.563 -0.7116 -0.3943 -1.9907
  390MOL0     H53785   5.588   3.866   2.649 -2.4860 -0.5775 -1.0296
  390MOL0     H53786   5.728   3.721   2.540  0.8497 -0.8221  3.3689
  390MOL0     H53787   5.785   3.850   2.439 -2.0051 -0.6476 -0.3879
  390MOL0     H53788   5.803   3.855   2.750 -0.4422  0.1809 -0.0931
  390MOL0     H53789   5.878   3.960   2.629  0.2615 -0.7606 -0.8810
  390MOL0     H53790   6.005   3.766   2.535 -0.1008  4.4331 -0.1042
  390MOL0     H53791   5.925   3.659   2.650 -0.2832 -0.7583 -1.3266
  390MOL0     H53792   6.026   3.784   2.833  2.6957 -0.6152  0.8207
  390MOL0     H53793   6.137   3.700   2.731  0.4203 -0.0081 -0.1824
  390MOL0     H53794   6.069   4.007   2.730 -1.4355 -1.3820 -0.6800
  390MOL0     H53795   6.177   3.929   2.618  3.0561  1.5330  1.4091
  390MOL0     H53796   6.352   3.889   2.765 -0.7398 -2.6740 -0.6819
  390MOL0     H53797   6.251   3.864   2.900  2.2629 -2.1369 -2.4377
  390MOL0     H53798   6.192   4.114   2.903  0.3549  1.7275 -0.7686
  390MOL0     H53799   6.312   4.137   2.774  2.4505 -0.2064  1.0409
  390MOL0     H53800   5.355   3.804   2.299 -1.3334  1.5458  2.2138
  390MOL0     H53801   5.271   3.929   2.110  0.7205 -0.2032  0.2183
  390MOL0     H53802   5.299   4.448   1.895  1.6222 -2.7006 -0.6702
  390MOL0     H53803   5.208   4.543   1.685  0.0241  1.1445  2.1420
  390MOL0     H53804   3.862   4.950   0.282 -0.0891 -0.0297 -0.1035
  390MOL0     H53805   3.850   5.095   0.092 -2.2528 -2.6740  2.9810
  390MOL0     H53806   4.043   5.199  -0.307  0.7749  0.5804  4.4681
  390MOL0     H53807   4.123   5.252  -0.539  1.6601 -1.3317  0.1411
  390MOL0     H53808   4.357   5.380  -0.797  1.8160  0.2244  1.7006
  390MOL0     H53809   4.264   5.263  -0.702 -0.1837 -1.0325 -1.6668
  390MOL0     H53810   4.077   5.420  -0.722  0.7053 -0.6128  0.5869
  390MOL0     H53811   4.128   5.377  -0.890 -2.5004  0.6412  0.3473
  390MOL0     H53812   4.220   5.621  -0.729  0.4017  0.6253 -0.9663
  390MOL0     H53813   4.282   5.591  -0.881  0.0609 -0.3286  1.7934
  390MOL0     H53814   4.085   5.755  -0.874 -0.3500  0.5229 -2.2256
  390MOL0     H53815   3.985   5.639  -0.802  0.9386  0.1711  0.5012
  390MOL0     H53816   3.968   5.471  -1.200 -2.5093  0.1819  0.9226
  390MOL0     H53817   4.407   5.531  -0.372  2.0250 -1.2243  1.6635
  390MOL0     H53818   4.423   5.569  -0.149  0.9335 -0.8110 -0.6195
  390MOL0     H53819   4.256   5.576  -0.083 -2.8709 -2.0111 -0.2317
  390MOL0     H53820   4.361   5.448  -0.037 -1.8153 -0.2818  0.3039
  391MOL0     O53821   3.888   7.981   1.319 -0.2198  0.6572 -0.3105
  391MOL0     C53822   4.002   7.961   1.359 -0.0840 -0.8498  0.6617
  391MOL0     O53823   4.085   7.861   1.325 -0.2549  0.4050 -0.3433
  391MOL0     C53824   4.022   7.759   1.257 -0.1522 -0.8698 -0.5552
  391MOL0     C53825   4.039   7.730   1.121 -0.6086 -0.1014 -0.0842
  391MOL0     C53826   3.991   7.617   1.050  0.6803  0.4507  0.0951
  391MOL0     C53827   3.911   7.524   1.121 -0.5265 -0.2771 -0.2359
  391MOL0     O53828   3.860   7.414   1.059  0.2693 -0.7520 -1.2259
  391MOL0     C53829   3.756   7.341   1.126 -0.5374 -0.2791 -0.5854
  391MOL0     C53830   3.688   7.235   1.031  0.3638 -0.2442 -0.3172
  391MOL0     C53831   3.777   7.120   1.021 -0.8329  0.4586 -0.5200
  391MOL0     C53832   3.761   7.041   0.893 -0.1134  0.8149  1.1522
  391MOL0     C53833   3.850   6.912   0.876  0.2592 -0.3669  0.1623
  391MOL0     C53834   3.779   6.804   0.787 -0.3176 -1.5309  0.1452
  391MOL0     C53835   3.867   6.670   0.769 -0.0811 -0.0452 -0.2955
  391MOL0     C53836   3.992   6.691   0.682 -0.8569 -0.5428  0.3660
  391MOL0     N53837   4.062   6.567   0.650  0.1926  0.3187 -0.4305
  391MOL0     C53838   4.010   6.459   0.580  0.7224  0.9606 -1.1347
  391MOL0     C53839   4.112   6.369   0.559  1.2748  0.2882 -0.0557
  391MOL0     C53840   4.112   6.248   0.462 -0.3143 -0.0293 -0.4554
  391MOL0     C53841   4.142   6.128   0.550 -0.2368 -0.1963  0.4498
  391MOL0     C53842   4.122   5.991   0.481  0.7671  0.8317  0.0419
  391MOL0     C53843   4.217   5.959   0.360  0.2663 -0.2375 -0.3350
  391MOL0     O53844   4.192   5.823   0.311 -0.1108 -0.2432  0.7388
  391MOL0     C53845   4.251   5.706   0.350 -0.4277  0.0558  0.3549
  391MOL0     C53846   4.357   5.689   0.448  1.1761 -0.4815 -0.5536
  391MOL0     C53847   4.405   5.568   0.483 -0.3167  0.4395  0.4379
  391MOL0     C53848   4.510   5.558   0.590 -1.2080  0.0749 -0.1173
  391MOL0     C53849   4.340   5.454   0.431 -0.3308 -0.9793  0.4450
  391MOL0     C53850   4.385   5.315   0.472  1.0850 -0.3438  0.4202
  391MOL0     O53851   4.454   5.257   0.376  0.3337 -1.1736  0.2330
  391MOL0     C53852   4.516   5.134   0.391 -0.3082 -0.0469 -0.4916
  391MOL0     C53853   4.449   5.019   0.444 -0.1173 -0.9233  0.0790
  391MOL0     C53854   4.516   4.894   0.446 -0.8321 -0.0077  0.2956
  391MOL0     C53855   4.637   4.879   0.381  0.7358 -0.2128  0.0296
  391MOL0     O53856   4.712   4.763   0.372 -0.2904 -0.4609  0.4260
  391MOL0     C53857   4.680   4.644   0.437  0.2258  0.5436 -0.5482
  391MOL0     C53858   4.800   4.546   0.434  0.5812  0.2562  0.2660
  391MOL0     C53859   4.939   4.614   0.464  0.2382 -0.3357 -0.1690
  391MOL0     C53860   4.938   4.680   0.612  0.1022  0.0760  0.0218
  391MOL0     C53861   5.044   4.792   0.631  1.0103  0.1174  1.3735
  391MOL0     C53862   5.062   4.836   0.777 -0.1809  0.0032 -0.5478
  391MOL0     C53863   5.131   4.735   0.857  0.5636 -0.6833  0.0112
  391MOL0     C53864   5.159   4.801   0.999 -0.0945 -0.5765  0.1146
  391MOL0    Cl53865   5.322   4.852   1.023  0.4028 -0.1030 -0.0249
  391MOL0     C53866   4.706   4.992   0.335  0.2109  0.1324 -0.5031
  391MOL0     C53867   4.642   5.114   0.336 -0.1003  0.1694 -0.2139
  391MOL0     O53868   4.380   5.278   0.591  1.1100 -0.4372  0.5660
  391MOL0     C53869   4.231   5.469   0.338 -1.0651  0.1429  0.3927
  391MOL0     C53870   4.184   5.594   0.301  0.7184  0.1322  0.2462
  391MOL0     N53871   4.218   6.412   0.636  0.0716 -0.5037  0.1253
  391MOL0     N53872   4.187   6.526   0.690  0.0592  0.1941 -0.7556
  391MOL0     C53873   3.885   7.555   1.256 -0.1343  0.3121 -0.0934
  391MOL0     C53874   3.941   7.671   1.324  0.5973  0.5289 -0.1034
  391MOL0     C53875   4.063   8.055   1.466 -0.0505 -0.2732 -0.6691
  391MOL0     C53876   4.181   8.014   1.533  0.6766 -0.4454  0.9965
  391MOL0     C53877   4.247   8.097   1.620 -0.1239 -0.0470  0.0478
  391MOL0     C53878   4.204   8.222   1.653  0.1123 -0.7879  0.0056
  391MOL0     O53879   4.280   8.296   1.737  0.6383  0.3741  0.2598
  391MOL0     C53880   4.284   8.443   1.716  1.0803  0.4032  0.7001
  391MOL0     C53881   4.422   8.504   1.706  0.4090 -0.0877 -1.0082
  391MOL0     C53882   4.481   8.467   1.843  0.7617  0.2911  0.6339
  391MOL0     C53883   4.597   8.552   1.887 -0.2525  0.5770  0.4269
  391MOL0     C53884   4.699   8.552   1.781 -0.2981 -0.5285  0.1362
  391MOL0     C53885   4.774   8.533   1.680 -0.2524 -0.6337 -0.4582
  391MOL0     C53886   4.085   8.262   1.593 -0.4210 -0.0220  0.1731
  391MOL0     C53887   4.017   8.184   1.497  0.7196  0.2956  0.6107
  391MOL0     C53888   3.903   8.250   1.414 -0.3432 -1.0234 -0.0313
  391MOL0     H53889   4.097   7.796   1.058 -1.5864  0.7885 -0.0627
  391MOL0     H53890   4.008   7.608   0.944  0.8265 -3.6586  0.3090
  391MOL0     H53891   3.672   7.401   1.161  1.8380  1.5354  2.4864
  391MOL0     H53892   3.790   7.284   1.213 -0.2360  1.5086  0.5010
  391MOL0     H53893   3.597   7.193   1.076  1.3381  1.1279  3.2367
  391MOL0     H53894   3.668   7.284   0.935 -4.1935  2.1502  1.5429
  391MOL0     H53895   3.883   7.145   1.032 -0.2030 -2.1176 -0.0418
  391MOL0     H53896   3.751   7.064   1.112  1.6637  0.6077  0.3627
  391MOL0     H53897   3.656   7.010   0.883  0.0285  0.1007  1.8184
  391MOL0     H53898   3.787   7.109   0.811 -2.6781  2.0696  1.2578
  391MOL0     H53899   3.872   6.862   0.971 -1.6111 -0.4097  0.6203
  391MOL0     H53900   3.941   6.943   0.825  0.4054 -2.8276 -1.2006
  391MOL0     H53901   3.685   6.782   0.838 -2.6235  2.4714 -1.9210
  391MOL0     H53902   3.753   6.848   0.691  2.8024  0.1287 -0.0936
  391MOL0     H53903   3.806   6.589   0.727  1.5682 -0.6864 -1.5944
  391MOL0     H53904   3.908   6.641   0.866 -2.1665 -0.1940  0.5832
  391MOL0     H53905   3.958   6.739   0.590 -0.5859  2.6293  1.7958
  391MOL0     H53906   4.057   6.757   0.739 -0.3093  0.6401 -1.5226
  391MOL0     H53907   3.918   6.442   0.524  0.7801 -1.0606 -0.6947
  391MOL0     H53908   4.177   6.259   0.374 -2.8170  0.9440 -2.3203
  391MOL0     H53909   4.010   6.243   0.423 -0.8712  0.4520  0.9019
  391MOL0     H53910   4.244   6.139   0.587 -0.7789 -1.1566  2.3707
  391MOL0     H53911   4.066   6.126   0.629 -0.4815 -1.6341  0.2066
  391MOL0     H53912   4.137   5.916   0.559  2.4159  0.0161 -0.9892
  391MOL0     H53913   4.019   5.987   0.443  0.5723  2.1376  0.3675
  391MOL0     H53914   4.196   6.017   0.270 -0.6873 -1.0885 -0.6754
  391MOL0     H53915   4.322   5.980   0.385  0.3847  3.5195 -3.1433
  391MOL0     H53916   4.403   5.781   0.483  1.1515  0.9412 -3.9211
  391MOL0     H53917   4.594   5.490   0.567 -0.2550 -0.2797  3.6466
  391MOL0     H53918   4.472   5.522   0.686  1.1107 -1.9292  0.1680
  391MOL0     H53919   4.557   5.655   0.608 -0.3769  1.0971 -5.9738
  391MOL0     H53920   4.350   5.036   0.483 -0.7162  1.4463 -2.1872
  391MOL0     H53921   4.473   4.809   0.496  1.9681 -1.9132 -0.2868
  391MOL0     H53922   4.651   4.660   0.541 -2.2366 -0.5980 -0.9656
  391MOL0     H53923   4.598   4.589   0.388  2.5699 -2.1959 -1.6988
  391MOL0     H53924   4.775   4.467   0.506 -1.0461 -0.3904 -0.9719
  391MOL0     H53925   4.808   4.513   0.330  0.1163  2.8377 -0.6612
  391MOL0     H53926   4.959   4.696   0.394  0.4636 -1.7758 -1.8646
  391MOL0     H53927   5.017   4.539   0.453  1.9907  1.6237 -2.2835
  391MOL0     H53928   4.947   4.602   0.688 -2.2257  0.2846  0.5727
  391MOL0     H53929   4.840   4.724   0.627 -0.2520  0.2844 -2.5561
  391MOL0     H53930   5.143   4.755   0.601  0.4811 -1.5457  1.5625
  391MOL0     H53931   5.027   4.878   0.565  0.3343  1.3852  3.1394
  391MOL0     H53932   4.959   4.860   0.806  0.1832  0.1867  0.6798
  391MOL0     H53933   5.122   4.927   0.785 -0.5132  0.2458 -0.7741
  391MOL0     H53934   5.223   4.699   0.808 -0.5806 -2.1006 -1.1960
  391MOL0     H53935   5.065   4.648   0.867 -3.1236  2.0024  0.8645
  391MOL0     H53936   5.125   4.748   1.088 -0.4506  1.4100  1.2138
  391MOL0     H53937   5.092   4.888   1.003 -0.1289 -0.3311 -3.1409
  391MOL0     H53938   4.807   4.979   0.296  0.4146  1.3698 -0.4387
  391MOL0     H53939   4.692   5.199   0.290  1.0305 -0.8794 -0.9948
  391MOL0     H53940   4.176   5.387   0.294  1.3248  0.3747 -3.5909
  391MOL0     H53941   4.099   5.602   0.234  0.5056 -0.2124  0.4719
  391MOL0     H53942   3.816   7.501   1.319 -1.0774  1.7138  0.1252
  391MOL0     H53943   3.908   7.695   1.424 -2.6524 -2.2693 -0.3032
  391MOL0     H53944   4.220   7.917   1.507 -2.8398 -1.9125  0.6568
  391MOL0     H53945   4.343   8.071   1.662 -0.8766 -3.2963 -0.0041
  391MOL0     H53946   4.229   8.468   1.624  0.3703  1.5367  1.4061
  391MOL0     H53947   4.228   8.496   1.793 -0.3277  1.9393 -1.2658
  391MOL0     H53948   4.410   8.612   1.703 -0.7012 -0.2167 -1.3261
  391MOL0     H53949   4.481   8.474   1.619 -2.2312 -2.5732 -2.0613
  391MOL0     H53950   4.413   8.474   1.929  1.9856  1.8200  1.5303
  391MOL0     H53951   4.520   8.365   1.843  0.3633  0.0537  3.6111
  391MOL0     H53952   4.652   8.516   1.974  2.3799 -0.5308 -1.5804
  391MOL0     H53953   4.567   8.655   1.909  3.5109  2.1672 -1.1312
  391MOL0     H53954   4.836   8.522   1.594  0.3738 -2.9150  0.2116
  391MOL0     H53955   4.037   8.358   1.611  1.6528  0.6353  2.7334
  391MOL0     H53956   3.898   8.359   1.423 -3.1509 -0.7190 -3.3298
  391MOL0     H53957   3.909   8.227   1.307 -0.2946 -0.3915 -0.1675
  391MOL0     H53958   3.813   8.207   1.458  1.7328 -1.7372  3.9942
  392MOL0     O53959  10.910   0.019   8.163 -0.5230  0.4125  0.2101
  392MOL0     C53960  11.017  -0.004   8.222  1.2507 -0.3555  0.9720
  392MOL0     O53961  11.093  -0.117   8.212  0.2735 -0.6973 -0.2941
  392MOL0     C53962  11.058  -0.213   8.124 -0.6281 -0.1297  0.7433
  392MOL0     C53963  10.964  -0.312   8.160 -0.4596  0.7160  0.2899
  392MOL0     C53964  10.948  -0.428   8.072 -0.2158  0.3551  0.4536
  392MOL0     C53965  11.019  -0.440   7.957  0.7748 -0.3476  0.3663
  392MOL0     O53966  11.020  -0.538   7.855  0.4776 -0.6995  0.4739
  392MOL0     C53967  10.900  -0.618   7.842  0.1014  0.5921 -0.2540
  392MOL0     C53968  10.939  -0.700   7.723  0.1038  0.5094  0.4111
  392MOL0     C53969  10.810  -0.770   7.685 -1.2025  1.0948  0.4458
  392MOL0     C53970  10.820  -0.921   7.711 -0.2058 -0.1534 -0.0492
  392MOL0     C53971  10.920  -1.009   7.644 -0.7408  0.2543 -0.0533
  392MOL0     C53972  10.938  -1.143   7.734 -0.0630 -0.0089 -0.2747
  392MOL0     C53973  11.050  -1.225   7.670  0.0721  0.4081  0.4505
  392MOL0     C53974  11.094  -1.347   7.759 -0.1502  0.2282  0.0471
  392MOL0     N53975  11.084  -1.318   7.903  0.1908  0.8779  0.7763
  392MOL0     C53976  10.989  -1.383   7.968 -0.8429 -0.1114 -0.1011
  392MOL0     C53977  11.032  -1.387   8.097  0.6525  0.7543  0.3324
  392MOL0     C53978  10.958  -1.440   8.218 -0.1938  1.1072  0.4386
  392MOL0     C53979  10.958  -1.351   8.337 -0.8855  0.9951  0.0423
  392MOL0     C53980  10.844  -1.347   8.433 -0.2553  0.0837 -0.6995
  392MOL0     C53981  10.837  -1.462   8.527 -0.6946  0.4301 -0.2753
  392MOL0     O53982  10.813  -1.591   8.466  0.5132 -0.1637 -0.5980
  392MOL0     C53983  10.683  -1.642   8.458  0.3042 -0.3443  0.6293
  392MOL0     C53984  10.658  -1.771   8.398  0.5521  0.3510 -0.2936
  392MOL0     C53985  10.526  -1.815   8.374  1.5976  0.4219  0.4538
  392MOL0     C53986  10.504  -1.959   8.311 -0.0345  0.2076  0.1119
  392MOL0     C53987  10.413  -1.737   8.415 -0.7337 -0.1677  0.0854
  392MOL0     C53988  10.272  -1.764   8.384 -0.2044  0.3260  0.0462
  392MOL0     O53989  10.188  -1.655   8.412  0.1682 -0.4731 -0.2466
  392MOL0     C53990  10.056  -1.665   8.370 -1.0537  0.8882 -0.7039
  392MOL0     C53991   9.978  -1.584   8.284  0.0764  0.7429 -1.0461
  392MOL0     C53992   9.853  -1.615   8.247  0.3178 -0.2324  0.8023
  392MOL0     C53993   9.796  -1.735   8.284  0.3902  0.1314 -0.0204
  392MOL0     O53994   9.687  -1.796   8.234 -0.2587  0.4080  0.2832
  392MOL0     C53995   9.633  -1.735   8.105 -0.2724 -0.8655 -0.1625
  392MOL0     C53996   9.512  -1.817   8.059  0.3219 -0.1689 -0.0212
  392MOL0     C53997   9.477  -1.809   7.906 -0.6086  0.2362 -0.1034
  392MOL0     C53998   9.400  -1.686   7.877  0.1625  0.0478  0.0915
  392MOL0     C53999   9.381  -1.665   7.729 -0.0601 -0.1502  0.3392
  392MOL0     C54000   9.280  -1.549   7.715 -0.5827 -1.1327  0.3972
  392MOL0     C54001   9.287  -1.493   7.576  0.4826 -0.3120 -0.0403
  392MOL0     C54002   9.171  -1.396   7.546  0.8724 -0.2268  0.1852
  392MOL0    Cl54003   9.220  -1.234   7.608  0.1262  0.3785  0.0598
  392MOL0     C54004   9.858  -1.812   8.373 -0.7108  1.3178  0.3087
  392MOL0     C54005   9.985  -1.777   8.418 -0.9003  0.6705  0.6796
  392MOL0     O54006  10.243  -1.865   8.319  0.1159 -1.0155 -0.5256
  392MOL0     C54007  10.443  -1.619   8.485  0.4677  0.5018 -0.5199
  392MOL0     C54008  10.569  -1.569   8.507 -0.9242 -0.3843  0.1216
  392MOL0     N54009  11.151  -1.333   8.106 -0.1974 -0.0628 -0.1603
  392MOL0     N54010  11.186  -1.300   7.990 -0.0033 -0.1960 -0.5894
  392MOL0     C54011  11.116  -0.338   7.930 -0.0264 -0.2609  0.3916
  392MOL0     C54012  11.135  -0.231   8.011  0.2033 -0.3059  0.2747
  392MOL0     C54013  11.075   0.103   8.311 -0.2191  0.4682 -0.1990
  392MOL0     C54014  11.178   0.065   8.404  0.9858  0.4338  0.0507
  392MOL0     C54015  11.233   0.151   8.504  0.3166 -0.5426  1.1913
  392MOL0     C54016  11.167   0.273   8.519 -0.3268 -0.8412  0.8725
  392MOL0     O54017  11.211   0.364   8.609 -0.3254 -0.2465  1.2810
  392MOL0     C54018  11.186   0.325   8.751  0.5643  0.3742 -0.1802
  392MOL0     C54019  11.309   0.308   8.830 -0.1678  0.4579  0.3157
  392MOL0     C54020  11.281   0.310   8.969  0.0185 -1.0087 -0.6483
  392MOL0     C54021  11.385   0.336   9.073  0.5296 -0.5641  0.0808
  392MOL0     C54022  11.488   0.242   9.085  0.1863  0.1878 -1.0049
  392MOL0     C54023  11.570   0.156   9.097 -0.2287 -0.4872 -0.1832
  392MOL0     C54024  11.066   0.315   8.433 -0.9358 -0.9094  0.3709
  392MOL0     C54025  11.022   0.231   8.331 -0.6213 -0.1488  0.2617
  392MOL0     C54026  10.921   0.292   8.242  0.4082 -0.2161 -0.0353
  392MOL0     H54027  10.913  -0.288   8.253  0.0047  2.0434  0.2199
  392MOL0     H54028  10.880  -0.511   8.088  2.0052 -1.4735  0.9524
  392MOL0     H54029  10.814  -0.554   7.820 -0.4776 -0.3846 -0.8942
  392MOL0     H54030  10.880  -0.678   7.931 -1.3532 -1.7113 -2.0208
  392MOL0     H54031  10.970  -0.635   7.641  2.0236 -3.1305 -2.0185
  392MOL0     H54032  11.021  -0.764   7.756  0.8307  2.3637  2.3673
  392MOL0     H54033  10.720  -0.744   7.742 -0.3054 -1.9022  3.6352
  392MOL0     H54034  10.801  -0.754   7.578  2.8258  1.8590  0.0632
  392MOL0     H54035  10.837  -0.916   7.819 -0.3266  1.9128 -0.0967
  392MOL0     H54036  10.721  -0.964   7.695 -0.2572 -0.7133  1.5790
  392MOL0     H54037  11.014  -0.954   7.649 -1.2514  1.0168  2.3256
  392MOL0     H54038  10.895  -1.034   7.540  0.0194 -1.0537  0.0561
  392MOL0     H54039  10.969  -1.116   7.835 -0.2164  1.5619 -0.6215
  392MOL0     H54040  10.847  -1.203   7.738  0.1677 -0.2865  1.2436
  392MOL0     H54041  11.128  -1.157   7.635 -0.5187  0.2408 -1.2859
  392MOL0     H54042  11.019  -1.270   7.575 -0.6742 -0.9578  1.3086
  392MOL0     H54043  11.038  -1.436   7.728  3.5270 -2.0431 -0.7149
  392MOL0     H54044  11.198  -1.377   7.742 -0.7151 -0.6843 -2.0918
  392MOL0     H54045  10.902  -1.427   7.921  0.0567 -0.5955 -1.3652
  392MOL0     H54046  11.003  -1.536   8.248  0.1263  1.0602 -0.1650
  392MOL0     H54047  10.854  -1.466   8.195  0.0722 -1.3599  1.6420
  392MOL0     H54048  11.037  -1.379   8.409 -2.6121 -2.2679  0.8861
  392MOL0     H54049  10.971  -1.250   8.298 -2.2761  1.3867  0.5426
  392MOL0     H54050  10.851  -1.249   8.482  0.3523  0.9185 -2.3760
  392MOL0     H54051  10.746  -1.355   8.385 -2.0063  0.0753  2.5922
  392MOL0     H54052  10.934  -1.465   8.577 -0.6460  1.3584 -0.2969
  392MOL0     H54053  10.777  -1.440   8.616 -1.2565 -0.5345 -0.4047
  392MOL0     H54054  10.736  -1.840   8.367  0.0021 -0.3502 -0.1333
  392MOL0     H54055  10.599  -2.001   8.276  0.0472 -1.2049  1.8370
  392MOL0     H54056  10.452  -1.959   8.215 -0.1267 -0.7820  0.1451
  392MOL0     H54057  10.447  -2.026   8.377 -1.0852  0.0029 -0.9682
  392MOL0     H54058  10.027  -1.498   8.238  2.6818 -0.4532 -0.6841
  392MOL0     H54059   9.808  -1.542   8.180  0.0861  1.4300  2.6913
  392MOL0     H54060   9.611  -1.628   8.107 -1.3774 -1.0080 -2.1055
  392MOL0     H54061   9.707  -1.744   8.025 -0.5044  4.2978 -1.2857
  392MOL0     H54062   9.537  -1.921   8.084  0.0973 -0.2752 -0.2382
  392MOL0     H54063   9.432  -1.789   8.128 -1.1272  0.1546 -1.7818
  392MOL0     H54064   9.406  -1.890   7.886 -1.5546  1.5520 -2.4297
  392MOL0     H54065   9.571  -1.823   7.853  0.5283 -2.6362  2.3418
  392MOL0     H54066   9.450  -1.594   7.906 -1.3071  1.2067 -0.9153
  392MOL0     H54067   9.299  -1.687   7.919 -0.7039  1.2947 -1.8354
  392MOL0     H54068   9.475  -1.636   7.680 -1.0396 -0.0528 -1.5906
  392MOL0     H54069   9.332  -1.757   7.694  1.0690 -0.0593 -1.6560
  392MOL0     H54070   9.309  -1.465   7.778  0.1660  2.5862 -4.4121
  392MOL0     H54071   9.184  -1.591   7.749  0.3559 -4.3858 -0.5610
  392MOL0     H54072   9.278  -1.572   7.500 -2.7606  1.6932 -1.9959
  392MOL0     H54073   9.385  -1.446   7.563  0.2768  0.0445 -0.3085
  392MOL0     H54074   9.074  -1.415   7.592 -0.3517  3.0869 -0.7682
  392MOL0     H54075   9.155  -1.396   7.437  2.2609  3.4615 -0.1807
  392MOL0     H54076   9.816  -1.910   8.397 -2.5867  1.6504 -1.2970
  392MOL0     H54077  10.034  -1.850   8.482  1.8893  0.1865 -1.7924
  392MOL0     H54078  10.362  -1.556   8.517  2.4902  3.9448 -1.6133
  392MOL0     H54079  10.569  -1.473   8.559  0.7830 -0.4037  0.2063
  392MOL0     H54080  11.183  -0.353   7.846  1.4385  1.2341  1.2459
  392MOL0     H54081  11.211  -0.163   7.974  0.2383 -0.4233  0.1286
  392MOL0     H54082  11.215  -0.037   8.405 -0.9427 -0.3122  0.8928
  392MOL0     H54083  11.299   0.118   8.583  1.4742 -2.0180 -0.3245
  392MOL0     H54084  11.123   0.404   8.793 -1.5486 -1.6537  0.6942
  392MOL0     H54085  11.110   0.249   8.771  0.5350  0.4828  0.1359
  392MOL0     H54086  11.375   0.394   8.814 -1.1006  1.6180  2.2720
  392MOL0     H54087  11.361   0.219   8.795  0.0952  0.9310 -0.5150
  392MOL0     H54088  11.203   0.384   8.987  0.4312 -0.1015 -2.3912
  392MOL0     H54089  11.223   0.220   8.991 -2.5675  1.5640  5.1050
  392MOL0     H54090  11.333   0.343   9.169  3.2711  3.8053  1.5737
  392MOL0     H54091  11.434   0.434   9.071  1.8466 -1.1838  0.6992
  392MOL0     H54092  11.649   0.084   9.106 -0.8740 -1.1588  0.2448
  392MOL0     H54093  11.026   0.415   8.436 -0.2928 -0.6712  1.0620
  392MOL0     H54094  10.934   0.400   8.253 -2.0459 -0.0336  1.7966
  392MOL0     H54095  10.951   0.263   8.140  1.6423  1.4006 -0.1668
  392MOL0     H54096  10.821   0.269   8.278  0.0256  2.5364  0.8819
  393MOL0     O54097   4.885   6.311   2.196 -0.6691  0.2557  0.0904
  393MOL0     C54098   4.946   6.230   2.276  0.5080 -0.6705 -0.2394
  393MOL0     O54099   5.020   6.118   2.239  0.5852 -0.3901  0.1285
  393MOL0     C54100   5.000   6.052   2.116 -0.5319 -0.9070 -0.6558
  393MOL0     C54101   4.951   6.108   2.001 -0.1063 -0.5386 -0.1455
  393MOL0     C54102   4.944   6.031   1.889  0.2159  0.7830  0.3937
  393MOL0     C54103   4.993   5.899   1.885  0.3233  1.7548  0.3394
  393MOL0     O54104   5.010   5.820   1.774 -0.3126 -0.2259  0.4535
  393MOL0     C54105   4.958   5.872   1.652  0.2455 -1.3746  0.0841
  393MOL0     C54106   4.977   5.782   1.535  0.0792 -0.9952  0.2483
  393MOL0     C54107   4.877   5.670   1.528 -0.1019  0.7457  0.4483
  393MOL0     C54108   4.898   5.605   1.390 -0.5638  0.4587 -0.1958
  393MOL0     C54109   4.806   5.494   1.354  0.1842 -0.9659 -0.0716
  393MOL0     C54110   4.834   5.424   1.223  0.1937 -0.6647  0.1932
  393MOL0     C54111   4.752   5.443   1.095 -0.0789 -0.6424  0.6919
  393MOL0     C54112   4.785   5.583   1.025  0.1181  0.5469 -0.3320
  393MOL0     N54113   4.921   5.590   0.975 -0.1661  0.0165  0.1882
  393MOL0     C54114   4.960   5.560   0.849  1.8737 -0.1058  0.9234
  393MOL0     C54115   5.091   5.586   0.846 -0.2228 -0.2642 -0.6816
  393MOL0     C54116   5.183   5.579   0.731 -0.4186 -0.9538 -0.0549
  393MOL0     C54117   5.255   5.722   0.727 -0.1135  1.0160  0.8426
  393MOL0     C54118   5.397   5.715   0.788  1.0315 -0.8791  0.2813
  393MOL0     C54119   5.486   5.625   0.717 -1.3898  0.1609 -0.4962
  393MOL0     O54120   5.600   5.601   0.798  0.1152  0.5697  0.7222
  393MOL0     C54121   5.683   5.501   0.757  0.6122  0.2582 -0.0286
  393MOL0     C54122   5.671   5.420   0.646  0.7138  1.1424 -0.3336
  393MOL0     C54123   5.778   5.324   0.619  0.4604 -0.6955  0.3552
  393MOL0     C54124   5.763   5.245   0.484  0.2765 -0.8291  0.2823
  393MOL0     C54125   5.876   5.307   0.710 -0.5721 -0.2728 -0.4809
  393MOL0     C54126   5.979   5.198   0.709 -0.0004 -0.4006 -0.1927
  393MOL0     O54127   6.059   5.195   0.830  1.2818  0.3925  0.0837
  393MOL0     C54128   6.144   5.094   0.852 -0.2508 -0.4234  0.5374
  393MOL0     C54129   6.211   5.110   0.972  0.5706 -0.4066 -0.3429
  393MOL0     C54130   6.311   5.020   1.015 -0.3512  0.8111  0.1607
  393MOL0     C54131   6.329   4.904   0.943 -0.3765  0.5904  0.7452
  393MOL0     O54132   6.414   4.809   0.986 -0.5651  0.1142  0.9488
  393MOL0     C54133   6.557   4.831   0.996 -0.8123  0.3562  0.2536
  393MOL0     C54134   6.627   4.700   0.974 -0.0229  0.6186 -0.2103
  393MOL0     C54135   6.765   4.729   0.925 -0.6590 -0.6470  0.8095
  393MOL0     C54136   6.833   4.593   0.896 -0.5453  0.2962 -0.9155
  393MOL0     C54137   6.963   4.609   0.830  0.1390  0.1488  0.4398
  393MOL0     C54138   7.023   4.466   0.802  0.2819  0.0173 -0.2110
  393MOL0     C54139   7.170   4.481   0.750 -0.4725  0.3278 -0.5669
  393MOL0     C54140   7.181   4.503   0.598  0.7217  0.3008 -0.2819
  393MOL0    Cl54141   7.122   4.663   0.544 -0.0491 -0.4851 -0.1084
  393MOL0     C54142   6.251   4.887   0.832 -0.0486 -0.1612  0.1679
  393MOL0     C54143   6.154   4.971   0.784  0.8456  0.3965 -0.7759
  393MOL0     O54144   5.997   5.130   0.611  0.0494 -0.1997  0.1161
  393MOL0     C54145   5.869   5.391   0.827  0.0522 -0.0235  0.4174
  393MOL0     C54146   5.777   5.481   0.845  0.4109 -0.3133  0.6701
  393MOL0     N54147   5.128   5.647   0.968  0.3618 -1.1343 -0.5746
  393MOL0     N54148   5.023   5.651   1.042  0.2380 -0.7209  0.1911
  393MOL0     C54149   5.048   5.851   2.006 -1.4744 -0.0441  0.1415
  393MOL0     C54150   5.065   5.936   2.114  0.3598  0.3644 -0.0669
  393MOL0     C54151   4.956   6.292   2.414  0.4379  0.0875 -1.2839
  393MOL0     C54152   4.857   6.378   2.460  0.1417 -0.1490  0.8873
  393MOL0     C54153   4.868   6.439   2.593 -0.0501 -0.4522  0.6103
  393MOL0     C54154   4.980   6.428   2.673  1.0572  0.1452  0.2604
  393MOL0     O54155   5.004   6.481   2.794 -0.0537 -1.0109  0.2008
  393MOL0     C54156   4.897   6.538   2.875  0.6337  0.3799 -0.2060
  393MOL0     C54157   4.798   6.431   2.925  0.5516  0.3311 -0.1798
  393MOL0     C54158   4.677   6.493   2.986  0.3578  0.2146 -0.1983
  393MOL0     C54159   4.702   6.578   3.110 -0.3053  0.3303 -0.6893
  393MOL0     C54160   4.768   6.498   3.216  0.2351 -0.7611 -0.1535
  393MOL0     C54161   4.802   6.440   3.317 -0.2294  0.5182  0.6022
  393MOL0     C54162   5.075   6.335   2.622  0.4549  0.2558  0.1027
  393MOL0     C54163   5.061   6.262   2.506 -0.4152 -0.3359  0.7314
  393MOL0     C54164   5.183   6.182   2.471  1.1526 -0.2851  0.3855
  393MOL0     H54165   4.908   6.206   1.985 -0.0147 -0.7466 -1.8918
  393MOL0     H54166   4.879   6.065   1.809  0.3295  0.2157  0.0521
  393MOL0     H54167   5.011   5.964   1.626 -1.3151 -0.9749 -1.9038
  393MOL0     H54168   4.853   5.904   1.657  0.6465  0.0862 -0.3528
  393MOL0     H54169   4.970   5.852   1.452  0.7875  1.8674  2.4545
  393MOL0     H54170   5.074   5.731   1.532  0.0119 -1.2580  1.8848
  393MOL0     H54171   4.887   5.597   1.609  2.2254 -0.0106 -0.4283
  393MOL0     H54172   4.775   5.709   1.528 -0.5066 -0.1912 -1.5804
  393MOL0     H54173   4.888   5.679   1.309 -1.5213  1.1925  0.5674
  393MOL0     H54174   5.001   5.569   1.393  0.2671  2.6879  0.0709
  393MOL0     H54175   4.706   5.537   1.341  1.3012  1.6311 -0.6623
  393MOL0     H54176   4.804   5.419   1.434 -1.3018 -0.2656  0.5814
  393MOL0     H54177   4.940   5.442   1.202 -0.0510 -0.5558 -1.0185
  393MOL0     H54178   4.824   5.316   1.236  0.8902 -1.3301 -3.5995
  393MOL0     H54179   4.646   5.430   1.121 -0.2112 -1.4469 -0.2074
  393MOL0     H54180   4.777   5.366   1.022 -2.0070 -1.6783  1.0378
  393MOL0     H54181   4.716   5.604   0.943 -0.2205  0.7860  0.0071
  393MOL0     H54182   4.767   5.655   1.105  1.7980 -1.7849  2.3589
  393MOL0     H54183   4.888   5.522   0.777  0.1895  0.2159  2.3442
  393MOL0     H54184   5.129   5.570   0.636  3.5449 -2.4274 -2.4028
  393MOL0     H54185   5.249   5.493   0.747 -1.0293 -1.3573  0.3891
  393MOL0     H54186   5.261   5.749   0.621  0.4408  0.4534  0.7277
  393MOL0     H54187   5.196   5.804   0.768 -1.4565  1.3460 -1.6016
  393MOL0     H54188   5.429   5.820   0.783 -4.0385  0.8876 -1.9534
  393MOL0     H54189   5.387   5.686   0.893  1.4704 -0.4093  0.4529
  393MOL0     H54190   5.438   5.530   0.692 -1.8738  0.6626 -1.5988
  393MOL0     H54191   5.512   5.682   0.627 -1.5896 -1.0632 -1.3468
  393MOL0     H54192   5.586   5.424   0.579  0.4021 -2.5472 -0.3438
  393MOL0     H54193   5.661   5.262   0.451 -0.0214 -1.3368  0.9193
  393MOL0     H54194   5.777   5.136   0.489 -0.3814 -0.9963 -1.1925
  393MOL0     H54195   5.834   5.284   0.411 -1.3502 -1.8492 -1.9700
  393MOL0     H54196   6.186   5.183   1.048 -2.9518 -2.2887  0.5233
  393MOL0     H54197   6.368   5.048   1.103 -0.7347  0.3379  0.5662
  393MOL0     H54198   6.587   4.910   0.927 -0.8743  2.7443  2.7856
  393MOL0     H54199   6.576   4.870   1.097 -0.0614 -0.2239  0.3453
  393MOL0     H54200   6.641   4.655   1.073 -2.8362  0.9755  0.4477
  393MOL0     H54201   6.572   4.635   0.905  0.3161 -0.2848  0.3548
  393MOL0     H54202   6.827   4.774   1.003 -1.3498 -0.7114  1.4075
  393MOL0     H54203   6.769   4.794   0.838 -2.0597  0.2114  1.3551
  393MOL0     H54204   6.765   4.529   0.839 -0.4250  0.2624 -1.0219
  393MOL0     H54205   6.848   4.526   0.980 -2.6069 -0.2003 -0.8745
  393MOL0     H54206   6.925   4.658   0.740 -0.8856 -1.0227  0.2001
  393MOL0     H54207   7.034   4.674   0.882  0.9786  1.2311 -1.9255
  393MOL0     H54208   6.955   4.410   0.737  0.1093  1.0263 -0.9271
  393MOL0     H54209   7.039   4.421   0.900  1.7506  0.2139 -0.3285
  393MOL0     H54210   7.220   4.391   0.786 -3.6817 -1.1356  0.6503
  393MOL0     H54211   7.216   4.570   0.793 -2.0268  2.0983 -2.3775
  393MOL0     H54212   7.124   4.430   0.539  3.2937  0.5909 -3.4283
  393MOL0     H54213   7.285   4.502   0.562  0.6216  0.6906 -0.5978
  393MOL0     H54214   6.259   4.787   0.789  0.0405 -0.4698  0.8705
  393MOL0     H54215   6.101   4.932   0.697  2.7256 -0.6070 -1.5320
  393MOL0     H54216   5.947   5.384   0.901 -0.8980  0.1011  1.4659
  393MOL0     H54217   5.779   5.544   0.934  0.2663 -0.5621  0.8481
  393MOL0     H54218   5.107   5.760   2.002  0.7991  1.0532  3.7643
  393MOL0     H54219   5.117   5.890   2.197 -3.7351 -4.3384  0.3332
  393MOL0     H54220   4.772   6.402   2.397  0.5791  2.0982  1.0446
  393MOL0     H54221   4.784   6.495   2.632  0.6534  0.6600  0.5727
  393MOL0     H54222   4.941   6.589   2.961  1.8209 -0.4786 -0.2869
  393MOL0     H54223   4.849   6.618   2.817 -1.9047 -1.2953 -0.5962
  393MOL0     H54224   4.841   6.355   2.991 -0.8128 -0.6942 -0.4211
  393MOL0     H54225   4.763   6.377   2.836 -0.2741  0.9072 -0.2106
  393MOL0     H54226   4.628   6.554   2.909 -0.7067 -2.6636 -1.9826
  393MOL0     H54227   4.607   6.412   3.007 -2.6112  2.3567 -1.1386
  393MOL0     H54228   4.614   6.627   3.152 -0.0575  2.1459 -2.1454
  393MOL0     H54229   4.768   6.662   3.088  0.7301  0.5369  2.6276
  393MOL0     H54230   4.822   6.409   3.418  4.4895 -0.1493 -0.3103
  393MOL0     H54231   5.165   6.317   2.679  1.2372  0.1867 -1.1341
  393MOL0     H54232   5.227   6.194   2.371 -0.4709 -2.4129 -0.6888
  393MOL0     H54233   5.262   6.190   2.546  0.4249 -1.1084  1.2731
  393MOL0     H54234   5.143   6.080   2.473  2.8101 -1.0121 -1.1603
  394MOL0     O54235   2.375   0.635   8.571 -0.0826 -0.0296  0.4316
  394MOL0     C54236   2.293   0.711   8.629  0.1109  0.2160  0.4608
  394MOL0     O54237   2.170   0.676   8.670 -0.4334 -0.2736 -0.0743
  394MOL0     C54238   2.101   0.571   8.613 -0.4721  0.7626 -0.2916
  394MOL0     C54239   2.104   0.529   8.483 -0.0867 -0.3837 -0.2999
  394MOL0     C54240   2.027   0.423   8.437 -0.8113  0.2086 -1.0474
  394MOL0     C54241   1.957   0.343   8.524  0.6524  0.9616  0.4124
  394MOL0     O54242   1.883   0.229   8.489 -0.3116 -0.5651 -0.1539
  394MOL0     C54243   1.882   0.114   8.583 -0.4742  0.5411 -0.3938
  394MOL0     C54244   1.878  -0.011   8.497  0.3729  0.4362  0.4454
  394MOL0     C54245   1.921  -0.133   8.576  0.0943  0.2019  0.9772
  394MOL0     C54246   1.843  -0.157   8.711  0.1135  0.0125  0.0936
  394MOL0     C54247   1.879  -0.289   8.774  0.1479  1.2523  0.0142
  394MOL0     C54248   1.834  -0.409   8.684 -0.1700 -1.0830 -0.0613
  394MOL0     C54249   1.843  -0.553   8.747  0.5057  0.2058  1.0971
  394MOL0     C54250   1.776  -0.668   8.658  0.6868 -0.3411 -0.1151
  394MOL0     N54251   1.737  -0.779   8.749  0.7879 -0.5484 -0.1977
  394MOL0     C54252   1.617  -0.833   8.744  0.6267 -0.2433  0.5910
  394MOL0     C54253   1.620  -0.932   8.835 -0.4821 -0.0038  0.2421
  394MOL0     C54254   1.511  -1.044   8.872  0.2885 -0.6650 -0.1520
  394MOL0     C54255   1.522  -1.171   8.781  0.4781 -0.3555  0.0536
  394MOL0     C54256   1.405  -1.265   8.795 -0.6945 -0.4766  0.1418
  394MOL0     C54257   1.300  -1.215   8.693  1.8045 -0.6971  0.1239
  394MOL0     O54258   1.241  -1.094   8.739  0.4547 -0.0128  0.6802
  394MOL0     C54259   1.162  -1.028   8.642  0.0873  0.3167  0.3338
  394MOL0     C54260   1.123  -1.089   8.523 -0.5315 -0.0238  0.5879
  394MOL0     C54261   1.056  -1.022   8.426 -0.0751  0.8211  0.0681
  394MOL0     C54262   1.018  -1.106   8.302 -0.2767 -0.1391 -1.0404
  394MOL0     C54263   1.019  -0.885   8.453 -0.5383 -0.0798  0.0450
  394MOL0     C54264   0.974  -0.811   8.337  0.8928 -0.5063  0.3704
  394MOL0     O54265   0.902  -0.874   8.242 -0.9417 -0.2560 -0.7244
  394MOL0     C54266   0.863  -0.795   8.138 -0.6249 -0.0860  0.4263
  394MOL0     C54267   0.912  -0.820   8.008  0.3119  0.8914  0.3696
  394MOL0     C54268   0.880  -0.738   7.898 -0.0371  0.3927 -0.1601
  394MOL0     C54269   0.796  -0.628   7.915  0.0174  1.0215  0.3636
  394MOL0     O54270   0.746  -0.550   7.809  0.2798 -0.1683  0.7820
  394MOL0     C54271   0.797  -0.553   7.680 -0.4021  0.0278  0.4013
  394MOL0     C54272   0.786  -0.408   7.605  0.6658 -0.0705  0.1826
  394MOL0     C54273   0.802  -0.425   7.451  0.5421  0.3392  0.3444
  394MOL0     C54274   0.779  -0.298   7.371 -1.2125 -0.5065  0.0495
  394MOL0     C54275   0.906  -0.216   7.344  1.0154  0.4136  0.3479
  394MOL0     C54276   0.974  -0.263   7.210  1.0614  0.3170  0.1445
  394MOL0     C54277   1.080  -0.167   7.151  1.4639 -0.0730  0.4244
  394MOL0     C54278   1.210  -0.171   7.224 -0.2403  0.6890 -0.3521
  394MOL0    Cl54279   1.272  -0.333   7.218  0.0591 -0.1808 -0.1177
  394MOL0     C54280   0.739  -0.618   8.042 -0.5675 -1.2769 -0.0401
  394MOL0     C54281   0.777  -0.688   8.156  0.7869 -0.2580  0.2778
  394MOL0     O54282   0.985  -0.694   8.341 -0.0304  0.0384 -0.2947
  394MOL0     C54283   1.067  -0.824   8.570 -0.6686  0.3421  0.6329
  394MOL0     C54284   1.121  -0.898   8.679  0.7521  0.6791  0.9762
  394MOL0     N54285   1.741  -0.938   8.888 -0.0725  0.2733 -0.6843
  394MOL0     N54286   1.814  -0.862   8.823 -0.0746 -0.0560  0.7391
  394MOL0     C54287   1.940   0.390   8.655 -0.0517 -0.1262  0.1542
  394MOL0     C54288   2.016   0.498   8.706 -0.4426  0.3145  0.0001
  394MOL0     C54289   2.341   0.853   8.663 -0.4097 -0.3281 -0.2180
  394MOL0     C54290   2.234   0.937   8.687  0.9271  0.6902  0.4138
  394MOL0     C54291   2.252   1.058   8.741 -0.6965 -0.1141  0.1760
  394MOL0     C54292   2.375   1.095   8.790  0.1611  1.2971 -0.8385
  394MOL0     O54293   2.410   1.224   8.830 -0.0434  0.6366 -0.3465
  394MOL0     C54294   2.346   1.287   8.934  0.6651 -1.0770 -0.9791
  394MOL0     C54295   2.442   1.378   9.001  0.3491  0.1857  0.4612
  394MOL0     C54296   2.570   1.316   9.055  0.5950  0.4165 -0.4485
  394MOL0     C54297   2.565   1.218   9.172 -0.1477 -0.0613 -0.5977
  394MOL0     C54298   2.525   1.268   9.298  0.2606 -0.9808  0.5779
  394MOL0     C54299   2.486   1.335   9.391 -0.8445  0.2001  0.4190
  394MOL0     C54300   2.491   1.012   8.770 -0.0477  0.2059 -0.5201
  394MOL0     C54301   2.474   0.890   8.712 -0.2544 -0.4634 -0.0273
  394MOL0     C54302   2.591   0.800   8.726  0.8679 -0.4107  0.7092
  394MOL0     H54303   2.171   0.583   8.417  0.5471  1.1794  1.5372
  394MOL0     H54304   2.020   0.398   8.331  0.3516 -4.5722 -0.2417
  394MOL0     H54305   1.791   0.111   8.643 -1.9437  1.0662 -2.4833
  394MOL0     H54306   1.981   0.115   8.630 -0.1937 -0.9881 -0.8872
  394MOL0     H54307   1.775  -0.024   8.464 -1.2886  1.9388  4.3533
  394MOL0     H54308   1.936  -0.003   8.404 -1.9212 -3.3870 -1.5431
  394MOL0     H54309   1.886  -0.219   8.519 -2.8293  1.3389  0.8756
  394MOL0     H54310   2.030  -0.139   8.581  0.1799  0.0597 -0.4618
  394MOL0     H54311   1.872  -0.075   8.778  0.0120  0.1765 -0.0641
  394MOL0     H54312   1.734  -0.155   8.702  0.0543 -3.3586 -1.5906
  394MOL0     H54313   1.832  -0.303   8.871 -1.6957 -1.3850 -1.1335
  394MOL0     H54314   1.988  -0.298   8.773  0.0527 -0.7335 -1.7604
  394MOL0     H54315   1.727  -0.403   8.661 -0.3481 -0.1815  0.9697
  394MOL0     H54316   1.887  -0.424   8.589 -1.6029 -3.7914 -0.5454
  394MOL0     H54317   1.782  -0.533   8.836  0.9438  1.1953  1.1874
  394MOL0     H54318   1.949  -0.570   8.764  0.7332  2.4865  2.2720
  394MOL0     H54319   1.690  -0.624   8.607 -0.8695 -0.3326  2.3649
  394MOL0     H54320   1.846  -0.710   8.584  0.4419 -0.3665 -0.3316
  394MOL0     H54321   1.532  -0.800   8.686  0.9636  1.4103  0.9722
  394MOL0     H54322   1.414  -0.995   8.862 -0.8494 -2.6870  0.3080
  394MOL0     H54323   1.527  -1.064   8.978 -1.6314  1.7547  0.6864
  394MOL0     H54324   1.549  -1.151   8.677 -1.7378 -0.7456 -0.6509
  394MOL0     H54325   1.603  -1.226   8.829 -0.7778 -1.8127  0.6012
  394MOL0     H54326   1.441  -1.360   8.756 -0.7275 -0.5775  0.3530
  394MOL0     H54327   1.379  -1.275   8.901 -0.4704 -0.9846  0.1523
  394MOL0     H54328   1.351  -1.204   8.597  2.3101  1.5291  0.5932
  394MOL0     H54329   1.222  -1.292   8.696 -0.0410  1.0773 -0.5091
  394MOL0     H54330   1.160  -1.190   8.509 -0.2595  0.1328  0.1655
  394MOL0     H54331   0.911  -1.114   8.283 -0.2108  0.2568 -1.5967
  394MOL0     H54332   1.047  -1.212   8.309 -3.1232 -0.9291  0.6771
  394MOL0     H54333   1.079  -1.071   8.218 -0.4007  2.1147 -0.2591
  394MOL0     H54334   0.979  -0.905   7.999  0.4879  1.0881 -0.1877
  394MOL0     H54335   0.924  -0.766   7.802  0.5155  1.4690 -0.2356
  394MOL0     H54336   0.905  -0.569   7.685 -0.4689 -1.0527 -0.9470
  394MOL0     H54337   0.766  -0.640   7.622 -1.2771  0.8015 -0.3267
  394MOL0     H54338   0.681  -0.382   7.616  0.2471 -1.7463  0.5271
  394MOL0     H54339   0.860  -0.339   7.647  0.9352  1.4394 -2.5418
  394MOL0     H54340   0.728  -0.501   7.423  3.3037 -3.0012  1.3054
  394MOL0     H54341   0.904  -0.462   7.438 -0.0260 -0.8884 -1.0393
  394MOL0     H54342   0.704  -0.238   7.424 -1.4207  0.7296 -1.5817
  394MOL0     H54343   0.726  -0.325   7.280  0.9716 -2.8860 -0.6246
  394MOL0     H54344   0.882  -0.113   7.315 -0.8787  0.0031  0.2971
  394MOL0     H54345   0.976  -0.217   7.427 -2.4402 -1.0321  3.5717
  394MOL0     H54346   0.892  -0.263   7.137 -1.7056  0.1606  3.0122
  394MOL0     H54347   1.002  -0.368   7.223 -0.6076  0.0674  2.2568
  394MOL0     H54348   1.032  -0.069   7.156  2.3592  0.4062  0.0148
  394MOL0     H54349   1.090  -0.195   7.046 -2.1456 -1.2138  0.2692
  394MOL0     H54350   1.203  -0.149   7.330  0.3573 -1.1013  0.1005
  394MOL0     H54351   1.286  -0.102   7.188 -0.5082  1.1672  0.0021
  394MOL0     H54352   0.676  -0.530   8.052  3.4395  2.1127 -1.5146
  394MOL0     H54353   0.734  -0.672   8.255 -0.3674 -2.6524  0.2247
  394MOL0     H54354   1.042  -0.721   8.593 -0.1180  0.3046  1.4494
  394MOL0     H54355   1.141  -0.847   8.772  1.5414  4.3224 -1.0163
  394MOL0     H54356   1.874   0.339   8.725  0.8637 -1.8519 -0.1789
  394MOL0     H54357   2.022   0.545   8.803 -0.0149 -1.3276  0.7985
  394MOL0     H54358   2.137   0.922   8.639  3.2132 -2.6522 -4.0348
  394MOL0     H54359   2.167   1.125   8.740 -0.1467  0.6577  1.5052
  394MOL0     H54360   2.269   1.345   8.882  0.4918 -0.0855  0.3334
  394MOL0     H54361   2.305   1.225   9.014 -0.7275  0.0728 -0.7488
  394MOL0     H54362   2.402   1.438   9.082  2.7242  1.2095  0.9754
  394MOL0     H54363   2.477   1.455   8.930  1.4345 -0.8543 -0.1663
  394MOL0     H54364   2.601   1.253   8.971 -2.7919  1.6410 -2.8262
  394MOL0     H54365   2.644   1.390   9.086 -1.9971  2.7952  0.4692
  394MOL0     H54366   2.654   1.155   9.184 -0.4233  0.0615  4.9197
  394MOL0     H54367   2.490   1.142   9.150 -1.8639  0.1558  3.4962
  394MOL0     H54368   2.460   1.387   9.481 -0.9461  0.3197  0.3198
  394MOL0     H54369   2.591   1.033   8.807 -0.0725  1.9077 -1.3147
  394MOL0     H54370   2.567   0.696   8.753 -1.4524 -0.1788 -0.2582
  394MOL0     H54371   2.641   0.798   8.629 -0.1541 -2.0036  0.1708
  394MOL0     H54372   2.668   0.834   8.795  2.3923  1.2967 -1.6902
  395MOL0     O54373   2.365   7.238   0.297 -0.4688  0.4663  0.5156
  395MOL0     C54374   2.321   7.261   0.408 -0.9817 -0.6220 -0.6234
  395MOL0     O54375   2.254   7.170   0.487  0.4400 -0.5035 -0.1434
  395MOL0     C54376   2.223   7.047   0.447  0.6871 -0.2395 -0.6635
  395MOL0     C54377   2.192   6.959   0.551 -0.1917  0.9218 -0.8584
  395MOL0     C54378   2.170   6.820   0.529  0.3348  1.0123  0.2115
  395MOL0     C54379   2.154   6.771   0.398  1.1454 -0.4335 -0.7245
  395MOL0     O54380   2.126   6.642   0.372 -0.3855  0.7741  0.0457
  395MOL0     C54381   2.154   6.531   0.462 -0.8857 -0.0475 -0.1000
  395MOL0     C54382   2.151   6.398   0.373  0.5596  0.3459  0.2667
  395MOL0     C54383   2.003   6.384   0.316 -0.7100  0.5165 -0.1677
  395MOL0     C54384   1.984   6.236   0.295  0.7219  0.2993 -0.0120
  395MOL0     C54385   1.854   6.192   0.235 -0.1100 -0.6883  0.1650
  395MOL0     C54386   1.824   6.242   0.095 -0.6867  0.8870 -0.0061
  395MOL0     C54387   1.729   6.374   0.073  0.5610  0.5858 -0.9374
  395MOL0     C54388   1.691   6.378  -0.076 -0.7632  0.2940 -0.1569
  395MOL0     N54389   1.594   6.278  -0.124  0.7286 -0.1330 -0.2129
  395MOL0     C54390   1.483   6.313  -0.185 -0.1373  0.1851 -0.1945
  395MOL0     C54391   1.418   6.203  -0.223 -0.0339  0.3791  0.8603
  395MOL0     C54392   1.279   6.213  -0.304 -0.1810  0.1897  0.5376
  395MOL0     C54393   1.181   6.310  -0.230  0.0223  0.6887  0.1752
  395MOL0     C54394   1.153   6.269  -0.085 -0.2329 -0.8414  0.3840
  395MOL0     C54395   1.026   6.333  -0.045  0.8641 -0.1170  0.0139
  395MOL0     O54396   0.926   6.248  -0.099  0.3038  0.9425  0.3815
  395MOL0     C54397   0.795   6.282  -0.082  1.2350  1.3578 -0.2573
  395MOL0     C54398   0.691   6.190  -0.108  0.3675 -0.0603  0.0551
  395MOL0     C54399   0.558   6.219  -0.081 -0.2310 -0.0917  0.7137
  395MOL0     C54400   0.463   6.100  -0.101 -0.7328  0.1351 -0.4656
  395MOL0     C54401   0.522   6.355  -0.040  0.5220  0.3092 -0.0280
  395MOL0     C54402   0.380   6.383  -0.005 -0.6058  0.5676  0.3388
  395MOL0     O54403   0.273   6.307  -0.065  0.4660  0.2776 -1.2295
  395MOL0     C54404   0.142   6.345  -0.049 -0.0893 -0.0716 -0.3713
  395MOL0     C54405   0.088   6.480  -0.067  0.1794  0.2491  0.2924
  395MOL0     C54406  -0.050   6.492  -0.037  0.5937  0.1943 -0.0696
  395MOL0     C54407  -0.135   6.392  -0.008 -0.0340 -0.5632  1.0407
  395MOL0     O54408  -0.267   6.425   0.029 -0.4432  0.3215 -1.0905
  395MOL0     C54409  -0.350   6.308   0.018  0.7753 -0.2074 -0.0008
  395MOL0     C54410  -0.488   6.357   0.042  0.0486 -0.4472 -0.0779
  395MOL0     C54411  -0.573   6.355  -0.080 -0.3294  0.4337 -0.6810
  395MOL0     C54412  -0.546   6.461  -0.179 -0.0464 -0.0839  0.0142
  395MOL0     C54413  -0.627   6.437  -0.304  0.0015 -0.3159 -0.7679
  395MOL0     C54414  -0.586   6.305  -0.386  0.1413  0.3404  0.3784
  395MOL0     C54415  -0.630   6.316  -0.532 -0.6876  0.7079  0.0336
  395MOL0     C54416  -0.767   6.265  -0.539 -0.2672 -0.5626 -0.1682
  395MOL0    Cl54417  -0.879   6.394  -0.493 -0.1289 -0.4797  0.3864
  395MOL0     C54418  -0.080   6.263  -0.001 -0.0951  0.7386  0.3605
  395MOL0     C54419   0.052   6.238  -0.021  0.5548 -0.8348 -0.2310
  395MOL0     O54420   0.365   6.478   0.071 -0.1486 -0.4652 -0.2467
  395MOL0     C54421   0.622   6.441  -0.019 -0.1647  0.0920  0.9215
  395MOL0     C54422   0.753   6.404  -0.028 -0.3081  0.3816 -0.5441
  395MOL0     N54423   1.484   6.097  -0.164  0.2791  1.0792 -0.2548
  395MOL0     N54424   1.594   6.144  -0.113  0.7236 -0.2710 -0.5161
  395MOL0     C54425   2.161   6.861   0.293  0.4352 -0.3919  0.5821
  395MOL0     C54426   2.198   6.995   0.317  0.0423 -0.6802  1.4894
  395MOL0     C54427   2.348   7.397   0.468 -0.4679 -0.8072 -0.3687
  395MOL0     C54428   2.443   7.485   0.415 -0.7660 -0.5253 -0.0749
  395MOL0     C54429   2.491   7.606   0.475  0.0342  0.5623  0.4414
  395MOL0     C54430   2.437   7.638   0.595 -0.7792  0.0308  0.0478
  395MOL0     O54431   2.499   7.744   0.653  0.1463 -0.1085 -0.4344
  395MOL0     C54432   2.499   7.754   0.800  0.3926  0.5143  0.4649
  395MOL0     C54433   2.616   7.844   0.834 -0.8059 -0.4002 -0.7287
  395MOL0     C54434   2.633   7.873   0.986 -0.1773  1.0254  0.5573
  395MOL0     C54435   2.512   7.920   1.070 -0.4822 -0.3033  0.0789
  395MOL0     C54436   2.557   7.964   1.199 -0.7804  0.0567 -0.0408
  395MOL0     C54437   2.575   7.983   1.304  0.0348 -0.2758  0.1844
  395MOL0     C54438   2.338   7.559   0.648 -1.2869 -0.4607 -0.0776
  395MOL0     C54439   2.291   7.445   0.594 -0.6024 -0.9548  0.6314
  395MOL0     C54440   2.180   7.369   0.658  0.3761 -0.8664 -0.4128
  395MOL0     H54441   2.179   6.989   0.654 -1.1917 -0.2063 -0.6323
  395MOL0     H54442   2.153   6.742   0.603  2.0205 -0.9297 -1.3115
  395MOL0     H54443   2.073   6.517   0.534 -0.4054 -1.0977  0.2588
  395MOL0     H54444   2.250   6.530   0.514 -1.2336 -1.9453  0.6096
  395MOL0     H54445   2.216   6.397   0.284  0.1327 -0.7420 -0.0518
  395MOL0     H54446   2.173   6.312   0.436 -2.6676  0.5678  1.9021
  395MOL0     H54447   1.925   6.413   0.387  0.9425  1.3578  1.3639
  395MOL0     H54448   1.989   6.441   0.224 -1.3344  1.0395  0.2420
  395MOL0     H54449   2.065   6.197   0.233  1.1986  0.6788  0.3633
  395MOL0     H54450   1.999   6.176   0.386 -2.4209 -2.6155 -1.2303
  395MOL0     H54451   1.775   6.222   0.305 -1.0315 -1.3816 -0.5524
  395MOL0     H54452   1.862   6.083   0.241  0.2315 -0.7639 -1.3817
  395MOL0     H54453   1.915   6.239   0.034  0.2098 -1.0920  1.3480
  395MOL0     H54454   1.780   6.155   0.047  4.5754 -1.5456 -1.1313
  395MOL0     H54455   1.789   6.464   0.089 -0.4070  0.6775  3.1476
  395MOL0     H54456   1.639   6.378   0.134  2.4825  0.9580  2.0771
  395MOL0     H54457   1.652   6.477  -0.099  0.5213  0.6283 -0.9987
  395MOL0     H54458   1.783   6.353  -0.128 -0.1919 -3.5804  2.2853
  395MOL0     H54459   1.455   6.417  -0.192  1.4226  0.6776  0.3701
  395MOL0     H54460   1.251   6.108  -0.317  0.1904  0.3286 -1.9866
  395MOL0     H54461   1.304   6.248  -0.405 -3.5518  1.1756 -0.0839
  395MOL0     H54462   1.218   6.413  -0.234  0.1518  0.6172 -2.6103
  395MOL0     H54463   1.088   6.304  -0.286  0.2869 -1.2265 -0.1541
  395MOL0     H54464   1.155   6.159  -0.079  2.4251 -1.0734 -2.1159
  395MOL0     H54465   1.222   6.310  -0.011 -0.4113 -2.0587  1.2761
  395MOL0     H54466   1.021   6.328   0.064  0.5919 -4.5312  0.0032
  395MOL0     H54467   1.003   6.431  -0.088 -1.7442  0.3954  2.3145
  395MOL0     H54468   0.727   6.092  -0.136  2.1700 -0.0439  2.0552
  395MOL0     H54469   0.406   6.117  -0.193  1.6911 -0.6011 -2.2050
  395MOL0     H54470   0.404   6.099  -0.008 -0.7980  0.6147 -0.5031
  395MOL0     H54471   0.514   6.004  -0.116 -0.3249  0.3723 -0.5932
  395MOL0     H54472   0.146   6.566  -0.100 -0.2618 -0.3715 -2.3629
  395MOL0     H54473  -0.097   6.587  -0.014 -0.6935 -0.8846  2.0092
  395MOL0     H54474  -0.334   6.250  -0.074  3.8842 -0.9905  0.9109
  395MOL0     H54475  -0.332   6.238   0.100  4.0754  0.4984  0.0350
  395MOL0     H54476  -0.537   6.296   0.119  0.1118 -1.4061 -0.7808
  395MOL0     H54477  -0.485   6.460   0.080  3.6547  0.5596 -2.5492
  395MOL0     H54478  -0.678   6.371  -0.054 -0.6863 -2.9725  0.4436
  395MOL0     H54479  -0.558   6.257  -0.127  1.0198 -0.3106  1.2037
  395MOL0     H54480  -0.442   6.456  -0.214  0.5798 -2.6183  1.9884
  395MOL0     H54481  -0.565   6.561  -0.138  1.3876  0.3444 -0.3019
  395MOL0     H54482  -0.731   6.422  -0.275  0.6282 -1.5189  1.0960
  395MOL0     H54483  -0.620   6.532  -0.356 -2.2909  0.6317  0.5124
  395MOL0     H54484  -0.624   6.213  -0.341  2.4352 -0.7365  0.2775
  395MOL0     H54485  -0.477   6.301  -0.398 -0.0629  1.4674 -2.7854
  395MOL0     H54486  -0.560   6.265  -0.599 -1.8769 -0.8532 -0.0681
  395MOL0     H54487  -0.639   6.420  -0.566  2.5759  2.0168  2.5512
  395MOL0     H54488  -0.787   6.175  -0.481  1.6518 -0.3753  0.8450
  395MOL0     H54489  -0.788   6.248  -0.645  1.6758  3.2131 -1.3268
  395MOL0     H54490  -0.134   6.178   0.039  1.7755 -1.6285 -1.8350
  395MOL0     H54491   0.089   6.136  -0.019  0.2563 -0.9379  1.2554
  395MOL0     H54492   0.609   6.543   0.016 -0.2459 -0.0553  1.3243
  395MOL0     H54493   0.825   6.482  -0.005  2.2067 -2.1433  0.7615
  395MOL0     H54494   2.149   6.817   0.194  2.9390  0.5119 -0.2048
  395MOL0     H54495   2.209   7.053   0.226  2.0199 -0.6954  1.6715
  395MOL0     H54496   2.485   7.450   0.321 -2.9167  2.9248 -2.5539
  395MOL0     H54497   2.559   7.679   0.432  1.8548  0.1226  2.4346
  395MOL0     H54498   2.405   7.798   0.836 -0.0096 -0.2503  0.3774
  395MOL0     H54499   2.526   7.655   0.840 -1.9641  0.1247  1.2523
  395MOL0     H54500   2.594   7.936   0.779  2.1931 -1.5714 -4.3035
  395MOL0     H54501   2.708   7.796   0.799 -2.4446 -4.3964 -0.1099
  395MOL0     H54502   2.663   7.779   1.033 -1.0024 -0.8187 -2.3114
  395MOL0     H54503   2.719   7.941   0.993  2.9989 -2.5322 -0.2830
  395MOL0     H54504   2.441   7.838   1.087  1.0058 -1.1434  2.8007
  395MOL0     H54505   2.456   7.995   1.014 -0.2219  0.1974  0.4847
  395MOL0     H54506   2.593   8.023   1.402  1.5556  3.6516 -1.5031
  395MOL0     H54507   2.297   7.597   0.741  0.1653  2.8609 -0.6349
  395MOL0     H54508   2.092   7.353   0.595 -0.5192  1.4015  0.1450
  395MOL0     H54509   2.227   7.279   0.697  4.4557  1.1869 -0.1112
  395MOL0     H54510   2.135   7.418   0.745  1.3934 -1.6037  0.5452
  396MOL0     O54511  10.061   4.642   1.063  0.4587  0.6143 -0.4250
  396MOL0     C54512  10.124   4.703   1.142 -0.3135 -0.5359  0.3846
  396MOL0     O54513  10.259   4.682   1.169  0.2292 -0.0553 -0.6990
  396MOL0     C54514  10.327   4.582   1.096  0.0625 -0.0190 -0.6954
  396MOL0     C54515  10.432   4.618   1.004  0.2080 -0.4752 -0.1356
  396MOL0     C54516  10.476   4.521   0.919  0.5182  0.3970 -0.3102
  396MOL0     C54517  10.428   4.389   0.923 -0.5079  0.2451  0.1230
  396MOL0     O54518  10.466   4.288   0.831  0.2811  0.1497  0.0512
  396MOL0     C54519  10.569   4.305   0.736  0.2970 -0.3265  0.2786
  396MOL0     C54520  10.714   4.306   0.794  0.1525 -0.0338 -0.4369
  396MOL0     C54521  10.740   4.165   0.849  0.5544  0.3161 -0.3875
  396MOL0     C54522  10.825   4.175   0.987 -0.4307  0.1430 -0.1412
  396MOL0     C54523  10.807   4.053   1.083 -0.8879 -0.5185  0.1180
  396MOL0     C54524  10.913   4.056   1.192 -0.5562 -0.1802  0.3168
  396MOL0     C54525  10.922   3.904   1.247 -0.5375 -0.1413 -0.0314
  396MOL0     C54526  10.967   3.900   1.400  0.4363 -0.0172 -0.2232
  396MOL0     N54527  11.110   3.930   1.411 -0.4083 -0.6621  0.2085
  396MOL0     C54528  11.213   3.836   1.428  0.2167  0.4733 -0.0990
  396MOL0     C54529  11.328   3.914   1.424 -0.6431 -0.7081  0.1834
  396MOL0     C54530  11.465   3.874   1.442  0.0793 -0.0960  0.2847
  396MOL0     C54531  11.475   3.733   1.394 -0.4654  0.4129  0.3538
  396MOL0     C54532  11.626   3.684   1.410  0.3055  0.4082 -0.3757
  396MOL0     C54533  11.654   3.569   1.308  0.7699  0.4622 -0.0945
  396MOL0     O54534  11.772   3.504   1.357 -0.1074  0.0825  0.2640
  396MOL0     C54535  11.754   3.412   1.456 -0.1590 -0.4010 -1.4464
  396MOL0     C54536  11.866   3.337   1.493  0.5719 -0.2816 -0.2913
  396MOL0     C54537  11.857   3.233   1.591  0.2088 -1.0196  0.7841
  396MOL0     C54538  11.993   3.163   1.604 -0.1275  0.6001  0.9900
  396MOL0     C54539  11.736   3.196   1.654  0.2222 -0.4011 -0.3299
  396MOL0     C54540  11.719   3.074   1.735  0.3645  0.5670 -0.0608
  396MOL0     O54541  11.768   2.953   1.690 -0.3807  0.3882  0.4883
  396MOL0     C54542  11.717   2.831   1.753  0.2463 -0.4514  0.8334
  396MOL0     C54543  11.634   2.742   1.685  0.0758 -0.4680 -0.4185
  396MOL0     C54544  11.611   2.616   1.740 -0.4909  0.5413  0.5589
  396MOL0     C54545  11.638   2.595   1.878 -0.1898  0.9135  0.8667
  396MOL0     O54546  11.600   2.484   1.946 -0.1550  0.6786 -0.2961
  396MOL0     C54547  11.556   2.362   1.886 -0.5477  0.3417  0.5838
  396MOL0     C54548  11.659   2.261   1.820  0.2822 -0.2367  0.1807
  396MOL0     C54549  11.570   2.163   1.759 -0.1879  0.4481  0.5497
  396MOL0     C54550  11.646   2.049   1.704  0.6832  0.4015  0.2862
  396MOL0     C54551  11.571   1.968   1.603 -0.0686 -0.1940 -0.5048
  396MOL0     C54552  11.631   1.831   1.553  0.3808  1.2025 -0.0848
  396MOL0     C54553  11.528   1.729   1.491 -0.1716 -0.5992  0.3717
  396MOL0     C54554  11.453   1.776   1.366  0.1104 -0.0437  0.6006
  396MOL0    Cl54555  11.362   1.644   1.287 -0.0538 -0.4117  0.3427
  396MOL0     C54556  11.701   2.689   1.951  0.7618  0.2471  0.5530
  396MOL0     C54557  11.733   2.808   1.888  0.8134  0.0035  0.1011
  396MOL0     O54558  11.637   3.091   1.822  1.3357  1.0126  0.4413
  396MOL0     C54559  11.631   3.285   1.628  0.2659  0.9271  0.6817
  396MOL0     C54560  11.638   3.393   1.534  0.0306  0.6241  0.1656
  396MOL0     N54561  11.292   4.049   1.407 -0.1429 -0.1990 -0.4029
  396MOL0     N54562  11.168   4.052   1.391 -0.4360  0.2530 -1.0053
  396MOL0     C54563  10.348   4.350   1.028  0.8689  0.6309 -0.3662
  396MOL0     C54564  10.290   4.447   1.112 -0.1788  0.1588 -0.1069
  396MOL0     C54565  10.059   4.820   1.194  0.2971  0.1165  1.0787
  396MOL0     C54566   9.949   4.804   1.276 -0.0483 -0.8284 -0.4862
  396MOL0     C54567   9.889   4.915   1.341  0.1797  1.5810 -0.5415
  396MOL0     C54568   9.936   5.040   1.318 -0.1565 -1.0014 -0.0542
  396MOL0     O54569   9.857   5.147   1.371 -0.9723 -0.1945  0.2285
  396MOL0     C54570   9.890   5.285   1.339 -0.0159 -0.2826  0.0501
  396MOL0     C54571   9.976   5.352   1.449 -1.1212 -0.1121  0.3382
  396MOL0     C54572   9.963   5.513   1.443  0.3857  0.3499 -0.0447
  396MOL0     C54573   9.913   5.584   1.576  0.1643  1.1451 -0.1021
  396MOL0     C54574   9.912   5.731   1.554  0.1083 -0.4995 -0.4297
  396MOL0     C54575   9.905   5.853   1.545  0.1962 -0.8110  0.7066
  396MOL0     C54576  10.052   5.063   1.235 -0.0686  0.5762 -0.6917
  396MOL0     C54577  10.112   4.948   1.173 -0.3265 -0.1689 -0.1274
  396MOL0     C54578  10.241   4.975   1.090  0.2056 -0.0282  0.4619
  396MOL0     H54579  10.465   4.719   0.984 -3.2562  0.6345 -0.9268
  396MOL0     H54580  10.544   4.553   0.840 -0.4791  0.0925 -1.3143
  396MOL0     H54581  10.556   4.400   0.683 -0.9991  0.9001  2.6634
  396MOL0     H54582  10.571   4.229   0.657 -0.7010 -1.3083  1.1621
  396MOL0     H54583  10.779   4.337   0.712 -0.2496 -0.7988 -1.0622
  396MOL0     H54584  10.729   4.380   0.873 -1.0448 -1.0257  0.7554
  396MOL0     H54585  10.649   4.106   0.863  0.9506 -0.3367 -0.5179
  396MOL0     H54586  10.809   4.115   0.780 -0.7384 -1.2379 -0.6205
  396MOL0     H54587  10.929   4.187   0.957 -0.7031  0.6063 -0.9225
  396MOL0     H54588  10.799   4.264   1.045 -3.8239 -0.6773 -0.1977
  396MOL0     H54589  10.822   3.963   1.022 -1.7133 -1.1466  0.8195
  396MOL0     H54590  10.705   4.049   1.123 -1.3117  2.4313 -0.4402
  396MOL0     H54591  11.013   4.083   1.156 -0.0596 -0.3862  1.4946
  396MOL0     H54592  10.884   4.130   1.267 -1.8347 -1.7674  1.4646
  396MOL0     H54593  10.997   3.847   1.191 -0.8322 -1.1129  0.5374
  396MOL0     H54594  10.827   3.850   1.238 -0.1620 -1.0439  1.2575
  396MOL0     H54595  10.912   3.963   1.470  0.5486  0.1293 -0.2655
  396MOL0     H54596  10.957   3.800   1.443  2.4855  0.5125  1.7019
  396MOL0     H54597  11.205   3.728   1.438  0.3793  0.4914  0.2222
  396MOL0     H54598  11.491   3.874   1.549 -0.7413 -0.3876  0.4897
  396MOL0     H54599  11.531   3.929   1.374 -0.5202 -1.5985 -1.6046
  396MOL0     H54600  11.405   3.671   1.452  0.4735  1.4079  2.6569
  396MOL0     H54601  11.441   3.723   1.290 -0.1977  1.6389  0.1313
  396MOL0     H54602  11.698   3.765   1.392  0.1338  0.4995 -0.6646
  396MOL0     H54603  11.641   3.653   1.514  0.8167  0.6719 -0.3679
  396MOL0     H54604  11.575   3.494   1.300 -0.9656  2.2524 -0.5526
  396MOL0     H54605  11.655   3.610   1.206 -1.8361 -0.8523 -0.7274
  396MOL0     H54606  11.954   3.364   1.435 -0.8032  0.0413 -2.3246
  396MOL0     H54607  11.990   3.107   1.698  0.0699 -0.2702  0.4873
  396MOL0     H54608  12.074   3.236   1.616  0.7298 -0.5810  2.9138
  396MOL0     H54609  12.024   3.107   1.515 -2.1368 -0.5787  0.9807
  396MOL0     H54610  11.618   2.756   1.579  0.4062  0.3701 -0.3627
  396MOL0     H54611  11.551   2.540   1.692 -0.1042 -0.1295  1.1098
  396MOL0     H54612  11.506   2.316   1.971 -1.6490  2.7375  1.3070
  396MOL0     H54613  11.477   2.385   1.813  0.2656  0.7812 -0.1833
  396MOL0     H54614  11.725   2.297   1.741  0.5224 -1.2830 -0.1067
  396MOL0     H54615  11.721   2.219   1.900 -1.5574  0.3357  2.0019
  396MOL0     H54616  11.510   2.205   1.678  1.9529  1.6453 -0.5058
  396MOL0     H54617  11.502   2.120   1.833 -1.0249  1.6585  0.5125
  396MOL0     H54618  11.679   1.988   1.788  1.5126  0.5930  0.1065
  396MOL0     H54619  11.743   2.082   1.665  1.0154  1.0219  1.5664
  396MOL0     H54620  11.480   1.924   1.646 -1.0305  2.2852  0.1642
  396MOL0     H54621  11.545   2.033   1.519  0.0608 -2.3533 -2.2878
  396MOL0     H54622  11.685   1.777   1.631 -0.5093  1.7171  0.9183
  396MOL0     H54623  11.710   1.852   1.481  0.3675  0.3625 -0.3536
  396MOL0     H54624  11.453   1.690   1.560 -0.1559 -2.7897 -0.7612
  396MOL0     H54625  11.599   1.650   1.462  0.5727 -0.5426  1.8892
  396MOL0     H54626  11.509   1.828   1.287  0.9507 -1.4851  0.2245
  396MOL0     H54627  11.380   1.852   1.395  1.3276  1.4336 -0.0619
  396MOL0     H54628  11.721   2.671   2.056  0.7606  1.1949  0.7272
  396MOL0     H54629  11.771   2.886   1.953  1.7791  0.1727 -0.6426
  396MOL0     H54630  11.532   3.260   1.665  0.4818  2.6187  2.5124
  396MOL0     H54631  11.546   3.445   1.508 -0.4849  0.8578  2.3102
  396MOL0     H54632  10.327   4.244   1.044 -1.2131  1.0982  0.3830
  396MOL0     H54633  10.229   4.418   1.197  0.5836 -1.7702 -0.1596
  396MOL0     H54634   9.897   4.709   1.282 -1.9001 -0.0141 -2.3812
  396MOL0     H54635   9.805   4.884   1.402  1.6901 -4.3057 -0.9271
  396MOL0     H54636   9.934   5.284   1.239  1.2205 -1.0378  0.5657
  396MOL0     H54637   9.792   5.333   1.338  0.0098 -0.0107 -3.5721
  396MOL0     H54638  10.083   5.334   1.440 -0.8882 -0.5224  3.1243
  396MOL0     H54639   9.937   5.312   1.543 -2.2105 -0.9201 -0.4330
  396MOL0     H54640  10.052   5.561   1.400 -3.1480  3.5870 -4.7037
  396MOL0     H54641   9.877   5.539   1.381 -0.8252  0.4975  1.6373
  396MOL0     H54642   9.975   5.561   1.663  0.1252 -3.4514 -1.0463
  396MOL0     H54643   9.810   5.558   1.605  0.4276 -0.7405 -0.6922
  396MOL0     H54644   9.904   5.960   1.556 -0.7384 -0.4946 -1.7404
  396MOL0     H54645  10.104   5.157   1.221  1.5066 -0.3950 -1.7572
  396MOL0     H54646  10.214   4.950   0.986  1.7814 -0.4903  0.1355
  396MOL0     H54647  10.283   5.076   1.098  3.3320 -1.3432  2.9329
  396MOL0     H54648  10.331   4.917   1.114  2.5143  2.0057 -2.4348
  397MOL0     O54649   3.835   3.451   4.915 -0.0824 -0.6216 -1.1978
  397MOL0     C54650   3.767   3.536   4.975 -0.5391 -0.0451 -0.4925
  397MOL0     O54651   3.758   3.545   5.113 -0.0630  0.1772  0.1387
  397MOL0     C54652   3.855   3.488   5.199 -0.2435  0.3771 -0.3534
  397MOL0     C54653   3.894   3.353   5.202 -0.5693 -0.0427  0.6256
  397MOL0     C54654   3.990   3.304   5.290  0.3707  0.2617  0.9158
  397MOL0     C54655   4.054   3.383   5.380  0.6071  0.1471  0.9195
  397MOL0     O54656   4.152   3.321   5.450  0.0168 -0.5937 -0.6539
  397MOL0     C54657   4.247   3.413   5.520  0.7135  0.7443 -0.0428
  397MOL0     C54658   4.382   3.351   5.559 -0.3979  0.4557 -0.1161
  397MOL0     C54659   4.361   3.222   5.630  0.0671 -0.1412 -0.3388
  397MOL0     C54660   4.256   3.243   5.746 -0.8296  0.0080  0.0388
  397MOL0     C54661   4.271   3.124   5.841 -0.0042 -0.1652  0.1099
  397MOL0     C54662   4.165   3.134   5.964  0.1915  1.0943  0.5523
  397MOL0     C54663   4.206   3.021   6.066 -0.2843 -0.1888  0.0692
  397MOL0     C54664   4.098   2.987   6.168 -0.2445  0.5508 -0.3408
  397MOL0     N54665   3.989   2.910   6.123 -0.0503  0.0136 -0.2867
  397MOL0     C54666   3.992   2.782   6.068  0.9069  0.6654 -0.7714
  397MOL0     C54667   3.861   2.753   6.060  0.3659  0.7646  0.0380
  397MOL0     C54668   3.790   2.647   5.989  0.2238 -0.3800 -0.3951
  397MOL0     C54669   3.845   2.506   6.021  0.6853 -0.2863  0.5170
  397MOL0     C54670   3.815   2.452   6.158  0.2208  0.3302 -0.5526
  397MOL0     C54671   3.873   2.315   6.181  0.5880  1.2500 -0.5483
  397MOL0     O54672   3.994   2.334   6.245 -0.5986 -0.0336  0.0846
  397MOL0     C54673   4.071   2.226   6.275 -0.1990 -0.1628  0.1448
  397MOL0     C54674   4.200   2.263   6.322 -0.4489  0.4970  0.4885
  397MOL0     C54675   4.297   2.160   6.332  0.4153  0.5104  0.3210
  397MOL0     C54676   4.437   2.197   6.383  0.2897  0.3391 -0.4257
  397MOL0     C54677   4.264   2.021   6.314 -0.4383 -0.1472  0.1282
  397MOL0     C54678   4.356   1.905   6.339  0.5653  0.7132 -0.1683
  397MOL0     O54679   4.298   1.785   6.337 -0.2861  0.1083  0.5930
  397MOL0     C54680   4.366   1.680   6.396  0.1866 -0.7047 -0.0571
  397MOL0     C54681   4.475   1.618   6.334  0.1342  0.4359  0.5788
  397MOL0     C54682   4.545   1.505   6.383 -0.0907 -0.1114 -0.1822
  397MOL0     C54683   4.487   1.439   6.489 -0.3156 -0.4810  0.0574
  397MOL0     O54684   4.536   1.310   6.524 -0.0311 -0.1846 -0.2780
  397MOL0     C54685   4.443   1.204   6.535  0.9398  0.8788 -0.0460
  397MOL0     C54686   4.529   1.076   6.508  0.4440  0.1998 -0.3762
  397MOL0     C54687   4.569   1.070   6.360  0.4693 -0.1194  0.6896
  397MOL0     C54688   4.720   1.060   6.340 -0.0249  1.0866 -0.1610
  397MOL0     C54689   4.757   0.942   6.248 -0.1936 -0.0051 -0.0270
  397MOL0     C54690   4.737   0.984   6.106  0.8660 -0.3149 -0.0666
  397MOL0     C54691   4.794   0.884   6.008  0.5525  0.8541  0.3406
  397MOL0     C54692   4.711   0.875   5.882 -0.1411 -0.1790 -0.1822
  397MOL0    Cl54693   4.730   1.032   5.768 -0.2348 -0.1635  0.5184
  397MOL0     C54694   4.381   1.500   6.559 -0.2845  0.2962  0.1081
  397MOL0     C54695   4.321   1.615   6.514  0.0611  0.0529 -0.9327
  397MOL0     O54696   4.471   1.924   6.381 -0.1253 -0.1939 -0.2560
  397MOL0     C54697   4.137   1.990   6.272  0.1429 -0.0014 -0.0697
  397MOL0     C54698   4.041   2.090   6.252  0.2807 -0.5809  0.6441
  397MOL0     N54699   3.787   2.859   6.098  0.2358  0.3296  0.1431
  397MOL0     N54700   3.865   2.947   6.143  1.3777 -0.7447 -0.2683
  397MOL0     C54701   4.008   3.520   5.389 -0.1004 -0.8881  0.4105
  397MOL0     C54702   3.916   3.569   5.301  0.4338  0.0334  0.5444
  397MOL0     C54703   3.650   3.595   4.908  0.9384  0.0480 -0.6768
  397MOL0     C54704   3.595   3.535   4.789 -0.6119  0.3790 -0.4594
  397MOL0     C54705   3.484   3.589   4.742  0.6880  0.1927  0.5013
  397MOL0     C54706   3.420   3.710   4.781  0.0595  1.1547 -0.1483
  397MOL0     O54707   3.312   3.769   4.721  0.8130  0.1421  0.4046
  397MOL0     C54708   3.211   3.681   4.660 -1.0213 -0.3033 -0.0969
  397MOL0     C54709   3.226   3.684   4.516 -0.8023 -0.5693  0.1494
  397MOL0     C54710   3.108   3.602   4.458 -1.0962  0.6536 -0.5339
  397MOL0     C54711   3.162   3.478   4.383 -0.6916  0.0797  1.0473
  397MOL0     C54712   3.066   3.421   4.285 -0.2467  0.1144  0.6323
  397MOL0     C54713   2.988   3.385   4.201  0.3821  0.4004  1.1603
  397MOL0     C54714   3.470   3.774   4.898 -0.4739 -0.5431  0.0285
  397MOL0     C54715   3.583   3.716   4.967  0.3681  0.0788  0.8575
  397MOL0     C54716   3.653   3.815   5.067 -0.4767 -0.3150  0.6073
  397MOL0     H54717   3.853   3.285   5.128  0.3276  0.4866 -0.3922
  397MOL0     H54718   4.013   3.198   5.294  2.2110  0.6642  2.4711
  397MOL0     H54719   4.194   3.436   5.613  0.4736 -0.5854  0.1728
  397MOL0     H54720   4.269   3.495   5.451  0.4751 -0.2426 -1.3288
  397MOL0     H54721   4.441   3.336   5.468 -1.4474  2.5629 -1.2140
  397MOL0     H54722   4.453   3.418   5.611 -0.2894 -0.9374  1.6285
  397MOL0     H54723   4.334   3.150   5.552  1.5638 -2.4401  1.1328
  397MOL0     H54724   4.458   3.194   5.671 -0.2153  1.2927  1.4387
  397MOL0     H54725   4.267   3.332   5.809  0.0793 -1.2409  1.7462
  397MOL0     H54726   4.159   3.224   5.700 -0.5796 -0.6995 -0.2104
  397MOL0     H54727   4.372   3.108   5.881 -0.0100  2.1661  1.2252
  397MOL0     H54728   4.254   3.037   5.777  2.3369  0.2777 -1.2384
  397MOL0     H54729   4.178   3.230   6.015 -0.3255  1.0209  0.8238
  397MOL0     H54730   4.061   3.135   5.931 -0.0029  3.2159  1.1405
  397MOL0     H54731   4.296   3.056   6.119 -0.3323  0.6198 -0.3710
  397MOL0     H54732   4.239   2.933   6.010  0.4649 -0.8681  1.5311
  397MOL0     H54733   4.150   2.946   6.255 -0.7117  2.6345  1.0020
  397MOL0     H54734   4.047   3.082   6.187 -2.9057 -0.7580 -0.4400
  397MOL0     H54735   4.075   2.734   6.019 -0.1912 -2.6887  0.3368
  397MOL0     H54736   3.807   2.665   5.883 -0.2074  2.6611 -0.0229
  397MOL0     H54737   3.684   2.649   6.016  0.3098 -2.5211  0.2778
  397MOL0     H54738   3.801   2.454   5.935 -2.2116  0.7041  1.2920
  397MOL0     H54739   3.954   2.494   6.017  0.8096  1.0010 -0.4093
  397MOL0     H54740   3.854   2.518   6.235 -0.5126 -0.4509  0.5147
  397MOL0     H54741   3.706   2.446   6.157  0.2337 -0.7910  1.3589
  397MOL0     H54742   3.811   2.268   6.259  2.1202  0.7977  0.4520
  397MOL0     H54743   3.873   2.257   6.088  2.6598  1.1351 -0.5088
  397MOL0     H54744   4.215   2.368   6.345 -0.4721  0.8206 -0.8876
  397MOL0     H54745   4.460   2.304   6.374  1.4308  0.0579 -0.9373
  397MOL0     H54746   4.518   2.149   6.328  3.1464  4.1512  0.0290
  397MOL0     H54747   4.435   2.172   6.490 -4.2436 -0.5052 -0.5152
  397MOL0     H54748   4.521   1.671   6.251 -1.5008  2.5566  0.9350
  397MOL0     H54749   4.636   1.468   6.337 -0.7231  0.1013 -1.6494
  397MOL0     H54750   4.397   1.191   6.633  2.7484 -3.3872  0.4410
  397MOL0     H54751   4.356   1.199   6.468 -0.7962 -3.7803  2.1439
  397MOL0     H54752   4.619   1.072   6.570  0.0272 -0.1164  0.2122
  397MOL0     H54753   4.463   0.989   6.509  0.2488  0.2517 -2.8978
  397MOL0     H54754   4.530   1.150   6.296 -0.2306  0.9864  2.4261
  397MOL0     H54755   4.534   0.973   6.323  0.8706  0.5598 -1.6786
  397MOL0     H54756   4.774   1.038   6.433  2.4038  1.6129 -1.3467
  397MOL0     H54757   4.761   1.151   6.295 -1.1982  0.8823 -1.7299
  397MOL0     H54758   4.862   0.922   6.268  0.4630  2.8221 -0.2919
  397MOL0     H54759   4.693   0.854   6.264 -1.4634  0.3397 -2.6195
  397MOL0     H54760   4.766   1.088   6.089 -2.8398  0.8170 -0.2980
  397MOL0     H54761   4.628   0.983   6.097  0.6454 -1.9843  2.0425
  397MOL0     H54762   4.804   0.781   6.044  1.7190  0.8332  0.0226
  397MOL0     H54763   4.899   0.913   5.992  0.3422  0.2654 -2.5351
  397MOL0     H54764   4.606   0.869   5.915 -0.6599 -1.5436 -1.9329
  397MOL0     H54765   4.730   0.789   5.817 -0.0669  0.8580 -1.5791
  397MOL0     H54766   4.342   1.444   6.643  0.8509 -0.1449  0.3590
  397MOL0     H54767   4.230   1.661   6.551 -0.0304  2.7123 -3.9797
  397MOL0     H54768   4.098   1.894   6.240  0.5150  0.1014 -0.8600
  397MOL0     H54769   3.951   2.076   6.193 -0.2635  0.8121  1.0970
  397MOL0     H54770   4.056   3.588   5.459 -0.3583 -0.6335  0.3406
  397MOL0     H54771   3.883   3.672   5.301 -0.5178 -0.2114 -1.6780
  397MOL0     H54772   3.642   3.440   4.763 -2.1509 -0.8169  0.9114
  397MOL0     H54773   3.459   3.518   4.664  2.4138 -1.3451  1.2624
  397MOL0     H54774   3.222   3.581   4.704  0.4372 -0.3180 -0.4306
  397MOL0     H54775   3.112   3.721   4.681 -0.5789  2.6093 -2.7684
  397MOL0     H54776   3.320   3.639   4.484  2.0816  2.1197  3.8425
  397MOL0     H54777   3.221   3.787   4.479 -0.1799 -0.0441  1.4432
  397MOL0     H54778   3.042   3.562   4.536 -2.0152  3.8060  0.4991
  397MOL0     H54779   3.041   3.664   4.397  0.7210  1.4162 -1.8457
  397MOL0     H54780   3.185   3.392   4.447 -1.1532 -1.8766 -1.2333
  397MOL0     H54781   3.243   3.513   4.318 -1.5977  0.7277  0.2351
  397MOL0     H54782   2.916   3.366   4.123  0.0483  1.8781  1.0633
  397MOL0     H54783   3.422   3.863   4.936 -1.3681  0.3290 -2.9091
  397MOL0     H54784   3.606   3.803   5.166  5.8475 -2.6968  3.8942
  397MOL0     H54785   3.758   3.787   5.081 -0.5121 -0.6521  0.2198
  397MOL0     H54786   3.646   3.917   5.030  0.8720 -0.0436  1.0600
  398MOL0     O54787   5.813   0.463   7.756  0.1269 -0.0243 -0.3026
  398MOL0     C54788   5.847   0.576   7.796  0.7350  0.7854  0.2229
  398MOL0     O54789   5.821   0.693   7.735  0.3545  0.4338 -0.6851
  398MOL0     C54790   5.822   0.705   7.600  0.0695 -0.5390  0.8022
  398MOL0     C54791   5.765   0.825   7.556  0.7356 -0.1566  0.4334
  398MOL0     C54792   5.764   0.850   7.419 -0.1985 -0.1909 -0.0379
  398MOL0     C54793   5.820   0.769   7.324 -0.0763  0.3504  0.3085
  398MOL0     O54794   5.795   0.802   7.193 -1.1474  0.2912 -0.1692
  398MOL0     C54795   5.876   0.745   7.091  1.1300  1.3431  0.6606
  398MOL0     C54796   5.801   0.770   6.963  0.9977  0.6049 -0.4863
  398MOL0     C54797   5.893   0.798   6.832 -0.2860  0.1844  0.5846
  398MOL0     C54798   5.993   0.685   6.806  0.3926  0.4049 -0.1959
  398MOL0     C54799   6.088   0.690   6.681 -0.7075  1.4224  0.4208
  398MOL0     C54800   6.023   0.714   6.550 -0.4002 -0.9831  0.3783
  398MOL0     C54801   5.892   0.642   6.528  1.2168 -0.1304  0.0410
  398MOL0     C54802   5.868   0.620   6.381  0.4639 -0.4218  0.1170
  398MOL0     N54803   5.851   0.746   6.297  0.2145  0.7649 -0.7123
  398MOL0     C54804   5.728   0.807   6.270  0.2621  0.0613 -0.1179
  398MOL0     C54805   5.762   0.906   6.184 -0.3007  0.1163  0.1593
  398MOL0     C54806   5.652   0.996   6.115 -0.5232  0.9611  0.7192
  398MOL0     C54807   5.635   1.129   6.188 -0.2523 -1.4287 -0.7437
  398MOL0     C54808   5.645   1.257   6.099  1.4592  0.5719 -0.5592
  398MOL0     C54809   5.519   1.323   6.070 -0.1844  0.1263  0.1332
  398MOL0     O54810   5.535   1.429   5.978 -0.1875 -0.2684  0.3337
  398MOL0     C54811   5.437   1.506   5.933  0.2185  0.8548  0.6339
  398MOL0     C54812   5.471   1.630   5.870  0.3354 -0.0153 -0.8337
  398MOL0     C54813   5.377   1.723   5.827  0.7915 -0.5831  0.2842
  398MOL0     C54814   5.443   1.856   5.777  0.9783  0.6744  0.4291
  398MOL0     C54815   5.235   1.687   5.824 -0.3495  0.8448 -0.3071
  398MOL0     C54816   5.140   1.769   5.759  0.3393 -0.2443  0.0617
  398MOL0     O54817   5.022   1.784   5.831  0.2806  0.2134 -0.1196
  398MOL0     C54818   4.907   1.817   5.763  0.1876  0.5877  0.1628
  398MOL0     C54819   4.843   1.932   5.783 -0.0197 -0.8452 -0.9961
  398MOL0     C54820   4.728   1.969   5.721  0.2922  0.3655  0.2170
  398MOL0     C54821   4.675   1.893   5.614  0.7094 -0.1835 -0.4523
  398MOL0     O54822   4.560   1.922   5.542  0.2333 -0.3764 -0.0164
  398MOL0     C54823   4.554   2.052   5.499  0.2241  0.6804 -1.0531
  398MOL0     C54824   4.422   2.086   5.438 -0.3458  0.0745  0.5738
  398MOL0     C54825   4.396   2.237   5.412 -0.9920  0.0936 -0.5694
  398MOL0     C54826   4.412   2.271   5.266  0.5252 -0.6746 -0.6253
  398MOL0     C54827   4.435   2.414   5.252 -0.0367 -0.7500  0.7091
  398MOL0     C54828   4.388   2.459   5.108  0.5652  0.3340  0.4648
  398MOL0     C54829   4.483   2.580   5.065  0.9331  0.5142  0.3749
  398MOL0     C54830   4.457   2.626   4.919 -0.3734 -0.3317 -0.8254
  398MOL0    Cl54831   4.296   2.681   4.893 -0.1593  0.6151  0.1092
  398MOL0     C54832   4.739   1.769   5.595 -0.6986  0.2302  0.3092
  398MOL0     C54833   4.866   1.738   5.657  0.0254  0.9194 -0.1675
  398MOL0     O54834   5.162   1.819   5.651 -0.0604 -0.9178 -0.4290
  398MOL0     C54835   5.200   1.558   5.877 -0.4412 -0.7843  0.3507
  398MOL0     C54836   5.302   1.480   5.935 -0.2823 -0.2220  0.7310
  398MOL0     N54837   5.893   0.908   6.157 -0.5017  0.5776  0.2200
  398MOL0     N54838   5.946   0.825   6.237 -0.1489 -0.2265  0.7198
  398MOL0     C54839   5.887   0.655   7.371 -0.4291  0.8894  0.1009
  398MOL0     C54840   5.892   0.618   7.504 -0.2118  0.0836 -0.3660
  398MOL0     C54841   5.897   0.598   7.933 -0.6213  0.8415  0.7933
  398MOL0     C54842   5.914   0.725   7.998  0.5182 -0.4376  0.6241
  398MOL0     C54843   5.968   0.754   8.120  0.3351  0.1710 -0.2588
  398MOL0     C54844   6.027   0.645   8.189  1.1669 -0.6379 -0.9739
  398MOL0     O54845   6.070   0.658   8.320 -0.3286 -0.3150  0.1026
  398MOL0     C54846   6.183   0.752   8.345  0.3032 -0.2715  0.3148
  398MOL0     C54847   6.306   0.672   8.364  0.8750 -0.3402 -0.2858
  398MOL0     C54848   6.405   0.748   8.453 -0.2746 -0.6003 -0.7984
  398MOL0     C54849   6.392   0.701   8.591  0.2455  0.1588  0.0175
  398MOL0     C54850   6.465   0.778   8.695  0.6451  1.1651 -0.1887
  398MOL0     C54851   6.500   0.837   8.787  0.2089  0.2390 -1.1189
  398MOL0     C54852   6.029   0.519   8.131 -0.5850 -0.4854 -0.5876
  398MOL0     C54853   5.959   0.490   8.003 -0.2765 -0.7927  0.2008
  398MOL0     C54854   5.978   0.353   7.947  0.1376  0.3371 -1.1722
  398MOL0     H54855   5.730   0.903   7.623  1.0621  0.0313  0.3869
  398MOL0     H54856   5.714   0.940   7.385 -1.3598 -0.1533  1.6376
  398MOL0     H54857   5.889   0.637   7.102 -2.5110  0.8496  1.2753
  398MOL0     H54858   5.980   0.781   7.098  2.0492 -0.8801 -0.5724
  398MOL0     H54859   5.754   0.674   6.940  3.6001 -1.1937  1.0826
  398MOL0     H54860   5.720   0.842   6.976  0.6264 -0.2017  2.1003
  398MOL0     H54861   5.831   0.804   6.742  1.3108  3.6241 -0.4505
  398MOL0     H54862   5.940   0.897   6.834 -0.7168  0.4094 -0.1857
  398MOL0     H54863   6.066   0.684   6.888 -0.2183  1.6282  0.3950
  398MOL0     H54864   5.933   0.594   6.806  1.6228 -0.4431 -0.8133
  398MOL0     H54865   6.141   0.598   6.658 -1.8550  1.4787 -3.0986
  398MOL0     H54866   6.158   0.774   6.685 -1.9271  2.4512  3.1314
  398MOL0     H54867   6.000   0.821   6.546 -2.1851 -1.1741  2.8126
  398MOL0     H54868   6.098   0.699   6.472  1.4097  3.2714  1.0001
  398MOL0     H54869   5.805   0.695   6.568  0.7452 -1.0829  0.2939
  398MOL0     H54870   5.884   0.546   6.579 -3.6987 -0.4987 -0.9442
  398MOL0     H54871   5.943   0.554   6.335  2.8974  3.0721 -1.4467
  398MOL0     H54872   5.776   0.564   6.364 -0.5312  1.0180  0.5580
  398MOL0     H54873   5.630   0.780   6.310 -0.4602  1.2028 -1.0508
  398MOL0     H54874   5.557   0.942   6.118 -0.2022  0.4215  1.9587
  398MOL0     H54875   5.676   1.017   6.011 -0.1706  1.8155  0.9605
  398MOL0     H54876   5.545   1.139   6.249  0.1479  1.5562 -0.4924
  398MOL0     H54877   5.719   1.142   6.257  1.0900 -0.7063 -2.4177
  398MOL0     H54878   5.717   1.323   6.149  1.7047 -0.2159  0.1501
  398MOL0     H54879   5.689   1.230   6.003 -0.4502  2.6740 -2.1384
  398MOL0     H54880   5.456   1.245   6.026  1.6559 -0.5267 -1.4916
  398MOL0     H54881   5.494   1.362   6.169  3.8363  0.3578  1.2320
  398MOL0     H54882   5.576   1.649   5.851  0.7909 -2.8032 -1.5726
  398MOL0     H54883   5.395   1.946   5.818  0.6495 -0.6466  3.0945
  398MOL0     H54884   5.450   1.862   5.668 -1.9895  1.1234  0.1799
  398MOL0     H54885   5.543   1.850   5.819  1.3550  1.4221 -0.3135
  398MOL0     H54886   4.877   1.995   5.864 -2.8573  0.4424 -0.7071
  398MOL0     H54887   4.675   2.061   5.743 -1.6289 -0.9174  1.2566
  398MOL0     H54888   4.565   2.124   5.580 -2.2032  0.3590 -0.3548
  398MOL0     H54889   4.644   2.064   5.438  1.6105 -1.4835  0.4368
  398MOL0     H54890   4.419   2.040   5.339  0.4177  2.7334 -0.7726
  398MOL0     H54891   4.339   2.051   5.500 -1.5596  0.3751 -0.8166
  398MOL0     H54892   4.454   2.292   5.486 -2.9132 -1.8459  2.6102
  398MOL0     H54893   4.298   2.268   5.449 -0.4541  1.8510 -0.5262
  398MOL0     H54894   4.322   2.238   5.214  1.8299 -4.1265 -0.9818
  398MOL0     H54895   4.493   2.216   5.218  0.0468  1.5775 -4.3962
  398MOL0     H54896   4.370   2.476   5.315 -0.8811 -1.5326  0.6184
  398MOL0     H54897   4.537   2.442   5.281  0.2262  2.0768 -2.3354
  398MOL0     H54898   4.283   2.490   5.110  0.2178 -0.7743  0.2208
  398MOL0     H54899   4.396   2.381   5.032  0.5927 -0.8051  1.6048
  398MOL0     H54900   4.587   2.553   5.084  1.3569  1.9468  0.1899
  398MOL0     H54901   4.468   2.673   5.121  0.8472  1.5705 -1.3619
  398MOL0     H54902   4.484   2.540   4.856  0.3892 -0.0360 -0.9024
  398MOL0     H54903   4.519   2.710   4.890 -1.1299 -0.0260 -1.6243
  398MOL0     H54904   4.695   1.702   5.522  0.7422 -1.1279  0.6373
  398MOL0     H54905   4.912   1.643   5.629  1.4227  0.8923  2.0050
  398MOL0     H54906   5.097   1.526   5.865 -0.3171 -0.9901 -0.2314
  398MOL0     H54907   5.276   1.384   5.979 -3.0601 -1.5107 -3.1425
  398MOL0     H54908   5.926   0.584   7.299  0.6641 -1.5377  2.8547
  398MOL0     H54909   5.929   0.522   7.539 -2.8288 -0.4337  1.2884
  398MOL0     H54910   5.877   0.809   7.940  4.1682  1.7664  1.1503
  398MOL0     H54911   5.963   0.848   8.173 -0.9597 -1.4513  2.7587
  398MOL0     H54912   6.186   0.839   8.279  0.1321 -0.6496 -0.1945
  398MOL0     H54913   6.155   0.802   8.438 -0.7699 -3.1785  1.6805
  398MOL0     H54914   6.339   0.662   8.261 -0.8236  0.1197 -0.9023
  398MOL0     H54915   6.288   0.572   8.403  0.3987 -0.1186  0.0790
  398MOL0     H54916   6.500   0.721   8.407  0.2808  1.4618 -0.9509
  398MOL0     H54917   6.396   0.857   8.448 -0.3476 -0.4251  1.8058
  398MOL0     H54918   6.415   0.594   8.589  0.6986  0.2627 -1.7000
  398MOL0     H54919   6.286   0.704   8.621  0.9569  0.4263  2.7481
  398MOL0     H54920   6.532   0.895   8.870  0.2760 -1.1635 -0.1278
  398MOL0     H54921   6.066   0.444   8.200 -0.1237  2.0360  2.1601
  398MOL0     H54922   5.880   0.304   7.948  0.5719 -0.8015  2.8589
  398MOL0     H54923   6.023   0.350   7.847 -1.2588 -0.9037 -1.8059
  398MOL0     H54924   6.035   0.293   8.019  0.0381  1.7639  0.1383
  399MOL0     O54925   1.657   5.363   8.867 -0.8312  0.2110  0.0503
  399MOL0     C54926   1.661   5.486   8.885 -0.3452  0.3197 -0.4087
  399MOL0     O54927   1.774   5.559   8.894 -0.3561 -1.7133  0.9425
  399MOL0     C54928   1.892   5.489   8.871  0.2662  0.0875 -0.1402
  399MOL0     C54929   1.921   5.400   8.764 -0.8129  0.4120 -0.8922
  399MOL0     C54930   2.056   5.346   8.745 -0.1898 -0.0388 -0.0730
  399MOL0     C54931   2.157   5.380   8.838 -0.0189  1.1656 -0.3418
  399MOL0     O54932   2.293   5.348   8.825  0.6953  0.0247 -0.0598
  399MOL0     C54933   2.393   5.403   8.913  0.2725  0.3543 -0.4823
  399MOL0     C54934   2.533   5.360   8.846  0.6647  1.1921  0.0297
  399MOL0     C54935   2.563   5.214   8.872 -0.6137  0.4523  0.0229
  399MOL0     C54936   2.675   5.166   8.774  0.8599 -0.3068 -0.7268
  399MOL0     C54937   2.719   5.022   8.808  0.0347 -0.1090 -0.4999
  399MOL0     C54938   2.778   5.015   8.948 -0.2057  0.1462  0.8668
  399MOL0     C54939   2.878   4.897   8.950  0.0024  0.5913 -0.7890
  399MOL0     C54940   2.912   4.855   9.098  0.1330  1.0310 -0.0304
  399MOL0     N54941   3.024   4.764   9.124 -0.4057  0.6716 -0.7569
  399MOL0     C54942   3.117   4.720   9.042  0.2639  0.0470  0.4530
  399MOL0     C54943   3.191   4.633   9.115  0.3146  0.4999  0.0073
  399MOL0     C54944   3.311   4.555   9.074  0.0761 -0.5153 -0.5594
  399MOL0     C54945   3.445   4.624   9.107  0.2513 -0.4384 -0.4668
  399MOL0     C54946   3.470   4.647   9.251  0.4000 -0.3515  0.5227
  399MOL0     C54947   3.592   4.744   9.267  0.8632  1.1738 -1.0061
  399MOL0     O54948   3.635   4.729   9.402  0.3604 -1.1265  0.1401
  399MOL0     C54949   3.727   4.639   9.440 -0.7656 -0.1367 -0.9035
  399MOL0     C54950   3.782   4.648   9.564 -0.3396 -0.3284 -0.0673
  399MOL0     C54951   3.880   4.556   9.609 -0.1351  0.4121 -0.6361
  399MOL0     C54952   3.925   4.585   9.754 -0.4691  0.3793  0.4695
  399MOL0     C54953   3.921   4.446   9.530 -1.1063 -0.9841 -0.2888
  399MOL0     C54954   4.007   4.335   9.572  0.3799  0.4862 -0.8277
  399MOL0     O54955   4.077   4.353   9.690 -0.3820  0.2114  0.4305
  399MOL0     C54956   4.179   4.260   9.710 -0.0660 -0.4937  0.3759
  399MOL0     C54957   4.295   4.271   9.623 -0.2287 -0.1873  0.3263
  399MOL0     C54958   4.409   4.191   9.649 -0.3654  0.7671  0.0632
  399MOL0     C54959   4.416   4.113   9.765  0.2178 -0.3825 -0.3903
  399MOL0     O54960   4.531   4.052   9.810  0.2638 -0.3453  0.6378
  399MOL0     C54961   4.634   4.019   9.711  1.2562 -0.3841 -0.3149
  399MOL0     C54962   4.745   3.940   9.770 -0.3019  0.2439  0.3406
  399MOL0     C54963   4.704   3.806   9.843  0.0857  0.2149 -0.6872
  399MOL0     C54964   4.617   3.717   9.758  0.3670  0.3619  0.7459
  399MOL0     C54965   4.604   3.570   9.794 -0.2030 -0.5600 -0.2254
  399MOL0     C54966   4.573   3.546   9.945 -0.3834  0.2463  0.0208
  399MOL0     C54967   4.508   3.407   9.971 -0.0351 -0.4527 -0.5842
  399MOL0     C54968   4.591   3.292   9.909  0.6931 -0.1721  0.1979
  399MOL0    Cl54969   4.484   3.150   9.933  0.1670  0.3466  0.2685
  399MOL0     C54970   4.301   4.096   9.844  0.2442  1.6944  0.2086
  399MOL0     C54971   4.188   4.169   9.820 -0.3408  0.2029  0.1298
  399MOL0     O54972   4.001   4.229   9.510  0.6589  0.2302 -0.5258
  399MOL0     C54973   3.863   4.443   9.403 -1.0149 -0.1797 -1.1432
  399MOL0     C54974   3.773   4.538   9.361 -0.2445  0.4718  0.3788
  399MOL0     N54975   3.133   4.622   9.232  0.4448 -1.0951 -0.7486
  399MOL0     N54976   3.027   4.693   9.237 -0.4171 -0.1773 -0.2164
  399MOL0     C54977   2.120   5.473   8.941 -0.0084 -0.1527 -0.5694
  399MOL0     C54978   1.992   5.524   8.959  0.1361 -0.3439  0.1535
  399MOL0     C54979   1.525   5.551   8.888  0.6710 -0.3251 -0.7847
  399MOL0     C54980   1.405   5.477   8.905 -0.2062 -0.3180  0.4737
  399MOL0     C54981   1.281   5.536   8.940  0.5973 -0.0457 -0.3467
  399MOL0     C54982   1.270   5.673   8.942  0.0684  0.3645 -0.1201
  399MOL0     O54983   1.142   5.729   8.966 -0.8298 -0.1059 -0.2742
  399MOL0     C54984   1.106   5.846   8.889  0.3476  0.0148  0.3395
  399MOL0     C54985   0.951   5.843   8.863 -0.0824 -0.3202 -0.6930
  399MOL0     C54986   0.866   5.833   8.989  0.0694  0.3678  0.3622
  399MOL0     C54987   0.712   5.839   8.959 -0.9591  0.3085 -0.2325
  399MOL0     C54988   0.630   5.807   9.077  0.3306  0.2585 -0.1101
  399MOL0     C54989   0.565   5.782   9.170 -0.2209  0.9728  0.0560
  399MOL0     C54990   1.380   5.756   8.924  0.2813  0.2997  0.7305
  399MOL0     C54991   1.508   5.695   8.902 -0.1818 -0.1420 -0.5547
  399MOL0     C54992   1.623   5.794   8.885  0.6288  0.0452 -0.4587
  399MOL0     H54993   1.839   5.365   8.703 -0.7127 -1.6225  0.0543
  399MOL0     H54994   2.075   5.275   8.665  0.9814 -2.1997  1.9926
  399MOL0     H54995   2.383   5.368   9.017 -0.0078  0.7049 -0.3888
  399MOL0     H54996   2.378   5.511   8.907 -2.2874  0.1223  0.6332
  399MOL0     H54997   2.524   5.388   8.741  0.6542  3.6939  0.6282
  399MOL0     H54998   2.618   5.419   8.883 -0.0183 -0.0992  4.1400
  399MOL0     H54999   2.597   5.210   8.975  0.1689 -1.1104 -0.2671
  399MOL0     H55000   2.470   5.159   8.854  1.3108 -2.8732 -0.6590
  399MOL0     H55001   2.646   5.173   8.669  2.7956 -0.5662 -1.3245
  399MOL0     H55002   2.760   5.234   8.787  1.1987 -0.7765 -0.4360
  399MOL0     H55003   2.795   4.994   8.735  2.6541  0.6730  1.7707
  399MOL0     H55004   2.636   4.950   8.801  0.5767 -0.5933 -3.2421
  399MOL0     H55005   2.838   5.104   8.971 -0.2130  1.0127 -2.1111
  399MOL0     H55006   2.696   4.997   9.018 -2.7532  1.3283 -1.6204
  399MOL0     H55007   2.969   4.917   8.893 -1.9025  1.0235 -3.9059
  399MOL0     H55008   2.827   4.815   8.899  1.3763 -0.4779 -0.4965
  399MOL0     H55009   2.940   4.950   9.144  0.7108  1.3026 -0.9116
  399MOL0     H55010   2.821   4.810   9.138  0.2875  1.1541  0.4710
  399MOL0     H55011   3.133   4.752   8.939  1.3289 -1.6248  0.0649
  399MOL0     H55012   3.308   4.541   8.966 -2.7220  1.6400 -0.8577
  399MOL0     H55013   3.290   4.458   9.120  0.1151  0.2712  1.2102
  399MOL0     H55014   3.532   4.565   9.080 -1.2191 -3.4194  0.8553
  399MOL0     H55015   3.445   4.713   9.042 -0.3425 -0.3113 -0.3014
  399MOL0     H55016   3.382   4.698   9.291 -0.3527 -0.5917 -0.7509
  399MOL0     H55017   3.488   4.546   9.287  1.8663 -0.4225 -0.3320
  399MOL0     H55018   3.667   4.716   9.192  0.0180 -3.0197 -0.4959
  399MOL0     H55019   3.549   4.844   9.259 -0.0146  1.3460  3.4663
  399MOL0     H55020   3.734   4.721   9.627 -2.4255 -0.5035 -1.3390
  399MOL0     H55021   3.897   4.686   9.784 -4.1458 -1.1950  3.0388
  399MOL0     H55022   4.032   4.573   9.774 -1.3137 -1.8903  4.7605
  399MOL0     H55023   3.875   4.517   9.822 -1.1342 -0.9019 -1.2319
  399MOL0     H55024   4.306   4.348   9.547 -0.1134 -1.5393 -1.0737
  399MOL0     H55025   4.489   4.200   9.576 -2.4071  1.2674 -2.2668
  399MOL0     H55026   4.591   3.952   9.636  0.6932  1.9947 -2.2373
  399MOL0     H55027   4.672   4.109   9.662 -2.0508  0.2226 -2.0684
  399MOL0     H55028   4.812   3.903   9.692 -1.0340 -1.1463  0.3275
  399MOL0     H55029   4.806   4.006   9.832  0.3832 -1.3112  1.3894
  399MOL0     H55030   4.635   3.829   9.925  0.8044 -1.3806  0.4064
  399MOL0     H55031   4.790   3.744   9.869 -0.2657 -1.1864 -2.6522
  399MOL0     H55032   4.661   3.727   9.658  2.4320  1.2499  1.6847
  399MOL0     H55033   4.518   3.763   9.753  0.2879  0.7028  3.7146
  399MOL0     H55034   4.548   3.510   9.721 -0.6935 -0.1625 -0.1760
  399MOL0     H55035   4.706   3.530   9.789  0.4687  0.9043  1.0174
  399MOL0     H55036   4.517   3.630   9.987 -0.7106 -0.2395  0.5858
  399MOL0     H55037   4.659   3.549  10.014 -0.8696  1.1876  0.6100
  399MOL0     H55038   4.405   3.410   9.935 -1.2745  0.0636  2.7052
  399MOL0     H55039   4.497   3.393  10.079 -0.4599 -2.0607 -0.7984
  399MOL0     H55040   4.680   3.254   9.962 -0.3806  0.3601  2.4988
  399MOL0     H55041   4.610   3.308   9.802 -5.7444 -1.4736 -1.5831
  399MOL0     H55042   4.302   4.022   9.923 -1.1954  0.8325 -0.5601
  399MOL0     H55043   4.102   4.147   9.883 -0.1920 -1.0555 -0.0901
  399MOL0     H55044   3.870   4.364   9.328 -0.6863 -2.7925  1.4894
  399MOL0     H55045   3.739   4.526   9.259  3.2499 -0.7159 -0.8010
  399MOL0     H55046   2.186   5.507   9.021 -0.4469 -1.0625  0.1994
  399MOL0     H55047   1.974   5.598   9.036  1.0031 -0.2700  0.3005
  399MOL0     H55048   1.416   5.369   8.895  1.5361 -0.1375  0.1513
  399MOL0     H55049   1.192   5.477   8.963 -0.7959  1.4290 -1.6657
  399MOL0     H55050   1.137   5.938   8.938 -3.1158  0.5738  1.7845
  399MOL0     H55051   1.170   5.845   8.801  1.5477  1.2730  1.1742
  399MOL0     H55052   0.929   5.760   8.795 -2.3740  2.2153 -3.2901
  399MOL0     H55053   0.915   5.932   8.811 -1.0894 -0.0403  0.4649
  399MOL0     H55054   0.889   5.731   9.022  0.6504  0.3600 -0.0674
  399MOL0     H55055   0.898   5.902   9.068  3.2764  1.5070 -1.7591
  399MOL0     H55056   0.694   5.768   8.878  1.8797  0.4609 -1.0945
  399MOL0     H55057   0.695   5.939   8.919  0.5384 -0.3692 -2.7383
  399MOL0     H55058   0.513   5.748   9.257 -1.6453 -2.2211 -1.8415
  399MOL0     H55059   1.354   5.860   8.944 -0.0062  0.2934  0.3873
  399MOL0     H55060   1.686   5.794   8.975 -1.1169 -0.7662  0.8258
  399MOL0     H55061   1.679   5.754   8.801 -0.4592 -0.6965 -0.8573
  399MOL0     H55062   1.578   5.892   8.867 -2.1229 -1.2909 -1.4261
  400MOL0     O55063   9.064   6.882   8.086 -0.3108 -0.0057 -0.1402
  400MOL0     C55064   8.944   6.866   8.070 -0.4364 -0.2679 -0.2674
  400MOL0     O55065   8.864   6.963   8.012  0.0074  0.3169 -0.0003
  400MOL0     C55066   8.907   7.095   7.990  0.8027 -0.1387  0.8636
  400MOL0     C55067   8.812   7.168   7.924  0.0167 -0.3026 -0.0259
  400MOL0     C55068   8.829   7.305   7.896  0.5481 -0.3621  0.6784
  400MOL0     C55069   8.952   7.364   7.927  0.0080  0.6301 -0.1466
  400MOL0     O55070   8.960   7.495   7.909 -0.2740 -0.6038  0.3482
  400MOL0     C55071   9.088   7.539   7.856  0.3434 -0.5163  1.2834
  400MOL0     C55072   9.079   7.688   7.814  0.4980 -0.1096  0.9904
  400MOL0     C55073   8.987   7.706   7.693  0.1352 -0.9511  0.0361
  400MOL0     C55074   8.993   7.847   7.636 -0.3263  0.2426  0.4284
  400MOL0     C55075   8.881   7.858   7.528  0.1023 -0.2860  0.0128
  400MOL0     C55076   8.880   7.997   7.470 -0.6321  0.7182 -0.0626
  400MOL0     C55077   8.756   8.044   7.403 -0.3316  0.1717  0.0330
  400MOL0     C55078   8.770   8.199   7.382 -0.7722  0.9826  0.5905
  400MOL0     N55079   8.652   8.242   7.305 -0.1950  0.1182 -0.8447
  400MOL0     C55080   8.534   8.282   7.364  0.8768  0.0498  0.0706
  400MOL0     C55081   8.452   8.327   7.269  0.6098 -0.5835  1.4594
  400MOL0     C55082   8.314   8.384   7.279 -0.4131 -0.7421 -0.4166
  400MOL0     C55083   8.207   8.268   7.293  0.6642 -0.7467 -0.3259
  400MOL0     C55084   8.210   8.171   7.183  0.0148  0.2484 -0.3878
  400MOL0     C55085   8.088   8.079   7.168  0.5011 -0.4432  0.3189
  400MOL0     O55086   7.966   8.140   7.137 -0.3360 -0.0880 -0.6278
  400MOL0     C55087   7.869   8.170   7.238 -0.4361 -0.3472 -0.1834
  400MOL0     C55088   7.881   8.187   7.373 -0.3705 -0.1751 -0.5515
  400MOL0     C55089   7.779   8.216   7.459  0.0956 -0.5834 -0.0646
  400MOL0     C55090   7.823   8.269   7.600 -0.6680  0.8544 -0.5771
  400MOL0     C55091   7.643   8.232   7.413  0.0165 -0.1421 -0.1016
  400MOL0     C55092   7.526   8.291   7.484  0.8298  0.8294 -0.6626
  400MOL0     O55093   7.443   8.372   7.413  0.4793 -0.0774 -1.6889
  400MOL0     C55094   7.339   8.437   7.470 -0.3403  0.0907 -0.4855
  400MOL0     C55095   7.352   8.553   7.549  0.3984 -0.5598 -0.0977
  400MOL0     C55096   7.240   8.637   7.583  0.0470  0.2983  0.1492
  400MOL0     C55097   7.113   8.603   7.544  0.3117 -0.0044  0.4876
  400MOL0     O55098   6.997   8.664   7.594  0.6780  0.2814  0.2365
  400MOL0     C55099   6.996   8.804   7.640 -0.7592 -0.0542 -0.4079
  400MOL0     C55100   6.887   8.885   7.566 -0.2148  0.0998  0.0929
  400MOL0     C55101   6.865   9.021   7.633 -0.0574 -0.5088  1.1260
  400MOL0     C55102   6.967   9.124   7.592 -0.1988 -0.4153  0.5717
  400MOL0     C55103   6.970   9.250   7.689  1.0482 -0.2957 -0.0671
  400MOL0     C55104   7.085   9.346   7.656 -0.4819  0.4533  0.4463
  400MOL0     C55105   7.087   9.420   7.519  0.0910  0.0056 -1.2667
  400MOL0     C55106   7.216   9.505   7.502  0.0598  0.2072 -0.6740
  400MOL0    Cl55107   7.194   9.600   7.356 -0.3077 -0.4555 -0.2526
  400MOL0     C55108   7.102   8.484   7.474  0.1978 -0.0297 -0.7498
  400MOL0     C55109   7.210   8.400   7.443 -0.4198  0.5260  0.0233
  400MOL0     O55110   7.508   8.260   7.602  0.0405  0.4230 -0.3416
  400MOL0     C55111   7.632   8.211   7.276  0.4405 -0.2534 -0.1805
  400MOL0     C55112   7.748   8.190   7.191  0.1065  0.5750 -0.0463
  400MOL0     N55113   8.518   8.312   7.145  0.0321 -0.5027  0.6273
  400MOL0     N55114   8.635   8.255   7.171  0.2972  0.9278  0.4320
  400MOL0     C55115   9.054   7.289   7.991 -0.1435 -0.2307  0.2961
  400MOL0     C55116   9.028   7.159   8.027  0.1901 -0.0604 -0.3708
  400MOL0     C55117   8.871   6.740   8.117 -1.5035 -0.2446 -0.0591
  400MOL0     C55118   8.732   6.727   8.089  0.5841  0.1257  0.5788
  400MOL0     C55119   8.668   6.599   8.112 -0.1768  0.2389  0.6479
  400MOL0     C55120   8.738   6.495   8.172 -0.2678  0.2687 -1.2833
  400MOL0     O55121   8.687   6.374   8.219  0.2512  0.2842 -0.2191
  400MOL0     C55122   8.568   6.326   8.141 -0.2758 -0.7698  0.1452
  400MOL0     C55123   8.547   6.178   8.167 -0.6659 -0.3209 -0.5610
  400MOL0     C55124   8.413   6.121   8.122  0.1740  0.5743  1.2244
  400MOL0     C55125   8.377   5.983   8.195  0.2347  0.1892 -0.1780
  400MOL0     C55126   8.277   5.907   8.128  0.5290 -0.0812 -0.1760
  400MOL0     C55127   8.189   5.853   8.063  0.6517 -0.8603  0.1272
  400MOL0     C55128   8.865   6.514   8.227  0.2334 -0.5631 -0.0149
  400MOL0     C55129   8.934   6.639   8.201 -0.1654  0.2408  0.4654
  400MOL0     C55130   9.087   6.645   8.245 -0.1853  0.5058  0.3372
  400MOL0     H55131   8.721   7.121   7.888 -0.4114  0.4935 -0.0143
  400MOL0     H55132   8.753   7.359   7.841  1.0305 -0.1634  0.1985
  400MOL0     H55133   9.110   7.478   7.768 -3.5000  2.2170 -1.9558
  400MOL0     H55134   9.161   7.532   7.937 -1.3102 -2.9636  2.6980
  400MOL0     H55135   9.044   7.740   7.903 -0.9605  0.5737  0.0411
  400MOL0     H55136   9.172   7.731   7.775  0.7309 -2.9409 -2.1474
  400MOL0     H55137   9.009   7.634   7.613 -0.7684 -1.6829  0.4342
  400MOL0     H55138   8.885   7.687   7.728 -0.4361  0.8252 -0.5748
  400MOL0     H55139   8.970   7.917   7.716  1.5239 -0.1346  1.3462
  400MOL0     H55140   9.092   7.867   7.594  0.6951 -1.3547  1.9585
  400MOL0     H55141   8.783   7.841   7.575  0.5002  0.7208  1.2403
  400MOL0     H55142   8.897   7.779   7.454  0.2782  0.7400 -1.0661
  400MOL0     H55143   8.906   8.059   7.556  0.6934 -3.4486  2.7877
  400MOL0     H55144   8.961   8.003   7.396 -0.2562  1.2637  0.3782
  400MOL0     H55145   8.671   8.028   7.470  0.1126 -2.3616  0.0980
  400MOL0     H55146   8.722   8.000   7.309  1.4809 -0.4643 -0.3615
  400MOL0     H55147   8.778   8.251   7.478  1.3500 -1.4528  1.8821
  400MOL0     H55148   8.859   8.225   7.324  0.6214  0.8953  2.5891
  400MOL0     H55149   8.517   8.280   7.471 -3.1968 -0.8876 -0.4352
  400MOL0     H55150   8.297   8.455   7.197  2.5954  1.0370  0.3644
  400MOL0     H55151   8.319   8.426   7.379 -0.3024 -2.9935  0.5908
  400MOL0     H55152   8.217   8.214   7.388 -1.8082 -0.6280  0.0679
  400MOL0     H55153   8.105   8.310   7.292  1.8589  3.0949  3.7756
  400MOL0     H55154   8.223   8.223   7.088 -2.3200 -0.3229 -1.0723
  400MOL0     H55155   8.291   8.098   7.198 -0.5695 -1.1476 -3.3369
  400MOL0     H55156   8.094   8.000   7.092 -1.5216  0.5048 -0.8855
  400MOL0     H55157   8.075   8.020   7.259 -0.4404 -1.5078 -0.4734
  400MOL0     H55158   7.983   8.192   7.410 -0.1472  1.7793 -1.3170
  400MOL0     H55159   7.849   8.182   7.661 -0.2575 -0.5948 -2.7067
  400MOL0     H55160   7.731   8.310   7.644 -1.4636 -2.6707  1.5068
  400MOL0     H55161   7.900   8.346   7.592  1.1336 -0.8590 -0.5017
  400MOL0     H55162   7.450   8.581   7.586  0.1350 -1.0703  1.0256
  400MOL0     H55163   7.264   8.723   7.645  0.5747  1.9283 -2.2027
  400MOL0     H55164   6.959   8.796   7.742 -1.3324  0.6105 -0.5579
  400MOL0     H55165   7.090   8.858   7.622 -1.6238  1.5146 -0.3898
  400MOL0     H55166   6.907   8.912   7.462 -0.4850  0.7467  0.2071
  400MOL0     H55167   6.796   8.828   7.585 -0.1972  1.1003  3.9084
  400MOL0     H55168   6.861   8.998   7.740 -2.0026  1.6352  1.6082
  400MOL0     H55169   6.765   9.045   7.597  1.2916  0.0229 -2.6848
  400MOL0     H55170   6.965   9.148   7.486  2.3578  3.5019  1.2113
  400MOL0     H55171   7.068   9.082   7.594  1.0494  1.9910 -2.8974
  400MOL0     H55172   6.875   9.304   7.677  0.7994 -0.2973  1.6341
  400MOL0     H55173   6.960   9.219   7.793  0.1695  0.6257  0.1386
  400MOL0     H55174   7.180   9.296   7.676 -0.6486  0.6115  1.7434
  400MOL0     H55175   7.095   9.429   7.727  4.2470 -0.7589  1.5640
  400MOL0     H55176   6.997   9.482   7.507  1.1050  1.2763 -2.6981
  400MOL0     H55177   7.084   9.349   7.436  0.5978 -0.9568 -0.4745
  400MOL0     H55178   7.297   9.433   7.497  0.9140  1.1542 -0.8528
  400MOL0     H55179   7.229   9.575   7.585  1.4898 -2.0545  1.1149
  400MOL0     H55180   7.004   8.458   7.433 -1.2382 -1.6311  3.1747
  400MOL0     H55181   7.200   8.310   7.383  1.2488 -0.2424  0.8332
  400MOL0     H55182   7.532   8.198   7.236  0.8383 -0.5454 -1.0896
  400MOL0     H55183   7.714   8.182   7.088 -3.8978  2.2324  0.9192
  400MOL0     H55184   9.152   7.331   8.011 -1.4502  2.5022  1.2907
  400MOL0     H55185   9.101   7.110   8.092 -3.6480 -0.0644  4.5231
  400MOL0     H55186   8.667   6.803   8.046 -1.0073 -1.5277 -0.1029
  400MOL0     H55187   8.568   6.577   8.075  0.0744 -1.7994  1.0650
  400MOL0     H55188   8.480   6.381   8.172  0.1971 -0.4676  0.9686
  400MOL0     H55189   8.580   6.334   8.032 -2.0292  0.1125 -0.0137
  400MOL0     H55190   8.547   6.152   8.273 -3.6003 -1.8136 -0.8326
  400MOL0     H55191   8.630   6.124   8.119 -1.9218 -0.6384 -2.4868
  400MOL0     H55192   8.325   6.183   8.142 -1.2122 -1.1809  0.8392
  400MOL0     H55193   8.412   6.108   8.013 -0.9926  1.3076  1.1230
  400MOL0     H55194   8.338   6.015   8.293 -0.9949 -0.2029 -0.5257
  400MOL0     H55195   8.465   5.919   8.200  2.0680  2.3661 -1.9619
  400MOL0     H55196   8.115   5.814   7.996  1.8814 -2.4511 -0.3673
  400MOL0     H55197   8.912   6.432   8.282  0.0376 -2.2900 -2.2747
  400MOL0     H55198   9.094   6.572   8.327 -1.6984  1.7248  1.6205
  400MOL0     H55199   9.158   6.625   8.164  4.0229  4.0350  2.7542
  400MOL0     H55200   9.103   6.741   8.294 -0.6326  0.0807  1.3520
  401MOL0     O55201   0.948   8.253   8.711 -0.6447  0.0198  0.2483
  401MOL0     C55202   1.045   8.243   8.785 -0.0157  0.9526  0.7641
  401MOL0     O55203   1.049   8.235   8.920  0.6903 -0.4542  0.0160
  401MOL0     C55204   0.930   8.270   8.970 -0.0255 -1.0002 -1.2704
  401MOL0     C55205   0.914   8.400   9.025  0.2298 -0.0450 -0.9813
  401MOL0     C55206   0.788   8.444   9.067 -0.3811  0.0926  0.8402
  401MOL0     C55207   0.683   8.363   9.070  0.6002  0.6784  0.4890
  401MOL0     O55208   0.562   8.419   9.105 -0.2473  0.6664 -0.0802
  401MOL0     C55209   0.455   8.390   9.015  0.3437 -0.4994  0.3612
  401MOL0     C55210   0.364   8.508   9.018  0.8946  0.0801 -0.0958
  401MOL0     C55211   0.425   8.647   8.988 -0.0589 -0.5722 -0.0433
  401MOL0     C55212   0.499   8.660   8.852 -0.2417 -0.1840  1.0310
  401MOL0     C55213   0.623   8.754   8.848  0.9805  0.3504 -1.4686
  401MOL0     C55214   0.727   8.664   8.773  0.8880  0.1376 -0.2140
  401MOL0     C55215   0.870   8.702   8.815 -0.3623  0.6526 -0.8848
  401MOL0     C55216   0.977   8.602   8.776  0.1551  1.0112  0.3569
  401MOL0     N55217   1.003   8.609   8.632  0.3379  0.4175  0.1206
  401MOL0     C55218   0.929   8.589   8.520  0.2104  0.7490  0.4799
  401MOL0     C55219   1.014   8.600   8.416  0.0439 -0.4405 -0.6730
  401MOL0     C55220   0.977   8.578   8.271  0.3431  0.5294 -0.6155
  401MOL0     C55221   0.985   8.707   8.183  0.3417  0.4832  0.4197
  401MOL0     C55222   1.130   8.720   8.133 -0.4404 -0.0749 -0.5095
  401MOL0     C55223   1.146   8.865   8.085 -0.3621 -0.5113  1.5836
  401MOL0     O55224   1.084   8.976   8.147  0.4757 -0.5477 -0.0984
  401MOL0     C55225   1.143   9.069   8.238 -0.0406  0.2786 -0.1691
  401MOL0     C55226   1.077   9.179   8.287 -0.5437  0.0388  0.3210
  401MOL0     C55227   1.146   9.276   8.361  0.7818  1.2372  0.0086
  401MOL0     C55228   1.064   9.402   8.395 -0.5179  0.7203 -0.8101
  401MOL0     C55229   1.279   9.254   8.405  0.3150  0.0407 -0.1537
  401MOL0     C55230   1.353   9.351   8.486  0.0142 -0.1606  0.1505
  401MOL0     O55231   1.435   9.312   8.587  0.2565 -0.2890  0.7012
  401MOL0     C55232   1.504   9.414   8.646  0.2964  0.3702 -0.1032
  401MOL0     C55233   1.641   9.408   8.649 -0.2001 -0.5167  0.2947
  401MOL0     C55234   1.715   9.497   8.721 -0.8696 -0.4337  0.6661
  401MOL0     C55235   1.655   9.610   8.784 -0.3738 -0.8902  0.2804
  401MOL0     O55236   1.712   9.706   8.862  0.7724 -0.4713  0.7072
  401MOL0     C55237   1.856   9.709   8.884  1.3454  0.0738  0.4797
  401MOL0     C55238   1.899   9.836   8.954 -0.0515  0.0087 -0.5909
  401MOL0     C55239   1.903   9.951   8.855  0.0032 -0.5459  0.1052
  401MOL0     C55240   1.931  10.089   8.917 -0.6419 -0.0795  0.3583
  401MOL0     C55241   1.887  10.208   8.823 -0.3250  0.1164 -0.4126
  401MOL0     C55242   1.946  10.219   8.689  0.3831  0.9084 -0.1038
  401MOL0     C55243   1.902  10.332   8.585 -0.9655  0.7727 -0.0500
  401MOL0     C55244   1.975  10.460   8.611 -1.0911  0.3812  0.1828
  401MOL0    Cl55245   2.156  10.445   8.577  0.2415 -0.2500 -0.2186
  401MOL0     C55246   1.517   9.626   8.773  0.2716  0.3811 -1.0458
  401MOL0     C55247   1.444   9.520   8.714 -0.3969  0.5885  0.1016
  401MOL0     O55248   1.361   9.467   8.431  0.5243 -0.0511 -0.1160
  401MOL0     C55249   1.341   9.131   8.363 -0.6692  0.2565  0.4968
  401MOL0     C55250   1.265   9.038   8.288 -0.3077  0.4057 -0.0301
  401MOL0     N55251   1.136   8.626   8.472 -0.2678  0.2393 -0.2663
  401MOL0     N55252   1.135   8.627   8.598  0.1678  0.0021 -0.0223
  401MOL0     C55253   0.698   8.226   9.022  0.3488 -0.8714 -0.2024
  401MOL0     C55254   0.819   8.193   8.967 -0.4554  0.8726  0.3974
  401MOL0     C55255   1.179   8.220   8.728 -0.0057 -0.1661  0.3318
  401MOL0     C55256   1.292   8.184   8.810 -0.0831  0.4883  0.0737
  401MOL0     C55257   1.421   8.156   8.746  1.0919  0.7702 -0.4051
  401MOL0     C55258   1.444   8.166   8.613 -0.7839  0.0415  1.3262
  401MOL0     O55259   1.571   8.146   8.570 -0.1385 -0.1005 -0.2639
  401MOL0     C55260   1.608   8.181   8.432 -0.6052 -0.6648  0.4961
  401MOL0     C55261   1.758   8.204   8.438  0.3829  0.2913 -0.2282
  401MOL0     C55262   1.805   8.282   8.311 -0.3167  0.3488  0.2735
  401MOL0     C55263   1.956   8.277   8.293  0.4630  0.4759  0.0601
  401MOL0     C55264   1.976   8.218   8.161 -0.3256 -0.3274  1.6416
  401MOL0     C55265   2.002   8.174   8.053 -0.3905  0.4149 -0.0695
  401MOL0     C55266   1.326   8.192   8.529 -0.7002  0.7074  0.6907
  401MOL0     C55267   1.201   8.219   8.586  1.1063 -0.3072  1.6606
  401MOL0     C55268   1.093   8.242   8.473 -0.3906  0.5406  0.2250
  401MOL0     H55269   0.999   8.466   9.042 -0.2509  0.3259  0.0989
  401MOL0     H55270   0.759   8.540   9.109  0.4332  0.4875  0.5407
  401MOL0     H55271   0.393   8.304   9.042  0.2862 -0.0728  1.6892
  401MOL0     H55272   0.485   8.374   8.911 -0.2673  0.2499  0.0606
  401MOL0     H55273   0.288   8.503   8.939  2.6320  0.5978 -1.9022
  401MOL0     H55274   0.316   8.509   9.116  2.9333 -3.1842  1.0890
  401MOL0     H55275   0.352   8.728   8.985  2.2274  1.6152 -1.0896
  401MOL0     H55276   0.481   8.675   9.077 -3.0870  1.9078  1.2640
  401MOL0     H55277   0.526   8.561   8.814  2.6938  0.0404  2.2704
  401MOL0     H55278   0.423   8.698   8.784 -2.1610  0.7327  3.5401
  401MOL0     H55279   0.649   8.778   8.952  1.1686  1.2014 -1.7067
  401MOL0     H55280   0.609   8.850   8.798 -1.9580  0.0829 -1.3149
  401MOL0     H55281   0.721   8.566   8.821 -0.9004  1.2929  2.0788
  401MOL0     H55282   0.719   8.661   8.664  1.3498  1.1869 -0.2826
  401MOL0     H55283   0.874   8.711   8.924  0.5788 -2.0792 -0.5946
  401MOL0     H55284   0.904   8.791   8.762  0.7107  1.0418  0.4065
  401MOL0     H55285   1.071   8.610   8.831  1.7227 -3.3560 -1.2033
  401MOL0     H55286   0.930   8.503   8.785  0.8480  0.6104 -0.2931
  401MOL0     H55287   0.824   8.568   8.498 -0.0273  0.2599  1.9999
  401MOL0     H55288   0.869   8.557   8.272  0.7392 -1.7427 -0.3021
  401MOL0     H55289   1.033   8.492   8.234  0.4142  0.0983  0.4586
  401MOL0     H55290   0.920   8.697   8.095  0.7714 -1.2305  0.2583
  401MOL0     H55291   0.969   8.795   8.246  0.9909 -0.9231  2.6678
  401MOL0     H55292   1.196   8.703   8.218 -2.4137 -1.7561  0.8132
  401MOL0     H55293   1.148   8.645   8.055  0.0703  1.1435 -1.5848
  401MOL0     H55294   1.251   8.881   8.057 -1.1142 -1.7394 -2.5494
  401MOL0     H55295   1.088   8.861   7.993 -0.1002 -0.4783  1.4168
  401MOL0     H55296   0.975   9.192   8.252 -0.8518 -0.4709  1.0039
  401MOL0     H55297   0.957   9.383   8.405 -0.3519 -0.0007 -0.3850
  401MOL0     H55298   1.081   9.458   8.302 -2.8715  0.3989 -1.4975
  401MOL0     H55299   1.094   9.457   8.484 -0.0097 -1.2844  0.3185
  401MOL0     H55300   1.699   9.331   8.599  1.2904  0.6788  0.1046
  401MOL0     H55301   1.823   9.488   8.724 -0.7277  0.2897 -1.0267
  401MOL0     H55302   1.882   9.632   8.957  1.8343  0.7255  1.0039
  401MOL0     H55303   1.903   9.699   8.786 -2.0007  2.2434 -1.5312
  401MOL0     H55304   1.826   9.868   9.030  0.4057  0.6859 -0.4295
  401MOL0     H55305   2.005   9.828   8.977  0.4862  2.4017 -1.8443
  401MOL0     H55306   1.812   9.960   8.797  0.1514  1.8599  0.1396
  401MOL0     H55307   1.977   9.924   8.779 -0.1063 -1.0670  0.1799
  401MOL0     H55308   2.032  10.106   8.956  0.2439 -1.2458 -1.2849
  401MOL0     H55309   1.866  10.095   9.005 -1.4165  2.3245 -0.3081
  401MOL0     H55310   1.779  10.192   8.816 -0.1128 -0.5878 -3.8925
  401MOL0     H55311   1.922  10.300   8.871 -1.3453  1.6734 -2.4911
  401MOL0     H55312   1.922  10.125   8.639 -2.1302  1.8630 -0.8086
  401MOL0     H55313   2.055  10.213   8.695  0.3251  0.0747  0.1371
  401MOL0     H55314   1.793  10.333   8.595 -0.9376 -2.1306  2.0622
  401MOL0     H55315   1.923  10.293   8.485  1.0349 -5.0501  2.2079
  401MOL0     H55316   1.965  10.484   8.718 -0.2078 -1.6919  0.7936
  401MOL0     H55317   1.937  10.541   8.550  2.2609  1.8804 -0.1476
  401MOL0     H55318   1.479   9.708   8.833  3.0779  0.9902  0.0687
  401MOL0     H55319   1.336   9.525   8.704 -0.2635 -0.6493 -3.1003
  401MOL0     H55320   1.444   9.105   8.384 -0.2930 -1.3986 -2.7716
  401MOL0     H55321   1.317   8.947   8.263  2.6046  1.5159  1.5534
  401MOL0     H55322   0.611   8.161   9.024 -0.2385 -0.3020 -3.0850
  401MOL0     H55323   0.836   8.093   8.931  0.3868  0.6066  1.4963
  401MOL0     H55324   1.283   8.187   8.918  2.8265  2.5253  0.3543
  401MOL0     H55325   1.504   8.139   8.814 -0.8051 -1.4392  1.5125
  401MOL0     H55326   1.578   8.103   8.363 -1.7929 -1.0083  1.3758
  401MOL0     H55327   1.564   8.279   8.410 -0.9255 -0.2291  2.7784
  401MOL0     H55328   1.808   8.108   8.455  1.1755  1.1780  3.3736
  401MOL0     H55329   1.798   8.261   8.523 -1.2591 -2.4720  2.6097
  401MOL0     H55330   1.758   8.269   8.213  0.6656  2.3740 -0.5346
  401MOL0     H55331   1.792   8.389   8.331 -0.7803  1.1520 -3.5773
  401MOL0     H55332   2.016   8.225   8.367  2.2945  0.1435 -1.5611
  401MOL0     H55333   1.997   8.378   8.281  1.1837  0.2558  0.5796
  401MOL0     H55334   2.030   8.154   7.952 -0.3583  1.4866 -0.2821
  401MOL0     H55335   1.328   8.197   8.421  1.1660  0.1518  0.6616
  401MOL0     H55336   1.146   8.228   8.378  1.1972 -5.4009  1.5579
  401MOL0     H55337   1.016   8.165   8.480  0.2197 -0.1016  0.0570
  401MOL0     H55338   1.039   8.337   8.477  1.5594  1.6989  0.3434
  402MOL0     O55339   1.144   3.580   0.306  0.7501  0.6130  0.1059
  402MOL0     C55340   1.088   3.484   0.352 -0.0005  1.0075  0.6545
  402MOL0     O55341   1.023   3.481   0.478 -0.1211  0.0960 -0.0222
  402MOL0     C55342   1.004   3.591   0.550 -0.5734 -0.0857 -1.0496
  402MOL0     C55343   0.992   3.724   0.505 -0.2913  0.6252 -0.2204
  402MOL0     C55344   0.955   3.824   0.595  0.2729 -0.2762 -0.7204
  402MOL0     C55345   0.914   3.798   0.731 -0.4980  0.4155  0.3688
  402MOL0     O55346   0.876   3.883   0.830 -0.1846 -0.3154  0.2815
  402MOL0     C55347   0.806   4.000   0.778 -0.5485 -0.1202 -0.4398
  402MOL0     C55348   0.777   4.091   0.895  0.6477  0.4020  0.2323
  402MOL0     C55349   0.913   4.159   0.940 -0.0883  0.3153  0.2033
  402MOL0     C55350   0.874   4.251   1.061 -0.0263 -0.6744 -0.0487
  402MOL0     C55351   1.003   4.318   1.121 -0.2861  0.4126  0.6712
  402MOL0     C55352   0.976   4.420   1.237 -0.0855  0.6985 -1.0007
  402MOL0     C55353   0.911   4.551   1.188  0.3136 -0.1288 -0.0121
  402MOL0     C55354   0.859   4.624   1.309  0.4292 -0.4244  0.3232
  402MOL0     N55355   0.758   4.722   1.276 -0.3311 -0.2195  0.3416
  402MOL0     C55356   0.773   4.838   1.204  0.2968 -0.6803  0.8237
  402MOL0     C55357   0.654   4.907   1.225  0.4765 -0.3559  0.0939
  402MOL0     C55358   0.612   5.040   1.177 -0.0650 -0.1321  0.5352
  402MOL0     C55359   0.639   5.150   1.280  0.4799 -0.0528  0.7816
  402MOL0     C55360   0.522   5.260   1.270  0.9962 -0.1960 -0.4867
  402MOL0     C55361   0.505   5.330   1.139  0.6281  0.7590 -0.2345
  402MOL0     O55362   0.378   5.404   1.148 -0.6850 -0.1854 -0.3868
  402MOL0     C55363   0.344   5.494   1.053 -0.3177  1.0279 -0.5083
  402MOL0     C55364   0.424   5.564   0.966 -0.5057  0.2626  0.8125
  402MOL0     C55365   0.365   5.643   0.861 -0.3705 -0.3620 -0.2028
  402MOL0     C55366   0.456   5.717   0.757  0.2721  0.4518  0.7734
  402MOL0     C55367   0.225   5.656   0.855 -1.0257  0.3059 -0.0851
  402MOL0     C55368   0.162   5.737   0.741 -0.7475 -0.2367 -0.1029
  402MOL0     O55369   0.034   5.758   0.769 -0.4725 -0.0062 -0.0145
  402MOL0     C55370  -0.048   5.814   0.671 -0.3750 -0.5993 -0.7019
  402MOL0     C55371  -0.065   5.752   0.548  0.3880  0.5202  0.2774
  402MOL0     C55372  -0.156   5.803   0.449 -0.4354  0.0878 -0.6142
  402MOL0     C55373  -0.220   5.924   0.476 -0.1235  0.7221 -0.1374
  402MOL0     O55374  -0.288   5.995   0.379  0.4836 -0.3305 -0.8442
  402MOL0     C55375  -0.414   5.927   0.344  1.1381  0.7946  0.3590
  402MOL0     C55376  -0.391   5.839   0.217  1.1859  0.7245 -0.5426
  402MOL0     C55377  -0.520   5.794   0.147  0.2930  0.4456  0.6197
  402MOL0     C55378  -0.555   5.882   0.029 -0.1337  0.6113  0.8609
  402MOL0     C55379  -0.695   5.855  -0.030 -0.3592  0.2833 -2.0260
  402MOL0     C55380  -0.728   5.946  -0.148 -0.7762  0.1808 -0.1841
  402MOL0     C55381  -0.877   5.976  -0.165  0.3559  0.8438 -0.1871
  402MOL0     C55382  -0.921   5.950  -0.309 -0.8203  0.2343  0.7326
  402MOL0    Cl55383  -0.894   5.780  -0.359 -0.1992 -0.2137 -0.1135
  402MOL0     C55384  -0.201   5.983   0.596 -0.3857  0.0701 -0.3888
  402MOL0     C55385  -0.119   5.930   0.698 -0.0132 -1.2218  0.4300
  402MOL0     O55386   0.219   5.755   0.629  0.6779 -0.4426  0.7966
  402MOL0     C55387   0.152   5.605   0.956 -0.2162  0.9632  0.3276
  402MOL0     C55388   0.207   5.528   1.061 -0.1127  0.1972 -0.2385
  402MOL0     N55389   0.580   4.839   1.314  0.8027 -0.2789 -0.4320
  402MOL0     N55390   0.641   4.733   1.343 -0.4763  0.5788  0.0216
  402MOL0     C55391   0.934   3.668   0.774 -0.6090 -0.2120 -0.4241
  402MOL0     C55392   0.976   3.561   0.689 -0.0982 -0.2677 -0.1316
  402MOL0     C55393   1.107   3.349   0.285 -0.5908  0.2929 -0.3214
  402MOL0     C55394   1.083   3.229   0.358  0.7633 -0.2646  0.1818
  402MOL0     C55395   1.087   3.099   0.299 -0.1056 -0.9539 -0.4728
  402MOL0     C55396   1.111   3.089   0.161 -0.3722 -0.5240 -0.9136
  402MOL0     O55397   1.106   2.967   0.112 -0.2465 -0.2074 -0.6167
  402MOL0     C55398   1.044   2.943  -0.011  0.7341 -0.4418  1.1809
  402MOL0     C55399   1.159   2.937  -0.115 -0.3694  0.1468 -0.2402
  402MOL0     C55400   1.105   2.884  -0.247  0.5214  0.4998 -0.6889
  402MOL0     C55401   1.212   2.877  -0.353  0.0926 -0.1522  1.3556
  402MOL0     C55402   1.320   2.780  -0.328 -0.4773 -1.0686  0.5777
  402MOL0     C55403   1.410   2.699  -0.306 -0.3720  0.4494  0.6096
  402MOL0     C55404   1.133   3.207   0.091 -0.3110 -0.1455  0.4682
  402MOL0     C55405   1.131   3.335   0.151  0.0331 -0.2586  0.3495
  402MOL0     C55406   1.171   3.452   0.064 -0.4830 -0.2929  0.0228
  402MOL0     H55407   1.012   3.759   0.404 -1.4546 -1.4160 -1.2170
  402MOL0     H55408   0.956   3.926   0.560 -4.2848  0.1945 -0.0568
  402MOL0     H55409   0.716   3.966   0.727  1.0943 -1.0127 -2.9045
  402MOL0     H55410   0.861   4.057   0.702 -1.9978  2.4761  0.3132
  402MOL0     H55411   0.690   4.153   0.872  0.0031 -0.9063 -1.0286
  402MOL0     H55412   0.744   4.028   0.978  1.1569 -0.2644 -0.0619
  402MOL0     H55413   0.996   4.092   0.964  1.5977  2.1823 -0.1235
  402MOL0     H55414   0.956   4.231   0.870 -2.1720  0.9860 -0.4500
  402MOL0     H55415   0.808   4.331   1.026  0.5356  0.8953  2.2334
  402MOL0     H55416   0.819   4.200   1.140 -1.3286  1.8532  0.7905
  402MOL0     H55417   1.051   4.371   1.038 -0.6508 -2.3660 -1.4710
  402MOL0     H55418   1.071   4.241   1.159  2.1336  3.0973  2.2015
  402MOL0     H55419   0.909   4.376   1.311  0.6710  0.8220 -0.2287
  402MOL0     H55420   1.064   4.442   1.298 -0.8746  0.0044  0.4326
  402MOL0     H55421   0.827   4.531   1.122  0.3741 -2.3888  0.5150
  402MOL0     H55422   0.985   4.609   1.131 -0.1668 -0.5168 -1.0524
  402MOL0     H55423   0.813   4.547   1.372 -0.0309 -1.1869 -0.9186
  402MOL0     H55424   0.942   4.667   1.366  3.0368 -3.5297 -0.7925
  402MOL0     H55425   0.854   4.878   1.144 -0.2583  1.0967  1.1891
  402MOL0     H55426   0.508   5.066   1.154  0.6941  3.7949  0.8481
  402MOL0     H55427   0.662   5.065   1.083  0.9443 -0.6090  0.9412
  402MOL0     H55428   0.640   5.105   1.379 -1.3949  1.3622  1.4920
  402MOL0     H55429   0.738   5.188   1.253  0.1824 -1.7721 -3.6084
  402MOL0     H55430   0.427   5.219   1.307 -0.0168  1.8768 -0.6301
  402MOL0     H55431   0.549   5.338   1.342  2.9272  0.6013 -1.9878
  402MOL0     H55432   0.590   5.392   1.110 -0.8578  1.8689 -2.4349
  402MOL0     H55433   0.493   5.257   1.059  0.1064 -0.2522  0.7349
  402MOL0     H55434   0.531   5.551   0.973 -0.8719 -3.7698  1.2803
  402MOL0     H55435   0.555   5.709   0.801  0.7140 -0.9759 -0.4186
  402MOL0     H55436   0.423   5.818   0.730 -1.3332 -0.6566 -1.8907
  402MOL0     H55437   0.476   5.665   0.663  2.6071  1.6222  0.5525
  402MOL0     H55438  -0.007   5.665   0.520  0.7325  0.1189  2.1324
  402MOL0     H55439  -0.162   5.744   0.359  0.3520 -1.6023  0.3909
  402MOL0     H55440  -0.459   5.864   0.421 -0.8429  1.3824 -0.2624
  402MOL0     H55441  -0.483   6.006   0.312  2.2500  0.5294 -3.1228
  402MOL0     H55442  -0.316   5.897   0.164  1.4795  1.0155  0.1802
  402MOL0     H55443  -0.355   5.745   0.260 -2.6471 -0.7044  0.0089
  402MOL0     H55444  -0.612   5.797   0.206 -1.6324  0.3382 -2.1904
  402MOL0     H55445  -0.497   5.693   0.109 -0.8952 -0.1161  1.3502
  402MOL0     H55446  -0.476   5.858  -0.044  0.2065  1.3147  0.9932
  402MOL0     H55447  -0.534   5.985   0.057  3.9630  0.0799  0.4539
  402MOL0     H55448  -0.718   5.750  -0.049  1.2501  0.1923 -3.7435
  402MOL0     H55449  -0.765   5.875   0.052  1.7222 -2.2464  0.6178
  402MOL0     H55450  -0.696   5.898  -0.241  1.5723  1.3244 -0.0519
  402MOL0     H55451  -0.679   6.043  -0.134  1.8340 -0.7228 -2.1722
  402MOL0     H55452  -0.912   6.079  -0.150 -1.5064  0.2958 -0.4670
  402MOL0     H55453  -0.926   5.905  -0.098 -0.1363  0.4353 -0.9679
  402MOL0     H55454  -0.865   6.005  -0.385  1.5023 -2.0167  0.6676
  402MOL0     H55455  -1.028   5.973  -0.317 -1.1367 -1.2234  0.3365
  402MOL0     H55456  -0.224   6.088   0.583  2.0042  1.1322  2.8451
  402MOL0     H55457  -0.095   5.985   0.789  0.5849 -2.3500  0.9840
  402MOL0     H55458   0.048   5.636   0.955 -0.6967 -0.1359 -3.9558
  402MOL0     H55459   0.163   5.491   1.153  3.1974 -2.7525  0.3779
  402MOL0     H55460   0.924   3.664   0.882  4.1539  1.7522  0.3430
  402MOL0     H55461   0.985   3.456   0.714  0.6170 -0.0486  0.5958
  402MOL0     H55462   1.069   3.232   0.466 -5.6896  0.7942 -0.2858
  402MOL0     H55463   1.085   3.002   0.348 -1.6856 -0.3255  0.7936
  402MOL0     H55464   0.998   2.844  -0.012 -0.0729 -0.2058 -2.5365
  402MOL0     H55465   0.972   3.019  -0.042  1.7331  0.9666  2.2186
  402MOL0     H55466   1.226   2.862  -0.072 -0.2475 -0.0361 -0.7407
  402MOL0     H55467   1.204   3.036  -0.121 -1.5387  0.6155 -2.3986
  402MOL0     H55468   1.055   2.789  -0.229  2.9878 -0.6782  0.4371
  402MOL0     H55469   1.028   2.956  -0.278 -0.7007 -0.4452  0.0838
  402MOL0     H55470   1.256   2.976  -0.366  1.1069 -0.8774 -1.4483
  402MOL0     H55471   1.164   2.855  -0.449 -0.8853  0.6526  1.6369
  402MOL0     H55472   1.495   2.633  -0.300 -1.3550 -1.2515 -2.2749
  402MOL0     H55473   1.157   3.193  -0.013 -3.4618  1.2063 -0.5800
  402MOL0     H55474   1.274   3.481   0.084 -0.2308  0.1983 -1.8873
  402MOL0     H55475   1.167   3.417  -0.039  0.6094  2.1662 -0.9138
  402MOL0     H55476   1.101   3.535   0.078 -1.5782 -1.4604  1.9906
  403MOL0     O55477  10.048   6.199   8.229 -0.1996 -0.7839 -0.0450
  403MOL0     C55478  10.114   6.296   8.267  0.2711 -0.5696  0.0358
  403MOL0     O55479  10.169   6.295   8.392 -1.1057  0.1835 -0.0167
  403MOL0     C55480  10.158   6.180   8.473  0.1529  0.8538  1.1574
  403MOL0     C55481  10.280   6.107   8.506  0.5811  0.4170 -0.9510
  403MOL0     C55482  10.256   5.987   8.579 -0.1393  0.1680 -0.5326
  403MOL0     C55483  10.132   5.953   8.642  0.8720 -0.3977  0.4575
  403MOL0     O55484  10.136   5.839   8.713 -0.8677  0.1060  0.5004
  403MOL0     C55485  10.055   5.824   8.829 -0.5081  0.7207  0.2778
  403MOL0     C55486  10.094   5.687   8.890  0.9818 -0.5223  0.9064
  403MOL0     C55487  10.055   5.564   8.809  0.1638  0.3124 -0.3684
  403MOL0     C55488   9.925   5.503   8.851  0.0783  0.1854 -0.5171
  403MOL0     C55489   9.955   5.412   8.978 -0.7062  0.1806 -0.5894
  403MOL0     C55490   9.884   5.280   8.974  0.9918  0.5996 -0.2294
  403MOL0     C55491   9.732   5.285   8.958  0.0289 -0.1084 -0.1709
  403MOL0     C55492   9.688   5.152   9.013  0.2236 -0.2522 -1.0663
  403MOL0     N55493   9.543   5.148   9.032  0.0558 -0.1747 -0.1542
  403MOL0     C55494   9.457   5.125   8.922  0.2450  0.0517  0.6353
  403MOL0     C55495   9.340   5.144   8.980 -0.0239  0.9290  0.4615
  403MOL0     C55496   9.210   5.104   8.912  0.7268  0.4545  1.0005
  403MOL0     C55497   9.134   5.234   8.867  0.0463  0.0846  0.3309
  403MOL0     C55498   9.048   5.314   8.973  0.4359  0.0897  0.1372
  403MOL0     C55499   8.955   5.424   8.919 -1.3109  0.5217  0.1292
  403MOL0     O55500   8.861   5.384   8.821 -0.7051  0.2562  0.2124
  403MOL0     C55501   8.788   5.478   8.751 -0.5269  0.4519 -0.1428
  403MOL0     C55502   8.663   5.449   8.713 -0.3065 -0.3032  0.6782
  403MOL0     C55503   8.582   5.544   8.641  0.5745 -0.0720  0.1257
  403MOL0     C55504   8.447   5.499   8.585 -0.3204 -0.5901 -0.7408
  403MOL0     C55505   8.630   5.670   8.616 -0.1050 -0.0118  0.0887
  403MOL0     C55506   8.573   5.788   8.549 -0.2178 -0.9358 -0.2717
  403MOL0     O55507   8.619   5.906   8.602  0.6845 -0.8140 -0.5387
  403MOL0     C55508   8.545   6.025   8.587 -0.1740  0.5845 -0.2249
  403MOL0     C55509   8.404   6.035   8.577  0.2899  0.7076  0.3369
  403MOL0     C55510   8.349   6.160   8.563  0.4878 -0.6194  0.7890
  403MOL0     C55511   8.424   6.276   8.568  0.0190 -0.1469  0.2673
  403MOL0     O55512   8.370   6.398   8.563 -0.0760 -0.2912  0.4112
  403MOL0     C55513   8.397   6.460   8.432 -0.2294  0.5997 -0.4597
  403MOL0     C55514   8.294   6.576   8.415  0.7191  0.4626  0.3816
  403MOL0     C55515   8.317   6.651   8.281  0.4623 -0.2602  0.0572
  403MOL0     C55516   8.355   6.800   8.311 -0.0282  0.8799 -0.6147
  403MOL0     C55517   8.370   6.882   8.188 -1.2567  0.0119  0.6261
  403MOL0     C55518   8.456   7.012   8.224  0.5816 -0.3731  0.2775
  403MOL0     C55519   8.466   7.118   8.106 -0.1510 -0.7473 -0.0975
  403MOL0     C55520   8.560   7.225   8.153  0.0006 -0.1036 -0.2479
  403MOL0    Cl55521   8.519   7.289   8.322  0.3738  0.1207 -0.5605
  403MOL0     C55522   8.565   6.263   8.581  0.6812  0.2920 -0.4184
  403MOL0     C55523   8.619   6.139   8.586 -0.1124 -0.2435 -0.2306
  403MOL0     O55524   8.499   5.777   8.455 -0.0435  0.2206  0.6229
  403MOL0     C55525   8.765   5.696   8.656 -0.7402 -0.1894  0.3129
  403MOL0     C55526   8.844   5.603   8.722 -0.0613 -0.8862 -0.0592
  403MOL0     N55527   9.355   5.184   9.111  0.3693 -0.1168  0.1227
  403MOL0     N55528   9.479   5.192   9.143  0.3736 -0.0273  0.0988
  403MOL0     C55529  10.015   6.018   8.594  0.4577  0.1133 -0.3349
  403MOL0     C55530  10.037   6.136   8.520 -0.3447  0.9109 -0.0435
  403MOL0     C55531  10.109   6.430   8.205  0.4955 -1.0941  0.4952
  403MOL0     C55532  10.166   6.538   8.276  0.3836  0.3449  0.7439
  403MOL0     C55533  10.154   6.670   8.236 -0.5897  0.6542 -1.4777
  403MOL0     C55534  10.085   6.699   8.118  0.2791 -0.6295 -0.2941
  403MOL0     O55535  10.088   6.824   8.063 -0.5144 -0.1316  0.2972
  403MOL0     C55536  10.199   6.912   8.097 -0.1208 -0.0276  0.4541
  403MOL0     C55537  10.181   7.032   8.015 -0.4544 -0.1162  0.0109
  403MOL0     C55538  10.300   7.130   8.018  0.1204  1.0263  0.2941
  403MOL0     C55539  10.265   7.273   8.002 -0.7768  0.1847  0.8601
  403MOL0     C55540  10.212   7.324   8.132  0.4344 -0.1285  0.9670
  403MOL0     C55541  10.169   7.347   8.238 -0.5824 -0.7796 -0.4131
  403MOL0     C55542  10.012   6.591   8.056 -0.5819  0.2034 -0.6601
  403MOL0     C55543  10.032   6.459   8.081 -0.9724 -0.5090 -0.7834
  403MOL0     C55544   9.973   6.356   7.991 -0.7949 -0.0751  0.4771
  403MOL0     H55545  10.377   6.131   8.465  0.4300  0.7186 -1.1289
  403MOL0     H55546  10.345   5.930   8.602 -0.7189 -1.4472 -2.0740
  403MOL0     H55547   9.947   5.833   8.810 -1.2055 -1.4157  2.6899
  403MOL0     H55548  10.073   5.905   8.900 -1.4636 -0.4501  1.9268
  403MOL0     H55549  10.202   5.678   8.905  0.9444 -3.9220 -0.0068
  403MOL0     H55550  10.060   5.684   8.993 -1.9217  0.9435  0.1040
  403MOL0     H55551  10.041   5.587   8.703 -5.2752 -2.2222 -0.5022
  403MOL0     H55552  10.142   5.497   8.814 -0.5147 -0.5414  0.2791
  403MOL0     H55553   9.836   5.565   8.860 -0.3125 -0.5869  1.4656
  403MOL0     H55554   9.917   5.444   8.759  1.3714  2.2491 -2.0391
  403MOL0     H55555   9.937   5.467   9.071  1.1079 -1.4437  0.8091
  403MOL0     H55556  10.060   5.383   8.984 -1.4251 -2.7444 -0.8155
  403MOL0     H55557   9.927   5.218   8.894  1.4098  2.1868 -1.2724
  403MOL0     H55558   9.910   5.224   9.064 -0.0958 -0.3611 -0.4898
  403MOL0     H55559   9.704   5.299   8.853  2.3538  3.7611 -0.4785
  403MOL0     H55560   9.688   5.367   9.015  1.7663 -0.1499  1.2936
  403MOL0     H55561   9.720   5.068   8.952  0.2593 -1.2034  0.2109
  403MOL0     H55562   9.731   5.137   9.113  0.9729 -0.1696 -1.3701
  403MOL0     H55563   9.481   5.078   8.826  1.3571 -3.5911  2.4984
  403MOL0     H55564   9.148   5.039   8.974 -0.7953  1.8188  0.9615
  403MOL0     H55565   9.234   5.048   8.821 -4.3948 -1.9048  0.7716
  403MOL0     H55566   9.196   5.305   8.812 -2.5949  0.8997 -1.8120
  403MOL0     H55567   9.071   5.192   8.788  0.1375 -2.7230  1.6430
  403MOL0     H55568   8.987   5.243   9.030 -0.7966  0.0488 -1.1895
  403MOL0     H55569   9.119   5.361   9.041 -1.0176 -0.5291  2.1965
  403MOL0     H55570   8.901   5.471   9.001 -1.6282  3.4143 -1.5704
  403MOL0     H55571   9.030   5.495   8.881  1.5731 -2.3601 -0.0189
  403MOL0     H55572   8.613   5.355   8.732 -0.2612  0.0565  2.8202
  403MOL0     H55573   8.371   5.561   8.633  1.0808 -1.7665  3.4659
  403MOL0     H55574   8.433   5.393   8.606  0.7775 -0.6029  0.0111
  403MOL0     H55575   8.442   5.512   8.477 -1.2995  1.8806 -0.4627
  403MOL0     H55576   8.338   5.949   8.572  1.0558  0.1766 -1.0552
  403MOL0     H55577   8.242   6.167   8.546 -0.0808  3.1920  4.2859
  403MOL0     H55578   8.501   6.494   8.427  0.2275 -0.3393  1.7164
  403MOL0     H55579   8.390   6.390   8.348  1.8269 -0.7495  0.4417
  403MOL0     H55580   8.194   6.535   8.398  0.4633  1.7952 -1.5518
  403MOL0     H55581   8.296   6.643   8.501  1.7257  0.0042  0.7346
  403MOL0     H55582   8.227   6.641   8.221 -0.5920  0.7099  1.4195
  403MOL0     H55583   8.403   6.613   8.225 -0.1760  2.0501 -2.7414
  403MOL0     H55584   8.451   6.797   8.364 -1.2438 -0.2084  1.7014
  403MOL0     H55585   8.280   6.837   8.382 -1.9767 -4.3018  0.4861
  403MOL0     H55586   8.425   6.841   8.102 -0.5844  1.0660  0.5402
  403MOL0     H55587   8.274   6.921   8.153  0.1329  3.6934  0.5119
  403MOL0     H55588   8.555   6.984   8.261  0.6830 -0.4243 -0.0249
  403MOL0     H55589   8.406   7.066   8.305 -1.0627  1.4471 -1.8191
  403MOL0     H55590   8.367   7.156   8.076  0.7968  1.0752 -1.0664
  403MOL0     H55591   8.505   7.075   8.013 -1.2991  2.0980 -2.0175
  403MOL0     H55592   8.560   7.308   8.082  0.3718  0.8677  0.8390
  403MOL0     H55593   8.658   7.177   8.155 -1.0642 -2.4509  1.6868
  403MOL0     H55594   8.634   6.346   8.570 -0.3116  0.9603 -2.1704
  403MOL0     H55595   8.726   6.131   8.604 -0.0130 -1.4777 -1.1895
  403MOL0     H55596   8.818   5.789   8.638  1.3712 -1.0355  1.6929
  403MOL0     H55597   8.946   5.623   8.754 -0.4714 -2.2363  2.2844
  403MOL0     H55598   9.913   5.991   8.619  0.1131  0.3140 -1.4736
  403MOL0     H55599   9.943   6.187   8.499 -0.2924  1.3720  0.8002
  403MOL0     H55600  10.234   6.539   8.361  3.2789  3.7544 -1.3438
  403MOL0     H55601  10.216   6.739   8.293  0.6979 -0.4559 -1.4725
  403MOL0     H55602  10.200   6.939   8.203 -1.7852  3.8316 -0.3135
  403MOL0     H55603  10.295   6.870   8.065  0.5318  0.9836  0.9911
  403MOL0     H55604  10.085   7.074   8.047 -2.9066 -2.6576 -3.1938
  403MOL0     H55605  10.174   7.004   7.909 -1.6030  0.2791 -0.0385
  403MOL0     H55606  10.358   7.099   8.106  2.6078  1.3444 -1.1430
  403MOL0     H55607  10.357   7.120   7.925 -2.7994  1.8259 -1.7082
  403MOL0     H55608  10.196   7.271   7.918 -0.7941  0.6191  0.8585
  403MOL0     H55609  10.353   7.327   7.966 -1.0599 -0.3693 -0.7275
  403MOL0     H55610  10.129   7.359   8.336  0.8180  1.3106 -0.0612
  403MOL0     H55611   9.966   6.617   7.961  0.7398 -1.0034 -1.6822
  403MOL0     H55612   9.883   6.306   8.027 -3.2001  2.9848 -0.7479
  403MOL0     H55613   9.952   6.407   7.897 -2.4089  0.8771  1.3011
  403MOL0     H55614  10.053   6.282   7.981 -2.2149 -1.3119 -3.0584
  404MOL0     O55615   5.408  10.329   4.775  0.7333  0.6484 -0.6453
  404MOL0     C55616   5.421  10.446   4.807 -0.4404 -0.6941 -0.2296
  404MOL0     O55617   5.449  10.500   4.930 -0.5204 -0.4642 -0.1404
  404MOL0     C55618   5.477  10.419   5.038  0.5393 -0.9583  1.0229
  404MOL0     C55619   5.572  10.482   5.123 -0.7021  0.8665 -0.5091
  404MOL0     C55620   5.630  10.408   5.222  0.2695  0.7887  0.7798
  404MOL0     C55621   5.586  10.281   5.250  0.7609  0.2603 -0.4350
  404MOL0     O55622   5.634  10.199   5.353  0.6635 -0.3313  0.2806
  404MOL0     C55623   5.733  10.250   5.446  0.2806 -0.2548  0.5385
  404MOL0     C55624   5.871  10.255   5.378 -0.0261  1.1104  0.2642
  404MOL0     C55625   5.913  10.102   5.356  0.2487  0.3741 -0.5105
  404MOL0     C55626   6.065  10.091   5.324  0.1639  0.5913  0.6881
  404MOL0     C55627   6.105  10.148   5.184 -0.1614  0.4515  0.0766
  404MOL0     C55628   6.259  10.140   5.148 -1.2112 -0.6767 -0.0078
  404MOL0     C55629   6.303  10.262   5.071  0.0549  0.3039 -0.0864
  404MOL0     C55630   6.441  10.234   5.003  0.2715  0.7003  0.6101
  404MOL0     N55631   6.525  10.348   4.976 -0.1808  0.4028  0.2591
  404MOL0     C55632   6.664  10.359   4.976  0.8601 -0.3321  0.7518
  404MOL0     C55633   6.691  10.482   4.935 -0.0764 -0.3915 -0.5194
  404MOL0     C55634   6.825  10.534   4.901  0.3416 -0.3335  0.1161
  404MOL0     C55635   6.822  10.569   4.746 -0.7794 -0.4139 -0.2859
  404MOL0     C55636   6.958  10.613   4.699  0.3924 -0.6039 -0.4514
  404MOL0     C55637   7.000  10.758   4.743  0.0377  0.1453  0.4957
  404MOL0     O55638   6.885  10.838   4.705 -0.0925  0.7072 -0.1218
  404MOL0     C55639   6.882  10.977   4.718 -0.5347  0.2053  0.3031
  404MOL0     C55640   6.965  11.055   4.798  0.0826 -0.5456 -0.0577
  404MOL0     C55641   6.963  11.199   4.802  0.5482  1.1935 -0.6287
  404MOL0     C55642   7.070  11.264   4.887 -0.3360 -0.0465  0.2354
  404MOL0     C55643   6.864  11.267   4.738 -0.0847 -0.3343  0.0845
  404MOL0     C55644   6.852  11.418   4.718 -0.7389 -0.5189 -0.2148
  404MOL0     O55645   6.765  11.467   4.631  0.1814 -0.0699  0.7590
  404MOL0     C55646   6.747  11.603   4.597  0.0512 -0.0948 -0.5786
  404MOL0     C55647   6.852  11.683   4.555 -0.3364 -0.2336  0.3894
  404MOL0     C55648   6.840  11.818   4.529  0.7326 -0.7307  0.4205
  404MOL0     C55649   6.709  11.877   4.551 -0.6147 -0.0316 -0.6988
  404MOL0     O55650   6.666  12.004   4.516 -0.0473 -0.3728  0.1846
  404MOL0     C55651   6.773  12.102   4.510 -0.2071 -0.4007 -0.5856
  404MOL0     C55652   6.709  12.219   4.437 -0.4648 -0.2455  0.7214
  404MOL0     C55653   6.570  12.264   4.475  1.4892 -0.2145  0.1413
  404MOL0     C55654   6.545  12.390   4.389 -0.6290  0.3116  0.5001
  404MOL0     C55655   6.406  12.455   4.402 -0.4713  0.3580 -0.5403
  404MOL0     C55656   6.307  12.418   4.296 -0.5772 -0.2116  0.4575
  404MOL0     C55657   6.283  12.276   4.277 -0.3083 -0.3477 -0.1240
  404MOL0     C55658   6.162  12.253   4.181 -0.2064 -1.0588 -0.8783
  404MOL0    Cl55659   6.095  12.086   4.182  0.0664 -0.3159 -0.2647
  404MOL0     C55660   6.604  11.794   4.591 -0.2941 -0.1799 -0.4187
  404MOL0     C55661   6.623  11.656   4.605 -0.2141 -0.6496 -0.4154
  404MOL0     O55662   6.949  11.489   4.752 -0.1232 -0.1142  0.8986
  404MOL0     C55663   6.768  11.184   4.672 -0.2453  0.2016 -0.1191
  404MOL0     C55664   6.778  11.043   4.660  0.3399 -0.5124 -0.7535
  404MOL0     N55665   6.576  10.545   4.913 -0.3564 -0.8057 -0.0083
  404MOL0     N55666   6.479  10.460   4.928 -0.5164 -0.1946 -0.5588
  404MOL0     C55667   5.478  10.224   5.177 -0.5782  0.4995 -1.0196
  404MOL0     C55668   5.426  10.292   5.068  0.4437 -0.1034 -0.5537
  404MOL0     C55669   5.406  10.551   4.706  0.1774  0.0653  0.4501
  404MOL0     C55670   5.284  10.544   4.630  0.1045 -0.8438 -1.1521
  404MOL0     C55671   5.259  10.654   4.541 -0.2045  0.1248 -0.7134
  404MOL0     C55672   5.354  10.758   4.521  0.1171 -0.7352  0.4244
  404MOL0     O55673   5.330  10.849   4.424  0.1194  0.5285  0.5455
  404MOL0     C55674   5.436  10.905   4.357 -1.3938  0.2172  1.4158
  404MOL0     C55675   5.391  10.980   4.226  0.6919  0.5263 -0.8180
  404MOL0     C55676   5.315  11.103   4.273  0.4002  0.4068 -0.2632
  404MOL0     C55677   5.196  11.130   4.180  0.1536 -0.1934  0.1409
  404MOL0     C55678   5.251  11.162   4.050 -0.3877 -0.5835  0.3210
  404MOL0     C55679   5.297  11.188   3.938  0.5145 -0.1377 -0.1083
  404MOL0     C55680   5.470  10.758   4.601 -0.2103  1.1226 -0.1952
  404MOL0     C55681   5.489  10.664   4.700  0.2501  0.2006 -0.3449
  404MOL0     C55682   5.619  10.679   4.781  0.1756  0.0189  0.6081
  404MOL0     H55683   5.615  10.575   5.089  1.0098  0.0709 -0.6334
  404MOL0     H55684   5.708  10.443   5.288  0.0862 -0.8520  1.9237
  404MOL0     H55685   5.740  10.188   5.535  0.5908 -1.3022 -0.1975
  404MOL0     H55686   5.709  10.349   5.488 -3.9028 -0.3491 -1.1605
  404MOL0     H55687   5.878  10.304   5.280  1.7100  1.9807  0.7893
  404MOL0     H55688   5.940  10.303   5.448  0.4079 -1.0094  1.3666
  404MOL0     H55689   5.909  10.029   5.437  0.9215 -1.3389 -1.9441
  404MOL0     H55690   5.849  10.065   5.276  2.7790  1.1080 -3.0457
  404MOL0     H55691   6.131  10.141   5.396  1.0131  1.0146 -0.3488
  404MOL0     H55692   6.098   9.987   5.312  1.1104  0.2613  4.6535
  404MOL0     H55693   6.077  10.253   5.172  0.2276  0.4842 -0.5736
  404MOL0     H55694   6.054  10.092   5.106  0.8942  0.1602 -0.4199
  404MOL0     H55695   6.322  10.137   5.238 -1.0335  0.2049 -0.0952
  404MOL0     H55696   6.271  10.043   5.099 -1.3800 -0.8541  0.2999
  404MOL0     H55697   6.324  10.347   5.137  2.8084 -0.3957  0.0967
  404MOL0     H55698   6.233  10.300   4.996 -0.4465  4.3600  2.1640
  404MOL0     H55699   6.502  10.169   5.066  2.1893  1.5607 -0.2587
  404MOL0     H55700   6.423  10.175   4.912  0.2705  3.9435 -1.6692
  404MOL0     H55701   6.735  10.282   5.005  0.1284 -1.3346 -0.0368
  404MOL0     H55702   6.907  10.465   4.923 -0.3642 -1.2606 -0.0999
  404MOL0     H55703   6.833  10.622   4.965 -1.9161 -0.9546  1.3745
  404MOL0     H55704   6.811  10.471   4.699  2.1131 -1.2306  0.5558
  404MOL0     H55705   6.737  10.635   4.725 -1.4732 -0.3380  2.3303
  404MOL0     H55706   7.039  10.547   4.732  2.3160  1.4331 -0.7985
  404MOL0     H55707   6.964  10.614   4.590 -0.2848 -1.3406 -0.4995
  404MOL0     H55708   7.021  10.764   4.851  2.0562 -1.4070  0.2649
  404MOL0     H55709   7.087  10.785   4.682 -1.6329  3.0370 -0.7932
  404MOL0     H55710   7.035  10.996   4.857  2.2915  1.6399 -0.3171
  404MOL0     H55711   7.140  11.318   4.824  2.8448 -2.1356  1.7130
  404MOL0     H55712   7.126  11.189   4.944  1.4630 -0.4926 -2.0051
  404MOL0     H55713   7.036  11.333   4.965 -1.9138  1.1820 -1.4466
  404MOL0     H55714   6.953  11.641   4.556 -1.5601 -3.5282  0.1333
  404MOL0     H55715   6.925  11.861   4.477  0.9393 -1.5117  0.1099
  404MOL0     H55716   6.802  12.150   4.604 -3.1899  0.1008  0.1985
  404MOL0     H55717   6.855  12.068   4.446 -1.3481 -0.4571 -2.0753
  404MOL0     H55718   6.771  12.308   4.453  0.8705  0.3577 -5.3970
  404MOL0     H55719   6.719  12.186   4.333 -1.2280  0.2199  0.4927
  404MOL0     H55720   6.569  12.290   4.582 -3.0173  0.3517  0.1758
  404MOL0     H55721   6.489  12.192   4.458 -0.5794  1.1695  3.2037
  404MOL0     H55722   6.565  12.362   4.285  0.9834 -1.8759  1.3369
  404MOL0     H55723   6.619  12.461   4.429 -1.0243 -0.4460  2.7100
  404MOL0     H55724   6.386  12.435   4.507 -0.9391  5.8436  0.7207
  404MOL0     H55725   6.414  12.564   4.393  0.2983  0.3338 -0.2386
  404MOL0     H55726   6.345  12.464   4.204  1.1723 -3.6663 -0.7415
  404MOL0     H55727   6.218  12.470   4.332  0.7730  1.3417  1.6785
  404MOL0     H55728   6.255  12.226   4.371  0.6551  2.6334  1.8878
  404MOL0     H55729   6.371  12.223   4.239 -0.2628 -0.2579 -0.1434
  404MOL0     H55730   6.193  12.279   4.079  0.1535 -0.2867 -0.5805
  404MOL0     H55731   6.089  12.329   4.212 -1.2303 -0.9374 -3.3579
  404MOL0     H55732   6.506  11.839   4.593  0.8754  2.5513  1.1598
  404MOL0     H55733   6.542  11.590   4.632 -3.0429  2.4350 -0.7898
  404MOL0     H55734   6.683  11.218   4.614  0.2108 -1.7954 -2.0828
  404MOL0     H55735   6.719  10.991   4.585  0.2790 -0.8027 -0.5063
  404MOL0     H55736   5.451  10.121   5.201  2.3774 -0.5731 -1.9185
  404MOL0     H55737   5.349  10.249   5.005  0.7836  1.8831 -2.4190
  404MOL0     H55738   5.211  10.465   4.647 -3.3767  2.3957  0.5176
  404MOL0     H55739   5.170  10.662   4.480 -2.4492  1.2623  2.4341
  404MOL0     H55740   5.476  10.983   4.422  0.0969 -2.1339  3.5405
  404MOL0     H55741   5.517  10.839   4.324  0.8025  3.3189  0.2009
  404MOL0     H55742   5.332  10.914   4.162  1.5417 -1.0809 -0.0052
  404MOL0     H55743   5.477  11.001   4.162  0.5499  1.8301 -0.6220
  404MOL0     H55744   5.275  11.095   4.374 -0.2055 -0.4917 -0.5646
  404MOL0     H55745   5.384  11.188   4.274 -2.0210  2.4647 -0.3442
  404MOL0     H55746   5.136  11.217   4.208 -0.5168 -0.7744  0.5206
  404MOL0     H55747   5.131  11.043   4.170  0.8191 -0.7781  0.7382
  404MOL0     H55748   5.340  11.213   3.843 -0.7852 -1.3389 -1.0467
  404MOL0     H55749   5.539  10.842   4.600 -0.5990  1.4668  0.9514
  404MOL0     H55750   5.661  10.578   4.786 -0.5027 -0.4482 -1.9905
  404MOL0     H55751   5.694  10.736   4.725 -2.1159 -0.3526 -3.1691
  404MOL0     H55752   5.616  10.714   4.885 -0.8273 -2.4699  1.4858
  405MOL0     O55753   4.997   3.978   0.915 -0.2268 -0.4871  0.6112
  405MOL0     C55754   5.072   3.928   0.833 -0.5545  0.4008  0.7383
  405MOL0     O55755   5.124   3.805   0.838  0.1080  0.3332 -0.0759
  405MOL0     C55756   5.106   3.715   0.938  1.0876  0.9524 -0.2282
  405MOL0     C55757   5.018   3.719   1.056  0.4904 -0.3316 -0.3972
  405MOL0     C55758   5.045   3.630   1.164  0.0263 -1.6143  1.1441
  405MOL0     C55759   5.143   3.532   1.162  0.0646  0.5574  0.6186
  405MOL0     O55760   5.148   3.434   1.253  0.2214 -0.4115  0.3907
  405MOL0     C55761   5.060   3.427   1.366  0.3404 -0.4154  0.6616
  405MOL0     C55762   5.101   3.324   1.477  0.9739  0.5019 -0.0552
  405MOL0     C55763   5.219   3.364   1.562  0.7966 -0.3968  0.4138
  405MOL0     C55764   5.330   3.260   1.568 -0.7070 -0.1831  0.1276
  405MOL0     C55765   5.470   3.328   1.598  0.3144  0.4000  0.3721
  405MOL0     C55766   5.584   3.239   1.538  0.4043 -1.0454 -0.1790
  405MOL0     C55767   5.604   3.114   1.620 -0.0662  0.6064 -0.3734
  405MOL0     C55768   5.518   2.989   1.572 -0.2553  0.0651  0.8753
  405MOL0     N55769   5.555   2.856   1.632  0.4825 -0.4446 -0.4097
  405MOL0     C55770   5.526   2.818   1.757 -0.1732  0.9454 -0.8879
  405MOL0     C55771   5.589   2.702   1.791  0.7241 -1.1865  0.0775
  405MOL0     C55772   5.575   2.644   1.934 -0.8676 -0.4176  0.0470
  405MOL0     C55773   5.433   2.598   1.969 -0.1455  0.3227 -0.2627
  405MOL0     C55774   5.378   2.499   1.868  0.0091  0.0548  0.5974
  405MOL0     C55775   5.444   2.358   1.893 -0.5510 -0.6352 -0.4799
  405MOL0     O55776   5.375   2.258   1.809 -0.3678 -1.0603  0.0944
  405MOL0     C55777   5.442   2.195   1.707 -0.1431 -0.4153 -0.2878
  405MOL0     C55778   5.570   2.239   1.660 -0.3876 -0.5773  0.4293
  405MOL0     C55779   5.635   2.182   1.552  0.5589  0.0250  0.3377
  405MOL0     C55780   5.762   2.252   1.506 -0.3976  0.0328 -0.5218
  405MOL0     C55781   5.586   2.062   1.497 -0.1480 -0.9438  0.7355
  405MOL0     C55782   5.663   1.975   1.408  0.1723 -0.3007  0.6247
  405MOL0     O55783   5.795   1.996   1.419 -0.6278 -0.0702 -0.5706
  405MOL0     C55784   5.875   1.925   1.327 -0.1351  0.0315 -0.2073
  405MOL0     C55785   5.910   1.989   1.199 -0.1194  1.1199 -0.8448
  405MOL0     C55786   6.000   1.927   1.116  0.2635  0.8317 -0.6852
  405MOL0     C55787   6.058   1.798   1.150  0.1166 -0.7648 -0.2158
  405MOL0     O55788   6.150   1.726   1.075 -0.1212  0.2903  0.2388
  405MOL0     C55789   6.152   1.747   0.931 -0.6760  0.2501  0.5603
  405MOL0     C55790   6.283   1.696   0.864 -0.9254  0.3079  0.1023
  405MOL0     C55791   6.307   1.555   0.897 -0.6206 -0.4035  0.1157
  405MOL0     C55792   6.410   1.481   0.823  1.3328  0.2988  0.5735
  405MOL0     C55793   6.554   1.530   0.832  0.3157 -0.4216  0.3120
  405MOL0     C55794   6.668   1.430   0.783  0.7802 -0.0620  0.1131
  405MOL0     C55795   6.633   1.364   0.642 -0.8598 -0.0237 -0.1379
  405MOL0     C55796   6.642   1.464   0.525 -0.0146 -0.0584 -0.3410
  405MOL0    Cl55797   6.811   1.538   0.521 -0.1136 -0.2957  0.1501
  405MOL0     C55798   6.018   1.744   1.274 -1.0389  0.3255  1.0274
  405MOL0     C55799   5.935   1.808   1.364 -0.3805  0.5091  0.3675
  405MOL0     O55800   5.610   1.890   1.334 -1.0853 -0.0889 -0.3679
  405MOL0     C55801   5.463   2.008   1.543  0.0983 -0.2292 -0.6175
  405MOL0     C55802   5.384   2.084   1.641 -0.1255  0.3047  0.2151
  405MOL0     N55803   5.655   2.670   1.680 -0.0731  0.1004 -0.2501
  405MOL0     N55804   5.637   2.764   1.583 -0.4229 -0.7896 -0.5532
  405MOL0     C55805   5.214   3.517   1.038 -0.0475 -0.5158  0.7026
  405MOL0     C55806   5.194   3.604   0.927 -0.0754 -0.3610 -0.0287
  405MOL0     C55807   5.080   4.013   0.707 -1.1370  1.7116  1.0945
  405MOL0     C55808   4.992   4.124   0.684 -0.4017  0.0682 -0.1146
  405MOL0     C55809   4.999   4.203   0.570  0.2604  0.5782 -0.2445
  405MOL0     C55810   5.084   4.167   0.465  1.2774 -0.0535  0.1392
  405MOL0     O55811   5.075   4.250   0.354 -0.1428 -0.1594 -0.1162
  405MOL0     C55812   5.165   4.245   0.248  0.1105 -0.2287 -0.1536
  405MOL0     C55813   5.143   4.372   0.158  0.5482 -0.0967  0.4672
  405MOL0     C55814   5.006   4.375   0.080  0.0645 -0.5521  0.3793
  405MOL0     C55815   4.985   4.514   0.013 -0.2431  0.1455  0.1368
  405MOL0     C55816   4.869   4.514  -0.075  0.1354  0.2450  1.4255
  405MOL0     C55817   4.766   4.526  -0.145 -0.4130  0.0537  0.1736
  405MOL0     C55818   5.165   4.054   0.477  0.6433  0.2160 -0.4762
  405MOL0     C55819   5.169   3.977   0.599 -0.0067 -0.2108  0.9366
  405MOL0     C55820   5.276   3.869   0.608 -0.0411 -0.0374 -0.5703
  405MOL0     H55821   4.939   3.793   1.053  0.5765 -0.0784  1.7087
  405MOL0     H55822   4.971   3.630   1.244 -1.5935  1.2210 -0.1945
  405MOL0     H55823   4.964   3.396   1.325  0.4660  1.3240 -1.0553
  405MOL0     H55824   5.040   3.525   1.410  4.1897  0.8171  0.0748
  405MOL0     H55825   5.022   3.307   1.551  0.6629  0.0661 -0.4839
  405MOL0     H55826   5.128   3.235   1.421 -0.1014 -0.8546  1.4836
  405MOL0     H55827   5.250   3.464   1.530 -3.4177  0.8528 -0.3366
  405MOL0     H55828   5.182   3.370   1.665 -1.2462 -1.6160 -0.1930
  405MOL0     H55829   5.307   3.191   1.649  0.7093  0.1850  0.8816
  405MOL0     H55830   5.341   3.199   1.478 -0.0851 -2.7241  1.8427
  405MOL0     H55831   5.484   3.348   1.705  2.4106  0.1669  0.1894
  405MOL0     H55832   5.473   3.420   1.539  1.2186 -0.1604 -0.4877
  405MOL0     H55833   5.570   3.223   1.431 -0.3745  0.0735 -0.2688
  405MOL0     H55834   5.678   3.294   1.546 -0.8102  0.9685  1.0904
  405MOL0     H55835   5.585   3.135   1.725 -0.3052  1.3568 -0.5608
  405MOL0     H55836   5.707   3.079   1.607 -0.1150  1.0807 -2.4738
  405MOL0     H55837   5.415   3.012   1.602 -0.4233  2.4119 -1.2010
  405MOL0     H55838   5.528   2.967   1.465  2.4727  0.5263  0.9656
  405MOL0     H55839   5.459   2.877   1.819 -1.3991 -2.5328  1.4317
  405MOL0     H55840   5.607   2.724   2.001  0.7766 -0.3710 -0.7548
  405MOL0     H55841   5.651   2.567   1.949  2.4517  2.5216 -0.4927
  405MOL0     H55842   5.416   2.558   2.069  2.2376  2.0334  0.9256
  405MOL0     H55843   5.378   2.693   1.969 -0.3989  0.2326 -2.5768
  405MOL0     H55844   5.271   2.484   1.882 -0.2968  0.2841 -1.2196
  405MOL0     H55845   5.404   2.528   1.766  2.7978 -1.2860  0.8550
  405MOL0     H55846   5.553   2.371   1.894 -0.6913  0.7836  0.7109
  405MOL0     H55847   5.415   2.340   1.997  0.8612 -2.4920 -0.3663
  405MOL0     H55848   5.616   2.335   1.682  2.1555 -1.9161  1.4285
  405MOL0     H55849   5.783   2.235   1.400  0.1432  0.2364 -0.4501
  405MOL0     H55850   5.843   2.201   1.559  0.5551 -0.9441 -2.7942
  405MOL0     H55851   5.764   2.360   1.522 -2.5815  0.3011 -1.5936
  405MOL0     H55852   5.862   2.086   1.189  0.3362  1.4390 -0.0292
  405MOL0     H55853   6.039   1.977   1.028  2.7946  0.4919  0.1605
  405MOL0     H55854   6.066   1.693   0.891 -0.0026 -0.9060  0.6108
  405MOL0     H55855   6.139   1.851   0.900 -0.2252 -0.4188 -2.1412
  405MOL0     H55856   6.262   1.697   0.756 -0.5520 -2.3853 -0.0719
  405MOL0     H55857   6.367   1.762   0.887 -1.8625  1.3971  0.4858
  405MOL0     H55858   6.214   1.504   0.868 -0.9336  1.4182 -2.5180
  405MOL0     H55859   6.330   1.552   1.004 -0.8763 -1.5022  0.1515
  405MOL0     H55860   6.388   1.486   0.716  1.2857  0.9218  0.6132
  405MOL0     H55861   6.390   1.379   0.857  2.1290  0.0577  0.3512
  405MOL0     H55862   6.576   1.623   0.778 -0.7354  0.8113  1.9132
  405MOL0     H55863   6.576   1.549   0.937  0.1863 -0.7943  0.4091
  405MOL0     H55864   6.679   1.347   0.853  1.2743 -1.7165 -1.8253
  405MOL0     H55865   6.761   1.487   0.776  0.7689  0.2242  1.9684
  405MOL0     H55866   6.538   1.313   0.657 -0.0430 -0.5456  4.7304
  405MOL0     H55867   6.704   1.282   0.630 -1.1562 -0.6781  2.2571
  405MOL0     H55868   6.570   1.546   0.527 -0.2792 -0.2691  1.8193
  405MOL0     H55869   6.615   1.411   0.433 -2.2282  0.4803 -0.0469
  405MOL0     H55870   6.068   1.655   1.309 -2.1639  0.5904  3.5924
  405MOL0     H55871   5.915   1.767   1.462 -1.9687 -3.7279 -1.4585
  405MOL0     H55872   5.433   1.913   1.501  0.0489  0.8671 -3.2947
  405MOL0     H55873   5.285   2.066   1.680 -0.5734  2.3156  0.1287
  405MOL0     H55874   5.274   3.427   1.029 -0.2381 -0.7055  1.2954
  405MOL0     H55875   5.247   3.586   0.834  1.1477  3.9167 -0.3584
  405MOL0     H55876   4.921   4.145   0.763  2.4000 -1.4504  3.0714
  405MOL0     H55877   4.925   4.282   0.564 -2.1503 -1.5402 -0.1115
  405MOL0     H55878   5.268   4.256   0.281  0.6922  3.0318 -2.5839
  405MOL0     H55879   5.150   4.156   0.187 -3.0090  2.0727 -3.1899
  405MOL0     H55880   5.237   4.387   0.104  2.1706 -1.0101  2.8665
  405MOL0     H55881   5.155   4.458   0.225 -3.4312  0.1223  1.1852
  405MOL0     H55882   5.021   4.306  -0.004  1.2137  0.9032 -0.6674
  405MOL0     H55883   4.924   4.350   0.148 -1.7395  2.1946 -0.6312
  405MOL0     H55884   5.070   4.558  -0.040  2.2804 -1.8317  2.2572
  405MOL0     H55885   4.965   4.591   0.088  0.0081  0.7441 -0.3991
  405MOL0     H55886   4.676   4.532  -0.204  0.4143  1.4896 -1.0044
  405MOL0     H55887   5.233   4.030   0.397  0.0442  2.3568 -1.7032
  405MOL0     H55888   5.232   3.770   0.588  0.2809 -0.1822 -0.5744
  405MOL0     H55889   5.360   3.871   0.539 -0.0889 -1.2976 -0.7028
  405MOL0     H55890   5.323   3.865   0.707 -2.6378 -0.0878  0.7776
  406MOL0     O55891   5.179   6.545   0.145  0.1251 -0.3746  0.6719
  406MOL0     C55892   5.161   6.667   0.167  0.3561 -0.6313  0.1455
  406MOL0     O55893   5.144   6.768   0.073  0.1862  0.2850 -0.0728
  406MOL0     C55894   5.089   6.735  -0.051 -0.1566  0.1671 -0.5186
  406MOL0     C55895   4.955   6.726  -0.057 -0.2346 -0.0829 -0.5325
  406MOL0     C55896   4.875   6.719  -0.168  0.7782 -0.2067  0.7746
  406MOL0     C55897   4.947   6.716  -0.287  0.2599  0.3441 -0.2399
  406MOL0     O55898   4.876   6.721  -0.410  0.5764  0.4921  0.2466
  406MOL0     C55899   4.923   6.814  -0.507 -0.1175 -0.0596  0.7873
  406MOL0     C55900   4.870   6.806  -0.652 -0.3182 -0.7521  0.0371
  406MOL0     C55901   4.924   6.926  -0.719 -0.6318 -0.6994  0.1287
  406MOL0     C55902   4.979   6.890  -0.858  0.1080  0.4748  0.1997
  406MOL0     C55903   4.933   6.997  -0.958 -0.3638 -0.6897 -0.0010
  406MOL0     C55904   4.796   6.952  -1.023 -0.1352 -0.6064 -0.3189
  406MOL0     C55905   4.721   7.074  -1.072  0.0788  0.3166  0.8043
  406MOL0     C55906   4.583   7.034  -1.099 -0.2816  1.2608  0.4392
  406MOL0     N55907   4.509   7.149  -1.150  0.4685  0.1133 -0.8449
  406MOL0     C55908   4.453   7.249  -1.078 -0.8132  0.1306  0.9881
  406MOL0     C55909   4.403   7.333  -1.166  0.0852 -0.0591 -0.0263
  406MOL0     C55910   4.326   7.453  -1.127 -0.1524 -0.3585  0.1674
  406MOL0     C55911   4.349   7.574  -1.224  0.0642 -0.3542  0.7627
  406MOL0     C55912   4.246   7.683  -1.205 -0.2974 -0.0524  0.1767
  406MOL0     C55913   4.264   7.812  -1.283 -0.1719 -0.3479  0.7054
  406MOL0     O55914   4.407   7.843  -1.266  0.2645  0.0393  0.1145
  406MOL0     C55915   4.453   7.934  -1.181 -0.9014  0.2095 -0.3731
  406MOL0     C55916   4.373   8.018  -1.100  0.0478 -0.3923 -0.0496
  406MOL0     C55917   4.429   8.093  -0.998  0.9918  0.1361  0.1216
  406MOL0     C55918   4.334   8.161  -0.905  0.4218  0.1991 -0.2704
  406MOL0     C55919   4.571   8.109  -0.991  0.3269  1.0012 -0.3745
  406MOL0     C55920   4.637   8.203  -0.895 -0.0242 -0.6456  0.7754
  406MOL0     O55921   4.770   8.200  -0.902 -0.4581  0.0398 -0.5049
  406MOL0     C55922   4.845   8.292  -0.842 -0.7404 -0.2560 -0.3808
  406MOL0     C55923   4.950   8.250  -0.758  0.0261 -0.8188 -0.1876
  406MOL0     C55924   5.026   8.346  -0.681 -0.3765  0.7723 -0.4040
  406MOL0     C55925   5.001   8.484  -0.698 -0.5874 -0.2493 -0.0016
  406MOL0     O55926   5.081   8.586  -0.649  0.4532 -0.7918 -0.5165
  406MOL0     C55927   5.170   8.559  -0.534  0.5804 -0.3701  0.0303
  406MOL0     C55928   5.092   8.562  -0.401  0.3865 -0.6540  0.2106
  406MOL0     C55929   5.194   8.580  -0.279  0.5746 -0.2937 -1.2838
  406MOL0     C55930   5.110   8.600  -0.147 -1.0141 -0.5676 -0.4053
  406MOL0     C55931   5.191   8.587  -0.017  0.8767  0.3261 -0.3023
  406MOL0     C55932   5.196   8.437   0.032  0.0014 -0.7843 -0.3260
  406MOL0     C55933   5.088   8.429   0.140  1.0592 -0.3482 -0.6748
  406MOL0     C55934   5.053   8.288   0.172 -0.0798  0.0196 -0.8264
  406MOL0    Cl55935   5.197   8.197   0.226  0.0502 -0.1807 -0.0195
  406MOL0     C55936   4.914   8.531  -0.804  0.4469 -0.5338  0.8857
  406MOL0     C55937   4.831   8.436  -0.863  0.3295  0.4589  0.5683
  406MOL0     O55938   4.573   8.274  -0.827 -0.1003 -0.2794  1.1226
  406MOL0     C55939   4.643   8.026  -1.083 -0.1124 -1.1807 -0.2681
  406MOL0     C55940   4.588   7.938  -1.170  0.0173  0.5396 -0.4988
  406MOL0     N55941   4.444   7.293  -1.297 -0.0006 -0.1857 -1.2702
  406MOL0     N55942   4.509   7.180  -1.282 -0.2417  0.2101 -0.1772
  406MOL0     C55943   5.087   6.717  -0.287  0.5260  0.9927  0.1065
  406MOL0     C55944   5.159   6.733  -0.173 -0.6031 -0.4912 -0.7681
  406MOL0     C55945   5.143   6.710   0.311 -0.1471  0.1853 -0.4198
  406MOL0     C55946   5.075   6.828   0.348  0.7217  0.7685 -0.3659
  406MOL0     C55947   5.030   6.858   0.479 -0.4588  0.7329 -0.4397
  406MOL0     C55948   5.068   6.775   0.578  0.3466  0.3879 -0.8751
  406MOL0     O55949   5.041   6.822   0.714  0.5550  0.0247  0.2337
  406MOL0     C55950   5.150   6.862   0.792 -0.9356  0.5814 -0.2461
  406MOL0     C55951   5.109   6.959   0.907 -0.3494 -0.2516 -0.1147
  406MOL0     C55952   5.027   6.903   1.020  1.2488 -0.3443 -1.0687
  406MOL0     C55953   4.888   6.969   1.017  0.2308  0.4692 -0.1091
  406MOL0     C55954   4.890   7.111   1.040  0.4266 -0.0085 -0.0343
  406MOL0     C55955   4.885   7.224   1.085  0.4521 -0.0929  0.9364
  406MOL0     C55956   5.154   6.666   0.556  0.9335 -0.5069  0.0692
  406MOL0     C55957   5.194   6.632   0.423  0.1224 -0.6182 -0.0722
  406MOL0     C55958   5.296   6.530   0.409 -0.4428  1.0009 -0.3986
  406MOL0     H55959   4.905   6.732   0.039  0.3534  1.8414 -0.3012
  406MOL0     H55960   4.766   6.713  -0.166  0.7196 -0.7976 -1.4175
  406MOL0     H55961   5.028   6.785  -0.522 -0.5000 -0.1440 -2.3641
  406MOL0     H55962   4.929   6.917  -0.471  0.4042 -0.3046  1.4274
  406MOL0     H55963   4.909   6.710  -0.688 -2.3326 -2.1321  1.3083
  406MOL0     H55964   4.761   6.807  -0.665 -0.2607  2.6930 -1.1503
  406MOL0     H55965   4.842   6.998  -0.726  0.9302  1.0254 -4.4331
  406MOL0     H55966   5.008   6.973  -0.667 -0.5497 -1.4423  0.6918
  406MOL0     H55967   5.087   6.881  -0.846 -0.0349 -1.7711  0.2562
  406MOL0     H55968   4.934   6.796  -0.891  4.3071 -1.7644  0.1540
  406MOL0     H55969   5.006   7.027  -1.035  0.0326 -0.2601  0.5315
  406MOL0     H55970   4.925   7.087  -0.897  1.0282 -0.0661 -0.6936
  406MOL0     H55971   4.812   6.875  -1.099  2.0101 -1.4012  0.8351
  406MOL0     H55972   4.740   6.913  -0.938  0.6087  1.1991  1.0615
  406MOL0     H55973   4.778   7.123  -1.151  0.7696  1.8448  2.1987
  406MOL0     H55974   4.722   7.139  -0.984  0.4102  0.1067  0.9588
  406MOL0     H55975   4.582   6.954  -1.173 -2.5487  0.0337  1.6940
  406MOL0     H55976   4.527   6.998  -1.012  2.2769  0.4482  1.8710
  406MOL0     H55977   4.427   7.249  -0.973 -1.1088  2.6787  0.9727
  406MOL0     H55978   4.359   7.481  -1.026  3.4687 -1.8321 -0.4548
  406MOL0     H55979   4.219   7.433  -1.118 -0.5968  1.7382  0.1823
  406MOL0     H55980   4.450   7.609  -1.203 -0.1818  1.3167 -0.5775
  406MOL0     H55981   4.352   7.546  -1.330  0.4664  1.8520  0.1336
  406MOL0     H55982   4.150   7.632  -1.216  0.5955 -1.8048  0.1980
  406MOL0     H55983   4.241   7.701  -1.097 -1.2428  0.7436  0.0159
  406MOL0     H55984   4.238   7.786  -1.386  1.6009  0.3480  0.0372
  406MOL0     H55985   4.209   7.902  -1.254  1.5464  1.1368 -0.3903
  406MOL0     H55986   4.266   8.029  -1.115  0.1575  2.6754  0.7474
  406MOL0     H55987   4.228   8.136  -0.915  1.0762 -3.1912  0.0479
  406MOL0     H55988   4.337   8.270  -0.913  1.5306  0.0338 -3.1256
  406MOL0     H55989   4.361   8.140  -0.801 -3.4895  4.1454  1.8602
  406MOL0     H55990   4.960   8.143  -0.741  3.9831 -0.5261  0.2296
  406MOL0     H55991   5.100   8.304  -0.614 -1.3901  0.4341  0.5280
  406MOL0     H55992   5.223   8.463  -0.541  3.4976  1.1998 -2.7804
  406MOL0     H55993   5.245   8.639  -0.538  1.0075 -0.6720  1.5894
  406MOL0     H55994   5.035   8.655  -0.397  4.0404  1.9530 -2.0839
  406MOL0     H55995   5.030   8.472  -0.394  0.5094 -0.6464  1.5092
  406MOL0     H55996   5.262   8.666  -0.285  1.4755 -0.4761  2.9566
  406MOL0     H55997   5.255   8.491  -0.267 -0.8194 -1.0005  1.2184
  406MOL0     H55998   5.020   8.538  -0.142 -3.9654  3.3013 -0.5969
  406MOL0     H55999   5.075   8.703  -0.160 -1.0901 -0.4963  0.3257
  406MOL0     H56000   5.285   8.642  -0.018 -0.2695  2.4893  1.9724
  406MOL0     H56001   5.137   8.641   0.060  1.6714 -0.6944  1.0111
  406MOL0     H56002   5.292   8.400   0.068  0.0157 -1.8638 -1.3864
  406MOL0     H56003   5.180   8.377  -0.059  3.3648  0.2357 -1.7467
  406MOL0     H56004   4.997   8.483   0.111  1.4235  0.9826  0.5714
  406MOL0     H56005   5.131   8.487   0.222 -1.2774 -0.1359  0.4846
  406MOL0     H56006   5.019   8.254   0.073 -0.7859 -2.0787  0.0736
  406MOL0     H56007   4.974   8.277   0.247 -1.4034  1.7297 -1.8785
  406MOL0     H56008   4.912   8.634  -0.838  0.2809 -1.1134 -1.0257
  406MOL0     H56009   4.754   8.485  -0.923  2.0949 -2.1473 -4.3967
  406MOL0     H56010   4.751   8.029  -1.096 -0.2044 -0.5006 -0.9315
  406MOL0     H56011   4.643   7.883  -1.246  1.6719 -1.9291  2.2631
  406MOL0     H56012   5.139   6.700  -0.381 -0.6911  1.4329 -0.6790
  406MOL0     H56013   5.268   6.734  -0.168 -0.5882 -2.8022  1.4817
  406MOL0     H56014   5.042   6.898   0.271  1.0009  1.1807 -0.1150
  406MOL0     H56015   4.975   6.948   0.504  1.3294  1.5500  0.8080
  406MOL0     H56016   5.189   6.773   0.842 -0.7958  1.0509  0.5115
  406MOL0     H56017   5.232   6.897   0.729 -0.1709 -1.1853 -0.2706
  406MOL0     H56018   5.059   7.044   0.859  0.5557 -0.2143 -1.0317
  406MOL0     H56019   5.205   6.997   0.943  1.7737 -0.7854 -4.4943
  406MOL0     H56020   5.019   6.797   0.996 -1.4438 -0.5939  0.5609
  406MOL0     H56021   5.064   6.928   1.120 -0.7386  0.5007 -0.4944
  406MOL0     H56022   4.836   6.924   1.103  2.7047 -0.1153  1.1979
  406MOL0     H56023   4.834   6.946   0.925 -1.1463  0.5848  0.6418
  406MOL0     H56024   4.888   7.325   1.122  1.5138 -0.2750  1.3948
  406MOL0     H56025   5.194   6.610   0.641  3.0284 -3.6518 -2.7214
  406MOL0     H56026   5.332   6.485   0.502  2.6907 -2.4308 -2.9744
  406MOL0     H56027   5.255   6.449   0.349 -1.7609  1.7399 -0.5298
  406MOL0     H56028   5.386   6.568   0.361  1.4149 -0.0415  2.0288
  407MOL0     O56029   3.524   9.508  10.451 -0.5837  0.1342  0.2796
  407MOL0     C56030   3.617   9.547  10.386 -0.0153  0.1970  0.5795
  407MOL0     O56031   3.695   9.469  10.308  0.4536 -0.4766  0.1233
  407MOL0     C56032   3.674   9.336  10.289  0.0071  0.2088 -0.1734
  407MOL0     C56033   3.583   9.287  10.196 -0.3180  0.7484 -0.0685
  407MOL0     C56034   3.566   9.149  10.190  0.0155 -0.1093 -0.4787
  407MOL0     C56035   3.634   9.065  10.277 -0.6136  1.1502  0.0539
  407MOL0     O56036   3.615   8.929  10.280  0.0539 -0.2194  0.8090
  407MOL0     C56037   3.591   8.870  10.145 -0.3264 -0.4414 -0.5711
  407MOL0     C56038   3.445   8.825  10.112  0.3590  0.2097  0.4192
  407MOL0     C56039   3.381   8.726  10.211  0.6562 -0.5363  0.8638
  407MOL0     C56040   3.410   8.580  10.153  0.3533 -0.6105  0.4434
  407MOL0     C56041   3.347   8.468  10.229 -0.6140 -0.7627  0.1049
  407MOL0     C56042   3.379   8.334  10.156  0.1673 -0.5639 -0.4333
  407MOL0     C56043   3.314   8.219  10.234 -0.2422  0.1308  0.5143
  407MOL0     C56044   3.355   8.077  10.180  0.2245 -0.6338 -0.3304
  407MOL0     N56045   3.499   8.049  10.181  1.1869  0.8216  0.8758
  407MOL0     C56046   3.594   8.107  10.263 -0.0485  0.4969  0.5102
  407MOL0     C56047   3.709   8.049  10.233  0.6546 -0.7022 -0.2930
  407MOL0     C56048   3.826   8.078  10.324  0.8660  0.2765 -0.3475
  407MOL0     C56049   3.910   8.195  10.277  0.0661  0.0610 -0.0592
  407MOL0     C56050   3.848   8.334  10.284 -0.3831 -0.3735 -0.3799
  407MOL0     C56051   3.952   8.449  10.253  0.1186 -0.1428 -0.4440
  407MOL0     O56052   4.070   8.424  10.330  0.1734  0.1489  0.2037
  407MOL0     C56053   4.184   8.494  10.313 -1.4614 -0.8699 -0.5563
  407MOL0     C56054   4.287   8.469  10.411 -0.2402  0.0958 -0.1261
  407MOL0     C56055   4.397   8.545  10.410 -0.1618 -0.3293 -0.9212
  407MOL0     C56056   4.491   8.524  10.522 -0.1014 -0.0910 -0.1765
  407MOL0     C56057   4.420   8.657  10.314 -0.9138 -0.3490  0.0648
  407MOL0     C56058   4.540   8.752  10.307  0.0490 -0.0133  0.1638
  407MOL0     O56059   4.646   8.728  10.388  0.3224 -0.4246  0.2924
  407MOL0     C56060   4.739   8.829  10.393  0.6949 -0.8328  0.6102
  407MOL0     C56061   4.820   8.872  10.301 -0.2121  0.3733  0.5591
  407MOL0     C56062   4.927   8.962  10.317 -0.3239  0.9174 -0.3882
  407MOL0     C56063   4.961   9.002  10.445  0.6247  0.0349 -0.0837
  407MOL0     O56064   5.071   9.076  10.476  0.2959 -0.0582  0.6032
  407MOL0     C56065   5.196   9.071  10.401 -0.1812 -1.4379  0.4436
  407MOL0     C56066   5.305   9.157  10.474  0.6798  1.2755  0.9833
  407MOL0     C56067   5.411   9.064  10.542 -0.5367  0.0733  0.6434
  407MOL0     C56068   5.521   9.153  10.603 -0.9552  0.7341 -0.1334
  407MOL0     C56069   5.477   9.226  10.725 -0.1807 -0.9564 -0.6417
  407MOL0     C56070   5.582   9.319  10.789  0.1808 -0.1277  0.2355
  407MOL0     C56071   5.536   9.401  10.906 -0.1355  1.1540 -0.3168
  407MOL0     C56072   5.571   9.335  11.040  0.1249  1.3796  0.3860
  407MOL0    Cl56073   5.455   9.200  11.098 -0.2856 -0.1521  0.4275
  407MOL0     C56074   4.881   8.959  10.551  0.3315  0.4478 -0.4188
  407MOL0     C56075   4.768   8.877  10.518  0.4003 -0.1012  0.2209
  407MOL0     O56076   4.547   8.842  10.223 -0.1714 -0.4763 -0.3574
  407MOL0     C56077   4.328   8.668  10.208  0.7401 -0.0737  0.0631
  407MOL0     C56078   4.212   8.588  10.208  0.2413  0.6050  0.3046
  407MOL0     N56079   3.690   7.948  10.135  0.0166 -0.3454 -0.3697
  407MOL0     N56080   3.570   7.952  10.101  0.4465 -0.2599  0.5693
  407MOL0     C56081   3.721   9.114  10.372  0.4471 -0.6287 -0.0527
  407MOL0     C56082   3.740   9.253  10.377  0.0044  0.6915 -0.4187
  407MOL0     C56083   3.654   9.696  10.392  0.3723  1.3636 -0.6982
  407MOL0     C56084   3.555   9.792  10.424  0.9348 -0.3865 -1.2812
  407MOL0     C56085   3.591   9.931  10.434  0.4501 -0.6421  0.1180
  407MOL0     C56086   3.726   9.971  10.429 -0.7706 -0.3713  0.0443
  407MOL0     O56087   3.764  10.105  10.430  0.3618  0.8118  0.9464
  407MOL0     C56088   3.807  10.153  10.302  0.2923 -0.7663 -0.7374
  407MOL0     C56089   3.704  10.130  10.197 -0.4666  0.2269  0.2584
  407MOL0     C56090   3.596  10.236  10.203 -0.0451 -0.6805  1.2095
  407MOL0     C56091   3.510  10.228  10.079  0.4038 -0.5641 -0.2957
  407MOL0     C56092   3.448  10.095  10.073  1.1236 -0.1640 -0.4209
  407MOL0     C56093   3.412   9.988  10.097  0.3473  0.0184  0.1999
  407MOL0     C56094   3.826   9.876  10.394 -0.3020  0.0422  0.0230
  407MOL0     C56095   3.788   9.738  10.377 -0.2485  1.0046 -0.6771
  407MOL0     C56096   3.910   9.643  10.365 -0.4458 -0.4640  0.8935
  407MOL0     H56097   3.521   9.357  10.141 -1.3322 -1.4090 -1.8356
  407MOL0     H56098   3.492   9.113  10.121  1.9268 -0.6203 -2.3747
  407MOL0     H56099   3.644   8.774  10.147  1.8065  0.6127 -2.2372
  407MOL0     H56100   3.633   8.924  10.059 -2.8509  1.1325 -0.9177
  407MOL0     H56101   3.380   8.913  10.111 -1.1683 -0.8401  1.4050
  407MOL0     H56102   3.442   8.778  10.014  2.8389 -1.4854  1.0736
  407MOL0     H56103   3.435   8.735  10.305  1.7839  3.4066  0.0264
  407MOL0     H56104   3.275   8.754  10.215  0.6688 -0.6194  1.9249
  407MOL0     H56105   3.364   8.583  10.054 -1.4039  2.6440  1.2142
  407MOL0     H56106   3.516   8.560  10.138  0.3785 -1.5878  1.7404
  407MOL0     H56107   3.238   8.480  10.239 -0.7187 -0.7635 -0.9465
  407MOL0     H56108   3.388   8.464  10.330  1.2028 -2.2903 -0.6339
  407MOL0     H56109   3.330   8.344  10.059 -0.7220  0.9604  0.1448
  407MOL0     H56110   3.487   8.321  10.146  0.1148 -0.1105 -1.8217
  407MOL0     H56111   3.205   8.230  10.225  0.0981  2.6828 -1.4659
  407MOL0     H56112   3.349   8.244  10.335 -0.7108  2.5787  0.1172
  407MOL0     H56113   3.316   7.999  10.247  3.5769 -3.9772 -1.9007
  407MOL0     H56114   3.311   8.064  10.080  0.3190 -2.7407 -0.1564
  407MOL0     H56115   3.572   8.184  10.337  1.2435 -0.7873  2.3322
  407MOL0     H56116   3.890   7.989  10.327 -0.4643 -0.7623 -1.6186
  407MOL0     H56117   3.786   8.095  10.425  0.9454 -2.2064  0.1589
  407MOL0     H56118   3.999   8.193  10.342  0.0862 -1.5961 -0.0979
  407MOL0     H56119   3.942   8.176  10.174  0.9612 -1.4073  0.4487
  407MOL0     H56120   3.777   8.366  10.208  1.5162  2.0567 -1.2780
  407MOL0     H56121   3.800   8.344  10.382  2.2517 -2.2030  1.2315
  407MOL0     H56122   3.971   8.441  10.146 -0.7706 -1.8981 -0.4985
  407MOL0     H56123   3.896   8.541  10.273  2.3052  0.8298  1.7880
  407MOL0     H56124   4.258   8.407  10.495 -0.0728 -0.3725 -0.4142
  407MOL0     H56125   4.569   8.453  10.495  0.0993 -1.2054  2.9503
  407MOL0     H56126   4.445   8.483  10.612 -1.3378 -1.1669 -1.2838
  407MOL0     H56127   4.539   8.617  10.557  1.2875 -0.2826 -1.4911
  407MOL0     H56128   4.808   8.833  10.200  1.2907  1.6052 -0.1352
  407MOL0     H56129   4.987   8.993  10.232 -0.0970  1.3502 -0.0731
  407MOL0     H56130   5.217   8.965  10.381  1.0963 -1.4904  1.8775
  407MOL0     H56131   5.173   9.107  10.300 -4.3585 -4.4946  0.0281
  407MOL0     H56132   5.360   9.222  10.405 -1.5766  3.4990  1.1344
  407MOL0     H56133   5.241   9.224  10.532  0.5847  2.8098 -0.7705
  407MOL0     H56134   5.458   9.003  10.464  0.0294  2.1570 -0.7143
  407MOL0     H56135   5.365   9.009  10.625 -0.8498  2.7362  2.3492
  407MOL0     H56136   5.569   9.213  10.524  1.2763 -1.2485 -0.3867
  407MOL0     H56137   5.607   9.094  10.634  0.4088  1.2933 -2.6017
  407MOL0     H56138   5.391   9.292  10.711  0.6138  1.2616  3.3468
  407MOL0     H56139   5.445   9.153  10.800  3.3021 -0.4782  1.5284
  407MOL0     H56140   5.603   9.388  10.707 -1.0508  1.7452  1.4138
  407MOL0     H56141   5.666   9.253  10.811  1.3412  1.0416 -0.5787
  407MOL0     H56142   5.427   9.411  10.900 -0.0463  1.8736 -0.9571
  407MOL0     H56143   5.578   9.502  10.912  0.7404  0.7389  0.6315
  407MOL0     H56144   5.558   9.416  11.112 -2.6381 -0.6785  2.4500
  407MOL0     H56145   5.673   9.298  11.045  0.6402  1.6228 -3.9789
  407MOL0     H56146   4.910   8.994  10.650 -0.8944  0.4672 -0.0479
  407MOL0     H56147   4.696   8.848  10.594 -0.1633  2.0908  0.6102
  407MOL0     H56148   4.347   8.740  10.129  1.4729 -1.0648 -0.6879
  407MOL0     H56149   4.145   8.609  10.125  0.4599  1.8742  0.4285
  407MOL0     H56150   3.773   9.063  10.452  1.2175 -0.4188 -0.4101
  407MOL0     H56151   3.807   9.308  10.442  0.1745  2.5382 -2.0488
  407MOL0     H56152   3.451   9.762  10.437  0.0392  3.4056  2.7617
  407MOL0     H56153   3.519  10.011  10.450 -0.8765 -1.9502  0.8982
  407MOL0     H56154   3.837  10.257  10.314 -2.9113  0.4705 -2.2712
  407MOL0     H56155   3.899  10.103  10.270 -0.7346 -1.4016 -2.8790
  407MOL0     H56156   3.666  10.028  10.200  0.1958 -0.1283 -1.7218
  407MOL0     H56157   3.755  10.137  10.100  3.1515  1.4692  2.0542
  407MOL0     H56158   3.537  10.230  10.295 -0.3530  2.2611  1.2879
  407MOL0     H56159   3.641  10.336  10.202  0.9354 -1.1062  1.1412
  407MOL0     H56160   3.579  10.253   9.997 -1.6725 -1.1399 -2.3240
  407MOL0     H56161   3.435  10.308  10.089  2.6111  1.6551 -0.4339
  407MOL0     H56162   3.378   9.890  10.125  0.4916 -0.4342 -1.1672
  407MOL0     H56163   3.930   9.906  10.390 -0.8744  2.8625  2.6180
  407MOL0     H56164   3.894   9.596  10.267 -0.4972 -4.7574  2.7472
  407MOL0     H56165   4.006   9.695  10.358 -0.1499 -1.1434 -0.4779
  407MOL0     H56166   3.911   9.569  10.445 -1.0801 -1.6639 -0.1674
  408MOL0     O56167   8.913   4.458   4.002 -0.4010  0.3577  0.1199
  408MOL0     C56168   8.837   4.436   4.088 -0.7223  0.4920 -0.6857
  408MOL0     O56169   8.738   4.342   4.080  0.2323 -0.1249 -0.2054
  408MOL0     C56170   8.739   4.259   3.968  0.2540  0.0816 -0.2028
  408MOL0     C56171   8.673   4.308   3.853 -0.7082  0.2839 -0.3148
  408MOL0     C56172   8.702   4.252   3.731 -0.8424 -0.2047  0.0806
  408MOL0     C56173   8.749   4.122   3.724 -0.0582 -0.5016  1.0787
  408MOL0     O56174   8.761   4.074   3.598 -0.2595  0.3293 -0.1519
  408MOL0     C56175   8.767   3.929   3.579 -0.3298  0.3647  0.1384
  408MOL0     C56176   8.792   3.899   3.429  0.3485  0.6971  0.0896
  408MOL0     C56177   8.805   3.749   3.386  0.5061 -0.2745 -0.3682
  408MOL0     C56178   8.672   3.675   3.417  0.1642 -0.3092 -0.0110
  408MOL0     C56179   8.565   3.731   3.318  1.2124 -0.8648  0.3336
  408MOL0     C56180   8.439   3.643   3.308  0.6999 -0.5469 -0.4526
  408MOL0     C56181   8.345   3.660   3.428 -0.3708  0.1537  0.7243
  408MOL0     C56182   8.215   3.594   3.394  0.6236  0.3969 -0.0449
  408MOL0     N56183   8.103   3.600   3.493  0.5299 -0.0174  0.3456
  408MOL0     C56184   8.097   3.559   3.622 -0.2317  0.3802  0.1587
  408MOL0     C56185   7.976   3.602   3.670  0.3470  0.3021  1.1695
  408MOL0     C56186   7.924   3.596   3.813  0.0246 -0.6108 -0.0327
  408MOL0     C56187   7.789   3.532   3.821  0.7409 -0.0595 -0.7359
  408MOL0     C56188   7.790   3.443   3.961  0.5070  0.0795 -0.3191
  408MOL0     C56189   7.654   3.372   3.991  0.4061  1.1528  0.2666
  408MOL0     O56190   7.644   3.255   3.908 -0.1074  0.8595 -0.2666
  408MOL0     C56191   7.696   3.141   3.966  0.1413 -0.4610 -0.1556
  408MOL0     C56192   7.806   3.076   3.904 -0.3145  0.0946 -0.0007
  408MOL0     C56193   7.855   2.952   3.961 -0.8231  0.7553 -0.2520
  408MOL0     C56194   7.977   2.898   3.882  0.6780  0.5896 -0.2822
  408MOL0     C56195   7.798   2.891   4.079 -0.2682  0.1049  0.0360
  408MOL0     C56196   7.849   2.764   4.150  0.1896 -0.4317  0.7502
  408MOL0     O56197   7.941   2.686   4.084  0.8081  0.4293 -0.6204
  408MOL0     C56198   8.010   2.585   4.163 -0.6163  0.4999  0.6440
  408MOL0     C56199   8.039   2.583   4.304 -0.1140 -0.8694  0.4730
  408MOL0     C56200   8.122   2.481   4.357  0.4947 -0.7284  0.1018
  408MOL0     C56201   8.179   2.374   4.279  0.2628 -0.6625 -0.2648
  408MOL0     O56202   8.257   2.278   4.324  0.0483  0.5248  0.2596
  408MOL0     C56203   8.322   2.300   4.448 -0.6828 -0.2120 -0.6392
  408MOL0     C56204   8.421   2.186   4.464  0.4951 -0.4395 -0.7530
  408MOL0     C56205   8.335   2.054   4.494 -0.0702  0.2607 -0.0350
  408MOL0     C56206   8.449   1.946   4.498  0.4038 -0.4452  0.7053
  408MOL0     C56207   8.373   1.812   4.502 -0.8178 -0.3379  0.6204
  408MOL0     C56208   8.457   1.696   4.467 -0.5332  0.0207  0.3664
  408MOL0     C56209   8.386   1.571   4.425  0.2921 -0.7584 -1.0664
  408MOL0     C56210   8.473   1.454   4.405 -0.3223 -0.0165  0.3103
  408MOL0    Cl56211   8.516   1.370   4.570  0.3331  0.0311  0.2809
  408MOL0     C56212   8.141   2.374   4.140 -0.6980  0.2943 -0.4632
  408MOL0     C56213   8.053   2.471   4.090 -0.3158  0.0333 -0.5730
  408MOL0     O56214   7.788   2.733   4.257 -0.1952  0.3131  0.1048
  408MOL0     C56215   7.683   2.957   4.129 -0.4616  0.4156 -0.3428
  408MOL0     C56216   7.629   3.077   4.069 -0.0785 -0.5179  0.5478
  408MOL0     N56217   7.904   3.665   3.564 -0.1716 -0.4489  0.3395
  408MOL0     N56218   7.980   3.654   3.449 -0.1181 -0.7943  0.3993
  408MOL0     C56219   8.795   4.062   3.847 -0.2093 -0.1780 -1.0677
  408MOL0     C56220   8.798   4.137   3.965  0.8611  0.0736 -0.0531
  408MOL0     C56221   8.877   4.512   4.212  0.0588  0.6708  0.1936
  408MOL0     C56222   9.014   4.541   4.243 -0.2325 -0.7445 -0.0481
  408MOL0     C56223   9.056   4.627   4.345  0.9248  0.6101 -0.4759
  408MOL0     C56224   8.956   4.686   4.420  0.7356 -0.1904 -0.5130
  408MOL0     O56225   8.978   4.782   4.519  0.6142 -0.3545  0.0528
  408MOL0     C56226   9.109   4.823   4.552  0.2757  0.2067  1.3560
  408MOL0     C56227   9.202   4.726   4.622 -0.0359 -0.9421  0.5861
  408MOL0     C56228   9.137   4.656   4.741 -0.1501  0.5245 -0.1314
  408MOL0     C56229   9.222   4.548   4.806  1.0073  0.1852  0.1560
  408MOL0     C56230   9.247   4.435   4.716  1.1204  0.0845 -0.0203
  408MOL0     C56231   9.259   4.342   4.647 -0.5796  0.2728 -0.8750
  408MOL0     C56232   8.826   4.640   4.404 -0.2903 -0.1948 -0.9974
  408MOL0     C56233   8.790   4.544   4.310  0.8268 -1.0401 -1.1234
  408MOL0     C56234   8.647   4.501   4.315  0.7835  0.7098 -0.8075
  408MOL0     H56235   8.636   4.409   3.864  2.0494  1.1746  2.4540
  408MOL0     H56236   8.655   4.298   3.645 -0.5442  0.9202  0.5066
  408MOL0     H56237   8.677   3.877   3.611 -1.2193 -0.2303 -3.0177
  408MOL0     H56238   8.852   3.886   3.633 -1.6211 -0.8555  1.2870
  408MOL0     H56239   8.712   3.943   3.367 -0.0469 -1.5593 -1.1120
  408MOL0     H56240   8.884   3.946   3.394  3.3562 -0.3834  5.4776
  408MOL0     H56241   8.830   3.750   3.280 -2.3147  0.2750 -1.1247
  408MOL0     H56242   8.880   3.703   3.451  1.5715 -0.0916 -1.4354
  408MOL0     H56243   8.699   3.572   3.395  3.0812  0.7055 -1.7443
  408MOL0     H56244   8.646   3.689   3.522  1.0959  1.8778 -0.0155
  408MOL0     H56245   8.614   3.722   3.221  1.0491  1.3133 -0.0097
  408MOL0     H56246   8.532   3.834   3.332  1.5351 -0.6548 -0.4151
  408MOL0     H56247   8.402   3.698   3.221  2.6159  2.1712  0.3056
  408MOL0     H56248   8.466   3.541   3.279  0.3500 -0.2272 -1.9758
  408MOL0     H56249   8.336   3.768   3.442  0.5934  0.4744 -0.8385
  408MOL0     H56250   8.390   3.613   3.516 -2.2087  0.6883  1.9997
  408MOL0     H56251   8.178   3.640   3.302  0.4551  2.2305  0.8897
  408MOL0     H56252   8.230   3.487   3.378 -0.4666 -0.2468  2.5681
  408MOL0     H56253   8.163   3.504   3.688 -1.0254 -2.6208 -1.3542
  408MOL0     H56254   7.916   3.700   3.845 -0.2817 -0.5930 -0.1629
  408MOL0     H56255   8.002   3.558   3.880 -0.2558 -0.9746  0.0897
  408MOL0     H56256   7.714   3.611   3.816  1.9879  1.0778 -2.5174
  408MOL0     H56257   7.769   3.466   3.736 -0.4581  0.9908 -1.3075
  408MOL0     H56258   7.866   3.364   3.956  1.2478  0.3738  3.2142
  408MOL0     H56259   7.818   3.506   4.046 -0.0178 -0.8287  0.5569
  408MOL0     H56260   7.643   3.331   4.092 -0.5239 -1.5534 -0.8655
  408MOL0     H56261   7.565   3.433   3.972 -1.1736 -0.7695  1.1357
  408MOL0     H56262   7.855   3.124   3.820  0.5013 -0.8368 -0.0766
  408MOL0     H56263   7.979   2.789   3.882  4.9743  0.5014 -0.7861
  408MOL0     H56264   8.065   2.927   3.940 -0.7393 -2.4683  3.9070
  408MOL0     H56265   7.988   2.940   3.781 -1.3019  1.3246 -0.2367
  408MOL0     H56266   8.007   2.670   4.360 -2.8696 -0.3105 -1.6900
  408MOL0     H56267   8.146   2.484   4.463  2.0323 -3.2836 -0.0809
  408MOL0     H56268   8.386   2.388   4.440  0.7382 -0.7068  2.9536
  408MOL0     H56269   8.254   2.321   4.532 -0.8564 -1.6522 -0.3937
  408MOL0     H56270   8.477   2.174   4.371  1.9440 -0.4824  0.0873
  408MOL0     H56271   8.485   2.205   4.551 -0.5208  0.2379 -0.1298
  408MOL0     H56272   8.269   2.027   4.411  1.1352  0.3069 -1.0520
  408MOL0     H56273   8.275   2.069   4.584 -0.2336 -0.7048  0.0232
  408MOL0     H56274   8.503   1.957   4.592  1.5804  0.1974 -0.0328
  408MOL0     H56275   8.519   1.941   4.415 -0.6316 -1.9474 -0.1388
  408MOL0     H56276   8.316   1.793   4.593 -0.5998 -2.3835  0.3758
  408MOL0     H56277   8.296   1.821   4.424 -3.4058 -0.6326  2.9998
  408MOL0     H56278   8.525   1.673   4.550  1.8053 -5.8828 -2.5529
  408MOL0     H56279   8.528   1.720   4.387 -1.2193  0.1330 -0.2176
  408MOL0     H56280   8.326   1.580   4.334 -0.3330  2.0781 -0.4628
  408MOL0     H56281   8.312   1.549   4.502  1.8888 -0.1986  0.7226
  408MOL0     H56282   8.573   1.476   4.367 -0.1802  1.2724  1.3724
  408MOL0     H56283   8.421   1.381   4.343 -1.4145 -1.2657  2.5567
  408MOL0     H56284   8.174   2.287   4.083  0.5918 -0.0258  0.7184
  408MOL0     H56285   8.014   2.455   3.990  0.3863 -1.8870 -0.5946
  408MOL0     H56286   7.623   2.901   4.200  1.1631 -0.1921  0.6007
  408MOL0     H56287   7.541   3.120   4.115  0.2267 -0.7143  1.3284
  408MOL0     H56288   8.847   3.967   3.847  4.2330  1.9380 -3.7820
  408MOL0     H56289   8.840   4.109   4.061 -0.2691 -0.5979  0.2643
  408MOL0     H56290   9.093   4.504   4.178 -1.1513 -2.3527 -0.3022
  408MOL0     H56291   9.159   4.658   4.353  1.1812 -0.5216  0.9198
  408MOL0     H56292   9.170   4.849   4.465  0.5872 -1.2512  1.0975
  408MOL0     H56293   9.084   4.912   4.610 -1.6090  2.3340 -2.3822
  408MOL0     H56294   9.287   4.784   4.659  0.7534 -1.2777 -0.6601
  408MOL0     H56295   9.245   4.653   4.553 -2.4334 -3.4991  1.6176
  408MOL0     H56296   9.118   4.732   4.817 -2.9124 -0.3887  0.1939
  408MOL0     H56297   9.037   4.623   4.714  0.2951 -1.0848  0.0701
  408MOL0     H56298   9.164   4.515   4.892 -1.7985 -2.8792 -2.6327
  408MOL0     H56299   9.327   4.571   4.827  2.3435 -3.7468 -1.2725
  408MOL0     H56300   9.242   4.259   4.581 -0.6477 -2.3940  2.2098
  408MOL0     H56301   8.755   4.685   4.472 -1.2711  3.4033 -4.0640
  408MOL0     H56302   8.585   4.544   4.394 -0.1499  0.6180 -1.4613
  408MOL0     H56303   8.605   4.534   4.219  2.8487  3.2473 -0.9691
  408MOL0     H56304   8.640   4.392   4.319  0.6857  0.7387  3.0936
  409MOL0     O56305  11.059   5.645   3.157 -0.0800  0.9083 -0.6952
  409MOL0     C56306  10.943   5.680   3.146 -0.0559  1.0258 -0.3780
  409MOL0     O56307  10.848   5.662   3.252  0.2292 -0.1720  0.5035
  409MOL0     C56308  10.892   5.574   3.354  0.4694  0.7555 -0.1150
  409MOL0     C56309  10.973   5.603   3.469  0.0433 -0.1187 -0.3596
  409MOL0     C56310  11.007   5.507   3.560 -0.1201 -0.3588 -0.3898
  409MOL0     C56311  10.973   5.369   3.539 -0.3387 -0.7496  0.6857
  409MOL0     O56312  10.995   5.265   3.633 -0.0712 -0.4408 -0.3424
  409MOL0     C56313  10.990   5.305   3.772 -0.6245 -0.2656 -0.3899
  409MOL0     C56314  10.991   5.179   3.861 -0.6949 -0.6572 -0.8106
  409MOL0     C56315  10.983   5.207   4.019  0.8035  0.3586 -0.2057
  409MOL0     C56316  11.007   5.081   4.112  0.4507 -1.6388  0.5725
  409MOL0     C56317  10.997   5.116   4.253 -0.8489 -0.8429 -0.6396
  409MOL0     C56318  11.059   5.011   4.354  0.9491  0.9983  0.1842
  409MOL0     C56319  11.206   4.971   4.333  0.6368 -1.5708  0.3699
  409MOL0     C56320  11.263   4.867   4.421 -0.1097  0.0480  0.0766
  409MOL0     N56321  11.252   4.722   4.379  1.2875 -0.0351  0.3901
  409MOL0     C56322  11.136   4.652   4.379  0.2599 -0.6336  0.2329
  409MOL0     C56323  11.169   4.526   4.346 -0.4814 -0.1755  1.0550
  409MOL0     C56324  11.073   4.417   4.312  0.1780  0.9466 -0.2133
  409MOL0     C56325  11.034   4.407   4.165 -0.5511  0.7840 -0.2161
  409MOL0     C56326  11.159   4.376   4.073  0.6500  0.0422 -0.5263
  409MOL0     C56327  11.208   4.234   4.094 -0.3440 -0.4180 -0.3342
  409MOL0     O56328  11.113   4.131   4.046  0.2270  0.4512  0.0440
  409MOL0     C56329  11.154   3.997   4.061 -1.0699  0.7546 -0.2618
  409MOL0     C56330  11.068   3.903   4.013 -0.0812  0.5408  0.6243
  409MOL0     C56331  11.082   3.768   4.030 -0.0330  0.1206 -0.7850
  409MOL0     C56332  10.995   3.681   3.944  0.2357 -0.7761 -0.7702
  409MOL0     C56333  11.200   3.716   4.095 -0.1115  0.4384  0.4005
  409MOL0     C56334  11.231   3.567   4.116 -0.2347  0.0461  0.2558
  409MOL0     O56335  11.369   3.530   4.106  0.4396 -0.4410 -0.3386
  409MOL0     C56336  11.386   3.406   4.161  0.0410 -0.2551  0.1556
  409MOL0     C56337  11.384   3.296   4.080  0.1605 -0.0991 -0.1770
  409MOL0     C56338  11.419   3.168   4.127 -0.3894 -0.1978 -0.4024
  409MOL0     C56339  11.446   3.155   4.260 -0.7723  0.4047 -0.6545
  409MOL0     O56340  11.484   3.026   4.287 -0.5126  0.2350  0.6982
  409MOL0     C56341  11.501   2.994   4.426  1.3742  0.2564  0.2593
  409MOL0     C56342  11.545   2.848   4.436 -0.4173 -0.3756 -0.5118
  409MOL0     C56343  11.554   2.794   4.579 -0.2516  0.0047 -0.9947
  409MOL0     C56344  11.594   2.642   4.563 -0.8041  0.3483 -0.3617
  409MOL0     C56345  11.606   2.581   4.705 -0.1569 -0.1807  0.1988
  409MOL0     C56346  11.651   2.439   4.696  0.0266  1.2006 -0.4505
  409MOL0     C56347  11.554   2.338   4.643  0.1442  1.3676  0.3696
  409MOL0     C56348  11.603   2.194   4.644  0.4034 -0.8838 -1.2344
  409MOL0    Cl56349  11.590   2.121   4.797  0.2208 -0.4582 -0.3992
  409MOL0     C56350  11.424   3.269   4.348 -0.2198  0.2861 -0.4417
  409MOL0     C56351  11.398   3.398   4.299  0.4772  1.0609 -0.0106
  409MOL0     O56352  11.145   3.502   4.169 -0.3373  0.1554 -0.2405
  409MOL0     C56353  11.288   3.808   4.158 -0.8750 -0.7596 -0.2751
  409MOL0     C56354  11.268   3.944   4.136  0.6674 -0.2138 -0.8374
  409MOL0     N56355  11.307   4.515   4.331  1.1602  0.4903  0.6402
  409MOL0     N56356  11.356   4.631   4.357 -0.8086 -0.8881  0.2933
  409MOL0     C56357  10.902   5.338   3.424  0.3262 -0.2131  0.3938
  409MOL0     C56358  10.856   5.436   3.330 -0.7533  0.5421 -0.3832
  409MOL0     C56359  10.897   5.752   3.026  0.5378 -0.7042 -0.3687
  409MOL0     C56360  10.790   5.832   3.038 -0.0215 -0.7310 -0.1306
  409MOL0     C56361  10.746   5.913   2.935  0.0091  0.0697 -0.3045
  409MOL0     C56362  10.826   5.937   2.825  0.0264  0.1675  0.6860
  409MOL0     O56363  10.791   6.035   2.747 -0.3142 -1.0357  0.8258
  409MOL0     C56364  10.886   6.085   2.659  0.4683  0.4004 -0.1423
  409MOL0     C56365  10.882   6.232   2.633  0.0837  0.1236  0.1666
  409MOL0     C56366  11.001   6.280   2.548  1.0508  0.0922 -0.0707
  409MOL0     C56367  11.055   6.187   2.446 -0.5232  0.4947  0.1464
  409MOL0     C56368  10.958   6.150   2.343 -0.8393 -0.2720 -0.5785
  409MOL0     C56369  10.880   6.113   2.264  0.1167 -0.6592 -0.4073
  409MOL0     C56370  10.928   5.846   2.804  0.2512  0.4146  0.5023
  409MOL0     C56371  10.967   5.749   2.905  0.1353  0.0623 -0.7940
  409MOL0     C56372  11.052   5.637   2.867  0.4613 -0.6843 -0.0006
  409MOL0     H56373  11.002   5.702   3.502 -1.1324  0.2471 -0.4035
  409MOL0     H56374  11.061   5.541   3.648 -2.9753  1.7361  0.6900
  409MOL0     H56375  10.896   5.352   3.803  0.0636  1.1057 -0.3027
  409MOL0     H56376  11.074   5.362   3.811  0.6101 -1.0829 -1.7714
  409MOL0     H56377  10.914   5.103   3.839  0.8516 -2.4898 -0.2063
  409MOL0     H56378  11.084   5.126   3.837 -0.5377 -1.1262  0.7214
  409MOL0     H56379  11.067   5.265   4.060  2.1247 -2.9118  2.0894
  409MOL0     H56380  10.884   5.246   4.045  0.1424 -0.3097 -1.6404
  409MOL0     H56381  10.925   5.012   4.089 -1.2971  0.9341 -1.4721
  409MOL0     H56382  11.105   5.040   4.087  0.7940 -0.8444  0.5909
  409MOL0     H56383  10.891   5.123   4.278 -0.5758  0.7153  0.2467
  409MOL0     H56384  11.041   5.215   4.270  0.6333 -1.5560 -0.2221
  409MOL0     H56385  11.045   5.047   4.457 -0.4877  0.1510  0.3139
  409MOL0     H56386  10.997   4.922   4.346  0.7054  1.2200 -0.4278
  409MOL0     H56387  11.263   5.064   4.335  1.2538 -1.9353 -0.0157
  409MOL0     H56388  11.210   4.928   4.233 -1.2311  0.3370 -0.5737
  409MOL0     H56389  11.371   4.886   4.422  0.2545 -1.4590 -2.1579
  409MOL0     H56390  11.226   4.860   4.524  0.7728 -0.8289  0.3404
  409MOL0     H56391  11.034   4.682   4.399  0.0058 -1.4552  0.2257
  409MOL0     H56392  10.977   4.415   4.365 -0.4309 -0.5171 -1.3142
  409MOL0     H56393  11.117   4.320   4.338 -1.6976 -0.1435 -0.9379
  409MOL0     H56394  10.957   4.331   4.153  0.1876 -0.0844  0.4129
  409MOL0     H56395  10.997   4.505   4.133 -1.9312 -0.2483 -1.9810
  409MOL0     H56396  11.122   4.392   3.972 -1.0303  1.3729  0.2437
  409MOL0     H56397  11.243   4.443   4.094  0.2804  1.2443 -2.6428
  409MOL0     H56398  11.297   4.226   4.032  2.9143  2.9181  3.3561
  409MOL0     H56399  11.230   4.212   4.199  2.9409  0.3657 -0.7519
  409MOL0     H56400  10.977   3.935   3.964 -1.4385 -3.6379  0.0713
  409MOL0     H56401  11.008   3.702   3.837  1.2817  1.5766 -0.2543
  409MOL0     H56402  10.891   3.701   3.971  1.0526  2.9758  0.1492
  409MOL0     H56403  11.019   3.575   3.947 -0.4896 -0.9251  1.1832
  409MOL0     H56404  11.358   3.312   3.976 -4.4434 -1.7324  0.4955
  409MOL0     H56405  11.428   3.082   4.062  0.3157 -0.7105  0.3677
  409MOL0     H56406  11.577   3.058   4.473  1.3997 -0.4648  1.2196
  409MOL0     H56407  11.407   3.011   4.479  1.5168 -0.4260  0.7392
  409MOL0     H56408  11.466   2.801   4.377  0.7445 -5.0871  1.2589
  409MOL0     H56409  11.640   2.839   4.381  0.7379  1.6758  0.9943
  409MOL0     H56410  11.458   2.813   4.628 -1.3115  0.7864 -3.2384
  409MOL0     H56411  11.633   2.854   4.625 -0.1305  0.4525 -1.7713
  409MOL0     H56412  11.690   2.652   4.512 -1.0723 -0.7129 -1.0969
  409MOL0     H56413  11.521   2.584   4.506 -0.2313 -2.0732  1.2162
  409MOL0     H56414  11.675   2.640   4.766 -0.3445  1.6087 -1.2195
  409MOL0     H56415  11.505   2.602   4.743 -1.0517 -0.6985 -1.7769
  409MOL0     H56416  11.671   2.402   4.797  0.7400 -1.3704 -1.4726
  409MOL0     H56417  11.738   2.434   4.629  0.4420 -1.6416  0.1798
  409MOL0     H56418  11.539   2.364   4.538  2.4869 -0.1839 -0.4002
  409MOL0     H56419  11.457   2.350   4.694 -1.4369  0.3021 -2.2114
  409MOL0     H56420  11.710   2.193   4.623  1.0094  0.4288  1.2784
  409MOL0     H56421  11.553   2.128   4.573  0.4481 -0.3826 -1.7394
  409MOL0     H56422  11.426   3.261   4.457 -1.3270  2.7429 -0.1653
  409MOL0     H56423  11.397   3.484   4.364  1.9521  0.3002  1.0835
  409MOL0     H56424  11.384   3.788   4.206 -1.0722  0.9140  0.9107
  409MOL0     H56425  11.339   4.015   4.175 -0.6905  0.7879 -0.0966
  409MOL0     H56426  10.879   5.236   3.396  0.6868 -0.0935 -0.3629
  409MOL0     H56427  10.803   5.416   3.238  0.3038 -1.5200 -0.6057
  409MOL0     H56428  10.732   5.845   3.129 -1.2885 -1.3579 -0.8099
  409MOL0     H56429  10.658   5.975   2.949  0.3059  0.0083  2.3191
  409MOL0     H56430  10.988   6.081   2.699 -0.7109  2.1646  3.4913
  409MOL0     H56431  10.875   6.024   2.569 -0.9812 -3.5687  2.4646
  409MOL0     H56432  10.894   6.285   2.727  2.5423 -1.3163  0.7706
  409MOL0     H56433  10.780   6.256   2.603 -1.7664 -4.2265  2.1364
  409MOL0     H56434  10.978   6.372   2.493  2.0251  0.0097 -0.6335
  409MOL0     H56435  11.085   6.304   2.613 -1.4271  0.5518  3.2265
  409MOL0     H56436  11.103   6.098   2.487 -1.3103 -0.2487 -0.5220
  409MOL0     H56437  11.132   6.239   2.389  0.2875  1.2665  1.8679
  409MOL0     H56438  10.805   6.099   2.189 -1.2107  0.0701  0.7313
  409MOL0     H56439  10.983   5.839   2.711  1.3961  3.6968  0.7902
  409MOL0     H56440  11.159   5.661   2.863 -0.4603  5.1300  0.6888
  409MOL0     H56441  11.046   5.559   2.943  2.2798 -0.6371  0.2504
  409MOL0     H56442  11.019   5.604   2.768  1.2354 -4.7897  0.9319
  410MOL0     O56443   8.712   6.704   6.565 -0.1968 -0.0565  0.1186
  410MOL0     C56444   8.610   6.769   6.576 -1.0913 -0.6041  0.1632
  410MOL0     O56445   8.611   6.888   6.638 -0.2127 -0.3223  0.4851
  410MOL0     C56446   8.727   6.947   6.672 -0.3587  0.3804 -0.0572
  410MOL0     C56447   8.787   7.047   6.595 -0.2948  0.5731 -0.6765
  410MOL0     C56448   8.898   7.123   6.630  0.3266  0.7354 -0.1857
  410MOL0     C56449   8.962   7.097   6.756 -0.0391  0.8191  0.0411
  410MOL0     O56450   9.063   7.157   6.819 -0.7010 -0.6569  0.5021
  410MOL0     C56451   9.153   7.240   6.736  0.3097  0.7887 -0.5173
  410MOL0     C56452   9.274   7.286   6.820 -0.1872  0.4916 -0.4504
  410MOL0     C56453   9.393   7.323   6.732  0.0031 -0.2042 -0.2193
  410MOL0     C56454   9.506   7.396   6.814 -0.8448 -0.0015 -0.0610
  410MOL0     C56455   9.557   7.303   6.925 -0.2470  0.3397  0.2834
  410MOL0     C56456   9.640   7.378   7.029 -0.3377  0.8325  0.3879
  410MOL0     C56457   9.562   7.392   7.161 -0.0979 -0.7579 -1.0260
  410MOL0     C56458   9.520   7.267   7.241 -0.3343  0.7987 -0.4265
  410MOL0     N56459   9.465   7.290   7.376 -0.6430  0.2257 -0.0909
  410MOL0     C56460   9.549   7.319   7.484  0.1794  0.3118 -1.2013
  410MOL0     C56461   9.466   7.313   7.593 -0.3298 -0.1880  0.9576
  410MOL0     C56462   9.499   7.347   7.732 -0.3237 -0.5113 -0.0598
  410MOL0     C56463   9.468   7.238   7.843  0.3479  0.6079 -0.1253
  410MOL0     C56464   9.479   7.296   7.984 -0.5498  0.0579 -0.3219
  410MOL0     C56465   9.456   7.187   8.093 -0.2897 -0.9533 -0.3770
  410MOL0     O56466   9.401   7.253   8.209  0.0519  0.3102  0.0206
  410MOL0     C56467   9.351   7.178   8.314 -0.5075  1.3878 -1.0170
  410MOL0     C56468   9.305   7.230   8.429 -0.2472  0.3111  0.4688
  410MOL0     C56469   9.266   7.163   8.543  0.2140  0.5292  0.6399
  410MOL0     C56470   9.228   7.241   8.670 -0.3838  0.2999 -0.9378
  410MOL0     C56471   9.268   7.021   8.542  1.0145 -0.3355  0.9599
  410MOL0     C56472   9.227   6.922   8.640  0.2507 -0.5313 -0.5308
  410MOL0     O56473   9.281   6.798   8.640  0.2845  0.1204 -1.3347
  410MOL0     C56474   9.274   6.721   8.748  0.2192  0.0256  0.4773
  410MOL0     C56475   9.222   6.744   8.878 -0.2114  0.2495 -0.0895
  410MOL0     C56476   9.223   6.644   8.982  0.0459  0.1071 -0.6501
  410MOL0     C56477   9.242   6.514   8.934  0.4033 -0.7297  0.1226
  410MOL0     O56478   9.211   6.409   9.016  0.4532  0.2571 -0.5290
  410MOL0     C56479   9.219   6.418   9.160 -0.2691 -0.7972 -0.0225
  410MOL0     C56480   9.137   6.306   9.203  1.1940  0.2870 -0.4812
  410MOL0     C56481   9.192   6.175   9.161 -0.0594 -1.3263  0.0690
  410MOL0     C56482   9.116   6.060   9.234 -1.3745 -0.1224 -0.0549
  410MOL0     C56483   9.190   6.023   9.363  0.3528  1.2475 -0.1936
  410MOL0     C56484   9.126   5.914   9.448 -0.4045  0.2722 -0.1366
  410MOL0     C56485   9.132   5.769   9.395 -0.2282 -0.2862 -0.0347
  410MOL0     C56486   9.270   5.739   9.326 -0.6079  0.0566  0.3566
  410MOL0    Cl56487   9.267   5.580   9.249  0.5380 -0.1051 -0.4146
  410MOL0     C56488   9.288   6.495   8.813  0.3652  0.5087 -0.1855
  410MOL0     C56489   9.318   6.593   8.718 -0.9266 -0.9117 -0.1722
  410MOL0     O56490   9.141   6.957   8.714 -0.0271 -0.0352  0.0597
  410MOL0     C56491   9.322   6.950   8.422 -0.3994 -0.4403 -0.2475
  410MOL0     C56492   9.365   7.030   8.315  0.4597 -0.9056 -0.1999
  410MOL0     N56493   9.332   7.279   7.550  0.5666  0.7243  0.5981
  410MOL0     N56494   9.339   7.277   7.416 -0.4902  0.8488 -0.0836
  410MOL0     C56495   8.894   6.996   6.838 -0.3973 -0.7194  1.0042
  410MOL0     C56496   8.787   6.915   6.793 -1.1611 -0.5644  0.8244
  410MOL0     C56497   8.483   6.703   6.548 -0.4099 -0.2379  0.2001
  410MOL0     C56498   8.486   6.582   6.486  0.5683 -0.1404  0.4222
  410MOL0     C56499   8.372   6.511   6.432  0.2451 -0.1595  0.0892
  410MOL0     C56500   8.245   6.566   6.459  0.4922 -0.7726  0.9387
  410MOL0     O56501   8.128   6.507   6.411  0.3065  0.3522  0.3964
  410MOL0     C56502   8.105   6.378   6.481  0.4680 -0.3425 -0.3367
  410MOL0     C56503   8.084   6.387   6.631  1.3128 -0.9212  0.7915
  410MOL0     C56504   8.020   6.261   6.688 -1.5247  0.1800 -0.7027
  410MOL0     C56505   7.995   6.287   6.835  0.1928 -0.1100  0.5219
  410MOL0     C56506   7.872   6.369   6.848 -0.8036  0.1474 -0.1934
  410MOL0     C56507   7.776   6.444   6.848 -0.3869  0.4515 -0.0795
  410MOL0     C56508   8.239   6.690   6.521  0.0922 -0.1346 -0.1892
  410MOL0     C56509   8.354   6.758   6.565  0.4942 -0.1748  0.2097
  410MOL0     C56510   8.330   6.895   6.629  0.1056 -0.4940  0.0973
  410MOL0     H56511   8.737   7.090   6.508  1.0077  0.0988 -1.6809
  410MOL0     H56512   8.931   7.204   6.566 -0.2165 -1.7178 -3.9449
  410MOL0     H56513   9.107   7.335   6.708 -1.8044  0.1346  0.4962
  410MOL0     H56514   9.187   7.181   6.651  0.0412 -0.0922 -0.0304
  410MOL0     H56515   9.244   7.359   6.896  0.4610  0.3532 -0.0534
  410MOL0     H56516   9.286   7.196   6.880 -3.4724 -0.5173 -1.0829
  410MOL0     H56517   9.427   7.233   6.680  2.5481 -0.1490  1.1785
  410MOL0     H56518   9.355   7.383   6.648 -0.3969  1.6659  1.2172
  410MOL0     H56519   9.591   7.421   6.751 -1.0839 -0.2692 -0.4930
  410MOL0     H56520   9.465   7.492   6.846  1.9859  1.0139  0.8278
  410MOL0     H56521   9.626   7.229   6.883 -1.6051 -2.1318  2.1503
  410MOL0     H56522   9.476   7.247   6.971  0.6183 -2.4640 -1.3769
  410MOL0     H56523   9.733   7.325   7.053 -1.3065 -1.9284 -1.4459
  410MOL0     H56524   9.672   7.474   6.988 -0.5956 -0.3659 -2.8812
  410MOL0     H56525   9.463   7.437   7.145  0.1598  1.3574  2.4093
  410MOL0     H56526   9.620   7.449   7.234  2.0248 -4.7115  0.6937
  410MOL0     H56527   9.452   7.205   7.182 -3.4441  3.5382 -0.0593
  410MOL0     H56528   9.611   7.210   7.260 -0.4386  0.6363 -0.4201
  410MOL0     H56529   9.656   7.335   7.485  0.0089  1.7512  0.5882
  410MOL0     H56530   9.440   7.434   7.760  0.1960 -0.7603  1.9608
  410MOL0     H56531   9.607   7.360   7.742 -0.3077 -1.5212  1.3154
  410MOL0     H56532   9.365   7.208   7.824  0.9953 -1.3464 -0.8015
  410MOL0     H56533   9.524   7.144   7.842 -1.2778 -0.4654  1.9952
  410MOL0     H56534   9.569   7.354   8.007 -1.3081  1.1479 -0.0364
  410MOL0     H56535   9.391   7.360   7.989 -1.1494 -0.7778  0.1201
  410MOL0     H56536   9.389   7.109   8.055 -0.9740 -1.4847  1.7503
  410MOL0     H56537   9.548   7.135   8.121  0.2174 -0.5344 -1.2318
  410MOL0     H56538   9.304   7.338   8.431 -1.5479  0.3632 -0.9518
  410MOL0     H56539   9.278   7.202   8.759 -0.8041 -3.0401 -2.0370
  410MOL0     H56540   9.121   7.238   8.696  0.1914 -2.1754  1.7298
  410MOL0     H56541   9.268   7.341   8.655 -0.9289  0.3773 -1.9855
  410MOL0     H56542   9.189   6.841   8.911 -0.3895 -0.6381  2.5499
  410MOL0     H56543   9.185   6.666   9.081 -1.3987 -2.6198 -0.4866
  410MOL0     H56544   9.323   6.401   9.189  0.3459  1.1784 -0.9055
  410MOL0     H56545   9.181   6.515   9.195 -0.0225 -0.3786 -0.8775
  410MOL0     H56546   9.131   6.299   9.312 -2.4505 -2.6282 -0.6790
  410MOL0     H56547   9.033   6.309   9.171 -0.3187 -1.2218  3.5555
  410MOL0     H56548   9.300   6.164   9.174  0.1053 -2.4688 -1.7622
  410MOL0     H56549   9.172   6.158   9.054  1.8819 -0.8982 -0.4025
  410MOL0     H56550   9.122   5.984   9.156  2.5676 -1.8230  1.6015
  410MOL0     H56551   9.015   6.092   9.262 -0.2207  0.8694  3.6687
  410MOL0     H56552   9.295   6.005   9.341  0.2455  2.4700 -1.8744
  410MOL0     H56553   9.194   6.112   9.427  0.3306  1.1493 -0.0537
  410MOL0     H56554   9.019   5.921   9.467 -0.6211 -2.7545  0.3493
  410MOL0     H56555   9.170   5.913   9.548 -1.3600 -1.0364  0.2998
  410MOL0     H56556   9.050   5.757   9.324 -1.1337  2.0631  0.5394
  410MOL0     H56557   9.103   5.702   9.477  1.3408  1.5797  2.1997
  410MOL0     H56558   9.348   5.756   9.400 -0.2406  2.2674 -0.4672
  410MOL0     H56559   9.277   5.805   9.239  0.4660 -2.1593 -1.3279
  410MOL0     H56560   9.305   6.398   8.767 -3.8111 -0.0401 -1.0011
  410MOL0     H56561   9.364   6.553   8.628 -1.5994  0.1123 -0.9982
  410MOL0     H56562   9.345   6.844   8.412  1.3433 -0.2136  0.9683
  410MOL0     H56563   9.414   6.980   8.231  4.1618  1.0653  0.5489
  410MOL0     H56564   8.938   6.977   6.936 -1.1383 -1.4309  1.2163
  410MOL0     H56565   8.740   6.838   6.853  4.7516 -3.5838  2.3227
  410MOL0     H56566   8.575   6.521   6.476  1.5711  1.5673 -1.8509
  410MOL0     H56567   8.379   6.417   6.378 -1.7896 -0.6057  0.5440
  410MOL0     H56568   8.012   6.331   6.446  0.2542  2.7083 -4.6513
  410MOL0     H56569   8.183   6.305   6.463  0.7882 -0.4875  1.4566
  410MOL0     H56570   8.032   6.482   6.649  2.0630 -0.6294  1.5293
  410MOL0     H56571   8.180   6.401   6.683  2.0137  1.9416 -1.0201
  410MOL0     H56572   7.926   6.234   6.638 -0.1274 -1.0006 -2.8330
  410MOL0     H56573   8.091   6.184   6.659 -0.5570  0.7374  0.1026
  410MOL0     H56574   8.077   6.338   6.886  0.5200 -0.6550  0.5434
  410MOL0     H56575   7.978   6.189   6.881  0.2831 -0.9695 -1.1903
  410MOL0     H56576   7.699   6.518   6.841 -1.4555 -0.7079 -1.0498
  410MOL0     H56577   8.141   6.731   6.545 -1.2971 -2.6948 -1.1355
  410MOL0     H56578   8.231   6.935   6.604  0.4448  0.2055 -0.1676
  410MOL0     H56579   8.328   6.887   6.738 -3.8999  0.7237  0.2854
  410MOL0     H56580   8.407   6.967   6.602 -1.2066  2.0729  2.6565
  411MOL0     O56581   7.262   5.461   0.125 -0.0379  0.0458  1.0323
  411MOL0     C56582   7.229   5.361   0.180 -0.9934  1.3405  0.6147
  411MOL0     O56583   7.099   5.330   0.234 -0.0782 -0.3160 -0.0352
  411MOL0     C56584   7.010   5.429   0.204  0.2557  0.2322  0.1550
  411MOL0     C56585   6.965   5.457   0.071 -0.2097  0.2218  1.0658
  411MOL0     C56586   6.869   5.554   0.054  0.2993  0.0284  0.0463
  411MOL0     C56587   6.831   5.641   0.152  0.0545 -0.3495 -0.3095
  411MOL0     O56588   6.742   5.743   0.122  0.4529  0.9229 -0.1480
  411MOL0     C56589   6.777   5.855   0.042 -0.3762 -0.4190 -0.7907
  411MOL0     C56590   6.652   5.934   0.020  0.1206 -0.1683 -0.4111
  411MOL0     C56591   6.661   6.072  -0.042  0.3010  0.2356 -0.7556
  411MOL0     C56592   6.621   6.079  -0.186  0.6139  0.4534 -0.4967
  411MOL0     C56593   6.725   6.042  -0.289  0.4084 -0.9529 -0.4996
  411MOL0     C56594   6.689   6.086  -0.434 -0.4141 -0.5532  0.1936
  411MOL0     C56595   6.551   6.046  -0.485  0.6636 -0.3737  0.4268
  411MOL0     C56596   6.526   6.081  -0.636  0.4713 -0.4593  0.0793
  411MOL0     N56597   6.644   6.087  -0.726 -0.2858  0.7072 -0.5382
  411MOL0     C56598   6.698   5.993  -0.812  0.5055  1.3994 -0.4748
  411MOL0     C56599   6.828   6.018  -0.836  0.4283 -0.1711  0.3259
  411MOL0     C56600   6.930   5.931  -0.911  0.2734  0.0698  0.3009
  411MOL0     C56601   7.063   5.996  -0.897 -0.6832  0.1738 -0.1890
  411MOL0     C56602   7.163   5.909  -0.976  0.1962  0.4838 -0.1704
  411MOL0     C56603   7.171   5.957  -1.121 -0.3163  0.2289 -0.1311
  411MOL0     O56604   7.283   5.894  -1.187  0.3870  0.3910 -0.0674
  411MOL0     C56605   7.313   5.932  -1.315  0.0438  0.5240 -0.5687
  411MOL0     C56606   7.247   6.020  -1.392 -0.0996 -0.0294 -0.4980
  411MOL0     C56607   7.267   6.035  -1.529 -0.3319 -1.1880 -0.3993
  411MOL0     C56608   7.179   6.138  -1.592 -0.5231  0.7222  0.1548
  411MOL0     C56609   7.367   5.972  -1.590 -0.8882  1.6694  0.5516
  411MOL0     C56610   7.392   5.974  -1.734  0.2269  0.3747 -0.6373
  411MOL0     O56611   7.377   6.091  -1.803 -0.0554  0.4073  0.3782
  411MOL0     C56612   7.441   6.106  -1.921  1.0343  0.2286  1.2173
  411MOL0     C56613   7.384   6.054  -2.036 -0.3272  0.7205 -0.1999
  411MOL0     C56614   7.440   6.081  -2.160 -0.4774 -0.2622 -0.9279
  411MOL0     C56615   7.538   6.176  -2.170 -0.2367  0.4257 -0.1360
  411MOL0     O56616   7.580   6.190  -2.297  0.0305  0.2534  0.3076
  411MOL0     C56617   7.595   6.325  -2.340 -0.3099  0.1047  0.9943
  411MOL0     C56618   7.470   6.415  -2.360  0.2268 -0.0282 -0.5943
  411MOL0     C56619   7.359   6.355  -2.450 -0.1659 -0.5303 -0.6848
  411MOL0     C56620   7.251   6.461  -2.490  1.2275 -0.3842 -0.2726
  411MOL0     C56621   7.139   6.394  -2.569 -0.0182  0.0111  0.6673
  411MOL0     C56622   7.042   6.495  -2.613 -0.5028  0.4422  0.4245
  411MOL0     C56623   6.919   6.433  -2.680  0.2921  0.3946 -0.0609
  411MOL0     C56624   6.814   6.544  -2.700 -0.1163 -0.0950 -0.1832
  411MOL0    Cl56625   6.674   6.484  -2.779  0.5266 -0.0394 -0.0277
  411MOL0     C56626   7.605   6.225  -2.057  0.6446  0.1541  0.4211
  411MOL0     C56627   7.548   6.190  -1.928  0.6482 -0.1931  0.2582
  411MOL0     O56628   7.441   5.870  -1.781  0.1823  0.6735  0.0963
  411MOL0     C56629   7.445   5.881  -1.514  0.3370 -0.3277 -0.6951
  411MOL0     C56630   7.420   5.857  -1.379  0.4564 -0.1997  0.0178
  411MOL0     N56631   6.842   6.142  -0.778 -0.4612 -1.2452  0.6633
  411MOL0     N56632   6.738   6.178  -0.722  0.9610  0.5203  0.4211
  411MOL0     C56633   6.876   5.614   0.280  0.5308  0.5745 -1.1700
  411MOL0     C56634   6.963   5.506   0.303  0.4813 -0.9253  0.7978
  411MOL0     C56635   7.321   5.255   0.213  0.7055  0.8826  0.2776
  411MOL0     C56636   7.281   5.154   0.300  0.0774  0.7806 -0.1916
  411MOL0     C56637   7.365   5.046   0.335 -1.1894 -0.5463 -1.3154
  411MOL0     C56638   7.491   5.030   0.288 -0.4515  0.6169 -0.2023
  411MOL0     O56639   7.562   4.929   0.336  0.2442  1.3423 -0.2606
  411MOL0     C56640   7.668   4.879   0.243  0.2539  0.1939 -1.0898
  411MOL0     C56641   7.711   4.757   0.313  0.7851 -0.6684 -0.1632
  411MOL0     C56642   7.598   4.636   0.313 -0.4208  0.7378 -0.4207
  411MOL0     C56643   7.647   4.501   0.363  0.8227 -0.1754  0.3424
  411MOL0     C56644   7.543   4.401   0.350  0.8613  0.0489 -0.5856
  411MOL0     C56645   7.440   4.335   0.354  0.4515  0.2376 -0.1515
  411MOL0     C56646   7.529   5.121   0.185  0.8170 -0.6631 -0.0827
  411MOL0     C56647   7.442   5.238   0.150 -0.3298 -0.3223  0.2624
  411MOL0     C56648   7.515   5.341   0.071  0.1945 -0.1204  0.3983
  411MOL0     H56649   6.997   5.410  -0.022 -1.0121  5.0195 -1.9788
  411MOL0     H56650   6.831   5.571  -0.046 -2.7133  1.1182  1.2666
  411MOL0     H56651   6.796   5.817  -0.058  0.3553  1.8774 -1.5874
  411MOL0     H56652   6.861   5.911   0.083 -0.8660  1.0320 -1.7041
  411MOL0     H56653   6.574   5.877  -0.031  0.5023 -0.0057 -1.1905
  411MOL0     H56654   6.616   5.942   0.123  6.2099 -1.1671  2.2060
  411MOL0     H56655   6.596   6.138   0.017  0.9544 -1.0124  1.4676
  411MOL0     H56656   6.763   6.103  -0.019  0.5770  0.5258 -2.2725
  411MOL0     H56657   6.528   6.029  -0.214  0.9287 -0.2695 -0.2751
  411MOL0     H56658   6.590   6.182  -0.205  1.7894  0.5729 -1.9733
  411MOL0     H56659   6.728   5.933  -0.284 -3.9657 -1.3152 -1.8172
  411MOL0     H56660   6.827   6.080  -0.279  0.5722 -1.5206  0.0948
  411MOL0     H56661   6.681   6.195  -0.441 -4.0236 -0.7682 -4.2519
  411MOL0     H56662   6.769   6.049  -0.498 -0.6114 -4.5431  1.9974
  411MOL0     H56663   6.479   6.087  -0.414 -0.1171 -0.8022 -0.0869
  411MOL0     H56664   6.529   5.940  -0.466 -4.6338  0.6344  1.6809
  411MOL0     H56665   6.452   6.014  -0.681 -0.2663 -0.0471  0.6370
  411MOL0     H56666   6.491   6.185  -0.629  1.1552 -0.2646  0.7361
  411MOL0     H56667   6.649   5.897  -0.827 -0.2432  1.2066  2.5405
  411MOL0     H56668   6.910   5.939  -1.018  1.3112  3.1280  0.2559
  411MOL0     H56669   6.926   5.824  -0.890  0.2538 -0.8117 -3.5962
  411MOL0     H56670   7.060   6.100  -0.930  2.5972 -0.4844 -3.1684
  411MOL0     H56671   7.106   5.986  -0.796 -0.6963  1.2052 -0.0765
  411MOL0     H56672   7.266   5.909  -0.938 -0.3211  0.0600  1.3212
  411MOL0     H56673   7.131   5.805  -0.967  0.8315  0.4203  2.1284
  411MOL0     H56674   7.076   5.947  -1.173 -0.4362  0.5132  0.0354
  411MOL0     H56675   7.210   6.059  -1.127 -0.2513  0.1708 -0.8235
  411MOL0     H56676   7.179   6.090  -1.345  4.3278  3.5632  1.2922
  411MOL0     H56677   7.145   6.097  -1.688  1.1309  0.2700 -0.2837
  411MOL0     H56678   7.236   6.230  -1.607  1.3947 -0.1288  1.6975
  411MOL0     H56679   7.088   6.171  -1.542 -2.6201 -0.1435 -2.7696
  411MOL0     H56680   7.311   5.973  -2.033  1.7465 -1.2346 -0.3146
  411MOL0     H56681   7.389   6.031  -2.242 -2.7702 -2.9590  1.8596
  411MOL0     H56682   7.664   6.377  -2.273 -0.7082 -1.3284  2.6015
  411MOL0     H56683   7.637   6.313  -2.440  0.2750  0.6514  1.1735
  411MOL0     H56684   7.427   6.438  -2.262  1.5074  0.1853 -0.0623
  411MOL0     H56685   7.503   6.509  -2.405  0.1908  0.9643  1.3229
  411MOL0     H56686   7.311   6.282  -2.385 -0.4328  1.4163  1.4378
  411MOL0     H56687   7.399   6.302  -2.537  1.9333  2.9448 -2.0545
  411MOL0     H56688   7.286   6.541  -2.556 -1.3699  0.1492 -1.1458
  411MOL0     H56689   7.215   6.513  -2.401  2.0867  0.4381 -0.3949
  411MOL0     H56690   7.186   6.340  -2.651  3.3539 -2.3264  3.7783
  411MOL0     H56691   7.085   6.326  -2.502 -1.2642 -3.3358 -3.3795
  411MOL0     H56692   7.095   6.559  -2.686 -1.0870  0.5932  0.1279
  411MOL0     H56693   7.021   6.554  -2.523  0.2107 -0.8170  1.4475
  411MOL0     H56694   6.874   6.356  -2.617 -0.2002  1.2911  0.7025
  411MOL0     H56695   6.954   6.382  -2.770  2.2675 -0.3742  1.0591
  411MOL0     H56696   6.863   6.618  -2.764  0.0941 -0.2738 -0.2316
  411MOL0     H56697   6.788   6.602  -2.611 -0.2828 -0.1368 -0.2051
  411MOL0     H56698   7.686   6.297  -2.065  0.8916 -0.1620  0.0832
  411MOL0     H56699   7.578   6.234  -1.834 -1.3513 -0.4194  1.0521
  411MOL0     H56700   7.534   5.827  -1.546 -0.1189 -0.4930 -1.7049
  411MOL0     H56701   7.488   5.788  -1.331  0.1268  0.9381  2.2597
  411MOL0     H56702   6.862   5.679   0.367 -3.1918 -1.8777  0.3183
  411MOL0     H56703   6.995   5.491   0.405  1.7827 -0.1259  0.5359
  411MOL0     H56704   7.184   5.141   0.346 -0.0403 -1.6121 -0.9347
  411MOL0     H56705   7.346   4.966   0.407  2.1926 -0.2996  0.0447
  411MOL0     H56706   7.621   4.861   0.146 -1.6490 -0.1541 -0.1485
  411MOL0     H56707   7.752   4.950   0.240  2.4145 -2.1398  0.1780
  411MOL0     H56708   7.746   4.766   0.416  0.9508 -2.7333  0.0006
  411MOL0     H56709   7.801   4.730   0.257  0.9152 -2.1303  0.7005
  411MOL0     H56710   7.520   4.670   0.381 -2.5168 -1.7153 -1.4365
  411MOL0     H56711   7.547   4.633   0.216  0.6266 -1.5823 -0.9445
  411MOL0     H56712   7.689   4.511   0.464  1.6877 -0.7678  0.0591
  411MOL0     H56713   7.739   4.470   0.312  2.0554  1.0454  1.6837
  411MOL0     H56714   7.360   4.265   0.364  2.0737 -1.8076 -0.5548
  411MOL0     H56715   7.628   5.116   0.142 -0.3349  3.0301 -3.7829
  411MOL0     H56716   7.501   5.440   0.117 -3.5784 -0.1799 -0.3188
  411MOL0     H56717   7.621   5.318   0.082 -0.0068 -0.4638  1.8664
  411MOL0     H56718   7.486   5.335  -0.034 -1.1434 -0.9249  0.7896
  412MOL0     O56719  10.982   6.887   9.915  0.1470  0.2789  0.2060
  412MOL0     C56720  10.923   6.897   9.807  0.2368  0.0679 -0.3080
  412MOL0     O56721  10.979   6.931   9.684 -0.4004  0.9822  0.4407
  412MOL0     C56722  11.117   6.944   9.670  0.1238  0.1623  1.1430
  412MOL0     C56723  11.178   7.052   9.726  0.3554 -0.1856  0.2062
  412MOL0     C56724  11.309   7.085   9.692  0.2435 -0.3442  0.4461
  412MOL0     C56725  11.380   7.024   9.591 -0.0287  0.1567  0.2700
  412MOL0     O56726  11.508   7.072   9.570  0.3427  0.0220 -0.3706
  412MOL0     C56727  11.556   7.084   9.435 -0.2221 -0.1166 -0.1072
  412MOL0     C56728  11.704   7.133   9.444  0.2163  0.1732  0.5655
  412MOL0     C56729  11.766   7.142   9.304  0.3636  0.8745 -0.6197
  412MOL0     C56730  11.913   7.116   9.311 -0.2362  1.0872 -1.0732
  412MOL0     C56731  11.952   7.093   9.165 -0.6283 -0.8446 -0.2835
  412MOL0     C56732  11.966   7.231   9.094  0.4189  0.1922 -0.5088
  412MOL0     C56733  12.033   7.211   8.959 -0.3798  0.1949 -0.0703
  412MOL0     C56734  12.010   7.349   8.889  0.2228 -0.5646 -1.0394
  412MOL0     N56735  12.090   7.360   8.765 -0.1223 -0.0017  0.5995
  412MOL0     C56736  12.229   7.385   8.741 -0.8806  0.6974  0.1566
  412MOL0     C56737  12.250   7.408   8.611  0.6277  0.3751  0.6319
  412MOL0     C56738  12.379   7.443   8.543  0.2651  0.7414 -0.5056
  412MOL0     C56739  12.436   7.334   8.446 -0.1356 -0.1177  0.0254
  412MOL0     C56740  12.352   7.325   8.320 -0.0121 -0.4386  0.1404
  412MOL0     C56741  12.405   7.242   8.206  0.6638  0.3330  0.2456
  412MOL0     O56742  12.517   7.303   8.159  0.2630 -0.3269  0.1711
  412MOL0     C56743  12.518   7.324   8.021  0.3913 -0.6668  0.6067
  412MOL0     C56744  12.550   7.443   7.966  0.0764 -0.2927  1.0431
  412MOL0     C56745  12.545   7.461   7.823 -0.1486  0.0397  0.4443
  412MOL0     C56746  12.595   7.596   7.770  0.7139  0.6779 -0.4839
  412MOL0     C56747  12.520   7.352   7.734 -0.2183  1.0687  0.6695
  412MOL0     C56748  12.525   7.351   7.583 -0.3016 -0.0441  0.6005
  412MOL0     O56749  12.514   7.462   7.504 -0.0113  0.3709 -0.1479
  412MOL0     C56750  12.549   7.450   7.374  0.7531 -0.0625 -0.3730
  412MOL0     C56751  12.472   7.380   7.284  0.1361  0.3016  0.8147
  412MOL0     C56752  12.493   7.397   7.153  0.3957  0.4039  0.6038
  412MOL0     C56753  12.583   7.489   7.101 -0.1469  1.0003  0.9023
  412MOL0     O56754  12.603   7.495   6.965 -0.3457 -0.1947  0.0108
  412MOL0     C56755  12.580   7.379   6.885 -0.0120 -0.2318 -0.5676
  412MOL0     C56756  12.627   7.391   6.739  0.2471 -0.3528 -0.6293
  412MOL0     C56757  12.623   7.531   6.667  0.7641  0.2072  0.0408
  412MOL0     C56758  12.679   7.547   6.523 -0.0389 -0.6923  0.1376
  412MOL0     C56759  12.685   7.686   6.481  0.2046  0.2205  0.1332
  412MOL0     C56760  12.730   7.711   6.337 -0.9209  0.8388  0.1861
  412MOL0     C56761  12.884   7.706   6.324 -0.3409  0.4225  0.3524
  412MOL0     C56762  12.929   7.677   6.172 -0.0413  0.4360 -0.1552
  412MOL0    Cl56763  12.888   7.500   6.124  0.5999  0.3240 -0.2347
  412MOL0     C56764  12.667   7.554   7.193  0.5532 -0.0378 -0.0785
  412MOL0     C56765  12.651   7.533   7.332  0.7324 -0.7891  0.0593
  412MOL0     O56766  12.524   7.235   7.541  0.1082  0.7478  0.6604
  412MOL0     C56767  12.483   7.231   7.800 -0.4804  0.3124 -0.4648
  412MOL0     C56768  12.471   7.223   7.937 -0.9632  0.2456 -0.5899
  412MOL0     N56769  12.117   7.388   8.556  0.1626 -0.1971 -0.1169
  412MOL0     N56770  12.036   7.358   8.639 -1.0155  0.0519 -1.0217
  412MOL0     C56771  11.317   6.911   9.525  0.0485 -0.2655 -0.5963
  412MOL0     C56772  11.191   6.869   9.566 -0.9012 -0.7830  0.4483
  412MOL0     C56773  10.783   6.863   9.796  0.1579  0.8940  1.0054
  412MOL0     C56774  10.750   6.770   9.691  0.7544  0.4860 -0.3793
  412MOL0     C56775  10.621   6.720   9.670 -0.4733 -0.1185  0.0242
  412MOL0     C56776  10.515   6.770   9.745  0.2000 -0.6772  0.5027
  412MOL0     O56777  10.381   6.749   9.711  0.2524 -0.0638  0.4755
  412MOL0     C56778  10.350   6.664   9.601 -1.0673  0.6605 -0.5383
  412MOL0     C56779  10.209   6.603   9.624  0.4098 -0.4397 -0.6712
  412MOL0     C56780  10.178   6.548   9.766  0.4992  0.3471  0.3000
  412MOL0     C56781  10.024   6.513   9.770  0.0422 -0.3202  0.5898
  412MOL0     C56782  10.005   6.393   9.853 -0.5554 -0.2621 -0.0293
  412MOL0     C56783   9.988   6.284   9.898  0.4079  0.3173 -0.4922
  412MOL0     C56784  10.546   6.850   9.849  0.4333 -0.1937 -1.1561
  412MOL0     C56785  10.672   6.890   9.882 -1.2081  0.3067  0.1763
  412MOL0     C56786  10.692   6.965  10.012 -0.0603  0.3616 -0.6849
  412MOL0     H56787  11.115   7.110   9.793 -0.9869 -2.4024  0.9689
  412MOL0     H56788  11.366   7.147   9.760  1.8131 -2.0877  0.8238
  412MOL0     H56789  11.491   7.149   9.376 -1.0220 -1.1391 -0.3922
  412MOL0     H56790  11.564   6.985   9.388 -0.3191 -0.9064  1.4382
  412MOL0     H56791  11.711   7.232   9.489 -1.6854  1.0709 -0.9192
  412MOL0     H56792  11.767   7.072   9.509  1.6264 -0.0028 -0.8974
  412MOL0     H56793  11.717   7.079   9.230 -0.8385  2.3392 -1.1345
  412MOL0     H56794  11.727   7.237   9.265  1.1887  0.1347 -3.4316
  412MOL0     H56795  11.970   7.201   9.350 -2.0129  1.6138  0.4811
  412MOL0     H56796  11.928   7.035   9.383  1.5291  2.0117 -0.3382
  412MOL0     H56797  11.885   7.026   9.110 -1.6112  0.2472 -0.4633
  412MOL0     H56798  12.049   7.041   9.167 -1.5450 -2.8087 -2.1408
  412MOL0     H56799  11.868   7.278   9.078  1.4041  1.9874 -1.5906
  412MOL0     H56800  12.014   7.309   9.154 -0.5340  1.7556 -1.7008
  412MOL0     H56801  12.013   7.122   8.898  2.8169 -3.4343  3.6134
  412MOL0     H56802  12.135   7.201   8.998 -1.1150 -1.8386  1.4541
  412MOL0     H56803  11.905   7.367   8.863 -0.2727  2.2124  2.1917
  412MOL0     H56804  12.035   7.426   8.962  0.6792  1.0860 -2.8470
  412MOL0     H56805  12.306   7.385   8.817 -0.4163 -0.3380 -0.2847
  412MOL0     H56806  12.447   7.460   8.626 -2.7164  1.4981  1.9774
  412MOL0     H56807  12.365   7.542   8.498 -0.0710  0.0673 -1.9423
  412MOL0     H56808  12.533   7.371   8.410 -0.3924 -0.0541 -0.6048
  412MOL0     H56809  12.444   7.238   8.498  1.1018  0.0975  0.2665
  412MOL0     H56810  12.259   7.276   8.351  0.4805 -0.5948  1.4276
  412MOL0     H56811  12.324   7.428   8.294 -0.4873 -0.8565 -1.0623
  412MOL0     H56812  12.426   7.142   8.244  1.5149  0.5889  0.4553
  412MOL0     H56813  12.330   7.244   8.126  2.4459  2.7676 -1.5291
  412MOL0     H56814  12.562   7.521   8.041 -0.9153  1.0436 -0.1200
  412MOL0     H56815  12.530   7.624   7.686 -0.5635 -0.4051  0.0932
  412MOL0     H56816  12.700   7.581   7.744 -0.0878 -3.9683 -1.9515
  412MOL0     H56817  12.596   7.676   7.845  1.1918 -1.2843  1.7374
  412MOL0     H56818  12.409   7.305   7.330  0.4761 -1.5392 -1.5087
  412MOL0     H56819  12.444   7.328   7.085 -0.7866 -0.5346  2.3246
  412MOL0     H56820  12.635   7.296   6.930  0.0437  1.0118  1.7665
  412MOL0     H56821  12.472   7.366   6.873 -0.1156  2.1936 -3.6018
  412MOL0     H56822  12.732   7.360   6.731  0.7460  1.3495 -0.9285
  412MOL0     H56823  12.561   7.313   6.699  1.9857 -2.7551  0.9422
  412MOL0     H56824  12.675   7.599   6.735  0.2329  2.0023 -1.2757
  412MOL0     H56825  12.523   7.574   6.655  0.4805 -0.4230  0.0671
  412MOL0     H56826  12.612   7.506   6.447  0.6514 -0.4008 -0.6432
  412MOL0     H56827  12.772   7.490   6.512 -0.3875 -1.1094 -0.7805
  412MOL0     H56828  12.593   7.737   6.512 -1.1968 -1.4397 -1.1094
  412MOL0     H56829  12.762   7.731   6.544 -1.8700  2.7165  1.1047
  412MOL0     H56830  12.681   7.801   6.299 -2.5346  0.0778  0.3594
  412MOL0     H56831  12.688   7.632   6.273  2.6622 -3.1910  2.3055
  412MOL0     H56832  12.915   7.629   6.395 -3.4733 -1.2854  0.0796
  412MOL0     H56833  12.925   7.805   6.348  1.3620 -0.2244  0.2492
  412MOL0     H56834  13.035   7.699   6.154  0.4299 -2.5404 -1.5955
  412MOL0     H56835  12.874   7.749   6.110 -0.6417  1.4879  1.5202
  412MOL0     H56836  12.731   7.633   7.155 -1.5814  1.2954 -1.1357
  412MOL0     H56837  12.705   7.599   7.400  1.5304  0.8079 -2.0058
  412MOL0     H56838  12.447   7.145   7.745 -1.9929  0.7197 -0.1536
  412MOL0     H56839  12.437   7.127   7.973 -1.4963  0.7738  0.3434
  412MOL0     H56840  11.368   6.856   9.446  0.0514  1.8974 -2.2099
  412MOL0     H56841  11.140   6.786   9.520 -0.2181 -1.5106  0.9685
  412MOL0     H56842  10.828   6.735   9.625 -0.0034 -2.9387  0.3411
  412MOL0     H56843  10.614   6.646   9.590  0.7761  2.4446 -2.6457
  412MOL0     H56844  10.349   6.726   9.510  1.1605  1.4946 -0.0715
  412MOL0     H56845  10.418   6.581   9.579 -1.2936 -0.0016  1.1296
  412MOL0     H56846  10.195   6.542   9.534  2.1985  3.2700 -3.7792
  412MOL0     H56847  10.128   6.673   9.603 -0.3357 -1.4797 -1.3582
  412MOL0     H56848  10.234   6.457   9.790 -1.2301 -1.2237 -1.2860
  412MOL0     H56849  10.195   6.633   9.833 -0.3452  0.7149  0.0594
  412MOL0     H56850   9.978   6.490   9.673 -1.2711 -1.8084  1.5190
  412MOL0     H56851   9.967   6.595   9.815  1.6804  0.5969  1.0557
  412MOL0     H56852   9.982   6.188   9.945 -3.0558  0.4653 -0.4427
  412MOL0     H56853  10.461   6.899   9.895  0.9964 -1.4384  1.4471
  412MOL0     H56854  10.642   6.916  10.096  0.3673  0.8755 -0.1186
  412MOL0     H56855  10.797   6.962  10.042 -0.8012  1.8571  2.4398
  412MOL0     H56856  10.660   7.070  10.001 -1.2787 -0.0235 -0.9742
  413MOL0     O56857   3.188   9.161   9.059  0.2500  0.0727  0.6604
  413MOL0     C56858   3.225   9.276   9.070  0.5545 -1.0933 -0.0305
  413MOL0     O56859   3.210   9.376   8.983 -0.3272 -0.1401 -0.4505
  413MOL0     C56860   3.125   9.360   8.879 -0.0740 -0.2555 -0.8229
  413MOL0     C56861   3.015   9.444   8.856 -0.3950 -0.6732 -0.8561
  413MOL0     C56862   2.956   9.449   8.728 -0.0249  0.2115 -1.2557
  413MOL0     C56863   3.018   9.373   8.620 -0.1974  0.4268 -0.6603
  413MOL0     O56864   2.974   9.382   8.495  0.2133  0.2660  0.7277
  413MOL0     C56865   2.835   9.413   8.464 -0.3923 -0.2848 -0.5346
  413MOL0     C56866   2.831   9.411   8.311  0.1019  0.8093 -0.3992
  413MOL0     C56867   2.878   9.546   8.249 -0.7721  0.5206 -0.2543
  413MOL0     C56868   2.815   9.547   8.105 -0.0502 -0.3045 -0.4940
  413MOL0     C56869   2.863   9.646   8.001 -0.5749  0.6756  0.0998
  413MOL0     C56870   3.023   9.635   7.981 -0.2875 -0.1446 -0.3971
  413MOL0     C56871   3.080   9.720   7.868 -0.2978 -0.2747 -0.5113
  413MOL0     C56872   3.194   9.654   7.779  0.8346  0.3155  0.3413
  413MOL0     N56873   3.119   9.611   7.656 -0.4443 -0.4971  0.0095
  413MOL0     C56874   3.047   9.495   7.642 -0.1685  0.1350 -0.3780
  413MOL0     C56875   3.043   9.467   7.504  0.0057  0.6031  0.0209
  413MOL0     C56876   2.945   9.368   7.445  0.7589  0.3075 -0.3147
  413MOL0     C56877   2.921   9.246   7.546 -0.3427 -0.7483 -0.0981
  413MOL0     C56878   2.844   9.123   7.518 -0.1894  0.2879  0.4397
  413MOL0     C56879   2.721   9.162   7.430 -0.3274  0.0387 -0.3737
  413MOL0     O56880   2.638   9.046   7.400 -0.2148  0.1120 -0.6320
  413MOL0     C56881   2.533   9.069   7.323 -0.4066  0.1829 -0.0316
  413MOL0     C56882   2.470   9.196   7.305 -0.6402  0.1275  0.2922
  413MOL0     C56883   2.372   9.223   7.211  0.6426 -0.2691 -0.2943
  413MOL0     C56884   2.307   9.360   7.217 -0.4821 -0.0684 -0.2465
  413MOL0     C56885   2.324   9.118   7.128  0.3298 -0.6062 -0.3309
  413MOL0     C56886   2.211   9.121   7.032  0.7716 -0.4859 -0.7493
  413MOL0     O56887   2.167   9.002   6.970 -0.0301  0.0084  0.4311
  413MOL0     C56888   2.074   9.014   6.866  0.2184 -0.1056 -0.6697
  413MOL0     C56889   2.108   9.089   6.752  0.3241 -0.0223 -0.0341
  413MOL0     C56890   2.008   9.107   6.655  0.7333  0.2003  0.1987
  413MOL0     C56891   1.880   9.071   6.684  0.2887  0.1879 -0.4207
  413MOL0     O56892   1.791   9.102   6.585  0.1984  0.0788  0.2085
  413MOL0     C56893   1.657   9.063   6.599  1.2694 -0.0182  0.8776
  413MOL0     C56894   1.591   9.089   6.454 -0.4087  0.1934  0.1319
  413MOL0     C56895   1.537   9.234   6.425  0.6053  0.2765  1.3875
  413MOL0     C56896   1.649   9.338   6.416  0.1719 -0.2087 -0.0695
  413MOL0     C56897   1.630   9.457   6.314 -0.0320  0.0257  0.4517
  413MOL0     C56898   1.486   9.521   6.321 -0.3174  0.3616  1.0666
  413MOL0     C56899   1.457   9.623   6.216  0.0620 -0.1898 -0.2186
  413MOL0     C56900   1.319   9.698   6.239  1.0020  0.5620  0.7419
  413MOL0    Cl56901   1.187   9.590   6.219 -0.0289  0.3044 -0.2827
  413MOL0     C56902   1.851   8.999   6.798  0.5028 -0.3958 -0.1844
  413MOL0     C56903   1.944   8.969   6.894 -0.1527 -0.9784  0.4378
  413MOL0     O56904   2.145   9.229   7.016 -0.4704  0.7834  0.0083
  413MOL0     C56905   2.387   8.990   7.145 -0.6175  0.2880 -0.6667
  413MOL0     C56906   2.493   8.969   7.238  0.5897 -0.6873  0.0070
  413MOL0     N56907   3.103   9.574   7.440 -0.6896  0.2125 -0.3677
  413MOL0     N56908   3.154   9.653   7.536  0.0271 -0.1227  0.4485
  413MOL0     C56909   3.133   9.298   8.646 -0.7754  0.1216 -0.1703
  413MOL0     C56910   3.177   9.287   8.775 -0.1914  0.3949  0.7805
  413MOL0     C56911   3.306   9.299   9.184  0.3782 -0.5562  0.3503
  413MOL0     C56912   3.423   9.380   9.164  0.4718  0.7808  1.3862
  413MOL0     C56913   3.495   9.427   9.274 -0.0912  0.1650  0.9224
  413MOL0     C56914   3.473   9.373   9.402  0.2562 -1.0131  0.0178
  413MOL0     O56915   3.545   9.407   9.510  0.5939  0.4118 -0.3995
  413MOL0     C56916   3.688   9.404   9.496  0.0539 -0.1260  0.4808
  413MOL0     C56917   3.735   9.468   9.624  0.1630 -0.1442 -0.1915
  413MOL0     C56918   3.887   9.510   9.623 -0.4516  1.0783  0.3310
  413MOL0     C56919   3.920   9.659   9.648 -0.3736 -0.5732  0.6473
  413MOL0     C56920   3.874   9.740   9.536  0.4495  0.8825 -0.3798
  413MOL0     C56921   3.827   9.790   9.439  0.0291 -0.5244  0.0001
  413MOL0     C56922   3.368   9.294   9.423  0.5791 -0.2178  0.4911
  413MOL0     C56923   3.278   9.255   9.315 -0.2073 -0.6871  0.7632
  413MOL0     C56924   3.144   9.193   9.351 -0.1175 -0.1214 -0.0576
  413MOL0     H56925   2.984   9.499   8.944  1.6401  2.2286 -1.7861
  413MOL0     H56926   2.875   9.515   8.699 -0.4200 -0.9897 -3.0517
  413MOL0     H56927   2.801   9.509   8.503  1.0466 -0.6457  1.8081
  413MOL0     H56928   2.773   9.336   8.510  0.7331  0.0566  1.7382
  413MOL0     H56929   2.888   9.328   8.268  0.3863  1.4286 -1.2708
  413MOL0     H56930   2.725   9.390   8.298  0.0906 -1.0538  2.0550
  413MOL0     H56931   2.846   9.627   8.315 -1.3348  0.7101 -0.7429
  413MOL0     H56932   2.987   9.553   8.245 -0.8241  1.3641 -3.6260
  413MOL0     H56933   2.816   9.444   8.069  0.4825 -0.9936  1.3844
  413MOL0     H56934   2.711   9.576   8.126 -0.1376  0.7634 -2.2068
  413MOL0     H56935   2.839   9.745   8.040 -3.4374 -0.4533  1.5259
  413MOL0     H56936   2.815   9.627   7.904  2.9247 -1.6246 -1.3623
  413MOL0     H56937   3.072   9.669   8.072 -0.7313  1.4845 -0.7444
  413MOL0     H56938   3.042   9.530   7.953  0.6095  0.1147 -0.7900
  413MOL0     H56939   3.134   9.805   7.911  2.4969 -2.3614  0.4085
  413MOL0     H56940   2.992   9.751   7.810 -1.7428  0.4006  1.8822
  413MOL0     H56941   3.261   9.738   7.758 -0.5944  1.5501  0.5515
  413MOL0     H56942   3.246   9.575   7.835 -0.6526 -2.0195 -1.3932
  413MOL0     H56943   3.005   9.447   7.730  1.8920  0.6536  0.9674
  413MOL0     H56944   2.978   9.327   7.349 -2.0737  1.6433 -1.9782
  413MOL0     H56945   2.852   9.417   7.414  2.6737  2.8165 -2.5489
  413MOL0     H56946   3.023   9.213   7.567  1.0706  2.4133 -1.3864
  413MOL0     H56947   2.873   9.274   7.639 -3.3187 -1.6445 -1.2414
  413MOL0     H56948   2.906   9.053   7.461  0.1533 -0.6898  1.9517
  413MOL0     H56949   2.816   9.063   7.605 -1.1468 -0.1443 -0.1493
  413MOL0     H56950   2.655   9.222   7.493 -1.2952 -3.2428  2.0187
  413MOL0     H56951   2.754   9.209   7.337 -1.9280 -0.7482 -1.3873
  413MOL0     H56952   2.500   9.267   7.381  1.3882 -1.0865  0.6942
  413MOL0     H56953   2.198   9.350   7.229 -0.2466 -0.5007  2.1236
  413MOL0     H56954   2.322   9.426   7.132 -1.2740  3.4403  2.1433
  413MOL0     H56955   2.339   9.417   7.304  0.4819 -0.8172 -0.0964
  413MOL0     H56956   2.207   9.117   6.719  0.0404  0.0765 -0.8137
  413MOL0     H56957   2.038   9.153   6.562  0.4824  1.0094  0.5072
  413MOL0     H56958   1.655   8.957   6.628  1.2156 -0.1138  0.5305
  413MOL0     H56959   1.597   9.128   6.664  2.0805  0.4173  1.1945
  413MOL0     H56960   1.659   9.071   6.371 -1.6672  0.7925 -1.0830
  413MOL0     H56961   1.510   9.016   6.444 -0.2201 -0.9991  4.9007
  413MOL0     H56962   1.457   9.272   6.490  0.8795 -0.6924  2.3065
  413MOL0     H56963   1.507   9.227   6.320 -2.2298 -0.0523  2.1317
  413MOL0     H56964   1.742   9.287   6.390 -1.6944 -3.2392 -1.2974
  413MOL0     H56965   1.663   9.389   6.512  2.3110 -2.0081  0.6720
  413MOL0     H56966   1.702   9.538   6.334  0.4933 -0.8645  2.4421
  413MOL0     H56967   1.663   9.419   6.217  4.4340  1.8315  1.0096
  413MOL0     H56968   1.467   9.556   6.423 -0.6116 -0.3930  1.2735
  413MOL0     H56969   1.407   9.447   6.310  0.0221  0.4559 -5.0795
  413MOL0     H56970   1.442   9.573   6.120  0.1851 -1.0469  0.2044
  413MOL0     H56971   1.529   9.706   6.215  0.8842 -0.8518  1.1337
  413MOL0     H56972   1.314   9.779   6.166 -0.1304 -0.4464 -0.3391
  413MOL0     H56973   1.308   9.746   6.337  1.6814  0.7164  0.7479
  413MOL0     H56974   1.754   8.959   6.824  1.1197 -1.2456  0.9013
  413MOL0     H56975   1.926   8.911   6.984 -4.0177  1.1822  1.2914
  413MOL0     H56976   2.358   8.903   7.086  1.7787 -0.4584 -0.8614
  413MOL0     H56977   2.535   8.869   7.244  2.5622  0.1145  0.6210
  413MOL0     H56978   3.190   9.261   8.561 -2.3348  1.6459 -1.9582
  413MOL0     H56979   3.271   9.237   8.793 -0.2651  0.3275  0.9749
  413MOL0     H56980   3.441   9.412   9.062  2.3115 -1.1533  1.0294
  413MOL0     H56981   3.582   9.487   9.248 -0.1941  0.6554  1.6899
  413MOL0     H56982   3.728   9.306   9.467  1.2795  0.3067  0.6543
  413MOL0     H56983   3.718   9.462   9.408  0.1318 -2.2159 -0.9377
  413MOL0     H56984   3.716   9.399   9.707 -0.7438 -2.0392 -1.8896
  413MOL0     H56985   3.675   9.557   9.644 -0.3035 -0.3199 -0.7785
  413MOL0     H56986   3.932   9.460   9.710  0.0308  3.2924  1.4275
  413MOL0     H56987   3.932   9.471   9.531  1.7793  0.3166  1.6479
  413MOL0     H56988   4.026   9.674   9.670 -0.7094 -0.9638  2.6711
  413MOL0     H56989   3.868   9.683   9.741  0.2427  2.1153  0.3891
  413MOL0     H56990   3.793   9.838   9.350 -1.7156 -3.1448 -0.8629
  413MOL0     H56991   3.334   9.247   9.514  2.3363 -1.5875  0.4786
  413MOL0     H56992   3.124   9.108   9.285  1.6554 -0.7017  0.0978
  413MOL0     H56993   3.150   9.155   9.454  0.7441 -1.1118 -0.4601
  413MOL0     H56994   3.079   9.281   9.347  2.1617  1.6250 -0.6695
  414MOL0     O56995   3.914   1.981   5.921 -0.6157 -0.0950  0.3263
  414MOL0     C56996   3.996   1.894   5.898  0.7250  0.4644  0.2360
  414MOL0     O56997   4.078   1.890   5.789 -0.3099 -0.3208 -0.0130
  414MOL0     C56998   4.110   1.772   5.727  0.4550  0.3335  0.0978
  414MOL0     C56999   4.231   1.788   5.652  0.2494  0.9769 -0.8864
  414MOL0     C57000   4.272   1.682   5.578  0.4348 -0.2927  0.3063
  414MOL0     C57001   4.204   1.563   5.580 -0.3322 -0.2893  0.6746
  414MOL0     O57002   4.259   1.464   5.509 -0.2722  0.5280 -0.4730
  414MOL0     C57003   4.203   1.329   5.498  0.2363  0.4106  0.1025
  414MOL0     C57004   4.299   1.273   5.389  0.2306 -0.3250 -0.1545
  414MOL0     C57005   4.428   1.228   5.452  0.0200  0.7655 -0.1016
  414MOL0     C57006   4.534   1.347   5.472  0.7211  0.1045  0.7508
  414MOL0     C57007   4.677   1.296   5.468 -0.1030 -0.2828 -0.2542
  414MOL0     C57008   4.773   1.419   5.451 -0.5451  0.8991 -0.1135
  414MOL0     C57009   4.925   1.365   5.453  0.1875 -0.3168 -0.4228
  414MOL0     C57010   4.949   1.270   5.570 -0.3747 -0.3413  0.1885
  414MOL0     N57011   5.086   1.275   5.632 -0.1002  0.6603  0.2924
  414MOL0     C57012   5.204   1.305   5.569  0.0460  0.0428 -0.1829
  414MOL0     C57013   5.289   1.263   5.666 -1.1199 -0.4630 -0.3602
  414MOL0     C57014   5.442   1.256   5.635  0.6422  0.6956 -1.0225
  414MOL0     C57015   5.528   1.142   5.712  0.2443 -0.3815  0.7775
  414MOL0     C57016   5.663   1.123   5.630  0.2689  0.1060 -0.6576
  414MOL0     C57017   5.728   1.004   5.691 -0.4554 -0.0661  0.4760
  414MOL0     O57018   5.861   0.990   5.632  0.4967  0.3526 -0.1739
  414MOL0     C57019   5.962   0.935   5.708  0.2460 -0.4514 -0.4485
  414MOL0     C57020   6.094   0.977   5.676  0.1129  0.1335 -0.5253
  414MOL0     C57021   6.208   0.943   5.756 -0.6451 -0.7846 -0.3687
  414MOL0     C57022   6.336   1.019   5.721 -0.1132  0.8990 -0.1109
  414MOL0     C57023   6.189   0.853   5.858 -0.2295  0.2797  0.2878
  414MOL0     C57024   6.294   0.806   5.950 -0.6593 -0.6181 -0.1174
  414MOL0     O57025   6.258   0.748   6.070 -0.8581 -0.3679  0.8691
  414MOL0     C57026   6.346   0.694   6.153  0.3679 -0.5602  0.2642
  414MOL0     C57027   6.427   0.588   6.120  0.6133  1.0069  0.2745
  414MOL0     C57028   6.497   0.510   6.209 -0.5146 -1.1273  0.5417
  414MOL0     C57029   6.486   0.536   6.347 -0.0139 -0.4183  1.0541
  414MOL0     O57030   6.573   0.471   6.428  0.4076 -0.2120 -0.4566
  414MOL0     C57031   6.602   0.539   6.561  0.0200  0.2744  1.3357
  414MOL0     C57032   6.698   0.659   6.546  0.5182  0.6756 -0.4243
  414MOL0     C57033   6.837   0.612   6.508 -0.0813  0.3589 -0.3517
  414MOL0     C57034   6.953   0.713   6.554  0.4915  0.1705  0.0847
  414MOL0     C57035   7.085   0.675   6.478 -0.4240 -0.3958  0.2482
  414MOL0     C57036   7.202   0.741   6.540 -0.0752  0.0177  0.2266
  414MOL0     C57037   7.331   0.699   6.466 -0.7866  0.0412 -0.5181
  414MOL0     C57038   7.359   0.757   6.329 -0.3265 -0.7007  0.4113
  414MOL0    Cl57039   7.385   0.931   6.347 -0.0101  0.1980  0.3763
  414MOL0     C57040   6.396   0.641   6.381 -0.7841 -0.0363  0.7438
  414MOL0     C57041   6.329   0.724   6.289 -0.5231  0.9531 -0.2208
  414MOL0     O57042   6.405   0.812   5.906  0.0900  0.1821  0.4898
  414MOL0     C57043   6.059   0.815   5.896 -0.3823 -0.1243 -0.3485
  414MOL0     C57044   5.953   0.840   5.809  0.7963 -0.4298  0.9859
  414MOL0     N57045   5.235   1.200   5.776  0.3502 -0.6197  0.1740
  414MOL0     N57046   5.109   1.210   5.755  0.0047 -0.4612  0.3549
  414MOL0     C57047   4.082   1.549   5.650 -0.0819  0.5865  0.7715
  414MOL0     C57048   4.033   1.656   5.716 -0.5057  0.9175 -0.6108
  414MOL0     C57049   4.021   1.786   5.996  0.1948  0.9949  0.5247
  414MOL0     C57050   4.154   1.734   6.006 -0.0597  0.0686 -1.1258
  414MOL0     C57051   4.185   1.635   6.104  0.0536  0.4597 -0.5541
  414MOL0     C57052   4.077   1.580   6.170  0.2431 -0.4378  0.7596
  414MOL0     O57053   4.099   1.471   6.246 -0.7645 -1.1775 -0.7127
  414MOL0     C57054   4.105   1.348   6.167 -0.1172  0.3601 -0.1131
  414MOL0     C57055   4.240   1.296   6.134  0.2596  0.1862 -0.2281
  414MOL0     C57056   4.220   1.183   6.017  0.0951  0.2405  0.0828
  414MOL0     C57057   4.357   1.111   5.978 -0.5782 -0.3298 -0.2848
  414MOL0     C57058   4.458   1.205   5.927  0.3834 -1.3576 -0.4610
  414MOL0     C57059   4.522   1.295   5.870 -0.4023  0.6955 -0.0391
  414MOL0     C57060   3.950   1.627   6.158  0.1869  0.1692  0.0641
  414MOL0     C57061   3.916   1.729   6.072 -0.2304  0.2204 -0.6061
  414MOL0     C57062   3.774   1.767   6.062 -0.1237 -0.3264 -0.5716
  414MOL0     H57063   4.290   1.878   5.671  0.3176  1.0716 -1.5238
  414MOL0     H57064   4.367   1.699   5.528  0.0144 -0.7139 -0.6493
  414MOL0     H57065   4.106   1.342   5.449  0.1272  2.0848  0.6876
  414MOL0     H57066   4.208   1.270   5.590 -0.5603  2.4795  1.5402
  414MOL0     H57067   4.255   1.184   5.344 -4.1717  1.6110 -0.1467
  414MOL0     H57068   4.322   1.351   5.316 -0.0011  1.4868  1.6205
  414MOL0     H57069   4.417   1.180   5.549  2.8200 -0.7496 -0.4093
  414MOL0     H57070   4.478   1.155   5.387  1.0564  0.5971  0.8365
  414MOL0     H57071   4.514   1.420   5.393 -1.3902  0.9692  1.9963
  414MOL0     H57072   4.521   1.411   5.560 -1.0147 -0.4863  0.9588
  414MOL0     H57073   4.695   1.229   5.383  3.5073 -1.7474  1.4596
  414MOL0     H57074   4.681   1.238   5.561  0.8527 -0.5374 -0.4396
  414MOL0     H57075   4.760   1.473   5.357  2.6573 -0.1583 -1.2731
  414MOL0     H57076   4.761   1.488   5.535  0.1448 -1.6069  2.1862
  414MOL0     H57077   5.000   1.445   5.458 -1.8316  1.7441 -1.0159
  414MOL0     H57078   4.956   1.323   5.357  1.2493  1.3332 -0.8511
  414MOL0     H57079   4.863   1.275   5.638 -1.2428  1.7395 -0.9756
  414MOL0     H57080   4.936   1.175   5.519 -0.3638 -0.2154 -0.0485
  414MOL0     H57081   5.241   1.343   5.474 -1.1387 -0.8564 -1.0376
  414MOL0     H57082   5.485   1.343   5.687 -0.9116 -0.2899  2.1438
  414MOL0     H57083   5.449   1.265   5.526 -0.9507  1.2648 -1.1051
  414MOL0     H57084   5.544   1.170   5.816 -4.8796 -0.3227  1.8324
  414MOL0     H57085   5.469   1.050   5.702  0.5901 -0.5056 -0.1944
  414MOL0     H57086   5.643   1.094   5.527 -1.6314  0.6450 -0.4757
  414MOL0     H57087   5.739   1.202   5.636  2.0153 -1.5861  0.7189
  414MOL0     H57088   5.738   1.021   5.799  1.7200  0.7244  0.2020
  414MOL0     H57089   5.668   0.913   5.682 -1.4821  0.5946  0.4896
  414MOL0     H57090   6.101   1.064   5.612  1.5569 -1.0670 -2.0712
  414MOL0     H57091   6.313   1.124   5.701  2.8558  1.5513 -0.6229
  414MOL0     H57092   6.389   0.991   5.629  2.7050 -0.0458  1.6464
  414MOL0     H57093   6.424   1.008   5.785 -0.0838 -3.4380 -0.5998
  414MOL0     H57094   6.425   0.555   6.016  3.4048 -0.6339  0.6193
  414MOL0     H57095   6.563   0.427   6.185  0.5079 -0.0921 -0.3202
  414MOL0     H57096   6.508   0.574   6.603 -1.1077 -2.8866  1.6568
  414MOL0     H57097   6.641   0.467   6.633  0.5053  0.7521  1.5613
  414MOL0     H57098   6.670   0.732   6.469 -0.0058  4.4380  2.9863
  414MOL0     H57099   6.703   0.720   6.637 -0.5354 -1.2676  1.0143
  414MOL0     H57100   6.852   0.602   6.400 -1.2447 -1.1318 -0.4015
  414MOL0     H57101   6.863   0.510   6.539  2.0130  0.4299 -1.7026
  414MOL0     H57102   6.964   0.685   6.659 -2.5024  0.7165  0.6158
  414MOL0     H57103   6.922   0.815   6.532 -2.5768 -0.5976  0.4079
  414MOL0     H57104   7.094   0.566   6.481  0.4375 -0.3986 -1.4271
  414MOL0     H57105   7.071   0.707   6.375  0.7672  0.7484  0.4169
  414MOL0     H57106   7.216   0.718   6.646 -2.2588  0.6608  0.7088
  414MOL0     H57107   7.192   0.850   6.533  0.5945 -0.0056 -1.6178
  414MOL0     H57108   7.325   0.591   6.451 -3.1222 -0.3628  2.3755
  414MOL0     H57109   7.417   0.712   6.532 -0.9632 -2.3690  0.2677
  414MOL0     H57110   7.274   0.738   6.263  0.4271 -3.4345  0.1096
  414MOL0     H57111   7.447   0.711   6.281 -0.8067 -0.7768 -0.4237
  414MOL0     H57112   6.363   0.672   6.479 -2.2532  2.1902 -0.3634
  414MOL0     H57113   6.265   0.803   6.328 -1.7888  0.4155 -1.1504
  414MOL0     H57114   6.047   0.753   5.985 -1.7731  1.4847  0.6435
  414MOL0     H57115   5.853   0.804   5.828 -0.4592  1.0805 -2.0432
  414MOL0     H57116   4.021   1.459   5.654 -2.6479  2.2713  1.3793
  414MOL0     H57117   3.934   1.632   5.752  0.4002 -0.7019  0.9357
  414MOL0     H57118   4.238   1.779   5.954  0.1530  2.7934  1.2774
  414MOL0     H57119   4.285   1.597   6.119  0.3403  1.5409  0.4339
  414MOL0     H57120   4.055   1.268   6.223 -1.0921  1.0407  0.0202
  414MOL0     H57121   4.044   1.343   6.076  0.1275 -0.7594 -0.2376
  414MOL0     H57122   4.288   1.257   6.224 -0.1991  0.9887  0.3742
  414MOL0     H57123   4.305   1.380   6.107 -0.2132  0.3218 -0.9748
  414MOL0     H57124   4.139   1.112   6.035 -0.7377  0.3316 -2.8818
  414MOL0     H57125   4.180   1.241   5.934  0.7133  1.2456  0.4648
  414MOL0     H57126   4.332   1.047   5.893 -2.2628  1.5604 -1.3189
  414MOL0     H57127   4.389   1.055   6.065 -0.4649  0.5741  0.2676
  414MOL0     H57128   4.568   1.385   5.835  0.1815  0.9169  1.2430
  414MOL0     H57129   3.891   1.566   6.225  1.7585 -1.2319  0.2303
  414MOL0     H57130   3.746   1.801   5.962  2.4837  0.9345 -0.9683
  414MOL0     H57131   3.701   1.694   6.100  0.8402 -0.8360  0.3663
  414MOL0     H57132   3.771   1.857   6.123  1.4443 -0.7374  0.1850
  415MOL0     O57133   6.669   5.843   6.680  0.2386  0.3816 -0.8627
  415MOL0     C57134   6.728   5.784   6.768 -0.2224  1.3275 -0.0430
  415MOL0     O57135   6.862   5.796   6.790 -0.1588  0.1035 -0.3292
  415MOL0     C57136   6.933   5.841   6.685  0.1073 -0.2380 -0.3265
  415MOL0     C57137   7.027   5.756   6.635 -0.0182  0.3974 -0.1814
  415MOL0     C57138   7.115   5.793   6.537 -0.7113 -0.6499 -0.3443
  415MOL0     C57139   7.103   5.917   6.472  0.0147 -0.0103 -0.8166
  415MOL0     O57140   7.186   5.971   6.374 -0.3596  0.4811 -0.0983
  415MOL0     C57141   7.279   5.875   6.317 -1.1598  0.1349 -0.9010
  415MOL0     C57142   7.337   5.929   6.175 -0.7741  0.0925 -0.0940
  415MOL0     C57143   7.419   6.058   6.208  0.6713 -0.4908 -0.4049
  415MOL0     C57144   7.492   6.118   6.086  0.5246  0.0629  0.5836
  415MOL0     C57145   7.585   6.233   6.123  0.2665 -0.2725  0.1795
  415MOL0     C57146   7.692   6.281   6.028 -0.0624  0.3516 -0.5885
  415MOL0     C57147   7.654   6.283   5.881  0.4675  0.1560  0.6020
  415MOL0     C57148   7.525   6.360   5.842 -0.2277  0.7417 -0.3337
  415MOL0     N57149   7.533   6.505   5.843 -0.5996 -0.3839 -0.1039
  415MOL0     C57150   7.505   6.584   5.951 -0.1142 -0.3437 -0.1195
  415MOL0     C57151   7.538   6.701   5.913 -0.0948 -0.3477  0.2161
  415MOL0     C57152   7.512   6.824   5.993 -0.0072  0.3461  0.1329
  415MOL0     C57153   7.625   6.922   5.994 -0.3997 -0.4539 -0.0505
  415MOL0     C57154   7.637   7.018   5.867  0.2080 -0.7020  0.8228
  415MOL0     C57155   7.749   7.118   5.887  0.4017 -1.0213  0.4593
  415MOL0     O57156   7.756   7.191   5.759  0.2304  0.6779  0.3480
  415MOL0     C57157   7.872   7.258   5.737 -0.3352 -1.0068 -0.0873
  415MOL0     C57158   7.867   7.391   5.762 -0.0757 -0.2743  0.3438
  415MOL0     C57159   7.989   7.466   5.765  0.2539  0.0143 -0.5094
  415MOL0     C57160   7.978   7.610   5.810  0.6361  0.1797  0.5370
  415MOL0     C57161   8.116   7.412   5.736 -0.2912  1.1298 -0.2158
  415MOL0     C57162   8.251   7.475   5.756 -0.0009  0.7080 -0.2156
  415MOL0     O57163   8.276   7.602   5.720 -0.0112  0.5541  0.1596
  415MOL0     C57164   8.397   7.658   5.726  0.4635 -0.5981  0.2168
  415MOL0     C57165   8.484   7.659   5.612  0.3601  0.3289 -0.0110
  415MOL0     C57166   8.602   7.738   5.613  0.3198  0.1111 -0.5688
  415MOL0     C57167   8.632   7.810   5.733 -0.2083 -0.2315  1.0159
  415MOL0     O57168   8.746   7.892   5.741  0.2860  0.1218  0.5513
  415MOL0     C57169   8.816   7.930   5.629 -0.6600  0.3333 -0.6034
  415MOL0     C57170   8.922   7.824   5.596  0.4213 -0.3046 -0.9416
  415MOL0     C57171   8.978   7.868   5.464 -0.3352 -0.6315  0.3624
  415MOL0     C57172   9.071   7.772   5.400 -0.0649 -0.3337 -0.6445
  415MOL0     C57173   9.127   7.798   5.261 -0.2607 -0.7097 -0.1910
  415MOL0     C57174   9.206   7.935   5.242 -0.0752  0.3868  0.4387
  415MOL0     C57175   9.258   7.953   5.090 -0.1592 -0.2759 -0.2450
  415MOL0     C57176   9.136   8.011   5.009  0.1152  1.2752 -1.0028
  415MOL0    Cl57177   9.208   8.045   4.856  0.3977 -0.0809  0.0154
  415MOL0     C57178   8.544   7.808   5.849 -0.1343 -0.0263 -0.3399
  415MOL0     C57179   8.430   7.738   5.835 -0.7653  0.5640 -0.7397
  415MOL0     O57180   8.333   7.406   5.811 -0.5962 -0.8812  0.5147
  415MOL0     C57181   8.119   7.272   5.701  0.3182 -0.2173 -0.4442
  415MOL0     C57182   8.001   7.202   5.721  0.2312 -0.0423  0.4436
  415MOL0     N57183   7.587   6.696   5.788 -0.5320 -0.1376 -0.8736
  415MOL0     N57184   7.576   6.580   5.739  0.0345 -0.4081  0.1149
  415MOL0     C57185   7.003   6.008   6.523 -0.2187  0.9583 -1.0685
  415MOL0     C57186   6.917   5.973   6.626  0.4357 -0.0408  0.9987
  415MOL0     C57187   6.651   5.717   6.875  0.1058 -1.0260 -0.0801
  415MOL0     C57188   6.720   5.681   6.992  0.8973 -0.5307 -0.4190
  415MOL0     C57189   6.648   5.639   7.101 -0.1250  0.1089 -0.6194
  415MOL0     C57190   6.508   5.612   7.102  0.6256  0.0735 -0.3225
  415MOL0     O57191   6.422   5.562   7.195 -0.1226  0.2586 -0.6579
  415MOL0     C57192   6.480   5.522   7.320  0.3020  0.5076  0.2438
  415MOL0     C57193   6.363   5.483   7.423 -0.3799 -0.8265  0.8285
  415MOL0     C57194   6.297   5.612   7.471 -0.0827 -0.0068 -0.0502
  415MOL0     C57195   6.224   5.586   7.603 -0.1367 -0.1816  0.0505
  415MOL0     C57196   6.309   5.583   7.724 -1.3096 -0.2605  0.5717
  415MOL0     C57197   6.368   5.564   7.826  0.0767 -0.2801 -0.3135
  415MOL0     C57198   6.445   5.639   6.985  0.1117  0.0884  0.1969
  415MOL0     C57199   6.511   5.697   6.872 -0.4007  0.8667 -0.2639
  415MOL0     C57200   6.420   5.734   6.756  0.1205  0.9162  0.4052
  415MOL0     H57201   7.042   5.659   6.681  0.1697  1.5860  2.4738
  415MOL0     H57202   7.189   5.718   6.508  0.6895 -0.0015  1.3498
  415MOL0     H57203   7.213   5.796   6.280 -0.7942 -0.3761 -0.4770
  415MOL0     H57204   7.353   5.820   6.376 -1.4258 -0.6074 -1.2503
  415MOL0     H57205   7.405   5.862   6.123 -0.7599  1.4268 -1.9151
  415MOL0     H57206   7.253   5.952   6.109  1.1142  0.8251 -2.3755
  415MOL0     H57207   7.343   6.131   6.237  1.9613  0.4960  0.5822
  415MOL0     H57208   7.488   6.057   6.292  1.0866  0.1199 -0.7268
  415MOL0     H57209   7.552   6.044   6.032 -0.4170  0.3178 -0.8944
  415MOL0     H57210   7.418   6.145   6.010  1.5483 -3.5475 -1.9621
  415MOL0     H57211   7.636   6.200   6.214 -2.7752  0.9600  2.5005
  415MOL0     H57212   7.516   6.314   6.149  1.4190  0.7696  0.1006
  415MOL0     H57213   7.719   6.386   6.044  0.0008  0.1913  0.3995
  415MOL0     H57214   7.779   6.218   6.048 -2.6144 -3.0909  0.5660
  415MOL0     H57215   7.650   6.180   5.842 -1.9114 -0.3842  2.0739
  415MOL0     H57216   7.731   6.335   5.823  1.3250 -0.3881  1.2373
  415MOL0     H57217   7.506   6.328   5.739  0.5338 -2.9926  0.5364
  415MOL0     H57218   7.449   6.329   5.914  1.1206  0.7894  1.1657
  415MOL0     H57219   7.456   6.561   6.045 -2.9920  1.0549 -1.1433
  415MOL0     H57220   7.497   6.794   6.097  2.0338  0.1236  0.4162
  415MOL0     H57221   7.431   6.880   5.947  0.3091  2.1871  1.7061
  415MOL0     H57222   7.612   6.991   6.078 -0.9069  1.2819 -1.4837
  415MOL0     H57223   7.715   6.860   6.004 -1.0714 -1.0457  4.2547
  415MOL0     H57224   7.655   6.952   5.782 -1.6316 -2.6434  1.8474
  415MOL0     H57225   7.541   7.070   5.856  1.4035  2.1091  2.3618
  415MOL0     H57226   7.708   7.196   5.952 -2.1045 -1.7069 -0.1790
  415MOL0     H57227   7.847   7.085   5.922  0.8800 -2.0673 -1.7328
  415MOL0     H57228   7.778   7.449   5.784  1.6908  2.1219  1.7407
  415MOL0     H57229   7.889   7.633   5.870  0.8930  0.5226  0.7856
  415MOL0     H57230   7.964   7.674   5.723 -2.6404  0.0920  0.8476
  415MOL0     H57231   8.068   7.639   5.865  0.6211  1.4561 -0.0774
  415MOL0     H57232   8.446   7.607   5.525  0.7187  0.7931 -0.4512
  415MOL0     H57233   8.654   7.742   5.518 -1.2856  0.8717 -1.4476
  415MOL0     H57234   8.744   7.936   5.546  1.6725  1.5110 -2.6662
  415MOL0     H57235   8.857   8.031   5.642  0.2152 -0.0630 -0.2371
  415MOL0     H57236   9.002   7.819   5.671  0.3043 -1.8760 -0.8694
  415MOL0     H57237   8.884   7.724   5.573 -0.4207  0.1470 -1.5564
  415MOL0     H57238   9.038   7.959   5.472 -0.4011 -0.6503  1.0975
  415MOL0     H57239   8.892   7.879   5.398  0.7749 -5.7022 -2.4846
  415MOL0     H57240   9.027   7.672   5.406  0.5987 -0.5578  0.9300
  415MOL0     H57241   9.165   7.768   5.456 -0.7683 -2.3596  0.4889
  415MOL0     H57242   9.194   7.714   5.242  0.9792  0.0405  0.7104
  415MOL0     H57243   9.040   7.792   5.194 -3.4504 -4.1169  3.6722
  415MOL0     H57244   9.287   7.950   5.314 -0.9980  3.4024  0.9517
  415MOL0     H57245   9.130   8.011   5.257  1.0548  1.1879  2.5083
  415MOL0     H57246   9.278   7.849   5.063 -0.7268 -0.7925  1.2210
  415MOL0     H57247   9.341   8.024   5.084 -0.1609 -0.0328  1.9317
  415MOL0     H57248   9.108   8.113   5.038 -1.9563  0.4838 -0.0363
  415MOL0     H57249   9.049   7.947   5.001  1.4637 -1.0570  1.4874
  415MOL0     H57250   8.592   7.868   5.925 -0.2528  2.4203 -2.0604
  415MOL0     H57251   8.365   7.735   5.923  0.6639  1.8353  0.4312
  415MOL0     H57252   8.202   7.216   5.659  1.7318  1.3997  0.0671
  415MOL0     H57253   8.007   7.095   5.701  0.3207 -1.3422  5.8529
  415MOL0     H57254   6.982   6.105   6.477 -2.9754  0.9982  0.0937
  415MOL0     H57255   6.846   6.033   6.682 -1.0384 -1.7085  1.0011
  415MOL0     H57256   6.828   5.672   7.005  0.8545 -5.8521 -1.4565
  415MOL0     H57257   6.696   5.610   7.194  1.2245  1.2801 -0.9227
  415MOL0     H57258   6.549   5.439   7.300  2.0725  2.4430 -2.2035
  415MOL0     H57259   6.537   5.597   7.374  0.7328 -0.6807  1.5193
  415MOL0     H57260   6.404   5.418   7.501  0.7834  0.2438  1.1389
  415MOL0     H57261   6.284   5.430   7.370  0.4642  0.4912 -1.9509
  415MOL0     H57262   6.364   5.697   7.478  1.6133 -1.4013  1.8113
  415MOL0     H57263   6.213   5.629   7.403  0.2765 -1.0065 -0.7758
  415MOL0     H57264   6.173   5.491   7.585 -0.8306  0.1372  0.2947
  415MOL0     H57265   6.148   5.664   7.603  0.7475  0.7961 -2.5807
  415MOL0     H57266   6.400   5.525   7.921  1.9902  2.4159  0.2720
  415MOL0     H57267   6.341   5.612   6.966  0.6878 -0.4371 -2.6165
  415MOL0     H57268   6.464   5.690   6.666  0.1979  0.0074  0.8750
  415MOL0     H57269   6.318   5.698   6.772  0.4695 -0.4509 -0.3046
  415MOL0     H57270   6.397   5.840   6.744 -0.6328  0.6132 -1.1558
  416MOL0     O57271   9.537   4.476  10.623 -0.4101  0.9260 -0.2843
  416MOL0     C57272   9.455   4.548  10.681  0.2564 -0.5566  0.2580
  416MOL0     O57273   9.469   4.659  10.746  0.4222  0.0510  0.0147
  416MOL0     C57274   9.589   4.728  10.747 -0.1537  0.5227 -0.4815
  416MOL0     C57275   9.595   4.859  10.755 -0.3125 -0.8068  0.4277
  416MOL0     C57276   9.715   4.927  10.769  0.1558 -0.4503  0.2746
  416MOL0     C57277   9.842   4.868  10.775 -0.0273  0.1721 -1.0718
  416MOL0     O57278   9.967   4.925  10.786  0.0429 -0.5023 -0.9129
  416MOL0     C57279   9.979   5.058  10.746 -0.0611  0.2194 -0.2109
  416MOL0     C57280  10.118   5.067  10.676  0.9759  0.4739  0.8124
  416MOL0     C57281  10.125   5.195  10.611 -0.3470 -0.1577 -0.2583
  416MOL0     C57282  10.250   5.218  10.531  0.5842  0.5560 -0.7131
  416MOL0     C57283  10.215   5.351  10.456 -0.6028 -1.8082  0.3085
  416MOL0     C57284  10.312   5.381  10.342  0.3628 -0.1430 -0.1575
  416MOL0     C57285  10.416   5.492  10.372  0.0233 -1.1529  0.2596
  416MOL0     C57286  10.527   5.444  10.461 -0.0139 -0.5429 -0.1476
  416MOL0     N57287  10.643   5.534  10.484  0.2531  0.7512 -0.2450
  416MOL0     C57288  10.660   5.619  10.596 -0.6000  0.5534  0.9096
  416MOL0     C57289  10.777   5.682  10.576 -0.5751 -0.0023  1.0160
  416MOL0     C57290  10.857   5.746  10.684 -0.2213 -0.0327  0.0327
  416MOL0     C57291  10.805   5.888  10.740 -0.7231  0.5298  0.1590
  416MOL0     C57292  10.909   5.970  10.817 -0.0335 -0.4505  0.2380
  416MOL0     C57293  10.966   5.901  10.944  0.6387  0.9247 -0.4263
  416MOL0     O57294  11.033   5.995  11.023 -0.1711 -0.3987 -0.4817
  416MOL0     C57295  11.110   5.940  11.124  0.8151 -0.0432 -0.2808
  416MOL0     C57296  11.106   5.807  11.181 -1.0262  0.3781 -0.4684
  416MOL0     C57297  11.207   5.758  11.266  0.0827  0.8035 -0.1535
  416MOL0     C57298  11.189   5.614  11.331 -0.1094  0.0311  1.6649
  416MOL0     C57299  11.318   5.841  11.308 -0.0858 -0.8093  0.6691
  416MOL0     C57300  11.426   5.808  11.407  0.3005 -0.5666 -0.4631
  416MOL0     O57301  11.499   5.922  11.446  0.4705  0.6445  0.7726
  416MOL0     C57302  11.587   5.895  11.541  0.3904 -0.0302  0.1913
  416MOL0     C57303  11.556   5.918  11.677 -0.8756 -0.5688 -0.7953
  416MOL0     C57304  11.662   5.909  11.777 -0.4959 -0.1933  0.0683
  416MOL0     C57305  11.786   5.849  11.738  0.1753  0.2475 -0.5180
  416MOL0     O57306  11.882   5.832  11.832 -0.3670  0.4635  0.8373
  416MOL0     C57307  12.014   5.881  11.787  0.2980  0.2992  0.2139
  416MOL0     C57308  12.070   5.935  11.912  0.4064 -0.5091 -1.0254
  416MOL0     C57309  12.002   6.071  11.963  0.0209 -0.6709 -0.2835
  416MOL0     C57310  11.982   6.176  11.855 -0.1755  0.6047 -0.0417
  416MOL0     C57311  11.956   6.317  11.918  0.2528  0.0655  0.6742
  416MOL0     C57312  11.855   6.326  12.037  0.1415 -0.6773  0.2543
  416MOL0     C57313  11.706   6.300  11.995 -0.3526 -0.3298  0.3437
  416MOL0     C57314  11.648   6.406  11.902  0.2397  1.1663  0.0711
  416MOL0    Cl57315  11.632   6.554  11.985  0.1972 -0.4880  0.0271
  416MOL0     C57316  11.804   5.815  11.603 -0.4011 -0.1703  0.1282
  416MOL0     C57317  11.712   5.847  11.508  1.0108 -0.5249 -0.0511
  416MOL0     O57318  11.452   5.690  11.436  0.8844 -1.2892  0.1223
  416MOL0     C57319  11.310   5.968  11.246 -0.4057  0.2412  0.2640
  416MOL0     C57320  11.218   6.016  11.161  0.5478  0.2369 -0.0775
  416MOL0     N57321  10.831   5.628  10.459  0.1282 -1.1691  0.4879
  416MOL0     N57322  10.749   5.549  10.396  0.6287 -0.0819  0.2910
  416MOL0     C57323   9.841   4.728  10.773  0.0990  0.7447 -0.4548
  416MOL0     C57324   9.718   4.659  10.762 -0.2019  1.2474  0.8430
  416MOL0     C57325   9.315   4.512  10.669  0.5724 -0.5340 -0.1152
  416MOL0     C57326   9.289   4.401  10.592  0.0995  0.5276  0.0007
  416MOL0     C57327   9.156   4.360  10.563  0.5562  0.9013 -0.0855
  416MOL0     C57328   9.045   4.428  10.617 -0.7891  0.3955 -0.6732
  416MOL0     O57329   8.912   4.407  10.590 -0.5482 -0.0854 -0.0780
  416MOL0     C57330   8.876   4.317  10.492 -0.0820 -0.1150 -0.2181
  416MOL0     C57331   8.881   4.374  10.351  1.5921  0.5491 -0.0923
  416MOL0     C57332   8.813   4.289  10.239  0.3439 -0.1172 -0.4201
  416MOL0     C57333   8.658   4.315  10.226  0.4556  0.2743  0.4170
  416MOL0     C57334   8.607   4.239  10.108  0.2791 -0.0847 -0.0531
  416MOL0     C57335   8.557   4.166  10.027 -0.0544  0.3392 -0.6603
  416MOL0     C57336   9.080   4.531  10.694 -1.1072  0.0442  0.4253
  416MOL0     C57337   9.206   4.576  10.728  0.6408 -0.5086 -0.8617
  416MOL0     C57338   9.209   4.692  10.836 -0.4557  1.1467  0.3702
  416MOL0     H57339   9.507   4.921  10.740  1.9780  2.1215 -2.0430
  416MOL0     H57340   9.713   5.036  10.777  1.4577 -0.5273  2.2328
  416MOL0     H57341   9.979   5.129  10.829 -1.2219  0.3213 -0.2817
  416MOL0     H57342   9.895   5.091  10.684 -1.2881 -0.4970  1.0209
  416MOL0     H57343  10.203   5.048  10.742 -0.2333 -0.3013  2.2430
  416MOL0     H57344  10.118   4.996  10.593  3.0511  0.8853  0.4259
  416MOL0     H57345  10.034   5.208  10.551 -1.8784  0.2427  2.0500
  416MOL0     H57346  10.113   5.276  10.683 -1.4903  1.8823 -2.5909
  416MOL0     H57347  10.331   5.228  10.604 -1.1386 -0.6586  1.4940
  416MOL0     H57348  10.263   5.134  10.463  0.0670 -0.7983  0.7892
  416MOL0     H57349  10.206   5.434  10.527  1.7956 -1.3597  0.1569
  416MOL0     H57350  10.121   5.341  10.401  0.4245  0.5801 -2.0733
  416MOL0     H57351  10.362   5.289  10.309 -0.3053  0.7696 -4.3201
  416MOL0     H57352  10.249   5.408  10.256  2.8794  1.1453 -1.7479
  416MOL0     H57353  10.374   5.584  10.414 -0.0958 -0.1573 -1.8876
  416MOL0     H57354  10.452   5.513  10.271  1.5684 -0.0261  1.0110
  416MOL0     H57355  10.480   5.431  10.559 -1.9570  1.5025 -0.7128
  416MOL0     H57356  10.574   5.348  10.437  1.0490 -0.3364  1.0357
  416MOL0     H57357  10.604   5.635  10.688 -2.9483  0.8438 -0.4822
  416MOL0     H57358  10.962   5.754  10.657  0.2752  2.7792  2.3159
  416MOL0     H57359  10.856   5.669  10.762  0.8031 -1.5981 -1.4344
  416MOL0     H57360  10.771   5.947  10.654 -0.3499  1.3311  0.5496
  416MOL0     H57361  10.717   5.877  10.805 -0.0861 -0.8221  0.8424
  416MOL0     H57362  10.994   5.996  10.753 -1.9844  1.5682 -1.7161
  416MOL0     H57363  10.862   6.061  10.853  3.4733  1.5579  0.1674
  416MOL0     H57364  10.885   5.870  11.011  1.0037  1.4465  0.2732
  416MOL0     H57365  11.032   5.819  10.917 -0.6489  0.3604 -2.0335
  416MOL0     H57366  11.034   5.729  11.158  0.4554 -0.7317 -1.5270
  416MOL0     H57367  11.102   5.580  11.275  1.5055 -0.5592 -0.6647
  416MOL0     H57368  11.175   5.616  11.439 -4.6760  1.9581  1.2763
  416MOL0     H57369  11.268   5.547  11.294 -1.4634 -0.7414  0.0613
  416MOL0     H57370  11.457   5.949  11.707  0.9724  3.5471  2.0257
  416MOL0     H57371  11.651   5.927  11.883  0.8362 -1.4419  0.4447
  416MOL0     H57372  12.067   5.795  11.745  1.1078 -1.0242  3.6337
  416MOL0     H57373  12.006   5.955  11.707 -0.9023  0.0144  0.0421
  416MOL0     H57374  12.060   5.861  11.992  0.2924 -0.9827 -1.4756
  416MOL0     H57375  12.177   5.955  11.902  0.5236 -1.1279 -1.0311
  416MOL0     H57376  12.065   6.127  12.033 -0.8712  1.6066 -1.2088
  416MOL0     H57377  11.904   6.052  12.008 -2.3291 -0.1929 -4.6722
  416MOL0     H57378  11.897   6.149  11.792 -0.0079 -0.1191  0.0271
  416MOL0     H57379  12.074   6.184  11.796 -0.4572 -2.0591 -0.9656
  416MOL0     H57380  12.047   6.375  11.939 -1.3845  2.6739  1.0629
  416MOL0     H57381  11.918   6.377  11.834  1.7172  0.3308  0.1699
  416MOL0     H57382  11.858   6.428  12.075  1.9789 -1.0255  1.1577
  416MOL0     H57383  11.884   6.261  12.121 -1.6843 -0.8762  0.7802
  416MOL0     H57384  11.637   6.299  12.080 -2.5112  3.0417 -1.1700
  416MOL0     H57385  11.692   6.206  11.941 -3.5019  0.7636 -1.0264
  416MOL0     H57386  11.545   6.377  11.879  0.5841 -1.9179  1.8421
  416MOL0     H57387  11.697   6.414  11.805  0.1901  1.4028  0.0660
  416MOL0     H57388  11.887   5.755  11.569 -2.5266 -2.3374 -1.6362
  416MOL0     H57389  11.715   5.819  11.403 -3.0784 -1.5262 -0.0724
  416MOL0     H57390  11.384   6.043  11.272 -1.8668  1.6059  0.6102
  416MOL0     H57391  11.241   6.116  11.124 -1.2488  0.0576 -1.8925
  416MOL0     H57392   9.936   4.675  10.782 -0.6176 -0.8826 -1.9767
  416MOL0     H57393   9.717   4.551  10.768 -0.1991  1.1412 -0.6789
  416MOL0     H57394   9.362   4.335  10.548  0.6276  0.6484  0.6791
  416MOL0     H57395   9.136   4.272  10.502 -1.3184  0.8382  0.5581
  416MOL0     H57396   8.939   4.227  10.491  4.6421  2.8573 -1.8937
  416MOL0     H57397   8.773   4.284  10.507  0.3455 -1.9328 -0.9704
  416MOL0     H57398   8.984   4.398  10.322  1.6432 -0.2997 -0.6351
  416MOL0     H57399   8.831   4.471  10.346 -1.3971 -0.7711  1.5946
  416MOL0     H57400   8.851   4.331  10.146  1.5760 -0.5310 -0.1179
  416MOL0     H57401   8.839   4.183  10.238  1.1956  0.0919 -0.9773
  416MOL0     H57402   8.644   4.421  10.207  2.4421  0.5737  0.3328
  416MOL0     H57403   8.611   4.281  10.318 -0.0916 -1.4200 -0.4363
  416MOL0     H57404   8.511   4.094   9.962  3.0603 -0.4146 -2.2918
  416MOL0     H57405   8.994   4.593  10.716  0.1939  1.3736  2.1071
  416MOL0     H57406   9.254   4.776  10.780  0.6071 -1.1015 -2.4089
  416MOL0     H57407   9.107   4.709  10.870 -0.0337 -0.5204  2.6658
  416MOL0     H57408   9.268   4.656  10.920 -2.1762 -0.3065  1.0138
  417MOL0     O57409   3.346   7.687   1.935 -0.0922  0.6340 -0.1050
  417MOL0     C57410   3.332   7.602   2.024 -0.2801 -0.4817 -0.5316
  417MOL0     O57411   3.257   7.489   2.016  0.1796 -0.1810  0.0144
  417MOL0     C57412   3.180   7.473   1.909 -0.1455  0.2737  0.3834
  417MOL0     C57413   3.203   7.360   1.828  0.0626  0.2825  0.1083
  417MOL0     C57414   3.129   7.332   1.712  0.7334  0.1207  0.1060
  417MOL0     C57415   3.036   7.435   1.686  0.6461  0.4901 -0.8146
  417MOL0     O57416   2.968   7.422   1.571 -0.3410 -0.0761 -0.0622
  417MOL0     C57417   2.827   7.408   1.582  0.4657  0.9997 -0.2712
  417MOL0     C57418   2.759   7.374   1.451 -0.1958  0.4304  0.5914
  417MOL0     C57419   2.845   7.273   1.369  0.1995  0.0443  0.5025
  417MOL0     C57420   2.856   7.136   1.444  0.5517 -0.1255  0.1144
  417MOL0     C57421   2.973   7.046   1.398 -0.1066 -0.3848  0.1822
  417MOL0     C57422   2.959   6.908   1.465  0.4348 -0.2383  0.3429
  417MOL0     C57423   3.051   6.807   1.394 -0.8070 -0.0848  0.5975
  417MOL0     C57424   2.985   6.757   1.259  0.5306 -0.1986  0.2422
  417MOL0     N57425   3.065   6.650   1.198  0.3012  0.1672 -0.4555
  417MOL0     C57426   3.028   6.521   1.184 -0.2232 -0.0814 -0.8930
  417MOL0     C57427   3.125   6.453   1.114  0.4287  0.4607 -0.0125
  417MOL0     C57428   3.132   6.301   1.081 -0.4447 -0.0345  0.0941
  417MOL0     C57429   3.000   6.226   1.094  0.2087 -0.8745  1.1136
  417MOL0     C57430   3.022   6.074   1.083  0.8428  0.2793 -0.1314
  417MOL0     C57431   2.887   6.001   1.097 -0.1857  0.1135  0.1668
  417MOL0     O57432   2.834   5.978   0.963 -0.6424  0.3857  0.2808
  417MOL0     C57433   2.703   5.958   0.944  0.6907  0.2066 -0.9034
  417MOL0     C57434   2.618   5.932   1.043 -0.1377 -0.1347 -0.2501
  417MOL0     C57435   2.483   5.913   1.026 -0.1574  0.3273 -0.6568
  417MOL0     C57436   2.409   5.872   1.155  0.3400  1.3711  0.1892
  417MOL0     C57437   2.430   5.935   0.895 -1.0433 -0.4634  0.2877
  417MOL0     C57438   2.292   5.939   0.861 -0.0775 -0.6437 -0.6714
  417MOL0     O57439   2.259   5.946   0.725 -0.0701 -0.0275 -0.5910
  417MOL0     C57440   2.129   5.980   0.693 -0.6281 -0.3018 -0.2473
  417MOL0     C57441   2.054   5.882   0.632 -0.2487 -1.2094 -0.0968
  417MOL0     C57442   1.925   5.920   0.589  1.0054 -0.5343  0.1455
  417MOL0     C57443   1.870   6.050   0.608 -0.1015 -0.2161 -0.1283
  417MOL0     O57444   1.748   6.094   0.569 -0.4708  0.4351  0.5389
  417MOL0     C57445   1.648   6.021   0.480 -0.5237 -0.4118 -0.3355
  417MOL0     C57446   1.537   5.959   0.562  1.0703 -0.1394 -0.0033
  417MOL0     C57447   1.569   5.829   0.629  0.1200 -0.3021  1.1506
  417MOL0     C57448   1.558   5.718   0.524 -1.7445 -0.2196  0.4906
  417MOL0     C57449   1.578   5.575   0.576 -1.3079 -0.3669 -0.4971
  417MOL0     C57450   1.723   5.526   0.609 -1.1813  0.5738  0.0711
  417MOL0     C57451   1.810   5.539   0.482  0.3010 -0.2606 -0.2842
  417MOL0     C57452   1.956   5.490   0.513  0.3810  0.9269  0.4571
  417MOL0    Cl57453   2.060   5.503   0.360 -0.6574  1.1439 -0.7065
  417MOL0     C57454   1.951   6.141   0.667  0.5566 -0.2858 -0.6094
  417MOL0     C57455   2.085   6.118   0.702 -0.4122 -0.0562 -0.2644
  417MOL0     O57456   2.203   5.918   0.948 -0.2571  0.9164 -0.1098
  417MOL0     C57457   2.520   5.970   0.791  0.0132 -0.9378 -0.3240
  417MOL0     C57458   2.658   5.982   0.820  0.3263 -0.6607 -0.3568
  417MOL0     N57459   3.218   6.543   1.098 -0.2190 -0.3644  0.5934
  417MOL0     N57460   3.183   6.656   1.137  0.5477 -0.3390  0.3196
  417MOL0     C57461   3.011   7.546   1.766 -0.8968  1.0944 -0.4339
  417MOL0     C57462   3.072   7.558   1.888 -0.1729 -0.4194 -0.3039
  417MOL0     C57463   3.412   7.608   2.146 -0.6881  0.0706 -0.9851
  417MOL0     C57464   3.546   7.657   2.152  0.7366  0.6916  0.2369
  417MOL0     C57465   3.615   7.687   2.259 -0.2222 -1.3961 -0.2687
  417MOL0     C57466   3.563   7.653   2.385 -1.2890 -1.1419 -0.3807
  417MOL0     O57467   3.624   7.667   2.506  0.8381 -0.1413  0.3749
  417MOL0     C57468   3.670   7.792   2.548  1.0883 -1.0775  0.8858
  417MOL0     C57469   3.570   7.913   2.546  0.0422  1.0191 -0.5909
  417MOL0     C57470   3.447   7.887   2.635  0.3053  0.0468 -0.1421
  417MOL0     C57471   3.456   7.917   2.791 -0.0199  0.3653  0.8990
  417MOL0     C57472   3.579   7.876   2.855 -0.1165  0.4994 -0.2088
  417MOL0     C57473   3.673   7.865   2.929 -0.2224 -0.1721 -0.4410
  417MOL0     C57474   3.435   7.605   2.390  0.5071  0.4054 -0.5854
  417MOL0     C57475   3.362   7.573   2.276  0.1096 -0.4790  0.1204
  417MOL0     C57476   3.217   7.527   2.301 -0.8472 -0.6016  0.0852
  417MOL0     H57477   3.282   7.296   1.867 -0.3463 -0.7116 -0.6504
  417MOL0     H57478   3.156   7.254   1.642 -0.9000 -0.1042 -0.3162
  417MOL0     H57479   2.774   7.492   1.627 -0.0790  0.4385  0.1700
  417MOL0     H57480   2.807   7.323   1.649  0.9644  0.1472 -1.1836
  417MOL0     H57481   2.659   7.334   1.471  0.1911 -0.7668  0.1906
  417MOL0     H57482   2.742   7.464   1.391 -1.0978  0.9812  1.6343
  417MOL0     H57483   2.789   7.263   1.275 -0.1303 -0.1972  0.7201
  417MOL0     H57484   2.947   7.310   1.362  0.1974  0.3608  1.8264
  417MOL0     H57485   2.875   7.145   1.551  0.3088  0.4937  0.1083
  417MOL0     H57486   2.767   7.078   1.420 -0.2116  2.0630 -2.9166
  417MOL0     H57487   3.073   7.085   1.422 -0.4771  1.9141 -1.5908
  417MOL0     H57488   2.970   7.027   1.290  3.1921  1.9910 -0.5235
  417MOL0     H57489   2.987   6.916   1.571 -2.2218 -1.8684  1.2592
  417MOL0     H57490   2.855   6.879   1.452  0.3199 -0.8477  2.3187
  417MOL0     H57491   3.070   6.724   1.463  1.5244 -0.3936 -0.3155
  417MOL0     H57492   3.150   6.849   1.377 -1.8232  2.1288 -0.2954
  417MOL0     H57493   2.886   6.716   1.285 -0.6022  2.7817  0.9733
  417MOL0     H57494   2.983   6.843   1.192  2.9435 -0.3429 -0.1173
  417MOL0     H57495   2.946   6.471   1.234 -2.7617  2.1215 -2.5832
  417MOL0     H57496   3.201   6.252   1.150  1.4259 -0.6444 -2.0966
  417MOL0     H57497   3.172   6.289   0.980  1.2028  1.8415  0.4645
  417MOL0     H57498   2.956   6.249   1.191  0.3276 -1.8595  1.4057
  417MOL0     H57499   2.938   6.255   1.008  3.3710  0.0445 -1.0237
  417MOL0     H57500   3.074   6.046   0.991  1.9433 -2.9980  1.3420
  417MOL0     H57501   3.090   6.044   1.163  1.2231  4.1360  1.1566
  417MOL0     H57502   2.904   5.900   1.135 -1.5826 -0.5881 -0.9678
  417MOL0     H57503   2.820   6.066   1.155 -0.0885  1.3888 -1.0894
  417MOL0     H57504   2.662   5.917   1.141 -2.4297  0.4658  0.9362
  417MOL0     H57505   2.474   5.856   1.241  1.7587  1.8188 -0.7525
  417MOL0     H57506   2.342   5.788   1.137  0.0581  1.9268 -1.6039
  417MOL0     H57507   2.344   5.955   1.185 -0.4599  1.7222 -2.2612
  417MOL0     H57508   2.093   5.781   0.624  0.6987 -0.9089  0.5125
  417MOL0     H57509   1.851   5.856   0.543 -0.8507  0.5036  1.5530
  417MOL0     H57510   1.607   6.085   0.401  2.4453 -2.5450 -3.9046
  417MOL0     H57511   1.705   5.949   0.421 -2.0853  1.7646 -5.0276
  417MOL0     H57512   1.491   6.035   0.626 -3.2921 -1.1726 -1.5933
  417MOL0     H57513   1.452   5.934   0.498  2.0768  2.0891 -2.3759
  417MOL0     H57514   1.497   5.803   0.707 -0.6955 -1.0234  0.1818
  417MOL0     H57515   1.665   5.843   0.678 -0.2416  0.2598  1.7160
  417MOL0     H57516   1.624   5.735   0.439 -1.1311 -1.0345  0.7867
  417MOL0     H57517   1.456   5.732   0.487 -1.9414  0.4555  1.2535
  417MOL0     H57518   1.516   5.560   0.665  0.3613 -0.5247  0.7050
  417MOL0     H57519   1.554   5.501   0.499  0.8462 -0.1541 -1.4566
  417MOL0     H57520   1.723   5.420   0.637  1.6911 -0.7415 -3.8907
  417MOL0     H57521   1.780   5.588   0.678 -0.2602 -1.5514  1.3119
  417MOL0     H57522   1.823   5.645   0.459  0.9628 -0.2865 -0.0347
  417MOL0     H57523   1.761   5.490   0.397  0.0059 -1.6803  0.6604
  417MOL0     H57524   1.944   5.387   0.549 -3.2434 -0.1308 -3.0498
  417MOL0     H57525   1.994   5.553   0.594 -0.3054  0.3145  1.2740
  417MOL0     H57526   1.911   6.237   0.699  1.9964 -0.4215  1.8565
  417MOL0     H57527   2.147   6.203   0.727 -0.6806 -0.1093  0.6156
  417MOL0     H57528   2.479   6.000   0.695 -2.7534 -3.5340 -0.1166
  417MOL0     H57529   2.732   6.011   0.746 -1.8951  0.9596 -2.0779
  417MOL0     H57530   2.941   7.623   1.736 -0.2817  1.6431 -0.4757
  417MOL0     H57531   3.056   7.637   1.960  0.3120 -0.6276  0.0351
  417MOL0     H57532   3.589   7.682   2.055  0.5378 -1.0603 -0.3457
  417MOL0     H57533   3.708   7.744   2.257 -0.9180 -0.2502 -0.5595
  417MOL0     H57534   3.711   7.785   2.649 -0.9228  0.5476  1.8851
  417MOL0     H57535   3.744   7.815   2.471  0.5405 -1.1947  0.3168
  417MOL0     H57536   3.533   7.940   2.447 -3.2270 -2.9756 -0.7696
  417MOL0     H57537   3.619   8.001   2.589 -0.1222  0.2122  1.3864
  417MOL0     H57538   3.367   7.951   2.596  0.1984 -0.9905 -1.7227
  417MOL0     H57539   3.413   7.784   2.620  3.0684 -0.8353 -0.8248
  417MOL0     H57540   3.374   7.872   2.849  1.3683 -1.6461  1.4055
  417MOL0     H57541   3.443   8.023   2.815  1.7490  0.2499  2.6400
  417MOL0     H57542   3.755   7.849   2.996 -0.7784 -2.6265 -0.2448
  417MOL0     H57543   3.392   7.564   2.481 -1.8439  1.2535 -1.2156
  417MOL0     H57544   3.169   7.625   2.303 -0.2084 -0.0807 -3.5172
  417MOL0     H57545   3.173   7.460   2.227 -0.2035 -1.6216  0.5988
  417MOL0     H57546   3.198   7.480   2.398 -1.5641 -1.5583 -0.4923
  418MOL0     O57547   8.987   0.550   6.985 -0.4764  0.7783 -0.2734
  418MOL0     C57548   8.974   0.609   6.879  0.5056 -0.3325  0.3692
  418MOL0     O57549   8.949   0.742   6.879 -0.4601 -0.4914 -0.2675
  418MOL0     C57550   8.925   0.810   6.758 -0.6542 -0.0656  1.7044
  418MOL0     C57551   8.808   0.792   6.687 -0.6083 -0.1939  0.1010
  418MOL0     C57552   8.777   0.869   6.573 -0.4741 -0.5836  0.3637
  418MOL0     C57553   8.876   0.964   6.521  0.2274  0.2045 -0.8619
  418MOL0     O57554   8.860   1.035   6.409  0.0854 -0.3393  0.1391
  418MOL0     C57555   8.786   1.154   6.432  0.0512  1.3974 -0.2996
  418MOL0     C57556   8.775   1.230   6.292  0.5174 -0.2603 -0.0728
  418MOL0     C57557   8.894   1.329   6.261  0.1215 -0.0351  0.0040
  418MOL0     C57558   8.890   1.458   6.344 -0.4254 -0.1380  0.4589
  418MOL0     C57559   9.017   1.547   6.309  0.2482 -0.6661 -0.0728
  418MOL0     C57560   9.030   1.660   6.415 -1.0047 -0.2229 -0.9486
  418MOL0     C57561   9.148   1.760   6.393 -0.4234 -0.7778  0.8262
  418MOL0     C57562   9.267   1.742   6.490  0.6248 -0.0117 -0.1727
  418MOL0     N57563   9.322   1.605   6.490  0.1304  0.0101  0.1912
  418MOL0     C57564   9.381   1.550   6.375  0.4871  0.2165 -1.4535
  418MOL0     C57565   9.385   1.424   6.429  0.0159  0.3228 -0.3175
  418MOL0     C57566   9.437   1.297   6.359  0.4661  0.8724 -0.1473
  418MOL0     C57567   9.317   1.235   6.285 -0.6649 -0.1373 -0.6186
  418MOL0     C57568   9.369   1.127   6.180 -0.6897 -0.3586 -0.6057
  418MOL0     C57569   9.427   1.179   6.046  0.8783 -1.1293 -0.3240
  418MOL0     O57570   9.310   1.187   5.964  0.2310  0.0987  0.0543
  418MOL0     C57571   9.253   1.074   5.906  0.2519  0.6359 -0.1664
  418MOL0     C57572   9.141   1.093   5.824 -0.0609 -0.6036  0.3743
  418MOL0     C57573   9.088   0.987   5.753  0.1299 -0.3484  0.6100
  418MOL0     C57574   8.973   1.022   5.661  0.3217 -0.5195  0.7740
  418MOL0     C57575   9.139   0.859   5.761 -0.4455  0.5200  0.1991
  418MOL0     C57576   9.095   0.741   5.685  0.0866 -0.1916  0.3163
  418MOL0     O57577   9.160   0.705   5.573  0.8525  0.0812 -0.6410
  418MOL0     C57578   9.173   0.576   5.554  0.2604 -0.1465  0.3004
  418MOL0     C57579   9.096   0.506   5.462  0.7744 -0.9052  0.0548
  418MOL0     C57580   9.112   0.367   5.440  0.3531  0.6040  0.3849
  418MOL0     C57581   9.219   0.298   5.511 -0.0963 -0.3017 -0.0086
  418MOL0     O57582   9.250   0.163   5.499 -1.5052 -1.0598  0.4860
  418MOL0     C57583   9.224   0.099   5.376 -0.2997  1.0478  0.3163
  418MOL0     C57584   9.236  -0.049   5.414  0.6011  0.5344 -0.0323
  418MOL0     C57585   9.160  -0.153   5.342 -0.3781 -1.1273  1.3578
  418MOL0     C57586   9.212  -0.299   5.352 -0.2666  0.4803  0.1668
  418MOL0     C57587   9.103  -0.403   5.363 -0.4404  0.2270 -0.3691
  418MOL0     C57588   9.162  -0.554   5.365  0.1897 -0.8734 -0.4498
  418MOL0     C57589   9.049  -0.647   5.401 -0.6712 -0.0471  0.3847
  418MOL0     C57590   8.938  -0.641   5.298  1.0485  0.8252  1.6036
  418MOL0    Cl57591   8.989  -0.709   5.138 -0.1940  0.3607  0.3663
  418MOL0     C57592   9.297   0.367   5.605  0.3991 -0.8810 -0.4069
  418MOL0     C57593   9.270   0.503   5.621 -0.5861  0.8466  0.1997
  418MOL0     O57594   8.984   0.701   5.714 -0.4124 -0.2236  0.1235
  418MOL0     C57595   9.239   0.833   5.856 -0.6130  0.5667  0.3835
  418MOL0     C57596   9.304   0.937   5.914  0.1257  0.1621  0.9949
  418MOL0     N57597   9.334   1.414   6.554 -0.1273  0.1575  0.6807
  418MOL0     N57598   9.299   1.525   6.596 -0.8111  0.4983 -0.2268
  418MOL0     C57599   8.997   0.978   6.591  0.5133  0.1470  0.3423
  418MOL0     C57600   9.025   0.899   6.708  0.0032  0.1100  0.3706
  418MOL0     C57601   8.962   0.537   6.744  0.1620  0.7721  0.2219
  418MOL0     C57602   9.066   0.564   6.658  0.3673 -0.2324  0.7132
  418MOL0     C57603   9.061   0.520   6.523 -0.2791 -0.3886  0.2188
  418MOL0     C57604   8.949   0.452   6.485  0.1562  1.2273  0.7348
  418MOL0     O57605   8.958   0.400   6.353  0.0286 -0.0670 -0.4198
  418MOL0     C57606   8.846   0.338   6.287  1.0298  0.2707  0.3558
  418MOL0     C57607   8.886   0.191   6.272  0.5410 -0.1738  0.3101
  418MOL0     C57608   8.769   0.080   6.277 -0.2495 -0.5418  0.2863
  418MOL0     C57609   8.817  -0.066   6.309 -0.0599 -1.3244 -0.1192
  418MOL0     C57610   8.712  -0.145   6.377 -0.1070 -0.0243  0.3127
  418MOL0     C57611   8.627  -0.218   6.424 -0.4020 -0.2753 -0.1850
  418MOL0     C57612   8.843   0.417   6.573  0.1326 -0.4706 -0.1968
  418MOL0     C57613   8.854   0.452   6.706 -0.1406  0.1153 -1.1202
  418MOL0     C57614   8.748   0.421   6.807 -0.7395 -0.8713  0.2463
  418MOL0     H57615   8.744   0.723   6.741 -1.1478  0.9366  0.9336
  418MOL0     H57616   8.684   0.846   6.522 -0.3748  2.6483 -1.4912
  418MOL0     H57617   8.808   1.225   6.511 -0.1544  1.2317 -0.0912
  418MOL0     H57618   8.686   1.119   6.461  0.5223  1.0658  0.9432
  418MOL0     H57619   8.764   1.153   6.216 -1.3360 -1.7532  1.5978
  418MOL0     H57620   8.682   1.287   6.304  1.9688  1.8019  2.5967
  418MOL0     H57621   8.983   1.268   6.277  0.0925 -0.0056  0.2942
  418MOL0     H57622   8.896   1.360   6.156  0.0777 -1.1484 -0.3357
  418MOL0     H57623   8.797   1.512   6.323 -0.3042  1.0472  2.6894
  418MOL0     H57624   8.897   1.439   6.451  2.8669  1.0029  0.5539
  418MOL0     H57625   9.023   1.583   6.206 -1.0962  1.6083  0.5528
  418MOL0     H57626   9.106   1.491   6.338  1.2243  1.2747  0.9255
  418MOL0     H57627   8.941   1.722   6.426 -0.3333  0.9882 -2.0288
  418MOL0     H57628   9.048   1.608   6.510 -1.1814  0.2673 -0.6435
  418MOL0     H57629   9.119   1.865   6.399  1.1689 -0.3758  3.0665
  418MOL0     H57630   9.182   1.743   6.291  1.1956  0.2999  1.1400
  418MOL0     H57631   9.357   1.790   6.450  0.9445 -0.3922  0.0713
  418MOL0     H57632   9.251   1.780   6.591 -0.4258 -0.7821 -0.0337
  418MOL0     H57633   9.407   1.588   6.277  1.0027  0.9926 -1.0206
  418MOL0     H57634   9.488   1.234   6.433  4.2733  2.2394 -1.3978
  418MOL0     H57635   9.517   1.333   6.294 -0.1578  2.4938 -0.0605
  418MOL0     H57636   9.249   1.201   6.363  0.7423 -0.3392  0.5597
  418MOL0     H57637   9.252   1.315   6.247 -1.7779 -0.8501 -0.2815
  418MOL0     H57638   9.448   1.066   6.224  2.9774  3.4234 -1.2211
  418MOL0     H57639   9.280   1.072   6.150 -2.0562  2.2912 -1.6693
  418MOL0     H57640   9.456   1.281   6.073 -0.5430 -0.3518 -1.5972
  418MOL0     H57641   9.521   1.135   6.012  0.6246 -1.2274 -0.9161
  418MOL0     H57642   9.083   1.184   5.817 -4.3587 -3.1411 -0.5706
  418MOL0     H57643   8.897   0.951   5.695  0.4905 -1.2428 -0.2949
  418MOL0     H57644   8.998   1.018   5.555 -0.4836  0.8097  0.5003
  418MOL0     H57645   8.932   1.123   5.675 -1.8796 -0.6737 -3.0240
  418MOL0     H57646   9.022   0.555   5.400  0.7222 -0.8316  0.1752
  418MOL0     H57647   9.050   0.313   5.370  0.8660  0.4464  0.0461
  418MOL0     H57648   9.125   0.119   5.333  0.1122  2.8016  0.1106
  418MOL0     H57649   9.301   0.121   5.301  0.8144 -1.1885  0.6990
  418MOL0     H57650   9.343  -0.073   5.409  0.1136 -2.1350  0.6153
  418MOL0     H57651   9.204  -0.056   5.518 -2.0942  0.9722 -0.7576
  418MOL0     H57652   9.140  -0.138   5.235  2.1278 -1.3125  0.8201
  418MOL0     H57653   9.058  -0.143   5.381 -1.9894  2.3289 -2.8279
  418MOL0     H57654   9.278  -0.318   5.437 -0.3289 -0.3167  0.0435
  418MOL0     H57655   9.268  -0.316   5.260 -2.1072 -1.8446 -0.6207
  418MOL0     H57656   9.064  -0.374   5.461  0.5223  1.6127 -0.3611
  418MOL0     H57657   9.021  -0.389   5.292 -2.5300 -0.7434  1.7560
  418MOL0     H57658   9.244  -0.556   5.436  0.3186 -0.8097 -0.5964
  418MOL0     H57659   9.205  -0.574   5.266  1.2149  2.9705 -0.9253
  418MOL0     H57660   9.018  -0.630   5.505 -1.6682  0.0815  0.0819
  418MOL0     H57661   9.091  -0.745   5.378 -0.2655  0.4904 -1.3155
  418MOL0     H57662   8.895  -0.542   5.279 -2.1350 -1.1989 -4.0128
  418MOL0     H57663   8.851  -0.701   5.328  0.1128 -0.1545 -2.4970
  418MOL0     H57664   9.360   0.303   5.665 -1.8845 -2.7452  0.1647
  418MOL0     H57665   9.329   0.555   5.696 -2.0975  0.0448  2.0290
  418MOL0     H57666   9.258   0.730   5.881  0.6979  0.9358  1.0150
  418MOL0     H57667   9.398   0.910   5.962  0.6017  2.0677  1.2180
  418MOL0     H57668   9.066   1.050   6.547 -1.0758  1.6614  0.2620
  418MOL0     H57669   9.109   0.922   6.773 -1.7299 -3.6481  4.3873
  418MOL0     H57670   9.155   0.622   6.679 -0.5675  0.4629  3.0425
  418MOL0     H57671   9.140   0.533   6.450 -0.7919 -0.6392 -0.3933
  418MOL0     H57672   8.748   0.355   6.331  1.4075 -0.1158  1.3556
  418MOL0     H57673   8.826   0.386   6.190 -1.2552 -2.5225 -0.6757
  418MOL0     H57674   8.958   0.171   6.351  1.6824  1.0876 -0.3560
  418MOL0     H57675   8.928   0.180   6.172 -1.3077  0.3510 -0.5739
  418MOL0     H57676   8.700   0.105   6.359  1.0363  0.1131  1.1992
  418MOL0     H57677   8.712   0.074   6.184 -1.1202  0.2812  0.7395
  418MOL0     H57678   8.906  -0.067   6.372  1.2982 -0.0962 -1.9058
  418MOL0     H57679   8.842  -0.121   6.218  2.3900  0.8822 -0.8901
  418MOL0     H57680   8.538  -0.275   6.440  0.4278 -1.6373 -0.1801
  418MOL0     H57681   8.772   0.339   6.547  1.8699 -1.7869 -1.1432
  418MOL0     H57682   8.666   0.359   6.771  0.6371 -1.9523 -1.1160
  418MOL0     H57683   8.802   0.377   6.892 -3.2823 -1.7089  1.5394
  418MOL0     H57684   8.697   0.510   6.847  0.7631 -0.4969  1.4228
  419MOL0     O57685   3.073   6.480   6.701 -0.3336 -0.3512 -0.0045
  419MOL0     C57686   3.134   6.414   6.785  0.0990 -0.4351 -0.3292
  419MOL0     O57687   3.264   6.397   6.796 -0.1760 -0.5491  0.0192
  419MOL0     C57688   3.358   6.452   6.713 -0.5500 -0.7435 -1.2653
  419MOL0     C57689   3.346   6.430   6.578 -0.0398 -0.0703  0.7760
  419MOL0     C57690   3.457   6.472   6.497 -0.3298 -0.2489 -0.2102
  419MOL0     C57691   3.554   6.559   6.552  0.2108 -0.3472  0.7605
  419MOL0     O57692   3.634   6.619   6.454 -1.2304  0.4469 -0.4412
  419MOL0     C57693   3.709   6.733   6.506 -0.9033 -0.2019 -0.3594
  419MOL0     C57694   3.808   6.779   6.392  0.8501 -0.4427  0.2047
  419MOL0     C57695   3.735   6.848   6.266  0.1080  0.3083  0.4608
  419MOL0     C57696   3.660   6.972   6.315  0.6466 -0.0757 -0.8858
  419MOL0     C57697   3.573   7.036   6.216  0.5230  0.2477 -0.9464
  419MOL0     C57698   3.632   7.095   6.084  0.1245  0.0844 -0.3039
  419MOL0     C57699   3.696   7.233   6.121  0.8926 -0.1082 -0.1756
  419MOL0     C57700   3.844   7.221   6.169  0.9321  0.7950  0.8691
  419MOL0     N57701   3.926   7.338   6.135  0.3209  0.1492 -0.1766
  419MOL0     C57702   4.012   7.357   6.028  0.1594  0.8697  0.4128
  419MOL0     C57703   4.054   7.485   6.024 -0.4478 -0.6521  0.0903
  419MOL0     C57704   4.170   7.537   5.936 -0.2026 -0.0522  0.2601
  419MOL0     C57705   4.175   7.467   5.797  0.3127 -0.2452 -0.5704
  419MOL0     C57706   4.261   7.525   5.689 -0.7471 -1.1307 -0.6758
  419MOL0     C57707   4.401   7.577   5.750 -0.1882  0.2794  0.2132
  419MOL0     O57708   4.470   7.631   5.637 -0.3302 -0.8987  0.2107
  419MOL0     C57709   4.570   7.552   5.583  0.4129  0.6199  0.6797
  419MOL0     C57710   4.571   7.413   5.585  0.3175  0.8573  0.5547
  419MOL0     C57711   4.665   7.337   5.508 -0.1394  0.2274 -0.6313
  419MOL0     C57712   4.643   7.187   5.514  0.5155  0.3253 -0.0479
  419MOL0     C57713   4.770   7.407   5.441 -0.6702  0.2103  1.0323
  419MOL0     C57714   4.879   7.326   5.372  0.0425  0.1255 -0.8100
  419MOL0     O57715   4.996   7.398   5.357  0.0542 -0.1465  0.2782
  419MOL0     C57716   5.099   7.339   5.295 -0.6335 -0.1393  0.0379
  419MOL0     C57717   5.107   7.232   5.195  0.3494 -0.2958 -0.3686
  419MOL0     C57718   5.235   7.190   5.144  0.5744  0.5209  0.4438
  419MOL0     C57719   5.355   7.255   5.191 -0.2732  0.7322  0.1326
  419MOL0     O57720   5.480   7.219   5.142  0.4870 -0.0936  1.3138
  419MOL0     C57721   5.507   7.080   5.119  0.1716 -0.2237  0.8032
  419MOL0     C57722   5.549   7.051   4.971  0.2200  0.7387 -0.9627
  419MOL0     C57723   5.603   6.913   4.972 -0.2735 -0.1590 -0.1534
  419MOL0     C57724   5.746   6.891   5.010 -1.0412 -0.5613  0.7189
  419MOL0     C57725   5.768   6.734   5.011  0.8437 -0.1853  0.1112
  419MOL0     C57726   5.688   6.649   5.112  0.7605 -0.8394 -0.6283
  419MOL0     C57727   5.717   6.497   5.107 -0.5671  0.1230  1.0248
  419MOL0     C57728   5.628   6.417   5.199  0.2461 -0.5747  0.2702
  419MOL0    Cl57729   5.704   6.267   5.238 -0.2537 -0.0235 -0.3971
  419MOL0     C57730   5.346   7.361   5.278  0.0166  0.4057  0.2948
  419MOL0     C57731   5.218   7.403   5.324 -0.6281  0.1030 -0.9192
  419MOL0     O57732   4.861   7.210   5.335  0.2615 -0.2769  0.1887
  419MOL0     C57733   4.770   7.547   5.439  0.1918  0.2247 -0.0736
  419MOL0     C57734   4.675   7.612   5.518  0.2855 -0.8022  0.1814
  419MOL0     N57735   3.990   7.552   6.118  0.9227 -0.2311 -0.3822
  419MOL0     N57736   3.911   7.465   6.177  0.4618 -0.0424  0.1915
  419MOL0     C57737   3.555   6.582   6.689  0.0477  0.5268  1.2664
  419MOL0     C57738   3.460   6.531   6.771 -0.0041  0.1734 -0.6026
  419MOL0     C57739   3.067   6.363   6.906  0.2518  0.8137 -0.9325
  419MOL0     C57740   3.138   6.357   7.036  0.0443  0.3112  1.1209
  419MOL0     C57741   3.082   6.315   7.154  1.1583  0.5091 -0.0344
  419MOL0     C57742   2.949   6.266   7.155 -0.1422  0.1596  1.4004
  419MOL0     O57743   2.878   6.225   7.265 -0.8649 -0.0613 -0.2817
  419MOL0     C57744   2.945   6.174   7.376  0.4576  0.6823 -0.4643
  419MOL0     C57745   2.838   6.118   7.482  1.3949 -0.2459  0.5631
  419MOL0     C57746   2.721   6.220   7.520  0.2923  1.1701 -0.2246
  419MOL0     C57747   2.771   6.339   7.611 -0.0668  0.0178 -0.1086
  419MOL0     C57748   2.823   6.288   7.745  0.2013  0.4056  0.4637
  419MOL0     C57749   2.853   6.253   7.858  0.2669  0.0609  0.2428
  419MOL0     C57750   2.878   6.271   7.031 -1.4493  1.0155  0.2618
  419MOL0     C57751   2.934   6.306   6.904 -0.1682 -0.1833 -0.5402
  419MOL0     C57752   2.859   6.267   6.780 -0.6887 -1.4371  0.1270
  419MOL0     H57753   3.266   6.363   6.547  1.7558 -1.1169 -2.0014
  419MOL0     H57754   3.462   6.456   6.390  0.8600  1.6253 -0.4889
  419MOL0     H57755   3.772   6.693   6.586 -1.2478 -2.7487 -1.2538
  419MOL0     H57756   3.647   6.816   6.541  0.4685  1.2648 -1.2741
  419MOL0     H57757   3.864   6.858   6.442  0.5376  0.0639 -0.2318
  419MOL0     H57758   3.868   6.697   6.352  0.1575  0.1477 -2.2508
  419MOL0     H57759   3.795   6.880   6.180  0.2769 -1.2522 -0.0480
  419MOL0     H57760   3.668   6.768   6.235  2.7169 -1.6015 -0.6516
  419MOL0     H57761   3.591   6.939   6.393  0.4551 -1.8031 -1.7462
  419MOL0     H57762   3.742   7.024   6.366  2.4344 -2.3947 -1.2193
  419MOL0     H57763   3.507   7.110   6.262  1.3884  2.0348 -2.4209
  419MOL0     H57764   3.503   6.961   6.178  0.3813  0.9998 -2.2344
  419MOL0     H57765   3.707   7.032   6.036  0.3608  0.8349 -0.9320
  419MOL0     H57766   3.554   7.088   6.008  1.4774 -3.3119 -1.5884
  419MOL0     H57767   3.632   7.294   6.186 -0.9176 -1.3519 -0.7157
  419MOL0     H57768   3.700   7.282   6.023  0.1636  3.1858  1.2977
  419MOL0     H57769   3.859   7.210   6.277  2.3179 -2.4124  0.4588
  419MOL0     H57770   3.892   7.130   6.132  0.8732  1.1308 -0.0594
  419MOL0     H57771   4.057   7.278   5.969  3.0905  3.3145 -0.9118
  419MOL0     H57772   4.272   7.529   5.976  1.1194 -0.1817 -2.8505
  419MOL0     H57773   4.148   7.643   5.925 -3.6412 -0.4417  2.0190
  419MOL0     H57774   4.220   7.370   5.823 -2.6912 -1.2165  1.5479
  419MOL0     H57775   4.077   7.454   5.750  0.6128 -0.3288 -1.1951
  419MOL0     H57776   4.275   7.457   5.604 -2.8564 -2.1750 -0.2497
  419MOL0     H57777   4.207   7.615   5.657 -1.3124 -1.1714  0.1483
  419MOL0     H57778   4.380   7.651   5.827 -1.2567  0.1767  0.0407
  419MOL0     H57779   4.461   7.501   5.799 -0.5263 -0.4140 -0.4306
  419MOL0     H57780   4.484   7.357   5.617  1.1795 -0.8544  0.0361
  419MOL0     H57781   4.622   7.147   5.414 -0.0371 -2.0726  0.9297
  419MOL0     H57782   4.559   7.157   5.578  1.3626 -2.4511 -0.0928
  419MOL0     H57783   4.727   7.127   5.550  0.5498 -0.0569 -0.7371
  419MOL0     H57784   5.014   7.181   5.174 -2.0376  0.3261  6.2431
  419MOL0     H57785   5.236   7.117   5.063  3.3306 -0.7974  1.5132
  419MOL0     H57786   5.591   7.063   5.187 -1.7556 -3.1151  2.6728
  419MOL0     H57787   5.435   7.008   5.158 -0.6904  1.0688  1.7026
  419MOL0     H57788   5.464   7.050   4.902  0.4148 -1.4989 -1.2558
  419MOL0     H57789   5.629   7.117   4.936  0.8887  0.5330  0.1309
  419MOL0     H57790   5.572   6.871   4.877 -0.9244  0.9758 -0.4594
  419MOL0     H57791   5.544   6.856   5.045 -1.0413 -3.1807 -2.8906
  419MOL0     H57792   5.769   6.955   5.095 -0.8665 -0.1214  0.3379
  419MOL0     H57793   5.812   6.926   4.931 -0.2400 -1.5463  0.9273
  419MOL0     H57794   5.750   6.699   4.909  2.3123  2.9759 -1.3532
  419MOL0     H57795   5.873   6.715   5.037  0.7330 -1.1451 -0.0842
  419MOL0     H57796   5.580   6.649   5.093  0.9332 -0.1459 -1.6816
  419MOL0     H57797   5.701   6.683   5.215  0.7974  0.1002 -0.9353
  419MOL0     H57798   5.823   6.484   5.128  1.1419  3.7316 -3.7315
  419MOL0     H57799   5.698   6.468   5.003  0.3618  1.5728  0.4345
  419MOL0     H57800   5.537   6.400   5.140  0.2746 -1.3823  0.4498
  419MOL0     H57801   5.606   6.464   5.295  2.5855 -0.0626  0.6293
  419MOL0     H57802   5.434   7.414   5.314 -0.1951  0.2379  1.0846
  419MOL0     H57803   5.212   7.494   5.383  0.3304  0.1118 -0.8214
  419MOL0     H57804   4.859   7.603   5.409  1.9808  0.2850  4.5548
  419MOL0     H57805   4.697   7.718   5.524  1.9604 -1.1872  1.8495
  419MOL0     H57806   3.633   6.642   6.736  0.1841  2.2582 -1.0209
  419MOL0     H57807   3.482   6.556   6.875  2.3730  1.7908 -1.4180
  419MOL0     H57808   3.243   6.384   7.034 -0.9645  5.2869  1.2528
  419MOL0     H57809   3.161   6.306   7.228  3.2939 -1.5484 -2.3479
  419MOL0     H57810   3.007   6.088   7.352  0.9155  0.6993  0.5872
  419MOL0     H57811   3.005   6.252   7.423 -3.0820  3.1587  0.4097
  419MOL0     H57812   2.890   6.093   7.574 -1.4028  1.4863  2.7672
  419MOL0     H57813   2.790   6.028   7.441 -0.7992  0.8972  0.4673
  419MOL0     H57814   2.674   6.254   7.427  0.6944  1.1371 -0.4417
  419MOL0     H57815   2.640   6.159   7.560  2.4924 -0.9421  1.2945
  419MOL0     H57816   2.686   6.408   7.614 -1.2722 -1.4451  1.0567
  419MOL0     H57817   2.860   6.390   7.573  0.7369  0.0478  1.7211
  419MOL0     H57818   2.885   6.220   7.955  1.8712 -0.7560 -0.5179
  419MOL0     H57819   2.774   6.241   7.022 -1.5260  1.6392 -1.2493
  419MOL0     H57820   2.770   6.204   6.790 -1.6188 -0.1379  0.3321
  419MOL0     H57821   2.830   6.359   6.728  0.9486 -0.8197  0.2328
  419MOL0     H57822   2.931   6.211   6.721  1.3576 -0.2661  1.3860
  420MOL0     O57823   5.326   8.798   8.961  0.0719  0.6152 -0.1470
  420MOL0     C57824   5.387   8.692   8.926  0.3328 -0.0544 -0.3870
  420MOL0     O57825   5.343   8.563   8.947 -0.1973  0.0871 -0.0058
  420MOL0     C57826   5.251   8.535   9.035  0.6201  0.4346  1.3580
  420MOL0     C57827   5.209   8.402   9.037  0.1249  0.6578 -0.0903
  420MOL0     C57828   5.125   8.351   9.138 -0.9235  0.0902 -0.6244
  420MOL0     C57829   5.072   8.437   9.232 -1.0242 -0.3175  0.0519
  420MOL0     O57830   4.995   8.383   9.327  0.2724  0.1558  0.1423
  420MOL0     C57831   4.901   8.448   9.409 -0.2957  0.0492  0.2882
  420MOL0     C57832   4.870   8.358   9.534  0.6688  0.3211 -0.3190
  420MOL0     C57833   4.787   8.232   9.486 -0.5999  0.9792  0.0989
  420MOL0     C57834   4.657   8.213   9.573 -0.4350 -0.1371 -0.1489
  420MOL0     C57835   4.594   8.080   9.516  0.0794 -0.3145  0.4076
  420MOL0     C57836   4.456   8.058   9.580  0.0122 -0.7040 -0.7259
  420MOL0     C57837   4.349   8.171   9.568 -0.4243  0.1917 -0.3922
  420MOL0     C57838   4.260   8.160   9.441 -0.4565  0.0533  0.0165
  420MOL0     N57839   4.331   8.195   9.312  0.5473 -0.3887 -0.9547
  420MOL0     C57840   4.416   8.304   9.299  0.2520  0.0910  0.5318
  420MOL0     C57841   4.462   8.292   9.172  0.6332  0.6083 -0.3058
  420MOL0     C57842   4.552   8.392   9.098 -0.5425 -0.2097 -0.4106
  420MOL0     C57843   4.472   8.506   9.049  0.3314 -0.7034 -0.3294
  420MOL0     C57844   4.550   8.601   8.962 -0.8977  0.1737 -0.4884
  420MOL0     C57845   4.464   8.708   8.897  0.7951 -0.2777  0.8397
  420MOL0     O57846   4.359   8.649   8.814 -0.1870  0.7309 -0.2670
  420MOL0     C57847   4.377   8.639   8.680 -0.3699  0.1576 -0.2699
  420MOL0     C57848   4.338   8.519   8.614  0.3128 -0.0595  0.2383
  420MOL0     C57849   4.357   8.497   8.477 -0.3972 -0.2919 -0.3986
  420MOL0     C57850   4.338   8.359   8.416  0.1227 -0.5973  0.6181
  420MOL0     C57851   4.394   8.607   8.392 -0.3741 -1.4034  0.8193
  420MOL0     C57852   4.397   8.602   8.241 -0.1481  0.1230  0.4937
  420MOL0     O57853   4.305   8.526   8.172 -0.9093  0.5960  0.1169
  420MOL0     C57854   4.191   8.588   8.136 -0.0993  0.2604 -0.0279
  420MOL0     C57855   4.187   8.721   8.102  0.1008 -0.2567  0.0835
  420MOL0     C57856   4.059   8.772   8.062 -0.0926 -0.1500  0.2071
  420MOL0     C57857   3.945   8.696   8.041 -0.0036  0.4780  0.4188
  420MOL0     O57858   3.817   8.736   7.987 -0.2765 -0.5045  0.4207
  420MOL0     C57859   3.838   8.830   7.875 -0.0586  0.1348  0.3572
  420MOL0     C57860   3.706   8.849   7.803  0.6449  0.0855 -1.0650
  420MOL0     C57861   3.669   8.744   7.689  0.9845 -0.1424  0.2393
  420MOL0     C57862   3.668   8.592   7.740 -0.4309  0.4435 -0.5403
  420MOL0     C57863   3.802   8.524   7.701  0.2861  0.3260  0.2404
  420MOL0     C57864   3.817   8.393   7.767 -0.0027  0.2089  0.0915
  420MOL0     C57865   3.965   8.358   7.775 -1.1133 -0.5534 -0.2179
  420MOL0     C57866   3.988   8.239   7.868 -0.5621  0.0607  0.1631
  420MOL0    Cl57867   4.161   8.221   7.884 -0.7057 -0.1933  0.3457
  420MOL0     C57868   3.948   8.563   8.072 -0.2067  0.1046  0.4216
  420MOL0     C57869   4.066   8.514   8.119 -0.8744  0.1478  1.0578
  420MOL0     O57870   4.484   8.664   8.180 -1.0649 -0.0628 -0.1194
  420MOL0     C57871   4.412   8.737   8.455  0.1326  0.7697  0.1369
  420MOL0     C57872   4.425   8.742   8.596  1.0136 -0.5479  0.0813
  420MOL0     N57873   4.391   8.194   9.105  0.6781 -0.3399 -0.0545
  420MOL0     N57874   4.318   8.128   9.193 -0.2953 -0.5690  0.3482
  420MOL0     C57875   5.109   8.574   9.231 -0.0707  0.0873 -0.3795
  420MOL0     C57876   5.202   8.615   9.135  0.7643 -0.1312  0.1137
  420MOL0     C57877   5.518   8.704   8.861 -0.2804  0.1078 -0.6530
  420MOL0     C57878   5.616   8.611   8.904 -0.0456  0.1290 -0.3403
  420MOL0     C57879   5.751   8.606   8.853 -0.1241 -0.1870  0.9968
  420MOL0     C57880   5.785   8.701   8.754  0.3897  0.5070  1.0248
  420MOL0     O57881   5.911   8.714   8.690  0.4727 -0.3813 -0.2627
  420MOL0     C57882   5.993   8.601   8.690  0.2425 -0.6064  1.1094
  420MOL0     C57883   5.935   8.475   8.614 -0.0878  0.0534 -0.3572
  420MOL0     C57884   6.054   8.412   8.544  0.7833  0.2469  0.5480
  420MOL0     C57885   6.027   8.262   8.542  1.1033  0.4152 -0.0135
  420MOL0     C57886   6.155   8.200   8.493  0.6714 -0.7304 -0.3983
  420MOL0     C57887   6.263   8.156   8.468  0.8583 -0.0442 -0.3668
  420MOL0     C57888   5.692   8.799   8.729  0.9863  0.2199  0.0238
  420MOL0     C57889   5.558   8.797   8.772 -0.3136 -0.2421 -1.4310
  420MOL0     C57890   5.471   8.912   8.747  0.4471  0.7432 -0.3882
  420MOL0     H57891   5.250   8.331   8.966  0.9191  0.6157  0.4099
  420MOL0     H57892   5.113   8.244   9.145  1.0442 -0.0472  3.7272
  420MOL0     H57893   4.808   8.475   9.358  0.5723 -2.0412 -2.6126
  420MOL0     H57894   4.949   8.543   9.437  3.6874 -1.5793 -0.4312
  420MOL0     H57895   4.966   8.336   9.583  0.8305  3.2786  0.8995
  420MOL0     H57896   4.818   8.415   9.611  0.6247  0.5514 -0.5181
  420MOL0     H57897   4.770   8.244   9.378  1.9356 -0.0504 -0.5013
  420MOL0     H57898   4.854   8.147   9.503 -1.6079 -0.3110 -1.8966
  420MOL0     H57899   4.656   8.213   9.683 -0.2029  1.4751 -0.1157
  420MOL0     H57900   4.597   8.303   9.558 -1.5786 -0.6991  0.9197
  420MOL0     H57901   4.651   7.987   9.524  2.4350  1.1105  1.1171
  420MOL0     H57902   4.579   8.096   9.409 -3.6156 -0.8257  0.7092
  420MOL0     H57903   4.414   7.965   9.540  1.1258 -2.0440  1.1178
  420MOL0     H57904   4.466   8.022   9.682 -1.4803  0.0980 -0.2648
  420MOL0     H57905   4.385   8.273   9.575 -0.1212  0.2413 -2.1104
  420MOL0     H57906   4.276   8.148   9.646 -1.5942  1.3092 -1.1205
  420MOL0     H57907   4.234   8.055   9.423  2.1774 -0.3494 -2.2366
  420MOL0     H57908   4.175   8.225   9.460 -0.0891  0.3364  0.7308
  420MOL0     H57909   4.440   8.385   9.368 -3.8871  0.4493  1.8305
  420MOL0     H57910   4.585   8.338   9.009 -0.5631 -1.5387  0.3597
  420MOL0     H57911   4.636   8.423   9.160 -2.6077  0.6139  2.1310
  420MOL0     H57912   4.382   8.470   8.998 -0.2970  0.8000 -0.3510
  420MOL0     H57913   4.424   8.560   9.132  0.5218 -0.0161 -0.6600
  420MOL0     H57914   4.627   8.642   9.028  1.0017 -1.3249 -1.6412
  420MOL0     H57915   4.604   8.555   8.878 -0.1214  0.1205  0.0286
  420MOL0     H57916   4.419   8.766   8.979  1.1400 -2.3736  2.6164
  420MOL0     H57917   4.528   8.779   8.845  2.4279 -1.9951  0.4017
  420MOL0     H57918   4.285   8.439   8.665  0.3077 -1.0193 -1.2077
  420MOL0     H57919   4.245   8.351   8.359  0.1785  0.8764  0.2865
  420MOL0     H57920   4.350   8.282   8.493 -0.4308 -1.5364 -0.2063
  420MOL0     H57921   4.415   8.341   8.340  1.4812  0.8506  1.5790
  420MOL0     H57922   4.280   8.776   8.093  0.8252 -1.5489 -0.4849
  420MOL0     H57923   4.059   8.879   8.046 -1.4451  0.2161  2.2751
  420MOL0     H57924   3.882   8.926   7.901 -1.9021  0.7945  1.2328
  420MOL0     H57925   3.898   8.784   7.797 -2.3685 -0.4151 -1.2022
  420MOL0     H57926   3.628   8.859   7.879  1.8950  0.7359  0.1771
  420MOL0     H57927   3.712   8.945   7.752 -1.4202 -0.3038 -2.1525
  420MOL0     H57928   3.725   8.762   7.597 -1.3554  0.1499 -1.2305
  420MOL0     H57929   3.567   8.779   7.670  0.5581 -0.3785  1.9247
  420MOL0     H57930   3.594   8.532   7.685 -1.6221  1.9040 -0.5752
  420MOL0     H57931   3.649   8.585   7.847  2.8528  2.4683  0.2963
  420MOL0     H57932   3.814   8.513   7.593  0.2316 -1.2692  0.3842
  420MOL0     H57933   3.887   8.586   7.734 -1.7193  2.0541  2.6326
  420MOL0     H57934   3.768   8.314   7.709 -0.2775  0.6406 -0.2766
  420MOL0     H57935   3.778   8.397   7.869 -0.3613  1.0239 -0.0657
  420MOL0     H57936   4.016   8.443   7.821  0.7874 -1.5300 -0.4593
  420MOL0     H57937   4.007   8.337   7.677  1.3582 -0.2958  0.7233
  420MOL0     H57938   3.953   8.151   7.813 -0.8392  0.7795 -0.8205
  420MOL0     H57939   3.938   8.247   7.965 -1.6378 -0.2239 -0.3559
  420MOL0     H57940   3.858   8.503   8.060 -0.9521 -0.1366  5.3588
  420MOL0     H57941   4.067   8.409   8.146  0.9037 -0.3029 -0.5218
  420MOL0     H57942   4.435   8.822   8.391  2.3973 -0.6565 -1.0787
  420MOL0     H57943   4.449   8.836   8.645 -2.8182  0.7399 -0.1577
  420MOL0     H57944   5.090   8.641   9.314 -0.1687 -2.2790  1.6219
  420MOL0     H57945   5.239   8.716   9.151 -0.0824  0.1150  0.5475
  420MOL0     H57946   5.586   8.540   8.980  1.3796  0.8650  0.9675
  420MOL0     H57947   5.819   8.526   8.878 -0.2769  0.2857  3.0557
  420MOL0     H57948   6.084   8.637   8.641  1.6369 -0.0091  3.9254
  420MOL0     H57949   6.018   8.569   8.792  0.9053 -0.8425  0.8819
  420MOL0     H57950   5.857   8.502   8.542  0.6255  0.2584 -1.0620
  420MOL0     H57951   5.889   8.412   8.691 -1.3589 -0.6238 -1.6198
  420MOL0     H57952   6.055   8.447   8.440  0.5774  1.2051  0.8515
  420MOL0     H57953   6.149   8.440   8.592 -1.1423  0.5515  4.6067
  420MOL0     H57954   5.950   8.229   8.471  1.5099 -2.3174  0.6827
  420MOL0     H57955   5.996   8.211   8.633 -2.1254  0.8309 -0.7613
  420MOL0     H57956   6.363   8.119   8.453  1.4065  0.7717  1.1264
  420MOL0     H57957   5.723   8.878   8.661  0.3412  2.3289  2.0398
  420MOL0     H57958   5.366   8.896   8.721  0.6285 -2.4172  0.3924
  420MOL0     H57959   5.483   8.972   8.837  3.6836 -1.0414  0.5513
  420MOL0     H57960   5.512   8.971   8.664  5.0593 -1.5814 -0.1264
  421MOL0     O57961   5.595   5.951   3.553 -0.3102 -0.1152 -0.1779
  421MOL0     C57962   5.718   5.980   3.534  0.2859 -0.6885 -0.2296
  421MOL0     O57963   5.812   5.991   3.638  0.3445  0.0166  0.1574
  421MOL0     C57964   5.758   6.011   3.767  0.9953 -0.1297 -0.1809
  421MOL0     C57965   5.774   5.928   3.874 -0.0561  0.0682 -0.0387
  421MOL0     C57966   5.729   5.952   4.006 -0.7045  0.3808  0.3843
  421MOL0     C57967   5.646   6.062   4.034  0.0492 -0.5289 -0.1510
  421MOL0     O57968   5.613   6.072   4.169 -0.0777 -0.0530 -0.2742
  421MOL0     C57969   5.494   6.144   4.191  0.2331  0.4360 -0.0126
  421MOL0     C57970   5.412   6.089   4.304 -0.2822 -0.1139  0.0879
  421MOL0     C57971   5.266   6.142   4.327 -0.3557 -0.5043  0.5920
  421MOL0     C57972   5.250   6.279   4.385  0.2533 -0.0925 -0.8585
  421MOL0     C57973   5.097   6.318   4.388 -0.2655  0.8244  0.4641
  421MOL0     C57974   5.009   6.242   4.484  0.1300  0.2190  0.0977
  421MOL0     C57975   4.869   6.290   4.467 -1.0732  0.0301 -0.8396
  421MOL0     C57976   4.811   6.260   4.331 -0.7450 -0.3328  0.2604
  421MOL0     N57977   4.801   6.120   4.301  0.1213 -1.3392  0.1859
  421MOL0     C57978   4.880   6.063   4.209  0.0911 -0.2781  0.0574
  421MOL0     C57979   4.848   5.927   4.231  0.7749  0.0363  0.1251
  421MOL0     C57980   4.904   5.812   4.161  0.2679 -0.4150  0.3451
  421MOL0     C57981   4.875   5.809   4.022  0.1414 -0.2837  0.6537
  421MOL0     C57982   4.733   5.750   3.993 -0.2754 -0.5509  0.2750
  421MOL0     C57983   4.726   5.670   3.859 -0.1923  0.3413  0.6009
  421MOL0     O57984   4.808   5.548   3.854 -0.0831 -0.0695 -0.0660
  421MOL0     C57985   4.879   5.504   3.746  0.9579 -0.0300  0.2634
  421MOL0     C57986   4.978   5.413   3.765  0.7749  0.5833  0.6806
  421MOL0     C57987   5.050   5.363   3.650  0.0494  0.1949 -0.2760
  421MOL0     C57988   5.161   5.270   3.688 -0.6669  0.0627 -0.0434
  421MOL0     C57989   5.033   5.412   3.517 -0.0981  0.5149 -0.7574
  421MOL0     C57990   5.093   5.337   3.406  0.2548  0.4295 -0.1046
  421MOL0     O57991   5.112   5.201   3.406 -0.8450  0.3578  0.3832
  421MOL0     C57992   5.184   5.151   3.305 -0.6859 -0.4440 -0.5532
  421MOL0     C57993   5.319   5.185   3.284 -0.5334 -0.1855 -0.8521
  421MOL0     C57994   5.392   5.137   3.176  0.3703 -0.9893  0.2951
  421MOL0     C57995   5.330   5.050   3.087  0.5145 -0.6386  0.3622
  421MOL0     O57996   5.382   4.997   2.974 -0.1014  0.0967 -0.3536
  421MOL0     C57997   5.481   5.066   2.895 -0.0209 -0.1617  0.5626
  421MOL0     C57998   5.425   5.204   2.843  0.0064 -0.1716  0.1990
  421MOL0     C57999   5.450   5.222   2.694 -0.0796  0.0677  0.4850
  421MOL0     C58000   5.538   5.343   2.672 -0.2129  0.9498  0.4368
  421MOL0     C58001   5.569   5.365   2.526 -0.0035  0.4132  0.0108
  421MOL0     C58002   5.702   5.447   2.500 -1.1308 -0.0391 -0.6366
  421MOL0     C58003   5.791   5.403   2.385  0.1606  0.0393  0.5965
  421MOL0     C58004   5.754   5.456   2.246  0.5148 -0.8154  0.0136
  421MOL0    Cl58005   5.777   5.633   2.231 -0.3187 -0.4904 -0.1078
  421MOL0     C58006   5.204   5.009   3.119  0.2597 -0.1715  1.1057
  421MOL0     C58007   5.120   5.055   3.220 -0.4493 -0.2310  0.1246
  421MOL0     O58008   5.135   5.414   3.313  0.1839  0.4453 -0.0927
  421MOL0     C58009   4.931   5.517   3.505  0.3181 -0.5013  0.3286
  421MOL0     C58010   4.852   5.552   3.614 -0.6580 -0.0197  0.4718
  421MOL0     N58011   4.755   5.916   4.335 -0.3217 -1.0299  0.7568
  421MOL0     N58012   4.733   6.037   4.382 -0.2631 -0.4738 -0.1686
  421MOL0     C58013   5.620   6.156   3.930 -0.5161 -0.5960  0.1828
  421MOL0     C58014   5.673   6.126   3.796  0.4320  0.0560  0.0898
  421MOL0     C58015   5.764   5.960   3.396 -0.2621 -0.3192 -1.1389
  421MOL0     C58016   5.906   5.933   3.381 -0.2463  0.8218  0.1747
  421MOL0     C58017   5.961   5.897   3.256 -0.2420 -0.8446 -0.6838
  421MOL0     C58018   5.884   5.909   3.136  0.0376 -0.4560 -0.6364
  421MOL0     O58019   5.933   5.887   3.010 -0.4253 -0.3038  0.3628
  421MOL0     C58020   5.920   5.994   2.916 -0.4935 -0.4538  0.4465
  421MOL0     C58021   6.029   5.979   2.813 -0.8976  0.1914  0.5978
  421MOL0     C58022   6.005   5.865   2.719  0.6001  0.3944  0.0546
  421MOL0     C58023   6.125   5.839   2.629  0.4749  0.1189  0.4522
  421MOL0     C58024   6.089   5.740   2.523  0.9632  0.2095  0.5146
  421MOL0     C58025   6.063   5.654   2.446  0.5511 -0.7212  0.7615
  421MOL0     C58026   5.750   5.950   3.149 -0.7674 -0.8023 -0.2241
  421MOL0     C58027   5.688   5.980   3.280  0.3514 -0.4199  0.7705
  421MOL0     C58028   5.544   6.021   3.275 -0.4142  0.4417 -0.5539
  421MOL0     H58029   5.832   5.837   3.867  0.4606  0.2800  1.2682
  421MOL0     H58030   5.749   5.871   4.076 -1.4085 -3.1650 -3.1630
  421MOL0     H58031   5.437   6.165   4.100  0.9266  6.9565  0.5548
  421MOL0     H58032   5.537   6.239   4.223 -1.0652  1.1619 -0.3425
  421MOL0     H58033   5.395   5.982   4.291 -0.4020  0.0439 -1.2652
  421MOL0     H58034   5.458   6.101   4.402  1.4330 -0.2580 -0.6573
  421MOL0     H58035   5.224   6.136   4.226  2.0413 -0.6342 -0.4640
  421MOL0     H58036   5.213   6.069   4.389 -0.7555 -0.3135  0.4758
  421MOL0     H58037   5.300   6.269   4.482 -1.1632 -0.2934 -0.1152
  421MOL0     H58038   5.309   6.340   4.316  1.2431 -0.5437 -0.4319
  421MOL0     H58039   5.062   6.302   4.286  0.6062 -1.1437  0.4250
  421MOL0     H58040   5.092   6.426   4.401  1.0944  0.9585 -0.0430
  421MOL0     H58041   5.022   6.135   4.463  2.5298  0.4743 -0.0441
  421MOL0     H58042   5.048   6.248   4.586  0.3563  1.1819 -0.0373
  421MOL0     H58043   4.866   6.397   4.488 -3.9684 -0.4271  1.9079
  421MOL0     H58044   4.806   6.237   4.539  1.4274 -0.6166  1.0170
  421MOL0     H58045   4.711   6.305   4.333 -0.7721 -0.4163  0.9021
  421MOL0     H58046   4.852   6.322   4.251  1.2902 -2.7711 -0.6997
  421MOL0     H58047   4.941   6.122   4.141  3.7418 -2.5764  1.0307
  421MOL0     H58048   4.875   5.718   4.208  0.3150 -1.0994 -0.9295
  421MOL0     H58049   5.013   5.821   4.164  0.2241  2.1217 -1.8448
  421MOL0     H58050   4.880   5.907   3.975  1.5862 -0.6581 -0.0263
  421MOL0     H58051   4.953   5.754   3.968 -2.8502  0.1527 -4.7800
  421MOL0     H58052   4.709   5.681   4.074 -1.7097  0.5783  0.8531
  421MOL0     H58053   4.659   5.830   3.996 -2.1347 -2.2374  1.5409
  421MOL0     H58054   4.624   5.630   3.851  0.2778 -0.6827 -0.8707
  421MOL0     H58055   4.742   5.742   3.778  0.2182  0.1124  0.4738
  421MOL0     H58056   5.008   5.391   3.867  1.7636  0.2044  0.3213
  421MOL0     H58057   5.116   5.174   3.716 -0.5773 -0.2232 -0.8440
  421MOL0     H58058   5.210   5.311   3.777  0.2900  0.1749 -0.6005
  421MOL0     H58059   5.227   5.269   3.600 -0.5287  1.3930  0.0378
  421MOL0     H58060   5.372   5.258   3.344  0.2248 -1.4084  0.0199
  421MOL0     H58061   5.490   5.181   3.162 -0.5269  0.2033 -3.2816
  421MOL0     H58062   5.573   5.079   2.953  1.3318 -0.5166 -1.4237
  421MOL0     H58063   5.508   4.994   2.817  0.1173  0.2645  0.2156
  421MOL0     H58064   5.318   5.208   2.861  0.0459 -1.7305  0.9437
  421MOL0     H58065   5.467   5.291   2.895 -1.2782 -1.3600  3.4754
  421MOL0     H58066   5.363   5.243   2.631  0.7278  0.0432 -0.6884
  421MOL0     H58067   5.499   5.130   2.663 -1.3179 -1.2692  2.3263
  421MOL0     H58068   5.633   5.326   2.724  0.3570  2.3269 -0.1228
  421MOL0     H58069   5.508   5.436   2.720 -0.8845  0.4674  0.9650
  421MOL0     H58070   5.598   5.270   2.480  1.1134  1.0875 -0.7568
  421MOL0     H58071   5.486   5.416   2.477  0.0637  1.2799  0.7680
  421MOL0     H58072   5.768   5.429   2.586 -3.3717 -0.0079  1.1646
  421MOL0     H58073   5.681   5.554   2.504 -0.8245 -0.0152  2.2399
  421MOL0     H58074   5.782   5.294   2.389  0.7551 -0.0279  0.1843
  421MOL0     H58075   5.890   5.434   2.418 -1.3328  3.4644  2.3840
  421MOL0     H58076   5.650   5.433   2.221  0.4764  0.2914 -0.9226
  421MOL0     H58077   5.828   5.410   2.179  0.6329  0.2816 -0.6462
  421MOL0     H58078   5.159   4.936   3.054  1.0908  0.1326  0.1577
  421MOL0     H58079   5.019   5.022   3.242 -0.5862 -0.4821 -0.8483
  421MOL0     H58080   4.905   5.558   3.408 -3.6079  1.6271  2.0848
  421MOL0     H58081   4.779   5.631   3.598 -0.3278  0.3999  0.9821
  421MOL0     H58082   5.567   6.241   3.972  1.8330  0.3395  1.5090
  421MOL0     H58083   5.665   6.190   3.709 -0.1002 -1.7678 -1.2708
  421MOL0     H58084   5.967   5.916   3.469  1.1161  0.5170 -0.7817
  421MOL0     H58085   6.062   5.857   3.251  0.2810  0.2673  0.5445
  421MOL0     H58086   5.819   5.989   2.873 -1.4988  2.3236  2.2080
  421MOL0     H58087   5.929   6.086   2.973  0.8732 -1.2621  1.5867
  421MOL0     H58088   6.121   5.969   2.872 -0.0720  1.1642 -0.4905
  421MOL0     H58089   6.033   6.071   2.755  0.5532  1.0537  1.9636
  421MOL0     H58090   5.995   5.772   2.776  0.2220 -0.7223 -1.7399
  421MOL0     H58091   5.920   5.887   2.654  0.9792  1.8768  0.0259
  421MOL0     H58092   6.215   5.810   2.684  2.1861  3.5937 -0.2684
  421MOL0     H58093   6.141   5.937   2.584 -1.4876  0.1858 -0.2030
  421MOL0     H58094   6.030   5.567   2.393 -1.6363  0.8128 -0.5607
  421MOL0     H58095   5.695   5.957   3.056 -0.8572 -4.3276 -0.5904
  421MOL0     H58096   5.473   5.958   3.328 -0.9405  0.3194 -1.3948
  421MOL0     H58097   5.531   6.128   3.294 -5.2822  0.2464 -1.7243
  421MOL0     H58098   5.513   6.009   3.171  2.2164 -4.0193 -1.1188
  422MOL0     O58099   3.491   2.552   3.100  0.4558 -0.0903  0.1968
  422MOL0     C58100   3.483   2.677   3.111  0.3368 -0.7919  0.8816
  422MOL0     O58101   3.426   2.757   3.017  0.0045  0.0949  0.2868
  422MOL0     C58102   3.429   2.712   2.893  0.6842 -0.0951  0.9415
  422MOL0     C58103   3.316   2.659   2.832  0.3587  0.2996  0.2873
  422MOL0     C58104   3.325   2.583   2.713 -0.5764 -0.0009  0.2662
  422MOL0     C58105   3.444   2.586   2.640 -0.7651 -0.0410  0.7277
  422MOL0     O58106   3.442   2.524   2.523  0.1327  0.5770  1.0332
  422MOL0     C58107   3.569   2.500   2.463 -0.6061  0.2327  0.4600
  422MOL0     C58108   3.563   2.401   2.344  0.8216  0.3008  0.2785
  422MOL0     C58109   3.644   2.276   2.368 -0.2157  0.0659 -0.5873
  422MOL0     C58110   3.607   2.177   2.255  0.9729 -0.6815  0.4659
  422MOL0     C58111   3.627   2.025   2.299  0.2804 -0.3536  0.5146
  422MOL0     C58112   3.491   1.957   2.320  0.5377 -0.0772  0.6829
  422MOL0     C58113   3.513   1.814   2.360 -0.3419  0.1327  0.5547
  422MOL0     C58114   3.382   1.725   2.354 -0.3569 -0.8419 -0.5169
  422MOL0     N58115   3.339   1.674   2.224  1.1094 -0.4328 -0.5442
  422MOL0     C58116   3.413   1.595   2.141  0.8363 -0.4574  1.3737
  422MOL0     C58117   3.319   1.520   2.070  0.0287 -0.2399  0.6600
  422MOL0     C58118   3.347   1.401   1.988  0.3623  0.1734  0.0996
  422MOL0     C58119   3.389   1.295   2.084  0.1097 -0.2758 -0.4646
  422MOL0     C58120   3.373   1.155   2.035 -0.1604  0.6640  0.1228
  422MOL0     C58121   3.476   1.061   2.106 -0.8292  0.2562  0.2869
  422MOL0     O58122   3.465   1.079   2.245 -0.0319  0.5316  0.0468
  422MOL0     C58123   3.533   0.999   2.326  0.4454 -0.5839 -0.6627
  422MOL0     C58124   3.469   0.981   2.449 -0.4282 -1.4110  0.5257
  422MOL0     C58125   3.521   0.899   2.543 -1.0606  0.1654  0.2759
  422MOL0     C58126   3.440   0.897   2.668  0.2171 -0.0415 -0.0333
  422MOL0     C58127   3.644   0.835   2.515 -0.4520  0.2489  0.1021
  422MOL0     C58128   3.716   0.743   2.615  0.1654 -0.7091  0.4988
  422MOL0     O58129   3.847   0.719   2.581 -0.1961 -0.2573 -0.2434
  422MOL0     C58130   3.934   0.665   2.677  0.1737  0.1592  0.5130
  422MOL0     C58131   4.030   0.747   2.744 -0.1891 -0.3432  0.0641
  422MOL0     C58132   4.124   0.678   2.819 -0.2982  0.0201  0.3500
  422MOL0     C58133   4.127   0.543   2.847 -0.0685  0.3018 -0.5314
  422MOL0     O58134   4.223   0.491   2.933  0.5380 -0.1627  0.6777
  422MOL0     C58135   4.261   0.362   2.902  0.2584 -0.6153  0.0869
  422MOL0     C58136   4.401   0.347   2.969  0.2561  0.0624 -0.5564
  422MOL0     C58137   4.492   0.476   2.963  0.1199  0.0935  0.6482
  422MOL0     C58138   4.544   0.504   2.819  0.4363 -0.0147  0.0786
  422MOL0     C58139   4.676   0.580   2.826  0.2360 -1.0168 -0.4302
  422MOL0     C58140   4.679   0.700   2.913  0.9038  0.2723 -0.2490
  422MOL0     C58141   4.591   0.812   2.863  0.3916  0.3277 -0.0852
  422MOL0     C58142   4.642   0.881   2.732 -0.3525  1.2632 -0.2490
  422MOL0    Cl58143   4.798   0.975   2.752 -0.3607 -0.5290  0.4416
  422MOL0     C58144   4.022   0.469   2.790  0.3610  0.4312  0.2548
  422MOL0     C58145   3.942   0.526   2.695  0.4857 -1.0513  0.5629
  422MOL0     O58146   3.668   0.717   2.722  0.2356  0.0217 -0.3250
  422MOL0     C58147   3.710   0.856   2.395  0.3729  0.0492  0.6096
  422MOL0     C58148   3.651   0.926   2.292 -0.0195 -0.3284 -0.1148
  422MOL0     N58149   3.194   1.556   2.109 -0.0078  0.2427 -0.9312
  422MOL0     N58150   3.207   1.647   2.207  0.1451  1.4467 -0.0517
  422MOL0     C58151   3.558   2.647   2.696  0.4623 -0.2750  0.7292
  422MOL0     C58152   3.550   2.712   2.827 -0.6900  0.5358  1.1565
  422MOL0     C58153   3.533   2.731   3.238 -0.0720 -0.0237 -0.0268
  422MOL0     C58154   3.611   2.649   3.330  0.8795  0.0320  1.4289
  422MOL0     C58155   3.650   2.700   3.453  0.2413  0.9819 -0.4140
  422MOL0     C58156   3.617   2.826   3.496 -0.6387  0.0165 -0.0609
  422MOL0     O58157   3.641   2.859   3.633  0.0532  0.3206 -0.3345
  422MOL0     C58158   3.574   2.969   3.700  0.3504 -0.9534 -0.8482
  422MOL0     C58159   3.428   2.949   3.722  0.6401 -0.4328  0.2808
  422MOL0     C58160   3.387   2.810   3.772  0.0117 -0.4954  0.2519
  422MOL0     C58161   3.236   2.789   3.770 -0.0216  1.3111 -0.7876
  422MOL0     C58162   3.205   2.651   3.825 -0.0106 -0.9842  0.2346
  422MOL0     C58163   3.176   2.544   3.872  0.6395 -0.6373 -1.2872
  422MOL0     C58164   3.551   2.905   3.402  0.2147 -0.2576 -0.3525
  422MOL0     C58165   3.506   2.861   3.279 -0.3938  0.6066 -0.6135
  422MOL0     C58166   3.425   2.960   3.205 -0.4155 -1.1420  0.0311
  422MOL0     H58167   3.215   2.669   2.871 -0.1807 -1.3134 -0.6114
  422MOL0     H58168   3.242   2.519   2.685 -0.0961 -0.5581  0.0967
  422MOL0     H58169   3.641   2.458   2.535 -1.0235 -2.4568 -0.5757
  422MOL0     H58170   3.607   2.598   2.431  2.1833 -0.6648  0.7617
  422MOL0     H58171   3.456   2.385   2.327  0.4599  4.0461 -2.2658
  422MOL0     H58172   3.585   2.458   2.253 -0.8315  1.9187  0.8100
  422MOL0     H58173   3.750   2.301   2.377 -0.3868  1.0558 -1.2074
  422MOL0     H58174   3.615   2.221   2.458 -0.8193 -2.3533 -2.1539
  422MOL0     H58175   3.500   2.191   2.240  0.9094 -1.6764 -0.0883
  422MOL0     H58176   3.666   2.202   2.166  2.5047  0.6106  1.7872
  422MOL0     H58177   3.683   2.015   2.392  1.7115  0.3365 -0.2354
  422MOL0     H58178   3.673   1.976   2.212 -1.8354  1.2620 -1.6532
  422MOL0     H58179   3.431   2.009   2.395  0.7429  3.0031 -1.1256
  422MOL0     H58180   3.433   1.953   2.227  0.7710 -1.5129  0.5668
  422MOL0     H58181   3.550   1.822   2.462 -1.2621  0.6540  0.8532
  422MOL0     H58182   3.593   1.776   2.295 -1.8631 -0.1613 -1.2485
  422MOL0     H58183   3.403   1.637   2.415  1.2999  1.0070  1.8099
  422MOL0     H58184   3.295   1.781   2.390  0.3070 -1.1354  1.7073
  422MOL0     H58185   3.520   1.581   2.137  1.0363  1.1187 -2.1512
  422MOL0     H58186   3.421   1.420   1.910  2.3717 -2.2325  1.2437
  422MOL0     H58187   3.250   1.374   1.945 -1.8404  2.6482  3.0250
  422MOL0     H58188   3.496   1.315   2.097  0.4289 -0.1147 -2.9052
  422MOL0     H58189   3.340   1.309   2.181 -0.2533  1.4354 -0.8659
  422MOL0     H58190   3.274   1.112   2.054 -0.8997  2.4816  0.5067
  422MOL0     H58191   3.393   1.143   1.928 -4.7141  1.9030 -1.0904
  422MOL0     H58192   3.453   0.955   2.089  1.6234 -0.7854  2.5785
  422MOL0     H58193   3.578   1.071   2.067 -0.5357 -1.5824  0.4956
  422MOL0     H58194   3.378   1.037   2.467 -0.9231 -1.2453 -2.0639
  422MOL0     H58195   3.501   0.951   2.741  0.0439 -0.8251  0.7128
  422MOL0     H58196   3.425   0.795   2.705 -0.9884 -0.6325 -1.9992
  422MOL0     H58197   3.343   0.947   2.661 -0.2731 -0.6405  1.8575
  422MOL0     H58198   4.041   0.854   2.730  1.6927 -0.6166 -0.8048
  422MOL0     H58199   4.206   0.741   2.852  0.9839 -1.3957 -0.0238
  422MOL0     H58200   4.200   0.288   2.954 -0.1324 -0.8556 -0.6976
  422MOL0     H58201   4.264   0.355   2.792 -0.8612  1.5571 -0.1404
  422MOL0     H58202   4.372   0.326   3.073  0.9548  0.5241 -0.2553
  422MOL0     H58203   4.456   0.259   2.935 -0.2464 -1.0681  1.3772
  422MOL0     H58204   4.575   0.438   3.024 -0.3046 -0.5766  0.8151
  422MOL0     H58205   4.443   0.562   3.009  0.9094  0.9809 -0.1322
  422MOL0     H58206   4.465   0.565   2.773 -1.0227 -1.0423  1.1155
  422MOL0     H58207   4.544   0.411   2.762  2.9027  0.5537 -0.9538
  422MOL0     H58208   4.760   0.515   2.853  1.8632  0.7590 -1.0794
  422MOL0     H58209   4.699   0.619   2.727  1.2530  0.3185  0.2953
  422MOL0     H58210   4.783   0.732   2.917  3.0836 -5.2498 -2.3148
  422MOL0     H58211   4.654   0.672   3.016  1.8805 -4.3238 -1.0416
  422MOL0     H58212   4.591   0.879   2.948  0.4524 -0.8242  0.8527
  422MOL0     H58213   4.491   0.769   2.850  0.8101 -2.0755  3.1925
  422MOL0     H58214   4.571   0.959   2.702  1.7182  3.8291  1.1506
  422MOL0     H58215   4.637   0.795   2.665  0.4006 -2.4862  4.0297
  422MOL0     H58216   4.010   0.363   2.811 -1.0744  0.6108  0.4674
  422MOL0     H58217   3.876   0.461   2.638 -1.0806  0.9695 -0.0420
  422MOL0     H58218   3.798   0.794   2.380  0.1901  0.0028 -0.3394
  422MOL0     H58219   3.702   0.922   2.196 -0.6288  0.5540 -0.4881
  422MOL0     H58220   3.662   2.650   2.665  0.1208  0.9716 -0.3796
  422MOL0     H58221   3.645   2.749   2.865  0.2332 -0.1643 -0.3827
  422MOL0     H58222   3.625   2.542   3.320 -0.2270 -0.0111  0.0309
  422MOL0     H58223   3.691   2.636   3.530 -1.1687  0.3919 -0.1339
  422MOL0     H58224   3.614   2.989   3.800  2.2560 -3.8991 -0.8824
  422MOL0     H58225   3.590   3.063   3.645  2.4912 -0.0093  1.2278
  422MOL0     H58226   3.377   2.979   3.630 -1.3805 -0.0200  1.4788
  422MOL0     H58227   3.397   3.015   3.804  4.5705 -1.4506  2.8562
  422MOL0     H58228   3.432   2.737   3.705 -1.4298 -0.8327 -0.4016
  422MOL0     H58229   3.437   2.789   3.867 -1.8188 -1.8323  0.9966
  422MOL0     H58230   3.193   2.780   3.670  0.4793  1.5861 -1.0305
  422MOL0     H58231   3.177   2.853   3.836 -1.0920 -1.5144  1.1673
  422MOL0     H58232   3.166   2.449   3.922  1.0944  0.0384  0.1447
  422MOL0     H58233   3.539   3.011   3.424 -3.6144 -0.0655 -2.4298
  422MOL0     H58234   3.472   2.974   3.107 -0.8622  0.3894  0.0246
  422MOL0     H58235   3.329   2.915   3.181  1.0581 -2.5835 -3.9973
  422MOL0     H58236   3.416   3.056   3.256 -0.8676 -1.2164  0.0884
  423MOL0     O58237  11.477   9.161   8.106  0.1429  0.3815 -0.7204
  423MOL0     C58238  11.487   9.230   8.005 -0.7345 -0.9677 -0.2631
  423MOL0     O58239  11.553   9.354   7.989  0.1254  0.4638 -0.1222
  423MOL0     C58240  11.663   9.392   8.073  0.3819  0.7760 -0.2275
  423MOL0     C58241  11.752   9.301   8.143  0.6689  0.0875 -0.5070
  423MOL0     C58242  11.855   9.369   8.209  0.1917 -1.2685  0.6158
  423MOL0     C58243  11.861   9.503   8.234 -0.7995  0.0371 -0.4578
  423MOL0     O58244  11.943   9.577   8.321 -0.3914  0.1432  0.5486
  423MOL0     C58245  12.047   9.500   8.378 -0.0224  0.8958  0.5008
  423MOL0     C58246  12.115   9.587   8.484 -0.0909  0.2884  0.1426
  423MOL0     C58247  12.234   9.507   8.547  0.2923  0.3829  0.4138
  423MOL0     C58248  12.319   9.593   8.638 -0.1895  0.1937  0.6609
  423MOL0     C58249  12.419   9.496   8.719 -0.7354 -0.3912 -0.3272
  423MOL0     C58250  12.499   9.583   8.825  0.0635  0.1174  0.4037
  423MOL0     C58251  12.588   9.496   8.908  0.3483  0.9756 -1.3521
  423MOL0     C58252  12.667   9.554   9.029 -0.1532 -0.9653  0.0114
  423MOL0     N58253  12.569   9.588   9.134  0.5685 -0.1321  0.3203
  423MOL0     C58254  12.514   9.495   9.212  0.5014  0.3158 -0.3024
  423MOL0     C58255  12.466   9.565   9.321  0.2105 -0.3846  0.0530
  423MOL0     C58256  12.416   9.493   9.445 -0.3874 -0.0065  0.3124
  423MOL0     C58257  12.258   9.474   9.443 -0.8829 -0.1652 -0.5070
  423MOL0     C58258  12.213   9.382   9.564  0.7607 -0.1433 -0.0106
  423MOL0     C58259  12.080   9.317   9.551  0.8427  0.9627 -0.1856
  423MOL0     O58260  12.045   9.258   9.680  1.0748 -0.2309  0.5619
  423MOL0     C58261  12.038   9.125   9.710  0.4686 -0.4192 -0.0764
  423MOL0     C58262  12.042   9.094   9.843 -0.1642 -0.2499 -0.4831
  423MOL0     C58263  12.026   8.967   9.889 -0.5363 -0.1163 -1.2068
  423MOL0     C58264  12.035   8.947  10.041  0.4788 -0.7558  0.1838
  423MOL0     C58265  11.992   8.858   9.800 -0.6992 -0.5072 -0.1564
  423MOL0     C58266  11.968   8.717   9.843 -0.4357  0.0109 -0.2505
  423MOL0     O58267  11.930   8.622   9.751 -0.2236  0.2375  0.9143
  423MOL0     C58268  11.867   8.509   9.787  0.3216  0.8372  0.2629
  423MOL0     C58269  11.939   8.404   9.844 -0.3050  0.4322 -0.0582
  423MOL0     C58270  11.878   8.279   9.875 -1.4194 -0.4301  0.5054
  423MOL0     C58271  11.741   8.254   9.851 -0.4629  0.0836  0.3755
  423MOL0     O58272  11.682   8.131   9.882 -0.3534  0.3434 -0.2850
  423MOL0     C58273  11.533   8.120   9.889 -0.0745 -0.5328  0.5898
  423MOL0     C58274  11.489   7.983   9.936 -0.7191  0.1860 -0.6258
  423MOL0     C58275  11.515   7.868   9.835  0.9474  0.0649 -0.1662
  423MOL0     C58276  11.662   7.831   9.816  0.0014 -0.2981 -0.5760
  423MOL0     C58277  11.692   7.705   9.727 -0.7675 -0.2949  0.3664
  423MOL0     C58278  11.829   7.639   9.764 -1.1244 -0.9532  1.4620
  423MOL0     C58279  11.884   7.544   9.662 -1.0784  0.4939  0.5044
  423MOL0     C58280  11.998   7.469   9.731 -0.0617  0.8024  0.5328
  423MOL0    Cl58281  12.121   7.590   9.782 -0.3572  0.0704 -0.1663
  423MOL0     C58282  11.667   8.356   9.786 -0.3160 -0.0321  0.4030
  423MOL0     C58283  11.737   8.475   9.742 -0.1699 -0.6679 -0.3732
  423MOL0     O58284  11.989   8.686   9.958  0.4473 -0.1944 -0.6594
  423MOL0     C58285  11.999   8.889   9.664 -0.2317  0.8328  0.4277
  423MOL0     C58286  12.017   9.020   9.613 -0.6017  0.0391 -0.0822
  423MOL0     N58287  12.483   9.697   9.301  0.1848  0.5058 -0.0738
  423MOL0     N58288  12.553   9.712   9.190  0.4609  0.3647 -0.0112
  423MOL0     C58289  11.776   9.583   8.168  0.0494 -0.6257 -0.1488
  423MOL0     C58290  11.687   9.532   8.082  0.5860 -0.3492  0.5035
  423MOL0     C58291  11.387   9.204   7.899 -0.7622  0.6613 -0.1550
  423MOL0     C58292  11.291   9.291   7.861 -0.2845  0.0677 -0.5678
  423MOL0     C58293  11.203   9.267   7.753 -0.4328 -0.6620 -0.1740
  423MOL0     C58294  11.205   9.147   7.686 -0.8745 -0.0187  0.6657
  423MOL0     O58295  11.119   9.098   7.582 -0.5039  0.2614 -1.4803
  423MOL0     C58296  11.040   9.197   7.519  0.0719  0.3885  0.1522
  423MOL0     C58297  10.971   9.124   7.410 -0.6878 -0.0969 -0.0291
  423MOL0     C58298  10.845   9.194   7.368 -0.3631  0.0501  0.3704
  423MOL0     C58299  10.795   9.127   7.239 -1.0997 -0.6041 -0.3437
  423MOL0     C58300  10.667   9.182   7.196 -0.3451 -0.2511  0.1406
  423MOL0     C58301  10.560   9.230   7.166 -0.4698  0.8671 -0.2996
  423MOL0     C58302  11.302   9.055   7.721 -0.1033  0.9504 -0.7319
  423MOL0     C58303  11.390   9.080   7.833 -0.3981  0.6480  0.0822
  423MOL0     C58304  11.481   8.961   7.871  0.1622 -0.7646  0.8041
  423MOL0     H58305  11.760   9.193   8.134  2.7649  0.0035  1.4834
  423MOL0     H58306  11.935   9.309   8.251 -1.9683 -2.9576  2.5850
  423MOL0     H58307  12.111   9.458   8.300 -1.4055 -3.1764  1.3023
  423MOL0     H58308  12.000   9.412   8.423  0.2616  0.2174 -0.4942
  423MOL0     H58309  12.150   9.685   8.450  1.9920  0.9008  3.5141
  423MOL0     H58310  12.040   9.610   8.561 -0.9688  1.1183 -0.9212
  423MOL0     H58311  12.199   9.425   8.611  1.7473 -0.3373  0.3317
  423MOL0     H58312  12.287   9.451   8.469  0.7081  2.0326 -0.5388
  423MOL0     H58313  12.371   9.665   8.575 -2.1526  0.6162 -0.5680
  423MOL0     H58314  12.255   9.647   8.709 -1.5262  0.0625 -0.4093
  423MOL0     H58315  12.490   9.455   8.647  2.9497  3.1425  0.8899
  423MOL0     H58316  12.362   9.418   8.770  1.8014 -0.3323  3.0053
  423MOL0     H58317  12.564   9.662   8.784  1.1630  0.2379  2.2614
  423MOL0     H58318  12.430   9.640   8.888 -0.4385  2.6706 -2.2312
  423MOL0     H58319  12.649   9.449   8.829  0.3944 -0.6633 -0.3970
  423MOL0     H58320  12.524   9.416   8.947  4.6968 -1.5861  1.4585
  423MOL0     H58321  12.745   9.483   9.058  0.3606 -0.3590  0.1437
  423MOL0     H58322  12.711   9.648   8.996 -0.4943 -0.1611  1.7397
  423MOL0     H58323  12.513   9.387   9.206  1.9438 -0.1118  3.7867
  423MOL0     H58324  12.453   9.546   9.533  2.0240 -1.4359  0.2504
  423MOL0     H58325  12.473   9.400   9.449 -1.3687 -0.7382 -1.3832
  423MOL0     H58326  12.209   9.572   9.453  1.1445  0.9295 -0.6162
  423MOL0     H58327  12.235   9.419   9.351  0.7548 -0.6585 -0.6528
  423MOL0     H58328  12.276   9.293   9.574  1.0615 -0.0224 -0.8059
  423MOL0     H58329  12.228   9.422   9.665  4.0286 -0.3331 -0.2951
  423MOL0     H58330  12.004   9.385   9.511 -1.6935 -1.5804 -0.0032
  423MOL0     H58331  12.098   9.244   9.472  1.9045  0.1379  0.7866
  423MOL0     H58332  12.076   9.171   9.912  2.1788 -0.6403 -1.1378
  423MOL0     H58333  12.103   8.865  10.065 -0.2939 -0.5058  3.9576
  423MOL0     H58334  11.936   8.913  10.072  0.4429 -1.8105 -1.0082
  423MOL0     H58335  12.057   9.039  10.096 -0.0291  0.3887 -1.4870
  423MOL0     H58336  12.044   8.429   9.858 -0.4467  1.1136 -0.2208
  423MOL0     H58337  11.941   8.199   9.914  1.5521  1.6793  0.4196
  423MOL0     H58338  11.500   8.199   9.956  1.6050 -1.6468  2.8868
  423MOL0     H58339  11.495   8.140   9.788 -0.5236  3.6978  1.4195
  423MOL0     H58340  11.535   7.951  10.029 -1.1648  1.2001 -0.0394
  423MOL0     H58341  11.382   7.997   9.954 -0.0730  4.5883  0.9496
  423MOL0     H58342  11.466   7.896   9.742 -0.0378  0.9366  0.5815
  423MOL0     H58343  11.477   7.770   9.865  2.2163 -0.7355 -1.0896
  423MOL0     H58344  11.700   7.813   9.917 -0.6389  2.3267  0.2336
  423MOL0     H58345  11.709   7.912   9.759  0.3293 -0.1743 -0.1343
  423MOL0     H58346  11.622   7.626   9.755  0.2191 -1.2892  0.0841
  423MOL0     H58347  11.682   7.721   9.619  0.3368 -3.4214 -0.2960
  423MOL0     H58348  11.820   7.582   9.857  2.5974 -1.8222  1.4460
  423MOL0     H58349  11.903   7.717   9.787 -0.9317  0.7508 -3.6129
  423MOL0     H58350  11.915   7.600   9.573 -1.8520  1.2263  0.6834
  423MOL0     H58351  11.811   7.471   9.627  1.7031 -2.3047  0.0547
  423MOL0     H58352  12.047   7.405   9.656  0.3021  2.8803 -1.0968
  423MOL0     H58353  11.963   7.401   9.809  0.7756  0.7383  0.8616
  423MOL0     H58354  11.561   8.352   9.764  0.1513 -0.5115 -2.0462
  423MOL0     H58355  11.697   8.549   9.673  1.8324  0.0841 -0.7964
  423MOL0     H58356  11.988   8.814   9.587  1.2830  1.5482 -0.5386
  423MOL0     H58357  12.003   9.028   9.506 -0.0411  2.7780 -0.0118
  423MOL0     H58358  11.791   9.690   8.176 -0.4269 -0.5260 -0.5616
  423MOL0     H58359  11.623   9.602   8.029 -1.8100 -2.5610  0.2808
  423MOL0     H58360  11.288   9.389   7.907 -1.3953 -0.5771  0.7863
  423MOL0     H58361  11.133   9.347   7.729  1.8088  0.7741 -2.4281
  423MOL0     H58362  10.968   9.242   7.589 -0.4845 -1.8842  1.1328
  423MOL0     H58363  11.104   9.275   7.478  1.9293 -0.6874  0.8668
  423MOL0     H58364  10.932   9.032   7.454  1.0493 -1.3210 -0.9056
  423MOL0     H58365  11.045   9.109   7.332  1.1919  3.7352  0.7708
  423MOL0     H58366  10.770   9.179   7.445  1.9994 -4.8157  2.1644
  423MOL0     H58367  10.867   9.300   7.354 -1.2564  0.1231 -0.5851
  423MOL0     H58368  10.780   9.021   7.262  2.0817 -1.6063 -2.1667
  423MOL0     H58369  10.861   9.134   7.152 -1.8656  3.2006 -0.7752
  423MOL0     H58370  10.475   9.293   7.148  1.3823  2.6817 -3.6836
  423MOL0     H58371  11.294   8.961   7.667 -3.3830  0.2101  0.7635
  423MOL0     H58372  11.554   8.990   7.947  0.9074  0.9794 -0.5173
  423MOL0     H58373  11.418   8.878   7.905 -0.4240 -0.4863  0.4229
  423MOL0     H58374  11.534   8.923   7.783  0.8579 -0.9941  1.3123
  424MOL0     O58375   1.856   6.117  10.709  0.2078  0.2300 -0.1709
  424MOL0     C58376   1.908   6.010  10.676  0.5342 -0.4823 -0.6495
  424MOL0     O58377   1.873   5.945  10.567 -0.4320  0.8999 -0.3314
  424MOL0     C58378   1.759   5.978  10.506  0.8026 -0.2894  0.4653
  424MOL0     C58379   1.728   6.103  10.456  0.1395 -1.2385  0.0923
  424MOL0     C58380   1.605   6.133  10.397 -0.6529  0.2304  0.6038
  424MOL0     C58381   1.513   6.031  10.373 -0.3546 -0.4039  0.4215
  424MOL0     O58382   1.394   6.064  10.311  0.2545  0.5432  1.3006
  424MOL0     C58383   1.302   5.957  10.273  0.4365  0.4799 -0.1934
  424MOL0     C58384   1.183   6.008  10.211  0.3906  0.1343  0.1942
  424MOL0     C58385   1.099   6.090  10.311 -0.6378 -0.6111  0.7479
  424MOL0     C58386   1.031   6.005  10.414 -0.0423 -0.0820  0.1980
  424MOL0     C58387   0.965   6.079  10.523  0.1320 -0.2186 -0.0103
  424MOL0     C58388   0.911   6.001  10.634  0.9480  0.5376 -0.1875
  424MOL0     C58389   0.834   6.083  10.727 -0.0665 -0.3400  1.5712
  424MOL0     C58390   0.807   6.016  10.857  0.3929  0.1160  0.0372
  424MOL0     N58391   0.730   6.104  10.953  0.5493 -1.2741 -0.2543
  424MOL0     C58392   0.597   6.155  10.950  0.5176  0.7831  0.2986
  424MOL0     C58393   0.590   6.234  11.060 -0.8692 -0.4008  0.6088
  424MOL0     C58394   0.469   6.322  11.103  0.2455  0.2440  0.2366
  424MOL0     C58395   0.447   6.425  10.994 -0.0338  0.3381  0.7209
  424MOL0     C58396   0.380   6.539  11.058 -0.6938  1.0598 -0.8740
  424MOL0     C58397   0.365   6.662  10.976 -0.1538 -0.1341  0.4871
  424MOL0     O58398   0.246   6.734  10.997 -0.7209 -0.1255 -0.0736
  424MOL0     C58399   0.220   6.848  10.926  0.1310 -0.5777  0.1254
  424MOL0     C58400   0.101   6.909  10.963 -0.3617  0.7496  0.9720
  424MOL0     C58401   0.078   7.031  10.914 -0.3183 -0.5238 -0.2462
  424MOL0     C58402  -0.049   7.097  10.951  1.0451  0.0703  0.3744
  424MOL0     C58403   0.161   7.095  10.814  0.3454  0.5442 -0.2463
  424MOL0     C58404   0.141   7.230  10.755 -0.3479  0.2300 -0.0408
  424MOL0     O58405   0.191   7.247  10.632  0.1246 -0.6281 -0.2212
  424MOL0     C58406   0.147   7.368  10.570  0.7683  0.7109 -0.7687
  424MOL0     C58407   0.242   7.460  10.544 -0.3828  0.3539 -0.4878
  424MOL0     C58408   0.198   7.583  10.489  0.8694  0.3420 -0.5484
  424MOL0     C58409   0.062   7.602  10.457  0.0807 -0.2252  0.0256
  424MOL0     O58410   0.029   7.726  10.407  0.6257 -0.3332  1.1053
  424MOL0     C58411   0.017   7.830  10.509  0.7702  0.7221  0.5670
  424MOL0     C58412  -0.058   7.947  10.439 -0.2444 -0.3773  0.8801
  424MOL0     C58413  -0.212   7.930  10.434  0.8884 -0.6082  0.5525
  424MOL0     C58414  -0.256   8.017  10.316  0.3491 -0.5825 -0.0311
  424MOL0     C58415  -0.417   8.043  10.326  0.5645 -0.8278  0.0885
  424MOL0     C58416  -0.489   7.911  10.278 -0.1637  0.3406  0.2887
  424MOL0     C58417  -0.631   7.919  10.323  0.5010 -0.5741 -0.6417
  424MOL0     C58418  -0.725   7.800  10.302  1.1440 -0.7187  0.1244
  424MOL0    Cl58419  -0.644   7.645  10.328  0.0952 -0.1841  0.0960
  424MOL0     C58420  -0.029   7.496  10.470 -0.6303  0.7185  0.5786
  424MOL0     C58421   0.017   7.368  10.520  0.4880 -0.7255 -0.0193
  424MOL0     O58422   0.071   7.305  10.827 -0.7562  0.2098  0.1260
  424MOL0     C58423   0.277   7.023  10.774  0.0319 -0.1947 -0.1219
  424MOL0     C58424   0.310   6.900  10.836  0.5257  0.6403  0.4293
  424MOL0     N58425   0.717   6.242  11.121  1.2635 -0.1975  0.6842
  424MOL0     N58426   0.793   6.160  11.057 -0.7102 -0.5460  0.0330
  424MOL0     C58427   1.554   5.902  10.412 -0.4422 -0.1048  0.2248
  424MOL0     C58428   1.681   5.874  10.474 -0.9657 -0.5360  0.2200
  424MOL0     C58429   2.033   5.973  10.746 -0.7388 -0.3206 -0.5756
  424MOL0     C58430   2.124   5.887  10.682  0.2113  0.2628 -0.3249
  424MOL0     C58431   2.238   5.843  10.744 -0.3933 -0.5481 -0.3712
  424MOL0     C58432   2.262   5.879  10.876  0.8869  0.5463 -0.2585
  424MOL0     O58433   2.374   5.834  10.934  0.2189 -0.2629  0.5209
  424MOL0     C58434   2.380   5.809  11.075  0.6181 -0.5017  0.1144
  424MOL0     C58435   2.524   5.766  11.120 -0.2902  0.3443  0.2731
  424MOL0     C58436   2.552   5.620  11.075 -0.1725 -0.5549  0.7038
  424MOL0     C58437   2.692   5.586  11.106  0.1304  0.0124 -0.1965
  424MOL0     C58438   2.707   5.444  11.081  0.4044  1.1193  0.7515
  424MOL0     C58439   2.725   5.330  11.046 -1.0013 -0.3982 -0.3927
  424MOL0     C58440   2.181   5.967  10.938  0.5080  0.6431 -0.1072
  424MOL0     C58441   2.058   6.015  10.882 -0.1545 -0.0806  0.8907
  424MOL0     C58442   1.963   6.087  10.968 -0.5689 -0.4312 -0.5650
  424MOL0     H58443   1.811   6.170  10.476 -1.8451  0.1933  5.0562
  424MOL0     H58444   1.592   6.238  10.374  3.1760  0.7464  0.2006
  424MOL0     H58445   1.264   5.910  10.364 -2.1552  3.6395  0.5478
  424MOL0     H58446   1.360   5.892  10.208  0.3500  1.2351 -1.0346
  424MOL0     H58447   1.222   6.079  10.137  1.1788  0.7193  1.1457
  424MOL0     H58448   1.122   5.927  10.171  0.2806 -0.1769  0.9756
  424MOL0     H58449   1.164   6.166  10.357 -1.4556  0.5343  0.0658
  424MOL0     H58450   1.027   6.155  10.261  0.0813  1.7760  2.5845
  424MOL0     H58451   0.949   5.955  10.361 -0.5942 -0.2561  1.1917
  424MOL0     H58452   1.093   5.921  10.445 -0.0651 -0.3450 -0.4534
  424MOL0     H58453   0.874   6.128  10.486  0.2113 -0.1605 -0.1308
  424MOL0     H58454   1.029   6.165  10.547  1.4705 -0.1192 -3.3518
  424MOL0     H58455   0.840   5.923  10.606  0.0945  1.1132  0.3030
  424MOL0     H58456   0.996   5.946  10.675  1.1272 -0.2630 -1.5658
  424MOL0     H58457   0.742   6.114  10.678  2.0935  1.6782 -1.6207
  424MOL0     H58458   0.877   6.183  10.741 -0.0954  0.1766 -1.3752
  424MOL0     H58459   0.753   5.922  10.837  2.1633 -1.3577  1.7375
  424MOL0     H58460   0.906   5.994  10.898  0.2338  2.5657  1.9718
  424MOL0     H58461   0.515   6.137  10.881  0.9683 -1.2215  0.2245
  424MOL0     H58462   0.492   6.367  11.200  0.1286  2.2655 -0.6379
  424MOL0     H58463   0.384   6.260  11.131 -0.6684  2.9026  4.1479
  424MOL0     H58464   0.541   6.458  10.950 -0.4781 -0.3787 -0.8647
  424MOL0     H58465   0.376   6.389  10.918 -0.1683  3.2872 -0.6854
  424MOL0     H58466   0.282   6.501  11.090  0.7908 -1.9054  0.5186
  424MOL0     H58467   0.436   6.567  11.147 -2.3383  2.1630 -0.1206
  424MOL0     H58468   0.448   6.726  11.008 -2.2735  2.0987  1.9339
  424MOL0     H58469   0.362   6.644  10.868 -0.7459 -1.5091  0.7042
  424MOL0     H58470   0.030   6.870  11.034 -0.9394 -2.2382 -1.0827
  424MOL0     H58471  -0.043   7.178  11.024 -0.7316 -0.3120  0.9735
  424MOL0     H58472  -0.130   7.028  10.975  0.3961  0.5583 -0.3867
  424MOL0     H58473  -0.093   7.148  10.865 -1.9368  2.4678  3.0764
  424MOL0     H58474   0.345   7.432  10.562 -0.1324  1.7447  0.4779
  424MOL0     H58475   0.277   7.658  10.484  0.4705  1.0837  2.4081
  424MOL0     H58476  -0.032   7.801  10.602 -0.0799 -1.1189 -0.3965
  424MOL0     H58477   0.119   7.863  10.533  1.7272 -2.4247  1.3058
  424MOL0     H58478  -0.022   8.034  10.495 -2.2424  2.0721 -1.3804
  424MOL0     H58479  -0.020   7.955  10.336  1.7186 -2.4896  1.3574
  424MOL0     H58480  -0.259   7.962  10.528  1.6796 -0.6721  0.9819
  424MOL0     H58481  -0.246   7.827  10.420 -3.5274  0.1573  3.5551
  424MOL0     H58482  -0.229   7.966  10.224 -2.0185 -5.2143  1.5301
  424MOL0     H58483  -0.209   8.116  10.324 -3.2036  1.3520 -0.7828
  424MOL0     H58484  -0.449   8.068  10.427 -2.0225 -3.7340  0.1402
  424MOL0     H58485  -0.465   8.119  10.264 -2.5706 -0.7219  2.3971
  424MOL0     H58486  -0.435   7.828  10.324  0.6359 -0.6615 -2.2738
  424MOL0     H58487  -0.479   7.898  10.170  1.7688 -0.9846  0.5936
  424MOL0     H58488  -0.667   8.011  10.278  3.7672  1.9782  1.4627
  424MOL0     H58489  -0.629   7.936  10.431 -0.2567 -2.2776 -0.3133
  424MOL0     H58490  -0.766   7.787  10.202  2.0968  1.0522 -0.5376
  424MOL0     H58491  -0.809   7.810  10.372 -0.0849  1.0029 -1.5054
  424MOL0     H58492  -0.135   7.496  10.445 -0.3860 -2.4338 -0.9056
  424MOL0     H58493  -0.059   7.291  10.532  2.2540 -2.5129  0.1298
  424MOL0     H58494   0.334   7.062  10.690  0.5543 -1.6544 -0.4822
  424MOL0     H58495   0.396   6.846  10.798  2.3698  3.1141  0.8793
  424MOL0     H58496   1.496   5.812  10.393 -0.9308  0.0207  1.0547
  424MOL0     H58497   1.713   5.774  10.502 -0.5986 -0.1495  1.2126
  424MOL0     H58498   2.091   5.847  10.587 -1.3763  0.4866  0.1076
  424MOL0     H58499   2.316   5.784  10.696  0.8858  1.7188 -1.2169
  424MOL0     H58500   2.357   5.899  11.133 -2.7838 -1.2023  0.0327
  424MOL0     H58501   2.304   5.738  11.109  0.2862  0.0539  0.5615
  424MOL0     H58502   2.535   5.769  11.229 -0.7309 -0.0083  0.3300
  424MOL0     H58503   2.596   5.832  11.072 -1.3782  2.0552  0.9126
  424MOL0     H58504   2.484   5.546  11.120 -0.4474 -1.9741 -1.8558
  424MOL0     H58505   2.548   5.611  10.966 -1.6268 -2.1464  0.8413
  424MOL0     H58506   2.712   5.614  11.210  1.4805  0.7286 -0.6236
  424MOL0     H58507   2.765   5.639  11.044 -1.4763 -1.9590 -4.1316
  424MOL0     H58508   2.742   5.227  11.023 -0.1796 -0.1528 -0.8954
  424MOL0     H58509   2.220   5.998  11.035 -2.1067 -3.3712  2.5882
  424MOL0     H58510   2.002   6.088  11.070 -1.0702  4.7266 -0.1268
  424MOL0     H58511   1.977   6.190  10.933 -0.3255 -1.0168 -2.2693
  424MOL0     H58512   1.856   6.067  10.964 -0.6138 -0.0562 -1.6169
  425MOL0     O58513   3.718   9.672   2.207  0.3976 -0.8057 -0.0789
  425MOL0     C58514   3.822   9.738   2.213  0.3358 -0.4557  0.3449
  425MOL0     O58515   3.845   9.876   2.183 -0.3482  0.3354 -0.1800
  425MOL0     C58516   3.753   9.952   2.110 -0.0649  0.7160 -0.4841
  425MOL0     C58517   3.786  10.084   2.105  0.0733  0.5823  0.9439
  425MOL0     C58518   3.705  10.169   2.031 -0.2781 -0.2956 -0.7025
  425MOL0     C58519   3.590  10.127   1.967 -0.1062  0.5502 -0.2269
  425MOL0     O58520   3.489  10.200   1.910  0.0725 -0.7735  0.0350
  425MOL0     C58521   3.523  10.333   1.871 -0.0803  0.1849  0.2328
  425MOL0     C58522   3.419  10.397   1.787 -0.3694 -0.1300  1.1121
  425MOL0     C58523   3.402  10.335   1.642 -0.0645  0.1988 -0.0035
  425MOL0     C58524   3.302  10.397   1.546 -0.4153  0.0555 -0.1040
  425MOL0     C58525   3.277  10.292   1.441  0.1252 -0.0821  0.9633
  425MOL0     C58526   3.194  10.348   1.324  0.8066 -0.1033  0.5833
  425MOL0     C58527   3.272  10.420   1.229  0.2161  0.3626  0.5280
  425MOL0     C58528   3.202  10.485   1.112 -0.0329  0.0481 -0.2642
  425MOL0     N58529   3.286  10.509   0.993  0.1194 -0.2589 -0.9438
  425MOL0     C58530   3.410  10.579   1.000  1.1196  0.1220 -0.1728
  425MOL0     C58531   3.463  10.556   0.876 -0.0997  0.4485 -0.3508
  425MOL0     C58532   3.602  10.562   0.822 -0.5256  0.2817 -0.3482
  425MOL0     C58533   3.706  10.506   0.920  0.4151  0.3942 -0.0245
  425MOL0     C58534   3.715  10.352   0.903 -0.3580  0.9405  0.5512
  425MOL0     C58535   3.825  10.287   0.996  0.1318  0.2377  0.2217
  425MOL0     O58536   3.801  10.313   1.135  0.8667 -0.4774  0.3020
  425MOL0     C58537   3.732  10.213   1.200  0.3840 -0.0799 -0.1835
  425MOL0     C58538   3.749  10.214   1.334  0.1056  1.0470 -1.0001
  425MOL0     C58539   3.692  10.111   1.423  0.8120 -0.8948  0.1020
  425MOL0     C58540   3.737  10.115   1.570  0.6043  0.8945  0.4651
  425MOL0     C58541   3.618  10.008   1.367 -0.4499  0.9136  0.9198
  425MOL0     C58542   3.548   9.917   1.444 -1.4740  0.4079 -0.2077
  425MOL0     O58543   3.449   9.971   1.513  0.2812  1.1158 -0.2921
  425MOL0     C58544   3.401   9.914   1.623  0.2331  0.3264 -0.7625
  425MOL0     C58545   3.271   9.949   1.664 -0.2996  0.3170 -0.8867
  425MOL0     C58546   3.200   9.881   1.762 -0.3609 -0.6255  0.2059
  425MOL0     C58547   3.269   9.771   1.827 -0.6245  0.0130 -0.4381
  425MOL0     O58548   3.205   9.709   1.919 -0.4662  0.1878 -0.6331
  425MOL0     C58549   3.178   9.571   1.891 -0.4677  0.4622 -0.7881
  425MOL0     C58550   3.082   9.500   1.994  0.2778  0.4336  1.1332
  425MOL0     C58551   2.996   9.609   2.057 -0.7740  0.8189 -0.2525
  425MOL0     C58552   2.881   9.542   2.122 -0.3950 -0.0353 -0.4008
  425MOL0     C58553   2.790   9.641   2.201 -0.6810 -0.9457  0.3828
  425MOL0     C58554   2.837   9.675   2.341  0.0461 -0.1173 -0.2996
  425MOL0     C58555   2.761   9.788   2.411  0.2043  0.2374 -0.2503
  425MOL0     C58556   2.615   9.746   2.420  0.0482 -0.9288  0.6863
  425MOL0    Cl58557   2.515   9.862   2.503 -0.1707  0.9063  0.0328
  425MOL0     C58558   3.397   9.744   1.798 -1.0508  0.2782 -0.8328
  425MOL0     C58559   3.465   9.817   1.699  0.3137  0.0054  0.2987
  425MOL0     O58560   3.582   9.801   1.443 -0.1197 -0.1652 -0.5389
  425MOL0     C58561   3.597  10.001   1.230  0.4271 -0.8059  0.2237
  425MOL0     C58562   3.657  10.103   1.150 -0.6126  0.3131 -0.0397
  425MOL0     N58563   3.371  10.485   0.800 -0.4084  0.3253 -0.0675
  425MOL0     N58564   3.271  10.451   0.875  0.8345  0.1241  0.1188
  425MOL0     C58565   3.562   9.993   1.966  0.8823  0.0525 -0.0592
  425MOL0     C58566   3.639   9.904   2.039  0.3874  0.5590  0.4184
  425MOL0     C58567   3.938   9.680   2.264  1.0086  0.0580 -0.0189
  425MOL0     C58568   4.007   9.755   2.364 -0.3325 -0.2183  0.3311
  425MOL0     C58569   4.130   9.720   2.414  0.0514 -0.7136  0.7255
  425MOL0     C58570   4.184   9.592   2.390  1.0718  0.3895 -0.7522
  425MOL0     O58571   4.288   9.547   2.459 -0.0705 -0.3924  0.9024
  425MOL0     C58572   4.314   9.409   2.441 -0.1212 -0.0534  0.9154
  425MOL0     C58573   4.406   9.364   2.560 -0.3120 -0.2933 -0.1894
  425MOL0     C58574   4.349   9.385   2.703 -0.9446 -0.2802 -1.0540
  425MOL0     C58575   4.387   9.518   2.773  0.3001 -0.5476  0.7294
  425MOL0     C58576   4.326   9.518   2.904 -0.6978 -0.4725  0.5197
  425MOL0     C58577   4.296   9.502   3.014 -0.4522  1.0655  0.4162
  425MOL0     C58578   4.110   9.521   2.288 -0.1966 -0.1768  0.1447
  425MOL0     C58579   3.999   9.559   2.220 -0.1017 -1.5423  0.2495
  425MOL0     C58580   3.957   9.473   2.113 -0.2359  0.1391  0.6536
  425MOL0     H58581   3.878  10.119   2.152  1.5207 -2.4031  0.5723
  425MOL0     H58582   3.737  10.271   2.013  0.9877 -0.4062  0.7893
  425MOL0     H58583   3.617  10.342   1.816  0.2145 -4.5254 -0.4970
  425MOL0     H58584   3.516  10.383   1.968 -1.0148 -2.9341  1.9175
  425MOL0     H58585   3.325  10.375   1.838 -0.0016  0.5093  2.0940
  425MOL0     H58586   3.449  10.503   1.787  1.9535 -0.7425  1.7577
  425MOL0     H58587   3.496  10.329   1.586  1.6277  0.0660  2.6476
  425MOL0     H58588   3.361  10.238   1.672  1.6153 -0.2768  0.9007
  425MOL0     H58589   3.217  10.431   1.607  0.2063 -0.3699  1.0280
  425MOL0     H58590   3.348  10.483   1.495 -0.9843 -1.8657 -4.2624
  425MOL0     H58591   3.221  10.207   1.482  1.9830 -1.5067  0.6960
  425MOL0     H58592   3.371  10.265   1.393 -0.6283  0.0652 -0.6805
  425MOL0     H58593   3.130  10.278   1.270 -1.1492  2.9337 -1.3212
  425MOL0     H58594   3.121  10.420   1.363  1.3873  0.1620  1.2098
  425MOL0     H58595   3.345  10.347   1.193 -1.1183 -1.6285  1.6423
  425MOL0     H58596   3.327  10.497   1.284  0.1644  0.4841  0.4107
  425MOL0     H58597   3.129  10.410   1.082  1.9349 -1.6513 -1.0852
  425MOL0     H58598   3.154  10.577   1.148 -1.6844  0.1710 -2.5731
  425MOL0     H58599   3.444  10.625   1.092  5.2195  1.7980 -2.2683
  425MOL0     H58600   3.629  10.665   0.799 -1.6762  1.4385  2.9549
  425MOL0     H58601   3.600  10.497   0.734 -1.7775 -0.7412  0.3945
  425MOL0     H58602   3.804  10.550   0.899  0.6199  0.3946  0.9047
  425MOL0     H58603   3.677  10.528   1.023 -0.6610 -0.5795 -0.0997
  425MOL0     H58604   3.611  10.319   0.911  0.0214 -0.1895  1.0122
  425MOL0     H58605   3.740  10.330   0.798 -0.2474  1.4202  0.4778
  425MOL0     H58606   3.850  10.183   0.975 -0.7234 -0.2755  1.6173
  425MOL0     H58607   3.911  10.352   0.974 -3.0286  4.6049 -0.6311
  425MOL0     H58608   3.807  10.296   1.375  0.3263  1.2662 -1.7237
  425MOL0     H58609   3.646  10.108   1.630  0.3311  1.0302  0.0648
  425MOL0     H58610   3.782  10.206   1.612  3.4138 -0.4664  0.6127
  425MOL0     H58611   3.792  10.023   1.592 -0.6396 -0.4730 -1.8032
  425MOL0     H58612   3.223  10.030   1.609  0.7651  0.4909 -1.5770
  425MOL0     H58613   3.105   9.921   1.797  0.8743  1.0374  1.8290
  425MOL0     H58614   3.131   9.558   1.793  0.2400 -0.6784 -1.0071
  425MOL0     H58615   3.273   9.516   1.881 -1.2624 -1.1317  0.0154
  425MOL0     H58616   3.026   9.429   1.932 -0.2750  2.5053 -0.8762
  425MOL0     H58617   3.137   9.462   2.080 -0.7394 -3.1011  0.3772
  425MOL0     H58618   2.970   9.682   1.979  1.7656  1.1752 -0.8769
  425MOL0     H58619   3.048   9.660   2.139 -1.0168 -1.8192  1.6499
  425MOL0     H58620   2.897   9.456   2.187  1.4110  1.7492  1.6846
  425MOL0     H58621   2.825   9.504   2.036  0.0008  3.0818 -2.1827
  425MOL0     H58622   2.785   9.733   2.142 -0.8779 -2.6961 -2.5035
  425MOL0     H58623   2.684   9.614   2.202 -0.8303 -0.3879  2.1740
  425MOL0     H58624   2.943   9.700   2.341  0.2025 -0.6871  1.5172
  425MOL0     H58625   2.822   9.584   2.400 -0.4872  0.2181  0.0792
  425MOL0     H58626   2.773   9.889   2.371 -1.0882  0.2074 -0.7479
  425MOL0     H58627   2.796   9.797   2.514  0.7683  1.3380 -0.5298
  425MOL0     H58628   2.609   9.651   2.473  1.2406 -3.8505 -3.8558
  425MOL0     H58629   2.564   9.733   2.324  1.4494  0.8877 -0.3828
  425MOL0     H58630   3.461   9.670   1.843 -0.9498  0.5425 -0.5374
  425MOL0     H58631   3.568   9.790   1.679  0.4086 -3.9561  4.4578
  425MOL0     H58632   3.535   9.921   1.191  1.3314 -1.0584 -0.7631
  425MOL0     H58633   3.642  10.093   1.043  1.6737 -2.8614 -0.2313
  425MOL0     H58634   3.472   9.964   1.913  0.7707 -2.9940  1.5627
  425MOL0     H58635   3.615   9.798   2.042  2.6840 -0.0127  1.7847
  425MOL0     H58636   3.974   9.849   2.406  2.8596  1.7297 -1.1320
  425MOL0     H58637   4.173   9.790   2.486  0.7853  1.4946 -1.7079
  425MOL0     H58638   4.226   9.345   2.430  2.4419 -3.7129 -0.0476
  425MOL0     H58639   4.368   9.401   2.345  1.8062  0.2161  1.9204
  425MOL0     H58640   4.507   9.405   2.555  1.4096 -4.2246 -4.4381
  425MOL0     H58641   4.420   9.256   2.550 -0.5012 -0.5139  1.6954
  425MOL0     H58642   4.242   9.364   2.709 -1.2773  1.5844  0.6634
  425MOL0     H58643   4.408   9.319   2.767  2.5978  2.4000 -1.2278
  425MOL0     H58644   4.344   9.600   2.715 -3.1391 -2.7439 -0.1343
  425MOL0     H58645   4.495   9.529   2.784  0.0515  0.1675  2.9940
  425MOL0     H58646   4.269   9.470   3.112  0.0375  1.2381  0.6154
  425MOL0     H58647   4.143   9.421   2.258  0.3367 -0.4435  1.5371
  425MOL0     H58648   3.865   9.505   2.063  0.4190 -1.4376 -1.7385
  425MOL0     H58649   4.025   9.472   2.028 -2.0859  1.6813 -0.9548
  425MOL0     H58650   3.942   9.371   2.150  0.5461  0.3119  1.4688
  426MOL0     O58651   0.873  10.305   1.932 -0.1370  0.1134  0.1841
  426MOL0     C58652   0.802  10.307   2.027  0.6603 -0.5763 -1.0500
  426MOL0     O58653   0.810  10.390   2.136  0.1456  0.1938 -0.7613
  426MOL0     C58654   0.932  10.460   2.142  0.2434 -0.3307 -0.4237
  426MOL0     C58655   1.017  10.437   2.246 -0.5946 -1.1004 -0.3939
  426MOL0     C58656   1.142  10.498   2.249 -0.1090  0.1846  0.4090
  426MOL0     C58657   1.177  10.584   2.148  0.2658 -0.7289  0.2704
  426MOL0     O58658   1.308  10.633   2.154 -0.7813 -0.4945  0.7612
  426MOL0     C58659   1.326  10.759   2.216 -0.5609  0.6206  0.0089
  426MOL0     C58660   1.471  10.791   2.219  0.8926  0.2637 -0.6384
  426MOL0     C58661   1.516  10.934   2.242 -0.5887 -0.2920 -0.3950
  426MOL0     C58662   1.500  10.982   2.389 -1.0406  0.3633  0.0023
  426MOL0     C58663   1.554  11.131   2.420 -0.4300 -0.1941  0.8011
  426MOL0     C58664   1.545  11.160   2.573 -0.2840 -0.0538 -0.7039
  426MOL0     C58665   1.578  11.305   2.618 -0.0673 -0.1681 -0.1686
  426MOL0     C58666   1.729  11.306   2.654  0.3458  0.3657  0.3672
  426MOL0     N58667   1.764  11.441   2.701 -0.2657 -0.0039 -0.0080
  426MOL0     C58668   1.712  11.495   2.818 -0.1134 -0.1764  0.0016
  426MOL0     C58669   1.770  11.623   2.828  0.9015  0.1925  0.0479
  426MOL0     C58670   1.749  11.720   2.942  0.8263  0.0814 -0.2344
  426MOL0     C58671   1.701  11.861   2.878  0.8617  0.2934 -0.0817
  426MOL0     C58672   1.687  11.981   2.980 -0.1166 -0.1601 -0.1078
  426MOL0     C58673   1.659  12.111   2.917 -0.3111 -0.0494 -0.1639
  426MOL0     O58674   1.650  12.128   2.771 -0.1062  0.6482  0.4884
  426MOL0     C58675   1.554  12.085   2.686  0.2447 -0.1946 -0.4455
  426MOL0     C58676   1.431  12.032   2.733 -0.1918  0.1676  0.5603
  426MOL0     C58677   1.323  11.990   2.647  0.4866 -0.0091  0.2844
  426MOL0     C58678   1.200  11.931   2.700 -0.1495 -0.0361  0.1561
  426MOL0     C58679   1.353  11.989   2.505 -0.5173 -0.6052 -0.1375
  426MOL0     C58680   1.258  11.947   2.400  0.2514  0.3192 -0.2127
  426MOL0     O58681   1.314  11.891   2.289 -0.4141  0.1786 -0.6820
  426MOL0     C58682   1.239  11.913   2.170 -0.1258 -0.1021 -0.1454
  426MOL0     C58683   1.111  11.850   2.153 -0.4147  0.1037  0.4861
  426MOL0     C58684   1.031  11.873   2.040  0.1271 -0.3316 -0.3631
  426MOL0     C58685   1.079  11.964   1.943 -0.2335  0.0798 -0.0564
  426MOL0     O58686   0.996  12.001   1.838 -0.0151  0.1072  0.1369
  426MOL0     C58687   1.057  12.034   1.711 -0.3638 -0.2350  1.9285
  426MOL0     C58688   0.967  11.967   1.610  0.2462  0.0094  0.4397
  426MOL0     C58689   1.001  11.819   1.610 -0.3290  0.2323 -0.2952
  426MOL0     C58690   0.886  11.743   1.544  0.0437  0.7711  0.0094
  426MOL0     C58691   0.899  11.588   1.524  0.2695  0.5681 -0.3599
  426MOL0     C58692   0.956  11.506   1.639  0.3020 -0.0763  1.0726
  426MOL0     C58693   0.866  11.504   1.765 -0.0101 -0.1369  0.4469
  426MOL0     C58694   0.915  11.389   1.853 -0.1586 -0.7240 -0.1324
  426MOL0    Cl58695   0.793  11.355   1.974  0.0654 -0.7583 -0.8498
  426MOL0     C58696   1.209  12.012   1.960  0.2397  0.2459  1.1455
  426MOL0     C58697   1.293  11.988   2.068 -0.0322  0.0583  0.7353
  426MOL0     O58698   1.141  11.964   2.416  0.2496 -0.4137  0.6899
  426MOL0     C58699   1.483  12.025   2.461 -0.8366 -0.5488 -0.3626
  426MOL0     C58700   1.581  12.082   2.551  0.9566  0.2663 -0.4337
  426MOL0     N58701   1.856  11.640   2.731  0.4736 -0.0706  0.1338
  426MOL0     N58702   1.849  11.538   2.649  0.3635  1.0827  0.5853
  426MOL0     C58703   1.089  10.603   2.035 -0.5287  0.0195  0.3468
  426MOL0     C58704   0.966  10.542   2.031 -0.4875  0.3991 -0.8023
  426MOL0     C58705   0.694  10.213   2.025 -0.3051  0.4175 -0.7141
  426MOL0     C58706   0.561  10.263   2.024 -0.6874  0.0320 -0.7836
  426MOL0     C58707   0.454  10.173   2.026 -0.1736 -0.4481 -0.1915
  426MOL0     C58708   0.475  10.035   2.022  0.3172 -0.2110 -0.6372
  426MOL0     O58709   0.365   9.953   2.011  0.5054  0.1590 -0.8395
  426MOL0     C58710   0.363   9.820   2.053  1.0795  0.5535 -0.5225
  426MOL0     C58711   0.343   9.820   2.204 -0.9350 -0.3059  0.1146
  426MOL0     C58712   0.219   9.893   2.259  0.5497 -0.1147  0.0455
  426MOL0     C58713   0.182   9.850   2.406  0.4726 -0.5554  0.3805
  426MOL0     C58714   0.091   9.735   2.399 -0.6023 -0.0490 -0.3888
  426MOL0     C58715   0.024   9.633   2.393  0.5880  0.4025 -0.2648
  426MOL0     C58716   0.609   9.987   2.032 -0.2676 -0.7543  0.4033
  426MOL0     C58717   0.717  10.074   2.024 -0.0888 -0.9503 -0.3188
  426MOL0     C58718   0.854  10.008   2.035  1.1590 -0.8586 -0.1561
  426MOL0     H58719   1.001  10.373   2.333  3.5624 -2.2360 -0.2278
  426MOL0     H58720   1.207  10.461   2.328 -0.9383 -0.6669  0.7064
  426MOL0     H58721   1.289  10.746   2.319  2.9452 -2.9908  1.0979
  426MOL0     H58722   1.272  10.833   2.157  0.7781  0.1747 -1.8627
  426MOL0     H58723   1.503  10.725   2.299 -0.9816 -1.7577 -1.4597
  426MOL0     H58724   1.516  10.766   2.122 -1.1886 -0.7504 -1.4212
  426MOL0     H58725   1.623  10.938   2.220  0.5070 -0.0357  4.1186
  426MOL0     H58726   1.456  11.003   2.181 -2.7547 -1.8294 -0.1234
  426MOL0     H58727   1.394  10.984   2.417 -0.9268  1.5401  0.3967
  426MOL0     H58728   1.559  10.914   2.451 -3.2456 -2.2824 -0.6067
  426MOL0     H58729   1.498  11.203   2.360  0.7701 -0.8011 -1.1446
  426MOL0     H58730   1.657  11.122   2.386 -0.5523 -1.7621  0.7754
  426MOL0     H58731   1.441  11.136   2.598 -0.8598  0.9328 -2.0300
  426MOL0     H58732   1.603  11.091   2.635  0.0995  1.5931  0.8660
  426MOL0     H58733   1.534  11.333   2.715  0.4740 -2.8899  0.9292
  426MOL0     H58734   1.545  11.372   2.538  3.0528  0.0556 -1.4064
  426MOL0     H58735   1.758  11.228   2.724  0.8541  1.9006  1.9527
  426MOL0     H58736   1.785  11.276   2.565 -0.6641  2.8883 -1.2562
  426MOL0     H58737   1.650  11.442   2.889 -1.2129 -0.5360 -1.1872
  426MOL0     H58738   1.841  11.734   2.999  2.0741 -0.2774 -2.0667
  426MOL0     H58739   1.670  11.681   3.007 -0.4626  1.0946 -1.1366
  426MOL0     H58740   1.775  11.895   2.806 -1.3806 -0.3433 -2.8962
  426MOL0     H58741   1.610  11.845   2.819  2.1810  0.5074 -2.2908
  426MOL0     H58742   1.620  11.951   3.062  1.6230 -1.4270  0.9115
  426MOL0     H58743   1.786  11.995   3.023 -0.7226 -0.0493  1.3277
  426MOL0     H58744   1.568  12.153   2.961  1.1672  1.6804  1.3837
  426MOL0     H58745   1.746  12.175   2.934  0.0658 -0.7563  0.6501
  426MOL0     H58746   1.404  12.032   2.838 -2.1675 -3.7074  0.2304
  426MOL0     H58747   1.183  11.832   2.657 -1.6007 -0.3311  1.3178
  426MOL0     H58748   1.122  11.998   2.665  1.9987  1.9191 -1.1653
  426MOL0     H58749   1.210  11.920   2.809 -0.0268 -1.5392  0.0173
  426MOL0     H58750   1.090  11.777   2.229 -2.6476 -0.5833 -0.7079
  426MOL0     H58751   0.939  11.823   2.014  0.6529 -0.8441 -1.2738
  426MOL0     H58752   1.072  12.139   1.684 -2.9320 -0.4789 -1.1225
  426MOL0     H58753   1.155  11.987   1.704 -0.0092  0.5753  1.2701
  426MOL0     H58754   0.862  11.988   1.634  0.1006 -0.7130  0.4637
  426MOL0     H58755   0.997  11.995   1.508  0.3675 -0.7739  0.2543
  426MOL0     H58756   1.018  11.787   1.713 -2.3949 -0.5274 -0.1514
  426MOL0     H58757   1.098  11.801   1.562  0.7405 -0.5505  2.0147
  426MOL0     H58758   0.874  11.777   1.441 -0.6540  2.2488  0.5485
  426MOL0     H58759   0.804  11.766   1.612 -0.4084  0.9240 -0.5786
  426MOL0     H58760   0.797  11.554   1.503 -1.4037  1.7945  4.4457
  426MOL0     H58761   0.953  11.573   1.430 -4.2416  0.1878 -3.1795
  426MOL0     H58762   1.057  11.537   1.668  0.2604  0.0422  1.0888
  426MOL0     H58763   0.967  11.404   1.602  1.0109  0.4607 -0.2400
  426MOL0     H58764   0.762  11.486   1.739 -0.0835  2.1506 -1.1603
  426MOL0     H58765   0.878  11.600   1.815 -4.2496  1.7827 -1.7400
  426MOL0     H58766   1.014  11.415   1.892 -0.6526  2.4195 -0.7582
  426MOL0     H58767   0.923  11.293   1.801 -1.4156 -1.3839  0.8206
  426MOL0     H58768   1.258  12.069   1.882 -0.4250 -1.1568 -0.3695
  426MOL0     H58769   1.395  12.020   2.085  0.5931 -1.7419  0.4797
  426MOL0     H58770   1.525  12.027   2.361  0.9713 -0.6354  0.3642
  426MOL0     H58771   1.680  12.114   2.523  1.4271 -1.0128 -0.3233
  426MOL0     H58772   1.122  10.667   1.954 -0.6394 -3.1525 -2.4187
  426MOL0     H58773   0.909  10.568   1.942  1.5792 -0.4194 -2.4664
  426MOL0     H58774   0.541  10.369   2.016  1.2393  0.5623  0.5875
  426MOL0     H58775   0.352  10.210   2.010  0.9123  1.9949 -2.2409
  426MOL0     H58776   0.289   9.756   2.003 -0.3281  1.1088  0.7673
  426MOL0     H58777   0.459   9.788   2.012  1.7165 -1.1197  2.0778
  426MOL0     H58778   0.429   9.864   2.255 -1.2655  0.8831 -0.3213
  426MOL0     H58779   0.328   9.715   2.230  2.4898 -0.9076  0.0847
  426MOL0     H58780   0.256   9.995   2.273  1.8918 -0.8891  3.0474
  426MOL0     H58781   0.134   9.879   2.191  0.0657 -0.9469  0.7926
  426MOL0     H58782   0.129   9.933   2.454  2.6850  2.0672 -1.4129
  426MOL0     H58783   0.271   9.820   2.463  0.1232  0.2269  1.3567
  426MOL0     H58784  -0.043   9.550   2.406  0.5406  0.5163  0.2084
  426MOL0     H58785   0.640   9.883   2.021  1.6983 -0.2441  0.6952
  426MOL0     H58786   0.927  10.071   2.086 -1.6163 -0.6911  4.1348
  426MOL0     H58787   0.831   9.921   2.097 -0.4882  1.8965  3.4858
  426MOL0     H58788   0.882   9.979   1.933  0.0753 -1.3624 -0.3261
  427MOL0     O58789  11.209   7.357   1.384  0.0831 -0.1464  0.8176
  427MOL0     C58790  11.161   7.311   1.492  0.4419 -0.2753 -0.5039
  427MOL0     O58791  11.031   7.267   1.519  0.5996  0.4533  0.9509
  427MOL0     C58792  10.943   7.255   1.410  0.2744 -0.2082 -0.2900
  427MOL0     C58793  10.819   7.322   1.425 -0.6032  0.8590 -0.0860
  427MOL0     C58794  10.715   7.309   1.325  0.5936 -0.5135  0.1298
  427MOL0     C58795  10.740   7.235   1.208  0.5886 -1.0197  0.0151
  427MOL0     O58796  10.635   7.225   1.120  0.1596  0.1538  0.0970
  427MOL0     C58797  10.653   7.180   0.989 -0.4476 -0.3595 -0.5738
  427MOL0     C58798  10.516   7.201   0.923 -1.0036 -0.0765  0.3279
  427MOL0     C58799  10.501   7.138   0.786 -0.7322 -0.4692  0.5549
  427MOL0     C58800  10.353   7.115   0.742 -0.6763  0.8051  0.6317
  427MOL0     C58801  10.334   7.065   0.599 -0.5481 -0.7101  0.1290
  427MOL0     C58802  10.363   7.164   0.484  1.3203 -0.0192 -0.0539
  427MOL0     C58803  10.268   7.282   0.471 -0.7121 -0.3104 -0.3748
  427MOL0     C58804  10.133   7.247   0.410  0.9624  0.7090 -0.1890
  427MOL0     N58805  10.045   7.363   0.427  1.2568  0.0355  0.3093
  427MOL0     C58806  10.047   7.475   0.348  1.2034 -0.3376  0.6206
  427MOL0     C58807   9.938   7.537   0.380  1.1469 -1.4601 -0.1178
  427MOL0     C58808   9.887   7.663   0.307 -0.0145  0.3128  0.2856
  427MOL0     C58809   9.860   7.643   0.156 -0.5632 -0.4508 -0.0618
  427MOL0     C58810   9.819   7.759   0.079 -0.1539 -1.0139  0.7309
  427MOL0     C58811   9.731   7.855   0.148  0.3777 -0.0260  0.3658
  427MOL0     O58812   9.711   7.974   0.071 -0.4119 -0.8469 -0.1494
  427MOL0     C58813   9.681   8.091   0.146 -0.3724 -0.8724 -0.1859
  427MOL0     C58814   9.665   8.110   0.287  0.7894 -0.3306  1.4701
  427MOL0     C58815   9.623   8.234   0.339  1.0653 -0.7803  0.5107
  427MOL0     C58816   9.593   8.237   0.486  1.0783 -0.5170  0.7314
  427MOL0     C58817   9.599   8.346   0.261 -1.0326 -0.0772  0.1860
  427MOL0     C58818   9.548   8.478   0.312 -0.2380  1.1094 -0.4669
  427MOL0     O58819   9.618   8.534   0.410  0.7882  0.6077 -0.5181
  427MOL0     C58820   9.568   8.644   0.479 -0.1218  0.0951 -0.1089
  427MOL0     C58821   9.429   8.689   0.488 -0.8007  0.3218  0.2379
  427MOL0     C58822   9.384   8.796   0.544  0.1469  0.2149 -0.1813
  427MOL0     C58823   9.477   8.873   0.615  0.0334  0.7934 -0.7996
  427MOL0     O58824   9.428   8.989   0.677  0.0246  0.4163 -0.1318
  427MOL0     C58825   9.513   9.094   0.725  0.6983 -0.4972 -0.9046
  427MOL0     C58826   9.570   9.174   0.616  0.0504  0.2334 -0.6520
  427MOL0     C58827   9.660   9.292   0.651  0.5439 -0.4450 -0.2538
  427MOL0     C58828   9.803   9.241   0.698  0.4086  0.2377  0.1036
  427MOL0     C58829   9.895   9.360   0.711  1.2891 -0.4230 -0.2666
  427MOL0     C58830  10.039   9.301   0.735  0.6136  0.2034  0.2502
  427MOL0     C58831  10.140   9.420   0.729  0.1977 -0.0520 -0.0747
  427MOL0     C58832  10.177   9.476   0.870 -0.1387 -0.6712  0.4757
  427MOL0    Cl58833  10.223   9.637   0.871  0.3102  0.4258  0.1433
  427MOL0     C58834   9.617   8.835   0.620 -0.1979  0.0855 -0.4098
  427MOL0     C58835   9.660   8.723   0.552 -0.5555 -1.2064  0.3724
  427MOL0     O58836   9.455   8.526   0.250  0.1766  1.3481  0.4364
  427MOL0     C58837   9.616   8.326   0.117 -0.4975  0.3253 -0.6536
  427MOL0     C58838   9.649   8.201   0.066  0.5472 -0.2321 -0.7394
  427MOL0     N58839   9.869   7.474   0.489  0.5827 -0.6327  0.2790
  427MOL0     N58840   9.944   7.373   0.518 -0.0137  0.8159  0.1068
  427MOL0     C58841  10.856   7.150   1.199 -0.2976 -0.2946 -0.2931
  427MOL0     C58842  10.957   7.165   1.301  1.1528 -0.3533  0.4553
  427MOL0     C58843  11.263   7.313   1.608 -0.3042  0.3300 -0.6654
  427MOL0     C58844  11.241   7.224   1.710  0.5627 -0.0149 -0.3118
  427MOL0     C58845  11.298   7.244   1.840 -0.3408  0.2820 -0.0493
  427MOL0     C58846  11.395   7.340   1.856  0.2743 -0.0664  0.0618
  427MOL0     O58847  11.456   7.369   1.970 -0.7302  0.5921  0.5855
  427MOL0     C58848  11.488   7.260   2.063 -0.0341 -0.3606 -0.0346
  427MOL0     C58849  11.591   7.314   2.155 -0.2516  0.6234 -0.0730
  427MOL0     C58850  11.725   7.344   2.074  0.2115 -0.2449  0.3983
  427MOL0     C58851  11.837   7.400   2.158 -0.0337 -0.5251  1.1302
  427MOL0     C58852  11.810   7.537   2.203 -0.0292 -0.6614  0.2786
  427MOL0     C58853  11.798   7.656   2.238  0.2848  0.9283 -0.2230
  427MOL0     C58854  11.424   7.419   1.753  0.4249  0.3774  1.7186
  427MOL0     C58855  11.349   7.424   1.631 -0.4324  1.1828  0.1918
  427MOL0     C58856  11.386   7.530   1.530  0.2684  0.6593  0.0911
  427MOL0     H58857  10.799   7.400   1.497 -0.5184  3.0316 -2.2705
  427MOL0     H58858  10.614   7.350   1.322  1.3970  1.5441 -1.6109
  427MOL0     H58859  10.685   7.075   0.992  1.1187 -0.0040 -2.5503
  427MOL0     H58860  10.732   7.242   0.945  3.1618 -2.9581  1.6730
  427MOL0     H58861  10.445   7.145   0.985 -1.0093 -0.9017 -0.4005
  427MOL0     H58862  10.500   7.309   0.923  1.7488  0.3984  0.6974
  427MOL0     H58863  10.555   7.204   0.718 -1.0711  0.3863  1.1056
  427MOL0     H58864  10.542   7.037   0.785 -0.2435 -0.2699  0.6007
  427MOL0     H58865  10.307   7.042   0.809 -0.5296 -1.5180 -1.6344
  427MOL0     H58866  10.295   7.208   0.751 -1.9910 -0.0252  0.9529
  427MOL0     H58867  10.232   7.026   0.593 -0.3538 -1.2359  0.1958
  427MOL0     H58868  10.406   6.983   0.593  0.5365  0.1894  0.2533
  427MOL0     H58869  10.461   7.211   0.494  0.1167  2.5415  0.5443
  427MOL0     H58870  10.372   7.105   0.392 -0.7854 -1.9881  0.9148
  427MOL0     H58871  10.324   7.349   0.404  1.2076 -1.9102 -0.4496
  427MOL0     H58872  10.249   7.334   0.565 -3.3670 -2.0767  0.1480
  427MOL0     H58873  10.137   7.215   0.305 -3.7232 -5.5267  0.8883
  427MOL0     H58874  10.086   7.165   0.465 -2.4409  2.4164 -0.2812
  427MOL0     H58875  10.111   7.487   0.261 -1.5189 -1.8147 -1.7688
  427MOL0     H58876   9.967   7.738   0.310 -0.5000  0.9656 -1.6323
  427MOL0     H58877   9.799   7.707   0.355  2.4191  4.5535  1.4069
  427MOL0     H58878   9.951   7.607   0.108  1.2471 -0.0201  2.8106
  427MOL0     H58879   9.775   7.575   0.149  0.1648 -1.2377 -1.7135
  427MOL0     H58880   9.904   7.817   0.041 -0.7896 -0.2774  0.4141
  427MOL0     H58881   9.767   7.721  -0.009  0.9878  0.7007 -0.7609
  427MOL0     H58882   9.634   7.813   0.177  0.3177  1.3977  2.4973
  427MOL0     H58883   9.787   7.878   0.240  2.4136 -2.9011 -0.0321
  427MOL0     H58884   9.689   8.027   0.354  0.5140  0.4854  2.6094
  427MOL0     H58885   9.489   8.268   0.503  0.4622 -2.6931  1.2348
  427MOL0     H58886   9.669   8.304   0.527  2.2664 -0.3752 -1.5138
  427MOL0     H58887   9.590   8.141   0.538 -1.2812 -0.6611  0.4526
  427MOL0     H58888   9.353   8.622   0.448 -0.1213  0.4769 -1.4172
  427MOL0     H58889   9.283   8.834   0.535 -0.1701 -0.6935 -0.5859
  427MOL0     H58890   9.450   9.166   0.778 -0.6830  1.4692 -4.8001
  427MOL0     H58891   9.595   9.058   0.787  1.1228 -1.2415 -1.8737
  427MOL0     H58892   9.621   9.107   0.546 -0.1740 -2.3390  1.5295
  427MOL0     H58893   9.487   9.218   0.560 -0.4985 -1.3947 -1.1723
  427MOL0     H58894   9.624   9.367   0.722 -1.2809 -3.1417  1.8947
  427MOL0     H58895   9.675   9.343   0.556  1.0402  3.6401  1.8180
  427MOL0     H58896   9.849   9.176   0.623 -1.9122  0.3082 -1.4947
  427MOL0     H58897   9.792   9.193   0.796 -4.4140  0.8771  0.1171
  427MOL0     H58898   9.886   9.418   0.619 -0.0958  1.6330  1.0857
  427MOL0     H58899   9.865   9.420   0.797  3.7950 -0.6338  0.8604
  427MOL0     H58900  10.066   9.231   0.656  0.0189  0.5065 -0.2303
  427MOL0     H58901  10.047   9.255   0.835 -1.7610  1.6647  1.2096
  427MOL0     H58902  10.115   9.515   0.681 -0.7073  2.7979  5.2327
  427MOL0     H58903  10.237   9.387   0.692  0.4271  1.3641 -0.8101
  427MOL0     H58904  10.266   9.416   0.889 -0.1743 -2.1233 -3.0732
  427MOL0     H58905  10.092   9.452   0.935  0.3127 -0.4014  1.1800
  427MOL0     H58906   9.684   8.906   0.668 -0.5194  0.8757 -1.1278
  427MOL0     H58907   9.765   8.705   0.570  0.1095  0.6044 -1.3339
  427MOL0     H58908   9.596   8.410   0.052 -0.4617  2.1522  1.5930
  427MOL0     H58909   9.657   8.193  -0.042  0.8592 -1.3730 -0.6464
  427MOL0     H58910  10.866   7.087   1.111 -0.2205 -1.6420  0.6503
  427MOL0     H58911  11.048   7.108   1.292  1.1792  0.0617 -3.2815
  427MOL0     H58912  11.164   7.149   1.700  1.1275 -0.4162 -2.3291
  427MOL0     H58913  11.261   7.181   1.921  0.6647 -0.1418  0.1055
  427MOL0     H58914  11.392   7.238   2.111  0.2766 -0.3921  0.5811
  427MOL0     H58915  11.522   7.164   2.022 -0.1529  0.5738 -2.4681
  427MOL0     H58916  11.614   7.237   2.230 -0.7419 -0.2294 -0.7807
  427MOL0     H58917  11.558   7.404   2.207 -1.0447 -0.6499  1.7545
  427MOL0     H58918  11.761   7.247   2.039 -0.4368 -0.4200  0.2008
  427MOL0     H58919  11.714   7.415   1.991  2.7794  1.4667  1.3970
  427MOL0     H58920  11.930   7.401   2.100 -0.2558 -1.1193  0.7552
  427MOL0     H58921  11.839   7.331   2.244 -2.9930 -1.2874  0.7004
  427MOL0     H58922  11.800   7.758   2.271  2.3165  1.6005 -2.1503
  427MOL0     H58923  11.482   7.510   1.770 -0.7423  1.2346  1.2763
  427MOL0     H58924  11.482   7.571   1.563  0.6757 -0.0678 -0.1821
  427MOL0     H58925  11.401   7.490   1.429 -1.4946 -0.3454  0.1895
  427MOL0     H58926  11.307   7.604   1.510 -0.4002 -0.3723 -1.3208
  428MOL0     O58927   9.197   8.788   7.447  0.2871 -0.1904 -0.9383
  428MOL0     C58928   9.291   8.747   7.514  0.1200 -0.7629 -0.0887
  428MOL0     O58929   9.393   8.655   7.463  0.5248 -0.2463  0.4120
  428MOL0     C58930   9.348   8.564   7.378  0.2253  1.0465 -0.1506
  428MOL0     C58931   9.293   8.584   7.258  0.7987  0.1301  0.4492
  428MOL0     C58932   9.253   8.480   7.167 -0.1402 -0.0551  0.0287
  428MOL0     C58933   9.257   8.347   7.217 -0.6095 -0.6388  0.0215
  428MOL0     O58934   9.225   8.233   7.147  0.8201  0.0775 -0.0567
  428MOL0     C58935   9.120   8.254   7.051  0.4193  0.2018 -0.3990
  428MOL0     C58936   9.064   8.121   6.991 -0.6095  0.5819  0.0024
  428MOL0     C58937   9.012   8.014   7.086  0.0661 -0.2148  0.1573
  428MOL0     C58938   9.049   7.860   7.063 -0.4534 -0.2544  0.0288
  428MOL0     C58939   8.997   7.776   7.172  0.4311  0.4329 -0.0924
  428MOL0     C58940   9.047   7.630   7.165  0.1958 -0.5187 -0.4848
  428MOL0     C58941   9.024   7.563   7.306  0.3058  0.1516  0.4387
  428MOL0     C58942   9.077   7.422   7.320 -0.0416 -0.5254 -0.4483
  428MOL0     N58943   9.017   7.299   7.259 -0.6172 -0.0719 -0.5769
  428MOL0     C58944   8.919   7.206   7.300  0.0006 -0.2958 -0.3748
  428MOL0     C58945   8.914   7.119   7.198 -0.4521 -0.3704 -0.5631
  428MOL0     C58946   8.824   7.001   7.198  0.3515  0.0867 -0.0661
  428MOL0     C58947   8.894   6.871   7.233 -0.1467 -1.0212 -0.8309
  428MOL0     C58948   8.794   6.765   7.285  0.4452 -0.4473  0.6512
  428MOL0     C58949   8.892   6.651   7.338 -1.6154 -0.0030  0.4362
  428MOL0     O58950   8.844   6.519   7.339  0.2928 -0.4053  0.2630
  428MOL0     C58951   8.902   6.419   7.407 -0.3020  0.0721 -0.5908
  428MOL0     C58952   8.869   6.292   7.372  0.3553  0.8433  0.0624
  428MOL0     C58953   8.921   6.183   7.443 -0.9201 -0.5443  0.4179
  428MOL0     C58954   8.866   6.049   7.412  0.8132  0.1236  0.8682
  428MOL0     C58955   9.044   6.205   7.516  0.3469 -0.1330  0.6961
  428MOL0     C58956   9.118   6.090   7.569 -0.9782 -0.4887 -0.6335
  428MOL0     O58957   9.112   5.973   7.504  0.3965  0.7146  0.3515
  428MOL0     C58958   9.175   5.859   7.554 -0.3058 -0.6862 -0.2706
  428MOL0     C58959   9.307   5.860   7.601  0.7063 -0.2419  0.3506
  428MOL0     C58960   9.368   5.739   7.636  0.4332 -0.4154  0.2763
  428MOL0     C58961   9.298   5.614   7.641  0.8727 -0.6962  0.5116
  428MOL0     O58962   9.368   5.507   7.689 -0.4952  0.5844  0.2927
  428MOL0     C58963   9.280   5.392   7.704  1.0427 -0.2473 -0.3853
  428MOL0     C58964   9.378   5.286   7.735  0.2410 -0.5289 -0.5372
  428MOL0     C58965   9.323   5.147   7.767 -0.6775  0.2109 -0.4852
  428MOL0     C58966   9.417   5.031   7.732  0.0312 -0.6292 -0.0850
  428MOL0     C58967   9.344   4.893   7.739  0.3307 -0.1571 -0.0673
  428MOL0     C58968   9.233   4.861   7.643  0.4606  0.0272 -0.4347
  428MOL0     C58969   9.142   4.736   7.696 -0.3064  0.2464 -0.1836
  428MOL0     C58970   8.997   4.765   7.674 -0.3623 -0.3702 -0.1876
  428MOL0    Cl58971   8.903   4.641   7.747 -0.1258 -0.0324 -0.0029
  428MOL0     C58972   9.161   5.626   7.605 -0.4037  0.6948 -0.5635
  428MOL0     C58973   9.101   5.747   7.571  1.0806 -0.5417  0.0326
  428MOL0     O58974   9.197   6.116   7.658 -0.6382 -0.4050 -0.9157
  428MOL0     C58975   9.087   6.331   7.534  0.2594 -0.6107 -1.1061
  428MOL0     C58976   9.013   6.438   7.491 -0.5103 -1.2079 -0.1483
  428MOL0     N58977   8.997   7.152   7.100  0.8462  0.3260  0.0593
  428MOL0     N58978   9.060   7.260   7.138 -0.1546 -0.5726  0.4739
  428MOL0     C58979   9.308   8.328   7.340 -0.2477  0.5848 -0.0895
  428MOL0     C58980   9.352   8.434   7.420 -0.2746 -0.5670  0.0020
  428MOL0     C58981   9.305   8.798   7.651 -0.1608  0.7022 -0.6926
  428MOL0     C58982   9.416   8.749   7.725  0.6161  0.2633 -0.1304
  428MOL0     C58983   9.442   8.786   7.853  0.1788  0.9883 -0.3990
  428MOL0     C58984   9.354   8.863   7.922 -0.5553  0.1046  0.6804
  428MOL0     O58985   9.389   8.890   8.052 -0.1818 -0.7917 -0.2924
  428MOL0     C58986   9.315   9.004   8.116  0.4217 -0.6458  0.5523
  428MOL0     C58987   9.214   8.955   8.219 -0.1591 -0.9703 -0.1424
  428MOL0     C58988   9.174   9.086   8.296  0.6731  0.4024 -0.6163
  428MOL0     C58989   9.134   9.208   8.219  0.7440 -0.0425 -0.3909
  428MOL0     C58990   9.009   9.168   8.145  0.4989 -0.5655  0.6429
  428MOL0     C58991   8.907   9.128   8.089 -0.6179 -1.0041  0.4855
  428MOL0     C58992   9.229   8.891   7.865  0.2586  1.0562  0.5250
  428MOL0     C58993   9.202   8.867   7.734  0.1327  0.9302 -0.3015
  428MOL0     C58994   9.080   8.932   7.673  0.1466 -0.0859 -0.3343
  428MOL0     H58995   9.274   8.679   7.210  0.1106 -2.1372 -4.4544
  428MOL0     H58996   9.220   8.508   7.068  0.4197 -1.9210 -0.7272
  428MOL0     H58997   9.178   8.310   6.977  1.5742 -0.4249 -0.0070
  428MOL0     H58998   9.032   8.307   7.089 -0.3200  0.6402 -2.5975
  428MOL0     H58999   8.991   8.133   6.911  1.0227  0.3985 -1.5574
  428MOL0     H59000   9.152   8.081   6.942 -1.1109  0.6652 -0.9916
  428MOL0     H59001   9.035   8.043   7.189 -2.2337 -2.1427  1.3246
  428MOL0     H59002   8.903   8.010   7.081  0.1367 -1.9582 -3.3815
  428MOL0     H59003   9.018   7.826   6.964  2.1300  1.1181 -1.3389
  428MOL0     H59004   9.158   7.858   7.064 -0.4358 -3.3270 -0.6261
  428MOL0     H59005   8.887   7.778   7.175  0.3239 -1.6388 -1.2199
  428MOL0     H59006   9.029   7.816   7.269 -1.3621  0.8129  0.3951
  428MOL0     H59007   8.990   7.576   7.088 -1.5439  2.1839 -1.2201
  428MOL0     H59008   9.154   7.616   7.149  0.2054 -2.0501  0.6380
  428MOL0     H59009   8.918   7.578   7.328  0.6377  2.5049  0.6817
  428MOL0     H59010   9.082   7.625   7.375 -0.8718 -1.2485  2.8493
  428MOL0     H59011   9.183   7.428   7.295 -0.0767  0.3010 -0.4292
  428MOL0     H59012   9.081   7.419   7.430 -0.8766  3.7453 -0.1165
  428MOL0     H59013   8.865   7.208   7.394  3.2484  1.3451  1.6496
  428MOL0     H59014   8.780   6.990   7.098  0.8535  0.4410 -0.3253
  428MOL0     H59015   8.751   7.021   7.277  0.5263  2.3026 -0.4183
  428MOL0     H59016   8.946   6.833   7.145 -0.7375  0.9891 -2.1141
  428MOL0     H59017   8.976   6.885   7.304 -1.0126 -2.2533  0.4593
  428MOL0     H59018   8.743   6.803   7.374  0.6067 -1.4199  1.1681
  428MOL0     H59019   8.732   6.721   7.207  3.1137 -0.7650 -1.4359
  428MOL0     H59020   8.980   6.652   7.273 -1.1548  2.4432  0.9733
  428MOL0     H59021   8.940   6.674   7.433 -0.6106  1.2280 -0.3256
  428MOL0     H59022   8.783   6.265   7.313  0.3742 -2.0984  1.1980
  428MOL0     H59023   8.902   6.016   7.314 -1.4794 -0.7198  0.2396
  428MOL0     H59024   8.757   6.051   7.407  0.7242 -1.8808  1.0915
  428MOL0     H59025   8.879   5.975   7.492 -1.1369  0.7786  1.8458
  428MOL0     H59026   9.369   5.949   7.609  1.9280 -1.1009  0.7875
  428MOL0     H59027   9.472   5.741   7.667  1.0541 -0.6151 -1.6749
  428MOL0     H59028   9.197   5.406   7.775  0.3818 -1.3741 -0.9083
  428MOL0     H59029   9.234   5.366   7.608 -0.4225  2.2696 -0.4347
  428MOL0     H59030   9.439   5.277   7.644  0.8585 -0.1513 -0.1659
  428MOL0     H59031   9.445   5.313   7.818  2.7592 -0.2750 -2.5305
  428MOL0     H59032   9.230   5.124   7.714  0.5415 -2.0717 -1.8052
  428MOL0     H59033   9.297   5.147   7.873  4.0784 -2.2948  0.9739
  428MOL0     H59034   9.494   5.031   7.810  0.9599 -0.2195 -0.9812
  428MOL0     H59035   9.462   5.059   7.637 -2.1885  1.0999 -0.6846
  428MOL0     H59036   9.419   4.815   7.728  0.7576  0.1359  0.6655
  428MOL0     H59037   9.316   4.891   7.845  1.6922  1.0590  0.3587
  428MOL0     H59038   9.273   4.851   7.542  2.0500  3.2975 -0.2539
  428MOL0     H59039   9.171   4.951   7.633 -0.5043 -0.5277  0.2940
  428MOL0     H59040   9.156   4.705   7.801 -1.2336 -1.8028 -0.6088
  428MOL0     H59041   9.165   4.650   7.632 -1.6750 -1.4524  1.4620
  428MOL0     H59042   8.979   4.776   7.566  3.2154  1.4201 -0.7708
  428MOL0     H59043   8.980   4.866   7.712  0.1232 -0.6195  0.7083
  428MOL0     H59044   9.090   5.544   7.599 -0.7164  0.9424 -0.2799
  428MOL0     H59045   8.995   5.738   7.549  1.2291  0.2066 -1.0644
  428MOL0     H59046   9.181   6.348   7.587  0.7402  1.7378 -2.5726
  428MOL0     H59047   9.054   6.527   7.537 -1.6116  0.1345 -1.6289
  428MOL0     H59048   9.315   8.227   7.378  1.5251  1.0256  0.8759
  428MOL0     H59049   9.397   8.406   7.515  1.4291 -0.2896 -0.6918
  428MOL0     H59050   9.484   8.681   7.675  2.3560  0.6132  1.6175
  428MOL0     H59051   9.540   8.771   7.897  0.1059  1.1705 -0.1763
  428MOL0     H59052   9.380   9.070   8.174 -0.0158 -1.2919  1.8210
  428MOL0     H59053   9.271   9.070   8.041 -0.7229  2.0483  3.3962
  428MOL0     H59054   9.263   8.877   8.278  1.8244  0.6015  0.3843
  428MOL0     H59055   9.126   8.909   8.172 -0.7871 -1.4465  1.4247
  428MOL0     H59056   9.091   9.074   8.366  0.2116 -0.1863 -1.2550
  428MOL0     H59057   9.259   9.101   8.363  1.5893 -0.5485 -1.5310
  428MOL0     H59058   9.207   9.249   8.148 -0.5136  0.6010 -1.3356
  428MOL0     H59059   9.099   9.284   8.290  0.8915 -1.0456  0.7867
  428MOL0     H59060   8.819   9.084   8.045 -0.4910 -0.6025 -0.1824
  428MOL0     H59061   9.148   8.929   7.927  1.0531 -1.0412  3.0720
  428MOL0     H59062   8.998   8.862   7.657 -0.0844  0.0475  0.2376
  428MOL0     H59063   9.030   9.007   7.735  1.1706  0.1035  0.2899
  428MOL0     H59064   9.105   8.984   7.580  1.0722 -0.4890 -0.3284
  429MOL0     O59065   7.302   9.404   4.642 -0.4999 -0.2782 -0.5846
  429MOL0     C59066   7.235   9.321   4.593 -0.4858  0.7817  0.1211
  429MOL0     O59067   7.101   9.302   4.628  1.3225 -0.0830  0.2102
  429MOL0     C59068   7.027   9.380   4.720 -0.4349 -0.5537 -0.1435
  429MOL0     C59069   7.060   9.463   4.834  0.4352  0.9210  0.6286
  429MOL0     C59070   6.976   9.543   4.908  0.8893  0.1281 -0.1154
  429MOL0     C59071   6.843   9.547   4.880  0.7997  0.4717 -0.1240
  429MOL0     O59072   6.746   9.622   4.942 -0.5399  0.4019 -1.2097
  429MOL0     C59073   6.783   9.737   5.021  0.9533  0.1440 -0.0203
  429MOL0     C59074   6.660   9.769   5.101 -0.4796 -0.2103 -0.6366
  429MOL0     C59075   6.659   9.704   5.246 -0.5825 -0.1148  0.1954
  429MOL0     C59076   6.535   9.755   5.333  0.1308 -0.3054  0.7685
  429MOL0     C59077   6.507   9.657   5.455  0.1961 -0.1354  1.0420
  429MOL0     C59078   6.363   9.656   5.483  0.2489  0.0063 -0.7865
  429MOL0     C59079   6.349   9.542   5.586  1.0702 -0.4913  0.1497
  429MOL0     C59080   6.233   9.579   5.666  0.2987 -0.5490 -0.0223
  429MOL0     N59081   6.166   9.463   5.718 -0.5793 -0.3057 -0.3327
  429MOL0     C59082   6.206   9.389   5.832  0.3105  0.4410  0.2018
  429MOL0     C59083   6.112   9.295   5.853  0.4693 -0.3056  0.0967
  429MOL0     C59084   6.120   9.179   5.949  1.0582 -0.8738 -0.2490
  429MOL0     C59085   6.115   9.216   6.096  0.2846  0.1176 -0.2422
  429MOL0     C59086   5.994   9.292   6.161  0.6371 -0.3325  0.2554
  429MOL0     C59087   5.884   9.184   6.184  0.8422 -0.0047  0.1509
  429MOL0     O59088   5.935   9.085   6.283 -0.0252 -0.6447  0.1635
  429MOL0     C59089   5.868   8.973   6.303 -0.4142 -0.1385 -0.1250
  429MOL0     C59090   5.765   8.929   6.225 -0.0548 -0.3818  0.5155
  429MOL0     C59091   5.702   8.804   6.235 -0.2251 -0.2163  0.5772
  429MOL0     C59092   5.586   8.779   6.152  0.0530  0.0437 -0.6176
  429MOL0     C59093   5.762   8.711   6.332  0.8707 -0.4356 -0.0424
  429MOL0     C59094   5.716   8.570   6.345  0.6634  0.1064  0.2989
  429MOL0     O59095   5.813   8.478   6.349  0.9409 -0.1849  0.1749
  429MOL0     C59096   5.776   8.349   6.360  0.5920 -0.0788 -0.3483
  429MOL0     C59097   5.820   8.253   6.275 -0.0432 -0.4792 -0.1049
  429MOL0     C59098   5.808   8.120   6.305 -0.4221  0.2857  0.4152
  429MOL0     C59099   5.759   8.071   6.427 -0.1328  0.0987 -0.1031
  429MOL0     O59100   5.751   7.938   6.459  0.7263 -0.6143  0.0442
  429MOL0     C59101   5.871   7.866   6.442 -0.1769  0.7525 -0.1992
  429MOL0     C59102   5.925   7.832   6.586  0.0713 -0.3358  0.4226
  429MOL0     C59103   5.972   7.964   6.643  0.0387 -0.4125 -0.9731
  429MOL0     C59104   6.079   7.953   6.752 -0.1652  1.2781  0.2666
  429MOL0     C59105   6.017   7.898   6.873  0.0925  0.0563  0.5709
  429MOL0     C59106   5.890   7.968   6.928  0.5346  0.0137  0.7045
  429MOL0     C59107   5.824   7.912   7.056 -0.2680  0.2040 -0.5199
  429MOL0     C59108   5.891   7.977   7.179 -0.1749  0.2140  0.3439
  429MOL0    Cl59109   5.831   8.141   7.210  0.0943 -0.1787 -0.5237
  429MOL0     C59110   5.706   8.163   6.514  0.2344  0.0643 -0.6438
  429MOL0     C59111   5.716   8.301   6.485  0.0865  0.1462 -0.6202
  429MOL0     O59112   5.597   8.542   6.352 -0.1496 -0.3258 -0.5683
  429MOL0     C59113   5.870   8.750   6.411  1.0461 -0.5578 -0.3008
  429MOL0     C59114   5.917   8.879   6.396  0.4034  0.2346 -0.8605
  429MOL0     N59115   6.011   9.322   5.766  0.1720 -0.5503  0.3664
  429MOL0     N59116   6.048   9.406   5.677  0.4291 -0.6505 -0.3649
  429MOL0     C59117   6.792   9.457   4.779 -0.2831 -0.4534  0.1948
  429MOL0     C59118   6.889   9.371   4.710  0.8689 -1.0493  0.0324
  429MOL0     C59119   7.285   9.240   4.476  0.1083  0.5123  0.6468
  429MOL0     C59120   7.194   9.154   4.405 -0.1450 -1.4258 -0.1856
  429MOL0     C59121   7.225   9.081   4.292 -0.7610 -0.3267 -0.4116
  429MOL0     C59122   7.360   9.060   4.263  0.5344  1.3226 -0.3916
  429MOL0     O59123   7.381   8.956   4.171  0.4315 -0.8172  0.2864
  429MOL0     C59124   7.507   8.911   4.140 -0.0495 -0.2305 -0.2138
  429MOL0     C59125   7.508   8.847   3.991 -0.2745 -0.7406 -0.3892
  429MOL0     C59126   7.525   8.943   3.876  0.5138 -1.0569 -0.7449
  429MOL0     C59127   7.390   9.000   3.834 -0.4125  0.5508  0.2721
  429MOL0     C59128   7.321   8.902   3.750 -0.3817 -0.0823 -0.7801
  429MOL0     C59129   7.255   8.840   3.667 -0.3587 -0.3094 -0.3810
  429MOL0     C59130   7.455   9.140   4.324 -1.2579  0.3262 -0.4763
  429MOL0     C59131   7.419   9.238   4.426 -0.3701  0.2643  0.1461
  429MOL0     C59132   7.532   9.325   4.471 -0.8324 -0.9588 -0.9998
  429MOL0     H59133   7.167   9.456   4.855  0.5559 -2.8625 -0.4890
  429MOL0     H59134   7.011   9.597   4.995  3.2392 -0.6031 -0.5419
  429MOL0     H59135   6.806   9.818   4.951 -1.8769 -0.7522 -2.1712
  429MOL0     H59136   6.868   9.714   5.086  0.1675  3.6906  2.5557
  429MOL0     H59137   6.681   9.875   5.119  2.2722 -0.7089 -0.4931
  429MOL0     H59138   6.569   9.755   5.042 -1.2153 -1.2336  0.7028
  429MOL0     H59139   6.654   9.595   5.236 -0.9907  0.1244 -3.4938
  429MOL0     H59140   6.752   9.729   5.297 -0.5680  0.2647 -0.0147
  429MOL0     H59141   6.562   9.858   5.359  1.3078 -0.0395 -1.2506
  429MOL0     H59142   6.448   9.749   5.266  2.0542 -3.2396 -1.7590
  429MOL0     H59143   6.556   9.691   5.547  1.1546  1.3726  0.0190
  429MOL0     H59144   6.541   9.557   5.430  1.1422  0.3683  0.2415
  429MOL0     H59145   6.326   9.749   5.528 -1.5159 -1.1080  0.2260
  429MOL0     H59146   6.302   9.623   5.398 -0.2459  0.4245 -0.5968
  429MOL0     H59147   6.436   9.530   5.651  1.7294  3.2217  0.1306
  429MOL0     H59148   6.335   9.442   5.544 -0.3397 -0.1564 -0.2453
  429MOL0     H59149   6.259   9.650   5.746  0.4399  1.0519 -1.4250
  429MOL0     H59150   6.160   9.634   5.606  2.6073 -0.8298 -3.3370
  429MOL0     H59151   6.291   9.397   5.899 -0.5324 -0.3665  1.4069
  429MOL0     H59152   6.214   9.132   5.920  2.3399  1.2541  0.2610
  429MOL0     H59153   6.028   9.123   5.931 -0.1519  1.2091 -0.8752
  429MOL0     H59154   6.134   9.123   6.150 -2.6376 -1.4811 -1.6979
  429MOL0     H59155   6.193   9.290   6.112  0.6635  0.1209 -1.9204
  429MOL0     H59156   6.026   9.343   6.253  1.0301  1.0510 -0.6287
  429MOL0     H59157   5.966   9.364   6.084  1.3230  1.0590  1.2614
  429MOL0     H59158   5.781   9.213   6.208 -0.1997 -1.9986 -1.6250
  429MOL0     H59159   5.866   9.130   6.091 -2.9424 -0.1001  0.7801
  429MOL0     H59160   5.724   8.992   6.146 -0.1970  0.2552  1.0824
  429MOL0     H59161   5.499   8.788   6.217 -0.6993 -2.6976 -1.1005
  429MOL0     H59162   5.590   8.675   6.119  2.9460 -0.4044  0.8162
  429MOL0     H59163   5.568   8.849   6.070 -1.4599  0.8829  0.3807
  429MOL0     H59164   5.864   8.287   6.181 -2.9894  3.3872 -0.3407
  429MOL0     H59165   5.834   8.045   6.231 -1.0361  2.5426 -2.2860
  429MOL0     H59166   5.852   7.771   6.391  1.6198 -0.3788  1.0709
  429MOL0     H59167   5.947   7.920   6.384  0.9889 -0.3008  0.2901
  429MOL0     H59168   5.843   7.794   6.648 -1.8087  1.8621 -0.5414
  429MOL0     H59169   6.003   7.756   6.585  0.7386  0.1540  3.6533
  429MOL0     H59170   5.886   8.023   6.674  0.3450 -0.4349 -0.0388
  429MOL0     H59171   6.028   8.018   6.566  0.2761  0.1927 -0.3860
  429MOL0     H59172   6.122   8.053   6.756  1.9417  0.9080 -5.2095
  429MOL0     H59173   6.161   7.886   6.726 -0.0169  0.2180  3.0944
  429MOL0     H59174   5.992   7.794   6.852 -1.1350  0.7006 -1.4445
  429MOL0     H59175   6.086   7.904   6.957  0.3030 -1.5409  0.5410
  429MOL0     H59176   5.808   7.960   6.856  0.1387  0.9441  1.0317
  429MOL0     H59177   5.895   8.076   6.947  0.7816  0.1913 -0.3446
  429MOL0     H59178   5.849   7.805   7.051  0.4136  0.3168  0.3726
  429MOL0     H59179   5.715   7.926   7.049 -0.3320 -0.3705 -0.7990
  429MOL0     H59180   5.999   7.982   7.160 -0.2780 -0.3479 -0.4476
  429MOL0     H59181   5.867   7.911   7.263 -0.8017 -0.2429 -0.1851
  429MOL0     H59182   5.659   8.134   6.607  0.3271 -3.1307 -1.4423
  429MOL0     H59183   5.690   8.381   6.554  0.9113 -1.0662  1.1793
  429MOL0     H59184   5.912   8.680   6.482  1.8530  1.2378  1.0675
  429MOL0     H59185   6.003   8.903   6.457  0.7919 -3.9258  0.5496
  429MOL0     H59186   6.685   9.462   4.763 -0.3616  2.0553  0.9516
  429MOL0     H59187   6.849   9.297   4.641  0.8264 -1.4698  0.5092
  429MOL0     H59188   7.092   9.152   4.442  0.5513  0.8358  2.1219
  429MOL0     H59189   7.149   9.025   4.238 -1.5955 -0.8907  1.2868
  429MOL0     H59190   7.587   8.984   4.153 -1.5860  1.9014 -2.0149
  429MOL0     H59191   7.535   8.827   4.205 -0.9218  0.2228  0.7740
  429MOL0     H59192   7.420   8.783   3.979 -1.4612  0.6303  0.6477
  429MOL0     H59193   7.592   8.780   3.970  0.2522 -0.6027  1.1589
  429MOL0     H59194   7.592   9.029   3.890  2.3028 -1.9943 -2.8998
  429MOL0     H59195   7.575   8.911   3.784 -0.3535  3.1540 -2.9484
  429MOL0     H59196   7.402   9.099   3.789  1.9513  0.9017  1.5023
  429MOL0     H59197   7.319   9.022   3.915 -1.5595 -0.6217 -0.3748
  429MOL0     H59198   7.192   8.773   3.612 -4.7806  2.2806  0.9860
  429MOL0     H59199   7.559   9.121   4.297 -1.6792 -0.4164 -1.6507
  429MOL0     H59200   7.512   9.381   4.563  4.3381 -1.3600  0.7054
  429MOL0     H59201   7.625   9.272   4.494 -1.6298 -1.7280  0.6429
  429MOL0     H59202   7.546   9.396   4.388 -1.8515  0.3300 -0.1209
  430MOL0     O59203   3.827   0.143   2.633  0.1913  0.3525  0.0406
  430MOL0     C59204   3.798   0.155   2.512  0.5772  0.6574  0.5510
  430MOL0     O59205   3.682   0.199   2.471  1.1327  0.1184  0.4545
  430MOL0     C59206   3.584   0.233   2.566 -0.3132  0.4344 -1.0088
  430MOL0     C59207   3.521   0.130   2.632 -0.3146 -0.3534  0.4450
  430MOL0     C59208   3.435   0.159   2.740  0.4137 -0.7529 -0.0622
  430MOL0     C59209   3.396   0.291   2.779  0.4396  0.6378  0.9735
  430MOL0     O59210   3.313   0.313   2.883  0.4520 -0.2345  0.1169
  430MOL0     C59211   3.359   0.411   2.980  0.0313 -0.8641 -0.0017
  430MOL0     C59212   3.266   0.402   3.098 -0.4758  0.9416  0.2152
  430MOL0     C59213   3.298   0.529   3.186 -0.4543  0.7607 -0.0503
  430MOL0     C59214   3.209   0.537   3.307 -0.4408  0.6870  0.1443
  430MOL0     C59215   3.222   0.668   3.387  0.1587  0.4460  0.4963
  430MOL0     C59216   3.350   0.653   3.483 -0.3928 -0.2928 -0.0189
  430MOL0     C59217   3.372   0.775   3.570  0.0848  1.2188 -0.1655
  430MOL0     C59218   3.511   0.776   3.632 -0.8650  0.2554  1.2425
  430MOL0     N59219   3.535   0.895   3.720 -0.7900 -0.6566  0.6845
  430MOL0     C59220   3.662   0.931   3.752  1.0051  0.5188 -0.4832
  430MOL0     C59221   3.652   1.056   3.798  0.1285  0.2143 -0.1301
  430MOL0     C59222   3.760   1.145   3.844  0.2171 -0.5412  0.3550
  430MOL0     C59223   3.859   1.177   3.726  0.0158 -0.0961  0.5955
  430MOL0     C59224   3.981   1.271   3.768 -0.3611  0.1910  0.8529
  430MOL0     C59225   4.080   1.189   3.855  0.3517 -0.5980  0.4710
  430MOL0     O59226   4.199   1.271   3.855 -0.3571 -0.5018  0.8297
  430MOL0     C59227   4.323   1.222   3.912 -0.2281 -1.1317 -1.0824
  430MOL0     C59228   4.326   1.117   4.000 -0.0017  0.7438  0.5067
  430MOL0     C59229   4.447   1.059   4.057 -0.4755 -0.0114  0.3346
  430MOL0     C59230   4.435   0.941   4.143 -1.1654  0.1960 -0.3998
  430MOL0     C59231   4.572   1.125   4.025  0.3731 -0.0110 -0.5447
  430MOL0     C59232   4.707   1.093   4.067 -0.3121 -0.3349  0.2641
  430MOL0     O59233   4.809   1.178   4.043  0.2172  0.5285 -0.1566
  430MOL0     C59234   4.935   1.111   4.038  0.0896  0.6304 -0.1867
  430MOL0     C59235   4.999   1.106   3.912 -0.3978  0.5951 -0.4316
  430MOL0     C59236   5.116   1.042   3.885 -0.5847 -0.1648  1.0083
  430MOL0     C59237   5.189   0.971   3.988  0.3697  0.4135 -0.2270
  430MOL0     O59238   5.303   0.898   3.962  0.4845  0.5362 -0.5766
  430MOL0     C59239   5.411   0.919   4.058 -1.1036 -0.4992  0.5990
  430MOL0     C59240   5.539   0.846   4.003  0.7814  0.2509  0.1562
  430MOL0     C59241   5.661   0.903   4.060 -0.0552  0.0715  0.6444
  430MOL0     C59242   5.797   0.857   4.001 -0.6236  0.3509  0.4081
  430MOL0     C59243   5.828   0.908   3.857 -0.2976  0.8044 -0.1494
  430MOL0     C59244   5.951   0.991   3.838  0.3500 -0.3181 -0.6555
  430MOL0     C59245   5.949   1.126   3.901 -0.5210  0.8600  0.1659
  430MOL0     C59246   6.029   1.130   4.026  0.1087 -0.0922 -0.7896
  430MOL0    Cl59247   6.005   1.294   4.109  0.0232  0.3072  0.2093
  430MOL0     C59248   5.129   0.985   4.115 -0.3591  0.7895 -0.0323
  430MOL0     C59249   5.004   1.047   4.146  0.2743  1.1682 -0.7534
  430MOL0     O59250   4.720   0.984   4.123 -0.8010  0.1343 -0.2371
  430MOL0     C59251   4.556   1.235   3.928 -0.1611  0.1784 -0.0170
  430MOL0     C59252   4.437   1.280   3.873  0.3791 -0.2099  0.0056
  430MOL0     N59253   3.525   1.098   3.790  0.0249 -0.1683 -0.4035
  430MOL0     N59254   3.460   1.003   3.735  0.1083  0.0670  0.2795
  430MOL0     C59255   3.454   0.391   2.701  0.6124 -0.3021 -0.4030
  430MOL0     C59256   3.549   0.362   2.604  0.3706  0.1410  0.4098
  430MOL0     C59257   3.896   0.112   2.406 -0.0025  0.5319 -0.0159
  430MOL0     C59258   3.836   0.070   2.279 -0.3696  0.0127 -1.0980
  430MOL0     C59259   3.905   0.043   2.160  0.2689  0.3665  0.5898
  430MOL0     C59260   4.041   0.050   2.165 -0.7033 -0.5427 -0.7284
  430MOL0     O59261   4.100   0.045   2.048  0.6128 -0.0279  0.2715
  430MOL0     C59262   4.133  -0.094   2.018 -0.2781 -0.1844  0.1850
  430MOL0     C59263   4.257  -0.155   2.116  0.3622  0.3007 -0.5545
  430MOL0     C59264   4.343  -0.268   2.057  0.0057 -0.1086 -0.1696
  430MOL0     C59265   4.471  -0.213   1.998 -0.3648 -0.1731  0.1306
  430MOL0     C59266   4.552  -0.317   1.925 -0.5126 -0.0389 -0.2567
  430MOL0     C59267   4.605  -0.382   1.841  0.4002 -0.6453  0.0547
  430MOL0     C59268   4.114   0.075   2.286 -0.1093 -0.2472  0.3023
  430MOL0     C59269   4.037   0.123   2.405  0.4440  0.1990  0.6459
  430MOL0     C59270   4.115   0.177   2.521  0.0547  0.3081 -0.5263
  430MOL0     H59271   3.536   0.028   2.597 -0.7290  0.0488 -0.9743
  430MOL0     H59272   3.388   0.077   2.793  0.0919  0.1993  1.1400
  430MOL0     H59273   3.353   0.505   2.925  0.0550 -0.7704  0.1542
  430MOL0     H59274   3.458   0.390   3.020  0.9291  0.0233 -1.6628
  430MOL0     H59275   3.167   0.415   3.055 -0.1539 -1.0260 -1.2654
  430MOL0     H59276   3.281   0.309   3.154  1.3282  1.1615  0.1855
  430MOL0     H59277   3.405   0.520   3.208  0.9559 -1.6212 -6.0016
  430MOL0     H59278   3.283   0.612   3.117  3.1025  1.1613 -0.5242
  430MOL0     H59279   3.103   0.518   3.285 -0.4395  0.5014  0.2909
  430MOL0     H59280   3.232   0.454   3.375 -0.0203  0.8631  0.2166
  430MOL0     H59281   3.143   0.690   3.459 -0.7468 -2.2589  0.4520
  430MOL0     H59282   3.239   0.748   3.315 -0.0537  0.6084  0.6243
  430MOL0     H59283   3.331   0.558   3.534  2.3870 -1.0117 -0.1608
  430MOL0     H59284   3.442   0.626   3.430  0.1596 -1.0301  1.2570
  430MOL0     H59285   3.299   0.785   3.651 -2.3365 -2.2877 -1.6560
  430MOL0     H59286   3.351   0.861   3.505 -1.1139 -0.1953 -1.7258
  430MOL0     H59287   3.522   0.692   3.702 -1.4842 -1.1408 -0.2460
  430MOL0     H59288   3.582   0.774   3.549  1.1950  1.1000  2.8984
  430MOL0     H59289   3.753   0.880   3.725  0.6890 -0.4443  0.2143
  430MOL0     H59290   3.807   1.098   3.931 -0.3186 -1.1758  0.3155
  430MOL0     H59291   3.722   1.243   3.876 -2.1730 -1.3009  0.0796
  430MOL0     H59292   3.911   1.095   3.676 -0.1101  1.0280 -1.5202
  430MOL0     H59293   3.807   1.231   3.646 -0.5995  0.7138  1.5356
  430MOL0     H59294   4.032   1.301   3.676 -1.1122  1.9583  0.9623
  430MOL0     H59295   3.942   1.359   3.820 -0.5342  1.3621 -1.1525
  430MOL0     H59296   4.039   1.186   3.957  1.1455  0.7378  0.8505
  430MOL0     H59297   4.094   1.082   3.834  0.7126 -0.5296  0.3720
  430MOL0     H59298   4.229   1.074   4.027  0.9540  0.1699  3.4043
  430MOL0     H59299   4.337   0.894   4.131 -0.5632 -1.2247  0.0104
  430MOL0     H59300   4.438   0.963   4.250 -2.1827  0.2589 -0.3666
  430MOL0     H59301   4.509   0.867   4.112 -1.3824 -1.0772  1.8362
  430MOL0     H59302   4.949   1.164   3.835 -4.3722 -1.9728 -0.0613
  430MOL0     H59303   5.156   1.036   3.784  1.3620 -0.2689  1.7266
  430MOL0     H59304   5.423   1.027   4.064 -1.9875 -0.4433  4.4244
  430MOL0     H59305   5.399   0.888   4.163 -0.6922  3.1860  1.8716
  430MOL0     H59306   5.524   0.744   4.038 -0.7216  1.1391  2.3966
  430MOL0     H59307   5.532   0.857   3.895 -0.2055  1.6077  0.3132
  430MOL0     H59308   5.648   0.864   4.161 -1.9456 -3.0042 -0.6474
  430MOL0     H59309   5.662   1.013   4.061  0.8051  0.1204  3.2428
  430MOL0     H59310   5.784   0.748   4.001  2.5750 -0.1432 -0.1648
  430MOL0     H59311   5.882   0.877   4.067  0.3937 -0.3569 -0.6437
  430MOL0     H59312   5.831   0.833   3.778  3.3890  2.5009 -1.8685
  430MOL0     H59313   5.756   0.986   3.833  0.6295  1.5681 -0.5215
  430MOL0     H59314   5.970   1.009   3.732 -0.9540  0.3498 -0.7967
  430MOL0     H59315   6.043   0.942   3.871  0.1860  0.7022  1.5068
  430MOL0     H59316   5.846   1.154   3.927 -0.5899  1.6509 -0.8778
  430MOL0     H59317   5.976   1.204   3.829 -3.3952  1.2926 -0.5712
  430MOL0     H59318   6.135   1.118   4.000 -0.4041 -2.7134 -1.9585
  430MOL0     H59319   5.997   1.059   4.103 -0.2305  0.9389  0.0507
  430MOL0     H59320   5.179   0.932   4.195  0.6542  0.6945 -0.7041
  430MOL0     H59321   4.977   1.034   4.250  2.2927 -1.3130 -0.4320
  430MOL0     H59322   4.650   1.267   3.882 -1.2264  2.7251 -0.6080
  430MOL0     H59323   4.435   1.351   3.792  2.1819 -2.2510 -1.9673
  430MOL0     H59324   3.438   0.493   2.734  1.5778 -0.0231 -0.7369
  430MOL0     H59325   3.615   0.428   2.549  0.1214 -2.0823 -2.8173
  430MOL0     H59326   3.730   0.049   2.265 -0.8581  0.2045  1.7218
  430MOL0     H59327   3.851   0.005   2.074  1.2627  0.0812  0.0707
  430MOL0     H59328   4.044  -0.157   2.010  0.7126 -1.5549 -0.3205
  430MOL0     H59329   4.163  -0.091   1.913 -2.4261  1.2295 -0.4693
  430MOL0     H59330   4.218  -0.186   2.214  0.0651 -1.5156 -1.2186
  430MOL0     H59331   4.332  -0.080   2.144  3.9436 -2.6030 -1.5897
  430MOL0     H59332   4.380  -0.338   2.133 -1.6597  0.2468  1.0224
  430MOL0     H59333   4.282  -0.326   1.988  0.1775 -3.5001  2.2988
  430MOL0     H59334   4.529  -0.161   2.075 -1.5860  3.8277 -1.4361
  430MOL0     H59335   4.457  -0.124   1.936  1.2300 -0.0980 -0.1669
  430MOL0     H59336   4.633  -0.448   1.762 -0.2696  1.4607 -2.0825
  430MOL0     H59337   4.222   0.076   2.291  0.0482  4.4182  0.4315
  430MOL0     H59338   4.220   0.146   2.519  1.1128  3.4359  1.0821
  430MOL0     H59339   4.112   0.286   2.510  0.6094  0.9526  3.8276
  430MOL0     H59340   4.073   0.137   2.614 -1.1359  0.5171 -0.9486
  431MOL0     O59341  10.193   0.664   2.372  0.6206  0.1112 -0.4102
  431MOL0     C59342  10.205   0.576   2.290 -0.1612 -0.6855  0.7044
  431MOL0     O59343  10.113   0.482   2.272  0.0533 -0.1553 -0.3247
  431MOL0     C59344   9.987   0.508   2.310  0.6194 -0.5478  0.6151
  431MOL0     C59345   9.928   0.391   2.356  0.1453 -1.0332  0.3113
  431MOL0     C59346   9.792   0.412   2.397 -0.2898  0.1478 -0.7604
  431MOL0     C59347   9.723   0.531   2.402  0.2599  0.0941 -0.5292
  431MOL0     O59348   9.598   0.534   2.452  0.3291  0.0249 -0.8855
  431MOL0     C59349   9.527   0.655   2.472  0.0958 -0.7753 -0.4561
  431MOL0     C59350   9.384   0.627   2.510  0.0939  0.3990 -0.2711
  431MOL0     C59351   9.318   0.533   2.398  0.5315 -0.4432  0.1867
  431MOL0     C59352   9.165   0.533   2.414 -0.5206  0.8630  0.4544
  431MOL0     C59353   9.117   0.395   2.432  1.0074  0.3542 -0.1904
  431MOL0     C59354   9.169   0.353   2.575 -0.0096  0.1454  0.3449
  431MOL0     C59355   9.085   0.261   2.655 -0.3810 -0.6653  0.3993
  431MOL0     C59356   9.110   0.264   2.805 -0.0553  0.2444 -0.0125
  431MOL0     N59357   9.253   0.241   2.838 -0.7177  0.2249  0.3385
  431MOL0     C59358   9.338   0.342   2.861 -0.6308 -0.8111 -0.1881
  431MOL0     C59359   9.448   0.284   2.913 -0.0467  0.2049  0.0125
  431MOL0     C59360   9.556   0.376   2.960 -0.6396 -0.4403  0.1561
  431MOL0     C59361   9.654   0.400   2.847 -0.6441  0.1826  0.0798
  431MOL0     C59362   9.768   0.488   2.874 -0.3041 -0.5906  0.3186
  431MOL0     C59363   9.849   0.521   2.749 -0.4274 -0.2916 -0.6595
  431MOL0     O59364   9.975   0.586   2.803  1.0993 -0.9789  0.5733
  431MOL0     C59365   9.983   0.715   2.777 -0.0720 -1.4557 -0.7413
  431MOL0     C59366  10.017   0.767   2.652  0.0263 -0.5776  0.5906
  431MOL0     C59367  10.027   0.906   2.639  0.1167 -0.5128  0.4372
  431MOL0     C59368  10.074   0.963   2.496  1.2166  0.7461 -1.0722
  431MOL0     C59369  10.018   0.992   2.750 -0.4509  0.1005  0.0633
  431MOL0     C59370  10.022   1.133   2.731 -0.6548  0.7298 -0.6846
  431MOL0     O59371   9.922   1.189   2.655 -0.5730  0.0949  1.0531
  431MOL0     C59372   9.931   1.324   2.634 -0.0220 -0.0770  0.4984
  431MOL0     C59373   9.827   1.402   2.673  0.6030  0.0306 -0.3096
  431MOL0     C59374   9.832   1.534   2.639  0.1021 -0.2051 -0.4157
  431MOL0     C59375   9.934   1.585   2.558  0.5028 -0.1875 -0.9595
  431MOL0     O59376   9.917   1.721   2.534 -0.7236 -0.4076 -0.0335
  431MOL0     C59377  10.030   1.804   2.485  0.3353  0.1282 -0.2202
  431MOL0     C59378  10.009   1.938   2.430  0.5207 -0.2550  0.8496
  431MOL0     C59379   9.948   2.035   2.537  1.1480 -0.7648  0.1251
  431MOL0     C59380   9.902   2.166   2.471  0.4099 -0.5383  0.3969
  431MOL0     C59381   9.890   2.274   2.576 -0.2931 -0.9418  0.0004
  431MOL0     C59382   9.751   2.341   2.565  0.2586 -0.0084 -0.0944
  431MOL0     C59383   9.736   2.436   2.437  0.5477  0.6588 -0.4508
  431MOL0     C59384   9.582   2.453   2.408 -0.3179  0.6320 -0.2865
  431MOL0    Cl59385   9.548   2.580   2.287 -0.3483 -0.5506  0.1597
  431MOL0     C59386  10.049   1.515   2.528  0.7999 -0.0202  0.0253
  431MOL0     C59387  10.039   1.374   2.563  0.1137 -0.5274 -0.2004
  431MOL0     O59388  10.120   1.196   2.771 -0.3553 -0.1952  0.5161
  431MOL0     C59389  10.007   0.936   2.880 -0.0828  0.6128 -0.1117
  431MOL0     C59390  10.000   0.798   2.896  1.0049  0.4212  0.5641
  431MOL0     N59391   9.425   0.152   2.915 -0.1957  0.2517  1.3643
  431MOL0     N59392   9.311   0.124   2.861 -1.1590 -0.0095  0.6072
  431MOL0     C59393   9.794   0.645   2.372  1.0422  0.7763  0.7215
  431MOL0     C59394   9.915   0.635   2.316  0.2827  0.9642 -0.9150
  431MOL0     C59395  10.333   0.557   2.212 -0.8365 -0.2381  0.2390
  431MOL0     C59396  10.343   0.457   2.113  0.2924 -0.5144  0.2115
  431MOL0     C59397  10.472   0.429   2.045 -0.0794 -0.3346 -0.4197
  431MOL0     C59398  10.588   0.495   2.073  0.4153  0.3512  0.3270
  431MOL0     O59399  10.701   0.449   2.018 -0.3116  0.2683  0.0401
  431MOL0     C59400  10.822   0.510   2.058 -0.4896 -0.2316  0.1748
  431MOL0     C59401  10.947   0.442   2.006  0.7574  0.4315  1.0326
  431MOL0     C59402  10.956   0.299   2.069  0.1412  0.6809  1.2331
  431MOL0     C59403  11.050   0.205   1.985 -0.4908  0.3715  0.0290
  431MOL0     C59404  11.185   0.237   1.986 -0.4347 -0.7814  0.4373
  431MOL0     C59405  11.297   0.278   1.972  0.8646 -0.6553 -0.3230
  431MOL0     C59406  10.577   0.600   2.162  0.0312  0.8017  1.0059
  431MOL0     C59407  10.459   0.633   2.233 -1.0935  1.1034  0.5068
  431MOL0     C59408  10.469   0.754   2.326 -1.1373 -0.4259  0.1208
  431MOL0     H59409   9.987   0.300   2.359 -1.4957 -2.2745 -1.9491
  431MOL0     H59410   9.739   0.324   2.431  0.6365 -0.0325  0.2754
  431MOL0     H59411   9.526   0.719   2.383  0.5153  2.4037  1.6606
  431MOL0     H59412   9.559   0.728   2.547 -3.8121  0.9345 -0.2267
  431MOL0     H59413   9.380   0.596   2.615 -0.2922  4.4001  1.0758
  431MOL0     H59414   9.323   0.718   2.516  0.0728  0.4448 -1.0310
  431MOL0     H59415   9.348   0.565   2.298  0.7134  0.6043  0.5680
  431MOL0     H59416   9.361   0.434   2.413 -0.6392 -0.8008  1.4054
  431MOL0     H59417   9.131   0.596   2.496 -0.4948 -0.6423  1.6568
  431MOL0     H59418   9.127   0.572   2.319  3.8987 -2.3521 -3.0742
  431MOL0     H59419   9.149   0.319   2.359 -0.3787  0.3613 -0.8500
  431MOL0     H59420   9.009   0.402   2.445  1.2360  2.2644  1.0225
  431MOL0     H59421   9.268   0.307   2.561  0.4739  0.8796  1.2393
  431MOL0     H59422   9.201   0.445   2.625 -1.0196  1.8627 -1.9914
  431MOL0     H59423   9.099   0.164   2.608 -1.2504  0.0603 -1.4776
  431MOL0     H59424   8.983   0.298   2.637 -0.1544 -0.6518 -0.9998
  431MOL0     H59425   9.086   0.365   2.838  1.3670  0.9677 -1.0758
  431MOL0     H59426   9.047   0.187   2.851 -1.2939 -0.4145 -2.5896
  431MOL0     H59427   9.305   0.443   2.840 -0.1417 -0.4592  0.6787
  431MOL0     H59428   9.617   0.340   3.043  1.5591  1.7950 -0.3925
  431MOL0     H59429   9.516   0.470   2.999  2.0795  1.8367 -2.0495
  431MOL0     H59430   9.680   0.303   2.804  1.9147  0.7423  0.2235
  431MOL0     H59431   9.585   0.439   2.771 -1.2783  0.4413  0.7785
  431MOL0     H59432   9.729   0.577   2.923  0.8024 -0.3565  0.7949
  431MOL0     H59433   9.827   0.426   2.943 -1.1916 -2.7996 -0.7793
  431MOL0     H59434   9.866   0.431   2.689  1.6764 -1.7381  1.9036
  431MOL0     H59435   9.787   0.591   2.692 -1.4855 -0.9582 -0.3597
  431MOL0     H59436  10.025   0.698   2.569 -0.7786  0.6338 -0.5482
  431MOL0     H59437  10.008   1.046   2.470  2.9102  2.1083 -1.1597
  431MOL0     H59438  10.070   0.889   2.416 -0.9802 -1.8442  1.1955
  431MOL0     H59439  10.172   1.006   2.517 -0.0926  3.5404 -0.1962
  431MOL0     H59440   9.743   1.352   2.720  0.4849 -0.2628 -0.8277
  431MOL0     H59441   9.745   1.595   2.658  2.0452  2.6919 -0.1096
  431MOL0     H59442  10.107   1.812   2.563  3.2113  1.4279 -2.9777
  431MOL0     H59443  10.077   1.752   2.402 -1.0339 -2.1438  0.3621
  431MOL0     H59444  10.098   1.979   2.381  0.3922 -3.3470 -2.3704
  431MOL0     H59445   9.941   1.936   2.344  1.6106 -1.6755 -0.0142
  431MOL0     H59446  10.026   2.053   2.612 -0.4937 -1.9915  2.2190
  431MOL0     H59447   9.863   1.989   2.588 -1.2116  2.6939 -0.3531
  431MOL0     H59448   9.805   2.124   2.442  1.8171 -4.7399  1.0432
  431MOL0     H59449   9.957   2.191   2.380 -0.1541 -0.1640  0.1537
  431MOL0     H59450   9.893   2.234   2.678 -2.3407  2.8277  1.7713
  431MOL0     H59451   9.969   2.350   2.573 -0.8769 -0.3179  0.2638
  431MOL0     H59452   9.745   2.417   2.644 -0.6498 -0.1609 -0.0121
  431MOL0     H59453   9.667   2.273   2.577 -1.4284  2.0516  0.3526
  431MOL0     H59454   9.802   2.397   2.359  3.3280 -1.0227  2.5518
  431MOL0     H59455   9.769   2.535   2.471 -0.8609  1.3083 -0.8881
  431MOL0     H59456   9.526   2.479   2.498 -0.3773  1.8236 -0.6565
  431MOL0     H59457   9.549   2.357   2.366  2.8192 -0.7208  0.0204
  431MOL0     H59458  10.144   1.556   2.496 -0.0326  1.1935 -1.0078
  431MOL0     H59459  10.125   1.316   2.528  1.5120  1.7131 -0.6636
  431MOL0     H59460  10.002   0.997   2.970  0.8770  0.7279 -0.1262
  431MOL0     H59461   9.986   0.747   2.991 -3.8289 -0.1194 -0.1508
  431MOL0     H59462   9.738   0.738   2.381 -0.6941 -0.2754  1.3172
  431MOL0     H59463   9.964   0.726   2.284 -0.0243  0.4395 -3.0468
  431MOL0     H59464  10.268   0.388   2.076  2.3773 -1.5887 -2.3480
  431MOL0     H59465  10.483   0.339   1.986  1.7249 -0.0388 -0.5694
  431MOL0     H59466  10.819   0.613   2.022  0.5945 -0.7680 -1.5900
  431MOL0     H59467  10.823   0.507   2.167 -2.2942  0.8952  0.2673
  431MOL0     H59468  11.041   0.495   2.023  0.5433  0.6618  1.5071
  431MOL0     H59469  10.931   0.426   1.899 -1.2301 -3.8578  1.7691
  431MOL0     H59470  10.997   0.310   2.169 -0.8813 -0.2043  1.7711
  431MOL0     H59471  10.860   0.246   2.073  1.6434 -2.4595 -0.7897
  431MOL0     H59472  11.010   0.184   1.885 -1.9878  2.8056  0.0205
  431MOL0     H59473  11.034   0.112   2.040  0.2877 -2.0443 -3.4939
  431MOL0     H59474  11.404   0.286   1.963  0.9504 -2.8294 -2.2246
  431MOL0     H59475  10.664   0.659   2.188 -0.5435  1.3307  1.7969
  431MOL0     H59476  10.445   0.852   2.283  0.9196  0.7492  1.5061
  431MOL0     H59477  10.417   0.739   2.421  1.4498 -2.0988  1.3838
  431MOL0     H59478  10.567   0.753   2.373 -0.8685 -0.0084 -0.4080
  432MOL0     O59479   6.155   3.518   4.086 -0.7076  0.1644 -0.5931
  432MOL0     C59480   6.199   3.422   4.149 -0.4405 -0.4030  0.3348
  432MOL0     O59481   6.156   3.375   4.273  0.6472 -0.1068  0.6341
  432MOL0     C59482   6.034   3.409   4.307  0.5497 -0.1961 -0.5552
  432MOL0     C59483   5.927   3.326   4.306 -0.4602 -0.3794 -1.5506
  432MOL0     C59484   5.796   3.363   4.356  0.2711 -0.7774 -0.5731
  432MOL0     C59485   5.781   3.490   4.419  0.0908  0.9753  0.5011
  432MOL0     O59486   5.651   3.516   4.460  0.1692  0.8980  0.1082
  432MOL0     C59487   5.639   3.600   4.578 -0.2535  0.0146 -0.2039
  432MOL0     C59488   5.575   3.737   4.557  0.5678  0.9496 -1.2998
  432MOL0     C59489   5.663   3.835   4.478 -0.0635  0.4459 -0.7804
  432MOL0     C59490   5.591   3.947   4.428 -0.2504  0.3529 -0.6690
  432MOL0     C59491   5.519   4.028   4.535 -0.9217 -1.0364 -0.3266
  432MOL0     C59492   5.469   4.157   4.477 -0.1468  0.0051  0.0255
  432MOL0     C59493   5.351   4.133   4.380 -0.0234  0.0063  0.1909
  432MOL0     C59494   5.304   4.264   4.311  0.8956 -0.8779  0.2953
  432MOL0     N59495   5.160   4.260   4.258 -0.0687 -0.9464 -0.2558
  432MOL0     C59496   5.107   4.182   4.161  0.1156 -0.0752 -0.4524
  432MOL0     C59497   4.972   4.200   4.163 -0.8663 -0.4567 -0.5742
  432MOL0     C59498   4.879   4.127   4.080 -0.2809  0.9938 -0.5308
  432MOL0     C59499   4.796   4.031   4.169 -0.2409 -1.0011 -0.1285
  432MOL0     C59500   4.708   3.928   4.085 -0.0511  0.4784  0.0940
  432MOL0     C59501   4.617   3.847   4.179 -0.4693 -0.0572 -0.3620
  432MOL0     O59502   4.692   3.738   4.228 -0.6948 -0.4575  0.5532
  432MOL0     C59503   4.665   3.699   4.355  0.4527  0.7587  0.1208
  432MOL0     C59504   4.559   3.728   4.432 -0.0266  0.2968 -0.5823
  432MOL0     C59505   4.539   3.676   4.562 -1.0418  0.0198  0.2691
  432MOL0     C59506   4.422   3.683   4.645 -0.3786  1.1449  0.5061
  432MOL0     C59507   4.644   3.586   4.611 -0.1445  0.6625  0.0473
  432MOL0     C59508   4.655   3.535   4.750  0.4360 -0.2013 -0.0862
  432MOL0     O59509   4.697   3.404   4.750 -0.3785  0.0247  0.2284
  432MOL0     C59510   4.751   3.359   4.863 -0.7350 -0.0339  0.3772
  432MOL0     C59511   4.669   3.297   4.956  0.1933 -0.3321 -0.0521
  432MOL0     C59512   4.730   3.229   5.058 -0.3837 -0.4211 -0.2477
  432MOL0     C59513   4.871   3.222   5.062  0.5303  0.8370  0.0452
  432MOL0     O59514   4.928   3.131   5.157 -0.0299 -0.1921  0.3434
  432MOL0     C59515   5.013   3.213   5.240 -0.4030  0.1605  0.2885
  432MOL0     C59516   5.026   3.143   5.366 -0.7158 -0.3935 -1.0959
  432MOL0     C59517   4.888   3.141   5.438  0.1778 -0.3880  0.7473
  432MOL0     C59518   4.897   3.094   5.588 -0.1972  0.7151 -0.0027
  432MOL0     C59519   4.754   3.105   5.660 -0.0749  0.0826  0.0134
  432MOL0     C59520   4.775   3.034   5.792  0.0958 -0.5601 -0.2481
  432MOL0     C59521   4.654   3.053   5.886 -0.2466 -0.1376  0.0295
  432MOL0     C59522   4.686   3.045   6.038 -0.0393 -0.5388 -1.3372
  432MOL0    Cl59523   4.768   2.903   6.086  0.0192  0.1855 -0.1992
  432MOL0     C59524   4.951   3.300   4.975 -0.6701  0.2997 -0.1444
  432MOL0     C59525   4.890   3.367   4.868  0.3472 -0.9703 -0.3693
  432MOL0     O59526   4.631   3.600   4.850  0.0938 -0.1034 -0.0035
  432MOL0     C59527   4.760   3.562   4.530  0.8193 -0.8834  0.1011
  432MOL0     C59528   4.761   3.617   4.403 -0.1422  0.6145 -0.9977
  432MOL0     N59529   4.946   4.289   4.257  1.1731 -0.3744  0.0727
  432MOL0     N59530   5.059   4.310   4.328  0.1743 -0.0768  0.2808
  432MOL0     C59531   5.893   3.579   4.420  0.0159  0.7663  0.2772
  432MOL0     C59532   6.013   3.538   4.367  0.5308 -0.4177  0.6793
  432MOL0     C59533   6.337   3.372   4.107 -0.5576 -0.2027  0.6781
  432MOL0     C59534   6.437   3.361   4.203  0.3797 -0.0972 -0.5902
  432MOL0     C59535   6.568   3.321   4.176  0.4279  0.5691 -0.3816
  432MOL0     C59536   6.593   3.284   4.043 -0.1630  0.1305  0.1226
  432MOL0     O59537   6.704   3.216   4.001 -0.8264 -0.4286  0.1883
  432MOL0     C59538   6.817   3.196   4.091 -0.1573  0.5251  0.2220
  432MOL0     C59539   6.789   3.061   4.157 -1.6623  1.2821 -0.0645
  432MOL0     C59540   6.910   3.025   4.243  0.3821 -0.2302 -0.1375
  432MOL0     C59541   6.966   2.897   4.194  0.3867 -0.4400 -0.2184
  432MOL0     C59542   7.073   2.868   4.290  0.1193  0.8552 -0.1250
  432MOL0     C59543   7.167   2.842   4.355  0.0392  0.5546  0.6184
  432MOL0     C59544   6.494   3.298   3.938  0.7126 -0.5891 -0.6354
  432MOL0     C59545   6.368   3.350   3.970 -0.4054  0.0270  0.7595
  432MOL0     C59546   6.276   3.374   3.854 -0.0005 -0.4672  0.1745
  432MOL0     H59547   5.945   3.233   4.253  0.0171 -0.8291 -0.6267
  432MOL0     H59548   5.711   3.297   4.348  1.7601 -2.8733  0.0309
  432MOL0     H59549   5.742   3.613   4.611 -0.0652 -1.3682 -0.1714
  432MOL0     H59550   5.583   3.540   4.650 -2.1358  0.2097 -1.4256
  432MOL0     H59551   5.483   3.711   4.504  0.0806  0.0032 -0.0530
  432MOL0     H59552   5.552   3.778   4.656 -0.7487  0.0579 -1.2088
  432MOL0     H59553   5.737   3.873   4.549  0.7372 -0.6455 -1.0125
  432MOL0     H59554   5.716   3.787   4.395  1.6757  3.9771 -1.8716
  432MOL0     H59555   5.660   4.012   4.375  0.5472  0.8465  0.9015
  432MOL0     H59556   5.514   3.918   4.356 -0.0966  3.8364 -2.4384
  432MOL0     H59557   5.602   4.047   4.604 -0.6041  1.9745 -1.3808
  432MOL0     H59558   5.432   3.980   4.580 -0.2240  0.2623  2.6560
  432MOL0     H59559   5.440   4.231   4.551 -3.4734  2.0636 -2.9859
  432MOL0     H59560   5.551   4.200   4.420  1.0077 -1.0706  0.8408
  432MOL0     H59561   5.262   4.085   4.422  0.9211 -1.0516  1.0795
  432MOL0     H59562   5.388   4.067   4.301 -0.4568  1.3282 -1.1575
  432MOL0     H59563   5.323   4.341   4.387  1.7531 -0.9663  0.1743
  432MOL0     H59564   5.355   4.285   4.217 -2.0224  2.1703 -0.8383
  432MOL0     H59565   5.156   4.108   4.098 -0.2669 -2.4064  1.8167
  432MOL0     H59566   4.943   4.064   4.018  0.1543  1.4575 -0.5562
  432MOL0     H59567   4.815   4.186   4.014 -1.1221 -0.6955 -1.2791
  432MOL0     H59568   4.862   3.975   4.235  1.8554  0.4339 -0.9055
  432MOL0     H59569   4.740   4.102   4.230  1.9146  2.3831 -1.7626
  432MOL0     H59570   4.643   3.988   4.020 -0.1422 -0.3012 -0.5489
  432MOL0     H59571   4.765   3.864   4.017 -1.1530  2.5219 -3.0185
  432MOL0     H59572   4.576   3.919   4.250  0.8534  3.8444 -3.1819
  432MOL0     H59573   4.531   3.813   4.120 -0.0339  0.8800 -1.5982
  432MOL0     H59574   4.478   3.791   4.396 -0.3107 -0.6915 -1.7429
  432MOL0     H59575   4.398   3.578   4.663  2.2343  0.9369  3.5423
  432MOL0     H59576   4.338   3.738   4.602  0.1081  1.0158 -0.6306
  432MOL0     H59577   4.452   3.728   4.740 -0.7483 -4.2694  3.5613
  432MOL0     H59578   4.562   3.298   4.934  0.5103  1.6575 -1.8323
  432MOL0     H59579   4.679   3.167   5.130  0.6867  0.1618  1.0421
  432MOL0     H59580   5.109   3.234   5.193 -0.0768 -2.7548 -0.5132
  432MOL0     H59581   4.966   3.311   5.252  0.1241  0.7997 -2.2519
  432MOL0     H59582   5.060   3.043   5.340  0.4892  0.2341 -2.0636
  432MOL0     H59583   5.092   3.204   5.430  2.2589 -1.1162 -3.2189
  432MOL0     H59584   4.834   3.059   5.390  2.3577 -3.2036  2.7700
  432MOL0     H59585   4.845   3.242   5.432  2.7443  0.6852 -2.3361
  432MOL0     H59586   4.977   3.151   5.638 -1.7670  0.6953  2.7423
  432MOL0     H59587   4.931   2.991   5.574  3.4672  1.9255 -1.1625
  432MOL0     H59588   4.726   3.208   5.686 -0.3025 -0.7208  3.3987
  432MOL0     H59589   4.672   3.066   5.599 -1.5419 -0.3781  2.1751
  432MOL0     H59590   4.855   3.085   5.846  0.3820  0.7718 -1.8793
  432MOL0     H59591   4.802   2.931   5.768 -0.9707 -2.0292  3.8743
  432MOL0     H59592   4.574   2.988   5.848 -0.9175  0.3846  0.5222
  432MOL0     H59593   4.617   3.154   5.869  0.5833  0.2796  0.6864
  432MOL0     H59594   4.601   3.072   6.102  1.6964  0.1065  0.8376
  432MOL0     H59595   4.748   3.134   6.056  0.6694 -1.0552 -1.1696
  432MOL0     H59596   5.058   3.287   4.963 -0.3515 -0.9814  3.2203
  432MOL0     H59597   4.956   3.421   4.801 -0.2351 -0.8299 -0.8339
  432MOL0     H59598   4.846   3.501   4.555  1.9452 -0.7284 -2.9384
  432MOL0     H59599   4.848   3.593   4.342 -0.6005  1.5890 -2.0756
  432MOL0     H59600   5.901   3.675   4.469  0.5936  0.3420  1.0462
  432MOL0     H59601   6.104   3.595   4.379  1.9974 -1.7299 -2.9126
  432MOL0     H59602   6.407   3.402   4.299 -1.9651 -0.5620 -1.0578
  432MOL0     H59603   6.643   3.300   4.252 -0.5788 -1.3602  0.1252
  432MOL0     H59604   6.903   3.206   4.026  0.7167  1.7395  1.5093
  432MOL0     H59605   6.827   3.272   4.169  0.8171  1.3343 -0.6757
  432MOL0     H59606   6.755   2.984   4.088  2.0347 -0.9497  0.3101
  432MOL0     H59607   6.712   3.070   4.235 -1.3778  1.2504  0.2215
  432MOL0     H59608   6.990   3.097   4.223  0.0779 -1.0355 -6.1454
  432MOL0     H59609   6.880   3.021   4.348 -2.3035 -0.8704 -0.8456
  432MOL0     H59610   6.998   2.899   4.089 -1.1823 -3.0456 -0.8459
  432MOL0     H59611   6.887   2.821   4.203 -0.9430  1.1766  5.3426
  432MOL0     H59612   7.261   2.825   4.403  0.5572 -2.8979 -1.2305
  432MOL0     H59613   6.535   3.277   3.840 -0.3367 -2.3582 -0.7461
  432MOL0     H59614   6.178   3.337   3.883 -1.0981  0.7044 -1.8091
  432MOL0     H59615   6.270   3.481   3.833  1.1180 -0.7711 -1.9260
  432MOL0     H59616   6.310   3.327   3.761  2.2559  2.2043 -0.4880
  433MOL0     O59617   0.678   4.481   0.685  0.2763  0.2055 -0.6252
  433MOL0     C59618   0.785   4.505   0.732 -0.4290 -0.2243  0.3912
  433MOL0     O59619   0.801   4.592   0.836  0.0497  0.4538 -0.3418
  433MOL0     C59620   0.688   4.654   0.871 -0.2577 -0.5136 -0.8833
  433MOL0     C59621   0.608   4.610   0.976 -0.7379  0.3223 -0.2585
  433MOL0     C59622   0.496   4.685   1.021 -0.7417 -0.7558  0.8122
  433MOL0     C59623   0.469   4.812   0.958  0.0175 -0.8126  1.0144
  433MOL0     O59624   0.362   4.889   0.991 -0.4382  0.0801 -0.5979
  433MOL0     C59625   0.235   4.825   1.029  0.4333 -0.6179 -0.1329
  433MOL0     C59626   0.148   4.949   1.063 -0.3940  1.3929  0.1889
  433MOL0     C59627   0.006   4.924   1.030 -0.7864 -0.3453  0.2963
  433MOL0     C59628  -0.073   5.030   1.111 -0.2758 -0.3288 -0.0562
  433MOL0     C59629  -0.210   5.059   1.044  0.4106  0.0783 -0.2419
  433MOL0     C59630  -0.204   5.139   0.916  0.1073  0.0159 -0.1114
  433MOL0     C59631  -0.347   5.194   0.882 -0.3909  0.7308  0.4757
  433MOL0     C59632  -0.461   5.099   0.836 -0.3240  1.5654  1.1545
  433MOL0     N59633  -0.573   5.171   0.786 -0.0213  0.1071 -0.6345
  433MOL0     C59634  -0.590   5.219   0.663  0.1418 -0.4675  1.0456
  433MOL0     C59635  -0.687   5.317   0.675  0.2904  0.1074 -0.4665
  433MOL0     C59636  -0.734   5.387   0.553 -0.8329  0.3835  0.3861
  433MOL0     C59637  -0.837   5.499   0.574  0.3373  0.7491  0.2957
  433MOL0     C59638  -0.874   5.550   0.423 -0.1992  0.0665 -0.6896
  433MOL0     C59639  -1.001   5.634   0.422 -1.4643  0.9869  0.3877
  433MOL0     O59640  -1.118   5.559   0.474  0.1740 -0.3998  0.0465
  433MOL0     C59641  -1.221   5.507   0.393 -0.4683 -0.2015  0.3737
  433MOL0     C59642  -1.321   5.443   0.462 -0.1075  0.1143 -0.9370
  433MOL0     C59643  -1.427   5.379   0.389 -0.6935 -0.0778 -0.2626
  433MOL0     C59644  -1.553   5.344   0.470  0.3610  0.2478 -0.3131
  433MOL0     C59645  -1.424   5.372   0.248  0.0225  1.2591 -1.2445
  433MOL0     C59646  -1.521   5.292   0.162 -0.2783 -0.1084 -1.6051
  433MOL0     O59647  -1.608   5.211   0.230 -1.1450 -0.2025 -0.6837
  433MOL0     C59648  -1.714   5.142   0.176 -0.8145  0.6385  0.5271
  433MOL0     C59649  -1.802   5.090   0.268  0.1477  0.8574  0.6826
  433MOL0     C59650  -1.910   5.009   0.234 -0.6066 -0.1967  0.2858
  433MOL0     C59651  -1.943   4.988   0.102 -0.4333 -0.2448  0.3059
  433MOL0     O59652  -2.057   4.919   0.072  0.2288  0.6471  0.0127
  433MOL0     C59653  -2.108   4.909  -0.058 -0.2781 -0.1528  0.6483
  433MOL0     C59654  -2.257   4.866  -0.067 -0.3847  0.4643  0.9627
  433MOL0     C59655  -2.355   4.963   0.002  0.2812  0.3877 -0.3296
  433MOL0     C59656  -2.349   5.106  -0.055  0.0975  1.1792  0.7726
  433MOL0     C59657  -2.485   5.178  -0.031  0.2585  0.4211  0.5113
  433MOL0     C59658  -2.472   5.320  -0.089 -0.8084  0.0882  0.6311
  433MOL0     C59659  -2.493   5.331  -0.241  0.0152  0.0995 -0.4581
  433MOL0     C59660  -2.636   5.313  -0.279  0.7096  1.0656 -0.4068
  433MOL0    Cl59661  -2.667   5.411  -0.419  0.2453 -0.9072 -0.2707
  433MOL0     C59662  -1.844   5.030   0.005  0.0909  0.7795 -0.4669
  433MOL0     C59663  -1.728   5.099   0.045  0.0964  0.2797  0.7528
  433MOL0     O59664  -1.521   5.318   0.045  0.5198  0.4678  1.6251
  433MOL0     C59665  -1.315   5.437   0.182 -0.0387 -0.5804  0.3524
  433MOL0     C59666  -1.216   5.501   0.257 -0.7845 -0.0702  0.7945
  433MOL0     N59667  -0.730   5.327   0.806  0.9027  0.1709 -0.6098
  433MOL0     N59668  -0.665   5.229   0.867  1.0585  0.2048 -0.4284
  433MOL0     C59669   0.555   4.855   0.859 -0.4758 -0.2572  0.0471
  433MOL0     C59670   0.661   4.779   0.818 -0.2804  0.1455  0.0113
  433MOL0     C59671   0.902   4.432   0.664 -0.4646 -0.1601 -0.2754
  433MOL0     C59672   0.866   4.324   0.582  0.1419 -0.2334  0.6837
  433MOL0     C59673   0.966   4.240   0.528  0.3350  1.3401  0.6021
  433MOL0     C59674   1.099   4.257   0.558  0.5060  0.4507 -0.2204
  433MOL0     O59675   1.195   4.161   0.532 -0.4238  0.1129 -0.6679
  433MOL0     C59676   1.186   4.073   0.412 -0.6908 -0.1533  0.1716
  433MOL0     C59677   1.270   3.954   0.430  0.5117  0.1317  0.0765
  433MOL0     C59678   1.421   3.992   0.431  0.3863  0.5269  0.4299
  433MOL0     C59679   1.501   3.880   0.497 -0.0064  0.8661  0.3929
  433MOL0     C59680   1.641   3.908   0.504  0.4378 -0.0594  0.2019
  433MOL0     C59681   1.761   3.929   0.509  0.5936  0.3438  0.5092
  433MOL0     C59682   1.132   4.359   0.650  0.1337  0.6464 -0.1778
  433MOL0     C59683   1.033   4.449   0.694 -0.4605  0.2575 -0.6022
  433MOL0     C59684   1.085   4.560   0.779 -0.0940 -0.5994 -0.1226
  433MOL0     H59685   0.635   4.522   1.034  0.0848 -0.0314 -1.1545
  433MOL0     H59686   0.449   4.656   1.115 -3.3280  0.4931 -0.0027
  433MOL0     H59687   0.232   4.766   1.121 -0.5795  2.5511  2.0709
  433MOL0     H59688   0.195   4.772   0.943  0.2401  1.2962 -1.2915
  433MOL0     H59689   0.169   4.981   1.165  3.4122 -2.3643  0.8870
  433MOL0     H59690   0.183   5.033   1.003  1.0263 -0.1525 -1.2801
  433MOL0     H59691  -0.018   4.922   0.924  0.5638 -0.9477 -0.0183
  433MOL0     H59692  -0.018   4.826   1.073 -0.8993  0.4346  2.0946
  433MOL0     H59693  -0.101   4.978   1.204 -1.3567  1.0981  0.4625
  433MOL0     H59694  -0.012   5.115   1.144 -0.5445 -0.6673  1.4111
  433MOL0     H59695  -0.266   5.109   1.123 -0.0368  0.0414 -0.5316
  433MOL0     H59696  -0.245   4.956   1.034 -1.5179  0.7748 -1.2492
  433MOL0     H59697  -0.140   5.226   0.930  0.6175 -0.7539  3.0909
  433MOL0     H59698  -0.159   5.080   0.835  2.1034  0.5782  0.5399
  433MOL0     H59699  -0.334   5.265   0.800  0.3771  0.2280  0.1567
  433MOL0     H59700  -0.379   5.255   0.967  0.0627  1.1502  0.3537
  433MOL0     H59701  -0.423   5.022   0.767  1.6097  3.3487  0.1014
  433MOL0     H59702  -0.491   5.042   0.924 -0.3988 -0.5805 -0.1745
  433MOL0     H59703  -0.534   5.185   0.576  0.1152 -0.9270  1.2040
  433MOL0     H59704  -0.781   5.310   0.492  0.1900 -0.7789  1.0172
  433MOL0     H59705  -0.646   5.426   0.501 -0.3096  0.2723  1.1675
  433MOL0     H59706  -0.925   5.447   0.615 -1.2954  2.3066 -1.0345
  433MOL0     H59707  -0.804   5.579   0.641  2.6082 -0.6184  0.9142
  433MOL0     H59708  -0.794   5.608   0.376 -1.8712  1.9523 -1.3679
  433MOL0     H59709  -0.908   5.471   0.357 -3.2359 -1.6386  2.5694
  433MOL0     H59710  -0.973   5.719   0.485  2.5192  1.6286 -1.9240
  433MOL0     H59711  -1.026   5.678   0.325  0.8534  0.7045 -0.4113
  433MOL0     H59712  -1.324   5.458   0.569 -3.2272  0.8432 -1.0047
  433MOL0     H59713  -1.563   5.244   0.514 -0.0142  1.0955  1.6006
  433MOL0     H59714  -1.647   5.380   0.429  0.0372  3.9635  3.1132
  433MOL0     H59715  -1.541   5.407   0.558 -0.9090  0.1851 -0.0776
  433MOL0     H59716  -1.770   5.100   0.371  2.6226  0.7430 -0.0154
  433MOL0     H59717  -1.978   4.967   0.308  0.8224 -1.1812  1.0921
  433MOL0     H59718  -2.097   5.002  -0.114 -0.9897  0.0769  0.8807
  433MOL0     H59719  -2.044   4.829  -0.096  0.8537 -1.8428  5.4531
  433MOL0     H59720  -2.294   4.868  -0.169 -0.9390  3.7188  1.1220
  433MOL0     H59721  -2.258   4.772  -0.012 -0.0525  1.7539  3.3115
  433MOL0     H59722  -2.364   4.974   0.110 -3.5196  4.5854 -0.7680
  433MOL0     H59723  -2.448   4.914  -0.028  0.2592 -0.3853  0.9304
  433MOL0     H59724  -2.335   5.101  -0.164  0.1672 -0.6707  0.8402
  433MOL0     H59725  -2.268   5.163  -0.009  0.3879 -1.4259  3.7989
  433MOL0     H59726  -2.562   5.118  -0.081 -1.2563  1.6144  1.3392
  433MOL0     H59727  -2.506   5.189   0.075 -2.2597  1.7677 -0.0526
  433MOL0     H59728  -2.377   5.365  -0.061 -2.4527  3.9450  0.6150
  433MOL0     H59729  -2.554   5.386  -0.060 -1.5377  0.1330 -1.4076
  433MOL0     H59730  -2.431   5.278  -0.314  2.2380  1.2349  0.5058
  433MOL0     H59731  -2.470   5.437  -0.258  0.2673  0.1754  0.3200
  433MOL0     H59732  -2.706   5.335  -0.198 -2.0065 -2.3601 -1.6016
  433MOL0     H59733  -2.650   5.207  -0.301  1.5969  1.2386 -1.9576
  433MOL0     H59734  -1.859   5.015  -0.102 -0.2082  0.3490 -0.3697
  433MOL0     H59735  -1.648   5.130  -0.021  2.0928 -1.7321  2.0664
  433MOL0     H59736  -1.314   5.439   0.074 -1.6314 -2.2657  0.2688
  433MOL0     H59737  -1.133   5.543   0.201  0.2843 -1.9237  0.9053
  433MOL0     H59738   0.523   4.939   0.799 -2.0711 -2.1018 -1.8959
  433MOL0     H59739   0.723   4.810   0.735 -1.0494  2.2058  0.1550
  433MOL0     H59740   0.760   4.327   0.559  0.2424  2.8354  0.1637
  433MOL0     H59741   0.925   4.157   0.471  0.0335 -0.3368  3.1404
  433MOL0     H59742   1.086   4.029   0.420  0.2751 -2.9002 -1.4647
  433MOL0     H59743   1.196   4.128   0.318 -1.1394  2.3363  1.4926
  433MOL0     H59744   1.252   3.871   0.361  1.4297 -0.6982  0.8094
  433MOL0     H59745   1.239   3.921   0.529  3.3199 -3.0490  0.0874
  433MOL0     H59746   1.451   4.003   0.326 -0.5034 -1.9920 -0.1394
  433MOL0     H59747   1.438   4.083   0.489  0.3306  0.7147  0.1521
  433MOL0     H59748   1.481   3.788   0.441 -1.5876 -1.0497  3.7723
  433MOL0     H59749   1.459   3.856   0.595 -1.0863 -0.5037 -0.3685
  433MOL0     H59750   1.866   3.930   0.527  0.3735 -2.9133  2.8619
  433MOL0     H59751   1.235   4.364   0.682  0.2097 -1.6319  0.0954
  433MOL0     H59752   1.191   4.589   0.775 -0.4764  2.0939  3.6883
  433MOL0     H59753   1.031   4.654   0.763  0.3068 -0.4510 -0.6510
  433MOL0     H59754   1.082   4.529   0.884 -0.0522 -3.2498 -0.8463
  434MOL0     O59755  11.433   8.354   0.063  0.3062  0.2619 -0.2518
  434MOL0     C59756  11.339   8.273   0.046 -0.0469  0.1111 -1.0738
  434MOL0     O59757  11.246   8.283  -0.059 -0.1338  0.0938  0.0371
  434MOL0     C59758  11.272   8.376  -0.156 -0.3103 -0.1985  0.4809
  434MOL0     C59759  11.295   8.328  -0.293  1.1373  0.5668 -0.4584
  434MOL0     C59760  11.302   8.426  -0.391 -0.4525  0.1741  0.0746
  434MOL0     C59761  11.291   8.565  -0.368  0.0560  0.8206 -0.3167
  434MOL0     O59762  11.269   8.656  -0.463 -0.2020  0.0137  1.0848
  434MOL0     C59763  11.284   8.633  -0.601  1.3974 -0.1570 -0.2578
  434MOL0     C59764  11.411   8.676  -0.671  0.5114 -0.3364 -0.6106
  434MOL0     C59765  11.533   8.596  -0.632 -0.8723  0.2508 -0.4365
  434MOL0     C59766  11.665   8.669  -0.658 -0.7892 -0.1338  0.7595
  434MOL0     C59767  11.777   8.577  -0.592 -0.4689 -0.3901 -0.2223
  434MOL0     C59768  11.917   8.631  -0.613  0.9390  0.6569 -0.3107
  434MOL0     C59769  11.975   8.732  -0.515  0.0828 -0.8863 -0.4264
  434MOL0     C59770  12.084   8.812  -0.593  0.0955 -0.4065 -0.1716
  434MOL0     N59771  12.136   8.924  -0.507  0.2162  0.3639  0.1548
  434MOL0     C59772  12.077   9.038  -0.466 -0.6019 -0.3425 -0.8979
  434MOL0     C59773  12.163   9.106  -0.389  0.1060 -0.4473 -0.1814
  434MOL0     C59774  12.128   9.228  -0.301 -0.4124  0.2013 -0.7002
  434MOL0     C59775  12.239   9.329  -0.315  0.1455 -0.6759 -0.3428
  434MOL0     C59776  12.196   9.475  -0.261 -0.2872  0.0653  0.5618
  434MOL0     C59777  12.309   9.581  -0.293  1.2380 -0.3390 -0.2469
  434MOL0     O59778  12.427   9.552  -0.222 -0.1954  0.1773 -0.3707
  434MOL0     C59779  12.480   9.642  -0.125  0.1467  0.5397  0.2254
  434MOL0     C59780  12.410   9.663  -0.003  0.9822 -0.2689  0.2577
  434MOL0     C59781  12.455   9.758   0.086 -0.9576 -0.8141 -0.1455
  434MOL0     C59782  12.389   9.749   0.221 -0.8552  0.7121  0.9236
  434MOL0     C59783  12.575   9.830   0.070  0.0269  0.1494 -0.2758
  434MOL0     C59784  12.620   9.937   0.160 -1.0854 -0.6841  0.8916
  434MOL0     O59785  12.753   9.959   0.156 -0.6033 -0.9224  0.0654
  434MOL0     C59786  12.815  10.022   0.266  0.7566 -0.1123 -0.1264
  434MOL0     C59787  12.951  10.036   0.252 -0.2713 -0.3332  0.4087
  434MOL0     C59788  13.037  10.090   0.346 -0.5510  0.0738 -0.1680
  434MOL0     C59789  12.977  10.147   0.459 -0.8266  0.5491 -0.8000
  434MOL0     O59790  13.044  10.224   0.547 -0.0846 -0.5737  0.2909
  434MOL0     C59791  13.179  10.264   0.525 -0.5198 -1.0453 -0.1914
  434MOL0     C59792  13.245  10.345   0.633 -0.5603  0.5676 -0.1487
  434MOL0     C59793  13.396  10.362   0.599 -0.4528  0.6973  0.0513
  434MOL0     C59794  13.472  10.412   0.723 -0.0766 -0.6095  0.0558
  434MOL0     C59795  13.607  10.465   0.691 -0.5799  0.2237 -0.6133
  434MOL0     C59796  13.719  10.461   0.807 -0.6410 -0.6561  0.1849
  434MOL0     C59797  13.856  10.521   0.763  0.0672  0.7580  0.1911
  434MOL0     C59798  13.947  10.430   0.679  0.5320 -0.2226 -0.1244
  434MOL0    Cl59799  14.082  10.538   0.619  0.5089  0.2995  0.0366
  434MOL0     C59800  12.838  10.140   0.471  0.0612  0.4023 -0.2215
  434MOL0     C59801  12.758  10.077   0.376 -0.5267 -0.2695 -0.6019
  434MOL0     O59802  12.535  10.008   0.208  0.1965  0.4555 -0.1810
  434MOL0     C59803  12.646   9.802  -0.049 -0.6714  0.4598 -0.2024
  434MOL0     C59804  12.598   9.704  -0.146 -0.0787  0.2878  0.5314
  434MOL0     N59805  12.276   9.031  -0.380 -0.4411  0.4316 -0.0351
  434MOL0     N59806  12.259   8.926  -0.461 -0.6395 -0.4859 -0.5147
  434MOL0     C59807  11.272   8.606  -0.239  0.5374  0.5934 -0.0336
  434MOL0     C59808  11.268   8.514  -0.135  0.5692 -0.8211  0.3123
  434MOL0     C59809  11.350   8.139   0.108  0.8563 -0.5461  0.2256
  434MOL0     C59810  11.325   8.029   0.026  0.7486 -0.2116  0.3420
  434MOL0     C59811  11.350   7.900   0.074 -0.1894 -0.5226 -0.2472
  434MOL0     C59812  11.394   7.868   0.209 -0.2109 -1.0219 -0.4327
  434MOL0     O59813  11.438   7.746   0.256  0.3152 -0.7958 -0.4500
  434MOL0     C59814  11.506   7.661   0.167  0.5678  0.5303 -0.3960
  434MOL0     C59815  11.573   7.555   0.251  0.1841  0.8123  0.0455
  434MOL0     C59816  11.475   7.461   0.326  0.2075 -0.1755  0.4286
  434MOL0     C59817  11.546   7.339   0.376  0.8880  0.6527 -0.3553
  434MOL0     C59818  11.591   7.246   0.267 -0.7388 -0.5033  0.0061
  434MOL0     C59819  11.641   7.178   0.182 -0.4124 -0.3386  1.1904
  434MOL0     C59820  11.430   7.983   0.277  0.0009 -0.6854  0.6835
  434MOL0     C59821  11.400   8.117   0.238 -0.4478  0.4213  0.4477
  434MOL0     C59822  11.449   8.229   0.324  0.0276  0.4235 -0.5153
  434MOL0     H59823  11.306   8.222  -0.312 -0.2262  0.1550  0.8623
  434MOL0     H59824  11.319   8.395  -0.493 -1.7203  1.5689 -0.5964
  434MOL0     H59825  11.197   8.685  -0.642 -0.6916 -0.8033  2.9657
  434MOL0     H59826  11.260   8.528  -0.618  0.1631  0.5032 -3.2124
  434MOL0     H59827  11.377   8.658  -0.773  1.1275  0.0669 -0.8854
  434MOL0     H59828  11.434   8.782  -0.659  0.4732 -0.6105  4.2043
  434MOL0     H59829  11.539   8.572  -0.525  1.2778 -3.7693 -1.2758
  434MOL0     H59830  11.534   8.497  -0.677  0.8855 -0.5429  1.2439
  434MOL0     H59831  11.668   8.665  -0.767 -2.2866 -1.0313  0.7200
  434MOL0     H59832  11.672   8.769  -0.614 -0.1713 -0.7339  2.0780
  434MOL0     H59833  11.780   8.476  -0.633 -1.7653 -0.0791 -1.1743
  434MOL0     H59834  11.761   8.573  -0.483  1.6353 -1.0459  0.0913
  434MOL0     H59835  11.990   8.550  -0.605 -0.8345 -1.3896 -3.1586
  434MOL0     H59836  11.925   8.662  -0.718 -0.4907  1.2469 -0.2697
  434MOL0     H59837  12.011   8.682  -0.425 -1.0677  0.5828  0.9042
  434MOL0     H59838  11.895   8.794  -0.474  2.1508 -0.1064  2.8168
  434MOL0     H59839  12.173   8.754  -0.619  2.0211  1.5636  1.5936
  434MOL0     H59840  12.034   8.854  -0.681  0.4564  1.3738  0.4286
  434MOL0     H59841  11.973   9.070  -0.476 -0.5801 -0.2838 -0.9402
  434MOL0     H59842  12.112   9.196  -0.197  2.1605 -0.1615 -0.3443
  434MOL0     H59843  12.039   9.278  -0.341  0.6933  1.1973 -2.0157
  434MOL0     H59844  12.332   9.283  -0.281  0.3329 -2.1823 -2.7072
  434MOL0     H59845  12.259   9.328  -0.422 -1.6887 -0.9337 -0.7242
  434MOL0     H59846  12.109   9.509  -0.318 -1.2154 -2.8009  0.1057
  434MOL0     H59847  12.171   9.484  -0.155 -1.0408  1.7967  0.2683
  434MOL0     H59848  12.314   9.586  -0.402 -1.0515 -2.1232 -0.5186
  434MOL0     H59849  12.262   9.678  -0.276 -4.4515 -2.3627 -2.0756
  434MOL0     H59850  12.324   9.601   0.020 -0.3180  0.8107 -1.4637
  434MOL0     H59851  12.462   9.777   0.298 -0.0808 -3.1368  1.7884
  434MOL0     H59852  12.358   9.646   0.240  2.8961 -0.7398  0.1351
  434MOL0     H59853  12.303   9.817   0.220 -0.6613  0.9822  1.7231
  434MOL0     H59854  12.994   9.996   0.161  0.6031 -1.2677  1.2043
  434MOL0     H59855  13.142  10.097   0.322 -0.6086  1.9360 -0.0328
  434MOL0     H59856  13.234  10.170   0.536  0.4223 -0.6464 -1.3612
  434MOL0     H59857  13.198  10.316   0.431 -3.0248 -2.3827 -1.5694
  434MOL0     H59858  13.200  10.442   0.657  0.2268  1.0025 -0.3945
  434MOL0     H59859  13.232  10.288   0.725  0.8007 -3.5594 -2.2414
  434MOL0     H59860  13.400  10.434   0.517 -1.1191  1.1703  0.4264
  434MOL0     H59861  13.444  10.273   0.556  0.1382  1.2264 -0.4040
  434MOL0     H59862  13.481  10.335   0.800  1.3707  0.8602  1.4235
  434MOL0     H59863  13.412  10.496   0.760  0.3569  0.7839 -2.1991
  434MOL0     H59864  13.653  10.403   0.613  1.9327  0.0151  0.9159
  434MOL0     H59865  13.598  10.568   0.655 -1.8322 -0.0869 -1.2573
  434MOL0     H59866  13.739  10.361   0.848  2.6406  0.1872  0.9370
  434MOL0     H59867  13.699  10.526   0.893 -0.0833 -0.8618  0.4724
  434MOL0     H59868  13.911  10.533   0.856  0.0148  0.3920  0.2713
  434MOL0     H59869  13.849  10.621   0.720 -1.0734 -0.2271 -2.1289
  434MOL0     H59870  13.890  10.379   0.601 -2.6573 -1.2437  2.6338
  434MOL0     H59871  13.975  10.352   0.750 -1.4350 -0.4425  0.4813
  434MOL0     H59872  12.800  10.174   0.567  2.0538  1.2761  0.3129
  434MOL0     H59873  12.652  10.063   0.393 -0.2394 -0.5874  1.1799
  434MOL0     H59874  12.744   9.846  -0.064  0.0091  0.2021  2.8804
  434MOL0     H59875  12.659   9.671  -0.229  0.9521  0.0167  1.3707
  434MOL0     H59876  11.264   8.714  -0.230  0.7797  0.6063  0.0431
  434MOL0     H59877  11.249   8.561  -0.039 -2.4187  0.4362 -0.7859
  434MOL0     H59878  11.290   8.029  -0.076 -3.3082 -0.7168  1.5512
  434MOL0     H59879  11.325   7.825  -0.000 -0.1509  2.7212 -3.8622
  434MOL0     H59880  11.440   7.615   0.093  1.7473 -1.8127 -0.1094
  434MOL0     H59881  11.583   7.715   0.110 -0.7380  0.0990 -2.6955
  434MOL0     H59882  11.643   7.593   0.325 -0.3396 -0.9813  1.5620
  434MOL0     H59883  11.623   7.494   0.176 -0.8809 -2.4434  1.7666
  434MOL0     H59884  11.423   7.515   0.406  0.8646  1.0077  0.0735
  434MOL0     H59885  11.402   7.433   0.250  0.3838 -4.2920  1.5544
  434MOL0     H59886  11.464   7.294   0.432 -0.8342 -1.1776 -4.0524
  434MOL0     H59887  11.630   7.352   0.445  0.5818  1.1603 -0.0725
  434MOL0     H59888  11.683   7.114   0.106  1.6340  1.4561  0.7026
  434MOL0     H59889  11.480   7.974   0.373 -0.4245  3.3512  1.4571
  434MOL0     H59890  11.409   8.330   0.322  0.0029  0.4281 -0.0050
  434MOL0     H59891  11.429   8.200   0.428  1.1333  1.2831 -0.0429
  434MOL0     H59892  11.557   8.244   0.316 -0.2343  2.1417 -1.0876
  435MOL0     O59893   3.051   8.683  10.617  0.4308  0.7634 -0.5988
  435MOL0     C59894   3.140   8.768  10.615 -0.8834  0.0507 -0.1681
  435MOL0     O59895   3.272   8.736  10.600  0.6209 -0.0835  0.6164
  435MOL0     C59896   3.338   8.623  10.588 -0.5295 -0.5735  0.5257
  435MOL0     C59897   3.477   8.631  10.568  0.8380 -0.3177  0.1326
  435MOL0     C59898   3.561   8.521  10.558 -0.3635  0.8071  0.1352
  435MOL0     C59899   3.506   8.387  10.573 -0.2476 -0.1364 -0.0786
  435MOL0     O59900   3.587   8.280  10.572 -0.1151 -0.0063  0.0530
  435MOL0     C59901   3.582   8.201  10.691  0.4218  0.0014  0.4577
  435MOL0     C59902   3.717   8.154  10.743 -0.3659 -0.8002 -0.0626
  435MOL0     C59903   3.796   8.281  10.804  0.7604 -1.3741 -0.4850
  435MOL0     C59904   3.938   8.242  10.820 -0.5568 -0.6600 -1.4631
  435MOL0     C59905   4.022   8.339  10.903  0.1543 -0.4274  0.0937
  435MOL0     C59906   4.029   8.470  10.828  0.3753 -1.4104 -0.8266
  435MOL0     C59907   4.128   8.564  10.887  0.2947 -0.0498 -0.0939
  435MOL0     C59908   4.156   8.671  10.781 -0.6557  0.5180 -0.0527
  435MOL0     N59909   4.281   8.739  10.804  0.0235  0.7600 -1.0047
  435MOL0     C59910   4.314   8.838  10.893  0.0027  0.2245  0.6155
  435MOL0     C59911   4.447   8.849  10.886  0.1425  0.1164  0.5490
  435MOL0     C59912   4.542   8.925  10.972 -0.1113  0.0625  0.1797
  435MOL0     C59913   4.603   9.036  10.894 -1.6252 -1.1405 -0.6422
  435MOL0     C59914   4.685   9.130  10.992  0.6412  0.0039  1.4345
  435MOL0     C59915   4.777   9.241  10.935 -0.6443  0.8658  1.1250
  435MOL0     O59916   4.858   9.282  11.045 -0.0264 -0.3447 -0.7349
  435MOL0     C59917   4.949   9.379  11.032 -0.4635  0.2872 -0.0254
  435MOL0     C59918   5.046   9.383  11.133 -0.6532  0.4480  0.6563
  435MOL0     C59919   5.153   9.473  11.126 -0.7228 -0.2706  0.6842
  435MOL0     C59920   5.261   9.465  11.230 -0.1449 -0.2275 -0.4342
  435MOL0     C59921   5.151   9.569  11.014  0.1526 -0.8540 -0.2238
  435MOL0     C59922   5.248   9.682  11.000  0.5243 -1.3251  0.1922
  435MOL0     O59923   5.343   9.687  11.098 -0.1652 -0.6334  0.8245
  435MOL0     C59924   5.447   9.781  11.093  0.8191 -0.6720  0.2463
  435MOL0     C59925   5.499   9.816  11.213  0.2739 -0.0310  0.0405
  435MOL0     C59926   5.610   9.904  11.211  0.4460  0.0822 -0.0385
  435MOL0     C59927   5.667   9.956  11.092 -0.3496  0.0631 -0.6448
  435MOL0     O59928   5.769  10.048  11.089  0.1032  0.9349 -0.0559
  435MOL0     C59929   5.804  10.110  11.209  0.3573  0.0658  0.3025
  435MOL0     C59930   5.919  10.204  11.181  1.2347  1.1830  0.7322
  435MOL0     C59931   5.941  10.301  11.286 -0.4443  0.1420  0.1937
  435MOL0     C59932   5.851  10.414  11.295  0.2573 -0.5029 -0.9001
  435MOL0     C59933   5.884  10.507  11.407 -0.3189 -0.3019  0.6288
  435MOL0     C59934   5.797  10.633  11.382  0.8599  0.0075 -0.1181
  435MOL0     C59935   5.831  10.748  11.476 -0.7514 -0.8876 -0.6619
  435MOL0     C59936   5.979  10.790  11.463  1.0967  0.5487  0.9654
  435MOL0    Cl59937   6.002  10.968  11.508 -0.0393  0.0178 -0.1772
  435MOL0     C59938   5.610   9.917  10.978  0.3220  0.3943  0.1979
  435MOL0     C59939   5.501   9.832  10.972  1.4081 -0.0061 -0.5396
  435MOL0     O59940   5.222   9.780  10.929  0.6666 -0.5032 -0.0254
  435MOL0     C59941   5.053   9.558  10.915  0.1523  0.1955  0.2849
  435MOL0     C59942   4.952   9.466  10.925 -1.0527  0.1781 -0.0602
  435MOL0     N59943   4.491   8.752  10.799  0.3628  0.3155 -0.1320
  435MOL0     N59944   4.392   8.697  10.741  0.0442  0.4829  0.4090
  435MOL0     C59945   3.368   8.387  10.600  0.5853  0.6006  0.4164
  435MOL0     C59946   3.289   8.500  10.618  0.4357  0.4497  0.0482
  435MOL0     C59947   3.088   8.913  10.615  0.2081  0.6760  0.0818
  435MOL0     C59948   2.958   8.932  10.664 -0.3788  0.0526 -0.6390
  435MOL0     C59949   2.917   9.068  10.685  0.0116 -0.0080  0.0913
  435MOL0     C59950   3.011   9.173  10.655  0.3788 -1.1349  0.5301
  435MOL0     O59951   2.964   9.304  10.650  0.6385  0.9242  0.3532
  435MOL0     C59952   2.825   9.334  10.632  0.1679  0.1107  0.6887
  435MOL0     C59953   2.805   9.469  10.572 -0.5230 -1.0724 -0.4066
  435MOL0     C59954   2.663   9.475  10.497 -0.5032  0.1254 -0.1705
  435MOL0     C59955   2.659   9.599  10.407 -0.0286 -0.6412 -0.3228
  435MOL0     C59956   2.609   9.707  10.488  1.1850  0.3107 -1.3049
  435MOL0     C59957   2.554   9.797  10.556 -0.0541 -0.2100 -0.2944
  435MOL0     C59958   3.128   9.140  10.598  0.7205  0.3730 -0.4117
  435MOL0     C59959   3.170   9.016  10.580  0.0863  0.0494 -0.2085
  435MOL0     C59960   3.314   9.005  10.536  0.2498 -0.5167  0.1552
  435MOL0     H59961   3.516   8.731  10.551  0.8855  0.3446  3.3878
  435MOL0     H59962   3.665   8.551  10.544 -0.1710  0.0134 -0.1724
  435MOL0     H59963   3.514   8.118  10.671 -1.1945  1.8816 -2.6044
  435MOL0     H59964   3.532   8.253  10.773  0.1057 -1.7231  1.3976
  435MOL0     H59965   3.712   8.072  10.816  0.8140 -2.5318 -1.8239
  435MOL0     H59966   3.768   8.115  10.654 -2.7633 -0.5391 -1.6474
  435MOL0     H59967   3.786   8.376  10.750 -1.5008 -0.5520  1.2102
  435MOL0     H59968   3.750   8.296  10.902 -0.0640 -2.1429 -0.7297
  435MOL0     H59969   3.940   8.158  10.890 -1.9586  1.9987  2.0751
  435MOL0     H59970   3.979   8.212  10.723 -0.4644  1.5176 -2.1452
  435MOL0     H59971   4.122   8.294  10.901  0.3537 -0.0050 -2.1725
  435MOL0     H59972   3.981   8.356  11.003 -0.0750 -1.3547  0.1657
  435MOL0     H59973   4.049   8.451  10.722  1.3333  3.0531 -1.6377
  435MOL0     H59974   3.937   8.528  10.826  1.0933 -0.2018  0.0874
  435MOL0     H59975   4.227   8.522  10.910  0.3480 -0.0038 -0.2444
  435MOL0     H59976   4.076   8.608  10.972  2.5145 -1.2311  2.0421
  435MOL0     H59977   4.157   8.617  10.686 -1.6554 -2.3025  1.4354
  435MOL0     H59978   4.076   8.744  10.774 -0.6621  0.3973 -1.4009
  435MOL0     H59979   4.250   8.897  10.958 -0.8144  0.1477 -0.0993
  435MOL0     H59980   4.624   8.862  11.007 -0.4843 -0.7118 -0.3071
  435MOL0     H59981   4.499   8.973  11.060 -2.1276 -1.7097  0.2377
  435MOL0     H59982   4.661   9.004  10.807 -2.3426 -2.0387 -0.8096
  435MOL0     H59983   4.524   9.096  10.848  0.1608  1.1819 -0.8776
  435MOL0     H59984   4.616   9.179  11.061 -1.4476 -1.5348  0.5583
  435MOL0     H59985   4.754   9.067  11.048  1.6699 -0.8682 -0.7230
  435MOL0     H59986   4.840   9.188  10.863 -0.2353  1.0584  1.3356
  435MOL0     H59987   4.720   9.320  10.885  0.4182  0.0803 -1.5045
  435MOL0     H59988   5.043   9.322  11.223 -0.1099 -0.1813  0.2655
  435MOL0     H59989   5.278   9.557  11.288  3.5603 -2.0180  1.7385
  435MOL0     H59990   5.357   9.439  11.184  0.2300  1.3326 -0.5776
  435MOL0     H59991   5.247   9.388  11.307  0.8684 -0.7323 -0.7419
  435MOL0     H59992   5.449   9.779  11.303  2.8054  1.8043  2.3645
  435MOL0     H59993   5.645   9.932  11.309 -2.2394  3.1129  0.2089
  435MOL0     H59994   5.715  10.157  11.252  2.3003  1.6991  2.8457
  435MOL0     H59995   5.840  10.034  11.278  1.2782 -0.1374 -0.3836
  435MOL0     H59996   6.012  10.147  11.173 -1.4959 -3.8282 -0.1688
  435MOL0     H59997   5.886  10.246  11.085 -1.8753  0.1945  1.2400
  435MOL0     H59998   6.035  10.346  11.254 -0.5841 -0.3221 -0.9166
  435MOL0     H59999   5.945  10.251  11.383 -0.6009 -4.1479 -1.8056
  435MOL0     H60000   5.748  10.375  11.298  1.2302 -3.2095  0.4862
  435MOL0     H60001   5.848  10.470  11.201 -1.0160  1.3435  0.1718
  435MOL0     H60002   5.875  10.454  11.503 -1.5380 -1.4025 -0.0761
  435MOL0     H60003   5.988  10.540  11.400 -1.0870  1.9386 -2.4446
  435MOL0     H60004   5.692  10.604  11.392  0.5395  1.0554 -0.3877
  435MOL0     H60005   5.807  10.679  11.283  1.2470 -2.9879 -1.6026
  435MOL0     H60006   5.815  10.714  11.579 -2.1261 -0.9991 -0.8881
  435MOL0     H60007   5.767  10.836  11.462 -0.2529  0.0747  2.2894
  435MOL0     H60008   6.018  10.774  11.362  1.0414  0.7445  0.9123
  435MOL0     H60009   6.048  10.724  11.516  1.5480  0.2680  0.0523
  435MOL0     H60010   5.660   9.936  10.883  1.4754 -0.9878  0.4943
  435MOL0     H60011   5.447   9.830  10.878 -0.5953  0.0201  0.5334
  435MOL0     H60012   5.064   9.613  10.823  1.5229  2.1673  1.5453
  435MOL0     H60013   4.883   9.447  10.843 -3.1752  1.6034  1.2764
  435MOL0     H60014   3.320   8.290  10.607  0.1498  0.6088 -1.5822
  435MOL0     H60015   3.182   8.502  10.638  0.7473  4.7277  2.2981
  435MOL0     H60016   2.900   8.845  10.694 -1.0821 -0.2887 -2.7944
  435MOL0     H60017   2.822   9.099  10.727 -1.0494  0.6306 -2.5487
  435MOL0     H60018   2.793   9.266  10.553  0.9523  3.3467 -2.7214
  435MOL0     H60019   2.763   9.310  10.720 -0.8538 -2.8645 -0.7174
  435MOL0     H60020   2.881   9.501  10.500 -0.6021  0.3325  0.1071
  435MOL0     H60021   2.820   9.550  10.643  0.0466 -0.8796 -0.7374
  435MOL0     H60022   2.644   9.391  10.429 -1.5473 -0.0328  0.2932
  435MOL0     H60023   2.586   9.477  10.575  1.8988 -0.1742  2.4001
  435MOL0     H60024   2.598   9.569  10.322 -1.2389 -2.4723  1.1112
  435MOL0     H60025   2.757   9.637  10.377  0.7789 -1.6190  0.9277
  435MOL0     H60026   2.504   9.862  10.624  0.5033  0.5712 -0.6089
  435MOL0     H60027   3.182   9.227  10.561  1.4456  0.3258  0.5081
  435MOL0     H60028   3.378   8.986  10.623  1.0778  1.5786  0.0637
  435MOL0     H60029   3.330   8.947  10.445 -2.1982  1.5683 -1.7404
  435MOL0     H60030   3.346   9.105  10.505  1.6219 -0.8237  0.5133
  436MOL0     O60031   0.106   2.086   6.696  0.5921 -0.3122 -0.2472
  436MOL0     C60032   0.015   2.131   6.770  0.2675 -0.9169  0.5661
  436MOL0     O60033   0.028   2.246   6.846 -0.3651 -0.0507 -0.2502
  436MOL0     C60034   0.135   2.328   6.825  0.4075  0.9633  0.2624
  436MOL0     C60035   0.190   2.388   6.933  0.6141  0.1875  0.8402
  436MOL0     C60036   0.296   2.484   6.925 -0.0261  0.3558  0.8298
  436MOL0     C60037   0.354   2.515   6.798 -0.1246  0.1414  0.6800
  436MOL0     O60038   0.465   2.595   6.788 -1.2988  0.5144  0.2405
  436MOL0     C60039   0.516   2.674   6.893  0.4346  0.2287 -0.1597
  436MOL0     C60040   0.632   2.600   6.958 -0.3766  0.2579 -1.4067
  436MOL0     C60041   0.692   2.674   7.086  0.0158 -0.0495 -0.1496
  436MOL0     C60042   0.761   2.806   7.039 -0.1059 -0.6203  0.7372
  436MOL0     C60043   0.817   2.895   7.153  0.4242 -0.1441 -0.3127
  436MOL0     C60044   0.936   2.819   7.213 -0.3711  0.4701  0.1184
  436MOL0     C60045   1.026   2.916   7.304 -0.3486 -0.0501  0.1025
  436MOL0     C60046   1.094   3.025   7.217  1.4514  0.4778 -0.4042
  436MOL0     N60047   1.193   2.968   7.117 -0.6637  0.1603  0.0328
  436MOL0     C60048   1.287   2.875   7.152  0.1701  0.5805  0.3920
  436MOL0     C60049   1.363   2.874   7.042  0.0263 -0.1375  0.2821
  436MOL0     C60050   1.470   2.772   7.009  0.0186 -0.3437  0.2325
  436MOL0     C60051   1.594   2.772   7.091 -0.1657 -0.1713 -0.9380
  436MOL0     C60052   1.695   2.655   7.054  0.6537  0.0498  0.3550
  436MOL0     C60053   1.842   2.680   7.083 -0.7236 -0.8470 -0.2581
  436MOL0     O60054   1.854   2.726   7.222 -0.3575 -0.0381 -0.0428
  436MOL0     C60055   1.958   2.804   7.260 -0.6748  0.5459 -0.4984
  436MOL0     C60056   2.033   2.769   7.378 -0.0383  0.3036  0.6588
  436MOL0     C60057   2.139   2.843   7.423 -0.0981  0.7383 -0.8171
  436MOL0     C60058   2.204   2.790   7.550  0.2155  0.3217 -0.0047
  436MOL0     C60059   2.175   2.963   7.350 -0.8076  1.9642 -0.9849
  436MOL0     C60060   2.305   3.036   7.380  1.1224 -0.0674  0.1292
  436MOL0     O60061   2.327   3.158   7.313 -0.1767  0.3869 -0.5171
  436MOL0     C60062   2.458   3.198   7.320  0.2886 -0.4256 -0.2559
  436MOL0     C60063   2.522   3.257   7.431  0.3565 -1.2816  0.4229
  436MOL0     C60064   2.656   3.304   7.420 -0.3918  0.6478 -0.9186
  436MOL0     C60065   2.738   3.262   7.313 -0.3104 -0.7702 -0.2046
  436MOL0     O60066   2.870   3.293   7.336 -0.5810 -0.1085  0.5002
  436MOL0     C60067   2.979   3.254   7.253 -0.5524  0.9013 -0.7295
  436MOL0     C60068   3.001   3.109   7.271 -0.4599  0.5437 -0.5731
  436MOL0     C60069   3.107   3.048   7.176 -0.5313 -0.0552  0.2073
  436MOL0     C60070   3.186   2.928   7.232 -0.2565 -0.0386  0.2269
  436MOL0     C60071   3.292   2.876   7.137 -0.4868 -0.3395  0.8425
  436MOL0     C60072   3.370   2.754   7.193 -0.0169  0.3732 -0.9180
  436MOL0     C60073   3.275   2.651   7.252 -0.6803  0.6366 -0.2260
  436MOL0     C60074   3.347   2.520   7.278 -1.3568  0.4541 -0.1713
  436MOL0    Cl60075   3.203   2.415   7.315 -0.2416 -0.1260  0.0209
  436MOL0     C60076   2.679   3.207   7.203  1.0128  0.0365 -0.2306
  436MOL0     C60077   2.538   3.185   7.199  0.5608  0.3490  0.5834
  436MOL0     O60078   2.383   2.989   7.466  0.3088  0.4411 -0.1387
  436MOL0     C60079   2.108   2.998   7.237  1.1643  1.0746  0.9089
  436MOL0     C60080   1.991   2.926   7.190 -0.4593  0.2773 -0.0627
  436MOL0     N60081   1.323   2.970   6.951  0.7055 -1.0372  0.2417
  436MOL0     N60082   1.201   3.015   6.992  0.1947  0.0682  0.2830
  436MOL0     C60083   0.289   2.460   6.677  0.6156  0.0970 -0.9429
  436MOL0     C60084   0.189   2.365   6.697 -0.0580  0.3798  0.9646
  436MOL0     C60085  -0.118   2.061   6.763  0.4270  0.2837  0.5532
  436MOL0     C60086  -0.129   1.938   6.690  0.5440 -0.1762 -0.3629
  436MOL0     C60087  -0.243   1.862   6.684  0.3579  0.2021 -0.4040
  436MOL0     C60088  -0.360   1.915   6.743 -0.0976 -0.0372  1.2833
  436MOL0     O60089  -0.486   1.848   6.733 -0.8366 -0.7304 -0.2693
  436MOL0     C60090  -0.515   1.757   6.622  0.4660  0.2024  0.7131
  436MOL0     C60091  -0.661   1.773   6.580  0.1235  0.0236 -0.4043
  436MOL0     C60092  -0.712   1.682   6.473 -0.0810  0.8287  0.0573
  436MOL0     C60093  -0.746   1.536   6.509  1.2181  0.1062 -0.0907
  436MOL0     C60094  -0.859   1.522   6.598 -0.6762 -0.3721  0.7964
  436MOL0     C60095  -0.970   1.519   6.650 -0.2667 -1.2404 -0.3944
  436MOL0     C60096  -0.352   2.036   6.814 -0.7088 -0.5765 -0.7519
  436MOL0     C60097  -0.235   2.110   6.829 -0.6368  0.6127  1.1111
  436MOL0     C60098  -0.246   2.222   6.923 -0.5619 -0.0195 -0.3457
  436MOL0     H60099   0.145   2.361   7.028  1.2531  1.8353  1.6470
  436MOL0     H60100   0.346   2.518   7.015 -1.3949 -4.1085  3.6188
  436MOL0     H60101   0.438   2.697   6.967  0.7360 -0.6164  0.4380
  436MOL0     H60102   0.532   2.774   6.853  1.6662  0.8669  1.7934
  436MOL0     H60103   0.607   2.495   6.976  2.7066 -0.6745 -2.0108
  436MOL0     H60104   0.707   2.592   6.878 -0.9088  1.5970 -2.0619
  436MOL0     H60105   0.618   2.705   7.160 -0.5715  1.2785 -1.2308
  436MOL0     H60106   0.770   2.611   7.129 -0.0306 -0.0325 -0.0410
  436MOL0     H60107   0.838   2.785   6.964  0.9824  3.3672  0.4926
  436MOL0     H60108   0.684   2.863   6.985 -0.7691 -0.9209  1.3523
  436MOL0     H60109   0.734   2.914   7.221 -1.2742 -0.2999 -2.2343
  436MOL0     H60110   0.843   2.993   7.113 -2.4089  1.1355  0.7349
  436MOL0     H60111   0.899   2.738   7.276 -3.1856  2.2782  0.9683
  436MOL0     H60112   0.996   2.776   7.131 -1.6509  0.8369 -1.0562
  436MOL0     H60113   1.096   2.855   7.360 -0.8488 -1.6717 -0.9449
  436MOL0     H60114   0.963   2.977   7.370 -0.8415  1.3401 -1.5505
  436MOL0     H60115   1.017   3.079   7.160  0.5809 -1.8269 -1.5193
  436MOL0     H60116   1.147   3.092   7.285  1.7193  0.1242 -0.2625
  436MOL0     H60117   1.284   2.800   7.231 -0.9710  0.9737  0.7429
  436MOL0     H60118   1.487   2.792   6.903 -4.0316  0.5073 -0.4047
  436MOL0     H60119   1.412   2.679   7.020 -0.7697  0.1801  0.5870
  436MOL0     H60120   1.646   2.869   7.095 -1.2486  0.4594 -1.5729
  436MOL0     H60121   1.563   2.749   7.193 -0.0609  0.2315 -0.8097
  436MOL0     H60122   1.647   2.575   7.111 -3.2805  1.4682 -0.6875
  436MOL0     H60123   1.671   2.629   6.950 -0.4814 -2.6943  1.2039
  436MOL0     H60124   1.896   2.587   7.063 -1.6893 -1.0043 -2.4424
  436MOL0     H60125   1.890   2.751   7.015  0.0590 -1.0728  0.0433
  436MOL0     H60126   1.994   2.675   7.417 -0.2800 -0.1325 -0.5869
  436MOL0     H60127   2.304   2.762   7.517 -0.0979  1.5713 -2.1861
  436MOL0     H60128   2.150   2.701   7.584  0.2001 -1.0560 -3.2854
  436MOL0     H60129   2.216   2.856   7.636  0.2408  0.2331  0.0601
  436MOL0     H60130   2.473   3.269   7.527 -0.2860  0.7771 -0.1322
  436MOL0     H60131   2.704   3.353   7.504  0.0985  1.6851 -1.7653
  436MOL0     H60132   2.956   3.288   7.152 -0.8359 -2.4162 -1.8992
  436MOL0     H60133   3.070   3.305   7.287 -0.5477 -1.1707  2.9434
  436MOL0     H60134   3.037   3.101   7.374 -0.6226  0.3268 -0.5332
  436MOL0     H60135   2.908   3.053   7.258 -1.6179  1.1996  3.6726
  436MOL0     H60136   3.184   3.126   7.167 -0.5401 -0.1726 -1.0781
  436MOL0     H60137   3.057   3.026   7.082 -1.3594  3.4257 -0.3267
  436MOL0     H60138   3.114   2.852   7.265  0.8841 -1.2951 -0.0888
  436MOL0     H60139   3.233   2.968   7.323  0.8699 -2.4858  0.8102
  436MOL0     H60140   3.245   2.848   7.043  1.4281  0.7485 -0.5018
  436MOL0     H60141   3.363   2.958   7.124  0.4106 -1.3529 -0.9441
  436MOL0     H60142   3.440   2.784   7.272  2.3979 -2.4865 -1.7990
  436MOL0     H60143   3.439   2.704   7.125  0.4331 -0.4561  0.1170
  436MOL0     H60144   3.188   2.621   7.193 -1.6744 -2.2304  2.3742
  436MOL0     H60145   3.248   2.692   7.350 -0.5876  3.3073 -1.2438
  436MOL0     H60146   3.408   2.519   7.369  2.0177  0.6804 -2.2646
  436MOL0     H60147   3.400   2.482   7.190  0.8458  1.4537  0.6654
  436MOL0     H60148   2.710   3.185   7.101 -2.7402 -1.5041 -1.2313
  436MOL0     H60149   2.491   3.141   7.112  0.2978 -1.3242  1.5345
  436MOL0     H60150   2.141   3.082   7.176  2.1138  0.5781  0.7219
  436MOL0     H60151   1.934   2.959   7.103  1.1084  1.5704 -0.6466
  436MOL0     H60152   0.308   2.504   6.580 -3.5464  3.1964 -0.6132
  436MOL0     H60153   0.137   2.343   6.604  2.3842  1.9351 -0.9293
  436MOL0     H60154  -0.047   1.896   6.631 -0.0924 -1.5468 -0.3160
  436MOL0     H60155  -0.255   1.771   6.626 -0.0741  0.9975 -1.5870
  436MOL0     H60156  -0.450   1.759   6.534 -1.2003 -1.5778 -0.6154
  436MOL0     H60157  -0.503   1.655   6.659 -1.0222 -0.4707 -0.5637
  436MOL0     H60158  -0.700   1.871   6.553 -3.5095 -1.4317 -1.1226
  436MOL0     H60159  -0.712   1.746   6.673 -3.1356 -3.4751 -2.8865
  436MOL0     H60160  -0.800   1.728   6.426  0.7622 -0.0009 -2.5275
  436MOL0     H60161  -0.632   1.692   6.398  1.2236  1.9602  1.5340
  436MOL0     H60162  -0.664   1.490   6.565 -0.6368 -1.9032  1.1413
  436MOL0     H60163  -0.762   1.468   6.425  4.6541 -0.1406 -0.6615
  436MOL0     H60164  -1.065   1.527   6.701  0.0699  1.1127  0.0144
  436MOL0     H60165  -0.447   2.065   6.857 -1.6742 -3.7364 -0.4482
  436MOL0     H60166  -0.338   2.230   6.982 -1.5643  3.1350 -2.0993
  436MOL0     H60167  -0.169   2.233   7.000 -3.5401  1.3241  2.7191
  436MOL0     H60168  -0.239   2.320   6.876 -1.8100  1.2885  2.0105
  437MOL0     O60169   6.562   1.874   3.186 -0.1939  0.2522  0.3541
  437MOL0     C60170   6.614   1.956   3.110  0.0649 -0.0091  0.3710
  437MOL0     O60171   6.689   2.065   3.144 -0.1188  0.6062 -0.1167
  437MOL0     C60172   6.679   2.133   3.268  0.0142 -1.6953  0.1931
  437MOL0     C60173   6.574   2.123   3.356  0.4132  0.3527  0.1182
  437MOL0     C60174   6.566   2.199   3.474 -0.3233  0.3151 -0.1314
  437MOL0     C60175   6.664   2.296   3.502 -0.4808 -0.2609 -0.4022
  437MOL0     O60176   6.670   2.363   3.626 -0.0437  0.2929 -0.1066
  437MOL0     C60177   6.762   2.479   3.638  0.2915  0.5317 -0.4786
  437MOL0     C60178   6.712   2.537   3.777  0.2215 -1.3000 -0.4352
  437MOL0     C60179   6.746   2.439   3.896  0.0800 -0.6060  0.1796
  437MOL0     C60180   6.724   2.514   4.034  0.0081 -0.2279  0.7125
  437MOL0     C60181   6.773   2.423   4.147  0.1463  0.4708 -0.7233
  437MOL0     C60182   6.891   2.501   4.209  0.0034 -0.8158  0.8408
  437MOL0     C60183   6.916   2.449   4.341  0.4387 -0.0277  0.4713
  437MOL0     C60184   7.058   2.471   4.391  0.8539 -0.4349  0.2337
  437MOL0     N60185   7.131   2.345   4.414  0.6305 -0.9386  0.6522
  437MOL0     C60186   7.162   2.283   4.532 -0.2089  0.0903 -0.3509
  437MOL0     C60187   7.228   2.168   4.504  0.2386 -0.3037 -0.5034
  437MOL0     C60188   7.267   2.052   4.595 -0.1882 -0.6117  0.2884
  437MOL0     C60189   7.148   1.984   4.661 -0.6169 -0.1660  0.7257
  437MOL0     C60190   7.175   1.828   4.695 -0.5532  0.7406  1.0686
  437MOL0     C60191   7.075   1.735   4.634  0.4110 -0.0481  0.6794
  437MOL0     O60192   7.073   1.750   4.490 -0.2999 -1.0699  0.8266
  437MOL0     C60193   6.988   1.668   4.419  0.2915  0.3024  0.7403
  437MOL0     C60194   6.985   1.698   4.282  0.6526  0.0879 -0.6188
  437MOL0     C60195   6.912   1.623   4.188  0.4658 -0.4528  0.3727
  437MOL0     C60196   6.900   1.680   4.051  0.8248  0.5919  0.6018
  437MOL0     C60197   6.857   1.500   4.236  0.7138 -0.1150 -0.7918
  437MOL0     C60198   6.795   1.402   4.147  0.2597 -0.4325  0.4599
  437MOL0     O60199   6.743   1.303   4.214  0.2049 -0.8983 -0.2635
  437MOL0     C60200   6.661   1.228   4.136  0.9654 -0.9075  0.4893
  437MOL0     C60201   6.523   1.251   4.145 -0.4501 -0.2143  0.1840
  437MOL0     C60202   6.442   1.176   4.066  1.0171 -0.1108  1.1954
  437MOL0     C60203   6.483   1.059   3.984  0.2501 -0.4737 -0.5216
  437MOL0     O60204   6.379   0.992   3.924  0.2204 -0.6396  0.3657
  437MOL0     C60205   6.424   0.879   3.851 -0.5104 -0.2798  0.2787
  437MOL0     C60206   6.309   0.810   3.793 -0.6258 -0.7717  0.1850
  437MOL0     C60207   6.344   0.678   3.720 -0.5657 -1.1409 -0.2975
  437MOL0     C60208   6.481   0.614   3.765  0.2809  0.0276 -0.3232
  437MOL0     C60209   6.518   0.495   3.677  0.3667 -0.2965  0.3584
  437MOL0     C60210   6.432   0.379   3.716  0.1465  0.8340 -0.6584
  437MOL0     C60211   6.461   0.248   3.639 -0.1595 -0.7125 -0.1398
  437MOL0     C60212   6.381   0.117   3.669 -0.9483 -0.1681  0.7030
  437MOL0    Cl60213   6.224   0.133   3.599 -0.4998 -0.0707 -0.2157
  437MOL0     C60214   6.623   1.047   3.971 -1.3140  1.1256  0.3593
  437MOL0     C60215   6.707   1.142   4.042 -0.3358 -0.2709  0.3884
  437MOL0     O60216   6.785   1.419   4.027 -0.2012 -0.0076  0.2413
  437MOL0     C60217   6.861   1.473   4.369 -0.9285  0.0436 -0.4716
  437MOL0     C60218   6.933   1.548   4.462  0.0351 -0.7387  0.7624
  437MOL0     N60219   7.245   2.161   4.367  0.1046 -0.8331  0.5315
  437MOL0     N60220   7.178   2.264   4.314 -0.3638  0.0336 -0.4508
  437MOL0     C60221   6.755   2.313   3.399 -0.7708  0.1663  0.1693
  437MOL0     C60222   6.771   2.238   3.280  0.3437 -0.2051 -0.7394
  437MOL0     C60223   6.620   1.921   2.965  0.0712 -1.1478  0.2783
  437MOL0     C60224   6.601   2.027   2.872  0.2172 -0.6278 -0.1413
  437MOL0     C60225   6.599   2.014   2.740 -0.1509 -0.3235  0.2909
  437MOL0     C60226   6.627   1.894   2.681 -1.2507  0.4824  0.7058
  437MOL0     O60227   6.616   1.901   2.550  0.1877  0.2591 -0.1658
  437MOL0     C60228   6.605   1.778   2.475  0.6049 -0.7302 -1.1436
  437MOL0     C60229   6.562   1.820   2.341 -0.1688  0.4899 -0.0577
  437MOL0     C60230   6.588   1.704   2.247 -0.1521  0.5075 -0.5385
  437MOL0     C60231   6.502   1.720   2.115 -0.2244  0.3514 -0.7070
  437MOL0     C60232   6.558   1.814   2.012  0.3755  0.2481 -0.5977
  437MOL0     C60233   6.604   1.908   1.964 -0.4414  0.4275 -0.1062
  437MOL0     C60234   6.639   1.784   2.768  0.2234  0.0776 -0.5549
  437MOL0     C60235   6.648   1.797   2.911  0.4721  0.7173  0.6593
  437MOL0     C60236   6.680   1.669   2.992 -0.7524  0.5404  0.3877
  437MOL0     H60237   6.487   2.060   3.343  0.1665  1.0133 -1.6896
  437MOL0     H60238   6.486   2.180   3.545 -0.2063 -1.2637 -0.4035
  437MOL0     H60239   6.747   2.551   3.557 -2.8839 -0.1435 -0.6093
  437MOL0     H60240   6.870   2.458   3.640  0.2430  0.3102 -0.1507
  437MOL0     H60241   6.776   2.625   3.781 -1.0593 -0.3629  0.0778
  437MOL0     H60242   6.609   2.574   3.777  0.3916 -0.7652 -1.6606
  437MOL0     H60243   6.675   2.356   3.897 -0.0652 -0.5079  2.2210
  437MOL0     H60244   6.852   2.414   3.891  0.0649 -0.4815 -1.2190
  437MOL0     H60245   6.762   2.617   4.034  0.1156 -0.1965 -1.7513
  437MOL0     H60246   6.616   2.530   4.031  0.1413  1.1510 -3.6234
  437MOL0     H60247   6.816   2.327   4.118  0.3385  0.7145 -1.2659
  437MOL0     H60248   6.696   2.402   4.222  1.1482 -0.1914  0.1414
  437MOL0     H60249   6.983   2.496   4.150  2.4002  2.9233  3.7836
  437MOL0     H60250   6.861   2.606   4.220 -0.5975 -0.7739 -0.9397
  437MOL0     H60251   6.887   2.344   4.348  0.7787 -0.3906 -2.3274
  437MOL0     H60252   6.842   2.510   4.394 -0.4179 -1.7398  1.3317
  437MOL0     H60253   7.112   2.533   4.318  0.5906 -0.6387 -0.1379
  437MOL0     H60254   7.053   2.537   4.478  1.9461  2.0543 -1.4927
  437MOL0     H60255   7.145   2.327   4.630 -1.9113  2.1376 -1.4753
  437MOL0     H60256   7.323   2.100   4.676 -1.6352  3.3370 -0.8582
  437MOL0     H60257   7.326   1.983   4.533 -1.3635 -0.7777 -0.6720
  437MOL0     H60258   7.121   2.030   4.756 -1.0427  0.0809  0.4874
  437MOL0     H60259   7.062   1.997   4.595 -1.9582 -0.7725  2.2995
  437MOL0     H60260   7.277   1.801   4.666 -0.4598  1.5962  0.5611
  437MOL0     H60261   7.175   1.804   4.802 -0.1822 -2.0481  0.5169
  437MOL0     H60262   7.078   1.630   4.664  1.7855  0.3878  2.1695
  437MOL0     H60263   6.978   1.772   4.669  0.5271 -0.7067  1.7561
  437MOL0     H60264   7.035   1.784   4.238 -0.9765  2.1385  1.3266
  437MOL0     H60265   6.799   1.722   4.045  0.6070  0.5949  3.2773
  437MOL0     H60266   6.918   1.603   3.975 -0.4067  0.2830  0.5955
  437MOL0     H60267   6.966   1.762   4.021 -1.2673  1.0469 -3.5586
  437MOL0     H60268   6.491   1.320   4.222 -0.2212 -0.7186  0.7385
  437MOL0     H60269   6.334   1.183   4.068  1.0624  1.7375 -0.3097
  437MOL0     H60270   6.504   0.908   3.782 -2.1562  0.3389 -1.4296
  437MOL0     H60271   6.475   0.821   3.928  0.7622  1.8034  1.1106
  437MOL0     H60272   6.225   0.797   3.862 -0.2484 -0.6583  0.6691
  437MOL0     H60273   6.253   0.873   3.723 -3.0252 -0.8672  1.9190
  437MOL0     H60274   6.346   0.691   3.611 -0.1824 -0.3623 -0.2048
  437MOL0     H60275   6.274   0.597   3.742 -0.4537 -0.7689  1.6443
  437MOL0     H60276   6.507   0.608   3.871 -0.8831  2.4975  0.1783
  437MOL0     H60277   6.566   0.679   3.744  3.3369 -2.5422  2.8892
  437MOL0     H60278   6.514   0.529   3.573  2.1549  0.4316  0.5027
  437MOL0     H60279   6.621   0.460   3.683  0.5434  0.3045  1.0026
  437MOL0     H60280   6.329   0.415   3.705 -0.3860  1.5616  4.1499
  437MOL0     H60281   6.445   0.363   3.824  1.5421  2.7269 -0.4759
  437MOL0     H60282   6.567   0.226   3.653  1.3121  4.5734 -1.0758
  437MOL0     H60283   6.456   0.276   3.533 -0.1639 -1.1405 -0.2544
  437MOL0     H60284   6.385   0.099   3.777  0.5210  0.5988  0.7974
  437MOL0     H60285   6.436   0.032   3.627  2.8520  1.2975  2.2583
  437MOL0     H60286   6.669   0.965   3.917  0.1854 -0.5205  3.8293
  437MOL0     H60287   6.812   1.143   4.017 -1.0645  0.0627 -3.2276
  437MOL0     H60288   6.815   1.380   4.403  0.0286 -1.3849 -2.8901
  437MOL0     H60289   6.953   1.511   4.562  2.6313 -4.2586 -0.8321
  437MOL0     H60290   6.838   2.383   3.396 -1.3121  0.7835 -1.9371
  437MOL0     H60291   6.851   2.244   3.207  0.6653  0.7833 -0.3162
  437MOL0     H60292   6.562   2.117   2.920  1.2457 -1.3500  2.1810
  437MOL0     H60293   6.557   2.096   2.682 -1.0685 -0.6682  0.4502
  437MOL0     H60294   6.695   1.716   2.479  1.2041  0.0422 -2.3287
  437MOL0     H60295   6.522   1.721   2.518  0.5791 -3.1520 -4.1111
  437MOL0     H60296   6.609   1.910   2.300 -0.6383  0.7716  0.0012
  437MOL0     H60297   6.457   1.852   2.347  0.3422  2.1737  0.3039
  437MOL0     H60298   6.690   1.691   2.211 -1.0807 -4.1479 -2.1154
  437MOL0     H60299   6.546   1.613   2.291  0.0284  2.5957  4.6925
  437MOL0     H60300   6.399   1.754   2.134 -0.0561  0.2569  0.4079
  437MOL0     H60301   6.493   1.620   2.070  1.3396  0.1714 -0.6793
  437MOL0     H60302   6.669   1.989   1.938  2.6573 -1.5734  0.9156
  437MOL0     H60303   6.674   1.691   2.723 -0.3592 -0.6427  0.4531
  437MOL0     H60304   6.755   1.610   2.938  2.2512 -0.2080  4.8418
  437MOL0     H60305   6.733   1.694   3.084  0.5448 -0.0250 -0.1833
  437MOL0     H60306   6.600   1.599   3.016  1.1090 -1.1053  2.1996
  438MOL0     O60307   3.070   3.612   9.835 -0.1408  1.0692 -0.6218
  438MOL0     C60308   3.114   3.573   9.724 -0.6624 -0.1839 -0.2672
  438MOL0     O60309   3.203   3.467   9.711  0.2396  0.3939  0.4189
  438MOL0     C60310   3.237   3.436   9.581  0.0436  0.6104 -0.4941
  438MOL0     C60311   3.364   3.464   9.536 -0.0332 -0.0629 -0.3129
  438MOL0     C60312   3.414   3.414   9.417  0.3927 -0.5149 -0.1594
  438MOL0     C60313   3.330   3.337   9.332 -0.9193 -0.0593 -0.3709
  438MOL0     O60314   3.391   3.298   9.214  0.0799  0.5136 -0.2036
  438MOL0     C60315   3.317   3.212   9.128 -0.1417  0.3945 -0.1246
  438MOL0     C60316   3.276   3.289   9.008  0.2394  0.1951  1.2429
  438MOL0     C60317   3.169   3.399   9.033 -1.0302 -0.4928 -0.3534
  438MOL0     C60318   3.124   3.466   8.905  0.2881  0.0344  1.1632
  438MOL0     C60319   3.013   3.396   8.823  0.6405  1.1966  0.3272
  438MOL0     C60320   2.879   3.353   8.894  1.0141 -0.0415 -0.5023
  438MOL0     C60321   2.794   3.477   8.932 -0.1611 -0.1835  1.1397
  438MOL0     C60322   2.824   3.536   9.070  0.5369  0.0227  0.5228
  438MOL0     N60323   2.785   3.466   9.194 -0.0155  0.9128  0.2075
  438MOL0     C60324   2.652   3.458   9.238  0.3109 -0.4639 -0.5744
  438MOL0     C60325   2.652   3.359   9.335 -0.5825  0.7390 -0.3575
  438MOL0     C60326   2.525   3.318   9.402  0.1096 -0.3831  0.5090
  438MOL0     C60327   2.545   3.339   9.559 -0.0380 -0.0517  0.0215
  438MOL0     C60328   2.420   3.286   9.639 -0.0004 -0.3319 -0.0233
  438MOL0     C60329   2.439   3.299   9.789 -0.0323  0.4092  0.2666
  438MOL0     O60330   2.428   3.433   9.824  0.0166 -0.2168 -0.0119
  438MOL0     C60331   2.395   3.465   9.948  0.0829  1.0199 -0.0363
  438MOL0     C60332   2.277   3.419   9.997 -0.2781 -0.4003  0.6501
  438MOL0     C60333   2.239   3.452  10.126 -0.4580  0.6772 -0.3174
  438MOL0     C60334   2.100   3.419  10.170 -0.4381 -0.3723  0.7704
  438MOL0     C60335   2.328   3.529  10.208  0.8622  0.3210  0.3793
  438MOL0     C60336   2.308   3.574  10.351  0.3131 -0.4884 -0.5306
  438MOL0     O60337   2.425   3.615  10.414  0.6276 -0.4232 -0.3422
  438MOL0     C60338   2.427   3.685  10.529 -0.6501 -0.2649 -0.4849
  438MOL0     C60339   2.336   3.675  10.642  0.6828  0.8041 -0.5958
  438MOL0     C60340   2.346   3.769  10.751 -0.3823  0.3042  0.4614
  438MOL0     C60341   2.450   3.855  10.755 -0.2350  0.5678 -1.0185
  438MOL0     O60342   2.455   3.942  10.855 -0.2383  0.1133 -0.4748
  438MOL0     C60343   2.578   3.936  10.939 -0.3787  0.0749 -0.0920
  438MOL0     C60344   2.576   4.045  11.043  0.7936 -0.8298 -0.6430
  438MOL0     C60345   2.561   4.185  10.977  0.1955  0.0871  0.0818
  438MOL0     C60346   2.528   4.296  11.081  0.6021 -0.9503  0.5130
  438MOL0     C60347   2.634   4.340  11.185  0.1612  0.5326  0.7303
  438MOL0     C60348   2.589   4.475  11.234 -0.2585  0.3130 -0.1202
  438MOL0     C60349   2.693   4.517  11.348 -0.3474  0.2160 -0.4009
  438MOL0     C60350   2.692   4.657  11.400  0.5327  0.5656 -0.0652
  438MOL0    Cl60351   2.547   4.698  11.482  0.3255 -0.3913 -0.2828
  438MOL0     C60352   2.544   3.859  10.654 -0.2885  0.5147  0.3359
  438MOL0     C60353   2.531   3.772  10.545  0.1745  0.7703 -0.1606
  438MOL0     O60354   2.195   3.584  10.398  0.1025  0.0927 -0.3497
  438MOL0     C60355   2.453   3.568  10.156 -0.8593 -0.3966 -0.0594
  438MOL0     C60356   2.489   3.530  10.028 -0.0074 -0.3608 -0.3816
  438MOL0     N60357   2.783   3.313   9.353  0.0180 -0.3739  0.2657
  438MOL0     N60358   2.855   3.378   9.268 -0.3006 -0.0641 -0.6832
  438MOL0     C60359   3.195   3.311   9.371  0.0959  0.4415 -0.4997
  438MOL0     C60360   3.154   3.352   9.497  0.1539  0.9997  0.0317
  438MOL0     C60361   3.075   3.665   9.614  0.0289 -0.3035  0.5365
  438MOL0     C60362   3.169   3.764   9.566 -0.1399  0.4640  0.0090
  438MOL0     C60363   3.134   3.863   9.471 -0.2600  0.5957  0.1855
  438MOL0     C60364   3.006   3.869   9.414 -0.3491 -0.6479 -0.0024
  438MOL0     O60365   2.978   3.933   9.297 -0.3038  0.1222  0.2953
  438MOL0     C60366   2.869   4.030   9.292 -0.2314  0.1285  0.0357
  438MOL0     C60367   2.922   4.164   9.227 -0.3398  0.9398  0.2837
  438MOL0     C60368   2.811   4.273   9.223  1.5810  0.4469 -0.5756
  438MOL0     C60369   2.860   4.409   9.182 -0.7589 -0.5582 -0.3241
  438MOL0     C60370   2.754   4.495   9.137  0.4598 -0.5121  1.5522
  438MOL0     C60371   2.670   4.574   9.104 -0.9711 -0.9062 -0.6216
  438MOL0     C60372   2.912   3.788   9.471 -0.1214  0.8299 -0.1790
  438MOL0     C60373   2.943   3.691   9.566 -0.6419 -0.3240  0.0157
  438MOL0     C60374   2.836   3.603   9.621 -0.6349 -1.0410  0.1314
  438MOL0     H60375   3.433   3.516   9.602  1.1308 -1.2850 -0.5295
  438MOL0     H60376   3.517   3.443   9.398  0.5716 -0.2019  1.1792
  438MOL0     H60377   3.231   3.162   9.172 -0.5762  0.6234 -0.7025
  438MOL0     H60378   3.381   3.130   9.094  0.4328  0.5142  0.6402
  438MOL0     H60379   3.354   3.337   8.949  1.2411 -0.7909  1.7245
  438MOL0     H60380   3.226   3.212   8.948  2.4352 -2.0967  2.1554
  438MOL0     H60381   3.090   3.353   9.094  1.3534 -5.7742 -0.6384
  438MOL0     H60382   3.203   3.470   9.108 -1.7095 -2.5538  2.0517
  438MOL0     H60383   3.079   3.564   8.926 -0.4581 -0.6390  2.9725
  438MOL0     H60384   3.212   3.477   8.841  0.1776 -2.6192  0.4525
  438MOL0     H60385   3.054   3.308   8.773  2.2644  2.1446 -0.1081
  438MOL0     H60386   2.989   3.467   8.743 -0.2033  0.9460  0.3481
  438MOL0     H60387   2.813   3.297   8.828  0.6213 -3.0327  2.1564
  438MOL0     H60388   2.897   3.292   8.983 -0.9302  2.9560  2.1741
  438MOL0     H60389   2.690   3.442   8.937 -1.3064  2.7375  0.0967
  438MOL0     H60390   2.796   3.553   8.854  0.0386 -0.5870  0.7513
  438MOL0     H60391   2.930   3.562   9.075  0.4629  0.5024 -0.2573
  438MOL0     H60392   2.780   3.635   9.085  2.5103  0.9422  0.5616
  438MOL0     H60393   2.567   3.517   9.205 -0.0337  0.4381  1.7492
  438MOL0     H60394   2.513   3.214   9.370 -2.2116  0.3150 -1.0690
  438MOL0     H60395   2.442   3.375   9.360  0.4790  1.1791  1.7743
  438MOL0     H60396   2.637   3.288   9.591 -0.8173 -1.2332  0.4196
  438MOL0     H60397   2.549   3.445   9.584 -1.5583 -0.5032  2.4486
  438MOL0     H60398   2.327   3.333   9.605 -0.4778 -1.0124  0.3235
  438MOL0     H60399   2.399   3.180   9.624 -1.2807 -0.0514 -0.3694
  438MOL0     H60400   2.364   3.241   9.844 -0.0145 -1.4468 -1.5615
  438MOL0     H60401   2.541   3.270   9.817  1.0777  2.8747 -0.9024
  438MOL0     H60402   2.209   3.360   9.936 -1.9117  1.4171  0.6428
  438MOL0     H60403   2.048   3.365  10.090  0.1677  1.1246 -0.6935
  438MOL0     H60404   2.051   3.513  10.198  1.1267  0.7593 -0.1228
  438MOL0     H60405   2.109   3.351  10.255 -1.1496  0.9887  1.9796
  438MOL0     H60406   2.261   3.597  10.646 -1.5236  2.7844 -0.3819
  438MOL0     H60407   2.278   3.759  10.835 -1.5690  0.3546 -0.4600
  438MOL0     H60408   2.578   3.837  10.987 -0.8818  0.4627  0.7228
  438MOL0     H60409   2.664   3.963  10.878 -1.4932 -0.6793 -2.0641
  438MOL0     H60410   2.491   4.037  11.112 -0.3984  0.4808 -1.8912
  438MOL0     H60411   2.668   4.039  11.102 -0.0625 -0.7054  0.7605
  438MOL0     H60412   2.481   4.174  10.903  0.4552 -4.8851  0.1611
  438MOL0     H60413   2.658   4.212  10.936  1.0881 -0.7602  1.5284
  438MOL0     H60414   2.436   4.275  11.135 -1.7709 -1.3801 -3.3589
  438MOL0     H60415   2.508   4.380  11.014  2.6521  0.8993  2.0338
  438MOL0     H60416   2.645   4.261  11.260 -0.1188 -2.8781 -2.5145
  438MOL0     H60417   2.733   4.349  11.138  1.4863 -0.5509  3.1659
  438MOL0     H60418   2.490   4.469  11.281 -2.0829  0.9785 -3.5352
  438MOL0     H60419   2.576   4.559  11.165  0.5928  2.9053  2.6582
  438MOL0     H60420   2.797   4.497  11.321 -0.5128 -1.8610  0.3150
  438MOL0     H60421   2.662   4.461  11.437 -1.3509 -0.0555 -0.9050
  438MOL0     H60422   2.715   4.743  11.335 -0.6556  2.2404  1.6251
  438MOL0     H60423   2.773   4.653  11.473  1.2381 -1.3555 -0.8785
  438MOL0     H60424   2.617   3.939  10.655  0.6229 -0.2759  2.3591
  438MOL0     H60425   2.606   3.780  10.466 -0.8831  2.2752 -1.0707
  438MOL0     H60426   2.529   3.620  10.213 -0.4435 -2.6631  1.5648
  438MOL0     H60427   2.582   3.545   9.975 -0.8688 -2.2227 -2.6051
  438MOL0     H60428   3.123   3.253   9.314 -1.2078 -0.6029  2.0097
  438MOL0     H60429   3.070   3.298   9.539  0.8588 -0.2830 -0.1434
  438MOL0     H60430   3.273   3.748   9.590 -0.6769 -2.1192  0.9225
  438MOL0     H60431   3.209   3.926   9.425  0.1365  1.4408  1.9327
  438MOL0     H60432   2.786   3.982   9.240 -1.0117  0.5163  0.9056
  438MOL0     H60433   2.834   4.058   9.391  0.2698  1.0652 -0.0435
  438MOL0     H60434   2.955   4.139   9.125  3.5754  3.6964  0.6391
  438MOL0     H60435   3.014   4.193   9.279 -0.1106  1.7593 -0.5406
  438MOL0     H60436   2.735   4.233   9.154  1.7265 -1.4597  0.3121
  438MOL0     H60437   2.758   4.277   9.319  3.8285 -2.3385  0.8968
  438MOL0     H60438   2.935   4.401   9.102 -0.5618 -3.6974  0.0696
  438MOL0     H60439   2.915   4.456   9.264  1.1537  0.6015 -2.1527
  438MOL0     H60440   2.599   4.645   9.066 -1.5452 -0.5286  1.0915
  438MOL0     H60441   2.814   3.783   9.426  0.0336 -0.4425 -0.3931
  438MOL0     H60442   2.742   3.612   9.566 -0.1632 -1.7001 -0.8123
  438MOL0     H60443   2.854   3.496   9.610  0.8662 -1.1069  2.5428
  438MOL0     H60444   2.837   3.625   9.728 -1.0901  1.4443 -0.3035
  439MOL0     O60445   3.488   5.184   8.617  0.4655 -1.2283 -0.7189
  439MOL0     C60446   3.452   5.156   8.509  0.3677 -0.6942  0.7986
  439MOL0     O60447   3.332   5.190   8.450  0.1509 -0.0990 -0.0363
  439MOL0     C60448   3.241   5.283   8.500  0.6629  1.0616 -0.5745
  439MOL0     C60449   3.257   5.366   8.618 -0.5003 -0.8662  0.9222
  439MOL0     C60450   3.172   5.463   8.653  0.1581 -0.4087 -0.2824
  439MOL0     C60451   3.056   5.482   8.583  0.1452  0.6221 -0.0065
  439MOL0     O60452   2.972   5.590   8.585 -0.4237 -0.1222 -0.2892
  439MOL0     C60453   3.005   5.698   8.678  0.3708  1.0009  0.0847
  439MOL0     C60454   2.904   5.808   8.656 -0.4169 -0.7257  0.1493
  439MOL0     C60455   2.919   5.882   8.526 -0.2740  0.6700 -0.1772
  439MOL0     C60456   3.005   5.999   8.504 -0.6275  0.5210 -0.5077
  439MOL0     C60457   3.076   6.005   8.370 -0.9202 -0.1123  0.2937
  439MOL0     C60458   3.153   6.141   8.341 -0.7437 -0.5509 -1.1480
  439MOL0     C60459   3.272   6.174   8.437  0.1351  0.6842 -0.0153
  439MOL0     C60460   3.350   6.296   8.380  0.4719 -0.8242 -0.0263
  439MOL0     N60461   3.465   6.333   8.467  0.0457 -0.7516  0.3504
  439MOL0     C60462   3.454   6.362   8.606 -0.0604  0.2744 -0.2367
  439MOL0     C60463   3.569   6.428   8.639  0.3152 -0.4487 -0.2030
  439MOL0     C60464   3.586   6.506   8.773  0.4723  0.7768 -0.1101
  439MOL0     C60465   3.521   6.442   8.888  0.4688  0.8248 -0.5962
  439MOL0     C60466   3.588   6.307   8.915  0.8547 -0.3195  0.4487
  439MOL0     C60467   3.525   6.226   9.032 -0.2407  0.8145  0.4743
  439MOL0     O60468   3.577   6.086   9.025 -0.5865 -0.8391 -0.0646
  439MOL0     C60469   3.601   6.018   9.144 -0.1620 -0.1977 -0.2328
  439MOL0     C60470   3.516   6.013   9.249 -0.6966  0.4961  0.6878
  439MOL0     C60471   3.534   5.920   9.356  0.3770 -0.8960  0.0101
  439MOL0     C60472   3.442   5.927   9.473 -0.2205  0.7883  0.6950
  439MOL0     C60473   3.643   5.827   9.353  0.0216 -0.0907 -0.3277
  439MOL0     C60474   3.685   5.735   9.462 -0.1397  1.1094  0.5964
  439MOL0     O60475   3.800   5.664   9.444 -0.3725  0.2007  0.0460
  439MOL0     C60476   3.881   5.609   9.545 -0.0196 -0.2325  0.6535
  439MOL0     C60477   3.904   5.673   9.672  0.0885  0.3657 -1.0788
  439MOL0     C60478   3.988   5.616   9.769 -0.4272  0.5965  0.4146
  439MOL0     C60479   4.049   5.491   9.747  0.4162  0.3415 -0.0557
  439MOL0     O60480   4.124   5.436   9.853  0.4040 -0.8350 -0.3527
  439MOL0     C60481   4.048   5.383   9.964 -0.2299  0.5010 -0.0556
  439MOL0     C60482   4.141   5.349  10.083 -0.4285  0.2229  0.8904
  439MOL0     C60483   4.211   5.469  10.147  0.1312  0.1089 -0.2570
  439MOL0     C60484   4.308   5.416  10.254 -0.0442  0.7152  0.1375
  439MOL0     C60485   4.347   5.518  10.362 -0.2022 -1.1431 -0.2886
  439MOL0     C60486   4.450   5.630  10.333 -0.5157  0.1255 -0.2438
  439MOL0     C60487   4.478   5.718  10.447 -0.5570 -0.2619  0.0076
  439MOL0     C60488   4.604   5.805  10.429  0.3895  0.0108  1.1213
  439MOL0    Cl60489   4.540   5.958  10.365 -0.0296  0.2372  0.1727
  439MOL0     C60490   4.027   5.422   9.625 -0.1497 -0.8512  0.5675
  439MOL0     C60491   3.946   5.479   9.526  0.5847 -0.2964  1.1828
  439MOL0     O60492   3.618   5.731   9.564  0.5498  0.3304  0.3759
  439MOL0     C60493   3.716   5.824   9.235  0.4807 -0.2963  0.2569
  439MOL0     C60494   3.695   5.913   9.126 -0.0257  0.5622 -0.8546
  439MOL0     N60495   3.651   6.425   8.530  0.5743  0.3614  0.8794
  439MOL0     N60496   3.591   6.368   8.431 -0.4480  0.2902  0.3904
  439MOL0     C60497   3.030   5.387   8.479 -1.0116 -0.0814  0.4446
  439MOL0     C60498   3.118   5.292   8.439  0.0719 -1.4199  0.5905
  439MOL0     C60499   3.570   5.105   8.439  0.0942  0.1913 -0.4491
  439MOL0     C60500   3.689   5.173   8.439  0.0538  0.2654  0.1984
  439MOL0     C60501   3.801   5.110   8.382 -0.2053 -0.4991  0.9872
  439MOL0     C60502   3.796   4.978   8.344  0.8290  0.4237 -0.0386
  439MOL0     O60503   3.919   4.928   8.308  0.0951  0.4221 -0.3925
  439MOL0     C60504   3.940   4.785   8.311 -0.6718  0.5798  0.3324
  439MOL0     C60505   4.078   4.756   8.249 -0.4707 -0.9508  0.5984
  439MOL0     C60506   4.197   4.783   8.337  0.1223 -0.7106 -0.2630
  439MOL0     C60507   4.318   4.842   8.270  0.0022  1.0604  0.5353
  439MOL0     C60508   4.391   4.737   8.187  0.6316  1.0260  0.4884
  439MOL0     C60509   4.438   4.652   8.113  0.5207  0.1441 -0.2238
  439MOL0     C60510   3.675   4.909   8.347  0.8832  1.6310  0.7366
  439MOL0     C60511   3.555   4.967   8.398 -1.0179 -0.2736  0.2526
  439MOL0     C60512   3.433   4.885   8.405  0.3850 -0.2519 -0.0214
  439MOL0     H60513   3.346   5.358   8.679 -1.0582 -0.9801  1.7224
  439MOL0     H60514   3.200   5.536   8.729 -0.0745  2.2341 -2.5980
  439MOL0     H60515   3.106   5.739   8.669 -0.4291  2.5269 -3.4820
  439MOL0     H60516   2.991   5.665   8.781 -0.6017  0.8108 -0.0961
  439MOL0     H60517   2.804   5.765   8.656 -2.3545  3.1020 -2.8298
  439MOL0     H60518   2.899   5.892   8.727 -1.4528  0.7053 -1.5241
  439MOL0     H60519   2.977   5.812   8.466  1.2405 -0.8970  2.9058
  439MOL0     H60520   2.823   5.878   8.474 -1.3622 -2.7428  1.7998
  439MOL0     H60521   2.945   6.090   8.512  0.2666  1.4179 -2.8793
  439MOL0     H60522   3.082   6.008   8.581 -0.0238 -0.5280 -0.9611
  439MOL0     H60523   3.002   5.989   8.291 -0.1089  0.1785 -0.5396
  439MOL0     H60524   3.154   5.930   8.358 -0.5948  0.3489 -0.5082
  439MOL0     H60525   3.185   6.136   8.237  1.3146 -2.0107 -0.5149
  439MOL0     H60526   3.081   6.221   8.358 -2.3934 -2.0550 -0.7253
  439MOL0     H60527   3.344   6.092   8.439  0.0957  0.2852 -4.6755
  439MOL0     H60528   3.237   6.206   8.536 -0.2184  2.5520 -0.6956
  439MOL0     H60529   3.389   6.262   8.283  1.5018  1.0504 -0.3181
  439MOL0     H60530   3.283   6.381   8.366  0.1921 -1.0334  0.0473
  439MOL0     H60531   3.376   6.336   8.677  2.6357 -0.3291  2.7150
  439MOL0     H60532   3.540   6.602   8.747  0.7856  0.2761 -2.8443
  439MOL0     H60533   3.689   6.518   8.805  0.2764 -1.2528  1.5200
  439MOL0     H60534   3.521   6.508   8.975  2.2608 -0.7078  0.6473
  439MOL0     H60535   3.416   6.418   8.872  1.1323 -3.1387 -0.0919
  439MOL0     H60536   3.557   6.252   8.826  1.3187  0.3160 -0.1108
  439MOL0     H60537   3.695   6.324   8.932  1.2971 -2.1749 -0.2137
  439MOL0     H60538   3.541   6.272   9.130 -1.2258 -0.0367  1.0451
  439MOL0     H60539   3.417   6.216   9.017  0.3920 -1.6772 -4.0831
  439MOL0     H60540   3.432   6.082   9.257 -2.3998 -1.4961  1.1455
  439MOL0     H60541   3.375   5.841   9.470  2.6951 -1.6195 -0.5423
  439MOL0     H60542   3.377   6.009   9.441  0.0327  1.4348  1.7929
  439MOL0     H60543   3.493   5.956   9.565  1.1778  1.0798 -0.1374
  439MOL0     H60544   3.857   5.770   9.679 -1.9473 -0.4744 -2.0759
  439MOL0     H60545   4.001   5.660   9.868  0.8095  0.7554  0.1983
  439MOL0     H60546   3.972   5.453  10.002  0.1568 -0.2382  2.2770
  439MOL0     H60547   4.003   5.288   9.933  0.3575 -0.8890  2.9501
  439MOL0     H60548   4.079   5.295  10.155 -0.0624 -3.4291 -1.2942
  439MOL0     H60549   4.223   5.289  10.043  1.6382  2.0699  2.1131
  439MOL0     H60550   4.142   5.539  10.194 -1.3765 -1.7463  0.4572
  439MOL0     H60551   4.277   5.525  10.080  0.5895  2.5811  2.0751
  439MOL0     H60552   4.390   5.365  10.204 -1.4383 -1.9733  0.3983
  439MOL0     H60553   4.253   5.342  10.314  2.1342 -2.3015 -1.3301
  439MOL0     H60554   4.260   5.574  10.398  0.9029  0.2331  0.3525
  439MOL0     H60555   4.374   5.455  10.447 -2.0881 -0.3253  0.9624
  439MOL0     H60556   4.420   5.680  10.240  4.0465 -0.6375 -2.3974
  439MOL0     H60557   4.547   5.585  10.312  0.1244 -0.0530  2.7698
  439MOL0     H60558   4.487   5.657  10.537 -1.3511 -0.2260  0.1179
  439MOL0     H60559   4.396   5.791  10.453  0.1388  0.4755  0.8136
  439MOL0     H60560   4.664   5.760  10.350 -1.8440  0.7225 -1.1095
  439MOL0     H60561   4.668   5.821  10.517 -0.3756  2.1493  1.3391
  439MOL0     H60562   4.072   5.324   9.609 -0.7271 -0.7841 -1.8428
  439MOL0     H60563   3.910   5.426   9.439 -2.5850 -0.1676  2.2859
  439MOL0     H60564   3.791   5.746   9.223 -0.7272 -1.5920  0.8305
  439MOL0     H60565   3.752   5.901   9.035  1.4381 -2.3635  0.3128
  439MOL0     H60566   2.935   5.398   8.427 -2.2192 -1.0672  2.3129
  439MOL0     H60567   3.088   5.235   8.351 -3.3426  3.2209 -1.7040
  439MOL0     H60568   3.695   5.268   8.491  1.2777 -0.1276  0.8131
  439MOL0     H60569   3.893   5.165   8.369 -0.2474  0.2066  3.2769
  439MOL0     H60570   3.919   4.730   8.403  4.0060 -0.7673  0.8675
  439MOL0     H60571   3.876   4.756   8.227 -0.1150  1.1455 -0.3039
  439MOL0     H60572   4.080   4.829   8.167 -3.1090 -3.0047 -1.5166
  439MOL0     H60573   4.077   4.656   8.205  0.7022 -0.8104  0.2317
  439MOL0     H60574   4.177   4.862   8.411  2.4430 -0.3353  0.0381
  439MOL0     H60575   4.221   4.693   8.395  0.3919  0.5215  1.6319
  439MOL0     H60576   4.386   4.884   8.345  0.6919  1.4203 -0.2730
  439MOL0     H60577   4.295   4.910   8.187  2.8466 -1.7125 -2.8741
  439MOL0     H60578   4.485   4.574   8.058  3.1421 -0.1189  2.1485
  439MOL0     H60579   3.668   4.805   8.318 -1.3364  1.8714  0.2794
  439MOL0     H60580   3.340   4.932   8.440  1.7837  2.2794  0.5297
  439MOL0     H60581   3.415   4.836   8.309  0.4978 -0.0177 -0.1626
  439MOL0     H60582   3.453   4.801   8.473 -2.0568 -0.2358  0.8158
  440MOL0     O60583   5.117   6.538   1.484 -0.4542 -0.0681  0.3006
  440MOL0     C60584   5.110   6.518   1.603  0.0672 -0.4741  1.0139
  440MOL0     O60585   5.054   6.407   1.654 -0.3910  1.0874 -0.3476
  440MOL0     C60586   4.986   6.313   1.580 -0.2662  0.7398  0.4718
  440MOL0     C60587   5.005   6.285   1.441 -0.7660  0.9158 -0.2736
  440MOL0     C60588   4.923   6.204   1.378  0.9896 -0.6956 -0.1481
  440MOL0     C60589   4.822   6.136   1.445  0.6201  0.3907  0.3477
  440MOL0     O60590   4.750   6.049   1.361 -0.5964 -0.0767  0.7026
  440MOL0     C60591   4.627   5.996   1.408 -0.6964 -0.5495 -1.2213
  440MOL0     C60592   4.577   5.902   1.303 -0.1684  0.5117 -0.4938
  440MOL0     C60593   4.424   5.865   1.331 -0.1913  0.1116  0.4189
  440MOL0     C60594   4.321   5.970   1.274 -0.1410 -0.8274 -0.0070
  440MOL0     C60595   4.257   5.923   1.144 -0.4086  0.5363  0.7491
  440MOL0     C60596   4.177   5.793   1.156 -0.6371 -1.1807 -0.9515
  440MOL0     C60597   4.094   5.774   1.031 -0.8039 -1.0646  0.0839
  440MOL0     C60598   3.966   5.859   1.037 -0.9965  0.3937  0.0476
  440MOL0     N60599   3.885   5.822   0.927  0.0369  0.6425 -0.4608
  440MOL0     C60600   3.893   5.883   0.807  0.0148  0.1756  0.0094
  440MOL0     C60601   3.774   5.849   0.749 -0.0839 -0.3342 -0.0922
  440MOL0     C60602   3.723   5.894   0.617 -0.2116 -0.0996  0.8704
  440MOL0     C60603   3.712   6.048   0.609 -1.5191  0.0640  0.0420
  440MOL0     C60604   3.584   6.090   0.542 -0.2125  0.5010 -0.1636
  440MOL0     C60605   3.571   6.242   0.513  0.1385  0.7193  0.0235
  440MOL0     O60606   3.624   6.318   0.621  0.1089 -0.5874  0.0450
  440MOL0     C60607   3.574   6.445   0.639  0.4662 -0.2621  0.1119
  440MOL0     C60608   3.559   6.538   0.537 -0.6507 -1.0059  0.2201
  440MOL0     C60609   3.514   6.666   0.548  0.8884 -0.9206  0.2990
  440MOL0     C60610   3.502   6.743   0.415  0.3588 -0.1306  0.1136
  440MOL0     C60611   3.472   6.715   0.674  0.7944  0.9087 -0.4369
  440MOL0     C60612   3.414   6.845   0.700 -0.1055 -0.2560 -0.0891
  440MOL0     O60613   3.382   6.870   0.830 -0.3486 -0.9814  0.1470
  440MOL0     C60614   3.320   6.979   0.867  0.1521 -1.0975 -0.2501
  440MOL0     C60615   3.369   7.109   0.843 -0.1329 -0.8187 -0.5852
  440MOL0     C60616   3.315   7.227   0.908 -0.6905  0.9047  0.5733
  440MOL0     C60617   3.207   7.215   0.998 -0.1176  0.0053  0.5925
  440MOL0     O60618   3.146   7.309   1.075 -0.6077 -0.3921 -0.3449
  440MOL0     C60619   3.215   7.432   1.081  0.7469 -0.2693 -0.2541
  440MOL0     C60620   3.148   7.524   1.183  0.0208 -1.1342 -0.6787
  440MOL0     C60621   3.000   7.552   1.163 -0.8003  0.5982  0.6930
  440MOL0     C60622   2.951   7.695   1.213  0.8191 -0.2246 -0.8621
  440MOL0     C60623   2.969   7.795   1.098 -0.1894  0.0755  0.3457
  440MOL0     C60624   2.965   7.932   1.156  0.1166  1.1741 -0.3235
  440MOL0     C60625   3.089   7.956   1.238  0.2130 -0.0347  0.3082
  440MOL0     C60626   3.114   8.108   1.268  0.4877  0.5063 -0.8668
  440MOL0    Cl60627   2.979   8.172   1.384 -0.2343 -0.5556  0.5242
  440MOL0     C60628   3.161   7.081   1.021  0.7545 -0.2171  0.2971
  440MOL0     C60629   3.209   6.975   0.950  0.0500 -0.6169  1.0884
  440MOL0     O60630   3.409   6.920   0.609  0.0239 -0.5129 -0.7027
  440MOL0     C60631   3.483   6.618   0.781  1.2453 -0.1921 -0.7305
  440MOL0     C60632   3.541   6.495   0.769 -0.1823  0.4975 -0.1340
  440MOL0     N60633   3.701   5.760   0.831 -0.9459  0.1472 -0.1121
  440MOL0     N60634   3.769   5.744   0.944 -0.6690  0.0676 -0.9167
  440MOL0     C60635   4.798   6.161   1.582 -0.1001  0.2285 -0.2436
  440MOL0     C60636   4.876   6.257   1.642 -0.2501 -1.1104 -0.1129
  440MOL0     C60637   5.157   6.616   1.695 -0.3365 -0.7958 -1.2300
  440MOL0     C60638   5.260   6.696   1.648  0.9260  0.1563 -0.1644
  440MOL0     C60639   5.320   6.792   1.730  0.9665 -0.9611 -0.1516
  440MOL0     C60640   5.285   6.811   1.866  0.1159 -0.8522 -0.7050
  440MOL0     O60641   5.367   6.904   1.935  0.3237  0.7574  1.1072
  440MOL0     C60642   5.349   6.916   2.077  0.1984 -0.3048  0.2448
  440MOL0     C60643   5.267   7.047   2.118  0.1225  0.5314 -0.2819
  440MOL0     C60644   5.119   7.018   2.118 -0.8211 -0.1294  0.2179
  440MOL0     C60645   5.048   7.146   2.155  0.1965  0.1986 -0.5912
  440MOL0     C60646   5.035   7.246   2.052 -0.1172 -0.6363 -0.4255
  440MOL0     C60647   5.027   7.330   1.962  0.4377  0.4149 -0.2242
  440MOL0     C60648   5.187   6.725   1.912  0.0646  0.1681 -0.1284
  440MOL0     C60649   5.113   6.634   1.832  0.4060 -0.3900  0.4853
  440MOL0     C60650   5.009   6.554   1.905  0.1749  0.1428  1.0230
  440MOL0     H60651   5.094   6.313   1.385  1.5762 -3.8084  0.5955
  440MOL0     H60652   4.950   6.190   1.273  0.5811  0.6823 -0.4507
  440MOL0     H60653   4.552   6.071   1.433 -0.4876 -0.6419 -0.2587
  440MOL0     H60654   4.631   5.935   1.499 -0.7720 -0.0352 -0.8680
  440MOL0     H60655   4.587   5.947   1.204  0.0589  0.3160 -0.5588
  440MOL0     H60656   4.638   5.812   1.310  1.1034  1.4913  2.0182
  440MOL0     H60657   4.397   5.765   1.293 -0.8789  0.1875  0.6787
  440MOL0     H60658   4.418   5.858   1.440 -0.5809  0.1276  0.4032
  440MOL0     H60659   4.243   5.983   1.350 -1.0977 -2.0761 -0.7279
  440MOL0     H60660   4.380   6.061   1.261 -0.6124 -0.7787 -2.2095
  440MOL0     H60661   4.333   5.905   1.067 -1.4022  0.1698 -0.1840
  440MOL0     H60662   4.193   6.004   1.106 -1.6080  0.6673  2.9039
  440MOL0     H60663   4.246   5.708   1.163  1.0970  0.3261  2.2333
  440MOL0     H60664   4.109   5.800   1.241  2.7011  2.0203  1.7557
  440MOL0     H60665   4.054   5.673   1.029 -3.5916 -0.0352 -1.5412
  440MOL0     H60666   4.145   5.802   0.939 -1.0281 -0.1495  0.2261
  440MOL0     H60667   3.914   5.855   1.133 -2.3205  0.7662 -0.6344
  440MOL0     H60668   3.989   5.966   1.038 -1.7968  0.5674  1.0209
  440MOL0     H60669   3.956   5.964   0.773 -2.2375  1.3396 -1.6556
  440MOL0     H60670   3.622   5.854   0.603  0.0507 -0.3817 -0.3798
  440MOL0     H60671   3.787   5.864   0.533  0.4684  0.9478  1.0021
  440MOL0     H60672   3.697   6.084   0.711 -1.3093 -0.6845  0.3491
  440MOL0     H60673   3.798   6.093   0.560 -2.3788 -0.1934 -1.8064
  440MOL0     H60674   3.580   6.038   0.445 -1.0008 -0.8003  0.5343
  440MOL0     H60675   3.500   6.057   0.603 -0.2907  1.2574  0.1414
  440MOL0     H60676   3.616   6.269   0.417 -0.5186  0.4201 -0.3759
  440MOL0     H60677   3.463   6.256   0.514 -0.3438 -1.5765 -3.1974
  440MOL0     H60678   3.591   6.494   0.443 -0.1553 -2.6711  1.1065
  440MOL0     H60679   3.400   6.770   0.387  0.6363 -0.8610 -1.7620
  440MOL0     H60680   3.543   6.686   0.331 -1.3020  0.4711 -1.1759
  440MOL0     H60681   3.556   6.837   0.429  0.4669 -0.1001 -0.4670
  440MOL0     H60682   3.452   7.121   0.774 -1.8661 -1.6011 -2.9366
  440MOL0     H60683   3.361   7.322   0.884  1.5606  0.0947  1.3612
  440MOL0     H60684   3.318   7.424   1.116  0.7342  2.6623  0.6874
  440MOL0     H60685   3.227   7.486   0.987  0.7753  2.3422  1.1422
  440MOL0     H60686   3.150   7.482   1.285 -0.9660  0.4003  0.0217
  440MOL0     H60687   3.196   7.621   1.196 -0.7628 -0.8892  0.6318
  440MOL0     H60688   2.947   7.471   1.213  0.8658  0.8699  3.0439
  440MOL0     H60689   2.986   7.529   1.057 -3.2528 -2.0732  1.4585
  440MOL0     H60690   3.010   7.725   1.300 -1.4882  1.8860  0.0966
  440MOL0     H60691   2.853   7.697   1.262  2.0557  1.0350  1.7766
  440MOL0     H60692   3.064   7.780   1.047  0.8952 -0.7561  2.4768
  440MOL0     H60693   2.888   7.783   1.025  0.7207  0.3087 -0.7268
  440MOL0     H60694   2.882   7.940   1.226 -2.1276 -0.6968 -2.5654
  440MOL0     H60695   2.961   8.009   1.078 -0.7589 -0.0714 -1.5801
  440MOL0     H60696   3.178   7.920   1.186 -0.6361 -0.9043 -0.5854
  440MOL0     H60697   3.093   7.912   1.337 -0.2074 -0.2840  0.2153
  440MOL0     H60698   3.115   8.165   1.174  1.2818 -0.3578 -1.4067
  440MOL0     H60699   3.214   8.104   1.313 -1.0236 -0.0311  2.7940
  440MOL0     H60700   3.081   7.067   1.093 -0.1861  0.0110 -0.6804
  440MOL0     H60701   3.164   6.876   0.958 -2.9700  0.3542 -1.7993
  440MOL0     H60702   3.449   6.642   0.881 -0.5654  0.4533 -1.4607
  440MOL0     H60703   3.577   6.427   0.846  0.1615  1.2169  0.3556
  440MOL0     H60704   4.716   6.108   1.630  0.1834  1.5500  1.8768
  440MOL0     H60705   4.854   6.283   1.745 -0.3424 -3.3242  0.4844
  440MOL0     H60706   5.302   6.687   1.548  3.1613  1.9778  0.5150
  440MOL0     H60707   5.400   6.855   1.692 -0.1555 -0.5824 -2.0211
  440MOL0     H60708   5.325   6.823   2.129  0.5339 -0.5500 -0.0347
  440MOL0     H60709   5.450   6.937   2.115 -0.4117 -1.7367  2.8626
  440MOL0     H60710   5.286   7.117   2.037  3.0642  1.6917  1.2892
  440MOL0     H60711   5.288   7.094   2.214 -0.9525  0.8999 -0.2156
  440MOL0     H60712   5.089   7.005   2.014 -2.8101  0.0342  0.7299
  440MOL0     H60713   5.084   6.936   2.182  1.2024 -1.8900 -0.7969
  440MOL0     H60714   5.100   7.192   2.239 -0.2221  3.2175 -1.8463
  440MOL0     H60715   4.948   7.115   2.187 -0.4273  2.5577 -0.0814
  440MOL0     H60716   5.031   7.389   1.873 -1.2712  2.2217  0.8250
  440MOL0     H60717   5.166   6.710   2.018  2.1673  0.8600  0.4563
  440MOL0     H60718   5.027   6.447   1.916  0.5587  0.3512  2.5292
  440MOL0     H60719   4.990   6.593   2.005  3.9140 -1.4034  2.5184
  440MOL0     H60720   4.920   6.559   1.841  0.2350 -4.0556  0.3184
  441MOL0     O60721  10.823  11.315   2.951  0.2402  0.4760 -0.0343
  441MOL0     C60722  10.719  11.315   3.013  1.3165  0.4095  0.4377
  441MOL0     O60723  10.666  11.215   3.095 -1.0012  0.3634 -1.1740
  441MOL0     C60724  10.740  11.110   3.145 -0.4431  0.6611 -0.2716
  441MOL0     C60725  10.866  11.125   3.217  0.1296 -0.3320 -0.0589
  441MOL0     C60726  10.954  11.014   3.247  0.0341  0.8162 -0.6181
  441MOL0     C60727  10.912  10.886   3.213 -0.8369  0.9591  0.5665
  441MOL0     O60728  10.988  10.774   3.221  0.4099  0.0380  0.1279
  441MOL0     C60729  11.109  10.791   3.306 -1.4878  0.6693 -0.4851
  441MOL0     C60730  11.173  10.652   3.338  0.5346  0.3614 -0.3700
  441MOL0     C60731  11.273  10.670   3.459 -0.7715  0.5823  0.3740
  441MOL0     C60732  11.407  10.738   3.414  0.8615  0.1638  0.0912
  441MOL0     C60733  11.433  10.868   3.496 -0.7644  0.3401 -0.8228
  441MOL0     C60734  11.568  10.934   3.461  0.6727  0.8310 -0.2132
  441MOL0     C60735  11.575  11.055   3.547  0.1896 -0.2518  0.4257
  441MOL0     C60736  11.604  11.185   3.474 -0.2400  0.1149 -0.1494
  441MOL0     N60737  11.489  11.207   3.382  0.0760 -0.4499 -0.3325
  441MOL0     C60738  11.475  11.177   3.250 -0.7465 -0.3268 -0.0739
  441MOL0     C60739  11.356  11.220   3.214  0.7955 -0.2208 -0.3983
  441MOL0     C60740  11.292  11.205   3.077  1.0853 -0.4398  0.2123
  441MOL0     C60741  11.305  11.338   2.996 -0.0979  0.0820 -0.6939
  441MOL0     C60742  11.181  11.352   2.910 -0.0267  1.4119  0.2511
  441MOL0     C60743  11.182  11.454   2.792 -1.1301  1.0529 -0.9750
  441MOL0     O60744  11.265  11.571   2.817  0.4180  0.8849  0.0925
  441MOL0     C60745  11.321  11.649   2.715 -0.4895 -0.0184  0.1787
  441MOL0     C60746  11.431  11.720   2.739 -0.3038  0.0054  0.0669
  441MOL0     C60747  11.493  11.804   2.646  0.8769  1.2308  0.2496
  441MOL0     C60748  11.592  11.893   2.694  0.6111 -0.8557 -0.3619
  441MOL0     C60749  11.441  11.811   2.516 -0.3693 -0.2270  0.2554
  441MOL0     C60750  11.507  11.880   2.407 -0.3558  0.0901 -0.3318
  441MOL0     O60751  11.430  11.938   2.304 -0.6856  1.0706 -0.4440
  441MOL0     C60752  11.497  12.009   2.209 -0.1219 -1.0900  0.4847
  441MOL0     C60753  11.414  12.105   2.154  0.7722  0.2974  0.0814
  441MOL0     C60754  11.456  12.195   2.052  0.9259  0.0210 -1.1468
  441MOL0     C60755  11.594  12.182   2.006 -0.4105 -0.1208 -0.1199
  441MOL0     O60756  11.648  12.274   1.922 -0.6869  0.6588 -0.1269
  441MOL0     C60757  11.581  12.397   1.908  0.2542  0.6334 -0.2806
  441MOL0     C60758  11.697  12.489   1.859 -0.1735  0.2903  0.1931
  441MOL0     C60759  11.642  12.636   1.842 -0.5694 -0.8998 -0.0351
  441MOL0     C60760  11.554  12.670   1.724  0.7023  0.2187 -0.3239
  441MOL0     C60761  11.533  12.821   1.720 -0.1616 -0.5086  0.0569
  441MOL0     C60762  11.468  12.889   1.842 -0.4315 -0.1819  0.0840
  441MOL0     C60763  11.455  13.046   1.831  0.1353  0.3530  0.4948
  441MOL0     C60764  11.582  13.132   1.830  1.0638 -0.0887 -0.1151
  441MOL0    Cl60765  11.677  13.123   1.975 -0.3699  0.0541  0.0000
  441MOL0     C60766  11.677  12.083   2.054  0.2642 -0.4528  0.9911
  441MOL0     C60767  11.631  11.998   2.154 -0.4244  0.0503 -0.3334
  441MOL0     O60768  11.633  11.878   2.414 -0.4003  0.4671  0.2152
  441MOL0     C60769  11.333  11.726   2.483  0.0812  0.6865 -0.3627
  441MOL0     C60770  11.265  11.651   2.581  0.5103  0.3088  0.2201
  441MOL0     N60771  11.293  11.274   3.329  0.1305 -0.5729 -0.9355
  441MOL0     N60772  11.370  11.260   3.426  0.1195 -0.0435  1.0119
  441MOL0     C60773  10.777  10.870   3.170  0.4354 -0.6930  0.0184
  441MOL0     C60774  10.702  10.986   3.129 -0.2228  0.4121 -0.1184
  441MOL0     C60775  10.628  11.430   2.988  0.3924 -0.1650  0.2841
  441MOL0     C60776  10.491  11.414   3.006  0.0722 -0.0202 -0.5189
  441MOL0     C60777  10.396  11.523   2.993 -0.0234  1.4633  0.4415
  441MOL0     C60778  10.443  11.650   2.966  0.2787 -0.5885 -0.1246
  441MOL0     O60779  10.352  11.749   2.960  0.2990 -0.2858 -0.0736
  441MOL0     C60780  10.387  11.879   3.010  0.1516 -0.1865  1.1940
  441MOL0     C60781  10.255  11.964   3.011 -0.2267 -0.1882 -0.5128
  441MOL0     C60782  10.158  11.940   3.130 -0.2817 -0.0181 -0.5621
  441MOL0     C60783  10.062  11.827   3.098  0.3660  0.0293 -0.8603
  441MOL0     C60784   9.944  11.833   3.174 -1.2003 -0.0207 -0.0079
  441MOL0     C60785   9.838  11.844   3.238  0.0471 -0.1606 -0.3639
  441MOL0     C60786  10.578  11.659   2.950 -0.8803  0.3513  0.0271
  441MOL0     C60787  10.672  11.560   2.948 -0.9289  0.1374  0.8955
  441MOL0     C60788  10.819  11.597   2.924 -0.5262 -0.5878  0.0406
  441MOL0     H60789  10.906  11.223   3.240  0.2132 -0.0477 -1.3329
  441MOL0     H60790  11.044  11.023   3.306 -1.6820 -0.4372  2.3952
  441MOL0     H60791  11.085  10.843   3.399 -0.3921 -1.0006  0.7814
  441MOL0     H60792  11.187  10.852   3.259  0.9490 -1.7590  0.1842
  441MOL0     H60793  11.093  10.590   3.380  1.1529  0.6213  1.2768
  441MOL0     H60794  11.224  10.602   3.255  1.2839 -1.2766  1.0018
  441MOL0     H60795  11.236  10.722   3.548  1.6252  1.1651  1.1120
  441MOL0     H60796  11.292  10.569   3.495  2.7707  1.0730  0.2368
  441MOL0     H60797  11.488  10.665   3.420 -1.1888 -2.2510 -0.4435
  441MOL0     H60798  11.402  10.768   3.309 -1.4379 -3.2561 -0.9375
  441MOL0     H60799  11.434  10.826   3.597 -2.8143 -0.0810 -0.9157
  441MOL0     H60800  11.354  10.943   3.488 -0.8516  0.4426  0.7492
  441MOL0     H60801  11.654  10.870   3.487 -0.3914 -0.2001  0.8912
  441MOL0     H60802  11.563  10.966   3.357  2.5213  0.8888 -0.3198
  441MOL0     H60803  11.650  11.042   3.625  2.8201  3.5569 -1.2193
  441MOL0     H60804  11.479  11.086   3.589  0.2256 -0.4282  0.6389
  441MOL0     H60805  11.594  11.257   3.556 -3.4007 -0.9782  0.5917
  441MOL0     H60806  11.703  11.207   3.434  0.4614 -1.7344  0.4592
  441MOL0     H60807  11.550  11.128   3.189 -0.2857  0.8063 -0.4241
  441MOL0     H60808  11.190  11.170   3.096 -0.3017  2.2420 -1.6672
  441MOL0     H60809  11.342  11.129   3.016 -0.5789 -0.9122 -0.6597
  441MOL0     H60810  11.310  11.414   3.074  0.0767  1.0050 -1.5953
  441MOL0     H60811  11.400  11.330   2.942  1.1027 -1.3346  1.4868
  441MOL0     H60812  11.149  11.258   2.863  0.0701  1.1455  0.7084
  441MOL0     H60813  11.091  11.366   2.971 -0.8448  2.4836 -1.1396
  441MOL0     H60814  11.223  11.407   2.702 -0.6528  0.6904 -0.5734
  441MOL0     H60815  11.080  11.481   2.762 -3.3286 -3.9790  0.8995
  441MOL0     H60816  11.471  11.720   2.840 -4.2548 -0.1269  1.8433
  441MOL0     H60817  11.580  11.918   2.800 -0.2734  4.6909 -1.4793
  441MOL0     H60818  11.597  11.991   2.647 -0.7290 -0.2161  0.7659
  441MOL0     H60819  11.694  11.860   2.670  0.9484 -0.1963  0.1457
  441MOL0     H60820  11.317  12.120   2.201  0.3962 -3.7202  0.9464
  441MOL0     H60821  11.396  12.273   2.007 -1.2362  0.3997  2.0355
  441MOL0     H60822  11.508  12.401   1.826  2.2008 -3.3876 -2.5432
  441MOL0     H60823  11.530  12.434   1.997 -3.9563 -0.6686 -1.8799
  441MOL0     H60824  11.785  12.488   1.923 -0.3499  1.8082  0.5035
  441MOL0     H60825  11.733  12.460   1.760 -0.1443 -1.7392  0.7609
  441MOL0     H60826  11.731  12.699   1.832 -0.6682 -0.7099  0.2645
  441MOL0     H60827  11.600  12.671   1.937 -0.2290  0.2532 -0.2923
  441MOL0     H60828  11.457  12.625   1.747  0.1416  2.0093  1.0599
  441MOL0     H60829  11.600  12.632   1.632  1.7361  0.1190  0.2155
  441MOL0     H60830  11.637  12.851   1.703 -0.5370  0.7328 -0.1160
  441MOL0     H60831  11.483  12.857   1.629  2.9912  1.8473 -0.9149
  441MOL0     H60832  11.515  12.868   1.938  0.5067 -0.2354 -0.3715
  441MOL0     H60833  11.372  12.838   1.855 -0.6632 -0.6627 -2.8243
  441MOL0     H60834  11.396  13.084   1.915 -1.7079  2.6393 -1.6731
  441MOL0     H60835  11.399  13.070   1.740  1.0528 -1.9508 -0.7635
  441MOL0     H60836  11.555  13.236   1.812 -2.0504 -0.2904  2.4884
  441MOL0     H60837  11.634  13.098   1.740  1.0794 -1.8388  0.5007
  441MOL0     H60838  11.771  12.073   2.001  0.1466  1.5158  0.3487
  441MOL0     H60839  11.696  11.922   2.197 -0.6747 -0.8447 -1.5104
  441MOL0     H60840  11.294  11.723   2.382  1.2722 -3.2779 -0.8913
  441MOL0     H60841  11.186  11.582   2.553 -0.2204  1.2891 -0.2284
  441MOL0     H60842  10.742  10.769   3.151  2.0244 -1.4665  0.9519
  441MOL0     H60843  10.598  10.970   3.101 -0.5313 -3.3728  2.4350
  441MOL0     H60844  10.442  11.321   3.030  3.3475 -1.3157  1.9779
  441MOL0     H60845  10.289  11.521   3.009 -0.1331  0.1987 -0.2904
  441MOL0     H60846  10.420  11.870   3.114  1.4073 -0.8942  0.7654
  441MOL0     H60847  10.471  11.925   2.955 -1.0605  1.6229  0.7618
  441MOL0     H60848  10.201  11.954   2.916  0.3245 -1.0078 -0.7488
  441MOL0     H60849  10.277  12.071   3.018 -0.1398 -0.2541  0.3045
  441MOL0     H60850  10.218  11.908   3.215  0.5747  2.4001 -0.1928
  441MOL0     H60851  10.099  12.028   3.155 -2.8750 -1.6309 -0.5614
  441MOL0     H60852  10.111  11.730   3.106  3.8334  1.6369 -0.6586
  441MOL0     H60853  10.028  11.841   2.994 -1.5223 -2.2611 -0.6147
  441MOL0     H60854   9.746  11.856   3.293 -0.4309  0.9845 -1.3630
  441MOL0     H60855  10.627  11.756   2.938 -0.2255 -0.1257 -1.3558
  441MOL0     H60856  10.874  11.556   3.010  0.4803  0.0754 -0.2762
  441MOL0     H60857  10.832  11.537   2.834 -5.0025 -0.9769 -0.6023
  441MOL0     H60858  10.842  11.703   2.912  3.1406 -1.2801 -0.0049
  442MOL0     O60859   5.316   7.848  11.408  0.6071  1.5375  0.5050
  442MOL0     C60860   5.276   7.731  11.397 -0.6769  0.6858  1.3126
  442MOL0     O60861   5.351   7.616  11.364 -0.3981 -0.1960 -0.7272
  442MOL0     C60862   5.487   7.623  11.330  0.0010 -0.1341 -0.4222
  442MOL0     C60863   5.540   7.722  11.244 -0.9546  0.0292  1.0489
  442MOL0     C60864   5.679   7.701  11.203 -0.4095 -0.4670 -0.0046
  442MOL0     C60865   5.751   7.588  11.253  0.0836 -0.1722 -0.4055
  442MOL0     O60866   5.886   7.568  11.221  0.5475  0.2272 -0.6556
  442MOL0     C60867   5.968   7.458  11.266 -0.3003 -1.0721 -0.6646
  442MOL0     C60868   6.105   7.484  11.200 -0.4038 -0.9157 -0.8435
  442MOL0     C60869   6.222   7.388  11.244  0.3772 -0.6721  0.8153
  442MOL0     C60870   6.266   7.405  11.388 -0.1069 -0.3680 -0.2059
  442MOL0     C60871   6.401   7.344  11.429  0.2687 -0.5213  0.0734
  442MOL0     C60872   6.400   7.199  11.385  0.0476 -0.6419  0.1165
  442MOL0     C60873   6.530   7.119  11.421  0.4543 -0.5649  0.1510
  442MOL0     C60874   6.522   7.064  11.570 -0.7056 -0.6327  0.0616
  442MOL0     N60875   6.629   6.962  11.595 -0.7073  0.5167  0.2535
  442MOL0     C60876   6.751   6.973  11.652 -0.3965 -0.5470  0.0808
  442MOL0     C60877   6.818   6.867  11.613  0.6472  1.1099  0.4385
  442MOL0     C60878   6.962   6.817  11.648 -0.2026 -0.6137 -0.1976
  442MOL0     C60879   7.064   6.901  11.575 -0.4571 -1.5502  0.0848
  442MOL0     C60880   7.212   6.854  11.591 -0.4078  0.6268 -0.3405
  442MOL0     C60881   7.254   6.754  11.503 -0.0408 -0.3757 -0.0360
  442MOL0     O60882   7.383   6.703  11.554  0.0056 -0.3577  0.3471
  442MOL0     C60883   7.440   6.601  11.485  1.4980  0.4975 -0.3748
  442MOL0     C60884   7.580   6.600  11.492  0.2680 -0.9635 -0.1819
  442MOL0     C60885   7.659   6.504  11.432 -0.5358  0.3078  1.4327
  442MOL0     C60886   7.804   6.521  11.434 -0.3662 -0.6011 -1.1431
  442MOL0     C60887   7.595   6.398  11.364 -0.0730  0.4411  0.1121
  442MOL0     C60888   7.669   6.300  11.282  0.5181  0.0934 -0.2502
  442MOL0     O60889   7.699   6.181  11.337  0.5021 -0.3373 -0.3830
  442MOL0     C60890   7.751   6.092  11.257  0.2127  0.1952  0.5192
  442MOL0     C60891   7.888   6.088  11.238 -0.1801  0.8394  1.1965
  442MOL0     C60892   7.950   5.995  11.148  0.3482  0.9805  0.3545
  442MOL0     C60893   7.862   5.905  11.082 -0.5727 -0.2401 -0.2674
  442MOL0     O60894   7.915   5.814  10.987 -0.2998 -0.2070 -0.5931
  442MOL0     C60895   7.950   5.874  10.867 -0.5960  0.0929 -0.3560
  442MOL0     C60896   8.064   5.788  10.792  0.4041  0.5795 -0.3849
  442MOL0     C60897   8.104   5.837  10.654 -0.1339  0.6940 -0.2404
  442MOL0     C60898   8.196   5.961  10.668  0.1496  0.2484  0.0020
  442MOL0     C60899   8.201   6.039  10.535 -0.3687  0.6125  0.0521
  442MOL0     C60900   8.294   6.169  10.544 -0.6056  0.2039 -0.7405
  442MOL0     C60901   8.440   6.131  10.536 -0.6035  0.7202  0.4618
  442MOL0     C60902   8.485   6.060  10.413  0.1413  0.2629  0.0435
  442MOL0    Cl60903   8.658   6.032  10.427  0.0899  0.3423  0.4744
  442MOL0     C60904   7.729   5.906  11.112  0.3963 -0.7606  0.4970
  442MOL0     C60905   7.669   5.997  11.200  0.4641 -0.3020  0.6560
  442MOL0     O60906   7.682   6.329  11.162  0.0940  0.3094  0.4154
  442MOL0     C60907   7.453   6.399  11.349  0.0514  0.1714  1.2732
  442MOL0     C60908   7.378   6.499  11.415  0.7127  1.2859 -1.0069
  442MOL0     N60909   6.735   6.781  11.533  0.8946  0.4355 -0.2460
  442MOL0     N60910   6.619   6.848  11.523  0.8708  0.5910  0.2457
  442MOL0     C60911   5.692   7.509  11.355 -0.1981 -0.3497  0.6210
  442MOL0     C60912   5.561   7.525  11.385 -0.2194  1.0987  1.0394
  442MOL0     C60913   5.129   7.710  11.397  0.3163 -0.9020  0.2239
  442MOL0     C60914   5.045   7.787  11.312 -0.2714 -0.3253  0.1588
  442MOL0     C60915   4.918   7.747  11.280  1.1818  0.3202  0.2290
  442MOL0     C60916   4.869   7.623  11.323  0.3535 -0.1117  0.6897
  442MOL0     O60917   4.738   7.581  11.298 -0.1460  0.1675  0.1440
  442MOL0     C60918   4.636   7.681  11.322 -0.5446  0.3260 -0.2262
  442MOL0     C60919   4.509   7.621  11.366  0.5660 -0.9266 -0.6259
  442MOL0     C60920   4.459   7.502  11.278 -0.2421  0.9328  0.5451
  442MOL0     C60921   4.416   7.540  11.143  0.0445  0.9317 -0.6186
  442MOL0     C60922   4.304   7.635  11.149  0.2246 -0.5989  0.0921
  442MOL0     C60923   4.205   7.708  11.157  0.1383  0.0860  0.3691
  442MOL0     C60924   4.945   7.543  11.398  1.0038  0.0574  0.3741
  442MOL0     C60925   5.071   7.584  11.446  0.2597  0.1177 -0.5502
  442MOL0     C60926   5.154   7.489  11.535 -0.1940 -0.5418  1.2475
  442MOL0     H60927   5.472   7.802  11.217  1.3942  2.1079  0.9663
  442MOL0     H60928   5.741   7.773  11.150 -2.4063 -0.3607 -2.4099
  442MOL0     H60929   5.926   7.358  11.251 -0.4774 -1.2242  0.7176
  442MOL0     H60930   5.984   7.482  11.371 -2.9915 -1.9952  0.0310
  442MOL0     H60931   6.093   7.459  11.094  2.6043  0.7038 -1.6849
  442MOL0     H60932   6.130   7.591  11.204 -0.3129 -0.7617 -3.6896
  442MOL0     H60933   6.184   7.286  11.231 -0.0411 -0.1299 -4.3801
  442MOL0     H60934   6.301   7.397  11.168 -2.0983  1.1800 -1.7518
  442MOL0     H60935   6.266   7.511  11.416 -3.4971 -1.0353  3.1867
  442MOL0     H60936   6.189   7.352  11.445 -1.0696 -0.8358 -1.8709
  442MOL0     H60937   6.428   7.353  11.535 -1.1137  2.5361  0.2803
  442MOL0     H60938   6.479   7.400  11.376 -0.8123  1.8801  0.8487
  442MOL0     H60939   6.309   7.160  11.433 -0.2531 -1.0813 -0.7967
  442MOL0     H60940   6.396   7.190  11.276  2.1472  1.9503 -0.2811
  442MOL0     H60941   6.617   7.185  11.412  1.0052 -1.3363 -0.2961
  442MOL0     H60942   6.543   7.033  11.356  0.1120  0.6779 -1.6207
  442MOL0     H60943   6.537   7.140  11.648  0.7888  0.4165 -1.2043
  442MOL0     H60944   6.425   7.016  11.591 -0.7210  0.1593  1.9998
  442MOL0     H60945   6.789   7.048  11.721 -1.2111  0.5883 -0.6585
  442MOL0     H60946   6.974   6.718  11.602 -3.3987 -0.3997 -1.7839
  442MOL0     H60947   6.975   6.822  11.757  1.0918  2.7287 -0.3846
  442MOL0     H60948   7.030   6.918  11.472 -1.3863  0.5454  0.6875
  442MOL0     H60949   7.076   6.999  11.621 -2.3200 -2.4328  2.6739
  442MOL0     H60950   7.281   6.937  11.571 -1.0984  1.3325  0.1590
  442MOL0     H60951   7.222   6.820  11.694 -2.4997 -1.2413 -0.6775
  442MOL0     H60952   7.179   6.676  11.490  1.1395 -1.1174 -3.0454
  442MOL0     H60953   7.270   6.797  11.404  0.9684 -3.6422 -1.4189
  442MOL0     H60954   7.647   6.663  11.549  1.7444 -2.7008  0.1094
  442MOL0     H60955   7.837   6.549  11.334  2.8007  2.4640  0.5239
  442MOL0     H60956   7.849   6.425  11.460 -0.6550 -1.1381 -2.5381
  442MOL0     H60957   7.831   6.599  11.506 -1.3170 -0.9038 -0.4347
  442MOL0     H60958   7.940   6.175  11.278 -0.7133  0.8414  1.8848
  442MOL0     H60959   8.058   5.995  11.136  1.0087  1.6288  4.7135
  442MOL0     H60960   7.860   5.871  10.805  0.7243 -3.1792 -2.3945
  442MOL0     H60961   7.985   5.977  10.875  0.4693 -0.3753  2.0141
  442MOL0     H60962   8.160   5.801  10.842  0.6668  0.1669 -0.7762
  442MOL0     H60963   8.037   5.681  10.790  0.6392  0.5183 -0.2968
  442MOL0     H60964   8.020   5.854  10.587  1.5599 -0.2869 -2.7655
  442MOL0     H60965   8.153   5.755  10.601  0.5338  0.8680  0.0901
  442MOL0     H60966   8.298   5.937  10.698  0.1026 -1.4476 -1.0657
  442MOL0     H60967   8.149   6.025  10.744 -1.7916  2.5419 -2.8773
  442MOL0     H60968   8.235   5.969  10.459  2.0076  0.4088  1.2219
  442MOL0     H60969   8.104   6.085  10.511 -1.1643 -0.0706  1.8085
  442MOL0     H60970   8.269   6.224  10.635  2.0034 -1.1903  0.9258
  442MOL0     H60971   8.266   6.232  10.459  0.0081  0.2233 -0.9339
  442MOL0     H60972   8.467   6.056  10.611 -1.4813 -0.6198 -0.5164
  442MOL0     H60973   8.511   6.211  10.557  0.5314  0.3935 -1.8775
  442MOL0     H60974   8.452   6.121  10.328 -2.3708 -0.7790  0.1706
  442MOL0     H60975   8.432   5.964  10.409 -2.3526  1.3997  2.6528
  442MOL0     H60976   7.664   5.833  11.063 -0.9480  0.4679  0.3961
  442MOL0     H60977   7.563   5.998  11.222  0.0754  0.1922 -1.1242
  442MOL0     H60978   7.400   6.324  11.291  1.5560  0.3751 -0.4347
  442MOL0     H60979   7.269   6.504  11.411  0.7817  2.0279 -3.0892
  442MOL0     H60980   5.746   7.418  11.377 -0.5772 -0.7673 -0.1173
  442MOL0     H60981   5.502   7.447  11.433 -3.4597  1.3526 -2.0460
  442MOL0     H60982   5.089   7.883  11.284 -0.6366 -0.5845 -1.3907
  442MOL0     H60983   4.859   7.817  11.221 -1.8261  1.6128  4.3276
  442MOL0     H60984   4.665   7.745  11.405 -1.5648 -0.9664  1.2019
  442MOL0     H60985   4.620   7.753  11.242 -0.9899 -2.1539 -2.5466
  442MOL0     H60986   4.429   7.692  11.388  1.4170 -0.1470  0.0283
  442MOL0     H60987   4.535   7.574  11.461 -0.5290  1.4392  0.9365
  442MOL0     H60988   4.545   7.437  11.254  0.4130  1.2959  1.8104
  442MOL0     H60989   4.389   7.433  11.326  2.5850 -2.2810  0.5193
  442MOL0     H60990   4.373   7.448  11.104  0.1902  1.5226 -2.2478
  442MOL0     H60991   4.497   7.571  11.077  1.5438 -1.6430 -0.1022
  442MOL0     H60992   4.119   7.772  11.158  0.5489  0.6541  0.1901
  442MOL0     H60993   4.898   7.458  11.447  1.2818  0.7129  1.8112
  442MOL0     H60994   5.179   7.414  11.459 -1.4070  1.8583 -1.7205
  442MOL0     H60995   5.240   7.540  11.578 -1.0391  0.3474  1.9403
  442MOL0     H60996   5.094   7.448  11.617  1.2195 -0.4565  2.3604
  443MOL0     O60997   4.220   4.016  10.882 -0.2659 -0.0756 -0.4399
  443MOL0     C60998   4.227   3.942  10.788 -0.8854  0.0094  0.0966
  443MOL0     O60999   4.334   3.921  10.702 -0.5554 -0.2233 -0.2830
  443MOL0     C61000   4.448   3.998  10.717 -0.4760  1.2517  0.2265
  443MOL0     C61001   4.532   4.007  10.832  0.1083 -0.4327  0.6735
  443MOL0     C61002   4.651   4.073  10.817  0.1576 -0.0720  0.7734
  443MOL0     C61003   4.687   4.146  10.704  0.3080  0.4269 -0.3592
  443MOL0     O61004   4.809   4.194  10.708  0.4716  0.0527  0.3199
  443MOL0     C61005   4.837   4.312  10.631 -0.6599  0.3993 -1.3504
  443MOL0     C61006   4.968   4.361  10.688  0.3210 -0.2530  0.2250
  443MOL0     C61007   5.095   4.278  10.664  0.9819  0.7739 -0.0134
  443MOL0     C61008   5.209   4.335  10.743 -0.1067 -0.2854 -0.3115
  443MOL0     C61009   5.316   4.230  10.763 -0.0735 -0.4129  0.3559
  443MOL0     C61010   5.272   4.113  10.845  0.7877  0.2344  0.2224
  443MOL0     C61011   5.386   4.018  10.887  0.0132  0.2259  0.4423
  443MOL0     C61012   5.318   3.920  10.993 -0.1491 -0.3378  0.6120
  443MOL0     N61013   5.412   3.840  11.061 -0.4984  0.2447  0.1894
  443MOL0     C61014   5.526   3.897  11.122  0.1600  0.2817 -0.5765
  443MOL0     C61015   5.586   3.791  11.189 -1.2464 -0.5835  0.6710
  443MOL0     C61016   5.704   3.819  11.284 -0.6215 -0.1384  1.1247
  443MOL0     C61017   5.663   3.870  11.424 -0.6739 -0.8821 -0.7167
  443MOL0     C61018   5.783   3.923  11.496 -0.0965 -0.3399 -0.5066
  443MOL0     C61019   5.750   3.954  11.641 -0.8837  0.2779  0.6010
  443MOL0     O61020   5.683   4.072  11.661  0.4534  0.5621 -0.6948
  443MOL0     C61021   5.636   4.104  11.786  0.0170  0.3496 -0.7124
  443MOL0     C61022   5.669   4.035  11.906  0.4531 -0.1674  0.2168
  443MOL0     C61023   5.623   4.077  12.026 -0.1284  0.3014 -1.2396
  443MOL0     C61024   5.672   4.000  12.147  0.4680 -0.2858 -0.1325
  443MOL0     C61025   5.546   4.196  12.037  0.9366  1.0875 -0.0101
  443MOL0     C61026   5.491   4.241  12.172  0.1309 -0.2354  0.8812
  443MOL0     O61027   5.462   4.374  12.187 -0.0137  0.1671  0.6034
  443MOL0     C61028   5.413   4.417  12.307 -0.3827  1.0781  0.4397
  443MOL0     C61029   5.300   4.364  12.370 -0.0483  0.8848 -0.0225
  443MOL0     C61030   5.280   4.390  12.508  0.4530 -0.0187  1.1416
  443MOL0     C61031   5.354   4.495  12.572  0.5842 -0.8381  0.3087
  443MOL0     O61032   5.330   4.531  12.704  1.0285  0.2399 -0.0697
  443MOL0     C61033   5.429   4.596  12.782  0.6946  0.8053  1.1193
  443MOL0     C61034   5.384   4.613  12.934  0.5257 -0.4031  0.0345
  443MOL0     C61035   5.506   4.662  13.015 -0.6141  0.3270 -0.3457
  443MOL0     C61036   5.461   4.671  13.159  0.2756 -0.5972 -1.2636
  443MOL0     C61037   5.569   4.698  13.260  0.3744 -0.7432 -0.3585
  443MOL0     C61038   5.519   4.716  13.400 -0.8747  0.7802  0.1600
  443MOL0     C61039   5.438   4.851  13.414  0.1788  0.2247  0.3889
  443MOL0     C61040   5.420   4.884  13.564 -0.6443 -0.6149  0.6633
  443MOL0    Cl61041   5.289   4.772  13.611  0.1456 -0.2413  0.4167
  443MOL0     C61042   5.446   4.564  12.498 -0.9142 -0.2269  0.1877
  443MOL0     C61043   5.477   4.523  12.362  0.3596  0.0997 -0.3922
  443MOL0     O61044   5.469   4.158  12.261 -0.3631 -0.1252 -0.5336
  443MOL0     C61045   5.523   4.271  11.915 -0.3809  0.0677 -0.2012
  443MOL0     C61046   5.577   4.219  11.798  1.1649  0.1627 -0.3663
  443MOL0     N61047   5.519   3.671  11.163  0.3015  0.5935  1.1827
  443MOL0     N61048   5.424   3.708  11.083 -0.6937 -0.5634  0.1782
  443MOL0     C61049   4.599   4.134  10.592  0.0071 -0.5440 -0.2735
  443MOL0     C61050   4.486   4.062  10.600  0.0638 -1.1244 -0.2654
  443MOL0     C61051   4.103   3.891  10.730 -0.2870 -1.0821 -0.1929
  443MOL0     C61052   4.106   3.823  10.604 -0.5423  0.8773  0.7709
  443MOL0     C61053   3.985   3.783  10.531  0.5260  0.6527 -0.4607
  443MOL0     C61054   3.860   3.804  10.595  0.5212  0.7521  0.1511
  443MOL0     O61055   3.740   3.786  10.525 -0.1946  0.2453  0.0086
  443MOL0     C61056   3.729   3.751  10.377 -0.5962 -0.3942 -0.2473
  443MOL0     C61057   3.623   3.648  10.336 -0.0183 -0.2712 -0.3520
  443MOL0     C61058   3.672   3.498  10.338 -0.0433 -0.4739 -0.2163
  443MOL0     C61059   3.563   3.412  10.279  0.3267  0.6761  0.1373
  443MOL0     C61060   3.616   3.270  10.250 -0.2516 -0.5272  0.5418
  443MOL0     C61061   3.662   3.164  10.207 -0.2747  0.6182 -0.0670
  443MOL0     C61062   3.855   3.858  10.722 -0.1773 -0.0351 -0.1604
  443MOL0     C61063   3.972   3.909  10.785 -0.3324  0.5973  0.2485
  443MOL0     C61064   3.955   3.967  10.926  0.1123 -0.7297 -0.0619
  443MOL0     H61065   4.498   3.952  10.919 -0.7510 -0.7761  0.1361
  443MOL0     H61066   4.729   4.068  10.893 -0.5144  1.3273  1.5950
  443MOL0     H61067   4.760   4.388  10.638 -1.5724 -0.5949 -0.1527
  443MOL0     H61068   4.853   4.288  10.525 -0.1335  0.0946 -1.2079
  443MOL0     H61069   4.981   4.462  10.648  1.3058 -0.8917 -1.1695
  443MOL0     H61070   4.961   4.380  10.795  0.3536  0.6359  0.0792
  443MOL0     H61071   5.073   4.172  10.677  0.9605  0.5415 -1.6953
  443MOL0     H61072   5.114   4.288  10.557  1.5323 -1.2487 -0.1449
  443MOL0     H61073   5.248   4.420  10.686 -0.5810  1.0324  1.2563
  443MOL0     H61074   5.184   4.386  10.836 -2.1824  1.8450 -1.8970
  443MOL0     H61075   5.403   4.277  10.811 -0.2964  1.0435 -0.5846
  443MOL0     H61076   5.347   4.188  10.666 -0.9382  0.8786 -0.5167
  443MOL0     H61077   5.240   4.146  10.944  0.7616 -0.6728  0.5259
  443MOL0     H61078   5.193   4.048  10.806 -0.1590  0.2683  1.9776
  443MOL0     H61079   5.465   4.072  10.938 -0.4356  1.5995 -0.2732
  443MOL0     H61080   5.434   3.965  10.804  2.5773 -0.9571  2.5317
  443MOL0     H61081   5.262   3.971  11.072 -2.8590 -2.1704  0.0182
  443MOL0     H61082   5.236   3.869  10.942 -0.3036  0.6896 -0.1952
  443MOL0     H61083   5.558   3.999  11.110 -0.7555  0.3870 -2.6727
  443MOL0     H61084   5.777   3.886  11.238  0.4088 -0.9356  1.5549
  443MOL0     H61085   5.763   3.728  11.297  1.2593  0.3093 -2.8473
  443MOL0     H61086   5.591   3.951  11.411 -0.0571 -0.5592 -2.4957
  443MOL0     H61087   5.618   3.790  11.483  1.4595 -1.6950 -0.0979
  443MOL0     H61088   5.867   3.854  11.484  0.9730  0.9684 -0.7640
  443MOL0     H61089   5.811   4.023  11.461 -0.0353  0.3539  1.4344
  443MOL0     H61090   5.691   3.871  11.681 -1.8843  1.1749  1.0313
  443MOL0     H61091   5.846   3.956  11.693  0.0773  2.7217 -1.0386
  443MOL0     H61092   5.733   3.947  11.899  0.6709  0.1160 -2.8234
  443MOL0     H61093   5.603   3.918  12.169 -0.4398  1.0401  2.4427
  443MOL0     H61094   5.700   4.065  12.231  1.4483 -0.4097 -0.3503
  443MOL0     H61095   5.763   3.943  12.123 -1.3234 -2.4164 -2.3039
  443MOL0     H61096   5.235   4.290  12.324  1.6797 -1.5669  1.2821
  443MOL0     H61097   5.204   4.336  12.562 -0.5409 -1.2304 -1.3087
  443MOL0     H61098   5.523   4.539  12.779 -0.0653 -0.4854 -1.8674
  443MOL0     H61099   5.450   4.696  12.744  1.2865  0.1655 -0.3157
  443MOL0     H61100   5.297   4.678  12.945  0.1886 -1.0187  1.0765
  443MOL0     H61101   5.360   4.518  12.984 -0.7098 -0.4587 -0.6171
  443MOL0     H61102   5.533   4.761  12.977  1.4513  0.3299  0.9893
  443MOL0     H61103   5.589   4.590  13.011 -0.3563  0.6343 -0.5910
  443MOL0     H61104   5.414   4.573  13.171 -1.6085  0.2797 -1.2023
  443MOL0     H61105   5.390   4.753  13.164  1.2462  0.3513 -2.5511
  443MOL0     H61106   5.628   4.606  13.259  2.5993  0.5846  0.7311
  443MOL0     H61107   5.620   4.794  13.246 -1.3266  1.3978  5.1946
  443MOL0     H61108   5.606   4.724  13.465 -1.0201  3.0693  0.1417
  443MOL0     H61109   5.464   4.625  13.427  0.4993  0.0040  0.4069
  443MOL0     H61110   5.346   4.849  13.356  1.6922 -1.7443 -2.1600
  443MOL0     H61111   5.501   4.933  13.378 -1.0409  0.4135 -1.4267
  443MOL0     H61112   5.385   4.986  13.579  1.7642  0.4815 -0.5645
  443MOL0     H61113   5.510   4.864  13.623  1.9571 -1.1663 -3.1188
  443MOL0     H61114   5.515   4.639  12.536  0.9638 -1.5710 -0.3737
  443MOL0     H61115   5.572   4.561  12.326 -0.3224  1.9697 -0.3380
  443MOL0     H61116   5.457   4.357  11.907  0.8087  1.5077  3.5586
  443MOL0     H61117   5.564   4.275  11.705 -0.8322  1.0452  0.3705
  443MOL0     H61118   4.616   4.184  10.498 -0.1366 -0.1203 -0.0766
  443MOL0     H61119   4.439   4.052  10.503 -0.1158 -1.9183 -0.1057
  443MOL0     H61120   4.199   3.803  10.552 -1.2875  0.2036 -0.3503
  443MOL0     H61121   3.998   3.744  10.430  3.6498 -0.8145  0.3701
  443MOL0     H61122   3.705   3.848  10.334  1.8756  0.7416  0.7446
  443MOL0     H61123   3.827   3.716  10.345 -0.9965 -0.9294 -0.9085
  443MOL0     H61124   3.606   3.664  10.229 -0.8969  1.2779 -0.0044
  443MOL0     H61125   3.532   3.670  10.392  2.6369  1.0243  3.9168
  443MOL0     H61126   3.763   3.480  10.281 -0.7365 -2.6414 -0.7401
  443MOL0     H61127   3.710   3.474  10.438  1.7591 -0.3114 -0.8407
  443MOL0     H61128   3.530   3.458  10.186 -0.2193 -0.0892 -0.0544
  443MOL0     H61129   3.482   3.412  10.352  1.0229 -0.7724  0.9675
  443MOL0     H61130   3.677   3.063  10.172 -1.0758  0.1048  1.0026
  443MOL0     H61131   3.758   3.854  10.772 -0.0661 -1.0889 -0.0142
  443MOL0     H61132   3.868   3.930  10.981 -0.7865  0.1349 -0.8638
  443MOL0     H61133   4.037   3.944  10.994 -1.1516 -0.0428  1.7505
  443MOL0     H61134   3.940   4.075  10.913  2.2192 -0.5532 -1.4314
  444MOL0     O61135  10.397   4.775   8.131 -0.0941  0.3333  0.3369
  444MOL0     C61136  10.511   4.776   8.085  1.6097 -0.6995 -0.4714
  444MOL0     O61137  10.556   4.674   8.004 -0.3201  0.0969  0.4204
  444MOL0     C61138  10.463   4.567   7.968 -0.9584  0.2921 -0.8122
  444MOL0     C61139  10.468   4.463   8.062  0.2384 -1.4431  0.3091
  444MOL0     C61140  10.395   4.346   8.047  0.0025  0.0567 -0.2094
  444MOL0     C61141  10.307   4.335   7.942  0.0344 -0.4723 -0.2203
  444MOL0     O61142  10.232   4.222   7.938 -0.0990  0.2962  0.4829
  444MOL0     C61143  10.140   4.204   7.832 -0.1944 -0.0746 -0.9031
  444MOL0     C61144  10.089   4.053   7.821  0.3328 -0.0589 -0.3033
  444MOL0     C61145  10.042   3.997   7.953  0.3781  0.8577 -0.1529
  444MOL0     C61146   9.968   3.878   7.915 -0.5477 -0.9459  0.6355
  444MOL0     C61147   9.908   3.799   8.035  1.1294  0.3301  0.3039
  444MOL0     C61148   9.845   3.666   7.981  0.5484  0.2138  0.6865
  444MOL0     C61149   9.816   3.553   8.083 -0.3568 -0.3800  1.0175
  444MOL0     C61150   9.931   3.505   8.173  0.3701  0.0981 -0.7740
  444MOL0     N61151  10.040   3.435   8.090 -0.0580 -0.3663  0.0495
  444MOL0     C61152  10.151   3.499   8.048  0.2456 -0.3663  0.4368
  444MOL0     C61153  10.208   3.405   7.967 -0.4223 -0.1617 -0.4736
  444MOL0     C61154  10.321   3.432   7.870  0.9706  0.2730  0.2788
  444MOL0     C61155  10.278   3.471   7.730 -0.9198  0.1753  0.0675
  444MOL0     C61156  10.403   3.503   7.644  0.2491  0.7465  0.9078
  444MOL0     C61157  10.502   3.613   7.698 -0.5778 -0.4363  0.3427
  444MOL0     O61158  10.435   3.743   7.698  0.6650 -0.0554  0.7685
  444MOL0     C61159  10.493   3.851   7.758  0.3785 -0.1368  0.1914
  444MOL0     C61160  10.442   3.886   7.876 -0.1277 -0.5103 -1.0429
  444MOL0     C61161  10.517   3.980   7.955  0.9425 -0.4107  0.4099
  444MOL0     C61162  10.484   3.977   8.097  0.6536 -0.7747 -0.4909
  444MOL0     C61163  10.632   4.043   7.909  0.0101 -0.4644  0.4932
  444MOL0     C61164  10.704   4.150   7.986  0.3081  0.0162  0.2579
  444MOL0     O61165  10.823   4.182   7.926 -0.3962 -0.4465 -0.2583
  444MOL0     C61166  10.901   4.260   8.006 -0.0497 -0.1258 -0.4460
  444MOL0     C61167  11.026   4.225   8.065  0.0200 -0.6037  0.0252
  444MOL0     C61168  11.079   4.308   8.160  0.4607 -0.7803  0.0191
  444MOL0     C61169  11.028   4.431   8.191  0.0987  0.1282  0.2989
  444MOL0     O61170  11.075   4.508   8.293  0.7773 -0.7249  0.3097
  444MOL0     C61171  11.212   4.489   8.329 -0.3799  0.5878 -0.0625
  444MOL0     C61172  11.328   4.549   8.253  0.4584  0.7024  0.3393
  444MOL0     C61173  11.447   4.563   8.341  0.1195  0.1239  0.0310
  444MOL0     C61174  11.491   4.439   8.425  0.3988  0.0720 -0.3974
  444MOL0     C61175  11.625   4.454   8.494 -0.0791  0.0974  0.0330
  444MOL0     C61176  11.649   4.593   8.560 -0.2393 -0.2149 -0.2434
  444MOL0     C61177  11.752   4.587   8.674  0.0695  0.4966  0.0813
  444MOL0     C61178  11.895   4.556   8.612  0.5282 -1.2143  0.5587
  444MOL0    Cl61179  12.015   4.564   8.746  0.1652 -0.0835  0.0657
  444MOL0     C61180  10.920   4.477   8.118 -0.5546 -0.5899  0.5788
  444MOL0     C61181  10.858   4.394   8.027  0.2241  0.2798 -0.6728
  444MOL0     O61182  10.660   4.200   8.093 -0.2018  0.6510  0.0542
  444MOL0     C61183  10.673   4.014   7.773 -0.0014  0.3462  0.5609
  444MOL0     C61184  10.600   3.919   7.699 -0.5949  0.3829  0.0177
  444MOL0     N61185  10.136   3.286   7.966 -0.2028  0.3908  0.5535
  444MOL0     N61186  10.027   3.307   8.038  0.7428  0.0764  0.1608
  444MOL0     C61187  10.295   4.438   7.850  0.3613 -0.7937  0.6365
  444MOL0     C61188  10.367   4.552   7.865 -0.3077  0.2962 -0.9339
  444MOL0     C61189  10.590   4.889   8.116  0.8366  0.1809 -0.5158
  444MOL0     C61190  10.542   4.988   8.211  0.8022  0.3152 -0.2329
  444MOL0     C61191  10.625   5.089   8.253 -0.8349  0.4655  0.2205
  444MOL0     C61192  10.744   5.115   8.186 -0.0870  0.6284  0.0921
  444MOL0     O61193  10.823   5.223   8.223  0.3310 -0.1726  0.1597
  444MOL0     C61194  10.836   5.276   8.356 -0.2112 -0.0254 -0.1691
  444MOL0     C61195  10.758   5.403   8.366  1.0040  0.2767 -0.6477
  444MOL0     C61196  10.768   5.474   8.504  0.5010 -0.7141  0.4324
  444MOL0     C61197  10.694   5.613   8.495 -0.1950  0.5772  0.8461
  444MOL0     C61198  10.740   5.698   8.600  0.2577 -0.6019 -0.1698
  444MOL0     C61199  10.768   5.755   8.701  0.2416  0.1033  0.4544
  444MOL0     C61200  10.788   5.031   8.087 -0.0275 -0.5171 -0.1456
  444MOL0     C61201  10.716   4.921   8.051 -0.0239 -0.5703  0.0092
  444MOL0     C61202  10.785   4.841   7.938 -0.2340 -0.8651 -0.2603
  444MOL0     H61203  10.533   4.468   8.149  1.4255  0.9247 -0.6151
  444MOL0     H61204  10.406   4.276   8.129  0.2257  1.3983  0.9489
  444MOL0     H61205  10.175   4.205   7.729 -0.2437 -1.7672 -0.9643
  444MOL0     H61206  10.058   4.275   7.847  0.9709  0.8294  1.8991
  444MOL0     H61207  10.008   4.060   7.749  1.0302  0.1972 -1.0831
  444MOL0     H61208  10.172   3.988   7.792  0.8565 -0.7166  2.3549
  444MOL0     H61209  10.126   3.967   8.017 -0.8409 -1.9992  0.2798
  444MOL0     H61210   9.984   4.072   8.008 -1.0074  0.7238 -1.3705
  444MOL0     H61211   9.883   3.903   7.851 -1.6336 -1.1823  1.9380
  444MOL0     H61212  10.039   3.824   7.852 -1.2920 -2.5844  1.1530
  444MOL0     H61213   9.831   3.858   8.086  0.9087 -0.4978  0.9355
  444MOL0     H61214   9.994   3.766   8.093  1.2490 -1.1510 -0.6558
  444MOL0     H61215   9.745   3.686   7.940  0.7144  1.7025  0.9635
  444MOL0     H61216   9.920   3.630   7.910  2.4223  2.3653  1.4557
  444MOL0     H61217   9.782   3.463   8.032  0.5897 -1.6950  2.5961
  444MOL0     H61218   9.733   3.582   8.148 -0.1310  1.3092  0.5985
  444MOL0     H61219   9.978   3.577   8.241  2.3984 -2.4698  0.7317
  444MOL0     H61220   9.892   3.436   8.248  2.6219  0.2095  0.6051
  444MOL0     H61221  10.162   3.607   8.059 -4.4511  0.3219  0.4817
  444MOL0     H61222  10.391   3.348   7.873 -0.8514 -1.4990 -2.4752
  444MOL0     H61223  10.363   3.523   7.915 -1.5602  2.1685 -0.9613
  444MOL0     H61224  10.222   3.388   7.686  0.6341 -0.7493 -0.2504
  444MOL0     H61225  10.221   3.564   7.732  2.5925  2.5248  0.0982
  444MOL0     H61226  10.449   3.406   7.621 -3.1336 -0.5320 -1.3443
  444MOL0     H61227  10.365   3.549   7.552  1.4060  1.4472  0.7667
  444MOL0     H61228  10.549   3.598   7.796 -1.2690  0.7825  0.8746
  444MOL0     H61229  10.584   3.618   7.625 -0.4194 -0.9857  0.4775
  444MOL0     H61230  10.357   3.828   7.910  0.4777 -1.1615 -0.5963
  444MOL0     H61231  10.377   3.959   8.115  0.1430  2.5898  0.4491
  444MOL0     H61232  10.506   4.071   8.148  0.6542 -1.2253  0.3484
  444MOL0     H61233  10.548   3.902   8.144  0.5182  0.5096  1.8635
  444MOL0     H61234  11.081   4.132   8.056 -0.1530 -1.2235  3.6829
  444MOL0     H61235  11.161   4.267   8.219 -1.6652  0.9393  4.6581
  444MOL0     H61236  11.204   4.543   8.425 -1.8782  1.3202 -0.5601
  444MOL0     H61237  11.241   4.388   8.358 -1.9967  0.2985  0.7030
  444MOL0     H61238  11.337   4.483   8.166  3.4783 -2.4708  2.8224
  444MOL0     H61239  11.303   4.648   8.212 -1.1595 -0.5638 -1.9770
  444MOL0     H61240  11.437   4.650   8.406  2.3733 -1.8060  3.2380
  444MOL0     H61241  11.527   4.585   8.270 -0.0429  1.5217  0.2514
  444MOL0     H61242  11.493   4.359   8.351  0.2654  0.1876 -0.5259
  444MOL0     H61243  11.410   4.407   8.492  1.3119 -4.4462 -1.1082
  444MOL0     H61244  11.632   4.377   8.572 -3.7977  2.7629  3.4322
  444MOL0     H61245  11.706   4.429   8.425  2.2317  1.2186  2.1724
  444MOL0     H61246  11.553   4.630   8.595 -0.2364 -1.2582  0.9390
  444MOL0     H61247  11.695   4.671   8.499  3.8306 -0.0668  2.5334
  444MOL0     H61248  11.724   4.506   8.742  2.0068 -2.0004 -1.9052
  444MOL0     H61249  11.753   4.683   8.727 -1.5596 -0.0846  1.2258
  444MOL0     H61250  11.921   4.641   8.549 -1.7476  2.0967  3.6979
  444MOL0     H61251  11.890   4.459   8.561 -1.9132 -1.0400  0.3625
  444MOL0     H61252  10.883   4.578   8.132  3.2964  1.1703 -0.5781
  444MOL0     H61253  10.782   4.425   7.956 -0.0600 -3.0691 -2.0327
  444MOL0     H61254  10.764   4.046   7.723  1.2611 -0.3349  2.3421
  444MOL0     H61255  10.643   3.889   7.604  1.5293  1.1640  0.6776
  444MOL0     H61256  10.218   4.435   7.774 -0.5879 -0.8325  1.5637
  444MOL0     H61257  10.333   4.640   7.810 -1.0253  1.6535  1.5337
  444MOL0     H61258  10.450   4.974   8.267 -1.5024  3.7077 -2.7440
  444MOL0     H61259  10.606   5.156   8.336  1.7282  1.0958  0.3847
  444MOL0     H61260  10.813   5.220   8.447 -0.5527  1.3028  0.5908
  444MOL0     H61261  10.943   5.296   8.361 -0.3719  1.3617 -1.5413
  444MOL0     H61262  10.653   5.377   8.349  0.4655 -1.0827  3.5787
  444MOL0     H61263  10.799   5.463   8.284 -1.0615  0.4779 -1.5988
  444MOL0     H61264  10.734   5.413   8.587  1.3454 -0.6793  0.8115
  444MOL0     H61265  10.875   5.490   8.521  0.4102 -0.2621  0.6089
  444MOL0     H61266  10.585   5.607   8.506 -0.4318 -1.1890 -1.6470
  444MOL0     H61267  10.716   5.670   8.405 -3.3265  0.2087 -0.2785
  444MOL0     H61268  10.801   5.798   8.793  1.2082 -1.8581  1.0724
  444MOL0     H61269  10.882   5.064   8.044  0.2026 -0.7296  0.1861
  444MOL0     H61270  10.866   4.895   7.889 -0.9533  0.4960  0.0229
  444MOL0     H61271  10.813   4.739   7.968 -2.6462 -0.8873  2.4224
  444MOL0     H61272  10.711   4.819   7.860 -2.4465 -0.2935  1.5491
  445MOL0     O61273   6.703   9.475  10.095  0.7105 -0.1728 -0.3648
  445MOL0     C61274   6.692   9.382  10.015  0.7027  1.2407  0.3744
  445MOL0     O61275   6.600   9.265  10.032 -0.2074  0.1020  0.8169
  445MOL0     C61276   6.510   9.280  10.129 -0.5674 -0.5765  0.5419
  445MOL0     C61277   6.383   9.323  10.102 -0.2338  0.1901  1.1475
  445MOL0     C61278   6.281   9.323  10.196  1.5049  0.4677 -0.7606
  445MOL0     C61279   6.314   9.282  10.320  0.2603  0.3684  0.4074
  445MOL0     O61280   6.224   9.272  10.429  0.0035 -0.0985 -0.5368
  445MOL0     C61281   6.080   9.266  10.404  0.0598 -0.1498 -0.6157
  445MOL0     C61282   6.000   9.219  10.527 -0.2829 -0.0766 -0.3996
  445MOL0     C61283   6.034   9.082  10.571 -0.1943 -0.2953  0.1629
  445MOL0     C61284   5.960   9.048  10.697  0.6881  0.5016 -0.8689
  445MOL0     C61285   5.923   8.890  10.696  0.6799  0.1238  0.0612
  445MOL0     C61286   6.048   8.826  10.734 -1.1666 -0.1921  0.2317
  445MOL0     C61287   6.040   8.676  10.770  1.0168  0.5771  0.3000
  445MOL0     C61288   6.171   8.595  10.773 -0.2034  0.3991 -0.0719
  445MOL0     N61289   6.150   8.456  10.814 -0.3605  0.2904 -0.1819
  445MOL0     C61290   6.156   8.413  10.947 -0.8499 -0.7219  0.0380
  445MOL0     C61291   6.158   8.279  10.931 -0.0409  0.2926  0.1626
  445MOL0     C61292   6.169   8.184  11.053 -0.6385  0.5664 -0.5272
  445MOL0     C61293   6.069   8.065  11.039 -0.3364  0.8076 -0.4194
  445MOL0     C61294   6.140   7.949  10.988  0.0799 -0.3816  0.8138
  445MOL0     C61295   6.056   7.828  10.968 -0.2369  0.6385  0.3578
  445MOL0     O61296   5.932   7.857  10.908  0.0831  0.2728 -0.0517
  445MOL0     C61297   5.836   7.753  10.891 -0.9326 -0.2567  0.0324
  445MOL0     C61298   5.869   7.617  10.888 -0.7008  0.2493  0.1816
  445MOL0     C61299   5.766   7.527  10.883  0.6007 -0.1374 -0.3495
  445MOL0     C61300   5.810   7.385  10.905 -0.3283 -0.3140 -0.0999
  445MOL0     C61301   5.630   7.565  10.869 -0.4833  0.1846  0.5900
  445MOL0     C61302   5.515   7.484  10.897 -0.5812  0.2854 -0.8586
  445MOL0     O61303   5.394   7.535  10.878 -0.2096  0.0200 -0.4519
  445MOL0     C61304   5.285   7.484  10.937 -0.3774 -0.0552 -0.1650
  445MOL0     C61305   5.262   7.478  11.068  0.4882 -0.1292 -0.5143
  445MOL0     C61306   5.137   7.437  11.120  0.4243  0.1735 -0.1476
  445MOL0     C61307   5.040   7.390  11.030 -0.1419  0.2415 -0.5823
  445MOL0     O61308   4.913   7.364  11.069 -0.2772 -1.0635 -0.0078
  445MOL0     C61309   4.825   7.270  11.013 -0.1301 -0.2892  1.8673
  445MOL0     C61310   4.692   7.263  11.077  0.7159 -0.1013  0.0923
  445MOL0     C61311   4.605   7.149  11.020  0.1064  0.2946  0.0463
  445MOL0     C61312   4.469   7.157  11.077 -1.0170 -0.4890 -0.2715
  445MOL0     C61313   4.352   7.061  11.018 -0.4699  0.1570  0.3699
  445MOL0     C61314   4.226   7.064  11.117  0.0116  0.3178 -0.0505
  445MOL0     C61315   4.110   6.980  11.058  0.6627 -0.4651 -0.0311
  445MOL0     C61316   4.010   6.927  11.161  1.1307 -0.3426  0.2935
  445MOL0    Cl61317   3.909   6.790  11.096  0.0871 -0.9060 -0.2118
  445MOL0     C61318   5.065   7.393  10.892 -0.8151  0.1259  0.6980
  445MOL0     C61319   5.183   7.446  10.845  0.0366  0.0807  0.2279
  445MOL0     O61320   5.535   7.368  10.936  0.5256  0.1827 -0.4047
  445MOL0     C61321   5.607   7.705  10.830 -0.0405  0.3058  0.2456
  445MOL0     C61322   5.713   7.794  10.860 -0.4556 -0.1535  0.0749
  445MOL0     N61323   6.151   8.240  10.799  0.6828  0.4291 -0.7448
  445MOL0     N61324   6.142   8.349  10.734  0.9690  0.5578 -0.2932
  445MOL0     C61325   6.446   9.254  10.351  0.0395  1.1893 -0.7176
  445MOL0     C61326   6.540   9.254  10.257 -0.6578  0.7460  0.1676
  445MOL0     C61327   6.787   9.362   9.901  0.2711  0.5576 -0.7047
  445MOL0     C61328   6.736   9.270   9.799 -0.4135 -0.2708 -0.1466
  445MOL0     C61329   6.811   9.253   9.684 -0.0541  0.8416  0.3554
  445MOL0     C61330   6.932   9.325   9.659  1.0750  0.0872  0.2503
  445MOL0     O61331   6.995   9.314   9.542  0.3499 -0.1141  0.3337
  445MOL0     C61332   6.935   9.239   9.437  0.2988  0.4310  0.2389
  445MOL0     C61333   7.005   9.279   9.315  0.4319 -0.3120  0.0496
  445MOL0     C61334   7.002   9.183   9.195 -0.7273 -0.5068 -0.9185
  445MOL0     C61335   7.084   9.239   9.084 -1.3469 -0.4593  1.3409
  445MOL0     C61336   7.017   9.356   9.022 -0.2614  0.2116  0.1815
  445MOL0     C61337   6.956   9.443   8.981 -0.2624  0.2802  0.5024
  445MOL0     C61338   6.983   9.412   9.759  0.3745 -0.2363  0.4270
  445MOL0     C61339   6.912   9.432   9.881 -0.8019  1.0754 -0.2077
  445MOL0     C61340   6.968   9.517   9.987  0.5063 -0.0875  0.0444
  445MOL0     H61341   6.356   9.346   9.999  1.7680 -0.7529  0.3611
  445MOL0     H61342   6.179   9.356  10.180  1.7976  1.8432  0.0867
  445MOL0     H61343   6.052   9.195  10.327 -1.6442 -3.1985  2.5541
  445MOL0     H61344   6.045   9.368  10.384 -1.3830 -0.7059 -0.9727
  445MOL0     H61345   6.031   9.294  10.601 -4.1541  0.1899  1.2001
  445MOL0     H61346   5.895   9.235  10.501 -0.2444 -0.0822 -0.5562
  445MOL0     H61347   6.010   9.011  10.490  2.7574 -2.6239  1.1394
  445MOL0     H61348   6.141   9.064  10.584 -0.0137 -1.4928 -2.2590
  445MOL0     H61349   6.021   9.079  10.782 -1.5658 -0.8019  1.3826
  445MOL0     H61350   5.865   9.097  10.720  1.7299  1.4329  1.7920
  445MOL0     H61351   5.881   8.866  10.598  2.0170  0.8334 -0.7100
  445MOL0     H61352   5.852   8.860  10.774 -0.3011 -1.2619 -1.3019
  445MOL0     H61353   6.109   8.844  10.645  0.0908  2.3224  1.4895
  445MOL0     H61354   6.101   8.876  10.815  0.0920  1.5008 -1.5311
  445MOL0     H61355   5.983   8.629  10.690 -0.1351  0.7151  1.0262
  445MOL0     H61356   5.990   8.658  10.866 -0.9044 -1.7670 -1.0162
  445MOL0     H61357   6.205   8.598  10.669 -1.1664 -0.4025 -0.4198
  445MOL0     H61358   6.238   8.648  10.841 -1.2283  0.6354  0.7674
  445MOL0     H61359   6.154   8.469  11.040  1.3189  0.2301 -0.4341
  445MOL0     H61360   6.154   8.232  11.150  2.3058 -0.1905  0.4021
  445MOL0     H61361   6.270   8.148  11.073  0.0283  1.2447 -2.4275
  445MOL0     H61362   6.034   8.038  11.139  0.4209  0.3578 -0.2693
  445MOL0     H61363   5.987   8.103  10.977 -0.0998  1.7010 -0.2030
  445MOL0     H61364   6.185   7.977  10.891  0.8984  1.0999  1.5878
  445MOL0     H61365   6.222   7.914  11.052  1.5478 -0.4676 -0.9961
  445MOL0     H61366   6.110   7.751  10.912 -0.1801  0.9878 -0.0747
  445MOL0     H61367   6.034   7.778  11.063 -3.0927  0.2620 -0.3936
  445MOL0     H61368   5.971   7.580  10.892 -0.2482  0.9840 -2.2894
  445MOL0     H61369   5.898   7.350  10.850  0.5575  0.7975  0.5627
  445MOL0     H61370   5.744   7.316  10.852  1.1434 -0.1648 -2.2544
  445MOL0     H61371   5.822   7.365  11.012  1.6922 -2.6925 -0.6886
  445MOL0     H61372   5.327   7.520  11.144 -2.2138  2.2347  0.6673
  445MOL0     H61373   5.100   7.439  11.222 -2.6227 -0.7840 -1.1198
  445MOL0     H61374   4.809   7.289  10.906  3.1088  1.1741  1.5054
  445MOL0     H61375   4.862   7.167  11.016  0.0446 -0.3633 -0.6540
  445MOL0     H61376   4.711   7.255  11.184  1.3916 -2.8323 -0.1428
  445MOL0     H61377   4.636   7.355  11.062 -0.7262 -0.6921  1.6112
  445MOL0     H61378   4.659   7.057  11.045 -0.3159  0.7356  2.8205
  445MOL0     H61379   4.598   7.155  10.911  0.3250 -3.0173 -0.2509
  445MOL0     H61380   4.440   7.255  11.041  0.0116 -0.2189 -0.4031
  445MOL0     H61381   4.470   7.153  11.186 -1.2929 -0.5357 -0.2707
  445MOL0     H61382   4.306   7.081  10.921 -2.1457 -3.4655  0.2462
  445MOL0     H61383   4.397   6.964  10.996  2.4766  1.0225  2.0987
  445MOL0     H61384   4.183   7.164  11.118 -0.3856  0.2056  2.7299
  445MOL0     H61385   4.250   7.032  11.220 -2.4837 -1.0424  0.1788
  445MOL0     H61386   4.153   6.895  11.005  0.6425  0.8589 -2.3072
  445MOL0     H61387   4.053   7.026  10.977  2.4931 -2.4083 -2.5876
  445MOL0     H61388   3.938   7.005  11.185  1.5585  0.4919 -1.0112
  445MOL0     H61389   4.066   6.897  11.251 -0.7282  1.3723  2.1129
  445MOL0     H61390   4.983   7.370  10.824 -0.9038  3.4594 -0.4958
  445MOL0     H61391   5.191   7.468  10.739 -1.1569  1.4625  0.3925
  445MOL0     H61392   5.512   7.754  10.811 -0.0887  0.3500  0.5863
  445MOL0     H61393   5.689   7.899  10.862  3.2305  0.8742 -1.6187
  445MOL0     H61394   6.462   9.236  10.456  0.2171 -0.8406 -1.0658
  445MOL0     H61395   6.645   9.231  10.276 -1.5780 -1.8665  2.9062
  445MOL0     H61396   6.642   9.216   9.807 -0.2135 -1.0096 -2.2253
  445MOL0     H61397   6.767   9.195   9.604 -0.2249  1.8747 -0.3220
  445MOL0     H61398   6.952   9.132   9.450  2.2956  0.4870 -1.3708
  445MOL0     H61399   6.829   9.258   9.418  0.0983 -2.5146 -2.2244
  445MOL0     H61400   7.111   9.298   9.336  0.2107  1.5912 -0.3732
  445MOL0     H61401   6.972   9.382   9.301  0.1177  0.2711  3.9079
  445MOL0     H61402   7.037   9.084   9.226  1.3325  0.4650  0.0718
  445MOL0     H61403   6.896   9.182   9.168 -1.4417 -0.2657  1.6127
  445MOL0     H61404   7.095   9.166   9.004 -1.4555 -2.5966  3.1763
  445MOL0     H61405   7.183   9.259   9.126  0.3345 -0.2270 -2.3720
  445MOL0     H61406   6.901   9.521   8.932 -1.6502 -0.9941 -0.0710
  445MOL0     H61407   7.076   9.466   9.744 -1.3806  2.3327 -2.3255
  445MOL0     H61408   6.927   9.617   9.969 -0.8114 -0.2567  1.7861
  445MOL0     H61409   6.954   9.502  10.095  0.6685  0.4282  0.1435
  445MOL0     H61410   7.074   9.519   9.963 -0.0600  1.8998 -2.6882
  446MOL0     O61411   2.654   1.207   5.810 -1.0224  0.0658 -0.1439
  446MOL0     C61412   2.716   1.303   5.764 -0.2858  0.8308  0.0627
  446MOL0     O61413   2.855   1.301   5.729  0.2144 -0.7920 -0.5923
  446MOL0     C61414   2.927   1.217   5.793  0.0973  0.2561 -0.4938
  446MOL0     C61415   2.914   1.084   5.775 -0.9233  0.7016 -0.0744
  446MOL0     C61416   2.992   0.993   5.848 -0.0170 -0.4884 -0.3706
  446MOL0     C61417   3.085   1.036   5.940 -0.6514 -0.5510  0.8811
  446MOL0     O61418   3.169   0.961   6.013 -0.5295  0.3151 -0.1035
  446MOL0     C61419   3.118   0.859   6.100  0.4047  0.7151  0.2896
  446MOL0     C61420   3.210   0.743   6.120 -0.2676  0.5322  0.9586
  446MOL0     C61421   3.253   0.680   5.981 -0.0780  0.2644 -0.2167
  446MOL0     C61422   3.331   0.550   6.010 -0.4294 -0.6449 -0.4096
  446MOL0     C61423   3.392   0.485   5.889 -0.2547 -0.2246  0.0382
  446MOL0     C61424   3.471   0.363   5.917  0.6029 -0.2586 -0.0417
  446MOL0     C61425   3.601   0.380   5.987 -0.2161  0.1980 -0.0881
  446MOL0     C61426   3.701   0.260   5.977  0.9647  0.6007 -0.5885
  446MOL0     N61427   3.685   0.136   6.051  0.1824 -1.1650  0.3034
  446MOL0     C61428   3.653   0.130   6.181  0.5359  0.0486  0.2802
  446MOL0     C61429   3.621  -0.004   6.201 -0.4677 -0.1621 -0.0801
  446MOL0     C61430   3.556  -0.053   6.328 -0.6156 -0.2821  0.1228
  446MOL0     C61431   3.401  -0.056   6.314  1.1011 -0.9025 -0.7479
  446MOL0     C61432   3.335  -0.110   6.447 -0.4462 -0.4286 -0.7134
  446MOL0     C61433   3.177  -0.105   6.425 -0.5171  0.6181  0.9349
  446MOL0     O61434   3.102  -0.158   6.536  0.5189 -0.7781  0.2132
  446MOL0     C61435   3.100  -0.088   6.649  0.3721  0.1936 -1.0989
  446MOL0     C61436   3.002   0.017   6.667  0.7862  0.4566 -0.1891
  446MOL0     C61437   2.994   0.092   6.782 -0.2030 -0.2676 -0.1743
  446MOL0     C61438   2.891   0.205   6.808 -0.2827 -0.5723  0.7423
  446MOL0     C61439   3.101   0.081   6.882 -0.4301  0.0818  0.1351
  446MOL0     C61440   3.125   0.166   7.005 -0.6380 -0.7631 -0.7832
  446MOL0     O61441   3.208   0.115   7.095 -0.5366 -0.2874 -0.5410
  446MOL0     C61442   3.258   0.168   7.209 -0.6142 -1.1788  0.4577
  446MOL0     C61443   3.365   0.100   7.260 -0.9592 -0.1887  0.5992
  446MOL0     C61444   3.418   0.135   7.384  0.3163 -0.1225 -0.1393
  446MOL0     C61445   3.375   0.248   7.461 -1.3406  0.3725  0.3296
  446MOL0     O61446   3.436   0.281   7.581  0.1538 -0.0372  0.2045
  446MOL0     C61447   3.576   0.274   7.602 -0.0096  1.0686 -0.7465
  446MOL0     C61448   3.611   0.244   7.746  0.5867 -0.0065 -0.5092
  446MOL0     C61449   3.766   0.236   7.759  0.1957 -0.0096 -0.5610
  446MOL0     C61450   3.810   0.230   7.907  0.3489  0.0709 -0.6672
  446MOL0     C61451   3.959   0.259   7.921 -0.8947  0.5266  1.1121
  446MOL0     C61452   4.037   0.129   7.913  1.2927 -0.4332 -0.5410
  446MOL0     C61453   4.187   0.172   7.886 -0.9232 -0.1287  1.2350
  446MOL0     C61454   4.262   0.064   7.807  0.6274 -0.5947  0.1131
  446MOL0    Cl61455   4.425   0.118   7.742  0.5720 -0.0790  0.2568
  446MOL0     C61456   3.264   0.311   7.409  0.4080 -0.3352 -0.3521
  446MOL0     C61457   3.211   0.279   7.281  0.1537 -0.2121  0.2758
  446MOL0     O61458   3.065   0.275   7.017 -0.1597 -0.2843  1.2834
  446MOL0     C61459   3.202  -0.018   6.858  1.2356 -0.0700 -0.4108
  446MOL0     C61460   3.202  -0.101   6.743  0.3326 -0.1430  0.0779
  446MOL0     N61461   3.645  -0.074   6.087  0.1480 -0.2543  0.1197
  446MOL0     N61462   3.690   0.005   5.998  0.1181 -0.3957 -0.1691
  446MOL0     C61463   3.104   1.177   5.954  0.4601  0.0471 -0.4277
  446MOL0     C61464   3.016   1.259   5.890 -0.6459 -0.0954 -1.1409
  446MOL0     C61465   2.630   1.419   5.741 -0.4241 -0.9394 -0.3076
  446MOL0     C61466   2.666   1.503   5.638 -0.1300  0.4421  0.2097
  446MOL0     C61467   2.577   1.602   5.592  0.3725  0.6044 -0.3816
  446MOL0     C61468   2.461   1.635   5.674 -1.0507  0.7533  1.0977
  446MOL0     O61469   2.388   1.738   5.621 -0.0385  0.3238  0.2371
  446MOL0     C61470   2.260   1.746   5.688 -0.2701 -0.5859  0.7983
  446MOL0     C61471   2.165   1.853   5.622  1.6619  1.0224  0.5152
  446MOL0     C61472   2.155   1.846   5.471 -1.1538 -0.2801  0.3062
  446MOL0     C61473   2.107   1.715   5.398  0.1042  0.1260 -0.3156
  446MOL0     C61474   2.054   1.745   5.268  0.8853  1.3134 -0.5713
  446MOL0     C61475   2.030   1.796   5.165  0.3730 -0.1923 -0.8884
  446MOL0     C61476   2.431   1.555   5.784  0.2645  0.4116  0.5247
  446MOL0     C61477   2.510   1.447   5.816 -0.6644 -0.2417 -0.3105
  446MOL0     C61478   2.471   1.389   5.949 -0.7723  0.6660 -0.6966
  446MOL0     H61479   2.848   1.049   5.697 -1.0450  0.3523  0.1819
  446MOL0     H61480   2.981   0.888   5.824  1.6396 -0.2785 -2.2605
  446MOL0     H61481   3.025   0.820   6.058  1.6005 -1.6785 -0.3608
  446MOL0     H61482   3.092   0.899   6.198 -0.1200 -1.1012  0.9402
  446MOL0     H61483   3.298   0.777   6.175 -1.5141 -0.6800  3.8729
  446MOL0     H61484   3.149   0.674   6.178 -0.0958 -0.7209 -0.2919
  446MOL0     H61485   3.164   0.650   5.925 -0.1226  0.4435 -0.2435
  446MOL0     H61486   3.303   0.754   5.917 -3.0570  0.1698 -2.8814
  446MOL0     H61487   3.413   0.573   6.078 -1.9100 -1.5449  1.7767
  446MOL0     H61488   3.263   0.477   6.055  0.9599 -1.0123  1.1801
  446MOL0     H61489   3.462   0.554   5.841  0.6706 -1.8071 -0.9775
  446MOL0     H61490   3.312   0.458   5.819 -1.4812  1.2133  0.8222
  446MOL0     H61491   3.404   0.292   5.965 -0.7870  1.3818  0.5666
  446MOL0     H61492   3.498   0.318   5.821  1.4894 -1.3332  0.6880
  446MOL0     H61493   3.579   0.402   6.092  0.9996  3.9403 -0.4848
  446MOL0     H61494   3.656   0.470   5.961 -1.0597  2.1038  3.8928
  446MOL0     H61495   3.711   0.230   5.872  0.8275 -0.5813 -0.2694
  446MOL0     H61496   3.796   0.307   6.005 -0.6365  3.4225  0.4778
  446MOL0     H61497   3.644   0.205   6.259  0.7997  0.9425 -0.5315
  446MOL0     H61498   3.591   0.022   6.400 -1.1545  0.1850 -0.0944
  446MOL0     H61499   3.599  -0.148   6.361 -2.1227 -1.1861 -0.4347
  446MOL0     H61500   3.372   0.049   6.300 -2.5586 -1.8168 -0.9640
  446MOL0     H61501   3.379  -0.112   6.223  0.3567 -0.8392 -0.6147
  446MOL0     H61502   3.368  -0.211   6.472 -0.3363  0.2770  2.4905
  446MOL0     H61503   3.361  -0.047   6.534 -0.1584 -1.4520 -0.0401
  446MOL0     H61504   3.135  -0.008   6.398  0.0457  0.5700 -0.1575
  446MOL0     H61505   3.159  -0.161   6.333  0.5460  1.5657  0.1225
  446MOL0     H61506   2.932   0.040   6.588  1.2771  0.4029 -0.6404
  446MOL0     H61507   2.796   0.184   6.757 -1.2782 -1.6970  2.9274
  446MOL0     H61508   2.936   0.298   6.771 -0.4688 -0.4800  0.7468
  446MOL0     H61509   2.856   0.227   6.909 -3.2054  2.6699 -0.7682
  446MOL0     H61510   3.416   0.027   7.197 -0.0280  1.4000 -0.5687
  446MOL0     H61511   3.497   0.080   7.433  0.5619  2.7726  3.1428
  446MOL0     H61512   3.614   0.200   7.532 -0.8360  1.2473 -1.3919
  446MOL0     H61513   3.620   0.367   7.564  2.3330  0.0255 -0.7929
  446MOL0     H61514   3.562   0.321   7.806  1.3680  0.5737 -0.5992
  446MOL0     H61515   3.573   0.146   7.775  1.2737  0.2768  1.5610
  446MOL0     H61516   3.809   0.327   7.715  2.8688 -0.1860  1.4379
  446MOL0     H61517   3.803   0.154   7.697  0.4118  0.2149 -0.7303
  446MOL0     H61518   3.778   0.140   7.959  0.2478  0.2508 -0.4197
  446MOL0     H61519   3.752   0.311   7.951  0.7686  1.2217 -2.1250
  446MOL0     H61520   3.987   0.330   7.842 -2.6896 -1.5344 -1.5290
  446MOL0     H61521   3.974   0.316   8.014 -3.9814 -0.2905  2.2171
  446MOL0     H61522   3.990   0.069   7.834 -2.1283 -1.2460  1.8850
  446MOL0     H61523   4.036   0.079   8.011 -0.3851 -1.3315 -0.9830
  446MOL0     H61524   4.246   0.203   7.974 -0.4894  1.0570  0.5494
  446MOL0     H61525   4.173   0.257   7.818 -1.3577 -1.5776 -0.5430
  446MOL0     H61526   4.189   0.025   7.735  0.0562  0.8932 -0.1436
  446MOL0     H61527   4.273  -0.027   7.868  0.8425 -1.9100 -1.8105
  446MOL0     H61528   3.214   0.385   7.471  2.5053 -1.0907  2.4530
  446MOL0     H61529   3.144   0.350   7.232  2.8555  1.1317 -1.7425
  446MOL0     H61530   3.293  -0.025   6.918  0.5909  2.7430  1.0678
  446MOL0     H61531   3.281  -0.174   6.732  0.5795  0.1418 -0.0483
  446MOL0     H61532   3.176   1.228   6.017 -1.1683  0.2486  1.3477
  446MOL0     H61533   3.022   1.366   5.908 -1.8610  0.1015 -1.8009
  446MOL0     H61534   2.754   1.480   5.580 -1.8294  0.0433 -2.3987
  446MOL0     H61535   2.597   1.657   5.501 -2.1563 -0.9636 -1.9799
  446MOL0     H61536   2.205   1.651   5.687  2.3597 -2.2119 -0.4084
  446MOL0     H61537   2.288   1.770   5.791 -0.9948  1.2413  0.6173
  446MOL0     H61538   2.194   1.952   5.656 -1.6479  2.5528 -0.7248
  446MOL0     H61539   2.066   1.828   5.662  1.2486 -1.4942 -1.7850
  446MOL0     H61540   2.086   1.926   5.442 -0.9887 -0.0144  0.6339
  446MOL0     H61541   2.252   1.867   5.426 -1.6270 -2.0674 -1.6955
  446MOL0     H61542   2.037   1.660   5.461  0.3955  1.8471  1.6133
  446MOL0     H61543   2.191   1.645   5.394 -0.4758 -0.5680 -0.5486
  446MOL0     H61544   2.010   1.841   5.070  1.9160 -0.1187 -1.2001
  446MOL0     H61545   2.336   1.564   5.837 -1.6121  2.1201 -2.8673
  446MOL0     H61546   2.386   1.437   5.999 -0.0580  2.4072 -1.0765
  446MOL0     H61547   2.442   1.284   5.954  1.8568 -0.2126 -1.9880
  446MOL0     H61548   2.563   1.408   6.005 -2.1392 -1.4012  2.4760
  447MOL0     O61549   6.240   1.898   5.099 -0.8464  0.1022 -0.3447
  447MOL0     C61550   6.253   1.797   5.182 -0.3296  0.1921 -0.7247
  447MOL0     O61551   6.291   1.803   5.313 -0.0333  0.3801  0.1068
  447MOL0     C61552   6.307   1.932   5.365  0.5162  1.5337 -0.2329
  447MOL0     C61553   6.201   1.994   5.436 -0.2383 -0.1038 -0.7019
  447MOL0     C61554   6.221   2.120   5.494 -0.7680  0.0530  0.3146
  447MOL0     C61555   6.343   2.184   5.483  2.1904  0.8213  0.8679
  447MOL0     O61556   6.351   2.300   5.550  0.0903 -0.4024  0.2458
  447MOL0     C61557   6.316   2.297   5.693 -0.5598 -0.5598  0.4367
  447MOL0     C61558   6.384   2.426   5.750  0.2051 -0.2874 -0.8790
  447MOL0     C61559   6.325   2.552   5.682  0.7831  0.8662 -0.3691
  447MOL0     C61560   6.176   2.593   5.720  0.7835 -0.4459  0.5755
  447MOL0     C61561   6.134   2.739   5.665 -0.5900  0.4400  0.2714
  447MOL0     C61562   5.984   2.762   5.642 -0.4469 -0.2774  0.2454
  447MOL0     C61563   5.949   2.911   5.640  0.3637 -0.2757 -0.0815
  447MOL0     C61564   5.943   2.978   5.781  0.9437  0.3603  0.2031
  447MOL0     N61565   5.930   3.119   5.782  0.0233 -1.0649 -0.4987
  447MOL0     C61566   5.850   3.202   5.710  0.2289 -0.9851 -0.6540
  447MOL0     C61567   5.848   3.324   5.768 -0.3811 -0.3035 -0.5765
  447MOL0     C61568   5.799   3.450   5.709  0.0452 -0.1038 -0.4756
  447MOL0     C61569   5.843   3.571   5.797  0.4110  0.3932 -0.0658
  447MOL0     C61570   5.987   3.609   5.786 -0.8492  0.6711  0.1976
  447MOL0     C61571   6.033   3.668   5.917 -1.0306  0.0191  0.1385
  447MOL0     O61572   6.166   3.717   5.903  0.5481  0.4970  0.8673
  447MOL0     C61573   6.265   3.664   5.978  0.5412  0.7156  0.9162
  447MOL0     C61574   6.330   3.756   6.055 -0.4683 -0.3591 -0.1269
  447MOL0     C61575   6.436   3.707   6.140 -0.9683 -0.1492  0.6804
  447MOL0     C61576   6.507   3.807   6.223 -0.1288 -0.4945 -0.5136
  447MOL0     C61577   6.471   3.564   6.146 -1.0826 -0.0280 -0.0598
  447MOL0     C61578   6.578   3.503   6.242  0.5593 -0.1405 -0.5472
  447MOL0     O61579   6.631   3.380   6.213  0.3708 -0.9419 -0.1995
  447MOL0     C61580   6.706   3.320   6.307 -0.7474  0.2242 -0.0095
  447MOL0     C61581   6.797   3.379   6.384 -0.7067 -0.1993 -0.5384
  447MOL0     C61582   6.854   3.320   6.501  0.2178 -0.9831 -0.0857
  447MOL0     C61583   6.825   3.186   6.520 -0.0266  0.0697 -0.1690
  447MOL0     O61584   6.868   3.112   6.629 -0.4367 -0.0473 -0.8209
  447MOL0     C61585   6.998   3.071   6.595  0.2778  0.0549 -0.6824
  447MOL0     C61586   7.057   2.982   6.713 -0.5791  0.0239 -0.0473
  447MOL0     C61587   6.984   2.845   6.723 -0.2488 -0.3881  0.2147
  447MOL0     C61588   6.997   2.788   6.862  0.5435  0.3200  0.1538
  447MOL0     C61589   6.899   2.677   6.903 -0.4183 -0.5695  0.5927
  447MOL0     C61590   6.966   2.598   7.014  0.1675  0.0882 -0.0252
  447MOL0     C61591   6.861   2.486   7.059 -0.7451 -0.3212 -0.3995
  447MOL0     C61592   6.910   2.417   7.181 -0.3270  0.9811 -0.0625
  447MOL0    Cl61593   6.924   2.535   7.321  0.1141 -0.1361  0.1166
  447MOL0     C61594   6.733   3.120   6.434 -0.3642  0.4024 -0.6995
  447MOL0     C61595   6.677   3.187   6.334 -0.0131  0.1570  0.1341
  447MOL0     O61596   6.605   3.564   6.347 -0.1153 -0.2666  0.1848
  447MOL0     C61597   6.394   3.468   6.070  0.2163 -0.7234  0.2095
  447MOL0     C61598   6.299   3.526   5.990 -0.5474 -0.0973  0.1723
  447MOL0     N61599   5.930   3.312   5.875 -0.4107 -0.0255  0.0816
  447MOL0     N61600   5.980   3.201   5.876 -0.5797 -0.2437 -0.3080
  447MOL0     C61601   6.442   2.136   5.403 -0.9650 -0.6213 -0.1374
  447MOL0     C61602   6.431   2.001   5.335 -0.5204 -0.6818 -0.3814
  447MOL0     C61603   6.220   1.664   5.134 -0.1307  0.1140  0.6521
  447MOL0     C61604   6.321   1.582   5.073 -0.7120 -0.4848 -0.4488
  447MOL0     C61605   6.297   1.461   5.026  0.5687  0.0932  0.9552
  447MOL0     C61606   6.177   1.401   5.034  0.1574  0.2983 -0.3557
  447MOL0     O61607   6.170   1.275   4.979  0.0894  0.0557  0.0288
  447MOL0     C61608   6.088   1.175   5.039 -0.6252 -0.2557  0.5424
  447MOL0     C61609   6.074   1.049   4.950  0.5567 -0.7195  0.2580
  447MOL0     C61610   6.213   0.997   4.898 -0.3513 -0.0249  0.5079
  447MOL0     C61611   6.212   0.880   4.795 -0.6194  0.3100 -0.4205
  447MOL0     C61612   6.143   0.761   4.841  0.0394  0.6146 -0.0768
  447MOL0     C61613   6.079   0.667   4.881  0.8208  0.3011  0.0440
  447MOL0     C61614   6.071   1.473   5.092 -0.3188  1.2459  0.7529
  447MOL0     C61615   6.094   1.607   5.146  0.5138  0.0363  0.3222
  447MOL0     C61616   5.978   1.680   5.204  0.1437 -0.9932 -1.0228
  447MOL0     H61617   6.110   1.935   5.442  1.0523 -2.0630  1.9719
  447MOL0     H61618   6.133   2.167   5.536 -0.2500 -0.2798  1.8227
  447MOL0     H61619   6.350   2.204   5.740 -0.2675 -1.3369 -1.2349
  447MOL0     H61620   6.216   2.308   5.735  0.7694  3.8986  3.1434
  447MOL0     H61621   6.366   2.442   5.857  0.5036 -1.0756 -0.7071
  447MOL0     H61622   6.491   2.420   5.726  0.5962 -1.3692  0.9574
  447MOL0     H61623   6.381   2.642   5.709 -0.6269  2.2614 -1.8649
  447MOL0     H61624   6.336   2.524   5.577  2.4949 -3.4110  0.7323
  447MOL0     H61625   6.102   2.520   5.685  1.2072 -0.8846  0.5910
  447MOL0     H61626   6.150   2.590   5.826  0.8426  2.6295  0.7570
  447MOL0     H61627   6.184   2.749   5.568 -0.1579 -3.6258 -0.0967
  447MOL0     H61628   6.166   2.823   5.726  1.7492  0.9755 -1.5463
  447MOL0     H61629   5.953   2.729   5.542  3.5771 -1.0029 -0.9748
  447MOL0     H61630   5.925   2.710   5.718  0.4511 -2.1548 -0.2576
  447MOL0     H61631   5.845   2.914   5.608  0.0928 -1.2058  0.6803
  447MOL0     H61632   6.023   2.961   5.576  2.5099 -2.0726  0.8655
  447MOL0     H61633   5.868   2.937   5.849 -0.4532 -0.2936 -1.6497
  447MOL0     H61634   6.037   2.968   5.835  0.4732  0.8046  1.1264
  447MOL0     H61635   5.781   3.186   5.627  0.3793 -1.1541 -0.7465
  447MOL0     H61636   5.690   3.441   5.712  0.1400 -1.4371 -0.5855
  447MOL0     H61637   5.835   3.449   5.605 -1.0449  1.3938 -0.9012
  447MOL0     H61638   5.788   3.662   5.773  2.3168  1.1969 -1.6653
  447MOL0     H61639   5.813   3.544   5.898  1.7188  0.5928  0.3926
  447MOL0     H61640   6.042   3.520   5.754 -2.6910  0.5794 -3.1528
  447MOL0     H61641   5.994   3.679   5.702 -3.7527  0.1457 -0.5883
  447MOL0     H61642   5.975   3.755   5.947  2.0388  1.9597  0.8903
  447MOL0     H61643   6.025   3.598   6.001  1.4276  1.4587  1.6936
  447MOL0     H61644   6.303   3.861   6.060 -1.8832 -0.7310  0.3838
  447MOL0     H61645   6.470   3.805   6.325 -4.6429 -2.3304 -1.9685
  447MOL0     H61646   6.486   3.907   6.183  1.8456 -0.6847 -2.2219
  447MOL0     H61647   6.615   3.787   6.232  0.0939  1.3183  1.9692
  447MOL0     H61648   6.840   3.477   6.366  0.5236 -0.5965  0.1487
  447MOL0     H61649   6.921   3.388   6.553 -1.1307  0.3471 -0.0323
  447MOL0     H61650   7.004   3.017   6.500 -1.9634 -2.9827  0.7603
  447MOL0     H61651   7.062   3.160   6.588  0.6041 -0.2840 -2.5470
  447MOL0     H61652   7.161   2.953   6.693 -0.9362  0.0770 -2.0924
  447MOL0     H61653   7.058   3.037   6.808 -2.3678 -0.7271  0.4594
  447MOL0     H61654   7.032   2.773   6.656  0.2888  2.9816 -3.3353
  447MOL0     H61655   6.876   2.857   6.710 -0.6730 -2.1626  1.5717
  447MOL0     H61656   6.981   2.870   6.933 -4.2866  0.0800 -0.3651
  447MOL0     H61657   7.101   2.754   6.864 -0.1125 -1.7810  0.2822
  447MOL0     H61658   6.806   2.726   6.933  0.8606  1.6485  1.2241
  447MOL0     H61659   6.874   2.610   6.821  0.6093 -1.7576  1.2127
  447MOL0     H61660   7.000   2.659   7.097  3.1808 -2.2812  0.6836
  447MOL0     H61661   7.054   2.550   6.970  0.6451  1.2297 -0.3483
  447MOL0     H61662   6.829   2.411   6.987 -2.8691  0.0608  0.0704
  447MOL0     H61663   6.762   2.525   7.085  0.2878  1.3165  1.3793
  447MOL0     H61664   7.003   2.361   7.168 -1.0372 -0.7598  1.8565
  447MOL0     H61665   6.840   2.343   7.221 -0.9195  1.1742 -0.7146
  447MOL0     H61666   6.719   3.014   6.451 -0.3618  0.2577 -1.5981
  447MOL0     H61667   6.588   3.152   6.283 -2.6838  3.3512  2.1522
  447MOL0     H61668   6.417   3.363   6.056  2.6049  0.1829 -5.8729
  447MOL0     H61669   6.254   3.452   5.926  0.9125 -1.7204  0.9262
  447MOL0     H61670   6.528   2.198   5.383 -0.2476 -1.8702 -1.0449
  447MOL0     H61671   6.515   1.967   5.276 -0.2029  1.3834 -1.2354
  447MOL0     H61672   6.422   1.622   5.079 -1.0062  0.1216  1.2522
  447MOL0     H61673   6.380   1.411   4.976 -2.0371 -1.9453 -1.6827
  447MOL0     H61674   6.131   1.150   5.136  2.6524  0.9805 -0.4607
  447MOL0     H61675   5.986   1.213   5.052 -0.6957 -0.9591  2.1582
  447MOL0     H61676   6.002   1.073   4.873  1.2050 -0.8945 -0.4147
  447MOL0     H61677   6.037   0.962   5.005  0.9190 -0.3738  1.0757
  447MOL0     H61678   6.263   1.081   4.849  0.7970 -2.2776 -2.4472
  447MOL0     H61679   6.272   0.967   4.985  2.1489 -1.3607 -1.5151
  447MOL0     H61680   6.316   0.856   4.771 -0.1215  0.1263  1.6535
  447MOL0     H61681   6.163   0.898   4.699  2.0123  2.3849 -1.5085
  447MOL0     H61682   6.018   0.582   4.905  3.4944 -1.1600  2.4050
  447MOL0     H61683   5.971   1.431   5.100  1.0937 -2.1107  3.2153
  447MOL0     H61684   5.937   1.756   5.136  0.2302  0.3444  0.3605
  447MOL0     H61685   5.905   1.615   5.253 -0.6614  1.2933  1.0137
  447MOL0     H61686   6.000   1.751   5.284 -0.5239 -0.2396 -1.4793
  448MOL0     O61687  10.784   5.576   1.979 -0.3013 -0.2874  0.5381
  448MOL0     C61688  10.825   5.639   1.886  0.2909  0.6994  0.2317
  448MOL0     O61689  10.884   5.582   1.778  1.5604  0.3312 -0.7827
  448MOL0     C61690  10.941   5.453   1.781  0.6589  0.2342  1.2398
  448MOL0     C61691  10.955   5.393   1.658  0.2232  0.3086 -0.9125
  448MOL0     C61692  11.029   5.275   1.642 -0.2655  0.3270  0.5223
  448MOL0     C61693  11.095   5.218   1.749  0.5372 -0.1989  0.9030
  448MOL0     O61694  11.179   5.114   1.727  0.0524 -0.0898  0.4261
  448MOL0     C61695  11.230   5.026   1.835  0.0433  1.1350  0.8464
  448MOL0     C61696  11.334   4.921   1.789 -0.1031 -0.1348  1.0577
  448MOL0     C61697  11.462   4.993   1.740  0.7800  0.7706 -0.8342
  448MOL0     C61698  11.559   4.879   1.693  0.1113 -0.3607  0.3373
  448MOL0     C61699  11.699   4.908   1.747 -0.7494 -0.4271  0.4546
  448MOL0     C61700  11.763   5.035   1.693  0.3180 -0.1607 -0.7228
  448MOL0     C61701  11.915   5.042   1.723  0.8323  0.4376  0.3375
  448MOL0     C61702  11.972   5.054   1.868  0.1294  0.1714  1.1327
  448MOL0     N61703  11.915   5.166   1.935 -0.8533  0.7985  0.0940
  448MOL0     C61704  11.857   5.284   1.888 -0.5358  0.0372  0.4819
  448MOL0     C61705  11.834   5.368   1.985 -0.5747  0.4357  0.1288
  448MOL0     C61706  11.775   5.501   1.989 -0.5442  0.5993 -0.3224
  448MOL0     C61707  11.872   5.595   1.929  0.4887  0.2010  0.7504
  448MOL0     C61708  12.003   5.620   2.005  1.2120  0.4399 -0.1554
  448MOL0     C61709  12.103   5.718   1.934 -0.8249 -0.0022  0.0357
  448MOL0     O61710  12.053   5.847   1.919 -0.8133  0.1451 -0.0978
  448MOL0     C61711  12.080   5.923   1.808  0.6174 -0.3866  1.6184
  448MOL0     C61712  11.988   6.020   1.766 -0.4798 -0.9124 -1.0314
  448MOL0     C61713  12.017   6.103   1.657 -0.2172 -0.1792 -0.4635
  448MOL0     C61714  11.909   6.196   1.617 -0.2466 -0.3902  1.0585
  448MOL0     C61715  12.143   6.095   1.588  0.8446  0.1621  0.5391
  448MOL0     C61716  12.185   6.184   1.474 -0.9692  0.2124  0.3889
  448MOL0     O61717  12.287   6.135   1.399  0.3800  0.5814 -0.1844
  448MOL0     C61718  12.368   6.212   1.318 -0.2760  1.2275 -0.3238
  448MOL0     C61719  12.333   6.211   1.180  0.2537 -0.9929 -0.0213
  448MOL0     C61720  12.411   6.294   1.093 -0.3074  0.1595 -0.6651
  448MOL0     C61721  12.517   6.374   1.138 -0.4032 -0.0711 -0.5736
  448MOL0     O61722  12.595   6.448   1.064 -0.2428 -0.3660  0.0964
  448MOL0     C61723  12.584   6.454   0.919  0.7309 -0.4322  0.2723
  448MOL0     C61724  12.663   6.579   0.852  0.2773  0.5735  0.7632
  448MOL0     C61725  12.580   6.716   0.840 -0.0200  0.0498 -0.5839
  448MOL0     C61726  12.638   6.822   0.739 -1.1265  0.7326 -0.0366
  448MOL0     C61727  12.543   6.943   0.705 -0.4690  0.4067 -0.4392
  448MOL0     C61728  12.544   7.035   0.832 -0.1853 -1.4751  0.1879
  448MOL0     C61729  12.436   7.143   0.810 -0.3798 -0.4686  0.3074
  448MOL0     C61730  12.436   7.274   0.890  0.4279 -0.4938 -0.0616
  448MOL0    Cl61731  12.560   7.389   0.836 -0.4414  0.6571  0.0049
  448MOL0     C61732  12.539   6.388   1.276  0.6425  0.0880  0.2725
  448MOL0     C61733  12.470   6.302   1.361  0.2411 -0.1474 -0.1048
  448MOL0     O61734  12.137   6.293   1.461  0.4343 -0.1006 -0.2499
  448MOL0     C61735  12.229   5.993   1.627 -0.7213  0.5046  0.5624
  448MOL0     C61736  12.195   5.903   1.733 -0.0466 -0.0252  0.4737
  448MOL0     N61737  11.864   5.292   2.100 -0.4093 -0.1161 -0.0304
  448MOL0     N61738  11.914   5.173   2.075 -0.1657  0.2602  0.3232
  448MOL0     C61739  11.076   5.274   1.872 -0.3770  0.0884 -0.2424
  448MOL0     C61740  10.997   5.388   1.890  0.8862  0.4557 -0.4048
  448MOL0     C61741  10.819   5.783   1.900 -0.0191 -0.6204  0.0952
  448MOL0     C61742  10.699   5.860   1.887 -0.0886  0.7984  0.0889
  448MOL0     C61743  10.700   5.997   1.889 -0.0974 -0.1839  0.1925
  448MOL0     C61744  10.821   6.066   1.889 -0.0215 -0.8616  0.0941
  448MOL0     O61745  10.817   6.200   1.869  0.6053 -0.6048 -0.9435
  448MOL0     C61746  10.940   6.277   1.876 -0.0542 -0.1258 -0.0439
  448MOL0     C61747  10.987   6.318   2.015  0.2526 -0.0359  0.1046
  448MOL0     C61748  11.089   6.424   2.021  0.0842  0.0543 -0.7022
  448MOL0     C61749  11.096   6.491   2.159  1.4975 -0.1314  0.3762
  448MOL0     C61750  10.998   6.600   2.165 -0.4002  0.7000  0.2146
  448MOL0     C61751  10.922   6.699   2.166 -0.3003  0.4488  0.5041
  448MOL0     C61752  10.936   5.994   1.882  0.0476 -0.1439 -0.3975
  448MOL0     C61753  10.941   5.852   1.890 -0.5548  0.4819 -0.4453
  448MOL0     C61754  11.077   5.780   1.875 -0.0931  0.0476 -0.3677
  448MOL0     H61755  10.904   5.447   1.579 -0.5586  2.3268  0.8777
  448MOL0     H61756  11.025   5.236   1.541  2.1683 -0.8678  0.8353
  448MOL0     H61757  11.142   4.980   1.881  0.0125  1.9886  1.6707
  448MOL0     H61758  11.276   5.074   1.922 -1.8462  1.3046  1.7963
  448MOL0     H61759  11.364   4.859   1.874 -0.0795  0.2913  1.3624
  448MOL0     H61760  11.282   4.857   1.718 -1.7586  0.5894  1.5687
  448MOL0     H61761  11.440   5.053   1.651  0.9159  2.5585  0.2952
  448MOL0     H61762  11.488   5.051   1.828 -1.8217  1.9284 -0.7345
  448MOL0     H61763  11.531   4.781   1.735 -1.0722  1.0296  3.1125
  448MOL0     H61764  11.557   4.879   1.584  0.2949 -2.6612  0.2798
  448MOL0     H61765  11.771   4.830   1.718  1.0875  0.9334  1.1495
  448MOL0     H61766  11.686   4.909   1.855 -2.5299  0.1612  0.2634
  448MOL0     H61767  11.756   5.054   1.585  0.6846  1.8388 -0.4359
  448MOL0     H61768  11.709   5.116   1.742 -0.3498 -0.9941 -0.0501
  448MOL0     H61769  11.957   5.111   1.649  1.7283 -1.4670 -1.0036
  448MOL0     H61770  11.962   4.950   1.688  3.7641  1.6379  0.8165
  448MOL0     H61771  11.954   4.961   1.922  0.7100  0.4486  1.8107
  448MOL0     H61772  12.079   5.070   1.856  0.2179 -2.1433 -3.1287
  448MOL0     H61773  11.843   5.312   1.785  1.0532  4.0245  1.1578
  448MOL0     H61774  11.770   5.533   2.093  1.3918  0.0254 -0.0021
  448MOL0     H61775  11.676   5.486   1.945 -0.6861 -2.3392  0.7844
  448MOL0     H61776  11.896   5.579   1.824  1.0367  3.7204  0.2259
  448MOL0     H61777  11.819   5.690   1.923  0.1774 -0.0809 -4.0286
  448MOL0     H61778  11.985   5.666   2.103  0.8098  2.1696 -1.0056
  448MOL0     H61779  12.063   5.529   2.021  0.5207 -0.2520 -1.3679
  448MOL0     H61780  12.192   5.705   1.997  0.0740 -2.1520 -1.5416
  448MOL0     H61781  12.124   5.673   1.837 -0.3731  0.8158 -0.2504
  448MOL0     H61782  11.898   6.019   1.826  0.4478  0.7038  0.4816
  448MOL0     H61783  11.822   6.182   1.683  0.1151  2.7132  2.3389
  448MOL0     H61784  11.888   6.201   1.510  0.0805  0.8997  1.0446
  448MOL0     H61785  11.939   6.300   1.627 -2.4870  0.3720  0.4758
  448MOL0     H61786  12.246   6.152   1.153  0.8725 -2.4737  1.1068
  448MOL0     H61787  12.387   6.292   0.987 -0.7604 -1.6063 -0.5668
  448MOL0     H61788  12.625   6.355   0.892  2.7204 -0.4095  2.8636
  448MOL0     H61789  12.483   6.456   0.876  1.3071  1.1377 -1.1086
  448MOL0     H61790  12.760   6.585   0.903  0.5639  1.2560  0.1533
  448MOL0     H61791  12.684   6.542   0.752  4.3417 -0.6357  1.8527
  448MOL0     H61792  12.564   6.763   0.937  2.6104  1.5707 -0.7892
  448MOL0     H61793  12.483   6.689   0.797  0.1181  1.4659 -1.8661
  448MOL0     H61794  12.662   6.761   0.651  0.4558  0.7038  0.3710
  448MOL0     H61795  12.736   6.851   0.779  0.0847 -1.8305 -0.9097
  448MOL0     H61796  12.597   6.992   0.624  0.9719 -3.4305 -2.0176
  448MOL0     H61797  12.452   6.896   0.667 -0.3291  0.3291 -0.6767
  448MOL0     H61798  12.648   7.065   0.842  1.0202 -4.4762 -1.8689
  448MOL0     H61799  12.502   6.979   0.916  0.6652 -2.0445  0.2429
  448MOL0     H61800  12.342   7.093   0.836 -4.0142  4.1635 -2.1385
  448MOL0     H61801  12.428   7.170   0.704 -0.9819 -2.6850 -0.2678
  448MOL0     H61802  12.437   7.265   0.999  1.2377 -0.0908 -0.0267
  448MOL0     H61803  12.341   7.320   0.860  1.7141  2.6392  0.2469
  448MOL0     H61804  12.627   6.447   1.300 -0.2998  0.9959  1.6179
  448MOL0     H61805  12.499   6.303   1.466 -3.6760 -3.1329  1.2223
  448MOL0     H61806  12.318   5.974   1.568 -0.4310  1.1598  0.7754
  448MOL0     H61807  12.274   5.832   1.753 -1.2130 -1.6956 -0.5589
  448MOL0     H61808  11.112   5.230   1.965 -4.2780 -2.3339  0.3550
  448MOL0     H61809  10.993   5.427   1.992  0.4805 -0.3856 -0.0893
  448MOL0     H61810  10.611   5.796   1.887  1.0817 -1.0356 -2.8818
  448MOL0     H61811  10.621   6.070   1.872  2.2048  2.0231 -2.1012
  448MOL0     H61812  11.021   6.241   1.811  1.8874  2.4270  0.7837
  448MOL0     H61813  10.910   6.377   1.843  2.2417  1.3572  1.9915
  448MOL0     H61814  11.025   6.225   2.059  0.1388 -0.0274  0.2237
  448MOL0     H61815  10.901   6.348   2.077  2.2779  2.0104  2.0947
  448MOL0     H61816  11.179   6.365   1.999 -0.7504 -0.5583 -2.7687
  448MOL0     H61817  11.076   6.503   1.946 -3.0766 -0.5932 -0.9750
  448MOL0     H61818  11.192   6.534   2.189  1.1195  0.9446  0.1033
  448MOL0     H61819  11.074   6.415   2.235 -0.0504  1.0260  1.1405
  448MOL0     H61820  10.855   6.783   2.169 -1.1014 -0.1911  0.9733
  448MOL0     H61821  11.029   6.046   1.867  0.2789 -1.2459 -3.5703
  448MOL0     H61822  11.086   5.758   1.769 -0.8804  0.8943 -0.6197
  448MOL0     H61823  11.160   5.835   1.920 -0.5876 -1.4901  2.7354
  448MOL0     H61824  11.086   5.681   1.923  0.2702 -0.7408 -2.0050
  449MOL0     O61825   4.403   9.200   5.164 -0.2328 -0.5353 -0.4777
  449MOL0     C61826   4.391   9.133   5.268  0.7860  1.2551 -0.0571
  449MOL0     O61827   4.354   9.004   5.269  0.8614  0.6077  0.6523
  449MOL0     C61828   4.273   8.959   5.168  0.4107  0.4740 -0.4452
  449MOL0     C61829   4.274   8.820   5.152  0.3458  0.3650  0.4494
  449MOL0     C61830   4.169   8.756   5.087  0.2072 -0.4172  0.4407
  449MOL0     C61831   4.063   8.825   5.019 -0.4240  0.1286  0.5420
  449MOL0     O61832   3.965   8.761   4.946 -0.1000  0.3251  0.5050
  449MOL0     C61833   3.930   8.806   4.818  0.4246 -0.6830  0.1087
  449MOL0     C61834   3.895   8.681   4.726 -0.0697 -0.3252 -0.6780
  449MOL0     C61835   3.859   8.733   4.580 -0.2513  0.5183 -0.0517
  449MOL0     C61836   3.773   8.634   4.512 -0.4250  1.0938  0.0436
  449MOL0     C61837   3.755   8.654   4.358  0.1747  0.3820 -0.2924
  449MOL0     C61838   3.888   8.632   4.270  0.1417 -0.3110  1.0189
  449MOL0     C61839   3.861   8.639   4.118 -1.0118 -0.4257 -0.4023
  449MOL0     C61840   3.987   8.617   4.042 -0.6792  0.3473  0.0233
  449MOL0     N61841   3.942   8.612   3.907 -0.5584  0.2594  0.2880
  449MOL0     C61842   3.874   8.507   3.849 -0.4317  0.0865  0.5841
  449MOL0     C61843   3.853   8.543   3.719 -1.0165  0.0841 -0.2194
  449MOL0     C61844   3.800   8.452   3.613  0.7699  0.5034 -0.0220
  449MOL0     C61845   3.655   8.477   3.557 -0.3177 -0.7810 -0.6232
  449MOL0     C61846   3.656   8.583   3.442 -0.0952 -0.5581  0.0350
  449MOL0     C61847   3.516   8.638   3.413  0.5652  0.1426 -0.3237
  449MOL0     O61848   3.404   8.542   3.397 -0.3493  0.0581  0.1199
  449MOL0     C61849   3.380   8.488   3.269  0.2755  0.4853  0.5431
  449MOL0     C61850   3.396   8.354   3.244  0.1061  0.2889  0.1500
  449MOL0     C61851   3.377   8.304   3.114 -0.3684  0.1503  0.2877
  449MOL0     C61852   3.415   8.156   3.096  0.1044 -0.4294 -0.1858
  449MOL0     C61853   3.326   8.387   3.005  0.3686 -1.3109 -0.5944
  449MOL0     C61854   3.293   8.337   2.870 -0.7683 -0.3102  0.4406
  449MOL0     O61855   3.255   8.437   2.784 -0.1214 -0.0310  0.0362
  449MOL0     C61856   3.225   8.390   2.653  0.1742 -0.3389  0.5452
  449MOL0     C61857   3.315   8.415   2.544 -0.4005  0.2048  0.1073
  449MOL0     C61858   3.291   8.343   2.423  0.3728 -0.7556  0.1253
  449MOL0     C61859   3.183   8.252   2.407  0.2902  0.6222 -0.5797
  449MOL0     O61860   3.168   8.198   2.284 -0.3103  0.0924  0.5612
  449MOL0     C61861   3.259   8.088   2.265  0.8481  0.2840 -0.0624
  449MOL0     C61862   3.236   8.038   2.119  0.3151 -0.1373 -0.5477
  449MOL0     C61863   3.093   7.984   2.116  0.2003 -0.3141 -0.1342
  449MOL0     C61864   3.054   7.967   1.972  0.2925  0.4371  1.1895
  449MOL0     C61865   2.909   7.917   1.952 -0.4641 -0.8922 -0.7075
  449MOL0     C61866   2.872   7.926   1.811 -0.0432 -0.9650  0.5357
  449MOL0     C61867   2.724   7.893   1.793  0.5520  0.1160  0.3849
  449MOL0     C61868   2.680   7.916   1.640 -0.6434  0.1440 -0.2154
  449MOL0    Cl61869   2.760   7.797   1.539 -0.3853 -0.0626  0.0288
  449MOL0     C61870   3.100   8.224   2.518 -0.6411  0.7213  0.3610
  449MOL0     C61871   3.119   8.301   2.631  0.2529  0.2311 -0.5775
  449MOL0     O61872   3.283   8.220   2.846 -0.1419  0.5322 -0.6890
  449MOL0     C61873   3.318   8.532   3.031  0.1177  0.1707  0.8812
  449MOL0     C61874   3.349   8.574   3.158  1.1929  0.1650  0.2209
  449MOL0     N61875   3.909   8.666   3.701 -0.2254 -0.4034 -0.3688
  449MOL0     N61876   3.952   8.713   3.815 -0.0010 -0.5141  0.5412
  449MOL0     C61877   4.060   8.963   5.037  1.1529 -0.3787  0.1835
  449MOL0     C61878   4.162   9.032   5.116  0.4075  0.4370 -0.0119
  449MOL0     C61879   4.436   9.198   5.396 -0.7428 -0.3504  0.0354
  449MOL0     C61880   4.414   9.340   5.406 -0.2523  0.4275  0.2781
  449MOL0     C61881   4.456   9.405   5.515 -1.0520 -0.6074 -0.0948
  449MOL0     C61882   4.521   9.339   5.621 -0.9645 -0.6705 -0.3263
  449MOL0     O61883   4.571   9.386   5.747  0.2072  0.2643 -0.6045
  449MOL0     C61884   4.548   9.525   5.779 -0.1640 -0.2310  0.9903
  449MOL0     C61885   4.686   9.587   5.805  0.1552  1.1508  0.0929
  449MOL0     C61886   4.780   9.587   5.683 -0.2842  0.1087  0.2212
  449MOL0     C61887   4.852   9.455   5.663  0.1890  0.0385 -0.2501
  449MOL0     C61888   4.916   9.408   5.786 -0.6911 -0.6081 -0.4294
  449MOL0     C61889   4.967   9.368   5.894 -0.0176 -0.7495  0.3936
  449MOL0     C61890   4.555   9.203   5.607 -0.6053 -0.5668  0.2794
  449MOL0     C61891   4.506   9.134   5.500  0.1463 -0.1108 -0.2169
  449MOL0     C61892   4.555   8.993   5.495  0.2236 -0.5953  0.0670
  449MOL0     H61893   4.344   8.757   5.205  0.9475 -0.9338 -1.7746
  449MOL0     H61894   4.174   8.648   5.094  0.8516 -0.2720  5.7593
  449MOL0     H61895   4.009   8.860   4.764 -1.6237  0.9588 -1.4020
  449MOL0     H61896   3.839   8.866   4.824  0.0880 -1.0902 -0.8119
  449MOL0     H61897   3.983   8.616   4.721  0.3529  0.1642  0.2287
  449MOL0     H61898   3.811   8.615   4.750 -1.6666 -0.4404 -5.4860
  449MOL0     H61899   3.817   8.833   4.586 -0.7080  0.2215  2.4967
  449MOL0     H61900   3.954   8.738   4.526  0.6895  2.4068  1.6873
  449MOL0     H61901   3.819   8.538   4.536  1.0986  1.6093 -0.7077
  449MOL0     H61902   3.678   8.639   4.567  0.1114  2.0998  0.9475
  449MOL0     H61903   3.704   8.747   4.332 -0.5095 -0.3346 -1.6221
  449MOL0     H61904   3.685   8.577   4.325 -1.3202  0.5925  2.1473
  449MOL0     H61905   3.962   8.705   4.303 -1.4455  1.9103 -0.0246
  449MOL0     H61906   3.917   8.528   4.289  0.4433 -0.6061 -0.8801
  449MOL0     H61907   3.827   8.740   4.093 -1.4081 -0.4054  0.1784
  449MOL0     H61908   3.781   8.568   4.096 -1.9818  0.0952  1.2237
  449MOL0     H61909   4.066   8.691   4.057  0.1507 -0.7009  1.0750
  449MOL0     H61910   4.022   8.516   4.065 -1.4611  0.0724  0.0477
  449MOL0     H61911   3.845   8.412   3.893 -0.4048 -0.6417 -0.9113
  449MOL0     H61912   3.793   8.348   3.646  2.6934  0.5639  0.7130
  449MOL0     H61913   3.875   8.451   3.534  1.9355 -1.8274  1.0433
  449MOL0     H61914   3.629   8.378   3.519 -0.5920 -1.1275  0.4374
  449MOL0     H61915   3.599   8.505   3.646  3.4639  1.7969  1.2622
  449MOL0     H61916   3.731   8.661   3.454  0.6864 -0.9007 -2.1424
  449MOL0     H61917   3.678   8.529   3.348  0.4389 -0.7952  0.2912
  449MOL0     H61918   3.485   8.701   3.498 -0.2529  3.3728 -2.7992
  449MOL0     H61919   3.520   8.690   3.317 -1.0318 -3.1315 -2.3551
  449MOL0     H61920   3.440   8.290   3.320 -1.1949 -0.2027  0.5195
  449MOL0     H61921   3.481   8.129   3.179  3.2471  1.8567 -1.7136
  449MOL0     H61922   3.469   8.147   3.001 -0.9302 -0.3011 -0.8034
  449MOL0     H61923   3.338   8.079   3.093  0.8564 -1.2469  0.6803
  449MOL0     H61924   3.406   8.474   2.558  0.9188 -2.1047  2.2699
  449MOL0     H61925   3.351   8.361   2.335 -2.2309  0.3038 -1.5425
  449MOL0     H61926   3.363   8.112   2.291  0.3012  1.5241  1.0857
  449MOL0     H61927   3.248   7.996   2.323  0.6933 -2.7140 -4.3438
  449MOL0     H61928   3.260   8.123   2.053  3.6245 -1.4647 -1.2801
  449MOL0     H61929   3.306   7.959   2.091 -2.0242 -2.3372 -0.4692
  449MOL0     H61930   3.025   8.044   2.177 -0.1865 -1.5099  0.6640
  449MOL0     H61931   3.098   7.884   2.160  0.0806  0.5198  1.8684
  449MOL0     H61932   3.115   7.899   1.912 -0.5149  1.1278 -0.4537
  449MOL0     H61933   3.068   8.063   1.921 -0.8828  0.7384  1.4177
  449MOL0     H61934   2.887   7.822   2.001  1.0619 -1.1245 -0.4296
  449MOL0     H61935   2.833   7.983   1.994  0.4080  0.6528 -1.4582
  449MOL0     H61936   2.940   7.864   1.752 -1.7726 -0.5417 -2.1176
  449MOL0     H61937   2.875   8.028   1.771 -0.8785 -0.9945  0.3643
  449MOL0     H61938   2.647   7.955   1.840 -4.6634 -3.6330 -2.1865
  449MOL0     H61939   2.696   7.793   1.826 -1.8699 -0.0546 -1.8441
  449MOL0     H61940   2.714   8.014   1.606  2.3085 -1.0514 -0.9930
  449MOL0     H61941   2.572   7.900   1.634 -0.8671  1.0813  0.9798
  449MOL0     H61942   3.017   8.155   2.509 -0.7210  0.8876 -0.2583
  449MOL0     H61943   3.061   8.285   2.722 -0.2684  1.4023 -0.6928
  449MOL0     H61944   3.300   8.600   2.949  1.3362 -1.7404 -1.0848
  449MOL0     H61945   3.337   8.681   3.170 -0.6552  0.1415 -1.1689
  449MOL0     H61946   3.969   9.002   4.994 -0.1767 -3.5560 -0.1619
  449MOL0     H61947   4.163   9.140   5.116 -0.4292  0.4589  0.8707
  449MOL0     H61948   4.362   9.397   5.330  0.5503 -0.0143 -0.6132
  449MOL0     H61949   4.434   9.512   5.515  1.9031  0.1329  1.9989
  449MOL0     H61950   4.489   9.572   5.700  2.4764  0.1988 -0.8135
  449MOL0     H61951   4.485   9.528   5.869 -0.4768 -0.1213  0.7687
  449MOL0     H61952   4.725   9.539   5.895 -1.6280 -0.2772  0.1767
  449MOL0     H61953   4.660   9.691   5.824 -2.0604  0.7744 -0.5984
  449MOL0     H61954   4.739   9.609   5.584  0.3016  0.8981  0.1427
  449MOL0     H61955   4.864   9.656   5.689  1.7682 -2.1169 -0.9923
  449MOL0     H61956   4.928   9.479   5.588  1.9020  0.9179  1.6677
  449MOL0     H61957   4.794   9.374   5.618  1.6946 -0.6564 -0.9807
  449MOL0     H61958   4.997   9.323   5.986 -2.1680 -2.8205  0.1584
  449MOL0     H61959   4.621   9.158   5.681  1.0578  0.3216 -0.6194
  449MOL0     H61960   4.554   8.935   5.587 -1.7927 -0.3016  0.2712
  449MOL0     H61961   4.499   8.929   5.426 -2.4480 -0.2453  1.7707
  449MOL0     H61962   4.663   8.996   5.476 -0.1098  0.6477 -1.9625
  450MOL0     O61963   2.355   9.964   9.375  0.3215  0.1193  0.0347
  450MOL0     C61964   2.353   9.980   9.253  0.0359  0.3134  0.5119
  450MOL0     O61965   2.315   9.883   9.165  0.0111 -0.4662  0.8651
  450MOL0     C61966   2.266   9.774   9.220  0.0706  0.3855 -0.5460
  450MOL0     C61967   2.335   9.652   9.214  0.5532 -0.3998 -0.5224
  450MOL0     C61968   2.273   9.546   9.282  0.2961  0.6957  1.2107
  450MOL0     C61969   2.152   9.548   9.347 -0.4187 -0.1968 -0.2718
  450MOL0     O61970   2.105   9.420   9.389  0.5071 -0.1259 -0.3031
  450MOL0     C61971   1.979   9.408   9.456 -0.3175  0.2729  0.1934
  450MOL0     C61972   1.974   9.289   9.552 -0.5412  0.6034  0.5696
  450MOL0     C61973   1.842   9.233   9.608  0.0284  0.8883 -0.2606
  450MOL0     C61974   1.848   9.118   9.710 -0.7539 -0.3868 -0.7610
  450MOL0     C61975   1.894   8.989   9.649  0.3051  0.2478  0.3214
  450MOL0     C61976   1.892   8.881   9.753  1.0711  0.3060 -0.2592
  450MOL0     C61977   1.954   8.753   9.708 -0.1862  0.4579  0.1880
  450MOL0     C61978   2.086   8.722   9.777  0.6650 -0.3372  0.5608
  450MOL0     N61979   2.189   8.828   9.762  0.9936 -0.7556  0.6359
  450MOL0     C61980   2.208   8.889   9.643  0.2480  0.6613 -0.7184
  450MOL0     C61981   2.275   9.007   9.673 -0.1242  0.4781 -0.0685
  450MOL0     C61982   2.319   9.108   9.575 -0.6286 -0.2749  0.9335
  450MOL0     C61983   2.367   9.244   9.640  0.8859  0.3989 -0.5802
  450MOL0     C61984   2.459   9.314   9.541 -0.6846  0.3616  0.2860
  450MOL0     C61985   2.484   9.459   9.567 -0.6193 -0.5891  0.4973
  450MOL0     O61986   2.610   9.496   9.501  0.1191  0.4702 -0.0370
  450MOL0     C61987   2.643   9.616   9.562 -0.2497 -0.6331  0.1279
  450MOL0     C61988   2.718   9.605   9.681  1.2451  0.5350  0.4890
  450MOL0     C61989   2.751   9.722   9.746  0.1704  0.2611 -0.0848
  450MOL0     C61990   2.830   9.702   9.874 -0.0502  0.3533 -0.5177
  450MOL0     C61991   2.708   9.846   9.706 -0.0472  0.5356  0.0863
  450MOL0     C61992   2.745   9.981   9.759 -0.7903  0.0690 -0.0192
  450MOL0     O61993   2.657  10.086   9.749 -0.0705  0.0118  0.2845
  450MOL0     C61994   2.708  10.203   9.785 -0.1339  0.4939 -0.7579
  450MOL0     C61995   2.726  10.299   9.691  1.0379  0.2493 -0.1573
  450MOL0     C61996   2.749  10.430   9.730 -0.4289  1.2188  0.6420
  450MOL0     C61997   2.754  10.479   9.865 -0.8781 -0.0433  0.0778
  450MOL0     O61998   2.783  10.607   9.901 -0.2308 -0.3908 -0.2372
  450MOL0     C61999   2.908  10.646   9.845  0.6248  1.0543 -0.4896
  450MOL0     C62000   2.994  10.710   9.961  0.2356 -0.1150  0.9542
  450MOL0     C62001   3.134  10.751   9.927  0.0261 -0.7477  0.3126
  450MOL0     C62002   3.213  10.804  10.050  0.8383 -0.0492 -0.1515
  450MOL0     C62003   3.346  10.865   9.995 -0.7381  0.1722 -0.8397
  450MOL0     C62004   3.440  10.764   9.932 -0.1758 -0.7916  0.8054
  450MOL0     C62005   3.476  10.653  10.028 -0.0987  0.5016 -0.1436
  450MOL0     C62006   3.620  10.625  10.027  0.4746 -0.5592 -0.2862
  450MOL0    Cl62007   3.667  10.554   9.873  0.5592  0.2713 -0.4412
  450MOL0     C62008   2.723  10.379   9.963 -0.0813  0.0745  0.2214
  450MOL0     C62009   2.690  10.247   9.919  0.4463  0.3149 -0.7482
  450MOL0     O62010   2.856   9.984   9.814  0.3581  0.7362  0.2168
  450MOL0     C62011   2.622   9.856   9.598  0.7048  0.7061 -0.0637
  450MOL0     C62012   2.582   9.736   9.530 -0.6861 -0.6487  0.6181
  450MOL0     N62013   2.322   8.991   9.808  0.4195  0.1488 -0.3589
  450MOL0     N62014   2.272   8.887   9.853  0.1419  0.2155  0.3886
  450MOL0     C62015   2.087   9.669   9.362 -0.9751  0.5629  0.0863
  450MOL0     C62016   2.147   9.784   9.291  0.0264  0.0004  0.1418
  450MOL0     C62017   2.356  10.119   9.203 -0.1031 -0.1596 -0.0268
  450MOL0     C62018   2.250  10.147   9.118 -0.3270 -0.0176  0.4672
  450MOL0     C62019   2.226  10.280   9.085 -0.3964 -0.2757 -0.5554
  450MOL0     C62020   2.321  10.383   9.121 -0.3869 -0.6124 -0.0681
  450MOL0     O62021   2.312  10.514   9.092  0.5127 -0.7993 -0.4674
  450MOL0     C62022   2.218  10.554   8.993  0.6573  0.6624 -0.3373
  450MOL0     C62023   2.277  10.690   8.934  0.5971  0.5349 -1.0372
  450MOL0     C62024   2.378  10.671   8.822 -0.1477  1.1696 -0.4015
  450MOL0     C62025   2.527  10.703   8.856  0.4832 -0.0973  0.3410
  450MOL0     C62026   2.610  10.701   8.737 -0.2613 -0.1755 -0.1341
  450MOL0     C62027   2.685  10.684   8.643 -1.0677  0.0075 -0.4763
  450MOL0     C62028   2.420  10.353   9.209  0.1607  0.3764 -0.5724
  450MOL0     C62029   2.440  10.220   9.251 -0.5786 -0.5982  0.3701
  450MOL0     C62030   2.524  10.202   9.378  0.8119 -0.0235  0.6107
  450MOL0     H62031   2.427   9.626   9.164  0.1153 -1.6250 -0.7165
  450MOL0     H62032   2.334   9.456   9.278  0.3700  0.7812 -1.7705
  450MOL0     H62033   1.900   9.394   9.381 -3.0389  0.3898  2.8617
  450MOL0     H62034   1.959   9.499   9.514 -0.3979 -0.2052  0.9237
  450MOL0     H62035   2.006   9.203   9.492 -1.4171 -0.5158  1.6396
  450MOL0     H62036   2.044   9.286   9.636  0.8947 -1.3607 -0.6212
  450MOL0     H62037   1.792   9.320   9.651 -0.8345  0.5898 -0.6412
  450MOL0     H62038   1.768   9.195   9.537 -1.6580 -3.6825  3.4229
  450MOL0     H62039   1.911   9.151   9.793 -0.5947 -0.3527 -0.8937
  450MOL0     H62040   1.745   9.104   9.743 -1.5864  0.0555 -2.9495
  450MOL0     H62041   1.989   9.002   9.597 -1.2532  1.4603 -2.3963
  450MOL0     H62042   1.820   8.952   9.578  1.0353 -0.8501  0.1251
  450MOL0     H62043   1.938   8.909   9.848 -0.4110  0.5439  0.4214
  450MOL0     H62044   1.789   8.856   9.780  1.9332 -3.2950  0.2699
  450MOL0     H62045   1.981   8.761   9.602  3.2555  0.9710  0.9948
  450MOL0     H62046   1.896   8.663   9.730  3.4237 -2.2011 -0.2606
  450MOL0     H62047   2.072   8.714   9.885 -1.3330  0.2101  0.3817
  450MOL0     H62048   2.135   8.632   9.737  1.9594 -0.1037  1.5593
  450MOL0     H62049   2.167   8.863   9.546 -0.1329  6.1886 -2.3560
  450MOL0     H62050   2.240   9.137   9.505  1.7805  1.9413 -1.0910
  450MOL0     H62051   2.400   9.061   9.519 -4.4315 -2.9414 -3.0253
  450MOL0     H62052   2.273   9.297   9.658 -0.3093 -1.8859  0.3692
  450MOL0     H62053   2.411   9.237   9.740 -2.0079  1.6241  0.9253
  450MOL0     H62054   2.546   9.252   9.520 -2.4230 -2.1970  0.1541
  450MOL0     H62055   2.407   9.321   9.445  0.7989 -3.6240 -0.9978
  450MOL0     H62056   2.406   9.521   9.522  0.0317 -0.2195 -0.1578
  450MOL0     H62057   2.482   9.479   9.674 -0.8468 -0.2557  0.4328
  450MOL0     H62058   2.760   9.510   9.711 -0.0734 -0.2393  0.0146
  450MOL0     H62059   2.791   9.611   9.920 -3.3600  1.8830  0.0124
  450MOL0     H62060   2.812   9.778   9.951 -1.1789 -0.6533  0.2422
  450MOL0     H62061   2.937   9.707   9.851 -0.7064  2.5027 -3.7883
  450MOL0     H62062   2.701  10.277   9.587 -1.3934  1.4430  0.1005
  450MOL0     H62063   2.783  10.501   9.656  2.8998  0.0571  0.8853
  450MOL0     H62064   2.973  10.564   9.812 -2.6537 -2.5477  1.1996
  450MOL0     H62065   2.890  10.708   9.757  0.6121  0.4171 -0.9431
  450MOL0     H62066   2.948  10.795  10.012 -0.7260 -0.5696  0.8764
  450MOL0     H62067   3.008  10.640  10.044 -1.4711  1.5282  2.7368
  450MOL0     H62068   3.135  10.829   9.850  1.5333 -0.4953  0.5696
  450MOL0     H62069   3.196  10.669   9.889 -0.7814 -1.7445  1.1142
  450MOL0     H62070   3.237  10.723  10.120  0.9585 -1.3108 -1.5809
  450MOL0     H62071   3.161  10.879  10.110  2.3866  0.5869  0.4330
  450MOL0     H62072   3.318  10.941   9.921 -0.9274 -0.3181 -1.2804
  450MOL0     H62073   3.394  10.911  10.082  0.6732 -4.4435  1.1277
  450MOL0     H62074   3.529  10.825   9.911  0.0772 -1.0289  1.1786
  450MOL0     H62075   3.403  10.715   9.842 -0.8893  0.0008  0.6570
  450MOL0     H62076   3.426  10.560  10.000 -3.0485  1.7637  0.5468
  450MOL0     H62077   3.444  10.665  10.131 -2.3424 -1.4438 -0.5185
  450MOL0     H62078   3.652  10.557  10.107  3.2916 -1.6862 -2.2016
  450MOL0     H62079   3.681  10.714  10.042  0.2669 -0.2536 -1.2217
  450MOL0     H62080   2.721  10.414  10.066 -0.5067 -2.3295  1.1058
  450MOL0     H62081   2.664  10.182  10.003 -4.1782  1.1460 -1.2430
  450MOL0     H62082   2.580   9.954   9.576  2.6420  1.8744  1.1035
  450MOL0     H62083   2.520   9.743   9.441 -1.9775 -3.7026  1.1226
  450MOL0     H62084   1.991   9.665   9.412 -0.1286 -3.4857  1.8085
  450MOL0     H62085   2.097   9.880   9.301  0.8286  0.4041  0.3603
  450MOL0     H62086   2.192  10.065   9.076 -0.4978 -0.9797  2.4902
  450MOL0     H62087   2.141  10.312   9.025 -0.4478  3.2579  1.1575
  450MOL0     H62088   2.188  10.476   8.922 -3.2464  0.3578  1.4008
  450MOL0     H62089   2.127  10.583   9.047 -0.2961 -0.2894 -1.3882
  450MOL0     H62090   2.314  10.753   9.016 -1.5666  0.4206  0.0828
  450MOL0     H62091   2.194  10.748   8.893  1.9686  2.0350 -1.8280
  450MOL0     H62092   2.385  10.565   8.799  0.6073  1.8169 -3.6560
  450MOL0     H62093   2.344  10.727   8.734 -2.2365  0.1234 -0.3002
  450MOL0     H62094   2.557  10.638   8.939 -1.5751  0.2352  1.4123
  450MOL0     H62095   2.531  10.807   8.890  2.4894 -0.7532  2.4156
  450MOL0     H62096   2.754  10.685   8.562 -2.0713 -2.0961 -1.4376
  450MOL0     H62097   2.481  10.438   9.238  2.1222 -1.8814  2.6284
  450MOL0     H62098   2.464  10.204   9.469  0.9308  0.1672  0.6851
  450MOL0     H62099   2.583  10.111   9.369 -1.6886 -1.9270  1.9638
  450MOL0     H62100   2.592  10.288   9.387  0.8303 -0.1882  2.1318
  451MOL0     O62101   4.350   2.390   0.110 -0.0076 -0.0406  0.0736
  451MOL0     C62102   4.474   2.404   0.116 -0.5799  0.3856  1.1951
  451MOL0     O62103   4.563   2.320   0.055 -0.0001 -0.8080  0.4033
  451MOL0     C62104   4.530   2.233  -0.057 -0.0961 -0.2489 -0.4592
  451MOL0     C62105   4.415   2.155  -0.071 -0.4031  0.7217 -0.9586
  451MOL0     C62106   4.378   2.076  -0.184  0.4233  0.0606  0.1156
  451MOL0     C62107   4.464   2.070  -0.290 -0.4904  0.7378  0.4196
  451MOL0     O62108   4.436   1.986  -0.395 -0.2980 -0.3505  0.0279
  451MOL0     C62109   4.448   2.028  -0.533  0.0366 -0.8608 -0.1167
  451MOL0     C62110   4.341   1.969  -0.623 -0.0855  0.1916  0.1486
  451MOL0     C62111   4.194   1.988  -0.566 -0.0388  0.6828  0.4269
  451MOL0     C62112   4.095   1.898  -0.650  0.7231 -0.3320  0.5511
  451MOL0     C62113   3.984   1.833  -0.561 -0.8906 -0.6184 -0.3770
  451MOL0     C62114   3.903   1.938  -0.485  0.1404  0.0454  0.0346
  451MOL0     C62115   3.785   1.871  -0.430  0.2631 -0.8647  0.5515
  451MOL0     C62116   3.699   1.965  -0.339  0.3966 -0.6254  0.1520
  451MOL0     N62117   3.644   2.085  -0.410 -1.2157 -0.0072 -0.1193
  451MOL0     C62118   3.514   2.098  -0.446  0.3306  0.1802  0.7092
  451MOL0     C62119   3.501   2.228  -0.489 -1.3463  0.1792  0.1685
  451MOL0     C62120   3.384   2.303  -0.549  0.2169 -0.3744 -0.0156
  451MOL0     C62121   3.258   2.212  -0.588 -0.2525  0.3967 -0.6135
  451MOL0     C62122   3.163   2.188  -0.470 -0.2667 -0.7164 -0.6081
  451MOL0     C62123   3.029   2.120  -0.480  0.7005  0.0300  0.1490
  451MOL0     O62124   2.931   2.127  -0.370 -0.4533  0.6448 -0.3513
  451MOL0     C62125   2.897   2.243  -0.315  1.2015  0.5361 -0.0974
  451MOL0     C62126   2.884   2.366  -0.374  0.0671 -0.9834 -0.3856
  451MOL0     C62127   2.836   2.476  -0.307 -0.4026 -0.6345  0.3485
  451MOL0     C62128   2.818   2.595  -0.389 -0.3609 -0.5329 -0.1235
  451MOL0     C62129   2.815   2.464  -0.161 -0.5120 -1.0156 -0.2729
  451MOL0     C62130   2.766   2.585  -0.073  0.3540  0.4151  0.0916
  451MOL0     O62131   2.726   2.557   0.054 -0.2361 -0.4641  0.0581
  451MOL0     C62132   2.677   2.661   0.134  0.0299 -0.5803  0.6898
  451MOL0     C62133   2.540   2.690   0.147 -0.2904  0.2577 -0.7859
  451MOL0     C62134   2.494   2.805   0.216  0.6597 -0.4523  0.2823
  451MOL0     C62135   2.581   2.905   0.263  0.1460  0.9715  0.8241
  451MOL0     O62136   2.549   3.015   0.334 -1.1823 -0.6599 -0.1630
  451MOL0     C62137   2.447   3.000   0.437  0.0337  0.2909  0.0034
  451MOL0     C62138   2.456   3.078   0.573  0.3516 -0.0944 -0.6546
  451MOL0     C62139   2.601   3.099   0.621 -1.2207 -0.6183  0.1438
  451MOL0     C62140   2.652   2.997   0.717  0.6206 -0.5729 -0.1950
  451MOL0     C62141   2.794   3.024   0.749 -0.0814 -0.5953  0.0575
  451MOL0     C62142   2.831   3.009   0.897  0.0943  0.1976  1.1314
  451MOL0     C62143   2.980   3.057   0.918  0.1329 -0.2033  0.8995
  451MOL0     C62144   3.004   3.209   0.903 -0.6091 -0.7600  0.1902
  451MOL0    Cl62145   2.890   3.308   0.986 -0.3311  0.7142  0.1164
  451MOL0     C62146   2.720   2.882   0.253 -0.1454  0.4384  0.2788
  451MOL0     C62147   2.769   2.767   0.183  0.3641  0.5425  0.6763
  451MOL0     O62148   2.772   2.694  -0.130  0.5831  0.4094 -0.4011
  451MOL0     C62149   2.825   2.339  -0.096  0.1299 -0.0933  0.4231
  451MOL0     C62150   2.868   2.229  -0.170  0.5235  0.5339 -0.4244
  451MOL0     N62151   3.630   2.283  -0.468  0.1484  0.4824  0.2543
  451MOL0     N62152   3.714   2.198  -0.419  0.1601 -0.3033 -0.5539
  451MOL0     C62153   4.583   2.146  -0.285 -0.4785 -0.1913  0.3490
  451MOL0     C62154   4.610   2.233  -0.176 -0.1168 -0.1189  0.3465
  451MOL0     C62155   4.523   2.524   0.187  0.9145 -0.6368 -0.3820
  451MOL0     C62156   4.660   2.545   0.166 -0.5246  0.4281  0.3335
  451MOL0     C62157   4.729   2.654   0.205  0.6241  0.1788 -0.4683
  451MOL0     C62158   4.661   2.759   0.266  0.1678 -0.3704  0.5204
  451MOL0     O62159   4.737   2.875   0.284 -0.1603  0.2050 -0.0233
  451MOL0     C62160   4.756   2.925   0.419  0.1383 -0.2457 -0.3590
  451MOL0     C62161   4.874   3.016   0.436  0.3878 -0.5278 -0.4742
  451MOL0     C62162   5.002   2.944   0.454  0.3970  0.1441 -0.4148
  451MOL0     C62163   5.071   2.893   0.330  0.1473 -0.0362  0.2078
  451MOL0     C62164   5.212   2.871   0.367 -1.4377 -0.1345  0.7074
  451MOL0     C62165   5.332   2.858   0.392 -0.9470  0.5700  0.5952
  451MOL0     C62166   4.527   2.743   0.294  0.7901 -0.1688  0.0751
  451MOL0     C62167   4.458   2.626   0.269  0.1667  0.9927  0.5126
  451MOL0     C62168   4.314   2.627   0.299  0.4025  0.7325 -0.6033
  451MOL0     H62169   4.355   2.161   0.019  2.8643  0.6160  1.3549
  451MOL0     H62170   4.291   2.011  -0.184  2.2074 -2.5101  1.4851
  451MOL0     H62171   4.548   2.001  -0.569  1.4452  2.5353  0.8546
  451MOL0     H62172   4.448   2.137  -0.528 -0.5860 -0.7608 -1.7497
  451MOL0     H62173   4.362   2.013  -0.721  1.8480  0.9819  0.8566
  451MOL0     H62174   4.366   1.863  -0.621  0.1144  0.2021 -1.2704
  451MOL0     H62175   4.193   1.962  -0.460 -0.4080  0.2971  0.3334
  451MOL0     H62176   4.165   2.092  -0.581 -0.6293  0.4076 -0.4610
  451MOL0     H62177   4.051   1.963  -0.726  3.0754  0.6049 -0.1049
  451MOL0     H62178   4.147   1.825  -0.713 -1.7066 -0.5660 -1.2837
  451MOL0     H62179   4.022   1.758  -0.491 -0.2866 -0.1365 -0.1819
  451MOL0     H62180   3.922   1.766  -0.623 -2.3452 -1.1316  1.5169
  451MOL0     H62181   3.955   1.978  -0.397  0.4780 -1.6939  0.6581
  451MOL0     H62182   3.874   2.019  -0.553 -2.2480 -1.8854 -1.3669
  451MOL0     H62183   3.806   1.776  -0.379 -1.4541 -3.2297 -2.7135
  451MOL0     H62184   3.718   1.844  -0.513  0.5763  0.6829 -0.2348
  451MOL0     H62185   3.618   1.901  -0.302  0.8583 -1.6549 -0.5776
  451MOL0     H62186   3.760   2.008  -0.259 -0.7057  1.7392 -0.1714
  451MOL0     H62187   3.446   2.014  -0.439  1.2078 -0.7952 -1.6479
  451MOL0     H62188   3.402   2.357  -0.642 -1.4864  1.9937  0.9215
  451MOL0     H62189   3.340   2.372  -0.477 -1.3137 -2.0180  0.7062
  451MOL0     H62190   3.201   2.273  -0.658 -1.7455  2.2627  2.0707
  451MOL0     H62191   3.288   2.116  -0.631 -1.0044  0.0522 -0.3865
  451MOL0     H62192   3.226   2.139  -0.395 -2.5853 -2.1901  0.4948
  451MOL0     H62193   3.139   2.289  -0.435  1.2192 -0.5007 -0.1620
  451MOL0     H62194   2.975   2.145  -0.571 -0.5386 -1.0894  0.5389
  451MOL0     H62195   3.045   2.012  -0.475 -1.5730 -0.4163 -1.0231
  451MOL0     H62196   2.899   2.369  -0.481 -1.8099  2.2907 -0.7019
  451MOL0     H62197   2.727   2.649  -0.358  1.1018  0.3089  3.2158
  451MOL0     H62198   2.823   2.576  -0.496  3.2490  0.0873 -0.1746
  451MOL0     H62199   2.906   2.658  -0.371 -2.2656  3.5705 -3.4989
  451MOL0     H62200   2.469   2.616   0.112 -0.3508  0.4711 -1.1204
  451MOL0     H62201   2.387   2.823   0.229  0.1318 -3.4410  0.8775
  451MOL0     H62202   2.348   3.018   0.393 -0.5417 -1.9863  0.2359
  451MOL0     H62203   2.436   2.894   0.462  2.4215  0.0496  0.2485
  451MOL0     H62204   2.413   3.178   0.558  1.1707  0.1445 -1.5629
  451MOL0     H62205   2.399   3.047   0.660  2.7676  1.3577  1.6189
  451MOL0     H62206   2.605   3.197   0.668  4.1598 -1.0324  1.2150
  451MOL0     H62207   2.662   3.103   0.530 -2.9998  0.8757 -1.0498
  451MOL0     H62208   2.657   2.901   0.665 -0.7185 -1.4459  1.2081
  451MOL0     H62209   2.580   2.980   0.798  1.4326 -2.6025  0.1744
  451MOL0     H62210   2.866   2.968   0.688 -1.6073 -0.7063 -1.7182
  451MOL0     H62211   2.819   3.129   0.736  0.2434 -0.5210  1.1523
  451MOL0     H62212   2.827   2.903   0.921  2.2271 -0.4067 -0.8675
  451MOL0     H62213   2.760   3.069   0.955 -1.0150 -1.3507  1.4360
  451MOL0     H62214   3.058   2.999   0.868  2.9985  4.2965 -0.4843
  451MOL0     H62215   2.993   3.039   1.025 -0.9614 -0.0864  1.0605
  451MOL0     H62216   3.016   3.255   0.805  3.4581  0.7619  1.2004
  451MOL0     H62217   3.098   3.224   0.957 -0.1777 -1.2625 -0.4085
  451MOL0     H62218   2.792   2.951   0.296 -0.1857 -0.1990  1.4243
  451MOL0     H62219   2.873   2.754   0.155 -0.2328  1.9982 -2.6763
  451MOL0     H62220   2.780   2.327   0.002  1.7771  0.1496  1.2478
  451MOL0     H62221   2.864   2.134  -0.118 -2.5664  0.9074  0.1670
  451MOL0     H62222   4.658   2.148  -0.364 -0.3508  5.2569  0.2644
  451MOL0     H62223   4.696   2.296  -0.195 -0.3548 -0.2141 -1.1153
  451MOL0     H62224   4.724   2.475   0.113 -2.3875 -1.2067  0.0914
  451MOL0     H62225   4.831   2.679   0.179 -0.2490  2.9330 -1.6425
  451MOL0     H62226   4.664   2.975   0.450 -0.0963 -1.8266  1.7119
  451MOL0     H62227   4.770   2.838   0.485  2.2236 -1.2205 -1.9545
  451MOL0     H62228   4.855   3.067   0.531  2.4763  0.5063 -0.5558
  451MOL0     H62229   4.878   3.088   0.354 -1.1537 -0.7093 -0.7425
  451MOL0     H62230   5.060   3.024   0.501 -0.9422  2.0024 -1.7644
  451MOL0     H62231   4.990   2.859   0.522 -2.8410 -1.3870 -2.6344
  451MOL0     H62232   5.071   2.972   0.255 -0.6873 -1.0845 -0.9533
  451MOL0     H62233   5.037   2.796   0.292  0.0587  0.2859 -0.5495
  451MOL0     H62234   5.438   2.858   0.405 -0.9299  0.7038  0.4646
  451MOL0     H62235   4.476   2.821   0.351  1.3079  1.5131 -1.6595
  451MOL0     H62236   4.289   2.532   0.349  1.2733 -0.0944 -1.6887
  451MOL0     H62237   4.290   2.700   0.377 -4.8276 -0.2102 -0.9763
  451MOL0     H62238   4.257   2.650   0.208 -0.4076  4.5725  0.6790
  452MOL0     O62239   7.168   5.397  11.245  0.7509  0.6140  0.3731
  452MOL0     C62240   7.255   5.352  11.164  0.1427 -0.5357  0.2080
  452MOL0     O62241   7.224   5.270  11.055  0.4722 -0.9518 -0.0174
  452MOL0     C62242   7.100   5.212  11.055  0.4419 -1.1033  0.0676
  452MOL0     C62243   7.018   5.228  10.943 -0.5154  0.2661 -1.0817
  452MOL0     C62244   6.893   5.164  10.935  0.7134  0.3303 -0.6855
  452MOL0     C62245   6.842   5.090  11.042 -0.5218  0.6736 -0.7636
  452MOL0     O62246   6.710   5.041  11.024  0.3180  0.2325 -0.9785
  452MOL0     C62247   6.689   4.903  11.056  0.6596 -0.1273  0.4803
  452MOL0     C62248   6.543   4.870  11.101  0.3154 -0.2795  0.0300
  452MOL0     C62249   6.492   4.934  11.235 -0.9021 -0.2345  0.6128
  452MOL0     C62250   6.400   5.047  11.200  0.8794 -0.2713 -0.0649
  452MOL0     C62251   6.346   5.118  11.329  0.0571 -0.7115  0.8295
  452MOL0     C62252   6.250   5.228  11.282  0.1203 -0.4732  0.6076
  452MOL0     C62253   6.195   5.294  11.404  0.3292  0.2324  0.3888
  452MOL0     C62254   6.175   5.444  11.392  0.8032  0.0944  0.3062
  452MOL0     N62255   6.046   5.470  11.321 -0.4578  0.9863 -0.2915
  452MOL0     C62256   5.929   5.523  11.382  0.5619  0.4594  1.1485
  452MOL0     C62257   5.846   5.542  11.269  0.2987 -0.0790 -0.2746
  452MOL0     C62258   5.703   5.590  11.277  0.2157  0.0509  0.3778
  452MOL0     C62259   5.623   5.521  11.394 -0.1178  0.5142  0.8057
  452MOL0     C62260   5.583   5.369  11.376 -0.2538 -1.2885  0.1539
  452MOL0     C62261   5.585   5.279  11.500  1.3572  0.2131 -0.3360
  452MOL0     O62262   5.721   5.257  11.544 -1.0279  0.4190 -0.0068
  452MOL0     C62263   5.747   5.157  11.630 -0.5866 -0.9184 -0.0912
  452MOL0     C62264   5.878   5.146  11.669  0.2894  0.0828  0.4766
  452MOL0     C62265   5.914   5.038  11.756  0.3265  0.6221  1.3916
  452MOL0     C62266   6.057   5.029  11.801 -0.4682  0.0253 -0.3338
  452MOL0     C62267   5.818   4.937  11.789  0.4379  0.2188  0.3074
  452MOL0     C62268   5.842   4.809  11.871 -0.7315 -0.6839 -0.3942
  452MOL0     O62269   5.965   4.748  11.854 -0.3171 -0.2251 -0.0552
  452MOL0     C62270   6.026   4.659  11.941 -0.0855  0.0034  0.6433
  452MOL0     C62271   6.127   4.588  11.885  0.0184  0.1264 -0.5430
  452MOL0     C62272   6.199   4.507  11.971 -0.7699 -0.1214  0.2379
  452MOL0     C62273   6.180   4.504  12.111  0.7541  0.6264  0.1533
  452MOL0     O62274   6.267   4.427  12.183 -0.2906  0.4297 -0.3157
  452MOL0     C62275   6.269   4.444  12.326 -0.2401 -0.7387  0.1895
  452MOL0     C62276   6.390   4.365  12.367 -0.2010 -0.6267 -0.0122
  452MOL0     C62277   6.436   4.380  12.520  0.4915 -0.0344  0.7351
  452MOL0     C62278   6.577   4.315  12.538  0.3158  0.9351 -1.1970
  452MOL0     C62279   6.601   4.309  12.681  0.5126 -0.8887 -0.4933
  452MOL0     C62280   6.747   4.267  12.713  0.9249 -0.2244 -0.7824
  452MOL0     C62281   6.761   4.121  12.699 -1.4696 -0.2135  0.7931
  452MOL0     C62282   6.843   4.093  12.567  0.2183  0.5196 -0.6350
  452MOL0    Cl62283   6.875   3.918  12.547 -0.6313  0.0347 -0.2957
  452MOL0     C62284   6.072   4.580  12.170 -0.6238  0.1075  0.0091
  452MOL0     C62285   6.009   4.664  12.080  0.2534 -1.0172 -0.2761
  452MOL0     O62286   5.763   4.782  11.956 -0.1384 -0.2605 -0.3264
  452MOL0     C62287   5.685   4.956  11.751  0.4715 -1.1274 -0.4126
  452MOL0     C62288   5.650   5.066  11.672  0.0969  0.5391 -0.4266
  452MOL0     N62289   5.905   5.503  11.158  0.3557  0.5741  0.2322
  452MOL0     N62290   6.031   5.467  11.189 -0.3296  0.1336 -0.0780
  452MOL0     C62291   6.924   5.077  11.158 -0.4758  0.1391  0.2053
  452MOL0     C62292   7.054   5.133  11.161  0.3914  0.5844 -0.2939
  452MOL0     C62293   7.401   5.398  11.175  1.1398 -0.1366 -0.5476
  452MOL0     C62294   7.427   5.493  11.277 -0.1240  0.6542 -0.2833
  452MOL0     C62295   7.549   5.560  11.279 -0.6573  0.1133  0.7910
  452MOL0     C62296   7.646   5.533  11.188  0.0686  0.4546 -0.1860
  452MOL0     O62297   7.764   5.600  11.202 -0.6421  0.1190  0.3439
  452MOL0     C62298   7.877   5.519  11.242  0.2112 -0.2939  0.1374
  452MOL0     C62299   8.015   5.594  11.216 -0.4240 -0.0616 -1.0878
  452MOL0     C62300   8.129   5.504  11.261 -0.8908 -0.5933 -0.3317
  452MOL0     C62301   8.265   5.565  11.223  0.1139 -0.5104  0.4044
  452MOL0     C62302   8.373   5.484  11.284 -0.5628  0.1209  0.7344
  452MOL0     C62303   8.473   5.424  11.321  0.5697  0.0252 -0.0287
  452MOL0     C62304   7.609   5.447  11.087 -2.0220 -0.2304 -0.6552
  452MOL0     C62305   7.494   5.374  11.078  0.5024 -0.3769 -0.5423
  452MOL0     C62306   7.481   5.293  10.953 -0.2714  0.1741  0.2632
  452MOL0     H62307   7.056   5.292  10.863  0.9547 -0.0684 -0.6831
  452MOL0     H62308   6.829   5.181  10.848 -2.3545 -1.4333  1.0436
  452MOL0     H62309   6.760   4.875  11.134 -0.3236 -0.8526  1.1388
  452MOL0     H62310   6.702   4.842  10.965 -1.5729  2.5469 -1.8133
  452MOL0     H62311   6.467   4.890  11.025 -0.8644 -2.5169  0.5447
  452MOL0     H62312   6.551   4.761  11.107  0.4066 -0.2317  0.8819
  452MOL0     H62313   6.439   4.855  11.288 -0.8254 -2.0537 -1.8542
  452MOL0     H62314   6.576   4.956  11.303 -0.7059 -3.2862  1.5288
  452MOL0     H62315   6.448   5.123  11.137  3.1116 -1.7478 -0.2575
  452MOL0     H62316   6.324   4.990  11.146 -0.4010  1.1178  0.2087
  452MOL0     H62317   6.439   5.163  11.364  0.0420  1.2090 -1.3533
  452MOL0     H62318   6.291   5.047  11.391 -0.4667 -2.4675 -1.4901
  452MOL0     H62319   6.313   5.295  11.224  2.5297 -0.5586  2.9688
  452MOL0     H62320   6.169   5.195  11.215  3.1677  0.0209 -3.6783
  452MOL0     H62321   6.266   5.281  11.487  0.2478  0.7440  0.5428
  452MOL0     H62322   6.100   5.250  11.436 -0.2913  1.2337 -0.0528
  452MOL0     H62323   6.177   5.506  11.482  0.9725  1.2140 -0.4550
  452MOL0     H62324   6.249   5.476  11.317  1.4386 -0.4182  0.7000
  452MOL0     H62325   5.910   5.552  11.485  2.9465 -0.1309  1.8373
  452MOL0     H62326   5.642   5.586  11.186 -3.2746  0.6455  2.4803
  452MOL0     H62327   5.707   5.693  11.313 -1.1259 -0.5655  2.4637
  452MOL0     H62328   5.684   5.527  11.484  0.6520  2.3315  0.2235
  452MOL0     H62329   5.535   5.584  11.411 -0.2293  0.5098  0.2795
  452MOL0     H62330   5.486   5.366  11.326 -1.2216 -1.3407  1.9191
  452MOL0     H62331   5.658   5.323  11.312 -0.8921  0.6711 -2.1471
  452MOL0     H62332   5.532   5.327  11.583  1.1780 -2.3181  1.1099
  452MOL0     H62333   5.530   5.185  11.486  0.8895  0.8267 -3.1774
  452MOL0     H62334   5.953   5.220  11.644 -0.3073  0.9792  1.2909
  452MOL0     H62335   6.086   5.121  11.850  1.0584  0.7738 -2.4907
  452MOL0     H62336   6.127   5.010  11.719  2.1749 -1.8061  2.1652
  452MOL0     H62337   6.077   4.945  11.868  1.2302 -2.1289 -3.2604
  452MOL0     H62338   6.145   4.589  11.778 -0.8920 -0.5349 -0.7118
  452MOL0     H62339   6.288   4.456  11.937 -0.2654 -0.2071  1.6378
  452MOL0     H62340   6.274   4.547  12.361  0.0685 -0.8535  0.4850
  452MOL0     H62341   6.182   4.398  12.373 -2.0477  3.0992  1.0148
  452MOL0     H62342   6.365   4.259  12.356  0.2405 -0.8829  1.3158
  452MOL0     H62343   6.478   4.389  12.306 -1.2022  1.2796 -0.8039
  452MOL0     H62344   6.357   4.332  12.579 -0.8950 -1.4461 -2.0784
  452MOL0     H62345   6.454   4.485  12.543  0.3770  0.0947  0.2537
  452MOL0     H62346   6.650   4.381  12.490  2.1224  0.8270  1.2185
  452MOL0     H62347   6.579   4.217  12.489 -2.6956 -0.0880  0.4899
  452MOL0     H62348   6.583   4.408  12.724  0.9165 -1.0771  0.1151
  452MOL0     H62349   6.532   4.235  12.723 -1.3800  0.7018 -0.6547
  452MOL0     H62350   6.754   4.288  12.820 -3.7973  0.4013 -0.4194
  452MOL0     H62351   6.816   4.323  12.649  0.9772  0.7416  0.1081
  452MOL0     H62352   6.664   4.070  12.707 -1.3259 -0.8058 -0.9430
  452MOL0     H62353   6.815   4.071  12.780  0.0426 -0.0511 -0.0901
  452MOL0     H62354   6.927   4.162  12.564 -1.7782  3.2665  1.5003
  452MOL0     H62355   6.774   4.111  12.484 -0.6167  2.0311  0.3455
  452MOL0     H62356   6.052   4.587  12.276  0.6997  0.5345  0.2449
  452MOL0     H62357   5.929   4.728  12.115  2.0966 -0.3651  3.2114
  452MOL0     H62358   5.608   4.893  11.794 -0.2786  2.4097  4.2465
  452MOL0     H62359   5.545   5.071  11.646  0.5581  1.7916 -2.2053
  452MOL0     H62360   6.873   5.023  11.237 -1.8450 -1.0958 -1.4261
  452MOL0     H62361   7.123   5.114  11.243 -0.0679 -3.3519 -0.6232
  452MOL0     H62362   7.352   5.503  11.355 -1.4758 -1.5723 -1.1944
  452MOL0     H62363   7.557   5.644  11.347 -1.2429  1.3258 -0.5880
  452MOL0     H62364   7.859   5.501  11.348 -0.6250 -0.0864  0.0401
  452MOL0     H62365   7.882   5.425  11.186 -0.3718 -1.3135  1.7176
  452MOL0     H62366   7.997   5.684  11.276 -3.2471 -1.5056  0.4473
  452MOL0     H62367   8.031   5.619  11.111  3.4387 -2.1573 -1.2026
  452MOL0     H62368   8.112   5.502  11.369  0.8754  0.3781  0.0125
  452MOL0     H62369   8.112   5.409  11.208 -1.9137 -0.5197 -0.1431
  452MOL0     H62370   8.283   5.664  11.266  0.2401 -1.6740  3.1901
  452MOL0     H62371   8.275   5.578  11.114  1.7859  0.3521  0.6238
  452MOL0     H62372   8.562   5.388  11.370 -0.2312  1.7993  3.0236
  452MOL0     H62373   7.685   5.443  11.009 -0.6819  1.5853  0.4879
  452MOL0     H62374   7.441   5.195  10.982 -2.1704  1.0311  0.7203
  452MOL0     H62375   7.421   5.338  10.873  3.1759  2.7061 -1.1330
  452MOL0     H62376   7.578   5.281  10.904  0.1450 -0.5718  1.2527
  453MOL0     O62377   9.106   7.504   4.067 -0.0307  0.3625  0.1305
  453MOL0     C62378   9.021   7.515   3.980  0.9032 -0.1207  0.8088
  453MOL0     O62379   8.887   7.504   3.993  0.7128 -0.2170 -0.1085
  453MOL0     C62380   8.841   7.505   4.115  0.2590  1.1808 -0.1233
  453MOL0     C62381   8.856   7.403   4.205  0.3194 -0.4313 -0.6289
  453MOL0     C62382   8.799   7.414   4.329  0.7883 -0.3088 -0.9388
  453MOL0     C62383   8.714   7.517   4.364  0.8628  0.0886  0.9353
  453MOL0     O62384   8.642   7.490   4.477 -0.1737  0.2338 -0.0740
  453MOL0     C62385   8.526   7.576   4.500  0.0752  0.5198  0.3500
  453MOL0     C62386   8.461   7.531   4.635 -0.4268  1.1213 -0.1438
  453MOL0     C62387   8.382   7.650   4.690  0.0522  0.6100 -0.6447
  453MOL0     C62388   8.340   7.597   4.837 -0.0572 -0.4091  0.2272
  453MOL0     C62389   8.222   7.499   4.840 -1.1670 -0.0644  0.1624
  453MOL0     C62390   8.177   7.490   4.978  0.4807 -0.0860 -1.0027
  453MOL0     C62391   8.241   7.385   5.063 -0.1244  0.8766 -0.7057
  453MOL0     C62392   8.142   7.355   5.181 -0.7626 -0.7641 -0.4053
  453MOL0     N62393   8.176   7.243   5.266 -0.2269  1.6666  0.1019
  453MOL0     C62394   8.129   7.116   5.237  0.3914 -0.8702 -0.6827
  453MOL0     C62395   8.165   7.044   5.339  0.1805 -0.3151 -0.9577
  453MOL0     C62396   8.137   6.901   5.359  0.7461  0.1835  0.5244
  453MOL0     C62397   8.015   6.884   5.446  0.0322 -0.4215  0.6716
  453MOL0     C62398   8.000   6.750   5.491 -0.1709  0.7570 -0.8866
  453MOL0     C62399   7.970   6.628   5.392 -0.1723 -0.6079 -0.5102
  453MOL0     O62400   7.908   6.526   5.476  0.1501  0.1262 -0.4424
  453MOL0     C62401   7.881   6.406   5.428 -0.0530  0.3353 -0.3874
  453MOL0     C62402   7.943   6.355   5.310  0.1651 -0.9134  0.5864
  453MOL0     C62403   7.887   6.252   5.237 -0.2314  0.9596 -0.7089
  453MOL0     C62404   7.967   6.221   5.113  0.9319  0.3032  0.4745
  453MOL0     C62405   7.777   6.176   5.300  0.6002  0.5157  0.4480
  453MOL0     C62406   7.726   6.044   5.249  0.4322 -0.2723  0.1183
  453MOL0     O62407   7.646   5.981   5.338  0.0445 -0.0497  0.0288
  453MOL0     C62408   7.559   5.876   5.304  0.2806 -0.5938 -0.0372
  453MOL0     C62409   7.466   5.890   5.197  0.0348  0.6481  0.4676
  453MOL0     C62410   7.381   5.786   5.161 -0.2817  0.1439  0.1862
  453MOL0     C62411   7.387   5.662   5.234 -0.2702  0.8057 -0.2394
  453MOL0     O62412   7.312   5.561   5.188 -0.2462 -0.2322  0.9488
  453MOL0     C62413   7.187   5.562   5.246 -0.6412 -0.1114 -0.0138
  453MOL0     C62414   7.085   5.500   5.152  0.2705  0.3381  0.1650
  453MOL0     C62415   7.077   5.344   5.145  1.0657 -0.5550  0.0784
  453MOL0     C62416   7.014   5.294   5.014  0.2843 -0.0848  0.2376
  453MOL0     C62417   7.133   5.271   4.914 -0.0420  0.5206  0.0438
  453MOL0     C62418   7.092   5.274   4.763 -0.5994  0.0330 -0.5288
  453MOL0     C62419   7.210   5.260   4.669  0.6967 -0.4915 -0.8463
  453MOL0     C62420   7.178   5.246   4.514 -1.0329 -0.2478  0.3876
  453MOL0    Cl62421   7.137   5.419   4.448 -0.1759 -0.2890 -0.0174
  453MOL0     C62422   7.474   5.653   5.349 -0.6176 -0.2000  0.5160
  453MOL0     C62423   7.557   5.762   5.381 -0.4984 -0.7964 -0.1338
  453MOL0     O62424   7.746   6.000   5.137 -0.0572 -0.1686 -0.1113
  453MOL0     C62425   7.729   6.213   5.430 -0.3733 -0.2558  0.4687
  453MOL0     C62426   7.776   6.330   5.490  0.1990  0.0218 -0.7042
  453MOL0     N62427   8.232   7.129   5.429 -1.0687 -0.1647 -0.0184
  453MOL0     N62428   8.232   7.251   5.389 -0.2314  0.4758  1.1491
  453MOL0     C62429   8.700   7.628   4.271  0.7336 -0.4623 -0.6109
  453MOL0     C62430   8.773   7.618   4.157 -0.4803 -0.4820 -0.5906
  453MOL0     C62431   9.070   7.562   3.854 -0.8239 -0.4163 -0.1750
  453MOL0     C62432   9.011   7.513   3.736 -0.1352  0.6777  0.3580
  453MOL0     C62433   9.033   7.553   3.608 -0.1658  0.3019  0.1179
  453MOL0     C62434   9.146   7.633   3.596  0.4582 -0.4437 -0.2674
  453MOL0     O62435   9.190   7.675   3.465  0.1994 -0.4048  0.0295
  453MOL0     C62436   9.146   7.609   3.344 -0.0318 -0.3472 -0.4492
  453MOL0     C62437   9.043   7.705   3.286  1.5715 -0.6826  0.9704
  453MOL0     C62438   8.948   7.644   3.178 -0.2549  0.7456  0.0792
  453MOL0     C62439   8.836   7.740   3.127 -0.5391 -0.0949 -0.1193
  453MOL0     C62440   8.893   7.864   3.074  0.4000 -0.3400  0.0534
  453MOL0     C62441   8.952   7.956   3.024  1.2047  0.2620  0.7196
  453MOL0     C62442   9.215   7.682   3.704 -0.7722  0.8448 -0.9349
  453MOL0     C62443   9.178   7.654   3.837 -0.8256 -0.6965  0.4899
  453MOL0     C62444   9.252   7.717   3.947 -0.2168  0.2223  0.0870
  453MOL0     H62445   8.920   7.319   4.180  2.2619  0.7718  0.1311
  453MOL0     H62446   8.816   7.327   4.391 -0.9387 -0.4806 -0.6592
  453MOL0     H62447   8.452   7.560   4.420  1.7996  1.3205 -1.4875
  453MOL0     H62448   8.557   7.681   4.503  2.1882 -0.0196  4.6365
  453MOL0     H62449   8.406   7.438   4.616 -1.0998  0.6259  3.4534
  453MOL0     H62450   8.540   7.501   4.705  0.3308  0.7575 -1.1408
  453MOL0     H62451   8.437   7.742   4.711 -0.5686  0.6446  1.0069
  453MOL0     H62452   8.298   7.669   4.622 -1.0028 -4.2911 -1.0816
  453MOL0     H62453   8.436   7.576   4.884  1.2303 -0.2077 -2.1732
  453MOL0     H62454   8.302   7.688   4.885 -1.8978 -1.6244  1.1914
  453MOL0     H62455   8.252   7.402   4.799 -0.5028  0.3289 -0.3043
  453MOL0     H62456   8.144   7.527   4.770 -0.8698 -0.6278 -0.4105
  453MOL0     H62457   8.187   7.582   5.036 -0.9254 -0.7742  0.4102
  453MOL0     H62458   8.070   7.466   4.974  0.0056  0.9775  2.1766
  453MOL0     H62459   8.343   7.405   5.096  1.0851 -2.4990 -1.9847
  453MOL0     H62460   8.250   7.296   5.000  5.1784  0.8946 -0.3928
  453MOL0     H62461   8.155   7.437   5.252  0.7818 -0.1237 -1.3650
  453MOL0     H62462   8.036   7.352   5.154 -0.4935  0.5091 -1.7635
  453MOL0     H62463   8.068   7.081   5.154  1.0117 -2.0674 -0.6625
  453MOL0     H62464   8.226   6.853   5.402  1.8998  0.4825 -1.4379
  453MOL0     H62465   8.121   6.857   5.260  2.8385 -0.1226  0.2742
  453MOL0     H62466   8.023   6.942   5.538  1.0344  2.9455 -1.3485
  453MOL0     H62467   7.921   6.907   5.394  0.4298 -0.2451  0.0174
  453MOL0     H62468   8.087   6.715   5.547 -0.5135 -1.5493 -1.7024
  453MOL0     H62469   7.906   6.747   5.546  1.5014  0.2874  2.1625
  453MOL0     H62470   7.897   6.651   5.314 -0.5680 -2.5140 -0.7512
  453MOL0     H62471   8.065   6.601   5.346  0.3730 -0.7476  0.6554
  453MOL0     H62472   8.018   6.417   5.262 -0.9803 -1.9521 -2.8631
  453MOL0     H62473   7.981   6.113   5.120 -2.5238 -0.2857 -0.1570
  453MOL0     H62474   8.062   6.274   5.100  0.7153  1.1766  2.1580
  453MOL0     H62475   7.888   6.232   5.038 -1.3208 -3.7941  1.9391
  453MOL0     H62476   7.465   5.976   5.131 -0.1823 -1.3716 -2.3364
  453MOL0     H62477   7.318   5.797   5.073  0.2764  0.4473 -0.1814
  453MOL0     H62478   7.197   5.511   5.342 -1.3883 -0.6869 -0.2359
  453MOL0     H62479   7.156   5.663   5.274  1.0023  1.2142 -2.5651
  453MOL0     H62480   6.987   5.534   5.184  0.9534  0.2144  2.5996
  453MOL0     H62481   7.088   5.547   5.053 -0.3189  1.3401  0.6130
  453MOL0     H62482   7.016   5.306   5.228 -0.1264  0.1266 -0.4576
  453MOL0     H62483   7.179   5.305   5.149  1.3697  0.2899  1.1016
  453MOL0     H62484   6.940   5.364   4.973 -2.0398 -2.8248 -0.6098
  453MOL0     H62485   6.963   5.199   5.034 -3.8600  1.4727 -1.6520
  453MOL0     H62486   7.215   5.342   4.928  0.4113 -0.0684  0.4404
  453MOL0     H62487   7.179   5.174   4.933  0.1230  0.8895  1.7037
  453MOL0     H62488   7.051   5.372   4.739 -3.4459 -1.0694 -0.5663
  453MOL0     H62489   7.023   5.191   4.745  1.5534 -1.5677 -2.0871
  453MOL0     H62490   7.263   5.170   4.699 -0.7312 -1.4193 -1.0292
  453MOL0     H62491   7.282   5.342   4.680 -0.3095  0.2410  0.6963
  453MOL0     H62492   7.085   5.193   4.492  0.4879 -3.4705  1.1608
  453MOL0     H62493   7.271   5.202   4.477  1.0036  1.5979  2.9566
  453MOL0     H62494   7.472   5.560   5.404  3.3415 -1.5872 -1.3334
  453MOL0     H62495   7.622   5.753   5.468 -0.8105 -0.3060  0.1532
  453MOL0     H62496   7.650   6.154   5.476 -0.3661 -2.0157 -1.5980
  453MOL0     H62497   7.728   6.372   5.577  0.9078  3.2027 -1.7281
  453MOL0     H62498   8.631   7.708   4.293 -2.0251 -2.6051 -0.8488
  453MOL0     H62499   8.760   7.708   4.099  3.1078  1.2408  1.0269
  453MOL0     H62500   8.941   7.432   3.757  0.3788  0.7768  2.7020
  453MOL0     H62501   8.981   7.512   3.523  3.2091  0.5895 -2.2700
  453MOL0     H62502   9.230   7.600   3.275  1.6557 -0.1801  1.5265
  453MOL0     H62503   9.095   7.512   3.355 -2.6691  1.0562  0.7163
  453MOL0     H62504   9.085   7.802   3.259 -0.8459  0.6801  1.7490
  453MOL0     H62505   8.980   7.738   3.369  2.9389  1.1033  1.3434
  453MOL0     H62506   9.008   7.605   3.096 -2.0797 -2.7866  0.2660
  453MOL0     H62507   8.905   7.564   3.238  0.9705  1.1749  1.5988
  453MOL0     H62508   8.764   7.748   3.209  0.7256 -0.9522  1.1050
  453MOL0     H62509   8.773   7.691   3.051 -1.3712  2.9130 -1.5317
  453MOL0     H62510   8.998   8.042   2.978  0.3116  0.7337  0.6895
  453MOL0     H62511   9.302   7.743   3.685 -0.1266  1.2329  2.5520
  453MOL0     H62512   9.305   7.640   4.005 -2.0864 -0.3137  1.1619
  453MOL0     H62513   9.323   7.790   3.907 -0.3392  1.8586  2.6396
  453MOL0     H62514   9.179   7.764   4.013 -2.6595 -0.7513 -1.7728
  454MOL0     O62515   8.319   7.100   7.836  0.0381  0.3389  0.6047
  454MOL0     C62516   8.196   7.127   7.847 -0.2491  0.3470 -0.5287
  454MOL0     O62517   8.149   7.251   7.855 -0.2022 -0.6206  0.5798
  454MOL0     C62518   8.233   7.351   7.872 -0.4565  0.6545  0.5784
  454MOL0     C62519   8.247   7.413   8.004  0.1078  0.6017 -0.6747
  454MOL0     C62520   8.333   7.516   8.033 -0.6381  0.9452  0.1496
  454MOL0     C62521   8.428   7.541   7.928  0.2258  0.1005 -0.2876
  454MOL0     O62522   8.529   7.633   7.936 -0.9964  0.4480  0.7833
  454MOL0     C62523   8.573   7.657   8.068 -0.5752 -0.1204 -0.0340
  454MOL0     C62524   8.695   7.745   8.073 -1.0877 -0.6345 -0.2748
  454MOL0     C62525   8.668   7.885   8.019 -0.2255 -0.1823 -0.6787
  454MOL0     C62526   8.788   7.976   8.060 -0.2786  1.2142 -0.3012
  454MOL0     C62527   8.776   8.119   8.009 -0.2621 -0.0117  0.9536
  454MOL0     C62528   8.663   8.201   8.073 -0.5979 -0.5300  0.6668
  454MOL0     C62529   8.693   8.349   8.045 -0.1922 -0.1968 -0.9774
  454MOL0     C62530   8.685   8.388   7.895  0.8659  0.0233 -0.6832
  454MOL0     N62531   8.558   8.365   7.838 -0.2231 -0.0890 -0.0213
  454MOL0     C62532   8.440   8.412   7.893  0.1196 -0.2216 -0.0995
  454MOL0     C62533   8.344   8.407   7.791  1.0035 -0.1106 -0.6303
  454MOL0     C62534   8.202   8.454   7.796  0.3502  0.6978  0.4216
  454MOL0     C62535   8.135   8.462   7.934  0.7889  0.3661 -0.1191
  454MOL0     C62536   8.008   8.542   7.936  0.0962 -0.4047  0.1762
  454MOL0     C62537   7.969   8.571   8.083  0.8582 -0.4750  0.0082
  454MOL0     O62538   7.862   8.670   8.089 -0.4674 -0.2255 -0.9521
  454MOL0     C62539   7.829   8.728   8.208  0.1117  0.5235 -0.7466
  454MOL0     C62540   7.712   8.804   8.219  0.1371  1.0420 -0.4862
  454MOL0     C62541   7.658   8.846   8.337 -0.0623  0.1731  0.2601
  454MOL0     C62542   7.521   8.908   8.333  0.7462  0.4572 -0.6210
  454MOL0     C62543   7.731   8.839   8.458 -0.0556  0.6061  0.5968
  454MOL0     C62544   7.693   8.892   8.587  0.4114 -0.3691 -0.5598
  454MOL0     O62545   7.612   9.010   8.586 -0.3737 -0.3362  0.9386
  454MOL0     C62546   7.585   9.080   8.705 -0.1460  0.5980  0.1664
  454MOL0     C62547   7.490   9.019   8.795  0.4973 -0.4444  1.0949
  454MOL0     C62548   7.456   9.079   8.906  0.0792  0.6827  0.0889
  454MOL0     C62549   7.502   9.212   8.934 -0.1018  0.0111 -0.4657
  454MOL0     O62550   7.460   9.273   9.048  0.2687  0.8850  0.2652
  454MOL0     C62551   7.523   9.394   9.098 -0.1590 -0.9314 -0.6600
  454MOL0     C62552   7.450   9.434   9.228 -1.0782 -0.0933 -0.3012
  454MOL0     C62553   7.372   9.560   9.236  0.0266  0.2960  0.2017
  454MOL0     C62554   7.308   9.594   9.371 -0.2538 -0.0646 -0.8053
  454MOL0     C62555   7.410   9.659   9.462 -0.4184 -0.4828  0.9253
  454MOL0     C62556   7.360   9.663   9.605  0.1286 -0.2850 -0.8117
  454MOL0     C62557   7.299   9.799   9.622 -0.0216 -0.3315 -1.2297
  454MOL0     C62558   7.189   9.798   9.720  0.7837 -0.9713 -1.6775
  454MOL0    Cl62559   7.145   9.977   9.738 -0.2874 -0.0501  0.1822
  454MOL0     C62560   7.574   9.284   8.838 -0.3374 -0.1882  0.1099
  454MOL0     C62561   7.613   9.216   8.721  0.2857  0.1626  0.4109
  454MOL0     O62562   7.742   8.841   8.696 -0.2990 -0.5165  0.7594
  454MOL0     C62563   7.858   8.773   8.447 -0.0286  0.7444 -0.2005
  454MOL0     C62564   7.896   8.713   8.329 -0.2089  0.9322  0.3933
  454MOL0     N62565   8.413   8.338   7.682  0.8854 -0.4746 -0.5393
  454MOL0     N62566   8.536   8.318   7.715  1.2624  0.2000 -0.3718
  454MOL0     C62567   8.419   7.480   7.805 -0.0405  0.0328 -0.1955
  454MOL0     C62568   8.324   7.388   7.777 -0.3552  0.2771  0.5540
  454MOL0     C62569   8.096   7.023   7.873 -0.2465  0.4832  0.4292
  454MOL0     C62570   7.984   7.058   7.949 -0.8641 -0.6133  1.1084
  454MOL0     C62571   7.900   6.963   8.005  0.5760  1.3296  0.0693
  454MOL0     C62572   7.927   6.833   7.972 -0.4434 -0.5178 -0.3294
  454MOL0     O62573   7.841   6.734   8.021 -0.9026 -0.2281  0.2436
  454MOL0     C62574   7.764   6.751   8.136 -1.0748  0.3464  0.0568
  454MOL0     C62575   7.712   6.616   8.198 -0.6007 -0.3894  0.2321
  454MOL0     C62576   7.627   6.609   8.321  0.1273  0.8271  0.0876
  454MOL0     C62577   7.522   6.714   8.332  0.6406 -0.3573  0.1581
  454MOL0     C62578   7.422   6.681   8.234 -0.0348 -0.2789 -0.9954
  454MOL0     C62579   7.344   6.664   8.139 -0.1694 -0.3786 -0.1866
  454MOL0     C62580   8.032   6.793   7.886 -0.3256  0.8142 -0.2305
  454MOL0     C62581   8.126   6.884   7.835  0.3941  0.5204  0.0074
  454MOL0     C62582   8.246   6.827   7.756  0.2127  0.3109 -0.6714
  454MOL0     H62583   8.181   7.392   8.088  1.3831 -3.2173 -0.4387
  454MOL0     H62584   8.325   7.559   8.132  1.2824  1.2413  0.2251
  454MOL0     H62585   8.590   7.572   8.135  0.1372  1.4918  1.9350
  454MOL0     H62586   8.492   7.722   8.104 -0.6324  1.5420 -2.8409
  454MOL0     H62587   8.728   7.753   8.177 -1.2111  4.3860 -0.3720
  454MOL0     H62588   8.780   7.697   8.024  0.3798  0.5768  0.9956
  454MOL0     H62589   8.663   7.878   7.910 -1.0917 -1.0818 -0.5895
  454MOL0     H62590   8.578   7.933   8.058  0.1065 -1.4554  1.7884
  454MOL0     H62591   8.807   7.979   8.167 -0.5105 -2.7089 -0.0181
  454MOL0     H62592   8.877   7.933   8.014 -1.9575 -1.5690 -1.1755
  454MOL0     H62593   8.768   8.109   7.900  0.7657 -2.4198  1.0288
  454MOL0     H62594   8.877   8.158   8.026 -1.1906  2.0811  2.1514
  454MOL0     H62595   8.564   8.176   8.035 -1.2566  2.0934  0.4586
  454MOL0     H62596   8.671   8.182   8.180  0.5804 -3.2807  0.1729
  454MOL0     H62597   8.796   8.379   8.068 -0.9093  1.2061  0.5724
  454MOL0     H62598   8.628   8.407   8.110  0.6027 -1.2723  0.8559
  454MOL0     H62599   8.716   8.493   7.884  5.6948 -1.2103 -1.4347
  454MOL0     H62600   8.757   8.336   7.831 -0.9712 -1.6406 -1.4771
  454MOL0     H62601   8.418   8.464   7.986  2.5982 -2.2890  1.7729
  454MOL0     H62602   8.145   8.383   7.735  1.3860 -1.8792  2.2766
  454MOL0     H62603   8.196   8.558   7.762  0.1250  0.3332 -0.7075
  454MOL0     H62604   8.136   8.359   7.971  3.3863  0.1082 -0.6798
  454MOL0     H62605   8.206   8.515   7.999  0.5240 -1.3232  1.6326
  454MOL0     H62606   8.025   8.634   7.880 -0.0218 -0.1443  0.5613
  454MOL0     H62607   7.924   8.488   7.891 -2.8595  0.4423  4.0732
  454MOL0     H62608   7.933   8.484   8.137 -0.8307 -1.4249 -2.4454
  454MOL0     H62609   8.059   8.613   8.129  0.2030  0.4686  0.4616
  454MOL0     H62610   7.651   8.808   8.130 -1.2133 -3.7217 -0.0769
  454MOL0     H62611   7.453   8.836   8.286 -1.0764  0.4901  1.7466
  454MOL0     H62612   7.528   9.009   8.292 -0.1695  0.7812 -0.0178
  454MOL0     H62613   7.475   8.920   8.431 -0.0652  1.0855 -1.0586
  454MOL0     H62614   7.462   8.918   8.769  0.4142 -0.1876  0.1285
  454MOL0     H62615   7.383   9.027   8.966 -0.6144  3.4567  1.8509
  454MOL0     H62616   7.629   9.392   9.125 -0.5226  0.8335  1.1071
  454MOL0     H62617   7.496   9.479   9.035 -2.6546 -0.9935  0.2412
  454MOL0     H62618   7.398   9.345   9.264  0.7277 -1.0297  0.1506
  454MOL0     H62619   7.528   9.459   9.301 -2.1748  1.2301  0.4602
  454MOL0     H62620   7.293   9.552   9.162 -1.4449  2.1380  1.4917
  454MOL0     H62621   7.438   9.638   9.198 -1.5014  1.7265  0.4025
  454MOL0     H62622   7.277   9.510   9.434 -1.8015  1.1228  0.0852
  454MOL0     H62623   7.222   9.656   9.345  0.4358  0.8155 -1.0554
  454MOL0     H62624   7.503   9.602   9.469 -0.6713 -1.5468 -2.7106
  454MOL0     H62625   7.430   9.764   9.438 -1.3620 -0.6074 -0.5511
  454MOL0     H62626   7.438   9.650   9.680  0.2930  0.4835 -0.8378
  454MOL0     H62627   7.287   9.583   9.623  1.2750 -1.2932 -0.5328
  454MOL0     H62628   7.252   9.834   9.529 -0.7778  1.2003 -0.3179
  454MOL0     H62629   7.380   9.871   9.639  1.9534 -2.2199 -2.1895
  454MOL0     H62630   7.209   9.753   9.818 -1.0746 -1.0094 -1.2745
  454MOL0     H62631   7.099   9.748   9.685 -2.6278  0.2802  3.9722
  454MOL0     H62632   7.611   9.386   8.839  2.0466 -0.9970  0.5870
  454MOL0     H62633   7.662   9.263   8.636 -0.4375  2.3343  1.1202
  454MOL0     H62634   7.925   8.750   8.529 -0.7434 -1.6026 -0.1960
  454MOL0     H62635   7.986   8.652   8.329 -0.2809  0.7768  2.3075
  454MOL0     H62636   8.491   7.521   7.735  2.4823  1.9978  3.2727
  454MOL0     H62637   8.320   7.352   7.674  2.4301 -0.7208  0.6987
  454MOL0     H62638   7.963   7.159   7.984  5.5530  1.8892 -0.7925
  454MOL0     H62639   7.818   6.990   8.070 -0.5373 -0.9118 -0.2924
  454MOL0     H62640   7.836   6.798   8.203 -0.6248  1.6202 -1.2784
  454MOL0     H62641   7.677   6.815   8.122 -2.2578 -0.5207  2.8214
  454MOL0     H62642   7.791   6.554   8.242 -0.2935  2.6248  4.6413
  454MOL0     H62643   7.667   6.555   8.120  3.0362 -0.3759 -2.0921
  454MOL0     H62644   7.582   6.509   8.330  3.3935 -0.8257 -0.6333
  454MOL0     H62645   7.684   6.616   8.414 -1.3502 -1.2267  1.2472
  454MOL0     H62646   7.567   6.813   8.314 -1.8183  1.5101  3.1569
  454MOL0     H62647   7.487   6.730   8.435  0.8856 -1.0879  0.3620
  454MOL0     H62648   7.275   6.646   8.060 -1.2884  0.7836  0.4979
  454MOL0     H62649   8.040   6.687   7.865 -0.6431  0.5590  0.8903
  454MOL0     H62650   8.300   6.906   7.703  0.2242 -0.3726 -1.7119
  454MOL0     H62651   8.319   6.781   7.823 -0.3125  2.4065  1.4687
  454MOL0     H62652   8.212   6.756   7.680  4.6918 -2.1588 -0.7409
  455MOL0     O62653   8.719  10.973   4.821 -0.2703  0.1176 -0.2092
  455MOL0     C62654   8.619  10.991   4.888  0.8870 -0.2591 -0.4632
  455MOL0     O62655   8.494  10.959   4.843 -0.0960 -0.2272  0.3645
  455MOL0     C62656   8.487  10.890   4.731 -0.1781 -0.0190  0.9582
  455MOL0     C62657   8.450  10.955   4.623  0.0751 -0.2899 -0.3531
  455MOL0     C62658   8.431  10.884   4.499  0.1884  0.7653  0.0742
  455MOL0     C62659   8.471  10.750   4.488 -0.9591  0.0543  0.2300
  455MOL0     O62660   8.482  10.673   4.376 -0.3383 -0.1113 -0.3701
  455MOL0     C62661   8.456  10.740   4.250  0.3590 -0.3849 -0.2003
  455MOL0     C62662   8.474  10.644   4.132 -0.0536  0.4776 -0.2401
  455MOL0     C62663   8.618  10.600   4.098  0.2821  0.9056 -0.1313
  455MOL0     C62664   8.621  10.493   3.986  0.1784  0.6422  0.0350
  455MOL0     C62665   8.726  10.541   3.884 -0.2506 -0.5440  0.2573
  455MOL0     C62666   8.878  10.536   3.924  0.0550 -0.0786 -0.6730
  455MOL0     C62667   8.960  10.628   3.828  0.1113  0.2922  0.3037
  455MOL0     C62668   8.960  10.784   3.864  0.6124 -0.0230 -0.1840
  455MOL0     N62669   9.051  10.804   3.974  1.1380  0.0470 -0.0415
  455MOL0     C62670   9.046  10.904   4.072 -0.2937  0.2008 -0.7528
  455MOL0     C62671   9.166  10.912   4.133  0.0712  0.0820  0.6454
  455MOL0     C62672   9.204  10.986   4.259  1.2462  0.2670 -0.4438
  455MOL0     C62673   9.242  11.141   4.234 -0.1844  0.4254  0.2841
  455MOL0     C62674   9.255  11.222   4.356  0.0131  0.5160  0.9902
  455MOL0     C62675   9.292  11.372   4.326  0.4170  0.1967  0.6075
  455MOL0     O62676   9.260  11.440   4.448  0.3786 -0.1215  0.2607
  455MOL0     C62677   9.269  11.579   4.432  0.4989  0.0138 -0.2142
  455MOL0     C62678   9.249  11.652   4.549 -0.5161 -1.2008  0.1793
  455MOL0     C62679   9.239  11.801   4.557  0.3728 -0.7892  0.3556
  455MOL0     C62680   9.203  11.860   4.692 -0.0598 -0.1583  0.1782
  455MOL0     C62681   9.252  11.872   4.433 -0.1335 -0.6857 -0.2781
  455MOL0     C62682   9.229  12.020   4.420  0.4758  0.9234 -1.0975
  455MOL0     O62683   9.211  12.062   4.295  0.2363  0.2430  0.5657
  455MOL0     C62684   9.170  12.191   4.263  0.1908  0.4373  0.1309
  455MOL0     C62685   9.073  12.262   4.336 -0.2211 -0.3125 -0.4337
  455MOL0     C62686   9.045  12.393   4.295 -0.7020  0.1728 -0.8835
  455MOL0     C62687   9.101  12.459   4.182  0.6530 -0.0255 -0.3220
  455MOL0     O62688   9.060  12.591   4.157  0.2926  0.2288  0.3036
  455MOL0     C62689   9.108  12.650   4.033  1.0640  0.3284  0.3356
  455MOL0     C62690   9.100  12.797   4.026 -0.3889 -0.6280 -0.2910
  455MOL0     C62691   9.130  12.856   3.882 -0.3978 -0.2534 -0.2879
  455MOL0     C62692   9.101  13.000   3.847  0.1204 -0.8359 -0.4816
  455MOL0     C62693   8.967  13.059   3.881 -0.0964  0.5687 -0.9989
  455MOL0     C62694   8.947  13.182   3.801 -0.7328 -0.0261 -0.2887
  455MOL0     C62695   8.822  13.268   3.834  0.4379 -0.4884 -0.5199
  455MOL0     C62696   8.776  13.362   3.720  0.4757  0.5815 -0.6077
  455MOL0    Cl62697   8.681  13.275   3.600 -0.2417 -0.6119  0.0119
  455MOL0     C62698   9.191  12.374   4.110 -0.0693  0.4724 -0.1765
  455MOL0     C62699   9.217  12.246   4.145  0.5476  0.2784  0.2674
  455MOL0     O62700   9.233  12.088   4.521 -0.0546  0.3596 -0.2478
  455MOL0     C62701   9.283  11.788   4.316  0.0567 -1.0031 -0.0619
  455MOL0     C62702   9.293  11.655   4.315 -0.0135 -0.1904 -0.7622
  455MOL0     N62703   9.242  10.821   4.064  0.2668  0.0652  0.0164
  455MOL0     N62704   9.170  10.749   3.983 -0.9061 -0.0986 -1.1908
  455MOL0     C62705   8.485  10.690   4.610 -0.1305  0.5650 -0.0419
  455MOL0     C62706   8.498  10.754   4.732  0.0599  0.5290  1.0991
  455MOL0     C62707   8.634  11.058   5.018 -0.7345  0.2298  0.6789
  455MOL0     C62708   8.748  11.134   5.029  0.1711  0.3531  0.4697
  455MOL0     C62709   8.767  11.207   5.148  0.5602 -0.4366 -0.8854
  455MOL0     C62710   8.668  11.207   5.254 -0.4037 -0.3628 -0.0752
  455MOL0     O62711   8.650  11.294   5.363 -0.4097 -0.5099  0.0865
  455MOL0     C62712   8.750  11.397   5.378 -0.2887 -0.0118  0.3539
  455MOL0     C62713   8.714  11.511   5.483 -0.2866 -0.2516 -0.9196
  455MOL0     C62714   8.608  11.615   5.415 -0.6848  1.1990 -0.0298
  455MOL0     C62715   8.537  11.701   5.512  0.4355  0.1042 -0.1064
  455MOL0     C62716   8.629  11.810   5.554 -0.3372 -0.1933  0.0040
  455MOL0     C62717   8.709  11.890   5.601  0.0989  0.6586 -0.2459
  455MOL0     C62718   8.566  11.114   5.241  0.4615 -0.0528 -0.8855
  455MOL0     C62719   8.538  11.041   5.120 -1.1892 -0.7480 -0.2402
  455MOL0     C62720   8.422  10.949   5.115 -1.4930  0.6961  0.0676
  455MOL0     H62721   8.425  11.060   4.631  3.6322  0.6863 -0.4480
  455MOL0     H62722   8.397  10.938   4.411 -0.8907  0.8890  0.5558
  455MOL0     H62723   8.515  10.831   4.242 -0.3718  0.3025  1.5829
  455MOL0     H62724   8.352  10.774   4.252  0.6277  0.5963  3.0868
  455MOL0     H62725   8.415  10.553   4.148  1.3937  0.0760  3.8090
  455MOL0     H62726   8.426  10.700   4.051 -1.7133  0.9874  1.0478
  455MOL0     H62727   8.649  10.701   4.069  0.5604  0.9727  0.3757
  455MOL0     H62728   8.677  10.566   4.184  1.5249  4.4748  0.6265
  455MOL0     H62729   8.649  10.397   4.028  0.9746  0.3362 -1.1382
  455MOL0     H62730   8.530  10.490   3.925  0.2020  1.6114 -0.0755
  455MOL0     H62731   8.694  10.640   3.851  0.2604 -0.6732 -0.6687
  455MOL0     H62732   8.718  10.483   3.791  0.5643  0.6828 -0.6155
  455MOL0     H62733   8.887  10.568   4.028  3.5431  0.8785 -1.1377
  455MOL0     H62734   8.915  10.434   3.938 -0.3060  0.0824  1.7906
  455MOL0     H62735   8.927  10.609   3.725  2.4181 -1.0845 -0.2344
  455MOL0     H62736   9.062  10.591   3.831  0.1108  0.3557  1.7227
  455MOL0     H62737   8.992  10.839   3.775  0.0255  1.1543  0.3238
  455MOL0     H62738   8.860  10.827   3.879 -0.6103 -2.8227  0.4334
  455MOL0     H62739   8.960  10.969   4.089  0.3226  0.7732  0.2661
  455MOL0     H62740   9.290  10.933   4.301  1.3694  1.3881  0.7925
  455MOL0     H62741   9.123  10.971   4.330  2.5713  1.6831  1.4782
  455MOL0     H62742   9.339  11.145   4.183 -0.6912  1.6134 -0.6327
  455MOL0     H62743   9.174  11.194   4.166  0.8224  2.1577  0.5509
  455MOL0     H62744   9.160  11.217   4.410  1.5584 -0.8931  3.8142
  455MOL0     H62745   9.328  11.181   4.427 -1.0759 -0.2488  1.6965
  455MOL0     H62746   9.397  11.377   4.295  1.2669 -0.9330  3.0513
  455MOL0     H62747   9.223  11.402   4.246  0.6200 -1.1565 -0.1072
  455MOL0     H62748   9.245  11.612   4.650  0.0942 -0.5583  0.4685
  455MOL0     H62749   9.261  11.952   4.706  1.1828 -0.3455 -2.9380
  455MOL0     H62750   9.241  11.792   4.768 -0.9580 -0.6168  0.2231
  455MOL0     H62751   9.097  11.888   4.690 -0.4820 -1.4790  2.1957
  455MOL0     H62752   9.010  12.215   4.411 -1.4654 -0.4633 -1.5245
  455MOL0     H62753   8.989  12.453   4.366  2.0430  1.4280  0.3949
  455MOL0     H62754   9.211  12.618   4.014 -0.8118 -3.9408 -5.6008
  455MOL0     H62755   9.058  12.604   3.948  3.3401 -2.1814  0.2237
  455MOL0     H62756   9.003  12.835   4.060 -0.3380  2.0780 -2.7975
  455MOL0     H62757   9.170  12.838   4.099  0.3570 -1.3106 -0.6064
  455MOL0     H62758   9.065  12.807   3.809  0.4629 -1.6981 -0.1252
  455MOL0     H62759   9.233  12.835   3.851  0.7423  2.5027  1.2189
  455MOL0     H62760   9.118  13.012   3.740  0.9220 -1.8982 -0.4949
  455MOL0     H62761   9.177  13.059   3.900 -3.6144  2.7983  1.3323
  455MOL0     H62762   8.888  12.988   3.856  2.0736 -3.1768  1.7009
  455MOL0     H62763   8.962  13.077   3.989 -0.7043 -3.3868 -0.2354
  455MOL0     H62764   8.942  13.146   3.697  3.0842 -1.3472 -0.1715
  455MOL0     H62765   9.044  13.230   3.814 -0.4636 -0.4276 -0.7488
  455MOL0     H62766   8.843  13.326   3.925 -0.9016  0.4331 -0.7585
  455MOL0     H62767   8.745  13.194   3.859  0.6486 -0.0987  1.4471
  455MOL0     H62768   8.863  13.413   3.679  2.3425  0.0828  2.4316
  455MOL0     H62769   8.713  13.439   3.767 -0.3119 -1.1283  1.3034
  455MOL0     H62770   9.248  12.415   4.026 -2.0572  1.8727 -0.9323
  455MOL0     H62771   9.290  12.198   4.081  0.7018  0.1990  0.5038
  455MOL0     H62772   9.280  11.830   4.216  0.0860 -0.9788 -0.0525
  455MOL0     H62773   9.309  11.611   4.218  5.1046  0.3840 -0.4225
  455MOL0     H62774   8.504  10.583   4.604  0.3849  0.6762 -0.4805
  455MOL0     H62775   8.509  10.704   4.827  0.9118 -0.1216  0.6791
  455MOL0     H62776   8.826  11.145   4.955 -0.5997 -3.5895 -1.1980
  455MOL0     H62777   8.857  11.264   5.164  1.1236 -0.7139 -2.7830
  455MOL0     H62778   8.845  11.356   5.416  0.8024  1.7451 -0.3384
  455MOL0     H62779   8.764  11.443   5.280  0.8511 -0.0716  0.4696
  455MOL0     H62780   8.805  11.564   5.514 -1.9537  1.3998  1.4583
  455MOL0     H62781   8.682  11.467   5.577  4.1090  1.3043  1.5850
  455MOL0     H62782   8.660  11.681   5.346 -0.9568  1.5514  0.1012
  455MOL0     H62783   8.531  11.569   5.352  0.0071 -0.2078  0.0976
  455MOL0     H62784   8.496  11.654   5.601 -2.6237  1.8758 -0.4310
  455MOL0     H62785   8.450  11.753   5.470 -0.0128  0.5761  1.3447
  455MOL0     H62786   8.785  11.949   5.648  0.9465 -0.3294 -0.3144
  455MOL0     H62787   8.487  11.108   5.316  2.5478  2.2818  1.7289
  455MOL0     H62788   8.369  10.935   5.211 -1.2655  2.1628  0.4229
  455MOL0     H62789   8.341  10.977   5.047 -0.7613 -0.2239 -1.2239
  455MOL0     H62790   8.457  10.851   5.082 -0.3020  2.2655 -3.8373
  456MOL0     O62791   9.124   9.955   0.006 -0.0017  0.5162  0.0460
  456MOL0     C62792   9.128   9.907  -0.110 -0.0549  0.4501 -0.0271
  456MOL0     O62793   9.108   9.777  -0.148 -0.3189  0.5479  0.1526
  456MOL0     C62794   9.111   9.692  -0.048 -0.2989 -0.1864  0.3079
  456MOL0     C62795   9.230   9.640  -0.004  0.0358 -0.5591 -0.3896
  456MOL0     C62796   9.232   9.551   0.109  0.0579  0.4099  0.0763
  456MOL0     C62797   9.113   9.499   0.160 -0.1486 -0.1436  0.0305
  456MOL0     O62798   9.098   9.403   0.258  0.7325 -0.1925 -0.4091
  456MOL0     C62799   9.193   9.306   0.271  0.4923 -0.5481 -0.2386
  456MOL0     C62800   9.149   9.208   0.386  0.1579 -0.3485 -0.0947
  456MOL0     C62801   9.140   9.268   0.523  0.1002  0.4597 -0.0228
  456MOL0     C62802   9.112   9.158   0.621  0.0970 -0.4229  0.1904
  456MOL0     C62803   9.066   9.184   0.758 -0.6223  0.5136  0.2412
  456MOL0     C62804   9.064   9.058   0.847  0.4156  0.0014 -0.1775
  456MOL0     C62805   8.969   9.095   0.962  0.3989 -0.1406  0.8750
  456MOL0     C62806   8.819   9.070   0.923 -0.4191 -0.2603  0.7409
  456MOL0     N62807   8.759   8.944   0.971 -0.5875  0.9350 -1.0301
  456MOL0     C62808   8.824   8.824   0.989  0.5137 -1.2026  0.3858
  456MOL0     C62809   8.733   8.752   1.053  0.7532  0.3281  0.2824
  456MOL0     C62810   8.718   8.607   1.087  0.2537  0.2078  0.3108
  456MOL0     C62811   8.844   8.547   1.137  0.5312 -0.5078 -0.2635
  456MOL0     C62812   8.829   8.392   1.161  0.1227  0.1792  0.3612
  456MOL0     C62813   8.959   8.313   1.126  1.0367  0.4233 -1.0376
  456MOL0     O62814   9.072   8.337   1.210  0.4935 -0.2251  0.1420
  456MOL0     C62815   9.066   8.245   1.318 -0.2205 -0.2065 -0.4689
  456MOL0     C62816   9.034   8.299   1.445  0.2705 -0.7112 -0.2719
  456MOL0     C62817   9.041   8.215   1.558 -0.2720  0.1399 -0.6888
  456MOL0     C62818   9.029   8.278   1.697  0.2004 -0.3324  0.4490
  456MOL0     C62819   9.053   8.073   1.535 -0.3486  0.0121 -0.3935
  456MOL0     C62820   9.052   7.963   1.640  0.8192  0.2211 -0.4809
  456MOL0     O62821   9.070   7.840   1.594 -0.4232  0.8537  0.0480
  456MOL0     C62822   9.098   7.728   1.676  1.0917 -1.1358  0.0987
  456MOL0     C62823   9.118   7.718   1.814  0.1857  0.0172 -0.0696
  456MOL0     C62824   9.156   7.592   1.877 -0.5966  1.1495 -0.3672
  456MOL0     C62825   9.173   7.472   1.795 -0.2983 -1.0535  0.6270
  456MOL0     O62826   9.224   7.362   1.856 -0.4415  0.5030  1.1183
  456MOL0     C62827   9.185   7.234   1.811 -0.3325 -0.7639  0.1572
  456MOL0     C62828   9.050   7.196   1.876  0.3924 -0.6741 -0.8472
  456MOL0     C62829   9.044   7.224   2.030 -0.9945  0.2707 -0.1538
  456MOL0     C62830   9.136   7.142   2.113  0.2721  0.5392  0.4657
  456MOL0     C62831   9.122   6.993   2.096  0.5978  0.3738  0.5608
  456MOL0     C62832   9.225   6.927   2.177  1.0951  0.0539  0.4895
  456MOL0     C62833   9.213   6.779   2.173  1.2725  0.9872  1.2637
  456MOL0     C62834   9.332   6.717   2.242  0.2332  0.5827  0.0460
  456MOL0    Cl62835   9.365   6.787   2.409 -0.0275  0.4513 -0.5176
  456MOL0     C62836   9.152   7.493   1.657  0.7441  0.0580 -0.0174
  456MOL0     C62837   9.116   7.618   1.596 -0.9584  1.3093 -0.1530
  456MOL0     O62838   9.050   7.994   1.759  0.6252 -0.5117  0.2098
  456MOL0     C62839   9.068   8.024   1.403 -0.1917  0.2420  0.1605
  456MOL0     C62840   9.078   8.109   1.293  0.2511 -0.0250  0.1942
  456MOL0     N62841   8.623   8.830   1.092 -0.0230  0.3349 -0.1090
  456MOL0     N62842   8.648   8.943   1.039  0.6471 -0.0735 -0.2089
  456MOL0     C62843   8.991   9.558   0.111  0.1945  0.6002  0.4007
  456MOL0     C62844   8.990   9.652   0.004  0.2705 -0.0867 -0.0558
  456MOL0     C62845   9.148  10.007  -0.220  0.2977 -0.0547  0.0313
  456MOL0     C62846   9.071  10.125  -0.208 -0.0847 -0.3438  0.8808
  456MOL0     C62847   9.088  10.223  -0.315  0.4825 -0.2064  0.0481
  456MOL0     C62848   9.178  10.198  -0.419 -0.0745 -0.2258  0.0217
  456MOL0     O62849   9.207  10.294  -0.519  0.5853 -0.7169  0.6038
  456MOL0     C62850   9.160  10.434  -0.496 -0.7675 -0.2123  0.2047
  456MOL0     C62851   9.224  10.509  -0.614 -0.5162 -0.0106  0.1214
  456MOL0     C62852   9.202  10.658  -0.603 -0.3092  1.1225  0.7068
  456MOL0     C62853   9.221  10.733  -0.738 -0.8620  0.1945 -0.8749
  456MOL0     C62854   9.341  10.713  -0.815 -0.3996  0.0953 -1.0467
  456MOL0     C62855   9.428  10.718  -0.897  0.8622 -0.2908 -0.0559
  456MOL0     C62856   9.261  10.090  -0.421 -0.4076  0.4477 -0.1763
  456MOL0     C62857   9.244   9.987  -0.318 -0.2592 -0.1088  0.7632
  456MOL0     C62858   9.343   9.868  -0.320 -1.0012 -0.5596 -0.2086
  456MOL0     H62859   9.324   9.662  -0.053 -0.4156  0.3766 -0.8442
  456MOL0     H62860   9.331   9.516   0.136  0.6370 -1.2401 -3.5857
  456MOL0     H62861   9.291   9.348   0.300  0.3503 -0.5268  0.2284
  456MOL0     H62862   9.190   9.255   0.175 -1.0353  1.7729 -1.5270
  456MOL0     H62863   9.053   9.166   0.354 -0.5831  0.4269  1.0312
  456MOL0     H62864   9.226   9.131   0.395  0.9733  0.6534  2.4302
  456MOL0     H62865   9.230   9.327   0.540  1.8295 -1.0001 -3.1847
  456MOL0     H62866   9.062   9.341   0.549  0.5361  1.0394 -0.3352
  456MOL0     H62867   9.049   9.081   0.576  1.9112 -2.0810  0.3711
  456MOL0     H62868   9.215   9.123   0.633  1.3433  1.3445 -3.5250
  456MOL0     H62869   8.965   9.226   0.749 -1.6509 -1.6245  1.0306
  456MOL0     H62870   9.119   9.270   0.800 -0.0998  0.3927 -0.1684
  456MOL0     H62871   9.028   8.970   0.793  2.0830 -0.2720 -0.9295
  456MOL0     H62872   9.167   9.031   0.873 -0.8194 -1.7622  3.5260
  456MOL0     H62873   8.992   9.191   1.010 -0.8302  1.3721 -1.3846
  456MOL0     H62874   8.993   9.027   1.045  0.7286 -1.9714 -0.6574
  456MOL0     H62875   8.763   9.158   0.955 -0.5842  0.1693 -0.6713
  456MOL0     H62876   8.799   9.074   0.816 -0.7384 -1.3775  0.7481
  456MOL0     H62877   8.918   8.797   0.943  2.2918  0.6301  2.6394
  456MOL0     H62878   8.680   8.549   1.003 -1.2719  0.1506  0.9930
  456MOL0     H62879   8.644   8.596   1.167 -1.9263 -1.8060 -1.8344
  456MOL0     H62880   8.922   8.565   1.063  1.1643 -0.1028  0.4890
  456MOL0     H62881   8.879   8.587   1.233 -0.6076 -3.6764  1.6216
  456MOL0     H62882   8.822   8.382   1.269 -0.9422  1.5681  0.4485
  456MOL0     H62883   8.742   8.356   1.105  0.5949 -0.0787 -0.2262
  456MOL0     H62884   8.920   8.211   1.124 -1.1393  1.1569  0.1193
  456MOL0     H62885   8.977   8.335   1.020 -0.0103 -0.2396 -1.3598
  456MOL0     H62886   9.033   8.405   1.465 -1.1787 -0.6405 -0.6538
  456MOL0     H62887   8.991   8.380   1.688  1.9639  0.4639  1.4307
  456MOL0     H62888   9.125   8.288   1.749 -0.8654 -0.9656  2.6878
  456MOL0     H62889   8.959   8.225   1.762 -1.9866  2.3942  0.5068
  456MOL0     H62890   9.093   7.804   1.876  0.3814  1.1702 -1.5450
  456MOL0     H62891   9.157   7.580   1.985  2.1366 -1.5101 -0.5451
  456MOL0     H62892   9.189   7.223   1.702  1.3387 -1.0789  0.2226
  456MOL0     H62893   9.254   7.159   1.850  0.6571 -0.8984 -1.7319
  456MOL0     H62894   8.979   7.264   1.828 -1.3906 -1.4390  0.5540
  456MOL0     H62895   9.012   7.097   1.853  0.4533 -0.4351 -2.0236
  456MOL0     H62896   8.943   7.198   2.063 -0.4621 -0.3113  1.0684
  456MOL0     H62897   9.061   7.329   2.057  0.1991  1.0128 -3.3624
  456MOL0     H62898   9.135   7.170   2.218  3.8992  2.8418  0.0560
  456MOL0     H62899   9.241   7.171   2.097  0.0125  1.4884  0.4341
  456MOL0     H62900   9.023   6.976   2.138 -1.9614  2.1822 -4.0391
  456MOL0     H62901   9.129   6.957   1.993 -0.7387 -1.8908  1.1910
  456MOL0     H62902   9.210   6.963   2.279  0.1670 -0.7195  0.6417
  456MOL0     H62903   9.321   6.958   2.136  0.0983 -0.1116 -2.1547
  456MOL0     H62904   9.216   6.754   2.066  0.3363 -1.1802  1.6856
  456MOL0     H62905   9.120   6.740   2.215  0.5615  1.3280  0.0540
  456MOL0     H62906   9.420   6.739   2.180 -1.4799 -2.0000 -3.6720
  456MOL0     H62907   9.332   6.608   2.252  1.5942  0.4551 -0.9964
  456MOL0     H62908   9.158   7.409   1.588 -0.8538  0.0628 -0.1936
  456MOL0     H62909   9.107   7.606   1.489  0.4122  0.2153 -0.1767
  456MOL0     H62910   9.069   7.920   1.370 -0.3836  1.0980 -2.8715
  456MOL0     H62911   9.103   8.079   1.192 -1.9753  2.3341 -1.1759
  456MOL0     H62912   8.899   9.519   0.151  1.4831 -1.2057  1.7706
  456MOL0     H62913   8.898   9.692  -0.037  1.6632  2.1607 -1.2055
  456MOL0     H62914   9.002  10.131  -0.125 -0.8020  0.8094  0.2315
  456MOL0     H62915   9.025  10.312  -0.317  1.4880  0.5141 -0.8172
  456MOL0     H62916   9.052  10.447  -0.501 -0.8419 -1.1934 -1.6459
  456MOL0     H62917   9.198  10.468  -0.400  0.9732  0.8646 -0.8149
  456MOL0     H62918   9.190  10.470  -0.710  2.2338 -0.4081 -0.7712
  456MOL0     H62919   9.330  10.481  -0.606 -0.6134 -0.0224  1.5277
  456MOL0     H62920   9.100  10.676  -0.569 -0.2404  2.6738  0.1786
  456MOL0     H62921   9.267  10.707  -0.530  1.6147 -0.0309 -0.1418
  456MOL0     H62922   9.202  10.839  -0.717  0.8945  0.3982 -0.0646
  456MOL0     H62923   9.139  10.709  -0.806  0.7035 -1.7886 -2.1781
  456MOL0     H62924   9.511  10.697  -0.961  1.4467 -2.6351  1.3421
  456MOL0     H62925   9.338  10.087  -0.497  1.7553  2.2053  1.8145
  456MOL0     H62926   9.303   9.773  -0.358 -1.8703 -1.2261  2.1948
  456MOL0     H62927   9.425   9.890  -0.389 -0.4976 -0.5272  0.3952
  456MOL0     H62928   9.383   9.848  -0.221 -2.7519 -0.9198  0.4648
  457MOL0     O62929   1.574   1.412   6.998  0.3262 -0.2562  0.9451
  457MOL0     C62930   1.518   1.520   6.970  0.2996  0.4001 -0.6124
  457MOL0     O62931   1.414   1.569   7.052 -1.0656 -0.0301 -0.0490
  457MOL0     C62932   1.374   1.503   7.160 -0.4468 -0.2125  0.4801
  457MOL0     C62933   1.378   1.575   7.278  0.6012 -0.0971 -0.0394
  457MOL0     C62934   1.341   1.515   7.400  0.6007 -0.2288  0.1994
  457MOL0     C62935   1.300   1.383   7.404 -0.4451 -0.4144 -0.1030
  457MOL0     O62936   1.259   1.320   7.518 -0.5364  0.2805  0.5585
  457MOL0     C62937   1.225   1.408   7.634 -0.6289 -0.2501  0.8789
  457MOL0     C62938   1.147   1.320   7.732  0.4787 -0.3962  0.5650
  457MOL0     C62939   1.108   1.390   7.866 -0.0595  0.5782 -0.0268
  457MOL0     C62940   1.018   1.301   7.960  0.0679 -0.6264  0.1555
  457MOL0     C62941   0.979   1.397   8.084  0.2405  1.0262 -0.0795
  457MOL0     C62942   0.867   1.349   8.183 -1.0090 -1.2197 -0.1703
  457MOL0     C62943   0.914   1.233   8.268 -0.0174 -0.6344  0.6842
  457MOL0     C62944   0.827   1.214   8.392 -0.1755 -0.9130  0.3065
  457MOL0     N62945   0.863   1.100   8.478  1.1498  0.3166  0.9537
  457MOL0     C62946   0.941   1.119   8.587  0.3535 -0.4073  1.1869
  457MOL0     C62947   0.921   1.014   8.666  0.7993 -0.2121  0.3891
  457MOL0     C62948   0.997   0.984   8.789 -0.2919 -1.1265 -1.0310
  457MOL0     C62949   1.071   0.861   8.792 -0.3496  0.1518  0.5414
  457MOL0     C62950   1.088   0.812   8.937 -0.1948 -0.0042  0.5939
  457MOL0     C62951   1.173   0.684   8.952  0.4104 -0.6177  0.0439
  457MOL0     O62952   1.306   0.691   8.903 -0.5572  0.0982 -0.1778
  457MOL0     C62953   1.376   0.567   8.909 -0.3754 -0.1235 -0.1372
  457MOL0     C62954   1.449   0.515   8.799  0.2128 -0.0546  0.2222
  457MOL0     C62955   1.501   0.387   8.788  0.4212  0.2511  0.1718
  457MOL0     C62956   1.544   0.350   8.646 -0.6389 -0.4496 -0.1290
  457MOL0     C62957   1.502   0.302   8.903 -0.3427  0.2249 -1.0054
  457MOL0     C62958   1.548   0.163   8.913  0.0462  0.2676 -0.3360
  457MOL0     O62959   1.488   0.074   9.004  0.8276  0.0162  0.4300
  457MOL0     C62960   1.529  -0.053   9.020 -0.2196 -0.3143  0.6289
  457MOL0     C62961   1.532  -0.154   8.918  0.1494  1.0158 -0.1558
  457MOL0     C62962   1.578  -0.284   8.946 -0.9898 -0.1782 -0.9004
  457MOL0     C62963   1.614  -0.317   9.070 -0.0749  0.5629 -0.6136
  457MOL0     O62964   1.664  -0.444   9.097  0.5617  0.3351 -0.3368
  457MOL0     C62965   1.770  -0.457   9.190 -0.8080 -0.2934 -0.0581
  457MOL0     C62966   1.867  -0.572   9.134  0.3216 -0.9017 -0.0132
  457MOL0     C62967   1.987  -0.568   9.231 -1.3215 -0.0327 -0.5134
  457MOL0     C62968   2.117  -0.594   9.137  0.0408 -0.5404  0.1557
  457MOL0     C62969   2.240  -0.556   9.219 -0.9542  0.3884 -1.1339
  457MOL0     C62970   2.273  -0.660   9.340  0.3177 -0.3626  0.1378
  457MOL0     C62971   2.425  -0.663   9.373  0.2557 -0.4662 -0.0557
  457MOL0     C62972   2.466  -0.765   9.482 -0.1731 -0.5382 -0.5074
  457MOL0    Cl62973   2.643  -0.741   9.537 -0.0802  0.2817  0.4656
  457MOL0     C62974   1.608  -0.220   9.172  0.1475  0.1982 -0.0189
  457MOL0     C62975   1.575  -0.088   9.147  0.0541 -0.4654  0.7216
  457MOL0     O62976   1.646   0.138   8.847  0.3308  0.0576  0.0933
  457MOL0     C62977   1.451   0.359   9.022  0.4987 -0.3139  0.6327
  457MOL0     C62978   1.381   0.482   9.023  0.0851  0.0317  1.0612
  457MOL0     N62979   0.827   0.933   8.602 -0.2812  0.3221 -0.0571
  457MOL0     N62980   0.805   0.974   8.483 -0.7462 -0.6104 -0.1595
  457MOL0     C62981   1.286   1.319   7.284 -0.6255 -0.6319  0.5969
  457MOL0     C62982   1.328   1.374   7.162 -0.1363  0.2024  0.0610
  457MOL0     C62983   1.561   1.600   6.863 -0.4233  0.8809  0.8289
  457MOL0     C62984   1.510   1.727   6.847 -1.0737 -0.0687 -1.1975
  457MOL0     C62985   1.548   1.820   6.753  0.3780  0.7000  0.2923
  457MOL0     C62986   1.643   1.781   6.660  0.5273 -0.4960 -0.3104
  457MOL0     O62987   1.677   1.879   6.568 -0.0116 -0.0274 -0.2984
  457MOL0     C62988   1.719   1.828   6.438  0.4121  0.6720 -0.2808
  457MOL0     C62989   1.705   1.939   6.331 -0.0808  1.0186 -0.4012
  457MOL0     C62990   1.737   1.886   6.191  0.0836 -0.3379  0.0085
  457MOL0     C62991   1.710   1.993   6.089 -0.4003  0.2402 -0.0047
  457MOL0     C62992   1.818   1.990   5.993  0.1829  0.1936 -0.1515
  457MOL0     C62993   1.908   1.981   5.914 -0.8477  0.7807  0.4614
  457MOL0     C62994   1.706   1.657   6.663  0.7411  0.1156 -0.1876
  457MOL0     C62995   1.671   1.563   6.768 -1.0508  0.1499  0.2541
  457MOL0     C62996   1.759   1.433   6.761  0.0288  0.0187  0.1311
  457MOL0     H62997   1.416   1.676   7.281  3.2631 -1.0417  1.3971
  457MOL0     H62998   1.337   1.579   7.488  1.8453 -0.1236  0.1898
  457MOL0     H62999   1.167   1.492   7.596 -0.4279 -0.8987 -0.9713
  457MOL0     H63000   1.316   1.438   7.687  1.3681  1.0911 -2.9009
  457MOL0     H63001   1.066   1.278   7.672  0.2008  1.0255 -0.1048
  457MOL0     H63002   1.210   1.238   7.768 -0.4604 -1.0985  0.6620
  457MOL0     H63003   1.201   1.402   7.922  1.1519 -3.4689 -0.8330
  457MOL0     H63004   1.068   1.490   7.847 -0.8291  0.2957  0.0835
  457MOL0     H63005   0.932   1.256   7.910 -2.1488  2.5958  0.7268
  457MOL0     H63006   1.070   1.210   7.988 -2.7367 -3.5470 -3.1694
  457MOL0     H63007   0.935   1.489   8.044 -1.9779  1.1253  2.3127
  457MOL0     H63008   1.068   1.420   8.142 -1.0616  1.0067  2.0257
  457MOL0     H63009   0.843   1.435   8.246 -3.3021 -1.4867 -0.5593
  457MOL0     H63010   0.776   1.328   8.125 -1.4308 -0.1210  0.0762
  457MOL0     H63011   1.017   1.258   8.293 -0.6083  1.6272  1.1147
  457MOL0     H63012   0.914   1.149   8.198 -1.5786  1.0068 -1.4467
  457MOL0     H63013   0.830   1.308   8.448 -2.0220 -1.7765  1.9592
  457MOL0     H63014   0.726   1.209   8.350 -1.3195 -0.1489  2.7836
  457MOL0     H63015   1.001   1.208   8.604 -0.5873  0.4878 -0.0114
  457MOL0     H63016   0.932   0.996   8.876  2.6155  3.0356  0.8974
  457MOL0     H63017   1.064   1.068   8.809  0.1130 -1.6053 -0.3605
  457MOL0     H63018   1.012   0.780   8.746  1.9041 -0.9619 -0.5827
  457MOL0     H63019   1.168   0.865   8.741 -0.5539 -0.6446  0.0724
  457MOL0     H63020   1.129   0.899   8.990 -0.2669  0.8197 -0.6492
  457MOL0     H63021   0.990   0.800   8.986 -0.2498  0.4455  0.5991
  457MOL0     H63022   1.178   0.668   9.061  0.2480  0.1274  0.1621
  457MOL0     H63023   1.116   0.599   8.913  0.5400  0.4875 -2.7292
  457MOL0     H63024   1.459   0.577   8.710 -3.1932  1.1197  0.4975
  457MOL0     H63025   1.550   0.242   8.631  2.6315 -0.3743 -0.0662
  457MOL0     H63026   1.643   0.388   8.616 -1.1221 -0.2675 -1.5912
  457MOL0     H63027   1.476   0.384   8.568 -1.2927 -1.0150  0.1880
  457MOL0     H63028   1.498  -0.127   8.818 -3.4353  0.9655  0.9130
  457MOL0     H63029   1.591  -0.365   8.875 -0.6939 -3.0022  2.1652
  457MOL0     H63030   1.832  -0.369   9.207  0.6285 -1.5906  1.7792
  457MOL0     H63031   1.729  -0.478   9.290  1.3526  0.2506  0.9929
  457MOL0     H63032   1.817  -0.666   9.158 -0.1269 -0.7744 -0.4200
  457MOL0     H63033   1.890  -0.571   9.027  2.9046 -1.2032  0.4926
  457MOL0     H63034   1.981  -0.640   9.313 -0.0063  3.2338  2.7049
  457MOL0     H63035   2.011  -0.470   9.272 -0.6462 -1.0448  1.6743
  457MOL0     H63036   2.111  -0.541   9.041 -1.5538 -0.7903  0.0949
  457MOL0     H63037   2.123  -0.702   9.116 -0.5732 -0.6536  0.5477
  457MOL0     H63038   2.319  -0.554   9.144 -1.1549  1.8365 -1.3407
  457MOL0     H63039   2.231  -0.454   9.257  0.4622  0.6997 -1.5655
  457MOL0     H63040   2.239  -0.759   9.310 -1.6977  0.8996 -2.1422
  457MOL0     H63041   2.216  -0.639   9.431  2.0740  1.7812  0.8586
  457MOL0     H63042   2.460  -0.566   9.410 -1.3736  0.5490 -1.0774
  457MOL0     H63043   2.484  -0.687   9.284  0.6869  0.9044 -0.1565
  457MOL0     H63044   2.441  -0.865   9.445  1.6098 -2.1873  2.3820
  457MOL0     H63045   2.411  -0.739   9.572 -0.4508 -1.4578 -0.4075
  457MOL0     H63046   1.635  -0.236   9.276 -0.9666 -1.4394  0.0558
  457MOL0     H63047   1.557  -0.024   9.232 -3.2921 -0.5676  0.2379
  457MOL0     H63048   1.460   0.295   9.110  2.7464 -0.7510  0.1499
  457MOL0     H63049   1.338   0.512   9.118 -0.1546 -0.3049  1.0587
  457MOL0     H63050   1.232   1.225   7.284 -2.4346  0.1663 -3.8265
  457MOL0     H63051   1.311   1.313   7.074  1.9344 -1.9926  1.0722
  457MOL0     H63052   1.428   1.762   6.909 -1.3705  0.7886 -2.0283
  457MOL0     H63053   1.504   1.918   6.737  0.0321  0.0703 -3.8090
  457MOL0     H63054   1.820   1.787   6.449 -0.4354 -1.1732  1.0303
  457MOL0     H63055   1.665   1.736   6.413  1.1915 -0.4835  2.0494
  457MOL0     H63056   1.769   2.019   6.371  0.9816 -0.9183  2.0590
  457MOL0     H63057   1.603   1.979   6.336 -0.9478 -1.1987  1.4803
  457MOL0     H63058   1.840   1.850   6.190  0.4865  0.7772 -0.0737
  457MOL0     H63059   1.667   1.804   6.173  1.0237 -0.5007 -3.4601
  457MOL0     H63060   1.713   2.090   6.139 -1.2333  0.5234 -0.4931
  457MOL0     H63061   1.616   1.974   6.037  0.9178 -1.7858 -1.8215
  457MOL0     H63062   1.984   1.968   5.839  0.7368 -1.7000  2.3525
  457MOL0     H63063   1.782   1.627   6.592  0.3522  3.4174 -2.2208
  457MOL0     H63064   1.696   1.344   6.765  1.8533 -1.4035 -1.2382
  457MOL0     H63065   1.824   1.425   6.673  0.3928 -0.3732  0.4315
  457MOL0     H63066   1.832   1.435   6.843  1.1873  0.4305 -0.8780
  458MOL0     O63067   2.751   4.043   7.081  0.0796 -0.4138 -0.1894
  458MOL0     C63068   2.785   4.149   7.023  0.4216  0.2975  0.1979
  458MOL0     O63069   2.835   4.149   6.896  0.0713  0.5166 -0.2980
  458MOL0     C63070   2.815   4.033   6.813 -0.1040 -0.6719  0.4514
  458MOL0     C63071   2.699   3.958   6.796 -0.1136 -0.6352  0.1616
  458MOL0     C63072   2.699   3.844   6.724  0.4797  0.1412  0.4205
  458MOL0     C63073   2.812   3.797   6.664 -0.7829  0.9256  0.3374
  458MOL0     O63074   2.799   3.681   6.596  0.2494  1.0982 -0.3803
  458MOL0     C63075   2.838   3.677   6.457 -0.1131 -0.0393 -0.5396
  458MOL0     C63076   2.781   3.791   6.371  0.4683  0.1402 -0.0966
  458MOL0     C63077   2.783   3.769   6.223 -0.1262  0.4280 -0.2250
  458MOL0     C63078   2.928   3.781   6.166  0.6164 -1.1352  0.7983
  458MOL0     C63079   2.989   3.642   6.166 -0.1585 -0.2327  0.3817
  458MOL0     C63080   3.130   3.637   6.109 -0.2836 -0.1141  0.0433
  458MOL0     C63081   3.197   3.495   6.115 -0.7288  0.1371 -0.2295
  458MOL0     C63082   3.246   3.451   6.256 -0.0543  0.5069 -0.7021
  458MOL0     N63083   3.313   3.546   6.338  1.0940  0.0371  1.2507
  458MOL0     C63084   3.450   3.558   6.342 -0.2498 -0.1671 -0.6906
  458MOL0     C63085   3.477   3.634   6.446 -0.9918  0.7146 -0.9544
  458MOL0     C63086   3.622   3.669   6.490  0.6024  0.1720  0.3280
  458MOL0     C63087   3.646   3.818   6.476 -0.3808  0.8118  0.1743
  458MOL0     C63088   3.667   3.852   6.332  0.0926 -0.3166 -0.2881
  458MOL0     C63089   3.678   4.009   6.326 -0.5921  0.4233 -0.4169
  458MOL0     O63090   3.802   4.063   6.370 -0.3042 -0.0748  0.1800
  458MOL0     C63091   3.837   4.194   6.351 -0.0960  0.3606 -0.2982
  458MOL0     C63092   3.961   4.238   6.402  0.7475  0.8014 -0.0578
  458MOL0     C63093   3.982   4.376   6.399 -0.3747  0.4553 -0.9359
  458MOL0     C63094   4.109   4.419   6.470  1.1190 -0.5159 -1.0648
  458MOL0     C63095   3.899   4.473   6.349  1.3297 -0.0978 -0.6651
  458MOL0     C63096   3.924   4.620   6.345  0.2386 -0.5999  0.1239
  458MOL0     O63097   3.808   4.689   6.326 -0.0158  0.0602  0.1461
  458MOL0     C63098   3.805   4.823   6.341  0.2264  0.4944 -0.6340
  458MOL0     C63099   3.762   4.874   6.460  1.1614 -0.3919 -0.4148
  458MOL0     C63100   3.736   5.017   6.470 -0.3103 -0.3293 -1.0042
  458MOL0     C63101   3.760   5.098   6.365 -0.4648 -0.2136  0.2556
  458MOL0     O63102   3.732   5.229   6.389 -0.0061  0.2850  0.1149
  458MOL0     C63103   3.789   5.331   6.309 -0.3405  0.0371  0.4961
  458MOL0     C63104   3.887   5.412   6.398 -0.2905 -0.5338 -0.1926
  458MOL0     C63105   3.997   5.325   6.450 -0.1600 -0.6806  0.2581
  458MOL0     C63106   4.112   5.404   6.493  0.4196  1.2289 -0.5820
  458MOL0     C63107   4.075   5.486   6.615  0.3303 -0.6639 -0.1237
  458MOL0     C63108   4.195   5.564   6.666  0.6956  0.2945 -0.3644
  458MOL0     C63109   4.169   5.595   6.819 -0.0508 -0.3909  0.0741
  458MOL0     C63110   4.276   5.685   6.875  0.2176 -0.5221 -0.2066
  458MOL0    Cl63111   4.283   5.666   7.044 -0.4117 -0.0907  0.0556
  458MOL0     C63112   3.819   5.043   6.252  0.1118  0.3632 -0.3725
  458MOL0     C63113   3.825   4.906   6.239 -0.0557 -0.3308 -0.0477
  458MOL0     O63114   4.035   4.673   6.357 -0.4567 -0.8081  0.8079
  458MOL0     C63115   3.779   4.417   6.301 -0.0755  0.5823  0.0265
  458MOL0     C63116   3.749   4.281   6.300  0.0201  0.0486  1.0957
  458MOL0     N63117   3.358   3.664   6.507  1.2762 -0.3652 -0.2668
  458MOL0     N63118   3.257   3.614   6.444  0.2818  0.1026  0.3843
  458MOL0     C63119   2.925   3.878   6.670  0.6498 -0.5425  0.2362
  458MOL0     C63120   2.933   3.997   6.739 -0.2693  0.4318  0.6272
  458MOL0     C63121   2.785   4.272   7.101 -0.6104 -0.1155  0.1958
  458MOL0     C63122   2.818   4.256   7.235  0.2044  0.6959 -0.9970
  458MOL0     C63123   2.831   4.364   7.324  0.1901  0.0443 -0.5254
  458MOL0     C63124   2.807   4.497   7.279  0.8083  0.2148  0.0074
  458MOL0     O63125   2.812   4.611   7.357  0.4203 -0.0940 -0.2027
  458MOL0     C63126   2.823   4.604   7.497  0.2324  0.4732 -0.3858
  458MOL0     C63127   2.837   4.749   7.544  0.1921 -0.2691 -0.2280
  458MOL0     C63128   2.980   4.800   7.511  0.0069  0.3626  1.5011
  458MOL0     C63129   3.094   4.741   7.596  0.5381  0.1983  1.1630
  458MOL0     C63130   3.146   4.613   7.552  0.3683 -0.9695 -0.5334
  458MOL0     C63131   3.204   4.521   7.514  0.2356 -0.8866 -0.2772
  458MOL0     C63132   2.771   4.509   7.140  0.7865  0.5174  0.1087
  458MOL0     C63133   2.751   4.400   7.050 -0.6743 -0.5046 -1.2234
  458MOL0     C63134   2.697   4.421   6.913  0.2755 -0.3789  0.0068
  458MOL0     H63135   2.605   3.986   6.843 -0.0158  0.8165 -0.4271
  458MOL0     H63136   2.617   3.773   6.715 -0.2030  1.0843 -1.2335
  458MOL0     H63137   2.805   3.583   6.412 -1.7678  0.6243 -0.7857
  458MOL0     H63138   2.947   3.688   6.455 -0.0595 -0.3071  0.5256
  458MOL0     H63139   2.678   3.798   6.407  0.9897  0.5659  1.4120
  458MOL0     H63140   2.827   3.890   6.379 -1.9498  1.4161 -0.9511
  458MOL0     H63141   2.744   3.672   6.192  1.5664  0.0792 -1.3578
  458MOL0     H63142   2.714   3.845   6.184 -0.7346  0.5482  1.0188
  458MOL0     H63143   2.917   3.815   6.062  0.3225  2.9704  1.9858
  458MOL0     H63144   2.989   3.850   6.224  1.3415 -0.2744 -0.9053
  458MOL0     H63145   2.925   3.575   6.108  2.8586 -4.1792  1.1702
  458MOL0     H63146   2.989   3.593   6.264  3.0667 -4.2740 -1.3420
  458MOL0     H63147   3.117   3.676   6.008 -0.9257  3.2461  1.3107
  458MOL0     H63148   3.193   3.713   6.155 -2.9844  1.9680  0.5912
  458MOL0     H63149   3.287   3.492   6.053  0.5410  2.6813  1.3010
  458MOL0     H63150   3.121   3.421   6.089  0.1049 -2.6455  4.1644
  458MOL0     H63151   3.160   3.411   6.311  2.0345 -2.8471  0.4092
  458MOL0     H63152   3.314   3.366   6.242  2.4225  2.3953 -0.7217
  458MOL0     H63153   3.531   3.527   6.277  0.6729  1.1980 -0.2254
  458MOL0     H63154   3.691   3.607   6.432  4.0795  3.8269  0.1422
  458MOL0     H63155   3.620   3.655   6.598 -1.4903  1.8396  0.5682
  458MOL0     H63156   3.563   3.870   6.525 -1.1730  1.0148 -1.2901
  458MOL0     H63157   3.741   3.835   6.528  0.8767  1.2518 -2.1217
  458MOL0     H63158   3.750   3.797   6.285  1.8054 -1.2920  3.5223
  458MOL0     H63159   3.573   3.832   6.280 -0.4889  0.2970  0.5206
  458MOL0     H63160   3.668   4.054   6.227 -0.7262 -0.1816 -0.6846
  458MOL0     H63161   3.602   4.052   6.391 -1.1426 -1.3454  0.1742
  458MOL0     H63162   4.034   4.171   6.445 -2.4779 -2.4441  0.8357
  458MOL0     H63163   4.179   4.464   6.398  0.7124 -1.4908 -2.1081
  458MOL0     H63164   4.166   4.343   6.523  0.0536 -1.2842 -0.9992
  458MOL0     H63165   4.095   4.504   6.538  1.2920  0.2889 -2.0055
  458MOL0     H63166   3.750   4.820   6.553 -0.7611  1.5730  0.5574
  458MOL0     H63167   3.690   5.068   6.554  0.3683  0.9074 -1.3561
  458MOL0     H63168   3.856   5.293   6.231  0.5403 -1.4958  1.9153
  458MOL0     H63169   3.716   5.395   6.260 -1.6065 -1.8700 -0.2152
  458MOL0     H63170   3.919   5.505   6.349 -0.3763  0.0215  0.7810
  458MOL0     H63171   3.831   5.449   6.484 -0.5085 -1.9905  0.3118
  458MOL0     H63172   4.040   5.245   6.389  3.4110 -2.9650  5.0260
  458MOL0     H63173   3.958   5.268   6.535 -0.7022 -1.4701 -0.5119
  458MOL0     H63174   4.163   5.464   6.418  0.4391  1.3487 -0.4739
  458MOL0     H63175   4.188   5.342   6.541  1.3001  0.8722 -2.3552
  458MOL0     H63176   4.002   5.564   6.591  1.6786  0.9753  0.8717
  458MOL0     H63177   4.033   5.427   6.696 -1.2325  0.7380  0.1412
  458MOL0     H63178   4.200   5.648   6.596 -1.1182 -0.0438 -0.9779
  458MOL0     H63179   4.282   5.498   6.660 -0.0541 -1.0011  1.8540
  458MOL0     H63180   4.172   5.504   6.880  1.0407 -1.2148 -1.1576
  458MOL0     H63181   4.068   5.635   6.834 -0.1123 -0.8144  0.8621
  458MOL0     H63182   4.234   5.786   6.863  0.9402 -0.0823  0.8864
  458MOL0     H63183   4.375   5.683   6.827  0.5354  3.8050 -0.0958
  458MOL0     H63184   3.839   5.104   6.164 -0.9879  2.5069  0.7794
  458MOL0     H63185   3.853   4.861   6.144  1.7834  2.4908 -0.9534
  458MOL0     H63186   3.706   4.485   6.259 -0.4344  0.0129 -0.2748
  458MOL0     H63187   3.655   4.246   6.257  0.8013 -1.5726  0.6106
  458MOL0     H63188   3.007   3.846   6.606 -0.4042  2.6328 -3.0489
  458MOL0     H63189   3.026   4.053   6.745  0.9988 -1.5935  0.8434
  458MOL0     H63190   2.836   4.159   7.278 -1.9186  0.5863 -0.2073
  458MOL0     H63191   2.859   4.344   7.427 -0.8839  2.6215  0.3400
  458MOL0     H63192   2.727   4.561   7.526 -0.1795  1.2133 -0.6071
  458MOL0     H63193   2.896   4.535   7.540 -1.1279 -1.2227 -0.7047
  458MOL0     H63194   2.827   4.747   7.653 -0.1053  2.7465 -0.1091
  458MOL0     H63195   2.760   4.812   7.498  0.1681 -1.8351 -2.4880
  458MOL0     H63196   2.994   4.786   7.403  0.9910  1.0727  1.5248
  458MOL0     H63197   2.983   4.909   7.520  0.9102  0.7749 -2.2424
  458MOL0     H63198   3.053   4.738   7.697  0.8399  3.5808  1.4804
  458MOL0     H63199   3.179   4.809   7.605  2.6710 -1.5775 -2.8706
  458MOL0     H63200   3.261   4.437   7.480  5.3902  2.0184  0.2961
  458MOL0     H63201   2.744   4.610   7.113 -1.4403  0.6459  2.3990
  458MOL0     H63202   2.766   4.379   6.839  1.5286  2.8188 -0.8446
  458MOL0     H63203   2.600   4.372   6.898  0.9899 -1.5919 -0.8341
  458MOL0     H63204   2.683   4.529   6.901  1.3082 -0.1914  0.3711
  459MOL0     O63205   5.021   0.996   1.455  0.3880  0.8686 -0.0128
  459MOL0     C63206   4.903   0.969   1.467  0.8327  0.0678 -0.2460
  459MOL0     O63207   4.860   0.846   1.489  0.4642  0.7857  0.5435
  459MOL0     C63208   4.918   0.730   1.461  0.0645  0.1385 -1.7083
  459MOL0     C63209   5.007   0.711   1.355  0.2321 -0.0256 -0.3162
  459MOL0     C63210   5.062   0.584   1.334 -0.3976  0.0317  0.5521
  459MOL0     C63211   5.039   0.480   1.421 -0.4056  0.3874 -0.2197
  459MOL0     O63212   5.088   0.353   1.392 -0.0443 -0.7721  0.1209
  459MOL0     C63213   5.042   0.293   1.266 -0.8946  0.1388  0.4797
  459MOL0     C63214   5.050   0.140   1.285 -0.1538  0.6215  0.0457
  459MOL0     C63215   4.961   0.068   1.189  0.0116  0.6832 -1.3689
  459MOL0     C63216   4.813   0.086   1.219 -0.2601 -0.4817  0.3210
  459MOL0     C63217   4.720   0.027   1.111 -0.1631  0.4413 -0.0262
  459MOL0     C63218   4.573   0.068   1.137 -0.9459  1.1434 -0.7469
  459MOL0     C63219   4.547   0.197   1.062  0.7152 -0.3851 -0.1439
  459MOL0     C63220   4.399   0.214   1.016  0.4335 -0.1112 -0.1274
  459MOL0     N63221   4.307   0.230   1.133  1.0430  0.3226  0.4873
  459MOL0     C63222   4.262   0.353   1.178  0.5367  0.7347  1.8483
  459MOL0     C63223   4.171   0.317   1.273 -0.2562 -0.6286 -0.4587
  459MOL0     C63224   4.112   0.418   1.361 -0.0502 -0.2685  0.6195
  459MOL0     C63225   3.965   0.377   1.397 -0.1904  0.9756  0.0639
  459MOL0     C63226   3.859   0.347   1.286  1.1784 -0.0322  0.6524
  459MOL0     C63227   3.834   0.469   1.196 -0.3791 -1.1535 -0.2249
  459MOL0     O63228   3.956   0.528   1.138 -0.2499 -0.4472  0.3754
  459MOL0     C63229   4.008   0.473   1.020 -0.0501  0.0851  0.5028
  459MOL0     C63230   4.119   0.530   0.957  0.5245  0.4195  0.4209
  459MOL0     C63231   4.176   0.475   0.844 -0.0157  0.0221 -0.6209
  459MOL0     C63232   4.278   0.542   0.772  0.2276 -0.7618  0.0660
  459MOL0     C63233   4.141   0.348   0.796  0.6648 -0.6404 -0.1724
  459MOL0     C63234   4.204   0.289   0.682  0.0260  0.7063 -0.4548
  459MOL0     O63235   4.121   0.255   0.583 -0.1756 -0.2561  0.5078
  459MOL0     C63236   4.185   0.184   0.487  0.0964 -0.5608  0.1251
  459MOL0     C63237   4.279   0.246   0.389  0.1244  0.9305 -0.2080
  459MOL0     C63238   4.338   0.165   0.285  0.6046  0.0892 -1.0354
  459MOL0     C63239   4.297   0.032   0.272  0.3288 -0.0395 -0.1634
  459MOL0     O63240   4.340  -0.027   0.160 -0.4854 -1.0020  1.0149
  459MOL0     C63241   4.241  -0.100   0.082  0.1996 -0.3123 -0.4884
  459MOL0     C63242   4.127  -0.011   0.030 -0.5768  0.0540 -0.9621
  459MOL0     C63243   4.010  -0.098   0.012  0.1165 -0.3580  0.4052
  459MOL0     C63244   3.882  -0.005  -0.014  0.1583  0.4510 -0.3764
  459MOL0     C63245   3.771  -0.095  -0.062 -0.2067 -0.1912  0.4489
  459MOL0     C63246   3.658  -0.016  -0.130 -0.1908  0.1380  0.1002
  459MOL0     C63247   3.597   0.097  -0.035 -0.9213  0.1140 -0.3687
  459MOL0     C63248   3.536   0.058   0.094 -1.1128 -0.9651  0.2625
  459MOL0    Cl63249   3.375  -0.006   0.069 -0.1259 -0.1323 -0.0058
  459MOL0     C63250   4.205  -0.027   0.356  0.7873 -0.5071 -1.5505
  459MOL0     C63251   4.157   0.049   0.464 -0.4005  0.7450 -1.0870
  459MOL0     O63252   4.319   0.259   0.694 -1.0540  0.0338 -0.4123
  459MOL0     C63253   4.034   0.289   0.859  0.5755  0.8162 -0.0421
  459MOL0     C63254   3.968   0.349   0.965  0.5076 -0.0563 -0.6389
  459MOL0     N63255   4.157   0.176   1.283  0.1086 -0.9260  0.1201
  459MOL0     N63256   4.247   0.134   1.204 -0.0811 -0.3946 -0.4663
  459MOL0     C63257   4.949   0.503   1.528  0.0315 -0.9722  0.7494
  459MOL0     C63258   4.889   0.627   1.550 -0.6132 -0.8707 -0.1080
  459MOL0     C63259   4.794   1.077   1.474 -0.0282  0.1589 -0.3437
  459MOL0     C63260   4.673   1.044   1.396  0.6122 -0.4961 -0.2368
  459MOL0     C63261   4.566   1.138   1.393  0.4916  0.2400 -0.7445
  459MOL0     C63262   4.572   1.252   1.474  0.8293  0.4827 -0.3039
  459MOL0     O63263   4.458   1.321   1.484  0.0447  0.2934  0.0020
  459MOL0     C63264   4.431   1.399   1.603 -0.3949  0.2556 -0.4990
  459MOL0     C63265   4.454   1.543   1.568 -0.0120 -0.4481  0.2512
  459MOL0     C63266   4.373   1.644   1.650 -0.1062  0.0752  0.1674
  459MOL0     C63267   4.222   1.641   1.633 -0.2311  0.0728 -0.2072
  459MOL0     C63268   4.141   1.742   1.704  0.2548  0.4004  0.5356
  459MOL0     C63269   4.061   1.812   1.770 -0.3001 -1.1055  0.2605
  459MOL0     C63270   4.689   1.282   1.549  1.1258  0.7801  0.8093
  459MOL0     C63271   4.807   1.202   1.541 -0.1520  0.0178 -0.5385
  459MOL0     C63272   4.936   1.266   1.585  0.4665 -0.2951 -0.7692
  459MOL0     H63273   5.023   0.793   1.286  0.1089  0.9755  0.8075
  459MOL0     H63274   5.119   0.552   1.247 -0.1684 -1.1584  1.1135
  459MOL0     H63275   5.118   0.306   1.188  0.5017  1.7596  2.0040
  459MOL0     H63276   4.942   0.325   1.234 -0.5971 -1.0805 -1.8054
  459MOL0     H63277   5.144   0.089   1.269  0.0499  0.3964  1.8061
  459MOL0     H63278   5.022   0.112   1.386  1.1949 -2.0122 -0.2373
  459MOL0     H63279   4.979   0.093   1.084 -1.6147  2.1679 -1.3346
  459MOL0     H63280   4.985  -0.038   1.197 -0.9684  0.3139 -2.8809
  459MOL0     H63281   4.794   0.039   1.316 -0.6217  2.5711  1.8445
  459MOL0     H63282   4.791   0.191   1.242  0.2441  0.3560 -2.6837
  459MOL0     H63283   4.710  -0.080   1.131 -2.1330  1.0854  3.1540
  459MOL0     H63284   4.746   0.047   1.006 -2.8564  0.7974 -0.6909
  459MOL0     H63285   4.516  -0.015   1.095  2.0417 -0.6809 -1.4979
  459MOL0     H63286   4.551   0.092   1.241 -0.6657 -0.9041 -0.1778
  459MOL0     H63287   4.616   0.197   0.978  2.9435 -3.5398  1.4777
  459MOL0     H63288   4.563   0.286   1.123 -1.9165  0.3838 -0.4254
  459MOL0     H63289   4.409   0.298   0.947 -0.7029  0.0334 -0.1405
  459MOL0     H63290   4.376   0.124   0.958  2.0793 -0.7035  0.0740
  459MOL0     H63291   4.283   0.456   1.149 -3.1139  0.4574 -3.0876
  459MOL0     H63292   4.118   0.519   1.318  0.4445 -0.8068 -0.6396
  459MOL0     H63293   4.174   0.445   1.447  1.0624  1.7526 -0.7244
  459MOL0     H63294   3.975   0.282   1.450  2.4563  1.1247 -0.0317
  459MOL0     H63295   3.926   0.457   1.461 -2.2984 -1.6765  2.3541
  459MOL0     H63296   3.896   0.272   1.215  1.9478  0.6014  0.3664
  459MOL0     H63297   3.764   0.323   1.334  1.5258 -1.4891  0.6601
  459MOL0     H63298   3.771   0.446   1.110  1.8314 -1.2427 -1.9223
  459MOL0     H63299   3.776   0.551   1.239 -0.3049  1.1514 -4.0573
  459MOL0     H63300   4.141   0.629   0.996 -2.3469  0.7011  1.5165
  459MOL0     H63301   4.317   0.634   0.817  0.1122  0.5114 -2.3197
  459MOL0     H63302   4.227   0.574   0.681  0.3389 -5.1202 -1.7737
  459MOL0     H63303   4.364   0.477   0.751 -0.3326 -1.5403  0.1579
  459MOL0     H63304   4.315   0.346   0.408  1.5503  0.0023  2.6344
  459MOL0     H63305   4.396   0.210   0.205 -1.1675  2.0229 -1.3195
  459MOL0     H63306   4.296  -0.141  -0.003 -3.2505  0.1691 -3.1642
  459MOL0     H63307   4.200  -0.183   0.141 -2.9723  0.3220 -1.6262
  459MOL0     H63308   4.102   0.067   0.103  1.3288  1.6107 -1.8576
  459MOL0     H63309   4.168   0.032  -0.062  0.3891 -2.4377 -1.7844
  459MOL0     H63310   3.992  -0.164   0.098 -2.6854  0.5402  0.6159
  459MOL0     H63311   4.030  -0.166  -0.071 -1.3761  0.1295 -0.3987
  459MOL0     H63312   3.913   0.057  -0.098 -0.4288  0.6223 -0.4733
  459MOL0     H63313   3.851   0.048   0.077 -0.1375 -0.6298  0.1636
  459MOL0     H63314   3.801  -0.172  -0.134  3.5868  2.7463 -1.4932
  459MOL0     H63315   3.740  -0.153   0.025 -0.6704  1.9767  1.8170
  459MOL0     H63316   3.582  -0.090  -0.156  0.2762 -0.0742 -0.7178
  459MOL0     H63317   3.710   0.023  -0.218 -1.3445 -1.7060 -1.4755
  459MOL0     H63318   3.518   0.146  -0.092 -0.0245  2.5102  0.3159
  459MOL0     H63319   3.681   0.167  -0.023 -0.4715 -0.4585 -0.1500
  459MOL0     H63320   3.540   0.146   0.160 -1.0172  0.4336 -1.5133
  459MOL0     H63321   3.601  -0.017   0.140  1.6277  2.1861  2.0399
  459MOL0     H63322   4.158  -0.124   0.340 -2.9571  0.5035  1.7733
  459MOL0     H63323   4.099  -0.003   0.540 -0.5180  0.7822 -1.1491
  459MOL0     H63324   3.994   0.194   0.825  0.2263  1.5303 -1.7219
  459MOL0     H63325   3.883   0.293   1.003  0.2932  0.3142 -0.5685
  459MOL0     H63326   4.921   0.427   1.601  1.9881  0.2615  2.9351
  459MOL0     H63327   4.812   0.641   1.625 -1.5925 -0.5963 -1.1419
  459MOL0     H63328   4.678   0.964   1.323  0.2435 -0.5467 -0.2102
  459MOL0     H63329   4.485   1.117   1.325  0.3108  3.7002 -1.8195
  459MOL0     H63330   4.326   1.387   1.632  0.2303 -1.2343  1.3841
  459MOL0     H63331   4.480   1.358   1.692 -0.3066 -1.1259 -1.1450
  459MOL0     H63332   4.431   1.563   1.463  1.4897  1.2229  0.1899
  459MOL0     H63333   4.560   1.566   1.587 -0.3536  0.5400  1.0528
  459MOL0     H63334   4.404   1.608   1.749  0.7706  0.1042 -0.0872
  459MOL0     H63335   4.418   1.743   1.646  1.0385 -0.3510  1.5040
  459MOL0     H63336   4.190   1.541   1.664 -1.5383 -0.1182 -1.9811
  459MOL0     H63337   4.198   1.633   1.527 -3.6816 -0.9727  0.5226
  459MOL0     H63338   3.979   1.871   1.807  0.9651  1.4745 -0.7454
  459MOL0     H63339   4.705   1.372   1.608 -1.1834  0.6783  1.7103
  459MOL0     H63340   4.960   1.234   1.687  0.4148  0.5116 -0.4976
  459MOL0     H63341   5.017   1.249   1.513  0.6167  2.4503 -1.3508
  459MOL0     H63342   4.924   1.373   1.607 -1.7542 -0.7249  0.3989
  460MOL0     O63343   8.212   8.485   2.932 -0.1415 -0.3507 -0.0457
  460MOL0     C63344   8.124   8.411   2.971 -0.9221 -0.4074 -0.3728
  460MOL0     O63345   8.042   8.435   3.078 -0.0832  0.9043 -0.0945
  460MOL0     C63346   8.078   8.512   3.180  1.1970 -0.8221 -0.7149
  460MOL0     C63347   8.142   8.634   3.167  0.6097 -0.3885 -0.5995
  460MOL0     C63348   8.170   8.711   3.282  0.8567  0.2993  0.0193
  460MOL0     C63349   8.137   8.678   3.413  0.6040 -0.3016 -0.0561
  460MOL0     O63350   8.161   8.770   3.517 -0.1175 -0.1100  0.3331
  460MOL0     C63351   8.133   8.729   3.653  0.6570  0.1569 -0.9087
  460MOL0     C63352   8.207   8.818   3.754 -0.2072  0.9821 -0.1334
  460MOL0     C63353   8.246   8.728   3.882 -0.1400 -0.0931  0.1652
  460MOL0     C63354   8.250   8.815   4.013 -0.6853  0.7669 -0.5736
  460MOL0     C63355   8.280   8.722   4.130 -0.5371 -0.3869  0.2831
  460MOL0     C63356   8.175   8.619   4.159 -0.7110  0.3174 -0.8744
  460MOL0     C63357   8.205   8.548   4.292 -1.0953  0.1160  0.3386
  460MOL0     C63358   8.121   8.420   4.329 -0.2751 -0.9620 -0.2022
  460MOL0     N63359   7.985   8.442   4.386 -0.9807  0.1377  0.5818
  460MOL0     C63360   7.951   8.472   4.510 -0.1295  0.9479 -0.2799
  460MOL0     C63361   7.817   8.447   4.517 -0.0792 -0.2089  0.3476
  460MOL0     C63362   7.749   8.462   4.648  0.0147 -0.4133 -0.2689
  460MOL0     C63363   7.682   8.597   4.683 -0.8964 -0.5230 -0.1621
  460MOL0     C63364   7.559   8.613   4.591  0.4238  0.5258 -0.2878
  460MOL0     C63365   7.454   8.696   4.655  0.7868  0.7790  1.0426
  460MOL0     O63366   7.511   8.823   4.693 -0.4590  0.2355  0.5398
  460MOL0     C63367   7.436   8.888   4.791 -1.2114  0.2718  0.3124
  460MOL0     C63368   7.471   9.023   4.817  1.4033  0.1180 -0.9463
  460MOL0     C63369   7.380   9.110   4.889  0.7716 -0.2883 -0.4288
  460MOL0     C63370   7.420   9.251   4.902  0.4578 -0.4910  0.4732
  460MOL0     C63371   7.280   9.049   4.968 -0.1611  0.6296 -0.2951
  460MOL0     C63372   7.183   9.125   5.053 -0.4540 -0.8942 -0.0991
  460MOL0     O63373   7.170   9.261   5.034 -0.4283  0.5031  0.0823
  460MOL0     C63374   7.118   9.320   5.152  0.0759  1.0180 -0.0112
  460MOL0     C63375   7.205   9.368   5.250 -0.3734  0.4304  0.2429
  460MOL0     C63376   7.165   9.427   5.363  0.2748 -0.4656 -0.0486
  460MOL0     C63377   7.033   9.461   5.389 -0.5205 -0.6153 -0.6623
  460MOL0     O63378   6.995   9.538   5.495  0.2825 -0.0188 -0.3218
  460MOL0     C63379   7.081   9.615   5.574  0.1899 -0.2013  0.1302
  460MOL0     C63380   7.005   9.707   5.682  0.0588 -0.4641 -0.0218
  460MOL0     C63381   7.074   9.842   5.694 -0.2395 -0.3030 -0.4121
  460MOL0     C63382   7.225   9.850   5.702 -0.4542 -0.0405  0.2391
  460MOL0     C63383   7.271   9.999   5.688  0.2796  0.7786 -1.2890
  460MOL0     C63384   7.421  10.014   5.692 -0.7412 -0.5411 -0.3924
  460MOL0     C63385   7.468  10.154   5.736  0.0017  0.4056 -0.3145
  460MOL0     C63386   7.614  10.173   5.714 -0.1718  0.1968  0.3908
  460MOL0    Cl63387   7.659  10.327   5.790 -0.2235  0.0764  0.3514
  460MOL0     C63388   6.935   9.425   5.291 -0.2534 -0.1780 -0.7622
  460MOL0     C63389   6.979   9.344   5.180 -0.3583  0.3992  0.0648
  460MOL0     O63390   7.126   9.053   5.142  0.8717 -0.1161 -0.1821
  460MOL0     C63391   7.266   8.906   4.956  0.2180  0.2128  0.2514
  460MOL0     C63392   7.341   8.829   4.868 -0.2198  0.4091 -0.7525
  460MOL0     N63393   7.772   8.415   4.393 -0.2068 -1.0888  0.1847
  460MOL0     N63394   7.876   8.405   4.311  0.1175 -0.2426 -0.3137
  460MOL0     C63395   8.055   8.562   3.420  0.7454 -0.1671  0.1674
  460MOL0     C63396   8.032   8.480   3.312  0.2339 -0.5402  0.3917
  460MOL0     C63397   8.092   8.303   2.886  0.3412 -0.4629  0.6394
  460MOL0     C63398   7.993   8.321   2.793 -0.6938 -0.8732  0.2626
  460MOL0     C63399   7.954   8.214   2.720  0.2065  0.0120  0.6799
  460MOL0     C63400   8.013   8.088   2.725 -0.4607 -0.2768 -0.5107
  460MOL0     O63401   7.971   7.990   2.635 -0.5913 -0.9349 -0.2156
  460MOL0     C63402   8.065   7.900   2.585 -0.2449 -0.4298  0.1497
  460MOL0     C63403   7.986   7.829   2.469  0.8891 -0.2175 -0.0498
  460MOL0     C63404   7.848   7.762   2.524 -1.2143  0.7241 -0.6892
  460MOL0     C63405   7.882   7.665   2.638 -0.1265  0.0680 -0.8655
  460MOL0     C63406   7.987   7.562   2.601  0.7155  0.2679 -0.6039
  460MOL0     C63407   8.069   7.479   2.571  0.0313 -0.6569  0.4800
  460MOL0     C63408   8.120   8.063   2.821 -0.0063  0.0629  0.0289
  460MOL0     C63409   8.148   8.171   2.906  0.1257 -0.3879 -0.0170
  460MOL0     C63410   8.246   8.127   3.005 -0.6855 -0.0731  0.2717
  460MOL0     H63411   8.157   8.675   3.068 -1.4962  4.7906  0.9017
  460MOL0     H63412   8.221   8.806   3.274 -2.9006  2.5781  0.7493
  460MOL0     H63413   8.171   8.627   3.664  1.2622  0.0510 -3.3859
  460MOL0     H63414   8.027   8.719   3.680  0.7708 -2.4490 -1.1237
  460MOL0     H63415   8.300   8.863   3.717  0.2752 -0.0737 -0.2415
  460MOL0     H63416   8.137   8.898   3.782 -2.7916 -1.9442  2.5381
  460MOL0     H63417   8.167   8.652   3.890 -1.5496  0.4711 -4.9447
  460MOL0     H63418   8.341   8.679   3.862  0.0107  0.6406 -0.9904
  460MOL0     H63419   8.326   8.893   4.010 -1.1539  1.2674  0.3615
  460MOL0     H63420   8.149   8.857   4.021 -0.6964  0.3977  2.2412
  460MOL0     H63421   8.294   8.790   4.215  2.8700  0.4480 -0.7665
  460MOL0     H63422   8.383   8.685   4.126  0.0425  1.1515  0.1730
  460MOL0     H63423   8.074   8.663   4.157 -0.5216  0.7472 -2.2558
  460MOL0     H63424   8.171   8.545   4.079 -1.2977 -1.1836  0.4859
  460MOL0     H63425   8.203   8.620   4.375  0.1854  1.6199 -0.8651
  460MOL0     H63426   8.310   8.515   4.291 -1.2322 -0.3187 -0.4204
  460MOL0     H63427   8.116   8.347   4.247  0.5337 -0.6774 -0.5140
  460MOL0     H63428   8.177   8.372   4.410  0.8845 -0.3880 -0.6381
  460MOL0     H63429   7.995   8.523   4.595 -2.5068  0.4259  1.3630
  460MOL0     H63430   7.828   8.447   4.721 -1.3731 -0.3152  1.3130
  460MOL0     H63431   7.681   8.377   4.646 -1.9277  1.0438  0.3416
  460MOL0     H63432   7.664   8.611   4.790  1.4297  2.4639 -0.0427
  460MOL0     H63433   7.759   8.673   4.666  0.4891 -2.2965 -2.6897
  460MOL0     H63434   7.591   8.655   4.495  0.2781 -0.3650 -0.7315
  460MOL0     H63435   7.515   8.515   4.573  1.4670 -0.0954  0.4247
  460MOL0     H63436   7.371   8.725   4.590 -2.0738  0.5444  4.2960
  460MOL0     H63437   7.419   8.622   4.728 -0.5121 -0.6858 -0.9420
  460MOL0     H63438   7.555   9.067   4.764  2.0850 -0.8952 -0.7210
  460MOL0     H63439   7.331   9.311   4.880 -0.2869 -2.2121 -1.5776
  460MOL0     H63440   7.504   9.267   4.834 -0.0692 -1.4734 -0.4428
  460MOL0     H63441   7.453   9.253   5.006 -1.9561  2.1126  1.3092
  460MOL0     H63442   7.312   9.346   5.252 -0.5047 -0.4498 -0.9982
  460MOL0     H63443   7.238   9.455   5.438 -1.8824 -1.5144  2.5961
  460MOL0     H63444   7.156   9.555   5.626  1.4194  1.4469  0.3433
  460MOL0     H63445   7.139   9.681   5.508  0.4952 -1.6278 -1.0710
  460MOL0     H63446   6.898   9.714   5.659 -0.1816 -0.5587  1.0233
  460MOL0     H63447   6.998   9.645   5.772  2.5010 -0.8140 -0.0001
  460MOL0     H63448   7.025   9.902   5.771 -0.3331  2.8580 -2.7480
  460MOL0     H63449   7.055   9.903   5.606 -0.0242  1.3558  0.6563
  460MOL0     H63450   7.280   9.795   5.625  2.0827  2.8108 -0.1873
  460MOL0     H63451   7.258   9.810   5.798  1.3206  1.0955  0.1534
  460MOL0     H63452   7.244  10.049   5.594  0.9023  1.8623 -0.9118
  460MOL0     H63453   7.218  10.056   5.765  1.3670 -2.2744  1.9820
  460MOL0     H63454   7.450  10.003   5.587 -0.9222  0.9138 -0.6093
  460MOL0     H63455   7.463   9.936   5.756 -0.9485  0.2026  0.6618
  460MOL0     H63456   7.445  10.177   5.841  0.0386 -3.1160  0.5773
  460MOL0     H63457   7.414  10.230   5.679 -0.0379  1.2168  0.7626
  460MOL0     H63458   7.643  10.188   5.610 -0.0706  1.6257  0.6019
  460MOL0     H63459   7.664  10.091   5.766 -3.0660 -1.6217  0.5468
  460MOL0     H63460   6.834   9.461   5.311 -0.8099 -3.2956  3.3965
  460MOL0     H63461   6.912   9.297   5.108  0.9372  0.2792 -1.0936
  460MOL0     H63462   7.198   8.853   5.021  0.7313  0.7141  1.2142
  460MOL0     H63463   7.323   8.721   4.869 -1.7605  0.5602  2.9740
  460MOL0     H63464   8.011   8.534   3.515 -0.4414 -2.1370 -0.8992
  460MOL0     H63465   7.971   8.392   3.330  1.3203 -1.0122  1.9240
  460MOL0     H63466   7.941   8.414   2.769  0.3989 -0.4913 -0.7021
  460MOL0     H63467   7.878   8.220   2.643  0.7149 -1.8957 -0.0471
  460MOL0     H63468   8.147   7.954   2.535 -0.6168  0.8879  0.9175
  460MOL0     H63469   8.100   7.839   2.668  0.5636 -1.3105 -0.8103
  460MOL0     H63470   8.041   7.754   2.412  2.0601  0.5608  0.0332
  460MOL0     H63471   7.953   7.902   2.395 -2.2447 -1.3122  0.1183
  460MOL0     H63472   7.790   7.850   2.553  0.5873  1.6623  0.2411
  460MOL0     H63473   7.794   7.708   2.446  0.8203  1.1526 -2.5155
  460MOL0     H63474   7.786   7.616   2.656 -0.6770  1.1875 -0.6524
  460MOL0     H63475   7.920   7.711   2.729 -0.5895  2.3252 -1.7494
  460MOL0     H63476   8.130   7.405   2.522 -0.7319 -1.8195  1.2254
  460MOL0     H63477   8.158   7.961   2.820 -2.2939 -0.8920 -2.5670
  460MOL0     H63478   8.343   8.145   2.959 -1.2919  0.9406 -0.6473
  460MOL0     H63479   8.254   8.197   3.089 -0.3159 -0.1745  0.3217
  460MOL0     H63480   8.230   8.025   3.043 -0.1743  0.4933  2.0944
  461MOL0     O63481   8.405   1.566   1.126 -0.4777 -0.1084  0.2435
  461MOL0     C63482   8.518   1.602   1.158 -0.9275  1.0358  0.2529
  461MOL0     O63483   8.577   1.698   1.099  0.4975  0.1663 -0.4888
  461MOL0     C63484   8.504   1.784   1.021  1.5815 -0.1362  0.1138
  461MOL0     C63485   8.515   1.798   0.886  0.6029 -0.4039  0.0054
  461MOL0     C63486   8.440   1.887   0.804 -0.3025 -0.5159  0.8134
  461MOL0     C63487   8.339   1.964   0.860 -1.0656 -0.6881  0.4121
  461MOL0     O63488   8.258   2.042   0.784  0.3173 -0.2787  0.5165
  461MOL0     C63489   8.319   2.119   0.682  0.3227 -1.1806 -0.2990
  461MOL0     C63490   8.413   2.229   0.743 -0.7928 -0.2234  0.5379
  461MOL0     C63491   8.460   2.319   0.626 -0.1323 -0.7141  0.3775
  461MOL0     C63492   8.561   2.419   0.668 -0.6226 -0.2081  0.3503
  461MOL0     C63493   8.617   2.502   0.544  0.4878 -0.3070 -0.9999
  461MOL0     C63494   8.772   2.538   0.549  0.3724 -0.7402 -0.0065
  461MOL0     C63495   8.812   2.612   0.418  0.1968  0.0083  0.7802
  461MOL0     C63496   8.966   2.629   0.417 -0.0443 -0.2990 -0.3547
  461MOL0     N63497   9.025   2.690   0.304 -0.2049 -0.1876  0.3649
  461MOL0     C63498   8.988   2.810   0.247  0.6921 -0.0125 -0.0290
  461MOL0     C63499   9.077   2.843   0.157 -0.4537 -0.3114 -0.0026
  461MOL0     C63500   9.093   2.971   0.072  0.5624  0.1486 -0.1912
  461MOL0     C63501   9.212   3.062   0.120  0.1217 -0.1174 -0.0711
  461MOL0     C63502   9.202   3.206   0.059 -0.1068  0.4612  0.2659
  461MOL0     C63503   9.332   3.283   0.073  0.5821  0.1771  0.0298
  461MOL0     O63504   9.403   3.249  -0.045  0.9176 -0.6076 -0.1089
  461MOL0     C63505   9.535   3.292  -0.055  0.0956 -0.2867 -0.0252
  461MOL0     C63506   9.602   3.266  -0.177 -0.1202  0.3931 -1.4873
  461MOL0     C63507   9.744   3.285  -0.195  0.2135  0.3771  0.1113
  461MOL0     C63508   9.801   3.225  -0.324 -0.4096 -0.5093  1.5187
  461MOL0     C63509   9.809   3.352  -0.096 -0.1025 -0.1089 -0.7878
  461MOL0     C63510   9.952   3.376  -0.094 -0.2457 -0.0556  0.2631
  461MOL0     O63511  10.017   3.364   0.019 -0.8562 -0.1226  0.2162
  461MOL0     C63512  10.157   3.374   0.001 -0.1200  0.3184  0.5334
  461MOL0     C63513  10.231   3.480   0.055 -0.5990 -0.1467 -0.6271
  461MOL0     C63514  10.374   3.491   0.050  0.5837  0.3656 -0.7444
  461MOL0     C63515  10.441   3.387  -0.017  0.3056 -0.3121  0.4279
  461MOL0     O63516  10.576   3.370  -0.051  0.3678  0.5233 -0.8835
  461MOL0     C63517  10.670   3.467  -0.004  0.2757 -0.6487 -0.6930
  461MOL0     C63518  10.816   3.425  -0.041 -0.1377  1.4534 -0.1567
  461MOL0     C63519  10.845   3.426  -0.197  0.6542  0.2135  0.5342
  461MOL0     C63520  10.991   3.385  -0.225  0.1133  0.6653 -0.4346
  461MOL0     C63521  11.067   3.457  -0.348 -0.4528 -0.2391  0.4275
  461MOL0     C63522  11.097   3.603  -0.327 -0.0025  0.2814  0.0941
  461MOL0     C63523  11.056   3.681  -0.444 -0.5906 -0.3287 -0.6373
  461MOL0     C63524  10.910   3.700  -0.451 -0.5367  0.3920 -0.0530
  461MOL0    Cl63525  10.896   3.824  -0.586  0.4391 -0.0207 -0.0513
  461MOL0     C63526  10.367   3.282  -0.068 -0.3319 -1.2878  0.0730
  461MOL0     C63527  10.227   3.275  -0.062 -0.3242  0.7494 -1.0053
  461MOL0     O63528   9.996   3.408  -0.203 -0.0334  0.2445 -0.0299
  461MOL0     C63529   9.743   3.393   0.015 -0.4412  0.4894 -0.4197
  461MOL0     C63530   9.608   3.362   0.039 -0.4398  0.4421 -0.4614
  461MOL0     N63531   9.181   2.745   0.164 -0.7592 -0.0002 -0.7328
  461MOL0     N63532   9.149   2.656   0.254  0.4826 -0.7751  0.2682
  461MOL0     C63533   8.325   1.952   0.999  0.2547  0.1674 -0.2863
  461MOL0     C63534   8.393   1.863   1.077  0.8582  0.2130  0.3180
  461MOL0     C63535   8.582   1.524   1.265 -0.4893 -0.8377  0.4248
  461MOL0     C63536   8.498   1.470   1.359  0.4341 -0.6419 -0.3300
  461MOL0     C63537   8.549   1.389   1.460 -0.0555 -0.3632  0.0204
  461MOL0     C63538   8.685   1.371   1.477 -0.2964 -0.5936  0.3030
  461MOL0     O63539   8.734   1.289   1.572 -0.6506 -0.0542  0.2194
  461MOL0     C63540   8.661   1.173   1.595 -1.0105 -0.3225  0.4739
  461MOL0     C63541   8.726   1.064   1.517 -1.0982 -0.1610 -0.1746
  461MOL0     C63542   8.883   1.065   1.500 -0.5491 -0.3802  0.5115
  461MOL0     C63543   8.940   0.919   1.445  0.7340  0.3001 -0.5994
  461MOL0     C63544   8.968   0.841   1.565 -0.0504 -0.3384 -0.4481
  461MOL0     C63545   9.001   0.771   1.662 -0.2912  0.1230 -0.2862
  461MOL0     C63546   8.770   1.423   1.379 -0.2995  0.2857 -0.3272
  461MOL0     C63547   8.720   1.503   1.275 -0.2108  0.3509  0.3824
  461MOL0     C63548   8.810   1.541   1.163 -0.3222  0.5339 -0.3953
  461MOL0     H63549   8.586   1.732   0.836 -2.6857 -3.1028 -1.5921
  461MOL0     H63550   8.465   1.891   0.699  0.6453 -1.3213  0.9883
  461MOL0     H63551   8.240   2.167   0.624 -2.8537 -3.2642  1.9410
  461MOL0     H63552   8.360   2.046   0.612 -2.0946 -0.5833 -2.4641
  461MOL0     H63553   8.366   2.286   0.824  4.1957  0.4580  3.2974
  461MOL0     H63554   8.492   2.175   0.795 -0.4877  0.2708  0.5935
  461MOL0     H63555   8.491   2.260   0.539  0.0034 -0.2679  0.1207
  461MOL0     H63556   8.388   2.389   0.583  1.5214  1.3849  0.9040
  461MOL0     H63557   8.514   2.491   0.737 -0.8708  1.6106 -1.6056
  461MOL0     H63558   8.648   2.369   0.711 -0.7132 -0.5534  0.1318
  461MOL0     H63559   8.566   2.598   0.539  3.8400  1.8205  1.4235
  461MOL0     H63560   8.600   2.443   0.453  1.2745  1.1860 -2.1726
  461MOL0     H63561   8.792   2.599   0.637  0.6171 -0.6746 -0.1048
  461MOL0     H63562   8.828   2.446   0.569  0.1367 -1.2270 -1.4820
  461MOL0     H63563   8.785   2.717   0.410  5.2537  1.4768 -0.3769
  461MOL0     H63564   8.772   2.563   0.329 -0.2289  2.6317 -0.5687
  461MOL0     H63565   8.999   2.680   0.508  0.6445 -1.4416  0.0605
  461MOL0     H63566   9.009   2.528   0.412  0.7513  0.0488 -0.5955
  461MOL0     H63567   8.896   2.866   0.261  0.6481  0.7434 -2.7534
  461MOL0     H63568   8.996   3.020   0.088  0.2264 -0.7647  0.6716
  461MOL0     H63569   9.112   2.964  -0.035  0.8760  1.5606 -0.2599
  461MOL0     H63570   9.205   3.058   0.229  0.2601 -3.4798 -0.0801
  461MOL0     H63571   9.306   3.011   0.097 -0.3715 -1.1156  0.0683
  461MOL0     H63572   9.174   3.188  -0.046  1.6287 -0.1273 -0.1158
  461MOL0     H63573   9.118   3.260   0.104 -0.8142  1.0501 -1.6433
  461MOL0     H63574   9.310   3.390   0.077 -1.8163 -0.1642 -1.7075
  461MOL0     H63575   9.390   3.252   0.160  0.8006  3.3985  1.1920
  461MOL0     H63576   9.554   3.199  -0.247 -3.5152  1.1847 -0.1052
  461MOL0     H63577   9.747   3.136  -0.360 -1.3087  0.5064  0.2572
  461MOL0     H63578   9.904   3.195  -0.305 -0.7036 -2.1759  0.6973
  461MOL0     H63579   9.819   3.303  -0.398 -1.8185 -1.3269  0.2514
  461MOL0     H63580  10.173   3.561   0.099 -0.2488  1.3627 -2.7543
  461MOL0     H63581  10.408   3.583   0.096 -1.7412  0.4100  1.1112
  461MOL0     H63582  10.649   3.571  -0.030  0.1223 -0.8959 -1.6137
  461MOL0     H63583  10.668   3.465   0.105 -1.7273  0.5207 -0.6626
  461MOL0     H63584  10.879   3.501   0.007  2.1141 -0.6698  0.4414
  461MOL0     H63585  10.836   3.327   0.003 -0.1202  2.3214  1.8795
  461MOL0     H63586  10.831   3.528  -0.236  1.1815 -0.1098 -0.5344
  461MOL0     H63587  10.784   3.352  -0.251 -0.8759 -0.9912  3.6976
  461MOL0     H63588  10.994   3.277  -0.242 -0.6402  0.2696  1.6308
  461MOL0     H63589  11.045   3.408  -0.132  5.2989 -1.3615 -2.6086
  461MOL0     H63590  11.160   3.401  -0.360  0.4379  1.0951  0.8649
  461MOL0     H63591  11.002   3.442  -0.435 -0.1467  0.6157  0.0427
  461MOL0     H63592  11.204   3.619  -0.310  0.8967 -0.4097 -3.9055
  461MOL0     H63593  11.041   3.628  -0.237 -3.8725 -2.8893 -1.1622
  461MOL0     H63594  11.097   3.620  -0.525 -2.2001 -2.4324  0.0324
  461MOL0     H63595  11.104   3.780  -0.444  2.7358 -1.7062  2.9266
  461MOL0     H63596  10.869   3.739  -0.358  1.0192  1.2036  0.3275
  461MOL0     H63597  10.868   3.599  -0.460  2.6778 -1.2528  1.5875
  461MOL0     H63598  10.427   3.198  -0.102  1.6400 -1.3902  3.3249
  461MOL0     H63599  10.179   3.187  -0.104  1.7733 -0.5289 -0.8887
  461MOL0     H63600   9.794   3.444   0.096 -0.8317  1.7300 -0.9313
  461MOL0     H63601   9.573   3.390   0.138 -1.3674  1.3129 -1.0144
  461MOL0     H63602   8.245   2.009   1.044 -0.4155  1.8297 -3.3300
  461MOL0     H63603   8.367   1.842   1.180  2.6517 -0.0888  0.7412
  461MOL0     H63604   8.394   1.498   1.366  1.1915  2.8159 -1.0305
  461MOL0     H63605   8.467   1.340   1.511 -1.3302 -2.9368 -4.0124
  461MOL0     H63606   8.663   1.171   1.705 -0.1209  1.9203  0.5447
  461MOL0     H63607   8.558   1.174   1.557 -1.1929  2.0964  0.9279
  461MOL0     H63608   8.694   1.071   1.413 -1.5274  3.2619  0.0684
  461MOL0     H63609   8.689   0.968   1.553  0.3458  0.1604  2.4211
  461MOL0     H63610   8.904   1.143   1.427  0.1064 -2.7960 -2.0466
  461MOL0     H63611   8.926   1.095   1.596  0.0149 -1.1469  0.5143
  461MOL0     H63612   9.039   0.939   1.401  0.1665  1.4111 -1.4280
  461MOL0     H63613   8.871   0.871   1.375 -1.8988  3.9329 -0.7333
  461MOL0     H63614   9.023   0.702   1.740  0.1063 -0.6736 -1.0878
  461MOL0     H63615   8.874   1.393   1.387 -0.4442 -1.2367 -2.8348
  461MOL0     H63616   8.770   1.514   1.065  3.5934 -1.1226 -1.6987
  461MOL0     H63617   8.837   1.647   1.163  2.4602 -0.1150  0.1884
  461MOL0     H63618   8.899   1.481   1.182 -0.2548  1.5484  3.4822
  462MOL0     O63619  10.058   2.800   6.715 -0.0120  0.0858  0.0951
  462MOL0     C63620  10.004   2.907   6.686 -0.1482 -0.7354  0.3484
  462MOL0     O63621  10.010   3.019   6.765  0.3878 -0.2597  0.1535
  462MOL0     C63622  10.089   3.019   6.874 -0.5228  0.5527 -0.1921
  462MOL0     C63623  10.229   2.991   6.865  0.1617  0.1642 -0.6257
  462MOL0     C63624  10.301   2.985   6.983  0.3451  0.0458  0.2744
  462MOL0     C63625  10.243   2.994   7.113  0.7086  0.0158 -0.3084
  462MOL0     O63626  10.314   2.968   7.221  0.0464  0.5634 -0.4779
  462MOL0     C63627  10.393   3.086   7.262 -0.2113 -0.3129  0.4072
  462MOL0     C63628  10.361   3.124   7.394  0.7508 -0.9635 -0.8028
  462MOL0     C63629  10.417   3.040   7.503 -0.1131  0.1604  0.4084
  462MOL0     C63630  10.388   3.093   7.642 -0.9902  0.0909  0.5290
  462MOL0     C63631  10.429   2.989   7.744  0.4531 -0.5516 -0.4345
  462MOL0     C63632  10.396   3.046   7.883 -0.3428  0.2599 -0.2095
  462MOL0     C63633  10.416   2.948   7.999  0.6271 -0.4535 -0.5454
  462MOL0     C63634  10.370   2.994   8.140 -0.1767  0.5610 -0.0015
  462MOL0     N63635  10.459   2.928   8.241 -0.1358  0.4542  0.4138
  462MOL0     C63636  10.600   2.930   8.253 -0.1049  1.1902  1.2536
  462MOL0     C63637  10.620   2.826   8.338 -0.7995  0.8459  0.4150
  462MOL0     C63638  10.750   2.763   8.377  0.1619  0.6530 -0.1289
  462MOL0     C63639  10.843   2.749   8.268  0.4864  1.0586  0.1291
  462MOL0     C63640  10.940   2.642   8.282  0.1545 -0.6191 -0.7265
  462MOL0     C63641  11.041   2.625   8.168 -0.2614 -0.1421  0.0630
  462MOL0     O63642  10.988   2.558   8.057 -0.2044  0.1071  0.0769
  462MOL0     C63643  11.081   2.510   7.965  0.3450 -0.1209  0.2598
  462MOL0     C63644  11.047   2.392   7.898  0.4413  0.6648  0.0510
  462MOL0     C63645  11.126   2.325   7.801 -0.0400  0.4584  0.9434
  462MOL0     C63646  11.072   2.197   7.736  0.0403 -0.0996  0.1285
  462MOL0     C63647  11.256   2.366   7.792 -1.4651  0.9216 -0.1279
  462MOL0     C63648  11.363   2.296   7.706 -0.7796  0.0664  0.0401
  462MOL0     O63649  11.436   2.382   7.634 -0.5261 -0.3019  0.1673
  462MOL0     C63650  11.534   2.341   7.559 -0.4389  0.4865 -0.9686
  462MOL0     C63651  11.510   2.350   7.420 -0.1104  0.0538 -0.4111
  462MOL0     C63652  11.607   2.291   7.338 -0.2544 -0.6058  0.3769
  462MOL0     C63653  11.719   2.225   7.386  0.0222  0.2046 -0.3521
  462MOL0     O63654  11.803   2.164   7.292  0.0273  0.6309 -0.1500
  462MOL0     C63655  11.829   2.017   7.311 -0.0869 -0.8485 -0.1055
  462MOL0     C63656  11.711   1.948   7.256  0.0572  0.2168 -0.0614
  462MOL0     C63657  11.736   1.796   7.262  0.2648  0.3658  0.2763
  462MOL0     C63658  11.694   1.736   7.399  0.5302  0.5086 -1.4989
  462MOL0     C63659  11.692   1.585   7.412 -0.1562 -0.3422  0.6187
  462MOL0     C63660  11.622   1.516   7.294 -0.3538  0.0533  0.2936
  462MOL0     C63661  11.610   1.365   7.308  0.2413  0.4443  0.2311
  462MOL0     C63662  11.530   1.287   7.197 -0.0957  1.0310 -0.0668
  462MOL0    Cl63663  11.611   1.302   7.036 -0.3398  0.2967 -0.1806
  462MOL0     C63664  11.737   2.228   7.526  0.0658 -0.0541 -0.0164
  462MOL0     C63665  11.650   2.290   7.610  0.2005  1.1096 -0.5199
  462MOL0     O63666  11.414   2.187   7.743  0.1507 -0.2870  0.1682
  462MOL0     C63667  11.301   2.468   7.879  0.3026 -0.1960 -0.0871
  462MOL0     C63668  11.217   2.544   7.957  0.3753 -0.7507 -0.8485
  462MOL0     N63669  10.500   2.770   8.381  0.6574  0.1950 -0.1905
  462MOL0     N63670  10.408   2.841   8.332  0.7403  0.5077 -0.7837
  462MOL0     C63671  10.108   3.029   7.116 -0.0331 -0.2712  0.4530
  462MOL0     C63672  10.030   3.042   6.998  0.5547 -0.0873  0.1491
  462MOL0     C63673   9.922   2.932   6.561 -0.4284  0.2996 -0.1764
  462MOL0     C63674   9.850   3.047   6.546  0.0164  0.2158 -0.6989
  462MOL0     C63675   9.768   3.062   6.439  0.3935  0.0740  1.1430
  462MOL0     C63676   9.736   2.962   6.356  0.9628  0.0389  0.2026
  462MOL0     O63677   9.638   2.977   6.263  0.3396  0.3177 -0.5654
  462MOL0     C63678   9.550   2.871   6.238  0.6933  0.3389  0.4254
  462MOL0     C63679   9.419   2.921   6.195  0.0928 -0.2126 -0.5051
  462MOL0     C63680   9.338   2.986   6.309  0.5144  0.2234 -0.3397
  462MOL0     C63681   9.273   2.895   6.417  0.0801 -1.2380 -0.3479
  462MOL0     C63682   9.302   2.965   6.542 -0.4280 -0.1237 -0.3636
  462MOL0     C63683   9.337   3.022   6.643 -0.3434 -0.1435  0.0937
  462MOL0     C63684   9.803   2.841   6.373  0.2374  0.6900 -0.5499
  462MOL0     C63685   9.897   2.824   6.473  0.1794  0.1479  0.0223
  462MOL0     C63686   9.974   2.694   6.482  0.1441 -1.1423 -0.4943
  462MOL0     H63687  10.275   2.971   6.769 -1.9910 -1.1903 -1.4688
  462MOL0     H63688  10.405   2.953   6.982  0.5247  0.6213 -0.3700
  462MOL0     H63689  10.390   3.177   7.201 -2.0633  0.0290  0.9488
  462MOL0     H63690  10.492   3.041   7.251 -0.2165 -0.3757  0.6092
  462MOL0     H63691  10.378   3.232   7.404  1.4388 -1.0762 -0.7282
  462MOL0     H63692  10.255   3.127   7.421  0.8179  0.2476 -0.6140
  462MOL0     H63693  10.381   2.937   7.495 -0.1852  0.2649 -0.7666
  462MOL0     H63694  10.526   3.041   7.493  0.3206 -0.2044  3.8853
  462MOL0     H63695  10.454   3.180   7.656 -0.9427  0.5097 -1.9623
  462MOL0     H63696  10.281   3.111   7.657 -1.2552 -1.8238  1.2021
  462MOL0     H63697  10.536   2.971   7.729  0.5391  0.9885 -2.0162
  462MOL0     H63698  10.375   2.894   7.744 -0.0795 -0.2962  1.4200
  462MOL0     H63699  10.465   3.128   7.902 -0.1447 -0.5145  2.9048
  462MOL0     H63700  10.297   3.092   7.881 -1.2837 -1.6516 -0.9445
  462MOL0     H63701  10.525   2.944   8.007  0.6150  1.7316  2.0604
  462MOL0     H63702  10.366   2.852   7.985 -1.3806  0.2466  1.3017
  462MOL0     H63703  10.381   3.100   8.119  2.5755  0.6066  1.3343
  462MOL0     H63704  10.265   2.968   8.157 -0.2264 -2.7752 -3.8625
  462MOL0     H63705  10.673   2.992   8.202 -1.0211  1.5993  0.4154
  462MOL0     H63706  10.725   2.661   8.409 -2.0662  1.0262 -0.5146
  462MOL0     H63707  10.800   2.796   8.469  1.3102 -2.0407  0.3181
  462MOL0     H63708  10.777   2.726   8.184  0.2166  1.2288  0.2911
  462MOL0     H63709  10.897   2.844   8.261  2.8647 -0.0659  1.7599
  462MOL0     H63710  11.004   2.665   8.368  1.4927  0.6676 -2.0097
  462MOL0     H63711  10.893   2.544   8.290  0.6621 -0.9643 -1.8815
  462MOL0     H63712  11.071   2.727   8.141 -2.1698  1.2641  2.8313
  462MOL0     H63713  11.129   2.572   8.205  0.2505  0.7186  0.1044
  462MOL0     H63714  10.952   2.344   7.923 -0.2410 -0.5094 -4.0109
  462MOL0     H63715  11.151   2.127   7.707  1.3514  1.1080  0.6561
  462MOL0     H63716  11.007   2.223   7.652  1.1253  1.1292 -0.3760
  462MOL0     H63717  11.010   2.145   7.809  0.7515 -0.7620  0.2715
  462MOL0     H63718  11.421   2.402   7.389 -4.0401 -3.2715  3.8106
  462MOL0     H63719  11.590   2.291   7.231  3.8166  1.1714 -0.4840
  462MOL0     H63720  11.912   1.984   7.247  0.8164 -2.1277  1.6490
  462MOL0     H63721  11.857   1.988   7.413  1.9744  0.7505 -0.1498
  462MOL0     H63722  11.622   1.982   7.309  0.1779  2.7335 -1.3188
  462MOL0     H63723  11.686   1.981   7.155 -1.9251 -0.0403  0.3043
  462MOL0     H63724  11.843   1.775   7.247  0.1754 -0.6689  0.9900
  462MOL0     H63725  11.681   1.743   7.184  0.2932 -1.0005  1.1544
  462MOL0     H63726  11.593   1.768   7.424  2.1001  2.9913  2.8191
  462MOL0     H63727  11.750   1.775   7.485 -0.4238  1.5813 -1.3429
  462MOL0     H63728  11.797   1.555   7.406  0.1684  0.5742  1.4609
  462MOL0     H63729  11.652   1.549   7.508  0.1734  1.6515  1.5519
  462MOL0     H63730  11.666   1.539   7.196  1.0475  2.1775  1.3387
  462MOL0     H63731  11.530   1.576   7.298 -0.6987 -0.1936 -2.2656
  462MOL0     H63732  11.557   1.345   7.402  1.2617  0.9819  0.9456
  462MOL0     H63733  11.711   1.323   7.311  0.5778  1.2618  0.8039
  462MOL0     H63734  11.423   1.309   7.199 -0.0551  1.4512 -1.3662
  462MOL0     H63735  11.558   1.189   7.236  3.7041  1.3418 -1.5599
  462MOL0     H63736  11.824   2.178   7.568 -0.2836  0.3838  1.2617
  462MOL0     H63737  11.659   2.281   7.718 -0.8066  1.0360 -0.4339
  462MOL0     H63738  11.406   2.498   7.881  0.2084  0.3773 -1.7065
  462MOL0     H63739  11.258   2.620   8.023 -1.9997 -0.5960  0.5937
  462MOL0     H63740  10.066   3.056   7.213 -0.4842  2.1026 -0.3228
  462MOL0     H63741   9.924   3.065   7.000  0.9292  1.8460 -0.1255
  462MOL0     H63742   9.845   3.123   6.624 -2.6464 -1.5647  1.0388
  462MOL0     H63743   9.724   3.161   6.435  2.0168  0.9932  3.6991
  462MOL0     H63744   9.588   2.797   6.167 -0.8782 -1.3729  1.2526
  462MOL0     H63745   9.540   2.820   6.335 -1.7418  1.2238  0.7066
  462MOL0     H63746   9.365   2.834   6.156  0.6407 -0.0119 -1.7501
  462MOL0     H63747   9.431   2.990   6.111 -6.1195 -0.8181 -2.4686
  462MOL0     H63748   9.417   3.048   6.352  0.7553  0.5307 -1.1924
  462MOL0     H63749   9.251   3.038   6.266  1.0901  1.4674 -0.0424
  462MOL0     H63750   9.339   2.808   6.413  1.7619 -0.0228 -0.7044
  462MOL0     H63751   9.170   2.868   6.393  0.0192 -1.4980  0.1976
  462MOL0     H63752   9.365   3.066   6.736 -0.7200  0.1703  0.0597
  462MOL0     H63753   9.792   2.766   6.296  0.6833  0.6676 -0.5964
  462MOL0     H63754   9.959   2.654   6.381 -0.1375  1.4493 -1.5703
  462MOL0     H63755  10.081   2.715   6.497 -0.8391  4.5044  0.8859
  462MOL0     H63756   9.935   2.631   6.562 -1.2092  1.1024  0.6911
  463MOL0     O63757  10.095   2.348   8.343 -0.5754  0.7976  0.4462
  463MOL0     C63758  10.029   2.429   8.290 -0.8804 -0.8198  0.3945
  463MOL0     O63759   9.996   2.551   8.345 -0.0865  0.1670 -0.5335
  463MOL0     C63760   9.999   2.565   8.478  0.0344 -0.0560  0.1725
  463MOL0     C63761  10.033   2.691   8.513 -0.2464  0.1438 -0.5390
  463MOL0     C63762  10.050   2.725   8.648  0.4680  0.4729  0.3072
  463MOL0     C63763  10.027   2.628   8.743 -0.0654  0.8238  0.0271
  463MOL0     O63764  10.046   2.627   8.876 -0.6172 -0.2720 -0.0771
  463MOL0     C63765  10.029   2.758   8.936  0.1020 -0.7197 -0.2003
  463MOL0     C63766  10.075   2.753   9.085 -0.5871 -0.6667  0.2193
  463MOL0     C63767  10.233   2.752   9.108  0.6027 -0.0260 -0.9803
  463MOL0     C63768  10.266   2.727   9.265  1.1443  0.4629 -0.0131
  463MOL0     C63769  10.404   2.673   9.303  0.6578  0.7781  0.0475
  463MOL0     C63770  10.423   2.531   9.246 -0.1941  0.2841 -0.0061
  463MOL0     C63771  10.539   2.463   9.319 -0.3780 -0.5191 -0.6401
  463MOL0     C63772  10.559   2.316   9.268  0.3155  0.1920 -0.8856
  463MOL0     N63773  10.685   2.259   9.329  1.3352 -1.1027 -0.3524
  463MOL0     C63774  10.815   2.308   9.304 -0.3466  0.4984  0.3015
  463MOL0     C63775  10.881   2.236   9.393 -0.8278 -0.4093 -0.1928
  463MOL0     C63776  11.033   2.218   9.408 -0.1500  0.0786 -0.4194
  463MOL0     C63777  11.068   2.151   9.541 -0.4392 -0.6189 -0.8716
  463MOL0     C63778  11.023   2.229   9.675  0.3159  1.0418  0.5319
  463MOL0     C63779  11.056   2.381   9.670 -0.7431  0.3484 -0.0705
  463MOL0     O63780  11.193   2.394   9.683  0.3689 -0.0304 -0.3247
  463MOL0     C63781  11.242   2.520   9.658 -0.3881 -0.1382 -0.0497
  463MOL0     C63782  11.157   2.634   9.653  0.5261 -1.2165 -0.1205
  463MOL0     C63783  11.209   2.762   9.626 -0.3211  0.3402 -0.0604
  463MOL0     C63784  11.113   2.871   9.619  0.0033 -0.1029  0.3571
  463MOL0     C63785  11.349   2.774   9.600 -0.1766 -0.6013  0.7091
  463MOL0     C63786  11.428   2.896   9.573  0.4683  1.0426  0.6363
  463MOL0     O63787  11.533   2.901   9.656 -0.1831 -0.1918 -0.7436
  463MOL0     C63788  11.631   2.995   9.623 -0.0516  0.4914  0.6789
  463MOL0     C63789  11.734   2.948   9.550  0.5270  0.4002  0.5477
  463MOL0     C63790  11.827   3.047   9.509 -0.2534 -0.0619 -0.6049
  463MOL0     C63791  11.820   3.179   9.550 -0.8290 -0.3284 -0.4067
  463MOL0     O63792  11.917   3.266   9.501  0.1777 -0.1866 -0.3308
  463MOL0     C63793  11.901   3.405   9.517  0.4094  0.0408 -0.9158
  463MOL0     C63794  12.004   3.475   9.430 -0.6545 -0.6148  0.0723
  463MOL0     C63795  12.026   3.625   9.447 -0.3289  0.0172 -0.2876
  463MOL0     C63796  11.892   3.700   9.427  0.4227 -0.1823 -0.3591
  463MOL0     C63797  11.860   3.737   9.284 -0.8043  0.5747  0.7984
  463MOL0     C63798  11.722   3.811   9.267  0.0717 -0.8389  0.6621
  463MOL0     C63799  11.694   3.842   9.123  0.6338 -0.3583 -0.0942
  463MOL0     C63800  11.555   3.900   9.114  0.7100 -0.0895  0.5437
  463MOL0    Cl63801  11.534   3.963   8.943  0.3284 -0.2478  0.3647
  463MOL0     C63802  11.699   3.224   9.620  0.0778  0.2289 -0.1684
  463MOL0     C63803  11.613   3.125   9.655  0.5002  0.3700 -0.1864
  463MOL0     O63804  11.397   2.974   9.488  0.8387  0.2776  0.0439
  463MOL0     C63805  11.430   2.659   9.598 -0.0489  0.3129  0.6770
  463MOL0     C63806  11.378   2.537   9.630 -0.3230 -0.5025  0.0310
  463MOL0     N63807  10.794   2.148   9.458 -0.8379  0.6314 -0.9293
  463MOL0     N63808  10.677   2.164   9.423 -0.0125  0.0767 -0.2612
  463MOL0     C63809   9.997   2.495   8.705  0.5231 -0.5888  0.3847
  463MOL0     C63810   9.987   2.465   8.572  0.4155  0.9316 -0.7966
  463MOL0     C63811   9.996   2.394   8.150 -0.4347  0.0600  0.4307
  463MOL0     C63812   9.963   2.259   8.123  0.1052  0.5317 -0.5437
  463MOL0     C63813   9.917   2.223   7.996  0.5697 -0.1679  0.0920
  463MOL0     C63814   9.891   2.312   7.894 -0.1173  0.2062 -0.3612
  463MOL0     O63815   9.857   2.301   7.762 -0.0838 -0.2397 -0.0445
  463MOL0     C63816   9.846   2.170   7.702 -0.0723 -0.4197 -0.2493
  463MOL0     C63817   9.872   2.162   7.547  0.1062  1.1734 -0.6289
  463MOL0     C63818   9.752   2.201   7.457  0.6450  0.1886  0.8594
  463MOL0     C63819   9.683   2.333   7.486 -0.6769 -0.6247 -0.6153
  463MOL0     C63820   9.602   2.386   7.379 -0.0685 -0.3398  0.6810
  463MOL0     C63821   9.550   2.451   7.286 -0.4789  0.3934  0.1373
  463MOL0     C63822   9.924   2.438   7.923 -0.2013 -0.5582 -0.7281
  463MOL0     C63823   9.984   2.489   8.042 -0.0219  0.1345  0.5040
  463MOL0     C63824  10.045   2.633   8.056  0.1160  0.5006  1.4596
  463MOL0     H63825  10.051   2.762   8.433 -1.1293  0.2651 -0.6337
  463MOL0     H63826  10.077   2.828   8.672 -0.9839  0.7969  0.6263
  463MOL0     H63827   9.925   2.789   8.948 -0.2884 -2.0140 -0.1527
  463MOL0     H63828  10.090   2.840   8.897 -0.0866  0.1758  1.3269
  463MOL0     H63829  10.039   2.835   9.148 -1.7926  0.0991 -1.4072
  463MOL0     H63830  10.036   2.661   9.131  0.7361 -1.3549  0.0161
  463MOL0     H63831  10.265   2.666   9.049  0.2876  0.4447 -1.8610
  463MOL0     H63832  10.282   2.846   9.081  2.7165 -0.3667  1.3600
  463MOL0     H63833  10.253   2.817   9.326  0.0762 -0.9222  1.9305
  463MOL0     H63834  10.193   2.658   9.309  0.8559  0.6424 -0.2060
  463MOL0     H63835  10.431   2.670   9.409  1.8395  1.8685 -0.1993
  463MOL0     H63836  10.471   2.751   9.266  1.4109 -1.0402 -2.6920
  463MOL0     H63837  10.334   2.474   9.276 -1.9276  3.5644  1.5633
  463MOL0     H63838  10.446   2.527   9.139  0.7250 -0.4663  0.2075
  463MOL0     H63839  10.528   2.455   9.428  2.1908  2.9747  0.0528
  463MOL0     H63840  10.629   2.519   9.294  0.5446 -1.2009  1.0360
  463MOL0     H63841  10.475   2.251   9.296  0.2628  1.2337  1.6319
  463MOL0     H63842  10.567   2.317   9.159 -2.1407 -1.5493 -1.1788
  463MOL0     H63843  10.857   2.367   9.223 -0.2358 -0.8023 -0.6100
  463MOL0     H63844  11.083   2.314   9.398  1.4427 -0.6741  0.0094
  463MOL0     H63845  11.059   2.159   9.319 -1.3834 -0.2186 -0.6090
  463MOL0     H63846  11.026   2.051   9.532  0.9189 -1.4032  0.9279
  463MOL0     H63847  11.173   2.124   9.554 -0.6269 -0.7165  0.6576
  463MOL0     H63848  10.914   2.224   9.682  0.2103  3.2804  1.0274
  463MOL0     H63849  11.056   2.188   9.771 -0.9330  0.4384  0.7343
  463MOL0     H63850  11.018   2.431   9.581 -2.5962 -2.0239 -0.7146
  463MOL0     H63851  10.997   2.424   9.751  0.7379  1.2932  0.5354
  463MOL0     H63852  11.050   2.627   9.672  0.7484 -0.1618  1.8128
  463MOL0     H63853  11.140   2.956   9.681  2.4079  1.3236 -2.3775
  463MOL0     H63854  11.017   2.831   9.653  0.4622  1.0018  3.1604
  463MOL0     H63855  11.110   2.895   9.512 -0.3831 -2.4035 -0.2058
  463MOL0     H63856  11.728   2.845   9.517  0.4703  0.1291  1.3851
  463MOL0     H63857  11.904   3.032   9.435  1.6466  1.2289  1.0179
  463MOL0     H63858  11.801   3.423   9.476 -0.9678  0.2859  2.2961
  463MOL0     H63859  11.917   3.420   9.624 -0.7717  0.5742 -0.7949
  463MOL0     H63860  12.101   3.427   9.442  1.0070  1.6652 -2.8388
  463MOL0     H63861  11.981   3.447   9.327 -1.6224 -1.4414  0.4899
  463MOL0     H63862  12.097   3.661   9.372  0.1668 -1.3394 -0.4860
  463MOL0     H63863  12.062   3.649   9.547 -0.2208  2.4698 -0.8527
  463MOL0     H63864  11.889   3.791   9.488  0.8577 -1.0117  0.9383
  463MOL0     H63865  11.803   3.651   9.467  0.5015  0.4867  0.6448
  463MOL0     H63866  11.943   3.803   9.255 -1.5051  1.3964  0.6283
  463MOL0     H63867  11.858   3.654   9.213  0.6450 -0.6815  2.1362
  463MOL0     H63868  11.731   3.902   9.326  0.9212  0.1395 -0.9058
  463MOL0     H63869  11.643   3.740   9.294  0.4164 -2.1572 -1.5116
  463MOL0     H63870  11.705   3.744   9.076  2.6736  0.3564 -1.2664
  463MOL0     H63871  11.771   3.900   9.072  2.4592 -2.5216  0.0335
  463MOL0     H63872  11.551   3.981   9.187 -4.0319 -0.4338  0.9490
  463MOL0     H63873  11.474   3.834   9.146  1.0373 -0.9665 -0.3684
  463MOL0     H63874  11.675   3.327   9.642  3.0963  1.1327 -0.7011
  463MOL0     H63875  11.522   3.150   9.709 -0.0473  1.7357 -1.6509
  463MOL0     H63876  11.536   2.672   9.578 -0.3012  3.0486  0.7503
  463MOL0     H63877  11.440   2.448   9.615  1.7432  0.5275  1.9216
  463MOL0     H63878   9.970   2.422   8.781 -0.4623  0.9414  1.5776
  463MOL0     H63879   9.956   2.363   8.551 -0.5564  0.4110  2.5373
  463MOL0     H63880   9.976   2.172   8.187 -4.0310 -0.5904 -0.9785
  463MOL0     H63881   9.916   2.115   7.979  0.6186 -0.4445  1.7013
  463MOL0     H63882   9.920   2.107   7.753  0.0249 -1.1048 -1.2219
  463MOL0     H63883   9.747   2.129   7.719  0.4800 -1.3824  0.7645
  463MOL0     H63884   9.893   2.055   7.543  2.0089  1.5345 -1.5648
  463MOL0     H63885   9.963   2.221   7.531  1.8038 -0.3141  2.3974
  463MOL0     H63886   9.802   2.200   7.360 -1.7011  1.1627 -0.4508
  463MOL0     H63887   9.682   2.118   7.444  2.4065 -0.9190 -2.7390
  463MOL0     H63888   9.765   2.407   7.491 -1.2790 -0.0024  2.1404
  463MOL0     H63889   9.624   2.331   7.578 -0.7611  1.7564 -0.5544
  463MOL0     H63890   9.505   2.523   7.221 -1.0513  1.7322  1.9506
  463MOL0     H63891   9.912   2.515   7.847  1.7315  3.5095  2.6400
  463MOL0     H63892  10.154   2.626   8.061  0.3650  1.8210 -0.6944
  463MOL0     H63893  10.025   2.700   7.971 -1.1512  3.4755  3.8950
  463MOL0     H63894   9.987   2.683   8.134 -2.5180 -0.7993  0.4782
  464MOL0     O63895   9.158   5.962   8.173  0.0048  0.1811 -0.1386
  464MOL0     C63896   9.159   5.859   8.246 -0.2062 -0.9132 -0.0297
  464MOL0     O63897   9.100   5.864   8.376  0.0654  0.4913 -0.1635
  464MOL0     C63898   9.049   5.986   8.416 -0.6184  0.0219 -0.3394
  464MOL0     C63899   9.090   6.019   8.544 -0.5561  1.0471 -0.6095
  464MOL0     C63900   9.040   6.140   8.600 -1.2886  0.9665  1.9688
  464MOL0     C63901   8.957   6.224   8.528 -0.4821 -0.0513  1.5633
  464MOL0     O63902   8.907   6.337   8.575 -0.9965 -0.7928  0.3804
  464MOL0     C63903   8.989   6.396   8.687  0.9662 -0.5218  0.2738
  464MOL0     C63904   8.934   6.538   8.707 -0.0135 -0.3646  0.5692
  464MOL0     C63905   8.974   6.600   8.575  0.2181  0.5776  1.0414
  464MOL0     C63906   8.931   6.741   8.572  0.2557  0.1701  0.5097
  464MOL0     C63907   8.786   6.760   8.521 -0.0075  0.1333  0.4949
  464MOL0     C63908   8.751   6.912   8.501 -0.2588 -0.9843 -0.0752
  464MOL0     C63909   8.832   6.989   8.389 -0.4302 -1.2163  0.3464
  464MOL0     C63910   8.952   7.075   8.446 -0.3788 -0.2728 -0.0035
  464MOL0     N63911   8.925   7.217   8.467  0.9832 -0.3186  0.4378
  464MOL0     C63912   8.916   7.313   8.365 -0.2869 -0.1433 -0.1175
  464MOL0     C63913   8.856   7.422   8.424  0.0280  0.2106 -0.8604
  464MOL0     C63914   8.830   7.558   8.380  0.5058  0.5511  0.2906
  464MOL0     C63915   8.835   7.668   8.491 -0.1567 -0.0001 -0.2201
  464MOL0     C63916   8.954   7.671   8.589  0.7857 -0.1791 -0.3132
  464MOL0     C63917   9.077   7.677   8.511 -0.4193  0.4623  0.6440
  464MOL0     O63918   9.092   7.779   8.415 -0.0166 -0.1300  0.7815
  464MOL0     C63919   9.193   7.764   8.320  0.0695 -0.2354  0.8196
  464MOL0     C63920   9.316   7.703   8.343 -0.6844  0.5325 -0.1408
  464MOL0     C63921   9.401   7.681   8.236  1.2295  0.3595  0.1918
  464MOL0     C63922   9.524   7.605   8.263 -0.3094 -0.1001  0.3925
  464MOL0     C63923   9.374   7.747   8.114 -0.7149  0.6482  0.6231
  464MOL0     C63924   9.476   7.734   8.001 -0.6373  0.4437 -0.1941
  464MOL0     O63925   9.436   7.743   7.873 -0.5114 -0.5123 -0.4362
  464MOL0     C63926   9.511   7.698   7.765 -0.1241  0.2100 -0.0109
  464MOL0     C63927   9.458   7.731   7.638 -0.4379  0.2009  0.7369
  464MOL0     C63928   9.519   7.698   7.511  0.2131 -0.5664  0.4497
  464MOL0     C63929   9.655   7.650   7.521  0.2641 -0.8106 -0.5057
  464MOL0     O63930   9.741   7.599   7.420  0.6744  0.2819 -0.0998
  464MOL0     C63931   9.731   7.680   7.302 -0.9853 -0.1182  0.6212
  464MOL0     C63932   9.845   7.633   7.209 -0.2108 -0.3517  1.0449
  464MOL0     C63933   9.853   7.703   7.074 -0.2815 -0.1330 -0.7016
  464MOL0     C63934   9.949   7.639   6.976  1.1716 -0.1238  0.0559
  464MOL0     C63935  10.080   7.632   7.036  0.0326 -0.5381 -0.2660
  464MOL0     C63936  10.186   7.585   6.930  0.0575 -0.0535 -0.0815
  464MOL0     C63937  10.304   7.523   7.000  0.4523 -0.3626  0.0503
  464MOL0     C63938  10.398   7.452   6.900 -0.3460  0.4039 -0.2421
  464MOL0    Cl63939  10.467   7.579   6.789  0.0370  0.2204 -0.3191
  464MOL0     C63940   9.710   7.625   7.655  0.7332  0.5622  0.5404
  464MOL0     C63941   9.641   7.642   7.770  0.9785 -1.1840 -0.8144
  464MOL0     O63942   9.595   7.743   8.035 -1.2564  0.1950  0.2963
  464MOL0     C63943   9.257   7.818   8.101  0.4719 -0.0700  0.6221
  464MOL0     C63944   9.164   7.836   8.206 -0.3148 -0.3607 -0.0334
  464MOL0     N63945   8.833   7.395   8.556  0.1563  0.8694 -0.2571
  464MOL0     N63946   8.874   7.274   8.584  0.3322  0.0201  0.1485
  464MOL0     C63947   8.914   6.188   8.398 -0.5113  0.7586 -0.5591
  464MOL0     C63948   8.964   6.062   8.344 -0.2602 -0.3129 -0.1019
  464MOL0     C63949   9.250   5.743   8.215  0.6425 -0.3712  0.3623
  464MOL0     C63950   9.285   5.667   8.326 -1.0573  0.0319 -0.1171
  464MOL0     C63951   9.375   5.552   8.311 -0.2790 -0.2708 -0.4760
  464MOL0     C63952   9.413   5.513   8.186 -0.6394  0.5145  0.5987
  464MOL0     O63953   9.508   5.421   8.171  0.2375  0.0276  0.8271
  464MOL0     C63954   9.465   5.293   8.151  0.4434  0.9238  0.6346
  464MOL0     C63955   9.573   5.201   8.128  0.1136 -0.1511  0.0765
  464MOL0     C63956   9.525   5.059   8.107  0.1346 -0.6809 -0.2317
  464MOL0     C63957   9.646   4.976   8.059  0.2456 -0.8195  0.0001
  464MOL0     C63958   9.601   4.837   8.036  0.5221  0.2879 -0.3611
  464MOL0     C63959   9.570   4.719   8.014 -0.3675 -0.3732  0.1826
  464MOL0     C63960   9.369   5.586   8.071  0.3194 -0.3867  0.4465
  464MOL0     C63961   9.292   5.700   8.088 -0.4527 -0.5344 -0.6495
  464MOL0     C63962   9.268   5.773   7.959 -0.8981 -0.6393 -0.8141
  464MOL0     H63963   9.159   5.949   8.589  1.6378  1.8079 -2.5682
  464MOL0     H63964   9.088   6.163   8.695 -1.0859  0.8556  1.8939
  464MOL0     H63965   9.096   6.397   8.664  0.2881  0.6020 -3.6143
  464MOL0     H63966   8.978   6.348   8.784  3.6389 -0.7494  0.5231
  464MOL0     H63967   8.827   6.554   8.724 -0.4689  0.8302 -2.7315
  464MOL0     H63968   8.992   6.582   8.790  0.6693 -1.0663  0.4779
  464MOL0     H63969   9.083   6.607   8.579  0.3795 -1.0942  0.3520
  464MOL0     H63970   8.944   6.551   8.482  0.2211  1.1916  0.7146
  464MOL0     H63971   8.949   6.784   8.671 -0.3084 -2.0620  1.6650
  464MOL0     H63972   8.993   6.791   8.497  0.7370 -1.5055 -0.2631
  464MOL0     H63973   8.716   6.704   8.584  0.0789 -1.9067 -1.1364
  464MOL0     H63974   8.788   6.714   8.422 -1.2137 -1.0976  1.0063
  464MOL0     H63975   8.648   6.912   8.463  0.0827 -1.7271 -1.0437
  464MOL0     H63976   8.761   6.965   8.596  0.3360 -1.6577  0.2451
  464MOL0     H63977   8.760   7.053   8.337 -0.9126 -0.2375  2.1304
  464MOL0     H63978   8.875   6.926   8.311  1.9697  2.3629 -1.4648
  464MOL0     H63979   8.985   7.029   8.539  1.5171 -3.3812 -1.9904
  464MOL0     H63980   9.029   7.068   8.368 -0.6499  1.8482 -0.5212
  464MOL0     H63981   8.953   7.304   8.263  0.1878 -0.3034  0.0656
  464MOL0     H63982   8.725   7.553   8.349 -0.0269 -0.0401  2.0764
  464MOL0     H63983   8.892   7.588   8.295 -0.1517 -0.7699 -0.6920
  464MOL0     H63984   8.835   7.765   8.440 -1.3679  0.6390  0.9595
  464MOL0     H63985   8.745   7.654   8.550 -0.4872  0.2778 -0.6528
  464MOL0     H63986   8.943   7.754   8.660  2.6448 -1.1576  1.2026
  464MOL0     H63987   8.966   7.592   8.663  1.5935  2.5092  2.6654
  464MOL0     H63988   9.166   7.691   8.573  1.2020  1.7135 -1.7989
  464MOL0     H63989   9.088   7.581   8.460 -2.0995 -1.6078  3.8134
  464MOL0     H63990   9.340   7.662   8.440 -4.2258 -0.6391  0.3878
  464MOL0     H63991   9.548   7.552   8.170 -2.6761  0.9174 -0.8837
  464MOL0     H63992   9.496   7.527   8.335 -0.7293 -0.3080  0.0162
  464MOL0     H63993   9.606   7.665   8.302 -1.3872  0.3455  2.0679
  464MOL0     H63994   9.351   7.747   7.629 -0.3784  0.0963 -0.2920
  464MOL0     H63995   9.482   7.715   7.411 -0.2053  0.5757  0.7832
  464MOL0     H63996   9.632   7.656   7.263 -1.6273 -1.2077  2.7795
  464MOL0     H63997   9.744   7.781   7.343 -1.2999 -0.4258  1.4973
  464MOL0     H63998   9.936   7.652   7.266  0.3473  2.5830 -0.6547
  464MOL0     H63999   9.839   7.526   7.190  2.5024 -0.2266 -1.1220
  464MOL0     H64000   9.889   7.804   7.092 -0.7947 -0.4096  2.4045
  464MOL0     H64001   9.751   7.697   7.034 -1.4372 -1.9876  2.1852
  464MOL0     H64002   9.945   7.699   6.884  0.4572  0.2858  0.3468
  464MOL0     H64003   9.914   7.536   6.964 -0.5204  0.1873  1.8301
  464MOL0     H64004  10.114   7.731   7.067  0.8828 -0.4084 -1.5111
  464MOL0     H64005  10.086   7.568   7.125 -1.9911  1.0118  1.0711
  464MOL0     H64006  10.218   7.675   6.876 -0.9267 -0.4706 -1.4120
  464MOL0     H64007  10.148   7.511   6.858  1.8887 -0.8323 -0.2888
  464MOL0     H64008  10.270   7.447   7.071 -0.2811  2.0557  2.4538
  464MOL0     H64009  10.355   7.607   7.049 -0.8140  1.2392 -1.2501
  464MOL0     H64010  10.339   7.381   6.841  0.3891  0.2121 -0.7525
  464MOL0     H64011  10.476   7.395   6.950  2.8539  4.6032  0.0449
  464MOL0     H64012   9.805   7.575   7.670  0.7746  0.9057  1.4700
  464MOL0     H64013   9.678   7.609   7.867 -1.6638  2.2079  1.5760
  464MOL0     H64014   9.225   7.855   8.004 -0.2058  1.0437  1.2520
  464MOL0     H64015   9.071   7.889   8.190 -1.6914 -3.0911 -1.9801
  464MOL0     H64016   8.847   6.251   8.342 -0.4904  0.5544 -0.8184
  464MOL0     H64017   8.918   6.017   8.257 -1.4396 -2.0333  1.3406
  464MOL0     H64018   9.250   5.678   8.429  1.8213  0.8483  0.8791
  464MOL0     H64019   9.399   5.500   8.403  1.0096  0.4910 -0.3501
  464MOL0     H64020   9.425   5.243   8.240  2.2646 -4.1841 -1.0613
  464MOL0     H64021   9.390   5.297   8.072  2.8370  1.1366 -1.7666
  464MOL0     H64022   9.638   5.203   8.216 -0.7126 -1.3844  0.7427
  464MOL0     H64023   9.626   5.237   8.040  3.7861  0.0549  2.1650
  464MOL0     H64024   9.481   5.013   8.196 -1.5417 -0.6233 -0.9881
  464MOL0     H64025   9.449   5.055   8.028 -0.2272  0.2165  0.0587
  464MOL0     H64026   9.733   4.983   8.126 -1.7773  2.1192  2.6354
  464MOL0     H64027   9.687   5.034   7.975  1.0240  3.0010  2.7112
  464MOL0     H64028   9.538   4.617   8.012  1.6356 -1.0827  1.3989
  464MOL0     H64029   9.403   5.555   7.972 -0.3267  4.2584 -1.4938
  464MOL0     H64030   9.314   5.872   7.962  3.0484 -2.1023  4.7976
  464MOL0     H64031   9.296   5.712   7.873 -0.0364 -3.8500  1.5584
  464MOL0     H64032   9.159   5.787   7.964 -0.8033  0.1208  3.9363
  465MOL0     O64033   3.979   9.674   5.093  0.2280 -0.1758  0.2391
  465MOL0     C64034   4.089   9.614   5.099  0.2233 -0.4011  0.2586
  465MOL0     O64035   4.121   9.491   5.038  0.6753 -0.1272  0.3951
  465MOL0     C64036   4.032   9.412   4.971 -0.8438 -0.2208  0.6478
  465MOL0     C64037   3.894   9.414   4.970 -0.4547 -0.6150 -0.0198
  465MOL0     C64038   3.819   9.335   4.887  0.0130  0.7866 -0.0681
  465MOL0     C64039   3.880   9.233   4.813 -0.7570  0.6318  0.7046
  465MOL0     O64040   3.811   9.160   4.717  0.7564  0.0374  0.2776
  465MOL0     C64041   3.668   9.149   4.736 -0.3618 -0.7703  0.1631
  465MOL0     C64042   3.598   9.067   4.628  0.6094 -1.1651  0.7120
  465MOL0     C64043   3.583   9.146   4.496  0.3650 -0.0669  0.8843
  465MOL0     C64044   3.517   9.057   4.391  0.5314  0.3352 -0.0371
  465MOL0     C64045   3.371   9.021   4.421  0.6064 -1.1570  0.5475
  465MOL0     C64046   3.273   9.134   4.465  0.2296 -0.7668 -0.5578
  465MOL0     C64047   3.290   9.280   4.407  0.6735 -0.1983 -0.0568
  465MOL0     C64048   3.237   9.392   4.492  0.3457  0.9659  0.2423
  465MOL0     N64049   3.311   9.397   4.617 -0.0087  0.7389 -0.6193
  465MOL0     C64050   3.269   9.357   4.746 -0.0066 -0.2110  0.0648
  465MOL0     C64051   3.375   9.395   4.824 -0.6206  0.1731 -0.4493
  465MOL0     C64052   3.389   9.389   4.980  0.3325  0.7858  0.6946
  465MOL0     C64053   3.441   9.530   5.051  0.4585  0.8784  0.2580
  465MOL0     C64054   3.460   9.523   5.203  0.5057 -0.7790  0.4011
  465MOL0     C64055   3.479   9.384   5.260 -0.4276  0.8919 -0.4056
  465MOL0     O64056   3.598   9.313   5.215  0.6073  0.1236 -0.0341
  465MOL0     C64057   3.661   9.224   5.305  0.2988 -0.2239  0.4128
  465MOL0     C64058   3.592   9.168   5.415  0.0196  0.0351  0.2181
  465MOL0     C64059   3.666   9.084   5.514  0.2522 -0.0610  0.0744
  465MOL0     C64060   3.589   9.027   5.626  0.1886 -0.5789 -0.4777
  465MOL0     C64061   3.802   9.056   5.490  0.0721  0.6989 -0.5904
  465MOL0     C64062   3.891   8.987   5.589 -0.5070 -0.8517  0.2801
  465MOL0     O64063   4.007   8.941   5.544  0.2074 -0.2586  0.1101
  465MOL0     C64064   4.110   8.911   5.634 -0.0924 -0.7260 -0.0265
  465MOL0     C64065   4.197   8.808   5.588 -0.7813 -0.7029 -0.4669
  465MOL0     C64066   4.311   8.782   5.674  0.7419  0.4501 -0.2881
  465MOL0     C64067   4.337   8.844   5.791  0.2790 -0.3114 -1.0708
  465MOL0     O64068   4.459   8.802   5.858  0.0318 -0.2094  0.3146
  465MOL0     C64069   4.504   8.894   5.959  0.5575  0.2734 -0.7097
  465MOL0     C64070   4.612   8.820   6.047 -0.5687  0.7009  0.6987
  465MOL0     C64071   4.731   8.773   5.950 -0.6922  0.7766 -0.2091
  465MOL0     C64072   4.835   8.698   6.035  0.0286  0.1835  0.5418
  465MOL0     C64073   4.917   8.600   5.939 -0.8708 -0.7126  0.4023
  465MOL0     C64074   5.044   8.552   6.004  0.1322  0.5978  0.1862
  465MOL0     C64075   5.122   8.447   5.930  0.6272  0.6091  0.1548
  465MOL0     C64076   5.252   8.410   5.998 -1.1447  0.7411  0.4773
  465MOL0    Cl64077   5.356   8.540   6.024  0.3160 -0.0431 -0.1571
  465MOL0     C64078   4.250   8.949   5.832  0.6577 -0.4741 -0.1466
  465MOL0     C64079   4.148   8.992   5.748  0.5266  1.1092  0.4649
  465MOL0     O64080   3.854   8.964   5.703 -0.2319  0.4796 -0.1767
  465MOL0     C64081   3.861   9.096   5.372 -0.1194 -0.6312 -0.2027
  465MOL0     C64082   3.793   9.185   5.282 -1.0698  0.2242  0.0989
  465MOL0     N64083   3.476   9.450   4.744  0.2946  0.2113 -0.1696
  465MOL0     N64084   3.434   9.461   4.625 -0.0901  0.4014 -0.7109
  465MOL0     C64085   4.020   9.232   4.804 -0.2637  0.2419 -0.4956
  465MOL0     C64086   4.095   9.323   4.884 -0.1751  0.3029  0.0396
  465MOL0     C64087   4.193   9.667   5.175  0.0634  0.4158  0.0951
  465MOL0     C64088   4.317   9.591   5.183 -1.3677 -0.6402 -0.6622
  465MOL0     C64089   4.433   9.641   5.250  0.7081 -0.5251 -0.4679
  465MOL0     C64090   4.428   9.751   5.337  0.4565 -0.0002 -0.5314
  465MOL0     O64091   4.543   9.778   5.405  0.2472  0.2290 -0.0923
  465MOL0     C64092   4.555   9.886   5.502 -0.5278  0.4464 -0.2160
  465MOL0     C64093   4.576  10.010   5.432 -0.0219  1.0447  0.6051
  465MOL0     C64094   4.707  10.024   5.350 -0.2845  0.1222  0.0281
  465MOL0     C64095   4.712  10.152   5.270 -0.1515 -0.0759  0.7595
  465MOL0     C64096   4.836  10.147   5.195  0.8662  0.0692  0.4627
  465MOL0     C64097   4.937  10.133   5.127  1.1193 -0.1798  0.5480
  465MOL0     C64098   4.306   9.818   5.337  0.8736 -0.5939  0.1844
  465MOL0     C64099   4.186   9.775   5.271  0.3699  0.0105  0.9997
  465MOL0     C64100   4.058   9.861   5.290  0.3807 -0.0690 -0.2132
  465MOL0     H64101   3.847   9.503   5.009  2.6028  1.1350 -0.0144
  465MOL0     H64102   3.713   9.358   4.878  0.0451  0.9266 -0.0830
  465MOL0     H64103   3.618   9.246   4.749  0.2780 -0.0659 -2.2813
  465MOL0     H64104   3.655   9.097   4.832  0.5587 -0.3726  0.5175
  465MOL0     H64105   3.653   8.973   4.621 -1.1625 -2.4270  2.4202
  465MOL0     H64106   3.502   9.033   4.669 -1.6497  2.1326 -1.4009
  465MOL0     H64107   3.537   9.242   4.522  2.4148  2.1656 -2.8919
  465MOL0     H64108   3.682   9.180   4.465  0.6240 -0.6598  1.0439
  465MOL0     H64109   3.503   9.111   4.297  1.6050 -1.2937 -1.1742
  465MOL0     H64110   3.572   8.968   4.359 -1.7654 -0.9052 -0.6853
  465MOL0     H64111   3.374   8.939   4.493  2.1410 -2.2238 -0.6613
  465MOL0     H64112   3.320   8.979   4.334  2.5837  0.4288 -1.5243
  465MOL0     H64113   3.170   9.104   4.444 -1.1471  0.3851  3.7105
  465MOL0     H64114   3.282   9.142   4.573  0.3916 -0.4306 -0.5944
  465MOL0     H64115   3.225   9.286   4.319  1.7938 -1.0196 -0.9742
  465MOL0     H64116   3.394   9.304   4.380  0.9242 -0.6168  0.5115
  465MOL0     H64117   3.244   9.482   4.431  0.9160 -0.8940 -2.6144
  465MOL0     H64118   3.137   9.361   4.523  0.5662  1.3342  1.3933
  465MOL0     H64119   3.171   9.316   4.769 -0.4371 -0.6153 -2.2420
  465MOL0     H64120   3.464   9.315   5.008  1.5459  2.2316  1.3735
  465MOL0     H64121   3.296   9.351   5.024 -0.4118 -0.9870 -2.1744
  465MOL0     H64122   3.543   9.546   5.016  0.5631  2.3688  1.1572
  465MOL0     H64123   3.371   9.608   5.021 -0.7310  0.1237  0.9956
  465MOL0     H64124   3.553   9.579   5.218 -2.0888  4.1360  0.4421
  465MOL0     H64125   3.381   9.578   5.254  2.4362  1.6703  0.9521
  465MOL0     H64126   3.475   9.381   5.369 -1.1967  0.3793 -0.4431
  465MOL0     H64127   3.391   9.328   5.226  0.7351 -0.5954 -1.0988
  465MOL0     H64128   3.484   9.178   5.413 -0.1440 -0.0851  3.4281
  465MOL0     H64129   3.629   9.075   5.716  0.1715 -2.3555  0.5044
  465MOL0     H64130   3.602   8.919   5.638 -4.3111 -1.1206  1.7134
  465MOL0     H64131   3.484   9.052   5.605  1.0043  1.2056 -2.9534
  465MOL0     H64132   4.186   8.758   5.493 -4.2416 -2.0982  0.5125
  465MOL0     H64133   4.374   8.699   5.641 -2.3233 -2.3832  0.4190
  465MOL0     H64134   4.545   8.990   5.926  0.1890  1.2526  1.4802
  465MOL0     H64135   4.426   8.930   6.027  0.8697  0.2983 -0.3591
  465MOL0     H64136   4.667   8.880   6.120 -1.1741  2.8181 -0.5021
  465MOL0     H64137   4.563   8.731   6.087  0.8350 -0.9670 -1.0490
  465MOL0     H64138   4.780   8.866   5.922  0.7311  0.4266  0.9864
  465MOL0     H64139   4.702   8.718   5.860  1.1625 -2.0569  0.7859
  465MOL0     H64140   4.785   8.636   6.110 -1.5231  0.9261  0.1520
  465MOL0     H64141   4.904   8.764   6.089  0.5521 -0.2994  0.4783
  465MOL0     H64142   4.852   8.514   5.917 -0.5351 -0.9338  0.2732
  465MOL0     H64143   4.937   8.644   5.841 -6.0301  3.5219  0.7809
  465MOL0     H64144   5.019   8.512   6.103  1.0254  0.6856  0.4611
  465MOL0     H64145   5.108   8.637   6.031 -0.2201  1.4240 -1.4372
  465MOL0     H64146   5.137   8.485   5.829  0.9997  1.7614  0.6257
  465MOL0     H64147   5.059   8.358   5.923  1.7645 -0.1857 -0.2291
  465MOL0     H64148   5.290   8.337   5.926  0.6572  1.5777  0.5149
  465MOL0     H64149   5.236   8.352   6.090 -1.8814  0.4842  0.1952
  465MOL0     H64150   4.277   9.006   5.920  2.1849  1.5261 -1.8003
  465MOL0     H64151   4.087   9.077   5.779  0.3578  1.3349 -0.4707
  465MOL0     H64152   3.967   9.078   5.354 -0.3357  1.0547 -3.9645
  465MOL0     H64153   3.848   9.218   5.195  0.7090 -0.6746  0.8408
  465MOL0     H64154   4.073   9.173   4.730 -0.2755 -0.2718 -0.1046
  465MOL0     H64155   4.203   9.334   4.877 -0.0581  2.1907  3.1010
  465MOL0     H64156   4.329   9.496   5.131  1.3489  0.7885 -2.9071
  465MOL0     H64157   4.524   9.583   5.243  0.7435 -0.4087 -1.0005
  465MOL0     H64158   4.469   9.891   5.570 -0.4482 -0.0998 -0.0631
  465MOL0     H64159   4.639   9.859   5.567 -0.4023  0.4981 -0.3569
  465MOL0     H64160   4.588  10.085   5.510 -1.0287  1.6358  0.2196
  465MOL0     H64161   4.489  10.029   5.368 -1.4656 -1.3053  1.7003
  465MOL0     H64162   4.792  10.015   5.419  0.3125 -0.7782 -0.7970
  465MOL0     H64163   4.717   9.936   5.285  2.5200 -0.3257  0.9268
  465MOL0     H64164   4.703  10.246   5.326  0.7827 -1.2376  2.9681
  465MOL0     H64165   4.636  10.149   5.192  0.0692 -1.3812  0.5767
  465MOL0     H64166   5.036  10.129   5.086  0.5921 -0.9911 -0.6813
  465MOL0     H64167   4.299   9.918   5.377 -0.9792 -0.8471  0.6151
  465MOL0     H64168   4.079   9.946   5.356 -0.5159  0.5296 -0.6865
  465MOL0     H64169   4.041   9.912   5.195 -0.3911  0.7134  0.3278
  465MOL0     H64170   3.970   9.800   5.310  0.0371  0.4077 -0.2477
  466MOL0     O64171   7.498   5.115   7.606  0.1923  0.7862 -0.4235
  466MOL0     C64172   7.506   5.099   7.489  0.0622  0.4869  0.1581
  466MOL0     O64173   7.533   4.978   7.431 -0.2830 -0.4212  0.6959
  466MOL0     C64174   7.506   4.869   7.496  0.1537  0.0608  0.0894
  466MOL0     C64175   7.606   4.766   7.506 -0.0417  0.2880  0.6312
  466MOL0     C64176   7.564   4.640   7.563 -0.0306  0.2766 -0.4825
  466MOL0     C64177   7.447   4.625   7.636 -0.6635 -0.0999  0.2153
  466MOL0     O64178   7.427   4.504   7.701  0.5261  0.2175  0.5040
  466MOL0     C64179   7.323   4.478   7.791 -0.5716  0.2128 -0.9667
  466MOL0     C64180   7.371   4.541   7.931 -0.6741 -0.5413 -0.7012
  466MOL0     C64181   7.503   4.458   7.978  0.2865 -0.6023  0.6104
  466MOL0     C64182   7.468   4.346   8.062 -0.9299  0.2212  0.0367
  466MOL0     C64183   7.428   4.379   8.208  0.2633 -0.4947  1.3449
  466MOL0     C64184   7.405   4.255   8.291  0.9058  0.3914 -0.4469
  466MOL0     C64185   7.536   4.188   8.333 -0.3614  0.9502 -0.2640
  466MOL0     C64186   7.514   4.048   8.395  0.6984 -0.1047  0.4134
  466MOL0     N64187   7.638   3.993   8.434  0.9866  0.7781  0.0559
  466MOL0     C64188   7.733   3.957   8.338  1.0982 -0.2436  0.0097
  466MOL0     C64189   7.818   3.890   8.414  0.1053 -0.2055 -0.8614
  466MOL0     C64190   7.924   3.813   8.349 -0.7253  0.5347  0.0331
  466MOL0     C64191   7.887   3.675   8.316 -0.3915  0.4261 -1.7018
  466MOL0     C64192   7.842   3.591   8.438  0.4494 -0.5601 -0.0283
  466MOL0     C64193   7.841   3.442   8.390  0.3994  0.2287 -0.2143
  466MOL0     O64194   7.770   3.381   8.495  0.0042 -0.3346 -0.3140
  466MOL0     C64195   7.837   3.335   8.602  0.4117  0.3470 -1.0371
  466MOL0     C64196   7.976   3.346   8.629  0.3704  0.0209  0.1202
  466MOL0     C64197   8.035   3.323   8.753 -0.1879  0.8511 -0.5697
  466MOL0     C64198   8.183   3.341   8.767  1.2793 -0.0927  0.5757
  466MOL0     C64199   7.955   3.261   8.853  0.1441 -0.1018  0.0979
  466MOL0     C64200   8.009   3.214   8.988  0.4831  0.2546 -0.6171
  466MOL0     O64201   8.134   3.158   8.989 -0.3288 -0.1883 -0.0846
  466MOL0     C64202   8.158   3.056   9.083 -0.6856  0.0177 -0.3445
  466MOL0     C64203   8.291   3.035   9.116  0.3191  0.4769  0.2473
  466MOL0     C64204   8.326   2.946   9.218 -0.1253  0.1520 -0.0792
  466MOL0     C64205   8.232   2.865   9.283  0.9300 -0.4407  0.7129
  466MOL0     O64206   8.265   2.791   9.388 -0.7511  0.7113 -0.4447
  466MOL0     C64207   8.192   2.803   9.511 -0.0533  0.8554 -0.3185
  466MOL0     C64208   8.275   2.772   9.634 -0.5374 -0.7634  0.5313
  466MOL0     C64209   8.300   2.625   9.658  0.4718  0.5300 -0.1053
  466MOL0     C64210   8.402   2.592   9.757 -0.4968 -0.4739  1.0224
  466MOL0     C64211   8.448   2.442   9.771  0.6190  0.6511 -0.3799
  466MOL0     C64212   8.514   2.398   9.644 -0.6048  0.3728 -1.3004
  466MOL0     C64213   8.544   2.243   9.647 -0.2257  0.6409 -0.2142
  466MOL0     C64214   8.614   2.181   9.764  0.2954 -0.2907  0.2345
  466MOL0    Cl64215   8.654   2.008   9.731  0.2450 -0.2214  0.4360
  466MOL0     C64216   8.099   2.872   9.238 -0.3990  0.3890 -1.0393
  466MOL0     C64217   8.059   2.960   9.139 -0.1374 -0.0691 -0.1425
  466MOL0     O64218   7.924   3.210   9.077 -0.5357  0.5580 -0.4560
  466MOL0     C64219   7.821   3.242   8.830 -0.1734  1.0638 -0.0289
  466MOL0     C64220   7.758   3.287   8.708  1.0248 -0.1816 -0.1156
  466MOL0     N64221   7.783   3.886   8.556 -0.6459 -0.5796 -0.4183
  466MOL0     N64222   7.674   3.962   8.559 -0.4945  0.3632  0.1222
  466MOL0     C64223   7.355   4.727   7.619  0.7492  0.0343 -0.7119
  466MOL0     C64224   7.381   4.847   7.556 -0.7477 -0.4970 -0.0069
  466MOL0     C64225   7.523   5.211   7.401 -0.4793 -0.4630  0.7466
  466MOL0     C64226   7.631   5.305   7.424  0.0758 -0.3403 -0.1320
  466MOL0     C64227   7.640   5.417   7.347 -0.7076 -0.3753  0.9571
  466MOL0     C64228   7.539   5.452   7.256  0.1080 -0.5014  0.7941
  466MOL0     O64229   7.558   5.554   7.160 -0.1955  0.3725 -0.8010
  466MOL0     C64230   7.686   5.616   7.148 -0.2295  0.7210 -0.6711
  466MOL0     C64231   7.653   5.754   7.075 -0.4924  0.7980 -0.7527
  466MOL0     C64232   7.588   5.857   7.155 -1.3665 -0.0654  0.5368
  466MOL0     C64233   7.523   5.960   7.074  0.2737 -0.3121  1.1478
  466MOL0     C64234   7.612   6.007   6.971  0.0811 -0.3797 -0.6014
  466MOL0     C64235   7.687   6.056   6.885  0.5475  0.9632 -0.1227
  466MOL0     C64236   7.419   5.373   7.244 -0.5653  0.3228  0.2124
  466MOL0     C64237   7.425   5.244   7.306  0.4307 -0.2151  0.2025
  466MOL0     C64238   7.317   5.145   7.270  0.2034  0.3609  0.5867
  466MOL0     H64239   7.699   4.782   7.452  1.6481 -1.4041  2.8257
  466MOL0     H64240   7.609   4.543   7.546 -2.5490 -0.5451 -3.4471
  466MOL0     H64241   7.300   4.372   7.803 -0.9415  0.4595  0.6819
  466MOL0     H64242   7.230   4.530   7.769 -1.3609  0.3028  2.1045
  466MOL0     H64243   7.399   4.646   7.915 -1.4355  0.4330  3.3670
  466MOL0     H64244   7.291   4.547   8.005 -0.2567 -2.1817 -0.0912
  466MOL0     H64245   7.553   4.421   7.888 -1.6894  0.5020 -1.0165
  466MOL0     H64246   7.566   4.535   8.024 -1.7677  0.1108  2.3878
  466MOL0     H64247   7.395   4.281   8.012 -0.2275  0.0448 -0.7856
  466MOL0     H64248   7.556   4.281   8.066  0.0981  1.6237  3.1220
  466MOL0     H64249   7.343   4.447   8.216  1.0363  0.8257 -1.0339
  466MOL0     H64250   7.516   4.430   8.249  0.9374  0.4056 -1.0687
  466MOL0     H64251   7.347   4.272   8.382 -0.1066  0.6478 -1.1250
  466MOL0     H64252   7.346   4.193   8.223 -1.9267  3.4493 -1.0504
  466MOL0     H64253   7.586   4.253   8.406 -0.7297  0.7439  0.1729
  466MOL0     H64254   7.603   4.177   8.247  0.3302 -0.1782  0.3912
  466MOL0     H64255   7.445   4.054   8.480 -2.4453  2.0003 -2.0166
  466MOL0     H64256   7.461   3.983   8.325 -0.5023  1.2496  0.0104
  466MOL0     H64257   7.734   3.962   8.230  2.6795 -2.0875 -0.1126
  466MOL0     H64258   8.006   3.814   8.422 -1.9380 -2.0357  1.5474
  466MOL0     H64259   7.963   3.862   8.259 -1.3989 -0.9599 -1.1137
  466MOL0     H64260   7.810   3.669   8.239 -0.5103 -1.1794 -1.5000
  466MOL0     H64261   7.979   3.627   8.280  0.0810 -1.3235  1.4184
  466MOL0     H64262   7.925   3.601   8.509  3.0970 -0.9987 -2.8268
  466MOL0     H64263   7.745   3.628   8.472  0.1964 -0.8384 -0.4366
  466MOL0     H64264   7.771   3.433   8.306 -1.3999  2.4096  0.9196
  466MOL0     H64265   7.939   3.398   8.372  1.5142  1.2576  2.7605
  466MOL0     H64266   8.033   3.410   8.563  1.3078 -1.4370 -0.5324
  466MOL0     H64267   8.207   3.413   8.846  1.2089  1.9929 -1.2234
  466MOL0     H64268   8.235   3.373   8.677  0.8581 -2.7791 -0.7110
  466MOL0     H64269   8.220   3.238   8.774  0.8767 -0.2656  0.2102
  466MOL0     H64270   8.368   3.096   9.070  1.0321  1.0050  2.0630
  466MOL0     H64271   8.429   2.931   9.248  0.3175  2.9967  0.0150
  466MOL0     H64272   8.164   2.909   9.510 -2.7373  0.4722  4.2100
  466MOL0     H64273   8.101   2.744   9.526 -0.9714  2.5741  1.2868
  466MOL0     H64274   8.375   2.811   9.613 -0.5923  0.1888  1.9395
  466MOL0     H64275   8.231   2.811   9.726 -0.8339  0.5202 -0.1327
  466MOL0     H64276   8.324   2.581   9.561 -0.4333  2.1167 -1.1091
  466MOL0     H64277   8.207   2.582   9.695  0.3801 -1.8025 -2.7111
  466MOL0     H64278   8.374   2.637   9.853 -3.1491 -0.0567  0.1386
  466MOL0     H64279   8.489   2.652   9.727 -2.7856  2.6943  0.1019
  466MOL0     H64280   8.513   2.425   9.857 -1.0652 -0.5149  0.7249
  466MOL0     H64281   8.362   2.374   9.776 -0.2587  1.6800 -1.0052
  466MOL0     H64282   8.610   2.449   9.632  0.2540 -1.5675 -3.3150
  466MOL0     H64283   8.437   2.403   9.567 -1.6761 -3.1432 -0.6218
  466MOL0     H64284   8.611   2.220   9.563  1.1598 -1.4625  1.3623
  466MOL0     H64285   8.447   2.199   9.625 -1.5989  3.1858  0.3265
  466MOL0     H64286   8.557   2.197   9.856 -2.9170  0.0449 -1.6631
  466MOL0     H64287   8.711   2.230   9.776  1.3384 -2.4059  0.9783
  466MOL0     H64288   8.015   2.820   9.285 -1.1712  0.9031 -1.8243
  466MOL0     H64289   7.952   2.962   9.121 -0.1431  2.2018 -0.2178
  466MOL0     H64290   7.754   3.208   8.909  1.4526  0.3244  1.1004
  466MOL0     H64291   7.650   3.279   8.701  0.8926 -2.6156  2.7028
  466MOL0     H64292   7.258   4.708   7.664  1.4034 -1.7390  0.0567
  466MOL0     H64293   7.294   4.911   7.562  0.7838  2.0571 -2.4616
  466MOL0     H64294   7.706   5.275   7.496  1.0893 -0.7800 -1.3341
  466MOL0     H64295   7.733   5.473   7.347 -0.7122 -0.2664 -1.1399
  466MOL0     H64296   7.728   5.652   7.243  0.0428 -0.7001 -0.2341
  466MOL0     H64297   7.750   5.549   7.090 -3.8178 -2.8382 -0.9643
  466MOL0     H64298   7.587   5.733   6.990 -2.2105 -1.3124  0.9833
  466MOL0     H64299   7.747   5.790   7.032 -0.0425  2.4600  1.4191
  466MOL0     H64300   7.521   5.824   7.235  1.2917  0.6215  3.2437
  466MOL0     H64301   7.661   5.909   7.219 -1.7089 -2.2962  2.9258
  466MOL0     H64302   7.482   6.049   7.122 -1.6231 -0.8418  0.5901
  466MOL0     H64303   7.446   5.910   7.015  2.7789 -2.2656 -0.7172
  466MOL0     H64304   7.752   6.111   6.821 -1.1604  1.6222 -1.3800
  466MOL0     H64305   7.346   5.396   7.167 -0.0914 -0.3035 -0.4327
  466MOL0     H64306   7.235   5.194   7.216 -0.3511  2.9025  3.4515
  466MOL0     H64307   7.365   5.056   7.228  1.9575  0.8094  1.5318
  466MOL0     H64308   7.261   5.098   7.352 -0.1103 -1.7716 -0.7558
  467MOL0     O64309   8.798  11.423  10.982 -0.2287 -0.4118  0.4119
  467MOL0     C64310   8.877  11.400  11.080  0.1548  0.2243  0.5960
  467MOL0     O64311   8.862  11.455  11.202 -0.2380 -0.0216  0.2060
  467MOL0     C64312   8.743  11.496  11.256  0.9593  0.2664 -0.3927
  467MOL0     C64313   8.618  11.447  11.213  0.5917  0.1340  0.3142
  467MOL0     C64314   8.503  11.462  11.293  0.0705  0.4034 -1.1291
  467MOL0     C64315   8.507  11.545  11.404  0.0442  0.7695 -0.9232
  467MOL0     O64316   8.393  11.590  11.470 -0.7171  0.2350  0.4693
  467MOL0     C64317   8.341  11.466  11.529 -0.1695  0.7238 -0.0101
  467MOL0     C64318   8.196  11.508  11.558 -0.8150  0.3594  0.4260
  467MOL0     C64319   8.131  11.403  11.638 -0.0544  0.0606 -0.0821
  467MOL0     C64320   8.007  11.463  11.706 -0.3997 -0.9413  0.7187
  467MOL0     C64321   7.912  11.343  11.754  0.1322  0.2786  0.1869
  467MOL0     C64322   7.779  11.390  11.823  0.0839  0.3935 -0.3466
  467MOL0     C64323   7.681  11.455  11.718  0.5627  0.5113  0.6972
  467MOL0     C64324   7.600  11.340  11.637  0.1898 -0.8052 -0.1353
  467MOL0     N64325   7.495  11.393  11.548 -0.6188 -0.3742 -0.0424
  467MOL0     C64326   7.456  11.516  11.515  0.4405  0.0013  0.0300
  467MOL0     C64327   7.326  11.500  11.471 -1.0300 -0.9001 -0.4159
  467MOL0     C64328   7.226  11.610  11.445  0.2281 -0.3146 -0.0423
  467MOL0     C64329   7.112  11.621  11.549 -0.2411  0.1948 -0.2472
  467MOL0     C64330   7.153  11.687  11.678 -0.3894  0.1490 -0.3759
  467MOL0     C64331   7.024  11.693  11.768 -0.1502  0.0849  0.1003
  467MOL0     O64332   7.058  11.669  11.904  0.1431  1.2542  0.0179
  467MOL0     C64333   6.963  11.624  11.991  0.5038 -0.7615  0.0583
  467MOL0     C64334   6.829  11.616  11.971  0.5154  0.2939 -0.7288
  467MOL0     C64335   6.746  11.576  12.076  0.4645 -1.1500  0.3383
  467MOL0     C64336   6.609  11.551  12.035  0.2840  0.5556  0.8621
  467MOL0     C64337   6.794  11.541  12.201 -0.5575  0.2828  0.8283
  467MOL0     C64338   6.714  11.495  12.317 -0.2781 -0.3689 -1.1931
  467MOL0     O64339   6.787  11.423  12.406  0.3665 -0.0667 -0.5856
  467MOL0     C64340   6.739  11.370  12.523  0.7336 -0.6279 -0.0965
  467MOL0     C64341   6.823  11.380  12.636 -1.0471  0.0602  0.1796
  467MOL0     C64342   6.783  11.327  12.758  0.9138  0.0779 -0.3187
  467MOL0     C64343   6.653  11.288  12.783  1.0555 -0.0691  0.1637
  467MOL0     O64344   6.629  11.258  12.912  0.1518 -0.3440 -0.7753
  467MOL0     C64345   6.504  11.282  12.968 -0.5088  0.1628  0.3972
  467MOL0     C64346   6.528  11.279  13.116 -1.1150  1.1196  0.4596
  467MOL0     C64347   6.391  11.262  13.187  0.6518 -0.2321  0.1052
  467MOL0     C64348   6.383  11.338  13.321 -0.9452 -0.7404  0.4811
  467MOL0     C64349   6.249  11.344  13.397 -0.0065  0.4234  0.3408
  467MOL0     C64350   6.203  11.205  13.435 -0.0548  0.1979  0.6955
  467MOL0     C64351   6.097  11.214  13.548 -0.5433 -0.3514 -0.1474
  467MOL0     C64352   6.088  11.076  13.606  0.3092  0.3162  0.2790
  467MOL0    Cl64353   5.964  11.099  13.735 -0.3612  0.2886 -0.1411
  467MOL0     C64354   6.565  11.266  12.674 -0.4256 -0.1511 -0.6595
  467MOL0     C64355   6.611  11.311  12.547  0.3422  0.4838  0.0835
  467MOL0     O64356   6.594  11.523  12.334  0.0472 -0.5763 -0.3248
  467MOL0     C64357   6.933  11.569  12.221 -0.2124  0.1030 -0.4673
  467MOL0     C64358   7.017  11.607  12.115 -0.2786  1.0759 -0.2894
  467MOL0     N64359   7.296  11.368  11.469 -0.1096  0.0522  0.2192
  467MOL0     N64360   7.396  11.304  11.506 -0.6466  0.1060 -0.4715
  467MOL0     C64361   8.633  11.597  11.445  0.1289  0.1079  0.0887
  467MOL0     C64362   8.749  11.566  11.373  0.1553  0.0440  0.6269
  467MOL0     C64363   9.009  11.334  11.038 -0.5878  0.3953 -0.1407
  467MOL0     C64364   9.106  11.320  11.141 -0.1360 -0.1263 -0.3146
  467MOL0     C64365   9.231  11.266  11.116 -0.4063  1.0427 -0.6664
  467MOL0     C64366   9.266  11.217  10.986 -1.2273  0.4664 -0.0126
  467MOL0     O64367   9.394  11.158  10.972  0.0996 -0.3930 -0.0929
  467MOL0     C64368   9.425  11.070  10.856  0.1682 -0.2328  0.3920
  467MOL0     C64369   9.546  10.987  10.892  0.3132  0.4378  0.7484
  467MOL0     C64370   9.523  10.871  10.998  0.2463 -0.7530  0.7801
  467MOL0     C64371   9.660  10.796  11.029 -0.8957 -0.7027 -0.1246
  467MOL0     C64372   9.673  10.683  10.933  0.1526 -1.3301  0.0163
  467MOL0     C64373   9.693  10.596  10.850  0.1541  0.1993 -0.1351
  467MOL0     C64374   9.171  11.220  10.883 -0.1118 -0.7726  0.5051
  467MOL0     C64375   9.043  11.276  10.912  0.4754 -0.2610  0.4518
  467MOL0     C64376   8.938  11.260  10.808 -0.0364  0.7526  0.6951
  467MOL0     H64377   8.601  11.397  11.118 -0.4477  1.3606 -0.1787
  467MOL0     H64378   8.412  11.415  11.256 -1.0248  1.3363  0.2602
  467MOL0     H64379   8.380  11.455  11.631  0.5330 -0.6970 -0.4092
  467MOL0     H64380   8.346  11.372  11.474  2.3432  0.2654  0.8800
  467MOL0     H64381   8.210  11.597  11.620 -1.1297  1.0340 -0.4469
  467MOL0     H64382   8.136  11.525  11.468 -0.0816 -0.0441 -0.1566
  467MOL0     H64383   8.087  11.324  11.576 -1.6999  0.9489 -0.1283
  467MOL0     H64384   8.197  11.346  11.703  0.7476 -0.2766 -1.1719
  467MOL0     H64385   8.032  11.541  11.779 -0.7814  1.5369 -1.6269
  467MOL0     H64386   7.958  11.514  11.622  3.5228  0.7786 -0.7645
  467MOL0     H64387   7.979  11.299  11.828  0.0515 -1.7868 -0.9041
  467MOL0     H64388   7.898  11.270  11.674  1.2644  2.4843 -2.1971
  467MOL0     H64389   7.721  11.317  11.880 -2.2904  2.4429  0.0899
  467MOL0     H64390   7.815  11.466  11.894 -2.0124  0.0353  1.2005
  467MOL0     H64391   7.742  11.515  11.649  2.3889 -2.3785 -0.4047
  467MOL0     H64392   7.615  11.526  11.769 -0.3980 -1.5883  2.5432
  467MOL0     H64393   7.677  11.306  11.568  2.1871  2.2893  0.3654
  467MOL0     H64394   7.573  11.256  11.701 -1.3991  1.4653  2.3917
  467MOL0     H64395   7.486  11.619  11.531 -1.7875  1.0592 -1.9667
  467MOL0     H64396   7.184  11.607  11.345 -1.7883 -0.0192  0.7535
  467MOL0     H64397   7.298  11.693  11.441  0.2227 -0.3750 -1.8013
  467MOL0     H64398   7.019  11.658  11.505 -3.6243 -2.7012  3.6914
  467MOL0     H64399   7.091  11.514  11.560  2.2656 -0.2126  1.5503
  467MOL0     H64400   7.220  11.617  11.730 -1.4307 -1.5291 -1.2163
  467MOL0     H64401   7.197  11.785  11.659 -1.0373  0.8307  1.4100
  467MOL0     H64402   6.988  11.795  11.755  1.7641  1.2359  2.8472
  467MOL0     H64403   6.950  11.622  11.729  1.3697 -1.4566 -0.0961
  467MOL0     H64404   6.775  11.654  11.885 -0.8628  0.8731  0.3563
  467MOL0     H64405   6.541  11.629  12.069 -1.5498 -0.9454  0.7965
  467MOL0     H64406   6.571  11.468  12.094  0.4137  1.8251  2.8247
  467MOL0     H64407   6.589  11.536  11.928 -1.2660 -2.0219  1.4445
  467MOL0     H64408   6.923  11.422  12.628 -2.3921  3.4738 -0.3464
  467MOL0     H64409   6.851  11.333  12.842 -0.3104 -4.1101  1.2349
  467MOL0     H64410   6.456  11.377  12.942 -1.3726  0.0556  1.5134
  467MOL0     H64411   6.428  11.205  12.948  0.6267 -1.4671  2.0334
  467MOL0     H64412   6.592  11.191  13.129 -4.0526 -1.4539 -1.1013
  467MOL0     H64413   6.582  11.369  13.149 -0.7697  1.2034 -0.3031
  467MOL0     H64414   6.377  11.155  13.206 -1.1456 -0.4617 -2.0474
  467MOL0     H64415   6.311  11.296  13.120  1.2155  2.7069  0.7631
  467MOL0     H64416   6.396  11.444  13.296  2.6091 -1.2551 -0.4601
  467MOL0     H64417   6.472  11.307  13.378 -1.5660 -2.0695  0.7624
  467MOL0     H64418   6.266  11.395  13.493  0.9096  1.4773 -0.3474
  467MOL0     H64419   6.174  11.398  13.339 -4.2946 -4.1820  0.9631
  467MOL0     H64420   6.282  11.142  13.476  1.3881  1.6450  0.2423
  467MOL0     H64421   6.165  11.152  13.346  2.0953 -2.7839  1.4198
  467MOL0     H64422   5.996  11.233  13.510 -1.0571 -2.7259 -0.0942
  467MOL0     H64423   6.133  11.287  13.622  2.1621  1.4605 -2.9741
  467MOL0     H64424   6.176  11.028  13.648 -0.2812 -0.5290  0.5922
  467MOL0     H64425   6.046  11.016  13.524  0.1563 -0.2092  0.7383
  467MOL0     H64426   6.462  11.240  12.693 -0.2495  0.1517  0.7990
  467MOL0     H64427   6.539  11.306  12.466  0.0930 -1.3419  0.3807
  467MOL0     H64428   6.972  11.526  12.312 -0.0653 -2.6127 -1.7202
  467MOL0     H64429   7.124  11.602  12.133 -0.6615 -1.2100  2.0179
  467MOL0     H64430   8.645  11.660  11.532 -0.5902  0.5572 -0.1263
  467MOL0     H64431   8.851  11.586  11.404  0.1229  0.9295  0.2107
  467MOL0     H64432   9.087  11.370  11.236  3.5479 -2.0484  1.6486
  467MOL0     H64433   9.299  11.265  11.200 -0.3334 -0.2747 -0.7188
  467MOL0     H64434   9.339  11.004  10.837 -0.5208  0.4979  0.9080
  467MOL0     H64435   9.448  11.129  10.767 -1.3187  0.2945  0.3354
  467MOL0     H64436   9.627  11.051  10.927  0.8003  0.4232 -0.3099
  467MOL0     H64437   9.582  10.936  10.802 -0.5939 -0.9833  1.1551
  467MOL0     H64438   9.480  10.904  11.093  0.5637  3.5894 -0.3602
  467MOL0     H64439   9.449  10.802  10.958 -2.2226  1.7556  0.7320
  467MOL0     H64440   9.648  10.749  11.127  2.7831 -0.2382  0.7005
  467MOL0     H64441   9.750  10.858  11.031 -0.4379 -1.3708  0.5801
  467MOL0     H64442   9.705  10.516  10.780 -0.4401  0.1706 -0.2138
  467MOL0     H64443   9.200  11.180  10.787 -1.1573  0.1707 -0.2223
  467MOL0     H64444   8.920  11.355  10.758  1.4709 -0.3503 -2.1872
  467MOL0     H64445   8.979  11.184  10.740 -0.9869  1.7694 -1.0728
  467MOL0     H64446   8.851  11.224  10.865  1.7790  1.0316  3.8374
  468MOL0     O64447   0.691   9.897   7.111  0.3379 -0.1650  0.1388
  468MOL0     C64448   0.720   9.920   7.230 -0.4272 -1.2244 -0.3466
  468MOL0     O64449   0.707   9.835   7.329 -0.3515 -0.1740 -0.4276
  468MOL0     C64450   0.634   9.722   7.303  0.3577 -0.5984 -0.1073
  468MOL0     C64451   0.696   9.626   7.229  0.1946  0.2364  0.4652
  468MOL0     C64452   0.629   9.508   7.188  0.5560  1.4510  0.6654
  468MOL0     C64453   0.492   9.490   7.231 -0.2346 -0.1156 -0.4035
  468MOL0     O64454   0.426   9.385   7.172 -0.4133  0.2690  0.4582
  468MOL0     C64455   0.298   9.407   7.118 -0.0240 -0.0619 -0.4960
  468MOL0     C64456   0.239   9.271   7.062 -0.3599  0.6336 -0.9272
  468MOL0     C64457   0.090   9.282   7.031  0.6611  0.5578 -0.2391
  468MOL0     C64458  -0.025   9.277   7.140  0.0956  0.2203  0.8170
  468MOL0     C64459  -0.158   9.282   7.070 -0.7697 -1.2546  0.0875
  468MOL0     C64460  -0.265   9.326   7.172  0.3173  0.2716  0.2940
  468MOL0     C64461  -0.403   9.328   7.107  0.2585  0.1817 -0.4249
  468MOL0     C64462  -0.430   9.472   7.059 -0.9390  0.1232  1.2094
  468MOL0     N64463  -0.566   9.488   7.007 -0.1324 -0.5682  0.0432
  468MOL0     C64464  -0.582   9.573   6.898  0.5335  0.0403 -0.1774
  468MOL0     C64465  -0.721   9.564   6.872 -0.4726  0.4510  0.6360
  468MOL0     C64466  -0.798   9.634   6.764  0.9617  0.5930 -0.0531
  468MOL0     C64467  -0.806   9.544   6.641 -0.0883 -0.6854  0.2086
  468MOL0     C64468  -0.846   9.633   6.518 -0.0023  0.6258 -0.0876
  468MOL0     C64469  -0.862   9.554   6.383  0.3919 -0.1182 -0.3338
  468MOL0     O64470  -0.735   9.508   6.333  1.1280 -0.3727 -0.1141
  468MOL0     C64471  -0.724   9.478   6.204  0.5232 -0.1475  0.9713
  468MOL0     C64472  -0.832   9.443   6.116 -0.0046  0.2967  0.0872
  468MOL0     C64473  -0.817   9.394   5.984  0.5473  0.5087 -0.1970
  468MOL0     C64474  -0.943   9.379   5.897  0.2011  0.5963 -0.0081
  468MOL0     C64475  -0.683   9.377   5.937 -0.0758  0.1869 -0.2049
  468MOL0     C64476  -0.650   9.334   5.795 -1.1777  0.4828 -0.5974
  468MOL0     O64477  -0.519   9.335   5.768 -0.9293  0.9411 -0.0974
  468MOL0     C64478  -0.452   9.308   5.654  0.4989  0.2261 -0.5469
  468MOL0     C64479  -0.330   9.246   5.660  0.8393 -0.0507 -0.2449
  468MOL0     C64480  -0.270   9.216   5.538 -0.5584  0.5696  0.3267
  468MOL0     C64481  -0.326   9.254   5.416 -0.0095 -0.0305 -0.0289
  468MOL0     O64482  -0.263   9.198   5.313 -1.0896  0.5558  0.3100
  468MOL0     C64483  -0.337   9.183   5.187  0.7740 -0.0402  0.4105
  468MOL0     C64484  -0.236   9.131   5.076 -0.2444 -0.6213  0.7149
  468MOL0     C64485  -0.194   8.975   5.070  0.3315 -0.4168  0.4517
  468MOL0     C64486  -0.167   8.918   4.928  0.1547 -0.3133  1.4670
  468MOL0     C64487  -0.061   8.996   4.848 -0.6204 -0.6198 -0.6848
  468MOL0     C64488  -0.001   8.903   4.739 -0.0026 -0.7813  0.2760
  468MOL0     C64489   0.038   8.989   4.616 -0.0667  0.3456  0.2605
  468MOL0     C64490  -0.086   9.035   4.542  0.0980 -0.2171  0.2405
  468MOL0    Cl64491  -0.032   9.097   4.383  0.2741 -0.1699 -0.1670
  468MOL0     C64492  -0.445   9.319   5.417  0.7712 -0.8066  0.2046
  468MOL0     C64493  -0.506   9.347   5.533 -0.9406 -0.8078  0.0766
  468MOL0     O64494  -0.735   9.300   5.722  0.0699 -0.2989  0.8458
  468MOL0     C64495  -0.580   9.420   6.021 -0.6123  0.6170  0.6000
  468MOL0     C64496  -0.599   9.466   6.148  0.5440  0.2282  0.0782
  468MOL0     N64497  -0.771   9.472   6.963  0.3177 -0.1747  0.1509
  468MOL0     N64498  -0.686   9.428   7.047 -0.7716  0.2285 -0.6654
  468MOL0     C64499   0.433   9.581   7.319 -0.1993  0.9527 -0.3673
  468MOL0     C64500   0.508   9.698   7.356  0.4901  0.6384 -0.3407
  468MOL0     C64501   0.798  10.048   7.259  0.6838 -0.3685  0.0916
  468MOL0     C64502   0.848  10.060   7.393 -0.4348  0.3683 -0.6589
  468MOL0     C64503   0.906  10.181   7.425  0.1047  0.3418  0.5320
  468MOL0     C64504   0.921  10.288   7.336 -0.3330  0.3454  0.4559
  468MOL0     O64505   0.982  10.405   7.373 -0.7219  0.4828 -0.5465
  468MOL0     C64506   0.968  10.524   7.294  0.0880  0.4486 -0.7439
  468MOL0     C64507   1.004  10.644   7.384  0.0376 -0.5943  0.3767
  468MOL0     C64508   1.130  10.723   7.342 -0.1050 -0.1302  0.3266
  468MOL0     C64509   1.139  10.875   7.379 -0.0692  0.0011  0.2970
  468MOL0     C64510   1.145  10.889   7.520 -0.0306  0.0967  0.2523
  468MOL0     C64511   1.160  10.910   7.637  0.2154  0.0720 -0.3721
  468MOL0     C64512   0.886  10.266   7.204  0.6524  0.7736 -0.8117
  468MOL0     C64513   0.817  10.158   7.166 -0.2359  0.2381  0.0985
  468MOL0     C64514   0.760  10.159   7.026 -0.6882  0.4488  0.2090
  468MOL0     H64515   0.795   9.644   7.188 -1.2050  1.9005 -2.5440
  468MOL0     H64516   0.668   9.434   7.119 -2.7901 -0.3441  0.4894
  468MOL0     H64517   0.307   9.485   7.042  2.4454 -0.3776 -0.5814
  468MOL0     H64518   0.232   9.431   7.203  2.2984 -1.8434  1.9751
  468MOL0     H64519   0.294   9.259   6.969  3.7911  3.8934  0.7915
  468MOL0     H64520   0.256   9.187   7.131  0.9964  1.3684 -0.3375
  468MOL0     H64521   0.072   9.362   6.959  1.7204  1.8740  0.8764
  468MOL0     H64522   0.064   9.201   6.963 -0.2475 -0.2746  1.0675
  468MOL0     H64523  -0.028   9.180   7.191 -3.4133  0.0454  0.5019
  468MOL0     H64524  -0.012   9.366   7.203  3.8574  1.8678 -1.9390
  468MOL0     H64525  -0.172   9.180   7.033  2.0975 -1.5858 -0.3113
  468MOL0     H64526  -0.160   9.352   6.986  1.2913  0.8621  1.6682
  468MOL0     H64527  -0.277   9.250   7.250 -1.7151 -0.0715 -0.2952
  468MOL0     H64528  -0.248   9.428   7.209 -0.5297  1.0262 -1.3053
  468MOL0     H64529  -0.488   9.309   7.174  0.9944  0.5745  0.6452
  468MOL0     H64530  -0.412   9.259   7.022 -0.8014  0.4425 -0.5422
  468MOL0     H64531  -0.409   9.543   7.140  0.2858  0.4368  0.6298
  468MOL0     H64532  -0.358   9.496   6.980 -0.0861  0.2384  2.0001
  468MOL0     H64533  -0.511   9.633   6.842 -0.4883  2.4725  0.9831
  468MOL0     H64534  -0.762   9.735   6.743 -0.9823  1.3975  0.2469
  468MOL0     H64535  -0.899   9.641   6.805  0.4300 -0.9827 -0.9933
  468MOL0     H64536  -0.705   9.508   6.622  2.1530  2.8675  3.8045
  468MOL0     H64537  -0.883   9.469   6.663 -4.5351  3.0639 -1.0788
  468MOL0     H64538  -0.941   9.681   6.541 -1.0493 -0.8301 -1.1811
  468MOL0     H64539  -0.764   9.703   6.501 -0.4475  0.8115 -1.5569
  468MOL0     H64540  -0.942   9.479   6.393  1.3081 -0.9494  1.1542
  468MOL0     H64541  -0.897   9.639   6.323  0.6625  2.0635  2.4199
  468MOL0     H64542  -0.930   9.450   6.161  0.2350 -3.0165  1.4400
  468MOL0     H64543  -0.942   9.280   5.851  1.6011  0.4764  0.2396
  468MOL0     H64544  -0.937   9.448   5.812  3.3110  1.5947  0.8817
  468MOL0     H64545  -1.034   9.399   5.955 -3.0489 -2.4034 -3.5525
  468MOL0     H64546  -0.282   9.221   5.754  1.8615  1.0501 -0.4441
  468MOL0     H64547  -0.178   9.159   5.530 -0.4736  0.3851  2.2043
  468MOL0     H64548  -0.416   9.108   5.192 -0.6062  1.3993  1.2179
  468MOL0     H64549  -0.390   9.272   5.151  0.3812 -0.2805  0.3981
  468MOL0     H64550  -0.273   9.161   4.977  1.7647  1.4801  0.5228
  468MOL0     H64551  -0.156   9.201   5.099 -2.0317  1.5932  0.6233
  468MOL0     H64552  -0.285   8.922   5.102  0.3314 -2.0035 -1.9632
  468MOL0     H64553  -0.102   8.953   5.124  0.7508 -0.7022 -0.3679
  468MOL0     H64554  -0.263   8.918   4.876  0.9081 -1.8051 -0.0377
  468MOL0     H64555  -0.138   8.813   4.931  0.4488 -0.2840  0.3821
  468MOL0     H64556  -0.116   9.079   4.804  1.8548  0.6504 -1.5254
  468MOL0     H64557   0.016   9.028   4.918 -3.6627  0.0796  2.6608
  468MOL0     H64558  -0.065   8.819   4.712  1.0380 -1.1214 -1.2932
  468MOL0     H64559   0.091   8.859   4.779  1.4667  0.2880 -1.7216
  468MOL0     H64560   0.096   8.934   4.540 -1.2542 -3.8665  2.1224
  468MOL0     H64561   0.095   9.072   4.659 -0.3444 -0.4737  2.3335
  468MOL0     H64562  -0.133   9.123   4.589  0.1465  0.9514 -1.7984
  468MOL0     H64563  -0.156   8.952   4.532 -2.2021  1.7562 -0.9349
  468MOL0     H64564  -0.479   9.365   5.325  1.7338 -3.4081 -1.5426
  468MOL0     H64565  -0.600   9.400   5.525 -2.8385 -4.0692 -1.0180
  468MOL0     H64566  -0.479   9.398   5.989 -0.1707 -1.9772  3.3407
  468MOL0     H64567  -0.514   9.479   6.214  0.3444 -0.4442  0.4778
  468MOL0     H64568   0.329   9.562   7.340  0.1284 -1.1138 -0.4013
  468MOL0     H64569   0.466   9.767   7.429 -0.0722  0.9179 -0.9189
  468MOL0     H64570   0.856   9.984   7.470  1.0713  1.0166 -0.1378
  468MOL0     H64571   0.943  10.177   7.528  4.3547 -2.1922 -0.8157
  468MOL0     H64572   1.033  10.526   7.205  2.7871  2.7382  1.1023
  468MOL0     H64573   0.863  10.522   7.263 -0.3761 -2.6805  0.6509
  468MOL0     H64574   1.005  10.628   7.493  0.8740  2.7754  0.9747
  468MOL0     H64575   0.923  10.715   7.367 -1.1143 -1.9794 -0.1533
  468MOL0     H64576   1.222  10.677   7.379  0.2243  1.0356  1.0386
  468MOL0     H64577   1.148  10.734   7.235 -0.3588 -3.7289 -0.1794
  468MOL0     H64578   1.058  10.936   7.338  0.3394  0.1009 -0.3872
  468MOL0     H64579   1.231  10.920   7.341  0.3469  0.0816  1.3643
  468MOL0     H64580   1.177  10.920   7.742  3.6435 -1.0657 -0.6943
  468MOL0     H64581   0.897  10.353   7.140 -3.8503  3.5886  1.7214
  468MOL0     H64582   0.654  10.185   7.029 -1.9367 -3.9237  1.2017
  468MOL0     H64583   0.808  10.234   6.963 -1.7750  1.0841  0.1130
  468MOL0     H64584   0.768  10.064   6.973  2.6518 -0.6070  2.2945
  469MOL0     O64585  10.479   9.626   0.180  0.4817  0.2473  0.9469
  469MOL0     C64586  10.547   9.722   0.211  0.7176  0.2028 -0.6477
  469MOL0     O64587  10.622   9.792   0.128 -0.0867  0.1576 -0.0599
  469MOL0     C64588  10.622   9.752  -0.000  0.1494 -0.2637  0.1733
  469MOL0     C64589  10.538   9.833  -0.085  0.5319  0.4087 -0.3564
  469MOL0     C64590  10.532   9.811  -0.218  0.7114 -0.0323 -0.9966
  469MOL0     C64591  10.621   9.727  -0.282 -0.4525 -0.3458  0.3528
  469MOL0     O64592  10.639   9.723  -0.423  0.0317  0.1358 -0.1812
  469MOL0     C64593  10.766   9.662  -0.478 -0.3581  0.7352  0.2199
  469MOL0     C64594  10.791   9.655  -0.632 -0.1222  0.0698 -0.5063
  469MOL0     C64595  10.726   9.525  -0.692 -0.5051  0.3613 -0.0205
  469MOL0     C64596  10.722   9.549  -0.843 -0.1130  0.1726  0.0006
  469MOL0     C64597  10.627   9.444  -0.897 -0.2429  0.2118 -0.1600
  469MOL0     C64598  10.610   9.461  -1.052 -0.3773 -0.6313 -0.0248
  469MOL0     C64599  10.505   9.364  -1.110 -0.3398  0.2304  0.9247
  469MOL0     C64600  10.510   9.380  -1.262  0.0302  0.0467 -0.2167
  469MOL0     N64601  10.414   9.294  -1.330 -0.1147 -1.1389 -0.4652
  469MOL0     C64602  10.433   9.164  -1.361  0.2463  0.3046 -0.0495
  469MOL0     C64603  10.331   9.145  -1.449  0.8666  0.1330  0.2339
  469MOL0     C64604  10.304   9.014  -1.523 -0.9885  1.0830 -0.1084
  469MOL0     C64605  10.232   8.921  -1.431 -0.3365 -1.1044 -0.8423
  469MOL0     C64606  10.198   8.787  -1.491 -0.8476  0.0927 -0.3312
  469MOL0     C64607  10.114   8.699  -1.406 -0.5881  1.1084 -0.4858
  469MOL0     O64608  10.189   8.644  -1.298  0.0610 -0.4716  0.0364
  469MOL0     C64609  10.293   8.559  -1.318 -0.2680  0.5296  0.0305
  469MOL0     C64610  10.363   8.518  -1.205 -0.5621 -0.3662 -0.2407
  469MOL0     C64611  10.481   8.441  -1.204  0.1553 -0.4528  1.2763
  469MOL0     C64612  10.539   8.382  -1.077  0.6724 -0.4024  0.6374
  469MOL0     C64613  10.531   8.398  -1.334  0.1620  0.1411 -0.2301
  469MOL0     C64614  10.654   8.328  -1.352 -0.1472  0.1279 -0.0437
  469MOL0     O64615  10.728   8.363  -1.463  0.3523  0.3471  0.2464
  469MOL0     C64616  10.847   8.291  -1.489  0.5120 -0.5364  0.5059
  469MOL0     C64617  10.848   8.155  -1.519 -0.3275 -0.3315 -0.6130
  469MOL0     C64618  10.960   8.095  -1.572  0.3280  0.2015  0.4747
  469MOL0     C64619  11.080   8.162  -1.583  0.8297 -0.1385  0.1702
  469MOL0     O64620  11.195   8.115  -1.640 -0.1713  0.8680 -0.3302
  469MOL0     C64621  11.179   8.028  -1.753  0.0551  0.3695 -0.1853
  469MOL0     C64622  11.120   8.108  -1.868  0.7864 -0.1427  0.7004
  469MOL0     C64623  11.208   8.203  -1.944 -0.1006 -0.4723  0.4001
  469MOL0     C64624  11.130   8.266  -2.061 -0.5924  0.0340 -0.5322
  469MOL0     C64625  11.083   8.166  -2.172 -0.2860  0.4445 -0.1119
  469MOL0     C64626  11.044   8.237  -2.302  0.0338 -0.0741  0.0110
  469MOL0     C64627  11.037   8.161  -2.433  0.3719  0.0321  0.6705
  469MOL0     C64628  10.893   8.118  -2.455 -0.3954 -0.8453  0.0156
  469MOL0    Cl64629  10.812   8.238  -2.574  0.2666 -0.5256  0.0342
  469MOL0     C64630  11.082   8.299  -1.555 -0.0164  0.0077 -0.5079
  469MOL0     C64631  10.966   8.365  -1.511 -1.1127 -0.9542 -0.1145
  469MOL0     O64632  10.676   8.229  -1.279 -0.1886 -0.4401  0.1438
  469MOL0     C64633  10.452   8.426  -1.453  0.0026 -0.4493 -0.0649
  469MOL0     C64634  10.329   8.503  -1.442 -0.2693  0.9948 -0.1493
  469MOL0     N64635  10.254   9.261  -1.458  0.7571  0.2692  0.3510
  469MOL0     N64636  10.300   9.347  -1.382 -0.1836  0.0118  0.1407
  469MOL0     C64637  10.704   9.645  -0.202  0.2174 -1.0002 -0.3368
  469MOL0     C64638  10.694   9.653  -0.061  0.5493  0.3670 -0.4514
  469MOL0     C64639  10.530   9.776   0.353  0.0864  0.1625 -1.2123
  469MOL0     C64640  10.617   9.881   0.383  0.2843 -0.2158  0.1100
  469MOL0     C64641  10.623   9.933   0.521 -0.5037 -0.2359  1.2079
  469MOL0     C64642  10.556   9.868   0.627  0.3636  0.5240 -0.2134
  469MOL0     O64643  10.596   9.893   0.752 -0.0491  0.5754  0.0290
  469MOL0     C64644  10.505   9.872   0.862 -0.5935  0.4919 -0.4874
  469MOL0     C64645  10.589   9.908   0.986 -0.3406 -0.6441  0.0033
  469MOL0     C64646  10.720   9.814   1.014 -0.0623 -0.5265  0.0018
  469MOL0     C64647  10.837   9.899   1.062  0.3720 -0.2883 -0.0618
  469MOL0     C64648  10.850   9.942   1.205  0.8699 -0.1166 -0.0883
  469MOL0     C64649  10.861   9.986   1.315  0.2622  0.2938 -0.6198
  469MOL0     C64650  10.463   9.761   0.592  0.0977  0.0792 -0.0529
  469MOL0     C64651  10.459   9.711   0.459 -0.4452  0.4420  0.6168
  469MOL0     C64652  10.379   9.581   0.441 -0.5285 -1.0470 -0.4498
  469MOL0     H64653  10.485   9.910  -0.029 -1.3264 -2.5290  2.2424
  469MOL0     H64654  10.462   9.878  -0.267  0.9013  1.4113  0.6060
  469MOL0     H64655  10.769   9.556  -0.451  0.8445  0.8726  0.6830
  469MOL0     H64656  10.855   9.702  -0.427  0.4839 -2.1234  1.1721
  469MOL0     H64657  10.742   9.744  -0.673 -0.7547 -0.7255 -1.5127
  469MOL0     H64658  10.899   9.661  -0.643  0.3504  0.6696  3.1672
  469MOL0     H64659  10.776   9.430  -0.671 -2.0589 -1.1275 -2.3984
  469MOL0     H64660  10.627   9.503  -0.650 -0.6125  0.6642 -0.1072
  469MOL0     H64661  10.683   9.650  -0.861 -0.2959  1.0874  4.4145
  469MOL0     H64662  10.826   9.529  -0.873  0.6608  3.2988  0.1690
  469MOL0     H64663  10.527   9.465  -0.856 -0.4698 -2.1449  0.6277
  469MOL0     H64664  10.658   9.344  -0.868  1.8380  1.3293  1.7086
  469MOL0     H64665  10.587   9.566  -1.075  0.6685 -1.3107 -5.5919
  469MOL0     H64666  10.706   9.460  -1.105 -0.6246  4.1721 -1.0950
  469MOL0     H64667  10.410   9.397  -1.066 -1.3559  3.1813 -2.8543
  469MOL0     H64668  10.520   9.260  -1.080 -2.2652 -0.4483 -0.2194
  469MOL0     H64669  10.496   9.486  -1.281 -1.0214  0.2757  1.5541
  469MOL0     H64670  10.609   9.353  -1.301 -0.1858 -1.9997  0.4953
  469MOL0     H64671  10.519   9.103  -1.334  2.1159  0.6966 -4.2885
  469MOL0     H64672  10.398   8.965  -1.551 -1.6824  0.3907 -1.2950
  469MOL0     H64673  10.233   9.050  -1.598  0.2253  3.0805 -0.3648
  469MOL0     H64674  10.290   8.919  -1.338  1.4532  2.2850 -1.6951
  469MOL0     H64675  10.136   8.969  -1.411  0.2940 -0.6539  1.4517
  469MOL0     H64676  10.139   8.804  -1.582 -3.6525  1.1162  1.5208
  469MOL0     H64677  10.286   8.739  -1.534 -0.7319 -0.0460  0.0612
  469MOL0     H64678  10.027   8.737  -1.352 -1.9734 -3.6497  1.1313
  469MOL0     H64679  10.076   8.621  -1.471 -0.4868  2.0612 -1.7303
  469MOL0     H64680  10.322   8.549  -1.109  2.9717  4.4768  0.1138
  469MOL0     H64681  10.632   8.433  -1.050 -1.2244  3.5385  0.3184
  469MOL0     H64682  10.551   8.273  -1.079 -1.0429 -0.6694  2.3364
  469MOL0     H64683  10.471   8.396  -0.993 -0.3780 -4.1239  0.5725
  469MOL0     H64684  10.748   8.114  -1.505 -0.2440  0.0788  1.5699
  469MOL0     H64685  10.953   7.995  -1.613  0.5133  1.3622 -2.6663
  469MOL0     H64686  11.268   7.975  -1.788  1.0704  0.2245  2.4579
  469MOL0     H64687  11.112   7.948  -1.720 -0.7541  0.3495 -1.7340
  469MOL0     H64688  11.074   8.034  -1.934 -0.4527  2.0996 -1.0872
  469MOL0     H64689  11.032   8.163  -1.831 -0.6435 -2.7056  1.3615
  469MOL0     H64690  11.302   8.153  -1.971  2.6435  2.2926  3.6928
  469MOL0     H64691  11.251   8.281  -1.880  0.7097  0.2220 -0.9404
  469MOL0     H64692  11.198   8.335  -2.112  0.2597  0.5190  1.1738
  469MOL0     H64693  11.054   8.329  -2.014  0.0978  0.8469 -0.4926
  469MOL0     H64694  11.163   8.097  -2.200  0.2301  0.8712  0.2870
  469MOL0     H64695  10.991   8.124  -2.130 -2.1989  4.3551 -0.0020
  469MOL0     H64696  11.107   8.325  -2.318 -0.2988  0.0495 -0.6374
  469MOL0     H64697  10.949   8.274  -2.263 -1.1873 -1.0292 -1.9212
  469MOL0     H64698  11.103   8.074  -2.427  0.5172  0.0293 -0.6784
  469MOL0     H64699  11.065   8.233  -2.510  1.4722  2.0360  2.7976
  469MOL0     H64700  10.838   8.110  -2.361 -1.4222  1.2326 -0.3409
  469MOL0     H64701  10.891   8.017  -2.497 -0.7746 -0.7944 -0.0920
  469MOL0     H64702  11.173   8.358  -1.557 -0.1534  0.2048 -0.8958
  469MOL0     H64703  10.968   8.472  -1.493 -0.3385 -1.4464  3.6305
  469MOL0     H64704  10.477   8.401  -1.555 -0.1840 -0.8551 -0.0134
  469MOL0     H64705  10.276   8.518  -1.536 -2.5481 -1.7343  0.5552
  469MOL0     H64706  10.776   9.572  -0.239  2.3856 -0.0186  1.6891
  469MOL0     H64707  10.754   9.598   0.011  1.8045  0.3914 -1.4614
  469MOL0     H64708  10.663   9.933   0.300  0.6079  1.4676  1.2793
  469MOL0     H64709  10.696  10.011   0.540 -2.2532  1.6402  0.6125
  469MOL0     H64710  10.424   9.945   0.854 -1.1157 -0.2307 -2.0299
  469MOL0     H64711  10.468   9.770   0.874 -0.3329  0.7586  5.1652
  469MOL0     H64712  10.529   9.900   1.077  0.3444 -0.0139  0.5251
  469MOL0     H64713  10.618  10.012   0.965  0.5094 -0.8774 -0.0095
  469MOL0     H64714  10.696   9.729   1.079 -0.4609 -1.2499 -1.0689
  469MOL0     H64715  10.746   9.777   0.915 -1.2637 -1.1911 -0.0869
  469MOL0     H64716  10.839   9.990   1.001  2.1633 -0.1360  0.1644
  469MOL0     H64717  10.929   9.843   1.041  0.3314 -0.1328 -0.6764
  469MOL0     H64718  10.864  10.041   1.406 -0.3423 -1.8681  0.7897
  469MOL0     H64719  10.417   9.697   0.666 -1.1204 -1.7600 -2.2529
  469MOL0     H64720  10.353   9.540   0.539 -1.4702  1.1807  0.3118
  469MOL0     H64721  10.286   9.604   0.388  1.2407  2.9260 -2.3282
  469MOL0     H64722  10.443   9.512   0.387  1.6190  1.5872 -1.5186
  470MOL0     O64723   2.547   0.893   2.616 -0.1381 -0.5153 -0.4924
  470MOL0     C64724   2.567   0.773   2.619 -0.2900 -0.1648 -0.4760
  470MOL0     O64725   2.540   0.688   2.722 -0.6638 -0.8320  0.1967
  470MOL0     C64726   2.467   0.742   2.822  0.2604 -0.1057 -0.0025
  470MOL0     C64727   2.348   0.808   2.804  0.3594  0.0043  0.6664
  470MOL0     C64728   2.278   0.858   2.914  0.0379 -0.0711  0.1577
  470MOL0     C64729   2.337   0.856   3.044  0.2726  0.7847 -0.0854
  470MOL0     O64730   2.269   0.893   3.153 -0.7493 -0.0636  0.5703
  470MOL0     C64731   2.276   1.038   3.169  0.0257  0.8292  0.8217
  470MOL0     C64732   2.416   1.080   3.227  0.4981 -0.6224 -0.2876
  470MOL0     C64733   2.456   0.995   3.349 -0.3034  0.5384 -0.0111
  470MOL0     C64734   2.597   1.023   3.400  0.2338 -0.2311  0.1625
  470MOL0     C64735   2.646   0.928   3.524 -0.7479  0.2461  0.4614
  470MOL0     C64736   2.666   0.775   3.502  0.2134 -0.4301 -0.3625
  470MOL0     C64737   2.711   0.720   3.635  0.9008 -0.4598  0.4659
  470MOL0     C64738   2.842   0.624   3.638 -0.2344  0.1562 -0.5390
  470MOL0     N64739   2.794   0.494   3.591  0.4172  0.2475 -0.9196
  470MOL0     C64740   2.755   0.391   3.668 -0.5796  0.3831 -0.6250
  470MOL0     C64741   2.711   0.294   3.588  0.6619  0.2270  1.0552
  470MOL0     C64742   2.646   0.164   3.624 -0.8730 -0.6922  0.2360
  470MOL0     C64743   2.512   0.155   3.557 -0.4990  0.0271  0.1547
  470MOL0     C64744   2.404   0.095   3.642  0.4271  0.6441  0.3306
  470MOL0     C64745   2.389   0.159   3.783  0.1541 -0.0688  0.7003
  470MOL0     O64746   2.445   0.072   3.883 -0.4635  0.0708  0.0165
  470MOL0     C64747   2.401   0.065   4.015  0.2600 -0.3649  0.2613
  470MOL0     C64748   2.443  -0.052   4.086 -0.2042 -0.6897 -0.6779
  470MOL0     C64749   2.398  -0.070   4.211 -0.3869  0.4908  0.3300
  470MOL0     C64750   2.437  -0.195   4.277  0.2361 -0.4296 -0.8662
  470MOL0     C64751   2.302   0.019   4.272  0.2141  0.9074  0.2957
  470MOL0     C64752   2.261   0.007   4.411 -0.0931  0.3865 -1.1870
  470MOL0     O64753   2.345  -0.050   4.510 -0.3988 -0.6218 -0.9800
  470MOL0     C64754   2.303  -0.051   4.643 -0.1636 -0.4359 -0.1509
  470MOL0     C64755   2.281  -0.168   4.710 -0.8465  0.1463 -1.1536
  470MOL0     C64756   2.262  -0.169   4.852  0.7043 -0.1661  0.0875
  470MOL0     C64757   2.253  -0.050   4.924  0.0724 -0.8138  0.8535
  470MOL0     O64758   2.232  -0.050   5.061 -0.0457  0.1913  0.2137
  470MOL0     C64759   2.114  -0.117   5.111  0.1354 -0.4077 -0.5365
  470MOL0     C64760   2.087  -0.052   5.253  0.1182  0.4824  0.2279
  470MOL0     C64761   1.954  -0.101   5.302  0.0432  0.3232  0.0875
  470MOL0     C64762   1.936  -0.253   5.332  0.6013  0.1437  0.8417
  470MOL0     C64763   1.823  -0.288   5.423 -0.5454  0.7616 -0.2565
  470MOL0     C64764   1.680  -0.250   5.365 -0.4880 -0.3916  0.2729
  470MOL0     C64765   1.568  -0.213   5.478  0.6073  1.3367 -0.6153
  470MOL0     C64766   1.612  -0.119   5.583  0.7613  0.3757 -0.1534
  470MOL0    Cl64767   1.704   0.019   5.517  0.0836 -0.5670  0.0054
  470MOL0     C64768   2.276   0.076   4.860 -0.4100 -0.1504  0.4207
  470MOL0     C64769   2.299   0.074   4.718 -0.2465 -0.1082 -0.1242
  470MOL0     O64770   2.146   0.051   4.429  0.3290 -0.0248  0.2617
  470MOL0     C64771   2.256   0.118   4.191  0.3199 -0.4575 -0.3486
  470MOL0     C64772   2.315   0.155   4.072  0.7826  0.0167 -0.2879
  470MOL0     N64773   2.736   0.337   3.455 -0.9441 -0.0759 -0.5839
  470MOL0     N64774   2.782   0.457   3.459  0.4749 -0.6032 -0.3969
  470MOL0     C64775   2.456   0.780   3.070 -0.2914 -0.6978  0.2263
  470MOL0     C64776   2.514   0.729   2.957  0.3434 -0.0589 -0.9626
  470MOL0     C64777   2.651   0.733   2.504  0.6154  0.9313 -1.0544
  470MOL0     C64778   2.677   0.815   2.393  0.8436 -0.0252 -0.2474
  470MOL0     C64779   2.754   0.777   2.288 -0.1417  0.3322 -0.2441
  470MOL0     C64780   2.814   0.655   2.268  0.6064 -0.2189  0.1701
  470MOL0     O64781   2.887   0.615   2.156 -0.2115 -0.3417  0.4592
  470MOL0     C64782   2.929   0.711   2.048  0.2927  0.3004 -0.0151
  470MOL0     C64783   3.049   0.800   2.090  0.0219  0.7258 -0.0226
  470MOL0     C64784   3.177   0.716   2.112 -1.3358 -0.2100  0.2572
  470MOL0     C64785   3.235   0.738   2.252  0.7224  0.9714  0.3826
  470MOL0     C64786   3.361   0.664   2.282  0.3030 -0.6784 -0.5894
  470MOL0     C64787   3.468   0.618   2.315 -0.1335 -0.0257 -0.4328
  470MOL0     C64788   2.778   0.558   2.368 -0.2377 -0.2143 -0.1989
  470MOL0     C64789   2.696   0.594   2.481  0.7501 -0.1606  0.4665
  470MOL0     C64790   2.674   0.483   2.578  0.6856  0.4315 -0.4415
  470MOL0     H64791   2.298   0.823   2.709  2.5042 -1.7797 -0.8656
  470MOL0     H64792   2.175   0.888   2.899 -0.4454 -1.0398  1.3490
  470MOL0     H64793   2.196   1.082   3.229  0.0416  1.9444  0.0443
  470MOL0     H64794   2.270   1.080   3.069  1.0899 -2.4471 -0.7558
  470MOL0     H64795   2.495   1.079   3.152 -0.0769 -2.2363 -0.9161
  470MOL0     H64796   2.406   1.184   3.262  4.4265  0.4265 -1.7790
  470MOL0     H64797   2.396   1.019   3.437 -0.1576  0.1921  0.1850
  470MOL0     H64798   2.443   0.889   3.327  1.6935 -0.2835  2.2368
  470MOL0     H64799   2.667   1.010   3.316  1.2705 -1.7684  1.2198
  470MOL0     H64800   2.599   1.130   3.421 -1.9245 -0.0228 -0.4115
  470MOL0     H64801   2.585   0.936   3.615  0.6196  0.5580  1.3874
  470MOL0     H64802   2.741   0.974   3.555 -0.4808  0.2119 -0.2988
  470MOL0     H64803   2.570   0.736   3.466 -1.5252  2.4875  0.7681
  470MOL0     H64804   2.741   0.754   3.426  1.2154 -2.2751  1.0644
  470MOL0     H64805   2.619   0.677   3.673 -0.2114  1.1159 -0.3066
  470MOL0     H64806   2.735   0.805   3.700 -1.2806  0.4179  0.2024
  470MOL0     H64807   2.921   0.659   3.571  0.6315  3.2079  1.8587
  470MOL0     H64808   2.872   0.612   3.742  0.2864 -1.1200 -0.8179
  470MOL0     H64809   2.751   0.392   3.776 -0.5168 -0.8131 -0.5996
  470MOL0     H64810   2.637   0.179   3.731 -3.3156 -1.8158  0.2431
  470MOL0     H64811   2.714   0.080   3.603 -0.3881  0.2636 -2.6090
  470MOL0     H64812   2.469   0.249   3.523 -0.3301  1.0873  2.6201
  470MOL0     H64813   2.518   0.089   3.470 -3.3618 -1.4745  0.9859
  470MOL0     H64814   2.308   0.113   3.594 -0.0505 -1.2541  0.4802
  470MOL0     H64815   2.417  -0.014   3.651 -2.0304  0.3685  1.1725
  470MOL0     H64816   2.428   0.261   3.789  1.5338 -0.5157 -0.2089
  470MOL0     H64817   2.283   0.183   3.802 -0.7128 -2.6595 -0.4872
  470MOL0     H64818   2.516  -0.119   4.044  0.5076  0.9191 -2.1566
  470MOL0     H64819   2.346  -0.254   4.289 -1.1897  1.5837 -1.1029
  470MOL0     H64820   2.492  -0.180   4.370 -1.4309 -2.6314  0.5519
  470MOL0     H64821   2.501  -0.256   4.213 -0.8847 -0.4571 -1.9923
  470MOL0     H64822   2.288  -0.262   4.657  0.1568 -0.5287  0.1026
  470MOL0     H64823   2.235  -0.254   4.915 -0.3471  0.6762  0.8079
  470MOL0     H64824   2.040  -0.120   5.030  0.8872 -3.6789 -1.2642
  470MOL0     H64825   2.138  -0.223   5.121 -0.2382 -0.4750 -0.3488
  470MOL0     H64826   2.158  -0.092   5.326  2.9563 -0.2536 -2.6652
  470MOL0     H64827   2.100   0.056   5.246  2.8452  0.1695 -1.2704
  470MOL0     H64828   1.886  -0.071   5.222  2.8614  1.0973 -2.1779
  470MOL0     H64829   1.942  -0.047   5.397 -4.4280 -0.5211  0.2384
  470MOL0     H64830   2.028  -0.301   5.367 -0.8394 -2.1415  1.7554
  470MOL0     H64831   1.921  -0.313   5.242  1.1142  0.2326  0.6930
  470MOL0     H64832   1.820  -0.395   5.447 -1.9554  0.2981 -2.2200
  470MOL0     H64833   1.853  -0.233   5.513  2.6682 -2.6647  1.0533
  470MOL0     H64834   1.644  -0.332   5.302 -2.2964  0.7893 -0.3222
  470MOL0     H64835   1.694  -0.165   5.298  2.2635 -0.9725 -0.0146
  470MOL0     H64836   1.553  -0.301   5.541 -2.0210  1.9117 -0.3250
  470MOL0     H64837   1.470  -0.191   5.435  0.2950 -1.0108 -1.2757
  470MOL0     H64838   1.657  -0.173   5.666  1.7639  0.6715 -0.4850
  470MOL0     H64839   1.521  -0.078   5.627 -1.4448 -4.8810  0.8868
  470MOL0     H64840   2.288   0.172   4.908 -2.7909  0.4119  0.0239
  470MOL0     H64841   2.326   0.164   4.663  0.6195 -0.0354  0.3924
  470MOL0     H64842   2.190   0.201   4.214  3.7424  2.5085 -0.3903
  470MOL0     H64843   2.270   0.237   4.017 -1.3396 -0.1675  1.0771
  470MOL0     H64844   2.505   0.761   3.165  1.0918  0.4473 -0.2135
  470MOL0     H64845   2.600   0.665   2.973  0.2412  0.0432  0.0872
  470MOL0     H64846   2.640   0.917   2.388 -0.2007 -0.4504 -2.4034
  470MOL0     H64847   2.788   0.848   2.213  1.8056  0.7452  0.9615
  470MOL0     H64848   2.961   0.662   1.955 -1.2219 -0.0029 -0.4067
  470MOL0     H64849   2.843   0.774   2.025 -0.9436 -1.7284 -1.2741
  470MOL0     H64850   3.021   0.841   2.187  0.7827 -1.4707  1.2208
  470MOL0     H64851   3.073   0.872   2.011  1.4759  1.6225  1.1901
  470MOL0     H64852   3.164   0.608   2.106  0.3951 -0.3724 -3.4960
  470MOL0     H64853   3.256   0.738   2.040  0.2646  1.4514  2.3802
  470MOL0     H64854   3.160   0.702   2.323  1.3195 -0.8925  0.1371
  470MOL0     H64855   3.257   0.844   2.270  0.2545  0.9199  1.2962
  470MOL0     H64856   3.561   0.568   2.336  0.2062  0.3631 -0.9685
  470MOL0     H64857   2.840   0.470   2.358 -1.1443 -0.8415 -0.3552
  470MOL0     H64858   2.672   0.517   2.682  1.0093  0.4801 -0.4523
  470MOL0     H64859   2.578   0.433   2.563  0.9142 -0.3724  0.6848
  470MOL0     H64860   2.753   0.408   2.567 -0.7904 -1.6965  2.2324
  471MOL0     O64861   2.148   5.561   5.649  0.1192 -0.2467  0.9876
  471MOL0     C64862   2.113   5.658   5.585  1.2204 -0.0235  0.9732
  471MOL0     O64863   1.988   5.684   5.531 -0.1178 -0.4921 -0.3560
  471MOL0     C64864   1.878   5.606   5.543  0.5136 -0.3353 -0.8306
  471MOL0     C64865   1.755   5.654   5.488 -0.4321 -0.3510 -0.0652
  471MOL0     C64866   1.636   5.601   5.515  0.4215 -0.2930  0.1946
  471MOL0     C64867   1.625   5.485   5.599 -0.3616 -1.1015 -0.3624
  471MOL0     O64868   1.515   5.418   5.633 -0.4670  0.5449 -0.3383
  471MOL0     C64869   1.387   5.464   5.590 -0.1404 -0.3723  0.1445
  471MOL0     C64870   1.276   5.363   5.617  0.5031 -0.5439  0.5796
  471MOL0     C64871   1.273   5.263   5.508 -0.8124  0.7376 -0.2818
  471MOL0     C64872   1.188   5.138   5.549 -0.3329 -0.2336  0.0950
  471MOL0     C64873   1.143   5.061   5.434 -0.6626 -0.6070 -0.7606
  471MOL0     C64874   1.247   5.033   5.322  0.5851 -0.1308 -0.6718
  471MOL0     C64875   1.237   4.890   5.267 -0.4918  0.3570 -0.5734
  471MOL0     C64876   1.114   4.881   5.180  0.0902 -0.0971 -0.6454
  471MOL0     N64877   1.095   4.746   5.133  0.2637  0.3679  0.1624
  471MOL0     C64878   1.058   4.632   5.197  0.0701 -0.0704  0.5773
  471MOL0     C64879   1.053   4.533   5.103 -0.2161 -0.6369 -0.8916
  471MOL0     C64880   1.013   4.389   5.132 -0.8063  0.4984 -0.4561
  471MOL0     C64881   0.869   4.354   5.148  0.2509 -0.0794 -1.2841
  471MOL0     C64882   0.849   4.208   5.175 -0.0491  0.5021 -0.8146
  471MOL0     C64883   0.705   4.149   5.155 -0.5874 -0.3405 -0.7677
  471MOL0     O64884   0.656   4.179   5.026 -0.1065  0.0339  0.4732
  471MOL0     C64885   0.525   4.153   5.014 -1.0416  0.2243  0.0449
  471MOL0     C64886   0.459   4.212   4.913  0.4281 -0.2453  0.4310
  471MOL0     C64887   0.318   4.212   4.907  0.1456  0.5619  1.2913
  471MOL0     C64888   0.264   4.289   4.781 -0.1358 -0.2863  0.1761
  471MOL0     C64889   0.238   4.125   4.994  0.3498 -0.0298  1.1011
  471MOL0     C64890   0.091   4.092   4.977 -0.1762 -0.3768 -0.0668
  471MOL0     O64891   0.056   3.965   5.008 -0.4514 -0.0631 -0.4462
  471MOL0     C64892  -0.067   3.943   5.052  0.4831  0.4259 -0.8489
  471MOL0     C64893  -0.143   3.848   4.992  0.4248  0.1928  0.5451
  471MOL0     C64894  -0.267   3.809   5.041 -0.3510  0.6610 -0.0398
  471MOL0     C64895  -0.316   3.876   5.156 -0.0114 -0.7849  0.6482
  471MOL0     O64896  -0.435   3.838   5.209  0.4246 -0.2763 -0.1168
  471MOL0     C64897  -0.476   3.876   5.338 -0.2812 -0.0413  0.5041
  471MOL0     C64898  -0.625   3.825   5.359  0.9402 -0.7560  0.4536
  471MOL0     C64899  -0.676   3.871   5.486  0.2041  0.4508 -1.1627
  471MOL0     C64900  -0.810   3.805   5.511  0.0997 -0.6739  0.0346
  471MOL0     C64901  -0.928   3.892   5.449 -0.0897  0.3029 -0.1205
  471MOL0     C64902  -1.069   3.840   5.488 -0.3484  0.0648  0.0551
  471MOL0     C64903  -1.122   3.914   5.608 -0.0142  0.6071  0.3949
  471MOL0     C64904  -1.250   3.857   5.677  0.5323 -0.2893  0.6060
  471MOL0    Cl64905  -1.297   3.955   5.819  0.0566 -0.3160  0.3563
  471MOL0     C64906  -0.239   3.984   5.216  0.2002 -0.2266 -0.3218
  471MOL0     C64907  -0.109   4.006   5.169 -0.0501 -0.0039  0.8214
  471MOL0     O64908   0.015   4.183   4.951  0.3631  0.3118  0.7634
  471MOL0     C64909   0.313   4.058   5.092  1.1739 -1.1361 -0.7650
  471MOL0     C64910   0.455   4.073   5.104  0.0633  0.1615  0.8406
  471MOL0     N64911   1.095   4.593   4.988 -0.2867 -0.0409  0.5935
  471MOL0     N64912   1.121   4.713   5.004  0.7838  0.5577 -0.0328
  471MOL0     C64913   1.742   5.429   5.649 -0.2710 -1.1469 -0.5180
  471MOL0     C64914   1.867   5.486   5.621  0.6648 -0.3112  0.2801
  471MOL0     C64915   2.217   5.765   5.542  0.3259  0.4464 -0.2721
  471MOL0     C64916   2.191   5.845   5.433  1.3843  0.5854  0.7752
  471MOL0     C64917   2.283   5.938   5.388  0.5160 -0.0249 -0.8861
  471MOL0     C64918   2.409   5.943   5.441 -0.6076 -0.8239 -0.6648
  471MOL0     O64919   2.503   6.031   5.385  0.7170 -0.4167 -0.3545
  471MOL0     C64920   2.628   5.971   5.347 -0.8243 -0.1145 -0.4825
  471MOL0     C64921   2.708   6.082   5.278  0.4827  0.0208 -0.2428
  471MOL0     C64922   2.757   6.197   5.370  0.1716 -0.0918  0.0467
  471MOL0     C64923   2.837   6.301   5.279  0.5384 -0.0426 -0.1658
  471MOL0     C64924   2.770   6.357   5.165 -0.4174  0.1103 -0.4357
  471MOL0     C64925   2.712   6.403   5.068 -0.2444 -0.2771  0.1741
  471MOL0     C64926   2.442   5.865   5.550 -0.1287 -0.2062  0.4973
  471MOL0     C64927   2.350   5.773   5.604 -0.5923 -0.0483  0.9242
  471MOL0     C64928   2.397   5.695   5.724  0.0413  0.2379  0.0467
  471MOL0     H64929   1.768   5.735   5.416 -0.4136 -1.7251 -1.6823
  471MOL0     H64930   1.546   5.644   5.471  1.2187  0.4300 -0.7787
  471MOL0     H64931   1.393   5.490   5.484  0.8508  2.5166  0.8106
  471MOL0     H64932   1.350   5.555   5.640 -2.0765 -2.0599  1.9780
  471MOL0     H64933   1.292   5.312   5.712  0.2742 -1.4633  0.1426
  471MOL0     H64934   1.177   5.408   5.628 -0.8594 -3.4359  1.1782
  471MOL0     H64935   1.231   5.299   5.413  0.9978  0.4761 -1.2120
  471MOL0     H64936   1.374   5.223   5.496 -1.9632 -5.0262  4.3245
  471MOL0     H64937   1.243   5.074   5.619  0.5288  0.0619 -0.2912
  471MOL0     H64938   1.102   5.173   5.606 -0.0838  0.9627 -0.2375
  471MOL0     H64939   1.060   5.120   5.392 -0.3237 -0.3819 -1.1235
  471MOL0     H64940   1.107   4.967   5.477  1.6969 -0.6853  1.2164
  471MOL0     H64941   1.237   5.100   5.236 -1.3367 -0.7797 -1.0090
  471MOL0     H64942   1.345   5.034   5.370  0.8657 -2.0371 -1.1269
  471MOL0     H64943   1.240   4.820   5.351 -0.5075 -0.2554 -1.0759
  471MOL0     H64944   1.319   4.876   5.196  0.1542 -0.9931  0.4010
  471MOL0     H64945   1.026   4.913   5.237  0.4938 -1.5583  0.8783
  471MOL0     H64946   1.122   4.943   5.090  0.6375 -1.8503 -1.8559
  471MOL0     H64947   1.032   4.622   5.302 -3.2230 -3.6492 -0.3546
  471MOL0     H64948   1.056   4.362   5.230 -0.6753  2.1467 -0.0180
  471MOL0     H64949   1.066   4.327   5.060 -2.2001 -0.4741 -0.6715
  471MOL0     H64950   0.828   4.413   5.231 -0.6177  1.5315 -2.7843
  471MOL0     H64951   0.807   4.390   5.066  0.0176  0.3244 -0.9359
  471MOL0     H64952   0.901   4.151   5.097  1.1558  1.0840 -0.4494
  471MOL0     H64953   0.884   4.194   5.277  2.0500  3.1078 -1.0683
  471MOL0     H64954   0.717   4.044   5.181 -1.5779  0.1273  1.8332
  471MOL0     H64955   0.635   4.196   5.224 -2.2223 -1.5686 -1.5389
  471MOL0     H64956   0.519   4.272   4.844 -0.4021 -1.4179 -1.3958
  471MOL0     H64957   0.156   4.276   4.770  0.0280 -2.8915  0.9769
  471MOL0     H64958   0.301   4.240   4.690 -2.9042 -2.4853  0.1042
  471MOL0     H64959   0.302   4.391   4.781  2.3953 -1.1451  0.9635
  471MOL0     H64960  -0.113   3.808   4.895 -2.2639  1.1090 -0.7629
  471MOL0     H64961  -0.321   3.728   4.992 -0.9797  1.4358 -0.6406
  471MOL0     H64962  -0.418   3.818   5.410  0.4943 -3.9180 -2.8734
  471MOL0     H64963  -0.470   3.984   5.358 -1.9982  0.2174 -0.1683
  471MOL0     H64964  -0.682   3.875   5.280 -0.3099  0.7850  2.2623
  471MOL0     H64965  -0.638   3.717   5.351  2.6397 -0.8577 -2.9317
  471MOL0     H64966  -0.682   3.980   5.498  1.1273  0.7300 -2.8981
  471MOL0     H64967  -0.604   3.826   5.554 -0.9712  0.7467  0.3423
  471MOL0     H64968  -0.829   3.808   5.618 -2.2129  0.6403 -0.3492
  471MOL0     H64969  -0.819   3.700   5.480 -3.9703 -0.9533  1.5416
  471MOL0     H64970  -0.919   3.997   5.477 -1.0348  0.9049 -1.9071
  471MOL0     H64971  -0.919   3.884   5.340  1.4441 -0.1017  0.0097
  471MOL0     H64972  -1.068   3.731   5.496 -0.3977 -0.4199 -4.2747
  471MOL0     H64973  -1.136   3.873   5.408 -1.5325  1.5631  1.5777
  471MOL0     H64974  -1.148   4.015   5.573 -3.0827 -0.6034 -1.1897
  471MOL0     H64975  -1.045   3.918   5.685 -1.2553 -2.3791  1.9813
  471MOL0     H64976  -1.248   3.754   5.713  0.5574  0.1342  1.8561
  471MOL0     H64977  -1.315   3.864   5.590  2.3863  2.8287 -0.7153
  471MOL0     H64978  -0.269   4.045   5.301  0.3397  1.1225 -1.2009
  471MOL0     H64979  -0.034   4.065   5.222 -1.6955  4.1898 -1.0688
  471MOL0     H64980   0.262   3.985   5.155  1.8036 -0.5754  0.4326
  471MOL0     H64981   0.501   4.027   5.191  2.6424  0.3186 -0.3675
  471MOL0     H64982   1.729   5.341   5.712 -0.0361 -0.1270  0.9932
  471MOL0     H64983   1.953   5.436   5.665 -1.4301 -0.5214  4.6104
  471MOL0     H64984   2.096   5.827   5.383  1.6407 -0.7881  0.7411
  471MOL0     H64985   2.267   6.012   5.311 -0.1378  0.2349 -0.5157
  471MOL0     H64986   2.692   5.935   5.427 -0.0504 -3.0974 -2.2804
  471MOL0     H64987   2.623   5.888   5.276  0.5627  0.3119 -1.1007
  471MOL0     H64988   2.658   6.118   5.188 -0.4689  0.8842  0.6096
  471MOL0     H64989   2.796   6.027   5.243  0.5258 -1.3833  1.8491
  471MOL0     H64990   2.669   6.249   5.410  0.2187 -0.2649  0.3796
  471MOL0     H64991   2.816   6.159   5.455 -1.3579  0.5825  1.4682
  471MOL0     H64992   2.923   6.248   5.238  0.1529  1.1755 -2.7313
  471MOL0     H64993   2.880   6.378   5.343  2.6589 -1.8113  0.6653
  471MOL0     H64994   2.660   6.449   4.986 -0.0543  0.4504  0.4520
  471MOL0     H64995   2.544   5.874   5.588  1.5882  2.1726 -3.9749
  471MOL0     H64996   2.424   5.592   5.697  2.7179  1.2232 -1.3789
  471MOL0     H64997   2.481   5.745   5.772 -0.3349 -0.5297  1.5631
  471MOL0     H64998   2.326   5.692   5.807  1.2136  1.5013  1.1412
  472MOL0     O64999   8.242   9.973   4.568 -0.8724  0.0421  0.7611
  472MOL0     C65000   8.343  10.022   4.612  0.5670  0.4410 -0.4010
  472MOL0     O65001   8.409  10.122   4.560 -0.0990  0.3534  0.0221
  472MOL0     C65002   8.370  10.168   4.434 -0.1191 -0.5719 -0.4343
  472MOL0     C65003   8.415  10.093   4.320  0.5065 -0.0529 -1.0990
  472MOL0     C65004   8.369  10.132   4.190  0.9657  0.6152  0.4602
  472MOL0     C65005   8.280  10.237   4.180  0.5892 -0.1017  0.0961
  472MOL0     O65006   8.253  10.252   4.046  0.2925 -0.5683  0.0763
  472MOL0     C65007   8.172  10.364   4.017 -0.0342 -0.4234 -0.9374
  472MOL0     C65008   8.184  10.382   3.867  0.8429 -1.8859  0.0302
  472MOL0     C65009   8.076  10.480   3.805 -0.6110  0.0996  0.0429
  472MOL0     C65010   8.123  10.627   3.812  0.3000  0.1388  0.7026
  472MOL0     C65011   8.019  10.698   3.727 -0.3054 -0.6276  1.0280
  472MOL0     C65012   8.050  10.852   3.700 -0.0024  0.1309 -0.1662
  472MOL0     C65013   7.935  10.947   3.704  0.4676 -1.0877  0.0995
  472MOL0     C65014   7.847  10.940   3.578  1.3997 -0.1543 -0.3326
  472MOL0     N65015   7.712  11.006   3.588  0.0825 -0.0533 -0.6253
  472MOL0     C65016   7.678  11.141   3.596  0.0431  0.2803  0.2471
  472MOL0     C65017   7.543  11.139   3.596  0.4565  0.2506  0.8808
  472MOL0     C65018   7.453  11.254   3.589  0.0501 -0.0902 -0.1701
  472MOL0     C65019   7.382  11.279   3.452 -1.0516 -0.7249 -0.4611
  472MOL0     C65020   7.312  11.166   3.389  0.2469  0.1075  0.0261
  472MOL0     C65021   7.250  11.190   3.256  0.0776  1.0103 -0.0058
  472MOL0     O65022   7.314  11.285   3.169 -0.0732 -0.2831 -1.2717
  472MOL0     C65023   7.256  11.397   3.119  1.0666  0.1126  0.3721
  472MOL0     C65024   7.241  11.508   3.197 -0.0312 -0.8677 -0.0852
  472MOL0     C65025   7.169  11.624   3.149  0.3076 -0.0427  0.1304
  472MOL0     C65026   7.149  11.743   3.254  0.1116 -0.1695 -0.5990
  472MOL0     C65027   7.116  11.619   3.020 -0.6890  0.3462  0.1543
  472MOL0     C65028   7.036  11.732   2.954 -0.3425 -0.4270 -0.5256
  472MOL0     O65029   7.048  11.860   3.000  0.3005 -0.1301  0.0677
  472MOL0     C65030   6.991  11.960   2.937  0.1100 -0.1495  0.0290
  472MOL0     C65031   6.873  12.024   2.988  0.2596 -0.4048  1.0281
  472MOL0     C65032   6.804  12.123   2.919 -0.0407  0.2018 -0.8667
  472MOL0     C65033   6.857  12.155   2.796  0.3229  0.5713  0.3946
  472MOL0     O65034   6.796  12.253   2.716 -0.4894 -0.9095 -0.2657
  472MOL0     C65035   6.657  12.286   2.729 -0.3251  0.3543  0.0825
  472MOL0     C65036   6.593  12.370   2.614 -0.0773  0.0431  0.1349
  472MOL0     C65037   6.441  12.404   2.651 -0.6446 -0.4117 -1.2277
  472MOL0     C65038   6.360  12.462   2.537 -0.4792 -0.3749 -0.7824
  472MOL0     C65039   6.426  12.587   2.463  0.4029  0.5504  0.0260
  472MOL0     C65040   6.411  12.711   2.561 -0.7237  0.9027 -0.0640
  472MOL0     C65041   6.497  12.835   2.518  0.2122 -0.0101  0.4157
  472MOL0     C65042   6.642  12.809   2.498 -1.3593  0.7767 -0.0327
  472MOL0    Cl65043   6.711  12.971   2.474  0.6191 -0.0548 -0.7881
  472MOL0     C65044   6.978  12.102   2.749  0.4969 -0.6101 -0.4191
  472MOL0     C65045   7.034  11.999   2.811  0.0497 -0.0899 -0.7261
  472MOL0     O65046   6.961  11.694   2.866 -0.4070 -0.2836 -0.2561
  472MOL0     C65047   7.143  11.514   2.933 -0.1368 -0.2131  0.2094
  472MOL0     C65048   7.220  11.401   2.978  0.0743  0.9066 -0.4049
  472MOL0     N65049   7.504  11.007   3.614  0.5107 -0.7721 -0.1206
  472MOL0     N65050   7.600  10.937   3.611 -1.2423 -0.0962  0.5818
  472MOL0     C65051   8.247  10.315   4.294 -0.0936 -0.2393  0.3487
  472MOL0     C65052   8.285  10.270   4.415  0.0223 -0.3994  0.5528
  472MOL0     C65053   8.394   9.983   4.745 -0.0117  0.4507  0.8018
  472MOL0     C65054   8.513  10.034   4.794  0.1004  0.4523 -0.2594
  472MOL0     C65055   8.575   9.980   4.908  0.5821  0.0674 -0.7189
  472MOL0     C65056   8.517   9.877   4.984 -0.5346 -0.8669 -0.5222
  472MOL0     O65057   8.582   9.827   5.094  0.3292 -0.5857  0.2438
  472MOL0     C65058   8.542   9.698   5.150 -0.1087 -0.4971 -0.4526
  472MOL0     C65059   8.646   9.648   5.257 -0.0584  0.3081  0.1488
  472MOL0     C65060   8.767   9.583   5.183  0.3540  0.9334 -0.2151
  472MOL0     C65061   8.891   9.546   5.256 -0.2694  1.0842 -0.7163
  472MOL0     C65062   8.943   9.665   5.318  0.5184 -0.3719  0.7000
  472MOL0     C65063   9.001   9.761   5.364 -0.4817  0.5234 -0.3047
  472MOL0     C65064   8.397   9.823   4.936 -0.9657  0.4488  0.3575
  472MOL0     C65065   8.337   9.867   4.815 -0.3285 -0.1889  0.4760
  472MOL0     C65066   8.228   9.778   4.770 -0.2353 -0.0047 -0.2622
  472MOL0     H65067   8.490  10.016   4.333 -0.3887 -1.0638 -1.7429
  472MOL0     H65068   8.398  10.070   4.106  0.1898  2.4459 -1.2335
  472MOL0     H65069   8.198  10.460   4.064  0.7759 -0.0905 -2.0266
  472MOL0     H65070   8.067  10.349   4.043  0.7853  0.5095  3.6654
  472MOL0     H65071   8.282  10.422   3.837 -0.5623 -0.5125 -3.2484
  472MOL0     H65072   8.163  10.292   3.810 -0.5884  0.9716 -4.5286
  472MOL0     H65073   8.054  10.455   3.701 -0.7960  2.9171 -0.6664
  472MOL0     H65074   7.980  10.465   3.855 -1.3964 -1.5137 -1.8269
  472MOL0     H65075   8.128  10.677   3.909 -0.3171  2.6101 -0.4693
  472MOL0     H65076   8.224  10.636   3.770  1.7868  1.8651  4.2813
  472MOL0     H65077   7.913  10.678   3.747 -0.3610 -0.0277  1.3413
  472MOL0     H65078   8.029  10.650   3.629 -0.6644 -0.0278  0.6933
  472MOL0     H65079   8.121  10.885   3.776  2.8762  1.7582 -3.3243
  472MOL0     H65080   8.108  10.861   3.608 -1.7058  2.2980 -1.1307
  472MOL0     H65081   7.969  11.050   3.714  0.7245 -1.0704 -0.8604
  472MOL0     H65082   7.877  10.928   3.795 -0.9584 -1.1297 -0.7792
  472MOL0     H65083   7.908  10.971   3.493  1.1407  0.3981 -0.3233
  472MOL0     H65084   7.822  10.836   3.553 -3.8756  0.5784  0.7674
  472MOL0     H65085   7.751  11.220   3.584 -1.2185  1.4865  0.2107
  472MOL0     H65086   7.503  11.349   3.613  0.5992 -0.3910 -0.1265
  472MOL0     H65087   7.375  11.237   3.664 -0.7032 -1.4865 -1.2228
  472MOL0     H65088   7.323  11.370   3.466 -2.5986 -1.9551  1.4467
  472MOL0     H65089   7.468  11.302   3.388 -0.6224 -3.6276 -1.0610
  472MOL0     H65090   7.376  11.078   3.390 -0.1473 -0.2291  2.6811
  472MOL0     H65091   7.238  11.152   3.469  0.2749  3.8910  0.9176
  472MOL0     H65092   7.229  11.102   3.194 -0.1012  2.4895 -2.1709
  472MOL0     H65093   7.149  11.220   3.283 -0.5791  0.6594 -1.8845
  472MOL0     H65094   7.294  11.504   3.291  0.1557  2.3115  0.0632
  472MOL0     H65095   7.195  11.725   3.351  0.1791 -2.3246 -0.9826
  472MOL0     H65096   7.046  11.759   3.287  0.7641 -0.4590  1.7770
  472MOL0     H65097   7.192  11.837   3.219 -0.7875  0.1262 -0.9499
  472MOL0     H65098   6.807  12.008   3.073 -1.3374 -1.0896 -0.2955
  472MOL0     H65099   6.715  12.171   2.958  1.5822  0.8910  2.2650
  472MOL0     H65100   6.591  12.200   2.743  0.1622  0.0094  0.2865
  472MOL0     H65101   6.643  12.350   2.817 -0.4221  0.3720  0.0545
  472MOL0     H65102   6.655  12.459   2.601  0.8615 -0.6144 -0.0019
  472MOL0     H65103   6.592  12.306   2.525  1.1602 -0.9797  0.8311
  472MOL0     H65104   6.444  12.473   2.735  0.3130 -0.5260 -1.1538
  472MOL0     H65105   6.393  12.310   2.681  1.0736 -1.1572 -0.6276
  472MOL0     H65106   6.262  12.497   2.571 -1.2615 -1.1047 -2.1831
  472MOL0     H65107   6.344  12.381   2.465  1.1821  0.2984 -1.9582
  472MOL0     H65108   6.532  12.560   2.452  0.7951  1.0199  2.2091
  472MOL0     H65109   6.380  12.606   2.366  1.8520  0.7474 -0.6465
  472MOL0     H65110   6.452  12.679   2.658 -0.3750 -1.4787 -0.9181
  472MOL0     H65111   6.304  12.728   2.570 -0.9424 -0.2047 -0.4490
  472MOL0     H65112   6.495  12.907   2.601  3.3827 -0.1414  0.7388
  472MOL0     H65113   6.462  12.884   2.427  0.9161 -0.8433 -0.3219
  472MOL0     H65114   6.660  12.748   2.409 -2.1471 -0.4851  0.6368
  472MOL0     H65115   6.683  12.765   2.589  0.9213  1.4136 -0.6870
  472MOL0     H65116   7.031  12.129   2.658  0.4319 -0.5433 -0.4373
  472MOL0     H65117   7.121  11.957   2.763  1.6595  2.8340 -0.5693
  472MOL0     H65118   7.113  11.515   2.829  4.7023  1.6906 -1.4719
  472MOL0     H65119   7.241  11.312   2.920 -0.5468  0.7213 -0.3524
  472MOL0     H65120   8.193  10.409   4.293  1.6490  0.8239 -1.6594
  472MOL0     H65121   8.253  10.320   4.506  0.4061 -0.4771  0.7343
  472MOL0     H65122   8.570  10.104   4.733 -1.6734  3.9143  1.6982
  472MOL0     H65123   8.674  10.006   4.943  0.7855 -1.5052 -0.0515
  472MOL0     H65124   8.449   9.714   5.205  0.0884  0.1028 -0.2957
  472MOL0     H65125   8.533   9.616   5.079 -0.5254 -0.6203 -0.2611
  472MOL0     H65126   8.595   9.588   5.334  1.3311 -0.4229  0.5349
  472MOL0     H65127   8.671   9.741   5.310  0.7425 -0.3756  1.0197
  472MOL0     H65128   8.731   9.497   5.127 -0.7589  0.2558  1.4648
  472MOL0     H65129   8.806   9.657   5.113  1.0558  1.9587  1.2036
  472MOL0     H65130   8.970   9.513   5.187  1.8039  1.7825  1.2014
  472MOL0     H65131   8.892   9.468   5.332  0.0556  1.2360 -0.5602
  472MOL0     H65132   9.050   9.842   5.415 -1.9716  0.0634  1.9682
  472MOL0     H65133   8.360   9.735   4.987  1.7404 -0.9057  0.1646
  472MOL0     H65134   8.137   9.830   4.739 -1.8373 -3.5928 -2.1748
  472MOL0     H65135   8.249   9.733   4.672  0.9437  1.0895 -0.5516
  472MOL0     H65136   8.204   9.699   4.842  0.2545 -0.6608 -0.8021
  473MOL0     O65137   9.452  11.020   0.236  0.0960 -0.6478  0.1716
  473MOL0     C65138   9.418  11.126   0.297 -1.3588 -0.7647 -0.5730
  473MOL0     O65139   9.500  11.211   0.360 -0.4194  0.1901  0.0571
  473MOL0     C65140   9.636  11.180   0.355  0.6643 -0.6923 -0.4175
  473MOL0     C65141   9.677  11.071   0.425  0.6166 -0.9087  0.2645
  473MOL0     C65142   9.808  11.035   0.422 -0.4195  0.2131  0.2411
  473MOL0     C65143   9.903  11.112   0.349  0.6320 -0.8421 -0.3023
  473MOL0     O65144  10.035  11.080   0.335 -0.8188  0.1931  0.1969
  473MOL0     C65145  10.069  10.944   0.304  0.3478 -0.2229 -0.2286
  473MOL0     C65146  10.070  10.918   0.156 -0.3760  0.5804  0.9736
  473MOL0     C65147  10.151  11.027   0.084 -0.3519 -0.1013 -0.1687
  473MOL0     C65148  10.291  11.047   0.137 -0.0387 -0.3712  0.5514
  473MOL0     C65149  10.375  11.157   0.065  0.0093 -0.7396  0.6690
  473MOL0     C65150  10.488  11.103  -0.019 -0.8231  0.3989  0.0948
  473MOL0     C65151  10.563  11.205  -0.107 -0.6325 -0.7742 -0.2840
  473MOL0     C65152  10.663  11.295  -0.023  0.0410  0.2489  0.8156
  473MOL0     N65153  10.709  11.410  -0.106 -0.0843  0.5325  1.1213
  473MOL0     C65154  10.832  11.412  -0.174 -1.0069 -0.0790 -1.1733
  473MOL0     C65155  10.833  11.532  -0.246  0.3409 -1.0806  0.4683
  473MOL0     C65156  10.954  11.593  -0.306  1.0155 -1.3598 -0.4536
  473MOL0     C65157  11.032  11.500  -0.399  0.3905  0.5952 -0.0159
  473MOL0     C65158  11.136  11.578  -0.488  0.0945  0.3396 -0.0576
  473MOL0     C65159  11.175  11.500  -0.610  0.1454  0.2743  0.2243
  473MOL0     O65160  11.310  11.528  -0.639  1.3203 -0.3283  0.3236
  473MOL0     C65161  11.391  11.435  -0.698 -0.9155 -0.6316 -0.6166
  473MOL0     C65162  11.350  11.314  -0.755 -0.3963  0.0024 -0.7216
  473MOL0     C65163  11.451  11.238  -0.819  0.0266 -0.6224  0.7561
  473MOL0     C65164  11.406  11.114  -0.887  0.7520 -0.6756 -0.5205
  473MOL0     C65165  11.584  11.272  -0.831  0.5410  0.1175  0.3093
  473MOL0     C65166  11.689  11.226  -0.919 -0.1683  0.1606 -0.0785
  473MOL0     O65167  11.660  11.203  -1.050  0.6645 -0.9878  0.2282
  473MOL0     C65168  11.756  11.176  -1.141  0.2912  0.5333  0.6743
  473MOL0     C65169  11.739  11.227  -1.275  0.0417 -0.7632 -0.1787
  473MOL0     C65170  11.828  11.194  -1.374 -0.0543 -0.3104 -0.3735
  473MOL0     C65171  11.942  11.118  -1.349  0.0845 -0.7816  0.0526
  473MOL0     O65172  12.040  11.102  -1.438 -0.2936 -0.6394  0.2426
  473MOL0     C65173  12.085  11.215  -1.517  0.4941  0.2827  0.2661
  473MOL0     C65174  12.189  11.188  -1.629 -0.0757 -0.0346 -0.2598
  473MOL0     C65175  12.331  11.162  -1.582 -0.7500  0.3452  0.9582
  473MOL0     C65176  12.346  11.074  -1.454  0.0489 -0.2804  0.2443
  473MOL0     C65177  12.492  11.033  -1.410  0.4866 -0.2148 -0.5094
  473MOL0     C65178  12.590  11.139  -1.355  0.4175  0.0266  0.2130
  473MOL0     C65179  12.618  11.261  -1.456  0.6674  0.0097 -0.3813
  473MOL0     C65180  12.758  11.317  -1.424  0.1069  0.4813  0.1734
  473MOL0    Cl65181  12.779  11.463  -1.527 -0.0512  0.0407 -0.1142
  473MOL0     C65182  11.965  11.084  -1.216  0.1795  0.2532  0.1169
  473MOL0     C65183  11.878  11.105  -1.113 -0.1117  0.0467 -0.0624
  473MOL0     O65184  11.802  11.229  -0.871  0.7389  0.5239  1.0294
  473MOL0     C65185  11.617  11.391  -0.760 -0.6307  0.9514  0.5043
  473MOL0     C65186  11.526  11.471  -0.693  0.2959 -0.0660 -0.5007
  473MOL0     N65187  10.709  11.599  -0.221  0.0723 -1.4186  0.3369
  473MOL0     N65188  10.639  11.522  -0.136 -0.2448 -0.0460  1.1761
  473MOL0     C65189   9.852  11.230   0.287 -0.4562 -1.2040  0.4089
  473MOL0     C65190   9.723  11.268   0.280  0.0879 -0.1938  0.0772
  473MOL0     C65191   9.278  11.175   0.278 -0.2712  0.3463 -0.7620
  473MOL0     C65192   9.198  11.167   0.393  0.5710  0.1514 -0.1350
  473MOL0     C65193   9.062  11.201   0.394 -0.7138 -0.3446 -0.0296
  473MOL0     C65194   9.013  11.254   0.280 -0.4661 -0.8011  0.5859
  473MOL0     O65195   8.879  11.295   0.281 -0.2125  0.9344  0.2243
  473MOL0     C65196   8.788  11.187   0.245  0.2969 -0.3314 -0.4127
  473MOL0     C65197   8.694  11.175   0.378 -0.2508  0.8132 -0.6130
  473MOL0     C65198   8.626  11.309   0.408  1.1058 -0.0844  0.0572
  473MOL0     C65199   8.518  11.347   0.310  0.5221  1.5555 -0.6314
  473MOL0     C65200   8.401  11.401   0.383 -0.6562 -0.2961  0.1550
  473MOL0     C65201   8.305  11.439   0.460 -0.2461  0.9157 -0.3710
  473MOL0     C65202   9.089  11.272   0.172 -0.5569 -0.6241 -0.0566
  473MOL0     C65203   9.214  11.217   0.158  0.0138 -1.2578  0.3759
  473MOL0     C65204   9.284  11.207   0.023 -0.6469 -0.3299  0.9694
  473MOL0     H65205   9.615  11.015   0.495 -1.0164  0.7047  0.2062
  473MOL0     H65206   9.825  10.946   0.482 -1.5920 -1.3584 -1.6214
  473MOL0     H65207  10.006  10.873   0.358 -1.1366 -2.0782 -4.0267
  473MOL0     H65208  10.172  10.929   0.337  0.1576 -0.6387  0.1738
  473MOL0     H65209  10.128  10.827   0.138 -1.0923  0.4816 -1.1607
  473MOL0     H65210   9.967  10.909   0.122  0.1326 -1.6178 -0.1517
  473MOL0     H65211  10.168  10.995  -0.019  0.2403  1.9166 -0.7522
  473MOL0     H65212  10.094  11.120   0.084 -1.7566 -0.9375 -1.4383
  473MOL0     H65213  10.289  11.083   0.240  3.8791  0.4321  0.5046
  473MOL0     H65214  10.341  10.950   0.146  0.0078 -0.3655  0.3536
  473MOL0     H65215  10.429  11.202   0.148  1.6842 -3.4645  1.1930
  473MOL0     H65216  10.307  11.225   0.013  0.5987  0.7010  1.7389
  473MOL0     H65217  10.566  11.057   0.042  0.1844 -0.2384 -1.5925
  473MOL0     H65218  10.443  11.033  -0.090 -0.9686  1.7902 -1.2552
  473MOL0     H65219  10.485  11.270  -0.146  0.1189  1.0342  1.0682
  473MOL0     H65220  10.614  11.151  -0.187  1.1766  0.8212 -0.2931
  473MOL0     H65221  10.607  11.336   0.061  1.0796 -0.1870  1.7436
  473MOL0     H65222  10.745  11.240   0.024 -0.3497  1.6197  3.2841
  473MOL0     H65223  10.910  11.336  -0.170  0.2276  1.1099 -2.0125
  473MOL0     H65224  11.012  11.639  -0.225 -0.7696  4.5950 -2.0486
  473MOL0     H65225  10.922  11.679  -0.365  1.4795 -2.5028 -2.4703
  473MOL0     H65226  11.074  11.417  -0.341 -0.1283 -0.4765 -1.1161
  473MOL0     H65227  10.955  11.462  -0.467 -2.1521  4.2039  0.5709
  473MOL0     H65228  11.108  11.679  -0.519  1.5747  1.1725  1.1672
  473MOL0     H65229  11.221  11.588  -0.420 -0.9783 -1.9650  1.7323
  473MOL0     H65230  11.160  11.395  -0.582  1.7746 -0.1838 -0.4873
  473MOL0     H65231  11.117  11.509  -0.702  0.5700 -1.1074 -0.2025
  473MOL0     H65232  11.249  11.277  -0.754 -0.9489  1.2998 -2.5540
  473MOL0     H65233  11.484  11.039  -0.867  1.1799  0.4130  2.4531
  473MOL0     H65234  11.391  11.125  -0.994  0.3745  0.5557 -0.3518
  473MOL0     H65235  11.314  11.075  -0.844  0.6925  0.3887  0.3822
  473MOL0     H65236  11.643  11.270  -1.303  0.2329 -1.0516 -1.3096
  473MOL0     H65237  11.818  11.241  -1.471 -0.1215 -0.1011 -0.2645
  473MOL0     H65238  12.004  11.269  -1.568  1.0862 -1.6380 -3.0373
  473MOL0     H65239  12.132  11.282  -1.445  0.4640  1.3177 -0.6413
  473MOL0     H65240  12.154  11.097  -1.678  0.4856 -0.2547 -0.2574
  473MOL0     H65241  12.183  11.266  -1.706  0.2873 -0.2898 -0.5450
  473MOL0     H65242  12.364  11.257  -1.540 -2.3473  0.6559  1.5900
  473MOL0     H65243  12.394  11.128  -1.665  0.5163 -1.5488  2.5948
  473MOL0     H65244  12.298  10.982  -1.489  4.3977 -1.8914 -2.2937
  473MOL0     H65245  12.293  11.113  -1.367 -0.6470 -0.3762 -0.1349
  473MOL0     H65246  12.487  10.957  -1.332  0.6956 -0.0798 -0.3622
  473MOL0     H65247  12.538  10.979  -1.493  1.7958 -1.3015  0.8636
  473MOL0     H65248  12.692  11.102  -1.337  1.0267  1.5795  0.1800
  473MOL0     H65249  12.546  11.187  -1.267 -0.5584 -1.2748  0.4604
  473MOL0     H65250  12.546  11.343  -1.446  2.1797  1.2929  0.4121
  473MOL0     H65251  12.612  11.228  -1.560 -1.1289 -1.0647  0.0056
  473MOL0     H65252  12.832  11.242  -1.454 -0.7317  0.3803 -1.8060
  473MOL0     H65253  12.770  11.344  -1.319  1.6895  0.0446  0.1193
  473MOL0     H65254  12.068  11.065  -1.187  0.0868  2.5247  2.3004
  473MOL0     H65255  11.907  11.075  -1.013 -2.5539 -0.4248  0.5909
  473MOL0     H65256  11.715  11.433  -0.781 -1.4595  2.6927 -0.0581
  473MOL0     H65257  11.546  11.564  -0.640 -3.2639 -0.2608  1.4787
  473MOL0     H65258   9.920  11.304   0.245 -0.4576 -1.0915  0.6035
  473MOL0     H65259   9.676  11.355   0.235 -1.1981 -0.2371  1.2493
  473MOL0     H65260   9.243  11.132   0.485 -2.0991  1.8016  1.9505
  473MOL0     H65261   9.002  11.188   0.484 -0.5001  0.2050  0.1967
  473MOL0     H65262   8.730  11.220   0.158 -0.5491 -1.8937 -0.4858
  473MOL0     H65263   8.836  11.090   0.228 -0.7723 -0.7755 -1.0142
  473MOL0     H65264   8.755  11.165   0.468 -1.7337  1.0403  0.4557
  473MOL0     H65265   8.626  11.090   0.379  0.0594  0.5602  0.9247
  473MOL0     H65266   8.577  11.300   0.505 -0.9054  1.1170 -0.7810
  473MOL0     H65267   8.689  11.399   0.410  1.1697 -0.1377  0.8604
  473MOL0     H65268   8.503  11.262   0.243  0.9215  2.3372 -1.7517
  473MOL0     H65269   8.570  11.420   0.247 -1.0980  0.3996 -3.5303
  473MOL0     H65270   8.215  11.475   0.507 -1.4776  0.8844 -2.5884
  473MOL0     H65271   9.045  11.305   0.079  2.2621 -1.1734 -1.7009
  473MOL0     H65272   9.383  11.244   0.049 -1.8567  3.6959  0.5294
  473MOL0     H65273   9.291  11.101  -0.004 -0.6198 -0.2780  0.7641
  473MOL0     H65274   9.237  11.257  -0.063 -1.9874 -2.1507  0.5721
  474MOL0     O65275   7.590   6.104   3.054  0.2379 -0.6560 -0.0580
  474MOL0     C65276   7.668   6.145   3.139  0.7271  0.3835  0.0417
  474MOL0     O65277   7.637   6.197   3.260 -0.7972 -0.2191  1.0618
  474MOL0     C65278   7.505   6.205   3.293 -0.3473  0.1606  0.2859
  474MOL0     C65279   7.438   6.119   3.383  0.0934  0.2360  0.5832
  474MOL0     C65280   7.299   6.138   3.407  0.4218 -0.2133 -0.2709
  474MOL0     C65281   7.225   6.233   3.337 -0.0227  1.4808  0.1762
  474MOL0     O65282   7.091   6.244   3.361 -0.7472 -0.1577  1.6229
  474MOL0     C65283   7.019   6.282   3.240 -1.3500 -0.3718  0.5690
  474MOL0     C65284   6.877   6.255   3.275 -0.1993  0.3069  0.8488
  474MOL0     C65285   6.787   6.341   3.185 -1.8010 -0.3090 -0.4714
  474MOL0     C65286   6.640   6.329   3.199  0.1074 -0.1913 -0.6494
  474MOL0     C65287   6.555   6.385   3.076 -0.0912 -0.1804 -1.0007
  474MOL0     C65288   6.416   6.323   3.055  0.0757  0.3626  0.4549
  474MOL0     C65289   6.349   6.366   2.922 -0.3757 -0.5217  0.3579
  474MOL0     C65290   6.435   6.316   2.798  0.2319 -0.3230 -0.4770
  474MOL0     N65291   6.439   6.175   2.779  0.1169 -0.6224  0.2601
  474MOL0     C65292   6.557   6.105   2.799 -0.4283 -0.8442 -0.8614
  474MOL0     C65293   6.522   5.973   2.784  0.7850 -0.2090 -0.3842
  474MOL0     C65294   6.609   5.846   2.778  0.3895 -0.2984 -0.7137
  474MOL0     C65295   6.749   5.862   2.843  1.3262 -0.0772 -0.1431
  474MOL0     C65296   6.742   5.893   2.995  0.2464 -0.0226  0.6094
  474MOL0     C65297   6.841   5.821   3.085  0.2488 -0.2924  0.2434
  474MOL0     O65298   6.981   5.862   3.040  0.5766  0.2992 -0.0247
  474MOL0     C65299   7.100   5.801   3.080  0.4205  0.2556  0.7103
  474MOL0     C65300   7.103   5.680   3.147  0.7558 -0.8200 -0.3520
  474MOL0     C65301   7.217   5.612   3.171 -0.3404  0.0241  0.8520
  474MOL0     C65302   7.203   5.483   3.259  0.3779  0.3717  1.1416
  474MOL0     C65303   7.340   5.661   3.134  0.4074 -0.2327 -0.6851
  474MOL0     C65304   7.472   5.600   3.149 -0.0832  0.2944  0.1294
  474MOL0     O65305   7.573   5.656   3.221  0.0436 -0.4015  0.5668
  474MOL0     C65306   7.696   5.598   3.229  0.8723 -0.4055 -0.1412
  474MOL0     C65307   7.713   5.474   3.282 -0.7741  0.8253  0.2115
  474MOL0     C65308   7.841   5.421   3.275 -0.9485 -0.0569  1.1313
  474MOL0     C65309   7.952   5.508   3.254  0.5753  0.3253  0.4189
  474MOL0     O65310   8.075   5.452   3.276 -1.0519 -0.1999  0.4504
  474MOL0     C65311   8.149   5.401   3.174  0.4284 -0.5727  0.4078
  474MOL0     C65312   8.297   5.398   3.209 -0.6533 -0.6324  0.3670
  474MOL0     C65313   8.378   5.312   3.107  0.5470 -0.2622  0.0089
  474MOL0     C65314   8.369   5.339   2.959  0.8642 -0.5296  0.4695
  474MOL0     C65315   8.448   5.467   2.921 -0.8547 -0.4017 -0.7975
  474MOL0     C65316   8.495   5.466   2.778 -0.3032  0.1616 -0.2997
  474MOL0     C65317   8.605   5.569   2.754  1.0612 -0.4526  0.4527
  474MOL0     C65318   8.655   5.563   2.612  0.0810 -0.5469  0.1914
  474MOL0    Cl65319   8.521   5.601   2.499 -0.5242  0.1699  0.3233
  474MOL0     C65320   7.931   5.639   3.222 -0.0952  0.1675 -0.1376
  474MOL0     C65321   7.799   5.684   3.203 -0.3763 -0.2631 -0.1858
  474MOL0     O65322   7.483   5.495   3.078 -0.1932 -0.1900 -0.3537
  474MOL0     C65323   7.339   5.794   3.091 -0.2095  0.6250  0.7602
  474MOL0     C65324   7.222   5.859   3.050 -0.2527  1.2693 -0.9689
  474MOL0     N65325   6.383   5.973   2.767 -0.3515 -0.8320 -0.1850
  474MOL0     N65326   6.332   6.092   2.764 -1.1106 -0.1174  0.3301
  474MOL0     C65327   7.291   6.317   3.246 -2.1456 -0.0714  0.9867
  474MOL0     C65328   7.432   6.304   3.236 -0.1302  0.7008  0.4202
  474MOL0     C65329   7.814   6.114   3.126  0.7749 -0.9342  0.3562
  474MOL0     C65330   7.880   6.086   3.251 -0.3650 -0.2432 -0.0803
  474MOL0     C65331   8.020   6.045   3.244  0.2737 -0.2240 -0.1653
  474MOL0     C65332   8.086   6.041   3.126 -0.3343 -0.2449  0.3510
  474MOL0     O65333   8.217   5.991   3.115 -0.2245  0.1162 -0.5898
  474MOL0     C65334   8.278   5.962   3.243  0.6890 -0.3155  0.4426
  474MOL0     C65335   8.429   5.942   3.212  0.4012 -0.4346  0.7648
  474MOL0     C65336   8.466   5.873   3.079  0.2398  0.4784 -0.3379
  474MOL0     C65337   8.609   5.824   3.071  0.5433 -0.1187 -0.5626
  474MOL0     C65338   8.637   5.694   3.143 -0.0237  0.2095 -0.1903
  474MOL0     C65339   8.658   5.597   3.210 -0.2354  0.6975  0.8714
  474MOL0     C65340   8.022   6.080   3.011 -0.3935  0.0738 -0.6870
  474MOL0     C65341   7.880   6.121   3.007 -0.4705 -0.1480  0.2365
  474MOL0     C65342   7.825   6.165   2.872  0.8548  0.2248 -0.5373
  474MOL0     H65343   7.474   6.031   3.435 -0.9119 -0.3662  0.2872
  474MOL0     H65344   7.244   6.075   3.476  1.1877 -1.3719 -0.6946
  474MOL0     H65345   7.052   6.235   3.147  0.7472  0.2007  0.9693
  474MOL0     H65346   7.045   6.386   3.223 -0.4409 -0.6760  0.0370
  474MOL0     H65347   6.858   6.149   3.255  2.7763 -0.9698  3.9190
  474MOL0     H65348   6.855   6.268   3.381  1.9791  0.3842  1.3274
  474MOL0     H65349   6.812   6.447   3.181 -2.3351 -0.1917 -0.8195
  474MOL0     H65350   6.803   6.296   3.087  0.4291 -0.4058 -0.1077
  474MOL0     H65351   6.621   6.222   3.198 -0.9030 -0.0254 -0.1698
  474MOL0     H65352   6.592   6.379   3.284 -2.1580 -0.2269 -1.8165
  474MOL0     H65353   6.615   6.380   2.985  0.0241 -0.3794 -0.9149
  474MOL0     H65354   6.556   6.493   3.090  1.1144 -0.0353 -1.9851
  474MOL0     H65355   6.404   6.215   3.062  0.6853  0.1558 -1.2539
  474MOL0     H65356   6.349   6.358   3.135 -3.6081 -1.7866 -1.3979
  474MOL0     H65357   6.347   6.475   2.911 -0.4578 -0.4488  1.0366
  474MOL0     H65358   6.246   6.332   2.910 -1.3110  2.1284  0.2234
  474MOL0     H65359   6.401   6.363   2.705 -0.3269  2.5620  1.0844
  474MOL0     H65360   6.537   6.351   2.810  0.3780  0.6128 -3.6565
  474MOL0     H65361   6.660   6.141   2.806 -0.1835 -1.8842  1.9711
  474MOL0     H65362   6.621   5.839   2.669  1.1922  1.5198 -0.7807
  474MOL0     H65363   6.561   5.758   2.820 -1.1909  0.8055 -0.1220
  474MOL0     H65364   6.803   5.771   2.816  2.0551  0.1969  0.3544
  474MOL0     H65365   6.804   5.937   2.786  0.3283 -0.8422 -2.1822
  474MOL0     H65366   6.747   6.002   3.004 -0.1217 -0.1870  3.8870
  474MOL0     H65367   6.640   5.872   3.030 -0.1643  2.7981  1.3825
  474MOL0     H65368   6.830   5.848   3.190  0.6958  4.5853 -0.7514
  474MOL0     H65369   6.841   5.712   3.082  1.2157 -0.5420  4.2222
  474MOL0     H65370   7.005   5.639   3.167  0.1678  0.9736  0.7245
  474MOL0     H65371   7.301   5.439   3.282  1.4827  3.3724  2.6984
  474MOL0     H65372   7.143   5.405   3.211  0.9212  1.1290 -0.8843
  474MOL0     H65373   7.160   5.512   3.355  3.0126 -0.7092  2.7848
  474MOL0     H65374   7.631   5.407   3.307 -1.8089  1.4912 -1.2434
  474MOL0     H65375   7.867   5.322   3.314 -0.2458  1.1778  4.1109
  474MOL0     H65376   8.117   5.297   3.161  1.4658 -0.7186 -1.3184
  474MOL0     H65377   8.118   5.451   3.082  2.9461 -1.2984 -0.9385
  474MOL0     H65378   8.335   5.501   3.212 -0.3583 -0.7506  0.7122
  474MOL0     H65379   8.316   5.342   3.301  2.7723 -2.2806 -1.1589
  474MOL0     H65380   8.352   5.207   3.120 -2.5517  0.5295  1.0333
  474MOL0     H65381   8.481   5.311   3.143  0.0987 -0.5541  1.3711
  474MOL0     H65382   8.272   5.349   2.910  0.6294  0.8560  1.1487
  474MOL0     H65383   8.422   5.253   2.917  0.4992 -1.3131  1.5640
  474MOL0     H65384   8.393   5.560   2.935 -2.8498 -1.3081 -2.1036
  474MOL0     H65385   8.541   5.471   2.978  0.8639  1.3650 -3.4476
  474MOL0     H65386   8.416   5.465   2.703 -1.6823 -2.5673  1.0352
  474MOL0     H65387   8.531   5.367   2.750 -3.5644 -0.7565 -1.6390
  474MOL0     H65388   8.686   5.557   2.826 -0.0474 -0.6721  1.7004
  474MOL0     H65389   8.559   5.666   2.775  0.8128 -0.5808  0.5076
  474MOL0     H65390   8.698   5.464   2.598  0.4039 -0.3371 -0.3090
  474MOL0     H65391   8.732   5.640   2.602 -2.5672  2.4140  0.5915
  474MOL0     H65392   8.014   5.705   3.197  1.1168 -0.9319  0.8461
  474MOL0     H65393   7.777   5.787   3.177  3.8045  1.1605  1.1301
  474MOL0     H65394   7.429   5.848   3.063 -1.7210  3.5590  1.2462
  474MOL0     H65395   7.230   5.961   3.013  2.0926  0.6671 -2.3197
  474MOL0     H65396   7.255   6.408   3.199  1.7463  1.6727  0.9688
  474MOL0     H65397   7.486   6.368   3.168 -1.1856  5.1230  3.3402
  474MOL0     H65398   7.834   6.091   3.349  1.1492 -3.3393  0.9013
  474MOL0     H65399   8.059   6.015   3.341 -1.0972 -2.4733 -0.2381
  474MOL0     H65400   8.280   6.051   3.306  2.9858 -0.0632  0.0920
  474MOL0     H65401   8.231   5.877   3.293 -0.7733  1.0248  1.4515
  474MOL0     H65402   8.476   5.874   3.284  1.4058 -0.4113  0.1441
  474MOL0     H65403   8.484   6.036   3.213  4.0657 -2.4035  1.1272
  474MOL0     H65404   8.391   5.794   3.064 -0.9821  1.2930  1.0824
  474MOL0     H65405   8.456   5.943   2.996 -1.5961 -0.3835 -0.8968
  474MOL0     H65406   8.672   5.908   3.102  1.7805 -0.1025 -2.9025
  474MOL0     H65407   8.647   5.807   2.970 -1.4738 -4.0888 -0.8323
  474MOL0     H65408   8.674   5.524   3.287  1.8382  3.3037  3.1500
  474MOL0     H65409   8.087   6.091   2.925 -2.8268 -3.6044 -3.3110
  474MOL0     H65410   7.832   6.274   2.867  1.9194  0.2350  0.7016
  474MOL0     H65411   7.874   6.110   2.791 -0.2750 -2.7144  0.6583
  474MOL0     H65412   7.718   6.147   2.863  0.0329  2.7547  2.3532
  475MOL0     O65413  10.293  10.522  10.468  1.2459 -0.5426 -1.1199
  475MOL0     C65414  10.377  10.593  10.407 -0.0356 -0.0795 -1.1198
  475MOL0     O65415  10.352  10.640  10.283 -0.4072 -0.3959 -0.2943
  475MOL0     C65416  10.233  10.629  10.220  0.8090 -0.9964 -0.1576
  475MOL0     C65417  10.104  10.683  10.263 -0.4795  0.5393  0.0280
  475MOL0     C65418   9.986  10.675  10.184  1.0813 -0.6698  1.5415
  475MOL0     C65419   9.996  10.617  10.060  0.6144  0.4335 -0.3413
  475MOL0     O65420   9.902  10.611   9.962  0.1239  0.6441 -0.3862
  475MOL0     C65421   9.758  10.605   9.999 -0.3193 -0.3865  1.1852
  475MOL0     C65422   9.690  10.547   9.871  0.6896 -0.1449  0.2683
  475MOL0     C65423   9.535  10.544   9.886  0.0655  0.1850 -0.3171
  475MOL0     C65424   9.485  10.423   9.959 -0.2913  1.4202 -0.4784
  475MOL0     C65425   9.339  10.424   9.988 -0.3290 -1.2188  0.1642
  475MOL0     C65426   9.286  10.293  10.025  0.4820  0.4457 -1.2534
  475MOL0     C65427   9.134  10.288  10.073  0.0416  0.0372  0.1190
  475MOL0     C65428   9.046  10.169  10.017  0.8542  0.0036  0.7015
  475MOL0     N65429   8.990  10.185   9.883 -0.1785 -0.1047  0.3818
  475MOL0     C65430   9.051  10.166   9.763  0.4598  0.7551  0.1836
  475MOL0     C65431   8.973  10.213   9.665 -0.1117  0.8703  0.3542
  475MOL0     C65432   9.012  10.202   9.519 -0.3256 -0.8743 -0.6470
  475MOL0     C65433   9.098  10.321   9.465  0.2451 -0.0250 -0.1181
  475MOL0     C65434   9.195  10.399   9.548 -0.1780 -0.6171 -0.1295
  475MOL0     C65435   9.335  10.335   9.567 -0.9798  0.1476  0.6685
  475MOL0     O65436   9.381  10.269   9.442  0.0134 -0.2264  0.2507
  475MOL0     C65437   9.458  10.324   9.346 -0.1501  0.0868 -0.1384
  475MOL0     C65438   9.489  10.458   9.346 -0.4957 -0.3856  0.6773
  475MOL0     C65439   9.561  10.515   9.236  0.6759  0.0904 -0.0260
  475MOL0     C65440   9.583  10.668   9.250  0.3290 -0.4237 -0.3028
  475MOL0     C65441   9.614  10.426   9.136  0.3679 -1.1821 -0.1885
  475MOL0     C65442   9.681  10.472   9.009 -0.3065 -1.4427 -0.0601
  475MOL0     O65443   9.730  10.366   8.924 -0.3994  0.0549 -0.9935
  475MOL0     C65444   9.824  10.414   8.827 -0.0899 -0.7080  0.1558
  475MOL0     C65445   9.787  10.471   8.707  1.0566 -0.0186  0.5711
  475MOL0     C65446   9.872  10.518   8.613  1.2507  0.4462 -0.7290
  475MOL0     C65447  10.009  10.518   8.645  0.9407 -1.1983 -0.5744
  475MOL0     O65448  10.084  10.585   8.558  0.0931  0.5539  0.5970
  475MOL0     C65449  10.168  10.691   8.602 -0.3291 -0.0885 -0.8703
  475MOL0     C65450  10.081  10.809   8.661  0.4094  0.2928 -0.9384
  475MOL0     C65451  10.163  10.895   8.749 -0.2778  0.2757 -0.6021
  475MOL0     C65452  10.211  10.816   8.875 -0.2577 -0.5506  0.0896
  475MOL0     C65453  10.269  10.925   8.975 -0.1032  0.3187  0.1871
  475MOL0     C65454  10.387  10.874   9.052  0.4065 -0.0632  0.1306
  475MOL0     C65455  10.446  10.994   9.124 -0.1501 -0.0718  0.4206
  475MOL0     C65456  10.561  10.952   9.211 -0.2436  0.1323 -0.3725
  475MOL0    Cl65457  10.699  10.903   9.110 -0.0784 -0.4781  0.5544
  475MOL0     C65458  10.056  10.456   8.756  0.1794 -0.7364 -0.1671
  475MOL0     C65459   9.960  10.393   8.838 -0.1559 -0.1729  0.0143
  475MOL0     O65460   9.700  10.597   8.988 -1.1298  0.2844 -0.4962
  475MOL0     C65461   9.573  10.290   9.145 -0.0423 -0.5307  0.1200
  475MOL0     C65462   9.503  10.238   9.249  0.0196 -0.1028 -0.4890
  475MOL0     N65463   8.867  10.280   9.729 -0.3971  0.0989 -0.1357
  475MOL0     N65464   8.885  10.264   9.859  0.0286  0.0671 -0.2992
  475MOL0     C65465  10.118  10.568  10.012  0.4793  0.8128 -0.0231
  475MOL0     C65466  10.231  10.573  10.094  0.2513  1.3009 -0.8129
  475MOL0     C65467  10.512  10.623  10.474  0.0116  0.0133 -0.0445
  475MOL0     C65468  10.597  10.709  10.399 -0.5205 -0.1070 -0.4298
  475MOL0     C65469  10.705  10.771  10.456  0.8594 -0.6287 -0.1942
  475MOL0     C65470  10.745  10.732  10.584  0.2462 -0.4307  0.7281
  475MOL0     O65471  10.845  10.793  10.655 -0.3713  0.7928 -0.2757
  475MOL0     C65472  10.882  10.932  10.630  1.2237 -0.4536 -0.2229
  475MOL0     C65473  10.929  11.001  10.759 -0.5510  0.7639  0.0777
  475MOL0     C65474  10.832  10.995  10.870 -0.1496 -0.6334  0.3986
  475MOL0     C65475  10.811  11.138  10.933 -0.2329  0.1023  0.6253
  475MOL0     C65476  10.689  11.131  11.005 -0.3624 -0.1262 -0.5024
  475MOL0     C65477  10.583  11.127  11.068  0.1139 -0.3116 -0.6951
  475MOL0     C65478  10.681  10.627  10.652 -0.2149  0.6367  0.8120
  475MOL0     C65479  10.560  10.568  10.599 -0.2768 -0.5711  0.1787
  475MOL0     C65480  10.486  10.467  10.685 -0.7923 -0.2391 -0.8507
  475MOL0     H65481  10.090  10.720  10.365 -2.5359 -1.7049  0.6457
  475MOL0     H65482   9.898  10.733  10.210 -0.4987  1.2733 -5.8771
  475MOL0     H65483   9.723  10.707  10.016  1.3126  0.4304 -0.2135
  475MOL0     H65484   9.752  10.537  10.085 -0.5485 -2.5495 -0.4352
  475MOL0     H65485   9.693  10.607   9.780 -2.4613  0.9326  0.7401
  475MOL0     H65486   9.727  10.447   9.848 -1.4493 -0.5881 -1.6854
  475MOL0     H65487   9.506  10.641   9.928  0.4622  0.9096 -1.6634
  475MOL0     H65488   9.483  10.527   9.791 -2.8135  0.9749  0.9969
  475MOL0     H65489   9.509  10.333   9.901 -2.4564  0.1457  0.4806
  475MOL0     H65490   9.536  10.408  10.055  1.6559  0.9256 -1.5229
  475MOL0     H65491   9.284  10.467   9.904 -3.1426  2.3230  3.4422
  475MOL0     H65492   9.322  10.495  10.070  0.7897  1.8730 -2.0754
  475MOL0     H65493   9.289  10.215   9.947  0.4778 -0.2686 -0.5544
  475MOL0     H65494   9.347  10.254  10.107 -1.5890  1.3452  0.8099
  475MOL0     H65495   9.090  10.386  10.055  1.0178  0.3637 -0.6025
  475MOL0     H65496   9.128  10.276  10.181 -1.7619  0.0231  0.0533
  475MOL0     H65497   9.088  10.069  10.033 -0.0814 -0.2499  1.6841
  475MOL0     H65498   8.955  10.164  10.077  0.4558 -3.4089 -0.0099
  475MOL0     H65499   9.145  10.113   9.749 -0.1254  0.1123 -1.7150
  475MOL0     H65500   8.919  10.201   9.463 -2.2908  0.1519  2.3508
  475MOL0     H65501   9.068  10.108   9.507  2.7271  0.4344  1.7661
  475MOL0     H65502   9.149  10.302   9.370  1.4858  2.0505  0.0568
  475MOL0     H65503   9.028  10.403   9.448 -0.6714 -0.6134  0.6741
  475MOL0     H65504   9.222  10.493   9.499 -0.5019  0.1021  1.0119
  475MOL0     H65505   9.158  10.426   9.648 -0.0402  2.2214 -0.7493
  475MOL0     H65506   9.406  10.410   9.604  1.2964 -1.9754  0.7834
  475MOL0     H65507   9.318  10.261   9.646  1.3587 -1.6367 -0.3912
  475MOL0     H65508   9.452  10.535   9.414  0.7667  1.9741 -1.1481
  475MOL0     H65509   9.671  10.701   9.194  0.8193 -1.4010 -0.1156
  475MOL0     H65510   9.608  10.702   9.351 -0.2960  1.2114 -0.6587
  475MOL0     H65511   9.494  10.727   9.224  1.8982  1.8508 -0.8745
  475MOL0     H65512   9.679  10.469   8.707  1.0523 -2.0923 -0.0348
  475MOL0     H65513   9.833  10.556   8.519 -2.4057 -3.1338 -0.9108
  475MOL0     H65514  10.236  10.658   8.681 -0.1547  0.8512 -0.6197
  475MOL0     H65515  10.222  10.728   8.514  1.6432 -0.2758  0.2087
  475MOL0     H65516  10.045  10.869   8.577 -1.9645  1.8367  1.0557
  475MOL0     H65517   9.999  10.767   8.720  0.7367  0.9176 -0.0202
  475MOL0     H65518  10.102  10.979   8.783 -0.2232  0.7170 -1.5593
  475MOL0     H65519  10.254  10.915   8.692  0.4860  1.6943  1.0107
  475MOL0     H65520  10.291  10.746   8.847 -0.5639 -0.9320  0.1574
  475MOL0     H65521  10.127  10.757   8.913 -1.0201 -1.2882 -2.5107
  475MOL0     H65522  10.294  11.014   8.915  3.3219  0.0699  1.0133
  475MOL0     H65523  10.185  10.967   9.031  0.0445  0.9025 -0.0153
  475MOL0     H65524  10.468  10.826   8.997  2.9355  1.2257  2.4664
  475MOL0     H65525  10.351  10.806   9.131  1.6840 -1.3469 -0.3451
  475MOL0     H65526  10.371  11.025   9.197 -1.2498 -2.7024  0.5141
  475MOL0     H65527  10.479  11.070   9.052 -2.4619 -0.9750 -1.7430
  475MOL0     H65528  10.518  10.867   9.266 -2.3097  1.9612  1.0311
  475MOL0     H65529  10.593  11.026   9.285  0.0739 -0.0154 -0.3617
  475MOL0     H65530  10.163  10.461   8.772  0.8066  1.8971 -3.8031
  475MOL0     H65531   9.988  10.342   8.930 -0.5705  1.9851  1.4115
  475MOL0     H65532   9.592  10.222   9.062  1.8602  2.1099 -1.7382
  475MOL0     H65533   9.488  10.131   9.254 -2.6373  0.2252  0.0510
  475MOL0     H65534  10.124  10.526   9.912 -1.0717 -2.3634  1.0828
  475MOL0     H65535  10.315  10.529  10.042  3.6503  1.4276  3.9328
  475MOL0     H65536  10.572  10.751  10.302  0.5682  1.3404 -0.1209
  475MOL0     H65537  10.764  10.848  10.405  0.1831 -0.5725 -0.9077
  475MOL0     H65538  10.962  10.938  10.555  1.5102  0.5041  0.1466
  475MOL0     H65539  10.790  10.977  10.593  1.1459 -1.8327 -1.8073
  475MOL0     H65540  10.948  11.104  10.730  0.7589  0.8490  1.1503
  475MOL0     H65541  11.022  10.966  10.804 -1.5307 -2.6877 -0.2838
  475MOL0     H65542  10.739  10.950  10.835  0.9807 -0.2381 -3.6283
  475MOL0     H65543  10.890  10.939  10.944  2.9543  0.2609 -1.1938
  475MOL0     H65544  10.791  11.206  10.849  3.9416  0.6866 -0.1127
  475MOL0     H65545  10.893  11.169  10.998 -0.0936  1.6243 -0.2257
  475MOL0     H65546  10.485  11.135  11.111 -0.0830 -3.4218 -0.3207
  475MOL0     H65547  10.711  10.592  10.751  0.7474 -1.0984 -0.0480
  475MOL0     H65548  10.463  10.379  10.624 -2.3847  0.2604 -1.0040
  475MOL0     H65549  10.552  10.434  10.765  1.3722  1.6584 -1.7221
  475MOL0     H65550  10.391  10.508  10.720  2.1219  6.3257  1.0523
  476MOL0     O65551   4.495   0.654   6.864 -0.1020  0.1339  0.3284
  476MOL0     C65552   4.409   0.606   6.934  0.1513  1.6244 -0.2048
  476MOL0     O65553   4.329   0.494   6.899 -0.1568 -0.7687  0.1129
  476MOL0     C65554   4.355   0.434   6.778  1.1976 -0.3319  0.0473
  476MOL0     C65555   4.465   0.354   6.746  0.2417 -0.1919 -0.6247
  476MOL0     C65556   4.481   0.302   6.616 -0.7384 -0.3750 -0.0497
  476MOL0     C65557   4.394   0.329   6.519  0.2477  0.5933  0.0319
  476MOL0     O65558   4.389   0.259   6.400 -0.0855  0.8006 -0.0628
  476MOL0     C65559   4.403   0.112   6.404  0.4573  0.4310  0.1663
  476MOL0     C65560   4.463   0.074   6.269  0.2860 -0.0344 -0.1832
  476MOL0     C65561   4.610   0.063   6.270  0.1478  0.6296 -0.6461
  476MOL0     C65562   4.655   0.034   6.127  0.0600 -0.2736  0.0513
  476MOL0     C65563   4.800  -0.021   6.123 -0.2435 -0.0271 -0.4504
  476MOL0     C65564   4.909   0.072   6.190 -1.0692 -0.2140  0.1754
  476MOL0     C65565   4.922   0.208   6.126 -0.3235 -0.3572 -0.2158
  476MOL0     C65566   4.986   0.312   6.227  0.3980 -0.2725  0.5660
  476MOL0     N65567   4.900   0.421   6.267  0.2105  0.0922  0.0807
  476MOL0     C65568   4.809   0.419   6.372 -0.4548  0.5588  0.3109
  476MOL0     C65569   4.758   0.546   6.373 -0.6421  0.6132 -0.8538
  476MOL0     C65570   4.651   0.605   6.469 -0.1694  0.3339 -0.4810
  476MOL0     C65571   4.702   0.662   6.604 -0.1677 -0.6002  0.4982
  476MOL0     C65572   4.771   0.562   6.696  0.3335 -0.4985  0.1122
  476MOL0     C65573   4.859   0.627   6.801 -1.1544 -0.2202 -0.4318
  476MOL0     O65574   4.934   0.524   6.862  0.5967 -0.2761  0.3451
  476MOL0     C65575   5.001   0.551   6.976 -1.4126 -0.1278 -0.0955
  476MOL0     C65576   5.046   0.435   7.037 -0.2589 -0.2855 -0.6361
  476MOL0     C65577   5.099   0.431   7.164  0.0108 -0.1113 -0.1261
  476MOL0     C65578   5.133   0.300   7.223 -0.0619 -0.2975  0.4033
  476MOL0     C65579   5.124   0.556   7.224  0.4449 -0.5989  0.2451
  476MOL0     C65580   5.185   0.572   7.362  0.9727  0.7293 -0.3755
  476MOL0     O65581   5.250   0.467   7.420 -0.3875  0.3889 -0.1203
  476MOL0     C65582   5.281   0.473   7.550  0.3154 -0.8113  1.2830
  476MOL0     C65583   5.197   0.505   7.651 -0.0425 -0.2074  1.6638
  476MOL0     C65584   5.246   0.520   7.788 -0.1996  0.4511 -0.1595
  476MOL0     C65585   5.384   0.489   7.815 -0.2812 -0.2730  0.7897
  476MOL0     O65586   5.434   0.510   7.943  0.7216 -0.1175  0.1697
  476MOL0     C65587   5.573   0.529   7.980  0.4112  0.1687  0.2387
  476MOL0     C65588   5.576   0.587   8.120  0.1802 -0.5753 -0.3534
  476MOL0     C65589   5.513   0.719   8.153  1.2347 -1.6079  1.2205
  476MOL0     C65590   5.548   0.774   8.292 -0.9369 -0.0913  0.1291
  476MOL0     C65591   5.446   0.730   8.399  0.5728  0.6000 -0.9982
  476MOL0     C65592   5.471   0.805   8.539 -0.4162 -0.2304  0.0154
  476MOL0     C65593   5.355   0.768   8.630  0.1616 -0.4118 -0.5922
  476MOL0     C65594   5.381   0.634   8.691 -0.3869  0.3469 -0.3461
  476MOL0    Cl65595   5.266   0.597   8.822 -0.2928 -0.1001 -0.0824
  476MOL0     C65596   5.468   0.449   7.712  0.9154  0.9677  0.9310
  476MOL0     C65597   5.416   0.453   7.576 -0.8381 -0.6206  0.0087
  476MOL0     O65598   5.167   0.680   7.419 -0.6866 -0.6348  0.4798
  476MOL0     C65599   5.084   0.675   7.161 -1.2503  1.5419  0.2581
  476MOL0     C65600   5.015   0.672   7.041  0.4284 -0.2505  0.0594
  476MOL0     N65601   4.807   0.615   6.264 -0.5989  0.3408 -0.1102
  476MOL0     N65602   4.896   0.546   6.204  0.3349  0.2330 -0.2599
  476MOL0     C65603   4.294   0.418   6.552 -0.0088  0.8499  0.1719
  476MOL0     C65604   4.270   0.464   6.680  0.2871 -0.7409  1.1001
  476MOL0     C65605   4.381   0.682   7.056 -0.5291 -0.1238 -0.3197
  476MOL0     C65606   4.248   0.715   7.085  0.0870  0.4889 -0.1256
  476MOL0     C65607   4.223   0.793   7.200  0.9572  0.5562 -0.5412
  476MOL0     C65608   4.322   0.835   7.294  1.0724  0.6007 -0.2686
  476MOL0     O65609   4.283   0.892   7.412  0.5781 -0.0938  0.1781
  476MOL0     C65610   4.230   1.025   7.389  0.3055 -0.4444  0.1048
  476MOL0     C65611   4.319   1.129   7.459 -0.5448 -0.4026 -0.2320
  476MOL0     C65612   4.309   1.129   7.615 -0.8724 -0.3693  0.3817
  476MOL0     C65613   4.424   1.215   7.669  0.1693  0.0414  0.4496
  476MOL0     C65614   4.556   1.154   7.647  0.1683  1.0041  0.3851
  476MOL0     C65615   4.660   1.095   7.631  0.0562 -0.6049  0.5728
  476MOL0     C65616   4.448   0.796   7.267 -0.5426  0.1634  0.3255
  476MOL0     C65617   4.477   0.720   7.153 -0.6143 -0.0014  1.3892
  476MOL0     C65618   4.630   0.699   7.133 -0.3858  0.6037  0.3976
  476MOL0     H65619   4.536   0.320   6.822  2.8077  2.3364 -1.6861
  476MOL0     H65620   4.566   0.239   6.592 -0.2600 -0.1328  0.9345
  476MOL0     H65621   4.301   0.077   6.424  1.1115  0.2224  4.0509
  476MOL0     H65622   4.462   0.079   6.490  1.3612  1.2521 -0.1272
  476MOL0     H65623   4.426  -0.024   6.241  2.6619 -0.3917 -2.4845
  476MOL0     H65624   4.439   0.144   6.188 -1.1109  0.1326  0.3562
  476MOL0     H65625   4.653   0.156   6.309  0.7335 -0.3629  1.1844
  476MOL0     H65626   4.641  -0.013   6.342 -0.8263  1.0629  0.2420
  476MOL0     H65627   4.588  -0.037   6.077  1.2620 -1.5831  0.2315
  476MOL0     H65628   4.651   0.123   6.063  1.1490 -0.8803 -0.9134
  476MOL0     H65629   4.830  -0.039   6.019 -1.2075 -0.5559 -0.6528
  476MOL0     H65630   4.797  -0.123   6.162 -1.1189 -0.2579 -1.0766
  476MOL0     H65631   4.867   0.079   6.291 -0.6517 -0.9692  0.4132
  476MOL0     H65632   5.008   0.027   6.190 -0.1886  1.6196  0.6264
  476MOL0     H65633   4.832   0.242   6.076 -1.2132 -0.5397  1.2063
  476MOL0     H65634   4.994   0.198   6.044 -0.1491 -1.4677  0.0537
  476MOL0     H65635   5.019   0.264   6.319  2.4358 -2.3017 -1.1082
  476MOL0     H65636   5.074   0.364   6.186  0.9401 -1.7407 -0.1874
  476MOL0     H65637   4.797   0.336   6.440  0.2856 -0.8021 -1.1643
  476MOL0     H65638   4.592   0.517   6.497  0.1073  0.4530  0.5158
  476MOL0     H65639   4.586   0.677   6.419  1.4060  0.2061 -2.8691
  476MOL0     H65640   4.767   0.746   6.575 -2.1268  0.2917 -1.6870
  476MOL0     H65641   4.614   0.710   6.649 -0.6946 -0.7622 -0.3312
  476MOL0     H65642   4.691   0.510   6.750 -2.0984  1.1258 -1.7243
  476MOL0     H65643   4.839   0.495   6.644  0.6779 -0.4058  0.4371
  476MOL0     H65644   4.939   0.687   6.758 -0.4069  0.0781  1.2796
  476MOL0     H65645   4.803   0.690   6.871 -1.4487  2.0032 -2.5484
  476MOL0     H65646   5.045   0.347   6.972  1.6507 -0.2630 -0.7366
  476MOL0     H65647   5.079   0.229   7.159 -0.0891  1.4591 -1.6528
  476MOL0     H65648   5.106   0.291   7.328  2.5445 -1.6967  1.0549
  476MOL0     H65649   5.241   0.292   7.205  0.3274  4.0202 -0.2259
  476MOL0     H65650   5.090   0.518   7.636 -0.2266 -0.7466  2.4617
  476MOL0     H65651   5.184   0.556   7.870  0.7930 -0.8735  1.2285
  476MOL0     H65652   5.602   0.424   7.983 -2.4116 -0.7071  0.1523
  476MOL0     H65653   5.627   0.587   7.904 -3.0211  3.4394 -0.0478
  476MOL0     H65654   5.563   0.509   8.195  4.0645 -1.3880 -0.2986
  476MOL0     H65655   5.682   0.607   8.141  0.0252  0.2497 -0.3002
  476MOL0     H65656   5.405   0.711   8.137  0.4357  4.9074  0.5213
  476MOL0     H65657   5.548   0.786   8.074  1.1336 -1.1466  1.5622
  476MOL0     H65658   5.550   0.884   8.291 -1.5535 -0.0719  0.4093
  476MOL0     H65659   5.649   0.743   8.320 -0.2482  2.4722  0.7864
  476MOL0     H65660   5.346   0.752   8.363 -0.7352 -0.8498  1.4721
  476MOL0     H65661   5.457   0.622   8.407  1.4939  0.6802 -1.0422
  476MOL0     H65662   5.480   0.912   8.521  0.6495 -0.1256  1.0454
  476MOL0     H65663   5.567   0.772   8.579 -0.0833 -0.1654 -0.7182
  476MOL0     H65664   5.258   0.784   8.582  0.7751  0.5234 -1.5541
  476MOL0     H65665   5.352   0.836   8.717 -0.6569 -2.9739  1.5130
  476MOL0     H65666   5.480   0.614   8.733 -0.9411  1.6318  1.7097
  476MOL0     H65667   5.369   0.555   8.616 -0.3256 -1.8833  1.8415
  476MOL0     H65668   5.568   0.410   7.732 -0.2098 -2.2959  0.7297
  476MOL0     H65669   5.475   0.431   7.488 -0.5589  3.4041 -1.0325
  476MOL0     H65670   5.078   0.768   7.217 -3.2313 -0.0318  2.9152
  476MOL0     H65671   4.974   0.766   7.004  1.4962  0.5011  0.7262
  476MOL0     H65672   4.230   0.442   6.468 -0.6381  2.6215  1.1125
  476MOL0     H65673   4.186   0.527   6.708  0.9437  1.0853 -0.8250
  476MOL0     H65674   4.164   0.681   7.025 -1.6574  0.9324  1.9141
  476MOL0     H65675   4.122   0.820   7.228 -0.3280 -0.7517 -3.4756
  476MOL0     H65676   4.245   1.050   7.284  0.1714  3.7455  0.9147
  476MOL0     H65677   4.123   1.029   7.410  0.4030  0.0382  0.5365
  476MOL0     H65678   4.288   1.225   7.417 -2.2431 -1.3146 -1.1613
  476MOL0     H65679   4.419   1.107   7.419 -0.2336  1.6686 -0.7120
  476MOL0     H65680   4.215   1.176   7.645 -0.1664  0.3973  1.4198
  476MOL0     H65681   4.306   1.032   7.665 -0.2393 -0.6721 -0.1517
  476MOL0     H65682   4.407   1.231   7.776  2.0074 -2.4987  1.2389
  476MOL0     H65683   4.418   1.313   7.621 -1.3358  1.1088  2.6603
  476MOL0     H65684   4.750   1.039   7.612  0.2885  0.2822 -1.1078
  476MOL0     H65685   4.531   0.822   7.333 -0.3931  2.8431 -0.8326
  476MOL0     H65686   4.691   0.746   7.211 -1.2574 -1.2034  2.2787
  476MOL0     H65687   4.655   0.593   7.130  0.3960  0.7585  0.8986
  476MOL0     H65688   4.676   0.741   7.044  1.2013 -1.7589  0.0131
  477MOL0     O65689   0.831   1.476   2.730  0.3771  0.4552  0.3377
  477MOL0     C65690   0.748   1.465   2.644  0.1005  0.2189  0.0398
  477MOL0     O65691   0.766   1.495   2.509 -0.3410 -0.0572  0.2978
  477MOL0     C65692   0.886   1.471   2.453 -0.4421  1.0483  0.2118
  477MOL0     C65693   0.899   1.375   2.359 -0.8229 -0.5635  0.4399
  477MOL0     C65694   1.024   1.345   2.300  0.0727  0.2539 -1.0601
  477MOL0     C65695   1.137   1.435   2.338 -0.0634  0.8625  0.7437
  477MOL0     O65696   1.265   1.409   2.279 -0.4338 -0.0406  0.2531
  477MOL0     C65697   1.304   1.275   2.248  0.4077 -0.0633  0.6854
  477MOL0     C65698   1.455   1.244   2.249  0.0269 -0.6816  0.2809
  477MOL0     C65699   1.531   1.314   2.364  0.7414 -0.0079  0.9930
  477MOL0     C65700   1.511   1.247   2.497 -0.3129  0.7794  0.1182
  477MOL0     C65701   1.593   1.316   2.615 -0.0646  0.1227  0.9847
  477MOL0     C65702   1.523   1.448   2.650  0.1273 -0.5976 -0.3284
  477MOL0     C65703   1.580   1.520   2.769  0.6926 -0.1945 -0.2137
  477MOL0     C65704   1.544   1.454   2.905 -0.5166 -0.3081 -0.1093
  477MOL0     N65705   1.405   1.412   2.931  0.5991  0.8143 -0.5396
  477MOL0     C65706   1.354   1.288   2.906 -0.3127 -0.0830 -1.0704
  477MOL0     C65707   1.220   1.291   2.922 -0.5931  0.7982 -0.2869
  477MOL0     C65708   1.111   1.179   2.907 -0.5502 -0.2009 -0.1407
  477MOL0     C65709   1.087   1.088   3.022  0.1671  0.1252 -0.4058
  477MOL0     C65710   1.040   1.156   3.148  0.7923 -0.5152 -0.3185
  477MOL0     C65711   0.971   1.047   3.250 -0.6583 -0.2395 -0.1311
  477MOL0     O65712   0.871   0.962   3.180 -0.9409 -0.2813 -0.0707
  477MOL0     C65713   0.742   0.991   3.178 -0.0346 -0.5325  0.0606
  477MOL0     C65714   0.686   1.117   3.223  0.2301 -0.7463  0.0685
  477MOL0     C65715   0.550   1.145   3.224 -0.0171  0.5935 -0.1150
  477MOL0     C65716   0.504   1.275   3.285  0.4383 -0.5855  0.2998
  477MOL0     C65717   0.463   1.055   3.166 -0.1256 -0.5828 -0.2283
  477MOL0     C65718   0.315   1.067   3.145  0.8125  0.2240  0.2927
  477MOL0     O65719   0.235   0.955   3.128  0.3056  0.0381  0.2372
  477MOL0     C65720   0.109   0.975   3.080 -0.5334 -0.2982  0.9958
  477MOL0     C65721   0.094   1.003   2.941 -0.3142 -0.3235 -0.4698
  477MOL0     C65722  -0.042   1.034   2.904 -0.5136  0.6277 -0.1175
  477MOL0     C65723  -0.141   1.058   3.001  0.4908 -0.0702  0.4438
  477MOL0     O65724  -0.270   1.102   2.968 -0.1741  0.4722 -0.6246
  477MOL0     C65725  -0.305   1.142   2.829 -1.0538  0.6569 -0.7254
  477MOL0     C65726  -0.440   1.214   2.831 -0.1219  0.5712 -0.4044
  477MOL0     C65727  -0.451   1.283   2.702  0.3539  0.3280 -0.4797
  477MOL0     C65728  -0.591   1.351   2.680  0.5576 -0.6468 -0.7594
  477MOL0     C65729  -0.580   1.434   2.548  0.6887  0.6242 -0.0099
  477MOL0     C65730  -0.716   1.483   2.518 -0.1049 -0.6105 -0.4398
  477MOL0     C65731  -0.721   1.535   2.372  0.7999  0.2217  0.2528
  477MOL0     C65732  -0.642   1.668   2.351  0.0215 -0.4573  0.6789
  477MOL0    Cl65733  -0.751   1.807   2.388 -0.5273 -0.6120 -0.4861
  477MOL0     C65734  -0.114   1.047   3.133  0.8470  1.1772 -0.4770
  477MOL0     C65735   0.006   0.986   3.169  0.1069  0.4527  0.3450
  477MOL0     O65736   0.270   1.179   3.126 -0.0392 -0.4798  0.9634
  477MOL0     C65737   0.512   0.930   3.118 -0.2747  0.4191  0.1796
  477MOL0     C65738   0.656   0.900   3.120 -0.5007  0.0512 -0.1407
  477MOL0     N65739   1.189   1.416   2.979 -0.6421  0.1156  0.5589
  477MOL0     N65740   1.302   1.485   2.975  0.5201  0.0173  0.7271
  477MOL0     C65741   1.115   1.535   2.426 -1.5216 -0.4902  0.4740
  477MOL0     C65742   0.992   1.552   2.488  0.4284  0.5857  0.4919
  477MOL0     C65743   0.606   1.458   2.688 -0.3727  1.2459 -0.2617
  477MOL0     C65744   0.517   1.537   2.613  0.4173 -0.5630 -0.2641
  477MOL0     C65745   0.389   1.557   2.663 -0.0078  0.3084 -0.1316
  477MOL0     C65746   0.348   1.512   2.785 -0.0107  0.5690 -0.0664
  477MOL0     O65747   0.219   1.552   2.832 -0.4137 -0.0707 -0.1373
  477MOL0     C65748   0.171   1.466   2.936  0.1309  0.0009 -0.5858
  477MOL0     C65749   0.022   1.481   2.921  0.4874 -0.6084  0.2158
  477MOL0     C65750  -0.034   1.618   2.960 -0.7300 -0.1263  0.5483
  477MOL0     C65751  -0.122   1.608   3.083 -0.3891  0.0983  0.8657
  477MOL0     C65752  -0.208   1.720   3.097  0.6703 -0.6694 -0.1815
  477MOL0     C65753  -0.293   1.807   3.102 -0.5193 -0.3058 -0.8375
  477MOL0     C65754   0.435   1.426   2.854 -0.2283 -0.8316  0.0850
  477MOL0     C65755   0.562   1.393   2.809  0.2086  0.4090  0.1528
  477MOL0     C65756   0.635   1.291   2.888  0.1306  0.5203 -1.3306
  477MOL0     H65757   0.813   1.317   2.328 -1.8530  0.6222  1.0004
  477MOL0     H65758   1.041   1.275   2.219  0.2202  0.8765 -1.5675
  477MOL0     H65759   1.260   1.259   2.149 -0.1888 -0.7305  1.0442
  477MOL0     H65760   1.255   1.205   2.317  1.5084 -1.6383 -0.0618
  477MOL0     H65761   1.465   1.136   2.254 -0.1899 -0.7314 -0.3151
  477MOL0     H65762   1.502   1.287   2.160  0.6663 -1.2724  0.3279
  477MOL0     H65763   1.638   1.327   2.341  0.7940  1.5541  1.9416
  477MOL0     H65764   1.488   1.414   2.375  0.4118  0.0631 -0.6641
  477MOL0     H65765   1.404   1.240   2.518 -0.3052 -0.6852 -0.2364
  477MOL0     H65766   1.539   1.142   2.489  4.2656  1.7166  0.9946
  477MOL0     H65767   1.699   1.332   2.595  0.0444  0.0227  1.4679
  477MOL0     H65768   1.581   1.258   2.707 -0.8077  0.2697  0.9890
  477MOL0     H65769   1.527   1.512   2.561 -3.4467 -0.0757 -0.2731
  477MOL0     H65770   1.416   1.435   2.668 -0.1427  2.1559  0.6464
  477MOL0     H65771   1.537   1.620   2.778  3.7862  1.0736  2.9292
  477MOL0     H65772   1.689   1.525   2.776  0.6218 -0.0694  0.9955
  477MOL0     H65773   1.597   1.359   2.920 -1.5544 -1.3587 -2.5843
  477MOL0     H65774   1.572   1.521   2.987 -0.9738  0.9463 -0.9551
  477MOL0     H65775   1.425   1.216   2.869  3.5022  4.4454 -3.7438
  477MOL0     H65776   1.145   1.114   2.826 -1.8997  0.8225 -1.5991
  477MOL0     H65777   1.015   1.219   2.872 -0.2181 -1.1341 -2.2725
  477MOL0     H65778   1.014   1.014   2.987 -0.1177 -0.2668  0.9643
  477MOL0     H65779   1.172   1.023   3.044 -0.3896 -0.2561  0.6792
  477MOL0     H65780   1.128   1.193   3.200 -0.8093  0.7853  1.6510
  477MOL0     H65781   0.983   1.245   3.117  0.2680 -0.9866 -0.7273
  477MOL0     H65782   1.047   0.984   3.296  0.3219  1.1094  0.1358
  477MOL0     H65783   0.929   1.103   3.334 -3.3504 -0.5800 -1.1410
  477MOL0     H65784   0.748   1.192   3.270 -0.0314 -1.8601  2.3532
  477MOL0     H65785   0.426   1.264   3.361  0.8298 -0.3113  0.7420
  477MOL0     H65786   0.456   1.335   3.207  2.0255  2.9457  1.8548
  477MOL0     H65787   0.576   1.341   3.333  1.3598 -0.2892 -1.4187
  477MOL0     H65788   0.175   0.997   2.870 -0.2325 -0.8993 -0.3310
  477MOL0     H65789  -0.068   1.044   2.799 -0.3330 -3.9930 -0.8145
  477MOL0     H65790  -0.220   1.199   2.789  2.4631 -2.7106  1.2569
  477MOL0     H65791  -0.306   1.051   2.768  0.6779 -0.2192  0.4644
  477MOL0     H65792  -0.525   1.147   2.846 -0.2546  0.4207 -1.6629
  477MOL0     H65793  -0.446   1.281   2.917 -0.7519  1.1965 -0.9137
  477MOL0     H65794  -0.446   1.215   2.616  0.0082  1.0094 -1.0536
  477MOL0     H65795  -0.370   1.355   2.685  1.1572 -0.9904 -2.6189
  477MOL0     H65796  -0.620   1.419   2.760 -1.8387 -0.3302 -1.8220
  477MOL0     H65797  -0.661   1.269   2.667  0.9982 -1.2698  0.6163
  477MOL0     H65798  -0.504   1.513   2.552  1.2680  0.2023 -1.7581
  477MOL0     H65799  -0.546   1.375   2.463  0.2590  1.2314 -0.6182
  477MOL0     H65800  -0.736   1.571   2.579  0.1686  1.2388 -2.8740
  477MOL0     H65801  -0.782   1.398   2.537  0.4775 -0.2350  4.9900
  477MOL0     H65802  -0.822   1.554   2.336  1.0372  1.0009 -0.0153
  477MOL0     H65803  -0.685   1.453   2.310  2.0074  1.8546 -1.3122
  477MOL0     H65804  -0.614   1.676   2.245  0.7458  1.2408  0.9554
  477MOL0     H65805  -0.551   1.686   2.409  0.4503  3.0643 -0.7879
  477MOL0     H65806  -0.193   1.061   3.206 -0.6331 -0.4237 -1.6977
  477MOL0     H65807   0.019   0.959   3.274 -3.8141 -1.7740  0.4822
  477MOL0     H65808   0.442   0.852   3.090  0.3993  0.4790 -1.8610
  477MOL0     H65809   0.694   0.801   3.098  0.5218  0.4468 -0.2538
  477MOL0     H65810   1.193   1.599   2.466 -0.0267 -0.9485 -1.5488
  477MOL0     H65811   0.978   1.633   2.559  0.0236  0.0531  1.0206
  477MOL0     H65812   0.533   1.587   2.518  0.7846 -2.4593 -1.2608
  477MOL0     H65813   0.315   1.610   2.604  0.9535  2.4891  0.5429
  477MOL0     H65814   0.178   1.357   2.927  0.3344  0.0452 -0.9770
  477MOL0     H65815   0.188   1.513   3.033 -1.9016  0.5869 -0.4754
  477MOL0     H65816  -0.030   1.408   2.983 -1.8776  2.0449  1.5596
  477MOL0     H65817  -0.008   1.460   2.817 -0.9148  0.0904  0.4628
  477MOL0     H65818   0.055   1.678   2.981 -0.2590 -0.0887 -1.4102
  477MOL0     H65819  -0.090   1.663   2.877  2.2954  2.6591 -0.2135
  477MOL0     H65820  -0.056   1.605   3.170 -0.3329  0.0606  0.8213
  477MOL0     H65821  -0.193   1.527   3.068 -1.7534  1.3820  0.1027
  477MOL0     H65822  -0.362   1.888   3.095 -0.9746 -0.5419  0.5660
  477MOL0     H65823   0.404   1.369   2.941  0.4898 -0.5611  0.5277
  477MOL0     H65824   0.620   1.194   2.840  1.6674  0.5233 -1.8654
  477MOL0     H65825   0.741   1.311   2.909  0.1673 -0.7738 -0.1835
  477MOL0     H65826   0.603   1.284   2.992  1.6820 -0.6440 -0.8885
  478MOL0     O65827  11.432   7.323   6.103 -0.3675 -0.3235 -0.7941
  478MOL0     C65828  11.332   7.365   6.155  0.2661  0.3625  0.2251
  478MOL0     O65829  11.199   7.333   6.119  0.1733 -0.5060 -0.0353
  478MOL0     C65830  11.101   7.392   6.192  0.7457  0.2505 -0.1415
  478MOL0     C65831  11.006   7.298   6.238  0.1188 -0.4001 -0.0527
  478MOL0     C65832  10.900   7.331   6.312  0.2418 -0.2522 -0.2736
  478MOL0     C65833  10.861   7.466   6.329 -0.5703  0.9969 -0.0633
  478MOL0     O65834  10.752   7.503   6.398 -1.0394  0.1954 -0.0059
  478MOL0     C65835  10.620   7.476   6.332 -0.0682  0.2894  0.1441
  478MOL0     C65836  10.558   7.615   6.296  0.4397 -1.1637 -0.6162
  478MOL0     C65837  10.422   7.619   6.218 -0.3225  0.1119 -0.0884
  478MOL0     C65838  10.412   7.746   6.136 -0.2394  0.1011  0.3107
  478MOL0     C65839  10.267   7.761   6.077 -0.1736 -0.3201 -1.0636
  478MOL0     C65840  10.241   7.898   6.015  0.0953 -0.6457  0.2211
  478MOL0     C65841  10.094   7.929   5.992  0.2511  0.3956 -0.8997
  478MOL0     C65842  10.061   8.084   5.979 -1.0790  1.4477 -0.6777
  478MOL0     N65843  10.078   8.154   6.108  0.0903  0.5035 -0.0019
  478MOL0     C65844   9.994   8.156   6.207 -0.8045  0.6441  0.4635
  478MOL0     C65845  10.059   8.222   6.310 -0.1016 -0.1086  0.8536
  478MOL0     C65846  10.002   8.237   6.443  0.8918  0.1611 -0.2471
  478MOL0     C65847  10.086   8.334   6.527  0.1695  0.2068  0.8619
  478MOL0     C65848  10.046   8.348   6.674  0.4489  0.3084  0.4647
  478MOL0     C65849  10.155   8.428   6.741 -0.0471 -0.3230  0.7672
  478MOL0     O65850  10.113   8.487   6.865 -0.5493 -0.3447  0.0184
  478MOL0     C65851  10.027   8.591   6.868  0.4829 -0.2937  0.7511
  478MOL0     C65852   9.985   8.674   6.763 -0.0967  0.9252  0.1333
  478MOL0     C65853   9.901   8.782   6.784 -0.2877 -0.3328  0.3561
  478MOL0     C65854   9.861   8.860   6.661  0.1778  0.0699  0.6690
  478MOL0     C65855   9.863   8.815   6.917 -0.5228  0.1227  0.5952
  478MOL0     C65856   9.774   8.933   6.948  0.6077  0.1105 -0.2295
  478MOL0     O65857   9.765   8.957   7.084  0.1513  0.1365 -0.0548
  478MOL0     C65858   9.663   9.033   7.138  0.2603 -0.2435 -0.4530
  478MOL0     C65859   9.685   9.172   7.167 -0.9887  1.2766 -0.4087
  478MOL0     C65860   9.572   9.243   7.227  0.1885 -0.1766 -0.3948
  478MOL0     C65861   9.447   9.175   7.261  0.6971 -0.0102  0.7338
  478MOL0     O65862   9.346   9.249   7.315 -0.6766 -0.7136 -0.1785
  478MOL0     C65863   9.275   9.214   7.434  0.3747 -0.4313 -0.3707
  478MOL0     C65864   9.201   9.338   7.480 -0.6210  0.1300  0.0077
  478MOL0     C65865   9.132   9.302   7.612  0.0391 -0.0049  0.2188
  478MOL0     C65866   9.046   9.421   7.654 -0.2949 -0.4000  0.3026
  478MOL0     C65867   8.965   9.396   7.776  0.5261  0.4719 -0.6217
  478MOL0     C65868   8.879   9.512   7.824 -0.1112  0.6811  0.6543
  478MOL0     C65869   8.768   9.470   7.923  0.4717  0.5973 -0.1445
  478MOL0     C65870   8.720   9.571   8.022 -0.5372  0.0591 -1.2363
  478MOL0    Cl65871   8.858   9.594   8.143  0.3602  0.2849 -0.6152
  478MOL0     C65872   9.443   9.042   7.246  0.4913  0.7175 -0.2160
  478MOL0     C65873   9.547   8.977   7.188 -0.6909  0.2455  0.5040
  478MOL0     O65874   9.716   8.997   6.862 -0.7897 -0.4016  0.1407
  478MOL0     C65875   9.902   8.719   7.022 -0.6284  0.1556  0.6712
  478MOL0     C65876   9.981   8.620   6.997 -0.8600 -0.1659 -0.3795
  478MOL0     N65877  10.183   8.266   6.273  0.2343  0.6778  0.3630
  478MOL0     N65878  10.193   8.224   6.148  0.4450  0.0308  0.4268
  478MOL0     C65879  10.956   7.559   6.292 -0.8063 -0.7133  0.0957
  478MOL0     C65880  11.070   7.526   6.216  0.5876  0.2657  0.1614
  478MOL0     C65881  11.364   7.479   6.252  0.2607 -0.3502  0.5499
  478MOL0     C65882  11.350   7.460   6.386 -0.2345 -0.0097 -0.2528
  478MOL0     C65883  11.357   7.554   6.477 -0.9446  0.6098 -0.3333
  478MOL0     C65884  11.390   7.687   6.439  0.3770  0.1267 -0.7079
  478MOL0     O65885  11.403   7.789   6.527 -0.4990 -0.4020  0.2164
  478MOL0     C65886  11.367   7.769   6.658 -0.2654 -0.3030  0.4578
  478MOL0     C65887  11.340   7.907   6.708  0.4933  0.0734 -0.5194
  478MOL0     C65888  11.475   7.983   6.745  0.6934  0.1518  0.3996
  478MOL0     C65889  11.445   8.128   6.745  1.2776  0.2441  0.2149
  478MOL0     C65890  11.359   8.153   6.861  0.0340  0.2335  0.9000
  478MOL0     C65891  11.285   8.179   6.952 -1.3140  0.0297 -0.3570
  478MOL0     C65892  11.409   7.711   6.309  0.1550  0.4196 -0.0906
  478MOL0     C65893  11.396   7.608   6.212 -0.9425  0.9273  0.5080
  478MOL0     C65894  11.407   7.653   6.070  0.1669 -0.6391  0.3313
  478MOL0     H65895  11.022   7.192   6.216 -1.2354 -0.9032  1.2232
  478MOL0     H65896  10.846   7.255   6.367 -0.3515 -1.8126 -2.8533
  478MOL0     H65897  10.556   7.420   6.401  0.4600 -1.1925 -0.5295
  478MOL0     H65898  10.631   7.417   6.241  2.3108 -0.5098  0.8730
  478MOL0     H65899  10.551   7.668   6.392 -1.1254 -0.0358 -1.3187
  478MOL0     H65900  10.629   7.669   6.233 -1.2517  3.8547  1.2941
  478MOL0     H65901  10.423   7.529   6.156  0.2349 -0.3133  0.5137
  478MOL0     H65902  10.339   7.600   6.286  0.3180 -2.3692  0.1330
  478MOL0     H65903  10.434   7.834   6.197 -1.9612  2.4584 -2.1883
  478MOL0     H65904  10.483   7.744   6.053  1.2794  1.4922  1.5299
  478MOL0     H65905  10.200   7.757   6.163  0.9493  2.4746  0.0833
  478MOL0     H65906  10.243   7.683   6.004  0.6290 -1.8371  0.2417
  478MOL0     H65907  10.285   7.971   6.083 -1.0463  1.4479 -1.2106
  478MOL0     H65908  10.289   7.897   5.917 -0.4925  0.0890 -0.0774
  478MOL0     H65909  10.028   7.881   6.065  1.2619  1.1646  0.5904
  478MOL0     H65910  10.068   7.880   5.898 -1.5739 -1.0888  0.3071
  478MOL0     H65911  10.129   8.103   5.895 -1.8308 -2.0636 -2.2569
  478MOL0     H65912   9.959   8.098   5.942 -0.4619  2.6038 -2.0720
  478MOL0     H65913   9.891   8.121   6.203 -0.7049  0.4853 -1.1100
  478MOL0     H65914   9.981   8.141   6.490  2.0518 -0.4824 -1.0004
  478MOL0     H65915   9.910   8.295   6.427  0.6001  0.0070  0.8205
  478MOL0     H65916  10.189   8.298   6.529  0.3975  0.8324  0.6303
  478MOL0     H65917  10.083   8.434   6.483  1.7736  0.4422  1.2535
  478MOL0     H65918   9.942   8.381   6.688  0.1990  0.7773 -1.9945
  478MOL0     H65919  10.048   8.250   6.724 -0.9984  1.6311  3.3535
  478MOL0     H65920  10.252   8.377   6.750  1.0280  1.7211  1.2846
  478MOL0     H65921  10.173   8.507   6.668  0.2066 -0.0781  1.0957
  478MOL0     H65922  10.013   8.664   6.659  0.0348  3.7816 -0.1820
  478MOL0     H65923   9.755   8.851   6.635 -0.0772 -0.3713  1.8358
  478MOL0     H65924   9.923   8.834   6.575 -1.9499 -0.8158 -0.6965
  478MOL0     H65925   9.879   8.967   6.679  2.9266  0.2822 -2.3864
  478MOL0     H65926   9.784   9.214   7.149  0.2534 -2.0430 -2.2601
  478MOL0     H65927   9.578   9.351   7.240 -2.0534 -0.3163  3.0871
  478MOL0     H65928   9.204   9.140   7.397  3.0285 -1.6562 -3.4599
  478MOL0     H65929   9.344   9.167   7.505 -3.4951 -4.6197  1.0757
  478MOL0     H65930   9.268   9.424   7.483 -0.3582  0.0145 -1.7685
  478MOL0     H65931   9.131   9.360   7.399 -1.2702  0.3506  0.6185
  478MOL0     H65932   9.208   9.273   7.686  0.7835 -0.9238 -0.8695
  478MOL0     H65933   9.067   9.220   7.581  1.2913 -0.2645 -1.9574
  478MOL0     H65934   8.986   9.456   7.569 -1.0932 -2.8618 -0.2087
  478MOL0     H65935   9.112   9.502   7.688  2.2192 -1.3702 -1.9248
  478MOL0     H65936   8.890   9.319   7.756 -0.4351  0.3693  2.6989
  478MOL0     H65937   9.025   9.347   7.854 -0.5747 -2.5730 -1.5245
  478MOL0     H65938   8.834   9.545   7.729  2.8234  1.1551 -0.6750
  478MOL0     H65939   8.937   9.598   7.859 -0.6468  0.7154  1.4944
  478MOL0     H65940   8.800   9.384   7.983  1.7646  0.0797 -1.5164
  478MOL0     H65941   8.687   9.425   7.864  1.4467  0.1553 -1.1824
  478MOL0     H65942   8.632   9.544   8.080 -0.8466  1.0198 -1.2418
  478MOL0     H65943   8.687   9.660   7.968 -1.5324  0.0369 -0.6857
  478MOL0     H65944   9.355   8.984   7.275  1.0138 -1.1805 -2.0960
  478MOL0     H65945   9.529   8.870   7.183  1.7591 -0.2342  0.8344
  478MOL0     H65946   9.875   8.738   7.126  0.0216  1.1834  0.6659
  478MOL0     H65947  10.028   8.575   7.084 -2.2091  2.8315  2.0594
  478MOL0     H65948  10.937   7.663   6.319 -2.6895 -0.9881 -0.0800
  478MOL0     H65949  11.126   7.612   6.181 -1.7427  2.7054  1.9411
  478MOL0     H65950  11.329   7.361   6.425  2.6502 -0.6695 -0.1785
  478MOL0     H65951  11.347   7.530   6.583 -0.3439  0.8419 -0.2166
  478MOL0     H65952  11.284   7.700   6.672 -0.7503  0.0923 -0.3975
  478MOL0     H65953  11.455   7.728   6.709 -0.3309 -2.6014 -1.1007
  478MOL0     H65954  11.284   7.901   6.802 -1.3136  0.7235 -1.4948
  478MOL0     H65955  11.282   7.973   6.642  1.0408  0.3241 -0.7589
  478MOL0     H65956  11.530   7.954   6.835 -0.0092  1.6038  1.3171
  478MOL0     H65957  11.544   7.948   6.666 -0.4779 -0.8377 -0.2235
  478MOL0     H65958  11.385   8.155   6.658 -0.3332  1.6856  1.6931
  478MOL0     H65959  11.538   8.186   6.744  1.3606  0.2789  2.5718
  478MOL0     H65960  11.234   8.199   7.044 -2.8453 -0.5316 -1.0402
  478MOL0     H65961  11.418   7.816   6.286 -0.9601  0.5690  0.0618
  478MOL0     H65962  11.396   7.761   6.076 -3.1536 -0.4464 -4.2146
  478MOL0     H65963  11.492   7.625   6.007 -0.2336  0.0516 -0.5307
  478MOL0     H65964  11.325   7.614   6.009 -0.6925 -1.5408  1.9847
  479MOL0     O65965   3.547   7.398   9.007  0.1652  0.1525 -0.5485
  479MOL0     C65966   3.518   7.278   9.022  0.3809 -0.1858 -0.0233
  479MOL0     O65967   3.513   7.226   9.147 -0.3460 -0.2052 -1.1730
  479MOL0     C65968   3.537   7.309   9.256  0.2753 -0.0098 -0.1061
  479MOL0     C65969   3.651   7.383   9.265  0.0762 -0.3131  0.8019
  479MOL0     C65970   3.669   7.463   9.381  0.0242  0.1582 -0.8373
  479MOL0     C65971   3.579   7.456   9.491 -0.0412 -1.1398  1.0368
  479MOL0     O65972   3.601   7.530   9.601  0.8904  0.2193 -0.6856
  479MOL0     C65973   3.727   7.566   9.652 -0.0982 -0.5077  0.6433
  479MOL0     C65974   3.800   7.444   9.718  0.0200 -0.0481  0.3401
  479MOL0     C65975   3.941   7.469   9.753  0.2373 -0.3335 -0.3688
  479MOL0     C65976   3.959   7.504   9.904  0.0388 -0.2907 -1.3464
  479MOL0     C65977   3.956   7.385  10.003  0.2336 -0.3438  0.2354
  479MOL0     C65978   4.002   7.430  10.149 -0.3746 -0.3030  0.7286
  479MOL0     C65979   3.883   7.413  10.243 -0.1856 -0.2013  0.3534
  479MOL0     C65980   3.782   7.536  10.218 -0.0984 -0.3605 -0.7697
  479MOL0     N65981   3.698   7.550  10.332 -0.2944 -0.1540 -0.6226
  479MOL0     C65982   3.662   7.670  10.378  0.4760  0.7168 -0.3583
  479MOL0     C65983   3.596   7.649  10.490  0.0133  0.3268  0.0668
  479MOL0     C65984   3.549   7.764  10.570  0.3661 -0.4585  0.3098
  479MOL0     C65985   3.412   7.734  10.629  0.2744  0.1316  0.0834
  479MOL0     C65986   3.290   7.761  10.540  0.6172 -0.2286  0.0317
  479MOL0     C65987   3.165   7.757  10.625 -0.2731 -0.3975 -0.9419
  479MOL0     O65988   3.047   7.740  10.542 -0.2531 -0.5413  0.1982
  479MOL0     C65989   2.930   7.735  10.613  0.6902  0.2786  0.2651
  479MOL0     C65990   2.911   7.766  10.749 -0.6864  0.0249  0.5580
  479MOL0     C65991   2.795   7.738  10.809  0.5105  0.7241 -1.0141
  479MOL0     C65992   2.787   7.746  10.964 -0.1293  0.3223 -0.2638
  479MOL0     C65993   2.682   7.692  10.731  0.3195 -0.9456 -0.1701
  479MOL0     C65994   2.543   7.691  10.780 -0.2017 -0.5178  0.2598
  479MOL0     O65995   2.444   7.611  10.723  0.1706  0.3903 -0.6557
  479MOL0     C65996   2.314   7.612  10.782  0.8401  0.8787  0.4757
  479MOL0     C65997   2.225   7.724  10.807  0.4133  0.1135 -0.5055
  479MOL0     C65998   2.105   7.708  10.870  0.4884 -0.1973 -0.0239
  479MOL0     C65999   2.064   7.579  10.901  0.1861 -0.1411 -0.9288
  479MOL0     O66000   1.941   7.544  10.957  0.0076 -0.4157  0.2400
  479MOL0     C66001   1.902   7.614  11.071  0.0500 -0.0783 -0.0958
  479MOL0     C66002   2.013   7.582  11.183 -0.4027 -0.4216  0.5044
  479MOL0     C66003   1.997   7.434  11.227 -0.0058 -0.1936  0.3031
  479MOL0     C66004   2.095   7.391  11.333  0.2901  0.1511  0.8980
  479MOL0     C66005   2.033   7.253  11.385 -0.3528 -0.8915 -0.4201
  479MOL0     C66006   2.143   7.163  11.447  0.1604 -0.6579 -0.1502
  479MOL0     C66007   2.238   7.088  11.343 -1.0831 -0.2030 -0.4471
  479MOL0     C66008   2.345   7.018  11.425 -0.7207  1.2346  0.6783
  479MOL0    Cl66009   2.300   6.875  11.521 -0.5981 -0.5507  0.1061
  479MOL0     C66010   2.148   7.467  10.877 -0.4576 -0.1052  0.2182
  479MOL0     C66011   2.272   7.480  10.817 -0.8815  0.4650  0.3610
  479MOL0     O66012   2.530   7.776  10.866  0.2869  0.5521  0.0269
  479MOL0     C66013   2.692   7.686  10.591 -0.4826 -0.2940 -0.1079
  479MOL0     C66014   2.816   7.704  10.538 -0.9849 -0.0617  0.5932
  479MOL0     N66015   3.589   7.510  10.509  1.0213  0.0310  0.4327
  479MOL0     N66016   3.653   7.449  10.416 -0.1426  0.1246 -0.2784
  479MOL0     C66017   3.470   7.368   9.489  0.4219  0.3909 -0.1392
  479MOL0     C66018   3.454   7.295   9.365 -0.3473 -0.1919 -0.9701
  479MOL0     C66019   3.492   7.197   8.902  0.8899 -0.1786  0.1624
  479MOL0     C66020   3.474   7.256   8.775  0.2373  0.2873 -0.4511
  479MOL0     C66021   3.450   7.175   8.666 -1.4484  0.2995  0.1930
  479MOL0     C66022   3.426   7.041   8.677 -1.0217  0.2003 -0.2592
  479MOL0     O66023   3.404   6.978   8.558 -0.4328  0.8945  0.1162
  479MOL0     C66024   3.349   6.845   8.558  0.0936 -0.8094 -0.3064
  479MOL0     C66025   3.374   6.787   8.413 -0.2000  0.0734 -0.4485
  479MOL0     C66026   3.508   6.715   8.427 -0.0675  0.1764  0.1627
  479MOL0     C66027   3.563   6.678   8.287 -1.3859  0.0764  0.0380
  479MOL0     C66028   3.624   6.789   8.208 -0.0694 -0.0051 -0.1864
  479MOL0     C66029   3.660   6.873   8.134 -0.4069 -0.8772 -0.0930
  479MOL0     C66030   3.429   6.986   8.802 -0.7994 -0.4247  1.5975
  479MOL0     C66031   3.471   7.056   8.916 -0.0689  0.0562  1.1931
  479MOL0     C66032   3.486   6.982   9.045 -1.0974 -0.3768  0.0448
  479MOL0     H66033   3.724   7.380   9.185  2.2710  1.5129  2.6251
  479MOL0     H66034   3.754   7.530   9.383  1.4172 -1.5426 -0.4632
  479MOL0     H66035   3.721   7.641   9.731 -1.2720 -2.5294  2.6101
  479MOL0     H66036   3.795   7.617   9.583 -0.6683  0.6717  0.9255
  479MOL0     H66037   3.748   7.397   9.802 -3.6758 -0.3312 -1.8884
  479MOL0     H66038   3.817   7.364   9.646 -0.9126  0.3619 -0.3524
  479MOL0     H66039   4.001   7.381   9.730 -0.8037 -0.8531 -1.2405
  479MOL0     H66040   3.968   7.561   9.701 -0.2315 -0.2013 -0.3912
  479MOL0     H66041   4.045   7.568   9.927 -2.5100  2.7339  0.6747
  479MOL0     H66042   3.876   7.574   9.918 -1.5742 -2.3365 -0.0547
  479MOL0     H66043   4.020   7.301   9.973  0.4052 -0.6155  1.2929
  479MOL0     H66044   3.854   7.350  10.016 -0.0050 -0.2126 -1.2298
  479MOL0     H66045   4.084   7.363  10.175  0.5213  1.2864  2.1855
  479MOL0     H66046   4.042   7.531  10.139  0.0962 -0.3872  1.6842
  479MOL0     H66047   3.924   7.429  10.343 -0.7336 -0.1065  0.5667
  479MOL0     H66048   3.850   7.309  10.238  3.5273 -1.7267  3.2828
  479MOL0     H66049   3.833   7.627  10.187 -1.0307 -0.2988 -2.1962
  479MOL0     H66050   3.712   7.508  10.139 -0.3620 -2.3722  0.0950
  479MOL0     H66051   3.677   7.769  10.337 -3.2823  0.8007 -1.9132
  479MOL0     H66052   3.552   7.855  10.510 -2.9886 -1.3138 -1.4280
  479MOL0     H66053   3.614   7.772  10.658  1.0504  0.0202 -0.2314
  479MOL0     H66054   3.410   7.636  10.676 -3.0610  1.1716  2.4705
  479MOL0     H66055   3.390   7.801  10.712 -3.1005 -0.7736  0.0638
  479MOL0     H66056   3.320   7.859  10.503  0.6879 -0.4258 -0.4473
  479MOL0     H66057   3.273   7.688  10.460 -0.8387  2.6534 -2.4883
  479MOL0     H66058   3.175   7.662  10.679  1.8801  0.1947 -0.1816
  479MOL0     H66059   3.156   7.847  10.686 -0.6675  0.1425 -1.7871
  479MOL0     H66060   2.996   7.801  10.806  0.4359 -0.0677 -0.9954
  479MOL0     H66061   2.894   7.738  10.986  0.4841 -4.0610 -3.3749
  479MOL0     H66062   2.727   7.665  11.005 -3.0485  2.5097  0.0887
  479MOL0     H66063   2.743   7.836  11.008 -0.9629 -0.5821  0.8108
  479MOL0     H66064   2.258   7.823  10.776 -0.9889  0.7679  0.0150
  479MOL0     H66065   2.044   7.797  10.877  0.1400 -0.1070 -2.9618
  479MOL0     H66066   1.892   7.719  11.044 -1.8759 -0.3857 -0.7357
  479MOL0     H66067   1.803   7.578  11.102 -0.5457 -0.6591 -2.4684
  479MOL0     H66068   2.117   7.599  11.152 -1.4450  1.4797 -2.3724
  479MOL0     H66069   1.997   7.649  11.267 -2.3832 -1.6581  1.1801
  479MOL0     H66070   2.002   7.362  11.145 -1.4457 -1.9026  1.6285
  479MOL0     H66071   1.897   7.424  11.269 -0.8326  2.7559 -0.7564
  479MOL0     H66072   2.101   7.454  11.422  2.4162 -0.6359  1.3848
  479MOL0     H66073   2.196   7.374  11.294 -0.1444  0.7306 -0.5557
  479MOL0     H66074   1.963   7.284  11.463 -1.6797  0.2642 -1.9886
  479MOL0     H66075   1.989   7.206  11.297  0.4027  2.0069 -2.4996
  479MOL0     H66076   2.091   7.082  11.498  0.0818 -1.4266 -1.4151
  479MOL0     H66077   2.204   7.220  11.518  0.0404  0.5014 -0.9545
  479MOL0     H66078   2.282   7.160  11.273 -0.9771 -0.5980 -0.7962
  479MOL0     H66079   2.181   7.017  11.283  0.0501  1.5753 -3.8995
  479MOL0     H66080   2.397   7.086  11.493 -2.6481  3.5346 -0.0227
  479MOL0     H66081   2.422   6.981  11.357 -1.4810  1.2831 -0.2203
  479MOL0     H66082   2.106   7.370  10.904 -0.8580 -1.9334 -5.5574
  479MOL0     H66083   2.336   7.396  10.792 -3.3044 -0.9930 -1.4096
  479MOL0     H66084   2.609   7.663  10.526  0.2689 -2.3017 -0.4256
  479MOL0     H66085   2.840   7.690  10.433 -0.2938  1.0040  0.5947
  479MOL0     H66086   3.397   7.367   9.569  0.0615 -2.7452 -0.4164
  479MOL0     H66087   3.365   7.237   9.344 -0.4001  0.0009 -1.2864
  479MOL0     H66088   3.480   7.365   8.773 -0.0746  0.3045 -0.4876
  479MOL0     H66089   3.458   7.208   8.563 -1.6415  1.2530  0.4687
  479MOL0     H66090   3.388   6.771   8.629  0.5103 -0.2341  0.0681
  479MOL0     H66091   3.247   6.848   8.598 -0.2554 -1.7683 -1.0719
  479MOL0     H66092   3.367   6.867   8.339 -1.7876 -0.3662 -0.7976
  479MOL0     H66093   3.291   6.716   8.406 -1.7251  1.7761 -0.3930
  479MOL0     H66094   3.570   6.794   8.470  0.3753 -0.9618  1.7070
  479MOL0     H66095   3.507   6.626   8.491  0.0869  0.2253  0.2335
  479MOL0     H66096   3.479   6.627   8.239 -1.6218 -1.0002  1.5178
  479MOL0     H66097   3.641   6.602   8.294 -1.6880 -0.0709  2.7435
  479MOL0     H66098   3.711   6.935   8.063 -0.0785  0.1964  1.0466
  479MOL0     H66099   3.413   6.881   8.823  0.7324 -0.7558  1.2469
  479MOL0     H66100   3.579   7.012   9.092 -2.7962  2.0675  2.1356
  479MOL0     H66101   3.412   7.009   9.121 -1.6106 -2.1052  0.1907
  479MOL0     H66102   3.491   6.874   9.029  0.3925 -0.2674 -0.3900
  480MOL0     O66103   4.478   9.145  11.322 -0.4080  0.0386 -0.3271
  480MOL0     C66104   4.387   9.201  11.385 -0.7450 -0.5219  0.7400
  480MOL0     O66105   4.257   9.185  11.360 -0.1342  0.2850 -0.5201
  480MOL0     C66106   4.213   9.146  11.242  1.1862 -1.3728  0.2347
  480MOL0     C66107   4.102   9.062  11.250  0.5401 -0.5368  0.3409
  480MOL0     C66108   4.029   9.025  11.129 -0.1401  0.0152  0.0245
  480MOL0     C66109   4.075   9.076  11.007  0.2385 -0.2247  0.4564
  480MOL0     O66110   4.018   9.028  10.896 -0.0899  0.3267  0.4707
  480MOL0     C66111   3.890   9.071  10.858 -0.5163 -1.0397  0.6684
  480MOL0     C66112   3.805   8.960  10.799  0.0841  0.5178 -0.9699
  480MOL0     C66113   3.763   8.856  10.912  0.2149 -0.1347  0.6845
  480MOL0     C66114   3.661   8.743  10.857  0.0982  0.4489 -0.4454
  480MOL0     C66115   3.668   8.620  10.943 -0.4747 -0.9390  0.5222
  480MOL0     C66116   3.628   8.611  11.091  0.2048 -0.9458  0.9217
  480MOL0     C66117   3.668   8.470  11.132  0.0159 -0.2802  0.9779
  480MOL0     C66118   3.636   8.444  11.276 -0.1146 -0.8664 -1.0000
  480MOL0     N66119   3.747   8.390  11.354  0.0277 -0.8047 -1.2192
  480MOL0     C66120   3.792   8.265  11.347 -0.5440 -0.7494  0.1576
  480MOL0     C66121   3.879   8.250  11.448 -0.5698 -0.2993  0.4415
  480MOL0     C66122   3.942   8.116  11.491  0.2188 -0.1093 -0.8111
  480MOL0     C66123   4.064   8.074  11.409  0.6348  0.6648  0.9140
  480MOL0     C66124   4.161   8.191  11.372 -0.5567 -0.6739 -0.4880
  480MOL0     C66125   4.294   8.138  11.319  0.5028 -0.5298  0.4978
  480MOL0     O66126   4.371   8.055  11.413  0.3697 -0.0928 -0.9253
  480MOL0     C66127   4.445   8.120  11.510 -0.2978  0.6591  0.0196
  480MOL0     C66128   4.446   8.262  11.521 -0.7290 -0.2188 -0.2931
  480MOL0     C66129   4.490   8.326  11.634 -0.2191 -0.2092 -0.1616
  480MOL0     C66130   4.474   8.477  11.657  0.3529 -0.3415 -0.4127
  480MOL0     C66131   4.550   8.249  11.741  0.2618 -0.7350 -0.2389
  480MOL0     C66132   4.599   8.311  11.863 -0.4277 -0.0478 -0.5550
  480MOL0     O66133   4.702   8.236  11.917  0.1268  0.3622  0.2675
  480MOL0     C66134   4.741   8.249  12.049  0.1875 -0.3453  0.4157
  480MOL0     C66135   4.679   8.190  12.163  0.1473  0.1476  0.2433
  480MOL0     C66136   4.723   8.221  12.299 -0.1648 -0.5380  0.1453
  480MOL0     C66137   4.823   8.311  12.316  0.5352  0.0588  0.4668
  480MOL0     O66138   4.887   8.360  12.426 -0.8391  0.7946  0.4603
  480MOL0     C66139   4.835   8.310  12.555 -0.7670  0.1043 -0.1713
  480MOL0     C66140   4.703   8.387  12.583 -1.2264  0.7240  0.0275
  480MOL0     C66141   4.746   8.528  12.611 -0.7498  0.5227  0.0318
  480MOL0     C66142   4.641   8.620  12.696 -0.7812  0.0673 -0.5642
  480MOL0     C66143   4.702   8.754  12.729 -0.6148  1.0830 -0.5522
  480MOL0     C66144   4.614   8.855  12.807  0.3229  0.0307  0.0568
  480MOL0     C66145   4.545   8.804  12.935  0.5910  0.1379  0.0557
  480MOL0     C66146   4.598   8.896  13.053  0.2179  0.1009 -0.4396
  480MOL0    Cl66147   4.521   8.826  13.201  0.1026  0.0877 -0.6266
  480MOL0     C66148   4.889   8.351  12.197  0.3743 -0.0950  0.3987
  480MOL0     C66149   4.855   8.323  12.076  0.0440  1.3701  0.4698
  480MOL0     O66150   4.546   8.401  11.923  0.1845  0.5613 -0.1707
  480MOL0     C66151   4.547   8.107  11.729  0.4697  1.0092  0.1789
  480MOL0     C66152   4.496   8.045  11.615 -0.1282  0.2079  0.2110
  480MOL0     N66153   3.895   8.370  11.520  0.4503  0.6093  0.1377
  480MOL0     N66154   3.813   8.454  11.462  0.1059  0.0207  0.1579
  480MOL0     C66155   4.190   9.159  11.001  0.2477  0.0459 -0.0540
  480MOL0     C66156   4.259   9.196  11.119 -0.2007 -0.1242  0.0148
  480MOL0     C66157   4.422   9.304  11.503 -0.0052  1.4141 -0.5227
  480MOL0     C66158   4.319   9.361  11.586 -0.6226  0.3022  0.3398
  480MOL0     C66159   4.339   9.450  11.694 -0.4060 -0.0158  0.4483
  480MOL0     C66160   4.472   9.484  11.731 -0.1380  0.5223  0.7564
  480MOL0     O66161   4.492   9.566  11.839  0.7197  0.9441 -0.2133
  480MOL0     C66162   4.574   9.502  11.947  0.2777 -0.3379 -0.0441
  480MOL0     C66163   4.514   9.370  12.000 -0.1627 -0.2922 -0.0759
  480MOL0     C66164   4.528   9.367  12.157 -0.1851  1.1093 -0.0392
  480MOL0     C66165   4.672   9.351  12.205  0.3215  0.6501  0.1593
  480MOL0     C66166   4.728   9.225  12.131  1.1128 -0.3223  0.2021
  480MOL0     C66167   4.797   9.137  12.098 -0.1860 -1.0105 -0.1368
  480MOL0     C66168   4.574   9.428  11.656 -0.4124 -0.3893 -0.3248
  480MOL0     C66169   4.549   9.339  11.540 -1.7590 -0.1191 -0.0858
  480MOL0     C66170   4.684   9.275  11.486 -1.4528  0.0862  0.0018
  480MOL0     H66171   4.059   9.028  11.343  0.7840  0.5080  0.8482
  480MOL0     H66172   3.943   8.960  11.135  0.0416 -0.3490 -1.2570
  480MOL0     H66173   3.895   9.148  10.781 -0.2733 -2.7205 -1.0752
  480MOL0     H66174   3.832   9.109  10.942 -0.1254  2.9956 -0.6672
  480MOL0     H66175   3.719   9.004  10.748 -2.1958 -1.0684  1.2322
  480MOL0     H66176   3.873   8.909  10.729  0.2118 -0.8837  0.1226
  480MOL0     H66177   3.854   8.800  10.932  0.9356  0.6148 -0.3406
  480MOL0     H66178   3.718   8.892  11.005  1.0550 -2.3982  2.0207
  480MOL0     H66179   3.555   8.769  10.849 -0.3892  0.1694  3.2168
  480MOL0     H66180   3.692   8.716  10.756  1.3582 -2.5888  0.6493
  480MOL0     H66181   3.771   8.584  10.936 -0.0814  0.2758 -0.2835
  480MOL0     H66182   3.612   8.547  10.884 -2.1052  1.3643 -0.9318
  480MOL0     H66183   3.678   8.682  11.158  0.7818  0.5561 -1.0003
  480MOL0     H66184   3.521   8.628  11.104  0.3018 -1.4763  2.6886
  480MOL0     H66185   3.773   8.451  11.106 -0.3382 -0.0548 -0.7345
  480MOL0     H66186   3.607   8.412  11.062 -0.3102  1.7041 -0.4565
  480MOL0     H66187   3.608   8.540  11.321  0.5435 -1.2399  0.2618
  480MOL0     H66188   3.545   8.386  11.295  0.7300 -1.2548  2.5740
  480MOL0     H66189   3.769   8.177  11.289  3.2862 -2.7039  1.3235
  480MOL0     H66190   3.869   8.035  11.477 -2.8309  2.6689 -2.4237
  480MOL0     H66191   3.966   8.125  11.597  1.0187  3.5246 -1.1867
  480MOL0     H66192   4.113   8.002  11.476 -2.9440  0.6551  3.7958
  480MOL0     H66193   4.041   8.024  11.314  2.3489 -0.0043  0.8025
  480MOL0     H66194   4.118   8.248  11.290 -0.2149  1.4126  0.7084
  480MOL0     H66195   4.178   8.251  11.462  1.2585 -5.9690  3.1865
  480MOL0     H66196   4.263   8.065  11.243 -0.5024  2.4150 -2.1822
  480MOL0     H66197   4.351   8.213  11.262 -2.6477  0.4633 -1.6252
  480MOL0     H66198   4.388   8.323  11.453 -3.0837 -0.1220  1.6807
  480MOL0     H66199   4.404   8.493  11.739  2.3402  1.7899  0.9648
  480MOL0     H66200   4.428   8.512  11.565  1.5222 -2.1915 -1.7794
  480MOL0     H66201   4.566   8.533  11.670  0.3067 -0.5738  1.1483
  480MOL0     H66202   4.591   8.127  12.153 -2.9130  3.8065  1.7226
  480MOL0     H66203   4.681   8.176  12.388  0.7898  0.7794  1.3269
  480MOL0     H66204   4.823   8.201  12.552  3.0327 -0.4843  0.6232
  480MOL0     H66205   4.906   8.327  12.637  2.7524 -1.2789 -2.6971
  480MOL0     H66206   4.653   8.386  12.486  0.7508  0.0192 -1.0489
  480MOL0     H66207   4.636   8.342  12.656  1.4605 -1.3882  1.3921
  480MOL0     H66208   4.758   8.576  12.514 -0.4201 -0.5687 -0.4833
  480MOL0     H66209   4.836   8.521  12.673 -2.7653  1.7932  3.3576
  480MOL0     H66210   4.636   8.557  12.785  2.9355 -0.5423 -0.6558
  480MOL0     H66211   4.550   8.625  12.634 -0.9995  1.8157 -0.1482
  480MOL0     H66212   4.784   8.735  12.798 -2.8233  1.2932  2.3385
  480MOL0     H66213   4.748   8.801  12.641  0.6471  0.8187 -0.0520
  480MOL0     H66214   4.534   8.892  12.742  1.8748  0.9795 -1.3995
  480MOL0     H66215   4.686   8.935  12.826  1.1209 -1.3699  3.8380
  480MOL0     H66216   4.569   8.699  12.956 -0.3143 -0.5711 -2.1628
  480MOL0     H66217   4.436   8.811  12.930  0.3694 -1.8847  1.0100
  480MOL0     H66218   4.577   9.003  13.044 -0.0494  0.0420 -0.5212
  480MOL0     H66219   4.706   8.885  13.060  0.2960 -1.3302 -2.8642
  480MOL0     H66220   4.980   8.409  12.211  2.0243 -2.4664  0.2284
  480MOL0     H66221   4.897   8.357  11.982 -0.2187  3.0245  0.9295
  480MOL0     H66222   4.595   8.062  11.816  3.3059  0.2088 -1.6737
  480MOL0     H66223   4.493   7.937  11.602  1.0590 -0.1160  2.2145
  480MOL0     H66224   4.217   9.204  10.907 -3.3557  0.3085 -1.1099
  480MOL0     H66225   4.344   9.263  11.110 -0.0117 -0.3977 -0.2593
  480MOL0     H66226   4.219   9.319  11.577 -0.5627  0.1249  0.5109
  480MOL0     H66227   4.265   9.496  11.759 -1.8818 -1.2158 -0.3223
  480MOL0     H66228   4.670   9.482  11.900 -0.2063  2.4735 -2.6095
  480MOL0     H66229   4.588   9.578  12.024  1.0206 -0.3581 -0.1529
  480MOL0     H66230   4.557   9.282  11.952  1.4804  0.2940  0.2613
  480MOL0     H66231   4.407   9.386  11.980 -0.2407  1.3513  1.3915
  480MOL0     H66232   4.494   9.463  12.197 -2.9062  0.1110  0.2594
  480MOL0     H66233   4.460   9.290  12.194  2.3057  0.1102  2.9114
  480MOL0     H66234   4.668   9.337  12.313  0.2634 -0.7253  0.0013
  480MOL0     H66235   4.739   9.435  12.183  2.2517 -1.3938 -2.6232
  480MOL0     H66236   4.853   9.055  12.059 -0.4634 -1.3436  0.1525
  480MOL0     H66237   4.677   9.456  11.675 -0.7428  0.9197 -0.3758
  480MOL0     H66238   4.668   9.167  11.474 -0.0187 -0.0537 -0.8461
  480MOL0     H66239   4.697   9.319  11.387  1.7290 -0.6806 -0.0332
  480MOL0     H66240   4.771   9.285  11.551  0.1773 -1.8473 -1.7517
  481MOL0     O66241   0.762   2.122   2.143 -0.7564  0.2492  0.3645
  481MOL0     C66242   0.691   2.223   2.154 -0.7652  0.4347 -0.5089
  481MOL0     O66243   0.631   2.256   2.273 -0.5966 -0.0827 -0.9424
  481MOL0     C66244   0.600   2.166   2.380  0.8642  0.1549  0.4424
  481MOL0     C66245   0.583   2.031   2.365  0.1538  0.1028 -0.3129
  481MOL0     C66246   0.552   1.944   2.474 -0.7385  0.0620  0.0193
  481MOL0     C66247   0.524   2.002   2.603 -0.1882 -0.0723 -0.2481
  481MOL0     O66248   0.480   1.920   2.706 -0.0917 -0.7225  0.2517
  481MOL0     C66249   0.467   1.979   2.841  0.1315 -0.5779  0.3582
  481MOL0     C66250   0.429   1.864   2.928 -0.0165 -0.8024  0.0121
  481MOL0     C66251   0.426   1.903   3.076 -0.2037 -0.9621 -0.1761
  481MOL0     C66252   0.456   1.780   3.165  0.0657  0.2173  0.4516
  481MOL0     C66253   0.524   1.806   3.302 -1.1028  0.5880 -0.1246
  481MOL0     C66254   0.535   1.678   3.373  0.1120  0.8981 -0.9235
  481MOL0     C66255   0.643   1.687   3.485 -0.8760 -0.5747  0.3938
  481MOL0     C66256   0.642   1.570   3.575 -0.4749 -0.7083  0.5165
  481MOL0     N66257   0.540   1.570   3.681 -0.0044  0.0183  0.1970
  481MOL0     C66258   0.436   1.484   3.706 -0.2396 -0.0891  0.6616
  481MOL0     C66259   0.386   1.517   3.824 -0.0649 -0.5843  0.0852
  481MOL0     C66260   0.291   1.435   3.900 -1.0347  0.2762 -1.2860
  481MOL0     C66261   0.365   1.353   4.012  0.0288 -0.1965  0.1144
  481MOL0     C66262   0.277   1.224   4.045 -0.1103 -0.2364  0.0040
  481MOL0     C66263   0.317   1.144   4.167 -0.6619 -0.4838  1.4148
  481MOL0     O66264   0.441   1.078   4.144  0.4600  0.5712 -0.0724
  481MOL0     C66265   0.463   0.957   4.203  1.0674 -0.4508  0.3159
  481MOL0     C66266   0.389   0.911   4.313  0.4474 -0.0511 -0.3804
  481MOL0     C66267   0.426   0.783   4.373 -0.0961 -0.3389 -0.7034
  481MOL0     C66268   0.337   0.743   4.493 -0.4011  0.2730 -0.5196
  481MOL0     C66269   0.539   0.706   4.324  0.8872  0.0905 -0.7033
  481MOL0     C66270   0.579   0.572   4.381 -0.0548 -0.5304 -0.5340
  481MOL0     O66271   0.657   0.493   4.301  0.3828  0.1551 -0.2874
  481MOL0     C66272   0.699   0.365   4.344  0.2120  0.7040  0.4753
  481MOL0     C66273   0.819   0.330   4.288 -0.6087 -0.4508 -1.2013
  481MOL0     C66274   0.867   0.201   4.326 -0.4911 -0.3611  0.3253
  481MOL0     C66275   0.810   0.114   4.418  0.0992 -0.2819  1.7616
  481MOL0     O66276   0.877  -0.006   4.435 -0.8521  0.0681  0.2756
  481MOL0     C66277   0.792  -0.119   4.409 -0.3430 -0.1245 -0.0328
  481MOL0     C66278   0.870  -0.243   4.430 -0.2933  0.6793  0.8200
  481MOL0     C66279   0.844  -0.326   4.558  0.8114  0.0916 -0.2528
  481MOL0     C66280   0.897  -0.474   4.549  0.1142  0.4068  0.2665
  481MOL0     C66281   0.883  -0.545   4.685 -0.1448 -0.3963  0.7421
  481MOL0     C66282   0.924  -0.692   4.658 -0.5078 -0.0128 -0.5736
  481MOL0     C66283   0.905  -0.780   4.781 -0.2922 -0.0150  0.0718
  481MOL0     C66284   0.943  -0.923   4.745  0.5008  0.3867 -0.4136
  481MOL0    Cl66285   0.843  -1.030   4.852  0.2064  0.0677  0.1567
  481MOL0     C66286   0.683   0.150   4.457  0.3863  0.4836  0.2435
  481MOL0     C66287   0.631   0.277   4.424  0.5100  0.2210  0.0754
  481MOL0     O66288   0.550   0.558   4.506  0.4897 -0.1069  0.3752
  481MOL0     C66289   0.601   0.751   4.209  0.1377  0.1593 -0.8907
  481MOL0     C66290   0.562   0.869   4.147  0.3974 -0.5911  0.6259
  481MOL0     N66291   0.445   1.632   3.870  0.5800 -0.7607  0.2308
  481MOL0     N66292   0.541   1.659   3.787  0.0276 -0.3657  1.2792
  481MOL0     C66293   0.540   2.136   2.623  0.0017  0.0677  1.0737
  481MOL0     C66294   0.577   2.216   2.507 -0.1806 -0.5147 -0.7908
  481MOL0     C66295   0.643   2.290   2.030 -0.9556  0.1678  0.1283
  481MOL0     C66296   0.519   2.346   2.022 -0.4994  0.9527 -0.9975
  481MOL0     C66297   0.469   2.404   1.905 -0.3418 -0.3373 -0.6980
  481MOL0     C66298   0.555   2.409   1.794 -0.4143 -0.7670  0.3683
  481MOL0     O66299   0.521   2.466   1.670 -0.1562 -0.3694 -0.1826
  481MOL0     C66300   0.437   2.577   1.673  0.4554  0.4664  0.0575
  481MOL0     C66301   0.417   2.614   1.527  0.6134  0.2612  0.0464
  481MOL0     C66302   0.539   2.683   1.469 -0.0054 -0.9104 -0.0290
  481MOL0     C66303   0.501   2.771   1.348 -0.1384 -0.1355  0.8879
  481MOL0     C66304   0.467   2.697   1.232  0.3087 -0.2186  0.5552
  481MOL0     C66305   0.456   2.616   1.138  0.1971 -0.6876 -0.4834
  481MOL0     C66306   0.684   2.360   1.796  0.3950  0.1427 -0.2675
  481MOL0     C66307   0.727   2.286   1.913  1.2043  0.2973 -0.7733
  481MOL0     C66308   0.862   2.225   1.903 -0.2243  0.0220 -0.0913
  481MOL0     H66309   0.595   2.000   2.262  1.6409  0.9024 -0.4197
  481MOL0     H66310   0.536   1.838   2.455  0.9256 -0.4250  1.1074
  481MOL0     H66311   0.377   2.043   2.837  1.9605  2.1319 -0.7357
  481MOL0     H66312   0.556   2.030   2.880  0.2436 -0.8385  0.4460
  481MOL0     H66313   0.335   1.821   2.892 -0.5264 -1.5912  2.1666
  481MOL0     H66314   0.497   1.779   2.920  0.9611 -0.0317 -0.0618
  481MOL0     H66315   0.505   1.975   3.101  0.0287 -0.3102 -2.5488
  481MOL0     H66316   0.338   1.957   3.113 -0.1808 -0.6845 -0.5285
  481MOL0     H66317   0.361   1.732   3.191  0.0203  0.2858  0.4133
  481MOL0     H66318   0.511   1.707   3.105 -0.5560  0.4252 -0.4022
  481MOL0     H66319   0.481   1.877   3.373 -2.1358 -0.3910  0.2611
  481MOL0     H66320   0.625   1.843   3.279 -1.5477  1.2502 -1.0912
  481MOL0     H66321   0.438   1.650   3.415  0.2478  2.2954  0.3822
  481MOL0     H66322   0.562   1.606   3.295 -1.1918  0.5981 -1.1237
  481MOL0     H66323   0.629   1.772   3.552  0.1957 -1.8488  2.3378
  481MOL0     H66324   0.742   1.684   3.438 -0.3798 -2.8570  1.4594
  481MOL0     H66325   0.650   1.481   3.512  2.7217  0.8115 -1.4990
  481MOL0     H66326   0.733   1.582   3.635  0.6879 -1.4943 -1.0426
  481MOL0     H66327   0.417   1.394   3.649  0.5395  1.1130 -1.6100
  481MOL0     H66328   0.249   1.370   3.824  0.7731 -1.1378 -1.1530
  481MOL0     H66329   0.213   1.494   3.950  1.2270  1.8199  0.6810
  481MOL0     H66330   0.469   1.325   3.992  0.3128 -0.3779  1.6805
  481MOL0     H66331   0.367   1.424   4.095 -1.3536 -0.3025  0.2593
  481MOL0     H66332   0.175   1.257   4.067  0.8889  2.5066  1.0322
  481MOL0     H66333   0.266   1.156   3.960 -3.5677  1.5057 -1.1191
  481MOL0     H66334   0.319   1.209   4.255  0.4845  0.4257  0.7302
  481MOL0     H66335   0.234   1.075   4.189 -0.3506 -1.2605  0.2807
  481MOL0     H66336   0.308   0.959   4.366 -1.3933  0.2694 -3.2313
  481MOL0     H66337   0.245   0.803   4.491  0.0911  1.0360 -1.8857
  481MOL0     H66338   0.398   0.765   4.581  1.9235 -0.2822 -1.9029
  481MOL0     H66339   0.307   0.638   4.492 -0.4699  0.1570  2.5495
  481MOL0     H66340   0.870   0.398   4.221 -1.7939  2.7342  0.8829
  481MOL0     H66341   0.960   0.158   4.290 -0.9725  0.3747 -1.9205
  481MOL0     H66342   0.703  -0.119   4.473  0.2336  2.3919  0.9099
  481MOL0     H66343   0.760  -0.113   4.305 -1.2512  0.1167  0.2495
  481MOL0     H66344   0.852  -0.309   4.345  4.0194  0.4946 -0.1700
  481MOL0     H66345   0.975  -0.216   4.419 -0.4089 -0.0349 -3.9343
  481MOL0     H66346   0.742  -0.322   4.596  1.7453  1.2697  2.3830
  481MOL0     H66347   0.905  -0.280   4.637  0.4923 -0.1304  0.1317
  481MOL0     H66348   0.999  -0.490   4.513  0.6662  0.9409  1.5326
  481MOL0     H66349   0.832  -0.531   4.481  1.5167  1.0448 -1.7096
  481MOL0     H66350   0.957  -0.492   4.745  0.7910  2.2126 -2.4151
  481MOL0     H66351   0.781  -0.529   4.721 -1.0127  0.7222 -1.9311
  481MOL0     H66352   1.026  -0.703   4.620 -0.8499 -2.5702 -0.9105
  481MOL0     H66353   0.859  -0.736   4.582 -1.8828  0.5598  0.2502
  481MOL0     H66354   0.796  -0.779   4.796 -0.5231 -2.2236 -0.9562
  481MOL0     H66355   0.956  -0.750   4.873 -2.1420  1.6919  0.6205
  481MOL0     H66356   1.047  -0.932   4.779  0.7547  2.1899 -0.6069
  481MOL0     H66357   0.940  -0.955   4.641  2.4155 -0.4589 -0.2590
  481MOL0     H66358   0.625   0.082   4.518 -0.6928 -1.0186 -2.2757
  481MOL0     H66359   0.535   0.298   4.470  0.5867  3.4876 -0.9996
  481MOL0     H66360   0.683   0.689   4.174  1.3324 -1.3114  3.8201
  481MOL0     H66361   0.621   0.911   4.066  0.3114  0.4085  1.0647
  481MOL0     H66362   0.516   2.178   2.720 -2.6818 -3.9363  2.3896
  481MOL0     H66363   0.595   2.322   2.520 -2.6186 -0.1538  0.1913
  481MOL0     H66364   0.451   2.338   2.106  1.7692 -1.8066  0.7520
  481MOL0     H66365   0.372   2.453   1.899 -1.4363 -2.2746  0.2047
  481MOL0     H66366   0.344   2.538   1.716  1.2983 -1.2355  0.3983
  481MOL0     H66367   0.468   2.662   1.735  3.3705 -1.9818  2.2728
  481MOL0     H66368   0.331   2.682   1.524 -1.5975 -2.0640  3.1664
  481MOL0     H66369   0.393   2.527   1.464  1.8031  0.0784 -0.1737
  481MOL0     H66370   0.587   2.748   1.543  0.8978  0.2744 -1.6014
  481MOL0     H66371   0.612   2.606   1.443  1.0121 -0.0974  0.3706
  481MOL0     H66372   0.586   2.838   1.334 -2.3928  3.5504  3.1293
  481MOL0     H66373   0.425   2.847   1.369  0.8449  0.9364  0.6815
  481MOL0     H66374   0.436   2.564   1.046 -1.2296  0.2631 -0.7439
  481MOL0     H66375   0.739   2.348   1.703  1.7294  1.2460  0.3425
  481MOL0     H66376   0.926   2.263   1.823  1.2838  2.1349  1.9721
  481MOL0     H66377   0.916   2.255   1.994  1.3266 -2.5463 -0.0741
  481MOL0     H66378   0.851   2.116   1.900  0.7229 -0.0640 -2.2910
  482MOL0     O66379  11.011   9.560   1.357  0.2294  0.4769 -0.4827
  482MOL0     C66380  11.120   9.562   1.295  1.4050 -0.6383  0.3807
  482MOL0     O66381  11.172   9.451   1.230 -0.6916 -0.5762  0.1938
  482MOL0     C66382  11.088   9.366   1.163  0.0384 -0.4865 -0.9136
  482MOL0     C66383  11.053   9.381   1.028  0.7812  0.1895 -0.1037
  482MOL0     C66384  10.974   9.286   0.957 -0.4672  0.2185 -0.6944
  482MOL0     C66385  10.939   9.171   1.017 -0.6477  0.6081  0.3528
  482MOL0     O66386  10.881   9.076   0.935  1.0459  0.0866  0.1214
  482MOL0     C66387  10.820   8.953   0.991  0.1837  0.0790  0.0227
  482MOL0     C66388  10.791   8.847   0.878 -0.7530 -0.1945 -0.2479
  482MOL0     C66389  10.807   8.698   0.925  0.5367 -0.6166  0.6301
  482MOL0     C66390  10.949   8.674   0.981 -0.4793 -0.2360  1.0422
  482MOL0     C66391  11.006   8.538   0.984 -0.7885  0.0505  0.0547
  482MOL0     C66392  10.938   8.444   1.073  0.3088  0.0312 -0.8913
  482MOL0     C66393  10.963   8.302   1.026 -1.2711 -0.5745 -0.2707
  482MOL0     C66394  10.862   8.197   1.071 -0.0960 -0.5592  0.0519
  482MOL0     N66395  10.737   8.198   0.988  0.0773  0.5911  0.1136
  482MOL0     C66396  10.703   8.092   0.908  0.8007  0.0052  0.6996
  482MOL0     C66397  10.579   8.115   0.855  0.2865 -0.1548 -0.3710
  482MOL0     C66398  10.516   8.049   0.733 -0.7440 -0.1276  0.1240
  482MOL0     C66399  10.563   8.135   0.606  0.0932  0.1837 -0.7164
  482MOL0     C66400  10.458   8.137   0.494  0.0754  1.3499  0.2736
  482MOL0     C66401  10.432   7.997   0.425 -0.1913  0.7923  0.6168
  482MOL0     O66402  10.403   7.888   0.513  0.5202 -0.7567  0.2732
  482MOL0     C66403  10.277   7.870   0.554  0.4224 -0.5908 -0.4929
  482MOL0     C66404  10.249   7.748   0.614  0.4795 -0.0878 -0.0146
  482MOL0     C66405  10.121   7.720   0.661 -0.0629 -0.2206 -0.1833
  482MOL0     C66406  10.094   7.586   0.722  0.4621  0.0556  0.1160
  482MOL0     C66407  10.008   7.804   0.615  0.4987  0.6081 -0.3787
  482MOL0     C66408   9.869   7.811   0.671 -0.0099  0.4811  0.6350
  482MOL0     O66409   9.786   7.859   0.580 -0.5768 -0.2485 -0.7310
  482MOL0     C66410   9.656   7.830   0.609 -0.6382  0.7493  0.9817
  482MOL0     C66411   9.589   7.713   0.562  0.6346 -0.0362 -0.9051
  482MOL0     C66412   9.442   7.706   0.560 -0.4644 -1.2187  0.0826
  482MOL0     C66413   9.373   7.821   0.596  0.3510  0.5940 -0.0792
  482MOL0     O66414   9.241   7.858   0.586  0.0432 -0.5582 -0.4250
  482MOL0     C66415   9.174   7.782   0.478 -0.2220 -0.0434 -0.6897
  482MOL0     C66416   9.111   7.660   0.523 -0.0765  0.0657  0.7380
  482MOL0     C66417   9.013   7.685   0.636  1.4054  0.0549  0.6677
  482MOL0     C66418   8.951   7.555   0.669 -0.1678  0.3483 -0.0501
  482MOL0     C66419   8.855   7.579   0.794 -0.6731  0.8764  0.2738
  482MOL0     C66420   8.783   7.447   0.823  0.4886  0.0326 -0.7966
  482MOL0     C66421   8.693   7.430   0.952  0.0671  0.3412 -0.1838
  482MOL0     C66422   8.706   7.309   1.039 -0.6009  0.0337 -0.9323
  482MOL0    Cl66423   8.706   7.155   0.928  0.2036 -0.0952  0.5423
  482MOL0     C66424   9.441   7.930   0.654 -0.4093  0.0391  0.8654
  482MOL0     C66425   9.586   7.932   0.670 -0.3808 -0.9083 -0.2124
  482MOL0     O66426   9.843   7.755   0.780 -0.4628  0.5712  0.0165
  482MOL0     C66427  10.041   7.922   0.549  0.3636 -0.2686  0.3759
  482MOL0     C66428  10.175   7.958   0.533  0.7700  0.3899 -0.2372
  482MOL0     N66429  10.542   8.240   0.906  0.4101 -0.0835 -0.2572
  482MOL0     N66430  10.628   8.278   0.991 -0.5688  0.6419  0.2697
  482MOL0     C66431  10.979   9.155   1.151 -0.4453  0.5171 -0.0822
  482MOL0     C66432  11.051   9.242   1.231  0.7084  0.0614  0.2511
  482MOL0     C66433  11.206   9.682   1.316  0.0388  0.6447  0.6194
  482MOL0     C66434  11.147   9.803   1.358  0.8817  0.3893 -0.7052
  482MOL0     C66435  11.222   9.927   1.367  0.0153 -0.2362 -0.9013
  482MOL0     C66436  11.349   9.925   1.332 -1.0949 -1.1409  0.3905
  482MOL0     O66437  11.427  10.039   1.329 -0.4538 -0.4878 -0.0184
  482MOL0     C66438  11.443  10.119   1.452  0.8139  0.2342  0.4397
  482MOL0     C66439  11.400  10.267   1.452 -0.1125  0.6192  0.6928
  482MOL0     C66440  11.493  10.342   1.361  0.5031  0.5628  0.1469
  482MOL0     C66441  11.460  10.493   1.376 -0.4037 -1.7435  0.2615
  482MOL0     C66442  11.552  10.576   1.291  0.5222  0.7740 -0.2149
  482MOL0     C66443  11.617  10.621   1.202 -0.7204 -0.1522 -0.0246
  482MOL0     C66444  11.412   9.813   1.284 -0.4962 -0.1684 -0.4316
  482MOL0     C66445  11.343   9.689   1.281 -0.3994  0.1529 -0.2776
  482MOL0     C66446  11.425   9.561   1.234  0.4356 -0.4966 -0.7237
  482MOL0     H66447  11.077   9.478   0.985  0.2324  0.4317  0.1281
  482MOL0     H66448  10.963   9.294   0.849 -5.2787 -0.3052 -0.4785
  482MOL0     H66449  10.730   8.964   1.053 -0.9330 -1.8431 -1.1515
  482MOL0     H66450  10.896   8.913   1.058  1.6392  1.3972 -0.7549
  482MOL0     H66451  10.691   8.859   0.835 -1.8894  0.9058  2.4713
  482MOL0     H66452  10.877   8.857   0.812  1.2320 -3.4559  1.5897
  482MOL0     H66453  10.737   8.677   1.005  1.0061  1.0163  1.5273
  482MOL0     H66454  10.791   8.640   0.833 -3.7731  0.3048  0.6114
  482MOL0     H66455  11.022   8.732   0.924  1.5647 -1.1080  2.6136
  482MOL0     H66456  10.948   8.722   1.080  0.5692 -0.8780  1.3794
  482MOL0     H66457  11.112   8.550   1.006 -0.6976  0.9677 -0.8596
  482MOL0     H66458  10.999   8.507   0.880  1.0877  2.9895 -1.0451
  482MOL0     H66459  10.969   8.462   1.176 -1.1498  0.0117 -0.4272
  482MOL0     H66460  10.830   8.458   1.057 -0.3009 -2.3174  0.6011
  482MOL0     H66461  11.052   8.269   1.080 -1.3667 -0.9207 -0.3241
  482MOL0     H66462  10.985   8.299   0.919 -0.4890 -0.4178 -0.1195
  482MOL0     H66463  10.903   8.096   1.062 -0.6316 -0.7141 -0.7087
  482MOL0     H66464  10.841   8.199   1.179 -2.7197 -3.3140 -0.2492
  482MOL0     H66465  10.761   8.006   0.875 -1.9041 -1.7381  0.1647
  482MOL0     H66466  10.407   8.046   0.746 -0.5989 -0.4852  1.4169
  482MOL0     H66467  10.556   7.947   0.731 -2.9204 -1.0470 -1.4924
  482MOL0     H66468  10.593   8.233   0.642  1.0222 -1.0951  2.3110
  482MOL0     H66469  10.650   8.085   0.562  0.7067  1.2008 -0.6756
  482MOL0     H66470  10.362   8.174   0.531 -1.5421  0.2340 -2.4816
  482MOL0     H66471  10.483   8.214   0.421 -2.4573  0.9335 -1.1463
  482MOL0     H66472  10.343   8.003   0.361 -0.7693  2.1745  1.5202
  482MOL0     H66473  10.520   7.975   0.364  0.3136 -1.9187  2.1875
  482MOL0     H66474  10.334   7.681   0.621 -0.4286 -1.1235  2.5504
  482MOL0     H66475  10.158   7.504   0.689  0.1889 -0.3260  0.5079
  482MOL0     H66476   9.990   7.555   0.708  1.5265 -4.2240  0.1949
  482MOL0     H66477  10.099   7.599   0.831  1.3634  2.4003 -0.1670
  482MOL0     H66478   9.653   7.631   0.532  1.7125  0.9572 -1.4258
  482MOL0     H66479   9.393   7.618   0.520 -0.3066 -1.7698  1.0636
  482MOL0     H66480   9.090   7.834   0.430  0.5549 -0.5294 -2.6708
  482MOL0     H66481   9.243   7.754   0.399  1.2984 -0.7432  0.8289
  482MOL0     H66482   9.050   7.619   0.442 -0.4048  0.2488  0.8894
  482MOL0     H66483   9.191   7.590   0.549  0.8198  1.2362  1.2329
  482MOL0     H66484   8.940   7.761   0.608  1.4239 -0.1305  0.0930
  482MOL0     H66485   9.063   7.715   0.728  1.7686 -0.2162  0.5618
  482MOL0     H66486   9.031   7.484   0.688 -1.6673 -1.4449 -0.0971
  482MOL0     H66487   8.898   7.519   0.580 -0.3333  2.8671 -1.0420
  482MOL0     H66488   8.910   7.600   0.887  1.7199  2.9191 -1.4640
  482MOL0     H66489   8.784   7.661   0.780 -1.7185  0.1180  0.9705
  482MOL0     H66490   8.859   7.369   0.810  2.4124  1.6046  0.3971
  482MOL0     H66491   8.717   7.431   0.738  1.8411 -1.2391 -1.6646
  482MOL0     H66492   8.590   7.433   0.914 -0.0601 -0.2954  0.1043
  482MOL0     H66493   8.701   7.520   1.014 -0.1044  0.1665  0.0917
  482MOL0     H66494   8.624   7.301   1.111  0.5451  1.2368  0.5785
  482MOL0     H66495   8.798   7.319   1.097 -0.9995  2.1916 -0.5930
  482MOL0     H66496   9.378   8.010   0.691  0.3011  0.8504  0.3695
  482MOL0     H66497   9.644   8.020   0.698 -1.0521  1.0701 -4.3326
  482MOL0     H66498   9.966   7.997   0.530 -0.6254 -2.0128 -3.6969
  482MOL0     H66499  10.197   8.054   0.487 -1.1486  0.9838 -0.0167
  482MOL0     H66500  10.960   9.059   1.198 -0.5201  0.3108 -0.5254
  482MOL0     H66501  11.082   9.214   1.331  1.1319 -4.2439 -0.8739
  482MOL0     H66502  11.046   9.818   1.394  1.2720  1.1425  0.1194
  482MOL0     H66503  11.172  10.020   1.393  1.2950 -0.0819  1.2309
  482MOL0     H66504  11.399  10.077   1.543  0.0546 -1.9896 -0.8556
  482MOL0     H66505  11.549  10.106   1.477  0.3857 -0.6294  1.9510
  482MOL0     H66506  11.425  10.320   1.545 -2.1206  0.1023  1.5936
  482MOL0     H66507  11.299  10.291   1.420  0.0240  0.8861  0.4531
  482MOL0     H66508  11.597  10.334   1.396  0.0445 -2.8420  1.0926
  482MOL0     H66509  11.489  10.305   1.258  4.4151 -2.1516  0.7513
  482MOL0     H66510  11.477  10.525   1.479 -0.8418 -0.3602 -0.0762
  482MOL0     H66511  11.356  10.516   1.353  0.1886 -0.2179 -1.0264
  482MOL0     H66512  11.674  10.670   1.127  1.3695 -0.6270  1.1777
  482MOL0     H66513  11.518   9.825   1.261 -0.7194  1.9291 -0.6149
  482MOL0     H66514  11.528   9.566   1.271 -0.0220 -0.1705  0.5492
  482MOL0     H66515  11.398   9.459   1.263  0.5273 -0.4197 -0.3568
  482MOL0     H66516  11.419   9.564   1.125  0.1332 -1.1837 -0.7299
  483MOL0     O66517   5.570   8.898   7.500  0.1442  0.3267 -0.0887
  483MOL0     C66518   5.591   9.015   7.467 -0.1464 -0.1613 -0.3271
  483MOL0     O66519   5.632   9.060   7.347  0.1022  0.1702  0.6955
  483MOL0     C66520   5.631   8.982   7.235 -0.0202  0.6686 -0.3313
  483MOL0     C66521   5.751   8.966   7.158 -1.1819 -0.0407 -0.4356
  483MOL0     C66522   5.760   8.895   7.037  1.0324 -0.0484  0.7932
  483MOL0     C66523   5.645   8.828   6.992 -0.6752 -0.2185 -0.0045
  483MOL0     O66524   5.648   8.754   6.873  0.0644  0.1937 -0.0713
  483MOL0     C66525   5.690   8.618   6.885  0.4504 -0.0239  0.6580
  483MOL0     C66526   5.595   8.515   6.825 -0.2683 -0.0811  0.1471
  483MOL0     C66527   5.459   8.496   6.900  0.2091  0.0693  0.3863
  483MOL0     C66528   5.376   8.385   6.834 -0.9800  0.4883 -0.1225
  483MOL0     C66529   5.330   8.411   6.691 -0.2378  0.3833 -0.2862
  483MOL0     C66530   5.236   8.521   6.673  0.1026  1.0939  0.1222
  483MOL0     C66531   5.175   8.529   6.520 -0.1350 -0.3926 -0.3600
  483MOL0     C66532   5.271   8.599   6.425 -0.1618 -0.2419  0.6854
  483MOL0     N66533   5.291   8.746   6.446  0.7011  0.3060  0.5065
  483MOL0     C66534   5.404   8.810   6.475  0.4974  0.7774 -0.2560
  483MOL0     C66535   5.371   8.942   6.478 -0.2194  0.0942  0.4352
  483MOL0     C66536   5.474   9.039   6.520 -0.7810 -0.9719 -0.5735
  483MOL0     C66537   5.430   9.143   6.621  0.0175  0.0043  0.0605
  483MOL0     C66538   5.453   9.103   6.771 -0.7009  0.4336 -0.0178
  483MOL0     C66539   5.598   9.105   6.813 -0.5060  0.4503  0.6481
  483MOL0     O66540   5.660   9.227   6.771 -0.2420  0.0161  0.5970
  483MOL0     C66541   5.798   9.206   6.753  0.0919 -0.2486 -0.8232
  483MOL0     C66542   5.883   9.178   6.856  0.5785 -0.3670 -0.8649
  483MOL0     C66543   6.018   9.134   6.838  0.1381  0.0181  0.1416
  483MOL0     C66544   6.101   9.136   6.966 -0.1518 -0.1752 -0.9595
  483MOL0     C66545   6.067   9.125   6.708 -0.2752  0.8723 -0.8232
  483MOL0     C66546   6.208   9.064   6.680  0.1923  1.1803  0.7427
  483MOL0     O66547   6.238   9.044   6.555  0.0793 -0.7162  0.1953
  483MOL0     C66548   6.355   8.990   6.499  0.4025 -0.4858 -0.2364
  483MOL0     C66549   6.430   8.885   6.555 -0.1502 -0.6413 -0.4348
  483MOL0     C66550   6.541   8.852   6.486 -0.9213  0.1834  0.2018
  483MOL0     C66551   6.579   8.908   6.362 -0.1814 -0.5788 -0.5470
  483MOL0     O66552   6.690   8.858   6.298  0.3604  0.2822  0.2919
  483MOL0     C66553   6.809   8.842   6.374 -0.4157  0.8031  0.5207
  483MOL0     C66554   6.920   8.931   6.318 -0.6616 -0.3157  0.2816
  483MOL0     C66555   7.058   8.901   6.375  0.8118 -0.9036  0.0208
  483MOL0     C66556   7.180   8.968   6.299  0.7740  0.7259  0.0617
  483MOL0     C66557   7.315   8.919   6.339  0.8175 -0.4077  0.3517
  483MOL0     C66558   7.346   8.775   6.281 -0.4679  0.0085 -0.0270
  483MOL0     C66559   7.502   8.756   6.278  0.0919 -1.3624 -0.6481
  483MOL0     C66560   7.537   8.612   6.270 -0.8419 -1.0637 -1.1924
  483MOL0    Cl66561   7.530   8.562   6.103 -0.2534  0.0552  0.3901
  483MOL0     C66562   6.502   9.015   6.309 -0.1065  0.2509  0.4523
  483MOL0     C66563   6.391   9.054   6.377 -0.7104  0.4717  0.6009
  483MOL0     O66564   6.288   9.038   6.769 -0.0787 -0.1305 -0.3563
  483MOL0     C66565   5.980   9.158   6.599 -0.2661  0.0471  0.2496
  483MOL0     C66566   5.845   9.193   6.629  0.0482 -0.7259  0.7657
  483MOL0     N66567   5.240   8.957   6.456 -0.1826 -0.7612  0.2286
  483MOL0     N66568   5.187   8.847   6.439 -0.4631  0.6148  0.1451
  483MOL0     C66569   5.528   8.845   7.059 -0.0176 -0.2635 -0.8635
  483MOL0     C66570   5.511   8.928   7.173 -0.2311  0.9737  0.5057
  483MOL0     C66571   5.613   9.110   7.584  0.8430 -0.3448 -0.3989
  483MOL0     C66572   5.673   9.229   7.557  0.6625 -0.0039 -1.0056
  483MOL0     C66573   5.697   9.327   7.656 -0.5557 -0.2987  0.7582
  483MOL0     C66574   5.658   9.311   7.791 -0.4377 -0.3918 -0.0231
  483MOL0     O66575   5.693   9.408   7.890  0.9112  0.2975  0.1544
  483MOL0     C66576   5.778   9.515   7.871  0.1452 -0.0459 -0.5062
  483MOL0     C66577   5.846   9.579   7.994 -0.6094  0.0999  0.2971
  483MOL0     C66578   5.937   9.482   8.073  0.0716 -1.1637  0.1285
  483MOL0     C66579   5.852   9.374   8.137 -0.4424 -0.1749 -0.5729
  483MOL0     C66580   5.943   9.288   8.217  0.0968  0.8370 -0.5157
  483MOL0     C66581   6.022   9.200   8.264  0.0528  0.1261  0.2003
  483MOL0     C66582   5.580   9.198   7.820 -0.1294 -0.0906  0.1111
  483MOL0     C66583   5.555   9.101   7.721  0.8155  0.7706 -0.4690
  483MOL0     C66584   5.463   8.982   7.765 -0.6738 -0.4880 -0.2262
  483MOL0     H66585   5.837   9.030   7.176  0.6209 -2.7924  1.5632
  483MOL0     H66586   5.851   8.887   6.978  0.5311  1.2700 -0.2043
  483MOL0     H66587   5.725   8.594   6.986  1.4863  1.0783  0.5878
  483MOL0     H66588   5.771   8.595   6.814  1.0511 -1.1804  1.6898
  483MOL0     H66589   5.563   8.537   6.723 -2.1787  0.9665  0.9151
  483MOL0     H66590   5.656   8.425   6.827  1.8137  1.2657  0.5247
  483MOL0     H66591   5.471   8.476   7.007 -0.4176  0.2982  0.5026
  483MOL0     H66592   5.406   8.592   6.905  0.8173  0.4737 -0.5828
  483MOL0     H66593   5.443   8.299   6.832  0.7757  1.6409  2.6841
  483MOL0     H66594   5.295   8.354   6.901 -2.1943  1.4783 -1.0884
  483MOL0     H66595   5.271   8.321   6.671 -0.3578  0.1843  0.8888
  483MOL0     H66596   5.404   8.397   6.611 -0.8123  1.7614 -1.1025
  483MOL0     H66597   5.150   8.497   6.736  0.1700 -1.6016 -0.7061
  483MOL0     H66598   5.289   8.615   6.693 -0.2445  1.0766  1.1389
  483MOL0     H66599   5.086   8.591   6.533  2.3721  3.2206  1.2721
  483MOL0     H66600   5.161   8.424   6.494  0.3482 -0.8045  0.9509
  483MOL0     H66601   5.365   8.542   6.426 -0.8183 -1.3487  1.5991
  483MOL0     H66602   5.214   8.582   6.333 -1.1883 -0.2898  1.3215
  483MOL0     H66603   5.505   8.774   6.492  0.3012  1.3232  2.5814
  483MOL0     H66604   5.509   9.088   6.428  3.0012 -1.6871  0.3151
  483MOL0     H66605   5.559   8.981   6.557 -3.0767 -1.9872  3.6665
  483MOL0     H66606   5.485   9.234   6.596  0.1314 -0.4092 -1.2713
  483MOL0     H66607   5.323   9.163   6.619  0.1197  0.6524  0.6877
  483MOL0     H66608   5.408   9.179   6.835 -0.3779  0.7249 -0.1359
  483MOL0     H66609   5.404   9.007   6.792 -1.2349  0.0487 -2.6850
  483MOL0     H66610   5.602   9.107   6.923  2.8933  2.3962  0.6379
  483MOL0     H66611   5.649   9.014   6.783 -1.7438  0.5236 -1.8984
  483MOL0     H66612   5.839   9.199   6.953 -1.9042  2.8393 -2.4893
  483MOL0     H66613   6.191   9.197   6.949 -0.0043 -0.0597  0.1627
  483MOL0     H66614   6.130   9.033   6.990 -2.1017 -1.5373 -3.8285
  483MOL0     H66615   6.043   9.174   7.050 -1.5033 -2.0783 -0.9756
  483MOL0     H66616   6.391   8.841   6.647 -1.5960  2.2211  0.4541
  483MOL0     H66617   6.591   8.759   6.513 -1.9222 -0.8753 -1.3869
  483MOL0     H66618   6.801   8.859   6.482  0.3018  1.8657  0.4251
  483MOL0     H66619   6.838   8.737   6.381 -1.8829  0.3769  0.5089
  483MOL0     H66620   6.922   8.928   6.209  0.5135  0.2630  0.2710
  483MOL0     H66621   6.897   9.029   6.360  0.0868  0.0836 -0.2168
  483MOL0     H66622   7.075   8.793   6.376  1.7245 -0.8005  2.1034
  483MOL0     H66623   7.065   8.935   6.479 -0.1760 -0.8121  0.0657
  483MOL0     H66624   7.187   9.075   6.319 -0.9366  0.4076  3.0944
  483MOL0     H66625   7.161   8.950   6.193 -1.5040 -0.0975  0.5520
  483MOL0     H66626   7.370   8.978   6.265 -2.5257  1.6741 -0.6882
  483MOL0     H66627   7.335   8.933   6.445  3.5123  0.6676 -0.2216
  483MOL0     H66628   7.299   8.774   6.182  2.0910 -0.7876 -1.3077
  483MOL0     H66629   7.300   8.699   6.346 -0.8303  1.1145  1.0631
  483MOL0     H66630   7.541   8.798   6.371 -1.3085 -1.8449  0.1948
  483MOL0     H66631   7.535   8.803   6.185 -2.5020  0.0770 -0.9382
  483MOL0     H66632   7.493   8.547   6.346 -0.6017  0.8668  0.6908
  483MOL0     H66633   7.645   8.618   6.286 -1.0738 -0.5592  0.3264
  483MOL0     H66634   6.525   9.037   6.205 -0.0787 -4.4146 -0.7566
  483MOL0     H66635   6.329   9.131   6.333 -1.5091  0.0869  1.0270
  483MOL0     H66636   6.001   9.133   6.495 -2.0535  0.1427 -0.1779
  483MOL0     H66637   5.787   9.208   6.539  0.7652 -2.0008  0.0687
  483MOL0     H66638   5.437   8.813   7.009 -0.6435 -1.7174  1.0632
  483MOL0     H66639   5.422   8.940   7.234  0.5917  2.2416  1.5063
  483MOL0     H66640   5.686   9.261   7.454 -1.0070 -1.1496 -1.6172
  483MOL0     H66641   5.746   9.418   7.624  1.0161 -0.6574  2.0183
  483MOL0     H66642   5.854   9.486   7.798  0.6800  0.1569 -0.0370
  483MOL0     H66643   5.716   9.595   7.828 -3.8548 -2.0865  0.9477
  483MOL0     H66644   5.779   9.631   8.063  0.1184  0.8254  0.4665
  483MOL0     H66645   5.911   9.658   7.956 -1.5740  0.9929  0.4413
  483MOL0     H66646   6.010   9.446   8.001 -0.3858  1.3025 -1.6957
  483MOL0     H66647   5.985   9.537   8.155  2.4518 -0.6130 -1.5259
  483MOL0     H66648   5.805   9.307   8.065 -1.0094 -1.4669  0.9489
  483MOL0     H66649   5.786   9.418   8.211  0.4140 -1.3351  0.9255
  483MOL0     H66650   6.091   9.129   8.305  0.6483  0.3873 -0.3232
  483MOL0     H66651   5.557   9.171   7.922  1.4906 -0.2604  0.4593
  483MOL0     H66652   5.370   9.030   7.797  0.3777  0.2205  1.9604
  483MOL0     H66653   5.434   8.918   7.681 -0.3644 -0.4695 -0.3505
  483MOL0     H66654   5.505   8.918   7.844 -0.0758 -0.3648 -0.4380
  484MOL0     O66655   2.337   3.378   0.088 -0.4307 -0.2782  0.2461
  484MOL0     C66656   2.222   3.417   0.108  0.9226 -1.0610 -0.5424
  484MOL0     O66657   2.108   3.377   0.043 -0.3396  0.9949 -0.2556
  484MOL0     C66658   2.122   3.285  -0.057  0.7690  0.5112  0.0839
  484MOL0     C66659   2.076   3.161  -0.058 -0.1991  0.2069  0.6901
  484MOL0     C66660   2.058   3.089  -0.177  0.3532  0.2004  0.0519
  484MOL0     C66661   2.105   3.141  -0.294 -0.3467 -0.1802  0.0356
  484MOL0     O66662   2.108   3.053  -0.397  0.0033  0.2432  0.5571
  484MOL0     C66663   2.105   3.095  -0.530  0.7008  0.7674  0.1554
  484MOL0     C66664   1.962   3.085  -0.592  0.0674 -0.4938 -0.0849
  484MOL0     C66665   1.966   3.098  -0.741 -0.0542 -0.4197  0.6701
  484MOL0     C66666   1.816   3.086  -0.797 -0.0680  0.7683  0.6477
  484MOL0     C66667   1.784   3.067  -0.940 -0.9867 -0.2761 -0.0876
  484MOL0     C66668   1.860   3.165  -1.028 -0.0459  0.2999  0.2445
  484MOL0     C66669   1.826   3.173  -1.177  0.3598 -0.8894  0.2627
  484MOL0     C66670   1.826   3.049  -1.269  0.3092  0.5471 -0.0431
  484MOL0     N66671   1.706   2.966  -1.242  0.0859  0.0666 -0.0426
  484MOL0     C66672   1.593   2.995  -1.320  0.1698  0.3145 -0.8908
  484MOL0     C66673   1.500   2.909  -1.273 -0.6818  0.5908 -0.1060
  484MOL0     C66674   1.362   2.910  -1.332 -0.1748  0.1015 -0.1079
  484MOL0     C66675   1.341   2.831  -1.466 -1.2993 -0.0501 -0.3196
  484MOL0     C66676   1.192   2.834  -1.510  0.0677  0.9529 -0.7213
  484MOL0     C66677   1.179   2.724  -1.616  0.0463  0.5724 -0.0163
  484MOL0     O66678   1.274   2.748  -1.720 -0.2522  0.0492  0.7515
  484MOL0     C66679   1.215   2.788  -1.845 -1.4854  0.3665 -0.0966
  484MOL0     C66680   1.285   2.879  -1.928 -0.7841  0.9245 -1.2916
  484MOL0     C66681   1.254   2.915  -2.061 -0.4152  0.3141 -0.6895
  484MOL0     C66682   1.333   3.028  -2.137  0.7430 -0.5405  0.0959
  484MOL0     C66683   1.144   2.851  -2.107  0.2406 -0.0006  0.5184
  484MOL0     C66684   1.098   2.860  -2.248  0.0150 -0.3645 -0.5572
  484MOL0     O66685   0.965   2.829  -2.282  0.9310  0.3902 -0.7993
  484MOL0     C66686   0.913   2.805  -2.405  0.0985 -0.4043  0.3792
  484MOL0     C66687   0.978   2.745  -2.521  0.2913 -0.4963 -0.3791
  484MOL0     C66688   0.913   2.719  -2.640  0.9367  0.6435  0.1135
  484MOL0     C66689   0.781   2.739  -2.654  0.3485 -0.0061 -0.8980
  484MOL0     O66690   0.720   2.699  -2.771 -0.3463  0.2695 -1.1277
  484MOL0     C66691   0.580   2.701  -2.766 -0.0619 -0.1374 -1.0472
  484MOL0     C66692   0.514   2.622  -2.877 -0.2704  0.5986 -0.2892
  484MOL0     C66693   0.533   2.474  -2.898  0.5848  0.0371 -0.1367
  484MOL0     C66694   0.437   2.384  -2.817  0.6669  0.5499  0.0597
  484MOL0     C66695   0.428   2.232  -2.857 -0.2524  0.3045 -0.2863
  484MOL0     C66696   0.363   2.141  -2.753  0.1384  0.1756  0.5384
  484MOL0     C66697   0.355   1.992  -2.806  0.5103 -0.5176 -0.2395
  484MOL0     C66698   0.228   1.936  -2.745  0.0684  0.3539 -0.0421
  484MOL0    Cl66699   0.236   1.763  -2.774 -0.1073 -0.1702 -0.1897
  484MOL0     C66700   0.708   2.792  -2.541  0.7695  0.5564  0.1635
  484MOL0     C66701   0.774   2.830  -2.421  0.7372  0.0304  0.4456
  484MOL0     O66702   1.182   2.882  -2.333 -0.0379  0.1447  0.6124
  484MOL0     C66703   1.068   2.755  -2.034 -0.2115  0.0496 -0.7884
  484MOL0     C66704   1.112   2.725  -1.912  0.9865 -0.5460 -0.6114
  484MOL0     N66705   1.564   2.813  -1.183  0.5137 -0.4440  1.3568
  484MOL0     N66706   1.688   2.853  -1.171 -0.2002  0.2819 -0.1873
  484MOL0     C66707   2.163   3.269  -0.298  0.3791  0.1168  0.9355
  484MOL0     C66708   2.160   3.346  -0.180  0.2244  0.2086 -0.4423
  484MOL0     C66709   2.192   3.520   0.210 -0.7182  0.4115  0.1036
  484MOL0     C66710   2.092   3.616   0.175 -0.2804  0.7216 -0.5894
  484MOL0     C66711   2.061   3.709   0.271  0.3742  0.7479  1.3940
  484MOL0     C66712   2.122   3.722   0.391  0.0007 -0.0258  0.5014
  484MOL0     O66713   2.094   3.835   0.463 -0.1490  0.4662  0.2121
  484MOL0     C66714   2.156   3.848   0.592  0.4528 -0.1150 -0.0249
  484MOL0     C66715   2.134   3.988   0.644  0.1731  0.3287  0.1652
  484MOL0     C66716   2.216   4.014   0.771 -0.6587 -0.2957 -0.5386
  484MOL0     C66717   2.181   3.930   0.892  0.0815  0.5314  0.5128
  484MOL0     C66718   2.228   3.998   1.008 -0.9572 -0.3982 -1.1087
  484MOL0     C66719   2.262   4.048   1.119  0.7529  0.1410  0.3651
  484MOL0     C66720   2.215   3.621   0.426 -0.7924 -0.1127 -0.3605
  484MOL0     C66721   2.257   3.521   0.338  0.0987 -0.8329  0.3123
  484MOL0     C66722   2.336   3.412   0.394 -0.6964 -0.7247  0.4492
  484MOL0     H66723   2.038   3.117   0.034 -0.1795 -2.4283 -0.4642
  484MOL0     H66724   2.006   2.995  -0.193 -1.0757  1.0715 -0.6202
  484MOL0     H66725   2.167   3.033  -0.595  0.2899 -1.6112  1.8902
  484MOL0     H66726   2.146   3.195  -0.546 -1.5592  1.9830  1.4787
  484MOL0     H66727   1.894   3.004  -0.562 -0.9870  1.5354  3.5057
  484MOL0     H66728   1.903   3.171  -0.561 -2.5251 -1.2362 -2.4643
  484MOL0     H66729   2.020   3.188  -0.772 -2.6058  0.9138 -0.2084
  484MOL0     H66730   2.026   3.017  -0.784  0.4968 -1.0101  2.5042
  484MOL0     H66731   1.770   3.002  -0.744 -0.5904  0.1584 -0.7232
  484MOL0     H66732   1.758   3.177  -0.781 -0.4179  0.4005  1.5456
  484MOL0     H66733   1.680   3.091  -0.963 -0.2321  0.9565 -2.6667
  484MOL0     H66734   1.823   2.970  -0.971  0.1677  0.4106 -0.9141
  484MOL0     H66735   1.854   3.269  -0.993 -1.7714  0.7041 -1.0782
  484MOL0     H66736   1.964   3.131  -1.036  0.2618  0.9444  1.3673
  484MOL0     H66737   1.904   3.242  -1.212  0.3553 -0.8328  0.3645
  484MOL0     H66738   1.739   3.237  -1.196 -0.1243 -1.3041  1.0190
  484MOL0     H66739   1.820   3.099  -1.366  3.9564  1.4454  0.0336
  484MOL0     H66740   1.921   2.994  -1.272  0.5657  1.0080 -0.7097
  484MOL0     H66741   1.577   3.079  -1.386  0.7827  1.5538  0.4711
  484MOL0     H66742   1.324   3.012  -1.332 -0.6777 -0.0801 -0.4277
  484MOL0     H66743   1.315   2.851  -1.253 -2.1032 -0.8538 -1.8660
  484MOL0     H66744   1.409   2.880  -1.536 -2.0734  1.0043 -0.3638
  484MOL0     H66745   1.376   2.730  -1.446 -1.0822 -0.3312 -1.9611
  484MOL0     H66746   1.143   2.816  -1.414  2.6382  1.0704  0.7114
  484MOL0     H66747   1.162   2.927  -1.558 -0.3165  1.6796  0.8879
  484MOL0     H66748   1.200   2.635  -1.556 -3.0983  0.5418  1.2034
  484MOL0     H66749   1.075   2.716  -1.648  0.2844  0.6432 -0.8197
  484MOL0     H66750   1.367   2.923  -1.873 -0.4016 -1.6307  0.3584
  484MOL0     H66751   1.282   3.094  -2.208  1.5083  1.0210  0.9393
  484MOL0     H66752   1.424   2.981  -2.176  0.0826 -1.7888  0.0054
  484MOL0     H66753   1.365   3.102  -2.063 -0.5563 -0.6751  0.8133
  484MOL0     H66754   1.084   2.725  -2.513  1.0296  1.7885 -2.9543
  484MOL0     H66755   0.985   2.682  -2.712  0.4134  2.9740 -1.7066
  484MOL0     H66756   0.549   2.663  -2.668  1.3431  0.3515 -0.3911
  484MOL0     H66757   0.557   2.808  -2.769  0.7963  0.0702 -0.5052
  484MOL0     H66758   0.409   2.650  -2.876 -0.1881  0.8982  0.4151
  484MOL0     H66759   0.553   2.679  -2.962 -1.4943  0.1931 -1.1428
  484MOL0     H66760   0.641   2.452  -2.892  0.5867 -0.7160 -2.0441
  484MOL0     H66761   0.510   2.445  -3.001 -0.8584  1.4511 -0.2431
  484MOL0     H66762   0.338   2.429  -2.828  2.1462  3.3488 -4.9433
  484MOL0     H66763   0.454   2.386  -2.709  0.7899 -2.3295  0.1935
  484MOL0     H66764   0.373   2.235  -2.951 -0.4735  2.3654 -0.1328
  484MOL0     H66765   0.531   2.195  -2.862 -1.2221 -2.6090 -0.7927
  484MOL0     H66766   0.262   2.178  -2.736 -0.5312 -2.3781  2.8710
  484MOL0     H66767   0.417   2.142  -2.657  0.0715  3.0633  0.6394
  484MOL0     H66768   0.449   1.939  -2.789  1.1227  0.8463  0.7720
  484MOL0     H66769   0.344   2.001  -2.915  2.1394 -2.2457 -0.6116
  484MOL0     H66770   0.136   1.974  -2.791 -1.3688 -0.6881  1.8176
  484MOL0     H66771   0.212   1.965  -2.641  1.4559  0.2133  0.2267
  484MOL0     H66772   0.602   2.817  -2.537  0.7929  0.5621  3.7322
  484MOL0     H66773   0.741   2.869  -2.325  2.6336  1.3801  0.6110
  484MOL0     H66774   0.980   2.710  -2.079 -1.2814  0.4330  0.8567
  484MOL0     H66775   1.102   2.638  -1.848  1.0249  0.2934  0.5963
  484MOL0     H66776   2.199   3.317  -0.388 -0.3263  1.5081  1.3657
  484MOL0     H66777   2.216   3.439  -0.180  1.8472 -0.7134  1.1923
  484MOL0     H66778   2.046   3.622   0.077 -0.5067 -1.1310 -0.6350
  484MOL0     H66779   1.996   3.787   0.233 -0.6628  0.4673  2.5443
  484MOL0     H66780   2.107   3.769   0.650 -1.5593 -0.6221 -2.2642
  484MOL0     H66781   2.264   3.832   0.600  0.5602  1.4959  3.7380
  484MOL0     H66782   2.028   4.003   0.666 -0.2054 -2.8950  1.0705
  484MOL0     H66783   2.171   4.064   0.574 -0.0619 -0.1232 -0.4613
  484MOL0     H66784   2.320   3.991   0.747  0.4104  3.6580 -0.3551
  484MOL0     H66785   2.206   4.120   0.795 -0.4702  0.3340 -2.9602
  484MOL0     H66786   2.243   3.840   0.889  0.0267  0.5150 -0.3586
  484MOL0     H66787   2.072   3.919   0.892  0.0670  0.2975 -1.6255
  484MOL0     H66788   2.289   4.086   1.215 -3.2525  0.9080  1.3614
  484MOL0     H66789   2.254   3.620   0.528 -0.4681 -3.8784 -0.3711
  484MOL0     H66790   2.426   3.404   0.333 -1.0669  2.8054 -0.7914
  484MOL0     H66791   2.362   3.415   0.501  0.4491 -1.9440  0.2248
  484MOL0     H66792   2.274   3.323   0.377 -2.2581 -0.2373  2.9439
  485MOL0     O66793   8.145   9.935   2.185 -0.7630  0.4005  0.0346
  485MOL0     C66794   8.178  10.044   2.139 -0.4079 -0.2511 -0.5432
  485MOL0     O66795   8.278  10.069   2.046  0.0324  0.7996 -0.3034
  485MOL0     C66796   8.379   9.976   2.024  0.2765 -0.3168 -0.8650
  485MOL0     C66797   8.445   9.978   1.905  0.7949  0.1758  0.8737
  485MOL0     C66798   8.570   9.913   1.882 -0.3247 -0.3204  0.3712
  485MOL0     C66799   8.624   9.843   1.984 -0.4276  0.1937 -0.5208
  485MOL0     O66800   8.751   9.795   1.958 -0.2221  0.6522 -0.3231
  485MOL0     C66801   8.819   9.733   2.064 -0.0516  0.2928 -0.9322
  485MOL0     C66802   8.949   9.662   2.016  0.1021  0.8097 -0.8636
  485MOL0     C66803   9.053   9.758   2.002  0.3566  0.4003  0.0606
  485MOL0     C66804   9.172   9.707   1.941 -1.4027 -0.1942 -0.0311
  485MOL0     C66805   9.281   9.810   1.951 -0.2584  0.2565  0.2117
  485MOL0     C66806   9.421   9.756   1.918  0.5877 -0.3043 -0.0476
  485MOL0     C66807   9.532   9.863   1.933 -0.4339  1.1133 -0.5574
  485MOL0     C66808   9.597   9.879   2.069 -0.8563  0.2936  0.3823
  485MOL0     N66809   9.660  10.009   2.078  0.5701 -0.2802 -1.1378
  485MOL0     C66810   9.578  10.117   2.094 -0.3114  0.4375 -0.4606
  485MOL0     C66811   9.658  10.221   2.078 -0.3115 -0.8147  0.0059
  485MOL0     C66812   9.627  10.367   2.084  0.5145 -0.3851  0.1586
  485MOL0     C66813   9.717  10.454   2.000  0.9254 -0.8290 -0.0740
  485MOL0     C66814   9.664  10.602   1.983  0.8318  0.1028  0.4440
  485MOL0     C66815   9.556  10.611   1.869  0.7277 -0.4848  0.5939
  485MOL0     O66816   9.482  10.738   1.867 -0.3510 -0.0296 -1.1084
  485MOL0     C66817   9.392  10.754   1.764 -0.0436 -1.2333  0.1079
  485MOL0     C66818   9.412  10.866   1.679  0.7739 -0.1177 -0.4311
  485MOL0     C66819   9.314  10.907   1.587  0.6093 -1.0045  0.0091
  485MOL0     C66820   9.333  11.044   1.513  1.4371  0.0845 -0.2361
  485MOL0     C66821   9.190  10.840   1.581 -0.1437 -1.0473 -0.3881
  485MOL0     C66822   9.099  10.876   1.474  0.0558  0.4768  0.1664
  485MOL0     O66823   8.966  10.867   1.504 -0.3921  0.6121 -0.6060
  485MOL0     C66824   8.877  10.929   1.427  0.1972 -0.0056  1.4555
  485MOL0     C66825   8.773  10.851   1.367 -0.1705 -0.0593 -0.0212
  485MOL0     C66826   8.671  10.901   1.292  0.0924 -0.2816  0.3330
  485MOL0     C66827   8.668  11.041   1.268 -0.6278 -0.2600  0.2035
  485MOL0     O66828   8.567  11.098   1.204 -0.0792  0.7045 -0.2958
  485MOL0     C66829   8.435  11.035   1.242  0.7543  0.0578  0.7005
  485MOL0     C66830   8.324  11.134   1.216  0.9341 -0.0882  0.0906
  485MOL0     C66831   8.203  11.095   1.296 -0.0964  0.2844 -0.4939
  485MOL0     C66832   8.082  11.166   1.249  0.7566 -2.0211  1.3799
  485MOL0     C66833   7.949  11.119   1.311 -0.0219 -0.0790  0.2841
  485MOL0     C66834   7.915  11.194   1.445  0.5898  0.0692  0.8933
  485MOL0     C66835   7.825  11.118   1.551 -0.3043 -0.9233 -0.1950
  485MOL0     C66836   7.718  11.216   1.619  0.3420  0.0486 -0.1516
  485MOL0    Cl66837   7.670  11.123   1.766  0.1348 -0.1917 -0.1160
  485MOL0     C66838   8.771  11.124   1.319  0.2404 -0.1482 -0.3428
  485MOL0     C66839   8.872  11.064   1.402  0.2882  0.8325  0.7934
  485MOL0     O66840   9.139  10.917   1.365  0.4040 -0.3155 -0.2544
  485MOL0     C66841   9.171  10.735   1.667  0.3891  0.7526 -0.5443
  485MOL0     C66842   9.270  10.692   1.755 -0.3290 -0.1787  0.4229
  485MOL0     N66843   9.786  10.169   2.043  0.1791 -0.6852  0.3870
  485MOL0     N66844   9.788  10.039   2.044 -0.1436  0.0866 -0.0342
  485MOL0     C66845   8.556   9.834   2.108 -1.2586 -0.5554  0.0915
  485MOL0     C66846   8.432   9.905   2.133 -0.1934  0.5082 -0.0789
  485MOL0     C66847   8.114  10.164   2.184  0.3414  0.0763 -0.6747
  485MOL0     C66848   8.194  10.282   2.181 -0.2059  0.4712 -0.3401
  485MOL0     C66849   8.141  10.404   2.235  0.2744  0.5041  0.0080
  485MOL0     C66850   8.009  10.412   2.279  0.0441  0.2838 -0.3332
  485MOL0     O66851   7.976  10.527   2.345  0.3439 -0.2580 -0.8819
  485MOL0     C66852   7.831  10.546   2.379 -0.7862 -0.0635 -0.0731
  485MOL0     C66853   7.775  10.682   2.331  0.1444 -0.5130  0.4958
  485MOL0     C66854   7.624  10.684   2.332 -0.7104  0.6430 -0.2141
  485MOL0     C66855   7.559  10.665   2.470  0.6635  0.7232  0.2398
  485MOL0     C66856   7.609  10.767   2.565 -0.0590  0.2732  0.3781
  485MOL0     C66857   7.649  10.849   2.648  0.1250 -0.5344  0.8125
  485MOL0     C66858   7.932  10.291   2.289 -0.3441  0.7942  0.1912
  485MOL0     C66859   7.983  10.172   2.240 -0.3865  0.3845 -0.6066
  485MOL0     C66860   7.888  10.050   2.252  0.2954  0.5691 -0.0563
  485MOL0     H66861   8.405  10.041   1.826  0.0991  0.0400  1.1113
  485MOL0     H66862   8.616   9.921   1.784  2.7139  1.8838  1.8517
  485MOL0     H66863   8.761   9.654   2.113 -1.3282  1.2621 -0.8162
  485MOL0     H66864   8.837   9.820   2.128  1.1514 -0.7847  0.2364
  485MOL0     H66865   8.984   9.584   2.084  0.6299  1.5887 -0.2300
  485MOL0     H66866   8.914   9.620   1.921 -1.7787  0.2340  0.0211
  485MOL0     H66867   9.013   9.847   1.952 -1.5359  1.0523  2.5282
  485MOL0     H66868   9.080   9.795   2.101 -1.2472  1.7211  0.0566
  485MOL0     H66869   9.210   9.623   2.000 -2.5362 -0.8837 -0.2657
  485MOL0     H66870   9.161   9.674   1.837 -0.8018 -2.9980  0.7029
  485MOL0     H66871   9.283   9.863   2.046  0.4580  1.3143 -0.3794
  485MOL0     H66872   9.254   9.894   1.887  1.5623  0.6614 -0.0860
  485MOL0     H66873   9.450   9.673   1.983 -1.4295 -0.6158  0.5195
  485MOL0     H66874   9.399   9.733   1.813 -1.3814  4.8171 -1.0517
  485MOL0     H66875   9.499   9.961   1.897 -0.3542  1.4609  0.2911
  485MOL0     H66876   9.615   9.846   1.864  0.5486  4.3879 -0.3949
  485MOL0     H66877   9.518   9.881   2.145 -0.9557 -2.0997  0.4239
  485MOL0     H66878   9.671   9.803   2.095 -2.6129 -1.0035  1.9030
  485MOL0     H66879   9.472  10.112   2.117 -0.4623 -1.2699 -1.3851
  485MOL0     H66880   9.621  10.399   2.189 -1.9174  0.1010 -0.0669
  485MOL0     H66881   9.523  10.368   2.049 -0.2371  0.6611  2.2591
  485MOL0     H66882   9.811  10.467   2.055 -0.5731 -0.2074  2.5130
  485MOL0     H66883   9.713  10.405   1.902 -1.7307 -0.5388 -0.1974
  485MOL0     H66884   9.613  10.649   2.068  2.0459  0.3196  1.0784
  485MOL0     H66885   9.749  10.665   1.958 -0.9177  1.8368 -1.4727
  485MOL0     H66886   9.607  10.590   1.775 -1.1069  1.9725 -1.0726
  485MOL0     H66887   9.488  10.525   1.873 -0.3799  0.3468 -0.1376
  485MOL0     H66888   9.488  10.937   1.710  0.4838  0.8222 -1.7875
  485MOL0     H66889   9.322  11.040   1.404  1.1745  1.1074 -0.2634
  485MOL0     H66890   9.431  11.087   1.535  1.5672 -0.2882 -0.0820
  485MOL0     H66891   9.260  11.118   1.546  0.5589 -1.8885  2.6043
  485MOL0     H66892   8.771  10.744   1.386 -1.9676 -0.1702 -0.6924
  485MOL0     H66893   8.592  10.833   1.266 -0.7097  1.9030 -3.7661
  485MOL0     H66894   8.429  10.947   1.178  0.9428  1.3275 -1.1310
  485MOL0     H66895   8.433  11.009   1.348 -0.8315  2.2989  1.2958
  485MOL0     H66896   8.362  11.230   1.251  0.2394  0.5794 -0.9430
  485MOL0     H66897   8.306  11.136   1.108  4.9262 -0.5465 -0.7398
  485MOL0     H66898   8.212  11.116   1.403 -3.7190  0.2442 -0.0676
  485MOL0     H66899   8.196  10.986   1.286  2.0982  0.1282 -0.8976
  485MOL0     H66900   8.059  11.147   1.144 -4.6852  2.1876  1.4055
  485MOL0     H66901   8.101  11.273   1.264 -2.1879 -1.4793  1.7229
  485MOL0     H66902   7.864  11.146   1.247  0.3508 -2.5159 -1.3587
  485MOL0     H66903   7.932  11.011   1.319 -0.6960  0.0403  0.5837
  485MOL0     H66904   7.863  11.285   1.413  1.1074 -0.2437 -0.9693
  485MOL0     H66905   8.012  11.220   1.489  0.3077  0.3718  1.3533
  485MOL0     H66906   7.896  11.099   1.631  2.1962  3.9211 -0.8209
  485MOL0     H66907   7.773  11.030   1.513 -3.5895  0.9598 -0.4042
  485MOL0     H66908   7.633  11.253   1.561 -1.6121  1.1871  3.1658
  485MOL0     H66909   7.757  11.312   1.653 -1.6860  1.2987 -1.1451
  485MOL0     H66910   8.772  11.232   1.305  2.4967 -0.2623 -1.6580
  485MOL0     H66911   8.962  11.107   1.443  2.0150  0.2443 -2.0722
  485MOL0     H66912   9.070  10.696   1.673  1.0132 -1.0075 -0.6498
  485MOL0     H66913   9.248  10.606   1.818 -2.7184  2.3654  3.3256
  485MOL0     H66914   8.594   9.770   2.187  2.3651 -0.9931 -1.8104
  485MOL0     H66915   8.379   9.909   2.228 -1.7585  0.0876 -0.9113
  485MOL0     H66916   8.295  10.279   2.142  0.3877 -0.0105  1.1593
  485MOL0     H66917   8.200  10.494   2.249 -0.7002  0.7956  2.8224
  485MOL0     H66918   7.774  10.465   2.334  1.1026 -0.7901 -1.3131
  485MOL0     H66919   7.807  10.541   2.486 -2.4157 -0.6695 -0.4459
  485MOL0     H66920   7.817  10.703   2.232  1.7282  0.2932  1.2884
  485MOL0     H66921   7.810  10.757   2.403 -0.2746  1.1620 -0.9742
  485MOL0     H66922   7.590  10.779   2.287  3.4245  1.5520 -1.8267
  485MOL0     H66923   7.585  10.607   2.265  0.2543 -2.0630  2.1356
  485MOL0     H66924   7.576  10.564   2.509  1.4452 -0.3650 -2.6892
  485MOL0     H66925   7.450  10.665   2.458  0.4026 -4.5804 -0.0580
  485MOL0     H66926   7.694  10.929   2.703  2.8694 -2.0244  0.8970
  485MOL0     H66927   7.833  10.292   2.333  0.0509 -0.0286  1.1082
  485MOL0     H66928   7.935   9.972   2.312 -1.5981 -1.1433 -0.6772
  485MOL0     H66929   7.790  10.070   2.296  0.5194  1.4377  0.0760
  485MOL0     H66930   7.861  10.005   2.156 -1.6389 -0.0202  0.7132
  486MOL0     O66931   0.044   2.404   8.741 -0.0185 -0.4133 -0.3459
  486MOL0     C66932   0.086   2.502   8.801 -0.3006  0.2269  0.3078
  486MOL0     O66933   0.123   2.494   8.932 -0.9638 -0.9080 -0.2294
  486MOL0     C66934   0.123   2.371   8.998 -0.2706 -0.8779  0.4123
  486MOL0     C66935   0.243   2.344   9.059 -0.9203 -0.3155 -0.0376
  486MOL0     C66936   0.273   2.227   9.127  0.3668 -0.4215  0.1259
  486MOL0     C66937   0.172   2.134   9.132  0.1030 -0.2931 -0.4412
  486MOL0     O66938   0.220   2.023   9.197 -0.9411 -0.4710 -0.5454
  486MOL0     C66939   0.110   1.942   9.249 -0.5599 -0.5298 -0.2003
  486MOL0     C66940   0.150   1.818   9.330  0.0022  0.6094  0.4054
  486MOL0     C66941   0.240   1.734   9.238 -0.4160  0.2665  0.4559
  486MOL0     C66942   0.275   1.601   9.302 -0.3882  0.2844 -0.0172
  486MOL0     C66943   0.356   1.510   9.211 -0.3504 -0.3089 -0.1910
  486MOL0     C66944   0.364   1.366   9.262 -0.0991 -0.1811  1.2254
  486MOL0     C66945   0.429   1.258   9.158 -0.6096  0.4122 -0.6566
  486MOL0     C66946   0.317   1.165   9.100 -0.9823 -0.3277 -0.7651
  486MOL0     N66947   0.216   1.234   9.016 -0.7217  0.1922 -0.3131
  486MOL0     C66948   0.239   1.258   8.887 -0.1212 -1.0538 -0.0035
  486MOL0     C66949   0.133   1.333   8.842 -0.2971  0.4760  0.3707
  486MOL0     C66950   0.100   1.390   8.707  0.5829  0.3654 -0.1192
  486MOL0     C66951   0.239   1.435   8.639  0.8267 -0.5338  0.2339
  486MOL0     C66952   0.209   1.521   8.509  0.2826  0.7579 -0.3233
  486MOL0     C66953   0.324   1.540   8.417 -0.2699  0.5661 -1.4687
  486MOL0     O66954   0.443   1.575   8.495 -0.1524 -0.1413 -0.3572
  486MOL0     C66955   0.527   1.651   8.415  0.1032  0.4528  0.5847
  486MOL0     C66956   0.552   1.786   8.446  0.0265 -0.5049  0.0140
  486MOL0     C66957   0.619   1.879   8.359  0.2142  0.8778  0.7594
  486MOL0     C66958   0.611   2.026   8.382  0.0856  0.9202  0.6340
  486MOL0     C66959   0.685   1.818   8.247  0.1150 -0.1843  0.5381
  486MOL0     C66960   0.751   1.906   8.145 -1.2526  0.6893  0.8256
  486MOL0     O66961   0.789   1.840   8.035  0.6494  0.0457  0.3913
  486MOL0     C66962   0.885   1.899   7.953  0.3902  0.6970 -0.0689
  486MOL0     C66963   1.009   1.847   7.949 -0.3103  0.1813  0.3210
  486MOL0     C66964   1.104   1.895   7.864 -0.1384  0.3894  0.2520
  486MOL0     C66965   1.066   1.989   7.765  0.1019 -1.2414 -0.1659
  486MOL0     O66966   1.167   2.002   7.671 -0.6274  0.3721 -0.1537
  486MOL0     C66967   1.128   2.064   7.546 -1.5504 -0.0211  0.4543
  486MOL0     C66968   1.269   2.071   7.473 -0.0643 -0.4770 -0.6245
  486MOL0     C66969   1.315   1.946   7.405 -1.1300  0.1379 -0.5928
  486MOL0     C66970   1.450   1.964   7.348 -0.7570  0.0560  0.7457
  486MOL0     C66971   1.466   2.036   7.211  0.2455  0.3381 -0.4264
  486MOL0     C66972   1.606   2.048   7.160  0.3715 -0.3169  0.2195
  486MOL0     C66973   1.667   1.915   7.122 -0.2333  0.1156 -0.1367
  486MOL0     C66974   1.802   1.945   7.054  0.1023  0.6995 -1.0785
  486MOL0    Cl66975   1.877   1.785   7.019 -0.1089  0.0487  0.3000
  486MOL0     C66976   0.933   2.041   7.757 -0.3027  0.1565 -0.0543
  486MOL0     C66977   0.840   1.986   7.852 -0.0222 -0.4205 -0.1872
  486MOL0     O66978   0.788   2.023   8.168 -0.8282  0.5779 -0.7883
  486MOL0     C66979   0.668   1.678   8.212  0.2167  0.1404 -0.6356
  486MOL0     C66980   0.586   1.601   8.297  0.5794  0.3225 -0.9881
  486MOL0     N66981   0.053   1.344   8.947 -0.0662 -1.0344 -0.4533
  486MOL0     N66982   0.098   1.285   9.049  0.0826 -0.1005 -0.4342
  486MOL0     C66983   0.043   2.165   9.077  0.1274  0.2031 -0.4847
  486MOL0     C66984   0.012   2.281   9.011  0.2071 -1.3793 -0.3422
  486MOL0     C66985   0.116   2.626   8.720  1.0512 -0.4749  0.5896
  486MOL0     C66986   0.140   2.745   8.795  0.0953 -0.2211 -0.0000
  486MOL0     C66987   0.184   2.866   8.732  0.5489 -1.1468 -0.1919
  486MOL0     C66988   0.208   2.872   8.604 -0.2698  0.2035  0.6707
  486MOL0     O66989   0.239   2.992   8.553 -0.3927 -0.4477 -0.1257
  486MOL0     C66990   0.368   3.050   8.588 -0.2219  0.5950 -0.2752
  486MOL0     C66991   0.465   2.975   8.503 -0.7612 -1.2500  0.1864
  486MOL0     C66992   0.590   3.070   8.489 -0.2630  0.3090 -0.6394
  486MOL0     C66993   0.582   3.170   8.374  0.3790  0.3206 -0.9643
  486MOL0     C66994   0.545   3.120   8.248  0.4247 -0.9317 -0.2519
  486MOL0     C66995   0.515   3.078   8.139 -0.3288  0.0153 -0.0550
  486MOL0     C66996   0.179   2.759   8.527  0.8993 -0.2310  0.4852
  486MOL0     C66997   0.131   2.631   8.575 -1.0917 -0.7753 -0.9597
  486MOL0     C66998   0.101   2.517   8.487 -0.0705 -0.0692  0.0225
  486MOL0     H66999   0.320   2.417   9.039 -0.2378 -1.8757 -3.8810
  486MOL0     H67000   0.369   2.199   9.168  1.6196  1.0575 -1.6235
  486MOL0     H67001   0.062   1.905   9.158  2.7313 -0.9669 -1.8941
  486MOL0     H67002   0.053   2.007   9.317  2.3089  0.0025  1.8866
  486MOL0     H67003   0.215   1.850   9.412 -1.1927 -1.0022  2.0707
  486MOL0     H67004   0.070   1.753   9.368 -0.9199  1.4088 -0.1128
  486MOL0     H67005   0.198   1.720   9.138  3.4589  1.1787 -1.4915
  486MOL0     H67006   0.332   1.792   9.228 -0.0376 -0.1527  1.4013
  486MOL0     H67007   0.328   1.609   9.398 -1.6362  2.7724  0.5661
  486MOL0     H67008   0.185   1.545   9.329 -0.3560  0.7085  1.0131
  486MOL0     H67009   0.449   1.565   9.194 -2.0924  2.2019 -2.3829
  486MOL0     H67010   0.308   1.501   9.114 -2.2313  1.8917  0.4387
  486MOL0     H67011   0.414   1.353   9.358 -1.2831 -1.3604  1.7158
  486MOL0     H67012   0.264   1.331   9.289  0.1124 -0.8648  1.1516
  486MOL0     H67013   0.485   1.192   9.224 -1.3542  1.0275  0.6587
  486MOL0     H67014   0.482   1.309   9.078 -2.2545  1.3822 -1.1815
  486MOL0     H67015   0.369   1.085   9.048  0.5325 -0.0784  0.3008
  486MOL0     H67016   0.269   1.115   9.185 -1.0189  2.5259  1.0501
  486MOL0     H67017   0.329   1.238   8.830 -1.3503 -0.8049 -2.1533
  486MOL0     H67018   0.036   1.478   8.722 -0.8136 -0.3839 -1.3996
  486MOL0     H67019   0.039   1.319   8.651  1.9934 -1.7879  0.9343
  486MOL0     H67020   0.296   1.505   8.701  0.8430 -0.4394  0.1125
  486MOL0     H67021   0.305   1.349   8.631 -0.8425 -1.7496 -1.1351
  486MOL0     H67022   0.132   1.459   8.462  1.2352 -1.7970  1.2806
  486MOL0     H67023   0.171   1.619   8.537 -0.9289 -0.2879  1.9518
  486MOL0     H67024   0.323   1.446   8.363 -1.6887 -0.5591  0.3858
  486MOL0     H67025   0.299   1.619   8.346 -2.8489  0.4791 -0.7591
  486MOL0     H67026   0.509   1.815   8.541 -4.1119 -2.2800 -1.0789
  486MOL0     H67027   0.526   2.057   8.443  0.2184 -0.6151  1.6476
  486MOL0     H67028   0.611   2.085   8.290  0.6491  1.7143  1.1219
  486MOL0     H67029   0.700   2.054   8.440 -0.7754  1.9321  1.5143
  486MOL0     H67030   1.022   1.769   8.024  0.5861 -1.1261 -1.1291
  486MOL0     H67031   1.205   1.856   7.858 -0.7241 -0.9900 -1.9537
  486MOL0     H67032   1.063   1.998   7.488  0.0396 -0.3124 -1.0911
  486MOL0     H67033   1.089   2.164   7.563  1.7776  1.4799  0.0086
  486MOL0     H67034   1.251   2.155   7.405 -2.4997  0.4098  0.9835
  486MOL0     H67035   1.343   2.094   7.550  0.4908 -0.1465 -1.2425
  486MOL0     H67036   1.252   1.927   7.317 -0.7033  1.8099 -1.2948
  486MOL0     H67037   1.315   1.865   7.479 -0.2096  0.6023 -0.0631
  486MOL0     H67038   1.497   1.869   7.320  1.7283  2.0311 -2.4664
  486MOL0     H67039   1.519   2.026   7.407  1.0453  0.6380 -1.8187
  486MOL0     H67040   1.418   1.969   7.139  2.8692 -2.9380  0.6315
  486MOL0     H67041   1.417   2.133   7.221  1.8688  1.6438 -3.7461
  486MOL0     H67042   1.669   2.109   7.225 -0.5758  2.8462 -1.6250
  486MOL0     H67043   1.594   2.109   7.070  1.1691  3.5397  2.5202
  486MOL0     H67044   1.595   1.851   7.070 -0.4199  1.0339 -1.0518
  486MOL0     H67045   1.685   1.856   7.212 -0.7203  1.7314  1.0813
  486MOL0     H67046   1.856   1.998   7.133 -3.1091 -2.6284  3.9606
  486MOL0     H67047   1.789   2.009   6.967 -2.3588  2.0452  0.1505
  486MOL0     H67048   0.904   2.098   7.669  1.7282  2.4987  0.6817
  486MOL0     H67049   0.733   2.002   7.851 -0.7145 -4.0019 -2.1230
  486MOL0     H67050   0.719   1.645   8.122  1.5025 -0.9407  0.4629
  486MOL0     H67051   0.568   1.496   8.276 -3.8166  0.2776  1.8114
  486MOL0     H67052  -0.041   2.098   9.089 -0.7340  1.1709 -0.9671
  486MOL0     H67053  -0.088   2.303   8.975  0.2347 -2.4556 -1.1252
  486MOL0     H67054   0.120   2.742   8.901 -1.7631 -0.4473 -0.3148
  486MOL0     H67055   0.196   2.944   8.807  1.3154 -1.2044 -0.2419
  486MOL0     H67056   0.365   3.158   8.571 -2.8735  0.3028 -2.3714
  486MOL0     H67057   0.388   3.032   8.694 -2.6233  0.1098  0.1607
  486MOL0     H67058   0.410   2.970   8.409  0.5147 -0.6414 -0.6247
  486MOL0     H67059   0.490   2.878   8.546 -0.6265 -2.1564 -1.8255
  486MOL0     H67060   0.618   3.113   8.586 -1.0479  3.4335 -1.6763
  486MOL0     H67061   0.674   3.003   8.469 -0.7548 -0.3488 -0.5212
  486MOL0     H67062   0.682   3.211   8.358  0.0683  1.0859 -1.0014
  486MOL0     H67063   0.523   3.260   8.393  1.9599  1.2173 -0.0293
  486MOL0     H67064   0.490   3.046   8.040 -2.9438  0.4456  0.4026
  486MOL0     H67065   0.195   2.766   8.420  3.5787  2.1167  0.9455
  486MOL0     H67066   0.172   2.438   8.514  0.8379  0.4305 -0.7970
  486MOL0     H67067  -0.004   2.488   8.484 -0.0895 -0.3472 -4.4881
  486MOL0     H67068   0.125   2.545   8.384  1.7841 -0.6678  0.2562
  487MOL0     O67069   6.403   7.406   2.092 -0.5113  0.3579 -0.3000
  487MOL0     C67070   6.363   7.495   2.165 -1.1024 -0.1252  0.3210
  487MOL0     O67071   6.352   7.632   2.128 -0.3037 -0.0897  0.0025
  487MOL0     C67072   6.351   7.668   1.992  0.0700  0.2215  0.3347
  487MOL0     C67073   6.295   7.587   1.890 -0.6355  0.0209 -0.3460
  487MOL0     C67074   6.282   7.639   1.756 -0.9241 -0.0426  0.0261
  487MOL0     C67075   6.325   7.767   1.730 -0.1282 -0.3506 -0.5192
  487MOL0     O67076   6.333   7.831   1.610 -0.0298 -0.6159  0.0648
  487MOL0     C67077   6.252   7.788   1.502 -0.3863  0.5451 -0.1205
  487MOL0     C67078   6.123   7.863   1.523  0.1205  0.1101 -0.1192
  487MOL0     C67079   6.018   7.873   1.416  0.0246  0.4769  0.3064
  487MOL0     C67080   5.941   7.741   1.397  0.8314 -0.1128  1.1783
  487MOL0     C67081   5.794   7.754   1.343  0.1304 -0.7107 -1.2579
  487MOL0     C67082   5.790   7.802   1.204 -1.3512 -0.6766  0.0743
  487MOL0     C67083   5.647   7.809   1.154  0.8259  0.0738  0.2271
  487MOL0     C67084   5.574   7.938   1.212  0.2660 -0.9894 -0.1524
  487MOL0     N67085   5.634   8.064   1.167 -0.7760  0.4273 -0.5783
  487MOL0     C67086   5.722   8.140   1.245  0.6313  0.2669 -0.4292
  487MOL0     C67087   5.767   8.235   1.167  0.3565 -0.2753  0.8148
  487MOL0     C67088   5.876   8.322   1.228  0.0621 -0.2332  0.2391
  487MOL0     C67089   6.011   8.266   1.236  0.0729 -0.2324 -0.0954
  487MOL0     C67090   6.124   8.368   1.280 -0.5386 -0.0795 -0.0006
  487MOL0     C67091   6.246   8.278   1.309  0.0371 -0.3566  0.9088
  487MOL0     O67092   6.271   8.188   1.196  0.2255 -0.2864 -0.7250
  487MOL0     C67093   6.366   8.095   1.218  0.4943  0.1046  0.3182
  487MOL0     C67094   6.446   8.072   1.333  0.6399 -0.7523 -0.6361
  487MOL0     C67095   6.560   7.988   1.328  0.0711  0.2915 -0.3561
  487MOL0     C67096   6.631   7.986   1.459 -0.1666 -0.8587  0.0496
  487MOL0     C67097   6.587   7.912   1.211  0.3592 -0.2670  0.2970
  487MOL0     C67098   6.702   7.827   1.175 -0.0436  0.8750 -0.0839
  487MOL0     O67099   6.724   7.784   1.049 -0.0220 -0.2292  0.7127
  487MOL0     C67100   6.824   7.685   1.030 -0.0092 -0.5136 -0.0758
  487MOL0     C67101   6.782   7.559   0.980 -0.0323 -0.3957 -0.3340
  487MOL0     C67102   6.862   7.446   0.978 -0.1405 -0.1870 -0.1200
  487MOL0     C67103   6.994   7.444   1.026  0.8420 -0.7323 -0.7514
  487MOL0     O67104   7.065   7.327   1.017 -0.5525  0.0140  0.1926
  487MOL0     C67105   7.198   7.326   1.072 -0.7960  0.8869  0.0486
  487MOL0     C67106   7.256   7.180   1.059 -0.0732  0.2919  0.5882
  487MOL0     C67107   7.304   7.160   0.921 -0.1787  1.4487  0.7852
  487MOL0     C67108   7.328   7.008   0.888  0.6382 -0.0681 -0.1326
  487MOL0     C67109   7.420   6.987   0.762  0.1163 -0.0211 -0.2490
  487MOL0     C67110   7.565   6.999   0.795  0.4743  0.3401  0.4880
  487MOL0     C67111   7.653   7.002   0.671 -0.9445 -0.4621  0.2496
  487MOL0     C67112   7.791   6.959   0.704 -0.6116  0.9281 -0.1723
  487MOL0    Cl67113   7.900   6.990   0.566 -1.0727  0.0638  0.0659
  487MOL0     C67114   7.041   7.566   1.070 -1.0312  0.6128 -0.0351
  487MOL0     C67115   6.956   7.683   1.072 -0.4948 -0.0990 -0.3936
  487MOL0     O67116   6.782   7.795   1.265  0.6667  0.0716  0.7746
  487MOL0     C67117   6.495   7.924   1.101 -0.3167  0.4805 -0.9350
  487MOL0     C67118   6.389   8.012   1.105  0.6922  0.2770 -1.1504
  487MOL0     N67119   5.696   8.226   1.044 -0.9484  0.1521 -1.0391
  487MOL0     N67120   5.617   8.119   1.048  0.3416  1.0978  0.9850
  487MOL0     C67121   6.375   7.846   1.833  0.4933 -0.4170 -0.3862
  487MOL0     C67122   6.393   7.793   1.965  0.8749  0.6008  1.0958
  487MOL0     C67123   6.357   7.468   2.309 -0.0221 -0.1000  0.3191
  487MOL0     C67124   6.380   7.574   2.396  1.3872 -1.1387  0.4478
  487MOL0     C67125   6.395   7.549   2.531  0.3390  0.7207 -0.3389
  487MOL0     C67126   6.383   7.415   2.581 -0.4982  0.2189  0.0658
  487MOL0     O67127   6.408   7.400   2.711 -0.3353 -0.4767 -0.3837
  487MOL0     C67128   6.324   7.318   2.798  0.4448  0.1330 -0.1903
  487MOL0     C67129   6.346   7.345   2.943  0.1002 -0.3810  0.0183
  487MOL0     C67130   6.482   7.286   2.992 -0.8944 -0.6483  0.6152
  487MOL0     C67131   6.464   7.237   3.134  0.1699 -0.3082 -0.0839
  487MOL0     C67132   6.595   7.231   3.204  0.2523 -0.0063 -0.0556
  487MOL0     C67133   6.710   7.227   3.235 -0.7034  0.0277 -0.1505
  487MOL0     C67134   6.361   7.312   2.496  0.3395  0.4641  0.5347
  487MOL0     C67135   6.352   7.331   2.355 -1.2277  0.3818  0.0553
  487MOL0     C67136   6.341   7.196   2.282 -0.9637 -0.7649 -0.4979
  487MOL0     H67137   6.260   7.490   1.921 -0.5916  0.9747  3.1304
  487MOL0     H67138   6.255   7.573   1.674  1.2092  2.0212 -2.5195
  487MOL0     H67139   6.236   7.680   1.507 -2.1664  0.8142  1.4871
  487MOL0     H67140   6.306   7.805   1.408  0.6896 -0.6480  0.2619
  487MOL0     H67141   6.073   7.821   1.611  0.4389 -3.4470 -1.4791
  487MOL0     H67142   6.149   7.969   1.534  0.6419 -0.2288  2.8163
  487MOL0     H67143   5.952   7.954   1.445  0.1161  0.3234  0.9485
  487MOL0     H67144   6.060   7.902   1.319  0.3715 -0.4766  0.1534
  487MOL0     H67145   6.010   7.673   1.344  0.9855  1.8957 -1.4195
  487MOL0     H67146   5.929   7.694   1.495 -1.7386  1.4629  1.6869
  487MOL0     H67147   5.745   7.821   1.414  0.8016 -0.1881 -1.2799
  487MOL0     H67148   5.741   7.658   1.342 -1.0763 -0.2925  2.8832
  487MOL0     H67149   5.837   7.899   1.189 -2.3149 -0.2759 -0.4557
  487MOL0     H67150   5.842   7.725   1.146 -0.2223 -0.0961  0.2925
  487MOL0     H67151   5.583   7.723   1.177  0.9362  0.1670  0.9014
  487MOL0     H67152   5.631   7.802   1.046 -4.7795  0.4161  0.7525
  487MOL0     H67153   5.469   7.940   1.182  0.1403  2.2584  0.2091
  487MOL0     H67154   5.566   7.934   1.321  2.8546 -1.2701  0.1006
  487MOL0     H67155   5.751   8.132   1.349  0.7235 -2.2791 -0.5800
  487MOL0     H67156   5.856   8.361   1.328 -0.8003 -1.3973  0.5435
  487MOL0     H67157   5.878   8.411   1.165 -2.1287  1.6123  2.5756
  487MOL0     H67158   6.002   8.181   1.305 -0.7415  0.2952  0.4669
  487MOL0     H67159   6.046   8.224   1.141 -0.0441 -2.1586  0.6697
  487MOL0     H67160   6.152   8.447   1.211 -1.3676  0.3054  0.0963
  487MOL0     H67161   6.090   8.408   1.376 -0.7640 -2.5695  1.0380
  487MOL0     H67162   6.333   8.341   1.329 -0.7663  1.0337  0.1603
  487MOL0     H67163   6.211   8.216   1.393  1.2100 -0.5788  1.2473
  487MOL0     H67164   6.421   8.131   1.420  1.8105 -0.6597 -0.3493
  487MOL0     H67165   6.644   7.878   1.473  0.9036 -0.7088  0.3219
  487MOL0     H67166   6.578   8.040   1.538 -0.9717  0.4451 -1.3286
  487MOL0     H67167   6.732   8.029   1.462  0.7498 -2.8929  3.1902
  487MOL0     H67168   6.679   7.578   0.953  0.4261  0.8253 -1.3265
  487MOL0     H67169   6.817   7.353   0.944  0.0885 -0.9460  1.5945
  487MOL0     H67170   7.262   7.411   1.045 -1.3523  0.1732 -4.2110
  487MOL0     H67171   7.176   7.340   1.179 -1.0772 -0.6851  0.2161
  487MOL0     H67172   7.335   7.156   1.131  1.2583 -3.0717 -1.7294
  487MOL0     H67173   7.179   7.105   1.075  0.1067  0.3991  2.0784
  487MOL0     H67174   7.396   7.218   0.909  0.8309 -0.1531  0.5442
  487MOL0     H67175   7.234   7.199   0.846  0.1230  1.7924  0.6795
  487MOL0     H67176   7.235   6.951   0.875  0.2051  0.6585 -0.2782
  487MOL0     H67177   7.379   6.973   0.978  0.2418  2.4776  1.1816
  487MOL0     H67178   7.403   6.896   0.704 -4.1565  1.8383 -2.3539
  487MOL0     H67179   7.403   7.075   0.698 -4.1565  0.0611  0.6588
  487MOL0     H67180   7.596   6.910   0.850  0.0208 -0.6950 -0.8869
  487MOL0     H67181   7.589   7.087   0.855  2.8296  1.2065 -1.5528
  487MOL0     H67182   7.657   7.106   0.637 -0.6963 -0.1030  1.3484
  487MOL0     H67183   7.618   6.939   0.588 -1.3767  0.5867 -0.3805
  487MOL0     H67184   7.784   6.852   0.726  1.4385  0.8888  0.5432
  487MOL0     H67185   7.833   7.001   0.796 -2.2914 -0.6872  1.4017
  487MOL0     H67186   7.141   7.579   1.111 -0.1197 -0.2888 -1.8904
  487MOL0     H67187   6.988   7.772   1.125 -2.0458  1.0589 -1.3254
  487MOL0     H67188   6.503   7.849   1.022 -3.1534 -1.6305  0.5954
  487MOL0     H67189   6.322   8.018   1.019  2.6042  3.1850 -2.5877
  487MOL0     H67190   6.416   7.944   1.812 -1.8880  1.0711  1.3432
  487MOL0     H67191   6.433   7.851   2.048 -1.9058  1.1396  2.1728
  487MOL0     H67192   6.393   7.674   2.355  0.4656 -3.0275 -5.3426
  487MOL0     H67193   6.415   7.633   2.596  1.1050  0.1258  0.2092
  487MOL0     H67194   6.217   7.337   2.784 -0.5070 -0.9495  4.1074
  487MOL0     H67195   6.340   7.211   2.783 -1.8228 -0.6358  2.1590
  487MOL0     H67196   6.268   7.301   3.005  0.5822 -2.8759 -1.0316
  487MOL0     H67197   6.351   7.454   2.951  2.0201 -0.5624  2.2963
  487MOL0     H67198   6.507   7.193   2.941  1.9897 -0.8552  2.1774
  487MOL0     H67199   6.562   7.360   2.985 -1.6956  0.1557 -0.1499
  487MOL0     H67200   6.426   7.135   3.138  0.0530 -0.2306  2.8441
  487MOL0     H67201   6.387   7.291   3.189 -1.2781 -2.7663  0.4415
  487MOL0     H67202   6.814   7.222   3.259 -0.1415  0.6370 -2.1898
  487MOL0     H67203   6.364   7.211   2.535  1.6686  0.9594  1.8370
  487MOL0     H67204   6.436   7.142   2.284 -0.5877 -0.0811  0.5541
  487MOL0     H67205   6.285   7.135   2.354  0.6087  0.5341  1.9361
  487MOL0     H67206   6.283   7.184   2.189 -2.1355  1.4971 -0.1305
  488MOL0     O67207   9.715   9.550  11.290 -0.3265 -0.9544 -0.3958
  488MOL0     C67208   9.778   9.512  11.388 -0.4346  0.0520  0.0223
  488MOL0     O67209   9.757   9.558  11.512 -0.3651 -0.0375 -0.0186
  488MOL0     C67210   9.699   9.679  11.522  0.0042 -0.0257 -0.6611
  488MOL0     C67211   9.594   9.705  11.608 -1.1964  0.2611  0.0509
  488MOL0     C67212   9.532   9.832  11.617 -0.2625  0.4490 -0.0614
  488MOL0     C67213   9.593   9.947  11.561  0.6106  0.0033  0.2758
  488MOL0     O67214   9.560  10.081  11.580  0.9411  0.8222  0.6769
  488MOL0     C67215   9.419  10.101  11.610 -0.0481 -0.8043  1.3972
  488MOL0     C67216   9.411  10.257  11.624  0.6197  0.2401 -0.4526
  488MOL0     C67217   9.261  10.301  11.654  0.0995 -0.3727  0.0770
  488MOL0     C67218   9.224  10.287  11.802  0.5098 -0.0751  0.0915
  488MOL0     C67219   9.094  10.345  11.852 -0.7824 -0.2810  0.1119
  488MOL0     C67220   8.973  10.292  11.781 -0.8023 -0.3003 -0.0779
  488MOL0     C67221   8.938  10.368  11.645 -0.8900 -0.6288 -0.1952
  488MOL0     C67222   8.793  10.343  11.597  1.1395 -0.0892  0.8630
  488MOL0     N67223   8.766  10.424  11.480 -0.6338  0.5278 -0.1267
  488MOL0     C67224   8.694  10.542  11.478  0.4748 -1.0392  0.4495
  488MOL0     C67225   8.688  10.579  11.347  0.5078 -0.3553  0.6827
  488MOL0     C67226   8.623  10.697  11.279 -0.0187 -0.0133 -1.2661
  488MOL0     C67227   8.471  10.689  11.272 -0.4857  0.2982  0.2882
  488MOL0     C67228   8.404  10.677  11.411  0.1841 -0.6839  0.1400
  488MOL0     C67229   8.251  10.719  11.413 -0.7656  0.5390  0.6647
  488MOL0     O67230   8.188  10.603  11.360  0.8650 -0.1743  0.5852
  488MOL0     C67231   8.081  10.543  11.422 -0.1498 -0.3712 -0.5377
  488MOL0     C67232   8.075  10.532  11.559  0.7631 -0.5605  0.6121
  488MOL0     C67233   7.962  10.482  11.626 -1.1639  0.7870  0.8406
  488MOL0     C67234   7.967  10.472  11.775  0.4425  0.9030 -0.0684
  488MOL0     C67235   7.858  10.435  11.543 -0.7662 -0.0748 -0.0922
  488MOL0     C67236   7.744  10.374  11.605 -0.2907 -0.2890 -1.3083
  488MOL0     O67237   7.676  10.459  11.693  0.6896 -0.3976 -0.3794
  488MOL0     C67238   7.556  10.410  11.732  0.0214 -0.1179 -0.1544
  488MOL0     C67239   7.445  10.401  11.649  0.3785  0.6506  0.2160
  488MOL0     C67240   7.327  10.356  11.698  0.9197  0.0686 -0.4317
  488MOL0     C67241   7.309  10.334  11.835 -0.6743  0.4627 -0.4514
  488MOL0     O67242   7.197  10.271  11.874 -0.2662  0.8002 -0.5155
  488MOL0     C67243   7.211  10.149  11.943 -0.4707 -0.0045 -0.1508
  488MOL0     C67244   7.228  10.033  11.834  0.2488  0.6678 -0.4356
  488MOL0     C67245   7.370   9.995  11.821  0.6858  0.0133  0.5946
  488MOL0     C67246   7.394   9.887  11.708  0.8535 -0.1419  0.5309
  488MOL0     C67247   7.538   9.829  11.702 -0.1909  0.8864  0.0118
  488MOL0     C67248   7.569   9.733  11.817 -0.0050 -0.7576 -0.4604
  488MOL0     C67249   7.530   9.590  11.771  0.3464  0.0958 -0.0629
  488MOL0     C67250   7.560   9.495  11.887  0.9603 -0.2639 -0.5441
  488MOL0    Cl67251   7.400   9.500  11.970 -0.3172  0.0827  0.0333
  488MOL0     C67252   7.419  10.367  11.910 -1.1370  0.6568 -0.8456
  488MOL0     C67253   7.539  10.402  11.865 -0.4329  0.1753  0.1751
  488MOL0     O67254   7.718  10.259  11.575 -0.6588 -0.6165 -0.3709
  488MOL0     C67255   7.867  10.433  11.401 -0.4474  1.0847 -0.3455
  488MOL0     C67256   7.989  10.492  11.348  0.0523 -0.4773  0.9315
  488MOL0     N67257   8.755  10.479  11.272  0.1253 -0.6875  0.2298
  488MOL0     N67258   8.807  10.393  11.350 -0.1669 -0.5156  0.0447
  488MOL0     C67259   9.704   9.918  11.485  0.5607 -0.0657 -0.0391
  488MOL0     C67260   9.757   9.789  11.467 -0.5620  0.1012 -0.7226
  488MOL0     C67261   9.880   9.398  11.375 -0.3145 -0.0275  0.3717
  488MOL0     C67262   9.940   9.358  11.497 -0.0819  0.0109 -0.4710
  488MOL0     C67263  10.046   9.271  11.492 -0.0996 -0.0708  0.0527
  488MOL0     C67264  10.100   9.220  11.371  0.3795  1.0427  0.3230
  488MOL0     O67265  10.206   9.131  11.387 -0.2260  0.1556  0.3500
  488MOL0     C67266  10.267   9.066  11.275  0.5215  0.2934 -0.3951
  488MOL0     C67267  10.370   8.966  11.327  0.4176  0.4130  0.3234
  488MOL0     C67268  10.328   8.883  11.446  0.1350 -0.1910  0.3979
  488MOL0     C67269  10.371   8.947  11.579 -0.1682  0.3738 -0.8294
  488MOL0     C67270  10.344   8.841  11.671  0.0729 -0.1893 -0.4281
  488MOL0     C67271  10.310   8.753  11.747  0.0421  0.8095 -0.2443
  488MOL0     C67272  10.035   9.250  11.255  1.1777 -0.2124  0.1921
  488MOL0     C67273   9.932   9.346  11.254  0.0171  0.4177  0.5960
  488MOL0     C67274   9.898   9.391  11.113 -0.4268 -0.2213  0.2139
  488MOL0     H67275   9.550   9.611  11.638 -2.0253  0.0503 -1.7349
  488MOL0     H67276   9.446   9.825  11.684  0.7477 -1.1222  1.1444
  488MOL0     H67277   9.379  10.055  11.701 -1.7241 -0.4610  0.8725
  488MOL0     H67278   9.358  10.059  11.529 -2.1149  1.5351  1.6365
  488MOL0     H67279   9.483  10.297  11.696 -1.4314  1.8282  0.8371
  488MOL0     H67280   9.429  10.310  11.529 -1.1643  1.4875 -0.1650
  488MOL0     H67281   9.251  10.406  11.628 -0.1553  0.9311  4.5612
  488MOL0     H67282   9.188  10.247  11.594 -3.6981  2.4934  1.7323
  488MOL0     H67283   9.223  10.180  11.828  0.4252 -0.2735 -0.6866
  488MOL0     H67284   9.310  10.322  11.860  2.1407 -0.2689 -2.0493
  488MOL0     H67285   9.090  10.454  11.863  0.6567 -0.2582  0.5708
  488MOL0     H67286   9.084  10.290  11.946 -0.0960 -0.0532  0.3268
  488MOL0     H67287   8.987  10.185  11.763 -2.8949 -0.7526  0.7223
  488MOL0     H67288   8.883  10.301  11.842 -0.6079 -0.9621  0.3181
  488MOL0     H67289   9.007  10.341  11.565 -0.4107  1.3255 -0.4908
  488MOL0     H67290   8.961  10.474  11.659  0.2521 -1.1091  2.0445
  488MOL0     H67291   8.785  10.235  11.578 -2.4973  0.4628 -1.7411
  488MOL0     H67292   8.718  10.373  11.670 -0.6903  1.3699 -1.4787
  488MOL0     H67293   8.655  10.588  11.568  2.4924  1.6181  0.1098
  488MOL0     H67294   8.666  10.703  11.178  1.1959 -0.4157 -0.7903
  488MOL0     H67295   8.654  10.780  11.343  3.5883 -1.7104 -0.5549
  488MOL0     H67296   8.437  10.779  11.219 -0.9690 -0.0481  0.0052
  488MOL0     H67297   8.443  10.602  11.213 -0.4507 -0.3009  1.1465
  488MOL0     H67298   8.407  10.572  11.440  1.5335 -0.9776 -0.9279
  488MOL0     H67299   8.455  10.736  11.488  1.0774 -0.9348 -0.2404
  488MOL0     H67300   8.213  10.758  11.508 -1.2745 -2.0641  1.6465
  488MOL0     H67301   8.228  10.801  11.345 -1.2991 -0.6727 -0.6925
  488MOL0     H67302   8.151  10.550  11.634  2.1767 -2.5058 -0.2704
  488MOL0     H67303   7.909  10.384  11.804  0.9837 -1.1569 -4.4280
  488MOL0     H67304   7.939  10.573  11.809 -0.1578  0.9009 -0.5408
  488MOL0     H67305   8.071  10.462  11.807  0.9231 -2.5950 -2.2393
  488MOL0     H67306   7.453  10.411  11.541 -0.0285 -2.8187 -0.2408
  488MOL0     H67307   7.246  10.333  11.630 -1.8713  1.3850  2.2081
  488MOL0     H67308   7.294  10.135  12.013 -0.7555  0.0897  0.2137
  488MOL0     H67309   7.128  10.144  12.014  0.9502  0.9761  1.6583
  488MOL0     H67310   7.169   9.945  11.861  1.1477  0.2340  0.1743
  488MOL0     H67311   7.173  10.061  11.743 -0.1581 -0.9241 -0.7131
  488MOL0     H67312   7.404   9.963  11.919 -1.7218 -1.5047  1.0293
  488MOL0     H67313   7.418  10.092  11.801 -0.6077  0.8744  1.5139
  488MOL0     H67314   7.369   9.924  11.607  2.6179 -4.4207 -1.7054
  488MOL0     H67315   7.322   9.807  11.725 -2.7390  2.6913 -0.0338
  488MOL0     H67316   7.547   9.773  11.608  0.2250 -2.1324  1.7397
  488MOL0     H67317   7.602   9.917  11.700 -0.5755  1.1849 -2.4577
  488MOL0     H67318   7.518   9.755  11.911  1.6156 -0.4629  0.3841
  488MOL0     H67319   7.668   9.755  11.857  1.2262 -0.9004 -3.1972
  488MOL0     H67320   7.585   9.585  11.676 -1.0095  1.4737 -0.9706
  488MOL0     H67321   7.424   9.577  11.748  0.2049 -1.1987  1.2140
  488MOL0     H67322   7.645   9.515  11.952  1.6208 -3.5629 -0.2250
  488MOL0     H67323   7.580   9.397  11.842  1.3335  0.5488 -2.2446
  488MOL0     H67324   7.414  10.359  12.018 -1.0398 -2.3754 -0.9682
  488MOL0     H67325   7.626  10.412  11.930 -0.9901  3.5166  0.5500
  488MOL0     H67326   7.795  10.380  11.339 -0.6449 -1.5893  1.9943
  488MOL0     H67327   7.992  10.475  11.241 -3.0724 -1.7620  0.9422
  488MOL0     H67328   9.752   9.998  11.429 -2.9819  2.3802  0.1273
  488MOL0     H67329   9.847   9.769  11.411  0.6280  0.5152  0.9759
  488MOL0     H67330   9.919   9.401  11.594  2.2942  0.5818 -0.1557
  488MOL0     H67331  10.097   9.252  11.586 -1.4562  0.0059  0.8204
  488MOL0     H67332  10.189   9.004  11.230 -0.4631  1.0288  0.2473
  488MOL0     H67333  10.295   9.137  11.197 -0.6497 -0.8964 -1.9689
  488MOL0     H67334  10.465   9.016  11.347 -0.9260  2.0499  3.3990
  488MOL0     H67335  10.380   8.889  11.250 -0.3206  2.1685 -1.5879
  488MOL0     H67336  10.218   8.877  11.446  0.0689  0.7250  1.2491
  488MOL0     H67337  10.381   8.788  11.439 -1.2464 -0.8964 -1.0489
  488MOL0     H67338  10.318   9.038  11.608 -0.2019 -0.1496  0.8538
  488MOL0     H67339  10.480   8.960  11.575 -0.2424  1.5312  0.3065
  488MOL0     H67340  10.283   8.669  11.808 -0.8450  0.4664 -1.0842
  488MOL0     H67341  10.066   9.200  11.163  0.8348 -0.6726  0.3223
  488MOL0     H67342   9.927   9.495  11.092  1.9854 -0.0573  3.4492
  488MOL0     H67343   9.955   9.327  11.045  0.8147  1.0652  0.0052
  488MOL0     H67344   9.792   9.370  11.100 -0.7633  1.3251  0.2983
  489MOL0     O67345   0.568   5.946   5.487 -0.0117  0.3811 -0.2651
  489MOL0     C67346   0.471   6.017   5.478 -0.9854  0.4455 -1.0659
  489MOL0     O67347   0.411   6.054   5.362  0.4318 -0.3072  0.3833
  489MOL0     C67348   0.491   6.062   5.250 -0.7158 -0.1335 -0.1925
  489MOL0     C67349   0.553   6.183   5.235  0.2302 -0.5428 -1.1000
  489MOL0     C67350   0.623   6.201   5.123  0.3653 -0.9429 -0.1738
  489MOL0     C67351   0.634   6.109   5.018 -0.6869  0.3501 -0.0398
  489MOL0     O67352   0.713   6.129   4.909 -0.0075 -0.2525  0.3446
  489MOL0     C67353   0.828   6.045   4.908 -0.2130  0.3645 -0.3721
  489MOL0     C67354   0.956   6.140   4.904  0.5862  0.4443 -0.8454
  489MOL0     C67355   0.969   6.224   5.038  0.5922  0.2996  0.7555
  489MOL0     C67356   1.039   6.134   5.144 -0.1645  0.4076 -0.4728
  489MOL0     C67357   1.084   6.217   5.269  0.5253 -0.9504  0.7234
  489MOL0     C67358   0.974   6.278   5.357  0.2410  0.6673 -0.4821
  489MOL0     C67359   0.879   6.184   5.439  0.3305 -0.1838  0.8350
  489MOL0     C67360   0.953   6.086   5.539  0.1954  1.0752  0.2105
  489MOL0     N67361   0.959   5.948   5.487  0.1206 -0.7706 -0.4732
  489MOL0     C67362   0.886   5.837   5.521  0.7272 -0.3154  0.5054
  489MOL0     C67363   0.923   5.736   5.439 -0.3222  0.5253 -0.1707
  489MOL0     C67364   0.873   5.591   5.417  0.1602 -0.5615 -0.8047
  489MOL0     C67365   0.878   5.509   5.559 -0.3539 -0.8470  0.4315
  489MOL0     C67366   0.774   5.555   5.657  0.4170  0.2162 -0.4478
  489MOL0     C67367   0.632   5.517   5.597  0.1963  0.2752 -0.5132
  489MOL0     O67368   0.535   5.492   5.702  0.2294  0.3711  0.3314
  489MOL0     C67369   0.515   5.576   5.804  0.4427 -0.5661 -0.2902
  489MOL0     C67370   0.469   5.524   5.923 -1.5200  0.2035  0.2606
  489MOL0     C67371   0.489   5.585   6.049  0.4248 -0.2874  1.4510
  489MOL0     C67372   0.456   5.511   6.174 -0.8089  0.1395  0.6922
  489MOL0     C67373   0.517   5.727   6.050 -0.3754 -0.0889  0.0287
  489MOL0     C67374   0.519   5.805   6.170 -0.2996 -0.4799 -0.6686
  489MOL0     O67375   0.437   5.782   6.269  0.1475  0.4506 -0.0461
  489MOL0     C67376   0.440   5.857   6.385 -0.5253  0.3241  0.0329
  489MOL0     C67377   0.418   6.003   6.399  0.5325  0.9329  0.0527
  489MOL0     C67378   0.432   6.067   6.521  0.0229  0.1158  0.1177
  489MOL0     C67379   0.475   5.992   6.632 -0.5421  0.1003  0.4298
  489MOL0     O67380   0.506   6.049   6.754 -0.4547 -0.4463 -0.5025
  489MOL0     C67381   0.397   6.034   6.848 -0.5996  1.1231 -0.3193
  489MOL0     C67382   0.445   6.062   6.987 -0.1393  0.3085  0.6544
  489MOL0     C67383   0.357   5.996   7.087 -1.2026  0.2612 -0.2576
  489MOL0     C67384   0.385   5.836   7.110  1.4347 -0.2820 -0.1286
  489MOL0     C67385   0.327   5.786   7.242 -0.3639  0.2668  0.8272
  489MOL0     C67386   0.295   5.642   7.253  1.2752  0.2324  0.6818
  489MOL0     C67387   0.245   5.609   7.392 -0.2056 -0.5235  0.0303
  489MOL0     C67388   0.189   5.468   7.380 -0.2867  0.6452 -0.3298
  489MOL0    Cl67389   0.049   5.475   7.273 -0.0501 -0.4347 -0.2850
  489MOL0     C67390   0.486   5.855   6.622  0.4984 -0.6786  0.1508
  489MOL0     C67391   0.466   5.793   6.499 -0.1455  1.3176 -0.8654
  489MOL0     O67392   0.599   5.896   6.163  0.3649 -0.5136  0.5338
  489MOL0     C67393   0.544   5.787   5.918  0.0035  0.7155 -0.4165
  489MOL0     C67394   0.544   5.719   5.802 -0.0952  0.5429  0.2396
  489MOL0     N67395   1.010   5.787   5.351  0.3454  0.1257  0.0976
  489MOL0     N67396   1.028   5.908   5.380  0.2729  0.1419 -0.3890
  489MOL0     C67397   0.574   5.988   5.036 -0.8220  0.1865  0.5228
  489MOL0     C67398   0.502   5.963   5.151 -0.8529 -0.4618 -0.0167
  489MOL0     C67399   0.407   6.058   5.602  1.1089  0.5813  0.8439
  489MOL0     C67400   0.260   6.056   5.605  0.5845  1.1563  0.8710
  489MOL0     C67401   0.192   6.094   5.714  0.0337  1.2383 -0.9515
  489MOL0     C67402   0.256   6.130   5.827 -0.4860 -0.1424  0.8132
  489MOL0     O67403   0.181   6.151   5.934 -0.5942  0.3103  0.1070
  489MOL0     C67404   0.238   6.148   6.068 -0.2269  0.2438  0.0147
  489MOL0     C67405   0.124   6.129   6.170 -1.1763 -1.0299 -0.4699
  489MOL0     C67406   0.051   5.995   6.141 -0.7617 -0.7661 -0.7369
  489MOL0     C67407   0.135   5.866   6.139 -0.5807  0.0726  0.7996
  489MOL0     C67408   0.136   5.805   6.006  0.6668  0.1829  0.1196
  489MOL0     C67409   0.135   5.761   5.887 -0.4864  0.3075 -0.6995
  489MOL0     C67410   0.393   6.132   5.824  0.7025 -0.0100  0.5374
  489MOL0     C67411   0.472   6.092   5.719 -0.5400 -0.1151 -0.1726
  489MOL0     C67412   0.619   6.111   5.730  0.1729 -1.2910 -0.1439
  489MOL0     H67413   0.553   6.253   5.317 -3.1075  0.6160 -1.9332
  489MOL0     H67414   0.662   6.301   5.109  0.0868 -0.8818 -0.5501
  489MOL0     H67415   0.831   5.975   4.824 -0.0958 -1.2279  0.9041
  489MOL0     H67416   0.833   5.985   5.000  3.4026  1.0590  0.0404
  489MOL0     H67417   1.050   6.083   4.896  0.2388  0.0136 -2.0480
  489MOL0     H67418   0.958   6.201   4.814  2.6708 -0.6321 -1.6170
  489MOL0     H67419   1.031   6.309   5.010  1.0537 -0.6515 -1.3532
  489MOL0     H67420   0.871   6.254   5.077  0.8726 -0.9226  2.5396
  489MOL0     H67421   0.988   6.044   5.179 -0.0122 -0.3974 -2.1811
  489MOL0     H67422   1.127   6.098   5.089 -1.9699  0.8693 -3.9281
  489MOL0     H67423   1.144   6.302   5.235  1.2342 -1.3323  0.9885
  489MOL0     H67424   1.141   6.148   5.333  2.1654  0.3975  0.8100
  489MOL0     H67425   1.029   6.349   5.419  1.0386  0.7685 -1.2805
  489MOL0     H67426   0.915   6.340   5.289  3.3116  0.2886 -3.7756
  489MOL0     H67427   0.815   6.125   5.372 -0.9001  1.2065  0.7474
  489MOL0     H67428   0.816   6.249   5.501 -0.1754 -0.8428  1.0318
  489MOL0     H67429   1.055   6.123   5.556  1.5113 -1.8495 -0.6754
  489MOL0     H67430   0.901   6.089   5.635 -0.2625 -0.2130  0.0086
  489MOL0     H67431   0.808   5.834   5.596 -0.5925 -1.5811 -0.8589
  489MOL0     H67432   0.930   5.536   5.342  1.1404 -0.5734 -0.0805
  489MOL0     H67433   0.769   5.591   5.384  0.4195 -2.5956 -1.7517
  489MOL0     H67434   0.856   5.403   5.546  0.0021 -0.8256 -0.4611
  489MOL0     H67435   0.983   5.515   5.589  0.9089 -0.5689 -3.4804
  489MOL0     H67436   0.791   5.493   5.746 -2.3617 -5.4874 -3.4163
  489MOL0     H67437   0.775   5.661   5.685 -0.4927 -0.6312  3.5079
  489MOL0     H67438   0.588   5.603   5.546 -0.7909  0.0931  0.0097
  489MOL0     H67439   0.634   5.431   5.530 -1.0157  0.2537 -0.5523
  489MOL0     H67440   0.438   5.420   5.927  0.6914 -0.4980  0.3713
  489MOL0     H67441   0.429   5.406   6.162  1.2013 -1.0802  4.7688
  489MOL0     H67442   0.368   5.562   6.214  1.0083  3.6998  0.5891
  489MOL0     H67443   0.536   5.512   6.249  0.8079  0.4704 -0.9518
  489MOL0     H67444   0.404   6.073   6.316 -0.8246 -1.4082 -1.8246
  489MOL0     H67445   0.422   6.175   6.516 -0.5496  0.2634  2.8254
  489MOL0     H67446   0.319   6.109   6.832  0.4480  2.5261  0.8628
  489MOL0     H67447   0.362   5.931   6.837  2.2352  0.0165  0.4251
  489MOL0     H67448   0.542   6.012   6.987  0.7802  2.0075 -0.4514
  489MOL0     H67449   0.465   6.167   7.011  1.5028 -0.4297  2.8597
  489MOL0     H67450   0.250   6.004   7.065 -2.6856 -2.0009  4.6239
  489MOL0     H67451   0.379   6.043   7.184  1.6094 -0.2808 -0.5468
  489MOL0     H67452   0.492   5.819   7.118  0.9181 -3.4344  1.9470
  489MOL0     H67453   0.343   5.777   7.029 -2.0907  1.4051  0.2407
  489MOL0     H67454   0.402   5.807   7.319  1.5927 -0.5319 -0.7679
  489MOL0     H67455   0.230   5.830   7.266 -1.1772 -1.4675  0.8411
  489MOL0     H67456   0.387   5.593   7.221  0.7390  0.9220 -2.2625
  489MOL0     H67457   0.222   5.614   7.176 -0.6178 -0.5224  2.6279
  489MOL0     H67458   0.168   5.682   7.418 -0.5337 -1.1627  0.9018
  489MOL0     H67459   0.326   5.623   7.464  0.9106 -0.5368 -1.1841
  489MOL0     H67460   0.162   5.427   7.478  1.4008  1.5328  0.5652
  489MOL0     H67461   0.264   5.394   7.350 -1.2979 -0.1190 -1.0459
  489MOL0     H67462   0.520   5.794   6.705 -2.0877 -1.1715  0.9094
  489MOL0     H67463   0.473   5.685   6.498  1.7334  1.3946 -1.2577
  489MOL0     H67464   0.568   5.893   5.909  3.8107  0.2793  2.4767
  489MOL0     H67465   0.578   5.764   5.709  0.2096 -3.4068 -1.7889
  489MOL0     H67466   0.576   5.917   4.954 -4.1409  1.7968 -1.1350
  489MOL0     H67467   0.448   5.871   5.172 -0.5603 -0.5176  0.5009
  489MOL0     H67468   0.197   6.022   5.523  0.6168  1.7438  0.5995
  489MOL0     H67469   0.085   6.078   5.726 -0.0055 -1.5417 -3.7391
  489MOL0     H67470   0.303   6.060   6.074 -0.9542 -0.7444 -3.9849
  489MOL0     H67471   0.293   6.236   6.102 -0.5915 -0.5069  2.8664
  489MOL0     H67472   0.058   6.216   6.177 -0.8035 -0.6614 -1.4109
  489MOL0     H67473   0.178   6.119   6.264 -0.1911 -0.2880 -0.9444
  489MOL0     H67474  -0.035   5.982   6.207 -3.3063  2.0313 -3.1731
  489MOL0     H67475  -0.005   6.008   6.048 -0.3679 -2.4475 -1.2425
  489MOL0     H67476   0.098   5.808   6.223  0.0401 -1.2530  0.1808
  489MOL0     H67477   0.241   5.871   6.162 -0.5893 -2.0578  1.5342
  489MOL0     H67478   0.128   5.724   5.787  2.1599  2.5962 -1.8680
  489MOL0     H67479   0.444   6.164   5.914 -1.0981 -1.3765  2.1026
  489MOL0     H67480   0.644   6.212   5.695 -0.8709 -0.8602  0.2866
  489MOL0     H67481   0.649   6.101   5.835  0.6717  3.6811  0.4191
  489MOL0     H67482   0.669   6.037   5.667 -4.1352 -0.5569 -5.1441
  490MOL0     O67483   1.842   1.163   0.817  0.6369  0.4702 -0.0622
  490MOL0     C67484   1.771   1.211   0.911 -0.2510 -0.9203  0.2635
  490MOL0     O67485   1.646   1.270   0.887  0.0714  0.6271 -0.7549
  490MOL0     C67486   1.619   1.323   0.766 -1.0382  0.6473 -0.2611
  490MOL0     C67487   1.723   1.397   0.695 -0.1257 -0.4712  0.9234
  490MOL0     C67488   1.698   1.451   0.566 -0.2009  0.5827  0.0313
  490MOL0     C67489   1.562   1.441   0.512 -0.3066 -0.5208 -0.1332
  490MOL0     O67490   1.535   1.492   0.386 -0.6540  0.1461  0.4004
  490MOL0     C67491   1.408   1.502   0.327 -0.3342 -0.2774 -0.4296
  490MOL0     C67492   1.397   1.604   0.212  0.3042  0.0208  0.4570
  490MOL0     C67493   1.283   1.574   0.117 -0.5360 -0.1373  0.0519
  490MOL0     C67494   1.142   1.629   0.166  0.1199  0.4099  0.0630
  490MOL0     C67495   1.024   1.597   0.063  0.6414 -0.5475 -0.2710
  490MOL0     C67496   1.033   1.698  -0.052 -0.8893  0.5018  0.6083
  490MOL0     C67497   0.929   1.664  -0.169 -0.7702 -0.0496 -0.3564
  490MOL0     C67498   0.998   1.655  -0.306  0.3543  0.6054  0.3344
  490MOL0     N67499   0.895   1.627  -0.411 -0.0046  0.6700  0.1811
  490MOL0     C67500   0.839   1.502  -0.439  0.1138 -0.1753 -0.9658
  490MOL0     C67501   0.760   1.520  -0.554  0.6148  0.8460 -0.6553
  490MOL0     C67502   0.696   1.406  -0.633 -0.6563 -0.6753 -0.1948
  490MOL0     C67503   0.691   1.433  -0.785 -0.3943  0.1101  0.6313
  490MOL0     C67504   0.683   1.305  -0.876 -0.7026  0.6151  0.4100
  490MOL0     C67505   0.544   1.232  -0.855  0.4536 -0.6596  0.2977
  490MOL0     O67506   0.440   1.321  -0.895 -0.2336 -0.2300  0.2149
  490MOL0     C67507   0.399   1.344  -1.025  0.4730 -0.5893 -0.3965
  490MOL0     C67508   0.285   1.426  -1.037 -0.5862  0.3421  0.9273
  490MOL0     C67509   0.223   1.455  -1.158 -0.6889  0.4099 -0.1480
  490MOL0     C67510   0.107   1.558  -1.153 -0.2282  0.3969 -0.6766
  490MOL0     C67511   0.259   1.381  -1.268 -0.8423 -0.0902 -0.1586
  490MOL0     C67512   0.179   1.410  -1.389 -0.0648 -0.1648  0.4862
  490MOL0     O67513   0.110   1.310  -1.458 -0.1349 -0.6250  0.4013
  490MOL0     C67514   0.098   1.190  -1.401  0.0737  0.5228 -1.2158
  490MOL0     C67515   0.178   1.090  -1.450 -0.1089  0.4239  0.1639
  490MOL0     C67516   0.165   0.959  -1.397  0.1456  0.3577 -0.2921
  490MOL0     C67517   0.074   0.927  -1.299 -0.9381  0.2013  0.7466
  490MOL0     O67518   0.079   0.789  -1.265 -0.3239  0.1586  0.5163
  490MOL0     C67519   0.014   0.757  -1.145 -0.0194  0.5514 -0.5303
  490MOL0     C67520   0.040   0.613  -1.106  0.3754 -0.2659  0.4564
  490MOL0     C67521  -0.027   0.556  -0.980 -0.0386  0.6658 -0.1502
  490MOL0     C67522  -0.176   0.532  -1.005 -0.9734  0.3852  0.0075
  490MOL0     C67523  -0.241   0.402  -0.945 -0.6164  0.1412  1.3958
  490MOL0     C67524  -0.198   0.270  -1.018  0.2626  0.0286 -0.2714
  490MOL0     C67525  -0.260   0.137  -0.976  0.0091 -0.3001 -0.2609
  490MOL0     C67526  -0.178   0.012  -1.005  0.4483 -0.7177  0.9212
  490MOL0    Cl67527  -0.208  -0.018  -1.186 -0.4343 -0.4414 -0.0964
  490MOL0     C67528   0.008   1.030  -1.248 -0.4344 -0.4699 -0.5994
  490MOL0     C67529   0.008   1.161  -1.295 -0.4232 -0.1886  0.4534
  490MOL0     O67530   0.190   1.527  -1.442  0.0525  0.4873 -0.9250
  490MOL0     C67531   0.380   1.302  -1.269  0.8558  0.9767  0.6600
  490MOL0     C67532   0.438   1.273  -1.138 -0.7628  0.4526  0.4149
  490MOL0     N67533   0.766   1.651  -0.587  0.4377  0.2535  0.3002
  490MOL0     N67534   0.852   1.718  -0.509  0.1533 -0.2184 -0.3894
  490MOL0     C67535   1.465   1.376   0.583 -0.7302 -0.2395 -0.0605
  490MOL0     C67536   1.494   1.311   0.705  0.8887  0.9365 -0.5916
  490MOL0     C67537   1.822   1.192   1.046  0.1302  0.4392 -0.2634
  490MOL0     C67538   1.856   1.060   1.075 -0.8037  0.2261  0.3872
  490MOL0     C67539   1.898   1.025   1.205 -0.7039 -0.0858 -0.2454
  490MOL0     C67540   1.902   1.128   1.308  0.9923  0.4219 -0.6554
  490MOL0     O67541   1.941   1.121   1.442  1.0933 -0.1570  0.0199
  490MOL0     C67542   2.068   1.061   1.481 -0.1564  0.2159 -0.5324
  490MOL0     C67543   2.182   1.166   1.485  0.2357  0.2820  0.4575
  490MOL0     C67544   2.152   1.304   1.551  0.0683  0.3608  0.5818
  490MOL0     C67545   2.134   1.297   1.692 -0.5116  0.3563  0.3636
  490MOL0     C67546   2.053   1.418   1.728  0.1288  0.5200 -0.2968
  490MOL0     C67547   1.994   1.519   1.757 -0.2018  0.4927  0.3247
  490MOL0     C67548   1.859   1.259   1.278 -0.6729  0.5435 -0.5313
  490MOL0     C67549   1.831   1.296   1.143 -0.0463  0.2628  0.1553
  490MOL0     C67550   1.809   1.436   1.104 -0.4235  0.7786 -0.2915
  490MOL0     H67551   1.822   1.422   0.731  2.0689  0.5787 -4.7873
  490MOL0     H67552   1.779   1.501   0.514  0.4704 -1.6649 -1.2268
  490MOL0     H67553   1.338   1.544   0.400  1.6428  3.1263 -0.2735
  490MOL0     H67554   1.373   1.408   0.284 -1.0242  1.1653 -3.2838
  490MOL0     H67555   1.377   1.700   0.261  0.6346 -0.8551  2.3880
  490MOL0     H67556   1.495   1.605   0.165  0.0715 -0.4194 -0.0479
  490MOL0     H67557   1.289   1.611   0.015  1.3522  0.1993  0.2571
  490MOL0     H67558   1.273   1.465   0.112  3.2340 -0.5967 -0.4076
  490MOL0     H67559   1.117   1.601   0.269 -0.8454  3.0853  0.6439
  490MOL0     H67560   1.139   1.738   0.176 -2.6256  0.4071  0.0999
  490MOL0     H67561   0.924   1.609   0.106  0.1398 -2.6645 -0.6846
  490MOL0     H67562   1.030   1.493   0.030 -2.7650 -1.4263  1.3121
  490MOL0     H67563   1.008   1.797  -0.013  0.3433  0.4277  1.6502
  490MOL0     H67564   1.134   1.708  -0.095 -1.1821  2.6722  0.2861
  490MOL0     H67565   0.852   1.742  -0.168 -1.0404 -0.3165  0.2196
  490MOL0     H67566   0.883   1.568  -0.144  0.3884  0.2864  3.8316
  490MOL0     H67567   1.055   1.746  -0.329  1.2254 -0.4312 -1.9795
  490MOL0     H67568   1.074   1.576  -0.301 -0.2821  0.0412  1.6601
  490MOL0     H67569   0.852   1.410  -0.383  0.1585  1.7505  2.4759
  490MOL0     H67570   0.601   1.375  -0.589  0.0872 -1.2691  1.0091
  490MOL0     H67571   0.767   1.325  -0.617  0.9677  1.3375  4.1644
  490MOL0     H67572   0.608   1.497  -0.819  2.0971  3.2929  0.0428
  490MOL0     H67573   0.780   1.484  -0.823 -0.3284 -1.4898 -1.5823
  490MOL0     H67574   0.686   1.339  -0.980  2.7961  0.4864  0.3566
  490MOL0     H67575   0.774   1.248  -0.857 -0.0542  1.0397 -1.2501
  490MOL0     H67576   0.536   1.150  -0.927  0.1392 -0.3974  0.0296
  490MOL0     H67577   0.524   1.192  -0.756  2.0280 -1.1474  0.4494
  490MOL0     H67578   0.245   1.460  -0.943  1.4252 -1.1809  2.4429
  490MOL0     H67579   0.132   1.629  -1.074 -1.4123  1.4970 -1.2619
  490MOL0     H67580   0.016   1.498  -1.142  0.6253 -0.8462 -0.1005
  490MOL0     H67581   0.098   1.626  -1.237 -0.3288  1.1400 -0.0760
  490MOL0     H67582   0.239   1.119  -1.535 -3.2022 -0.3589 -2.5109
  490MOL0     H67583   0.217   0.876  -1.444 -2.1049  0.8877 -4.1593
  490MOL0     H67584   0.059   0.830  -1.076  0.1072  0.5506 -0.6120
  490MOL0     H67585  -0.094   0.775  -1.156 -0.5225  0.2933  2.9560
  490MOL0     H67586   0.016   0.549  -1.191 -0.5694 -2.0918  2.0009
  490MOL0     H67587   0.147   0.608  -1.084  0.5675  0.3712 -0.3400
  490MOL0     H67588  -0.011   0.625  -0.897  1.8514 -0.6003  0.6005
  490MOL0     H67589   0.027   0.464  -0.955  0.2739  1.1039  0.8293
  490MOL0     H67590  -0.201   0.539  -1.111 -2.4176 -0.5320  0.2647
  490MOL0     H67591  -0.222   0.620  -0.959 -2.6424 -1.1070  1.3150
  490MOL0     H67592  -0.207   0.380  -0.844  3.3611 -2.4951 -0.2514
  490MOL0     H67593  -0.350   0.402  -0.941 -0.5991 -0.8805  2.1957
  490MOL0     H67594  -0.089   0.264  -1.022  0.6078  2.4301  2.1250
  490MOL0     H67595  -0.235   0.275  -1.121 -2.5179 -0.1288  0.6228
  490MOL0     H67596  -0.358   0.116  -1.021  0.3053 -0.3823 -0.8758
  490MOL0     H67597  -0.270   0.134  -0.867  1.3242  0.9512 -0.0822
  490MOL0     H67598  -0.233  -0.064  -0.948 -2.9545  0.4500 -0.5109
  490MOL0     H67599  -0.075   0.005  -0.971  0.3116 -3.9616  1.0003
  490MOL0     H67600  -0.061   1.008  -1.168 -0.1650  1.4790  0.2242
  490MOL0     H67601  -0.066   1.228  -1.252 -0.0935  0.8272 -0.4972
  490MOL0     H67602   0.416   1.265  -1.365  0.6676 -1.0181  1.3139
  490MOL0     H67603   0.514   1.196  -1.140 -0.4350  0.7765  0.2622
  490MOL0     H67604   1.365   1.364   0.542 -0.5315 -1.5740 -0.1882
  490MOL0     H67605   1.423   1.240   0.746 -0.1711  1.8087 -0.8869
  490MOL0     H67606   1.851   0.982   1.000 -0.8848  0.7377 -0.1469
  490MOL0     H67607   1.922   0.920   1.213 -1.0379 -0.0109  3.0392
  490MOL0     H67608   2.069   1.024   1.584  5.4356 -1.1230 -0.7688
  490MOL0     H67609   2.100   0.984   1.409 -0.2333 -0.4941  0.1836
  490MOL0     H67610   2.208   1.195   1.383 -2.7426 -2.1999 -1.1736
  490MOL0     H67611   2.255   1.115   1.548 -0.7167 -1.0380  0.5329
  490MOL0     H67612   2.240   1.367   1.533 -1.0588  2.4499  2.0134
  490MOL0     H67613   2.077   1.358   1.492  1.4569  0.2545 -1.3730
  490MOL0     H67614   2.219   1.295   1.761  1.2214  0.4674 -1.6823
  490MOL0     H67615   2.079   1.205   1.717 -0.2873 -0.5066 -2.0560
  490MOL0     H67616   1.948   1.614   1.775  0.3954  0.6176  1.2625
  490MOL0     H67617   1.875   1.330   1.358 -0.5220  0.0532 -0.1189
  490MOL0     H67618   1.808   1.453   0.996  1.6913  2.1802 -0.1546
  490MOL0     H67619   1.711   1.469   1.138  0.3660  1.7811  1.1107
  490MOL0     H67620   1.885   1.498   1.153  0.7616 -0.1456 -0.8946
  491MOL0     O67621   9.963   6.509   2.336  0.6188 -0.7753 -0.8364
  491MOL0     C67622   9.850   6.519   2.285  0.7276 -0.3462  0.1439
  491MOL0     O67623   9.784   6.637   2.239  0.1266 -0.0583 -0.1623
  491MOL0     C67624   9.823   6.762   2.276  0.3593 -0.3102 -0.0718
  491MOL0     C67625   9.716   6.859   2.299 -0.3675  0.3277 -0.6558
  491MOL0     C67626   9.748   6.998   2.299  0.6622 -0.0338 -0.4678
  491MOL0     C67627   9.881   7.038   2.308  0.5688  0.0749  0.3048
  491MOL0     O67628   9.904   7.175   2.304  0.2438  0.4671  0.1189
  491MOL0     C67629  10.001   7.222   2.395  0.1703 -0.1527  0.1928
  491MOL0     C67630   9.986   7.174   2.539 -0.0888  0.2036 -0.5777
  491MOL0     C67631  10.090   7.231   2.628 -0.1709 -0.7635 -0.4802
  491MOL0     C67632  10.100   7.385   2.680  0.6045  0.2661  0.0091
  491MOL0     C67633   9.974   7.418   2.766 -0.4911  0.1708 -0.3479
  491MOL0     C67634   9.979   7.359   2.907  0.2935  0.0927  1.0774
  491MOL0     C67635   9.859   7.412   2.995  0.6076 -0.3491  0.4074
  491MOL0     C67636   9.855   7.339   3.127  0.8462  0.1137  0.1290
  491MOL0     N67637   9.773   7.404   3.227  0.1858 -0.8697 -0.1846
  491MOL0     C67638   9.795   7.403   3.366 -0.1453  0.0348  0.2253
  491MOL0     C67639   9.696   7.478   3.413  0.2000  0.1004 -0.6634
  491MOL0     C67640   9.698   7.537   3.556 -1.0301 -0.3108 -0.1243
  491MOL0     C67641   9.647   7.438   3.669 -0.4192 -1.2679 -0.0332
  491MOL0     C67642   9.629   7.515   3.801 -0.3086 -0.4349 -1.0340
  491MOL0     C67643   9.641   7.422   3.925  0.2384  0.2361  0.7147
  491MOL0     O67644   9.567   7.474   4.025 -0.2790 -0.4714 -0.0579
  491MOL0     C67645   9.582   7.429   4.153  0.0859  0.1438 -0.4047
  491MOL0     C67646   9.486   7.477   4.251 -0.4378 -0.5634 -0.3949
  491MOL0     C67647   9.489   7.445   4.389  0.4044  0.5155  0.3165
  491MOL0     C67648   9.389   7.499   4.474  0.9674  0.4024 -0.0164
  491MOL0     C67649   9.583   7.338   4.427 -0.1407 -0.4682 -0.0178
  491MOL0     C67650   9.592   7.273   4.561 -0.4945  0.2906 -0.5424
  491MOL0     O67651   9.687   7.179   4.583 -1.1311 -0.3861 -0.5091
  491MOL0     C67652   9.705   7.139   4.714  1.0029  0.2538  0.3783
  491MOL0     C67653   9.645   7.016   4.752 -0.4748 -0.0652  0.1128
  491MOL0     C67654   9.663   6.961   4.876 -0.9186 -0.7413  0.5430
  491MOL0     C67655   9.751   7.024   4.959  0.5361  0.4761 -0.3743
  491MOL0     O67656   9.798   6.982   5.082 -0.6982 -0.6734  0.6446
  491MOL0     C67657   9.817   6.846   5.128 -0.5696  0.5422  0.6153
  491MOL0     C67658   9.954   6.838   5.204 -0.3841 -0.4720  0.1448
  491MOL0     C67659  10.053   6.870   5.095  0.1945 -0.6748  0.3930
  491MOL0     C67660  10.205   6.867   5.129  0.1104  0.2790 -0.1644
  491MOL0     C67661  10.243   6.943   5.259  0.5061 -1.1660 -0.4320
  491MOL0     C67662  10.216   7.097   5.261 -0.3276 -0.3621 -0.1471
  491MOL0     C67663  10.246   7.173   5.383  0.1069  0.4249  0.0655
  491MOL0     C67664  10.399   7.162   5.409  0.4713 -0.1547  0.2836
  491MOL0    Cl67665  10.416   7.251   5.571  0.0684  0.2702  0.0802
  491MOL0     C67666   9.818   7.143   4.920 -0.4623 -0.4279 -0.1834
  491MOL0     C67667   9.791   7.200   4.799  0.0753 -0.3440 -0.5595
  491MOL0     O67668   9.518   7.315   4.654 -0.0462  0.3433 -0.8912
  491MOL0     C67669   9.679   7.300   4.328  0.0926 -0.1761 -1.4095
  491MOL0     C67670   9.675   7.331   4.198 -0.1523 -1.1506  0.2591
  491MOL0     N67671   9.598   7.506   3.320 -0.7223  0.6251  1.1436
  491MOL0     N67672   9.654   7.468   3.200 -0.3506 -0.3734  0.0143
  491MOL0     C67673   9.980   6.940   2.306 -0.7395 -0.9381 -0.6463
  491MOL0     C67674   9.956   6.797   2.300 -0.3582 -0.9550 -0.3996
  491MOL0     C67675   9.761   6.396   2.296 -0.1857  0.3628 -0.0842
  491MOL0     C67676   9.619   6.416   2.320 -0.8402  0.5087  0.0536
  491MOL0     C67677   9.533   6.295   2.324 -0.1513  0.0866 -0.4716
  491MOL0     C67678   9.580   6.167   2.316 -0.8808 -0.2187 -0.3463
  491MOL0     O67679   9.497   6.065   2.334 -1.0429 -0.6044 -0.4933
  491MOL0     C67680   9.493   6.013   2.471  0.3970 -0.7832  1.3670
  491MOL0     C67681   9.473   5.868   2.488 -0.4859 -0.6444  1.7474
  491MOL0     C67682   9.338   5.820   2.432 -0.2032 -0.0488  0.2756
  491MOL0     C67683   9.291   5.689   2.484  0.4619  0.1624 -0.0213
  491MOL0     C67684   9.182   5.641   2.396 -0.3973 -0.1454  0.1303
  491MOL0     C67685   9.096   5.613   2.312  0.1249  0.2476  0.1034
  491MOL0     C67686   9.724   6.161   2.300  0.0371  0.4373  0.2406
  491MOL0     C67687   9.813   6.270   2.284 -0.3061 -0.1427  0.5133
  491MOL0     C67688   9.966   6.243   2.282  1.1135  0.1362 -0.5559
  491MOL0     H67689   9.619   6.812   2.304  0.8598 -2.2663  1.7205
  491MOL0     H67690   9.665   7.068   2.312  0.7700  0.1042 -0.5144
  491MOL0     H67691   9.999   7.331   2.402 -3.8738 -0.1984  3.6276
  491MOL0     H67692  10.098   7.196   2.350  0.6094  2.9259 -0.8759
  491MOL0     H67693   9.882   7.179   2.574 -0.6528  0.8496 -2.2204
  491MOL0     H67694   9.995   7.065   2.541 -0.5343  0.1739  0.4797
  491MOL0     H67695  10.081   7.176   2.722  0.9539  1.1537  0.8143
  491MOL0     H67696  10.190   7.211   2.587  1.0460  2.9616  0.2946
  491MOL0     H67697  10.194   7.392   2.735  0.6228 -0.0041  0.0151
  491MOL0     H67698  10.094   7.463   2.603 -1.8392 -1.3042 -1.5385
  491MOL0     H67699   9.880   7.388   2.719 -0.1099 -1.5337 -0.0997
  491MOL0     H67700   9.969   7.526   2.781 -2.6851 -0.0799  1.2974
  491MOL0     H67701   9.981   7.251   2.894 -0.2237  0.0989  0.9063
  491MOL0     H67702  10.069   7.402   2.952  2.0462 -0.2704 -1.8173
  491MOL0     H67703   9.771   7.384   2.936  0.5039  1.0271 -0.1409
  491MOL0     H67704   9.856   7.519   3.015  2.9853 -0.2447  0.5356
  491MOL0     H67705   9.809   7.242   3.108 -3.3432  1.9508 -0.1557
  491MOL0     H67706   9.959   7.328   3.160  1.1539 -1.2901 -1.2231
  491MOL0     H67707   9.879   7.345   3.402  0.4150 -0.1577 -1.3117
  491MOL0     H67708   9.634   7.626   3.550 -1.3685 -0.5859 -0.7572
  491MOL0     H67709   9.798   7.562   3.592 -1.0604  0.1053 -0.3233
  491MOL0     H67710   9.552   7.397   3.636  0.4569 -2.1508 -1.5487
  491MOL0     H67711   9.724   7.362   3.680  1.4623  0.8087  2.7333
  491MOL0     H67712   9.710   7.587   3.816  1.1391 -1.3604 -3.6725
  491MOL0     H67713   9.536   7.572   3.811 -1.3880 -2.0932 -1.1072
  491MOL0     H67714   9.610   7.323   3.890  1.8077  0.0230 -0.1868
  491MOL0     H67715   9.745   7.420   3.960  0.8274  0.2326 -0.9298
  491MOL0     H67716   9.419   7.558   4.223 -2.0283 -1.3625  0.9214
  491MOL0     H67717   9.439   7.541   4.562  0.6599 -1.3093  1.0126
  491MOL0     H67718   9.325   7.419   4.511  0.3782  1.8101  2.1747
  491MOL0     H67719   9.336   7.580   4.423  0.7939 -0.6566 -1.5949
  491MOL0     H67720   9.564   6.963   4.705 -1.6785  0.4114  1.5503
  491MOL0     H67721   9.614   6.868   4.903  3.0755 -2.5019  2.5807
  491MOL0     H67722   9.735   6.820   5.194 -0.3373  1.3830  1.2557
  491MOL0     H67723   9.815   6.776   5.044 -5.1291  2.0930 -0.8412
  491MOL0     H67724   9.956   6.904   5.291 -0.2696 -2.1086  1.4329
  491MOL0     H67725   9.979   6.737   5.237  1.6073  0.0676  0.4140
  491MOL0     H67726  10.039   6.968   5.048  2.2636 -0.8228 -0.6348
  491MOL0     H67727  10.041   6.801   5.011  0.9848 -1.5432  0.9762
  491MOL0     H67728  10.268   6.908   5.050 -0.9611 -0.0984 -1.2552
  491MOL0     H67729  10.240   6.765   5.143 -0.6357  0.2840  2.2065
  491MOL0     H67730  10.198   6.897   5.348  2.8092  2.1392  2.6944
  491MOL0     H67731  10.350   6.931   5.277  0.8380  0.9860 -0.7893
  491MOL0     H67732  10.107   7.110   5.259 -0.4396 -1.2495 -0.6267
  491MOL0     H67733  10.267   7.150   5.180 -3.3306  0.2320 -1.8035
  491MOL0     H67734  10.195   7.120   5.464  0.4555 -1.9429 -1.1730
  491MOL0     H67735  10.205   7.273   5.367 -1.3842 -0.3252 -1.0573
  491MOL0     H67736  10.461   7.215   5.335  0.3419  3.2179  2.3747
  491MOL0     H67737  10.420   7.055   5.408  1.5444  0.0233  1.5387
  491MOL0     H67738   9.891   7.179   4.992 -0.8732  1.4183 -0.6300
  491MOL0     H67739   9.833   7.297   4.775 -0.2806 -0.4726 -1.7399
  491MOL0     H67740   9.749   7.219   4.346  0.4290  0.7813  2.8646
  491MOL0     H67741   9.747   7.289   4.128  0.2067  0.6116 -0.4808
  491MOL0     H67742  10.084   6.969   2.307 -0.6051 -1.2467 -2.7320
  491MOL0     H67743  10.047   6.738   2.305  3.5835  4.4666  2.8415
  491MOL0     H67744   9.576   6.513   2.339 -1.5130  0.3473 -0.6149
  491MOL0     H67745   9.426   6.311   2.325  0.0525  2.7021 -3.6172
  491MOL0     H67746   9.589   6.032   2.519 -0.3522  0.6979  2.3688
  491MOL0     H67747   9.413   6.068   2.521 -0.3833  0.8001 -1.4275
  491MOL0     H67748   9.464   5.851   2.596 -1.4228 -0.8709  1.6436
  491MOL0     H67749   9.557   5.812   2.445 -2.6086 -0.9058 -2.5805
  491MOL0     H67750   9.260   5.895   2.449 -0.8122 -0.5321 -0.2960
  491MOL0     H67751   9.370   5.811   2.328  4.1582 -1.3417  1.5182
  491MOL0     H67752   9.265   5.689   2.591  2.2613 -1.6703  0.4739
  491MOL0     H67753   9.373   5.618   2.473 -1.2093 -2.0507  1.0456
  491MOL0     H67754   9.014   5.597   2.244 -1.3898 -0.8898  2.0699
  491MOL0     H67755   9.779   6.068   2.313  2.8815  2.2756  2.5848
  491MOL0     H67756  10.017   6.284   2.194 -1.3047  0.9940 -1.6213
  491MOL0     H67757  10.017   6.279   2.372  3.5532  0.3986 -1.9591
  491MOL0     H67758   9.985   6.137   2.264 -0.4692 -0.1614 -0.6011
  492MOL0     O67759   0.623   1.868   0.189 -0.3221 -0.2680  0.0502
  492MOL0     C67760   0.619   1.969   0.121  0.3172  0.0363  1.2698
  492MOL0     O67761   0.710   2.078   0.129  0.4525  0.3069 -0.3447
  492MOL0     C67762   0.840   2.076   0.186 -0.1251  0.5643 -0.2494
  492MOL0     C67763   0.939   2.151   0.116  0.9993  0.1236 -0.1853
  492MOL0     C67764   1.075   2.140   0.149  0.3845 -0.6762 -1.1033
  492MOL0     C67765   1.112   2.057   0.259 -0.0025  0.1808  0.3045
  492MOL0     O67766   1.244   2.045   0.279 -0.9741 -0.1505  0.1747
  492MOL0     C67767   1.304   1.948   0.369  0.4060  0.0959  0.2946
  492MOL0     C67768   1.455   1.958   0.338 -0.3577  0.4815 -0.2115
  492MOL0     C67769   1.523   1.880   0.450  0.5115  0.2794 -0.6121
  492MOL0     C67770   1.673   1.906   0.443 -0.5056 -0.1143  0.4940
  492MOL0     C67771   1.743   1.804   0.534 -0.0972 -1.5310 -0.0010
  492MOL0     C67772   1.899   1.825   0.516  1.1299  0.2109  0.2730
  492MOL0     C67773   1.956   1.949   0.575 -0.7513 -0.4583  0.0129
  492MOL0     C67774   2.108   1.949   0.560 -0.4278  0.2451  0.7517
  492MOL0     N67775   2.173   2.058   0.623  0.2501  0.2550 -0.5679
  492MOL0     C67776   2.149   2.108   0.750 -0.2076 -0.4038  0.0701
  492MOL0     C67777   2.241   2.206   0.769 -0.2812 -0.7609 -0.1928
  492MOL0     C67778   2.273   2.295   0.889  0.6759 -0.1035 -0.4742
  492MOL0     C67779   2.418   2.280   0.937  0.4121  0.1121  0.2767
  492MOL0     C67780   2.470   2.141   0.982  0.4450 -0.4001  0.4165
  492MOL0     C67781   2.403   2.104   1.122  0.0252  0.0314  0.8899
  492MOL0     O67782   2.262   2.073   1.104 -0.4085  0.0572 -0.6007
  492MOL0     C67783   2.231   1.968   1.021 -0.4855  0.6614 -0.8631
  492MOL0     C67784   2.095   1.934   1.017 -0.3380 -0.0828 -0.5330
  492MOL0     C67785   2.053   1.826   0.948 -0.6619 -0.2128 -0.0259
  492MOL0     C67786   1.896   1.805   0.943 -0.0604  0.1517 -0.0006
  492MOL0     C67787   2.149   1.750   0.877 -0.0581  0.4348  0.2881
  492MOL0     C67788   2.107   1.634   0.785 -0.1791  0.5190  0.7492
  492MOL0     O67789   2.196   1.586   0.688 -0.4467 -0.3118  0.1243
  492MOL0     C67790   2.149   1.499   0.590  0.3774 -0.5746 -0.5233
  492MOL0     C67791   2.092   1.378   0.633  0.6293  0.1826 -0.3906
  492MOL0     C67792   2.045   1.287   0.553  0.2062 -0.0325  0.3061
  492MOL0     C67793   2.060   1.313   0.415 -0.1463 -0.1156  0.5998
  492MOL0     O67794   2.024   1.220   0.327  0.1848  0.2823 -0.9670
  492MOL0     C67795   1.988   1.093   0.386 -0.5295  0.3049  1.0423
  492MOL0     C67796   1.984   0.993   0.263 -0.1343  0.2616 -0.2771
  492MOL0     C67797   1.892   1.046   0.151 -0.5030  0.4205 -0.4844
  492MOL0     C67798   1.857   0.934   0.045  0.3533 -0.4378 -0.1378
  492MOL0     C67799   1.763   0.990  -0.067  0.1726  1.2114 -0.5870
  492MOL0     C67800   1.744   0.866  -0.164  0.5277  0.0506 -0.3701
  492MOL0     C67801   1.661   0.908  -0.276  1.0423  0.5489  0.9815
  492MOL0     C67802   1.652   0.801  -0.386  0.3228 -0.0633  0.9912
  492MOL0    Cl67803   1.569   0.658  -0.333 -0.2638  0.0474 -0.1992
  492MOL0     C67804   2.117   1.433   0.363  0.4633  0.3132  1.2903
  492MOL0     C67805   2.154   1.526   0.452 -0.7484 -0.2887 -0.6318
  492MOL0     O67806   1.989   1.589   0.796 -0.0012 -0.5151 -0.8752
  492MOL0     C67807   2.286   1.776   0.894 -0.0318  0.2669  0.4056
  492MOL0     C67808   2.328   1.879   0.970  0.2940 -0.5976 -1.0962
  492MOL0     N67809   2.326   2.204   0.660  0.3963 -0.2705 -0.6216
  492MOL0     N67810   2.295   2.110   0.577 -0.1028  0.5532 -0.1179
  492MOL0     C67811   1.019   1.985   0.325 -0.2868 -0.1959 -0.6140
  492MOL0     C67812   0.881   1.989   0.291  0.6416  0.3748 -0.8567
  492MOL0     C67813   0.520   1.948   0.006 -0.4397 -0.0544 -0.1270
  492MOL0     C67814   0.498   1.815  -0.043 -0.7699 -0.1902 -0.2759
  492MOL0     C67815   0.425   1.794  -0.159 -0.3172  0.4033  0.0260
  492MOL0     C67816   0.372   1.900  -0.234 -0.8020  0.0968 -0.7348
  492MOL0     O67817   0.303   1.885  -0.348  0.1639  0.2460  0.6535
  492MOL0     C67818   0.379   1.878  -0.463  0.3598  1.2379  0.9519
  492MOL0     C67819   0.291   1.908  -0.581  0.3867  0.9746 -0.6683
  492MOL0     C67820   0.204   1.788  -0.618 -0.1151  0.4949  0.8848
  492MOL0     C67821   0.113   1.828  -0.733  0.2252 -0.4476 -0.3501
  492MOL0     C67822   0.167   1.837  -0.870 -0.1751  1.5129  0.0535
  492MOL0     C67823   0.227   1.837  -0.977  0.3949  0.3750  0.0378
  492MOL0     C67824   0.401   2.028  -0.191  0.0257 -0.6942 -0.0152
  492MOL0     C67825   0.479   2.057  -0.078 -0.5340  0.2027  0.1834
  492MOL0     C67826   0.502   2.201  -0.050 -0.3404  0.5073  0.3570
  492MOL0     H67827   0.901   2.201   0.028  1.1980  0.6738  0.0378
  492MOL0     H67828   1.139   2.211   0.098 -1.6017  1.6478 -0.5335
  492MOL0     H67829   1.267   1.851   0.333  1.9966  0.6727 -3.4613
  492MOL0     H67830   1.291   1.973   0.474  5.7167  2.9535  0.6220
  492MOL0     H67831   1.489   1.913   0.245  0.8737  3.2836 -1.2277
  492MOL0     H67832   1.485   2.063   0.344  0.3446  0.2914 -0.3364
  492MOL0     H67833   1.490   1.903   0.552  2.1178  2.2566 -0.4516
  492MOL0     H67834   1.512   1.772   0.436  2.8998  0.1035 -1.6415
  492MOL0     H67835   1.711   1.910   0.341 -2.0727  4.5487 -0.1127
  492MOL0     H67836   1.697   2.006   0.481 -2.4910  0.1303  1.2083
  492MOL0     H67837   1.710   1.704   0.504 -2.1090 -1.8521  2.8638
  492MOL0     H67838   1.716   1.815   0.640 -0.5762 -3.8129  0.1631
  492MOL0     H67839   1.948   1.741   0.566  0.5269  0.6000  1.5836
  492MOL0     H67840   1.932   1.815   0.412 -1.3936 -0.1688 -0.5679
  492MOL0     H67841   1.914   1.958   0.676 -2.7199 -0.0903 -0.8092
  492MOL0     H67842   1.937   2.042   0.522 -1.3836 -2.0081 -2.6153
  492MOL0     H67843   2.134   1.852   0.605 -3.6628 -0.6044  1.0719
  492MOL0     H67844   2.129   1.954   0.453 -2.1583  0.9184  0.4163
  492MOL0     H67845   2.063   2.081   0.811 -0.4885  0.2741 -0.0199
  492MOL0     H67846   2.204   2.257   0.966  1.4899 -2.0238 -0.6310
  492MOL0     H67847   2.230   2.393   0.869 -2.5059 -1.2139  0.2211
  492MOL0     H67848   2.483   2.313   0.856 -2.5279  1.4103 -1.6877
  492MOL0     H67849   2.426   2.356   1.015 -2.4769  2.2784 -1.3333
  492MOL0     H67850   2.447   2.070   0.902 -0.5562 -0.7975  1.0176
  492MOL0     H67851   2.577   2.140   1.002  0.3948 -5.2781  1.8737
  492MOL0     H67852   2.451   2.012   1.157 -0.2539 -0.9502 -1.1382
  492MOL0     H67853   2.416   2.175   1.204 -0.4791 -3.8482  4.6942
  492MOL0     H67854   2.029   1.988   1.084  0.6772 -0.3170  0.6931
  492MOL0     H67855   1.865   1.724   1.009 -0.8604 -1.6344 -2.4395
  492MOL0     H67856   1.852   1.783   0.845 -0.4985 -2.2441  0.6808
  492MOL0     H67857   1.857   1.899   0.983 -0.6317  0.3070 -0.8798
  492MOL0     H67858   2.091   1.352   0.738 -0.3613  0.7992 -0.2366
  492MOL0     H67859   2.005   1.204   0.611  1.0463  0.2996  1.3775
  492MOL0     H67860   2.062   1.063   0.461  1.8651  1.3633 -0.7412
  492MOL0     H67861   1.889   1.106   0.430  0.3419  3.9461  2.2172
  492MOL0     H67862   2.082   0.966   0.222  1.9790  2.8120  2.5845
  492MOL0     H67863   1.937   0.906   0.310  1.5456  0.5228  2.1273
  492MOL0     H67864   1.942   1.136   0.114 -0.7602  1.1531  0.8664
  492MOL0     H67865   1.801   1.062   0.210 -2.5692  2.2945 -3.8285
  492MOL0     H67866   1.812   0.850   0.098  0.1744  1.7882  3.6168
  492MOL0     H67867   1.947   0.906  -0.011  1.9130 -3.0127  3.3315
  492MOL0     H67868   1.667   1.022  -0.024 -1.8500 -0.6352 -3.3863
  492MOL0     H67869   1.804   1.073  -0.126  3.2961 -0.7328 -1.3765
  492MOL0     H67870   1.699   0.785  -0.105  0.5433 -1.2603 -2.0814
  492MOL0     H67871   1.838   0.831  -0.209  0.6495  0.4568 -0.4328
  492MOL0     H67872   1.703   0.996  -0.324 -0.7401  0.8875 -0.0652
  492MOL0     H67873   1.563   0.945  -0.244  0.3116 -0.0678 -0.4652
  492MOL0     H67874   1.755   0.770  -0.405 -0.1978 -1.0271 -0.4230
  492MOL0     H67875   1.611   0.842  -0.479  0.8837 -3.0565 -0.6719
  492MOL0     H67876   2.143   1.450   0.259 -0.7268 -0.1481  0.9045
  492MOL0     H67877   2.200   1.615   0.409 -1.3647  1.2669  1.7699
  492MOL0     H67878   2.366   1.719   0.848 -0.1773  0.8044 -0.5490
  492MOL0     H67879   2.434   1.895   0.986 -0.4564  5.1243  0.0288
  492MOL0     H67880   1.051   1.920   0.407  0.0951  0.9248  0.1462
  492MOL0     H67881   0.803   1.930   0.339  0.6918  2.8075  2.5630
  492MOL0     H67882   0.525   1.725   0.011  2.8322  0.5959 -0.5105
  492MOL0     H67883   0.398   1.691  -0.182  0.5508 -0.1118  1.2137
  492MOL0     H67884   0.461   1.950  -0.453  0.3676  1.4967 -0.7395
  492MOL0     H67885   0.421   1.777  -0.466  0.1432  1.1665 -1.0188
  492MOL0     H67886   0.344   1.946  -0.669  1.6021  0.7067 -0.0715
  492MOL0     H67887   0.226   1.990  -0.551 -1.3103  0.1533 -1.9117
  492MOL0     H67888   0.254   1.700  -0.660 -2.3312 -0.4685  0.0645
  492MOL0     H67889   0.143   1.755  -0.534 -1.2494  0.8666  0.2357
  492MOL0     H67890   0.071   1.925  -0.705 -1.1155 -0.8112 -1.0182
  492MOL0     H67891   0.033   1.755  -0.745 -0.0105 -0.1964 -0.3062
  492MOL0     H67892   0.277   1.827  -1.071  1.3212  2.3612  0.2495
  492MOL0     H67893   0.371   2.112  -0.254 -1.7222 -0.3836  1.1677
  492MOL0     H67894   0.429   2.259  -0.108  0.6563  0.9647 -0.4737
  492MOL0     H67895   0.480   2.225   0.054 -0.3912 -0.6162  0.6111
  492MOL0     H67896   0.604   2.235  -0.071 -0.4783  1.6611  1.4418
  493MOL0     O67897   1.895   6.052   9.551 -0.3050  0.3653 -0.1964
  493MOL0     C67898   1.967   6.108   9.628 -0.8057 -0.0288 -0.4131
  493MOL0     O67899   2.073   6.051   9.704 -0.1981 -0.4503  0.1551
  493MOL0     C67900   2.101   5.915   9.689 -1.1563 -0.9288 -0.2917
  493MOL0     C67901   2.233   5.887   9.669 -0.1832 -0.1934  0.3574
  493MOL0     C67902   2.265   5.752   9.654 -0.3981  0.1411 -0.3839
  493MOL0     C67903   2.174   5.643   9.675  0.6521 -0.2825 -0.3022
  493MOL0     O67904   2.214   5.513   9.669 -0.1429  0.0605  0.4180
  493MOL0     C67905   2.350   5.478   9.716  0.1775  0.0618  0.2838
  493MOL0     C67906   2.370   5.323   9.723 -0.4371  0.1722 -0.6919
  493MOL0     C67907   2.518   5.297   9.715 -0.5983 -0.2335 -0.2567
  493MOL0     C67908   2.559   5.153   9.741  0.4310 -1.6907  0.7648
  493MOL0     C67909   2.716   5.147   9.733  0.1086  0.6888  0.1203
  493MOL0     C67910   2.749   5.000   9.719 -0.2737 -0.1361  0.3090
  493MOL0     C67911   2.898   4.974   9.765 -0.2369 -0.1446  0.1367
  493MOL0     C67912   2.939   4.835   9.719  0.0513 -0.4329 -0.2333
  493MOL0     N67913   3.083   4.823   9.745  0.4294  1.1361  0.2294
  493MOL0     C67914   3.185   4.792   9.661 -0.6471  0.0334  0.2389
  493MOL0     C67915   3.299   4.781   9.736  0.4766  0.4770  1.2449
  493MOL0     C67916   3.441   4.760   9.700 -0.8523  0.2680  1.2220
  493MOL0     C67917   3.518   4.641   9.767  0.4328  0.6365 -0.9772
  493MOL0     C67918   3.471   4.498   9.728  0.1544  0.1691  0.4164
  493MOL0     C67919   3.554   4.393   9.795 -0.1762  0.6216 -0.5759
  493MOL0     O67920   3.599   4.420   9.930  0.4748 -0.3282 -0.0864
  493MOL0     C67921   3.674   4.330   9.989  0.2150  0.1761 -0.3719
  493MOL0     C67922   3.673   4.328  10.130 -0.2530 -0.2156 -0.3160
  493MOL0     C67923   3.746   4.244  10.203  0.0511  0.7805 -0.6066
  493MOL0     C67924   3.709   4.246  10.350 -0.0216  0.2885  0.1905
  493MOL0     C67925   3.850   4.170  10.136  0.0885  0.4150 -0.9874
  493MOL0     C67926   3.954   4.086  10.208  0.6697  0.0409 -0.0706
  493MOL0     O67927   3.993   3.968  10.141 -0.6028  0.2231 -0.6057
  493MOL0     C67928   4.112   3.911  10.188  0.4442  0.6302  0.7436
  493MOL0     C67929   4.114   3.774  10.175  0.1281 -0.3218  0.5655
  493MOL0     C67930   4.239   3.708  10.193 -0.6313 -0.4568  1.4778
  493MOL0     C67931   4.362   3.778  10.229  0.4449 -0.6091  0.5500
  493MOL0     O67932   4.475   3.722  10.251 -0.5709 -0.2276  0.0581
  493MOL0     C67933   4.473   3.641  10.372  0.0754 -0.9494 -0.1840
  493MOL0     C67934   4.595   3.539  10.358 -0.7864 -0.2643  0.3327
  493MOL0     C67935   4.732   3.608  10.332  0.1563 -0.2727 -0.5441
  493MOL0     C67936   4.808   3.652  10.455  0.9751  0.6700  0.1234
  493MOL0     C67937   4.754   3.768  10.527  0.3769 -0.3601 -0.1794
  493MOL0     C67938   4.852   3.833  10.617 -0.6037 -0.5778 -0.6707
  493MOL0     C67939   4.898   3.739  10.737  0.7145 -0.3994  0.0571
  493MOL0     C67940   5.010   3.804  10.821  0.1098 -0.4691  0.6032
  493MOL0    Cl67941   4.953   3.961  10.898 -0.0544 -0.2223  0.4292
  493MOL0     C67942   4.347   3.918  10.236 -1.4652  0.5722  0.6089
  493MOL0     C67943   4.223   3.980  10.224  0.3321  0.8490 -0.0012
  493MOL0     O67944   3.998   4.119  10.318 -0.0197  0.3209 -0.2555
  493MOL0     C67945   3.850   4.167   9.992 -0.1840  0.1679 -0.0547
  493MOL0     C67946   3.764   4.249   9.920  1.1612  0.5246  0.6928
  493MOL0     N67947   3.253   4.789   9.867  0.7235 -0.1818 -0.0839
  493MOL0     N67948   3.121   4.807   9.872  0.4763 -0.0570 -0.1264
  493MOL0     C67949   2.041   5.679   9.691 -0.1804 -0.0783 -0.2194
  493MOL0     C67950   2.012   5.814   9.711  0.6153  0.4482  0.0398
  493MOL0     C67951   1.952   6.257   9.637 -0.5411  0.5661 -0.2975
  493MOL0     C67952   2.055   6.332   9.700  0.3808 -0.2740 -0.0741
  493MOL0     C67953   2.046   6.476   9.700 -0.6448 -0.5311 -0.4697
  493MOL0     C67954   1.928   6.541   9.655  0.8691  0.6491 -0.5583
  493MOL0     O67955   1.900   6.671   9.668 -0.3124 -0.3548  0.5880
  493MOL0     C67956   1.964   6.739   9.774 -0.6059 -0.2343 -0.4777
  493MOL0     C67957   1.964   6.688   9.923 -1.1223 -0.2805  0.7266
  493MOL0     C67958   1.819   6.640   9.960 -0.3109  0.9071 -0.4946
  493MOL0     C67959   1.704   6.738   9.945 -0.3589  0.2726 -0.2840
  493MOL0     C67960   1.723   6.839  10.055  0.2995  0.2574  1.1225
  493MOL0     C67961   1.759   6.911  10.149 -0.3830 -0.4887  0.7655
  493MOL0     C67962   1.836   6.459   9.598  0.3152  0.3926  0.2278
  493MOL0     C67963   1.835   6.317   9.592  0.7680  0.7623 -1.4209
  493MOL0     C67964   1.714   6.255   9.532  0.6472  0.0484  0.1144
  493MOL0     H67965   2.308   5.961   9.645  1.5727 -1.7382  0.8170
  493MOL0     H67966   2.369   5.732   9.633  0.3618  1.2354  1.9639
  493MOL0     H67967   2.374   5.515   9.816  0.8897  0.6394 -0.0938
  493MOL0     H67968   2.428   5.525   9.656  2.8006 -3.7714  0.2877
  493MOL0     H67969   2.326   5.291   9.818  0.5710 -1.9537 -0.8877
  493MOL0     H67970   2.318   5.290   9.633 -1.4805  2.3465 -0.9512
  493MOL0     H67971   2.559   5.341   9.623 -1.9561  1.3928 -0.1180
  493MOL0     H67972   2.565   5.355   9.795  0.9474 -0.3019 -1.0585
  493MOL0     H67973   2.538   5.121   9.844 -0.6244  0.2362  1.2161
  493MOL0     H67974   2.507   5.081   9.678 -2.3372  2.4891 -2.2568
  493MOL0     H67975   2.757   5.194   9.822  1.0804  0.7395 -0.3471
  493MOL0     H67976   2.742   5.202   9.642  0.7361  1.7630  0.9414
  493MOL0     H67977   2.684   4.945   9.789  1.5485 -0.3987  1.8754
  493MOL0     H67978   2.725   4.972   9.616 -2.2045 -0.3275  0.7669
  493MOL0     H67979   2.902   4.971   9.874 -1.5852 -2.8038  0.2228
  493MOL0     H67980   2.975   5.039   9.724 -1.1209  1.0377  0.3220
  493MOL0     H67981   2.884   4.761   9.777  0.5657  0.7327  1.8474
  493MOL0     H67982   2.926   4.804   9.615  1.5419 -0.6581 -0.3799
  493MOL0     H67983   3.181   4.790   9.552  0.9353  4.3728 -0.0803
  493MOL0     H67984   3.501   4.848   9.725  1.6017 -1.0111  0.2138
  493MOL0     H67985   3.435   4.741   9.592 -2.2362 -1.8299  1.6114
  493MOL0     H67986   3.626   4.648   9.784 -0.1233  2.3572  2.6582
  493MOL0     H67987   3.488   4.647   9.872  1.3774  1.1104 -0.7221
  493MOL0     H67988   3.366   4.482   9.752  0.1070  0.9774  0.7739
  493MOL0     H67989   3.478   4.489   9.619  1.6943  0.8333  0.4367
  493MOL0     H67990   3.497   4.300   9.802 -2.4875  2.0840  1.8619
  493MOL0     H67991   3.634   4.395   9.720 -1.3325  1.9857 -1.8351
  493MOL0     H67992   3.600   4.395  10.175 -0.6337 -0.1149 -1.0762
  493MOL0     H67993   3.799   4.258  10.412  1.7755  1.5030 -2.4735
  493MOL0     H67994   3.662   4.152  10.380  0.3972  1.0684  3.8541
  493MOL0     H67995   3.649   4.333  10.376 -2.0168 -0.6061 -1.1610
  493MOL0     H67996   4.021   3.732  10.139  0.0080 -0.4517  1.0252
  493MOL0     H67997   4.224   3.603  10.169  0.0370  0.0163 -1.3783
  493MOL0     H67998   4.499   3.699  10.461  3.1989 -2.8038  0.2382
  493MOL0     H67999   4.380   3.584  10.388  0.1724 -1.3114 -0.8683
  493MOL0     H68000   4.593   3.481  10.450 -1.8425  0.5739  0.8513
  493MOL0     H68001   4.567   3.470  10.277 -0.0038  0.5357 -0.6419
  493MOL0     H68002   4.727   3.697  10.269 -0.2648  1.3217  1.6417
  493MOL0     H68003   4.793   3.538  10.275  0.8645  1.3956 -1.9173
  493MOL0     H68004   4.911   3.667  10.419  0.8825 -2.0162 -1.5203
  493MOL0     H68005   4.821   3.581  10.537  3.2614  2.0471  1.0747
  493MOL0     H68006   4.708   3.834  10.453 -2.6238 -1.3604  0.6637
  493MOL0     H68007   4.670   3.730  10.585 -1.1669  0.7140 -1.6149
  493MOL0     H68008   4.796   3.915  10.662 -1.3623 -0.8762 -1.0537
  493MOL0     H68009   4.931   3.878  10.556 -1.8683  2.8386 -0.0460
  493MOL0     H68010   4.910   3.634  10.710 -3.0102 -2.0822  3.7306
  493MOL0     H68011   4.811   3.722  10.801 -2.2863 -1.8204 -3.9739
  493MOL0     H68012   5.084   3.825  10.743  0.0138  0.1252  0.6663
  493MOL0     H68013   5.061   3.740  10.894  3.8038  0.8715 -0.5738
  493MOL0     H68014   4.431   3.982  10.260 -2.4158  1.1869  2.4684
  493MOL0     H68015   4.228   4.088  10.236 -1.8144  0.7795  2.7170
  493MOL0     H68016   3.918   4.109   9.930 -0.9387 -0.8858  0.0844
  493MOL0     H68017   3.773   4.248   9.812  1.1554  1.7943  0.6586
  493MOL0     H68018   1.980   5.594   9.717  0.2530 -0.3162  0.0192
  493MOL0     H68019   1.916   5.851   9.746  1.4121  2.7567 -0.0064
  493MOL0     H68020   2.151   6.285   9.720  0.5531  0.0095 -0.2080
  493MOL0     H68021   2.129   6.537   9.734 -2.3375  2.0347 -0.6698
  493MOL0     H68022   2.069   6.757   9.751 -0.0913 -0.4646  1.5713
  493MOL0     H68023   1.920   6.840   9.768  0.9125  0.4620 -0.3178
  493MOL0     H68024   2.014   6.760   9.988  3.0070 -1.2026 -1.0641
  493MOL0     H68025   2.025   6.599   9.946  0.5872  0.7423  0.3169
  493MOL0     H68026   1.801   6.551   9.898  0.7701  0.8940 -0.8195
  493MOL0     H68027   1.827   6.607  10.064 -0.5916  1.9935 -0.1249
  493MOL0     H68028   1.609   6.685   9.954 -0.3732  0.5999  2.7345
  493MOL0     H68029   1.710   6.786   9.847 -1.5948  1.9839  0.4285
  493MOL0     H68030   1.805   6.977  10.220  1.3541  0.6225 -1.2743
  493MOL0     H68031   1.746   6.497   9.551 -1.3155 -2.7610  0.5244
  493MOL0     H68032   1.695   6.161   9.585  2.8673  0.6229  2.1368
  493MOL0     H68033   1.625   6.310   9.564  1.3064 -0.2050  2.6723
  493MOL0     H68034   1.705   6.254   9.423  0.0580 -1.2462  0.1527
  494MOL0     O68035   8.310   5.027   3.585 -0.1625  0.0616  0.0818
  494MOL0     C68036   8.289   4.994   3.703  0.0194 -0.6164  0.7862
  494MOL0     O68037   8.308   4.866   3.748  0.8218  0.3569 -0.1003
  494MOL0     C68038   8.339   4.762   3.668 -0.2464  0.1658 -0.8693
  494MOL0     C68039   8.254   4.685   3.596  0.2804 -0.0785  0.4175
  494MOL0     C68040   8.294   4.574   3.528  0.2418 -0.8125  0.2317
  494MOL0     C68041   8.423   4.529   3.552 -0.0618 -0.4210  1.1771
  494MOL0     O68042   8.475   4.413   3.488  0.3131  0.9266 -0.8905
  494MOL0     C68043   8.373   4.315   3.453 -0.6589  1.1847 -0.5126
  494MOL0     C68044   8.333   4.244   3.584  0.4397 -0.7069  0.5208
  494MOL0     C68045   8.189   4.199   3.602  0.5281 -0.0836  0.2548
  494MOL0     C68046   8.176   4.066   3.544  0.1304  1.2339  0.4283
  494MOL0     C68047   8.036   4.022   3.526  0.6942 -0.1455  0.0807
  494MOL0     C68048   7.950   4.008   3.655  0.2233  1.0587 -0.9268
  494MOL0     C68049   7.798   4.006   3.616  0.3469  0.7034 -0.4305
  494MOL0     C68050   7.705   3.959   3.732 -0.5062  0.0482  0.2102
  494MOL0     N68051   7.686   4.060   3.836 -0.6140 -0.2022 -0.0511
  494MOL0     C68052   7.636   4.183   3.802 -0.1336 -0.1882 -0.0643
  494MOL0     C68053   7.651   4.256   3.914  0.0366  0.2517 -0.1112
  494MOL0     C68054   7.635   4.399   3.925  0.7632 -0.2823 -0.0021
  494MOL0     C68055   7.761   4.466   3.864  0.4257 -0.1269  0.4164
  494MOL0     C68056   7.880   4.463   3.962 -0.3622 -1.0208 -0.2696
  494MOL0     C68057   8.002   4.530   3.908  1.3066 -0.2831  0.3318
  494MOL0     O68058   7.978   4.666   3.886 -0.8910  0.3301  0.1069
  494MOL0     C68059   7.967   4.759   3.989  0.6659 -0.1915  0.1139
  494MOL0     C68060   7.931   4.885   3.957  0.3738 -0.5512  0.7754
  494MOL0     C68061   7.911   4.986   4.051 -0.0356  0.1584  0.1194
  494MOL0     C68062   7.872   5.121   3.994 -0.1453 -0.3407  0.2774
  494MOL0     C68063   7.939   4.955   4.185 -0.2390 -0.3018  0.3245
  494MOL0     C68064   7.907   5.053   4.290  1.1119  0.3974 -0.0345
  494MOL0     O68065   7.773   5.080   4.297  0.2472 -0.7156  0.4103
  494MOL0     C68066   7.740   5.212   4.323  0.1731  0.1496 -1.1984
  494MOL0     C68067   7.614   5.220   4.372  0.9304 -0.0384  0.6988
  494MOL0     C68068   7.555   5.346   4.399  0.0744 -0.0627  1.0066
  494MOL0     C68069   7.626   5.464   4.366 -0.2610  0.7682  0.3708
  494MOL0     O68070   7.585   5.596   4.366  0.2875  0.4454 -0.1658
  494MOL0     C68071   7.460   5.618   4.450 -0.8423 -1.4119  0.3461
  494MOL0     C68072   7.506   5.630   4.601 -0.3562 -0.9591  0.5567
  494MOL0     C68073   7.429   5.730   4.686  0.1399 -0.4621  0.0040
  494MOL0     C68074   7.278   5.725   4.660  0.5178 -0.0719 -0.6673
  494MOL0     C68075   7.199   5.770   4.778 -0.2148 -0.1285 -0.3332
  494MOL0     C68076   7.047   5.786   4.748 -0.2060 -0.0767  0.2890
  494MOL0     C68077   6.983   5.652   4.749  0.3519 -0.0070 -1.1321
  494MOL0     C68078   6.847   5.648   4.681 -0.0741 -0.1626  0.0039
  494MOL0    Cl68079   6.887   5.650   4.502  0.0300  0.1433  0.1404
  494MOL0     C68080   7.749   5.448   4.301 -0.0134 -0.8562 -0.2344
  494MOL0     C68081   7.807   5.331   4.279 -0.5828  0.4284 -0.6229
  494MOL0     O68082   7.990   5.080   4.371  0.1662 -0.2104 -0.2103
  494MOL0     C68083   7.977   4.830   4.218 -0.3591  0.0174  0.4037
  494MOL0     C68084   7.994   4.732   4.124  1.2083 -0.4176 -0.2360
  494MOL0     N68085   7.712   4.176   4.011 -0.2138  0.9772  1.3714
  494MOL0     N68086   7.732   4.057   3.963 -0.6088  0.7333 -0.5080
  494MOL0     C68087   8.509   4.592   3.639 -0.6035 -0.9186  0.3968
  494MOL0     C68088   8.468   4.712   3.691 -1.1034  0.3105  0.0069
  494MOL0     C68089   8.246   5.095   3.813  0.3257  0.2075 -1.0889
  494MOL0     C68090   8.246   5.060   3.948 -0.1571  0.1679 -0.4504
  494MOL0     C68091   8.212   5.146   4.049  0.0362  0.3924  0.7179
  494MOL0     C68092   8.188   5.278   4.023  1.3440 -0.2618  0.0643
  494MOL0     O68093   8.163   5.377   4.120  0.6557  0.3278 -0.4092
  494MOL0     C68094   8.182   5.351   4.265  0.3001  0.4048 -0.2203
  494MOL0     C68095   8.193   5.477   4.332 -0.2188  0.0784  0.4373
  494MOL0     C68096   8.223   5.471   4.487  0.4426 -0.3839  0.1389
  494MOL0     C68097   8.106   5.421   4.566  0.7643  0.8017  0.0740
  494MOL0     C68098   7.992   5.516   4.570  0.7181 -1.1866  0.2220
  494MOL0     C68099   7.904   5.600   4.604  0.8904 -0.1617 -0.1892
  494MOL0     C68100   8.178   5.323   3.888 -0.0106 -0.8789 -1.0145
  494MOL0     C68101   8.205   5.228   3.785 -0.3978  0.0501 -0.6262
  494MOL0     C68102   8.215   5.290   3.656 -0.7881  0.6951  0.2629
  494MOL0     H68103   8.151   4.721   3.588  0.8109  1.6911  1.1271
  494MOL0     H68104   8.222   4.534   3.457 -0.4119 -0.3256  0.5988
  494MOL0     H68105   8.433   4.241   3.399  0.5907  1.1337  0.8618
  494MOL0     H68106   8.289   4.350   3.394 -1.1966 -2.7997 -2.3628
  494MOL0     H68107   8.408   4.164   3.592  3.5676  2.0050  0.5602
  494MOL0     H68108   8.362   4.308   3.668  2.9134 -2.1399  0.8611
  494MOL0     H68109   8.159   4.214   3.706 -2.7763  3.8905 -0.9944
  494MOL0     H68110   8.124   4.270   3.551  0.7400  0.0912  0.2240
  494MOL0     H68111   8.226   4.062   3.446 -2.1817  1.0096 -0.8276
  494MOL0     H68112   8.229   3.992   3.605  0.3455 -1.3249 -2.5658
  494MOL0     H68113   8.035   3.931   3.466 -0.0780  0.0336 -0.1939
  494MOL0     H68114   7.987   4.097   3.463  0.8095 -3.1216 -3.9692
  494MOL0     H68115   7.982   3.915   3.704  0.5493  1.0345 -1.1766
  494MOL0     H68116   7.971   4.096   3.716  0.1970  1.9802 -2.1991
  494MOL0     H68117   7.787   3.948   3.525 -1.2198  0.1519  0.0765
  494MOL0     H68118   7.765   4.107   3.590 -1.9787  1.0481  3.0699
  494MOL0     H68119   7.610   3.924   3.691  0.9515 -2.2186 -1.4486
  494MOL0     H68120   7.756   3.869   3.767  0.1791 -0.0569 -0.9927
  494MOL0     H68121   7.595   4.214   3.707  2.2123  0.7003 -0.8590
  494MOL0     H68122   7.627   4.425   4.031  2.4507  3.3124 -0.6079
  494MOL0     H68123   7.544   4.443   3.883  1.5497  1.8093  0.3521
  494MOL0     H68124   7.783   4.428   3.764  0.1000  1.0824 -0.1371
  494MOL0     H68125   7.732   4.568   3.838  0.0423  0.4238  2.7107
  494MOL0     H68126   7.855   4.513   4.057  2.8215 -0.3853  0.3612
  494MOL0     H68127   7.901   4.360   3.991  0.8253 -1.1417 -1.4600
  494MOL0     H68128   8.075   4.509   3.987  3.7006 -0.3427 -1.7422
  494MOL0     H68129   8.027   4.488   3.810 -2.2443  0.9645 -1.2595
  494MOL0     H68130   7.920   4.906   3.851  0.6114 -1.1126  0.6317
  494MOL0     H68131   7.882   5.122   3.885 -0.9630  0.0296  0.1972
  494MOL0     H68132   7.917   5.208   4.043 -2.8985  1.7933 -0.7285
  494MOL0     H68133   7.767   5.133   4.021 -0.0376  2.2310 -0.2070
  494MOL0     H68134   7.562   5.125   4.385 -0.2604  0.4466 -0.3144
  494MOL0     H68135   7.449   5.336   4.418  0.1314  0.2228  1.4760
  494MOL0     H68136   7.418   5.716   4.425  4.1987  1.1449  0.4774
  494MOL0     H68137   7.392   5.533   4.444 -0.1986 -1.8881 -0.4544
  494MOL0     H68138   7.511   5.531   4.648  0.7949 -1.2556 -0.1636
  494MOL0     H68139   7.609   5.666   4.609 -0.9384  0.4363  2.3927
  494MOL0     H68140   7.456   5.834   4.664 -1.3925 -0.5073 -2.4435
  494MOL0     H68141   7.450   5.713   4.792 -2.8344 -1.2988  0.5444
  494MOL0     H68142   7.255   5.619   4.644 -0.9685  0.5131 -2.8124
  494MOL0     H68143   7.250   5.789   4.576 -0.3643  1.9246  1.0579
  494MOL0     H68144   7.216   5.698   4.859 -0.1970 -0.8637 -0.9784
  494MOL0     H68145   7.229   5.871   4.807 -3.6081  0.3730  2.1108
  494MOL0     H68146   7.051   5.831   4.648  5.1069 -3.5484 -1.5106
  494MOL0     H68147   7.018   5.855   4.827 -0.7195 -1.9627  1.8239
  494MOL0     H68148   6.966   5.642   4.857  1.4732  1.3209 -0.7911
  494MOL0     H68149   7.048   5.570   4.717 -1.1307 -0.9405 -1.8295
  494MOL0     H68150   6.789   5.739   4.701 -0.1979  1.0257 -4.6521
  494MOL0     H68151   6.786   5.563   4.712 -0.9158  0.3056 -0.3093
  494MOL0     H68152   7.794   5.542   4.271 -0.9981  0.1722  1.3383
  494MOL0     H68153   7.903   5.324   4.228  0.5608  0.0955  1.4433
  494MOL0     H68154   7.996   4.805   4.322 -1.3639  1.1748  0.8890
  494MOL0     H68155   8.027   4.633   4.154  3.0342  0.0766 -0.4720
  494MOL0     H68156   8.614   4.567   3.655  0.3049  1.6339 -1.0173
  494MOL0     H68157   8.538   4.766   3.754 -0.7319  1.0882 -1.0380
  494MOL0     H68158   8.274   4.959   3.977  1.3584  0.3509 -1.1981
  494MOL0     H68159   8.218   5.099   4.147  2.4665 -1.2196 -0.1067
  494MOL0     H68160   8.091   5.301   4.300 -0.2093 -0.2914 -2.3801
  494MOL0     H68161   8.273   5.291   4.278 -1.4547 -2.4975 -0.4466
  494MOL0     H68162   8.105   5.539   4.314 -0.0233  0.6079  1.2721
  494MOL0     H68163   8.277   5.529   4.283 -2.3112 -0.0577 -3.7313
  494MOL0     H68164   8.311   5.408   4.501  1.7348  1.0760 -1.0982
  494MOL0     H68165   8.256   5.569   4.524  1.4491 -0.2123 -1.1368
  494MOL0     H68166   8.131   5.417   4.672 -0.4102  2.2963  0.4504
  494MOL0     H68167   8.071   5.321   4.539 -0.9990  1.6397 -0.9547
  494MOL0     H68168   7.836   5.673   4.645  1.1988 -1.2230  2.3964
  494MOL0     H68169   8.149   5.425   3.866 -1.3386 -0.9874  0.0968
  494MOL0     H68170   8.143   5.239   3.590  0.8450 -1.9116  0.3440
  494MOL0     H68171   8.196   5.397   3.661  2.1722  1.3775 -1.1158
  494MOL0     H68172   8.317   5.280   3.619 -0.9671 -5.6172  0.2974
  495MOL0     O68173   9.166   8.670   9.557 -0.2829  0.0534 -0.0874
  495MOL0     C68174   9.235   8.612   9.473 -0.3759  0.6668 -1.1992
  495MOL0     O68175   9.193   8.503   9.405  0.2034  0.1624  0.5944
  495MOL0     C68176   9.065   8.439   9.417  0.0662 -0.5710  1.0363
  495MOL0     C68177   8.942   8.507   9.427 -0.2837  0.1633 -0.9490
  495MOL0     C68178   8.820   8.433   9.436 -0.0213 -0.5163  0.2065
  495MOL0     C68179   8.820   8.292   9.434 -0.4560 -0.0568  0.1953
  495MOL0     O68180   8.702   8.226   9.432 -0.2958  0.5907 -0.2820
  495MOL0     C68181   8.687   8.135   9.546  1.0369  0.7608 -0.4748
  495MOL0     C68182   8.552   8.057   9.557 -0.9704 -1.2709 -0.1082
  495MOL0     C68183   8.526   7.971   9.437  0.2159 -0.3485  0.5522
  495MOL0     C68184   8.602   7.840   9.431 -0.4911 -0.0298  0.4640
  495MOL0     C68185   8.518   7.731   9.362  0.2225  0.1864  0.0608
  495MOL0     C68186   8.605   7.605   9.367  0.2050  0.1723 -1.1089
  495MOL0     C68187   8.552   7.503   9.264  0.2711 -0.0103  0.3366
  495MOL0     C68188   8.663   7.408   9.222 -0.1393 -0.2481  0.0046
  495MOL0     N68189   8.703   7.307   9.319  0.7786 -0.5780  0.9455
  495MOL0     C68190   8.758   7.322   9.441 -0.0475 -0.7551  0.0335
  495MOL0     C68191   8.737   7.200   9.507 -0.5483  0.0992  0.4762
  495MOL0     C68192   8.749   7.184   9.655  0.0152  0.2334  0.2893
  495MOL0     C68193   8.875   7.110   9.699  0.8510 -0.5607  0.0432
  495MOL0     C68194   8.947   7.167   9.827 -1.0593  0.1504  0.8280
  495MOL0     C68195   8.927   7.084   9.952 -0.3044  0.0307  0.8281
  495MOL0     O68196   8.787   7.075   9.988  0.2682  0.4937  0.0859
  495MOL0     C68197   8.752   6.949  10.027 -0.4236  0.3109  0.1799
  495MOL0     C68198   8.792   6.896  10.157 -0.0833  0.1251 -0.6184
  495MOL0     C68199   8.764   6.765  10.189 -0.6856  0.3552  0.0984
  495MOL0     C68200   8.809   6.723  10.329  0.6078 -0.7086 -0.9319
  495MOL0     C68201   8.691   6.678  10.098  0.4986 -0.2424 -0.2014
  495MOL0     C68202   8.652   6.542  10.117  0.0938  1.0133 -0.4808
  495MOL0     O68203   8.563   6.481  10.040  0.6183 -0.2480 -0.3629
  495MOL0     C68204   8.541   6.341  10.054 -0.4448  0.3184 -0.2671
  495MOL0     C68205   8.410   6.293  10.038 -0.0547 -0.4004 -0.2628
  495MOL0     C68206   8.380   6.163  10.066 -0.0121  0.0924  0.3118
  495MOL0     C68207   8.483   6.066  10.082 -0.4702 -0.5804 -0.3099
  495MOL0     O68208   8.429   5.938  10.091 -0.7274  0.2645  0.3550
  495MOL0     C68209   8.517   5.828  10.056 -0.1362 -0.4510  0.2111
  495MOL0     C68210   8.458   5.694  10.098  0.0298 -0.4663  0.1951
  495MOL0     C68211   8.318   5.663  10.044  0.4443  0.4863  0.9344
  495MOL0     C68212   8.277   5.518  10.094 -1.2537 -0.9172  0.4341
  495MOL0     C68213   8.177   5.507  10.204 -0.0383  0.3934 -0.1865
  495MOL0     C68214   8.037   5.555  10.169  0.6219 -0.1348 -0.7914
  495MOL0     C68215   7.961   5.451  10.085  0.2291  0.5747  0.5645
  495MOL0     C68216   7.815   5.469  10.069  1.0732 -0.5095 -0.4587
  495MOL0    Cl68217   7.771   5.625   9.989 -0.5489  0.0632  0.5169
  495MOL0     C68218   8.615   6.105  10.080 -0.7881 -0.4638 -0.7543
  495MOL0     C68219   8.639   6.243  10.062 -0.5991  0.5498 -0.8056
  495MOL0     O68220   8.706   6.483  10.210  0.0031  0.0272  0.4397
  495MOL0     C68221   8.659   6.735   9.973  0.4913 -0.8262 -0.8369
  495MOL0     C68222   8.686   6.868   9.932  0.0596  0.7804  0.6666
  495MOL0     N68223   8.678   7.110   9.418 -0.5344 -0.3988  0.0427
  495MOL0     N68224   8.668   7.179   9.309  0.2902 -0.8040 -0.8515
  495MOL0     C68225   8.942   8.233   9.419 -0.4360  1.1486 -0.8766
  495MOL0     C68226   9.063   8.298   9.401 -0.9412  0.1119  0.5736
  495MOL0     C68227   9.370   8.662   9.438 -0.1340  0.5445 -0.2111
  495MOL0     C68228   9.418   8.785   9.480 -1.1292  0.9097  0.8941
  495MOL0     C68229   9.539   8.845   9.439  0.8646  0.9291  1.5333
  495MOL0     C68230   9.618   8.773   9.334 -0.1565 -0.0896 -1.1036
  495MOL0     O68231   9.736   8.830   9.288 -0.5718 -0.3821  0.0029
  495MOL0     C68232   9.808   8.759   9.181 -0.1203  0.4434 -0.6996
  495MOL0     C68233   9.905   8.650   9.235 -0.0958 -0.0695 -0.0218
  495MOL0     C68234  10.008   8.709   9.337 -0.3667 -0.0223  0.4096
  495MOL0     C68235  10.112   8.806   9.290 -0.2832 -0.5420 -0.2412
  495MOL0     C68236  10.191   8.749   9.187 -0.8590 -0.3971 -0.7816
  495MOL0     C68237  10.252   8.684   9.104  0.7771 -0.0793 -0.6568
  495MOL0     C68238   9.578   8.638   9.306  0.2887 -1.0166  0.1072
  495MOL0     C68239   9.454   8.577   9.351 -0.5675 -0.7725 -0.3556
  495MOL0     C68240   9.440   8.444   9.285 -0.7438  0.2770 -0.1787
  495MOL0     H68241   8.943   8.615   9.419  3.3431  0.1876 -2.4265
  495MOL0     H68242   8.727   8.489   9.446  0.9669  1.1712  0.4413
  495MOL0     H68243   8.708   8.186   9.640  3.9536  2.6398 -2.0114
  495MOL0     H68244   8.763   8.056   9.535  2.5210  1.9363  0.8589
  495MOL0     H68245   8.555   7.991   9.645  0.5188 -0.5181  0.4487
  495MOL0     H68246   8.467   8.124   9.565 -0.4245 -0.6174  0.3671
  495MOL0     H68247   8.419   7.952   9.423  0.6728 -3.9960  0.9688
  495MOL0     H68248   8.545   8.032   9.349 -0.3109  0.9739  1.3326
  495MOL0     H68249   8.696   7.856   9.378 -0.8186 -0.1334 -0.1509
  495MOL0     H68250   8.609   7.802   9.533  0.1880 -2.7182 -0.5052
  495MOL0     H68251   8.506   7.759   9.257 -0.4568  0.9082  0.3264
  495MOL0     H68252   8.420   7.717   9.409  0.0955  1.5943  0.2690
  495MOL0     H68253   8.706   7.637   9.343 -0.2879 -0.0080 -3.7851
  495MOL0     H68254   8.601   7.551   9.462  1.9885 -1.7429 -2.0476
  495MOL0     H68255   8.514   7.550   9.172  0.5448 -0.8629 -0.2277
  495MOL0     H68256   8.463   7.458   9.310 -0.5152  1.9799  0.8477
  495MOL0     H68257   8.621   7.355   9.136 -2.0065  0.1165  0.6434
  495MOL0     H68258   8.754   7.459   9.191 -0.6913  0.2178 -0.8751
  495MOL0     H68259   8.798   7.411   9.487 -0.5561  0.7255 -2.2063
  495MOL0     H68260   8.668   7.113   9.672  1.3553 -0.9943  1.8516
  495MOL0     H68261   8.726   7.275   9.712  1.3370  0.4781  0.4438
  495MOL0     H68262   8.855   7.006   9.728 -4.8256 -0.0580 -0.8063
  495MOL0     H68263   8.940   7.120   9.612 -3.0636  2.0325 -2.9980
  495MOL0     H68264   9.055   7.157   9.811 -0.6163  0.4165  3.2846
  495MOL0     H68265   8.923   7.274   9.835  1.7171  1.0240 -1.1077
  495MOL0     H68266   8.960   6.982   9.927 -1.4048  0.0887 -1.0170
  495MOL0     H68267   8.991   7.138  10.023 -1.1215  1.7135  0.3282
  495MOL0     H68268   8.848   6.960  10.223  0.2068 -1.0178  0.2741
  495MOL0     H68269   8.874   6.636  10.341  0.5247 -0.6630 -0.1184
  495MOL0     H68270   8.710   6.694  10.366  0.7552 -0.1015 -0.0429
  495MOL0     H68271   8.847   6.808  10.386 -0.4654  0.1183 -1.4046
  495MOL0     H68272   8.333   6.369  10.027 -0.3979 -0.8929 -1.4424
  495MOL0     H68273   8.275   6.134  10.063 -0.8543  2.5110  2.4845
  495MOL0     H68274   8.541   5.841   9.950 -0.6729  4.3020  0.4603
  495MOL0     H68275   8.607   5.846  10.116 -0.1925 -0.6015  0.3410
  495MOL0     H68276   8.523   5.617  10.057 -0.0736 -1.1895  1.3437
  495MOL0     H68277   8.474   5.699  10.206  2.1596  1.8514 -0.1439
  495MOL0     H68278   8.320   5.645   9.936  0.0980  1.1937  0.8059
  495MOL0     H68279   8.243   5.734  10.081 -0.5695 -0.8578  1.5576
  495MOL0     H68280   8.369   5.464  10.118 -0.2578 -0.0157 -1.1828
  495MOL0     H68281   8.228   5.456  10.019  1.6328 -2.2884 -0.4466
  495MOL0     H68282   8.186   5.401  10.229  0.5899 -0.2455 -2.7753
  495MOL0     H68283   8.208   5.561  10.294  1.5024  0.2504 -0.5987
  495MOL0     H68284   8.051   5.651  10.118  1.3279 -0.5811 -1.4617
  495MOL0     H68285   7.976   5.579  10.256 -0.0402  5.6880 -2.4492
  495MOL0     H68286   7.980   5.347  10.113 -1.2026  0.4997  1.3638
  495MOL0     H68287   8.005   5.457   9.985 -1.7428  0.8050 -0.3277
  495MOL0     H68288   7.754   5.471  10.159 -0.0145 -0.2573 -1.1870
  495MOL0     H68289   7.780   5.381  10.014  0.1926  0.4806 -1.5480
  495MOL0     H68290   8.693   6.036  10.110 -0.0632  0.5006 -0.3695
  495MOL0     H68291   8.741   6.276  10.076 -0.6685  0.7716 -0.8176
  495MOL0     H68292   8.603   6.680   9.898 -0.1928 -0.9472 -0.2508
  495MOL0     H68293   8.659   6.895   9.831 -2.3388  0.1106  1.0847
  495MOL0     H68294   8.958   8.126   9.417  1.5210  1.3457  0.8203
  495MOL0     H68295   9.154   8.242   9.388 -0.4437 -0.2583  4.4241
  495MOL0     H68296   9.350   8.832   9.551 -1.6069  2.0898 -0.2878
  495MOL0     H68297   9.589   8.933   9.477  2.7610  0.2883  0.6698
  495MOL0     H68298   9.739   8.728   9.102 -0.9549 -0.7665  0.4703
  495MOL0     H68299   9.867   8.837   9.131 -1.3201  0.9852 -1.3157
  495MOL0     H68300   9.959   8.611   9.148  3.4935  1.4402  1.3469
  495MOL0     H68301   9.840   8.578   9.286 -0.4864  1.5541  1.9024
  495MOL0     H68302   9.951   8.765   9.412  0.5551  2.7504 -0.8195
  495MOL0     H68303  10.059   8.624   9.384 -0.3041 -0.0565  0.2810
  495MOL0     H68304  10.177   8.841   9.371 -2.2634  0.6186  0.9121
  495MOL0     H68305  10.073   8.898   9.246 -0.2868 -1.8300 -3.1447
  495MOL0     H68306  10.292   8.633   9.018 -0.2594 -0.5133 -0.9043
  495MOL0     H68307   9.635   8.576   9.238 -0.9480 -0.1099 -1.8501
  495MOL0     H68308   9.370   8.445   9.201  0.7740 -1.2779 -1.5420
  495MOL0     H68309   9.536   8.405   9.251 -0.9355 -0.2656 -0.1119
  495MOL0     H68310   9.405   8.372   9.359  1.5903 -2.1888 -1.3128
  496MOL0     O68311   3.919  10.775   4.949 -0.5363  0.2073  0.0691
  496MOL0     C68312   3.941  10.659   4.923  1.0997 -0.8765 -0.0202
  496MOL0     O68313   4.049  10.589   4.949  0.2214  0.3911 -0.5596
  496MOL0     C68314   4.146  10.657   5.021 -0.0128 -1.1542 -0.1390
  496MOL0     C68315   4.140  10.743   5.133  0.0045  0.1147 -0.4339
  496MOL0     C68316   4.257  10.800   5.195 -0.1888 -0.7587 -0.4229
  496MOL0     C68317   4.385  10.783   5.138  0.3673 -0.0640 -0.5066
  496MOL0     O68318   4.494  10.847   5.191  0.6524 -0.7596 -1.0237
  496MOL0     C68319   4.600  10.892   5.097 -0.7302 -0.4670 -0.2884
  496MOL0     C68320   4.735  10.927   5.173  0.7646  0.4207 -0.1263
  496MOL0     C68321   4.714  11.066   5.249  0.2011  0.7953 -0.8171
  496MOL0     C68322   4.683  11.053   5.402 -0.2892 -0.8461 -0.1085
  496MOL0     C68323   4.536  11.007   5.428  0.7310  0.3710 -0.0465
  496MOL0     C68324   4.511  11.044   5.576 -0.1166 -0.1494  0.6046
  496MOL0     C68325   4.360  11.033   5.606 -0.1748 -0.3351 -0.1738
  496MOL0     C68326   4.335  10.893   5.629  0.0936 -0.1715  0.4031
  496MOL0     N68327   4.186  10.866   5.611 -0.2968  0.1759 -0.2938
  496MOL0     C68328   4.087  10.853   5.709 -0.8252 -1.8060  1.0154
  496MOL0     C68329   3.984  10.788   5.646  0.6458  0.2078 -0.1534
  496MOL0     C68330   3.862  10.741   5.725  0.0605 -0.6233  1.0606
  496MOL0     C68331   3.890  10.655   5.840 -0.4012  0.1575 -0.1509
  496MOL0     C68332   3.764  10.634   5.927 -0.2612  0.0773  0.3131
  496MOL0     C68333   3.744  10.752   6.018 -0.2838  0.3712  0.2035
  496MOL0     O68334   3.672  10.704   6.133  0.7164 -0.1382 -0.6126
  496MOL0     C68335   3.628  10.788   6.234 -0.8032 -0.6193 -0.5301
  496MOL0     C68336   3.502  10.761   6.283  0.6059 -0.0057 -0.5646
  496MOL0     C68337   3.440  10.850   6.377  0.3825  0.0534 -0.9554
  496MOL0     C68338   3.292  10.825   6.405  0.1232  1.1414 -0.0882
  496MOL0     C68339   3.514  10.957   6.440 -0.7884  0.1735  0.3256
  496MOL0     C68340   3.475  11.038   6.556  0.2999 -0.8911 -0.0128
  496MOL0     O68341   3.569  11.099   6.617  1.3459 -0.3812  0.0790
  496MOL0     C68342   3.544  11.178   6.725 -0.4165 -0.3047 -0.3551
  496MOL0     C68343   3.556  11.318   6.715  0.1690 -0.3931  0.1553
  496MOL0     C68344   3.573  11.394   6.833  0.5450 -0.0846  0.2148
  496MOL0     C68345   3.564  11.336   6.956 -0.5552 -0.0979 -0.1858
  496MOL0     O68346   3.596  11.416   7.067  0.1964  0.2876 -0.3412
  496MOL0     C68347   3.683  11.362   7.159 -1.4866 -0.9313 -0.2860
  496MOL0     C68348   3.750  11.479   7.242  0.0671 -0.2211  0.5996
  496MOL0     C68349   3.817  11.584   7.157 -0.1759  1.0848 -0.3127
  496MOL0     C68350   3.867  11.688   7.260 -0.3364 -0.2555  0.4887
  496MOL0     C68351   3.953  11.791   7.191 -0.5624  1.1168 -0.0074
  496MOL0     C68352   3.926  11.931   7.247  0.1406  1.3341 -0.3381
  496MOL0     C68353   3.780  11.975   7.234  0.8679 -1.2612  0.7843
  496MOL0     C68354   3.766  12.126   7.242 -0.5152  0.0982 -0.1028
  496MOL0    Cl68355   3.900  12.206   7.326  0.3585 -0.2835  0.3700
  496MOL0     C68356   3.548  11.197   6.963  0.5082  0.0139 -0.6635
  496MOL0     C68357   3.543  11.116   6.855  0.3348 -0.6663  0.5676
  496MOL0     O68358   3.358  11.044   6.589  0.0923  1.4405  0.4635
  496MOL0     C68359   3.651  10.968   6.395  0.2505  0.0287  0.2222
  496MOL0     C68360   3.704  10.895   6.283  0.7722 -0.0505 -0.6230
  496MOL0     N68361   4.013  10.770   5.513 -0.2609  0.5431 -0.2440
  496MOL0     N68362   4.136  10.801   5.496  0.6321 -0.4138 -0.1577
  496MOL0     C68363   4.392  10.689   5.032  0.1312  0.1694 -0.2626
  496MOL0     C68364   4.274  10.636   4.975 -0.3217 -0.0771 -0.1106
  496MOL0     C68365   3.826  10.563   4.880 -0.4443 -0.1362  0.0614
  496MOL0     C68366   3.854  10.422   4.869 -0.4929  0.0182  0.5809
  496MOL0     C68367   3.760  10.335   4.837  0.3025  0.4369  0.5213
  496MOL0     C68368   3.629  10.382   4.797 -0.1945 -0.0254 -0.7618
  496MOL0     O68369   3.532  10.290   4.760 -0.1148  0.4192 -0.1774
  496MOL0     C68370   3.550  10.148   4.783  0.2154 -0.1464  0.4019
  496MOL0     C68371   3.429  10.074   4.726 -0.6019 -0.9736 -0.0215
  496MOL0     C68372   3.433   9.920   4.764  0.0146 -0.4808  0.1546
  496MOL0     C68373   3.337   9.844   4.672  0.0102 -0.4042  0.4572
  496MOL0     C68374   3.369   9.845   4.532  0.2545  0.3507 -0.7307
  496MOL0     C68375   3.395   9.854   4.416  1.2091 -1.1245 -0.3447
  496MOL0     C68376   3.605  10.516   4.800 -0.5658  0.8700 -0.4104
  496MOL0     C68377   3.695  10.604   4.840 -0.9370  0.6159  0.3346
  496MOL0     C68378   3.645  10.747   4.832  0.8072 -0.8124 -0.3232
  496MOL0     H68379   4.040  10.749   5.175  0.4078  1.8581  0.3768
  496MOL0     H68380   4.251  10.863   5.283  0.8581 -2.1949  0.7206
  496MOL0     H68381   4.559  10.974   5.038  1.0081 -0.4603 -1.5725
  496MOL0     H68382   4.629  10.817   5.022 -2.5298  0.7868 -2.3418
  496MOL0     H68383   4.757  10.838   5.232 -0.6524 -0.5255 -0.9582
  496MOL0     H68384   4.805  10.941   5.090  0.5587 -5.3013 -1.6968
  496MOL0     H68385   4.816  11.104   5.258  1.9075 -3.6873  2.4423
  496MOL0     H68386   4.642  11.132   5.199 -0.4015  0.0411 -0.9704
  496MOL0     H68387   4.738  10.972   5.451 -0.6404 -0.8037  0.3586
  496MOL0     H68388   4.689  11.150   5.453  1.1428 -1.5555  1.1721
  496MOL0     H68389   4.527  10.898   5.415 -2.0484  0.2657  2.0285
  496MOL0     H68390   4.470  11.064   5.361 -1.8679 -3.0056 -0.6521
  496MOL0     H68391   4.569  10.976   5.640 -0.6833  1.1350  2.5762
  496MOL0     H68392   4.529  11.151   5.593  0.0914 -0.4148  2.2827
  496MOL0     H68393   4.294  11.070   5.527 -1.4110 -3.0117 -0.4710
  496MOL0     H68394   4.339  11.092   5.696  0.6082  0.0595 -0.2333
  496MOL0     H68395   4.388  10.843   5.547 -2.2106 -0.6734 -0.8793
  496MOL0     H68396   4.376  10.859   5.725  1.6023 -0.6022 -0.3509
  496MOL0     H68397   4.108  10.896   5.807 -0.4096  2.5836 -0.7615
  496MOL0     H68398   3.804  10.676   5.659 -0.2356  1.3003 -0.6544
  496MOL0     H68399   3.810  10.832   5.758  2.8780  1.0651  1.1743
  496MOL0     H68400   3.929  10.557   5.810  2.3628  2.1677 -3.9096
  496MOL0     H68401   3.968  10.696   5.905 -2.1465 -0.8822  2.8234
  496MOL0     H68402   3.677  10.615   5.864  0.2747  1.1214 -0.7806
  496MOL0     H68403   3.779  10.544   5.988  0.8929  0.5769  0.7960
  496MOL0     H68404   3.839  10.796   6.049 -0.9988  0.5235  2.3548
  496MOL0     H68405   3.677  10.822   5.968 -0.0419 -2.2865 -4.4382
  496MOL0     H68406   3.440  10.682   6.243 -2.6828  1.5125  1.1549
  496MOL0     H68407   3.244  10.764   6.328  0.7690 -2.0969  1.8731
  496MOL0     H68408   3.243  10.922   6.394  2.4989  2.2479 -1.7674
  496MOL0     H68409   3.280  10.777   6.503 -1.0359 -0.0998 -0.8164
  496MOL0     H68410   3.558  11.360   6.615 -3.8523 -0.3767 -0.0812
  496MOL0     H68411   3.596  11.500   6.831  3.2256 -0.5652  1.2854
  496MOL0     H68412   3.629  11.302   7.234  1.3080 -2.1585  0.8954
  496MOL0     H68413   3.760  11.300   7.111 -2.0090 -0.3743 -1.9019
  496MOL0     H68414   3.675  11.525   7.306 -0.4350 -0.6079  0.2986
  496MOL0     H68415   3.831  11.432   7.299 -1.8698 -0.4403  3.3495
  496MOL0     H68416   3.760  11.635   7.079 -0.0488 -1.2633 -2.0250
  496MOL0     H68417   3.906  11.541   7.110 -0.0749  2.3419 -1.3398
  496MOL0     H68418   3.929  11.647   7.341  0.7641  0.8415  0.2412
  496MOL0     H68419   3.778  11.731   7.307 -0.3000  1.1300 -0.6493
  496MOL0     H68420   4.061  11.771   7.188 -0.3781  2.0575 -2.4184
  496MOL0     H68421   3.928  11.798   7.085 -1.1971  0.7371  0.1168
  496MOL0     H68422   3.994  11.999   7.193 -0.3018  2.7613  0.8542
  496MOL0     H68423   3.953  11.934   7.353 -1.6567  0.9111  0.1572
  496MOL0     H68424   3.724  11.930   7.316  0.5753  0.0256  1.3111
  496MOL0     H68425   3.736  11.943   7.139 -2.5763 -2.5413  2.6301
  496MOL0     H68426   3.675  12.142   7.301  1.2017 -2.0289  3.3934
  496MOL0     H68427   3.759  12.167   7.140  1.6796 -2.0524 -1.2144
  496MOL0     H68428   3.554  11.140   7.055 -3.0325 -0.9804 -0.9078
  496MOL0     H68429   3.559  11.009   6.857  1.9176 -0.5101 -1.1089
  496MOL0     H68430   3.719  11.042   6.437 -1.2582  1.1590  0.7637
  496MOL0     H68431   3.806  10.910   6.249  0.3817 -2.2186 -3.0392
  496MOL0     H68432   4.480  10.671   4.970  0.1638 -0.6119  0.0120
  496MOL0     H68433   4.283  10.575   4.885 -1.8138  0.9900 -1.0262
  496MOL0     H68434   3.951  10.388   4.902 -0.2838  2.0171  2.2482
  496MOL0     H68435   3.789  10.231   4.840 -2.0654 -0.3627 -1.3932
  496MOL0     H68436   3.629  10.123   4.712 -1.6694 -2.5368 -1.0372
  496MOL0     H68437   3.563  10.126   4.890  1.6492 -2.5177 -0.1815
  496MOL0     H68438   3.419  10.087   4.618 -1.9376  0.7771  0.2747
  496MOL0     H68439   3.342  10.133   4.755  2.1333  3.1173  0.6265
  496MOL0     H68440   3.538   9.891   4.765  0.7700  2.0274  0.7079
  496MOL0     H68441   3.398   9.909   4.868 -0.1413  0.5376  0.2173
  496MOL0     H68442   3.242   9.893   4.696  0.2617  0.7433 -0.8158
  496MOL0     H68443   3.332   9.738   4.701 -1.9213 -0.3874  0.3285
  496MOL0     H68444   3.429   9.870   4.316 -1.5723 -1.1008 -1.3876
  496MOL0     H68445   3.505  10.530   4.761 -0.1550  0.7106 -1.5806
  496MOL0     H68446   3.662  10.787   4.732 -3.9781  2.7939 -0.0235
  496MOL0     H68447   3.536  10.749   4.833  0.7371  2.5239 -2.1243
  496MOL0     H68448   3.692  10.816   4.903 -1.3922 -2.8439  3.4066
  497MOL0     O68449   3.973   3.177  11.182  1.0959  0.0876 -0.3936
  497MOL0     C68450   4.078   3.235  11.206  0.2294 -0.0385 -0.0145
  497MOL0     O68451   4.107   3.317  11.320  0.0141 -0.3138  0.4795
  497MOL0     C68452   4.010   3.369  11.395  0.6619 -0.4621 -0.8372
  497MOL0     C68453   3.899   3.295  11.447 -0.0094  0.3615 -0.0643
  497MOL0     C68454   3.808   3.342  11.540  0.4740 -0.5382  1.2990
  497MOL0     C68455   3.822   3.477  11.580 -0.8065  0.3730  0.4957
  497MOL0     O68456   3.741   3.540  11.670  0.0988  0.0508  0.3418
  497MOL0     C68457   3.614   3.486  11.711 -0.9974 -0.5341 -0.1543
  497MOL0     C68458   3.564   3.588  11.816  0.5982 -0.0231  0.4383
  497MOL0     C68459   3.524   3.722  11.740 -0.6156  0.1791 -0.2718
  497MOL0     C68460   3.545   3.842  11.835  0.5786  0.3792  0.4406
  497MOL0     C68461   3.477   3.966  11.772  0.2076  0.7914  0.5485
  497MOL0     C68462   3.534   4.097  11.849  0.2151  0.3414 -0.7068
  497MOL0     C68463   3.428   4.204  11.879  0.4763  0.4061  0.5921
  497MOL0     C68464   3.399   4.201  12.032 -0.0576  0.5543  0.5709
  497MOL0     N68465   3.281   4.281  12.050 -0.6512 -0.0896  0.1920
  497MOL0     C68466   3.151   4.246  12.027  0.0258  0.1015 -0.1398
  497MOL0     C68467   3.076   4.362  12.040  0.0439  0.3522 -0.3598
  497MOL0     C68468   2.932   4.387  12.022  0.3392 -0.0012 -0.0940
  497MOL0     C68469   2.894   4.392  11.876  0.1177 -0.5587  0.6122
  497MOL0     C68470   2.740   4.393  11.839  0.4848  0.0442 -0.0030
  497MOL0     C68471   2.701   4.388  11.688 -0.3217  0.1778 -0.0975
  497MOL0     O68472   2.561   4.415  11.690  0.0149  0.3222  0.5236
  497MOL0     C68473   2.484   4.350  11.597 -0.3972  0.3825  0.5440
  497MOL0     C68474   2.371   4.407  11.546 -0.2656  0.1213  0.0555
  497MOL0     C68475   2.270   4.344  11.472 -1.0156 -0.2370 -0.1382
  497MOL0     C68476   2.139   4.414  11.459 -0.1105 -0.3905 -0.5872
  497MOL0     C68477   2.299   4.210  11.437  1.0393 -0.7616  0.0955
  497MOL0     C68478   2.207   4.134  11.361  0.1892 -0.0619 -0.5597
  497MOL0     O68479   2.148   4.201  11.255 -0.0201 -0.5767 -0.5397
  497MOL0     C68480   2.083   4.119  11.171  0.9550  0.0135 -0.1299
  497MOL0     C68481   2.156   4.076  11.060 -0.3589  0.1033 -0.2843
  497MOL0     C68482   2.092   3.986  10.975 -0.5832 -0.4953 -0.8674
  497MOL0     C68483   1.954   3.958  10.990  0.5593 -1.1423 -0.2515
  497MOL0     O68484   1.885   3.885  10.900 -0.0629 -0.4569  0.1814
  497MOL0     C68485   1.951   3.791  10.814  0.2345  0.2903 -0.2745
  497MOL0     C68486   2.008   3.668  10.878  0.1814 -0.6413 -1.1534
  497MOL0     C68487   1.900   3.581  10.933 -0.4876  0.4402  0.7701
  497MOL0     C68488   1.958   3.457  10.995 -0.1329  0.0071  0.0938
  497MOL0     C68489   1.856   3.397  11.095 -0.6581 -0.3175 -0.4111
  497MOL0     C68490   1.712   3.383  11.042 -0.2470  0.5271 -0.0767
  497MOL0     C68491   1.623   3.299  11.137 -0.0161  0.1098 -0.1999
  497MOL0     C68492   1.492   3.265  11.073  0.3620  0.3639  0.4466
  497MOL0    Cl68493   1.367   3.264  11.210 -0.6844  0.2342 -0.2567
  497MOL0     C68494   1.878   4.012  11.100 -0.6675  0.1516 -0.1690
  497MOL0     C68495   1.949   4.099  11.190  0.9434  0.3715 -0.0284
  497MOL0     O68496   2.185   4.018  11.394  0.4703 -0.1215 -0.3104
  497MOL0     C68497   2.422   4.155  11.461 -1.1870 -0.0393 -1.5278
  497MOL0     C68498   2.514   4.222  11.537  1.1777  0.9501  0.0938
  497MOL0     N68499   3.165   4.469  12.065  0.0934  0.2758 -0.1382
  497MOL0     N68500   3.286   4.420  12.074 -0.7371 -0.0866 -1.1632
  497MOL0     C68501   3.929   3.564  11.532  0.9318  0.2078  0.3827
  497MOL0     C68502   4.024   3.505  11.451  0.5211 -0.0851 -0.0250
  497MOL0     C68503   4.195   3.180  11.130  0.8505  0.7496 -0.2583
  497MOL0     C68504   4.314   3.201  11.190 -0.3417  0.2718 -0.3798
  497MOL0     C68505   4.424   3.136  11.138  0.4725  1.1993 -0.3019
  497MOL0     C68506   4.422   3.069  11.015 -0.0118  0.6813  0.2004
  497MOL0     O68507   4.533   3.020  10.954 -0.3025  0.5391 -0.3396
  497MOL0     C68508   4.649   2.987  11.030 -0.2633 -0.4437 -0.7475
  497MOL0     C68509   4.737   2.903  10.937 -0.8085  0.2456  0.4564
  497MOL0     C68510   4.799   2.988  10.828  0.2638 -0.2142  1.0695
  497MOL0     C68511   4.900   2.895  10.734 -0.2067 -1.4987  0.1385
  497MOL0     C68512   5.020   2.977  10.703  0.0560 -0.4604  0.0888
  497MOL0     C68513   5.120   3.055  10.696  0.3538 -0.3908  0.4169
  497MOL0     C68514   4.300   3.056  10.942 -0.7776  0.2481 -0.7496
  497MOL0     C68515   4.185   3.115  11.005  0.3479  0.5089  0.2832
  497MOL0     C68516   4.053   3.105  10.920 -0.3179 -0.4765  0.5205
  497MOL0     H68517   3.887   3.187  11.445 -3.5608  0.6144  1.1503
  497MOL0     H68518   3.743   3.276  11.597 -0.0649  0.2601  1.6247
  497MOL0     H68519   3.617   3.386  11.755  0.3967 -1.7219 -2.7176
  497MOL0     H68520   3.536   3.479  11.635 -1.2907  2.5657 -0.2927
  497MOL0     H68521   3.477   3.555  11.874  1.4804 -1.3997  1.0403
  497MOL0     H68522   3.649   3.609  11.882 -0.5556  1.4925  1.4979
  497MOL0     H68523   3.590   3.732  11.654 -1.4864 -3.1554 -1.4833
  497MOL0     H68524   3.420   3.718  11.705 -0.4765  1.9471 -0.9893
  497MOL0     H68525   3.511   3.803  11.932 -2.3838 -1.2867 -1.0928
  497MOL0     H68526   3.653   3.855  11.829  0.7785 -0.8377  1.1767
  497MOL0     H68527   3.368   3.964  11.784  0.3966 -2.2714  2.9243
  497MOL0     H68528   3.501   3.970  11.665 -2.2892 -0.6180 -0.1471
  497MOL0     H68529   3.581   4.076  11.945 -1.7679 -0.0418  0.2326
  497MOL0     H68530   3.605   4.148  11.784 -0.2677  1.2291 -0.5459
  497MOL0     H68531   3.333   4.179  11.829 -0.6617  0.6056  2.5648
  497MOL0     H68532   3.462   4.307  11.864  2.5004 -0.1041  1.4077
  497MOL0     H68533   3.387   4.100  12.070 -0.4231  0.3576 -0.0497
  497MOL0     H68534   3.491   4.248  12.070  2.0338 -2.5804 -0.1920
  497MOL0     H68535   3.123   4.142  12.014  4.3303 -1.3859  0.8539
  497MOL0     H68536   2.901   4.483  12.063  0.2852  0.9782 -2.3267
  497MOL0     H68537   2.859   4.313  12.057 -1.0844  1.1804 -0.4723
  497MOL0     H68538   2.935   4.484  11.832  0.8479  0.2830  2.8712
  497MOL0     H68539   2.937   4.308  11.820  1.3934 -1.0201  2.1924
  497MOL0     H68540   2.697   4.310  11.897  3.1103  0.3993  2.6891
  497MOL0     H68541   2.711   4.491  11.878  5.3291  2.3152 -1.3943
  497MOL0     H68542   2.755   4.467  11.635 -2.0873 -1.3937 -4.7504
  497MOL0     H68543   2.735   4.298  11.636  1.0141  1.2489 -1.1680
  497MOL0     H68544   2.351   4.507  11.584  0.9821 -0.2699  1.8612
  497MOL0     H68545   2.071   4.357  11.522  3.2597  0.6974  4.6147
  497MOL0     H68546   2.105   4.425  11.355  0.1701 -1.0557 -0.7537
  497MOL0     H68547   2.141   4.516  11.499 -1.3052 -1.3648  2.2450
  497MOL0     H68548   2.262   4.102  11.058 -0.5740  1.1334  0.9153
  497MOL0     H68549   2.146   3.940  10.892  1.4593  1.6951 -0.8581
  497MOL0     H68550   1.872   3.760  10.745  0.0086  0.0133  0.1063
  497MOL0     H68551   2.031   3.834  10.753  3.0575 -3.1176  0.7105
  497MOL0     H68552   2.063   3.617  10.798  1.7334  0.5227 -0.8768
  497MOL0     H68553   2.076   3.699  10.958  0.2476  1.6923 -2.0263
  497MOL0     H68554   1.821   3.553  10.863 -0.4911 -0.2782  1.0551
  497MOL0     H68555   1.863   3.643  11.015  0.2251  0.9384  0.7344
  497MOL0     H68556   2.051   3.487  11.045 -0.0534  1.2112 -0.7290
  497MOL0     H68557   1.989   3.393  10.912  0.9468  1.4187 -0.6217
  497MOL0     H68558   1.887   3.306  11.147 -0.5862 -0.1507 -0.1550
  497MOL0     H68559   1.859   3.468  11.179  0.9302  1.0624 -1.5704
  497MOL0     H68560   1.710   3.326  10.948 -0.5620 -0.2162  0.3691
  497MOL0     H68561   1.678   3.485  11.024 -1.8564 -0.2006 -1.3662
  497MOL0     H68562   1.603   3.365  11.222 -0.3718  2.4913 -2.0394
  497MOL0     H68563   1.672   3.204  11.159 -0.0335 -0.2282 -1.5558
  497MOL0     H68564   1.507   3.170  11.021  2.3758  1.7811 -1.7695
  497MOL0     H68565   1.463   3.347  11.007 -1.7750  0.3993  1.3519
  497MOL0     H68566   1.774   3.986  11.117 -0.7132 -0.3955 -1.2284
  497MOL0     H68567   1.894   4.143  11.274 -3.6426 -1.2590 -1.8409
  497MOL0     H68568   2.461   4.061  11.427 -0.0997 -1.0001  1.9399
  497MOL0     H68569   2.597   4.156  11.555 -1.0693 -2.2895 -0.5898
  497MOL0     H68570   3.938   3.670  11.550 -0.1437  0.2500  0.7505
  497MOL0     H68571   4.113   3.563  11.428  1.1350 -1.8976 -2.6885
  497MOL0     H68572   4.325   3.261  11.280 -2.3630 -0.1889  0.2252
  497MOL0     H68573   4.521   3.156  11.182  1.2699  0.4805 -1.6656
  497MOL0     H68574   4.702   3.074  11.072  0.8092  0.3037 -3.4542
  497MOL0     H68575   4.615   2.922  11.112  0.2437 -0.9577 -0.9426
  497MOL0     H68576   4.674   2.829  10.887 -0.9372  0.4909  0.2608
  497MOL0     H68577   4.816   2.866  11.003  1.1480  3.5340  0.1830
  497MOL0     H68578   4.718   3.018  10.761  0.7655  0.7746  0.8899
  497MOL0     H68579   4.839   3.084  10.860 -0.3304  0.0135  1.1403
  497MOL0     H68580   4.847   2.855  10.647 -1.3980 -1.0261  0.6225
  497MOL0     H68581   4.937   2.810  10.792  0.0095 -0.9359  0.8424
  497MOL0     H68582   5.206   3.120  10.701 -0.5613  0.7912  1.4054
  497MOL0     H68583   4.284   3.012  10.844 -0.4011  1.6330 -1.4568
  497MOL0     H68584   4.062   3.069  10.817 -3.7124 -0.2694  0.0388
  497MOL0     H68585   3.979   3.047  10.977 -1.2763 -2.3617 -2.4449
  497MOL0     H68586   4.018   3.208  10.917  1.5478  0.1987  0.8312
  498MOL0     O68587   2.106   8.268   2.046  0.4857  0.2439  0.8574
  498MOL0     C68588   2.036   8.214   2.133 -0.0640  0.4308  1.0226
  498MOL0     O68589   1.912   8.175   2.125  0.5648  0.0445 -0.3951
  498MOL0     C68590   1.854   8.212   2.005 -0.5008 -0.2213 -0.6504
  498MOL0     C68591   1.772   8.319   2.009 -0.3430 -0.1117  0.4420
  498MOL0     C68592   1.690   8.352   1.901  0.5205 -0.7067  0.1668
  498MOL0     C68593   1.693   8.276   1.785 -0.9505  0.6827  0.1760
  498MOL0     O68594   1.616   8.316   1.672 -0.2038 -0.0561 -0.3127
  498MOL0     C68595   1.538   8.222   1.590 -0.0102  0.8445  0.7717
  498MOL0     C68596   1.480   8.301   1.473  0.4321  0.4244  0.2563
  498MOL0     C68597   1.364   8.389   1.512  0.7665  0.2325  0.1119
  498MOL0     C68598   1.254   8.326   1.597  0.1729 -0.0281 -0.0872
  498MOL0     C68599   1.135   8.411   1.569  0.6008 -0.3532  0.1637
  498MOL0     C68600   1.015   8.372   1.639  0.4223  0.6725  0.3612
  498MOL0     C68601   0.899   8.463   1.610 -0.7070  0.3057  0.1087
  498MOL0     C68602   0.829   8.433   1.474  0.5701  0.7645  0.5277
  498MOL0     N68603   0.710   8.511   1.452  0.6481  0.5143  0.4408
  498MOL0     C68604   0.586   8.464   1.471  0.3289 -0.3568  0.7756
  498MOL0     C68605   0.505   8.565   1.452  0.6640  0.4284  0.3686
  498MOL0     C68606   0.354   8.580   1.476  0.4888  0.5295 -0.6108
  498MOL0     C68607   0.322   8.544   1.629 -0.2255 -1.1433  0.5753
  498MOL0     C68608   0.389   8.640   1.727  0.6956  0.2334  0.0339
  498MOL0     C68609   0.415   8.568   1.855 -0.9059  0.6973 -0.8271
  498MOL0     O68610   0.488   8.448   1.844 -0.1026  0.2555  0.1402
  498MOL0     C68611   0.481   8.349   1.935 -0.2828 -0.0467  0.1832
  498MOL0     C68612   0.372   8.332   2.018 -0.4138 -0.1621 -1.6605
  498MOL0     C68613   0.365   8.248   2.134 -0.1599  0.0136  0.0447
  498MOL0     C68614   0.236   8.244   2.217 -0.4581  0.0802 -0.1403
  498MOL0     C68615   0.477   8.156   2.150  0.3096  0.0815 -0.3792
  498MOL0     C68616   0.480   8.056   2.272 -0.9588 -0.7533 -0.0800
  498MOL0     O68617   0.606   7.998   2.283  0.6214 -0.6388  0.7772
  498MOL0     C68618   0.629   7.931   2.399 -0.0388  0.2623  0.2313
  498MOL0     C68619   0.576   7.798   2.418  0.3537 -0.9745 -0.5649
  498MOL0     C68620   0.586   7.737   2.540  1.0476  0.2553 -0.0275
  498MOL0     C68621   0.659   7.795   2.648 -0.6066 -0.0705 -0.2719
  498MOL0     O68622   0.687   7.747   2.769  0.3517 -0.0514 -0.2396
  498MOL0     C68623   0.672   7.609   2.769  0.3516 -0.3565 -0.2906
  498MOL0     C68624   0.690   7.569   2.915  0.6501  0.2240 -0.2356
  498MOL0     C68625   0.672   7.416   2.924 -0.2559 -0.8935 -0.8243
  498MOL0     C68626   0.749   7.363   3.046 -0.6731 -0.0794  0.1704
  498MOL0     C68627   0.696   7.393   3.188 -0.0241 -0.0021  0.2121
  498MOL0     C68628   0.575   7.314   3.236  0.6671 -0.7708  1.2175
  498MOL0     C68629   0.510   7.392   3.345  0.3419  0.6511 -0.5681
  498MOL0     C68630   0.617   7.426   3.450  0.2537  0.9579 -0.6096
  498MOL0    Cl68631   0.683   7.597   3.440  0.2532 -0.2720  0.1305
  498MOL0     C68632   0.709   7.922   2.629 -1.3215  0.1831  0.1192
  498MOL0     C68633   0.691   7.996   2.503 -0.3638 -0.0250  0.1705
  498MOL0     O68634   0.392   8.036   2.350  0.1976 -0.1570  0.2843
  498MOL0     C68635   0.591   8.172   2.065  0.3789 -0.7142  0.4216
  498MOL0     C68636   0.594   8.270   1.959  0.9493  0.5812 -0.4145
  498MOL0     N68637   0.574   8.676   1.420 -0.4369 -0.4123  0.2329
  498MOL0     N68638   0.702   8.641   1.415 -0.7190  0.8729  0.6138
  498MOL0     C68639   1.774   8.156   1.789 -0.4806  0.7831  0.4800
  498MOL0     C68640   1.859   8.130   1.896  0.9710 -0.1002 -0.5840
  498MOL0     C68641   2.100   8.207   2.263 -0.3045  0.7106 -0.6559
  498MOL0     C68642   2.242   8.195   2.270  0.1668  0.0389 -0.2052
  498MOL0     C68643   2.306   8.178   2.391 -0.6672  0.5147  0.2553
  498MOL0     C68644   2.235   8.187   2.516  0.3790  0.3708 -0.0113
  498MOL0     O68645   2.290   8.203   2.641 -0.0864 -0.2404  0.1150
  498MOL0     C68646   2.427   8.171   2.667 -0.0946  0.5823  0.6373
  498MOL0     C68647   2.447   8.143   2.816 -0.2824 -0.1490 -0.6352
  498MOL0     C68648   2.353   8.034   2.860 -0.6214 -0.4900 -0.0765
  498MOL0     C68649   2.372   7.980   3.006 -0.6421  0.7037 -0.1049
  498MOL0     C68650   2.303   7.852   3.033 -0.1345 -0.0284  1.0902
  498MOL0     C68651   2.253   7.741   3.052 -0.1868  0.1412  0.7391
  498MOL0     C68652   2.097   8.220   2.514 -0.9936  0.3182 -0.6668
  498MOL0     C68653   2.024   8.218   2.390  0.0761  0.5488  0.0466
  498MOL0     C68654   1.875   8.224   2.408 -0.0216 -0.7765 -1.1980
  498MOL0     H68655   1.766   8.383   2.096  1.2373  3.3634 -1.7450
  498MOL0     H68656   1.633   8.444   1.909 -1.1399 -1.6778  0.0488
  498MOL0     H68657   1.474   8.158   1.650  0.1491 -3.8097 -3.3620
  498MOL0     H68658   1.608   8.151   1.544  1.9974  3.7036 -0.9029
  498MOL0     H68659   1.561   8.354   1.422 -0.6726 -0.1483 -2.2575
  498MOL0     H68660   1.445   8.225   1.403  1.2326  0.6539 -0.4050
  498MOL0     H68661   1.398   8.476   1.569  0.7502 -0.4399  1.1818
  498MOL0     H68662   1.312   8.416   1.420 -1.8459  1.1944  1.7425
  498MOL0     H68663   1.233   8.222   1.573 -0.7514  0.2011 -0.3085
  498MOL0     H68664   1.285   8.322   1.702 -1.9770  0.7186  0.6350
  498MOL0     H68665   1.113   8.408   1.461 -1.7404  1.8927  0.4733
  498MOL0     H68666   1.158   8.512   1.605 -0.5591  0.5598 -1.5193
  498MOL0     H68667   0.995   8.268   1.614  4.1452  0.2626 -1.5477
  498MOL0     H68668   1.033   8.382   1.747 -1.6993 -1.6265  1.0063
  498MOL0     H68669   0.925   8.569   1.623  5.1814 -1.0718  3.0213
  498MOL0     H68670   0.822   8.417   1.672 -0.6054 -1.4018 -0.9706
  498MOL0     H68671   0.895   8.470   1.396  0.0341 -0.1273 -0.3824
  498MOL0     H68672   0.800   8.327   1.469  0.5579  0.8025 -0.2753
  498MOL0     H68673   0.566   8.366   1.511 -2.2631  0.2419  1.1223
  498MOL0     H68674   0.301   8.520   1.402  2.5932  0.7221 -2.3985
  498MOL0     H68675   0.324   8.685   1.465  1.7886  0.8639 -1.2565
  498MOL0     H68676   0.212   8.548   1.628 -0.2008  0.0565  0.7825
  498MOL0     H68677   0.341   8.440   1.656 -1.7768 -2.1863 -2.0377
  498MOL0     H68678   0.478   8.674   1.673  0.6534 -0.3230 -0.3855
  498MOL0     H68679   0.319   8.724   1.736  0.1184 -0.1895 -0.3915
  498MOL0     H68680   0.484   8.626   1.917  0.8022 -0.9180 -1.1112
  498MOL0     H68681   0.316   8.567   1.903 -0.3561  0.9833  0.3491
  498MOL0     H68682   0.279   8.385   1.997 -1.1591 -1.2436 -1.1770
  498MOL0     H68683   0.203   8.141   2.207 -1.1032  0.3403 -0.7948
  498MOL0     H68684   0.155   8.313   2.191  0.7668  1.9461  0.7227
  498MOL0     H68685   0.268   8.271   2.318 -1.0558  0.4302 -0.0395
  498MOL0     H68686   0.520   7.754   2.336 -0.5940 -1.4443  0.3149
  498MOL0     H68687   0.538   7.641   2.552  3.1749 -1.0194 -1.2709
  498MOL0     H68688   0.574   7.578   2.733  0.2411  1.7276 -1.9354
  498MOL0     H68689   0.746   7.563   2.702 -0.1154 -0.2586 -0.8821
  498MOL0     H68690   0.792   7.599   2.939  0.4357  1.5242 -0.8560
  498MOL0     H68691   0.626   7.625   2.984  1.4891  0.5429  0.2866
  498MOL0     H68692   0.697   7.364   2.831  0.2584 -2.2510  0.0532
  498MOL0     H68693   0.565   7.406   2.943 -0.1931  0.2673  0.2867
  498MOL0     H68694   0.851   7.402   3.048  0.7682 -3.4419  0.6743
  498MOL0     H68695   0.741   7.253   3.043  1.6998 -0.3842  2.0332
  498MOL0     H68696   0.774   7.384   3.263 -1.6830  1.5825  2.2535
  498MOL0     H68697   0.663   7.497   3.180  1.6813  0.5272 -0.3654
  498MOL0     H68698   0.604   7.214   3.271  1.4699 -1.2764 -0.7396
  498MOL0     H68699   0.514   7.294   3.147  2.2003  2.6243 -0.8148
  498MOL0     H68700   0.424   7.334   3.380  1.2472 -0.2331  0.2458
  498MOL0     H68701   0.470   7.486   3.306 -0.4004  0.5962  0.0417
  498MOL0     H68702   0.690   7.345   3.443  0.1314  0.8914 -1.1486
  498MOL0     H68703   0.567   7.413   3.547  2.0013  1.7443  0.4517
  498MOL0     H68704   0.778   7.947   2.708 -0.8949  2.6747 -0.9459
  498MOL0     H68705   0.728   8.097   2.484  0.1757 -0.2338  0.1081
  498MOL0     H68706   0.681   8.116   2.088  1.9507  0.1764 -3.0761
  498MOL0     H68707   0.674   8.301   1.893 -0.3552 -0.2872 -2.4797
  498MOL0     H68708   1.780   8.106   1.693 -0.0980  1.1903  0.2889
  498MOL0     H68709   1.940   8.058   1.891  0.9351 -0.4306  2.2357
  498MOL0     H68710   2.305   8.189   2.182 -2.7491  1.7238 -2.6004
  498MOL0     H68711   2.414   8.170   2.397 -0.4947  1.7324 -0.8506
  498MOL0     H68712   2.446   8.084   2.603 -2.0270  0.5014  0.0911
  498MOL0     H68713   2.482   8.260   2.636 -1.1503 -0.1478 -4.1771
  498MOL0     H68714   2.425   8.234   2.872 -0.9354  0.0806 -1.2492
  498MOL0     H68715   2.547   8.106   2.839 -1.6305 -3.9319 -0.1154
  498MOL0     H68716   2.253   8.079   2.865 -0.2375  0.3454  0.2429
  498MOL0     H68717   2.353   7.943   2.799 -2.5033 -1.7436  1.6672
  498MOL0     H68718   2.344   8.064   3.071 -1.4834  0.3168  0.0490
  498MOL0     H68719   2.478   7.965   3.027 -0.8500 -1.6166 -0.5306
  498MOL0     H68720   2.214   7.642   3.051  0.4463 -0.1515 -1.3785
  498MOL0     H68721   2.047   8.237   2.609  2.2971  0.0219  1.2814
  498MOL0     H68722   1.841   8.313   2.354 -0.4064  0.5357  1.0687
  498MOL0     H68723   1.835   8.135   2.358  1.8480 -1.1167 -2.1441
  498MOL0     H68724   1.839   8.218   2.512 -1.2331 -3.2661 -1.6906
  499MOL0     O68725  10.344   8.955  10.829 -0.0094 -0.0852 -0.4101
  499MOL0     C68726  10.429   8.968  10.737 -0.7380  0.5996 -1.1216
  499MOL0     O68727  10.408   8.934  10.609 -0.2362 -0.3273 -0.3405
  499MOL0     C68728  10.282   8.876  10.582 -0.4532  0.0714 -0.1309
  499MOL0     C68729  10.206   8.942  10.473  0.2542 -0.0862  0.4850
  499MOL0     C68730  10.083   8.895  10.436  0.4010 -0.3033 -0.1189
  499MOL0     C68731  10.031   8.788  10.496 -0.5509  0.5287 -0.4356
  499MOL0     O68732   9.903   8.756  10.461  0.5038 -0.3416 -1.0230
  499MOL0     C68733   9.841   8.633  10.514  0.0658 -1.3814  0.1271
  499MOL0     C68734   9.870   8.498  10.436 -0.1633 -0.3653  0.1708
  499MOL0     C68735   9.827   8.501  10.282  0.3380 -0.6837 -0.0729
  499MOL0     C68736   9.867   8.373  10.211 -0.5303 -0.4581  1.1510
  499MOL0     C68737   9.774   8.363  10.082 -0.8499  1.1957  0.2080
  499MOL0     C68738   9.803   8.234  10.001  1.0132  0.0757  0.5119
  499MOL0     C68739   9.795   8.098  10.067  0.3324 -0.1482 -0.4658
  499MOL0     C68740   9.926   8.036  10.118  0.1863 -0.1598  0.0621
  499MOL0     N68741   9.889   7.922  10.208  0.3258  0.1228  0.4513
  499MOL0     C68742   9.854   7.795  10.169 -1.4635 -0.4814  0.3143
  499MOL0     C68743   9.844   7.730  10.291 -0.6760  0.5462 -0.8868
  499MOL0     C68744   9.814   7.583  10.300  0.8682 -0.7431 -0.9222
  499MOL0     C68745   9.731   7.544  10.431 -0.0175  0.6677  0.4422
  499MOL0     C68746   9.824   7.533  10.553  0.0830 -0.1169 -0.4763
  499MOL0     C68747   9.746   7.535  10.688  0.3994  0.0460 -0.2524
  499MOL0     O68748   9.642   7.429  10.695 -0.0029  0.4800 -0.2968
  499MOL0     C68749   9.685   7.303  10.738  0.0002 -0.6482 -1.0560
  499MOL0     C68750   9.719   7.272  10.870  0.9587  0.8343  0.0288
  499MOL0     C68751   9.772   7.147  10.906 -0.2130  0.0465  0.7792
  499MOL0     C68752   9.802   7.130  11.052 -0.2382 -0.3125 -0.0819
  499MOL0     C68753   9.802   7.055  10.810  0.5328 -0.6638  0.4699
  499MOL0     C68754   9.880   6.928  10.838  0.0787 -0.5535 -0.6163
  499MOL0     O68755   9.853   6.830  10.745 -0.8430  0.0695  0.4905
  499MOL0     C68756   9.872   6.692  10.769  0.2397  0.0121  0.3282
  499MOL0     C68757   9.953   6.625  10.859  0.5193 -0.0596 -0.4465
  499MOL0     C68758   9.964   6.487  10.849 -0.0978  0.4376  0.0918
  499MOL0     C68759   9.899   6.406  10.759 -0.1240  0.4634 -0.6499
  499MOL0     O68760   9.909   6.267  10.742  0.0480  0.5732 -0.2699
  499MOL0     C68761  10.024   6.202  10.797 -0.3049 -0.0668  0.4794
  499MOL0     C68762  10.018   6.051  10.767  0.4031  0.3185 -0.8889
  499MOL0     C68763   9.997   6.021  10.613  0.2226  0.2052 -0.0659
  499MOL0     C68764  10.134   6.038  10.534  0.9958  0.4832 -0.7791
  499MOL0     C68765  10.108   6.009  10.390  0.3591  0.7369 -0.9299
  499MOL0     C68766  10.238   5.995  10.323 -0.0278  0.5085  1.5172
  499MOL0     C68767  10.334   6.121  10.337  0.6415  0.9611  0.6463
  499MOL0     C68768  10.471   6.084  10.287 -0.9812 -0.3817 -0.5644
  499MOL0    Cl68769  10.549   5.977  10.414 -0.3741 -0.1993 -0.4013
  499MOL0     C68770   9.818   6.477  10.666 -0.6635  0.1059 -0.9274
  499MOL0     C68771   9.812   6.616  10.673  1.1785 -0.3531 -0.0628
  499MOL0     O68772   9.954   6.921  10.934 -0.7506 -0.8005  0.2747
  499MOL0     C68773   9.762   7.082  10.676 -0.8718  0.3303 -1.4851
  499MOL0     C68774   9.701   7.200  10.645  0.4129  0.0822  0.2157
  499MOL0     N68775   9.844   7.820  10.393  0.9566  0.3765  0.3171
  499MOL0     N68776   9.863   7.934  10.341  0.8718 -0.0514  0.0485
  499MOL0     C68777  10.102   8.724  10.605  1.2929 -0.1254  0.7996
  499MOL0     C68778  10.219   8.770  10.652 -0.6853 -0.2678 -0.0260
  499MOL0     C68779  10.566   9.011  10.783 -0.5459  0.2446 -0.9537
  499MOL0     C68780  10.584   9.023  10.920  0.5921  0.1068  0.3312
  499MOL0     C68781  10.713   9.049  10.972  0.4179  0.1922 -0.6385
  499MOL0     C68782  10.819   9.047  10.888 -0.7263  0.1996  0.0957
  499MOL0     O68783  10.947   9.050  10.935 -0.2432 -0.2531  0.2922
  499MOL0     C68784  10.956   9.095  11.065 -0.6569  0.2949  0.0682
  499MOL0     C68785  11.116   9.118  11.095 -0.7130 -0.5046 -0.1627
  499MOL0     C68786  11.178   8.981  11.094  0.8888  0.3719 -0.0790
  499MOL0     C68787  11.332   8.977  11.102  0.0983 -0.1529 -0.5840
  499MOL0     C68788  11.392   9.027  11.225 -0.4932  0.1013 -1.0148
  499MOL0     C68789  11.449   9.088  11.314 -0.0106  0.0915  0.0941
  499MOL0     C68790  10.802   9.037  10.752 -0.1286 -0.1706  0.9434
  499MOL0     C68791  10.678   9.018  10.697 -0.1605 -0.7115  0.5123
  499MOL0     C68792  10.665   8.988  10.544  0.9796  0.6196 -0.9747
  499MOL0     H68793  10.247   9.033  10.431 -0.5875  1.0601  2.0771
  499MOL0     H68794  10.042   8.953  10.354  0.4753  1.3769  0.9704
  499MOL0     H68795   9.735   8.661  10.504  0.1389 -0.5691  1.4266
  499MOL0     H68796   9.855   8.633  10.623 -0.5467 -1.2115  0.2146
  499MOL0     H68797   9.979   8.494  10.443 -0.0824  1.8731  1.1486
  499MOL0     H68798   9.824   8.415  10.490 -3.0779  1.7063  1.1294
  499MOL0     H68799   9.723   8.532  10.268  0.2240 -0.0911  1.8500
  499MOL0     H68800   9.886   8.585  10.245  1.4673 -1.4027  0.0304
  499MOL0     H68801   9.970   8.377  10.175 -0.6976  0.5776  0.7646
  499MOL0     H68802   9.858   8.279  10.267  2.2193 -1.5092  0.0179
  499MOL0     H68803   9.786   8.453  10.022  0.7232  1.7876  1.3472
  499MOL0     H68804   9.672   8.371  10.122 -1.3910  0.4857 -0.9828
  499MOL0     H68805   9.733   8.230   9.917  1.4458  1.2643  0.0653
  499MOL0     H68806   9.903   8.240   9.958  0.4896 -2.5847 -1.3305
  499MOL0     H68807   9.748   8.031   9.994  0.7059 -1.4534  0.4575
  499MOL0     H68808   9.725   8.106  10.150  0.1610 -1.1289 -0.4980
  499MOL0     H68809   9.987   8.008  10.031 -0.9721  4.3076 -2.4983
  499MOL0     H68810   9.992   8.099  10.177 -1.5239  1.2738  0.5104
  499MOL0     H68811   9.851   7.752  10.069  1.8268  2.7976 -1.4280
  499MOL0     H68812   9.909   7.530  10.287  1.1065 -0.4297 -0.4819
  499MOL0     H68813   9.746   7.568  10.216 -2.4328  2.6080  0.8794
  499MOL0     H68814   9.641   7.607  10.437 -1.4505 -1.2657  0.1196
  499MOL0     H68815   9.692   7.443  10.413  1.1745  0.1536  0.7139
  499MOL0     H68816   9.871   7.434  10.549  2.3184  0.8725 -0.0405
  499MOL0     H68817   9.904   7.607  10.558  1.5028 -1.5099 -1.5603
  499MOL0     H68818   9.813   7.520  10.774 -1.5266 -2.0433  0.9838
  499MOL0     H68819   9.690   7.628  10.701 -0.6764 -0.7523  1.0931
  499MOL0     H68820   9.709   7.356  10.938 -1.6831  0.8058 -0.2105
  499MOL0     H68821   9.794   7.029  11.094  0.9371 -0.7610 -0.8650
  499MOL0     H68822   9.731   7.192  11.107 -1.9715 -1.9374 -0.4025
  499MOL0     H68823   9.908   7.155  11.068 -0.6165  3.4993 -2.2007
  499MOL0     H68824  10.005   6.688  10.930 -1.1311  2.1384 -1.0823
  499MOL0     H68825  10.027   6.448  10.928 -2.1916  0.9199  2.1161
  499MOL0     H68826  10.117   6.237  10.753 -0.8514  0.2315 -0.4780
  499MOL0     H68827  10.021   6.203  10.906  0.1470 -0.3407  0.4947
  499MOL0     H68828  10.104   6.000  10.811  0.1014  0.2879 -0.3313
  499MOL0     H68829   9.929   6.012  10.817 -0.9267  2.1054 -1.7622
  499MOL0     H68830   9.913   6.078  10.572  0.3879  0.2385 -0.3648
  499MOL0     H68831   9.974   5.916  10.595  1.4707 -0.0351 -0.3232
  499MOL0     H68832  10.210   5.980  10.586  0.4105  0.2095 -0.2224
  499MOL0     H68833  10.158   6.143  10.556  3.6975 -0.1289 -0.4376
  499MOL0     H68834  10.052   5.917  10.372  0.9839  0.3320 -0.8357
  499MOL0     H68835  10.049   6.088  10.343 -1.0278  0.7770  0.7611
  499MOL0     H68836  10.228   5.976  10.216 -2.0186  0.2903  1.7034
  499MOL0     H68837  10.289   5.910  10.369  0.1877  0.2863  0.8744
  499MOL0     H68838  10.326   6.170  10.434 -2.5726 -0.0211  0.9929
  499MOL0     H68839  10.300   6.199  10.268  0.3181  1.2408  1.1120
  499MOL0     H68840  10.536   6.172  10.290 -0.1408 -0.8605 -2.9600
  499MOL0     H68841  10.461   6.027  10.195  2.4221 -2.3099  0.1139
  499MOL0     H68842   9.756   6.426  10.592 -1.5316 -0.2483  0.0139
  499MOL0     H68843   9.749   6.681  10.612  1.1690  0.5039  0.8391
  499MOL0     H68844   9.764   7.014  10.592 -0.4339 -0.5720 -0.7702
  499MOL0     H68845   9.681   7.218  10.540 -2.7003  0.5558  0.7960
  499MOL0     H68846  10.062   8.640  10.659 -2.8604  1.3992  0.4348
  499MOL0     H68847  10.282   8.731  10.731 -2.4448 -2.2306  0.4926
  499MOL0     H68848  10.501   8.996  10.985  2.5197  0.6870  3.2357
  499MOL0     H68849  10.721   9.047  11.080 -0.5466 -0.9764 -0.5736
  499MOL0     H68850  10.911   9.195  11.068  1.2289  1.4616 -3.8026
  499MOL0     H68851  10.930   9.023  11.143 -0.1111 -0.6963 -0.6605
  499MOL0     H68852  11.119   9.164  11.195 -1.4675  0.7335 -0.6747
  499MOL0     H68853  11.163   9.180  11.018 -0.9337 -0.5803 -0.3613
  499MOL0     H68854  11.143   8.935  11.187  0.6159 -0.1116 -0.4149
  499MOL0     H68855  11.135   8.927  11.010  1.0382  2.6880 -1.7396
  499MOL0     H68856  11.372   9.018  11.009  2.9288  0.5906  0.8627
  499MOL0     H68857  11.365   8.872  11.103 -0.8081 -0.4707 -1.3910
  499MOL0     H68858  11.496   9.146  11.391 -3.2988  0.1026  2.2900
  499MOL0     H68859  10.889   9.043  10.688  1.5882  4.5007  3.2578
  499MOL0     H68860  10.634   8.884  10.555  0.3385  1.0492  2.3046
  499MOL0     H68861  10.598   9.058  10.493  0.8554 -0.2987 -2.1287
  499MOL0     H68862  10.754   8.987  10.480  0.3819 -1.3920 -1.8493
  500MOL0     O68863   5.207  10.447   3.569 -0.0950  0.8619  0.5998
  500MOL0     C68864   5.203  10.536   3.655  0.0213  0.1541  0.3710
  500MOL0     O68865   5.149  10.522   3.778  0.3626  0.3092 -0.0369
  500MOL0     C68866   5.132  10.394   3.821  1.2130  0.1960  0.3948
  500MOL0     C68867   5.241  10.318   3.846 -0.1316 -0.0453 -0.6056
  500MOL0     C68868   5.224  10.183   3.892  0.2760 -0.3173 -0.2635
  500MOL0     C68869   5.093  10.127   3.899  0.4214 -0.4257  0.1853
  500MOL0     O68870   5.075  10.000   3.945  0.5426  0.2235  0.7751
  500MOL0     C68871   4.949   9.951   3.985  0.4031 -0.4151  0.9660
  500MOL0     C68872   4.979   9.814   4.049 -0.0930 -0.7856 -0.0697
  500MOL0     C68873   4.885   9.777   4.160  0.6117 -0.0786 -0.2103
  500MOL0     C68874   4.739   9.766   4.107 -0.2052  0.4361  0.5680
  500MOL0     C68875   4.663   9.675   4.216 -0.0957 -0.3183  0.1381
  500MOL0     C68876   4.530   9.616   4.157 -0.1749  0.4370  0.8756
  500MOL0     C68877   4.544   9.496   4.063 -0.0464 -0.5405 -0.2246
  500MOL0     C68878   4.406   9.481   3.985  0.0527  0.8856  0.8680
  500MOL0     N68879   4.421   9.407   3.859  0.9136  0.3744  0.1329
  500MOL0     C68880   4.335   9.405   3.753 -0.3410  0.2026  0.5951
  500MOL0     C68881   4.379   9.312   3.666  0.3997  0.8745 -0.3564
  500MOL0     C68882   4.347   9.301   3.518 -0.1147 -0.3907  0.3944
  500MOL0     C68883   4.203   9.269   3.483 -0.3483 -0.6390  0.7896
  500MOL0     C68884   4.181   9.278   3.335  0.4641 -0.4812 -0.2613
  500MOL0     C68885   4.037   9.239   3.290 -0.4499 -0.4342 -0.6167
  500MOL0     O68886   4.041   9.250   3.144  0.0400  0.3060 -0.5266
  500MOL0     C68887   3.947   9.327   3.078 -1.0319  0.1451 -0.2037
  500MOL0     C68888   4.000   9.352   2.951  0.2859  1.2722 -0.5925
  500MOL0     C68889   3.916   9.422   2.875  0.6404  0.2749  0.8677
  500MOL0     C68890   3.948   9.424   2.729  0.3392 -0.4227  0.5337
  500MOL0     C68891   3.795   9.488   2.912  0.5180 -1.0398 -0.3290
  500MOL0     C68892   3.720   9.576   2.813  1.1796 -0.3430 -0.2604
  500MOL0     O68893   3.724   9.707   2.846  0.7086 -0.8592 -0.2210
  500MOL0     C68894   3.684   9.803   2.753 -0.4927  0.4056 -0.8949
  500MOL0     C68895   3.685   9.792   2.612 -0.4157 -0.8256 -1.4126
  500MOL0     C68896   3.655   9.899   2.533  0.4812 -0.1841 -0.1856
  500MOL0     C68897   3.609  10.020   2.587 -0.3026  0.8987  0.8103
  500MOL0     O68898   3.575  10.126   2.509  0.0664 -0.0138 -0.0322
  500MOL0     C68899   3.492  10.094   2.402  0.5989  0.2356  0.4630
  500MOL0     C68900   3.458  10.236   2.339 -0.0425  1.2724  0.1897
  500MOL0     C68901   3.572  10.336   2.312 -0.2776  0.4880 -0.2191
  500MOL0     C68902   3.586  10.454   2.409 -0.1083  0.0531  0.0188
  500MOL0     C68903   3.645  10.404   2.546 -0.6427 -0.3752 -0.6815
  500MOL0     C68904   3.786  10.354   2.520 -0.3074 -0.8778  0.2209
  500MOL0     C68905   3.879  10.420   2.619 -1.4930 -0.6434 -0.3588
  500MOL0     C68906   4.026  10.384   2.582 -0.2980  0.2942 -0.3923
  500MOL0    Cl68907   4.144  10.463   2.705  0.1295 -0.6834 -0.0409
  500MOL0     C68908   3.615  10.039   2.728  0.5236 -0.3966 -0.0927
  500MOL0     C68909   3.650   9.928   2.812  0.0210  0.2589 -0.6236
  500MOL0     O68910   3.642   9.528   2.734 -0.0128 -0.0902 -0.4311
  500MOL0     C68911   3.760   9.474   3.046  0.5858  0.0045 -0.1562
  500MOL0     C68912   3.834   9.394   3.130  0.5710  0.5441  0.5996
  500MOL0     N68913   4.488   9.253   3.731  0.1899 -0.0118 -0.2265
  500MOL0     N68914   4.515   9.319   3.842 -0.4839  0.0967  0.4435
  500MOL0     C68915   4.989  10.212   3.864 -0.1225 -0.0509  0.9183
  500MOL0     C68916   5.005  10.342   3.827 -0.2383 -0.5806  0.3614
  500MOL0     C68917   5.229  10.675   3.606  0.0641 -0.1734  0.6017
  500MOL0     C68918   5.222  10.777   3.704 -0.3806 -0.3229  0.9106
  500MOL0     C68919   5.244  10.907   3.666 -0.1668  0.2133 -0.5636
  500MOL0     C68920   5.277  10.948   3.536  0.6801  0.3463 -0.9599
  500MOL0     O68921   5.292  11.075   3.481  0.6689 -0.0229 -0.6210
  500MOL0     C68922   5.247  11.194   3.539  1.0291  0.3295 -0.6958
  500MOL0     C68923   5.086  11.214   3.515 -0.7027 -0.4463 -0.1437
  500MOL0     C68924   5.060  11.201   3.363 -0.2363 -0.6083 -0.6587
  500MOL0     C68925   4.921  11.231   3.325 -0.3644  0.0622  0.0820
  500MOL0     C68926   4.830  11.144   3.394  0.1557  0.4440 -0.0761
  500MOL0     C68927   4.766  11.077   3.473 -0.3864 -0.3207 -0.2904
  500MOL0     C68928   5.302  10.840   3.453 -0.0645 -0.2113  0.2686
  500MOL0     C68929   5.269  10.707   3.470  0.5441 -0.3451 -0.1685
  500MOL0     C68930   5.285  10.606   3.353 -1.0095 -0.0992 -0.0012
  500MOL0     H68931   5.340  10.357   3.827  0.3864  0.0564  1.9590
  500MOL0     H68932   5.311  10.124   3.919  0.4093 -1.4237 -2.7973
  500MOL0     H68933   4.890   9.928   3.895  2.4276 -3.2986  0.2312
  500MOL0     H68934   4.899  10.011   4.061 -0.6140 -2.1078  1.7019
  500MOL0     H68935   4.988   9.738   3.972  0.9691  0.5694 -1.3529
  500MOL0     H68936   5.078   9.826   4.095 -1.2636 -0.8850  2.6772
  500MOL0     H68937   4.917   9.680   4.201 -0.4742 -0.7317 -0.8539
  500MOL0     H68938   4.887   9.841   4.248 -1.6182 -0.5552  0.2360
  500MOL0     H68939   4.690   9.864   4.112 -0.0211  0.6366 -1.0711
  500MOL0     H68940   4.726   9.729   4.005 -3.7126 -1.4792  1.5348
  500MOL0     H68941   4.632   9.732   4.304  1.8456  1.3133 -0.1701
  500MOL0     H68942   4.723   9.587   4.243  2.1897  1.2310  0.2802
  500MOL0     H68943   4.481   9.573   4.245 -0.1018 -1.5188  0.0094
  500MOL0     H68944   4.475   9.695   4.106  2.1028  2.2776  1.0801
  500MOL0     H68945   4.552   9.402   4.117 -2.1950 -1.3002 -1.1368
  500MOL0     H68946   4.632   9.506   3.998 -2.4572  3.2711 -3.3831
  500MOL0     H68947   4.334   9.424   4.043 -0.7492  0.8247 -0.1558
  500MOL0     H68948   4.370   9.582   3.964 -0.5732  0.9035  1.9791
  500MOL0     H68949   4.265   9.482   3.721 -1.8840 -1.0822  0.7670
  500MOL0     H68950   4.410   9.231   3.463  1.6946  1.2069  0.3400
  500MOL0     H68951   4.368   9.399   3.475 -1.1632 -0.3649 -0.0919
  500MOL0     H68952   4.180   9.165   3.508 -1.2872 -0.5500  0.3340
  500MOL0     H68953   4.135   9.337   3.534  0.4176 -0.6658  1.8778
  500MOL0     H68954   4.213   9.370   3.287  0.3491 -0.1267  0.3375
  500MOL0     H68955   4.246   9.201   3.292 -0.4194  0.1135 -2.8484
  500MOL0     H68956   4.026   9.138   3.330 -0.1333  1.0810  3.8955
  500MOL0     H68957   3.966   9.309   3.335  3.8650  2.3548  2.6757
  500MOL0     H68958   4.093   9.307   2.920  0.9119  0.8102  1.7597
  500MOL0     H68959   3.917   9.515   2.678 -1.3539 -1.7368 -0.9414
  500MOL0     H68960   3.908   9.341   2.670 -0.1633  0.4235 -0.3394
  500MOL0     H68961   4.057   9.426   2.727  0.7219 -2.7807  4.9874
  500MOL0     H68962   3.704   9.694   2.571  1.9608 -0.7200 -0.7114
  500MOL0     H68963   3.666   9.871   2.429  2.4084  0.2121 -0.1360
  500MOL0     H68964   3.532  10.021   2.331 -3.4204 -0.2077 -1.6066
  500MOL0     H68965   3.401  10.054   2.445  1.5744  0.7698  3.2007
  500MOL0     H68966   3.406  10.217   2.245 -1.3283  0.9945  0.9323
  500MOL0     H68967   3.398  10.281   2.418 -0.3004 -2.1841  2.1543
  500MOL0     H68968   3.541  10.367   2.212 -2.2819 -0.6087  0.0118
  500MOL0     H68969   3.667  10.287   2.290 -0.4540  1.0411 -2.4966
  500MOL0     H68970   3.490  10.501   2.432  0.8811  1.1369  2.2787
  500MOL0     H68971   3.657  10.522   2.360 -0.7872  0.4946 -0.3566
  500MOL0     H68972   3.655  10.489   2.615  1.0687  1.9204 -3.5119
  500MOL0     H68973   3.584  10.335   2.605 -1.2028  1.1364  0.5888
  500MOL0     H68974   3.813  10.384   2.418 -2.6705 -1.5750 -0.6880
  500MOL0     H68975   3.783  10.246   2.538  1.4768 -0.8824  0.6647
  500MOL0     H68976   3.857  10.379   2.718  0.0687  0.6617  0.5947
  500MOL0     H68977   3.874  10.529   2.630  0.6328 -0.5224 -0.1610
  500MOL0     H68978   4.051  10.412   2.479 -0.0111  1.0952 -0.1062
  500MOL0     H68979   4.026  10.275   2.587 -1.3656  0.3042  0.2371
  500MOL0     H68980   3.583  10.136   2.764  0.6423 -0.4834  0.2436
  500MOL0     H68981   3.655   9.943   2.919 -2.0554  0.0000 -0.4362
  500MOL0     H68982   3.672   9.518   3.092 -1.3170 -2.6754 -0.9840
  500MOL0     H68983   3.804   9.384   3.234 -2.3668 -0.4959 -0.2499
  500MOL0     H68984   4.888  10.176   3.850 -0.4077  1.4019 -1.1792
  500MOL0     H68985   4.926  10.415   3.813 -0.7886 -0.8082  2.0321
  500MOL0     H68986   5.199  10.742   3.804 -0.4232  1.3741  1.5127
  500MOL0     H68987   5.231  10.980   3.745 -1.5874 -1.1567  0.5397
  500MOL0     H68988   5.265  11.187   3.647 -0.9203 -0.3901 -0.3892
  500MOL0     H68989   5.303  11.274   3.490 -0.1344  2.1159  0.7550
  500MOL0     H68990   5.054  11.311   3.552 -1.4792 -0.7553  0.0263
  500MOL0     H68991   5.024  11.142   3.569 -5.9141  1.9365 -2.2797
  500MOL0     H68992   5.125  11.276   3.317  3.2181 -0.9226  3.1063
  500MOL0     H68993   5.088  11.102   3.326  0.2295 -0.9170  0.4857
  500MOL0     H68994   4.906  11.206   3.219 -0.0262  0.8200 -0.1465
  500MOL0     H68995   4.899  11.336   3.342 -0.2193 -0.0454  1.0058
  500MOL0     H68996   4.726  11.005   3.541  1.2673 -1.7659 -0.7872
  500MOL0     H68997   5.334  10.858   3.351  1.5055  0.6262  0.8731
  500MOL0     H68998   5.285  10.659   3.257  0.3653  1.9565  1.0489
  500MOL0     H68999   5.377  10.550   3.371 -0.8939  0.8669  2.9388
  500MOL0     H69000   5.207  10.530   3.350 -2.2657  0.9448  2.6948
  501MOL0     O69001   3.547   9.951   8.872 -0.1786 -0.4493 -0.5164
  501MOL0     C69002   3.577   9.940   8.994 -0.5894 -0.8255  0.1981
  501MOL0     O69003   3.612   9.828   9.060  0.2587  0.1840  0.2968
  501MOL0     C69004   3.599   9.715   8.986  0.7718  0.0880  0.5589
  501MOL0     C69005   3.706   9.629   8.987  0.1369  0.1247  0.2206
  501MOL0     C69006   3.713   9.517   8.904 -0.1036  0.8480 -0.1191
  501MOL0     C69007   3.598   9.471   8.841  0.0197 -0.7732  0.4321
  501MOL0     O69008   3.595   9.363   8.759 -0.0863  0.7275  0.1673
  501MOL0     C69009   3.631   9.236   8.820  0.5743  0.5127  0.1109
  501MOL0     C69010   3.578   9.119   8.727 -0.9151 -0.1897  0.4326
  501MOL0     C69011   3.639   8.987   8.772  0.7456 -1.0507 -0.6673
  501MOL0     C69012   3.597   8.860   8.698 -0.0991  0.5047  0.0672
  501MOL0     C69013   3.604   8.736   8.789  0.5214  0.1304  0.6591
  501MOL0     C69014   3.659   8.605   8.724  0.9196  0.0144 -0.7056
  501MOL0     C69015   3.646   8.472   8.803 -0.7119 -0.4254 -0.9258
  501MOL0     C69016   3.692   8.364   8.713 -0.7868 -0.0623  0.4120
  501MOL0     N69017   3.677   8.225   8.777 -0.5123  0.1975 -0.3874
  501MOL0     C69018   3.704   8.197   8.913 -0.8899  0.6101  0.8869
  501MOL0     C69019   3.715   8.062   8.914  0.5655 -0.2100 -0.1830
  501MOL0     C69020   3.739   7.979   9.042  1.0674 -0.0817  0.6864
  501MOL0     C69021   3.885   7.938   9.048 -0.2485  0.8915 -0.2608
  501MOL0     C69022   3.898   7.873   9.187  0.1827 -0.2286 -0.6321
  501MOL0     C69023   4.047   7.856   9.210 -0.7088 -0.6395  0.4363
  501MOL0     O69024   4.060   7.744   9.300 -0.9119 -1.0140  0.2096
  501MOL0     C69025   4.192   7.727   9.351  0.4594  0.4416 -1.1487
  501MOL0     C69026   4.310   7.791   9.301  0.3604  0.0842  0.1329
  501MOL0     C69027   4.442   7.762   9.346  0.6108 -1.1398 -0.6429
  501MOL0     C69028   4.545   7.818   9.254  0.5726  0.5982 -0.5532
  501MOL0     C69029   4.454   7.666   9.454  0.1237  0.6669 -0.1223
  501MOL0     C69030   4.583   7.638   9.513  0.4265  0.4985  0.2527
  501MOL0     O69031   4.583   7.508   9.566  0.6314 -0.5605 -0.2927
  501MOL0     C69032   4.709   7.451   9.576 -0.4612 -0.2717 -0.7476
  501MOL0     C69033   4.751   7.415   9.711 -0.0921  0.8967  0.0058
  501MOL0     C69034   4.849   7.311   9.727 -0.3806  0.7719  0.4672
  501MOL0     C69035   4.909   7.255   9.609 -1.2018  0.1466  0.0536
  501MOL0     O69036   5.007   7.153   9.624  0.0472 -0.2995 -0.1114
  501MOL0     C69037   5.142   7.183   9.593 -0.7916 -0.8896  0.2526
  501MOL0     C69038   5.226   7.088   9.675 -0.1549 -0.4098 -0.0944
  501MOL0     C69039   5.377   7.108   9.636  0.9359 -0.3997  0.0052
  501MOL0     C69040   5.465   7.006   9.695  0.6775 -0.3108 -0.1282
  501MOL0     C69041   5.597   7.007   9.636 -0.7488  0.1659  0.7975
  501MOL0     C69042   5.697   6.903   9.704 -0.3272  1.3140 -0.5370
  501MOL0     C69043   5.823   6.893   9.620  0.3265 -0.4636 -0.0869
  501MOL0     C69044   5.904   6.764   9.644  0.1501  0.5124 -0.3924
  501MOL0    Cl69045   6.027   6.739   9.512 -0.0698  0.0770 -0.0325
  501MOL0     C69046   4.858   7.282   9.487  0.4114  0.2000  0.1257
  501MOL0     C69047   4.763   7.383   9.467  0.3762  0.1259 -0.6783
  501MOL0     O69048   4.680   7.715   9.510 -0.4387 -0.1256 -0.5672
  501MOL0     C69049   4.338   7.611   9.514 -0.3011  0.1345 -0.3854
  501MOL0     C69050   4.213   7.647   9.457  0.2106  0.6272  0.1518
  501MOL0     N69051   3.688   8.010   8.786 -1.0827  0.6072  0.6687
  501MOL0     N69052   3.678   8.108   8.709  0.2428  0.6795 -0.3635
  501MOL0     C69053   3.484   9.558   8.839 -0.3855 -0.0063 -0.6057
  501MOL0     C69054   3.482   9.675   8.911 -0.3797 -0.3616 -0.0945
  501MOL0     C69055   3.578  10.069   9.072  0.2756 -0.7082  0.8354
  501MOL0     C69056   3.572  10.071   9.207  0.7038 -0.6746  1.1419
  501MOL0     C69057   3.578  10.185   9.289 -0.0494  0.1311 -0.1105
  501MOL0     C69058   3.589  10.313   9.235  0.4609  0.4890  0.4127
  501MOL0     O69059   3.596  10.425   9.309  0.4226 -0.5526  0.8883
  501MOL0     C69060   3.568  10.432   9.456 -0.3333  0.0083  1.0402
  501MOL0     C69061   3.597  10.569   9.516 -0.1985  0.0989  0.3889
  501MOL0     C69062   3.722  10.625   9.461 -0.4355 -1.0699 -0.4225
  501MOL0     C69063   3.783  10.744   9.545 -0.7475  0.5190  0.3579
  501MOL0     C69064   3.722  10.877   9.510  0.5969  1.3004 -0.4708
  501MOL0     C69065   3.673  10.970   9.459 -0.4183 -0.4541 -0.0264
  501MOL0     C69066   3.594  10.313   9.091 -0.1754  0.0192 -0.2864
  501MOL0     C69067   3.589  10.202   9.008 -0.2293  0.0921  0.0598
  501MOL0     C69068   3.609  10.226   8.865  0.8484 -0.4388 -0.3221
  501MOL0     H69069   3.790   9.660   9.047  1.2243  2.1514 -2.1926
  501MOL0     H69070   3.804   9.459   8.918 -0.2977  0.3794 -0.7462
  501MOL0     H69071   3.586   9.235   8.919 -2.5787  3.3703 -1.0845
  501MOL0     H69072   3.740   9.231   8.828  0.5528 -1.6399 -0.4320
  501MOL0     H69073   3.468   9.123   8.732 -1.0868  1.9608 -2.1541
  501MOL0     H69074   3.612   9.139   8.625  3.1007 -1.6611  1.3120
  501MOL0     H69075   3.747   8.992   8.790  0.3497  0.4081  1.7096
  501MOL0     H69076   3.592   8.963   8.868  1.1045 -3.2780 -0.9801
  501MOL0     H69077   3.497   8.856   8.653 -1.2309 -3.1327  2.3811
  501MOL0     H69078   3.667   8.857   8.614 -0.8410 -1.4303 -0.5317
  501MOL0     H69079   3.498   8.714   8.805  0.2715 -0.2903 -1.3534
  501MOL0     H69080   3.665   8.748   8.879 -0.0858 -0.1460  1.1217
  501MOL0     H69081   3.617   8.586   8.625  1.5169  0.3908 -1.0389
  501MOL0     H69082   3.767   8.620   8.715  1.5745 -2.4575  1.8018
  501MOL0     H69083   3.539   8.453   8.820 -0.1264 -2.6830  0.6658
  501MOL0     H69084   3.710   8.472   8.892 -1.6021  0.3016 -0.2577
  501MOL0     H69085   3.630   8.352   8.624  2.0614 -2.1652 -1.5009
  501MOL0     H69086   3.797   8.387   8.690  0.3510 -1.4840  3.5562
  501MOL0     H69087   3.711   8.270   8.993  0.2923  2.0420 -0.4697
  501MOL0     H69088   3.677   7.890   9.025 -0.1613  0.6965  0.9978
  501MOL0     H69089   3.699   8.020   9.135  0.4956  0.1609  0.3388
  501MOL0     H69090   3.894   7.861   8.971  2.9351  0.0366  0.8077
  501MOL0     H69091   3.956   8.013   9.014  0.5191  0.1517 -0.3133
  501MOL0     H69092   3.861   7.935   9.269 -2.2407 -3.8247  1.2261
  501MOL0     H69093   3.848   7.777   9.182  0.2746 -0.2444 -1.5015
  501MOL0     H69094   4.101   7.841   9.116 -0.3756  1.7242  0.1846
  501MOL0     H69095   4.086   7.949   9.254 -1.9341 -0.3399  0.9320
  501MOL0     H69096   4.295   7.866   9.224 -0.8165 -1.8652 -1.6668
  501MOL0     H69097   4.626   7.865   9.311 -1.3090  2.9829  0.3210
  501MOL0     H69098   4.513   7.891   9.179  2.4470  1.6486 -0.4054
  501MOL0     H69099   4.582   7.726   9.208 -0.6586 -0.1929 -0.0056
  501MOL0     H69100   4.694   7.446   9.798 -0.4535 -3.7633  1.7452
  501MOL0     H69101   4.882   7.258   9.816 -0.3625 -1.4599 -0.7824
  501MOL0     H69102   5.173   7.164   9.490 -3.0071 -2.7405 -0.1520
  501MOL0     H69103   5.169   7.286   9.616  0.3294 -0.4121 -2.7522
  501MOL0     H69104   5.208   7.102   9.782  0.7283  2.2126 -0.2061
  501MOL0     H69105   5.195   6.985   9.658 -1.0514 -0.1960  0.2009
  501MOL0     H69106   5.417   7.201   9.678 -1.8411  0.4694  0.9358
  501MOL0     H69107   5.390   7.110   9.527 -3.5579  1.5494 -0.7221
  501MOL0     H69108   5.408   6.913   9.684 -1.1782  0.9465 -1.8246
  501MOL0     H69109   5.467   7.011   9.804 -1.7997 -0.7723 -0.0081
  501MOL0     H69110   5.587   6.980   9.530  0.5210  0.4156  0.5995
  501MOL0     H69111   5.647   7.105   9.637  2.4030 -1.2918  3.4857
  501MOL0     H69112   5.655   6.802   9.710 -1.0759  1.6546  0.0126
  501MOL0     H69113   5.730   6.937   9.802  1.4499 -1.9295  0.1539
  501MOL0     H69114   5.875   6.987   9.638 -0.5692 -0.2324  1.4018
  501MOL0     H69115   5.789   6.877   9.517  2.6423 -1.8503 -0.7209
  501MOL0     H69116   5.837   6.678   9.648  2.7731 -1.6367  3.3854
  501MOL0     H69117   5.957   6.760   9.739 -3.3016  0.4424  1.6752
  501MOL0     H69118   4.896   7.223   9.404  1.2929 -1.7191  1.8205
  501MOL0     H69119   4.718   7.400   9.370 -0.5712 -1.1305 -0.4913
  501MOL0     H69120   4.350   7.550   9.603 -0.8533  1.1986  0.4443
  501MOL0     H69121   4.124   7.606   9.505  0.4220  1.0524  0.9210
  501MOL0     H69122   3.398   9.539   8.776 -0.0239  3.0151 -2.2124
  501MOL0     H69123   3.398   9.743   8.919  0.0582  0.1645  0.0288
  501MOL0     H69124   3.564   9.974   9.257  0.6504 -2.1424 -1.5495
  501MOL0     H69125   3.575  10.186   9.398  2.3653  0.4808  0.0232
  501MOL0     H69126   3.465  10.395   9.462 -0.6421  0.7896  0.7333
  501MOL0     H69127   3.630  10.359   9.507 -0.2233  1.8831  3.7785
  501MOL0     H69128   3.585  10.567   9.625 -0.6627 -3.7765  0.4295
  501MOL0     H69129   3.516  10.635   9.482  1.1178  2.0548  0.8965
  501MOL0     H69130   3.789  10.538   9.465 -0.3739 -1.0567 -1.0409
  501MOL0     H69131   3.711  10.651   9.355  0.2392  0.9618 -0.0298
  501MOL0     H69132   3.889  10.751   9.517 -0.5554 -1.1955  0.5489
  501MOL0     H69133   3.786  10.716   9.650  2.3299 -1.2151 -0.0816
  501MOL0     H69134   3.638  11.053   9.401  0.5680 -0.8101 -1.1854
  501MOL0     H69135   3.612  10.410   9.047 -1.8635 -0.0428 -1.1821
  501MOL0     H69136   3.521  10.194   8.808  1.2340 -0.3620 -0.9720
  501MOL0     H69137   3.620  10.331   8.837  1.4267  0.2500  2.1785
  501MOL0     H69138   3.699  10.174   8.829  2.9878  2.9004 -0.1730
  502MOL0     O69139   1.458   6.330   7.078 -0.3722  0.0550 -0.0339
  502MOL0     C69140   1.341   6.284   7.086 -0.2820 -0.6259 -0.2371
  502MOL0     O69141   1.282   6.207   6.996  1.2020 -0.3678  0.5317
  502MOL0     C69142   1.347   6.174   6.879  0.3801 -0.3910 -0.0923
  502MOL0     C69143   1.264   6.165   6.759 -0.2475 -0.2075  0.5883
  502MOL0     C69144   1.329   6.132   6.634  0.2390 -0.1363 -0.4823
  502MOL0     C69145   1.466   6.107   6.628  0.4697  0.0109 -0.1893
  502MOL0     O69146   1.526   6.071   6.504 -0.1873 -0.2837 -0.6920
  502MOL0     C69147   1.481   5.975   6.415 -0.1294 -0.2867  0.5218
  502MOL0     C69148   1.577   5.972   6.291  0.4100  0.2875  0.1782
  502MOL0     C69149   1.540   6.089   6.205  0.2803 -0.2467  0.1849
  502MOL0     C69150   1.443   6.041   6.097  0.4330  0.2796 -0.0731
  502MOL0     C69151   1.445   6.134   5.974 -0.4435  0.8178 -0.3420
  502MOL0     C69152   1.398   6.263   6.001  0.9464  0.3939 -0.2463
  502MOL0     C69153   1.432   6.367   5.893  0.2062  0.1987 -0.4442
  502MOL0     C69154   1.348   6.486   5.899 -0.6781 -0.5985 -0.5935
  502MOL0     N69155   1.381   6.538   6.036  0.2164  1.0196 -0.0254
  502MOL0     C69156   1.299   6.511   6.142  0.9394 -0.0126 -0.0694
  502MOL0     C69157   1.336   6.611   6.230 -0.3275 -0.7947 -0.2976
  502MOL0     C69158   1.261   6.666   6.349  0.7552 -0.0781 -0.6416
  502MOL0     C69159   1.233   6.555   6.454  0.5067 -0.1155  0.2684
  502MOL0     C69160   1.189   6.616   6.585  0.6876 -0.0498  0.7749
  502MOL0     C69161   1.153   6.513   6.689 -0.5480 -0.4249 -0.6437
  502MOL0     O69162   1.045   6.431   6.657  0.5557 -0.2953  0.2651
  502MOL0     C69163   0.915   6.463   6.688  0.4718  0.2714 -0.3039
  502MOL0     C69164   0.866   6.586   6.738 -0.5579  0.7433 -0.3273
  502MOL0     C69165   0.732   6.602   6.768 -0.1396 -0.6118  0.1674
  502MOL0     C69166   0.691   6.748   6.788 -0.3435  0.1586 -1.7866
  502MOL0     C69167   0.645   6.491   6.755 -0.5544 -0.1869 -0.0325
  502MOL0     C69168   0.498   6.500   6.775 -0.0211 -0.0142  0.8082
  502MOL0     O69169   0.448   6.589   6.866 -0.4543  0.6744  0.3802
  502MOL0     C69170   0.312   6.597   6.874  0.2165 -1.2292  1.3038
  502MOL0     C69171   0.248   6.536   6.982  0.0720 -0.0796 -0.1319
  502MOL0     C69172   0.117   6.563   7.012  0.8478  0.5760 -0.0619
  502MOL0     C69173   0.034   6.644   6.928 -0.9069 -0.1368 -0.1998
  502MOL0     O69174  -0.087   6.686   6.971 -0.2939 -0.3667  0.6913
  502MOL0     C69175  -0.148   6.809   6.932  0.1151  0.0901  0.3631
  502MOL0     C69176  -0.221   6.884   7.042  0.1322  0.1988  0.1414
  502MOL0     C69177  -0.128   6.914   7.155  0.7716 -0.2905 -0.0352
  502MOL0     C69178  -0.187   6.978   7.274  0.2762 -0.0962 -0.4261
  502MOL0     C69179  -0.111   6.958   7.402  0.1905  0.4153  0.3220
  502MOL0     C69180  -0.159   6.831   7.464  0.6149 -0.3019  1.2544
  502MOL0     C69181  -0.110   6.837   7.609  0.1548 -0.0260 -0.0851
  502MOL0     C69182  -0.126   6.712   7.685 -0.6148 -0.4137 -0.1001
  502MOL0    Cl69183  -0.268   6.615   7.629 -0.0384 -0.6246 -0.2054
  502MOL0     C69184   0.099   6.693   6.812  0.6975  0.8767 -0.3195
  502MOL0     C69185   0.235   6.677   6.786 -0.1490 -0.1505 -0.0756
  502MOL0     O69186   0.434   6.430   6.701 -0.0825 -0.4162  0.3783
  502MOL0     C69187   0.688   6.373   6.714 -0.2421 -0.2044 -0.1670
  502MOL0     C69188   0.824   6.361   6.676 -0.0285 -0.1866  0.0474
  502MOL0     N69189   1.450   6.677   6.179  0.2584  0.2513  0.3184
  502MOL0     N69190   1.470   6.636   6.056 -0.9260  0.2011 -0.8677
  502MOL0     C69191   1.549   6.123   6.741 -0.6665  0.2028 -0.1984
  502MOL0     C69192   1.488   6.150   6.865  0.5602  0.4267  0.1899
  502MOL0     C69193   1.276   6.315   7.213  0.4783 -0.4253  0.1092
  502MOL0     C69194   1.208   6.200   7.268 -1.1479 -0.6190  0.5740
  502MOL0     C69195   1.138   6.203   7.382  0.4043 -0.3492 -0.4632
  502MOL0     C69196   1.135   6.328   7.458  0.7703 -0.9852 -0.1518
  502MOL0     O69197   1.060   6.347   7.567 -1.3699 -0.3978  0.2253
  502MOL0     C69198   0.941   6.419   7.551 -0.5025  0.1839  0.2088
  502MOL0     C69199   0.837   6.414   7.662  0.4949  0.0023 -0.6731
  502MOL0     C69200   0.774   6.279   7.658  0.7351 -0.1430  1.7883
  502MOL0     C69201   0.689   6.238   7.776 -0.5592 -0.6165 -0.2520
  502MOL0     C69202   0.770   6.244   7.900 -0.0943 -0.1488  0.0392
  502MOL0     C69203   0.834   6.246   7.999  0.2495 -1.3976  0.4613
  502MOL0     C69204   1.215   6.436   7.417  0.6102  0.7651 -0.1945
  502MOL0     C69205   1.285   6.431   7.294 -0.6700  0.2111  0.3779
  502MOL0     C69206   1.347   6.564   7.232 -0.0461  0.5214  0.4839
  502MOL0     H69207   1.157   6.181   6.764 -0.1551  0.1044  1.8773
  502MOL0     H69208   1.275   6.127   6.540 -1.4421 -1.1205  0.4857
  502MOL0     H69209   1.376   5.981   6.385 -0.5682 -2.8083  1.3530
  502MOL0     H69210   1.484   5.873   6.455 -1.5505 -1.3025 -1.6960
  502MOL0     H69211   1.681   5.993   6.319 -0.0006  3.2290 -0.2254
  502MOL0     H69212   1.576   5.882   6.229  0.1896  0.6731 -0.3864
  502MOL0     H69213   1.507   6.163   6.278  2.0390  2.2478 -1.3957
  502MOL0     H69214   1.632   6.125   6.157 -0.2776  0.2890 -0.5131
  502MOL0     H69215   1.461   5.935   6.076 -0.8863 -0.8802  3.7845
  502MOL0     H69216   1.350   6.043   6.154  1.1719  0.0949  1.1882
  502MOL0     H69217   1.382   6.087   5.898  0.3692 -2.4789  0.8626
  502MOL0     H69218   1.549   6.135   5.938  0.1259  0.9703  1.2359
  502MOL0     H69219   1.292   6.263   6.025  1.0028  2.7844  0.2167
  502MOL0     H69220   1.455   6.299   6.087  0.6017 -3.3191  1.7505
  502MOL0     H69221   1.413   6.312   5.800  1.5839 -0.2669 -0.4844
  502MOL0     H69222   1.538   6.393   5.891  0.5980 -1.3107 -0.6788
  502MOL0     H69223   1.380   6.553   5.819  1.5688  0.1270  0.8005
  502MOL0     H69224   1.242   6.461   5.888 -1.5124  2.7836 -1.2731
  502MOL0     H69225   1.214   6.444   6.147 -0.6416  1.9571  0.3287
  502MOL0     H69226   1.171   6.712   6.309 -0.0367 -1.5678 -0.6235
  502MOL0     H69227   1.324   6.744   6.393 -2.0778  2.3291 -0.5697
  502MOL0     H69228   1.159   6.498   6.397  1.9658 -0.4450 -1.4003
  502MOL0     H69229   1.319   6.489   6.472  2.6891  1.9286 -1.9424
  502MOL0     H69230   1.268   6.671   6.637  3.8019 -1.4138 -2.1082
  502MOL0     H69231   1.104   6.681   6.561  0.8970 -0.0652 -0.0444
  502MOL0     H69232   1.243   6.456   6.715 -0.2666  0.3998  0.2552
  502MOL0     H69233   1.122   6.561   6.782  1.6802  0.7197 -0.4137
  502MOL0     H69234   0.934   6.668   6.760  0.9937  0.6818 -4.0638
  502MOL0     H69235   0.612   6.777   6.719 -2.0426  0.6959  0.2640
  502MOL0     H69236   0.772   6.820   6.775  0.3308 -0.2146  0.0070
  502MOL0     H69237   0.654   6.753   6.891  3.3587  0.6403 -0.3391
  502MOL0     H69238   0.305   6.466   7.041 -0.2379 -0.3049 -0.0933
  502MOL0     H69239   0.078   6.532   7.108  0.9237 -1.6539 -0.7018
  502MOL0     H69240  -0.075   6.880   6.894 -1.1567  0.5629 -1.2893
  502MOL0     H69241  -0.224   6.784   6.857  0.5930 -1.6288  0.4067
  502MOL0     H69242  -0.243   6.978   6.989 -1.6681 -1.2424 -1.8377
  502MOL0     H69243  -0.315   6.839   7.073 -0.9945  1.1257 -1.7514
  502MOL0     H69244  -0.048   6.977   7.117  1.2712 -0.2688  1.0180
  502MOL0     H69245  -0.079   6.820   7.184 -2.6689 -1.8657  1.3293
  502MOL0     H69246  -0.290   6.941   7.283 -0.0707  0.8396 -0.4599
  502MOL0     H69247  -0.198   7.085   7.256 -1.8182 -0.4023 -1.2879
  502MOL0     H69248  -0.004   6.942   7.387  0.3721  2.3446 -0.8402
  502MOL0     H69249  -0.121   7.045   7.467 -0.5647 -0.4326  1.3727
  502MOL0     H69250  -0.105   6.756   7.405  3.5431  0.4151  2.8346
  502MOL0     H69251  -0.267   6.816   7.452  0.8486 -0.9203 -0.3017
  502MOL0     H69252  -0.160   6.917   7.665  1.1533  0.9439 -0.5376
  502MOL0     H69253  -0.003   6.860   7.608  0.3231 -0.7662  0.5211
  502MOL0     H69254  -0.136   6.739   7.791 -3.2180  1.7528 -0.8070
  502MOL0     H69255  -0.041   6.643   7.677 -0.9652 -0.9935  0.8531
  502MOL0     H69256   0.030   6.759   6.761 -1.4291  1.0788  2.5908
  502MOL0     H69257   0.284   6.728   6.704  0.2268  3.4583  2.1622
  502MOL0     H69258   0.624   6.286   6.706  2.9127 -3.2339  3.4878
  502MOL0     H69259   0.854   6.263   6.638 -3.6679 -1.2241 -0.5372
  502MOL0     H69260   1.655   6.101   6.728 -1.5728 -2.9224 -4.1994
  502MOL0     H69261   1.552   6.144   6.953  0.8919 -2.2470 -0.1469
  502MOL0     H69262   1.197   6.110   7.207  0.3029 -0.4892  0.0700
  502MOL0     H69263   1.086   6.112   7.408  2.1840 -1.3387 -0.2140
  502MOL0     H69264   0.970   6.521   7.528 -0.4836  0.4951  1.5369
  502MOL0     H69265   0.893   6.379   7.461  2.1939 -2.4644 -0.2070
  502MOL0     H69266   0.757   6.489   7.662 -0.4621 -0.9663 -1.9778
  502MOL0     H69267   0.891   6.427   7.756 -1.9023  1.5450  0.5952
  502MOL0     H69268   0.711   6.272   7.568  1.6471 -1.3124  1.2199
  502MOL0     H69269   0.848   6.205   7.627  0.2276  0.6878 -1.9293
  502MOL0     H69270   0.661   6.134   7.757  1.1967 -1.2209  0.2542
  502MOL0     H69271   0.592   6.288   7.775 -2.4425 -3.8966  1.0034
  502MOL0     H69272   0.887   6.264   8.090  2.8424  2.6636 -1.5792
  502MOL0     H69273   1.236   6.522   7.482  1.1079 -0.3868  1.2294
  502MOL0     H69274   1.356   6.546   7.125 -2.0111  0.7516  0.2443
  502MOL0     H69275   1.280   6.650   7.233  0.5491  1.0800 -1.6983
  502MOL0     H69276   1.449   6.579   7.269  0.7126  1.2080 -1.7595
  503MOL0     O69277   0.813   5.698   7.880  0.6775  0.5474 -0.0912
  503MOL0     C69278   0.919   5.635   7.847  0.0616  0.1690  0.0976
  503MOL0     O69279   0.952   5.508   7.895  0.3921  0.7287  0.0555
  503MOL0     C69280   0.849   5.416   7.912 -0.1573 -0.4653  0.2835
  503MOL0     C69281   0.715   5.440   7.878 -0.0154 -0.0630  0.7088
  503MOL0     C69282   0.631   5.328   7.885  0.0978  0.2298  0.3212
  503MOL0     C69283   0.675   5.198   7.933 -0.6976 -0.5324  0.3585
  503MOL0     O69284   0.599   5.087   7.926  0.2987  0.4783  0.0775
  503MOL0     C69285   0.667   4.968   7.876 -0.3021  0.0040 -0.3474
  503MOL0     C69286   0.566   4.863   7.831 -0.9340 -0.0481 -0.5888
  503MOL0     C69287   0.441   4.856   7.936 -0.7723 -1.1304 -0.7300
  503MOL0     C69288   0.481   4.757   8.046  0.3968 -0.4606  0.3858
  503MOL0     C69289   0.367   4.755   8.156 -0.3242 -0.4588 -0.1269
  503MOL0     C69290   0.231   4.723   8.096  0.6455  0.0982 -0.2917
  503MOL0     C69291   0.137   4.839   8.073  0.3749 -0.3170  0.6969
  503MOL0     C69292  -0.001   4.792   8.019  0.0357 -1.0187  0.3545
  503MOL0     N69293   0.010   4.689   7.914 -0.1644  0.1294 -0.6065
  503MOL0     C69294   0.089   4.695   7.801 -0.9262  0.1336  0.5315
  503MOL0     C69295   0.066   4.585   7.725  0.6807 -0.2948  0.1281
  503MOL0     C69296   0.146   4.548   7.607  0.3795 -0.6985 -0.8265
  503MOL0     C69297   0.287   4.507   7.642 -0.6482  0.3061 -0.5320
  503MOL0     C69298   0.375   4.458   7.529  0.6374 -0.6645 -0.2976
  503MOL0     C69299   0.526   4.495   7.543  0.7262  0.2743  0.1554
  503MOL0     O69300   0.547   4.632   7.595  0.7486  0.6324  0.4619
  503MOL0     C69301   0.625   4.700   7.509 -0.3969  0.6102 -0.9079
  503MOL0     C69302   0.588   4.764   7.393  0.3512  1.3904  0.0484
  503MOL0     C69303   0.680   4.819   7.304  0.6758  0.3662  0.6147
  503MOL0     C69304   0.620   4.886   7.184  0.1566 -0.1877 -1.1150
  503MOL0     C69305   0.816   4.805   7.327  0.0768 -0.0968 -0.1485
  503MOL0     C69306   0.914   4.861   7.227 -0.0398 -0.9478  0.3722
  503MOL0     O69307   1.039   4.872   7.275 -0.8107 -0.2550 -0.1613
  503MOL0     C69308   1.154   4.875   7.192  0.1581 -0.7118 -0.1560
  503MOL0     C69309   1.269   4.935   7.250 -0.4028 -0.1431 -0.5407
  503MOL0     C69310   1.395   4.934   7.188  0.1268  0.0420 -0.3847
  503MOL0     C69311   1.407   4.871   7.063  0.0097  0.0266  0.1697
  503MOL0     O69312   1.523   4.864   6.995  0.0229 -0.0262  0.2529
  503MOL0     C69313   1.533   4.834   6.853  0.2080  0.2795  0.2449
  503MOL0     C69314   1.669   4.859   6.784  0.3010  0.7423  0.3813
  503MOL0     C69315   1.788   4.810   6.863  0.1301  0.2271 -1.0110
  503MOL0     C69316   1.780   4.659   6.896 -0.8829  0.4190  0.1719
  503MOL0     C69317   1.907   4.595   6.952 -0.1521 -0.0689  0.8542
  503MOL0     C69318   1.885   4.449   6.986  0.1500 -0.6978 -0.2780
  503MOL0     C69319   2.000   4.405   7.077 -0.4147 -0.4494  1.0514
  503MOL0     C69320   2.008   4.248   7.098 -0.4060 -0.6746  0.0071
  503MOL0    Cl69321   1.866   4.194   7.182 -0.5369 -0.1967 -0.3910
  503MOL0     C69322   1.293   4.805   7.003 -0.7209 -0.7328  0.1470
  503MOL0     C69323   1.174   4.804   7.072 -0.1304  0.5425  0.3592
  503MOL0     O69324   0.886   4.860   7.112 -0.2777 -0.0289 -0.0637
  503MOL0     C69325   0.855   4.733   7.442 -0.1021  0.2180 -0.5332
  503MOL0     C69326   0.762   4.688   7.534 -0.4004 -0.2320  0.6397
  503MOL0     N69327  -0.040   4.524   7.793 -0.4607 -0.6978  1.0355
  503MOL0     N69328  -0.074   4.576   7.905 -0.0457 -0.1150 -0.1405
  503MOL0     C69329   0.794   5.194   7.998 -0.4973  0.2866 -0.5169
  503MOL0     C69330   0.886   5.303   7.990  1.1977  1.2315  0.2380
  503MOL0     C69331   1.018   5.702   7.763 -0.4567 -0.3569 -0.7556
  503MOL0     C69332   1.128   5.623   7.720 -0.0753 -1.0603 -0.2203
  503MOL0     C69333   1.241   5.676   7.655 -0.7244 -0.7989  0.2144
  503MOL0     C69334   1.246   5.810   7.627  0.0741  0.8357 -1.3006
  503MOL0     O69335   1.358   5.859   7.579 -0.5509  0.4932  0.0608
  503MOL0     C69336   1.388   6.006   7.587 -0.3929  0.5006 -0.4982
  503MOL0     C69337   1.531   6.045   7.537  0.3513  0.0830  0.9004
  503MOL0     C69338   1.541   6.058   7.381 -0.0378  0.0902 -0.6749
  503MOL0     C69339   1.675   6.100   7.342 -1.0968  0.5569  0.3749
  503MOL0     C69340   1.747   5.968   7.340 -0.4325 -0.0127  0.8281
  503MOL0     C69341   1.829   5.884   7.320  0.5242  0.4632 -0.0279
  503MOL0     C69342   1.138   5.889   7.677 -0.6554  0.1561 -0.4198
  503MOL0     C69343   1.022   5.845   7.735 -0.0256 -0.3110 -0.0446
  503MOL0     C69344   0.923   5.953   7.788  0.2559  0.3633  0.4374
  503MOL0     H69345   0.660   5.525   7.839  1.8407  1.0275  0.3493
  503MOL0     H69346   0.532   5.341   7.842 -0.0530 -2.4419 -0.2904
  503MOL0     H69347   0.723   4.914   7.953 -2.0784  0.3339  1.2343
  503MOL0     H69348   0.739   4.999   7.799 -2.4829  1.6913 -1.8437
  503MOL0     H69349   0.545   4.906   7.732 -0.2658  0.0187 -0.7084
  503MOL0     H69350   0.610   4.766   7.805  1.5067 -0.0648  2.9211
  503MOL0     H69351   0.406   4.953   7.971  0.7070 -1.0651  0.7110
  503MOL0     H69352   0.364   4.815   7.871 -0.3356 -2.2373 -0.5867
  503MOL0     H69353   0.500   4.657   8.006 -1.9958 -0.7936 -0.0450
  503MOL0     H69354   0.569   4.799   8.096  0.6833 -0.0194 -0.4789
  503MOL0     H69355   0.368   4.851   8.208  1.0705 -0.7944  0.5439
  503MOL0     H69356   0.400   4.678   8.227  0.8358 -0.9168 -1.1242
  503MOL0     H69357   0.254   4.673   8.002  0.6021  0.9104 -0.7459
  503MOL0     H69358   0.174   4.658   8.164 -1.6636  2.2411 -0.0084
  503MOL0     H69359   0.185   4.893   7.990 -0.1509 -1.2280 -0.2229
  503MOL0     H69360   0.122   4.895   8.166 -1.5300 -4.1179  2.9068
  503MOL0     H69361  -0.063   4.765   8.105  1.3108  2.1162  2.4279
  503MOL0     H69362  -0.053   4.879   7.978  2.8819  2.3017  3.1632
  503MOL0     H69363   0.170   4.758   7.764 -3.3947  2.5583 -1.2000
  503MOL0     H69364   0.155   4.639   7.546 -1.0980  0.9321  1.2097
  503MOL0     H69365   0.096   4.466   7.556 -0.3447 -1.6437  1.2774
  503MOL0     H69366   0.339   4.584   7.702  3.9564 -2.1053 -0.9484
  503MOL0     H69367   0.268   4.432   7.719  0.0841  0.6131 -0.0293
  503MOL0     H69368   0.358   4.351   7.520 -1.2553 -0.4142 -0.0720
  503MOL0     H69369   0.348   4.514   7.439  0.7559 -0.8870 -0.4723
  503MOL0     H69370   0.564   4.422   7.614 -2.9920 -3.8612 -1.6341
  503MOL0     H69371   0.572   4.478   7.445 -0.6900  1.8288 -0.8476
  503MOL0     H69372   0.483   4.763   7.368  0.7665 -0.8155 -1.8982
  503MOL0     H69373   0.674   4.980   7.169  1.8405 -0.5831  1.7458
  503MOL0     H69374   0.513   4.905   7.192  0.5740  2.1544 -0.5094
  503MOL0     H69375   0.630   4.818   7.099  2.4290 -0.9260 -0.3334
  503MOL0     H69376   1.249   4.993   7.340  0.6876 -1.0079  0.2798
  503MOL0     H69377   1.485   4.980   7.229  3.3890 -3.7720 -2.6108
  503MOL0     H69378   1.512   4.727   6.844 -1.9511  0.3487  3.0730
  503MOL0     H69379   1.448   4.889   6.811 -1.1236 -1.1856  0.9105
  503MOL0     H69380   1.679   4.814   6.685  1.0350  0.4728  0.5725
  503MOL0     H69381   1.679   4.967   6.765  1.0225  0.4571 -1.0361
  503MOL0     H69382   1.789   4.863   6.958  1.8545 -0.3757 -0.6677
  503MOL0     H69383   1.879   4.846   6.814  2.0301 -0.5036  1.7723
  503MOL0     H69384   1.753   4.603   6.807  0.1349 -3.1714  1.9209
  503MOL0     H69385   1.693   4.646   6.961 -2.7858  1.7922 -1.9595
  503MOL0     H69386   1.997   4.615   6.893 -1.6268 -2.1648 -2.3400
  503MOL0     H69387   1.922   4.651   7.045 -3.1504  3.9405 -0.7948
  503MOL0     H69388   1.881   4.385   6.897  2.1990 -1.5058  0.1492
  503MOL0     H69389   1.791   4.439   7.041  0.1256  0.3393 -0.1192
  503MOL0     H69390   1.985   4.460   7.170  0.6319  1.6583  0.0508
  503MOL0     H69391   2.088   4.440   7.022 -0.0154  0.2902  2.1338
  503MOL0     H69392   2.101   4.224   7.150  1.7040 -1.8883 -3.9208
  503MOL0     H69393   2.020   4.196   7.003  0.9644 -0.4117  0.0164
  503MOL0     H69394   1.286   4.768   6.902 -3.0307  2.1187 -0.8768
  503MOL0     H69395   1.090   4.747   7.033 -2.1884  2.8764  1.1245
  503MOL0     H69396   0.961   4.723   7.461 -0.0465  0.0476 -0.9186
  503MOL0     H69397   0.789   4.648   7.631  1.1394  2.0661  1.2385
  503MOL0     H69398   0.831   5.098   8.035  0.2205  0.9167  0.4458
  503MOL0     H69399   0.984   5.290   8.036 -0.2875 -1.2982  2.9688
  503MOL0     H69400   1.140   5.517   7.739  1.5235 -0.7642  0.6068
  503MOL0     H69401   1.327   5.615   7.628  1.5017  1.1350  2.4040
  503MOL0     H69402   1.311   6.064   7.536 -2.0682 -1.1188  0.0309
  503MOL0     H69403   1.376   6.034   7.692 -3.1096 -1.4609 -0.1575
  503MOL0     H69404   1.598   5.970   7.581  2.0361  1.7231  1.2741
  503MOL0     H69405   1.566   6.138   7.584  1.7795 -0.3059  0.6510
  503MOL0     H69406   1.515   5.959   7.343  1.2117  0.1255 -1.6923
  503MOL0     H69407   1.462   6.127   7.348 -0.8825  0.0635  1.1769
  503MOL0     H69408   1.711   6.189   7.395 -1.9549  0.9478  0.3225
  503MOL0     H69409   1.685   6.139   7.240  2.2263 -2.1845 -0.5552
  503MOL0     H69410   1.893   5.798   7.310  0.2176  0.2912 -0.5541
  503MOL0     H69411   1.144   5.997   7.666 -0.8426  0.0857 -1.3497
  503MOL0     H69412   0.977   6.047   7.771  1.5422 -0.6828 -1.6831
  503MOL0     H69413   0.831   5.957   7.729  0.2868  0.3810  0.3904
  503MOL0     H69414   0.905   5.947   7.896 -2.1618  0.3814  0.0875
  504MOL0     O69415   6.067   5.640   1.639  0.2344  0.0267 -0.1957
  504MOL0     C69416   6.184   5.672   1.640 -0.2899  0.9327 -0.0815
  504MOL0     O69417   6.272   5.659   1.737  0.9357 -0.5345  0.6321
  504MOL0     C69418   6.234   5.590   1.856  0.2015 -0.0885  0.5613
  504MOL0     C69419   6.181   5.653   1.968  0.8167 -0.2752 -0.2056
  504MOL0     C69420   6.152   5.579   2.086  0.8268  0.6883 -0.6016
  504MOL0     C69421   6.188   5.444   2.100  0.6453 -0.4649  0.2442
  504MOL0     O69422   6.177   5.390   2.221 -0.0502  0.2013  0.0154
  504MOL0     C69423   6.175   5.246   2.218  0.4953 -0.0336 -0.2971
  504MOL0     C69424   6.178   5.159   2.350 -0.1640 -0.3009  0.3278
  504MOL0     C69425   6.225   5.013   2.334  0.3552 -0.3998 -0.1785
  504MOL0     C69426   6.384   5.003   2.343  0.5417  0.5861  0.4808
  504MOL0     C69427   6.427   4.862   2.365  0.3862 -0.3114 -0.9552
  504MOL0     C69428   6.399   4.792   2.493  0.4451 -0.5573  0.0547
  504MOL0     C69429   6.476   4.657   2.501  0.1830 -0.6669  0.3225
  504MOL0     C69430   6.396   4.536   2.450  0.2321 -0.1323  0.7994
  504MOL0     N69431   6.462   4.408   2.464 -0.6640 -1.0651 -0.2524
  504MOL0     C69432   6.592   4.372   2.443 -0.3417 -0.0901 -0.3350
  504MOL0     C69433   6.593   4.236   2.474 -0.0394 -0.1841 -0.3132
  504MOL0     C69434   6.718   4.150   2.457 -0.7331 -0.6000 -0.6037
  504MOL0     C69435   6.758   4.082   2.589 -0.4163  0.6405 -0.1455
  504MOL0     C69436   6.677   3.961   2.645 -0.3297 -0.3629 -1.0722
  504MOL0     C69437   6.714   3.920   2.785 -0.7160 -0.3818  0.4013
  504MOL0     O69438   6.642   3.798   2.817 -0.1418 -0.5920  0.2266
  504MOL0     C69439   6.716   3.704   2.885  0.1992 -0.4417 -0.2903
  504MOL0     C69440   6.734   3.583   2.819  0.1140 -0.1317 -0.6368
  504MOL0     C69441   6.813   3.483   2.875  0.4638 -0.9166  0.2816
  504MOL0     C69442   6.791   3.347   2.815 -0.0482 -0.1154  0.3297
  504MOL0     C69443   6.885   3.502   2.992  1.2023 -0.0755  0.5537
  504MOL0     C69444   6.979   3.410   3.057  0.7009  1.0450  0.4783
  504MOL0     O69445   7.054   3.455   3.163 -0.0772 -0.2121 -0.6570
  504MOL0     C69446   7.110   3.374   3.251 -0.6734 -1.1301  0.1286
  504MOL0     C69447   7.210   3.293   3.220 -1.0320  0.1005  0.5054
  504MOL0     C69448   7.268   3.210   3.306  0.3473 -0.0735 -0.4822
  504MOL0     C69449   7.235   3.210   3.443  0.1636 -1.1137 -0.1284
  504MOL0     O69450   7.297   3.143   3.542 -0.1192  0.3175  0.4503
  504MOL0     C69451   7.380   3.031   3.509  0.4447  0.1894 -0.3787
  504MOL0     C69452   7.451   2.990   3.638  0.5483  0.6172  0.6520
  504MOL0     C69453   7.527   2.855   3.605 -0.6204 -1.3558  0.2855
  504MOL0     C69454   7.443   2.736   3.553  0.4659 -0.6269  0.7546
  504MOL0     C69455   7.510   2.598   3.572 -0.1631 -0.6260  0.9137
  504MOL0     C69456   7.639   2.573   3.492 -0.0904 -0.8086 -0.0215
  504MOL0     C69457   7.614   2.564   3.337  0.1205  0.1708  0.3413
  504MOL0     C69458   7.681   2.682   3.263  0.4702  0.1663 -0.1618
  504MOL0    Cl69459   7.555   2.786   3.192  0.1887  0.2198  0.6522
  504MOL0     C69460   7.122   3.288   3.477  1.1301 -0.0039 -0.1528
  504MOL0     C69461   7.061   3.376   3.380  0.1592  0.8874 -0.9319
  504MOL0     O69462   6.972   3.284   3.026 -0.3136 -0.5933 -0.0177
  504MOL0     C69463   6.873   3.627   3.054  0.3484 -0.6797 -0.1996
  504MOL0     C69464   6.787   3.726   3.005  0.6552 -0.7135  0.1382
  504MOL0     N69465   6.466   4.188   2.508  0.5856 -0.3513  0.6939
  504MOL0     N69466   6.391   4.296   2.501 -0.4594  0.0305 -0.0814
  504MOL0     C69467   6.226   5.379   1.984  0.7809 -0.3649  0.2964
  504MOL0     C69468   6.245   5.455   1.871 -1.0126  0.6093  0.4450
  504MOL0     C69469   6.231   5.707   1.502 -0.9001  0.2747 -0.2175
  504MOL0     C69470   6.290   5.615   1.413 -0.0928  0.2298  0.4205
  504MOL0     C69471   6.328   5.655   1.284  0.3509 -0.4711 -0.1610
  504MOL0     C69472   6.323   5.783   1.241  0.8535 -0.2188 -0.7927
  504MOL0     O69473   6.385   5.813   1.128 -0.8431  0.1939  0.5011
  504MOL0     C69474   6.337   5.920   1.049  0.5561  0.3827 -0.3472
  504MOL0     C69475   6.352   5.888   0.904 -1.0209  0.9379  0.7856
  504MOL0     C69476   6.493   5.819   0.876  0.1990 -0.1282 -0.5286
  504MOL0     C69477   6.538   5.797   0.724 -0.6317  0.8662 -0.7454
  504MOL0     C69478   6.678   5.769   0.740  0.1669  0.0420 -0.0675
  504MOL0     C69479   6.796   5.754   0.759 -0.2771 -0.7750  0.7553
  504MOL0     C69480   6.257   5.885   1.333  0.0371  0.3489 -0.1209
  504MOL0     C69481   6.206   5.843   1.456  0.1180 -0.0261 -0.0019
  504MOL0     C69482   6.131   5.953   1.537 -0.3186  0.4670 -0.3904
  504MOL0     H69483   6.162   5.760   1.961  2.4029  0.1602  1.3919
  504MOL0     H69484   6.120   5.630   2.176 -0.4625  0.3229 -0.8363
  504MOL0     H69485   6.271   5.216   2.174  1.4950 -0.5678  2.1070
  504MOL0     H69486   6.093   5.211   2.154 -0.6709  1.1544  0.5098
  504MOL0     H69487   6.242   5.215   2.419  0.5249  0.7147 -1.0802
  504MOL0     H69488   6.079   5.159   2.394 -1.5439 -0.9141 -2.5172
  504MOL0     H69489   6.180   4.947   2.408  0.2843  0.5126  0.6020
  504MOL0     H69490   6.191   4.975   2.237 -2.2788  0.1342  0.4731
  504MOL0     H69491   6.427   5.036   2.248  2.3254 -2.2405  0.1715
  504MOL0     H69492   6.429   5.055   2.428 -1.2759  0.2491  1.7196
  504MOL0     H69493   6.536   4.870   2.362  0.4302  1.9699  1.9980
  504MOL0     H69494   6.380   4.795   2.293 -3.5826 -0.4450  1.4341
  504MOL0     H69495   6.431   4.858   2.575  1.2352 -4.2595  2.9938
  504MOL0     H69496   6.293   4.778   2.513  0.8922 -0.9265  2.6059
  504MOL0     H69497   6.515   4.645   2.603 -3.1527  3.5552  2.4204
  504MOL0     H69498   6.570   4.662   2.445 -0.7426 -1.2002 -1.3274
  504MOL0     H69499   6.307   4.533   2.514 -1.7247 -0.0404 -1.7816
  504MOL0     H69500   6.374   4.551   2.344  1.5703 -0.8918  0.3921
  504MOL0     H69501   6.670   4.443   2.416 -0.7979  0.4719 -0.1862
  504MOL0     H69502   6.797   4.212   2.411 -1.6759  0.6880 -0.5442
  504MOL0     H69503   6.696   4.073   2.382 -0.4757 -2.5820  1.2831
  504MOL0     H69504   6.862   4.050   2.575 -0.0344  0.3343  2.6484
  504MOL0     H69505   6.766   4.146   2.678 -4.0021 -0.2258  0.9329
  504MOL0     H69506   6.575   3.995   2.666 -0.0463 -0.4241  0.5718
  504MOL0     H69507   6.676   3.872   2.582 -0.3598 -1.2489  0.1290
  504MOL0     H69508   6.820   3.898   2.770 -0.9583 -1.5798  0.3463
  504MOL0     H69509   6.705   3.994   2.865  0.6393 -0.5052  0.6921
  504MOL0     H69510   6.676   3.583   2.728 -1.3138  0.9123  0.2234
  504MOL0     H69511   6.880   3.283   2.807 -1.3831 -1.8541 -4.0968
  504MOL0     H69512   6.770   3.361   2.708 -3.1226 -0.8709  0.7372
  504MOL0     H69513   6.707   3.298   2.866 -0.4074 -0.6916 -0.7615
  504MOL0     H69514   7.245   3.298   3.117 -1.7629  0.6138  0.2784
  504MOL0     H69515   7.344   3.142   3.269 -0.5497  0.4059 -3.4364
  504MOL0     H69516   7.309   2.955   3.476 -1.7974  2.0906 -0.2539
  504MOL0     H69517   7.459   3.044   3.434  1.1402  1.8895  0.5855
  504MOL0     H69518   7.520   3.073   3.654  0.8653  1.3679 -3.4571
  504MOL0     H69519   7.377   2.986   3.719 -0.2594 -1.5720 -0.1190
  504MOL0     H69520   7.583   2.824   3.693  3.2806 -1.9645 -2.1663
  504MOL0     H69521   7.611   2.862   3.535 -0.9084  0.2755  0.0535
  504MOL0     H69522   7.420   2.745   3.446  2.4899  0.3114  0.3390
  504MOL0     H69523   7.349   2.731   3.608  0.5056 -0.7692  0.8074
  504MOL0     H69524   7.559   2.583   3.669  3.8076  1.6902 -0.4983
  504MOL0     H69525   7.433   2.523   3.549  1.1233 -1.6049 -0.3666
  504MOL0     H69526   7.676   2.473   3.520  0.8169 -0.2717  0.7775
  504MOL0     H69527   7.717   2.640   3.528  1.4135 -3.0796  1.2674
  504MOL0     H69528   7.506   2.553   3.321  0.6167 -0.5538 -3.1932
  504MOL0     H69529   7.663   2.473   3.301  0.5741  0.5956 -0.1296
  504MOL0     H69530   7.751   2.650   3.186 -1.8139  0.6166 -2.5682
  504MOL0     H69531   7.724   2.748   3.338  1.4329 -1.4075  0.7293
  504MOL0     H69532   7.085   3.274   3.579  1.7384  0.6425  0.1679
  504MOL0     H69533   6.970   3.428   3.406 -0.9944 -1.9127  1.1773
  504MOL0     H69534   6.922   3.650   3.149 -1.7277  2.0571  0.3378
  504MOL0     H69535   6.769   3.821   3.054 -2.1716 -0.4868 -1.1425
  504MOL0     H69536   6.234   5.271   1.982  2.8313 -0.2693  0.8167
  504MOL0     H69537   6.284   5.407   1.782  1.6744  1.3177  1.1331
  504MOL0     H69538   6.304   5.510   1.438 -2.2588  0.8206  5.0343
  504MOL0     H69539   6.384   5.587   1.220 -1.9013 -2.7207  0.1275
  504MOL0     H69540   6.235   5.947   1.081  0.6285  0.9070 -0.5541
  504MOL0     H69541   6.396   6.009   1.070  3.0645 -1.1529 -0.5236
  504MOL0     H69542   6.344   5.983   0.850  0.7279  0.9869  0.5484
  504MOL0     H69543   6.273   5.822   0.868  0.6623 -1.0021  0.4347
  504MOL0     H69544   6.568   5.881   0.927 -0.1239  3.6110 -4.0887
  504MOL0     H69545   6.508   5.725   0.930 -3.1010  1.0624  2.9240
  504MOL0     H69546   6.533   5.895   0.674 -1.0160  1.7130  0.8613
  504MOL0     H69547   6.475   5.718   0.683 -3.3687  2.4014  0.2183
  504MOL0     H69548   6.901   5.744   0.773 -0.0244 -1.7569 -1.4775
  504MOL0     H69549   6.252   5.988   1.301 -0.1527  0.2790 -0.3165
  504MOL0     H69550   6.135   5.937   1.645 -0.9429 -1.5152 -0.6180
  504MOL0     H69551   6.168   6.053   1.513  0.2201 -0.1744 -2.4025
  504MOL0     H69552   6.025   5.940   1.512 -0.5472 -1.0171  1.1665
  505MOL0     O69553   9.017   7.423  10.729 -0.5714  0.3631 -0.2728
  505MOL0     C69554   8.986   7.495  10.636  0.1505 -0.1620 -0.4401
  505MOL0     O69555   8.858   7.526  10.594  0.3295 -0.8198  0.2535
  505MOL0     C69556   8.761   7.481  10.678  0.4042  0.2506 -0.0762
  505MOL0     C69557   8.743   7.524  10.805 -0.2209 -0.2203  0.0663
  505MOL0     C69558   8.636   7.477  10.878 -0.7016  0.0783  0.0281
  505MOL0     C69559   8.548   7.388  10.827  0.6087 -0.3602 -0.3597
  505MOL0     O69560   8.449   7.332  10.903  0.2015 -0.4014 -0.3197
  505MOL0     C69561   8.452   7.332  11.050  0.4031 -0.9176 -0.2057
  505MOL0     C69562   8.562   7.246  11.109  0.8409  0.3299 -0.5314
  505MOL0     C69563   8.545   7.226  11.258  0.0520 -0.5998  0.6700
  505MOL0     C69564   8.584   7.348  11.348 -0.8165 -0.1041  0.3951
  505MOL0     C69565   8.563   7.324  11.502  0.9521  0.1615  0.5671
  505MOL0     C69566   8.586   7.447  11.574 -0.7771 -0.2631 -0.3333
  505MOL0     C69567   8.556   7.425  11.724 -0.1086 -0.3343 -0.2761
  505MOL0     C69568   8.582   7.534  11.824  0.8520 -0.9712  0.0887
  505MOL0     N69569   8.533   7.671  11.795  0.5130 -1.4363  0.5692
  505MOL0     C69570   8.404   7.717  11.789 -0.3711  0.1595 -0.4505
  505MOL0     C69571   8.406   7.832  11.736  0.0938 -0.5696  0.1914
  505MOL0     C69572   8.293   7.937  11.726  0.0336 -0.3694 -0.2910
  505MOL0     C69573   8.323   8.067  11.796  0.0149 -0.8684 -0.5096
  505MOL0     C69574   8.322   8.049  11.958 -0.3813 -0.8719 -0.4366
  505MOL0     C69575   8.184   8.016  12.012 -0.1900 -0.5607  0.0246
  505MOL0     O69576   8.195   8.065  12.147  0.5381  0.2943 -0.8950
  505MOL0     C69577   8.244   7.976  12.243 -0.0659  0.1346 -0.3499
  505MOL0     C69578   8.227   8.008  12.374  0.0232 -0.3353 -0.1867
  505MOL0     C69579   8.257   7.917  12.480 -0.0499 -0.4931  0.7026
  505MOL0     C69580   8.220   7.959  12.618  0.3290  0.4240  0.0579
  505MOL0     C69581   8.309   7.787  12.450 -0.7499 -0.4960  0.2866
  505MOL0     C69582   8.348   7.690  12.549  0.2944 -0.7270 -0.3677
  505MOL0     O69583   8.280   7.684  12.674  0.4414 -0.8669  0.4931
  505MOL0     C69584   8.312   7.577  12.751 -0.2962  0.5204  0.2627
  505MOL0     C69585   8.328   7.607  12.888 -0.6681  0.6043 -0.9507
  505MOL0     C69586   8.343   7.500  12.978 -0.4462  0.3470 -0.8352
  505MOL0     C69587   8.340   7.366  12.936  0.2102  0.8235 -0.6831
  505MOL0     O69588   8.340   7.258  13.030 -0.2217 -0.4472  0.5871
  505MOL0     C69589   8.357   7.281  13.163 -0.9296  0.3029 -0.2246
  505MOL0     C69590   8.310   7.153  13.241 -0.7094  0.5198 -0.4925
  505MOL0     C69591   8.406   7.030  13.216  0.1001 -0.1373  0.4472
  505MOL0     C69592   8.380   6.921  13.327 -0.1342 -0.6959  1.0251
  505MOL0     C69593   8.431   6.786  13.272  0.5174  0.3053 -0.7200
  505MOL0     C69594   8.470   6.697  13.390 -0.3808 -0.5152  0.0961
  505MOL0     C69595   8.478   6.557  13.339 -0.6429 -0.3718  0.0964
  505MOL0     C69596   8.504   6.456  13.451  0.0750  0.5343 -0.6663
  505MOL0    Cl69597   8.557   6.306  13.373  0.2604 -0.6190  0.1287
  505MOL0     C69598   8.323   7.341  12.802  0.1078  0.1035  0.5713
  505MOL0     C69599   8.314   7.442  12.704 -0.6920  1.1954 -1.1367
  505MOL0     O69600   8.454   7.624  12.522 -0.3331 -0.1816  0.1656
  505MOL0     C69601   8.339   7.767  12.314 -0.4635 -0.1949 -0.8172
  505MOL0     C69602   8.315   7.855  12.215  0.2671 -0.5260  0.0967
  505MOL0     N69603   8.534   7.864  11.706 -0.3819 -0.3199  0.4773
  505MOL0     N69604   8.607   7.774  11.760  0.5650  0.3209  0.6349
  505MOL0     C69605   8.556   7.345  10.691  0.5158 -0.5203  0.9624
  505MOL0     C69606   8.669   7.392  10.617  0.0737 -1.4296 -0.6554
  505MOL0     C69607   9.101   7.545  10.560  0.5814  0.3203  0.1958
  505MOL0     C69608   9.087   7.654  10.474 -0.0470  0.4529 -0.0681
  505MOL0     C69609   9.191   7.709  10.399 -0.6547 -0.5356  0.9038
  505MOL0     C69610   9.319   7.655  10.401 -0.3810 -0.6962  1.4975
  505MOL0     O69611   9.427   7.692  10.330 -0.2330  0.1471 -0.0654
  505MOL0     C69612   9.417   7.784  10.228 -0.3898 -0.0419 -0.3877
  505MOL0     C69613   9.429   7.926  10.290  0.5232  0.7267  0.5638
  505MOL0     C69614   9.427   8.030  10.186  0.7336 -0.2184  0.8418
  505MOL0     C69615   9.424   8.172  10.257  0.1054  0.1223 -0.4561
  505MOL0     C69616   9.325   8.205  10.361  0.5779 -0.5408  0.9100
  505MOL0     C69617   9.256   8.234  10.457  0.6120 -0.1455 -0.6789
  505MOL0     C69618   9.335   7.546  10.486 -0.7439  0.4962  0.3514
  505MOL0     C69619   9.234   7.485  10.565 -0.5375 -1.1622  0.8460
  505MOL0     C69620   9.281   7.369  10.645 -0.4262  0.2231 -0.2073
  505MOL0     H69621   8.816   7.596  10.841 -1.0798  1.8475 -2.0510
  505MOL0     H69622   8.621   7.497  10.983 -0.8800 -0.6633  0.1489
  505MOL0     H69623   8.356   7.294  11.086  0.6193  0.1044  1.5531
  505MOL0     H69624   8.469   7.429  11.096 -2.2368 -1.0952  1.3150
  505MOL0     H69625   8.570   7.144  11.069  0.3469  0.6069 -1.3588
  505MOL0     H69626   8.659   7.294  11.094  0.8552  0.7600  0.8042
  505MOL0     H69627   8.439   7.215  11.283 -1.4334  4.7123 -1.8929
  505MOL0     H69628   8.594   7.133  11.287  0.9331 -0.4196 -0.1572
  505MOL0     H69629   8.689   7.378  11.349 -1.3706  2.2350 -1.4068
  505MOL0     H69630   8.535   7.443  11.323  2.7649  1.6463 -0.6405
  505MOL0     H69631   8.628   7.241  11.531  1.1384 -0.6508 -1.9274
  505MOL0     H69632   8.458   7.296  11.518  1.2300 -1.3887 -0.1008
  505MOL0     H69633   8.688   7.486  11.572 -1.1077  0.7034  0.5642
  505MOL0     H69634   8.525   7.525  11.528  0.6403  2.5028  2.1756
  505MOL0     H69635   8.606   7.335  11.761  0.5572 -0.3351 -1.1664
  505MOL0     H69636   8.448   7.406  11.730 -0.5475  1.8950 -0.2595
  505MOL0     H69637   8.557   7.508  11.928  0.0561 -0.8924 -0.0825
  505MOL0     H69638   8.692   7.538  11.828  0.7973  0.2338  0.7899
  505MOL0     H69639   8.321   7.665  11.835  0.4703 -1.7571 -1.0101
  505MOL0     H69640   8.197   7.901  11.763 -0.1865 -0.4854 -0.9643
  505MOL0     H69641   8.282   7.961  11.620  0.5184  0.4890 -0.1528
  505MOL0     H69642   8.421   8.110  11.773  1.6420 -1.7682  3.7893
  505MOL0     H69643   8.248   8.142  11.769 -0.7063  0.7359  4.7121
  505MOL0     H69644   8.399   7.974  11.976 -0.5117 -0.6042  1.4409
  505MOL0     H69645   8.351   8.141  12.011  0.0377 -1.9068  1.2117
  505MOL0     H69646   8.110   8.076  11.958  1.1858  1.3322  0.1541
  505MOL0     H69647   8.158   7.910  12.002  0.3534 -0.5559 -1.6379
  505MOL0     H69648   8.193   8.106  12.408 -0.5915 -2.0383  5.1707
  505MOL0     H69649   8.128   7.913  12.653  0.1734 -0.0980 -0.9955
  505MOL0     H69650   8.197   8.066  12.625  4.0496  1.4099 -0.6033
  505MOL0     H69651   8.302   7.939  12.687 -0.4674 -1.5575  0.4854
  505MOL0     H69652   8.315   7.709  12.923  2.9338  0.0222  2.7875
  505MOL0     H69653   8.355   7.530  13.081 -0.4121 -0.1951 -0.6816
  505MOL0     H69654   8.462   7.306  13.186 -1.1413  3.6075 -2.1529
  505MOL0     H69655   8.294   7.358  13.209 -0.9388  0.1613  0.0017
  505MOL0     H69656   8.300   7.163  13.350 -3.2706 -4.8182  0.0629
  505MOL0     H69657   8.205   7.136  13.215 -1.3361  1.5017  1.1797
  505MOL0     H69658   8.510   7.064  13.217  0.7249 -1.8754 -0.4877
  505MOL0     H69659   8.396   6.988  13.116 -1.2523  2.4351 -0.5842
  505MOL0     H69660   8.275   6.920  13.357 -1.1870 -1.2338 -2.3422
  505MOL0     H69661   8.446   6.954  13.409  1.2919 -0.2912 -0.2315
  505MOL0     H69662   8.354   6.731  13.218 -0.7772 -0.5304  1.8490
  505MOL0     H69663   8.522   6.801  13.213 -0.4558  0.3847 -2.2663
  505MOL0     H69664   8.400   6.704  13.474 -1.5646  0.9827 -0.9705
  505MOL0     H69665   8.569   6.717  13.433 -0.2015  3.7650 -1.8228
  505MOL0     H69666   8.558   6.554  13.264  0.9395 -0.4027  1.6952
  505MOL0     H69667   8.380   6.525  13.303 -1.5486 -0.4020  2.4242
  505MOL0     H69668   8.420   6.427  13.514  0.0936 -1.7414 -1.6057
  505MOL0     H69669   8.581   6.483  13.523  1.3931 -2.5917 -0.7605
  505MOL0     H69670   8.319   7.235  12.783  0.8726 -0.0106  1.0064
  505MOL0     H69671   8.288   7.423  12.600  0.7862  2.9926 -1.8906
  505MOL0     H69672   8.393   7.677  12.283  0.2563  0.5022 -1.6423
  505MOL0     H69673   8.344   7.826  12.115  1.2485  1.0308 -0.1094
  505MOL0     H69674   8.475   7.282  10.657  0.8038 -0.3858 -0.0164
  505MOL0     H69675   8.665   7.359  10.514 -2.4893 -1.8244 -0.4987
  505MOL0     H69676   8.991   7.704  10.481  0.2714  1.1361 -0.5607
  505MOL0     H69677   9.178   7.801  10.344  0.1303 -1.6895 -1.3393
  505MOL0     H69678   9.503   7.763  10.164  0.9269  0.6844  1.0652
  505MOL0     H69679   9.327   7.774  10.167  0.3227 -1.4551 -1.2769
  505MOL0     H69680   9.521   7.933  10.349 -0.5239  0.8411  2.2210
  505MOL0     H69681   9.351   7.946  10.363 -0.2209  0.7585 -0.2249
  505MOL0     H69682   9.504   8.017  10.110 -0.6973  2.0648 -1.1581
  505MOL0     H69683   9.335   8.027  10.127  0.5769  1.1674  0.9737
  505MOL0     H69684   9.416   8.242  10.173  0.7908 -1.8563 -2.2577
  505MOL0     H69685   9.517   8.196  10.309 -0.2651  0.7411 -0.0683
  505MOL0     H69686   9.198   8.260  10.544 -0.2266  2.1392 -1.8675
  505MOL0     H69687   9.439   7.517  10.485  0.1736  3.4379  0.8794
  505MOL0     H69688   9.278   7.401  10.750 -5.6264 -2.9016  0.9786
  505MOL0     H69689   9.209   7.287  10.647  0.6620 -0.7497  0.7906
  505MOL0     H69690   9.373   7.323  10.607  0.0094 -0.4932  1.6175
  506MOL0     O69691   4.582   2.554   8.160 -0.3949  0.2276  0.1490
  506MOL0     C69692   4.542   2.506   8.050  0.1800  0.6923 -0.0221
  506MOL0     O69693   4.525   2.375   8.028  0.2630  0.3871  0.0392
  506MOL0     C69694   4.535   2.286   8.131  0.1255 -0.9266  0.4066
  506MOL0     C69695   4.602   2.163   8.101  0.0962  0.3048 -0.2425
  506MOL0     C69696   4.623   2.072   8.204  0.6854  0.1261 -1.0865
  506MOL0     C69697   4.567   2.091   8.333 -0.0671 -0.3411 -0.4111
  506MOL0     O69698   4.590   2.009   8.442 -0.8446 -0.3898  0.2912
  506MOL0     C69699   4.511   2.015   8.562  0.1116  0.4139 -0.3313
  506MOL0     C69700   4.570   1.921   8.669  0.0668  1.3213  0.1989
  506MOL0     C69701   4.536   1.771   8.629 -0.2683  0.0788  0.3189
  506MOL0     C69702   4.604   1.678   8.735 -0.0135  0.5858  0.0738
  506MOL0     C69703   4.560   1.527   8.706  0.7121  0.5865  0.3725
  506MOL0     C69704   4.619   1.430   8.806  0.9945  0.4235  0.0238
  506MOL0     C69705   4.588   1.280   8.774  0.0674  0.0295 -0.7144
  506MOL0     C69706   4.608   1.186   8.900 -0.1628  0.0495 -0.8096
  506MOL0     N69707   4.509   1.070   8.898  0.3737 -0.4914  0.1770
  506MOL0     C69708   4.549   0.940   8.889  0.3561  0.1531 -0.5841
  506MOL0     C69709   4.452   0.860   8.940 -0.0890  0.0049 -0.0794
  506MOL0     C69710   4.462   0.716   8.980 -1.0063 -0.0935 -0.5193
  506MOL0     C69711   4.477   0.694   9.136  0.0214  0.2746 -0.6473
  506MOL0     C69712   4.507   0.549   9.164 -0.9107 -0.3467 -0.3674
  506MOL0     C69713   4.389   0.476   9.210 -0.6176  0.1090 -0.6619
  506MOL0     O69714   4.348   0.538   9.335 -0.4591  0.2068  0.1230
  506MOL0     C69715   4.298   0.456   9.437 -0.7872  0.7198  0.4261
  506MOL0     C69716   4.307   0.512   9.568  0.2489 -0.5771  1.0735
  506MOL0     C69717   4.266   0.430   9.676 -1.1594 -0.4517  0.1638
  506MOL0     C69718   4.274   0.493   9.810  0.8555 -0.5030 -0.0190
  506MOL0     C69719   4.199   0.304   9.658  0.5022 -0.0225  0.5503
  506MOL0     C69720   4.122   0.235   9.764  0.0143 -0.2099 -0.6687
  506MOL0     O69721   4.175   0.239   9.892  0.6062 -0.1625 -0.0611
  506MOL0     C69722   4.085   0.235   9.995  0.2539  0.3110  0.2924
  506MOL0     C69723   3.977   0.153  10.016 -0.1103  0.9168  0.8266
  506MOL0     C69724   3.902   0.151  10.130  0.5303 -0.5020  0.1038
  506MOL0     C69725   3.931   0.247  10.223 -0.0085 -0.4039 -0.6094
  506MOL0     O69726   3.855   0.252  10.336 -0.6468 -0.5494 -0.1105
  506MOL0     C69727   3.748   0.352  10.335 -0.4548 -0.0610  0.3583
  506MOL0     C69728   3.667   0.357  10.462  0.0422  0.2324  0.3921
  506MOL0     C69729   3.750   0.355  10.592  0.0330 -0.2899 -0.3144
  506MOL0     C69730   3.749   0.486  10.664 -0.7930  0.4066  0.7884
  506MOL0     C69731   3.838   0.501  10.792 -0.3025  0.3042 -0.8154
  506MOL0     C69732   3.817   0.370  10.887  0.9812 -0.8915  1.0219
  506MOL0     C69733   3.864   0.407  11.020  0.1326  0.1744 -1.2654
  506MOL0     C69734   3.860   0.269  11.098  0.0916 -1.0121 -0.2351
  506MOL0    Cl69735   3.838   0.310  11.273  0.4901  0.3018  0.2133
  506MOL0     C69736   4.025   0.355  10.194  0.6305  0.7076 -0.2554
  506MOL0     C69737   4.107   0.333  10.088 -0.7407  0.4065 -0.3830
  506MOL0     O69738   4.022   0.171   9.737 -0.2483  0.8120  0.7911
  506MOL0     C69739   4.198   0.253   9.524  0.3838 -0.4740 -1.0295
  506MOL0     C69740   4.240   0.329   9.420  0.2873 -0.1359 -0.3466
  506MOL0     N69741   4.349   0.951   8.973 -0.5617 -0.0722 -0.5996
  506MOL0     N69742   4.378   1.065   8.943 -0.1557 -0.1358  0.5322
  506MOL0     C69743   4.482   2.204   8.351  0.5542 -0.1459 -0.2362
  506MOL0     C69744   4.472   2.305   8.250  0.4534 -0.0689 -0.1986
  506MOL0     C69745   4.521   2.596   7.933 -0.0811 -0.4852 -0.1527
  506MOL0     C69746   4.438   2.548   7.823 -0.5084 -0.2311  0.0537
  506MOL0     C69747   4.401   2.628   7.725  1.0414 -0.1755  1.1509
  506MOL0     C69748   4.457   2.754   7.711 -0.5271 -0.3432  0.5639
  506MOL0     O69749   4.433   2.835   7.601 -0.2493 -0.3663 -0.0617
  506MOL0     C69750   4.357   2.781   7.487  0.5555 -0.1094  0.5911
  506MOL0     C69751   4.334   2.888   7.377  1.3573 -0.1198 -0.3258
  506MOL0     C69752   4.463   2.938   7.305  0.6726  0.4295 -0.5865
  506MOL0     C69753   4.569   2.834   7.272  0.5784 -0.1197  0.1749
  506MOL0     C69754   4.517   2.719   7.195 -0.1108 -0.1417  0.4941
  506MOL0     C69755   4.456   2.635   7.129 -0.0820  0.4446 -0.7133
  506MOL0     C69756   4.548   2.801   7.800  0.8314  0.1786  0.1445
  506MOL0     C69757   4.578   2.728   7.919 -0.7878  0.0894  0.1383
  506MOL0     C69758   4.667   2.791   8.016  0.5745  0.2362  0.2352
  506MOL0     H69759   4.652   2.144   8.007  3.5510 -2.3420  1.9114
  506MOL0     H69760   4.686   1.985   8.186 -1.8197 -2.0129 -0.0482
  506MOL0     H69761   4.402   2.018   8.550 -0.2565  0.1226  2.3556
  506MOL0     H69762   4.533   2.117   8.594  3.1947  0.5903 -2.6202
  506MOL0     H69763   4.679   1.929   8.673  0.2403 -0.7335  2.6065
  506MOL0     H69764   4.532   1.952   8.767  3.3842  5.0017  0.5939
  506MOL0     H69765   4.429   1.749   8.628  0.0946 -2.1553  1.7879
  506MOL0     H69766   4.575   1.741   8.531  1.6841  1.3730  0.6475
  506MOL0     H69767   4.713   1.683   8.731  0.1280  0.2036  2.3804
  506MOL0     H69768   4.581   1.709   8.837  1.4874 -0.8657  0.8980
  506MOL0     H69769   4.594   1.486   8.611  0.1169 -2.8591  1.4929
  506MOL0     H69770   4.450   1.524   8.707  0.5057  2.7283 -2.5404
  506MOL0     H69771   4.728   1.443   8.809  0.8073  2.9142  3.8738
  506MOL0     H69772   4.585   1.436   8.910  3.4742 -2.1776  1.1163
  506MOL0     H69773   4.640   1.251   8.682 -1.5406  0.3045 -1.7338
  506MOL0     H69774   4.482   1.257   8.760  0.5792 -2.8525 -0.5186
  506MOL0     H69775   4.715   1.168   8.912  0.3124  3.0375  0.3451
  506MOL0     H69776   4.571   1.243   8.986 -2.0113  0.7042 -1.9719
  506MOL0     H69777   4.649   0.900   8.876  0.0794 -1.5565  1.7766
  506MOL0     H69778   4.554   0.681   8.934  0.2727  2.5109 -0.1739
  506MOL0     H69779   4.371   0.666   8.944 -0.7153 -0.7926 -0.2896
  506MOL0     H69780   4.561   0.761   9.157 -0.2352 -0.0402  1.6326
  506MOL0     H69781   4.385   0.730   9.182 -2.6014 -0.7648 -4.5587
  506MOL0     H69782   4.547   0.497   9.076 -0.5892  0.4617 -0.7084
  506MOL0     H69783   4.590   0.539   9.235 -1.2050  1.7844  0.3186
  506MOL0     H69784   4.304   0.485   9.142 -1.5193  1.9673  0.6251
  506MOL0     H69785   4.425   0.373   9.214  0.7843  0.5446 -1.3901
  506MOL0     H69786   4.345   0.609   9.600 -1.5497 -0.1679  2.1490
  506MOL0     H69787   4.282   0.602   9.803 -3.6690 -0.0455 -4.5228
  506MOL0     H69788   4.366   0.462   9.859  1.5445  0.6161 -0.5712
  506MOL0     H69789   4.182   0.481   9.869 -0.5787  4.5709 -0.7168
  506MOL0     H69790   3.961   0.072   9.945 -0.7238  1.4618  0.3327
  506MOL0     H69791   3.829   0.074  10.152  0.9218 -0.8980  0.0333
  506MOL0     H69792   3.791   0.452  10.326  2.4205 -1.2307  0.1214
  506MOL0     H69793   3.681   0.331  10.251 -0.2897 -1.8379  0.6226
  506MOL0     H69794   3.595   0.439  10.459 -0.4235  0.0812  3.6091
  506MOL0     H69795   3.625   0.256  10.457  1.9869 -0.6285  0.4508
  506MOL0     H69796   3.855   0.326  10.581  0.1576 -0.5094  1.2185
  506MOL0     H69797   3.706   0.287  10.666  0.4532 -0.8330 -0.5583
  506MOL0     H69798   3.643   0.507  10.683 -0.9207 -1.0893  1.9428
  506MOL0     H69799   3.789   0.567  10.604 -1.3430  1.4656  1.8152
  506MOL0     H69800   3.943   0.500  10.761  0.3967  2.5629  1.1316
  506MOL0     H69801   3.817   0.591  10.851  1.9901  0.1187  0.3879
  506MOL0     H69802   3.877   0.288  10.847  0.1107 -0.5731 -1.0493
  506MOL0     H69803   3.714   0.337  10.902 -0.0366  0.7043 -1.7915
  506MOL0     H69804   3.799   0.478  11.072  1.7436  1.0733 -0.3952
  506MOL0     H69805   3.964   0.448  11.034  1.0693 -2.3996  0.4554
  506MOL0     H69806   3.955   0.217  11.083 -0.1347 -1.6985  0.5900
  506MOL0     H69807   3.773   0.209  11.068  0.3470 -0.2673 -2.7024
  506MOL0     H69808   4.034   0.435  10.267  1.1719  1.9297 -1.6068
  506MOL0     H69809   4.199   0.392  10.085  1.4455 -2.4265  3.0071
  506MOL0     H69810   4.151   0.157   9.507 -0.0601 -1.7169  4.9969
  506MOL0     H69811   4.240   0.298   9.316 -1.7428  3.9657 -1.7648
  506MOL0     H69812   4.413   2.227   8.432  0.7131  0.9054 -0.3930
  506MOL0     H69813   4.408   2.393   8.257 -0.8403 -1.0905  4.0160
  506MOL0     H69814   4.409   2.444   7.834  1.1321 -0.5862  1.4106
  506MOL0     H69815   4.333   2.585   7.652  0.2663 -0.1239  1.8270
  506MOL0     H69816   4.416   2.694   7.457  0.2719 -1.1593  2.8157
  506MOL0     H69817   4.260   2.744   7.524 -0.2546  0.8638 -0.5100
  506MOL0     H69818   4.293   2.977   7.425 -2.1697 -1.7657  0.0267
  506MOL0     H69819   4.263   2.855   7.300 -0.7171 -2.2544  2.2893
  506MOL0     H69820   4.423   2.971   7.208 -2.4127 -1.8017 -0.2247
  506MOL0     H69821   4.505   3.019   7.365 -1.4410  0.8284  0.4328
  506MOL0     H69822   4.618   2.787   7.358  1.0331 -0.8278 -0.4580
  506MOL0     H69823   4.641   2.890   7.212  0.4437  3.1065  2.7578
  506MOL0     H69824   4.417   2.555   7.068 -0.8058  2.5725 -3.2451
  506MOL0     H69825   4.582   2.902   7.778  1.1905 -0.4863 -2.7978
  506MOL0     H69826   4.681   2.898   8.000 -0.5813  0.3326 -0.2775
  506MOL0     H69827   4.627   2.784   8.117 -0.5243  4.2339  0.2294
  506MOL0     H69828   4.764   2.743   8.033 -1.3507 -3.9628  0.7539
  507MOL0     O69829   2.406   2.842   2.596 -0.4704  0.0394  0.5286
  507MOL0     C69830   2.483   2.779   2.522 -0.5603  0.3104  0.6187
  507MOL0     O69831   2.530   2.648   2.550 -0.0837 -0.0070  0.6828
  507MOL0     C69832   2.480   2.583   2.656  0.4219 -0.2531  0.6871
  507MOL0     C69833   2.502   2.623   2.786 -0.1590 -0.2043 -0.1949
  507MOL0     C69834   2.436   2.563   2.897 -0.1019 -0.2205 -0.8669
  507MOL0     C69835   2.341   2.458   2.864  0.1424 -0.7479  0.6153
  507MOL0     O69836   2.283   2.390   2.973 -0.5622  0.1073 -0.5424
  507MOL0     C69837   2.158   2.336   2.945 -0.4519  0.6533  0.4632
  507MOL0     C69838   2.053   2.445   2.894  0.4913  0.3339  0.1214
  507MOL0     C69839   1.910   2.378   2.881 -0.6987 -0.6476 -0.5369
  507MOL0     C69840   1.805   2.484   2.862  0.7302  0.0300 -0.1009
  507MOL0     C69841   1.671   2.412   2.842  0.6223  0.8303  0.1920
  507MOL0     C69842   1.554   2.511   2.822  0.3832  0.2589 -0.7203
  507MOL0     C69843   1.423   2.460   2.881  0.3118 -0.1270  0.9075
  507MOL0     C69844   1.404   2.471   3.026  0.7781  0.5526 -0.7622
  507MOL0     N69845   1.286   2.400   3.079 -0.0959  0.2841 -0.6195
  507MOL0     C69846   1.261   2.269   3.050  0.7113  0.0391 -0.3227
  507MOL0     C69847   1.140   2.247   3.111 -0.1657  0.0005  0.0070
  507MOL0     C69848   1.052   2.122   3.104 -0.9252 -0.1505 -1.1477
  507MOL0     C69849   1.009   2.076   3.245 -0.4595  0.4135  0.3212
  507MOL0     C69850   1.136   2.041   3.327  0.3846 -0.3537 -0.0924
  507MOL0     C69851   1.241   1.949   3.255  0.8597  0.1341 -0.4082
  507MOL0     O69852   1.331   1.897   3.355 -0.1747  0.3440  0.4224
  507MOL0     C69853   1.435   1.816   3.307  0.5965 -0.1844 -1.0533
  507MOL0     C69854   1.523   1.773   3.403  0.4735  0.4068 -0.1911
  507MOL0     C69855   1.639   1.710   3.373 -0.1215  0.1645  1.4233
  507MOL0     C69856   1.732   1.676   3.487 -0.3596  0.2387 -0.2380
  507MOL0     C69857   1.676   1.684   3.241 -0.0297 -0.4561 -0.0447
  507MOL0     C69858   1.802   1.609   3.189 -0.1460 -0.9447 -0.9876
  507MOL0     O69859   1.800   1.559   3.066  0.7911 -1.1638 -0.1004
  507MOL0     C69860   1.919   1.525   3.005  0.1028 -0.5766  0.2973
  507MOL0     C69861   1.959   1.392   3.005  0.3322  0.1465 -0.1162
  507MOL0     C69862   2.068   1.349   2.942 -0.5384  0.4208 -0.2494
  507MOL0     C69863   2.149   1.441   2.872 -0.2626 -0.5202  0.2383
  507MOL0     O69864   2.261   1.401   2.804  0.3461 -0.3122 -0.5868
  507MOL0     C69865   2.315   1.272   2.821 -1.0269 -0.8175 -0.4533
  507MOL0     C69866   2.449   1.278   2.745  0.1031  0.1069  0.0288
  507MOL0     C69867   2.449   1.358   2.613 -0.3294 -0.0876  0.3230
  507MOL0     C69868   2.573   1.326   2.540 -1.0279  0.3898 -0.0700
  507MOL0     C69869   2.583   1.374   2.398  0.0923  0.8220 -0.3250
  507MOL0     C69870   2.469   1.306   2.311 -0.7450 -0.8140 -0.2360
  507MOL0     C69871   2.522   1.290   2.166  0.4205  1.1858 -0.1924
  507MOL0     C69872   2.401   1.274   2.063  0.3996 -0.7667  0.2824
  507MOL0    Cl69873   2.306   1.423   2.041 -0.1454  0.3719 -0.1568
  507MOL0     C69874   2.119   1.576   2.868  0.1084 -0.1386  0.5780
  507MOL0     C69875   1.995   1.619   2.927 -0.2011  0.2017 -0.7654
  507MOL0     O69876   1.900   1.602   3.265  0.1637 -0.3141 -0.2257
  507MOL0     C69877   1.583   1.737   3.145  0.2873 -0.3641  0.0494
  507MOL0     C69878   1.466   1.800   3.170  0.1275  0.9891  0.5270
  507MOL0     N69879   1.110   2.369   3.173  0.6192  0.1477  1.0959
  507MOL0     N69880   1.185   2.457   3.141 -0.6742 -0.0229 -0.5642
  507MOL0     C69881   2.331   2.416   2.726  0.5237 -0.3076 -0.4418
  507MOL0     C69882   2.396   2.476   2.627 -0.4510 -0.3060  1.0707
  507MOL0     C69883   2.523   2.824   2.385  0.7444  0.8693 -0.3519
  507MOL0     C69884   2.588   2.723   2.299 -0.1404 -0.3079  0.2071
  507MOL0     C69885   2.627   2.766   2.175 -0.1524  0.3510 -0.4716
  507MOL0     C69886   2.607   2.887   2.122  1.2602  0.1448 -0.0893
  507MOL0     O69887   2.646   2.933   2.001 -0.0100  0.2983  0.3926
  507MOL0     C69888   2.725   2.835   1.919  0.2382  0.2653 -0.5388
  507MOL0     C69889   2.742   2.889   1.782  0.8704  0.0056 -0.3640
  507MOL0     C69890   2.645   2.809   1.682  0.9076 -0.1466  0.4980
  507MOL0     C69891   2.682   2.671   1.616 -0.2025 -0.5107  0.1284
  507MOL0     C69892   2.825   2.644   1.605 -0.0933  0.3535  0.2631
  507MOL0     C69893   2.944   2.633   1.605 -0.4755 -0.9524  0.1545
  507MOL0     C69894   2.550   2.980   2.209  0.2594 -0.6402  0.1303
  507MOL0     C69895   2.521   2.957   2.342  0.0842  0.8960 -0.3600
  507MOL0     C69896   2.465   3.066   2.417 -0.6002  0.8237 -0.9038
  507MOL0     H69897   2.558   2.715   2.802 -0.1543 -0.3650  0.7685
  507MOL0     H69898   2.456   2.615   2.991 -5.2641  0.9465 -0.1066
  507MOL0     H69899   2.126   2.291   3.039 -1.7063  2.9387  1.2224
  507MOL0     H69900   2.162   2.255   2.872  0.0764  1.8550 -0.9021
  507MOL0     H69901   2.041   2.524   2.969 -3.3944 -1.9392  2.2395
  507MOL0     H69902   2.095   2.489   2.803  0.9720  0.2361  0.2923
  507MOL0     H69903   1.910   2.306   2.798 -0.4613  0.2777 -1.3595
  507MOL0     H69904   1.897   2.312   2.967 -1.9451  0.8002  0.4247
  507MOL0     H69905   1.792   2.533   2.959 -1.0019 -1.7297  0.6291
  507MOL0     H69906   1.830   2.557   2.784 -0.0217  1.0022  0.5477
  507MOL0     H69907   1.651   2.342   2.923  2.3043  1.7592  1.4725
  507MOL0     H69908   1.691   2.349   2.754  1.0141  2.6347 -1.0816
  507MOL0     H69909   1.580   2.608   2.866  0.5140  0.4545 -1.2184
  507MOL0     H69910   1.546   2.529   2.714  0.1500  2.1424 -0.4381
  507MOL0     H69911   1.404   2.361   2.840  2.8411  0.8189 -3.0813
  507MOL0     H69912   1.343   2.516   2.831 -0.2605 -1.0836  0.7188
  507MOL0     H69913   1.486   2.414   3.070  0.0856  0.3954  0.3747
  507MOL0     H69914   1.409   2.568   3.077  1.3662 -0.3787  1.0293
  507MOL0     H69915   1.324   2.200   2.994  0.9875  1.0951 -1.3589
  507MOL0     H69916   1.115   2.046   3.056 -0.2517 -0.1366 -0.3057
  507MOL0     H69917   0.961   2.140   3.045 -1.5832 -0.9515 -0.4068
  507MOL0     H69918   0.952   2.160   3.285 -0.0361  0.7809  0.1610
  507MOL0     H69919   0.939   1.991   3.236  1.8666 -1.3713 -4.3959
  507MOL0     H69920   1.183   2.137   3.349 -1.5122  0.0983  2.4221
  507MOL0     H69921   1.102   1.996   3.421 -0.9342  0.0405 -0.3516
  507MOL0     H69922   1.190   1.866   3.203  2.2725 -0.8191 -0.3384
  507MOL0     H69923   1.300   2.007   3.184 -2.9912 -1.7680 -5.8889
  507MOL0     H69924   1.505   1.800   3.506  1.0011 -0.5316  0.1564
  507MOL0     H69925   1.731   1.567   3.497 -0.5945  0.4333  2.5445
  507MOL0     H69926   1.717   1.724   3.584  1.1087 -0.8330  0.5740
  507MOL0     H69927   1.838   1.702   3.476 -0.1108 -0.0388  1.2681
  507MOL0     H69928   1.884   1.332   3.056 -0.8702 -1.4349 -3.4640
  507MOL0     H69929   2.082   1.242   2.953  1.4553  0.8588  2.3999
  507MOL0     H69930   2.337   1.256   2.927 -0.9930  1.1624 -0.1357
  507MOL0     H69931   2.241   1.204   2.778 -2.4536  0.4871 -0.1134
  507MOL0     H69932   2.523   1.332   2.804 -0.3265 -0.0105  0.6762
  507MOL0     H69933   2.480   1.173   2.747 -1.2339 -0.3166 -0.0759
  507MOL0     H69934   2.441   1.465   2.630 -0.8276 -0.3402  1.8406
  507MOL0     H69935   2.358   1.330   2.558  0.3160 -0.8392 -0.3969
  507MOL0     H69936   2.580   1.217   2.534  0.7162  0.4366  0.5781
  507MOL0     H69937   2.653   1.369   2.601 -0.0038  0.8696 -1.6935
  507MOL0     H69938   2.573   1.483   2.400 -1.0292  0.7330 -0.1461
  507MOL0     H69939   2.680   1.345   2.358 -0.6198 -1.1664 -0.7464
  507MOL0     H69940   2.385   1.375   2.315 -0.7171 -0.7385 -0.7975
  507MOL0     H69941   2.424   1.214   2.349  0.1184 -0.9743  0.4412
  507MOL0     H69942   2.577   1.196   2.175  1.7069  1.9944  0.6526
  507MOL0     H69943   2.586   1.375   2.140 -0.1733  0.6672 -3.9777
  507MOL0     H69944   2.349   1.186   2.103  2.3145 -1.6563  0.9001
  507MOL0     H69945   2.446   1.248   1.967 -0.3933  3.2408 -1.3625
  507MOL0     H69946   2.179   1.633   2.798 -0.4438  0.4352  0.5600
  507MOL0     H69947   1.951   1.718   2.935  0.1484  0.2305  1.5957
  507MOL0     H69948   1.614   1.739   3.041 -0.1876  3.4438 -0.1694
  507MOL0     H69949   1.410   1.847   3.090 -1.6032 -3.0041 -0.9015
  507MOL0     H69950   2.281   2.320   2.716  1.8239 -1.3257  2.0684
  507MOL0     H69951   2.384   2.446   2.523  4.0743  1.2407 -0.1522
  507MOL0     H69952   2.612   2.623   2.334 -1.4337 -1.0184 -0.8377
  507MOL0     H69953   2.688   2.691   2.126  0.0966 -0.0514  0.4397
  507MOL0     H69954   2.822   2.821   1.966  0.0692 -1.0849 -0.5697
  507MOL0     H69955   2.680   2.736   1.931 -1.1163  1.0378  1.1568
  507MOL0     H69956   2.844   2.890   1.743  2.1149  2.4460  2.5210
  507MOL0     H69957   2.708   2.993   1.791 -0.2163 -0.1839 -1.8228
  507MOL0     H69958   2.550   2.793   1.733  0.2574  1.8744  0.0294
  507MOL0     H69959   2.618   2.863   1.590  1.3749 -4.3371 -2.3752
  507MOL0     H69960   2.647   2.682   1.513 -2.2862  0.9621  0.9271
  507MOL0     H69961   2.629   2.593   1.672  0.0376  1.0978  2.7664
  507MOL0     H69962   3.051   2.626   1.608 -0.1615  0.6998 -2.8544
  507MOL0     H69963   2.536   3.078   2.165  2.7785 -0.5361 -0.6153
  507MOL0     H69964   2.489   3.067   2.524  1.9103  0.1153 -1.4009
  507MOL0     H69965   2.508   3.153   2.367  2.2571 -0.5541 -1.0311
  507MOL0     H69966   2.356   3.055   2.423 -0.5982  1.5043  0.8057
  508MOL0     O69967   1.092   0.386   4.696 -0.6540 -0.0974  0.0680
  508MOL0     C69968   1.101   0.273   4.648  0.0290 -0.3040 -0.8172
  508MOL0     O69969   1.170   0.241   4.533 -0.1384  0.8741  0.1840
  508MOL0     C69970   1.215   0.347   4.466 -0.0470 -0.8553  0.1008
  508MOL0     C69971   1.133   0.450   4.406 -0.3236 -0.0282 -0.7190
  508MOL0     C69972   1.183   0.568   4.351  0.5693 -0.2137  0.5161
  508MOL0     C69973   1.319   0.583   4.330  0.2469  0.1837 -0.2380
  508MOL0     O69974   1.374   0.682   4.261  0.9546  0.0273  0.2958
  508MOL0     C69975   1.501   0.729   4.286 -0.5078  0.1946 -0.2829
  508MOL0     C69976   1.553   0.846   4.204 -0.0588  1.0235  0.0451
  508MOL0     C69977   1.451   0.951   4.165 -0.3706  0.6544  0.4033
  508MOL0     C69978   1.394   1.015   4.291  0.6021  0.4722 -0.4140
  508MOL0     C69979   1.303   1.130   4.267  0.9588 -0.4627  1.0105
  508MOL0     C69980   1.249   1.199   4.393 -0.5990 -0.1199 -0.0577
  508MOL0     C69981   1.149   1.305   4.345  0.0051  0.5100 -1.1740
  508MOL0     C69982   1.202   1.444   4.305  0.7336  1.0144  0.0441
  508MOL0     N69983   1.149   1.480   4.173 -0.3143  0.9390  0.5483
  508MOL0     C69984   1.048   1.567   4.146 -0.1395 -0.2162 -0.9629
  508MOL0     C69985   1.034   1.583   4.015 -0.5344 -0.0189  0.0319
  508MOL0     C69986   0.942   1.663   3.941 -0.0099 -0.2967 -0.3315
  508MOL0     C69987   0.998   1.794   3.880  0.9734 -0.2515 -0.8834
  508MOL0     C69988   0.908   1.867   3.784  0.2631 -0.7190  0.0406
  508MOL0     C69989   0.774   1.917   3.836  0.5485 -0.4587  0.5489
  508MOL0     O69990   0.805   2.032   3.922  0.2016 -0.7385  0.5998
  508MOL0     C69991   0.713   2.072   4.020 -0.8463  0.4795 -1.1741
  508MOL0     C69992   0.603   1.995   4.058 -0.4062 -0.2612 -0.2635
  508MOL0     C69993   0.517   2.034   4.162  0.4637 -0.2553  0.2004
  508MOL0     C69994   0.402   1.951   4.217 -0.3108 -1.1686  0.1687
  508MOL0     C69995   0.526   2.165   4.205  0.1384  0.0507  0.7953
  508MOL0     C69996   0.429   2.234   4.296 -0.9182 -0.7996 -0.4477
  508MOL0     O69997   0.359   2.342   4.251 -0.2513  0.6928 -0.3249
  508MOL0     C69998   0.376   2.392   4.126 -0.0112  0.6322 -0.0412
  508MOL0     C69999   0.420   2.522   4.095  0.3436  0.0809 -0.4006
  508MOL0     C70000   0.437   2.570   3.960  0.8101  0.0121 -0.4723
  508MOL0     C70001   0.383   2.489   3.860 -0.9895  0.0280 -0.0571
  508MOL0     O70002   0.389   2.526   3.725 -0.4739 -0.1023  0.2599
  508MOL0     C70003   0.501   2.612   3.692 -0.1805 -0.1797 -0.7196
  508MOL0     C70004   0.516   2.606   3.528  0.6022  0.2326 -0.6577
  508MOL0     C70005   0.557   2.741   3.469 -0.1267  0.2892 -0.5066
  508MOL0     C70006   0.579   2.710   3.320  0.2169 -0.0486 -0.9176
  508MOL0     C70007   0.652   2.812   3.245 -0.2127 -0.0644  0.5701
  508MOL0     C70008   0.671   2.793   3.098 -0.2500  0.9163  0.2006
  508MOL0     C70009   0.540   2.765   3.020  0.4501 -0.3209  0.8812
  508MOL0     C70010   0.563   2.727   2.874 -0.5037  0.4369 -0.2691
  508MOL0    Cl70011   0.656   2.844   2.775  0.1090 -0.0695  0.0387
  508MOL0     C70012   0.325   2.371   3.882  0.3110  0.7239 -0.0097
  508MOL0     C70013   0.322   2.315   4.016  0.2318  0.7117  1.0086
  508MOL0     O70014   0.442   2.206   4.415 -0.3609 -0.4659  0.3823
  508MOL0     C70015   0.634   2.243   4.167  0.8556  0.2869 -0.4204
  508MOL0     C70016   0.728   2.201   4.076  0.4813  0.0847  0.3674
  508MOL0     N70017   1.137   1.514   3.951 -0.5448 -0.1686 -0.2952
  508MOL0     N70018   1.195   1.444   4.043  0.3849  0.9428 -0.5216
  508MOL0     C70019   1.392   0.467   4.354 -0.1417 -1.2260 -0.3763
  508MOL0     C70020   1.353   0.351   4.426  0.4683 -0.7933 -1.0775
  508MOL0     C70021   1.036   0.161   4.715  0.4261  0.3035 -0.4863
  508MOL0     C70022   1.086   0.031   4.699  0.0427  0.5193  0.4272
  508MOL0     C70023   1.040  -0.081   4.773  0.6443  0.2915 -0.0497
  508MOL0     C70024   0.929  -0.076   4.850  0.4477  0.2604 -0.0871
  508MOL0     O70025   0.891  -0.194   4.911  0.5531  0.9403 -0.2763
  508MOL0     C70026   0.777  -0.203   4.995  0.1401  0.4359  0.5641
  508MOL0     C70027   0.704  -0.331   4.976  0.2681  1.0184 -0.0863
  508MOL0     C70028   0.759  -0.446   5.069  0.1128 -0.1301  0.3292
  508MOL0     C70029   0.702  -0.574   5.027 -0.2740  0.2505  0.3785
  508MOL0     C70030   0.763  -0.687   5.092 -0.7664  0.0645 -0.1928
  508MOL0     C70031   0.806  -0.780   5.152 -0.3751  0.6771  0.3577
  508MOL0     C70032   0.880   0.053   4.874 -0.2164 -0.3264 -0.7886
  508MOL0     C70033   0.922   0.166   4.801 -0.1179  0.0711 -1.5783
  508MOL0     C70034   0.842   0.292   4.819  1.3791 -0.1609  0.7328
  508MOL0     H70035   1.027   0.440   4.427  0.5007 -0.8598  4.4857
  508MOL0     H70036   1.123   0.649   4.311  1.2363 -1.1296 -2.5871
  508MOL0     H70037   1.578   0.652   4.278 -0.7813 -0.2999  1.3732
  508MOL0     H70038   1.522   0.759   4.389  4.6598  2.1738 -1.5796
  508MOL0     H70039   1.649   0.887   4.237 -0.0151  2.7669 -2.0308
  508MOL0     H70040   1.588   0.804   4.110  2.1260  0.5840  0.9810
  508MOL0     H70041   1.498   1.021   4.095 -2.2792  0.1671 -1.4755
  508MOL0     H70042   1.365   0.901   4.119 -0.2953 -0.1864  1.1621
  508MOL0     H70043   1.348   0.938   4.354  0.8414 -0.0798 -0.8967
  508MOL0     H70044   1.482   1.054   4.343  1.0677 -1.4661  0.3777
  508MOL0     H70045   1.231   1.099   4.191  2.3204 -1.6379  0.1703
  508MOL0     H70046   1.366   1.206   4.220  1.6560  0.3117  3.0599
  508MOL0     H70047   1.211   1.130   4.468 -0.3481  1.6620  1.7848
  508MOL0     H70048   1.327   1.256   4.444 -0.7696  1.2256 -1.2197
  508MOL0     H70049   1.080   1.316   4.429  0.7584 -1.9033 -0.1487
  508MOL0     H70050   1.086   1.264   4.266  0.5106 -3.0270  0.0777
  508MOL0     H70051   1.170   1.522   4.374 -3.9373  0.6264 -1.3417
  508MOL0     H70052   1.311   1.441   4.313  0.7908 -0.0102 -0.9204
  508MOL0     H70053   0.991   1.626   4.217  0.3691 -1.9874  1.0127
  508MOL0     H70054   0.849   1.681   3.996 -0.4895 -0.4595 -1.0722
  508MOL0     H70055   0.913   1.597   3.858  0.4291 -1.2029  0.2205
  508MOL0     H70056   1.010   1.870   3.957  0.3822 -0.3732 -0.6677
  508MOL0     H70057   1.096   1.768   3.837  1.5208  0.1888  0.0686
  508MOL0     H70058   0.957   1.941   3.719  0.6606 -1.0652 -0.0574
  508MOL0     H70059   0.879   1.788   3.713  0.1273 -2.0301  1.5154
  508MOL0     H70060   0.706   1.942   3.755  2.1398 -2.0737 -1.4176
  508MOL0     H70061   0.735   1.830   3.890 -4.2763 -0.9081 -3.0598
  508MOL0     H70062   0.591   1.894   4.021  2.5558 -0.9849  0.4426
  508MOL0     H70063   0.310   2.002   4.187  1.7832  2.9275  0.0764
  508MOL0     H70064   0.408   1.953   4.326 -0.3890  2.8325  0.2290
  508MOL0     H70065   0.403   1.849   4.177 -1.3320 -0.2876 -2.2882
  508MOL0     H70066   0.447   2.588   4.177  0.5467 -0.3015 -0.1587
  508MOL0     H70067   0.465   2.674   3.947 -0.5757  0.3893 -0.6377
  508MOL0     H70068   0.457   2.710   3.713 -2.9405 -1.3288 -0.7443
  508MOL0     H70069   0.588   2.580   3.749 -0.7038  0.9684  0.7911
  508MOL0     H70070   0.594   2.530   3.520  0.8910  0.5035 -0.4287
  508MOL0     H70071   0.435   2.557   3.473  0.0273  1.7271 -1.1961
  508MOL0     H70072   0.655   2.766   3.509  1.1212  0.9020 -3.6674
  508MOL0     H70073   0.477   2.815   3.483 -0.7278 -0.4991  0.3177
  508MOL0     H70074   0.481   2.684   3.279 -0.3763 -2.9843  1.9385
  508MOL0     H70075   0.635   2.617   3.332 -1.5803 -0.9039  2.0838
  508MOL0     H70076   0.598   2.905   3.265 -2.1232 -1.6368  3.3371
  508MOL0     H70077   0.756   2.818   3.279  0.0445  1.7004 -0.4066
  508MOL0     H70078   0.756   2.725   3.091 -0.2605  0.3831  3.6539
  508MOL0     H70079   0.716   2.888   3.069  3.6475 -1.1220 -1.0302
  508MOL0     H70080   0.480   2.856   3.030  0.4560 -0.5037  2.8292
  508MOL0     H70081   0.493   2.685   3.077 -2.9077  0.7261 -0.1238
  508MOL0     H70082   0.469   2.704   2.822 -1.1152  0.8011  0.6593
  508MOL0     H70083   0.623   2.635   2.881 -1.7461 -0.3677  0.0665
  508MOL0     H70084   0.282   2.325   3.794 -0.6091  0.1302  0.7410
  508MOL0     H70085   0.285   2.214   4.032  4.3192 -1.3386 -0.9500
  508MOL0     H70086   0.647   2.343   4.208  0.3787  0.4260 -0.5895
  508MOL0     H70087   0.805   2.265   4.034  0.8158 -0.5065  0.0656
  508MOL0     H70088   1.490   0.473   4.307 -0.0019 -1.1849 -0.0836
  508MOL0     H70089   1.427   0.276   4.452 -0.6192 -1.2369  0.9314
  508MOL0     H70090   1.170   0.017   4.632 -1.9552 -2.2602 -1.6736
  508MOL0     H70091   1.096  -0.173   4.757 -0.6585 -0.6845  0.7601
  508MOL0     H70092   0.802  -0.197   5.101 -0.6365 -1.6725  0.9052
  508MOL0     H70093   0.699  -0.127   4.984 -0.1509 -0.0308 -0.7316
  508MOL0     H70094   0.705  -0.357   4.869  1.4179 -1.2054  0.4030
  508MOL0     H70095   0.596  -0.319   4.989  0.0391 -0.5171 -0.4080
  508MOL0     H70096   0.867  -0.436   5.061 -0.0438  1.2970 -0.2378
  508MOL0     H70097   0.720  -0.435   5.171 -2.0218  0.9349 -0.5411
  508MOL0     H70098   0.716  -0.579   4.918 -0.9842  4.4253 -0.0835
  508MOL0     H70099   0.595  -0.587   5.044  0.2040 -3.8920  1.3333
  508MOL0     H70100   0.847  -0.866   5.202 -2.2941 -0.6151 -0.2035
  508MOL0     H70101   0.796   0.065   4.942  1.3133  0.9173  0.9559
  508MOL0     H70102   0.854   0.355   4.730  1.0061 -3.2083 -1.6669
  508MOL0     H70103   0.737   0.265   4.835  0.7271  1.6495 -0.2337
  508MOL0     H70104   0.888   0.347   4.901 -1.1111  2.0661  0.7874
  509MOL0     O70105   0.932   0.306  11.254  0.6190  0.0615 -0.0168
  509MOL0     C70106   0.919   0.339  11.368  0.0392  0.0231  0.4078
  509MOL0     O70107   0.828   0.285  11.462 -1.0883  0.3053 -0.7351
  509MOL0     C70108   0.761   0.167  11.455 -0.4932 -0.1569  0.5786
  509MOL0     C70109   0.734   0.098  11.336  0.2346  0.2479  0.0421
  509MOL0     C70110   0.661  -0.020  11.341  0.0190 -0.6816  0.0330
  509MOL0     C70111   0.616  -0.076  11.461  1.0021  0.4019 -0.3762
  509MOL0     O70112   0.528  -0.188  11.466 -0.0837 -0.2374  1.0917
  509MOL0     C70113   0.394  -0.157  11.406  0.4259  0.2104  0.0501
  509MOL0     C70114   0.282  -0.175  11.506 -0.3052  0.1800 -0.3620
  509MOL0     C70115   0.287  -0.070  11.629 -0.2710 -0.2238 -0.3585
  509MOL0     C70116   0.235  -0.137  11.754  0.5678  0.3455 -0.2887
  509MOL0     C70117   0.250  -0.045  11.870 -0.2161 -0.5588 -0.5628
  509MOL0     C70118   0.130   0.050  11.886 -0.1159 -0.0024  0.6862
  509MOL0     C70119   0.156   0.108  12.025  0.1153  0.3222 -1.0651
  509MOL0     C70120   0.034   0.174  12.075 -0.3291  0.3188  0.2850
  509MOL0     N70121   0.049   0.238  12.206 -0.9149 -0.9271  0.5495
  509MOL0     C70122   0.058   0.168  12.327  0.1251  0.4762  0.8938
  509MOL0     C70123   0.098   0.256  12.417 -0.4573 -0.4222 -0.3834
  509MOL0     C70124   0.133   0.235  12.571  0.6990  0.8965  1.0230
  509MOL0     C70125   0.027   0.276  12.675 -0.1740 -0.6495 -0.3540
  509MOL0     C70126   0.084   0.225  12.813 -0.5220 -0.4385  0.4726
  509MOL0     C70127   0.006   0.292  12.922 -0.6301 -0.3214 -0.6351
  509MOL0     O70128   0.067   0.286  13.055  0.2486  0.6837 -0.2520
  509MOL0     C70129   0.023   0.181  13.135  0.1183  0.6151  0.0129
  509MOL0     C70130   0.055   0.184  13.272  0.3792  0.0601  0.1650
  509MOL0     C70131   0.031   0.074  13.358  0.3748  0.4237  0.3998
  509MOL0     C70132   0.088   0.088  13.501 -0.1424  0.1583  0.4358
  509MOL0     C70133  -0.054  -0.034  13.312 -0.3661  0.6134  0.2739
  509MOL0     C70134  -0.117  -0.133  13.396 -0.2659  1.3153  0.2179
  509MOL0     O70135  -0.227  -0.200  13.342  0.1989  0.2180  0.2276
  509MOL0     C70136  -0.324  -0.267  13.416 -0.3829 -0.1997  0.7859
  509MOL0     C70137  -0.356  -0.398  13.388  0.4564 -0.7315  0.7695
  509MOL0     C70138  -0.442  -0.467  13.458 -0.2830  0.8141  0.2930
  509MOL0     C70139  -0.507  -0.423  13.571  0.4435 -0.5916 -0.4175
  509MOL0     O70140  -0.606  -0.499  13.626 -0.2103  0.9527  0.3934
  509MOL0     C70141  -0.592  -0.501  13.767  0.2722  0.7989 -0.6515
  509MOL0     C70142  -0.639  -0.637  13.833 -0.4665  0.7405  0.0850
  509MOL0     C70143  -0.787  -0.660  13.807 -0.0624  0.2407  0.2199
  509MOL0     C70144  -0.885  -0.560  13.858 -0.6614 -0.5302 -0.0165
  509MOL0     C70145  -1.016  -0.613  13.899  0.6839 -0.7040 -0.4368
  509MOL0     C70146  -0.998  -0.697  14.033 -0.4795  0.0290  1.0356
  509MOL0     C70147  -1.110  -0.662  14.119  0.4338  0.1763 -0.3467
  509MOL0     C70148  -1.127  -0.753  14.245 -0.3934 -0.3491 -0.5004
  509MOL0    Cl70149  -1.009  -0.738  14.378 -0.5155  0.6766  0.0090
  509MOL0     C70150  -0.480  -0.286  13.608 -0.5098 -0.9586  0.9382
  509MOL0     C70151  -0.390  -0.213  13.530 -1.3065  0.0975  0.6392
  509MOL0     O70152  -0.086  -0.135  13.511 -0.8890  0.4743  0.0702
  509MOL0     C70153  -0.092  -0.035  13.179  0.1388  1.2152 -0.9586
  509MOL0     C70154  -0.053   0.068  13.091  0.2485  0.1217 -0.5938
  509MOL0     N70155   0.114   0.380  12.361 -0.7173 -0.5969 -0.0002
  509MOL0     N70156   0.074   0.369  12.228 -0.2330 -0.0568  0.5537
  509MOL0     C70157   0.652  -0.017  11.581 -0.7813  0.2177  0.4197
  509MOL0     C70158   0.715   0.107  11.576  0.6489 -0.3829 -0.3911
  509MOL0     C70159   0.994   0.468  11.397 -0.8068  0.8379  0.2807
  509MOL0     C70160   0.928   0.547  11.493 -0.3937 -1.1830  0.1843
  509MOL0     C70161   0.986   0.668  11.533  0.2921  0.5161 -0.8172
  509MOL0     C70162   1.111   0.698  11.484  0.2015 -0.7274  0.5150
  509MOL0     O70163   1.165   0.818  11.540  0.3326  0.5307  0.4153
  509MOL0     C70164   1.278   0.879  11.481  0.2815 -0.3410 -0.1387
  509MOL0     C70165   1.328   0.986  11.581 -0.5481  0.0459  0.0167
  509MOL0     C70166   1.205   1.053  11.646 -0.1935  0.1004 -0.5405
  509MOL0     C70167   1.254   1.180  11.728  0.8611  0.2257 -0.2114
  509MOL0     C70168   1.146   1.247  11.802 -0.2431 -1.0222  0.3393
  509MOL0     C70169   1.055   1.302  11.851 -0.2858  0.7012  0.0615
  509MOL0     C70170   1.174   0.626  11.387  1.2130  0.5113  0.9066
  509MOL0     C70171   1.115   0.520  11.338  0.4570  1.6677  0.0971
  509MOL0     C70172   1.183   0.451  11.222 -0.0514  0.5449 -0.3536
  509MOL0     H70173   0.762   0.129  11.236 -1.9261  1.4275 -0.2555
  509MOL0     H70174   0.631  -0.070  11.249 -2.8232 -0.7998  0.9315
  509MOL0     H70175   0.377  -0.234  11.331 -2.2851 -3.0110  3.5769
  509MOL0     H70176   0.395  -0.054  11.370 -2.3240  0.8639  1.5675
  509MOL0     H70177   0.191  -0.149  11.451  0.4543 -0.1012 -1.8006
  509MOL0     H70178   0.273  -0.277  11.545  0.5281 -0.1499 -1.0224
  509MOL0     H70179   0.385  -0.021  11.627 -1.6042  2.6202 -1.6979
  509MOL0     H70180   0.234   0.023  11.608  1.5305  0.9122 -0.1648
  509MOL0     H70181   0.129  -0.154  11.734 -0.5845  3.1227  2.5748
  509MOL0     H70182   0.284  -0.232  11.774 -0.0160  0.2598  0.7720
  509MOL0     H70183   0.343   0.012  11.868 -0.6272  0.2939  1.4825
  509MOL0     H70184   0.246  -0.105  11.961  3.0540 -0.0596  0.0187
  509MOL0     H70185   0.127   0.122  11.804  0.7517  3.3805  3.3844
  509MOL0     H70186   0.038  -0.008  11.892 -0.2428 -0.4302 -3.0516
  509MOL0     H70187   0.233   0.185  12.021 -0.5392  1.0736  0.2966
  509MOL0     H70188   0.184   0.027  12.094  1.1975  2.0256  0.5955
  509MOL0     H70189  -0.002   0.254  12.010  2.2930  0.9146 -0.5428
  509MOL0     H70190  -0.050   0.104  12.067 -0.9652  1.1707 -0.7032
  509MOL0     H70191   0.050   0.061  12.344 -1.5706  0.7297  1.9517
  509MOL0     H70192   0.222   0.295  12.590  0.9648  0.9549 -0.2630
  509MOL0     H70193   0.155   0.128  12.579  0.3197  0.5812 -1.2469
  509MOL0     H70194   0.010   0.384  12.678  1.4978 -0.3545 -0.6842
  509MOL0     H70195  -0.065   0.218  12.660  1.2548 -3.6742  1.4420
  509MOL0     H70196   0.055   0.119  12.813 -1.0834 -0.3434 -2.3672
  509MOL0     H70197   0.192   0.240  12.820 -0.3164 -1.4888 -0.2597
  509MOL0     H70198  -0.004   0.399  12.899  0.6940 -0.0392  0.0095
  509MOL0     H70199  -0.096   0.252  12.918 -0.5506 -0.6030  0.0787
  509MOL0     H70200   0.125   0.265  13.293  0.2726  0.5588 -1.2514
  509MOL0     H70201   0.005   0.071  13.571  0.3245  3.1393  1.8814
  509MOL0     H70202   0.124   0.186  13.532  3.1640  0.1170 -2.7299
  509MOL0     H70203   0.171   0.017  13.512 -0.3268 -0.8261 -3.3331
  509MOL0     H70204  -0.311  -0.445  13.300 -2.5908 -0.3000 -1.1621
  509MOL0     H70205  -0.470  -0.567  13.427 -5.0092  1.4897  1.6116
  509MOL0     H70206  -0.488  -0.481  13.794 -0.2579 -0.1287  2.5785
  509MOL0     H70207  -0.642  -0.418  13.818  1.9116  0.0073  2.5063
  509MOL0     H70208  -0.569  -0.710  13.790  1.9078  2.0065  1.5983
  509MOL0     H70209  -0.627  -0.622  13.940 -1.7527  0.0812  0.3351
  509MOL0     H70210  -0.800  -0.747  13.872 -1.4062  0.5750  0.4213
  509MOL0     H70211  -0.807  -0.690  13.704  0.4675  0.1155  0.1485
  509MOL0     H70212  -0.896  -0.472  13.793  0.2967 -0.8950 -0.7024
  509MOL0     H70213  -0.838  -0.511  13.944  0.9848 -1.2087 -0.4784
  509MOL0     H70214  -1.088  -0.532  13.912  0.9036 -0.6289  0.4300
  509MOL0     H70215  -1.053  -0.683  13.823 -2.7299 -2.3254  2.4182
  509MOL0     H70216  -0.908  -0.656  14.079  0.4614  0.4759 -1.0838
  509MOL0     H70217  -1.010  -0.800  13.998 -2.2772  0.7363 -0.6496
  509MOL0     H70218  -1.201  -0.656  14.059  1.3083 -0.9437 -1.8789
  509MOL0     H70219  -1.092  -0.559  14.150  0.5603  1.0683 -3.1621
  509MOL0     H70220  -1.112  -0.858  14.216 -0.8627 -0.7572  0.6585
  509MOL0     H70221  -1.227  -0.746  14.289 -0.8246  4.1690 -1.6928
  509MOL0     H70222  -0.525  -0.232  13.691  3.2406  2.9133  0.7537
  509MOL0     H70223  -0.370  -0.112  13.562  1.5916 -0.0209 -0.5100
  509MOL0     H70224  -0.145  -0.116  13.128  0.5686 -0.3464  0.9563
  509MOL0     H70225  -0.101   0.061  12.994 -0.5390 -4.2864 -0.0965
  509MOL0     H70226   0.625  -0.082  11.664  1.7575 -3.8638 -1.6049
  509MOL0     H70227   0.743   0.169  11.661  2.0964  1.1652 -1.9078
  509MOL0     H70228   0.834   0.505  11.528  0.0619 -2.2053  0.2091
  509MOL0     H70229   0.936   0.734  11.604  2.2083  0.5952  0.5603
  509MOL0     H70230   1.350   0.797  11.470 -2.6769 -3.6688  2.6683
  509MOL0     H70231   1.239   0.922  11.389 -0.1452  0.8286  0.5651
  509MOL0     H70232   1.392   1.054  11.523  2.3793 -1.7900  0.8578
  509MOL0     H70233   1.405   0.942  11.646  1.4765 -2.0449 -3.4658
  509MOL0     H70234   1.123   1.081  11.580 -2.1489  1.9280  2.3838
  509MOL0     H70235   1.149   0.987  11.713  2.0032  0.5327  1.9247
  509MOL0     H70236   1.306   1.248  11.659  0.7370  0.5449  0.0092
  509MOL0     H70237   1.337   1.151  11.794 -0.1913  1.0858  1.5649
  509MOL0     H70238   0.976   1.361  11.892  0.2913  0.4000  1.6790
  509MOL0     H70239   1.268   0.659  11.344  0.4992  0.5422 -0.7225
  509MOL0     H70240   1.286   0.487  11.213 -0.7203  3.4998  2.1195
  509MOL0     H70241   1.191   0.344  11.244 -3.1339  0.7087  2.3379
  509MOL0     H70242   1.129   0.474  11.129  1.2325 -1.4665 -1.6716
  510MOL0     O70243   6.702   6.075   9.987 -0.9176  0.8371  0.2306
  510MOL0     C70244   6.811   6.024   9.961 -0.9923  0.6894 -0.1268
  510MOL0     O70245   6.874   6.023   9.833 -0.6482  0.6238 -0.2732
  510MOL0     C70246   6.824   6.083   9.720  0.5011  1.2315 -0.6645
  510MOL0     C70247   6.694   6.049   9.673  0.2464 -0.3949 -0.8497
  510MOL0     C70248   6.657   6.116   9.560 -0.1273  0.2594  0.1066
  510MOL0     C70249   6.738   6.201   9.483  0.4218  0.0342  0.2772
  510MOL0     O70250   6.699   6.277   9.371 -0.0490 -0.1097 -0.2234
  510MOL0     C70251   6.572   6.260   9.317  0.1444  0.3580  0.8598
  510MOL0     C70252   6.539   6.320   9.187 -0.8483  0.2587  0.5943
  510MOL0     C70253   6.524   6.472   9.195 -0.2641 -0.5048 -0.7343
  510MOL0     C70254   6.503   6.541   9.060  1.5977 -0.4164  0.3083
  510MOL0     C70255   6.513   6.694   9.077 -0.1713 -0.3561 -0.9656
  510MOL0     C70256   6.499   6.763   8.949  0.6615  0.3679 -1.1124
  510MOL0     C70257   6.542   6.914   8.959 -0.3247 -0.2352  0.1316
  510MOL0     C70258   6.480   6.994   9.077 -0.1317 -0.5829 -0.2886
  510MOL0     N70259   6.508   7.137   9.069 -0.6689 -0.1288 -0.5571
  510MOL0     C70260   6.555   7.217   9.165  0.0666  0.2911 -1.1706
  510MOL0     C70261   6.558   7.342   9.106  0.2966 -0.4521  0.3440
  510MOL0     C70262   6.605   7.463   9.179 -0.4344  0.5249 -0.0525
  510MOL0     C70263   6.749   7.434   9.219  0.4778  0.3936 -0.6532
  510MOL0     C70264   6.839   7.547   9.279 -0.0641  0.0060  0.0166
  510MOL0     C70265   6.969   7.491   9.329 -0.7225  0.3153  0.0834
  510MOL0     O70266   7.053   7.451   9.216  0.1141 -0.2883  0.4610
  510MOL0     C70267   7.159   7.371   9.235  0.2697  0.7281 -0.3503
  510MOL0     C70268   7.239   7.371   9.121 -0.3607  0.0737 -0.3125
  510MOL0     C70269   7.370   7.317   9.141  0.0649  0.4246  0.1470
  510MOL0     C70270   7.461   7.324   9.028 -0.3524 -0.3341  0.3722
  510MOL0     C70271   7.406   7.261   9.266 -0.2800 -0.2453 -0.5912
  510MOL0     C70272   7.541   7.201   9.294 -0.0839 -0.1849  0.2329
  510MOL0     O70273   7.550   7.095   9.385 -0.1614 -0.7472 -0.3950
  510MOL0     C70274   7.605   6.979   9.341 -0.8495 -0.2864  1.3993
  510MOL0     C70275   7.580   6.927   9.207 -0.4990  0.0546  0.3592
  510MOL0     C70276   7.626   6.796   9.169  0.5131 -0.3767  0.9485
  510MOL0     C70277   7.700   6.714   9.261 -0.0811 -0.4478  1.1566
  510MOL0     O70278   7.764   6.604   9.214  0.5280 -0.3860  1.2787
  510MOL0     C70279   7.875   6.565   9.308 -0.3719 -0.4265 -0.4483
  510MOL0     C70280   7.969   6.456   9.245 -0.0196 -0.1832 -1.0944
  510MOL0     C70281   8.098   6.446   9.340 -0.4947 -0.4060 -0.0394
  510MOL0     C70282   8.232   6.419   9.258 -0.5398 -0.0750 -0.8783
  510MOL0     C70283   8.217   6.374   9.106 -0.5361 -0.5405 -0.7986
  510MOL0     C70284   8.333   6.303   9.046 -0.5068 -0.3596  0.2875
  510MOL0     C70285   8.472   6.374   9.073  1.0326  0.3154  0.0309
  510MOL0     C70286   8.593   6.319   8.998  0.8633  0.3665  0.8203
  510MOL0    Cl70287   8.746   6.325   9.108 -0.1569  0.1208  0.0946
  510MOL0     C70288   7.715   6.768   9.392 -0.0300 -0.3046  0.0676
  510MOL0     C70289   7.657   6.890   9.433  0.8701 -0.0636  0.2848
  510MOL0     O70290   7.635   7.231   9.224 -0.6195  0.9863 -0.1563
  510MOL0     C70291   7.319   7.271   9.378  0.0568  0.5469  0.3749
  510MOL0     C70292   7.195   7.318   9.361  1.0051 -0.8764 -0.8140
  510MOL0     N70293   6.527   7.326   8.967  0.1376 -0.2876 -0.5822
  510MOL0     N70294   6.499   7.200   8.951 -0.3836 -0.0716 -0.7130
  510MOL0     C70295   6.866   6.222   9.531 -0.1898 -0.9007  0.1411
  510MOL0     C70296   6.907   6.171   9.649 -0.2361 -0.5045 -1.1391
  510MOL0     C70297   6.880   5.928  10.056  0.4510  1.3486 -0.0600
  510MOL0     C70298   6.990   5.850  10.018  0.0481  0.1523  0.2835
  510MOL0     C70299   7.045   5.743  10.081  0.0753  1.1501 -0.9535
  510MOL0     C70300   6.991   5.713  10.203  0.4770  0.3996 -0.1724
  510MOL0     O70301   7.056   5.609  10.278  0.9865 -0.1307  0.2200
  510MOL0     C70302   6.996   5.570  10.405  0.5375 -0.8391  0.1739
  510MOL0     C70303   6.866   5.503  10.383  0.1648  0.0123 -0.5493
  510MOL0     C70304   6.878   5.354  10.407 -0.3781 -0.1180 -0.1497
  510MOL0     C70305   6.884   5.316  10.550 -0.2340 -0.9599 -0.4359
  510MOL0     C70306   7.020   5.270  10.588  0.2388 -0.3874  1.4089
  510MOL0     C70307   7.128   5.229  10.612 -0.6892 -0.0620 -0.6231
  510MOL0     C70308   6.878   5.788  10.258  0.1812  0.3205  0.5020
  510MOL0     C70309   6.835   5.901  10.187 -0.2898 -0.8364 -0.1490
  510MOL0     C70310   6.719   5.978  10.254 -0.1759  0.0381  0.3392
  510MOL0     H70311   6.634   5.975   9.725  0.6506 -0.9928 -1.2225
  510MOL0     H70312   6.556   6.095   9.528 -0.8573  0.2461  2.2725
  510MOL0     H70313   6.506   6.300   9.394 -2.6171 -3.3478  0.7237
  510MOL0     H70314   6.557   6.153   9.297  2.7592  0.3681 -1.7792
  510MOL0     H70315   6.620   6.301   9.115 -1.6537 -2.1974  0.2565
  510MOL0     H70316   6.444   6.280   9.152 -0.8588 -1.2030  2.1979
  510MOL0     H70317   6.438   6.510   9.253 -0.0312  2.1583 -1.9648
  510MOL0     H70318   6.621   6.507   9.230 -0.7564  0.5138 -0.3278
  510MOL0     H70319   6.577   6.500   8.991 -3.3490 -2.5088 -4.4797
  510MOL0     H70320   6.406   6.510   9.019  2.2261 -1.7060 -0.2514
  510MOL0     H70321   6.614   6.712   9.113 -1.8391  2.1733  3.2360
  510MOL0     H70322   6.448   6.722   9.161  0.6479  1.3010 -0.8480
  510MOL0     H70323   6.566   6.719   8.875  0.6970 -2.5789  0.5367
  510MOL0     H70324   6.394   6.756   8.920 -0.2364 -0.2064  1.8800
  510MOL0     H70325   6.508   6.956   8.864 -0.8313 -0.7045  0.0996
  510MOL0     H70326   6.649   6.923   8.978  0.1519  0.2635 -2.4516
  510MOL0     H70327   6.374   6.966   9.067 -0.4203  0.2369  0.3906
  510MOL0     H70328   6.515   6.952   9.172 -0.3957 -1.6216 -0.6357
  510MOL0     H70329   6.584   7.196   9.267 -0.0585 -1.5657 -1.4886
  510MOL0     H70330   6.548   7.496   9.267 -0.6751  5.1537 -1.6724
  510MOL0     H70331   6.608   7.544   9.106 -1.9326 -1.7262 -2.7883
  510MOL0     H70332   6.746   7.360   9.300 -1.4406  2.8951  1.7572
  510MOL0     H70333   6.801   7.399   9.130  1.9066 -0.4124  0.4446
  510MOL0     H70334   6.863   7.630   9.213  1.9406 -2.6389 -2.8558
  510MOL0     H70335   6.796   7.575   9.376 -0.8724  1.2624 -0.6779
  510MOL0     H70336   7.026   7.550   9.401  1.8773 -2.4752  0.5461
  510MOL0     H70337   6.946   7.406   9.394  0.4210  0.7826  1.1364
  510MOL0     H70338   7.214   7.403   9.021  0.7253 -4.0910 -2.1463
  510MOL0     H70339   7.543   7.392   9.055 -0.8302 -0.6542  2.9139
  510MOL0     H70340   7.408   7.358   8.939  0.9254  0.6114 -0.0603
  510MOL0     H70341   7.498   7.222   9.014  2.1562 -0.1931  4.2879
  510MOL0     H70342   7.539   6.992   9.130  0.1701 -1.6681 -1.5649
  510MOL0     H70343   7.639   6.759   9.067  3.8120 -1.3913  1.6135
  510MOL0     H70344   7.934   6.655   9.326  0.4181 -0.8745 -0.7634
  510MOL0     H70345   7.837   6.517   9.399  1.3204  0.2211  0.6373
  510MOL0     H70346   7.922   6.358   9.231 -3.0911  0.8409  0.9225
  510MOL0     H70347   7.992   6.476   9.140 -0.3092 -0.8060 -1.2744
  510MOL0     H70348   8.082   6.380   9.425  0.9645  1.1970  1.5615
  510MOL0     H70349   8.114   6.543   9.387 -1.1925  0.4758 -1.5133
  510MOL0     H70350   8.282   6.346   9.323  2.7704  1.4842 -1.4694
  510MOL0     H70351   8.285   6.514   9.266  0.1322 -0.5093  0.0757
  510MOL0     H70352   8.139   6.297   9.104  0.3349 -1.4493 -0.6912
  510MOL0     H70353   8.180   6.462   9.054  0.2781  0.0350 -0.4291
  510MOL0     H70354   8.317   6.311   8.938  0.3355 -0.2544  0.1617
  510MOL0     H70355   8.325   6.198   9.075  3.1416 -0.5351  1.1337
  510MOL0     H70356   8.498   6.357   9.178  5.1944 -2.7490 -1.2372
  510MOL0     H70357   8.462   6.482   9.055  0.0384  0.8551  3.2050
  510MOL0     H70358   8.606   6.366   8.901  0.5970 -2.3282 -0.6160
  510MOL0     H70359   8.563   6.215   8.988 -0.6741  0.7218  1.4625
  510MOL0     H70360   7.757   6.694   9.460  0.3440 -2.2265 -2.1154
  510MOL0     H70361   7.657   6.937   9.531 -0.4998 -0.6059  0.5583
  510MOL0     H70362   7.356   7.230   9.471  0.9389 -0.0774 -0.2379
  510MOL0     H70363   7.145   7.327   9.457  3.0595 -2.7002  0.5170
  510MOL0     H70364   6.929   6.281   9.466 -0.8321  0.1964  0.4893
  510MOL0     H70365   7.006   6.202   9.681  0.0064 -2.3851  0.0280
  510MOL0     H70366   7.043   5.877   9.927  1.0090  1.0897  1.0852
  510MOL0     H70367   7.132   5.693  10.040 -1.1417 -1.6263 -0.3909
  510MOL0     H70368   7.068   5.504  10.454  1.1678 -0.4756 -0.2450
  510MOL0     H70369   6.978   5.657  10.469  2.7589  0.9274 -1.4317
  510MOL0     H70370   6.835   5.522  10.280 -0.5125 -0.3361 -0.4168
  510MOL0     H70371   6.789   5.550  10.445  0.4867  1.4430 -1.1854
  510MOL0     H70372   6.795   5.296  10.367  0.2379 -1.6239  0.6812
  510MOL0     H70373   6.958   5.313  10.344 -0.6190  0.1480 -0.6348
  510MOL0     H70374   6.809   5.238  10.568  0.6655 -2.0695 -1.3345
  510MOL0     H70375   6.856   5.402  10.612  1.1023  0.5649 -1.8423
  510MOL0     H70376   7.221   5.194  10.652  0.2405 -0.2810 -2.8403
  510MOL0     H70377   6.830   5.767  10.353  2.6279 -1.4117  1.4544
  510MOL0     H70378   6.624   5.980  10.199 -0.2373  0.2561  0.4504
  510MOL0     H70379   6.691   5.940  10.352 -3.2489 -0.6513 -0.6944
  510MOL0     H70380   6.734   6.086  10.262 -2.0507  0.5814 -2.0673
  511MOL0     O70381   2.304   9.446  11.089  0.1609 -0.0309 -0.0273
  511MOL0     C70382   2.296   9.334  11.034  0.3077 -0.3310 -0.3219
  511MOL0     O70383   2.406   9.255  11.009  0.2993 -0.6267 -0.2087
  511MOL0     C70384   2.533   9.307  11.018  0.1963  0.4565  0.7125
  511MOL0     C70385   2.637   9.219  11.047  0.0569  0.4999 -0.5902
  511MOL0     C70386   2.776   9.255  11.033 -0.7403  0.4841  0.0733
  511MOL0     C70387   2.810   9.386  11.000 -1.2835  0.0381  0.4663
  511MOL0     O70388   2.947   9.419  10.967  0.2882  0.7633  0.1592
  511MOL0     C70389   2.976   9.558  10.969 -0.2179  0.5801 -0.3873
  511MOL0     C70390   3.128   9.584  10.977  0.1801  0.7245 -0.6410
  511MOL0     C70391   3.212   9.554  10.848  0.2372 -0.0839 -0.5074
  511MOL0     C70392   3.359   9.508  10.886 -0.1816  0.7149  0.0046
  511MOL0     C70393   3.440   9.498  10.755  0.5165  0.5677  0.5366
  511MOL0     C70394   3.547   9.387  10.758  0.2399 -0.5133  0.7831
  511MOL0     C70395   3.685   9.421  10.821 -0.8068 -0.3362 -0.2870
  511MOL0     C70396   3.748   9.525  10.739 -0.4354  0.2769 -0.4860
  511MOL0     N70397   3.876   9.556  10.793  0.9051 -0.4298  0.4900
  511MOL0     C70398   3.949   9.644  10.723  0.0459 -0.6723 -1.2346
  511MOL0     C70399   4.073   9.612  10.752  0.2217 -0.4003 -0.9391
  511MOL0     C70400   4.184   9.680  10.691 -0.4041 -0.7402  1.3066
  511MOL0     C70401   4.246   9.790  10.779  0.5813  0.2119 -0.0811
  511MOL0     C70402   4.372   9.866  10.720  0.8982 -0.3758  0.1767
  511MOL0     C70403   4.353   9.901  10.568  0.7099  1.0582  1.4527
  511MOL0     O70404   4.223   9.969  10.544 -1.3922 -0.3949 -0.7087
  511MOL0     C70405   4.214  10.063  10.442  0.3707 -0.4247  0.0195
  511MOL0     C70406   4.246  10.030  10.319  0.0864 -0.0371  0.0471
  511MOL0     C70407   4.252  10.120  10.216  0.2741  0.9548 -0.4210
  511MOL0     C70408   4.299  10.063  10.084  0.3688 -0.2884  0.2225
  511MOL0     C70409   4.225  10.256  10.245 -0.4793  0.1596 -0.3701
  511MOL0     C70410   4.207  10.367  10.139 -0.4968 -0.0847  1.0823
  511MOL0     O70411   4.181  10.492  10.184 -0.8675  0.2426 -0.2584
  511MOL0     C70412   4.167  10.605  10.101  0.2963  0.1096 -0.1269
  511MOL0     C70413   4.269  10.707  10.108 -1.3116 -0.4067  1.1897
  511MOL0     C70414   4.273  10.815  10.016 -0.2153  0.2126  0.6192
  511MOL0     C70415   4.162  10.830   9.928  1.0752  0.0445  0.5922
  511MOL0     O70416   4.141  10.941   9.852 -0.6175 -0.5377 -0.7947
  511MOL0     C70417   4.242  11.035   9.837  0.7456 -0.0822 -1.2102
  511MOL0     C70418   4.210  11.140   9.728  0.4737  0.0387 -0.8467
  511MOL0     C70419   4.324  11.243   9.711 -0.1876 -0.4655  0.2264
  511MOL0     C70420   4.278  11.339   9.601 -0.0142  0.1039 -0.1645
  511MOL0     C70421   4.392  11.448   9.576  0.2699  0.8617  0.2691
  511MOL0     C70422   4.396  11.480   9.430 -0.7237 -0.0040 -1.0150
  511MOL0     C70423   4.500  11.593   9.411  0.2962  0.3294 -0.2865
  511MOL0     C70424   4.552  11.601   9.272 -0.9010 -0.1078  0.2495
  511MOL0    Cl70425   4.419  11.654   9.178 -0.0640 -0.2340 -0.0667
  511MOL0     C70426   4.061  10.740   9.940  0.4169  0.0615 -0.3887
  511MOL0     C70427   4.057  10.626  10.027  0.2821 -0.1562 -1.1067
  511MOL0     O70428   4.222  10.340  10.015  0.1850 -0.0512  0.2151
  511MOL0     C70429   4.196  10.293  10.375 -0.6396 -0.6586 -0.5710
  511MOL0     C70430   4.189  10.196  10.475  1.3763  0.0160  0.2789
  511MOL0     N70431   4.075   9.508  10.851 -0.2129 -0.2687  0.8614
  511MOL0     N70432   3.950   9.475  10.875  0.0855 -1.0506 -0.0815
  511MOL0     C70433   2.705   9.475  10.968  0.4552  0.1768 -0.3226
  511MOL0     C70434   2.571   9.437  10.986  0.2623  1.1396 -0.0785
  511MOL0     C70435   2.163   9.270  11.007  0.7862  0.3969 -0.9102
  511MOL0     C70436   2.148   9.136  11.039 -0.5641 -0.1611 -0.6992
  511MOL0     C70437   2.033   9.064  11.031  0.1478  0.5235 -0.2553
  511MOL0     C70438   1.918   9.129  10.984 -0.2294  1.5316 -0.6221
  511MOL0     O70439   1.800   9.060  10.965  0.4259 -0.1830  0.2078
  511MOL0     C70440   1.815   8.941  10.884 -0.3957  0.1712  0.2361
  511MOL0     C70441   1.764   8.811  10.965 -0.3857  0.0589  0.6009
  511MOL0     C70442   1.823   8.682  10.903  0.6503 -0.1262 -0.0008
  511MOL0     C70443   1.970   8.645  10.926  0.8994  0.6879 -0.9281
  511MOL0     C70444   2.053   8.678  10.802  0.6147 -0.3031 -0.5943
  511MOL0     C70445   2.126   8.719  10.714  0.6438  0.4469  0.1004
  511MOL0     C70446   1.927   9.267  10.959 -0.9216  0.6783  0.6400
  511MOL0     C70447   2.047   9.338  10.969 -0.2326 -0.9989 -0.4921
  511MOL0     C70448   2.049   9.484  10.926  0.4173  0.2069 -0.4670
  511MOL0     H70449   2.608   9.115  11.060  0.8705  0.2006 -1.0912
  511MOL0     H70450   2.855   9.181  11.045 -1.3607  0.1826  2.8238
  511MOL0     H70451   2.938   9.597  11.064  1.8358  1.7366  0.0181
  511MOL0     H70452   2.934   9.612  10.883 -1.0955  1.0213  0.3076
  511MOL0     H70453   3.154   9.682  11.017 -0.3517 -0.1584  2.0524
  511MOL0     H70454   3.170   9.524  11.058 -1.2964  1.3239  0.6156
  511MOL0     H70455   3.161   9.476  10.791  0.2057  0.7273 -1.6181
  511MOL0     H70456   3.212   9.649  10.795  1.6061  1.5958  2.2406
  511MOL0     H70457   3.411   9.569  10.960 -2.1945  2.3803  0.1417
  511MOL0     H70458   3.339   9.411  10.933 -0.8970  1.2317  0.8037
  511MOL0     H70459   3.486   9.595  10.735 -0.2733  0.6776 -0.8491
  511MOL0     H70460   3.371   9.482  10.672 -1.0589  3.5853  1.1353
  511MOL0     H70461   3.502   9.299  10.805 -3.3839  0.9130  0.2848
  511MOL0     H70462   3.571   9.356  10.656 -1.1585  0.8857 -0.0124
  511MOL0     H70463   3.746   9.331  10.835  1.2381  1.1305  0.8992
  511MOL0     H70464   3.669   9.452  10.925 -3.0341 -3.4903  0.4486
  511MOL0     H70465   3.755   9.490  10.636  1.6781 -1.5876  0.1806
  511MOL0     H70466   3.693   9.619  10.744  0.1384  0.5702  0.6684
  511MOL0     H70467   3.926   9.730  10.661 -2.5088  0.4894  1.1012
  511MOL0     H70468   4.150   9.724  10.596 -2.3190 -0.1134  2.2339
  511MOL0     H70469   4.268   9.612  10.672  1.2544  1.1784  1.4270
  511MOL0     H70470   4.166   9.860  10.807  1.0403 -0.1959  2.5828
  511MOL0     H70471   4.284   9.748  10.872  0.7991  3.8504  1.6679
  511MOL0     H70472   4.381   9.965  10.767  4.5318  0.6501 -2.2874
  511MOL0     H70473   4.461   9.814  10.754  1.2489  1.0985  1.6573
  511MOL0     H70474   4.433   9.971  10.542 -0.1835  2.8978  3.3875
  511MOL0     H70475   4.365   9.812  10.505  1.7816  1.7537  0.6339
  511MOL0     H70476   4.245   9.928  10.284 -2.6851  0.3897 -1.4021
  511MOL0     H70477   4.215  10.048  10.016 -0.1320  2.9841 -0.0332
  511MOL0     H70478   4.366   9.977  10.085 -0.1609 -0.7223 -0.5235
  511MOL0     H70479   4.354  10.137  10.026 -1.5916  0.3164 -0.9476
  511MOL0     H70480   4.355  10.693  10.172  0.7199  0.2179 -1.2591
  511MOL0     H70481   4.355  10.886  10.007 -2.3311  2.6818 -0.8451
  511MOL0     H70482   4.250  11.103   9.923  2.6892  0.8000 -2.0247
  511MOL0     H70483   4.339  10.986   9.827  1.1316  0.1405  0.9140
  511MOL0     H70484   4.198  11.086   9.634  2.0657 -1.6978 -0.1197
  511MOL0     H70485   4.118  11.193   9.757  1.4476  0.2833  2.1491
  511MOL0     H70486   4.423  11.198   9.700  1.7744  1.7663  5.6090
  511MOL0     H70487   4.335  11.285   9.811  0.1095 -0.8881  0.3738
  511MOL0     H70488   4.185  11.383   9.639  0.4963 -1.2687  2.9374
  511MOL0     H70489   4.251  11.282   9.512  1.1089 -0.3720 -0.2182
  511MOL0     H70490   4.378  11.539   9.635  0.2343  1.1593 -0.1933
  511MOL0     H70491   4.487  11.401   9.602  0.8620  2.2227  0.7037
  511MOL0     H70492   4.299  11.526   9.409 -2.3506 -2.5740  0.3162
  511MOL0     H70493   4.416  11.390   9.370  1.1922 -0.8634  0.7477
  511MOL0     H70494   4.581  11.557   9.476  0.2042 -2.1589 -1.4289
  511MOL0     H70495   4.452  11.687   9.438 -0.2735 -0.1058  0.2464
  511MOL0     H70496   4.590  11.500   9.254  0.4349  0.3227  0.5863
  511MOL0     H70497   4.636  11.671   9.271 -1.8096  1.3389  4.2453
  511MOL0     H70498   3.976  10.758   9.875 -1.7489 -0.6225  2.0834
  511MOL0     H70499   3.976  10.555  10.034  1.5225 -1.4327  3.1547
  511MOL0     H70500   4.179  10.393  10.412  3.6626  0.2443 -0.4593
  511MOL0     H70501   4.146  10.216  10.572 -1.1794 -2.9987 -0.0863
  511MOL0     H70502   2.725   9.569  10.918  1.6659 -0.5215 -1.2144
  511MOL0     H70503   2.497   9.509  10.953 -1.8510  0.7430  3.2667
  511MOL0     H70504   2.239   9.091  11.076 -0.4023  0.8257  0.1459
  511MOL0     H70505   2.032   8.964  11.074  1.0198  0.0930 -1.1818
  511MOL0     H70506   1.750   8.945  10.797  0.1430  0.5044 -0.1611
  511MOL0     H70507   1.921   8.917  10.868 -0.6198 -1.2327  0.6625
  511MOL0     H70508   1.655   8.803  10.952 -0.6464 -1.0895  3.0435
  511MOL0     H70509   1.790   8.811  11.071  0.6455 -1.9044  0.3796
  511MOL0     H70510   1.757   8.613  10.957  0.7135  1.9210  2.9162
  511MOL0     H70511   1.797   8.688  10.796 -1.2209  2.4314  0.4968
  511MOL0     H70512   1.979   8.536  10.930 -0.3171  0.1737 -5.6117
  511MOL0     H70513   2.019   8.694  11.011  0.2111 -1.6399  0.8939
  511MOL0     H70514   2.199   8.742  10.639  3.5422 -1.2434  2.1930
  511MOL0     H70515   1.843   9.320  10.917 -1.2052  2.5189  3.2670
  511MOL0     H70516   2.152   9.506  10.895  0.2127  2.2232  0.1555
  511MOL0     H70517   1.985   9.500  10.839  2.1542  2.8195 -1.4272
  511MOL0     H70518   2.016   9.550  11.007  1.1650 -3.7465  3.4325
  512MOL0     O70519   9.000   5.875   6.994  0.4188 -0.2014  0.0994
  512MOL0     C70520   8.923   5.783   7.001 -1.3010 -0.7047  0.3933
  512MOL0     O70521   8.952   5.664   7.056 -0.6068 -0.0940  0.5778
  512MOL0     C70522   9.084   5.637   7.097  0.3769 -0.0776 -0.2845
  512MOL0     C70523   9.131   5.697   7.210 -0.0879  0.3541  0.2368
  512MOL0     C70524   9.260   5.661   7.247  0.1605  0.6144  0.8370
  512MOL0     C70525   9.335   5.575   7.169 -0.7641  0.4855  0.8367
  512MOL0     O70526   9.472   5.558   7.195 -0.3641 -0.4460  0.1338
  512MOL0     C70527   9.508   5.520   7.326 -0.2830 -0.0372 -0.3407
  512MOL0     C70528   9.587   5.632   7.391  0.0907  0.1507 -0.7434
  512MOL0     C70529   9.732   5.653   7.347  0.4997  0.0496  0.0596
  512MOL0     C70530   9.809   5.528   7.322 -0.4753  0.9553  0.4102
  512MOL0     C70531   9.958   5.553   7.288 -0.1360 -0.7481 -0.1753
  512MOL0     C70532  10.025   5.418   7.271  0.5272 -0.6673  0.3849
  512MOL0     C70533  10.176   5.434   7.277  0.4134 -0.0939 -0.3514
  512MOL0     C70534  10.260   5.361   7.165 -0.2040 -0.9358 -1.4206
  512MOL0     N70535  10.249   5.214   7.159  0.1925  0.6085 -0.0813
  512MOL0     C70536  10.329   5.131   7.240 -0.1868  0.7428  0.1185
  512MOL0     C70537  10.256   5.018   7.233 -0.4997 -0.9302  0.1061
  512MOL0     C70538  10.267   4.901   7.320 -0.5140  1.0880 -0.1161
  512MOL0     C70539  10.141   4.875   7.403  0.2640  1.1813 -0.2965
  512MOL0     C70540  10.164   4.747   7.482 -0.7572 -0.4484 -0.5412
  512MOL0     C70541  10.053   4.725   7.583 -0.4759  0.6573  0.4008
  512MOL0     O70542  10.069   4.615   7.679 -0.7509 -0.0249  0.0737
  512MOL0     C70543   9.972   4.511   7.667 -0.0692 -0.0991 -0.4491
  512MOL0     C70544   9.866   4.492   7.753 -0.4230 -0.1992  0.5034
  512MOL0     C70545   9.792   4.380   7.752  0.4220  0.5653 -0.1554
  512MOL0     C70546   9.671   4.383   7.839  0.4168 -0.6709  0.1741
  512MOL0     C70547   9.805   4.290   7.639  0.8198  0.1528 -0.5460
  512MOL0     C70548   9.712   4.183   7.594  0.1063  0.4892 -1.0463
  512MOL0     O70549   9.756   4.076   7.529 -0.4963  0.4987 -0.0351
  512MOL0     C70550   9.668   3.978   7.493  1.4087 -0.8098  0.1370
  512MOL0     C70551   9.550   4.002   7.410  0.0397  0.2781 -0.3719
  512MOL0     C70552   9.475   3.901   7.342  0.3139  0.4527 -0.1498
  512MOL0     C70553   9.520   3.768   7.366  0.6491  0.8127  0.1396
  512MOL0     O70554   9.454   3.663   7.313  0.2484  0.6163 -0.4330
  512MOL0     C70555   9.310   3.675   7.278  0.0321  0.2523  0.0978
  512MOL0     C70556   9.250   3.538   7.267 -0.4294  0.3246  1.2239
  512MOL0     C70557   9.099   3.543   7.212 -0.6603  0.9717  0.7543
  512MOL0     C70558   9.013   3.633   7.283  0.1556  0.2842  0.0983
  512MOL0     C70559   8.870   3.596   7.264 -0.6529 -0.2781 -0.4062
  512MOL0     C70560   8.820   3.593   7.121  0.0977  0.0031 -0.6948
  512MOL0     C70561   8.667   3.579   7.128  0.3811  0.4174  0.1165
  512MOL0     C70562   8.588   3.580   7.001  0.5132 -0.2690  0.0916
  512MOL0    Cl70563   8.421   3.654   7.030 -0.1650 -0.3508 -0.4168
  512MOL0     C70564   9.627   3.745   7.448  0.1122  0.7895 -0.8452
  512MOL0     C70565   9.703   3.845   7.513 -0.3940 -0.4582 -0.0720
  512MOL0     O70566   9.595   4.208   7.616 -0.5879  0.3174 -0.0513
  512MOL0     C70567   9.910   4.307   7.548 -0.5362  0.0212  0.1163
  512MOL0     C70568   9.995   4.417   7.561 -0.3110  1.1032 -0.2724
  512MOL0     N70569  10.150   5.028   7.143  0.3731  0.6303 -0.7674
  512MOL0     N70570  10.143   5.145   7.110 -0.0004  0.0825  0.0352
  512MOL0     C70571   9.288   5.518   7.052  0.0207  0.2414 -0.3060
  512MOL0     C70572   9.158   5.547   7.020  0.4774 -0.0813  0.0516
  512MOL0     C70573   8.776   5.804   6.964  0.7411  0.3115 -0.6497
  512MOL0     C70574   8.694   5.693   6.990  0.2636 -0.8420  0.0623
  512MOL0     C70575   8.551   5.702   6.983 -0.1664  0.1232  1.3219
  512MOL0     C70576   8.492   5.819   6.929 -0.6624 -0.0171  0.1267
  512MOL0     O70577   8.359   5.809   6.907 -0.2347 -0.3090  0.5433
  512MOL0     C70578   8.285   5.924   6.836  0.1517  0.4239 -0.3106
  512MOL0     C70579   8.135   5.900   6.839 -0.1025 -0.5218  0.6409
  512MOL0     C70580   8.109   5.779   6.756  0.1385  0.6402  0.1221
  512MOL0     C70581   7.948   5.744   6.743 -0.0466 -0.1505 -0.1294
  512MOL0     C70582   7.914   5.609   6.794 -0.7582  0.4579  0.1022
  512MOL0     C70583   7.876   5.506   6.819 -0.3702  0.4406 -0.2454
  512MOL0     C70584   8.573   5.925   6.902 -0.8503 -0.4390  0.0351
  512MOL0     C70585   8.717   5.920   6.920  0.4277  0.1420  0.2083
  512MOL0     C70586   8.799   6.041   6.874 -0.9138 -0.9935  0.5785
  512MOL0     H70587   9.074   5.756   7.281 -0.8058  1.0455 -0.8818
  512MOL0     H70588   9.303   5.718   7.329 -1.6030 -0.8543  2.8786
  512MOL0     H70589   9.565   5.427   7.316 -3.1548 -1.7922 -2.3486
  512MOL0     H70590   9.419   5.492   7.384  0.2353 -0.5557  0.2256
  512MOL0     H70591   9.527   5.719   7.361 -3.3621 -2.1522 -1.1421
  512MOL0     H70592   9.580   5.621   7.499 -0.0655 -1.1330 -0.8683
  512MOL0     H70593   9.723   5.693   7.245 -1.1134  1.7137  0.7877
  512MOL0     H70594   9.782   5.727   7.410 -0.3784  1.3318 -0.6984
  512MOL0     H70595   9.808   5.463   7.410 -0.6883  1.6132  0.9052
  512MOL0     H70596   9.758   5.471   7.245  0.3446  1.1776 -0.3086
  512MOL0     H70597  10.010   5.593   7.375  1.4590 -3.9952  0.5028
  512MOL0     H70598   9.950   5.627   7.208 -2.1082  0.6006  1.1484
  512MOL0     H70599   9.991   5.345   7.344 -1.5351  0.5809  0.7557
  512MOL0     H70600   9.991   5.383   7.173  2.4133 -2.1355  0.2000
  512MOL0     H70601  10.216   5.406   7.375 -1.6313  0.8177  0.7966
  512MOL0     H70602  10.198   5.540   7.262 -0.5384 -0.0974 -1.9936
  512MOL0     H70603  10.219   5.395   7.069 -1.7323  0.3977 -0.3608
  512MOL0     H70604  10.366   5.391   7.161 -0.3894 -0.3721 -2.5707
  512MOL0     H70605  10.423   5.143   7.291 -0.0160  1.0471 -0.2571
  512MOL0     H70606  10.354   4.905   7.386 -0.0721 -1.7672 -0.4008
  512MOL0     H70607  10.284   4.822   7.245 -0.9797  0.5745  0.3063
  512MOL0     H70608  10.117   4.959   7.469 -1.8048  0.7966 -0.4622
  512MOL0     H70609  10.052   4.864   7.340  0.4101 -2.7078 -0.0855
  512MOL0     H70610  10.170   4.662   7.413 -0.0624  0.8520 -2.1737
  512MOL0     H70611  10.262   4.740   7.529 -0.8054 -0.9763 -0.5122
  512MOL0     H70612  10.033   4.810   7.648  0.5083  0.2618  1.2580
  512MOL0     H70613   9.971   4.707   7.514 -0.5809  0.7240  0.5080
  512MOL0     H70614   9.853   4.572   7.824  0.0932  0.7190 -0.4152
  512MOL0     H70615   9.695   4.445   7.925  2.0595 -2.7689  1.3322
  512MOL0     H70616   9.654   4.284   7.882 -2.1056 -0.1591  0.5549
  512MOL0     H70617   9.576   4.415   7.794  0.1257  0.3204  1.4654
  512MOL0     H70618   9.506   4.101   7.399 -2.0048 -0.3657  1.3815
  512MOL0     H70619   9.391   3.932   7.281 -0.1527 -2.2265 -1.0138
  512MOL0     H70620   9.264   3.737   7.355  0.1028  2.1467 -1.3278
  512MOL0     H70621   9.297   3.730   7.185 -1.4865  1.3033  0.8970
  512MOL0     H70622   9.316   3.470   7.213 -0.0572  1.5511  0.0789
  512MOL0     H70623   9.229   3.500   7.368 -7.5329  2.3505  1.0802
  512MOL0     H70624   9.051   3.445   7.221 -2.4554  1.8447  1.2361
  512MOL0     H70625   9.109   3.575   7.108 -2.2204 -1.4472 -0.1940
  512MOL0     H70626   9.020   3.739   7.259  0.7665  0.6806  1.8808
  512MOL0     H70627   9.031   3.627   7.390  1.4254 -1.6743 -0.1598
  512MOL0     H70628   8.856   3.497   7.309 -0.1934 -0.8204 -1.4282
  512MOL0     H70629   8.827   3.678   7.322 -0.7993 -1.3434  1.0239
  512MOL0     H70630   8.874   3.512   7.070  1.0014  1.1747 -1.6472
  512MOL0     H70631   8.839   3.683   7.062 -2.9835  1.1978 -0.0531
  512MOL0     H70632   8.625   3.664   7.184 -0.8382  0.3219 -0.6098
  512MOL0     H70633   8.633   3.489   7.180  1.8159 -2.1077 -2.9851
  512MOL0     H70634   8.572   3.477   6.966  0.9469  0.1155 -1.3172
  512MOL0     H70635   8.646   3.643   6.933  0.2107 -0.7411 -0.6168
  512MOL0     H70636   9.649   3.643   7.479 -0.5567  1.0060  0.4294
  512MOL0     H70637   9.796   3.831   7.567  0.6205  0.2967 -1.5454
  512MOL0     H70638   9.938   4.249   7.461 -0.8593  1.1373 -0.7546
  512MOL0     H70639  10.080   4.427   7.494 -0.0978 -1.8059 -0.5914
  512MOL0     H70640   9.354   5.448   7.003  0.0685  0.8332 -1.1094
  512MOL0     H70641   9.115   5.506   6.930 -1.0231  3.2659 -0.9211
  512MOL0     H70642   8.726   5.603   7.042 -1.0873 -0.7727  1.0634
  512MOL0     H70643   8.487   5.620   7.013 -0.8396  1.2158  2.9840
  512MOL0     H70644   8.294   6.023   6.881 -1.6505  1.5642 -2.3001
  512MOL0     H70645   8.328   5.941   6.737  2.1411 -0.6658  0.2864
  512MOL0     H70646   8.095   5.983   6.781  1.1423  0.8455  1.6490
  512MOL0     H70647   8.089   5.892   6.937 -3.5778 -1.9413 -0.9336
  512MOL0     H70648   8.144   5.808   6.656  0.4348  1.7899  0.5390
  512MOL0     H70649   8.167   5.689   6.777  1.6733  1.1016 -1.8660
  512MOL0     H70650   7.912   5.759   6.641 -0.7641 -3.6412 -0.5172
  512MOL0     H70651   7.893   5.814   6.807 -0.4894 -2.5825  2.3408
  512MOL0     H70652   7.846   5.405   6.840  1.6266 -0.4498 -1.3718
  512MOL0     H70653   8.524   6.021   6.884 -2.0307 -1.0814 -0.3012
  512MOL0     H70654   8.810   6.103   6.964 -0.7873  0.0636 -0.1483
  512MOL0     H70655   8.900   6.024   6.836  0.0616  0.5514  2.2958
  512MOL0     H70656   8.745   6.084   6.789  1.0725 -0.5394 -0.5111
  513MOL0     O70657   3.438   7.465   5.903 -0.2270  0.5929  0.6043
  513MOL0     C70658   3.520   7.498   5.987 -0.7844 -1.3137  0.5770
  513MOL0     O70659   3.650   7.539   5.958  0.9660 -0.3737  0.5298
  513MOL0     C70660   3.671   7.575   5.824 -0.3397  0.0645 -0.0205
  513MOL0     C70661   3.617   7.688   5.768  0.0162 -0.3906 -0.3789
  513MOL0     C70662   3.646   7.711   5.633 -0.7821  0.1990 -0.0888
  513MOL0     C70663   3.734   7.620   5.563 -0.9219 -0.2044 -0.6563
  513MOL0     O70664   3.776   7.639   5.434  0.2115 -0.0898  0.7200
  513MOL0     C70665   3.799   7.767   5.372  0.2787  0.2025  0.5992
  513MOL0     C70666   3.938   7.814   5.380 -0.5881  0.3971 -0.3704
  513MOL0     C70667   4.045   7.704   5.356  0.2116 -0.5606 -0.3738
  513MOL0     C70668   4.193   7.757   5.363 -0.1031  0.1247  0.1669
  513MOL0     C70669   4.280   7.644   5.307 -0.4106 -0.2958  0.6571
  513MOL0     C70670   4.407   7.703   5.267 -0.1557 -0.4752 -0.0682
  513MOL0     C70671   4.508   7.601   5.213  0.8258 -0.2433  0.1195
  513MOL0     C70672   4.465   7.549   5.080 -0.5882 -0.1606 -0.1930
  513MOL0     N70673   4.567   7.463   5.024 -0.3710 -0.4019  1.2399
  513MOL0     C70674   4.611   7.348   5.086  0.2877  0.0238 -0.1624
  513MOL0     C70675   4.662   7.269   4.983  1.2678 -0.8654 -0.1828
  513MOL0     C70676   4.746   7.143   5.007 -0.3434  0.8430  0.3048
  513MOL0     C70677   4.714   7.040   4.903  0.0411 -0.1952  0.0373
  513MOL0     C70678   4.577   6.984   4.897  0.3269  0.1448 -0.2473
  513MOL0     C70679   4.541   6.892   4.781 -0.4354 -0.0520 -0.7477
  513MOL0     O70680   4.564   6.952   4.656  0.1339 -0.1275 -0.1508
  513MOL0     C70681   4.668   6.894   4.580 -0.0593 -0.6722 -0.0538
  513MOL0     C70682   4.777   6.820   4.631  0.8985 -1.2048  0.0150
  513MOL0     C70683   4.883   6.768   4.552 -0.2933 -0.2151  0.0817
  513MOL0     C70684   4.988   6.679   4.621 -0.5461  0.2039 -0.0594
  513MOL0     C70685   4.890   6.810   4.415  0.2029 -0.6320 -0.0112
  513MOL0     C70686   5.006   6.774   4.320  0.2548  0.2889 -0.7540
  513MOL0     O70687   5.113   6.701   4.369  0.0992 -0.4310 -0.0336
  513MOL0     C70688   5.202   6.670   4.269 -0.1702  0.3953  0.0378
  513MOL0     C70689   5.324   6.738   4.266  0.5992  0.1481 -0.2889
  513MOL0     C70690   5.424   6.704   4.180  0.5328 -1.1935  0.9475
  513MOL0     C70691   5.398   6.586   4.092  0.2665 -0.0507 -0.8006
  513MOL0     O70692   5.491   6.551   3.997 -0.6079  0.0570 -0.3896
  513MOL0     C70693   5.626   6.592   4.021  0.1597 -0.0203 -0.5611
  513MOL0     C70694   5.704   6.524   3.910  0.3128 -0.8189 -0.1275
  513MOL0     C70695   5.846   6.580   3.889  0.7982 -0.1684 -0.2476
  513MOL0     C70696   5.866   6.741   3.865  0.1529 -0.2437 -1.2424
  513MOL0     C70697   6.016   6.773   3.830 -0.6447 -0.0277  0.1271
  513MOL0     C70698   6.038   6.919   3.821 -0.4698 -0.2559 -0.1890
  513MOL0     C70699   6.038   6.980   3.964 -0.4406 -0.0082  0.0125
  513MOL0     C70700   6.002   7.125   3.969  0.0475 -0.0757  0.0295
  513MOL0    Cl70701   6.131   7.201   3.871  0.5446 -0.0794  0.4277
  513MOL0     C70702   5.271   6.522   4.085  0.0322 -0.0139 -1.5426
  513MOL0     C70703   5.175   6.564   4.181 -0.0490 -0.5098 -0.2611
  513MOL0     O70704   4.989   6.815   4.203 -0.4512  0.1005  1.1574
  513MOL0     C70705   4.779   6.881   4.360  0.4389 -0.0115 -0.3561
  513MOL0     C70706   4.679   6.929   4.449 -0.5402 -0.3587 -0.3324
  513MOL0     N70707   4.642   7.333   4.865  0.8216 -0.5076  0.5153
  513MOL0     N70708   4.596   7.456   4.891  0.3127 -0.1065 -0.3404
  513MOL0     C70709   3.785   7.504   5.626  0.2089 -0.4578  0.0082
  513MOL0     C70710   3.754   7.495   5.753 -0.0281  0.2032 -1.2758
  513MOL0     C70711   3.473   7.522   6.126 -0.2586 -0.0503 -0.4063
  513MOL0     C70712   3.560   7.594   6.211 -0.2778  0.1073 -0.3009
  513MOL0     C70713   3.556   7.593   6.350  0.4966 -0.6874  0.0029
  513MOL0     C70714   3.458   7.507   6.407  0.2314  0.1210  0.1520
  513MOL0     O70715   3.438   7.487   6.541 -0.2453  0.7351  0.0167
  513MOL0     C70716   3.495   7.581   6.641 -0.3933  0.6496 -0.7291
  513MOL0     C70717   3.409   7.564   6.769  0.6838 -0.1517 -1.8225
  513MOL0     C70718   3.371   7.423   6.803  1.0585 -0.9470  0.0521
  513MOL0     C70719   3.357   7.393   6.951 -0.4826  0.9814 -0.0348
  513MOL0     C70720   3.302   7.258   6.970  0.4470  0.5021 -0.5579
  513MOL0     C70721   3.263   7.149   6.992  0.1546 -0.3501  0.0782
  513MOL0     C70722   3.374   7.436   6.322 -0.1136  0.3062 -0.1169
  513MOL0     C70723   3.378   7.441   6.186 -0.0330 -0.5102 -0.3919
  513MOL0     C70724   3.283   7.351   6.119  0.6454  0.3468  0.0805
  513MOL0     H70725   3.566   7.759   5.832  0.1472 -1.1036  0.5243
  513MOL0     H70726   3.605   7.794   5.577 -3.5388 -1.3780 -0.6101
  513MOL0     H70727   3.738   7.847   5.415 -1.6449  0.8601 -2.8939
  513MOL0     H70728   3.774   7.754   5.266 -0.6421  0.7890  0.7298
  513MOL0     H70729   3.953   7.899   5.313 -4.1481  0.9913 -0.5883
  513MOL0     H70730   3.951   7.849   5.483  0.9998 -0.7065 -0.1482
  513MOL0     H70731   4.033   7.638   5.442  1.3933  1.0360  1.0804
  513MOL0     H70732   4.025   7.636   5.272  0.2464  1.1463 -1.8151
  513MOL0     H70733   4.202   7.849   5.305 -0.9550 -0.2605 -0.6139
  513MOL0     H70734   4.221   7.780   5.466 -1.7717 -1.4314  1.0256
  513MOL0     H70735   4.233   7.580   5.232  1.6519  0.6064 -1.5474
  513MOL0     H70736   4.299   7.581   5.395  0.6855 -1.9149 -0.6580
  513MOL0     H70737   4.389   7.777   5.188 -0.7852  0.4168  0.8658
  513MOL0     H70738   4.447   7.762   5.349 -2.1443  0.3678  0.3681
  513MOL0     H70739   4.508   7.527   5.294  0.3891  1.8597  2.1366
  513MOL0     H70740   4.609   7.645   5.213  0.3020  1.0119  0.2957
  513MOL0     H70741   4.371   7.494   5.086  2.4961 -6.6178 -1.8418
  513MOL0     H70742   4.459   7.641   5.020  1.7588 -0.1584 -0.4972
  513MOL0     H70743   4.594   7.319   5.189 -0.3935 -1.1094 -0.5775
  513MOL0     H70744   4.738   7.103   5.109 -2.5596  0.3439 -0.0141
  513MOL0     H70745   4.852   7.168   4.994  0.9655 -2.6567  2.6140
  513MOL0     H70746   4.739   7.081   4.805  0.6239 -0.0168  0.2608
  513MOL0     H70747   4.779   6.954   4.921  0.0495  0.0555  1.2494
  513MOL0     H70748   4.551   6.917   4.980  1.5256  0.0511  0.0800
  513MOL0     H70749   4.501   7.062   4.894 -0.5871 -0.7452 -0.8897
  513MOL0     H70750   4.590   6.795   4.794  0.8798  0.6515 -0.3041
  513MOL0     H70751   4.434   6.872   4.788 -0.0926 -1.9142 -0.3713
  513MOL0     H70752   4.769   6.792   4.735 -1.9298  0.7143  0.4222
  513MOL0     H70753   4.957   6.659   4.724  2.2539 -0.6382  0.7157
  513MOL0     H70754   5.089   6.720   4.619  0.7465 -2.7317 -1.6864
  513MOL0     H70755   4.989   6.577   4.581 -1.9610  0.5129 -0.9567
  513MOL0     H70756   5.339   6.828   4.324 -1.5872  0.7659 -0.5839
  513MOL0     H70757   5.515   6.763   4.177 -0.3313  0.2395 -2.8009
  513MOL0     H70758   5.633   6.701   4.016  1.4337 -0.1353 -2.2147
  513MOL0     H70759   5.666   6.553   4.115  0.7681  3.9191  0.9937
  513MOL0     H70760   5.697   6.418   3.935  0.5304 -0.9534 -0.6349
  513MOL0     H70761   5.642   6.530   3.821  0.9183 -0.4875 -0.5343
  513MOL0     H70762   5.891   6.528   3.804  0.8723 -0.0316 -0.2931
  513MOL0     H70763   5.898   6.545   3.979  1.5942  2.5531  0.4421
  513MOL0     H70764   5.826   6.785   3.956 -0.1594 -1.6499 -0.6694
  513MOL0     H70765   5.798   6.777   3.787  0.2585 -0.7876 -1.5936
  513MOL0     H70766   6.092   6.737   3.900  2.4267  3.2159 -1.2067
  513MOL0     H70767   6.048   6.713   3.745  0.2022 -1.3724  1.3348
  513MOL0     H70768   5.955   6.968   3.769 -0.8905 -1.0903 -0.3056
  513MOL0     H70769   6.136   6.948   3.780 -1.0892 -0.0575 -1.5726
  513MOL0     H70770   6.138   6.969   4.006 -0.7738 -1.6524  0.4792
  513MOL0     H70771   5.969   6.925   4.030 -1.7367  0.4936 -0.8741
  513MOL0     H70772   6.008   7.175   4.067 -0.7257  3.9441 -1.7558
  513MOL0     H70773   5.900   7.143   3.935 -0.0612 -1.2848 -0.3386
  513MOL0     H70774   5.234   6.445   4.019 -4.8507  0.3539  0.2984
  513MOL0     H70775   5.080   6.513   4.195 -0.1234 -0.2332  0.2489
  513MOL0     H70776   4.767   6.907   4.256 -2.6440  1.2964  0.1979
  513MOL0     H70777   4.608   6.998   4.405 -0.0486  0.5311  0.2603
  513MOL0     H70778   3.825   7.423   5.565 -3.5651 -1.1638 -1.9119
  513MOL0     H70779   3.799   7.410   5.804  1.7040  3.3255  3.0184
  513MOL0     H70780   3.635   7.660   6.167  0.4418 -0.4500  0.0800
  513MOL0     H70781   3.618   7.669   6.396 -1.4789  1.3239 -0.4532
  513MOL0     H70782   3.595   7.549   6.671 -1.3595 -1.4265  0.5023
  513MOL0     H70783   3.505   7.687   6.617  1.2158  0.6616 -0.1360
  513MOL0     H70784   3.316   7.620   6.757  1.2139  1.0321 -0.6823
  513MOL0     H70785   3.472   7.610   6.846  1.7300  0.3792 -2.9643
  513MOL0     H70786   3.270   7.406   6.765  2.2593 -2.3452 -2.7664
  513MOL0     H70787   3.445   7.362   6.750 -0.3844  0.3263 -3.6980
  513MOL0     H70788   3.289   7.464   6.998 -3.0512 -1.9949  1.0556
  513MOL0     H70789   3.449   7.409   7.007  0.0968  1.3840 -1.0699
  513MOL0     H70790   3.229   7.050   7.013  1.8410 -0.7076  1.3254
  513MOL0     H70791   3.296   7.386   6.379 -0.3114 -0.3590 -0.9492
  513MOL0     H70792   3.243   7.419   6.044 -2.1315 -1.3865 -0.1255
  513MOL0     H70793   3.323   7.259   6.075 -0.5350 -1.2707  2.2050
  513MOL0     H70794   3.203   7.322   6.187  1.0300 -1.1317 -0.0682
  514MOL0     O70795   1.414   1.617   6.367  0.1978  0.2633  0.5812
  514MOL0     C70796   1.303   1.623   6.420 -0.3173  0.3804 -0.5567
  514MOL0     O70797   1.234   1.510   6.465  0.7616 -0.8050 -0.0679
  514MOL0     C70798   1.293   1.390   6.474 -0.3639  0.1467  0.1532
  514MOL0     C70799   1.369   1.372   6.593  0.8618 -0.2364 -0.9841
  514MOL0     C70800   1.416   1.244   6.625  0.9068  0.7478  0.3523
  514MOL0     C70801   1.404   1.141   6.524  0.2214  1.1374 -0.0203
  514MOL0     O70802   1.490   1.036   6.552 -0.1564  0.0026  0.2285
  514MOL0     C70803   1.441   0.908   6.522 -0.3263 -1.2071  0.8085
  514MOL0     C70804   1.474   0.805   6.633 -0.5551 -0.3118  0.6437
  514MOL0     C70805   1.570   0.685   6.586  0.2952 -0.8114  0.1014
  514MOL0     C70806   1.499   0.614   6.473  0.4188 -0.7744  0.4983
  514MOL0     C70807   1.542   0.467   6.451 -0.3722 -1.0738 -0.1035
  514MOL0     C70808   1.692   0.436   6.423 -0.9382 -0.1011  0.1888
  514MOL0     C70809   1.739   0.471   6.276 -0.6544  0.2101 -0.0120
  514MOL0     C70810   1.892   0.435   6.243  0.0911  0.7780  0.5253
  514MOL0     N70811   1.987   0.462   6.352  0.4771  0.0621  0.1219
  514MOL0     C70812   1.998   0.579   6.410 -0.0556 -0.1164  0.9227
  514MOL0     C70813   2.082   0.559   6.508 -0.1060 -0.1943 -0.7414
  514MOL0     C70814   2.084   0.648   6.628  0.7097 -0.0972  0.1331
  514MOL0     C70815   2.209   0.631   6.710 -0.3705 -0.0843 -0.6161
  514MOL0     C70816   2.332   0.704   6.641  0.1266  0.6549 -0.4100
  514MOL0     C70817   2.340   0.856   6.646 -0.8813 -0.4682  0.1313
  514MOL0     O70818   2.315   0.890   6.781 -0.3625  0.3106 -0.3607
  514MOL0     C70819   2.268   1.016   6.817  0.1245  0.0879 -0.3883
  514MOL0     C70820   2.256   1.141   6.748 -0.0554 -0.3964  0.0266
  514MOL0     C70821   2.204   1.250   6.819  0.2343  0.0108 -0.2935
  514MOL0     C70822   2.188   1.371   6.727  0.1627  0.4849  0.6421
  514MOL0     C70823   2.174   1.241   6.956  0.9386  0.0661  0.3085
  514MOL0     C70824   2.104   1.353   7.036  0.5961 -0.1124  0.0685
  514MOL0     O70825   2.049   1.319   7.159 -0.2425 -0.1502 -0.0599
  514MOL0     C70826   1.961   1.407   7.213 -0.9719  1.0508 -0.6647
  514MOL0     C70827   1.938   1.383   7.355  0.6554 -0.2566  0.7544
  514MOL0     C70828   1.837   1.449   7.435 -0.1323  0.7598 -0.6529
  514MOL0     C70829   1.755   1.545   7.365  0.3269 -0.0601 -0.5323
  514MOL0     O70830   1.661   1.613   7.433 -0.1449 -0.9131 -0.0485
  514MOL0     C70831   1.701   1.732   7.516 -0.4132 -0.2310 -0.5988
  514MOL0     C70832   1.581   1.774   7.602 -0.1342  0.7574 -0.5402
  514MOL0     C70833   1.560   1.674   7.725 -0.2076 -0.4487  1.2014
  514MOL0     C70834   1.426   1.701   7.792 -0.2592 -0.2063  0.3047
  514MOL0     C70835   1.391   1.600   7.907 -1.0110  0.3132 -0.5136
  514MOL0     C70836   1.467   1.628   8.044 -0.3061  0.0325  0.1306
  514MOL0     C70837   1.400   1.589   8.171  0.2890  0.7099 -0.6207
  514MOL0     C70838   1.275   1.673   8.191 -0.9719  0.8189 -0.8653
  514MOL0    Cl70839   1.294   1.841   8.142 -0.4852  0.1674 -0.4100
  514MOL0     C70840   1.777   1.569   7.230  0.0974 -0.2662 -0.0639
  514MOL0     C70841   1.871   1.499   7.154 -0.1132  1.2054  0.0510
  514MOL0     O70842   2.111   1.466   6.988 -0.2727 -0.4650 -0.0412
  514MOL0     C70843   2.194   1.120   7.014 -0.8327 -0.2663  0.4084
  514MOL0     C70844   2.248   1.011   6.949  0.0030  0.0428  0.4798
  514MOL0     N70845   2.123   0.429   6.508  1.0321  0.7707  0.3560
  514MOL0     N70846   2.070   0.370   6.409  0.6974 -0.3391 -0.3788
  514MOL0     C70847   1.338   1.167   6.409  0.0220 -0.1227  0.3567
  514MOL0     C70848   1.269   1.283   6.391  0.1856  0.5082 -0.1793
  514MOL0     C70849   1.239   1.762   6.419 -0.5542  0.7421 -0.0191
  514MOL0     C70850   1.320   1.875   6.451  0.4114  0.6632  0.0049
  514MOL0     C70851   1.263   2.004   6.453 -0.0675  0.3738 -0.2264
  514MOL0     C70852   1.123   2.017   6.435 -0.4099  0.5852 -0.4173
  514MOL0     O70853   1.050   2.133   6.442  0.1087 -0.0493  0.4412
  514MOL0     C70854   1.102   2.257   6.471  0.4556 -0.0277  0.1938
  514MOL0     C70855   1.022   2.300   6.592 -0.1249 -0.4260  0.4527
  514MOL0     C70856   1.048   2.449   6.621 -0.6003 -0.1374  0.9845
  514MOL0     C70857   0.990   2.486   6.749 -0.3772 -0.2076  0.6139
  514MOL0     C70858   1.033   2.626   6.777 -0.5030 -0.1639 -0.0190
  514MOL0     C70859   1.084   2.741   6.785  0.5660  0.3261 -0.8403
  514MOL0     C70860   1.045   1.900   6.404  0.1121 -0.1164 -0.6016
  514MOL0     C70861   1.098   1.772   6.402  0.2842 -0.6893 -0.7141
  514MOL0     C70862   1.004   1.655   6.374  0.3146  1.0021  1.0516
  514MOL0     H70863   1.379   1.442   6.676 -3.1124 -0.6759  0.0539
  514MOL0     H70864   1.466   1.227   6.720  0.6586  1.6128  0.6436
  514MOL0     H70865   1.479   0.875   6.425  0.1042 -3.4862  1.6879
  514MOL0     H70866   1.332   0.908   6.508 -0.1457 -0.9505 -0.8383
  514MOL0     H70867   1.529   0.867   6.704 -1.4436  1.4733 -0.1540
  514MOL0     H70868   1.382   0.766   6.678 -2.1851 -0.8749 -2.7641
  514MOL0     H70869   1.674   0.712   6.568 -0.3726  1.4991 -0.6539
  514MOL0     H70870   1.566   0.617   6.672  0.9578  2.4831  2.9582
  514MOL0     H70871   1.392   0.622   6.497 -0.0004  0.7454 -1.6412
  514MOL0     H70872   1.504   0.681   6.387 -3.6884 -0.5171  0.2351
  514MOL0     H70873   1.491   0.411   6.372 -2.4391  1.6706 -0.8774
  514MOL0     H70874   1.501   0.410   6.535 -0.5524  0.7030  1.0592
  514MOL0     H70875   1.747   0.488   6.502 -1.8089  2.8936 -1.0310
  514MOL0     H70876   1.710   0.329   6.429 -0.7877 -0.2722 -2.1711
  514MOL0     H70877   1.725   0.576   6.250  0.4806  0.4881  0.4567
  514MOL0     H70878   1.674   0.414   6.208 -0.3999 -3.3738  2.4633
  514MOL0     H70879   1.886   0.327   6.226  0.6545  0.5682  1.5706
  514MOL0     H70880   1.920   0.485   6.150  1.3127 -2.5174 -1.0432
  514MOL0     H70881   1.932   0.664   6.395 -1.2941 -1.0518  0.9791
  514MOL0     H70882   1.995   0.626   6.689  1.4868 -1.3434  0.8432
  514MOL0     H70883   2.078   0.751   6.590 -1.3364 -0.3583 -0.3798
  514MOL0     H70884   2.199   0.675   6.810  0.5099  1.5500 -1.2171
  514MOL0     H70885   2.227   0.526   6.736  0.0424 -0.1083 -0.9878
  514MOL0     H70886   2.424   0.672   6.690 -1.6796 -0.1907  2.7089
  514MOL0     H70887   2.338   0.681   6.534 -1.5439  1.1251 -0.6377
  514MOL0     H70888   2.428   0.897   6.596 -1.0234  0.7939  0.8478
  514MOL0     H70889   2.257   0.898   6.589  0.2534  1.2848 -0.3147
  514MOL0     H70890   2.266   1.141   6.640 -1.7454  1.1626 -0.1757
  514MOL0     H70891   2.237   1.462   6.763 -0.0959  1.1819 -0.7020
  514MOL0     H70892   2.080   1.383   6.720 -0.1591 -2.2616 -0.3545
  514MOL0     H70893   2.231   1.364   6.627  1.3112  2.0715  0.9889
  514MOL0     H70894   2.012   1.316   7.397  1.2028  0.2322  0.5911
  514MOL0     H70895   1.819   1.427   7.539  0.3534 -0.5171 -0.8246
  514MOL0     H70896   1.784   1.708   7.583 -1.0874 -0.7064  0.0790
  514MOL0     H70897   1.717   1.823   7.457  3.9331  0.7786  1.6811
  514MOL0     H70898   1.590   1.876   7.641  0.2067 -0.4198  2.7957
  514MOL0     H70899   1.486   1.760   7.548 -0.3297 -2.1376  0.3703
  514MOL0     H70900   1.634   1.676   7.806  1.6011  3.7056 -0.2387
  514MOL0     H70901   1.562   1.575   7.680  1.8990  0.2455 -0.4392
  514MOL0     H70902   1.345   1.703   7.719  1.0034 -0.7106 -1.1740
  514MOL0     H70903   1.423   1.807   7.820 -3.7937 -0.5558  1.7101
  514MOL0     H70904   1.286   1.612   7.934 -0.6748  1.4391  0.3410
  514MOL0     H70905   1.410   1.499   7.870 -2.0073  0.0409 -0.3245
  514MOL0     H70906   1.496   1.734   8.041  0.5144 -0.2115 -1.8867
  514MOL0     H70907   1.563   1.576   8.043  0.1604  0.8566  1.0042
  514MOL0     H70908   1.477   1.595   8.249  1.1085 -1.2617 -1.2234
  514MOL0     H70909   1.358   1.488   8.165 -0.0554  0.8220 -0.1533
  514MOL0     H70910   1.255   1.663   8.298 -0.9759 -0.4233 -0.9629
  514MOL0     H70911   1.186   1.630   8.143 -0.3253  0.3012 -1.6191
  514MOL0     H70912   1.712   1.640   7.180  1.3563  0.7812 -0.2528
  514MOL0     H70913   1.871   1.510   7.046  1.8982  0.2042 -0.0975
  514MOL0     H70914   2.179   1.115   7.122 -1.0290  3.5061  0.7194
  514MOL0     H70915   2.266   0.914   6.994  2.5561  0.1460 -0.1780
  514MOL0     H70916   1.336   1.086   6.338  2.0144 -0.7370  0.9411
  514MOL0     H70917   1.209   1.303   6.303 -0.5946  1.2177  0.4968
  514MOL0     H70918   1.424   1.860   6.478  1.0877  2.5654 -1.2762
  514MOL0     H70919   1.327   2.089   6.475 -2.3261  1.6991  1.9208
  514MOL0     H70920   1.210   2.267   6.484  0.6779 -1.3431 -0.5107
  514MOL0     H70921   1.094   2.329   6.388  0.0838  0.2089  0.4308
  514MOL0     H70922   1.058   2.227   6.666  5.0348 -0.2377 -1.5035
  514MOL0     H70923   0.914   2.293   6.577 -0.2812  0.1296  1.2454
  514MOL0     H70924   1.155   2.469   6.626 -0.4646 -0.8092  0.9516
  514MOL0     H70925   1.005   2.510   6.542  1.1409  0.8321  0.7422
  514MOL0     H70926   1.006   2.409   6.824  0.0161 -3.0861 -2.2139
  514MOL0     H70927   0.884   2.497   6.726  0.2897  2.3359 -1.9593
  514MOL0     H70928   1.122   2.842   6.783 -0.5940  1.0494  3.1513
  514MOL0     H70929   0.937   1.910   6.394 -0.5484 -3.4611  1.6603
  514MOL0     H70930   1.052   1.602   6.291  2.7730  2.2831  1.5845
  514MOL0     H70931   1.001   1.593   6.464 -0.6714 -0.3047  0.1557
  514MOL0     H70932   0.902   1.683   6.345  0.0534 -2.2566 -1.9211
  515MOL0     O70933   1.601   9.451  10.707  0.3551  0.7595  0.6001
  515MOL0     C70934   1.631   9.529  10.621 -0.7067  0.3301  0.7612
  515MOL0     O70935   1.692   9.499  10.507 -0.4623  0.1821 -0.1309
  515MOL0     C70936   1.691   9.364  10.490  0.2179  0.3657  0.2821
  515MOL0     C70937   1.797   9.281  10.534 -0.0224  0.0445  0.4786
  515MOL0     C70938   1.779   9.147  10.538 -0.4588 -0.1233 -0.3201
  515MOL0     C70939   1.660   9.094  10.494 -0.8366 -0.0738  0.6542
  515MOL0     O70940   1.635   8.959  10.503  0.4196  0.5858  0.3244
  515MOL0     C70941   1.528   8.905  10.419 -0.6891 -0.1769 -0.8368
  515MOL0     C70942   1.540   8.752  10.450  0.1175 -0.8788  0.7380
  515MOL0     C70943   1.522   8.706  10.597 -0.4287 -0.6425 -0.3338
  515MOL0     C70944   1.526   8.554  10.595  0.8214 -0.1963 -0.2929
  515MOL0     C70945   1.540   8.499  10.737 -0.0696  0.4299  1.3708
  515MOL0     C70946   1.527   8.349  10.737 -0.9448 -0.2520 -0.2886
  515MOL0     C70947   1.568   8.279  10.863  0.1927 -0.0801 -0.1678
  515MOL0     C70948   1.470   8.290  10.973 -0.9028 -0.4054  0.8730
  515MOL0     N70949   1.434   8.176  11.055 -0.3601  1.1440 -0.3683
  515MOL0     C70950   1.509   8.066  11.090  0.2534  0.1645 -0.7409
  515MOL0     C70951   1.428   7.980  11.153  0.3832  0.7374 -0.2157
  515MOL0     C70952   1.472   7.852  11.211  0.2373  0.0192 -0.5364
  515MOL0     C70953   1.416   7.724  11.140  0.3012  0.7863  0.0390
  515MOL0     C70954   1.471   7.590  11.172 -0.4328  0.2916 -0.2581
  515MOL0     C70955   1.383   7.472  11.129 -0.0950 -0.0230 -0.1205
  515MOL0     O70956   1.347   7.491  10.989  0.5640  0.4810 -0.2901
  515MOL0     C70957   1.428   7.459  10.882  0.2760  0.3547 -0.1027
  515MOL0     C70958   1.554   7.409  10.893  0.2819 -0.6627 -0.2406
  515MOL0     C70959   1.623   7.358  10.783 -0.6178 -0.5287 -0.4277
  515MOL0     C70960   1.753   7.281  10.813 -0.1798 -0.0722  0.6989
  515MOL0     C70961   1.566   7.371  10.651  0.1230 -0.0959  0.2875
  515MOL0     C70962   1.630   7.312  10.529 -0.4572  0.4721  0.4140
  515MOL0     O70963   1.651   7.406  10.427  0.0588 -0.4097  0.1555
  515MOL0     C70964   1.698   7.362  10.310 -0.0323  0.4922 -0.7096
  515MOL0     C70965   1.623   7.360  10.197 -0.2539 -0.8440  1.2508
  515MOL0     C70966   1.677   7.353  10.072 -0.8885  0.8372  0.3366
  515MOL0     C70967   1.822   7.342  10.071 -0.9130  0.4696 -0.4311
  515MOL0     O70968   1.902   7.352   9.963  0.0665  0.1109  0.5009
  515MOL0     C70969   1.876   7.255   9.861 -1.1798  0.1365 -0.2357
  515MOL0     C70970   1.987   7.272   9.749  0.0169 -0.7780  0.9442
  515MOL0     C70971   2.133   7.279   9.797  0.0164  0.0788 -0.2529
  515MOL0     C70972   2.190   7.149   9.838  0.1159  0.6423 -0.8563
  515MOL0     C70973   2.337   7.134   9.863  0.8530 -0.3966  0.0745
  515MOL0     C70974   2.373   7.013   9.954 -0.8415  0.0660  0.1999
  515MOL0     C70975   2.348   6.885   9.875 -0.8383  0.8788  0.0087
  515MOL0     C70976   2.433   6.774   9.939 -0.4016  0.1489  0.3270
  515MOL0    Cl70977   2.411   6.769  10.113 -0.5361 -0.1812 -0.1748
  515MOL0     C70978   1.897   7.331  10.193 -0.8053  0.4314  1.5875
  515MOL0     C70979   1.834   7.345  10.314 -1.4598 -0.2471 -0.4429
  515MOL0     O70980   1.664   7.194  10.523  0.1977 -0.1989 -0.4262
  515MOL0     C70981   1.449   7.447  10.638 -0.1130 -0.6783 -0.1421
  515MOL0     C70982   1.376   7.480  10.754  0.6062  0.4900 -0.4504
  515MOL0     N70983   1.316   8.059  11.189  0.3492 -0.1328 -0.7746
  515MOL0     N70984   1.314   8.167  11.120 -0.0094 -0.3039  0.4416
  515MOL0     C70985   1.561   9.176  10.445 -0.8750 -0.8734  0.5320
  515MOL0     C70986   1.576   9.312  10.437 -0.2788  0.6416  0.0381
  515MOL0     C70987   1.592   9.677  10.629  0.6307  0.0905 -0.0220
  515MOL0     C70988   1.650   9.773  10.551 -0.5167 -1.0011  0.3583
  515MOL0     C70989   1.598   9.905  10.550  0.2728 -0.9648 -0.0704
  515MOL0     C70990   1.502   9.948  10.648 -0.5391 -0.0590  0.1428
  515MOL0     O70991   1.474  10.085  10.676 -0.4842  0.6680 -0.2081
  515MOL0     C70992   1.525  10.178  10.568 -0.5549 -0.5777  0.2849
  515MOL0     C70993   1.488  10.326  10.598  0.8541  0.5916 -0.2541
  515MOL0     C70994   1.339  10.358  10.599  0.0299 -0.0879  0.4117
  515MOL0     C70995   1.306  10.474  10.688  0.4871 -0.4975  0.5878
  515MOL0     C70996   1.160  10.489  10.715  0.5671 -0.4901 -0.2093
  515MOL0     C70997   1.040  10.491  10.722  0.1022  0.0513 -0.0725
  515MOL0     C70998   1.447   9.853  10.724 -0.9498  1.0650  0.7071
  515MOL0     C70999   1.479   9.714  10.714  0.1831 -0.3305 -0.5291
  515MOL0     C71000   1.400   9.617  10.795  0.3825  0.1460  0.2128
  515MOL0     H71001   1.887   9.327  10.575 -2.2513  1.5820  4.2484
  515MOL0     H71002   1.857   9.080  10.571 -0.3946 -1.1157 -2.3285
  515MOL0     H71003   1.542   8.928  10.313  0.3214  2.0343 -0.2675
  515MOL0     H71004   1.426   8.933  10.447 -0.2499  1.0251 -0.4218
  515MOL0     H71005   1.461   8.714  10.385 -0.8940  1.2291  0.6482
  515MOL0     H71006   1.639   8.731  10.407  0.7235  3.2026 -0.3068
  515MOL0     H71007   1.600   8.748  10.661 -0.6916 -1.3613  0.4783
  515MOL0     H71008   1.421   8.744  10.615  0.4323  1.4195  0.4713
  515MOL0     H71009   1.426   8.531  10.557 -3.3660  2.9091  6.8055
  515MOL0     H71010   1.614   8.514  10.543 -0.4288 -0.4956 -2.3147
  515MOL0     H71011   1.468   8.553  10.799 -2.4225  2.1242 -2.4804
  515MOL0     H71012   1.644   8.521  10.765  1.6095 -1.1605 -2.7678
  515MOL0     H71013   1.428   8.311  10.708  0.2589 -2.8537 -1.2949
  515MOL0     H71014   1.590   8.308  10.659  1.4471  2.0108  0.3200
  515MOL0     H71015   1.672   8.287  10.893  0.2976  2.3475 -1.0110
  515MOL0     H71016   1.557   8.171  10.847  0.3686 -0.3690  1.5164
  515MOL0     H71017   1.510   8.366  11.040 -1.2210  0.9894 -0.4759
  515MOL0     H71018   1.378   8.338  10.940 -0.5476  0.1999  0.7600
  515MOL0     H71019   1.614   8.045  11.068  0.4985 -1.4434  1.6575
  515MOL0     H71020   1.452   7.851  11.319  0.9536  3.2852 -0.2706
  515MOL0     H71021   1.580   7.855  11.196 -0.0396 -0.3896 -2.9501
  515MOL0     H71022   1.312   7.713  11.172 -0.5162  0.9706 -2.3642
  515MOL0     H71023   1.412   7.746  11.033  0.8387  1.2061  0.1077
  515MOL0     H71024   1.572   7.578  11.131 -0.0099  0.4412  0.7192
  515MOL0     H71025   1.475   7.585  11.281  1.2336 -2.9979 -0.3552
  515MOL0     H71026   1.434   7.377  11.149  0.2636  0.3041  0.5284
  515MOL0     H71027   1.295   7.470  11.194 -0.6705 -0.8922 -0.9099
  515MOL0     H71028   1.601   7.400  10.990  0.9451  3.0161 -0.0783
  515MOL0     H71029   1.746   7.214  10.899  0.8215 -0.5377  0.4333
  515MOL0     H71030   1.835   7.353  10.815 -0.3490  0.0933  2.3073
  515MOL0     H71031   1.785   7.213  10.733 -0.5696  0.2966  0.2259
  515MOL0     H71032   1.516   7.374  10.215  0.2151 -0.0210  3.7337
  515MOL0     H71033   1.611   7.363   9.986 -0.2282  0.1298 -0.2585
  515MOL0     H71034   1.889   7.156   9.907 -1.9090 -0.1064 -0.5341
  515MOL0     H71035   1.778   7.270   9.815 -0.0193 -1.1303 -3.4470
  515MOL0     H71036   1.986   7.190   9.677  0.0464  1.3484 -1.6194
  515MOL0     H71037   1.968   7.353   9.679 -1.0591 -3.9550 -2.7610
  515MOL0     H71038   2.132   7.367   9.862 -2.2051  0.6718 -0.9712
  515MOL0     H71039   2.199   7.305   9.714  1.8240  4.2879  2.1693
  515MOL0     H71040   2.167   7.063   9.774  3.6490  0.2264 -1.7851
  515MOL0     H71041   2.136   7.128   9.931  0.5635 -1.2315 -0.9816
  515MOL0     H71042   2.378   7.136   9.761 -0.9898  7.0766 -1.1131
  515MOL0     H71043   2.364   7.224   9.917  0.6403  1.4053 -2.6180
  515MOL0     H71044   2.307   7.021  10.041 -0.8660  0.8551  0.1123
  515MOL0     H71045   2.480   7.022   9.974 -0.2781  2.1712 -3.0627
  515MOL0     H71046   2.383   6.892   9.771  3.0734 -1.7637  0.8863
  515MOL0     H71047   2.240   6.871   9.882 -0.6910 -1.0627 -0.8678
  515MOL0     H71048   2.536   6.776   9.901 -1.5578  2.8090 -3.3712
  515MOL0     H71049   2.401   6.683   9.887  1.5290 -0.5048  0.1904
  515MOL0     H71050   2.005   7.318  10.187 -0.5626  2.6601 -1.6522
  515MOL0     H71051   1.877   7.352  10.413 -0.8237  0.4327 -0.7576
  515MOL0     H71052   1.405   7.458  10.540  1.7910 -1.9303 -1.1862
  515MOL0     H71053   1.273   7.516  10.753 -1.1053 -3.8048 -1.8492
  515MOL0     H71054   1.464   9.146  10.406 -0.8488 -1.6345  1.0382
  515MOL0     H71055   1.496   9.367  10.388  1.9021  3.0562 -1.0076
  515MOL0     H71056   1.734   9.751  10.486 -0.5318 -1.2417  0.4197
  515MOL0     H71057   1.642   9.974  10.479 -1.5586 -0.8241 -1.1424
  515MOL0     H71058   1.633  10.163  10.560 -0.5912 -1.4117  1.2182
  515MOL0     H71059   1.484  10.152  10.470  1.6651 -1.4744 -0.4576
  515MOL0     H71060   1.539  10.381  10.519  1.5486  1.0104  0.4667
  515MOL0     H71061   1.534  10.359  10.692  0.0731  2.7366 -0.5660
  515MOL0     H71062   1.306  10.386  10.499 -1.0379 -3.6200 -0.3615
  515MOL0     H71063   1.291  10.266  10.634 -1.0392  0.2508 -0.0946
  515MOL0     H71064   1.353  10.556  10.632  0.1392 -1.0772 -0.5860
  515MOL0     H71065   1.355  10.463  10.786 -1.1129  1.1677  1.6470
  515MOL0     H71066   0.933  10.487  10.730  0.2351  0.2488  3.1512
  515MOL0     H71067   1.372   9.878  10.798 -2.4375  0.2995 -0.5066
  515MOL0     H71068   1.355   9.538  10.734  0.8597 -0.3915  0.5419
  515MOL0     H71069   1.473   9.579  10.868  0.4016  0.0840  0.1613
  515MOL0     H71070   1.325   9.661  10.862 -1.1337 -1.8861 -0.0558
  516MOL0     O71071   3.306   6.390   2.723 -0.0313  0.2644 -0.0175
  516MOL0     C71072   3.385   6.410   2.813 -0.3019 -0.1361 -0.2579
  516MOL0     O71073   3.483   6.326   2.852  0.0431 -0.2015  0.6907
  516MOL0     C71074   3.487   6.197   2.805 -0.1168  0.3223  0.1118
  516MOL0     C71075   3.495   6.173   2.664  0.3789  0.4434 -0.1569
  516MOL0     C71076   3.508   6.044   2.611 -0.2482  0.5145  0.5050
  516MOL0     C71077   3.510   5.927   2.700 -1.2794 -1.1305 -0.6595
  516MOL0     O71078   3.504   5.804   2.649 -0.7037 -0.0330  0.5940
  516MOL0     C71079   3.424   5.709   2.712  1.0615  0.5001  0.0144
  516MOL0     C71080   3.379   5.598   2.617 -0.0070  0.3791  0.2302
  516MOL0     C71081   3.316   5.487   2.680 -0.0223  0.1545 -0.8819
  516MOL0     C71082   3.226   5.380   2.605 -0.2403 -0.1985 -0.1761
  516MOL0     C71083   3.295   5.324   2.479  0.4001  0.0843 -0.2942
  516MOL0     C71084   3.417   5.244   2.520  0.6388 -0.0305  0.9352
  516MOL0     C71085   3.497   5.184   2.393 -0.2672 -0.0713 -0.5654
  516MOL0     C71086   3.420   5.070   2.336  0.2685  0.1268 -0.0229
  516MOL0     N71087   3.504   4.954   2.310 -0.9135  0.0591 -0.2744
  516MOL0     C71088   3.634   4.962   2.257  1.4448 -0.7478 -0.3603
  516MOL0     C71089   3.671   4.829   2.231 -0.2345 -0.1574 -1.8864
  516MOL0     C71090   3.802   4.772   2.170  0.0658  0.2576  0.0296
  516MOL0     C71091   3.921   4.767   2.273  0.3307  0.0354 -0.4815
  516MOL0     C71092   3.909   4.660   2.384 -0.5218  0.7169 -0.7435
  516MOL0     C71093   4.036   4.662   2.466 -0.5197  0.2946 -0.2740
  516MOL0     O71094   4.145   4.608   2.384 -0.2936 -0.9999  0.6532
  516MOL0     C71095   4.263   4.610   2.446  0.5153  0.2118 -0.7932
  516MOL0     C71096   4.321   4.720   2.516  0.9478 -0.6020 -0.2756
  516MOL0     C71097   4.449   4.711   2.570 -0.0560 -0.8449  0.5135
  516MOL0     C71098   4.488   4.817   2.675 -0.4401  0.1128  0.2871
  516MOL0     C71099   4.528   4.591   2.560  0.1446  0.4776  0.7013
  516MOL0     C71100   4.662   4.577   2.607 -0.4100 -0.1857 -0.5777
  516MOL0     O71101   4.689   4.465   2.681 -0.7052  0.5817 -0.1277
  516MOL0     C71102   4.803   4.466   2.759 -0.1309 -0.3733 -0.2285
  516MOL0     C71103   4.793   4.522   2.882 -1.1381 -0.1207 -0.9076
  516MOL0     C71104   4.909   4.544   2.962  0.0383  0.4072 -0.1385
  516MOL0     C71105   5.029   4.495   2.910  0.4303 -0.1322  0.8008
  516MOL0     O71106   5.141   4.501   2.982 -0.4976  0.3689 -0.7499
  516MOL0     C71107   5.213   4.633   2.977  0.7316  0.0762 -0.7151
  516MOL0     C71108   5.354   4.647   3.045  0.0423 -0.5324 -0.6537
  516MOL0     C71109   5.462   4.571   2.978 -0.7805 -0.3321  0.6181
  516MOL0     C71110   5.418   4.420   2.941  0.1866 -1.1100 -0.4121
  516MOL0     C71111   5.539   4.319   2.905 -0.0875  0.2109 -0.0025
  516MOL0     C71112   5.598   4.368   2.771 -0.6810  0.0813 -0.2029
  516MOL0     C71113   5.708   4.274   2.706 -0.0890 -0.7288  0.2140
  516MOL0     C71114   5.745   4.318   2.559  0.6110 -0.6013 -0.2489
  516MOL0    Cl71115   5.856   4.203   2.477  0.0822 -0.1480  0.6913
  516MOL0     C71116   5.035   4.432   2.792 -0.0505 -0.1737  0.4807
  516MOL0     C71117   4.918   4.410   2.709 -0.3516 -0.9887  0.4904
  516MOL0     O71118   4.732   4.676   2.586 -0.3122  0.2135 -0.5003
  516MOL0     C71119   4.470   4.480   2.492  0.4902  0.4293  0.4941
  516MOL0     C71120   4.333   4.491   2.438 -0.3435 -0.7282  0.4082
  516MOL0     N71121   3.565   4.748   2.265  0.1583 -0.2720 -0.4205
  516MOL0     N71122   3.469   4.826   2.310 -0.6727  0.3244 -0.0177
  516MOL0     C71123   3.505   5.951   2.833  0.3211 -0.0028 -1.1124
  516MOL0     C71124   3.503   6.080   2.887 -0.7087  0.2820 -0.1081
  516MOL0     C71125   3.365   6.530   2.902  0.2440 -0.2738 -0.1902
  516MOL0     C71126   3.303   6.637   2.837  0.3626 -0.0743 -0.4217
  516MOL0     C71127   3.291   6.763   2.903 -0.7828 -0.0361  1.0177
  516MOL0     C71128   3.333   6.778   3.030 -0.8177  0.0038  0.6485
  516MOL0     O71129   3.316   6.902   3.082  0.2590  0.8817 -0.2066
  516MOL0     C71130   3.378   6.942   3.201 -1.0569  0.4693 -0.5100
  516MOL0     C71131   3.470   7.063   3.176  0.5826  0.4780  0.8671
  516MOL0     C71132   3.523   7.135   3.299  0.3607 -0.3271  0.8184
  516MOL0     C71133   3.649   7.089   3.365 -0.5467 -0.4999 -1.3212
  516MOL0     C71134   3.658   6.942   3.369 -0.5903  0.1358 -0.3256
  516MOL0     C71135   3.668   6.824   3.366  0.0751  0.4719 -0.9925
  516MOL0     C71136   3.400   6.675   3.092 -0.1242 -0.4532  0.4475
  516MOL0     C71137   3.405   6.549   3.034 -1.5816 -0.8036  0.1284
  516MOL0     C71138   3.471   6.446   3.130 -0.4719 -0.2930  0.1380
  516MOL0     H71139   3.502   6.261   2.601  0.1213 -1.2200 -2.6330
  516MOL0     H71140   3.516   6.036   2.503 -3.9036 -0.0941  0.1718
  516MOL0     H71141   3.333   5.748   2.759  0.5011 -0.1605 -0.5119
  516MOL0     H71142   3.484   5.666   2.793  2.5367  0.6677 -0.9409
  516MOL0     H71143   3.321   5.639   2.533 -0.7611  2.2291  1.5931
  516MOL0     H71144   3.471   5.555   2.576 -0.3856  0.3095 -0.5683
  516MOL0     H71145   3.396   5.423   2.718  0.2291 -0.0994 -1.8109
  516MOL0     H71146   3.254   5.527   2.760  0.9516 -1.2791  0.6458
  516MOL0     H71147   3.183   5.297   2.663 -2.2536  2.0203  1.7264
  516MOL0     H71148   3.139   5.428   2.559  0.1020 -0.6752 -1.3741
  516MOL0     H71149   3.335   5.399   2.410  1.5942 -2.8955 -3.0875
  516MOL0     H71150   3.235   5.272   2.404 -1.6228  0.4706  0.9790
  516MOL0     H71151   3.489   5.312   2.567  0.3514  2.1398 -1.5799
  516MOL0     H71152   3.401   5.165   2.595  0.3126  0.8153  1.7704
  516MOL0     H71153   3.587   5.143   2.440 -0.3482  0.4858  0.0997
  516MOL0     H71154   3.532   5.261   2.324 -0.7081  1.3304  0.7139
  516MOL0     H71155   3.335   5.047   2.401 -0.6229  2.2372 -0.3422
  516MOL0     H71156   3.379   5.103   2.240  0.8348  0.4490 -0.1609
  516MOL0     H71157   3.693   5.050   2.235 -0.4663  1.1956  1.7198
  516MOL0     H71158   3.825   4.826   2.078  1.1914  0.6414  0.5215
  516MOL0     H71159   3.784   4.669   2.138 -0.9845  0.3830  0.1736
  516MOL0     H71160   4.019   4.757   2.226  0.1276 -1.2616 -0.6583
  516MOL0     H71161   3.914   4.862   2.328  0.0125 -0.5474  0.5076
  516MOL0     H71162   3.827   4.689   2.450  0.0128  2.4995 -0.8278
  516MOL0     H71163   3.905   4.557   2.346  1.0399  0.4977 -0.4006
  516MOL0     H71164   4.059   4.760   2.508  0.9409  0.2039 -0.7866
  516MOL0     H71165   4.025   4.596   2.552  0.5393 -0.1366 -0.4531
  516MOL0     H71166   4.266   4.814   2.513  2.1594  0.1751  0.5776
  516MOL0     H71167   4.397   4.874   2.697 -2.9944 -1.7970 -4.0547
  516MOL0     H71168   4.564   4.887   2.639  0.0988 -0.4219  0.3815
  516MOL0     H71169   4.527   4.775   2.768 -1.2115  1.4061  1.2240
  516MOL0     H71170   4.695   4.566   2.897 -0.4005  0.9645  1.0086
  516MOL0     H71171   4.907   4.601   3.054 -2.1286 -1.6298  1.1795
  516MOL0     H71172   5.227   4.652   2.870 -2.1039 -0.0385 -1.1875
  516MOL0     H71173   5.143   4.696   3.033  0.2253 -1.4876  0.4713
  516MOL0     H71174   5.389   4.749   3.061  0.8036 -1.0557  1.2912
  516MOL0     H71175   5.336   4.601   3.143  0.5435 -0.8138 -0.6923
  516MOL0     H71176   5.551   4.560   3.042  0.8186 -0.2154 -1.4660
  516MOL0     H71177   5.493   4.621   2.887 -0.5604  2.3886  2.0864
  516MOL0     H71178   5.342   4.420   2.863 -3.4863  1.6004  2.8141
  516MOL0     H71179   5.378   4.382   3.035  0.6988  1.5834  0.9941
  516MOL0     H71180   5.608   4.295   2.987 -0.7243 -2.5283 -0.1721
  516MOL0     H71181   5.494   4.225   2.872 -0.3663  1.5181 -3.8008
  516MOL0     H71182   5.653   4.460   2.790  4.1305 -2.6248  0.6437
  516MOL0     H71183   5.515   4.380   2.700  0.9313 -0.8864 -2.3435
  516MOL0     H71184   5.662   4.175   2.708 -1.6464 -0.1277 -1.7601
  516MOL0     H71185   5.800   4.276   2.766  1.4617 -0.5878 -2.0374
  516MOL0     H71186   5.783   4.420   2.559 -1.5695  0.2795  0.1688
  516MOL0     H71187   5.646   4.319   2.513  1.0632 -0.9801 -1.2723
  516MOL0     H71188   5.138   4.411   2.765  0.3168  0.4066  1.3663
  516MOL0     H71189   4.923   4.378   2.605 -2.7365  0.0554 -0.0077
  516MOL0     H71190   4.529   4.390   2.484  1.9486  1.4994 -1.9711
  516MOL0     H71191   4.302   4.406   2.379 -0.7951 -0.3219  0.0459
  516MOL0     H71192   3.474   5.868   2.896 -0.4031  1.3496  0.4016
  516MOL0     H71193   3.511   6.105   2.992 -2.2658  0.4652 -0.0121
  516MOL0     H71194   3.258   6.632   2.739  0.0669 -0.2953 -0.2749
  516MOL0     H71195   3.238   6.839   2.847  2.3806  1.0966 -0.7162
  516MOL0     H71196   3.310   6.969   3.283  0.8897 -3.4742  2.7581
  516MOL0     H71197   3.434   6.859   3.244 -2.2062  0.0478  0.2253
  516MOL0     H71198   3.417   7.139   3.119 -1.3744 -1.0463  0.5373
  516MOL0     H71199   3.554   7.037   3.109 -0.7955 -1.0681 -0.3586
  516MOL0     H71200   3.547   7.237   3.268  0.8269 -0.3248  1.1608
  516MOL0     H71201   3.447   7.139   3.377 -1.5990 -2.1397 -0.8783
  516MOL0     H71202   3.672   7.139   3.460 -2.5872  1.1563 -1.5994
  516MOL0     H71203   3.727   7.127   3.299  1.6275 -3.6686 -0.7541
  516MOL0     H71204   3.689   6.719   3.360  1.4327  0.7840 -2.1469
  516MOL0     H71205   3.436   6.672   3.194  2.8899 -1.2695 -0.5327
  516MOL0     H71206   3.434   6.461   3.232  0.5958  1.5190  0.2975
  516MOL0     H71207   3.430   6.348   3.104 -1.4639  0.1504 -0.0291
  516MOL0     H71208   3.578   6.462   3.146 -0.5972 -0.4798  1.2266
  517MOL0     O71209   8.961   4.702   8.409  0.7785  0.1538  0.4043
  517MOL0     C71210   9.002   4.769   8.310  0.0225 -0.0441 -1.2612
  517MOL0     O71211   9.049   4.719   8.193 -0.7390 -0.4472 -0.0699
  517MOL0     C71212   9.028   4.587   8.178  0.6076  0.2654 -0.2820
  517MOL0     C71213   9.074   4.485   8.256  0.2546 -0.1524  0.3659
  517MOL0     C71214   9.047   4.344   8.245 -0.2359 -0.4498 -0.2985
  517MOL0     C71215   8.946   4.312   8.151 -0.6466  1.0100  0.8708
  517MOL0     O71216   8.889   4.180   8.146  0.0825 -0.8847  0.5219
  517MOL0     C71217   8.945   4.065   8.208 -0.2016 -1.6092 -0.1057
  517MOL0     C71218   8.956   3.957   8.097  0.3547 -0.4158 -0.1836
  517MOL0     C71219   9.062   4.004   7.993  0.3315  0.6281  0.1690
  517MOL0     C71220   9.068   3.919   7.864  0.1247  0.5827 -0.0808
  517MOL0     C71221   9.179   3.969   7.773 -1.0443 -0.0985 -1.2856
  517MOL0     C71222   9.125   4.079   7.682  0.2865 -0.2096  0.2031
  517MOL0     C71223   9.213   4.083   7.556 -0.4415  0.3440 -0.1233
  517MOL0     C71224   9.204   4.224   7.498 -0.6469  0.0127 -0.4259
  517MOL0     N71225   9.285   4.238   7.380 -0.3182 -0.3360 -0.1405
  517MOL0     C71226   9.389   4.332   7.365  0.5539  0.3954 -0.0010
  517MOL0     C71227   9.436   4.311   7.236  1.0850  0.5028 -0.5519
  517MOL0     C71228   9.556   4.372   7.173  0.7387 -0.6985  0.9704
  517MOL0     C71229   9.700   4.351   7.244  0.4667  0.7153 -0.8474
  517MOL0     C71230   9.815   4.450   7.203  0.6889  0.1573  0.1379
  517MOL0     C71231   9.773   4.597   7.223  0.3691 -0.4999 -0.9884
  517MOL0     O71232   9.735   4.633   7.365 -0.2987  0.1691  0.8279
  517MOL0     C71233   9.726   4.767   7.408  0.4449  0.2188  0.1320
  517MOL0     C71234   9.743   4.878   7.324 -0.1838 -0.2885  0.2726
  517MOL0     C71235   9.770   5.004   7.380 -0.6700  0.0829  0.1393
  517MOL0     C71236   9.826   5.105   7.284  0.1561  0.1254  0.8433
  517MOL0     C71237   9.746   5.020   7.514  0.6049  0.8898 -0.6673
  517MOL0     C71238   9.773   5.139   7.585 -0.7587  1.0887 -0.2290
  517MOL0     O71239   9.674   5.201   7.653 -0.7709  0.0757 -0.0856
  517MOL0     C71240   9.707   5.307   7.723  0.8283 -0.8058  0.3459
  517MOL0     C71241   9.784   5.296   7.837 -0.1418  0.1531  0.2184
  517MOL0     C71242   9.818   5.398   7.921  0.4857 -0.0889  0.4698
  517MOL0     C71243   9.780   5.530   7.888 -1.0085 -0.6212 -0.0616
  517MOL0     O71244   9.804   5.641   7.969 -0.4623 -0.1741  0.1836
  517MOL0     C71245   9.936   5.654   8.031  0.9298  0.3029 -0.1516
  517MOL0     C71246  10.053   5.689   7.937  0.6826 -0.1717 -0.5306
  517MOL0     C71247  10.069   5.610   7.807 -0.3072  0.1605  0.6824
  517MOL0     C71248  10.209   5.629   7.741  0.2430  0.7714  0.5371
  517MOL0     C71249  10.232   5.765   7.679  1.6336  0.0608  0.3363
  517MOL0     C71250  10.369   5.785   7.607 -0.0376 -0.3353 -0.7723
  517MOL0     C71251  10.377   5.915   7.533 -0.2220  0.0054  0.0156
  517MOL0     C71252  10.509   5.914   7.454 -0.1434  0.8714 -0.0024
  517MOL0    Cl71253  10.516   6.043   7.330  0.1574  0.4348 -0.2406
  517MOL0     C71254   9.699   5.547   7.774 -0.2680 -0.7920 -0.9056
  517MOL0     C71255   9.665   5.436   7.690  0.0579 -0.0949  1.1289
  517MOL0     O71256   9.886   5.180   7.567 -0.3056 -0.3708 -0.5821
  517MOL0     C71257   9.699   4.913   7.593 -0.0395 -0.0395  0.5563
  517MOL0     C71258   9.696   4.790   7.542  0.3309 -0.5022  0.5935
  517MOL0     N71259   9.359   4.214   7.182 -0.5308 -0.2120 -0.0383
  517MOL0     N71260   9.266   4.170   7.266 -0.1184 -0.1405  0.0288
  517MOL0     C71261   8.898   4.412   8.060 -1.0938  0.2112 -0.1296
  517MOL0     C71262   8.943   4.546   8.074 -0.1932 -0.3152 -0.9867
  517MOL0     C71263   8.990   4.913   8.308 -0.0496 -1.0377  0.5568
  517MOL0     C71264   9.041   4.988   8.197 -0.4987 -0.4242  0.0515
  517MOL0     C71265   9.066   5.126   8.194 -0.5920  0.1236 -0.2565
  517MOL0     C71266   9.010   5.196   8.301  0.4994 -0.9751  1.4179
  517MOL0     O71267   9.008   5.335   8.303 -0.8956 -0.0347 -0.8447
  517MOL0     C71268   8.893   5.409   8.299 -0.1930  0.4053 -0.8165
  517MOL0     C71269   8.930   5.548   8.223 -0.1209  0.5142 -0.5324
  517MOL0     C71270   8.821   5.660   8.243 -0.7688  0.7735 -0.1146
  517MOL0     C71271   8.714   5.668   8.145  0.2110  0.1892  0.1896
  517MOL0     C71272   8.607   5.567   8.169 -0.7346 -0.4603 -0.0015
  517MOL0     C71273   8.508   5.506   8.207 -1.2354 -0.3850  0.5161
  517MOL0     C71274   8.964   5.131   8.409  0.2089 -0.4661 -1.3638
  517MOL0     C71275   8.948   4.995   8.422 -1.1023  0.5421  0.0152
  517MOL0     C71276   8.902   4.941   8.554 -0.0141  0.4385  0.1508
  517MOL0     H71277   9.135   4.519   8.339 -0.5064 -2.5466  2.0096
  517MOL0     H71278   9.087   4.271   8.314  0.1172 -0.9610 -1.0205
  517MOL0     H71279   8.875   4.046   8.289  0.5652  0.3978  1.0957
  517MOL0     H71280   9.043   4.087   8.252 -0.3388  0.3583 -0.7061
  517MOL0     H71281   8.987   3.861   8.139 -0.1323 -0.0049  1.1651
  517MOL0     H71282   8.859   3.941   8.049 -0.4140  0.9381  0.8489
  517MOL0     H71283   9.052   4.109   7.964  4.2927  0.7337 -1.4679
  517MOL0     H71284   9.161   3.991   8.036  0.9225 -0.7566 -1.5046
  517MOL0     H71285   9.095   3.815   7.889 -2.8243  0.0680  1.3472
  517MOL0     H71286   8.971   3.911   7.815  0.1980 -1.2590 -0.0199
  517MOL0     H71287   9.215   3.881   7.720  2.1382 -0.0516  0.5141
  517MOL0     H71288   9.260   4.005   7.837 -1.7619 -2.0920  0.8874
  517MOL0     H71289   9.019   4.067   7.655 -0.4287  2.5135  1.4700
  517MOL0     H71290   9.129   4.178   7.727 -1.2346 -0.5288  1.1360
  517MOL0     H71291   9.187   4.009   7.480 -0.8087 -1.9089  2.0790
  517MOL0     H71292   9.317   4.055   7.579  0.1402  1.3322 -1.4324
  517MOL0     H71293   9.097   4.248   7.488 -1.1244  1.2825  4.7738
  517MOL0     H71294   9.244   4.292   7.573 -0.4779 -2.1633  1.5655
  517MOL0     H71295   9.439   4.381   7.447 -2.0434  1.1744  1.2112
  517MOL0     H71296   9.537   4.479   7.166  5.8130  0.3700 -1.3160
  517MOL0     H71297   9.557   4.348   7.066 -2.5624 -0.3555  0.7613
  517MOL0     H71298   9.688   4.382   7.348  1.9761 -1.9251  0.2094
  517MOL0     H71299   9.729   4.246   7.242 -1.1486  0.2379 -0.7343
  517MOL0     H71300   9.896   4.439   7.276 -0.0427  1.6941  1.2193
  517MOL0     H71301   9.861   4.431   7.105  2.0156  1.5644  0.4561
  517MOL0     H71302   9.847   4.671   7.191  0.0454 -0.1007 -0.8284
  517MOL0     H71303   9.685   4.603   7.157  0.3574 -3.1657 -1.3103
  517MOL0     H71304   9.759   4.863   7.218  0.7843  0.4173  0.3007
  517MOL0     H71305   9.763   5.193   7.270 -2.4038 -1.1896  3.0519
  517MOL0     H71306   9.840   5.048   7.192 -3.3180 -1.5509  1.1821
  517MOL0     H71307   9.927   5.138   7.309  0.5684 -0.6273  0.2387
  517MOL0     H71308   9.816   5.193   7.850 -0.1418  0.3021  1.6250
  517MOL0     H71309   9.876   5.365   8.007 -0.1214 -3.8561 -0.4305
  517MOL0     H71310   9.924   5.740   8.099  1.8010  0.9452 -0.7934
  517MOL0     H71311   9.950   5.560   8.084  1.9174  0.5083 -0.0384
  517MOL0     H71312  10.045   5.794   7.907 -2.0568 -0.0970  0.1755
  517MOL0     H71313  10.138   5.674   8.005 -1.6328 -2.5000  2.1255
  517MOL0     H71314   9.988   5.623   7.735 -0.1055 -3.6042 -0.4176
  517MOL0     H71315  10.066   5.504   7.835 -2.0999  0.1925  0.7684
  517MOL0     H71316  10.215   5.560   7.657  1.7620  0.8434  0.5608
  517MOL0     H71317  10.294   5.607   7.807 -1.7087 -2.1475  2.3569
  517MOL0     H71318  10.153   5.776   7.605 -0.9782 -0.2829  2.9147
  517MOL0     H71319  10.239   5.842   7.757  2.0093 -0.8149  1.1948
  517MOL0     H71320  10.394   5.697   7.547  0.7277 -0.8042  0.2137
  517MOL0     H71321  10.444   5.782   7.687 -1.7677 -0.0085  0.9661
  517MOL0     H71322  10.377   5.999   7.604 -1.0475 -1.3799  1.7112
  517MOL0     H71323  10.301   5.916   7.454  0.9971 -1.7788 -1.2596
  517MOL0     H71324  10.526   5.815   7.412 -0.0272  1.0777 -0.4468
  517MOL0     H71325  10.598   5.931   7.515  0.2771  1.3808 -0.7427
  517MOL0     H71326   9.657   5.647   7.764  0.3956 -0.6300 -2.2709
  517MOL0     H71327   9.608   5.443   7.598  1.6553  2.0238  0.2255
  517MOL0     H71328   9.704   4.931   7.700  1.8217  1.7550  0.2424
  517MOL0     H71329   9.673   4.710   7.611  0.3869  2.9943  5.1076
  517MOL0     H71330   8.833   4.377   7.980  1.5975 -1.3189 -1.7821
  517MOL0     H71331   8.913   4.626   8.007 -0.0451  0.1179 -0.5406
  517MOL0     H71332   9.075   4.944   8.104 -0.4047  1.4885 -0.8653
  517MOL0     H71333   9.115   5.192   8.123 -0.2517  1.4629  1.1758
  517MOL0     H71334   8.809   5.354   8.256 -4.3667  5.0076  0.4855
  517MOL0     H71335   8.865   5.441   8.400  2.0900 -0.6855  0.2402
  517MOL0     H71336   8.926   5.525   8.116 -3.0088  0.4474 -0.4857
  517MOL0     H71337   9.026   5.587   8.259 -1.5135  2.4493  1.3655
  517MOL0     H71338   8.778   5.666   8.343  0.0113  3.1662  0.1443
  517MOL0     H71339   8.879   5.751   8.226  0.4464 -0.4935 -3.7591
  517MOL0     H71340   8.738   5.638   8.042 -2.6928 -0.0263 -0.5347
  517MOL0     H71341   8.658   5.762   8.144  1.4176  0.9330 -1.0575
  517MOL0     H71342   8.421   5.459   8.247 -1.2127 -2.0262 -1.2623
  517MOL0     H71343   8.935   5.207   8.481  0.8247  0.2522 -1.8580
  517MOL0     H71344   8.863   5.022   8.616  3.5049  0.3998  2.7726
  517MOL0     H71345   8.829   4.860   8.556 -1.0671  1.3682  1.1918
  517MOL0     H71346   8.989   4.907   8.610  1.4913  4.0975  0.3231
  518MOL0     O71347  11.174   9.510   8.122  0.2433 -0.5594  0.1998
  518MOL0     C71348  11.173   9.450   8.232 -0.4466  0.1399  0.5465
  518MOL0     O71349  11.098   9.342   8.254 -0.2223 -0.1403  0.5285
  518MOL0     C71350  11.016   9.300   8.155  0.3038  0.7864  0.3544
  518MOL0     C71351  11.071   9.200   8.064 -0.5624 -0.0358 -0.6235
  518MOL0     C71352  11.004   9.151   7.962  1.1868  1.1405 -0.1907
  518MOL0     C71353  10.865   9.189   7.942 -0.2007 -0.5934  0.3062
  518MOL0     O71354  10.800   9.147   7.831  1.1529 -0.0277 -0.5206
  518MOL0     C71355  10.731   9.023   7.855 -0.1279 -0.2103 -0.4908
  518MOL0     C71356  10.609   9.014   7.760  0.0819  0.5007  0.2970
  518MOL0     C71357  10.522   9.132   7.733 -0.4816  0.1148  0.6137
  518MOL0     C71358  10.390   9.102   7.663  0.2279  1.2994  0.5386
  518MOL0     C71359  10.399   9.065   7.516  0.1348  0.4158 -0.4612
  518MOL0     C71360  10.254   9.040   7.460 -0.2681 -0.0620  0.3050
  518MOL0     C71361  10.272   8.993   7.313  0.2660 -0.4344  0.2100
  518MOL0     C71362  10.131   8.948   7.250 -0.7412 -0.5624  0.0656
  518MOL0     N71363  10.074   8.842   7.324  0.2182  0.7290 -0.0780
  518MOL0     C71364   9.955   8.844   7.397 -0.6112 -0.4123 -0.5432
  518MOL0     C71365   9.920   8.711   7.403 -0.3950 -0.0586 -0.2203
  518MOL0     C71366   9.789   8.668   7.476 -1.0665 -0.6753 -1.1913
  518MOL0     C71367   9.676   8.593   7.398 -0.1158  0.0901 -1.1750
  518MOL0     C71368   9.739   8.469   7.322 -0.5776  0.3554 -0.7219
  518MOL0     C71369   9.660   8.390   7.225 -0.1558 -0.0172 -0.3419
  518MOL0     O71370   9.642   8.476   7.107  0.3061 -0.3117 -0.4107
  518MOL0     C71371   9.599   8.423   6.991  0.7411 -1.0685 -0.5346
  518MOL0     C71372   9.648   8.479   6.872  0.4937 -0.3444 -0.5717
  518MOL0     C71373   9.614   8.429   6.743  0.9899  0.0066  1.0050
  518MOL0     C71374   9.671   8.497   6.623  0.2570 -0.3747 -0.0038
  518MOL0     C71375   9.518   8.321   6.742 -0.3273  0.3431  0.0657
  518MOL0     C71376   9.460   8.274   6.615  0.1794 -0.4654 -0.8546
  518MOL0     O71377   9.333   8.230   6.610 -0.1158 -0.3153  0.4017
  518MOL0     C71378   9.228   8.313   6.651  0.6441  1.0602 -0.1971
  518MOL0     C71379   9.100   8.253   6.659  0.4985 -0.2035 -0.3460
  518MOL0     C71380   8.990   8.330   6.713 -0.0620  0.1684 -1.3682
  518MOL0     C71381   9.010   8.467   6.736  0.9727  0.2925 -0.8621
  518MOL0     O71382   8.907   8.545   6.799  0.0827 -0.7863  0.2514
  518MOL0     C71383   8.804   8.470   6.874  0.8337 -0.9121 -0.7288
  518MOL0     C71384   8.752   8.570   6.981  0.4413 -0.0037  0.3499
  518MOL0     C71385   8.854   8.593   7.082  0.2942  0.3865 -0.3313
  518MOL0     C71386   8.796   8.679   7.190  0.1464 -1.2295 -0.0109
  518MOL0     C71387   8.897   8.687   7.312 -0.7529  0.4356  0.0375
  518MOL0     C71388   8.875   8.560   7.395 -0.6179 -0.3399 -0.5033
  518MOL0     C71389   8.932   8.582   7.536 -0.7547 -0.5337 -0.7036
  518MOL0     C71390   8.964   8.457   7.610  0.3019  0.0924 -0.4336
  518MOL0    Cl71391   9.018   8.501   7.773 -0.4752  0.0927  0.0655
  518MOL0     C71392   9.124   8.528   6.709 -0.6941 -0.4837  0.7846
  518MOL0     C71393   9.230   8.452   6.666 -0.0605  0.7308 -0.4317
  518MOL0     O71394   9.539   8.271   6.521  0.1892  0.0392 -0.0909
  518MOL0     C71395   9.478   8.267   6.869 -0.1469 -0.4500  0.5923
  518MOL0     C71396   9.518   8.315   6.984  0.7514 -0.2490 -0.2019
  518MOL0     N71397  10.026   8.634   7.357 -0.2107 -0.2181 -0.2373
  518MOL0     N71398  10.117   8.716   7.313  1.1732 -0.1730  0.9255
  518MOL0     C71399  10.799   9.269   8.040 -0.5190  0.0566  0.0032
  518MOL0     C71400  10.869   9.313   8.156 -0.0562  0.2974  0.2319
  518MOL0     C71401  11.267   9.496   8.333  0.8351  0.8687 -0.2694
  518MOL0     C71402  11.400   9.483   8.295 -0.4501 -0.7010 -1.1026
  518MOL0     C71403  11.496   9.525   8.391  0.9485 -0.0816  0.4881
  518MOL0     C71404  11.465   9.602   8.501 -0.3697  0.6189 -0.4394
  518MOL0     O71405  11.563   9.652   8.582  0.3111  0.0964 -0.2301
  518MOL0     C71406  11.694   9.666   8.519  0.1550 -0.1551  0.6085
  518MOL0     C71407  11.771   9.773   8.587  0.0884 -0.3608  0.0170
  518MOL0     C71408  11.727   9.911   8.544  0.7713  0.2533  0.6518
  518MOL0     C71409  11.805  10.021   8.600 -0.0595  0.3283  0.2672
  518MOL0     C71410  11.759  10.027   8.740 -0.6837  1.1223  0.3078
  518MOL0     C71411  11.731  10.040   8.857 -0.3785 -0.7557 -1.2339
  518MOL0     C71412  11.328   9.615   8.535 -0.2297  0.3545  0.1441
  518MOL0     C71413  11.228   9.569   8.450 -0.2458  0.2485 -0.2570
  518MOL0     C71414  11.088   9.611   8.483  1.3228  0.1327 -0.1588
  518MOL0     H71415  11.175   9.174   8.081 -1.7710 -3.7715  2.5547
  518MOL0     H71416  11.038   9.079   7.888 -2.5122 -0.3425 -0.6866
  518MOL0     H71417  10.700   9.019   7.960  1.8360  0.3523  0.1599
  518MOL0     H71418  10.800   8.942   7.834  1.7597  1.7380 -2.3292
  518MOL0     H71419  10.647   9.004   7.657 -1.3134 -1.3815 -0.0945
  518MOL0     H71420  10.545   8.931   7.790 -0.5473  1.2614  1.0807
  518MOL0     H71421  10.496   9.161   7.835 -0.4392 -1.0124  0.9565
  518MOL0     H71422  10.587   9.207   7.685  2.1249 -0.5616  2.8673
  518MOL0     H71423  10.328   9.031   7.718 -1.1366  3.2470  1.6480
  518MOL0     H71424  10.331   9.195   7.665 -2.3404 -0.2423  2.0581
  518MOL0     H71425  10.442   8.965   7.505 -1.4842 -0.1570 -2.1814
  518MOL0     H71426  10.442   9.142   7.452 -0.6360 -0.3231 -1.9058
  518MOL0     H71427  10.215   8.950   7.508 -2.2029  0.9197  0.6983
  518MOL0     H71428  10.185   9.124   7.475 -0.1610  0.1687 -0.4731
  518MOL0     H71429  10.343   8.910   7.303 -0.9492 -1.6812  1.5399
  518MOL0     H71430  10.316   9.075   7.255  0.7247 -2.3779 -2.3774
  518MOL0     H71431  10.063   9.033   7.244 -0.0671  0.2746  2.7538
  518MOL0     H71432  10.152   8.901   7.153 -1.4579  0.5669 -0.6595
  518MOL0     H71433   9.895   8.926   7.436  1.3634  2.0101 -2.2795
  518MOL0     H71434   9.745   8.752   7.531  2.1307  0.6725 -0.4674
  518MOL0     H71435   9.819   8.597   7.554  2.1087 -1.4335 -2.9122
  518MOL0     H71436   9.604   8.565   7.475  2.0079 -0.6913  0.6117
  518MOL0     H71437   9.614   8.656   7.333 -1.5267 -1.3946 -1.3250
  518MOL0     H71438   9.828   8.508   7.273  0.6677 -0.5687  0.7166
  518MOL0     H71439   9.782   8.405   7.400  0.5523  0.5724 -1.1582
  518MOL0     H71440   9.707   8.292   7.214  0.7120  0.2656  0.7002
  518MOL0     H71441   9.563   8.368   7.269 -1.0583 -0.4114 -2.3988
  518MOL0     H71442   9.715   8.564   6.880  0.0970  0.0989 -1.8427
  518MOL0     H71443   9.731   8.581   6.658 -2.7855  1.7336  0.4828
  518MOL0     H71444   9.590   8.526   6.555  1.7694 -2.8251 -3.1399
  518MOL0     H71445   9.743   8.430   6.575  1.7792  1.4112 -0.3437
  518MOL0     H71446   9.078   8.154   6.620 -0.4638  0.6658 -2.1090
  518MOL0     H71447   8.895   8.276   6.712 -0.4010  0.7560 -1.7932
  518MOL0     H71448   8.723   8.423   6.818 -2.1328  1.8406  0.9060
  518MOL0     H71449   8.856   8.395   6.935 -2.5188 -2.1638  0.8284
  518MOL0     H71450   8.725   8.665   6.934  5.5684  0.2246 -2.8618
  518MOL0     H71451   8.662   8.530   7.028 -0.8322  1.5011 -0.6926
  518MOL0     H71452   8.943   8.641   7.040  0.7352 -0.7509 -0.7280
  518MOL0     H71453   8.896   8.502   7.126 -1.5609 -0.3751 -0.0551
  518MOL0     H71454   8.700   8.637   7.221 -1.1539  3.1122  2.7097
  518MOL0     H71455   8.773   8.782   7.160 -1.6034 -0.1705  4.2614
  518MOL0     H71456   8.996   8.676   7.267 -2.4491 -2.3031 -3.5933
  518MOL0     H71457   8.897   8.782   7.366  1.7114  0.4278  0.1468
  518MOL0     H71458   8.939   8.486   7.346  2.3887  1.7841 -0.0811
  518MOL0     H71459   8.774   8.520   7.403 -1.2565  1.2470 -0.2647
  518MOL0     H71460   8.851   8.629   7.593  0.8177 -0.2696  1.4330
  518MOL0     H71461   9.014   8.654   7.543 -0.6504 -0.6874 -0.3361
  518MOL0     H71462   9.047   8.407   7.560  0.2605 -1.0764  0.6419
  518MOL0     H71463   8.877   8.392   7.620  1.2467 -0.9175  1.7976
  518MOL0     H71464   9.127   8.636   6.722 -4.7073 -0.4470  2.8313
  518MOL0     H71465   9.320   8.511   6.650 -1.1746  2.5768 -0.1713
  518MOL0     H71466   9.402   8.190   6.871 -0.8948  0.2595  0.0452
  518MOL0     H71467   9.476   8.266   7.071 -0.5781 -1.1258 -1.2904
  518MOL0     H71468  10.693   9.282   8.019 -0.1144 -1.0164 -3.2625
  518MOL0     H71469  10.808   9.353   8.237 -0.8123  2.3644 -1.2774
  518MOL0     H71470  11.427   9.429   8.205  1.2282 -0.5256 -0.7254
  518MOL0     H71471  11.600   9.501   8.374  0.8311  0.1848 -0.6956
  518MOL0     H71472  11.740   9.569   8.538 -1.1941 -1.0432 -0.5206
  518MOL0     H71473  11.696   9.678   8.410 -1.0709 -0.1447  0.5723
  518MOL0     H71474  11.878   9.761   8.566 -0.6741 -1.5385 -3.9921
  518MOL0     H71475  11.765   9.763   8.696 -1.3992 -3.7589 -0.2594
  518MOL0     H71476  11.734   9.919   8.436 -0.0531  1.7418  0.6850
  518MOL0     H71477  11.625   9.935   8.575  1.1829  0.6779  1.7328
  518MOL0     H71478  11.773  10.113   8.550 -2.4942 -0.6794 -0.1581
  518MOL0     H71479  11.910   9.991   8.589  0.0297  0.2905  1.1343
  518MOL0     H71480  11.714  10.063   8.960 -1.0145  0.0627 -1.5150
  518MOL0     H71481  11.305   9.672   8.624  2.4305  3.0082 -0.7099
  518MOL0     H71482  11.024   9.586   8.398  2.5165  1.4967 -1.5413
  518MOL0     H71483  11.060   9.549   8.568  1.9002 -0.0854 -0.1243
  518MOL0     H71484  11.080   9.716   8.512  0.7371 -0.0981  0.5297
  519MOL0     O71485   2.928   5.775   7.313  0.2061  0.0572  0.0221
  519MOL0     C71486   2.872   5.764   7.425 -0.0785 -0.0423 -0.2442
  519MOL0     O71487   2.929   5.760   7.545 -0.9982 -1.0875 -0.8350
  519MOL0     C71488   3.066   5.743   7.543 -0.6981 -0.2178 -0.6895
  519MOL0     C71489   3.150   5.856   7.527  0.0334 -0.1184 -0.2249
  519MOL0     C71490   3.295   5.853   7.543  1.2970 -0.9186 -0.0430
  519MOL0     C71491   3.352   5.730   7.575  0.1286  0.4887 -0.2958
  519MOL0     O71492   3.483   5.741   7.597 -0.5989  1.2192 -0.7391
  519MOL0     C71493   3.552   5.643   7.685 -0.8008  0.2139  0.8484
  519MOL0     C71494   3.701   5.676   7.708  0.3257  0.0154  0.0001
  519MOL0     C71495   3.803   5.573   7.764 -0.2535 -0.1858 -0.0541
  519MOL0     C71496   3.794   5.429   7.706  0.0261  0.1968  1.0005
  519MOL0     C71497   3.876   5.416   7.581  0.4078  0.2207  0.4220
  519MOL0     C71498   3.895   5.265   7.533 -0.9392 -1.4911  0.0921
  519MOL0     C71499   3.825   5.254   7.389  0.5132  0.9101 -0.3832
  519MOL0     C71500   3.773   5.105   7.364 -0.9619 -0.6630 -0.2284
  519MOL0     N71501   3.726   5.090   7.227 -0.4578  0.6797  0.2893
  519MOL0     C71502   3.616   5.146   7.171 -0.3290  0.1745  0.6132
  519MOL0     C71503   3.606   5.088   7.047  0.0385 -0.5651 -0.3231
  519MOL0     C71504   3.525   5.139   6.929 -0.3002  0.4849  0.1414
  519MOL0     C71505   3.596   5.229   6.837  1.2543  0.7785  0.1845
  519MOL0     C71506   3.621   5.361   6.909 -1.4874  0.1609  0.1834
  519MOL0     C71507   3.680   5.474   6.821 -0.1151 -0.4384  0.1840
  519MOL0     O71508   3.582   5.568   6.779 -0.0095  0.3152  0.0715
  519MOL0     C71509   3.584   5.604   6.641  1.3965 -0.1925  0.2501
  519MOL0     C71510   3.479   5.560   6.554 -0.3487  0.8533  0.3735
  519MOL0     C71511   3.476   5.586   6.415 -0.3012  0.9357  0.7403
  519MOL0     C71512   3.360   5.536   6.345  0.1437  0.1506  0.4904
  519MOL0     C71513   3.576   5.677   6.359  0.6307  0.3869 -0.1907
  519MOL0     C71514   3.595   5.707   6.220 -0.0247 -1.2362 -0.8313
  519MOL0     O71515   3.482   5.695   6.140 -0.3281 -0.3830 -0.2430
  519MOL0     C71516   3.497   5.712   6.004  0.1156 -0.2939 -0.7173
  519MOL0     C71517   3.602   5.660   5.932  0.3995  0.6278  0.0317
  519MOL0     C71518   3.632   5.689   5.802  0.8353 -0.2053 -0.1394
  519MOL0     C71519   3.541   5.773   5.728  0.0889  0.2951  0.3140
  519MOL0     O71520   3.563   5.805   5.599 -0.3477  0.0320  0.6177
  519MOL0     C71521   3.531   5.695   5.500 -0.1941 -0.1327 -0.1875
  519MOL0     C71522   3.643   5.692   5.391 -0.5647 -0.4068  0.6331
  519MOL0     C71523   3.765   5.599   5.426  1.0438 -0.6887  0.0290
  519MOL0     C71524   3.733   5.451   5.398 -0.8612 -0.2487 -0.1959
  519MOL0     C71525   3.858   5.366   5.345 -0.9704 -0.9157 -0.4494
  519MOL0     C71526   3.844   5.234   5.258 -0.6426 -1.0879 -0.3609
  519MOL0     C71527   3.982   5.166   5.247  1.0126 -0.4911 -0.2709
  519MOL0     C71528   3.978   5.047   5.148 -0.6981 -0.0320 -0.3164
  519MOL0    Cl71529   3.893   5.070   4.994  0.2507 -0.3114  0.1270
  519MOL0     C71530   3.435   5.833   5.801 -1.1308 -0.1198 -0.2749
  519MOL0     C71531   3.410   5.802   5.934  0.1560  0.0585  0.0797
  519MOL0     O71532   3.704   5.747   6.184 -0.2263 -0.0350  0.2204
  519MOL0     C71533   3.664   5.731   6.454 -0.3685 -0.2953  0.0071
  519MOL0     C71534   3.682   5.683   6.585  0.5364  0.0755  0.4778
  519MOL0     N71535   3.698   4.987   7.045  0.0296  0.3389  0.0542
  519MOL0     N71536   3.773   4.985   7.153  0.3235  0.9608  0.6431
  519MOL0     C71537   3.266   5.621   7.603  0.3622  0.5623  0.4881
  519MOL0     C71538   3.127   5.626   7.586 -0.5902  0.2375 -0.2301
  519MOL0     C71539   2.725   5.733   7.415 -0.4818 -0.1358 -0.6419
  519MOL0     C71540   2.673   5.653   7.523  0.0316 -0.1294 -0.5136
  519MOL0     C71541   2.538   5.607   7.528  0.0099 -0.1081 -0.2255
  519MOL0     C71542   2.449   5.643   7.428 -0.6207 -0.1643  0.3150
  519MOL0     O71543   2.320   5.622   7.450 -0.0145 -0.7554 -0.5270
  519MOL0     C71544   2.232   5.620   7.339 -0.1877  1.0150  0.5411
  519MOL0     C71545   2.088   5.581   7.392  0.0679 -0.4421 -0.7618
  519MOL0     C71546   2.078   5.433   7.418 -0.2983  0.1958 -0.0151
  519MOL0     C71547   2.155   5.388   7.535 -1.2384  0.1683 -0.8864
  519MOL0     C71548   2.112   5.268   7.607  0.8176  0.2207 -0.1466
  519MOL0     C71549   2.082   5.157   7.655 -0.1532 -0.2083 -0.5143
  519MOL0     C71550   2.505   5.704   7.317 -0.3409 -0.0523 -0.9074
  519MOL0     C71551   2.638   5.749   7.302 -0.5089  0.1248  0.9522
  519MOL0     C71552   2.660   5.840   7.188  0.3943  0.1623 -0.4052
  519MOL0     H71553   3.110   5.955   7.512  1.6508  0.6455  0.3037
  519MOL0     H71554   3.339   5.951   7.530  1.1016 -0.8815 -0.4301
  519MOL0     H71555   3.561   5.548   7.631 -1.2529 -0.9764  2.7864
  519MOL0     H71556   3.496   5.616   7.774  0.2511 -2.7098  0.7191
  519MOL0     H71557   3.733   5.677   7.603 -2.3160  1.0491 -0.8744
  519MOL0     H71558   3.705   5.777   7.750  1.3128 -0.2601  0.6077
  519MOL0     H71559   3.908   5.599   7.744  0.2976 -3.7414 -2.7866
  519MOL0     H71560   3.781   5.576   7.871 -1.6092 -1.4946 -0.2607
  519MOL0     H71561   3.839   5.373   7.788 -1.4183 -0.1730  1.5833
  519MOL0     H71562   3.689   5.401   7.691 -0.2752  1.5364  0.4503
  519MOL0     H71563   3.976   5.452   7.611  0.5333 -0.1144  0.4046
  519MOL0     H71564   3.847   5.482   7.498 -1.8231  1.8425  2.3756
  519MOL0     H71565   4.002   5.247   7.518 -0.4914  0.4923  0.5216
  519MOL0     H71566   3.850   5.194   7.603 -1.5930 -2.5647 -1.3653
  519MOL0     H71567   3.884   5.282   7.302  0.6896  2.5203  0.2260
  519MOL0     H71568   3.737   5.318   7.377 -1.0273 -1.1248 -0.5001
  519MOL0     H71569   3.854   5.036   7.387 -0.1186  0.2210 -0.4491
  519MOL0     H71570   3.688   5.090   7.431  0.3780  0.2750  1.7912
  519MOL0     H71571   3.545   5.217   7.214  2.2550  1.7737  2.5636
  519MOL0     H71572   3.429   5.182   6.960  0.5349  2.7547 -0.2381
  519MOL0     H71573   3.494   5.044   6.884 -0.9487 -0.9009  3.1704
  519MOL0     H71574   3.683   5.182   6.791 -0.2177 -3.0167  0.9238
  519MOL0     H71575   3.531   5.245   6.750  1.0798  2.0900  0.5398
  519MOL0     H71576   3.532   5.397   6.961 -0.5201 -0.4785  2.4042
  519MOL0     H71577   3.702   5.331   6.977 -0.9342 -1.2354 -1.0478
  519MOL0     H71578   3.752   5.531   6.880  0.2559 -0.4926 -0.2078
  519MOL0     H71579   3.727   5.438   6.728 -1.7598 -0.9808 -0.4697
  519MOL0     H71580   3.399   5.500   6.595  0.7898  0.0157  1.4290
  519MOL0     H71581   3.384   5.464   6.266 -1.7628 -4.4575  3.6474
  519MOL0     H71582   3.300   5.615   6.299  2.3719  0.0301 -2.9396
  519MOL0     H71583   3.293   5.475   6.407  2.2523 -1.1825  1.5599
  519MOL0     H71584   3.683   5.607   5.981 -0.6407  0.4065  1.5902
  519MOL0     H71585   3.727   5.658   5.760  0.8895  1.6123 -1.5253
  519MOL0     H71586   3.519   5.601   5.554 -0.4692 -1.3562 -2.2597
  519MOL0     H71587   3.440   5.724   5.446  0.0358 -2.2294 -1.8325
  519MOL0     H71588   3.607   5.675   5.289 -0.1995  1.8049  0.0883
  519MOL0     H71589   3.680   5.795   5.397  0.1009 -0.5384 -0.8447
  519MOL0     H71590   3.784   5.609   5.534 -0.3878 -3.3499  0.6152
  519MOL0     H71591   3.851   5.644   5.376  0.9193  0.5005  0.8296
  519MOL0     H71592   3.650   5.445   5.328 -2.5011  0.5479  1.5721
  519MOL0     H71593   3.698   5.403   5.490 -1.0110  1.2412  0.5599
  519MOL0     H71594   3.922   5.430   5.283 -0.8598 -2.1544 -1.6691
  519MOL0     H71595   3.929   5.334   5.422  0.1426 -1.8648 -1.8078
  519MOL0     H71596   3.805   5.260   5.159 -0.4534  3.0561  0.4726
  519MOL0     H71597   3.779   5.167   5.314  1.1991  0.5995  4.2494
  519MOL0     H71598   4.022   5.133   5.344 -1.6948 -0.6408  0.8809
  519MOL0     H71599   4.054   5.232   5.198  0.2456  0.0331 -0.7112
  519MOL0     H71600   3.932   4.959   5.194 -0.6322  0.4621  0.7020
  519MOL0     H71601   4.078   5.024   5.109 -1.1774 -0.0192 -1.6151
  519MOL0     H71602   3.391   5.922   5.757  1.1710 -0.0099 -2.6353
  519MOL0     H71603   3.339   5.859   5.993 -0.4080 -0.5164 -0.0255
  519MOL0     H71604   3.742   5.796   6.416  1.5328 -2.3481  0.1819
  519MOL0     H71605   3.770   5.720   6.636 -1.4459  2.5749  2.3557
  519MOL0     H71606   3.309   5.525   7.630  0.3179  0.1388 -0.8632
  519MOL0     H71607   3.054   5.552   7.618 -0.1405 -0.0455  0.1643
  519MOL0     H71608   2.732   5.607   7.601  1.5280  1.6594 -0.5028
  519MOL0     H71609   2.493   5.552   7.611 -0.2385  1.9473  1.0828
  519MOL0     H71610   2.219   5.720   7.297 -1.8669  0.6082  0.0183
  519MOL0     H71611   2.269   5.543   7.270 -1.3199  0.0252  1.0162
  519MOL0     H71612   2.023   5.613   7.310  0.2137 -0.2601 -0.8062
  519MOL0     H71613   2.058   5.651   7.470 -2.3366 -1.2109 -0.8963
  519MOL0     H71614   1.972   5.422   7.444 -0.3496  0.0249 -0.2891
  519MOL0     H71615   2.106   5.368   7.335 -1.9659  0.3311 -0.7238
  519MOL0     H71616   2.148   5.464   7.613  2.3120 -0.9270  0.6760
  519MOL0     H71617   2.262   5.383   7.515 -1.2414  2.0747 -1.6132
  519MOL0     H71618   2.074   5.056   7.688  0.0483 -0.6375 -1.7295
  519MOL0     H71619   2.441   5.736   7.236 -0.3497  0.2592 -0.7796
  519MOL0     H71620   2.757   5.827   7.138  1.1577  1.7866  0.5643
  519MOL0     H71621   2.582   5.814   7.116 -1.8244 -0.5783  2.1405
  519MOL0     H71622   2.645   5.944   7.215 -0.2194 -0.6589  2.7485
  520MOL0     O71623   4.904   4.128   2.536 -0.6343  0.4644 -0.5560
  520MOL0     C71624   4.912   4.025   2.601  0.2364  0.0550 -0.1521
  520MOL0     O71625   4.809   3.949   2.653  0.0149  0.0542 -0.4729
  520MOL0     C71626   4.682   3.991   2.618  0.4259 -0.4995 -0.0461
  520MOL0     C71627   4.615   4.056   2.725 -0.3227 -0.4623  0.6379
  520MOL0     C71628   4.483   4.102   2.717 -0.0812 -1.0522 -0.0994
  520MOL0     C71629   4.422   4.099   2.589 -0.2331  0.2362  0.3584
  520MOL0     O71630   4.293   4.115   2.567 -0.9982 -0.0352  0.4883
  520MOL0     C71631   4.228   4.223   2.631 -0.0147  1.3944 -0.4126
  520MOL0     C71632   4.094   4.260   2.576  0.0629  0.1134 -0.2283
  520MOL0     C71633   3.989   4.145   2.563 -0.4416  1.0598 -0.4715
  520MOL0     C71634   3.958   4.091   2.706 -0.5729 -0.7928 -0.5440
  520MOL0     C71635   3.823   4.031   2.712  1.2803  0.5806  0.2151
  520MOL0     C71636   3.808   3.948   2.843 -1.1236 -0.1702 -0.0087
  520MOL0     C71637   3.658   3.917   2.867 -0.1061  0.1869  0.0359
  520MOL0     C71638   3.646   3.832   2.986  0.4151 -0.4480 -0.9163
  520MOL0     N71639   3.513   3.795   3.030  0.7545 -0.4165 -0.0194
  520MOL0     C71640   3.410   3.762   2.948  0.3898 -0.1626 -0.0752
  520MOL0     C71641   3.302   3.717   3.023  0.4689  0.9285 -0.0396
  520MOL0     C71642   3.166   3.693   2.965 -0.1454 -0.1641 -0.3789
  520MOL0     C71643   3.140   3.542   2.976  0.8907 -0.1020 -0.5101
  520MOL0     C71644   2.991   3.520   2.963  0.3823  0.7221 -0.1456
  520MOL0     C71645   2.944   3.372   2.972 -0.3317 -0.0232 -0.7396
  520MOL0     O71646   2.975   3.333   3.107  0.1297 -0.7090 -1.2690
  520MOL0     C71647   3.009   3.208   3.141  0.0107 -0.0156  1.1056
  520MOL0     C71648   3.058   3.184   3.266  0.3449 -0.1117 -0.3296
  520MOL0     C71649   3.094   3.056   3.311 -0.2266  0.4385  0.0883
  520MOL0     C71650   3.138   3.055   3.450  0.6072  1.1693 -0.8345
  520MOL0     C71651   3.080   2.945   3.220  0.1154  0.9461  0.2517
  520MOL0     C71652   3.105   2.799   3.256 -0.1231 -1.0343  1.3771
  520MOL0     O71653   3.136   2.770   3.383 -1.1075 -0.6630  0.3878
  520MOL0     C71654   3.134   2.641   3.413  0.2068  0.1249  0.2633
  520MOL0     C71655   3.031   2.583   3.498 -0.5654 -0.6616  0.0793
  520MOL0     C71656   3.048   2.454   3.551  1.3499  0.7816 -0.4632
  520MOL0     C71657   3.148   2.366   3.507 -0.4718 -0.8522  0.5315
  520MOL0     O71658   3.157   2.237   3.559 -0.0697 -0.4458  0.1910
  520MOL0     C71659   3.278   2.208   3.639  0.8749 -1.3499 -0.7699
  520MOL0     C71660   3.284   2.063   3.698 -0.6434 -0.0887  0.0834
  520MOL0     C71661   3.389   1.964   3.654 -0.5584  0.1388  0.5501
  520MOL0     C71662   3.339   1.885   3.527 -0.8108 -0.3761  0.4247
  520MOL0     C71663   3.441   1.778   3.468  0.1332 -0.0766  0.3627
  520MOL0     C71664   3.472   1.657   3.558  0.0530  0.5165  0.1176
  520MOL0     C71665   3.619   1.656   3.590 -0.9694  0.0301 -0.5803
  520MOL0     C71666   3.671   1.533   3.666  0.9415 -1.1111 -0.3311
  520MOL0    Cl71667   3.579   1.500   3.812  0.2637  0.0516 -0.0678
  520MOL0     C71668   3.233   2.415   3.410 -0.0081 -0.0965 -0.8495
  520MOL0     C71669   3.237   2.550   3.375 -0.7194  0.0488  0.7094
  520MOL0     O71670   3.085   2.718   3.161 -0.7323 -0.2055  0.0080
  520MOL0     C71671   3.038   2.974   3.092 -0.1562 -0.3041 -0.2197
  520MOL0     C71672   3.011   3.102   3.048  0.1777 -0.6094  0.5068
  520MOL0     N71673   3.348   3.704   3.147 -0.7934  0.1362 -0.6710
  520MOL0     N71674   3.467   3.764   3.155 -0.0814 -0.8239  0.6183
  520MOL0     C71675   4.498   4.058   2.484  0.5414  0.5078  0.3000
  520MOL0     C71676   4.623   4.005   2.490  0.5643  0.2645 -0.3583
  520MOL0     C71677   5.045   3.966   2.649  0.3025  0.6540 -0.1445
  520MOL0     C71678   5.038   3.827   2.687 -0.5626 -0.2492  0.6214
  520MOL0     C71679   5.150   3.757   2.734 -1.2751  0.0351 -0.2590
  520MOL0     C71680   5.279   3.812   2.734  0.1878 -0.1922  1.0020
  520MOL0     O71681   5.385   3.739   2.765 -0.2641  0.5258 -0.2373
  520MOL0     C71682   5.372   3.625   2.853 -0.4399 -0.3466 -0.0440
  520MOL0     C71683   5.510   3.596   2.927 -0.7160  0.3240  0.6636
  520MOL0     C71684   5.627   3.587   2.826  0.0784 -0.3117 -0.0083
  520MOL0     C71685   5.763   3.559   2.897 -0.2555  0.0492 -0.5180
  520MOL0     C71686   5.849   3.479   2.810  0.3723 -0.4234 -1.0695
  520MOL0     C71687   5.915   3.411   2.734  0.3844  0.0952  0.3702
  520MOL0     C71688   5.288   3.948   2.692  0.3408  0.2072 -0.6380
  520MOL0     C71689   5.169   4.026   2.657 -0.0802 -0.9052 -0.5073
  520MOL0     C71690   5.193   4.169   2.622 -0.3032 -0.4300 -0.4151
  520MOL0     H71691   4.669   4.052   2.819 -2.8361 -0.7888  2.1434
  520MOL0     H71692   4.433   4.143   2.804 -0.1207  1.7510 -1.3514
  520MOL0     H71693   4.296   4.309   2.628  1.7019  0.1713  0.9547
  520MOL0     H71694   4.209   4.208   2.738 -1.3482  2.3074 -0.4991
  520MOL0     H71695   4.052   4.338   2.641  0.0590 -0.3559  0.3484
  520MOL0     H71696   4.097   4.310   2.479 -0.8729  0.2084 -0.2151
  520MOL0     H71697   3.897   4.184   2.520 -3.5292 -2.5923  2.1766
  520MOL0     H71698   4.019   4.064   2.495 -3.3657 -1.5639  1.1127
  520MOL0     H71699   4.035   4.016   2.729 -1.7995 -3.5044 -4.3005
  520MOL0     H71700   3.957   4.179   2.771  3.0162 -0.0936 -1.1929
  520MOL0     H71701   3.792   3.973   2.624 -0.6441  3.1205 -0.9285
  520MOL0     H71702   3.742   4.105   2.722 -0.3767 -1.3498  2.1686
  520MOL0     H71703   3.873   3.861   2.852 -2.3246 -0.9604  1.4506
  520MOL0     H71704   3.841   4.016   2.922  4.5413  1.0319 -2.9158
  520MOL0     H71705   3.617   3.847   2.794 -0.0518 -1.2477  1.3285
  520MOL0     H71706   3.593   4.003   2.879  0.8508  1.3445 -2.3950
  520MOL0     H71707   3.704   3.739   2.978  1.8606  0.3971 -0.6524
  520MOL0     H71708   3.681   3.884   3.076  1.6717  0.0232 -1.6578
  520MOL0     H71709   3.388   3.788   2.845 -0.7714 -0.0742  0.1812
  520MOL0     H71710   3.178   3.740   2.866 -0.1323  2.6213  0.8510
  520MOL0     H71711   3.091   3.756   3.014 -0.4134 -0.4116 -0.4641
  520MOL0     H71712   3.194   3.477   2.905 -0.1734 -0.2684 -1.1810
  520MOL0     H71713   3.163   3.509   3.078  1.3328  2.6436  0.3366
  520MOL0     H71714   2.934   3.585   3.029 -2.3274 -3.3608  1.9490
  520MOL0     H71715   2.958   3.556   2.865 -0.9341  0.8655  0.3323
  520MOL0     H71716   2.838   3.346   2.966  0.1488 -2.3083 -0.1917
  520MOL0     H71717   2.994   3.318   2.892  1.5283  1.5782 -0.7664
  520MOL0     H71718   3.067   3.266   3.335  1.1258  0.6105 -1.2506
  520MOL0     H71719   3.115   3.153   3.493  2.5097  1.5368 -0.5986
  520MOL0     H71720   3.244   3.034   3.465  0.9052  1.7338 -2.0464
  520MOL0     H71721   3.074   2.982   3.501 -1.2060  4.2582  1.7224
  520MOL0     H71722   2.949   2.647   3.530  0.4932  0.8645 -0.1317
  520MOL0     H71723   2.992   2.422   3.639  0.7168  3.1425  0.0821
  520MOL0     H71724   3.369   2.224   3.580  2.3526  1.9404  2.0304
  520MOL0     H71725   3.278   2.272   3.728 -2.6059 -0.8568 -0.9921
  520MOL0     H71726   3.302   2.079   3.804 -0.6747 -1.7467  0.3612
  520MOL0     H71727   3.186   2.018   3.682  0.3712 -3.0128  1.5258
  520MOL0     H71728   3.398   1.887   3.731  0.5487  1.8757  2.2228
  520MOL0     H71729   3.481   2.012   3.619 -2.9240  2.4929 -3.1449
  520MOL0     H71730   3.316   1.951   3.443 -0.9303 -3.8873 -2.5266
  520MOL0     H71731   3.246   1.829   3.543 -2.0102  0.6232 -2.3766
  520MOL0     H71732   3.394   1.752   3.373 -1.9407  1.8701  0.7645
  520MOL0     H71733   3.537   1.830   3.456 -0.1399  1.0976  2.6144
  520MOL0     H71734   3.442   1.570   3.500  1.4535 -0.5171  0.8645
  520MOL0     H71735   3.403   1.655   3.643 -0.8500 -1.8119 -0.5883
  520MOL0     H71736   3.641   1.740   3.657 -0.2472  1.7608 -2.8843
  520MOL0     H71737   3.678   1.661   3.499 -0.9856 -0.7815 -0.6407
  520MOL0     H71738   3.773   1.549   3.704  0.9009  0.4044 -0.7737
  520MOL0     H71739   3.677   1.445   3.601  3.1161 -3.1135  2.3270
  520MOL0     H71740   3.306   2.355   3.356  1.5568 -0.9723  1.9691
  520MOL0     H71741   3.319   2.578   3.310  0.6322 -0.6980  2.0402
  520MOL0     H71742   3.038   2.890   3.024  0.1802 -0.2411 -0.3005
  520MOL0     H71743   2.966   3.109   2.950 -2.0001  1.5294  1.5547
  520MOL0     H71744   4.444   4.057   2.390  0.1870  3.6712  0.3547
  520MOL0     H71745   4.665   3.967   2.398  1.7818  0.9994 -0.1440
  520MOL0     H71746   4.951   3.768   2.662  1.0324 -2.0941 -0.9638
  520MOL0     H71747   5.132   3.655   2.768 -1.6121  0.2319  0.1562
  520MOL0     H71748   5.294   3.640   2.928  0.9510 -0.0509  1.4045
  520MOL0     H71749   5.348   3.538   2.792 -4.0790  0.6036 -0.1606
  520MOL0     H71750   5.506   3.506   2.988 -0.0915  1.0301  1.7698
  520MOL0     H71751   5.537   3.675   2.998  1.1578  0.5802 -0.2727
  520MOL0     H71752   5.608   3.507   2.753  0.4630 -0.5148  0.1111
  520MOL0     H71753   5.639   3.685   2.778 -3.0212  1.1198  1.8583
  520MOL0     H71754   5.737   3.516   2.994  1.5693  2.8151  1.3463
  520MOL0     H71755   5.827   3.646   2.915  2.2626 -1.8650  0.5146
  520MOL0     H71756   5.972   3.356   2.662 -1.0402 -1.3582  0.3081
  520MOL0     H71757   5.386   3.990   2.671 -0.8015  2.3739 -2.0801
  520MOL0     H71758   5.106   4.231   2.647  1.3599  1.3744  1.1668
  520MOL0     H71759   5.279   4.214   2.672  1.3749 -4.3146  0.5640
  520MOL0     H71760   5.197   4.177   2.513 -2.0740 -2.2448 -0.6803
  521MOL0     O71761   3.832   6.572   1.946 -0.7386 -0.5903  0.3201
  521MOL0     C71762   3.888   6.557   2.059 -0.2242 -0.1829  0.9999
  521MOL0     O71763   3.978   6.636   2.116 -0.5013  0.0687 -0.2208
  521MOL0     C71764   4.018   6.745   2.049  0.3227  0.1174 -0.3375
  521MOL0     C71765   4.137   6.726   1.978  0.2205 -0.8825  1.1897
  521MOL0     C71766   4.206   6.836   1.920  0.2338  0.5921  0.6165
  521MOL0     C71767   4.167   6.966   1.958  0.5420 -0.3007 -0.5558
  521MOL0     O71768   4.229   7.082   1.910  0.1473 -0.2516  0.1519
  521MOL0     C71769   4.354   7.066   1.836  0.8128 -0.6095 -0.1875
  521MOL0     C71770   4.476   7.042   1.922 -0.1074 -0.0176  0.3131
  521MOL0     C71771   4.456   7.152   2.040 -0.2299  1.0185 -0.1966
  521MOL0     C71772   4.569   7.153   2.154  0.6464  0.7880  0.2953
  521MOL0     C71773   4.587   7.287   2.228 -1.0653 -0.3529  0.4201
  521MOL0     C71774   4.457   7.338   2.310 -0.2457 -0.1240 -0.1598
  521MOL0     C71775   4.486   7.449   2.408  0.5819  0.0381  0.0673
  521MOL0     C71776   4.356   7.511   2.455 -0.3067 -0.0812  0.4053
  521MOL0     N71777   4.349   7.539   2.601 -0.1371  0.5215  1.1433
  521MOL0     C71778   4.425   7.624   2.671 -0.1731  0.7458 -0.4026
  521MOL0     C71779   4.404   7.586   2.810 -0.3608 -0.9693  0.7625
  521MOL0     C71780   4.474   7.627   2.935 -0.1500  0.2047  0.0743
  521MOL0     C71781   4.414   7.754   2.989 -0.2931 -0.0928 -0.1452
  521MOL0     C71782   4.493   7.806   3.108  0.5118  0.0554  0.0786
  521MOL0     C71783   4.510   7.706   3.218 -0.2221  1.0101 -0.4991
  521MOL0     O71784   4.543   7.787   3.328 -0.1313  0.2336  1.1370
  521MOL0     C71785   4.519   7.751   3.456 -1.0922  0.5024 -1.2184
  521MOL0     C71786   4.509   7.850   3.557 -0.1419  0.0107 -0.0892
  521MOL0     C71787   4.485   7.803   3.686  0.2777 -0.2353 -0.0069
  521MOL0     C71788   4.495   7.913   3.792  0.0269 -0.5796  0.1255
  521MOL0     C71789   4.471   7.670   3.725 -0.3737  0.2900  0.2075
  521MOL0     C71790   4.427   7.619   3.867  0.1814 -0.0910  0.7398
  521MOL0     O71791   4.443   7.484   3.883  0.1189 -1.4495  0.2334
  521MOL0     C71792   4.481   7.440   4.010  0.3277 -1.3299 -0.8794
  521MOL0     C71793   4.392   7.413   4.109  0.7465 -0.7187 -0.2584
  521MOL0     C71794   4.434   7.356   4.233  0.0335 -0.4738 -0.1684
  521MOL0     C71795   4.569   7.356   4.268 -0.3776 -0.4159 -0.2035
  521MOL0     O71796   4.602   7.322   4.391 -0.1620  0.5044  0.3568
  521MOL0     C71797   4.740   7.339   4.442 -0.6165  0.3587 -0.1386
  521MOL0     C71798   4.836   7.232   4.395 -0.6095  0.2596  0.9514
  521MOL0     C71799   4.977   7.282   4.425  0.4665 -1.0805 -0.4792
  521MOL0     C71800   5.071   7.181   4.366 -0.1479 -0.0050  0.1831
  521MOL0     C71801   5.208   7.235   4.405 -0.1507 -0.0709 -0.9870
  521MOL0     C71802   5.326   7.189   4.312  0.2774  0.1101  0.1130
  521MOL0     C71803   5.456   7.207   4.385 -0.6250  0.4098  1.5205
  521MOL0     C71804   5.572   7.214   4.275  0.0992  0.9299  0.2967
  521MOL0    Cl71805   5.555   7.066   4.171 -0.0827 -0.1888  0.0190
  521MOL0     C71806   4.658   7.399   4.178  0.4525  0.6861  0.7335
  521MOL0     C71807   4.616   7.439   4.044 -0.9521  0.1530 -0.4186
  521MOL0     O71808   4.368   7.696   3.944 -1.2122 -0.7178 -0.3802
  521MOL0     C71809   4.488   7.577   3.617  0.6849 -0.5921 -0.9409
  521MOL0     C71810   4.511   7.616   3.488 -0.3504  0.1394  0.7219
  521MOL0     N71811   4.299   7.488   2.803 -0.1947  0.4304  0.0722
  521MOL0     N71812   4.277   7.454   2.684  0.0904 -0.1792  0.1106
  521MOL0     C71813   4.051   6.981   2.028  0.0970  0.5196 -0.5169
  521MOL0     C71814   3.974   6.877   2.071 -0.1695 -0.6571 -0.4509
  521MOL0     C71815   3.867   6.416   2.106 -0.1842 -0.4200 -0.0078
  521MOL0     C71816   3.844   6.312   2.012 -0.7999 -0.2490  0.8921
  521MOL0     C71817   3.820   6.184   2.048 -0.3039  0.7966 -0.6131
  521MOL0     C71818   3.808   6.152   2.180  0.9447  0.4473 -1.0595
  521MOL0     O71819   3.793   6.017   2.201 -0.1788  0.1929 -0.0718
  521MOL0     C71820   3.785   5.966   2.326 -0.5683  0.1492 -0.0199
  521MOL0     C71821   3.745   5.811   2.327  0.7738 -1.2861  0.0892
  521MOL0     C71822   3.605   5.792   2.257  0.7068 -0.5113  0.7247
  521MOL0     C71823   3.615   5.689   2.144  0.4714  0.2964  0.5806
  521MOL0     C71824   3.667   5.557   2.195 -0.3686 -0.0706  0.6033
  521MOL0     C71825   3.713   5.448   2.234  0.3438 -1.1065  0.1436
  521MOL0     C71826   3.814   6.250   2.279 -0.2097 -0.6598  0.2556
  521MOL0     C71827   3.843   6.387   2.242 -0.7821  0.0654 -0.6322
  521MOL0     C71828   3.856   6.489   2.357 -0.1525 -0.2912 -0.5075
  521MOL0     H71829   4.164   6.625   1.951  0.3312 -0.8350  1.1195
  521MOL0     H71830   4.292   6.811   1.859  0.5852  2.1642  0.4254
  521MOL0     H71831   4.376   7.156   1.777 -0.1354 -1.7642 -2.4267
  521MOL0     H71832   4.336   6.995   1.754 -1.0355  0.4651 -0.7696
  521MOL0     H71833   4.471   6.938   1.956 -1.5090 -0.6736 -1.7025
  521MOL0     H71834   4.562   7.060   1.858 -0.5487 -0.3270 -0.3746
  521MOL0     H71835   4.454   7.246   1.984  0.5209  0.6327 -0.8915
  521MOL0     H71836   4.358   7.151   2.090  0.6980  1.5715  1.6980
  521MOL0     H71837   4.551   7.072   2.226 -0.9052  0.1715 -0.7357
  521MOL0     H71838   4.660   7.128   2.099 -0.1103 -1.5269  0.0062
  521MOL0     H71839   4.615   7.373   2.167  0.5106 -1.4193 -0.4128
  521MOL0     H71840   4.670   7.280   2.298  1.3475 -0.5213 -2.2550
  521MOL0     H71841   4.394   7.375   2.228  3.3485  0.2297 -3.0698
  521MOL0     H71842   4.415   7.253   2.364  3.5335 -2.0228  0.1086
  521MOL0     H71843   4.538   7.528   2.352 -0.5978 -0.4386 -1.8043
  521MOL0     H71844   4.549   7.423   2.493 -0.7822 -0.7946  0.8597
  521MOL0     H71845   4.328   7.595   2.390  1.6842  0.2200 -0.1489
  521MOL0     H71846   4.276   7.438   2.443 -1.6787  1.6929 -2.3695
  521MOL0     H71847   4.498   7.692   2.630  2.5327 -0.8643  1.3815
  521MOL0     H71848   4.577   7.657   2.916 -0.2662  1.9158  1.8685
  521MOL0     H71849   4.479   7.540   3.001 -0.1513 -1.1695 -1.6754
  521MOL0     H71850   4.426   7.825   2.907 -0.7881 -2.4934 -2.4235
  521MOL0     H71851   4.308   7.734   3.009 -0.5210 -1.5384 -2.4262
  521MOL0     H71852   4.592   7.850   3.090  0.2764  1.3160  1.6363
  521MOL0     H71853   4.424   7.883   3.145 -0.3616 -1.5659  1.9821
  521MOL0     H71854   4.416   7.652   3.228 -0.1897  0.6394 -1.9713
  521MOL0     H71855   4.587   7.630   3.204 -0.6607  0.6952 -1.2481
  521MOL0     H71856   4.519   7.950   3.515  0.0430  1.2877  2.7634
  521MOL0     H71857   4.454   7.893   3.891  1.1689 -2.0552  0.3363
  521MOL0     H71858   4.443   7.999   3.748 -0.9426 -1.3497 -0.2728
  521MOL0     H71859   4.601   7.931   3.808 -0.0949 -1.2258  1.9272
  521MOL0     H71860   4.285   7.419   4.091  0.7820 -1.8169 -0.9353
  521MOL0     H71861   4.360   7.324   4.306  0.3731  1.5289  1.1246
  521MOL0     H71862   4.783   7.439   4.426 -0.2024  0.3895  1.0404
  521MOL0     H71863   4.738   7.333   4.551 -2.1182  3.3122  0.0820
  521MOL0     H71864   4.811   7.140   4.450 -1.9898 -0.2632 -0.4822
  521MOL0     H71865   4.824   7.210   4.289  0.8697 -1.1674  1.0452
  521MOL0     H71866   4.995   7.283   4.533  2.2060  0.2896 -0.7377
  521MOL0     H71867   4.983   7.379   4.376  2.6478 -0.8288  0.1977
  521MOL0     H71868   5.038   7.180   4.261 -0.8342 -1.8049  0.3866
  521MOL0     H71869   5.068   7.079   4.403 -0.6810  0.3608  1.1769
  521MOL0     H71870   5.215   7.344   4.412 -0.1454 -0.1873  4.1831
  521MOL0     H71871   5.216   7.193   4.505 -2.0705 -0.6148 -1.0291
  521MOL0     H71872   5.325   7.233   4.212 -1.8959 -1.2268 -0.5195
  521MOL0     H71873   5.307   7.081   4.301  1.7317 -0.1050 -0.4666
  521MOL0     H71874   5.462   7.121   4.452 -2.4245  0.2484  1.5261
  521MOL0     H71875   5.467   7.297   4.446  0.2207  1.3103  0.0946
  521MOL0     H71876   5.665   7.230   4.331  0.0787  0.4551  0.4704
  521MOL0     H71877   5.570   7.302   4.211 -1.6499  2.0737  1.8009
  521MOL0     H71878   4.761   7.415   4.208  0.8098  2.8440 -1.3707
  521MOL0     H71879   4.690   7.461   3.968  2.1588 -4.9941  0.5983
  521MOL0     H71880   4.476   7.470   3.631 -3.0430 -0.4809 -2.2159
  521MOL0     H71881   4.535   7.539   3.417 -0.8600 -1.7491  2.5003
  521MOL0     H71882   4.009   7.077   2.059 -3.7931 -0.7782 -1.1608
  521MOL0     H71883   3.886   6.899   2.131  2.9791  0.5636  4.2741
  521MOL0     H71884   3.851   6.344   1.909  0.5806  1.2632  1.4083
  521MOL0     H71885   3.798   6.102   1.981  0.1701 -0.2832  0.5035
  521MOL0     H71886   3.879   5.979   2.381  1.1979 -5.0404 -1.2806
  521MOL0     H71887   3.707   6.022   2.378 -0.0840 -1.1802  2.2751
  521MOL0     H71888   3.755   5.765   2.425  2.9904  1.2161  1.1680
  521MOL0     H71889   3.825   5.756   2.276  1.5168  0.3895 -0.6395
  521MOL0     H71890   3.535   5.751   2.329 -1.3035  0.5826 -0.5122
  521MOL0     H71891   3.570   5.882   2.205  0.3629 -1.7709 -1.3738
  521MOL0     H71892   3.679   5.727   2.064 -3.7011  0.4481 -3.0236
  521MOL0     H71893   3.516   5.666   2.103  0.3108  0.7202  0.7259
  521MOL0     H71894   3.751   5.357   2.275  0.1468  0.1310  3.3966
  521MOL0     H71895   3.779   6.226   2.379 -1.7791  2.4945  0.5977
  521MOL0     H71896   3.953   6.502   2.405 -1.3257  0.7022  1.7303
  521MOL0     H71897   3.811   6.581   2.321  2.6034  0.3156 -2.8058
  521MOL0     H71898   3.799   6.461   2.446 -1.9585 -0.8529 -1.7887
  522MOL0     O71899   3.730   7.405   3.443 -0.2014 -0.8978 -1.0914
  522MOL0     C71900   3.713   7.528   3.441  0.1298 -0.4911  0.1451
  522MOL0     O71901   3.741   7.614   3.335 -0.3917  0.4169 -0.3458
  522MOL0     C71902   3.773   7.551   3.215  0.3202  1.0327 -0.9447
  522MOL0     C71903   3.665   7.526   3.122  0.2015  0.9504 -1.4428
  522MOL0     C71904   3.684   7.480   2.989  0.6432  0.2657  0.0576
  522MOL0     C71905   3.804   7.443   2.948 -0.2796 -0.0976  0.8490
  522MOL0     O71906   3.812   7.392   2.824 -0.3481  0.4693 -0.7816
  522MOL0     C71907   3.942   7.366   2.768 -0.2769  0.5930  0.5994
  522MOL0     C71908   3.931   7.377   2.617 -1.0287  0.5381  0.1925
  522MOL0     C71909   4.026   7.290   2.529  0.1704 -1.1629 -0.0176
  522MOL0     C71910   3.973   7.141   2.548 -0.8026  0.2126  0.5294
  522MOL0     C71911   4.045   7.035   2.451  0.3123 -0.0256 -0.3128
  522MOL0     C71912   4.191   7.026   2.491  1.7104 -0.3985 -0.9424
  522MOL0     C71913   4.267   6.947   2.397  1.1910  0.2214  0.0312
  522MOL0     C71914   4.200   6.813   2.351 -0.1604 -0.5227  0.4563
  522MOL0     N71915   4.191   6.722   2.457 -0.9448 -0.5198  0.4808
  522MOL0     C71916   4.281   6.623   2.479  0.3828  1.0452  0.1243
  522MOL0     C71917   4.242   6.553   2.580 -0.7349 -0.4981 -0.5489
  522MOL0     C71918   4.307   6.429   2.634 -0.3917 -0.3959  0.3229
  522MOL0     C71919   4.461   6.436   2.656 -0.2147 -0.1367 -0.6488
  522MOL0     C71920   4.511   6.291   2.683 -0.0964 -0.0991  0.8447
  522MOL0     C71921   4.509   6.196   2.562  0.1698 -0.2748 -0.4385
  522MOL0     O71922   4.544   6.249   2.440  0.0888 -0.4783  0.8304
  522MOL0     C71923   4.547   6.163   2.325  0.2247 -0.2809  0.1188
  522MOL0     C71924   4.514   6.027   2.334 -0.5508 -0.3572 -0.1055
  522MOL0     C71925   4.517   5.955   2.215 -0.2727  0.8035 -0.2239
  522MOL0     C71926   4.511   5.806   2.239  0.2475 -0.1450 -0.0474
  522MOL0     C71927   4.553   6.007   2.089  0.4911 -0.8886 -0.2237
  522MOL0     C71928   4.568   5.921   1.968  0.9614  0.2762 -0.1016
  522MOL0     O71929   4.552   5.782   1.966  0.4195  0.3958  0.2572
  522MOL0     C71930   4.494   5.729   1.848  0.0008 -0.4514 -0.7863
  522MOL0     C71931   4.357   5.731   1.825 -0.0571 -0.3569 -0.0428
  522MOL0     C71932   4.304   5.670   1.717  0.8439  0.5031 -0.4673
  522MOL0     C71933   4.385   5.607   1.621  0.0435 -0.9807 -0.0025
  522MOL0     O71934   4.341   5.547   1.499 -0.1030 -0.7916 -0.2069
  522MOL0     C71935   4.197   5.560   1.480  0.0147 -0.7116 -0.0213
  522MOL0     C71936   4.142   5.494   1.353 -0.0768  1.1335 -0.3976
  522MOL0     C71937   3.988   5.516   1.348 -0.4792 -0.6006 -0.0035
  522MOL0     C71938   3.930   5.447   1.222 -0.0668  0.5843 -0.2368
  522MOL0     C71939   3.779   5.439   1.237  0.1249 -1.0879 -0.8831
  522MOL0     C71940   3.699   5.568   1.242 -0.5862  0.1556 -0.0629
  522MOL0     C71941   3.553   5.530   1.211 -0.5275  0.4530 -0.3624
  522MOL0     C71942   3.446   5.638   1.244  1.0172 -0.4487  0.0455
  522MOL0    Cl71943   3.274   5.576   1.228 -0.2074 -0.3512  0.2591
  522MOL0     C71944   4.527   5.611   1.639  0.7348 -0.0474  0.7024
  522MOL0     C71945   4.580   5.664   1.758 -0.8931 -0.6836  0.2220
  522MOL0     O71946   4.590   5.985   1.863 -0.1891 -0.3763 -0.1110
  522MOL0     C71947   4.573   6.143   2.082 -0.3731 -0.7260 -0.4081
  522MOL0     C71948   4.572   6.215   2.201  0.2378 -0.0468  0.2696
  522MOL0     N71949   4.145   6.621   2.637  0.4619  1.0898 -0.2122
  522MOL0     N71950   4.104   6.715   2.557 -0.3729 -0.1696 -0.2047
  522MOL0     C71951   3.914   7.483   3.033 -0.1812 -0.2145 -0.4122
  522MOL0     C71952   3.900   7.519   3.177  0.4264 -0.0423  0.5866
  522MOL0     C71953   3.644   7.588   3.560 -0.9766  0.0655  0.3060
  522MOL0     C71954   3.673   7.722   3.593  0.4738  1.1994  0.3327
  522MOL0     C71955   3.621   7.779   3.700  0.8230 -1.0945  0.2966
  522MOL0     C71956   3.527   7.728   3.785 -0.3930  0.5167 -0.0714
  522MOL0     O71957   3.471   7.802   3.891 -0.5688 -0.3728  0.1449
  522MOL0     C71958   3.356   7.746   3.962 -0.7382 -0.1835 -0.2407
  522MOL0     C71959   3.288   7.850   4.057 -0.5344 -0.3631  0.2417
  522MOL0     C71960   3.362   7.870   4.191 -0.3377 -0.1674  0.0398
  522MOL0     C71961   3.262   7.929   4.291 -0.3967  0.6457  0.1852
  522MOL0     C71962   3.230   8.071   4.267 -0.1129  0.0845 -0.3727
  522MOL0     C71963   3.205   8.180   4.240  0.6312 -0.5685  0.5004
  522MOL0     C71964   3.498   7.587   3.757 -0.1350 -1.3227  0.5876
  522MOL0     C71965   3.551   7.518   3.645  0.3785  1.5680  0.8829
  522MOL0     C71966   3.503   7.366   3.637 -0.1676 -0.4974 -0.1969
  522MOL0     H71967   3.562   7.550   3.146  0.3491  0.6224 -0.4426
  522MOL0     H71968   3.604   7.475   2.915  0.1187 -0.0787  0.6372
  522MOL0     H71969   3.959   7.263   2.802 -1.8636  0.7561  2.0062
  522MOL0     H71970   4.036   7.415   2.795  2.0199 -3.1912  0.2213
  522MOL0     H71971   3.826   7.353   2.595 -0.3584 -2.9253  0.2008
  522MOL0     H71972   3.941   7.480   2.581  0.4629 -0.3609 -2.2167
  522MOL0     H71973   4.014   7.334   2.430  1.7318  1.1362  0.7345
  522MOL0     H71974   4.132   7.306   2.552  0.5544 -1.4582 -1.4874
  522MOL0     H71975   3.988   7.115   2.653  2.3874  0.8735  0.3434
  522MOL0     H71976   3.865   7.137   2.530 -0.6895 -1.8769  0.1308
  522MOL0     H71977   4.030   7.066   2.347 -0.5522  0.6884  0.0169
  522MOL0     H71978   3.986   6.946   2.474 -1.3415  1.4602  1.5144
  522MOL0     H71979   4.229   7.128   2.483  0.4334  0.0269 -1.9511
  522MOL0     H71980   4.199   6.978   2.589  2.7866  0.8332 -0.3977
  522MOL0     H71981   4.371   6.924   2.425  0.3868 -2.7004  0.9845
  522MOL0     H71982   4.277   7.011   2.309  1.4276 -0.7820 -0.6845
  522MOL0     H71983   4.102   6.837   2.309  0.7846  0.8917 -1.0465
  522MOL0     H71984   4.255   6.771   2.267 -0.5581 -0.5515  0.2080
  522MOL0     H71985   4.363   6.595   2.414 -1.0405 -1.9788 -0.5445
  522MOL0     H71986   4.285   6.350   2.562 -1.8915  0.0471  0.2761
  522MOL0     H71987   4.261   6.401   2.729 -2.3326 -1.2529 -0.8159
  522MOL0     H71988   4.508   6.481   2.568  2.5071 -0.0621  0.7595
  522MOL0     H71989   4.478   6.498   2.744 -0.6126 -0.1029 -0.5912
  522MOL0     H71990   4.615   6.297   2.716 -0.5457  0.7747  2.1427
  522MOL0     H71991   4.457   6.231   2.756  1.3672 -2.2663  0.2628
  522MOL0     H71992   4.574   6.114   2.593 -0.1099 -1.3179 -2.4727
  522MOL0     H71993   4.406   6.162   2.547  0.1234 -0.9413  1.1592
  522MOL0     H71994   4.502   5.977   2.430  2.0396 -1.4483 -0.2387
  522MOL0     H71995   4.493   5.783   2.344 -1.2870  1.4401  0.0843
  522MOL0     H71996   4.599   5.758   2.195  1.3891  1.0548  0.8591
  522MOL0     H71997   4.424   5.759   2.193  1.3055 -0.4429 -1.8386
  522MOL0     H71998   4.289   5.763   1.903 -0.8757  1.1007 -1.2916
  522MOL0     H71999   4.199   5.695   1.707  0.6963  1.1356  1.9324
  522MOL0     H72000   4.157   5.511   1.569  3.3455 -1.6567  1.1412
  522MOL0     H72001   4.174   5.667   1.482  1.2445 -0.3887  3.2379
  522MOL0     H72002   4.192   5.525   1.261 -0.9316 -0.3367 -1.4082
  522MOL0     H72003   4.148   5.385   1.358 -1.6153  1.0496 -0.1100
  522MOL0     H72004   3.966   5.623   1.338 -1.1266 -0.8469 -1.3915
  522MOL0     H72005   3.938   5.472   1.434 -2.0959  0.5467 -0.3194
  522MOL0     H72006   3.963   5.343   1.214 -1.7461 -0.0690  0.7336
  522MOL0     H72007   3.970   5.501   1.136  1.2161 -0.1467 -0.1344
  522MOL0     H72008   3.733   5.367   1.168  2.3770 -0.6059 -3.0505
  522MOL0     H72009   3.756   5.389   1.331 -1.1651 -0.0314 -0.5969
  522MOL0     H72010   3.736   5.645   1.174  1.1534  1.0285  1.7430
  522MOL0     H72011   3.706   5.603   1.346 -1.1881 -0.4748  0.1980
  522MOL0     H72012   3.508   5.444   1.263 -0.9350 -0.1372 -1.6526
  522MOL0     H72013   3.548   5.506   1.105 -0.8882 -0.0926 -0.2269
  522MOL0     H72014   3.455   5.720   1.172 -1.3019  2.5792  2.8962
  522MOL0     H72015   3.452   5.690   1.340 -3.3662 -1.2475  0.9662
  522MOL0     H72016   4.588   5.569   1.560  0.1669  1.6909 -0.7233
  522MOL0     H72017   4.684   5.677   1.785 -1.2201 -0.5588  1.5016
  522MOL0     H72018   4.579   6.192   1.986  2.6909 -3.0233 -1.5482
  522MOL0     H72019   4.590   6.321   2.184  0.0570 -0.4401 -2.8614
  522MOL0     H72020   4.014   7.461   2.996 -0.2612 -1.1753 -0.0707
  522MOL0     H72021   3.985   7.513   3.244  0.4746  0.4237  0.5708
  522MOL0     H72022   3.735   7.772   3.518  1.9625 -1.7648 -0.5964
  522MOL0     H72023   3.653   7.880   3.724 -0.7348 -0.7295  0.9366
  522MOL0     H72024   3.276   7.726   3.890 -0.0370 -0.4932 -0.9480
  522MOL0     H72025   3.382   7.658   4.021  0.7784  2.4855  3.4624
  522MOL0     H72026   3.185   7.817   4.070 -0.9037  0.7536  0.3082
  522MOL0     H72027   3.287   7.944   4.000 -2.0066 -0.1367  0.6066
  522MOL0     H72028   3.396   7.776   4.234 -3.4078 -2.3732 -1.9870
  522MOL0     H72029   3.458   7.922   4.185  1.1378 -2.4106  2.2791
  522MOL0     H72030   3.308   7.922   4.389 -2.3010 -2.9582  0.9944
  522MOL0     H72031   3.167   7.874   4.295  0.0398 -0.2056 -0.7940
  522MOL0     H72032   3.182   8.283   4.219 -0.1343 -0.9539 -0.6078
  522MOL0     H72033   3.423   7.535   3.816 -2.9777 -0.2290 -1.8024
  522MOL0     H72034   3.411   7.361   3.696  1.5099  1.4594  2.8427
  522MOL0     H72035   3.485   7.332   3.535  0.6958  1.3686 -1.0117
  522MOL0     H72036   3.583   7.307   3.683 -0.9846  0.5156  2.7653
  523MOL0     O72037   0.092   0.245   6.886 -0.6200 -0.0809 -0.1735
  523MOL0     C72038   0.188   0.165   6.902  0.2432  0.0961  0.0009
  523MOL0     O72039   0.211   0.058   6.818  0.0937  0.2440  0.0674
  523MOL0     C72040   0.159   0.049   6.698  0.7665  0.6302  0.9818
  523MOL0     C72041   0.249   0.018   6.603  0.2677  0.2264  0.2590
  523MOL0     C72042   0.205  -0.005   6.468  0.2676  0.3967  0.6459
  523MOL0     C72043   0.064  -0.013   6.439  0.7761  0.0215 -0.6984
  523MOL0     O72044   0.003  -0.057   6.325 -0.0265  0.9591  0.9110
  523MOL0     C72045   0.081  -0.102   6.214 -0.1970  0.4868 -0.2993
  523MOL0     C72046  -0.011  -0.155   6.099 -0.2340 -1.2623  0.5263
  523MOL0     C72047  -0.019  -0.304   6.106  0.7417 -0.4951  0.0395
  523MOL0     C72048  -0.079  -0.362   5.977  0.3256  0.3291 -0.3162
  523MOL0     C72049  -0.235  -0.345   5.973 -0.4845 -0.1802  0.2925
  523MOL0     C72050  -0.290  -0.403   5.843  0.1310  0.2674 -0.1511
  523MOL0     C72051  -0.440  -0.390   5.857  0.1180 -0.7139 -0.4878
  523MOL0     C72052  -0.510  -0.464   5.742 -0.6859  0.2098 -0.3296
  523MOL0     N72053  -0.654  -0.436   5.751  0.3208 -0.4845  0.2812
  523MOL0     C72054  -0.747  -0.489   5.658  0.3334  0.1236 -0.6336
  523MOL0     C72055  -0.869  -0.468   5.721  0.4743 -0.2112 -0.6250
  523MOL0     C72056  -0.988  -0.515   5.658  0.0809 -0.5956 -0.5267
  523MOL0     C72057  -1.103  -0.407   5.644  0.1485  0.2107  0.9761
  523MOL0     C72058  -1.170  -0.370   5.773 -0.6775  0.3190 -0.1756
  523MOL0     C72059  -1.243  -0.483   5.823 -0.5689  0.5768 -0.2262
  523MOL0     O72060  -1.348  -0.530   5.729  0.1667 -0.4140 -0.4641
  523MOL0     C72061  -1.460  -0.597   5.771  0.8697 -0.2067 -0.0674
  523MOL0     C72062  -1.493  -0.617   5.907  0.3578  0.7242  0.3046
  523MOL0     C72063  -1.622  -0.670   5.940  0.3404  0.1762 -0.2066
  523MOL0     C72064  -1.648  -0.699   6.086  0.3198  0.8655  0.9036
  523MOL0     C72065  -1.719  -0.697   5.839  0.0597  0.2759  0.3527
  523MOL0     C72066  -1.857  -0.755   5.860  0.9541 -0.4845 -0.4738
  523MOL0     O72067  -1.911  -0.794   5.733 -0.2134 -0.1962  0.9122
  523MOL0     C72068  -2.022  -0.867   5.716  0.2876 -0.2875  0.1887
  523MOL0     C72069  -2.072  -0.867   5.583 -0.1425  0.4617  0.8805
  523MOL0     C72070  -2.193  -0.932   5.546 -1.0728  0.2404 -0.6783
  523MOL0     C72071  -2.255  -1.006   5.650  0.0535 -0.0394 -0.1032
  523MOL0     O72072  -2.375  -1.069   5.623  0.2978  0.4720 -0.0428
  523MOL0     C72073  -2.481  -1.010   5.537  0.0129  0.6527  0.6998
  523MOL0     C72074  -2.501  -1.095   5.414  0.2390  0.2074  0.1486
  523MOL0     C72075  -2.531  -1.246   5.442  0.4980 -0.5214 -0.3248
  523MOL0     C72076  -2.506  -1.347   5.333  0.0507  1.1518 -0.2892
  523MOL0     C72077  -2.564  -1.307   5.204  0.5895 -0.1996 -0.3555
  523MOL0     C72078  -2.581  -1.416   5.094  0.1681  0.4407  0.1328
  523MOL0     C72079  -2.443  -1.488   5.053  0.4713 -0.5535 -0.1896
  523MOL0     C72080  -2.442  -1.551   4.915  0.3090  0.0967  0.1949
  523MOL0    Cl72081  -2.566  -1.677   4.892 -0.5158 -0.2026  0.5182
  523MOL0     C72082  -2.197  -1.027   5.778  0.6981  0.2673  0.4744
  523MOL0     C72083  -2.084  -0.947   5.813 -0.0266 -0.0007 -0.1316
  523MOL0     O72084  -1.908  -0.762   5.972 -0.3122 -0.0789  0.6673
  523MOL0     C72085  -1.674  -0.694   5.706 -1.0162  0.0002 -0.0382
  523MOL0     C72086  -1.552  -0.645   5.674 -0.2897 -0.2184  0.1635
  523MOL0     N72087  -0.846  -0.409   5.843  0.9202  0.5305  0.0934
  523MOL0     N72088  -0.718  -0.382   5.861 -0.2610  0.0905  0.3093
  523MOL0     C72089  -0.016   0.031   6.543  0.4598  1.1066  0.5904
  523MOL0     C72090   0.026   0.058   6.666 -0.7509 -0.5648  0.4331
  523MOL0     C72091   0.296   0.202   6.989 -0.1391 -0.1051 -0.4086
  523MOL0     C72092   0.430   0.152   6.972 -0.5607  0.2372  0.2089
  523MOL0     C72093   0.532   0.179   7.059  0.6790 -0.1098  0.5642
  523MOL0     C72094   0.514   0.276   7.161 -0.1263 -0.0939 -0.4456
  523MOL0     O72095   0.625   0.312   7.241  0.1992 -0.3462 -0.5301
  523MOL0     C72096   0.669   0.205   7.326 -0.8873  0.1154  0.6797
  523MOL0     C72097   0.592   0.233   7.458 -0.0731 -0.0618  0.3666
  523MOL0     C72098   0.660   0.164   7.588  0.1984  0.0315  0.3353
  523MOL0     C72099   0.800   0.217   7.608 -0.3443 -0.6842 -0.4991
  523MOL0     C72100   0.814   0.359   7.615 -0.3445 -0.4487  0.5631
  523MOL0     C72101   0.811   0.477   7.633 -0.3444  0.1105  0.0503
  523MOL0     C72102   0.390   0.337   7.175 -0.1616  0.2746 -0.0786
  523MOL0     C72103   0.282   0.295   7.097  0.1229  0.7256  0.6105
  523MOL0     C72104   0.156   0.360   7.133 -0.1623  0.1244  0.1110
  523MOL0     H72105   0.353  -0.003   6.624  0.2736  1.7383  2.0067
  523MOL0     H72106   0.268  -0.043   6.388 -0.4364  1.1835 -0.3143
  523MOL0     H72107   0.148  -0.181   6.250 -0.7365 -0.3605 -1.0868
  523MOL0     H72108   0.155  -0.029   6.182 -0.7743  1.4897  0.6128
  523MOL0     H72109  -0.105  -0.098   6.096 -0.4202 -1.5475 -2.4913
  523MOL0     H72110   0.039  -0.127   6.006 -1.7114 -1.7678 -0.4631
  523MOL0     H72111   0.076  -0.358   6.109  0.3256 -1.4088 -1.6804
  523MOL0     H72112  -0.083  -0.335   6.188  0.4880 -0.5757 -0.1862
  523MOL0     H72113  -0.038  -0.324   5.883  3.0110  1.0762  1.0325
  523MOL0     H72114  -0.053  -0.468   5.969  2.3705  0.7238  0.4188
  523MOL0     H72115  -0.260  -0.239   5.982  0.4058 -0.0143  1.0788
  523MOL0     H72116  -0.275  -0.400   6.059 -0.2187 -1.3423 -0.3014
  523MOL0     H72117  -0.250  -0.342   5.762  3.8472 -2.1391 -0.3436
  523MOL0     H72118  -0.263  -0.508   5.837  0.2777  0.2495  0.6603
  523MOL0     H72119  -0.459  -0.282   5.852  0.4460 -0.7056 -1.9121
  523MOL0     H72120  -0.472  -0.422   5.957 -1.6321  2.8014  0.2620
  523MOL0     H72121  -0.464  -0.431   5.648 -1.3379 -0.4120 -0.8706
  523MOL0     H72122  -0.498  -0.572   5.740 -1.0509  0.1694 -0.3923
  523MOL0     H72123  -0.731  -0.542   5.565  0.7911  1.0256 -1.0818
  523MOL0     H72124  -1.021  -0.606   5.710  0.9313 -0.2976  0.5683
  523MOL0     H72125  -0.954  -0.545   5.559  0.9775  0.4092 -0.5328
  523MOL0     H72126  -1.049  -0.322   5.603 -2.1591  2.7049  2.7532
  523MOL0     H72127  -1.179  -0.432   5.569 -1.3331  1.7071  1.9243
  523MOL0     H72128  -1.095  -0.336   5.845  3.4239 -1.3597 -3.2606
  523MOL0     H72129  -1.243  -0.289   5.763 -1.4899 -0.0114  2.3119
  523MOL0     H72130  -1.188  -0.574   5.847  1.2613  1.9652  1.0595
  523MOL0     H72131  -1.286  -0.451   5.918 -1.1206  3.7264 -1.4251
  523MOL0     H72132  -1.429  -0.582   5.988  0.3274  0.6738  0.3509
  523MOL0     H72133  -1.708  -0.617   6.128  4.5138  2.6034  4.3084
  523MOL0     H72134  -1.550  -0.687   6.134  1.2348  0.5167 -0.8025
  523MOL0     H72135  -1.689  -0.797   6.112 -1.4038  0.7227 -1.9492
  523MOL0     H72136  -2.022  -0.820   5.499 -0.5578 -3.2569 -1.6849
  523MOL0     H72137  -2.219  -0.923   5.441  1.6547  1.0044 -1.3772
  523MOL0     H72138  -2.578  -1.001   5.588 -1.0608  0.9717 -1.3025
  523MOL0     H72139  -2.452  -0.908   5.510  1.5987  0.7948  2.7156
  523MOL0     H72140  -2.575  -1.052   5.345 -0.2530  0.8273  1.0470
  523MOL0     H72141  -2.411  -1.093   5.352 -0.8251 -0.5841 -1.5102
  523MOL0     H72142  -2.638  -1.259   5.464 -0.1934 -2.1274 -3.9369
  523MOL0     H72143  -2.470  -1.273   5.528  2.5538  0.5959 -1.3662
  523MOL0     H72144  -2.545  -1.447   5.352  2.8969 -0.0441 -0.1510
  523MOL0     H72145  -2.399  -1.369   5.327 -0.4158 -1.5827  0.0206
  523MOL0     H72146  -2.659  -1.254   5.216  0.2902 -0.8715  0.3412
  523MOL0     H72147  -2.498  -1.229   5.164 -0.9569  2.0402  1.2158
  523MOL0     H72148  -2.641  -1.378   5.011  0.1342 -1.3893 -0.7413
  523MOL0     H72149  -2.651  -1.497   5.117  0.5280 -0.5119 -1.8846
  523MOL0     H72150  -2.418  -1.565   5.126  1.7614  1.2977  1.4485
  523MOL0     H72151  -2.359  -1.417   5.057 -0.2697  0.4907 -1.9392
  523MOL0     H72152  -2.345  -1.596   4.890  0.5206  0.6050  0.0929
  523MOL0     H72153  -2.454  -1.472   4.840 -0.0133  1.5000  1.6727
  523MOL0     H72154  -2.234  -1.092   5.857  1.0147 -1.1465 -0.5039
  523MOL0     H72155  -2.033  -0.967   5.907 -0.0035 -3.2193 -0.7320
  523MOL0     H72156  -1.732  -0.726   5.620  0.2495  0.0155 -0.9210
  523MOL0     H72157  -1.531  -0.645   5.567  1.4149 -2.9976  0.4028
  523MOL0     H72158  -0.123   0.025   6.527  0.6678 -1.3441 -0.1640
  523MOL0     H72159  -0.037   0.073   6.753 -1.7004 -0.0558 -0.3163
  523MOL0     H72160   0.448   0.092   6.883 -1.9622  1.6157 -1.0732
  523MOL0     H72161   0.626   0.132   7.032  1.4255  1.1324  0.9011
  523MOL0     H72162   0.644   0.106   7.286 -1.7250 -0.2133  1.9672
  523MOL0     H72163   0.778   0.201   7.336 -1.1405 -0.9955  4.4173
  523MOL0     H72164   0.492   0.192   7.439  0.4702 -0.2658 -2.4771
  523MOL0     H72165   0.589   0.342   7.464  0.9583 -0.0887  1.9165
  523MOL0     H72166   0.601   0.203   7.671  1.0432  0.9048  0.5399
  523MOL0     H72167   0.678   0.057   7.577 -1.5615 -0.2887  0.1756
  523MOL0     H72168   0.870   0.172   7.537  0.8948 -0.4518  0.5269
  523MOL0     H72169   0.832   0.188   7.709  1.2478  2.3376 -0.0066
  523MOL0     H72170   0.829   0.578   7.664 -0.5509 -0.0562  0.7167
  523MOL0     H72171   0.386   0.411   7.253  2.6046 -1.0015  1.4095
  523MOL0     H72172   0.165   0.415   7.227 -0.5436 -0.0015  0.2224
  523MOL0     H72173   0.124   0.435   7.060  3.5928  0.7450 -1.1173
  523MOL0     H72174   0.087   0.277   7.146  0.9407 -0.4689  2.8902
  524MOL0     O72175   1.032   1.672  10.296 -0.1815 -0.1104  0.2908
  524MOL0     C72176   1.007   1.599  10.199  0.5867  0.3225  0.2778
  524MOL0     O72177   1.007   1.639  10.068 -0.5965 -0.1577 -0.1278
  524MOL0     C72178   1.031   1.774  10.029 -1.0304 -0.0699 -0.5771
  524MOL0     C72179   1.167   1.818  10.036  0.1942 -0.3585 -0.1715
  524MOL0     C72180   1.188   1.955  10.005 -0.5500  0.1764  0.3800
  524MOL0     C72181   1.087   2.040   9.969 -0.7441  0.3015 -0.3209
  524MOL0     O72182   1.137   2.164   9.936  0.3866  0.7776 -0.5105
  524MOL0     C72183   1.064   2.246   9.838 -0.1162 -0.4198  0.1476
  524MOL0     C72184   1.176   2.300   9.753  0.5263 -0.4615  0.5368
  524MOL0     C72185   1.296   2.358   9.827 -0.1601 -0.1629 -0.2605
  524MOL0     C72186   1.403   2.412   9.730  0.0745 -0.5383  0.3711
  524MOL0     C72187   1.509   2.312   9.664 -0.5163  0.8717  0.1482
  524MOL0     C72188   1.432   2.217   9.582  0.2111 -0.5694  0.1660
  524MOL0     C72189   1.519   2.147   9.472  0.2551 -0.4245 -0.2843
  524MOL0     C72190   1.637   2.065   9.522  0.1142  0.0120 -0.4518
  524MOL0     N72191   1.586   1.944   9.579 -0.1018 -0.9622 -0.2374
  524MOL0     C72192   1.557   1.920   9.712  0.0368 -1.4819 -0.4485
  524MOL0     C72193   1.511   1.794   9.709  0.2295  1.1270 -0.7187
  524MOL0     C72194   1.440   1.717   9.822 -1.0145 -0.2469  0.4792
  524MOL0     C72195   1.431   1.567   9.799  0.0580  0.8922 -0.3565
  524MOL0     C72196   1.343   1.500   9.908  0.1750 -0.1281  0.0189
  524MOL0     C72197   1.349   1.353   9.884 -0.6955 -0.1304 -0.6108
  524MOL0     O72198   1.269   1.263   9.971  0.4049 -0.2236 -0.8509
  524MOL0     C72199   1.329   1.207  10.083  0.4181  0.1774  0.3356
  524MOL0     C72200   1.251   1.115  10.147 -0.7040  0.4503  1.4200
  524MOL0     C72201   1.291   1.047  10.256  0.6143  0.2594  0.0336
  524MOL0     C72202   1.192   0.948  10.304  0.3442 -0.9284 -0.5019
  524MOL0     C72203   1.417   1.073  10.308 -0.4122 -0.0371 -0.4917
  524MOL0     C72204   1.459   1.004  10.431 -0.5536 -0.3466 -0.6089
  524MOL0     O72205   1.538   1.085  10.514 -0.2510  0.6158 -0.0536
  524MOL0     C72206   1.624   1.041  10.617  0.5111  0.9521 -0.4049
  524MOL0     C72207   1.605   1.088  10.743 -0.4627 -0.6572  0.0022
  524MOL0     C72208   1.693   1.048  10.847 -0.6040 -0.6544  0.3402
  524MOL0     C72209   1.807   0.974  10.810 -0.1087  0.2443 -0.8143
  524MOL0     O72210   1.904   0.926  10.898  0.2992  0.3833 -0.3090
  524MOL0     C72211   1.999   1.027  10.947  0.2568  0.5647  0.6194
  524MOL0     C72212   2.071   0.950  11.061  0.7401  0.1072  0.3417
  524MOL0     C72213   2.117   0.814  11.021  0.7866 -0.3832 -0.4728
  524MOL0     C72214   2.235   0.754  11.095 -0.1568 -0.0768  0.5146
  524MOL0     C72215   2.262   0.607  11.061  0.2827 -0.2292 -0.6018
  524MOL0     C72216   2.341   0.567  10.939  0.1258 -0.6300 -0.0825
  524MOL0     C72217   2.483   0.608  10.945 -1.0811 -0.1316  0.1712
  524MOL0     C72218   2.530   0.718  10.852  0.1929  0.7082  0.0339
  524MOL0    Cl72219   2.503   0.677  10.685  0.1034 -0.0655 -0.1226
  524MOL0     C72220   1.821   0.932  10.681  0.9092 -0.7918  0.5622
  524MOL0     C72221   1.729   0.956  10.581  1.2981 -0.1340  1.6399
  524MOL0     O72222   1.426   0.893  10.458  0.2768 -0.3794  0.6543
  524MOL0     C72223   1.499   1.172  10.243 -0.0887 -0.1862  0.0271
  524MOL0     C72224   1.452   1.241  10.129 -0.0344  1.2201 -0.0496
  524MOL0     N72225   1.536   1.737   9.579  0.9371 -0.8048  0.3928
  524MOL0     N72226   1.572   1.832   9.503  0.2323  0.7217 -0.9109
  524MOL0     C72227   0.963   1.988   9.952  0.5722  0.5406  0.6340
  524MOL0     C72228   0.934   1.854   9.979  0.6866  0.2334  0.1758
  524MOL0     C72229   0.948   1.471  10.232  0.3374 -1.1548 -0.1420
  524MOL0     C72230   0.836   1.430  10.156 -0.2957  0.3920  0.6912
  524MOL0     C72231   0.782   1.307  10.170 -0.7515  0.3649 -0.2346
  524MOL0     C72232   0.845   1.214  10.254 -0.9781 -0.3227 -1.4974
  524MOL0     O72233   0.791   1.088  10.273 -0.5631 -0.2137 -0.6950
  524MOL0     C72234   0.828   1.012  10.390 -0.6981  0.6347  0.4404
  524MOL0     C72235   0.734   0.892  10.395  0.3097 -0.5177  0.2109
  524MOL0     C72236   0.756   0.803  10.269 -0.5289 -0.5302 -0.1517
  524MOL0     C72237   0.633   0.744  10.218 -0.0731 -0.3333 -0.2984
  524MOL0     C72238   0.546   0.827  10.142 -0.7119 -0.1724  0.8117
  524MOL0     C72239   0.488   0.903  10.069  0.2202 -0.8244  0.3122
  524MOL0     C72240   0.951   1.257  10.327 -0.7006  0.2844  0.0190
  524MOL0     C72241   1.004   1.381  10.326  0.1496 -0.1797  1.6245
  524MOL0     C72242   1.117   1.400  10.419 -0.0279 -0.0627 -0.2650
  524MOL0     H72243   1.254   1.764  10.072  0.4847 -1.1332 -1.9665
  524MOL0     H72244   1.284   2.003   9.991 -0.2745 -0.3276  0.5301
  524MOL0     H72245   1.021   2.334   9.887  1.5628  0.4183  0.1713
  524MOL0     H72246   0.994   2.205   9.765 -0.1225 -1.2462  0.5986
  524MOL0     H72247   1.218   2.217   9.695  2.1213  0.6523  0.0293
  524MOL0     H72248   1.134   2.362   9.674  5.6341  0.4878 -1.8655
  524MOL0     H72249   1.254   2.425   9.903 -1.8395 -0.4632 -0.8912
  524MOL0     H72250   1.352   2.285   9.886  1.4910  1.7302  0.6440
  524MOL0     H72251   1.361   2.463   9.643  1.3957 -1.8684 -1.1210
  524MOL0     H72252   1.459   2.483   9.791 -1.5685  1.0633  0.0970
  524MOL0     H72253   1.573   2.266   9.739  1.1316  2.7930  0.0297
  524MOL0     H72254   1.568   2.372   9.593  0.9222  0.3708  0.8865
  524MOL0     H72255   1.389   2.148   9.656 -3.1373  0.2208 -0.8563
  524MOL0     H72256   1.350   2.262   9.525  1.2690  0.5485 -0.5045
  524MOL0     H72257   1.551   2.222   9.399  2.5227 -1.3465 -0.3083
  524MOL0     H72258   1.456   2.075   9.419  0.3565 -0.1830 -0.7353
  524MOL0     H72259   1.713   2.042   9.447 -0.3872 -3.1236 -0.1221
  524MOL0     H72260   1.692   2.129   9.592  1.8660 -0.6796 -1.1473
  524MOL0     H72261   1.560   1.994   9.791 -0.3484  0.6227 -2.2964
  524MOL0     H72262   1.345   1.769   9.824 -0.7248  0.4239 -1.6811
  524MOL0     H72263   1.486   1.741   9.919  0.2574  2.4824 -0.6956
  524MOL0     H72264   1.390   1.530   9.705  1.0051  2.6893 -1.5354
  524MOL0     H72265   1.533   1.530   9.801 -0.2819 -0.4190 -3.2102
  524MOL0     H72266   1.375   1.512  10.012 -1.9517 -1.3807  0.8948
  524MOL0     H72267   1.244   1.544   9.894  0.4349  0.5558  0.2968
  524MOL0     H72268   1.312   1.337   9.782 -3.4708  0.5957  0.1792
  524MOL0     H72269   1.453   1.320   9.888 -0.3839  0.7801 -0.8270
  524MOL0     H72270   1.151   1.096  10.109 -0.4656 -3.9374  2.5090
  524MOL0     H72271   1.104   0.957  10.239 -1.4940  1.9737  2.1280
  524MOL0     H72272   1.162   0.965  10.407 -2.9501  0.3411 -1.5366
  524MOL0     H72273   1.223   0.844  10.293  1.2426 -0.9673  1.9206
  524MOL0     H72274   1.515   1.140  10.773 -0.4582 -2.2654  3.2914
  524MOL0     H72275   1.675   1.065  10.953 -0.8786 -1.6878  0.4656
  524MOL0     H72276   2.078   1.046  10.873  0.1562 -0.6306  0.1927
  524MOL0     H72277   1.957   1.119  10.989  1.9543  1.3524  0.6848
  524MOL0     H72278   2.157   1.009  11.093 -0.2302  1.7048  0.1156
  524MOL0     H72279   2.006   0.921  11.143  3.8659 -4.9885  1.4769
  524MOL0     H72280   2.150   0.821  10.917  0.9766 -2.0464 -0.5563
  524MOL0     H72281   2.044   0.732  11.028  4.0796 -3.4317  2.4885
  524MOL0     H72282   2.230   0.779  11.202  1.3827  0.6531  0.4304
  524MOL0     H72283   2.318   0.807  11.049 -1.4399  1.2351 -0.3850
  524MOL0     H72284   2.311   0.552  11.142  2.3785  1.1920 -0.8247
  524MOL0     H72285   2.163   0.560  11.052  0.2427 -1.1083  3.0272
  524MOL0     H72286   2.292   0.611  10.852  1.9524 -0.3931 -1.0548
  524MOL0     H72287   2.327   0.458  10.935 -0.1627 -0.6183 -4.5778
  524MOL0     H72288   2.552   0.532  10.909  0.6342  1.3228  0.2377
  524MOL0     H72289   2.512   0.626  11.049 -2.4220  2.1247  0.2162
  524MOL0     H72290   2.637   0.736  10.867  0.7264 -0.6553 -1.7645
  524MOL0     H72291   2.471   0.808  10.873 -0.7632  0.3362 -0.9920
  524MOL0     H72292   1.897   0.858  10.658  0.9992  0.0385 -2.2339
  524MOL0     H72293   1.736   0.911  10.483  0.4415  0.0336  1.4931
  524MOL0     H72294   1.589   1.204  10.294 -0.2565 -2.3575  1.8358
  524MOL0     H72295   1.515   1.318  10.087 -1.8273  2.4347 -0.6490
  524MOL0     H72296   0.878   2.052   9.929 -1.9060 -0.5540  5.4079
  524MOL0     H72297   0.832   1.818   9.963 -0.6197  4.0245 -1.1114
  524MOL0     H72298   0.795   1.511  10.097 -0.9627  0.5421  1.3434
  524MOL0     H72299   0.700   1.273  10.109 -0.2716 -0.9236 -0.1904
  524MOL0     H72300   0.935   0.989  10.384 -0.5995  0.9182  1.1020
  524MOL0     H72301   0.822   1.071  10.482 -0.4836 -0.0801  0.9238
  524MOL0     H72302   0.629   0.923  10.391 -0.6334 -3.2458  1.2717
  524MOL0     H72303   0.755   0.854  10.495 -0.4763  2.0938  1.4458
  524MOL0     H72304   0.811   0.861  10.195  0.7419 -1.9265 -0.3511
  524MOL0     H72305   0.832   0.727  10.290  2.7886  3.1824  2.9805
  524MOL0     H72306   0.581   0.713  10.309 -2.7513  1.0511 -1.2553
  524MOL0     H72307   0.654   0.653  10.160 -1.2901 -1.1069  0.4144
  524MOL0     H72308   0.447   0.970   9.996  1.4586 -1.2804 -0.8557
  524MOL0     H72309   1.001   1.181  10.387  1.7661  0.5113 -1.6054
  524MOL0     H72310   1.163   1.495  10.392  1.2748 -0.4793  0.3689
  524MOL0     H72311   1.093   1.408  10.525 -0.8296  1.9923 -0.5594
  524MOL0     H72312   1.183   1.313  10.403 -0.1922  0.2695 -3.1571
  525MOL0     O72313   2.362   5.119   1.364 -0.4788 -0.3330 -0.0953
  525MOL0     C72314   2.357   5.182   1.266 -0.7471 -0.4205  0.3546
  525MOL0     O72315   2.450   5.193   1.173 -0.1598 -0.0579  0.0861
  525MOL0     C72316   2.552   5.105   1.173  0.0799 -0.8611  0.3258
  525MOL0     C72317   2.681   5.160   1.144  0.1786 -0.0375  0.1696
  525MOL0     C72318   2.790   5.087   1.119  0.3581  0.0715  0.8115
  525MOL0     C72319   2.775   4.945   1.122  0.7499 -0.8882 -0.2875
  525MOL0     O72320   2.889   4.864   1.105 -0.1302 -0.1067 -0.1692
  525MOL0     C72321   2.928   4.829   0.968  0.3140 -0.4695 -0.2978
  525MOL0     C72322   2.906   4.681   0.925  0.0120 -0.6293 -0.4640
  525MOL0     C72323   3.028   4.602   0.902 -0.1752 -0.5285 -0.3339
  525MOL0     C72324   3.011   4.447   0.902  0.1204  0.1042 -0.8511
  525MOL0     C72325   3.143   4.369   0.897 -0.1566 -0.4223  0.9152
  525MOL0     C72326   3.134   4.218   0.872  0.8162 -0.2735  0.2436
  525MOL0     C72327   3.269   4.148   0.856  0.7640  1.1660  0.0605
  525MOL0     C72328   3.268   4.003   0.804  0.1553  0.5794 -0.3296
  525MOL0     N72329   3.403   3.949   0.792 -0.6722  0.9375  0.1920
  525MOL0     C72330   3.471   3.891   0.902 -0.0423 -0.0929  0.9406
  525MOL0     C72331   3.583   3.839   0.841  0.0743  0.3684  0.5748
  525MOL0     C72332   3.692   3.771   0.913  0.8854 -0.1637 -0.2143
  525MOL0     C72333   3.821   3.863   0.899  1.1556  0.5375  1.0287
  525MOL0     C72334   3.811   4.002   0.966  0.0273  0.4877 -0.0656
  525MOL0     C72335   3.756   3.990   1.111 -0.2674  0.3275 -0.3760
  525MOL0     O72336   3.800   4.097   1.195  0.2646  0.0698 -0.2672
  525MOL0     C72337   3.745   4.224   1.201 -0.0806  1.0684  0.3069
  525MOL0     C72338   3.649   4.265   1.111 -0.2594 -0.0952  0.2102
  525MOL0     C72339   3.609   4.399   1.098  0.0456 -0.5012 -0.7664
  525MOL0     C72340   3.495   4.424   1.006 -0.3877  0.0256  0.6419
  525MOL0     C72341   3.672   4.493   1.189 -0.1446  0.9642  0.1131
  525MOL0     C72342   3.643   4.642   1.198 -0.6178  0.7912  0.4820
  525MOL0     O72343   3.729   4.716   1.272  0.5146  0.1071 -0.3088
  525MOL0     C72344   3.677   4.834   1.317 -0.2549 -0.3475  1.0051
  525MOL0     C72345   3.625   4.851   1.442 -0.6254 -0.1818 -0.0728
  525MOL0     C72346   3.584   4.971   1.488 -0.1865  0.5551 -0.3467
  525MOL0     C72347   3.570   5.082   1.405  0.1894 -0.9990 -0.7775
  525MOL0     O72348   3.527   5.209   1.443 -0.1194  0.0751 -0.6427
  525MOL0     C72349   3.500   5.223   1.583  0.2062  0.4402  0.3695
  525MOL0     C72350   3.520   5.378   1.630 -0.4149 -0.1907 -0.7051
  525MOL0     C72351   3.480   5.390   1.773  0.3388  0.6188  0.1467
  525MOL0     C72352   3.333   5.434   1.799 -0.9149  0.8731  1.1227
  525MOL0     C72353   3.275   5.405   1.936 -0.2105 -0.3244 -0.0770
  525MOL0     C72354   3.126   5.444   1.957 -0.7915 -0.1832  0.2120
  525MOL0     C72355   3.063   5.380   2.078 -1.0231  0.1891  0.2559
  525MOL0     C72356   3.073   5.472   2.203 -0.2890 -0.3688 -0.4692
  525MOL0    Cl72357   2.944   5.603   2.171  0.0850  0.4981 -0.2996
  525MOL0     C72358   3.608   5.070   1.273 -0.9150  0.6312  0.3636
  525MOL0     C72359   3.666   4.943   1.235  0.2034  0.2275  0.5319
  525MOL0     O72360   3.532   4.680   1.165  0.1684 -0.0271  0.6059
  525MOL0     C72361   3.774   4.445   1.272 -0.0037 -0.0446  1.3441
  525MOL0     C72362   3.811   4.312   1.282 -0.8006 -0.1250  0.3728
  525MOL0     N72363   3.579   3.846   0.705 -0.4074 -0.7516 -0.5111
  525MOL0     N72364   3.477   3.924   0.671  0.2354 -0.7025  0.3017
  525MOL0     C72365   2.648   4.888   1.150 -0.7035 -0.1949  0.8179
  525MOL0     C72366   2.542   4.968   1.178  0.2999 -0.0755  0.5466
  525MOL0     C72367   2.246   5.270   1.252  0.4324 -0.9305  0.0793
  525MOL0     C72368   2.267   5.396   1.185  0.0397  0.2233  0.2399
  525MOL0     C72369   2.176   5.497   1.164  0.6696  1.0075 -0.4667
  525MOL0     C72370   2.047   5.468   1.193  0.1549  0.0979  0.3833
  525MOL0     O72371   1.935   5.547   1.160 -0.2242 -0.9092 -0.8688
  525MOL0     C72372   1.963   5.680   1.117  0.0094 -0.3243  0.2184
  525MOL0     C72373   1.995   5.776   1.223 -0.3415 -1.5116 -0.7603
  525MOL0     C72374   1.955   5.925   1.196 -0.3442  0.0904  0.0752
  525MOL0     C72375   1.823   5.956   1.263 -0.2284  0.5841  0.5786
  525MOL0     C72376   1.816   5.940   1.416  0.0683  0.5757  0.5008
  525MOL0     C72377   1.812   5.912   1.538  0.2484  0.1091 -0.7070
  525MOL0     C72378   2.019   5.346   1.260 -0.7894  0.9954  0.1418
  525MOL0     C72379   2.113   5.252   1.302 -0.8192  0.2724  0.6574
  525MOL0     C72380   2.072   5.132   1.377  0.1454  0.6366  0.2337
  525MOL0     H72381   2.685   5.269   1.149  2.7154 -0.0953  1.6460
  525MOL0     H72382   2.883   5.129   1.082  0.3286 -0.1190  0.5080
  525MOL0     H72383   3.029   4.858   0.937  1.1488 -3.0272 -0.2675
  525MOL0     H72384   2.864   4.881   0.896  1.9537 -1.1293 -2.3337
  525MOL0     H72385   2.847   4.649   1.012  0.2708 -0.2386 -0.1414
  525MOL0     H72386   2.837   4.647   0.847  0.4156  0.0520 -1.1384
  525MOL0     H72387   3.049   4.615   0.795 -2.2609  0.8408 -0.6504
  525MOL0     H72388   3.109   4.617   0.974  1.0750 -1.7165 -1.4428
  525MOL0     H72389   2.958   4.416   0.993  2.1853 -0.3629  0.2476
  525MOL0     H72390   2.966   4.412   0.809  0.4449 -0.7331 -0.7029
  525MOL0     H72391   3.197   4.389   0.990  2.0981  1.1723 -0.6392
  525MOL0     H72392   3.211   4.411   0.823  0.6843 -1.2093  1.2210
  525MOL0     H72393   3.068   4.178   0.949 -1.8752 -1.2729 -2.3596
  525MOL0     H72394   3.079   4.202   0.778  0.6486 -1.5671  0.5455
  525MOL0     H72395   3.293   4.138   0.962  1.2458 -0.9928 -0.2175
  525MOL0     H72396   3.349   4.194   0.796  0.5315  0.3029 -0.9352
  525MOL0     H72397   3.221   3.934   0.875 -0.7034  2.3083  0.8488
  525MOL0     H72398   3.219   3.983   0.708 -1.7427 -1.5003  0.9570
  525MOL0     H72399   3.446   3.877   1.006  1.2783 -3.1672  0.9352
  525MOL0     H72400   3.707   3.669   0.876 -1.2156 -0.1499 -1.2563
  525MOL0     H72401   3.660   3.760   1.017 -0.4378 -2.0259 -0.7499
  525MOL0     H72402   3.906   3.804   0.937 -0.2010 -0.9533  1.8791
  525MOL0     H72403   3.840   3.883   0.794 -1.6560  0.8955  0.5217
  525MOL0     H72404   3.908   4.051   0.954 -0.5335  1.0501 -3.4649
  525MOL0     H72405   3.741   4.070   0.917  0.3933  0.8575 -0.0772
  525MOL0     H72406   3.648   3.978   1.100 -0.4970 -2.5885  3.1179
  525MOL0     H72407   3.798   3.901   1.158  0.7206  1.4059  0.8898
  525MOL0     H72408   3.608   4.198   1.037  2.3098 -1.1572 -0.3736
  525MOL0     H72409   3.512   4.527   0.972 -1.7995  0.3972  0.9650
  525MOL0     H72410   3.407   4.420   1.071  0.0106 -3.2174  1.1393
  525MOL0     H72411   3.487   4.367   0.913 -1.8329  4.1451 -2.0716
  525MOL0     H72412   3.616   4.764   1.506  0.9052  0.1242  0.6210
  525MOL0     H72413   3.565   4.976   1.595 -0.1476 -0.6807 -0.2651
  525MOL0     H72414   3.400   5.183   1.605 -0.4147  1.8247  0.2103
  525MOL0     H72415   3.571   5.168   1.645 -0.0009 -1.7918 -1.2469
  525MOL0     H72416   3.627   5.401   1.632 -0.5891  0.7170  1.6046
  525MOL0     H72417   3.475   5.441   1.553  1.3885 -1.0573 -2.5628
  525MOL0     H72418   3.543   5.468   1.817  0.3848 -0.8315  2.8599
  525MOL0     H72419   3.501   5.297   1.827  2.3995  0.1618 -1.3186
  525MOL0     H72420   3.275   5.376   1.726  1.5773 -3.1552  2.0128
  525MOL0     H72421   3.320   5.536   1.761 -2.2914 -0.2186 -1.6810
  525MOL0     H72422   3.287   5.299   1.963 -1.4822  0.1523  2.7918
  525MOL0     H72423   3.327   5.470   2.007 -0.6963  2.1557 -1.8484
  525MOL0     H72424   3.066   5.398   1.878  0.4925 -4.1068  1.2754
  525MOL0     H72425   3.119   5.553   1.960  0.4785 -0.1061  1.8105
  525MOL0     H72426   3.113   5.284   2.094  1.4889  1.7245  2.4374
  525MOL0     H72427   2.954   5.369   2.078 -1.0747  0.2955  2.1260
  525MOL0     H72428   3.173   5.516   2.211  0.2845 -1.9685  2.4814
  525MOL0     H72429   3.032   5.431   2.296  1.7549  1.7845  1.4976
  525MOL0     H72430   3.594   5.153   1.205  1.1822 -0.1611 -1.1344
  525MOL0     H72431   3.672   4.916   1.130  0.7519 -5.4991  1.7151
  525MOL0     H72432   3.812   4.518   1.343  0.1467  0.9018  0.3230
  525MOL0     H72433   3.880   4.272   1.355 -0.9416 -0.6684  0.2161
  525MOL0     H72434   2.634   4.782   1.130 -0.2447 -0.0191 -0.5704
  525MOL0     H72435   2.443   4.927   1.195 -1.0333  0.6900 -3.9396
  525MOL0     H72436   2.370   5.420   1.158  0.5761 -1.0576  1.0805
  525MOL0     H72437   2.208   5.589   1.117  0.1927  0.6245 -1.5757
  525MOL0     H72438   2.040   5.679   1.039 -0.5338  0.0291 -0.3328
  525MOL0     H72439   1.870   5.710   1.067 -0.2428  2.0833  2.0155
  525MOL0     H72440   2.105   5.774   1.229 -0.3954 -1.3841  0.9821
  525MOL0     H72441   1.957   5.737   1.318 -1.9762 -0.4094 -0.9278
  525MOL0     H72442   2.026   5.990   1.247 -1.4930  3.0793 -1.8399
  525MOL0     H72443   1.944   5.963   1.094  0.6614  2.0584  0.6543
  525MOL0     H72444   1.759   5.886   1.210  0.8162 -2.5276  3.1303
  525MOL0     H72445   1.790   6.057   1.234  1.0931  0.2872 -2.3170
  525MOL0     H72446   1.806   5.895   1.644 -4.5802 -0.3753 -0.8430
  525MOL0     H72447   1.915   5.337   1.292 -0.3127  1.4119  1.9360
  525MOL0     H72448   1.967   5.128   1.408 -0.0487 -3.6893 -0.4460
  525MOL0     H72449   2.093   5.040   1.322  1.4779  1.7233 -1.1468
  525MOL0     H72450   2.130   5.150   1.468 -0.7007  0.4508  0.8248
  526MOL0     O72451   3.436   9.236   1.186 -0.2625 -0.4568  0.2407
  526MOL0     C72452   3.504   9.322   1.238 -0.6235  0.3099  1.0618
  526MOL0     O72453   3.565   9.425   1.167  0.5972  0.5172 -0.5874
  526MOL0     C72454   3.591   9.407   1.035  0.0406 -0.8252 -0.1248
  526MOL0     C72455   3.606   9.525   0.969 -0.4594 -0.8645 -0.0908
  526MOL0     C72456   3.626   9.529   0.824  0.9090 -0.5579 -0.4141
  526MOL0     C72457   3.643   9.406   0.749 -0.1035  0.1556  0.0208
  526MOL0     O72458   3.667   9.405   0.613  0.2934  0.2740  0.2648
  526MOL0     C72459   3.606   9.300   0.529 -0.6676  0.6406 -0.2409
  526MOL0     C72460   3.457   9.306   0.510 -0.7017 -0.1564 -0.5404
  526MOL0     C72461   3.411   9.458   0.494  0.5330  0.4225 -0.0403
  526MOL0     C72462   3.293   9.488   0.402  0.5229  1.0221 -0.8524
  526MOL0     C72463   3.288   9.632   0.396  0.2565  0.5154  0.4076
  526MOL0     C72464   3.193   9.685   0.283  0.4630  0.3386 -0.2046
  526MOL0     C72465   3.213   9.837   0.273 -0.3527  0.3386  0.0971
  526MOL0     C72466   3.112   9.919   0.368 -0.6713  0.7885 -0.3793
  526MOL0     N72467   2.973   9.877   0.340  0.2815  0.2718 -0.1468
  526MOL0     C72468   2.887   9.815   0.430 -1.7935  0.1495 -0.5237
  526MOL0     C72469   2.768   9.805   0.363 -0.3859 -0.8194 -0.1679
  526MOL0     C72470   2.644   9.765   0.439 -1.2893 -1.0737  0.4652
  526MOL0     C72471   2.585   9.881   0.518 -0.2608  0.7662  0.2243
  526MOL0     C72472   2.448   9.836   0.579 -0.3786  0.6757 -0.3534
  526MOL0     C72473   2.413   9.926   0.696 -1.0615 -0.4489  0.4807
  526MOL0     O72474   2.291   9.890   0.765 -0.4861  0.3652  0.1447
  526MOL0     C72475   2.182   9.891   0.683 -0.6272 -0.5297 -0.3621
  526MOL0     C72476   2.111   9.780   0.664  0.5016  0.0261 -0.4137
  526MOL0     C72477   2.013   9.765   0.567 -0.3247  0.4594 -0.3167
  526MOL0     C72478   1.949   9.633   0.553  0.7506 -0.8063 -0.8273
  526MOL0     C72479   1.963   9.878   0.503 -0.4113 -0.1550  0.3672
  526MOL0     C72480   1.833   9.890   0.424  0.5304  0.7133 -0.6858
  526MOL0     O72481   1.797   9.774   0.355  0.3551 -0.1505 -0.1585
  526MOL0     C72482   1.655   9.748   0.339  0.1185 -0.5099 -0.4128
  526MOL0     C72483   1.553   9.793   0.416 -0.8987  0.7445  0.7637
  526MOL0     C72484   1.424   9.750   0.391  0.1342  0.5613  0.5645
  526MOL0     C72485   1.391   9.645   0.306 -0.1910 -0.6048  0.8405
  526MOL0     O72486   1.250   9.620   0.294 -1.2181  0.1339  0.1696
  526MOL0     C72487   1.209   9.486   0.264  0.2854 -0.7045  0.8569
  526MOL0     C72488   1.218   9.391   0.375 -0.3010  0.5858  0.2091
  526MOL0     C72489   1.177   9.252   0.335  0.2291 -0.5519  0.5042
  526MOL0     C72490   1.024   9.239   0.305  0.9075  0.4244  0.0339
  526MOL0     C72491   0.981   9.091   0.285 -0.4235  0.2834 -0.3190
  526MOL0     C72492   0.833   9.071   0.260 -0.2708 -0.2118  0.2974
  526MOL0     C72493   0.809   9.100   0.118 -0.4049 -0.0477  0.6103
  526MOL0     C72494   0.662   9.143   0.098  0.4845 -0.0578  0.1874
  526MOL0    Cl72495   0.547   9.037   0.186 -0.0062 -0.3675  0.0732
  526MOL0     C72496   1.502   9.590   0.235  0.7127  0.1581  0.1472
  526MOL0     C72497   1.628   9.640   0.259  0.4405  1.0204 -0.3760
  526MOL0     O72498   1.780   9.996   0.413 -0.0372 -0.1579 -0.4204
  526MOL0     C72499   2.036   9.998   0.524  1.2977 -0.5418 -1.2724
  526MOL0     C72500   2.144  10.005   0.610  0.8901  0.7345  0.1495
  526MOL0     N72501   2.787   9.861   0.239 -0.4604 -0.2649  0.9994
  526MOL0     N72502   2.909   9.907   0.229 -0.2078 -0.0688 -0.7547
  526MOL0     C72503   3.639   9.286   0.823  0.4070 -0.7309  0.9349
  526MOL0     C72504   3.612   9.290   0.966 -0.1550  1.4483  0.4892
  526MOL0     C72505   3.526   9.332   1.386  0.7727 -0.0253  0.2820
  526MOL0     C72506   3.526   9.461   1.449 -1.0781 -0.2388 -0.2093
  526MOL0     C72507   3.542   9.463   1.588  0.8547 -0.7927  0.7118
  526MOL0     C72508   3.554   9.350   1.670 -0.8144 -0.0500 -0.2136
  526MOL0     O72509   3.571   9.371   1.800 -0.4353 -0.0367 -0.0380
  526MOL0     C72510   3.526   9.261   1.877  0.2347  0.1111 -1.3326
  526MOL0     C72511   3.536   9.304   2.032  0.5880 -0.3862  1.2560
  526MOL0     C72512   3.443   9.422   2.074  0.9818  0.4793  0.2440
  526MOL0     C72513   3.470   9.471   2.217 -0.2921 -0.4833  0.1849
  526MOL0     C72514   3.409   9.605   2.266 -1.0135  0.4215 -0.0299
  526MOL0     C72515   3.386   9.716   2.300  0.1313 -0.1606 -0.8439
  526MOL0     C72516   3.555   9.228   1.599 -0.1605  0.2076  0.3946
  526MOL0     C72517   3.534   9.217   1.464  0.6290  0.1011 -0.0743
  526MOL0     C72518   3.542   9.075   1.402 -0.3516 -0.5871 -0.7530
  526MOL0     H72519   3.593   9.619   1.022  1.2332 -1.2902  1.1604
  526MOL0     H72520   3.625   9.624   0.770  0.9285  0.4472  1.2825
  526MOL0     H72521   3.639   9.200   0.560  0.8280  1.3540  0.5968
  526MOL0     H72522   3.660   9.311   0.434  0.5996  1.4068  0.5284
  526MOL0     H72523   3.433   9.248   0.420  0.4261 -1.3526 -0.1043
  526MOL0     H72524   3.412   9.253   0.595 -1.0180  1.4746  0.3523
  526MOL0     H72525   3.393   9.489   0.597  2.6302 -0.8126  0.7603
  526MOL0     H72526   3.500   9.500   0.446  1.0218  1.2058  1.4782
  526MOL0     H72527   3.308   9.434   0.308  2.5572 -1.9072  1.0047
  526MOL0     H72528   3.197   9.461   0.446  2.2411  1.3380  3.6593
  526MOL0     H72529   3.388   9.676   0.391 -0.6165  2.4923 -1.1428
  526MOL0     H72530   3.257   9.665   0.495 -0.3671  0.1780  0.3269
  526MOL0     H72531   3.221   9.636   0.190  1.0152  1.0276 -0.4069
  526MOL0     H72532   3.085   9.666   0.288  0.5910 -0.3711  0.0347
  526MOL0     H72533   3.179   9.860   0.171 -4.9193 -0.5986  1.1831
  526MOL0     H72534   3.320   9.852   0.292  0.7888 -4.8986 -0.6055
  526MOL0     H72535   3.133   9.887   0.470 -1.2543 -1.4794 -0.9089
  526MOL0     H72536   3.124  10.027   0.355 -1.1855  0.7415 -1.3808
  526MOL0     H72537   2.897   9.795   0.536 -0.1017 -0.9927 -0.8670
  526MOL0     H72538   2.672   9.680   0.502 -0.2867 -2.3632 -1.6158
  526MOL0     H72539   2.563   9.731   0.373  0.5392  1.2645 -3.3561
  526MOL0     H72540   2.663   9.911   0.588  1.9057 -1.9929 -0.8046
  526MOL0     H72541   2.559   9.959   0.446  3.2438  0.8255 -1.1733
  526MOL0     H72542   2.381   9.848   0.493 -2.3242  1.2118  1.1607
  526MOL0     H72543   2.465   9.733   0.611  1.4096  1.4168  1.3114
  526MOL0     H72544   2.493   9.935   0.770  0.9668  3.4546 -1.7863
  526MOL0     H72545   2.398  10.018   0.638 -3.0916 -0.3893  1.0259
  526MOL0     H72546   2.147   9.688   0.709 -3.0095 -1.8572 -1.1222
  526MOL0     H72547   1.968   9.577   0.461 -3.3196  1.0799 -3.1199
  526MOL0     H72548   1.840   9.633   0.546  0.7922 -1.6628 -1.6341
  526MOL0     H72549   1.960   9.562   0.636  3.4213  1.7435  1.1779
  526MOL0     H72550   1.564   9.876   0.485  0.5568  1.8997 -0.7744
  526MOL0     H72551   1.345   9.810   0.435  0.7996  1.9282 -0.0446
  526MOL0     H72552   1.106   9.493   0.226  0.7246 -0.4041 -0.3136
  526MOL0     H72553   1.269   9.447   0.181 -0.4282 -0.3706  0.1649
  526MOL0     H72554   1.326   9.398   0.392 -0.1739  1.4395 -0.9113
  526MOL0     H72555   1.170   9.411   0.471  0.8978 -2.1259  1.5080
  526MOL0     H72556   1.182   9.189   0.424 -3.1689 -1.4518  0.1987
  526MOL0     H72557   1.249   9.219   0.260 -1.5212  0.8579 -1.9492
  526MOL0     H72558   1.002   9.296   0.214  0.4802 -0.6394 -0.5448
  526MOL0     H72559   0.961   9.266   0.390  1.4720 -1.5875  1.1601
  526MOL0     H72560   1.041   9.047   0.205 -1.5629  0.2626 -1.1924
  526MOL0     H72561   0.996   9.033   0.376  0.5532  0.8061 -0.1390
  526MOL0     H72562   0.784   9.142   0.326  0.8132 -1.3013  2.3757
  526MOL0     H72563   0.791   8.973   0.286 -0.6977  0.0006  0.4064
  526MOL0     H72564   0.827   9.006   0.063 -2.5062 -0.0987 -0.1277
  526MOL0     H72565   0.874   9.178   0.079  3.1312 -3.0588 -0.0897
  526MOL0     H72566   0.639   9.135  -0.008 -1.1771 -0.3203  0.5428
  526MOL0     H72567   0.649   9.248   0.128 -3.0898 -0.0866 -0.8702
  526MOL0     H72568   1.488   9.503   0.171 -2.2897 -0.2971  1.2703
  526MOL0     H72569   1.703   9.581   0.208  0.2827 -2.8518  3.3367
  526MOL0     H72570   2.012  10.092   0.475 -2.1691  0.6934  2.2950
  526MOL0     H72571   2.193  10.100   0.628  0.4625  1.1455 -0.7546
  526MOL0     H72572   3.667   9.196   0.769  0.7075 -0.4976  0.6962
  526MOL0     H72573   3.626   9.194   1.015 -0.3640 -0.2630 -2.5613
  526MOL0     H72574   3.522   9.555   1.393  0.9862  1.0187  1.5967
  526MOL0     H72575   3.546   9.564   1.627  2.7225  0.0889 -1.5392
  526MOL0     H72576   3.421   9.240   1.854  0.6172 -1.3594 -1.8953
  526MOL0     H72577   3.573   9.162   1.869  0.8923 -0.0465  2.3877
  526MOL0     H72578   3.639   9.339   2.038  0.7158 -0.4647 -0.0919
  526MOL0     H72579   3.509   9.216   2.091  1.0265 -1.0923  0.4431
  526MOL0     H72580   3.467   9.503   2.004  0.8279 -0.6049 -1.1034
  526MOL0     H72581   3.342   9.382   2.064  1.1976  0.3672 -1.8523
  526MOL0     H72582   3.575   9.480   2.246 -0.8453 -1.2167  2.6806
  526MOL0     H72583   3.433   9.389   2.279  2.5479 -1.0681  1.2563
  526MOL0     H72584   3.370   9.817   2.331 -1.7085 -1.4929  3.3990
  526MOL0     H72585   3.559   9.134   1.654  1.4901  1.5798  2.7954
  526MOL0     H72586   3.611   9.073   1.316 -0.0609 -0.3459 -0.5285
  526MOL0     H72587   3.574   9.003   1.477  1.7637  1.2433  0.2298
  526MOL0     H72588   3.441   9.043   1.376 -1.9966  0.8306  3.2048
  527MOL0     O72589   2.812   4.295   8.833 -0.0398 -0.7302  0.4122
  527MOL0     C72590   2.885   4.304   8.732  0.8046  0.3944 -0.0568
  527MOL0     O72591   2.972   4.212   8.688  0.3290 -0.1595 -0.2380
  527MOL0     C72592   3.009   4.109   8.769 -0.1787  0.1460  0.7044
  527MOL0     C72593   2.927   3.997   8.787 -0.0184 -0.6387  0.0864
  527MOL0     C72594   2.953   3.899   8.880  0.3034 -0.1745 -0.6671
  527MOL0     C72595   3.070   3.908   8.960 -0.4281 -0.2873 -0.1478
  527MOL0     O72596   3.094   3.803   9.037 -1.3002  0.3542  1.1912
  527MOL0     C72597   3.217   3.787   9.110  0.1628  0.1035  0.4482
  527MOL0     C72598   3.336   3.741   9.017  0.2815 -0.0443  0.3857
  527MOL0     C72599   3.450   3.714   9.104  0.0457 -0.7516  0.6639
  527MOL0     C72600   3.553   3.628   9.033 -0.0418 -0.2901  0.1099
  527MOL0     C72601   3.682   3.584   9.112 -0.7013  0.3254  0.0489
  527MOL0     C72602   3.768   3.480   9.029  0.0880 -0.7692 -0.3605
  527MOL0     C72603   3.706   3.345   9.029  0.2281 -0.0574 -0.2551
  527MOL0     C72604   3.723   3.267   9.162 -0.1260  0.5322 -0.0412
  527MOL0     N72605   3.857   3.263   9.217  0.2165  0.4990 -0.0838
  527MOL0     C72606   3.902   3.348   9.314  0.6844 -0.4207  0.5973
  527MOL0     C72607   4.027   3.312   9.348  1.4969 -0.3271  0.2365
  527MOL0     C72608   4.111   3.364   9.462 -0.3367 -0.4551 -0.1678
  527MOL0     C72609   4.090   3.289   9.593 -0.1577 -0.1971  0.1658
  527MOL0     C72610   4.220   3.245   9.666 -0.0669 -0.6976 -0.7394
  527MOL0     C72611   4.288   3.129   9.593 -0.6190  0.5040 -0.5119
  527MOL0     O72612   4.236   3.001   9.619  0.1874 -0.7274 -0.5945
  527MOL0     C72613   4.294   2.933   9.722 -0.4434  0.4663  0.6782
  527MOL0     C72614   4.250   2.943   9.851  0.3228 -0.5214 -0.4138
  527MOL0     C72615   4.299   2.859   9.958  0.2716 -0.3942  0.0461
  527MOL0     C72616   4.246   2.895  10.099  0.0641  0.2728 -0.0362
  527MOL0     C72617   4.390   2.760   9.926  0.9351  0.1637  0.4175
  527MOL0     C72618   4.439   2.652  10.021  0.6372 -0.2823  0.0731
  527MOL0     O72619   4.527   2.562   9.971 -0.3370  0.0209 -0.6499
  527MOL0     C72620   4.583   2.456  10.043 -0.2681 -0.1461 -0.1039
  527MOL0     C72621   4.604   2.462  10.175 -0.2916 -0.7168  0.0294
  527MOL0     C72622   4.655   2.354  10.242 -0.0615 -1.2045 -0.7686
  527MOL0     C72623   4.696   2.240  10.184 -0.1972  0.8422 -0.4320
  527MOL0     O72624   4.740   2.132  10.255 -0.2866 -0.0487  0.0947
  527MOL0     C72625   4.784   2.008  10.197 -0.7346  0.0108 -1.2713
  527MOL0     C72626   4.926   1.988  10.253 -0.2284  0.4651  0.1813
  527MOL0     C72627   4.990   1.857  10.204  0.6078 -0.4343  1.2794
  527MOL0     C72628   5.130   1.843  10.268 -0.0055 -0.3001  0.8088
  527MOL0     C72629   5.186   1.713  10.221 -0.0989 -0.1060  0.4086
  527MOL0     C72630   5.255   1.724  10.082  0.3792 -0.1527 -0.3153
  527MOL0     C72631   5.338   1.615  10.030 -1.0166 -0.0103 -0.4735
  527MOL0     C72632   5.238   1.500   9.995 -0.4031  0.2654  0.9146
  527MOL0    Cl72633   5.335   1.362   9.929 -0.0197  0.0530  0.2480
  527MOL0     C72634   4.656   2.233  10.052  0.7542  0.6893  0.4723
  527MOL0     C72635   4.617   2.346   9.977 -0.2018  0.5294  0.0302
  527MOL0     O72636   4.387   2.636  10.132 -0.2486 -0.8436 -0.8695
  527MOL0     C72637   4.435   2.749   9.789 -0.1650 -0.1292 -0.3620
  527MOL0     C72638   4.392   2.841   9.689  0.0701  0.7304  0.2376
  527MOL0     N72639   4.064   3.208   9.268  0.2704  0.2421  0.5039
  527MOL0     N72640   3.955   3.184   9.185  0.1363 -0.7126 -0.5097
  527MOL0     C72641   3.140   4.031   8.956 -0.1508  0.2675  0.9536
  527MOL0     C72642   3.104   4.125   8.868 -0.2491 -0.6348  0.1840
  527MOL0     C72643   2.889   4.442   8.658  0.1859  0.1322 -0.3597
  527MOL0     C72644   2.799   4.540   8.704 -0.2307  0.3134 -0.1136
  527MOL0     C72645   2.792   4.674   8.654  0.8470 -0.4931  0.3910
  527MOL0     C72646   2.883   4.713   8.550  0.1195 -0.6081 -0.7692
  527MOL0     O72647   2.860   4.843   8.504  0.3118 -0.0338  0.0883
  527MOL0     C72648   2.905   4.876   8.370  0.3200  0.6564  0.4532
  527MOL0     C72649   2.870   5.030   8.344  0.2096  0.9791 -1.5412
  527MOL0     C72650   2.725   5.068   8.378  0.4506 -1.0530 -0.2907
  527MOL0     C72651   2.686   5.220   8.356  0.0002  1.0947 -0.3084
  527MOL0     C72652   2.689   5.266   8.218 -0.4165 -0.9896  0.1033
  527MOL0     C72653   2.695   5.325   8.109 -0.7191  0.0761 -0.5636
  527MOL0     C72654   2.976   4.623   8.509 -0.2833  0.5225  0.3607
  527MOL0     C72655   2.986   4.486   8.562  0.0514  1.1384  0.9872
  527MOL0     C72656   3.087   4.389   8.494  0.2092 -0.9932 -1.1020
  527MOL0     H72657   2.849   3.982   8.713 -0.1773  1.4893 -0.2388
  527MOL0     H72658   2.894   3.809   8.889  0.1391  0.1094  1.8622
  527MOL0     H72659   3.196   3.719   9.193  0.1853 -0.4148  0.0367
  527MOL0     H72660   3.247   3.876   9.166  4.3986 -0.9482  0.2308
  527MOL0     H72661   3.301   3.651   8.964  0.1048 -1.1864  2.3385
  527MOL0     H72662   3.365   3.807   8.935  2.5284 -1.5631 -0.1258
  527MOL0     H72663   3.497   3.809   9.132  2.0267 -1.1783 -1.0023
  527MOL0     H72664   3.417   3.663   9.195 -2.2416  1.3350  1.0930
  527MOL0     H72665   3.518   3.532   8.992 -0.5721 -0.7597  1.5889
  527MOL0     H72666   3.590   3.696   8.957 -2.5306  1.4263  0.3075
  527MOL0     H72667   3.657   3.546   9.212 -2.9196  1.9522  0.1841
  527MOL0     H72668   3.743   3.674   9.121 -1.5954  0.8000  1.8734
  527MOL0     H72669   3.775   3.515   8.925 -0.6258  3.0244  0.7226
  527MOL0     H72670   3.872   3.493   9.061 -0.0657 -1.0833  0.2839
  527MOL0     H72671   3.763   3.289   8.954 -0.1092  0.8905 -1.2394
  527MOL0     H72672   3.598   3.343   9.009 -0.5765  1.2409  3.2852
  527MOL0     H72673   3.654   3.314   9.233 -1.1724 -0.7357 -0.1808
  527MOL0     H72674   3.681   3.168   9.146  1.5809 -0.2195 -0.1294
  527MOL0     H72675   3.848   3.421   9.372  1.7358  2.1100 -1.4255
  527MOL0     H72676   4.090   3.470   9.474 -1.4703 -0.6927  0.0698
  527MOL0     H72677   4.219   3.358   9.445  0.0409  2.6171  0.5889
  527MOL0     H72678   4.029   3.355   9.655 -1.9437 -2.6278  1.1468
  527MOL0     H72679   4.033   3.197   9.581  1.4029 -1.4874  1.9789
  527MOL0     H72680   4.292   3.327   9.679 -1.2052  0.3409 -0.8095
  527MOL0     H72681   4.184   3.216   9.765 -2.3698  3.3292 -0.1530
  527MOL0     H72682   4.297   3.140   9.484  0.5742 -0.6080 -0.5401
  527MOL0     H72683   4.389   3.139   9.633 -0.6212 -1.2620 -0.0237
  527MOL0     H72684   4.170   3.014   9.870  0.9640 -0.2193  1.4366
  527MOL0     H72685   4.163   2.828  10.123  1.9558 -1.5556  1.7063
  527MOL0     H72686   4.218   3.001  10.109 -1.8627 -0.3330  1.9480
  527MOL0     H72687   4.323   2.881  10.174 -0.2148 -0.1100  0.1834
  527MOL0     H72688   4.588   2.555  10.229  0.2214 -1.1801  1.0111
  527MOL0     H72689   4.670   2.370  10.348 -0.1222 -3.7565 -0.3122
  527MOL0     H72690   4.733   1.919  10.235 -1.5919  1.3734  0.9963
  527MOL0     H72691   4.796   1.994  10.089 -0.1739 -1.4353 -1.0437
  527MOL0     H72692   4.984   2.073  10.214  0.3266  0.2664  0.5648
  527MOL0     H72693   4.928   1.994  10.362  2.3222  1.5817  0.1496
  527MOL0     H72694   4.994   1.863  10.094 -0.6631  0.9372  1.2739
  527MOL0     H72695   4.920   1.776  10.226  0.0057 -1.0908 -2.3899
  527MOL0     H72696   5.113   1.829  10.375 -0.8157 -1.9107  0.4943
  527MOL0     H72697   5.202   1.922  10.247 -0.0285 -0.1056  1.4272
  527MOL0     H72698   5.265   1.673  10.286  0.1136  2.1665  1.6182
  527MOL0     H72699   5.112   1.633  10.207  1.6105 -1.3508 -2.8464
  527MOL0     H72700   5.317   1.815  10.086  2.7885 -1.7322  0.2718
  527MOL0     H72701   5.184   1.733   9.999  1.3576  0.5014 -1.1132
  527MOL0     H72702   5.405   1.575  10.107  0.0661 -1.6480 -2.1802
  527MOL0     H72703   5.389   1.644   9.938  0.9279 -2.0411 -0.1132
  527MOL0     H72704   5.169   1.526   9.915  0.6557 -0.3434 -0.2367
  527MOL0     H72705   5.178   1.461  10.078 -2.8678 -1.5516 -1.5440
  527MOL0     H72706   4.666   2.144   9.991  2.2389  0.6031  0.8027
  527MOL0     H72707   4.593   2.325   9.873  0.2163  0.9449 -0.1555
  527MOL0     H72708   4.498   2.669   9.752  0.0622 -1.0714  1.9264
  527MOL0     H72709   4.437   2.819   9.592  1.0744  2.2058  0.3464
  527MOL0     H72710   3.227   4.044   9.020  0.5851  1.2345 -0.1809
  527MOL0     H72711   3.166   4.214   8.884 -2.1176  1.1909 -2.0345
  527MOL0     H72712   2.735   4.517   8.788  0.4975 -1.2491  0.0623
  527MOL0     H72713   2.725   4.754   8.683  2.7724  2.4337 -2.5235
  527MOL0     H72714   3.013   4.857   8.374  0.3315 -0.0128 -1.6717
  527MOL0     H72715   2.855   4.821   8.290 -1.2546  0.8423  1.2882
  527MOL0     H72716   2.903   5.053   8.242  0.6110  0.5783 -1.5071
  527MOL0     H72717   2.930   5.091   8.413 -0.3603 -1.1116  0.9500
  527MOL0     H72718   2.659   5.001   8.321 -2.3541  3.5990 -3.1463
  527MOL0     H72719   2.707   5.043   8.483 -1.1970  0.1782 -0.2423
  527MOL0     H72720   2.745   5.279   8.427  1.3037  1.7354 -1.8438
  527MOL0     H72721   2.583   5.233   8.391  0.0485 -0.1509  0.3489
  527MOL0     H72722   2.695   5.377   8.015  1.7498  0.3926 -0.4748
  527MOL0     H72723   3.052   4.634   8.432  0.8821 -2.2827  1.0043
  527MOL0     H72724   3.164   4.363   8.567 -1.3908  0.6646  1.3200
  527MOL0     H72725   3.031   4.300   8.467 -2.0335 -0.6807  2.0053
  527MOL0     H72726   3.138   4.420   8.402 -0.3781 -1.8410 -1.7254
  528MOL0     O72727   8.462   6.679   1.080  0.5290  0.2654 -0.0908
  528MOL0     C72728   8.459   6.796   1.095  0.4426  0.0913 -0.0167
  528MOL0     O72729   8.397   6.885   1.011 -0.0770  0.2674 -0.6407
  528MOL0     C72730   8.353   6.834   0.897  0.9296  0.1424 -0.4134
  528MOL0     C72731   8.210   6.829   0.883 -1.4203  0.2566  0.3998
  528MOL0     C72732   8.159   6.784   0.757  0.3753  0.3780 -0.3735
  528MOL0     C72733   8.242   6.732   0.650 -0.1540  0.2502 -0.3007
  528MOL0     O72734   8.185   6.689   0.531  0.0048  0.2265 -1.0532
  528MOL0     C72735   8.195   6.788   0.425 -0.4422 -0.1641  0.2066
  528MOL0     C72736   8.295   6.737   0.320  0.0867 -0.4917  0.4604
  528MOL0     C72737   8.231   6.623   0.240  0.0040 -0.6744  0.0155
  528MOL0     C72738   8.293   6.566   0.112 -0.5992  0.4737 -0.3275
  528MOL0     C72739   8.405   6.468   0.161  0.0251 -0.5465 -0.2674
  528MOL0     C72740   8.474   6.415   0.027  0.3258  0.1684 -0.8948
  528MOL0     C72741   8.594   6.326   0.067 -0.3356 -0.2539  0.2372
  528MOL0     C72742   8.662   6.254  -0.049 -0.0616 -0.5585  0.0840
  528MOL0     N72743   8.797   6.226  -0.001 -0.1114  0.1857 -0.2280
  528MOL0     C72744   8.897   6.314   0.023  0.4881 -0.0869  0.5128
  528MOL0     C72745   9.001   6.241   0.070 -0.0879  0.1117  0.3082
  528MOL0     C72746   9.143   6.304   0.096 -0.5743  0.0851  0.1337
  528MOL0     C72747   9.197   6.405  -0.018  0.2821  1.0221 -1.0421
  528MOL0     C72748   9.346   6.421  -0.026  0.1158 -0.7823  0.3567
  528MOL0     C72749   9.397   6.469   0.110  0.6143 -0.1809 -0.6749
  528MOL0     O72750   9.523   6.529   0.093  0.9052  0.2943  0.9599
  528MOL0     C72751   9.610   6.533   0.200 -0.1173 -0.2334  0.8327
  528MOL0     C72752   9.573   6.513   0.335  0.0577 -1.1031 -0.6578
  528MOL0     C72753   9.669   6.523   0.438  0.7938  1.4501 -1.2234
  528MOL0     C72754   9.626   6.478   0.576  0.5975 -0.5954 -0.6508
  528MOL0     C72755   9.804   6.556   0.413 -0.1799  0.2393 -0.5054
  528MOL0     C72756   9.902   6.560   0.524 -0.2674  0.0170 -0.0800
  528MOL0     O72757  10.016   6.623   0.485 -0.7773  0.9204 -0.5678
  528MOL0     C72758  10.127   6.653   0.571 -0.2448 -0.3892  0.0112
  528MOL0     C72759  10.116   6.721   0.689 -0.0377  0.9390  0.0030
  528MOL0     C72760  10.228   6.739   0.778  0.0575 -0.0968 -0.2751
  528MOL0     C72761  10.360   6.692   0.743 -0.4884  1.2812  0.0449
  528MOL0     O72762  10.474   6.701   0.819 -0.0109 -0.5546  0.1567
  528MOL0     C72763  10.461   6.719   0.960 -0.1774  0.7173  0.3530
  528MOL0     C72764  10.595   6.703   1.029  0.6493  0.8480 -0.3236
  528MOL0     C72765  10.708   6.763   0.954  1.2495  0.4883  0.2029
  528MOL0     C72766  10.837   6.768   1.031 -0.8882  1.0300 -0.3059
  528MOL0     C72767  10.923   6.638   1.034 -1.3023  0.8438  0.1953
  528MOL0     C72768  11.041   6.635   1.135  1.3301 -0.1378 -1.0987
  528MOL0     C72769  11.148   6.540   1.112 -0.2201 -0.2579  1.2645
  528MOL0     C72770  11.241   6.498   1.230  0.6504  0.4135  0.8043
  528MOL0    Cl72771  11.156   6.361   1.293  0.4781  0.4336 -0.3070
  528MOL0     C72772  10.377   6.653   0.618  0.2013 -0.2235 -0.6768
  528MOL0     C72773  10.260   6.628   0.535 -0.2620 -0.3760  0.3966
  528MOL0     O72774   9.883   6.525   0.640 -0.0393  0.4050  0.6850
  528MOL0     C72775   9.840   6.579   0.283 -0.6034 -0.1388 -0.5062
  528MOL0     C72776   9.750   6.565   0.176  0.0225  0.8767 -0.3158
  528MOL0     N72777   8.957   6.109   0.069  0.6072 -0.5309 -0.0086
  528MOL0     N72778   8.832   6.101   0.023 -0.3581  0.6017  0.4178
  528MOL0     C72779   8.382   6.733   0.671 -0.4791 -0.3051 -0.0478
  528MOL0     C72780   8.437   6.785   0.796 -0.7238  0.8950  0.0410
  528MOL0     C72781   8.517   6.872   1.214  0.2247 -0.0673  0.9573
  528MOL0     C72782   8.497   7.012   1.233 -1.2790  0.1472  0.9366
  528MOL0     C72783   8.562   7.079   1.334  1.1529  0.4583 -0.3256
  528MOL0     C72784   8.639   7.010   1.433  0.7412 -0.6659  0.0546
  528MOL0     O72785   8.709   7.070   1.537 -0.0368  0.7438 -0.8413
  528MOL0     C72786   8.729   7.210   1.534 -0.0049  0.3147 -0.0690
  528MOL0     C72787   8.825   7.257   1.434  0.2332 -0.4484  0.7694
  528MOL0     C72788   8.852   7.405   1.428  0.5250  0.0007 -0.3041
  528MOL0     C72789   8.726   7.490   1.389 -0.8948 -0.2906  0.0801
  528MOL0     C72790   8.751   7.632   1.403 -0.0942 -1.1861  0.2843
  528MOL0     C72791   8.774   7.754   1.410  0.5392  0.1623 -0.7505
  528MOL0     C72792   8.655   6.879   1.424  1.1895 -0.1164 -0.0417
  528MOL0     C72793   8.595   6.811   1.319 -0.2048 -0.0184  0.4133
  528MOL0     C72794   8.630   6.662   1.309  0.6045 -0.6807  0.5647
  528MOL0     H72795   8.147   6.871   0.960 -0.0872  2.7022  0.2413
  528MOL0     H72796   8.052   6.784   0.741  0.2627  1.4824  0.2609
  528MOL0     H72797   8.239   6.887   0.446 -2.1572  0.6483  0.1238
  528MOL0     H72798   8.096   6.816   0.387 -1.3727 -2.3973  0.8366
  528MOL0     H72799   8.318   6.817   0.249  0.8001  0.0409  1.2794
  528MOL0     H72800   8.394   6.713   0.357 -0.0045 -1.2085  0.2558
  528MOL0     H72801   8.216   6.544   0.315  1.2527 -1.6514 -0.7224
  528MOL0     H72802   8.131   6.659   0.214 -0.7624 -0.6491  2.6699
  528MOL0     H72803   8.223   6.512   0.047 -0.9414  0.6333 -0.0988
  528MOL0     H72804   8.346   6.634   0.045 -3.1172  0.5727 -2.3563
  528MOL0     H72805   8.373   6.375   0.209  3.3088 -1.7660 -0.1676
  528MOL0     H72806   8.477   6.510   0.231  1.0734  0.0504 -1.6603
  528MOL0     H72807   8.395   6.359  -0.024 -0.5132  0.1660  0.3545
  528MOL0     H72808   8.507   6.502  -0.030 -0.4591  2.0763  1.3892
  528MOL0     H72809   8.563   6.251   0.140 -1.5520 -0.7496 -0.7703
  528MOL0     H72810   8.663   6.404   0.102 -0.4071 -0.1609  0.1710
  528MOL0     H72811   8.604   6.166  -0.078 -4.4497  1.0625  2.8714
  528MOL0     H72812   8.682   6.326  -0.129 -2.6219 -0.6504 -0.7091
  528MOL0     H72813   8.886   6.414  -0.018 -3.1874 -0.1030  1.1131
  528MOL0     H72814   9.216   6.223   0.101 -0.0266  0.6222  1.0355
  528MOL0     H72815   9.135   6.343   0.198 -1.5557 -0.2383  0.1924
  528MOL0     H72816   9.166   6.376  -0.119  0.1755 -0.9713 -0.4747
  528MOL0     H72817   9.154   6.504  -0.003  2.3357  1.7717  0.2714
  528MOL0     H72818   9.391   6.321  -0.034 -2.3191 -1.8356 -1.5151
  528MOL0     H72819   9.390   6.481  -0.106  0.2519 -0.2987  0.7902
  528MOL0     H72820   9.326   6.539   0.155  0.0096  0.0867 -1.9965
  528MOL0     H72821   9.409   6.385   0.179  0.5127  0.1700 -0.2216
  528MOL0     H72822   9.473   6.491   0.369 -0.5948 -0.4591 -2.0775
  528MOL0     H72823   9.517   6.470   0.578  0.4336  0.9713  1.9566
  528MOL0     H72824   9.633   6.561   0.648 -0.8746 -2.9660  2.4723
  528MOL0     H72825   9.672   6.388   0.618  0.7967 -0.6563 -0.9985
  528MOL0     H72826  10.017   6.744   0.727 -0.3235  1.5366 -1.0759
  528MOL0     H72827  10.218   6.781   0.878 -0.8478 -4.1494  1.5197
  528MOL0     H72828  10.436   6.825   0.971  3.6676  2.2093 -2.8569
  528MOL0     H72829  10.388   6.654   1.009 -0.8034  2.1209  1.3440
  528MOL0     H72830  10.594   6.744   1.130 -1.5035 -1.0444  0.5023
  528MOL0     H72831  10.628   6.600   1.047  2.9486  1.0947 -2.5038
  528MOL0     H72832  10.680   6.864   0.925  1.1208  0.5095  0.4064
  528MOL0     H72833  10.716   6.721   0.853 -0.1192  2.0829 -0.6178
  528MOL0     H72834  10.813   6.797   1.134  3.2265  2.0241  0.5678
  528MOL0     H72835  10.903   6.846   0.992 -2.3237  1.9133 -1.0471
  528MOL0     H72836  10.858   6.552   1.052 -2.1473  1.8956  2.6919
  528MOL0     H72837  10.966   6.628   0.934  3.0425 -1.4026  2.0081
  528MOL0     H72838  11.007   6.615   1.237  1.5763  1.1252 -0.7524
  528MOL0     H72839  11.092   6.732   1.139  4.8559 -1.8871  0.1659
  528MOL0     H72840  11.219   6.593   1.048 -2.1768 -1.2786 -1.9821
  528MOL0     H72841  11.115   6.448   1.063  1.7757  0.1002 -0.8972
  528MOL0     H72842  11.235   6.573   1.309 -1.1078 -3.3106  4.6248
  528MOL0     H72843  11.344   6.476   1.201  0.7541  0.9293  0.7724
  528MOL0     H72844  10.473   6.618   0.581  0.1656 -1.4786  0.3347
  528MOL0     H72845  10.286   6.591   0.436 -0.2979  0.5301  0.0433
  528MOL0     H72846   9.926   6.632   0.243  0.4479 -1.7859 -0.5012
  528MOL0     H72847   9.773   6.583   0.072 -3.0311 -1.6746 -1.6041
  528MOL0     H72848   8.446   6.687   0.597 -1.2653 -1.3739 -0.0896
  528MOL0     H72849   8.543   6.794   0.817 -1.1264  0.1965  2.6613
  528MOL0     H72850   8.435   7.071   1.165  1.9764  2.6351 -0.1607
  528MOL0     H72851   8.545   7.186   1.341  0.3237  0.3472 -0.5133
  528MOL0     H72852   8.629   7.254   1.533  0.1770  0.7465  0.1849
  528MOL0     H72853   8.768   7.239   1.632 -0.2858  1.4568 -0.2834
  528MOL0     H72854   8.803   7.218   1.335 -2.5603 -1.3620  1.6644
  528MOL0     H72855   8.922   7.211   1.458 -0.3041 -2.0119  0.0447
  528MOL0     H72856   8.908   7.427   1.519  0.0122 -0.9476  0.2500
  528MOL0     H72857   8.923   7.424   1.347  1.9185 -2.7762  0.1758
  528MOL0     H72858   8.645   7.459   1.454 -2.5670  4.1879  0.5211
  528MOL0     H72859   8.698   7.475   1.284 -0.8357  1.9159 -0.3152
  528MOL0     H72860   8.782   7.859   1.432  0.0590 -0.4541  3.0927
  528MOL0     H72861   8.727   6.830   1.490 -0.5116 -0.2906  1.7848
  528MOL0     H72862   8.541   6.602   1.328 -2.1200  1.8254 -3.0257
  528MOL0     H72863   8.673   6.646   1.210 -2.0376  0.6629 -0.9001
  528MOL0     H72864   8.709   6.638   1.382  2.6118  4.0736  0.3305
  529MOL0     O72865   2.001   7.545   8.843 -0.2192  0.1335  0.3146
  529MOL0     C72866   1.959   7.531   8.725  0.0422  0.1602 -0.1374
  529MOL0     O72867   1.845   7.595   8.674  0.1447 -0.0410 -0.3906
  529MOL0     C72868   1.743   7.644   8.763  1.0265  0.6955  0.4704
  529MOL0     C72869   1.720   7.575   8.884  0.0096 -0.2374 -0.9730
  529MOL0     C72870   1.620   7.623   8.976  0.5465 -0.0226  0.2035
  529MOL0     C72871   1.541   7.731   8.943  0.2232  0.0004 -1.0366
  529MOL0     O72872   1.442   7.784   9.025 -0.1402  0.2039  0.2167
  529MOL0     C72873   1.359   7.688   9.099 -1.0898 -0.6049 -0.4846
  529MOL0     C72874   1.227   7.742   9.148 -0.0646 -0.1811 -0.4177
  529MOL0     C72875   1.220   7.882   9.207 -0.4064 -0.8111  0.2028
  529MOL0     C72876   1.084   7.944   9.211 -0.3360 -0.7176  0.4672
  529MOL0     C72877   1.065   8.078   9.287 -0.3505 -0.3777  0.1905
  529MOL0     C72878   1.055   8.081   9.441 -0.4352  0.8641 -0.5320
  529MOL0     C72879   0.906   8.036   9.494 -0.3366  0.7847  0.1982
  529MOL0     C72880   0.810   8.153   9.479  0.6016 -0.5381  0.1674
  529MOL0     N72881   0.802   8.230   9.606  0.5388  0.3173 -0.2165
  529MOL0     C72882   0.900   8.316   9.644  0.3041 -0.2966 -0.0702
  529MOL0     C72883   0.892   8.320   9.775  0.3270 -0.8392 -0.3530
  529MOL0     C72884   0.991   8.380   9.869 -0.2242  0.0649  0.6098
  529MOL0     C72885   0.963   8.525   9.915 -0.0744 -0.3141  0.4087
  529MOL0     C72886   0.910   8.613   9.806  0.0552  0.5320 -0.3170
  529MOL0     C72887   0.918   8.755   9.834 -0.0876  0.4942 -0.0505
  529MOL0     O72888   0.873   8.791   9.969 -0.0094 -0.0733 -0.0145
  529MOL0     C72889   0.861   8.918  10.002  0.4014  0.0355  0.0024
  529MOL0     C72890   0.837   9.042   9.915 -0.5251  0.0711 -0.5808
  529MOL0     C72891   0.820   9.166   9.987  0.7369 -0.3074 -0.2636
  529MOL0     C72892   0.796   9.294   9.903 -0.1817 -0.0717 -0.3464
  529MOL0     C72893   0.829   9.175  10.130 -0.2589 -1.0019  0.0723
  529MOL0     C72894   0.820   9.297  10.210 -0.4576 -0.5849 -0.4969
  529MOL0     O72895   0.880   9.413  10.154 -0.3633  0.4503  0.2468
  529MOL0     C72896   0.873   9.531  10.228 -0.1186 -0.6159 -0.2393
  529MOL0     C72897   0.995   9.566  10.290  0.4801 -0.5656  0.4632
  529MOL0     C72898   1.000   9.676  10.372 -0.6877 -0.6837  0.3751
  529MOL0     C72899   0.892   9.764  10.381  1.3863 -0.1405  0.1699
  529MOL0     O72900   0.895   9.885  10.442  0.1729  0.0155 -0.3820
  529MOL0     C72901   0.921   9.992  10.356  0.1100  1.1655 -0.5072
  529MOL0     C72902   0.903  10.117  10.425 -0.3962  1.0122 -0.1093
  529MOL0     C72903   0.907  10.237  10.318  0.3741 -0.3216 -1.0188
  529MOL0     C72904   0.938  10.362  10.400 -0.6104  0.4686 -0.1622
  529MOL0     C72905   1.018  10.464  10.330  0.0044 -0.5444  0.6811
  529MOL0     C72906   0.941  10.509  10.196  0.0731  0.4089  0.2912
  529MOL0     C72907   1.004  10.624  10.113 -1.2964  0.6455 -0.0209
  529MOL0     C72908   0.939  10.633   9.974  1.4665  1.0229  0.0976
  529MOL0    Cl72909   0.763  10.675   9.993  0.2409 -0.1597 -0.3975
  529MOL0     C72910   0.765   9.737  10.322 -0.4757 -0.2153  0.5722
  529MOL0     C72911   0.763   9.618  10.251  0.2387  0.5014  0.4997
  529MOL0     O72912   0.774   9.281  10.327  0.2572 -0.2806  0.2515
  529MOL0     C72913   0.836   9.061  10.195 -0.1667  1.1342 -0.6076
  529MOL0     C72914   0.848   8.931  10.139  0.5495  0.1343  0.3081
  529MOL0     N72915   0.765   8.275   9.814 -0.3182  1.1986  0.0089
  529MOL0     N72916   0.718   8.217   9.710 -0.6119 -0.8223 -1.0876
  529MOL0     C72917   1.567   7.796   8.823  0.3909 -0.3212 -0.5841
  529MOL0     C72918   1.663   7.749   8.740  0.4860 -0.0544  0.8626
  529MOL0     C72919   2.062   7.475   8.640 -0.4144  0.0144  0.1968
  529MOL0     C72920   2.147   7.374   8.695 -0.5283  0.0297  1.0430
  529MOL0     C72921   2.257   7.330   8.620  0.0249  0.4562  0.5251
  529MOL0     C72922   2.270   7.372   8.493 -0.2886  0.1809  0.4415
  529MOL0     O72923   2.383   7.341   8.411  0.5669 -0.0937 -0.3305
  529MOL0     C72924   2.500   7.390   8.456 -0.2493  0.8436 -0.6181
  529MOL0     C72925   2.591   7.424   8.340  0.0021  0.1403  0.6810
  529MOL0     C72926   2.622   7.296   8.253 -0.5296 -0.0996  0.9334
  529MOL0     C72927   2.743   7.328   8.171 -0.9457 -0.2891  0.4343
  529MOL0     C72928   2.769   7.213   8.081  0.2749  0.0831  0.5531
  529MOL0     C72929   2.789   7.109   8.014  0.9104 -0.0292 -0.1305
  529MOL0     C72930   2.183   7.458   8.435 -0.2203 -0.0126  0.4036
  529MOL0     C72931   2.082   7.520   8.508 -0.5400  0.6103  0.0540
  529MOL0     C72932   2.011   7.636   8.453 -0.2492 -0.4956  0.0152
  529MOL0     H72933   1.785   7.494   8.913  3.1852  2.7480  1.0109
  529MOL0     H72934   1.606   7.570   9.070  0.7992  1.4087  1.0839
  529MOL0     H72935   1.420   7.665   9.187  1.4650  1.3916 -1.6003
  529MOL0     H72936   1.347   7.596   9.041  3.6749 -3.0938  1.8546
  529MOL0     H72937   1.161   7.728   9.062  0.3174 -0.7113 -0.6283
  529MOL0     H72938   1.196   7.670   9.225 -0.9856 -0.1046 -0.7017
  529MOL0     H72939   1.251   7.891   9.312 -0.6744  0.5634  0.1850
  529MOL0     H72940   1.282   7.941   9.139 -0.1817  0.4452  1.4420
  529MOL0     H72941   1.041   7.944   9.110  0.1567  1.0410  0.2217
  529MOL0     H72942   1.034   7.864   9.265  0.6092 -1.6606  0.0078
  529MOL0     H72943   0.977   8.125   9.242 -1.4120 -1.5740  0.9588
  529MOL0     H72944   1.162   8.118   9.254  0.3887  0.1717  2.7920
  529MOL0     H72945   1.122   8.015   9.496 -1.5111  0.6821  0.6107
  529MOL0     H72946   1.066   8.187   9.467 -2.4767  0.3772  2.7718
  529MOL0     H72947   0.910   8.015   9.601 -0.9632  2.9122  0.6917
  529MOL0     H72948   0.875   7.947   9.440  4.5615 -0.3538 -1.2018
  529MOL0     H72949   0.837   8.212   9.390  3.2649 -3.5352 -1.2273
  529MOL0     H72950   0.709   8.117   9.457  1.0969 -1.1080 -1.3255
  529MOL0     H72951   0.991   8.353   9.598  1.0453 -2.4532 -0.4454
  529MOL0     H72952   1.084   8.376   9.811 -1.6186 -0.0887 -1.7557
  529MOL0     H72953   1.001   8.307   9.950 -1.2956 -0.8586 -0.0596
  529MOL0     H72954   0.886   8.527   9.993 -0.4844 -1.3923  0.0566
  529MOL0     H72955   1.057   8.561   9.956  0.1999 -1.6028  0.9563
  529MOL0     H72956   0.966   8.589   9.716 -0.8358  2.5194 -1.4721
  529MOL0     H72957   0.810   8.582   9.774  0.3048  0.1463 -0.7371
  529MOL0     H72958   1.022   8.783   9.815  0.1827  0.5814  1.4340
  529MOL0     H72959   0.858   8.802   9.756  0.1218 -0.5608 -0.8670
  529MOL0     H72960   0.836   9.043   9.807  1.7649  0.6380 -0.6408
  529MOL0     H72961   0.720   9.361   9.944  1.3253  0.1007  2.4189
  529MOL0     H72962   0.791   9.285   9.794  2.7505 -1.3880 -0.4685
  529MOL0     H72963   0.896   9.337   9.915 -0.6715  0.8638  0.5599
  529MOL0     H72964   1.080   9.498  10.283 -0.5722 -2.1447  2.2297
  529MOL0     H72965   1.091   9.683  10.431 -0.2853  1.1304 -0.3761
  529MOL0     H72966   1.021   9.980  10.314 -0.1592 -0.3434 -0.7632
  529MOL0     H72967   0.846   9.988  10.276  0.9529  0.4025 -1.2715
  529MOL0     H72968   0.818  10.115  10.494 -0.2430  0.1257  0.0617
  529MOL0     H72969   0.991  10.133  10.489 -0.3685  2.6114 -0.5030
  529MOL0     H72970   0.819  10.254  10.255 -2.1148  1.6557  2.6333
  529MOL0     H72971   0.988  10.221  10.247  0.8485 -1.9899 -0.1531
  529MOL0     H72972   1.002  10.332  10.483  2.9585  1.5302 -2.3198
  529MOL0     H72973   0.845  10.402  10.443 -0.4992  0.2588  0.2800
  529MOL0     H72974   1.040  10.551  10.393 -0.2814 -0.5392  0.7749
  529MOL0     H72975   1.116  10.431  10.293  0.4870  1.3178  0.1834
  529MOL0     H72976   0.841  10.544  10.224  0.4934 -0.2620  2.8757
  529MOL0     H72977   0.932  10.416  10.139 -1.3420 -0.9479  2.5618
  529MOL0     H72978   1.106  10.588  10.097 -0.8904  1.9233 -0.4151
  529MOL0     H72979   1.000  10.718  10.169  2.1514  1.0922 -0.2778
  529MOL0     H72980   0.946  10.539   9.919  0.1558  1.0195 -0.0896
  529MOL0     H72981   0.995  10.705   9.913  0.5461  1.1835 -0.5890
  529MOL0     H72982   0.697   9.821  10.328 -1.5717 -1.1127  0.9711
  529MOL0     H72983   0.672   9.600  10.194  0.0300  3.4172 -0.2588
  529MOL0     H72984   0.849   9.057  10.302 -0.5029  1.8217 -0.5332
  529MOL0     H72985   0.864   8.849  10.208  1.9047 -1.6339 -1.9627
  529MOL0     H72986   1.501   7.874   8.787  0.6477 -0.2929 -1.0025
  529MOL0     H72987   1.673   7.800   8.644 -6.3651 -0.7476 -0.7236
  529MOL0     H72988   2.123   7.334   8.793  2.6333 -1.7751  1.2568
  529MOL0     H72989   2.319   7.247   8.653  1.8984  0.0406 -3.4276
  529MOL0     H72990   2.485   7.486   8.507  1.3386  0.2750  1.0356
  529MOL0     H72991   2.547   7.326   8.531  0.1842  1.2478 -0.5427
  529MOL0     H72992   2.688   7.463   8.372  0.3739  0.7256 -1.0213
  529MOL0     H72993   2.545   7.503   8.279 -0.4916 -1.5438 -1.2553
  529MOL0     H72994   2.663   7.219   8.319 -0.8755 -1.2235 -0.1229
  529MOL0     H72995   2.535   7.251   8.205  0.3040  0.4629 -1.2088
  529MOL0     H72996   2.832   7.341   8.233 -0.5061 -1.7505  0.1564
  529MOL0     H72997   2.728   7.418   8.111 -2.3483  0.5498  1.9633
  529MOL0     H72998   2.806   7.030   7.944  1.4061  0.1679 -0.2403
  529MOL0     H72999   2.206   7.490   8.333 -0.0610  2.2442  1.1029
  529MOL0     H73000   1.906   7.606   8.439 -0.6481 -0.5593  2.6639
  529MOL0     H73001   1.990   7.717   8.523 -5.8870 -2.3082  0.9362
  529MOL0     H73002   2.058   7.664   8.359 -2.7027  0.2970 -1.0631
  530MOL0     O73003   2.300   2.042   4.102  0.7905  0.2840  0.8459
  530MOL0     C73004   2.201   1.988   4.150 -0.1278  0.4610 -0.1220
  530MOL0     O73005   2.178   1.859   4.142 -0.3137 -0.1296  0.4789
  530MOL0     C73006   2.216   1.791   4.025 -0.3536 -0.8941 -0.9399
  530MOL0     C73007   2.182   1.831   3.895 -0.2909 -0.5691 -0.2895
  530MOL0     C73008   2.213   1.743   3.783 -1.4413 -0.5850 -0.8351
  530MOL0     C73009   2.298   1.634   3.809 -0.9834  0.6718  0.4338
  530MOL0     O73010   2.337   1.534   3.720 -0.3912  0.8418 -0.5029
  530MOL0     C73011   2.232   1.457   3.661  0.0048 -0.7029 -0.4518
  530MOL0     C73012   2.287   1.321   3.602 -0.0971 -0.9502 -0.9333
  530MOL0     C73013   2.379   1.240   3.696 -0.0509  0.4809  0.2891
  530MOL0     C73014   2.315   1.229   3.838  0.4236  0.5219 -0.3133
  530MOL0     C73015   2.418   1.230   3.947 -0.3222  0.1326  0.2139
  530MOL0     C73016   2.519   1.108   3.949  0.8806 -0.4398 -0.5629
  530MOL0     C73017   2.449   0.975   3.992 -0.4536  0.7411 -0.5193
  530MOL0     C73018   2.546   0.857   3.970 -0.2975  0.7290  0.1233
  530MOL0     N73019   2.492   0.730   4.022 -0.3827  0.6668  0.3991
  530MOL0     C73020   2.492   0.685   4.148 -0.6014  0.6375 -0.0288
  530MOL0     C73021   2.391   0.592   4.153 -0.0397  0.4590 -0.2591
  530MOL0     C73022   2.331   0.513   4.269 -0.3750 -0.1746  1.1440
  530MOL0     C73023   2.278   0.602   4.374 -0.0516 -0.7629  0.5021
  530MOL0     C73024   2.265   0.521   4.500 -0.2287 -0.4490  0.0299
  530MOL0     C73025   2.193   0.603   4.612 -0.6962  0.2712  0.5011
  530MOL0     O73026   2.255   0.728   4.641 -0.1050 -0.0338 -0.7301
  530MOL0     C73027   2.189   0.810   4.731 -0.3578  0.6457 -0.1725
  530MOL0     C73028   2.139   0.772   4.856 -0.6677  0.2947 -0.2723
  530MOL0     C73029   2.073   0.852   4.950 -0.2979 -0.1118  0.3870
  530MOL0     C73030   2.048   0.789   5.079 -0.8053 -0.0822  0.2699
  530MOL0     C73031   2.035   0.983   4.907 -0.0621 -0.0548  0.7427
  530MOL0     C73032   1.928   1.068   4.976 -0.2528 -0.8846 -0.0495
  530MOL0     O73033   1.903   1.182   4.916  0.1341 -0.6076  0.4561
  530MOL0     C73034   1.825   1.269   4.989  0.3062  0.0704 -0.0840
  530MOL0     C73035   1.889   1.383   5.036 -0.4910  1.0464 -0.3986
  530MOL0     C73036   1.810   1.456   5.120 -0.0641  0.2805  0.2581
  530MOL0     C73037   1.668   1.445   5.117  0.4402 -0.6091 -0.4969
  530MOL0     O73038   1.592   1.542   5.181 -0.3896  0.3830  0.0472
  530MOL0     C73039   1.649   1.675   5.196  0.1669  0.2188  0.5804
  530MOL0     C73040   1.656   1.732   5.334 -0.1196 -0.5413 -0.7927
  530MOL0     C73041   1.696   1.876   5.335  0.1497  0.6443  0.3905
  530MOL0     C73042   1.733   1.923   5.478  0.0853 -0.0058  0.1522
  530MOL0     C73043   1.736   2.076   5.483 -0.0602  0.9445  0.4282
  530MOL0     C73044   1.746   2.126   5.625  0.5064  0.3365  0.4675
  530MOL0     C73045   1.737   2.281   5.623 -0.3201  0.2591 -0.3269
  530MOL0     C73046   1.753   2.335   5.770  0.6401 -0.2848 -0.3645
  530MOL0    Cl73047   1.928   2.339   5.808  0.2244 -0.0669  0.0810
  530MOL0     C73048   1.606   1.345   5.054 -0.5212 -0.1954 -1.1640
  530MOL0     C73049   1.687   1.255   4.987  0.0837 -0.5932 -0.6455
  530MOL0     O73050   1.891   1.035   5.086 -0.3035  0.0154 -0.8674
  530MOL0     C73051   2.082   1.031   4.779 -0.6790  0.6328  0.5169
  530MOL0     C73052   2.171   0.946   4.700 -0.4197  0.4458  0.1092
  530MOL0     N73053   2.335   0.580   4.026 -0.1181  0.1900 -0.3604
  530MOL0     N73054   2.390   0.670   3.952  0.6248  0.8771 -0.6147
  530MOL0     C73055   2.346   1.612   3.940  0.8945  0.3991  0.6377
  530MOL0     C73056   2.284   1.682   4.046  0.6276 -0.2458  0.7573
  530MOL0     C73057   2.111   2.077   4.239  0.5733 -0.3670  0.1254
  530MOL0     C73058   2.164   2.194   4.300 -0.4049  0.5413 -0.2405
  530MOL0     C73059   2.085   2.284   4.368 -0.7789 -0.4064 -0.7856
  530MOL0     C73060   1.954   2.267   4.405 -0.3767 -0.8906 -0.3559
  530MOL0     O73061   1.893   2.348   4.488  0.2730 -0.9991 -0.1543
  530MOL0     C73062   1.959   2.454   4.557  0.5127 -0.2160  0.7671
  530MOL0     C73063   1.848   2.536   4.613  0.4403  0.3781 -0.8626
  530MOL0     C73064   1.880   2.669   4.673  0.0937 -0.3405  0.2459
  530MOL0     C73065   1.972   2.647   4.792  0.4686 -0.0790 -0.6359
  530MOL0     C73066   2.115   2.654   4.751  0.0076  0.6495  0.0710
  530MOL0     C73067   2.228   2.681   4.715  0.5700  0.1373 -0.3580
  530MOL0     C73068   1.899   2.151   4.354 -0.7329  1.6293 -0.1072
  530MOL0     C73069   1.973   2.056   4.274  0.1386  0.9976 -0.6913
  530MOL0     C73070   1.891   1.945   4.211  0.1064  0.1066 -0.0976
  530MOL0     H73071   2.131   1.925   3.881  2.4236  0.8785 -1.2448
  530MOL0     H73072   2.178   1.753   3.681 -2.3220  2.3204 -0.3411
  530MOL0     H73073   2.169   1.510   3.589 -0.6547  1.5666  1.6870
  530MOL0     H73074   2.167   1.428   3.743  0.2584 -0.3078 -0.1039
  530MOL0     H73075   2.201   1.261   3.572 -1.2758 -0.3681  1.0732
  530MOL0     H73076   2.348   1.332   3.512 -0.7339  1.7037 -1.1187
  530MOL0     H73077   2.399   1.143   3.649  1.7139  1.0277 -0.1537
  530MOL0     H73078   2.474   1.295   3.702 -1.6891  3.4012  1.6257
  530MOL0     H73079   2.258   1.315   3.875  1.1879  0.9452 -0.0987
  530MOL0     H73080   2.248   1.143   3.849  0.5362  0.4630 -0.0927
  530MOL0     H73081   2.374   1.210   4.045  0.9996 -0.3700  0.7328
  530MOL0     H73082   2.482   1.318   3.938 -2.8343  1.8917 -2.2101
  530MOL0     H73083   2.569   1.097   3.852  2.6306  0.6951  0.1644
  530MOL0     H73084   2.593   1.136   4.025  0.6935 -0.0762 -0.5107
  530MOL0     H73085   2.364   0.952   3.928 -2.4999 -0.7173  2.4569
  530MOL0     H73086   2.420   0.980   4.098  0.7349 -0.0133 -0.1334
  530MOL0     H73087   2.551   0.834   3.864  1.6068 -0.5313  0.4487
  530MOL0     H73088   2.647   0.883   4.003 -0.4839  1.4617  0.1432
  530MOL0     H73089   2.561   0.726   4.221 -2.4660 -0.0978  2.2505
  530MOL0     H73090   2.413   0.453   4.309 -0.5484 -1.1943  0.0295
  530MOL0     H73091   2.249   0.446   4.243 -1.4974  1.0341  1.4428
  530MOL0     H73092   2.348   0.685   4.383 -1.0682  0.5347 -2.4470
  530MOL0     H73093   2.187   0.649   4.334  1.4389  1.0037 -0.9664
  530MOL0     H73094   2.201   0.433   4.488 -0.5780 -0.4943  1.8836
  530MOL0     H73095   2.366   0.493   4.534 -0.6419 -2.4793 -0.2625
  530MOL0     H73096   2.094   0.628   4.572 -0.9507 -0.1942  0.8333
  530MOL0     H73097   2.186   0.548   4.707 -2.4904  0.5333  0.5638
  530MOL0     H73098   2.153   0.670   4.891  1.2111  0.8355  0.7065
  530MOL0     H73099   2.037   0.859   5.163 -1.6912  1.0373 -0.7391
  530MOL0     H73100   2.134   0.729   5.109 -1.4535 -1.4401 -0.4930
  530MOL0     H73101   1.961   0.723   5.071 -1.0949  0.0020  2.2613
  530MOL0     H73102   1.996   1.396   5.043 -0.4792  0.3863  0.9411
  530MOL0     H73103   1.850   1.519   5.199 -0.4580  1.9762 -0.8572
  530MOL0     H73104   1.737   1.686   5.132 -0.5779  0.4509 -0.4363
  530MOL0     H73105   1.578   1.730   5.133 -0.7859  0.8736  2.1591
  530MOL0     H73106   1.558   1.731   5.382 -0.3701 -0.5914 -1.3010
  530MOL0     H73107   1.728   1.669   5.388 -1.9510 -1.3217  0.9040
  530MOL0     H73108   1.609   1.943   5.323  0.0456  0.6850  1.3202
  530MOL0     H73109   1.775   1.889   5.260 -1.4554  0.7935 -1.3603
  530MOL0     H73110   1.822   1.867   5.509  0.8904 -0.2131 -2.2383
  530MOL0     H73111   1.654   1.891   5.545  0.3943 -1.5653 -0.1925
  530MOL0     H73112   1.826   2.108   5.429 -0.4941 -1.4888 -1.9571
  530MOL0     H73113   1.651   2.116   5.427  0.5673  1.1843 -0.3885
  530MOL0     H73114   1.838   2.090   5.673  1.7076 -0.8420 -2.4908
  530MOL0     H73115   1.659   2.078   5.671  0.9034 -1.3478 -0.4436
  530MOL0     H73116   1.638   2.310   5.587  0.6443  1.8772 -1.8478
  530MOL0     H73117   1.810   2.320   5.551  0.9826  0.1316  0.8991
  530MOL0     H73118   1.708   2.264   5.840  1.2250  0.5927  0.9476
  530MOL0     H73119   1.701   2.430   5.784 -1.3317 -1.3810  0.2622
  530MOL0     H73120   1.499   1.334   5.067 -0.3153 -0.0768  0.9459
  530MOL0     H73121   1.641   1.166   4.945  0.3387 -0.2337 -1.7382
  530MOL0     H73122   2.050   1.125   4.736 -0.4503 -0.2744 -1.7662
  530MOL0     H73123   2.218   0.976   4.606  0.1620 -1.8435 -0.4005
  530MOL0     H73124   2.405   1.526   3.968  0.0629  0.6895  3.6901
  530MOL0     H73125   2.303   1.657   4.150 -0.3860 -0.5865  0.8704
  530MOL0     H73126   2.267   2.215   4.274 -0.2276  1.9191  1.3842
  530MOL0     H73127   2.145   2.372   4.389  0.2506 -1.0053 -1.1572
  530MOL0     H73128   2.008   2.412   4.645  1.7782  0.5548  0.4711
  530MOL0     H73129   2.026   2.504   4.486  0.6501 -0.6229  0.6090
  530MOL0     H73130   1.793   2.474   4.683  2.7558 -0.0595  0.6736
  530MOL0     H73131   1.785   2.568   4.529 -1.3187  1.2670  0.7175
  530MOL0     H73132   1.930   2.734   4.601 -3.1569  1.7470 -0.3486
  530MOL0     H73133   1.784   2.715   4.701 -0.3593 -1.2257  0.1910
  530MOL0     H73134   1.941   2.555   4.842  1.2249  1.6505  3.4064
  530MOL0     H73135   1.956   2.738   4.851  1.5441  0.8900 -1.7851
  530MOL0     H73136   2.325   2.700   4.675  0.3595  2.2432  0.0033
  530MOL0     H73137   1.794   2.124   4.369  0.0270 -0.0555  3.0908
  530MOL0     H73138   1.783   1.963   4.221 -0.2629 -1.6063 -0.6920
  530MOL0     H73139   1.920   1.947   4.106  3.0173  1.6996  0.6284
  530MOL0     H73140   1.895   1.844   4.252 -1.2350 -0.1970 -0.6406
  531MOL0     O73141   7.080   6.958   8.172 -0.4223  0.1163 -0.8368
  531MOL0     C73142   6.960   6.931   8.183 -0.2830  0.4029  0.2683
  531MOL0     O73143   6.906   6.856   8.283  0.6767 -0.3738 -0.4521
  531MOL0     C73144   6.994   6.790   8.364  0.7496 -0.5269  0.7457
  531MOL0     C73145   7.046   6.665   8.314  0.2564 -0.6280  0.1647
  531MOL0     C73146   7.123   6.580   8.398 -0.0230  1.2177 -0.0727
  531MOL0     C73147   7.131   6.608   8.529  0.0666 -0.4185 -0.4630
  531MOL0     O73148   7.200   6.525   8.620 -0.5264 -0.7158  0.6665
  531MOL0     C73149   7.314   6.446   8.564 -0.0392  0.7875  0.0691
  531MOL0     C73150   7.419   6.406   8.668 -0.6867  0.4977 -0.1179
  531MOL0     C73151   7.499   6.525   8.725 -0.1472  0.2133 -0.0834
  531MOL0     C73152   7.622   6.457   8.792 -0.2774 -0.9379  0.0789
  531MOL0     C73153   7.719   6.549   8.869 -0.5388  0.3126  0.0149
  531MOL0     C73154   7.804   6.633   8.781 -1.0847 -0.4843  0.2030
  531MOL0     C73155   7.938   6.677   8.857 -0.5994 -0.5044 -0.2368
  531MOL0     C73156   8.055   6.710   8.759  0.6055 -0.0719 -0.4642
  531MOL0     N73157   8.019   6.766   8.627  0.0534 -0.3956 -0.4438
  531MOL0     C73158   8.023   6.894   8.601 -0.5354  0.4749  1.0157
  531MOL0     C73159   7.983   6.911   8.479  1.2977  0.5582 -0.7728
  531MOL0     C73160   7.948   7.039   8.408  0.1332  1.0514  0.4677
  531MOL0     C73161   8.069   7.109   8.351 -0.2464 -0.1108  1.1653
  531MOL0     C73162   8.172   7.160   8.455 -0.2226 -0.6813 -0.1990
  531MOL0     C73163   8.116   7.272   8.538 -0.1303  0.5882 -0.0234
  531MOL0     O73164   8.091   7.384   8.458 -0.0581 -0.3202  0.3062
  531MOL0     C73165   8.170   7.498   8.461 -0.3084  0.2894  0.8846
  531MOL0     C73166   8.141   7.602   8.368  0.0908 -1.3594  1.0530
  531MOL0     C73167   8.210   7.721   8.355 -0.3624  0.3144  0.8441
  531MOL0     C73168   8.160   7.826   8.263 -0.4549 -0.4628 -0.1390
  531MOL0     C73169   8.343   7.729   8.415  0.3875  0.3531  1.5581
  531MOL0     C73170   8.438   7.849   8.415  0.2846  0.8935 -0.1545
  531MOL0     O73171   8.519   7.863   8.526  0.0126  0.0370  0.4898
  531MOL0     C73172   8.617   7.967   8.527 -0.1710  0.1922 -0.7458
  531MOL0     C73173   8.685   7.987   8.651 -0.6127  0.3003  0.3759
  531MOL0     C73174   8.799   8.071   8.658 -0.3132 -0.4872 -0.0930
  531MOL0     C73175   8.847   8.126   8.551 -0.6891  0.2677 -0.5281
  531MOL0     O73176   8.966   8.188   8.563  0.0513 -0.7517  0.2305
  531MOL0     C73177   9.067   8.144   8.475  0.2419 -0.6669  0.6702
  531MOL0     C73178   9.089   8.269   8.384  0.8054  0.1475  1.0783
  531MOL0     C73179   9.183   8.225   8.267  0.4912 -0.1431 -0.1716
  531MOL0     C73180   9.168   8.322   8.150  0.5346 -0.2171 -1.1537
  531MOL0     C73181   9.268   8.292   8.041  0.0448 -0.0206  0.4966
  531MOL0     C73182   9.203   8.179   7.964 -0.3272  0.0255 -0.0370
  531MOL0     C73183   9.280   8.153   7.831  0.1968 -0.0303  0.5257
  531MOL0     C73184   9.191   8.088   7.728  0.1986  0.1129  0.5018
  531MOL0    Cl73185   9.291   8.054   7.581 -0.0894  0.2125  0.0952
  531MOL0     C73186   8.789   8.108   8.427 -0.8240  0.1628 -0.1130
  531MOL0     C73187   8.668   8.029   8.413  0.0701  0.7854 -0.5981
  531MOL0     O73188   8.420   7.933   8.327  0.4947  0.2131 -1.2524
  531MOL0     C73189   8.377   7.619   8.499 -0.9932 -0.7468  0.3105
  531MOL0     C73190   8.290   7.514   8.525  0.0016 -0.3570  0.5201
  531MOL0     N73191   7.954   6.788   8.423 -0.1413  0.3311  0.3192
  531MOL0     N73192   7.978   6.695   8.513 -0.1724  0.1086  0.0536
  531MOL0     C73193   7.068   6.717   8.581 -0.5772  0.2039  0.0138
  531MOL0     C73194   7.002   6.815   8.501 -0.3643  0.4568  0.7010
  531MOL0     C73195   6.867   6.971   8.075  0.6721 -0.1298 -0.1729
  531MOL0     C73196   6.735   6.986   8.119 -0.6442  1.1319 -0.1869
  531MOL0     C73197   6.638   7.026   8.034 -0.7265 -1.0167  0.2981
  531MOL0     C73198   6.665   7.055   7.904 -0.1131 -0.1366  0.1750
  531MOL0     O73199   6.563   7.111   7.832 -0.7889 -0.3860 -0.3289
  531MOL0     C73200   6.588   7.135   7.690  0.6824  0.9760  0.4522
  531MOL0     C73201   6.466   7.205   7.625 -0.1052  1.0432 -0.0928
  531MOL0     C73202   6.502   7.278   7.499 -0.6338 -0.4714  0.7470
  531MOL0     C73203   6.541   7.187   7.381  0.5132  0.0824 -0.2374
  531MOL0     C73204   6.585   7.262   7.266  0.0093  0.0685 -1.3479
  531MOL0     C73205   6.606   7.307   7.156  0.3597 -0.1480  0.3130
  531MOL0     C73206   6.787   7.025   7.855 -1.0908  0.1387  0.5790
  531MOL0     C73207   6.897   6.995   7.940 -0.5167 -0.2433  1.0071
  531MOL0     C73208   7.027   6.972   7.866 -0.9415 -0.6626  0.2892
  531MOL0     H73209   7.012   6.629   8.217 -2.7017 -1.5244  1.4264
  531MOL0     H73210   7.163   6.498   8.340 -5.2279 -1.3940 -0.5133
  531MOL0     H73211   7.375   6.510   8.501 -0.0016 -0.8445 -1.6405
  531MOL0     H73212   7.273   6.360   8.510  0.4758  0.2769  0.4701
  531MOL0     H73213   7.359   6.362   8.748 -1.0149  2.7040  0.9253
  531MOL0     H73214   7.485   6.333   8.620 -0.4933  0.6543 -0.0908
  531MOL0     H73215   7.541   6.581   8.641  0.5969  2.0500  1.4462
  531MOL0     H73216   7.459   6.594   8.800  0.9611  1.7843 -0.8636
  531MOL0     H73217   7.582   6.387   8.865  2.9662 -0.2193  2.7931
  531MOL0     H73218   7.671   6.412   8.706 -0.0138 -1.9058  0.7295
  531MOL0     H73219   7.767   6.469   8.926 -0.4721 -0.9729 -1.7459
  531MOL0     H73220   7.652   6.606   8.934  0.3251  1.5846 -0.1951
  531MOL0     H73221   7.831   6.580   8.689 -1.0606 -2.2515  1.1886
  531MOL0     H73222   7.740   6.713   8.743 -1.6159 -1.1709 -0.3746
  531MOL0     H73223   7.974   6.597   8.922 -0.2042 -1.3642 -1.4693
  531MOL0     H73224   7.915   6.762   8.921  0.2789 -0.4541  0.0248
  531MOL0     H73225   8.135   6.765   8.810  0.8017 -1.0960  0.3717
  531MOL0     H73226   8.102   6.617   8.726 -0.1277 -0.8824  0.7268
  531MOL0     H73227   8.047   6.982   8.661 -0.6275  0.4828  1.0404
  531MOL0     H73228   7.880   7.098   8.470 -2.8839  0.3612 -1.9783
  531MOL0     H73229   7.889   7.012   8.321  0.1055  0.8168  0.5564
  531MOL0     H73230   8.121   7.034   8.290 -0.7422  1.2483 -1.0365
  531MOL0     H73231   8.036   7.193   8.289  0.8878 -0.4018  0.1223
  531MOL0     H73232   8.197   7.071   8.514 -1.9475 -1.0670 -0.0146
  531MOL0     H73233   8.262   7.204   8.411 -0.4169 -1.1536 -1.0851
  531MOL0     H73234   8.030   7.238   8.595  0.2851 -0.3706  0.0558
  531MOL0     H73235   8.190   7.290   8.616  0.0479 -4.0418  1.0955
  531MOL0     H73236   8.048   7.596   8.311  0.3328  1.7226  0.1895
  531MOL0     H73237   8.239   7.848   8.191 -0.4902 -1.8137 -0.6192
  531MOL0     H73238   8.138   7.918   8.319 -0.3352  0.5412 -1.6671
  531MOL0     H73239   8.068   7.806   8.207 -0.6799  0.0461  0.0387
  531MOL0     H73240   8.642   7.946   8.742  0.2210 -0.6290  0.3614
  531MOL0     H73241   8.835   8.097   8.757 -0.0399 -0.6568 -0.1475
  531MOL0     H73242   9.161   8.119   8.524 -0.2273 -3.3122  0.3801
  531MOL0     H73243   9.033   8.055   8.421  0.6916 -1.6428  1.9753
  531MOL0     H73244   8.995   8.304   8.340  1.5716  0.2211 -0.5557
  531MOL0     H73245   9.127   8.359   8.433  1.1274  1.2062 -1.0228
  531MOL0     H73246   9.154   8.122   8.242 -0.5187 -0.2793  1.4274
  531MOL0     H73247   9.285   8.229   8.307  0.3992 -1.2454  0.2276
  531MOL0     H73248   9.183   8.426   8.181  0.2325  0.4339 -3.0947
  531MOL0     H73249   9.064   8.313   8.116  0.1559 -0.7935  0.0722
  531MOL0     H73250   9.280   8.374   7.970 -0.1773  1.4592  2.1165
  531MOL0     H73251   9.368   8.266   8.077 -0.0532 -1.4516 -0.2002
  531MOL0     H73252   9.101   8.206   7.937  0.6547  1.3788 -2.6979
  531MOL0     H73253   9.205   8.090   8.028  1.4829  0.2240  0.2675
  531MOL0     H73254   9.368   8.090   7.843 -0.1398 -1.3164 -2.7024
  531MOL0     H73255   9.315   8.248   7.791 -0.7332  1.2440  2.5614
  531MOL0     H73256   9.114   8.159   7.698  0.5093  0.8178  1.3612
  531MOL0     H73257   9.152   7.991   7.759  0.4666 -0.4100 -0.7036
  531MOL0     H73258   8.829   8.151   8.336 -1.4577  2.0698  0.4360
  531MOL0     H73259   8.636   8.002   8.313 -0.9500  0.0368 -0.0965
  531MOL0     H73260   8.477   7.628   8.541 -0.8053  0.9125 -0.4032
  531MOL0     H73261   8.324   7.440   8.596  0.6956 -1.2782 -0.7254
  531MOL0     H73262   7.063   6.731   8.689  0.7756  2.4541 -0.1427
  531MOL0     H73263   6.947   6.904   8.530  0.7911  1.4523 -0.1266
  531MOL0     H73264   6.703   6.952   8.217  1.4580 -4.5419 -1.1009
  531MOL0     H73265   6.537   7.037   8.073 -0.9879 -2.9160  0.2613
  531MOL0     H73266   6.685   7.184   7.683  1.1132  0.2456  1.0785
  531MOL0     H73267   6.590   7.035   7.646 -3.0241  0.4683  1.0397
  531MOL0     H73268   6.419   7.284   7.684  0.6218 -1.3930  4.1401
  531MOL0     H73269   6.391   7.128   7.606  2.4368 -1.6465 -0.0607
  531MOL0     H73270   6.418   7.336   7.459  1.3196  0.3122 -2.7097
  531MOL0     H73271   6.586   7.343   7.524 -0.2066 -1.0122  0.7319
  531MOL0     H73272   6.454   7.129   7.348  0.4188  0.9038 -1.4663
  531MOL0     H73273   6.612   7.112   7.418 -2.2215 -3.3961 -1.4871
  531MOL0     H73274   6.611   7.373   7.072  1.7359 -0.3498  0.2193
  531MOL0     H73275   6.811   7.042   7.750 -0.6334  3.0996  1.0693
  531MOL0     H73276   7.096   7.051   7.895  3.0887 -3.8717  0.2869
  531MOL0     H73277   7.085   6.886   7.901  0.5607  0.3734  0.4359
  531MOL0     H73278   7.020   6.981   7.757 -2.2323  0.8839  0.4608
  532MOL0     O73279   9.589   0.956  10.706 -0.4898 -0.0207  0.0382
  532MOL0     C73280   9.626   0.916  10.595 -0.4191  0.2824 -0.1530
  532MOL0     O73281   9.552   0.914  10.482 -0.2030  0.8704  0.7114
  532MOL0     C73282   9.435   0.989  10.486  0.2417  0.4171  0.0545
  532MOL0     C73283   9.317   0.926  10.516  0.0529  0.2329 -0.6930
  532MOL0     C73284   9.207   1.000  10.540  0.2166  0.4835 -0.0956
  532MOL0     C73285   9.193   1.138  10.523 -0.3417  0.1861 -0.1955
  532MOL0     O73286   9.082   1.206  10.570 -0.0266  0.1869  0.5338
  532MOL0     C73287   9.090   1.352  10.543 -0.0847  0.3735  0.6720
  532MOL0     C73288   8.961   1.402  10.612 -0.2364 -0.5664  0.0429
  532MOL0     C73289   8.825   1.364  10.532  0.1643  1.1752  0.6930
  532MOL0     C73290   8.707   1.372  10.628  0.2884 -0.5364 -1.2761
  532MOL0     C73291   8.585   1.431  10.571  0.3635 -0.6871 -0.6762
  532MOL0     C73292   8.468   1.394  10.663  1.1539  0.2528  1.0288
  532MOL0     C73293   8.323   1.427  10.620 -0.3615 -0.7019  0.0229
  532MOL0     C73294   8.283   1.575  10.651 -0.6241  0.1577 -0.0027
  532MOL0     N73295   8.148   1.595  10.592  0.9121  0.2913 -0.1866
  532MOL0     C73296   8.034   1.620  10.670 -1.4483  0.1385  0.1877
  532MOL0     C73297   7.945   1.652  10.573 -0.0498  0.5063 -0.3250
  532MOL0     C73298   7.797   1.703  10.591 -0.2362 -0.4906  0.1263
  532MOL0     C73299   7.763   1.794  10.475  0.4068  0.9125 -0.4877
  532MOL0     C73300   7.648   1.892  10.501  0.8266 -0.3682 -0.6358
  532MOL0     C73301   7.519   1.816  10.533 -0.6338 -0.5389  0.1981
  532MOL0     O73302   7.496   1.743  10.406  0.4322 -0.4340 -1.0784
  532MOL0     C73303   7.388   1.658  10.407 -0.4772  0.0512 -0.9141
  532MOL0     C73304   7.369   1.595  10.285 -0.2518  0.3543  0.2855
  532MOL0     C73305   7.255   1.515  10.261  1.0572 -0.5281 -0.4268
  532MOL0     C73306   7.222   1.481  10.116 -0.1950  0.6895  0.4725
  532MOL0     C73307   7.174   1.475  10.372 -0.1610 -0.6012 -0.5861
  532MOL0     C73308   7.059   1.376  10.369 -0.6368  0.3603  0.1279
  532MOL0     O73309   7.053   1.280  10.270  0.0437  0.1556  0.0375
  532MOL0     C73310   6.984   1.162  10.282 -0.2537 -0.3113 -0.2844
  532MOL0     C73311   6.900   1.117  10.379 -0.4703  0.0472 -0.2560
  532MOL0     C73312   6.846   0.986  10.382 -0.6850  0.4060  0.5834
  532MOL0     C73313   6.867   0.895  10.272  0.7159 -0.5961 -0.8034
  532MOL0     O73314   6.823   0.767  10.255  0.2566  0.0215  0.1606
  532MOL0     C73315   6.751   0.714  10.367  0.6836 -0.1790 -0.4516
  532MOL0     C73316   6.742   0.564  10.352  0.0940 -0.0900 -0.3637
  532MOL0     C73317   6.875   0.479  10.350  0.4835 -1.2483  0.2559
  532MOL0     C73318   6.947   0.470  10.480  0.0269  0.4204  0.4891
  532MOL0     C73319   7.094   0.413  10.475 -0.4964  0.3492  0.3481
  532MOL0     C73320   7.148   0.389  10.614  0.4401  0.3215  0.2175
  532MOL0     C73321   7.099   0.267  10.685  0.7291 -0.7610  0.2597
  532MOL0     C73322   7.192   0.239  10.810 -0.4042 -0.4464 -0.4940
  532MOL0    Cl73323   7.240   0.379  10.915 -0.0631 -0.2467 -0.1628
  532MOL0     C73324   6.953   0.941  10.172  0.6201 -0.3857 -0.6043
  532MOL0     C73325   7.007   1.067  10.175 -0.2453 -0.0838 -0.3434
  532MOL0     O73326   6.963   1.408  10.439  0.9899  0.0248  0.4131
  532MOL0     C73327   7.199   1.540  10.490  0.0196  0.5706  0.1988
  532MOL0     C73328   7.296   1.635  10.506  0.9357 -0.3032 -0.0134
  532MOL0     N73329   7.991   1.654  10.446  0.9030  0.8059  0.2539
  532MOL0     N73330   8.116   1.612  10.457  0.1362 -0.0474 -0.0406
  532MOL0     C73331   9.314   1.205  10.477  1.3480  0.3272  1.3356
  532MOL0     C73332   9.429   1.133  10.465 -0.1702  0.0525 -0.0313
  532MOL0     C73333   9.765   0.851  10.598  0.5517 -0.4563 -0.4976
  532MOL0     C73334   9.771   0.719  10.552 -0.0103 -1.1151 -1.4457
  532MOL0     C73335   9.890   0.651  10.580 -0.1371 -0.1010  0.1600
  532MOL0     C73336  10.005   0.707  10.640  0.5949  0.1302  0.2239
  532MOL0     O73337  10.128   0.636  10.638  0.1427 -0.2510  0.4280
  532MOL0     C73338  10.217   0.654  10.748  0.8258  0.5699 -0.5896
  532MOL0     C73339  10.158   0.583  10.873 -0.0099 -0.4237 -0.5213
  532MOL0     C73340  10.273   0.583  10.968  0.5417  1.2628  0.0981
  532MOL0     C73341  10.238   0.525  11.107  0.2967  0.3531  0.6978
  532MOL0     C73342  10.341   0.445  11.169 -0.1158  0.8702 -0.2464
  532MOL0     C73343  10.424   0.380  11.226 -0.4785 -0.4890 -0.0450
  532MOL0     C73344   9.989   0.839  10.684  0.0014  0.1203 -0.5627
  532MOL0     C73345   9.866   0.909  10.668  0.4057  0.4181 -1.1359
  532MOL0     C73346   9.858   1.051  10.704 -0.3414 -0.4679 -0.2411
  532MOL0     H73347   9.312   0.818  10.529  1.4168  0.1927 -0.2964
  532MOL0     H73348   9.117   0.952  10.577 -0.8015  3.5392  1.8214
  532MOL0     H73349   9.091   1.366  10.434 -1.8114 -0.1430  0.5534
  532MOL0     H73350   9.173   1.401  10.593  0.1054 -1.3532  2.1280
  532MOL0     H73351   8.951   1.353  10.710 -2.6695  1.7348  1.0785
  532MOL0     H73352   8.956   1.510  10.629 -0.4374 -0.7969  1.6301
  532MOL0     H73353   8.804   1.429  10.447 -2.1941  1.3890  1.3753
  532MOL0     H73354   8.812   1.261  10.496 -2.9172  2.0543 -1.1300
  532MOL0     H73355   8.675   1.271  10.653  0.1957 -0.1665  0.1398
  532MOL0     H73356   8.734   1.420  10.723 -0.0424 -0.1464 -1.3733
  532MOL0     H73357   8.570   1.392  10.470 -1.3702  0.5579 -0.9362
  532MOL0     H73358   8.598   1.539  10.569 -1.7552 -0.3011  1.3616
  532MOL0     H73359   8.467   1.286  10.681  1.0803  0.1717  0.5264
  532MOL0     H73360   8.494   1.440  10.759  2.3782  0.6310  0.5381
  532MOL0     H73361   8.253   1.361  10.673 -0.2099 -1.9158 -1.2359
  532MOL0     H73362   8.309   1.398  10.516  1.0396 -3.2970  0.4535
  532MOL0     H73363   8.288   1.605  10.756  0.3980  2.5176 -0.6459
  532MOL0     H73364   8.342   1.644  10.590 -1.8604  0.7788 -0.5258
  532MOL0     H73365   8.019   1.597  10.775 -2.1371 -0.3298 -0.0066
  532MOL0     H73366   7.799   1.751  10.690  1.6465  1.5685 -0.8361
  532MOL0     H73367   7.723   1.622  10.597 -1.6444  0.8393  2.0835
  532MOL0     H73368   7.841   1.864  10.443 -1.7456  2.7128 -2.1368
  532MOL0     H73369   7.743   1.726  10.391 -3.5343  0.4041  0.6400
  532MOL0     H73370   7.666   1.963  10.581 -4.5459  0.4210  0.2809
  532MOL0     H73371   7.638   1.960  10.415  0.2339  1.5870  0.9065
  532MOL0     H73372   7.526   1.742  10.614 -1.1837 -2.6077 -1.5502
  532MOL0     H73373   7.440   1.886  10.563  2.2694  3.3246 -0.5063
  532MOL0     H73374   7.418   1.628  10.194 -1.5569  1.1014 -0.1718
  532MOL0     H73375   7.277   1.544  10.045 -0.1617  1.4314  1.1406
  532MOL0     H73376   7.117   1.479  10.088 -0.3316  1.6765  0.8720
  532MOL0     H73377   7.270   1.385  10.094  1.3670  1.5107  0.1522
  532MOL0     H73378   6.872   1.190  10.454 -3.0272  0.0121 -1.0541
  532MOL0     H73379   6.784   0.960  10.467 -1.5117 -0.1047 -0.1560
  532MOL0     H73380   6.811   0.742  10.455 -0.1933 -0.9796  0.4288
  532MOL0     H73381   6.654   0.756  10.391  2.2102  1.6822  3.3811
  532MOL0     H73382   6.683   0.537  10.440 -0.6844  3.5694  0.3904
  532MOL0     H73383   6.684   0.535  10.264  2.9282 -3.0369 -1.4783
  532MOL0     H73384   6.938   0.501  10.263  0.5942 -0.1281  0.6003
  532MOL0     H73385   6.833   0.379  10.333  0.9061 -1.1237 -1.8236
  532MOL0     H73386   6.883   0.422  10.554  1.9183 -1.6591  0.8774
  532MOL0     H73387   6.968   0.571  10.517 -0.6947  1.4759 -1.7914
  532MOL0     H73388   7.094   0.317  10.424 -0.9707  1.0757 -1.0541
  532MOL0     H73389   7.155   0.484  10.419 -1.6216  3.6607  2.9255
  532MOL0     H73390   7.129   0.472  10.682  0.7023  0.2053  0.4375
  532MOL0     H73391   7.256   0.367  10.612  0.1246 -1.7424  1.8951
  532MOL0     H73392   7.087   0.173  10.631 -0.4869 -1.3958  1.5346
  532MOL0     H73393   6.999   0.284  10.726  0.0456 -1.4109 -1.1072
  532MOL0     H73394   7.286   0.204  10.767  0.8747  3.1865 -0.9956
  532MOL0     H73395   7.146   0.172  10.883 -0.4595  0.2647  0.1393
  532MOL0     H73396   6.975   0.871  10.092 -0.9512 -0.8512 -0.6523
  532MOL0     H73397   7.055   1.106  10.086  0.3711 -1.4574 -0.6294
  532MOL0     H73398   7.130   1.528  10.572 -1.6341  0.5121 -1.1526
  532MOL0     H73399   7.308   1.670  10.608 -2.7724 -0.2297  0.5619
  532MOL0     H73400   9.303   1.311  10.458 -3.0925  0.5277  3.7546
  532MOL0     H73401   9.519   1.185  10.432 -0.7670  2.4658  1.8233
  532MOL0     H73402   9.689   0.673  10.496  0.4426  0.3266 -3.4178
  532MOL0     H73403   9.904   0.552  10.539  3.2406 -0.3539  1.6146
  532MOL0     H73404  10.317   0.617  10.723 -0.1501 -1.8154 -1.2866
  532MOL0     H73405  10.218   0.762  10.763  0.5086  0.4365  0.4757
  532MOL0     H73406  10.118   0.484  10.850  0.1788 -0.2854 -1.5018
  532MOL0     H73407  10.079   0.641  10.922  1.4933 -0.5390  2.2167
  532MOL0     H73408  10.356   0.524  10.929  0.5515  0.5740  1.1253
  532MOL0     H73409  10.299   0.688  10.983  0.2545  1.1289  1.8039
  532MOL0     H73410  10.139   0.479  11.101  0.7804 -0.5436 -0.9807
  532MOL0     H73411  10.223   0.614  11.169 -3.9114  0.7505 -0.5466
  532MOL0     H73412  10.504   0.320  11.264  0.6540 -2.3168 -4.6014
  532MOL0     H73413  10.080   0.898  10.693 -0.0043  0.0480  0.0212
  532MOL0     H73414   9.777   1.063  10.777 -1.7391  0.3727 -1.8726
  532MOL0     H73415   9.954   1.095  10.734 -0.3405  0.0900 -1.0274
  532MOL0     H73416   9.810   1.100  10.620 -1.0729 -3.0276 -1.4039
  533MOL0     O73417   2.124   7.442   7.044  0.2966  0.9550  0.1031
  533MOL0     C73418   2.169   7.555   7.026 -0.2546 -0.2026 -0.2572
  533MOL0     O73419   2.245   7.598   6.928 -0.4070 -1.2382  0.2748
  533MOL0     C73420   2.266   7.511   6.822 -0.8924 -0.5549 -0.7976
  533MOL0     C73421   2.372   7.421   6.817  0.3772  0.2059 -0.6339
  533MOL0     C73422   2.382   7.347   6.703 -0.1269 -0.6075  0.9382
  533MOL0     C73423   2.300   7.357   6.587 -0.1466 -0.0361  0.1811
  533MOL0     O73424   2.297   7.267   6.487 -0.4316 -0.2279  1.0837
  533MOL0     C73425   2.383   7.152   6.494  0.7864 -0.3638  0.5218
  533MOL0     C73426   2.360   7.060   6.368 -1.0193  0.0373  0.3260
  533MOL0     C73427   2.224   6.999   6.350 -0.0401 -0.7724  0.1542
  533MOL0     C73428   2.229   6.849   6.321 -0.0744  0.1972 -0.3948
  533MOL0     C73429   2.244   6.773   6.458  0.7857 -0.7144  0.1886
  533MOL0     C73430   2.232   6.626   6.430 -0.2550 -0.0270  0.1973
  533MOL0     C73431   2.231   6.558   6.562 -0.0123 -0.4598 -0.8129
  533MOL0     C73432   2.171   6.411   6.554 -0.9227 -0.0749  0.2487
  533MOL0     N73433   2.260   6.308   6.512 -0.4887 -0.4726  0.6447
  533MOL0     C73434   2.369   6.261   6.581 -0.8317  0.5472  0.6673
  533MOL0     C73435   2.412   6.146   6.513  0.7012 -0.9490 -0.1631
  533MOL0     C73436   2.519   6.068   6.562 -0.4837  0.5701 -0.2194
  533MOL0     C73437   2.649   6.110   6.486  0.2282  0.1265 -1.3759
  533MOL0     C73438   2.743   5.987   6.481  0.4593 -0.8686  0.1934
  533MOL0     C73439   2.862   6.004   6.391  0.0003 -0.7843 -0.3401
  533MOL0     O73440   2.950   6.097   6.449  0.0062  0.1082 -0.1150
  533MOL0     C73441   3.015   6.169   6.353 -0.2152  0.1403 -0.3085
  533MOL0     C73442   3.050   6.127   6.227 -0.4485 -0.5679  0.2291
  533MOL0     C73443   3.096   6.219   6.127 -0.7176  0.3651  0.0657
  533MOL0     C73444   3.162   6.166   5.996 -0.1128 -0.6770 -0.4776
  533MOL0     C73445   3.100   6.355   6.152  0.5306  0.4004 -0.7310
  533MOL0     C73446   3.155   6.462   6.064 -0.4384  0.2663 -0.6692
  533MOL0     O73447   3.180   6.579   6.128  1.0779  0.4411 -0.3366
  533MOL0     C73448   3.237   6.676   6.047  0.1614  1.5682 -0.4274
  533MOL0     C73449   3.162   6.743   5.949 -0.2574  0.7224  0.0906
  533MOL0     C73450   3.217   6.839   5.869  0.3541 -0.1354  0.1930
  533MOL0     C73451   3.357   6.861   5.881 -0.7271 -0.2920  0.4689
  533MOL0     O73452   3.421   6.949   5.793  0.7879  0.2484  0.6056
  533MOL0     C73453   3.359   7.076   5.759 -0.2210  0.0203  0.5087
  533MOL0     C73454   3.427   7.134   5.633 -0.9739  0.4661 -0.7041
  533MOL0     C73455   3.578   7.147   5.633  0.4229  0.3598 -0.0770
  533MOL0     C73456   3.624   7.153   5.488  0.7627 -0.0101  0.3458
  533MOL0     C73457   3.566   7.279   5.411 -0.5351 -0.2386  0.7838
  533MOL0     C73458   3.666   7.335   5.316  0.0408  0.1108 -0.5141
  533MOL0     C73459   3.591   7.443   5.227 -0.5074 -0.1417  0.0790
  533MOL0     C73460   3.677   7.501   5.119 -0.4352 -0.1717 -0.9804
  533MOL0    Cl73461   3.591   7.623   5.037  0.0116 -0.1710 -0.1486
  533MOL0     C73462   3.436   6.789   5.974 -0.1741 -0.3520  1.2170
  533MOL0     C73463   3.373   6.698   6.053 -0.1549 -0.7436 -0.8711
  533MOL0     O73464   3.160   6.437   5.942  0.2023  0.1593  0.7234
  533MOL0     C73465   3.069   6.391   6.283  0.3074  0.9270 -0.4897
  533MOL0     C73466   3.035   6.301   6.384 -0.3064  0.1788  0.2325
  533MOL0     N73467   2.333   6.138   6.398  0.0651 -0.7273  0.4290
  533MOL0     N73468   2.244   6.229   6.401  0.2821 -1.2486  0.1646
  533MOL0     C73469   2.196   7.451   6.594  1.0039 -1.3255  0.3507
  533MOL0     C73470   2.178   7.521   6.713  0.1389 -1.1854 -1.0128
  533MOL0     C73471   2.134   7.650   7.140 -0.6574  0.0244  0.0885
  533MOL0     C73472   2.186   7.780   7.129  1.4339 -0.3878 -0.5540
  533MOL0     C73473   2.161   7.880   7.224  0.0130  0.3649 -0.5428
  533MOL0     C73474   2.079   7.849   7.333  0.0838 -0.1252 -0.4549
  533MOL0     O73475   2.041   7.960   7.409 -0.1122 -0.1430  0.6970
  533MOL0     C73476   1.956   7.942   7.523  0.6596 -0.1922 -0.7431
  533MOL0     C73477   2.038   7.896   7.642 -0.1418 -1.0894  0.0078
  533MOL0     C73478   2.121   8.023   7.680  0.6934  0.9166 -0.1774
  533MOL0     C73479   2.227   7.988   7.786  0.8421  1.5019  0.5645
  533MOL0     C73480   2.322   8.098   7.790 -0.0565 -0.3164 -0.3126
  533MOL0     C73481   2.405   8.189   7.786  0.1652 -0.6866  0.7328
  533MOL0     C73482   2.030   7.714   7.351 -0.0122 -0.2868  0.0401
  533MOL0     C73483   2.059   7.612   7.260  0.9874  0.5619 -0.6638
  533MOL0     C73484   1.988   7.487   7.287  0.6994  0.5984  0.5988
  533MOL0     H73485   2.439   7.403   6.900 -0.6366  3.0244  0.9320
  533MOL0     H73486   2.458   7.271   6.719  3.3071  2.7308  1.9944
  533MOL0     H73487   2.364   7.097   6.587 -3.2191  0.6766  0.5090
  533MOL0     H73488   2.488   7.177   6.482  1.5783 -4.1982 -3.6664
  533MOL0     H73489   2.389   7.106   6.273 -2.8360 -2.8480 -1.7942
  533MOL0     H73490   2.433   6.979   6.381  1.1274  1.5690 -1.3495
  533MOL0     H73491   2.160   7.008   6.439  2.6950  2.2116  2.0658
  533MOL0     H73492   2.176   7.052   6.267 -2.5377 -4.5207 -1.0407
  533MOL0     H73493   2.139   6.818   6.268  0.6768 -0.9147 -1.0588
  533MOL0     H73494   2.310   6.820   6.253  0.9519 -0.7182  1.1339
  533MOL0     H73495   2.165   6.806   6.526 -0.3751 -2.3694 -0.2782
  533MOL0     H73496   2.339   6.794   6.508  0.3524 -0.2790  0.8436
  533MOL0     H73497   2.133   6.611   6.385  0.3879 -0.3263 -1.1836
  533MOL0     H73498   2.313   6.587   6.367  1.2387  3.2373 -0.1422
  533MOL0     H73499   2.175   6.609   6.641  2.4820 -0.5722  1.1811
  533MOL0     H73500   2.334   6.536   6.592 -0.9629 -1.5704  2.0906
  533MOL0     H73501   2.131   6.385   6.652 -0.5723 -0.6198  0.2493
  533MOL0     H73502   2.093   6.409   6.478 -0.9076 -0.2264  0.2371
  533MOL0     H73503   2.396   6.287   6.682  0.2631 -0.6501  0.7197
  533MOL0     H73504   2.505   5.961   6.545  2.0590  0.1624 -0.2035
  533MOL0     H73505   2.524   6.084   6.670 -0.9990 -0.5491 -0.0150
  533MOL0     H73506   2.632   6.125   6.379  1.6445  3.2745 -1.2758
  533MOL0     H73507   2.713   6.193   6.515 -0.9667  0.3348  0.8626
  533MOL0     H73508   2.785   5.958   6.578  2.2659  2.5162  0.5595
  533MOL0     H73509   2.690   5.896   6.450  1.9700 -1.9517  0.7023
  533MOL0     H73510   2.921   5.913   6.379 -0.0347 -0.4309 -4.0929
  533MOL0     H73511   2.828   6.030   6.291 -0.5594 -0.2134 -0.0102
  533MOL0     H73512   3.044   6.021   6.202 -1.8544 -0.0676 -1.8915
  533MOL0     H73513   3.267   6.195   5.987 -0.1362  0.7651  2.6274
  533MOL0     H73514   3.104   6.188   5.906  3.3907  0.0720 -2.7685
  533MOL0     H73515   3.150   6.057   6.001  0.1509 -0.6418  2.2963
  533MOL0     H73516   3.056   6.720   5.953 -0.3672  1.3054  0.7968
  533MOL0     H73517   3.155   6.894   5.800 -1.2373 -0.3649  1.3963
  533MOL0     H73518   3.252   7.073   5.738  0.1322 -1.9210 -1.3622
  533MOL0     H73519   3.366   7.144   5.845 -3.4947  3.4366 -1.6086
  533MOL0     H73520   3.398   7.064   5.554 -1.5536  0.2458 -0.2960
  533MOL0     H73521   3.377   7.230   5.615 -0.2158  1.0818  0.3666
  533MOL0     H73522   3.629   7.069   5.690 -1.3364  0.1784  1.3565
  533MOL0     H73523   3.615   7.239   5.680  0.0374  0.5251 -0.0945
  533MOL0     H73524   3.588   7.069   5.429  0.5216 -1.1880  2.1025
  533MOL0     H73525   3.733   7.165   5.492  0.7522  0.0350  0.5057
  533MOL0     H73526   3.475   7.254   5.356 -0.3538  0.0379  0.3456
  533MOL0     H73527   3.538   7.367   5.469 -1.4265 -1.8354  2.9041
  533MOL0     H73528   3.721   7.261   5.256 -2.8871  0.2881 -3.7686
  533MOL0     H73529   3.746   7.374   5.379  1.4987 -3.9278  0.4035
  533MOL0     H73530   3.565   7.531   5.287  2.9050  2.2767 -1.5975
  533MOL0     H73531   3.502   7.405   5.177 -1.9893  2.1957  0.7887
  533MOL0     H73532   3.705   7.427   5.043 -0.0023  1.5760 -2.5767
  533MOL0     H73533   3.770   7.544   5.158 -0.4472 -0.8093 -0.2116
  533MOL0     H73534   3.542   6.789   5.949 -0.6546 -2.8234 -1.3500
  533MOL0     H73535   3.440   6.663   6.131  0.3341 -1.6220 -1.6672
  533MOL0     H73536   3.084   6.493   6.316 -2.8862  1.8315 -1.4844
  533MOL0     H73537   3.018   6.336   6.486 -0.1020 -0.2616  0.4236
  533MOL0     H73538   2.112   7.452   6.525  1.3922 -4.8083 -0.3965
  533MOL0     H73539   2.104   7.601   6.708  1.1084 -0.1060  0.6342
  533MOL0     H73540   2.248   7.820   7.049  2.2753  1.4420  0.9267
  533MOL0     H73541   2.197   7.981   7.208 -0.3635  0.7484  0.8804
  533MOL0     H73542   1.910   8.035   7.559  1.7465 -0.0763  0.3966
  533MOL0     H73543   1.871   7.873   7.511  3.8448 -4.2299 -2.2234
  533MOL0     H73544   2.105   7.816   7.611  1.5329  0.4666 -0.6052
  533MOL0     H73545   1.979   7.859   7.726  0.2447 -1.8346 -0.0421
  533MOL0     H73546   2.181   8.048   7.592  0.7957 -3.2527 -1.4834
  533MOL0     H73547   2.058   8.104   7.719 -0.5923 -0.8435  1.5749
  533MOL0     H73548   2.284   7.898   7.763 -2.3370 -0.4993 -0.0435
  533MOL0     H73549   2.176   7.991   7.882  2.3719  3.2481  1.3901
  533MOL0     H73550   2.479   8.266   7.792  0.0556 -0.1966 -2.6083
  533MOL0     H73551   1.953   7.700   7.426 -0.4713 -3.6891 -0.9335
  533MOL0     H73552   2.071   7.416   7.295  3.2156  3.3838  1.0631
  533MOL0     H73553   1.927   7.492   7.378  1.3586  2.2343  0.9903
  533MOL0     H73554   1.915   7.464   7.210  0.6779  3.0764 -0.2056
  534MOL0     O73555   4.779  10.840   6.738 -0.7039 -0.5511 -0.3666
  534MOL0     C73556   4.864  10.763   6.761  1.1064  0.8323 -0.3721
  534MOL0     O73557   4.987  10.789   6.802  1.0524  0.0753 -0.4317
  534MOL0     C73558   5.013  10.917   6.841  1.1788 -0.0250 -0.1886
  534MOL0     C73559   4.962  10.977   6.959  0.5922 -0.2801 -0.0301
  534MOL0     C73560   4.986  11.112   6.986 -0.1512  0.5770  0.0493
  534MOL0     C73561   5.081  11.191   6.908 -0.1943  0.0541  0.1885
  534MOL0     O73562   5.127  11.313   6.944 -0.7433 -0.1115 -0.6178
  534MOL0     C73563   5.185  11.327   7.072 -0.9071 -0.3444  0.7497
  534MOL0     C73564   5.206  11.474   7.087  0.2767  0.5377  0.5050
  534MOL0     C73565   5.309  11.524   6.980  0.3361 -0.0099  0.0760
  534MOL0     C73566   5.445  11.447   6.961 -0.6057  0.2858  0.0261
  534MOL0     C73567   5.552  11.517   6.872 -0.7940  1.0077 -0.2802
  534MOL0     C73568   5.661  11.409   6.859  0.1733  0.2076 -0.0800
  534MOL0     C73569   5.764  11.454   6.758  0.3433 -0.8809 -0.0647
  534MOL0     C73570   5.847  11.335   6.712  0.4205  1.0166 -0.4034
  534MOL0     N73571   5.937  11.391   6.611  0.3112  0.4712  0.2719
  534MOL0     C73572   5.897  11.415   6.484  0.7054 -0.6406  0.6012
  534MOL0     C73573   6.008  11.424   6.412 -0.6223 -0.4377  0.1220
  534MOL0     C73574   6.022  11.446   6.265  0.3131  0.6339 -0.3070
  534MOL0     C73575   5.974  11.318   6.198  0.2721  0.3377  0.4959
  534MOL0     C73576   5.909  11.361   6.056  0.0244  0.5687  0.3894
  534MOL0     C73577   5.772  11.438   6.050  0.4822 -0.5613 -0.2240
  534MOL0     O73578   5.733  11.463   5.920 -0.1306  0.5047  0.8305
  534MOL0     C73579   5.657  11.365   5.854 -0.3969 -0.1953 -0.2909
  534MOL0     C73580   5.626  11.241   5.899 -0.9596  0.1393  0.4016
  534MOL0     C73581   5.561  11.144   5.819  0.0582  0.2595  0.5164
  534MOL0     C73582   5.561  11.005   5.873 -0.3431 -0.0263  0.1571
  534MOL0     C73583   5.498  11.189   5.705  0.9141 -0.0444  0.5088
  534MOL0     C73584   5.404  11.101   5.642 -0.7093 -0.0094 -0.1638
  534MOL0     O73585   5.263  11.140   5.644 -0.0311 -0.0918 -0.4386
  534MOL0     C73586   5.177  11.034   5.609  0.8249 -0.1438  0.0163
  534MOL0     C73587   5.110  11.013   5.491  0.1856 -1.3499 -0.3957
  534MOL0     C73588   5.017  10.909   5.480 -0.2743  0.8136  0.6353
  534MOL0     C73589   5.022  10.801   5.575  0.3055  0.6955  1.1818
  534MOL0     O73590   4.938  10.698   5.540  0.1378 -0.2392 -0.3622
  534MOL0     C73591   4.898  10.615   5.648 -0.3927  1.1925 -0.4605
  534MOL0     C73592   4.786  10.523   5.597 -0.5236  0.3625  0.4208
  534MOL0     C73593   4.669  10.604   5.550  0.2249  0.1165 -0.2776
  534MOL0     C73594   4.552  10.517   5.509 -0.0672  0.6372  0.0882
  534MOL0     C73595   4.442  10.587   5.421  0.4852 -0.0623 -0.1525
  534MOL0     C73596   4.373  10.491   5.333 -0.5869  0.7186  0.6155
  534MOL0     C73597   4.309  10.367   5.383  0.4856 -0.3536 -0.6323
  534MOL0     C73598   4.255  10.290   5.273  0.2202  0.4607  0.7960
  534MOL0    Cl73599   4.119  10.180   5.337  0.1138  0.1701  0.6652
  534MOL0     C73600   5.094  10.818   5.694 -0.7734 -0.0674 -0.3924
  534MOL0     C73601   5.162  10.933   5.713 -0.1944  0.3085 -0.1310
  534MOL0     O73602   5.452  11.006   5.587 -0.2936  0.5214 -1.0063
  534MOL0     C73603   5.518  11.319   5.659  1.4139  0.5981  0.6204
  534MOL0     C73604   5.603  11.400   5.731 -0.3822  0.0598 -0.3205
  534MOL0     N73605   6.122  11.403   6.495  0.6366 -0.0554 -0.2865
  534MOL0     N73606   6.070  11.383   6.616  0.3714  0.9051 -0.1152
  534MOL0     C73607   5.137  11.130   6.805 -0.4050 -0.3096 -0.0350
  534MOL0     C73608   5.104  11.003   6.768 -0.0256 -0.0084  0.2314
  534MOL0     C73609   4.831  10.613   6.734  0.1534 -0.4253 -0.7623
  534MOL0     C73610   4.930  10.519   6.761  0.1989  1.2429 -0.5257
  534MOL0     C73611   4.918  10.381   6.746 -0.4826 -0.2464 -0.3450
  534MOL0     C73612   4.790  10.328   6.704  0.3161 -0.4703  0.0705
  534MOL0     O73613   4.760  10.198   6.684  1.1874  0.4655 -0.1792
  534MOL0     C73614   4.856  10.101   6.751  0.4120 -0.2747 -0.3964
  534MOL0     C73615   4.835   9.955   6.698 -0.5680 -1.0986 -0.8100
  534MOL0     C73616   4.710   9.896   6.747  0.3677 -0.5419 -0.4540
  534MOL0     C73617   4.715   9.867   6.897 -0.0138 -0.6715  0.0516
  534MOL0     C73618   4.799   9.751   6.944 -0.0280 -0.2627  0.7233
  534MOL0     C73619   4.888   9.668   6.970 -1.6009  0.3035 -0.1662
  534MOL0     C73620   4.689  10.425   6.678  0.7937  0.2051 -0.1656
  534MOL0     C73621   4.701  10.566   6.696  0.2239 -0.2176 -0.0345
  534MOL0     C73622   4.573  10.664   6.682  0.0111  0.3051 -0.0997
  534MOL0     H73623   4.892  10.923   7.022 -2.5174 -0.2956 -3.1971
  534MOL0     H73624   4.963  11.159   7.081  0.9001  0.5838  0.3161
  534MOL0     H73625   5.280  11.273   7.072 -0.0986  1.0121 -0.1977
  534MOL0     H73626   5.124  11.287   7.153 -0.4447  1.9478  2.3644
  534MOL0     H73627   5.104  11.514   7.090 -0.4532 -0.9264 -1.7022
  534MOL0     H73628   5.249  11.491   7.186  0.7038  2.0174  0.0920
  534MOL0     H73629   5.263  11.541   6.883  4.1466  1.2054 -1.7074
  534MOL0     H73630   5.335  11.627   7.006 -0.9108  1.0051 -2.4543
  534MOL0     H73631   5.496  11.428   7.056  1.9345 -1.0137 -1.4764
  534MOL0     H73632   5.417  11.348   6.925  0.1687  0.3789 -0.9022
  534MOL0     H73633   5.583  11.606   6.927 -1.2006  0.4682  0.8526
  534MOL0     H73634   5.497  11.549   6.784  1.2144 -0.9027 -2.3878
  534MOL0     H73635   5.718  11.395   6.951  0.9402 -3.5549 -0.9582
  534MOL0     H73636   5.612  11.312   6.842 -0.1273  0.0630  1.4770
  534MOL0     H73637   5.846  11.512   6.801  1.2847 -0.9091 -1.7048
  534MOL0     H73638   5.721  11.504   6.670  0.4955  0.6749  0.7079
  534MOL0     H73639   5.900  11.285   6.794  1.1793 -1.4328 -2.2446
  534MOL0     H73640   5.778  11.265   6.664  2.8408 -0.3506 -2.1172
  534MOL0     H73641   5.797  11.432   6.444 -0.1589  0.0753  2.8991
  534MOL0     H73642   6.127  11.453   6.237  0.0690  0.8272 -1.2322
  534MOL0     H73643   5.965  11.530   6.225 -2.1447 -0.5340  0.4867
  534MOL0     H73644   6.050  11.245   6.170 -0.7697 -0.4972 -0.2927
  534MOL0     H73645   5.901  11.259   6.255 -0.8364  0.8571 -0.3549
  534MOL0     H73646   5.985  11.422   6.006 -0.5058 -0.2327 -1.4916
  534MOL0     H73647   5.898  11.270   5.997 -2.9334  1.1245 -0.0840
  534MOL0     H73648   5.700  11.374   6.103  2.2884 -3.9472 -1.5711
  534MOL0     H73649   5.770  11.531   6.108 -0.7184  1.1130 -2.7550
  534MOL0     H73650   5.658  11.214   5.999  2.4376  1.5193 -0.1572
  534MOL0     H73651   5.612  11.004   5.969 -0.0710  1.5868  0.0607
  534MOL0     H73652   5.625  10.947   5.805  0.7320 -0.7923  1.7608
  534MOL0     H73653   5.460  10.964   5.886 -0.0860  0.0011  2.6293
  534MOL0     H73654   5.115  11.089   5.414  0.8512 -1.3880 -0.3956
  534MOL0     H73655   4.960  10.890   5.390  2.9818 -0.1542 -1.4260
  534MOL0     H73656   4.983  10.552   5.676 -0.9847  1.6388  2.6917
  534MOL0     H73657   4.869  10.654   5.746  1.6645  0.0057  0.6884
  534MOL0     H73658   4.826  10.456   5.520 -2.0283 -2.5759  2.0327
  534MOL0     H73659   4.760  10.458   5.681  0.0339 -2.5830 -1.5449
  534MOL0     H73660   4.706  10.671   5.472  0.1715 -1.1901 -1.4677
  534MOL0     H73661   4.637  10.667   5.634  0.7532 -0.7392  0.5915
  534MOL0     H73662   4.491  10.466   5.584 -2.0213 -3.1848 -3.6905
  534MOL0     H73663   4.581  10.435   5.442 -3.2681  0.4444 -1.2589
  534MOL0     H73664   4.359  10.622   5.484 -1.3507  2.1590 -3.4901
  534MOL0     H73665   4.479  10.669   5.359 -3.4050 -0.3822 -3.3100
  534MOL0     H73666   4.446  10.450   5.263 -0.9610 -1.9073  1.6520
  534MOL0     H73667   4.299  10.545   5.274  1.9160  0.2048 -3.3337
  534MOL0     H73668   4.225  10.407   5.441  2.8359  2.4480  1.1240
  534MOL0     H73669   4.371  10.303   5.447 -2.8392 -0.4080  2.9582
  534MOL0     H73670   4.341  10.234   5.234  0.9688  2.4815 -0.6362
  534MOL0     H73671   4.219  10.352   5.190 -1.3644 -1.2764  0.1152
  534MOL0     H73672   5.099  10.740   5.769  1.5363  0.5735  0.2128
  534MOL0     H73673   5.230  10.947   5.796 -0.5031  0.1704  0.1516
  534MOL0     H73674   5.482  11.358   5.564  1.2308 -0.0589  0.4142
  534MOL0     H73675   5.634  11.497   5.694  3.5794 -0.5427  0.9040
  534MOL0     H73676   5.228  11.177   6.768 -0.5080 -0.4842 -0.5128
  534MOL0     H73677   5.155  10.957   6.684  0.0709 -0.2475  0.4224
  534MOL0     H73678   5.033  10.538   6.790  0.9913 -1.2810 -1.3561
  534MOL0     H73679   5.002  10.321   6.778  0.1851  1.0877  0.5048
  534MOL0     H73680   4.962  10.120   6.732  0.3605 -0.7470 -1.2300
  534MOL0     H73681   4.833  10.105   6.858 -1.4742  0.8075 -0.7950
  534MOL0     H73682   4.917   9.896   6.741  1.5620  1.8362 -0.5377
  534MOL0     H73683   4.844   9.956   6.589 -2.1103 -0.3443 -0.9487
  534MOL0     H73684   4.628   9.964   6.721 -1.0537 -1.7510  0.7428
  534MOL0     H73685   4.692   9.805   6.689 -6.6694  1.6728 -2.7741
  534MOL0     H73686   4.613   9.831   6.915 -1.0887 -0.4062 -4.5085
  534MOL0     H73687   4.736   9.950   6.966 -1.5537 -1.4845  1.5785
  534MOL0     H73688   4.969   9.601   6.988 -0.5645  1.7809  0.8368
  534MOL0     H73689   4.587  10.390   6.670 -0.0715  1.9841  1.9081
  534MOL0     H73690   4.541  10.696   6.782  1.6199  0.9646  0.2402
  534MOL0     H73691   4.602  10.749   6.619  0.1530  0.9061  0.7526
  534MOL0     H73692   4.485  10.607   6.650  0.0332 -0.6877  1.4945
  535MOL0     O73693   1.132   5.891   1.815  0.3075  0.6216 -0.5519
  535MOL0     C73694   1.179   5.914   1.709 -0.4028  0.0018  1.5123
  535MOL0     O73695   1.151   6.023   1.627  0.0645 -0.8966 -0.3011
  535MOL0     C73696   1.222   6.042   1.512 -0.7264  1.0649  0.9308
  535MOL0     C73697   1.364   6.074   1.515 -0.0418 -0.0050 -0.8008
  535MOL0     C73698   1.436   6.075   1.394 -1.0945  0.1906  0.0170
  535MOL0     C73699   1.369   6.059   1.270 -0.2781 -0.1286  1.0043
  535MOL0     O73700   1.445   6.050   1.150 -0.2379 -0.1667  0.0904
  535MOL0     C73701   1.427   6.139   1.041  0.2109  0.4880 -0.8557
  535MOL0     C73702   1.535   6.243   1.043  0.2605  0.2061 -0.7208
  535MOL0     C73703   1.542   6.310   0.911  0.1373 -0.2552 -0.4628
  535MOL0     C73704   1.602   6.448   0.930 -0.6667 -0.1149  0.7646
  535MOL0     C73705   1.746   6.442   0.990 -0.4646  0.2361 -0.1526
  535MOL0     C73706   1.812   6.585   1.022  0.5902 -0.0345 -0.5847
  535MOL0     C73707   1.919   6.574   1.136 -0.6479 -0.3361  0.5748
  535MOL0     C73708   2.036   6.468   1.097  0.6273  0.3546  0.5076
  535MOL0     N73709   2.110   6.511   0.979  0.3203 -0.9493  0.7863
  535MOL0     C73710   2.202   6.620   0.979 -0.5613 -0.1554 -0.7809
  535MOL0     C73711   2.263   6.607   0.863 -0.6719 -0.5765 -0.3103
  535MOL0     C73712   2.388   6.681   0.820 -0.2733 -0.5909  0.9468
  535MOL0     C73713   2.405   6.833   0.854  0.0335 -0.1033 -0.3945
  535MOL0     C73714   2.513   6.911   0.776  0.0051 -0.2857 -0.1150
  535MOL0     C73715   2.512   7.051   0.817 -0.1608 -0.2558 -0.5429
  535MOL0     O73716   2.644   7.113   0.788  0.4674  0.8888 -0.4945
  535MOL0     C73717   2.692   7.124   0.660 -0.3014 -0.2557  0.3796
  535MOL0     C73718   2.836   7.104   0.646  0.4510 -0.5382  0.2544
  535MOL0     C73719   2.904   7.129   0.514 -0.1709  0.3403 -0.9161
  535MOL0     C73720   3.056   7.119   0.534  0.0123 -0.0544 -0.1321
  535MOL0     C73721   2.825   7.164   0.401 -0.0670  0.1368  1.0936
  535MOL0     C73722   2.883   7.188   0.266  0.2138 -0.1586 -0.7380
  535MOL0     O73723   3.017   7.171   0.259 -0.0131 -0.5172 -0.0322
  535MOL0     C73724   3.091   7.201   0.142  0.1552 -1.1807 -0.3011
  535MOL0     C73725   3.211   7.130   0.136  0.3454  0.5227  0.2857
  535MOL0     C73726   3.294   7.149   0.026 -0.2747 -0.0834  0.5906
  535MOL0     C73727   3.265   7.237  -0.079  0.8684  1.0694  0.8651
  535MOL0     O73728   3.355   7.254  -0.177 -0.5349  0.1168  0.0192
  535MOL0     C73729   3.321   7.327  -0.296  0.3022  0.5168 -0.4406
  535MOL0     C73730   3.401   7.257  -0.407 -0.4538  0.1617  0.1036
  535MOL0     C73731   3.343   7.121  -0.439  0.1967  0.2880  0.0897
  535MOL0     C73732   3.452   7.050  -0.523  0.1156  0.1610 -0.1439
  535MOL0     C73733   3.393   6.929  -0.588  0.6896 -0.1024 -0.5286
  535MOL0     C73734   3.503   6.851  -0.656 -0.1172 -0.5733 -0.6671
  535MOL0     C73735   3.453   6.711  -0.682  0.4848  1.2388  0.0750
  535MOL0     C73736   3.540   6.599  -0.616 -0.0197 -0.4335 -0.0070
  535MOL0    Cl73737   3.541   6.621  -0.440  0.1758 -0.4259  0.4273
  535MOL0     C73738   3.147   7.309  -0.069  0.9412 -1.0905  0.0813
  535MOL0     C73739   3.064   7.295   0.041 -0.2768  1.0667  0.2068
  535MOL0     O73740   2.801   7.215   0.174 -0.2476  0.5715  0.1145
  535MOL0     C73741   2.684   7.171   0.419 -0.0200  0.2223  0.1122
  535MOL0     C73742   2.622   7.147   0.545 -0.3475  0.7126 -0.5352
  535MOL0     N73743   2.188   6.512   0.790 -0.6635  0.4816  0.0405
  535MOL0     N73744   2.096   6.457   0.854 -0.1834 -0.9345  0.2773
  535MOL0     C73745   1.230   6.043   1.268 -0.2761  0.0880  0.2050
  535MOL0     C73746   1.159   6.024   1.386 -0.6228  0.3645 -0.0214
  535MOL0     C73747   1.283   5.811   1.655  0.7767  0.1221  0.7981
  535MOL0     C73748   1.229   5.717   1.564 -0.0405 -0.0360 -0.4168
  535MOL0     C73749   1.309   5.608   1.518 -0.0948  0.0897 -0.3956
  535MOL0     C73750   1.447   5.605   1.548  0.5564 -0.2090 -1.2500
  535MOL0     O73751   1.517   5.502   1.509 -0.4487 -0.1208  0.4123
  535MOL0     C73752   1.651   5.520   1.458 -0.2939  0.2516  0.7200
  535MOL0     C73753   1.632   5.574   1.318  0.3290  0.0334 -0.1983
  535MOL0     C73754   1.576   5.475   1.224  0.1630 -0.5429  0.9231
  535MOL0     C73755   1.537   5.539   1.092  0.3607  0.0322 -0.8800
  535MOL0     C73756   1.392   5.573   1.099 -0.0373  0.6659  0.1490
  535MOL0     C73757   1.279   5.616   1.118 -0.6448  0.0162  0.0707
  535MOL0     C73758   1.493   5.695   1.649 -0.3764  0.1263  1.0223
  535MOL0     C73759   1.416   5.797   1.690 -0.6053 -0.2514 -0.8719
  535MOL0     C73760   1.484   5.885   1.805  0.5088 -0.2985  0.5055
  535MOL0     H73761   1.420   6.096   1.606 -2.2238  3.4409 -0.0994
  535MOL0     H73762   1.545   6.076   1.388 -1.0760 -1.4071 -0.4612
  535MOL0     H73763   1.325   6.179   1.043 -0.0290 -0.1176 -0.6144
  535MOL0     H73764   1.439   6.069   0.958  1.1346 -2.4166  1.5626
  535MOL0     H73765   1.506   6.313   1.122  0.5766 -2.4790  1.8988
  535MOL0     H73766   1.628   6.192   1.069  1.3205  2.5306  0.3089
  535MOL0     H73767   1.596   6.250   0.836  0.8618 -0.9707  0.6132
  535MOL0     H73768   1.442   6.317   0.866 -0.6844 -2.4498  0.8865
  535MOL0     H73769   1.624   6.490   0.831  5.1083  2.0333  2.5361
  535MOL0     H73770   1.544   6.519   0.990 -0.5008  1.0516 -0.4065
  535MOL0     H73771   1.817   6.393   0.923  3.1280  3.5507  0.8777
  535MOL0     H73772   1.741   6.389   1.086  1.7452  1.5235  0.7470
  535MOL0     H73773   1.853   6.636   0.934  1.6207  1.1329  0.5368
  535MOL0     H73774   1.726   6.642   1.056 -2.1617 -5.2181  2.5032
  535MOL0     H73775   1.863   6.544   1.224  0.8526  0.7904  1.9656
  535MOL0     H73776   1.964   6.674   1.147 -2.1495  0.4361  0.0014
  535MOL0     H73777   2.091   6.444   1.189  1.5619  2.0011  0.4149
  535MOL0     H73778   1.989   6.374   1.068  1.5552 -0.5169  1.6916
  535MOL0     H73779   2.231   6.692   1.054 -0.4391 -0.3481 -0.6413
  535MOL0     H73780   2.402   6.682   0.711 -3.5716  1.4517  0.3947
  535MOL0     H73781   2.472   6.620   0.853  0.5227 -1.7897 -2.7628
  535MOL0     H73782   2.307   6.865   0.818  0.3622  0.9334 -0.3807
  535MOL0     H73783   2.408   6.844   0.963  0.1689  3.6481 -0.6618
  535MOL0     H73784   2.611   6.871   0.803 -0.0800  1.0163  2.4766
  535MOL0     H73785   2.494   6.917   0.669  2.1074  0.9712 -0.4591
  535MOL0     H73786   2.432   7.106   0.767 -1.0449 -1.0970 -0.0848
  535MOL0     H73787   2.491   7.039   0.924  1.2555 -3.9341 -0.5427
  535MOL0     H73788   2.900   7.069   0.726  1.4392 -1.1176 -0.7443
  535MOL0     H73789   3.098   7.210   0.489 -0.5556 -0.6640 -1.9897
  535MOL0     H73790   3.093   7.042   0.466 -1.6150  0.0007 -1.1267
  535MOL0     H73791   3.093   7.099   0.635 -0.3710 -2.0965 -0.3458
  535MOL0     H73792   3.240   7.064   0.218 -4.3325 -1.3506  0.6983
  535MOL0     H73793   3.390   7.098   0.016 -1.8417 -2.8055 -2.3611
  535MOL0     H73794   3.215   7.323  -0.324 -0.4854  2.8505  1.7708
  535MOL0     H73795   3.346   7.434  -0.294 -0.1764  0.6303 -0.1459
  535MOL0     H73796   3.401   7.313  -0.501  0.0207 -2.7049 -1.7534
  535MOL0     H73797   3.505   7.250  -0.372 -1.1998 -1.1341  2.2743
  535MOL0     H73798   3.255   7.128  -0.504 -0.7916  1.6945  1.5040
  535MOL0     H73799   3.325   7.066  -0.346 -1.2200  0.3005 -0.1558
  535MOL0     H73800   3.529   7.015  -0.454 -0.1038  0.9277  0.5026
  535MOL0     H73801   3.510   7.107  -0.597  1.2027 -0.3179  0.3094
  535MOL0     H73802   3.336   6.878  -0.510 -1.8838  0.4585 -1.9481
  535MOL0     H73803   3.320   6.940  -0.668 -0.1179  0.1888  0.2350
  535MOL0     H73804   3.599   6.862  -0.604 -0.4831  2.4818 -0.5043
  535MOL0     H73805   3.506   6.902  -0.753 -0.6807 -0.1982 -0.4855
  535MOL0     H73806   3.467   6.698  -0.790  1.6336  0.3692  0.3159
  535MOL0     H73807   3.347   6.685  -0.668  0.8925  0.9367  3.2020
  535MOL0     H73808   3.643   6.608  -0.653 -0.9114  0.2454 -2.5390
  535MOL0     H73809   3.503   6.502  -0.650 -0.3951  0.1964 -1.5058
  535MOL0     H73810   3.118   7.389  -0.137  4.6317  1.6065  1.3449
  535MOL0     H73811   2.980   7.361   0.063 -1.2964 -0.3843  0.8468
  535MOL0     H73812   2.624   7.204   0.334 -0.9095  3.3273  1.7742
  535MOL0     H73813   2.514   7.135   0.540 -0.1662 -2.1235  0.6760
  535MOL0     H73814   1.154   6.022   1.194 -1.4612 -1.5808  1.8307
  535MOL0     H73815   1.055   5.993   1.393 -1.3723  2.0561 -2.4268
  535MOL0     H73816   1.126   5.721   1.530 -1.1439  1.3030  2.7228
  535MOL0     H73817   1.263   5.530   1.457 -0.1393  0.4994 -0.8894
  535MOL0     H73818   1.714   5.586   1.520 -3.1898  0.2168  4.0071
  535MOL0     H73819   1.705   5.425   1.448 -2.1139 -0.6123 -1.5594
  535MOL0     H73820   1.729   5.592   1.272 -0.2885  1.0077 -1.1721
  535MOL0     H73821   1.588   5.674   1.318  0.2388  0.0293  1.4953
  535MOL0     H73822   1.656   5.404   1.201  0.3788 -0.2492  0.7547
  535MOL0     H73823   1.494   5.408   1.253 -0.4803 -1.4734 -2.5072
  535MOL0     H73824   1.541   5.468   1.009 -3.9297 -0.2319 -1.0846
  535MOL0     H73825   1.600   5.627   1.077  0.1532  0.4257  0.4421
  535MOL0     H73826   1.183   5.639   1.161 -0.0739  0.7839  0.9757
  535MOL0     H73827   1.595   5.685   1.686  0.0745  4.2154  1.3311
  535MOL0     H73828   1.593   5.875   1.802  0.4134 -1.3174 -0.3456
  535MOL0     H73829   1.454   5.989   1.793  2.5823  0.4177  1.0453
  535MOL0     H73830   1.446   5.865   1.905  2.1905 -0.1135  1.2215
  536MOL0     O73831   0.120   3.549   5.734 -0.9611 -0.2050  0.5151
  536MOL0     C73832   0.098   3.610   5.838  1.1546  0.8575 -0.4524
  536MOL0     O73833   0.192   3.643   5.940  0.2310 -0.0198 -0.1717
  536MOL0     C73834   0.325   3.623   5.900  0.9225 -0.4879  0.9161
  536MOL0     C73835   0.381   3.705   5.797 -0.1733  1.0699 -0.1711
  536MOL0     C73836   0.518   3.704   5.765  0.6198  0.1557 -0.3704
  536MOL0     C73837   0.599   3.601   5.822 -0.3358 -0.3971  1.1302
  536MOL0     O73838   0.727   3.573   5.791  0.1982 -0.1079 -0.3860
  536MOL0     C73839   0.816   3.678   5.774 -0.0908 -1.3225  0.1637
  536MOL0     C73840   0.958   3.647   5.815  0.0423  0.4264 -0.0531
  536MOL0     C73841   1.029   3.540   5.733  0.3891 -0.3769 -1.1106
  536MOL0     C73842   1.013   3.559   5.581 -1.2341 -0.5356  0.3775
  536MOL0     C73843   1.098   3.449   5.505  0.3968 -0.1265  0.1780
  536MOL0     C73844   1.245   3.435   5.555 -0.7917  0.7528  0.6291
  536MOL0     C73845   1.302   3.311   5.499  0.0097  0.3589  0.1838
  536MOL0     C73846   1.342   3.321   5.350  0.3708 -0.1023  0.3186
  536MOL0     N73847   1.464   3.400   5.323  0.0209  0.7039  0.2022
  536MOL0     C73848   1.540   3.375   5.219 -0.3169  0.6998  0.1226
  536MOL0     C73849   1.649   3.453   5.236 -0.1101 -0.1762  0.6571
  536MOL0     C73850   1.777   3.462   5.159  0.0802  0.2472  0.4124
  536MOL0     C73851   1.855   3.343   5.167  0.1671  0.2685 -0.1292
  536MOL0     C73852   1.904   3.322   5.310 -0.2137  0.9551  1.5445
  536MOL0     C73853   2.005   3.205   5.314 -0.2387 -0.4973 -0.5496
  536MOL0     O73854   2.127   3.244   5.248  0.2324 -0.1235  0.8887
  536MOL0     C73855   2.245   3.203   5.308 -0.6304 -0.1032 -0.1902
  536MOL0     C73856   2.341   3.149   5.232  0.7362  0.3361 -0.2243
  536MOL0     C73857   2.460   3.100   5.292 -0.5911 -0.0046 -0.7409
  536MOL0     C73858   2.564   3.023   5.209  0.8817  0.1444  0.9047
  536MOL0     C73859   2.489   3.120   5.435 -0.8495 -0.4913 -0.1993
  536MOL0     C73860   2.611   3.079   5.508  0.0291  0.8072  0.3027
  536MOL0     O73861   2.586   3.033   5.640  0.4100 -0.2819 -0.1967
  536MOL0     C73862   2.692   2.983   5.704 -0.5039  0.8831  0.3175
  536MOL0     C73863   2.717   2.844   5.699  1.5078 -0.8188  0.0181
  536MOL0     C73864   2.820   2.782   5.772 -0.2402 -0.2286  0.3403
  536MOL0     C73865   2.905   2.863   5.848 -0.7120 -0.2157 -0.9873
  536MOL0     O73866   3.020   2.818   5.899  0.2535  0.5125 -0.0803
  536MOL0     C73867   3.010   2.799   6.042 -0.1664 -0.3159 -0.4442
  536MOL0     C73868   3.136   2.731   6.094  0.3864 -0.4549 -0.2091
  536MOL0     C73869   3.178   2.606   6.012  0.4777  0.9146 -0.1889
  536MOL0     C73870   3.315   2.545   6.054  0.2777  0.3945  0.4953
  536MOL0     C73871   3.352   2.430   5.961 -0.0975  0.8364 -0.3097
  536MOL0     C73872   3.470   2.347   6.020  0.0037  0.3698  0.5513
  536MOL0     C73873   3.481   2.214   5.960 -0.2067 -0.3969  0.3943
  536MOL0     C73874   3.621   2.153   5.952 -0.3159  0.4369  0.1059
  536MOL0    Cl73875   3.616   2.007   5.842 -0.3067  0.0944 -0.1568
  536MOL0     C73876   2.875   2.999   5.871 -0.5993  0.2852  0.0817
  536MOL0     C73877   2.777   3.056   5.790 -0.2684 -0.0744 -0.4423
  536MOL0     O73878   2.719   3.091   5.456 -0.0275  0.3328 -0.3548
  536MOL0     C73879   2.387   3.186   5.510 -0.0009 -0.2609  0.8497
  536MOL0     C73880   2.275   3.227   5.441 -1.0465  0.1683  0.0317
  536MOL0     N73881   1.638   3.519   5.350 -0.8009  0.9737 -0.8283
  536MOL0     N73882   1.530   3.492   5.403 -0.4478 -0.2635  0.8614
  536MOL0     C73883   0.551   3.517   5.912 -0.4370  0.4141 -0.8058
  536MOL0     C73884   0.412   3.535   5.955  0.1568  0.6082 -0.2702
  536MOL0     C73885  -0.038   3.680   5.846 -0.1792 -0.6391 -0.5408
  536MOL0     C73886  -0.040   3.790   5.936 -0.1475 -0.6534  0.1724
  536MOL0     C73887  -0.159   3.845   5.968 -0.5611 -0.0342 -0.1205
  536MOL0     C73888  -0.276   3.817   5.896 -0.0797 -0.2653 -0.4008
  536MOL0     O73889  -0.383   3.899   5.927  0.3991 -0.1902  0.5233
  536MOL0     C73890  -0.499   3.888   5.840 -0.7580  0.5365 -0.6263
  536MOL0     C73891  -0.613   3.985   5.875  0.7603 -0.1235  0.4041
  536MOL0     C73892  -0.581   4.129   5.911 -0.5090 -0.3300  0.6016
  536MOL0     C73893  -0.567   4.141   6.058 -0.3171  0.1623 -0.0658
  536MOL0     C73894  -0.507   4.256   6.119 -0.2608 -0.1647 -0.2953
  536MOL0     C73895  -0.444   4.346   6.165  0.1256  0.4838 -0.3836
  536MOL0     C73896  -0.272   3.714   5.807 -0.1242 -0.5250  1.1421
  536MOL0     C73897  -0.154   3.632   5.789 -0.3945  0.2599  1.0024
  536MOL0     C73898  -0.173   3.533   5.682 -0.3907 -0.1977 -0.2372
  536MOL0     H73899   0.327   3.791   5.760 -2.2231 -0.0184  0.1764
  536MOL0     H73900   0.555   3.775   5.692 -0.2549  1.0696  0.0574
  536MOL0     H73901   0.789   3.767   5.832  1.9254 -2.6345  3.3807
  536MOL0     H73902   0.819   3.699   5.667  0.0685  1.4572  0.6260
  536MOL0     H73903   1.015   3.740   5.809  0.3028  0.3777  1.3426
  536MOL0     H73904   0.957   3.612   5.918  1.6888 -2.2191 -0.8516
  536MOL0     H73905   1.136   3.542   5.759  0.8828 -2.2972 -2.7146
  536MOL0     H73906   0.989   3.445   5.771 -1.0178  0.5890 -0.1089
  536MOL0     H73907   0.913   3.541   5.539 -1.2251 -1.0139  0.5456
  536MOL0     H73908   1.029   3.664   5.556 -4.5982  0.0795  0.3570
  536MOL0     H73909   1.104   3.470   5.398  2.3844 -5.6184 -1.0844
  536MOL0     H73910   1.037   3.361   5.525 -4.2277  2.7738  0.5623
  536MOL0     H73911   1.292   3.534   5.543  0.5519  0.0182 -0.4603
  536MOL0     H73912   1.254   3.430   5.664 -1.1782  2.2513  0.7550
  536MOL0     H73913   1.232   3.230   5.523  1.4022 -0.2892  2.3172
  536MOL0     H73914   1.390   3.280   5.555  0.2192 -1.4964 -1.0879
  536MOL0     H73915   1.361   3.218   5.319 -3.5089 -0.5370 -1.2130
  536MOL0     H73916   1.256   3.346   5.287 -0.0359 -1.5047  0.2759
  536MOL0     H73917   1.533   3.289   5.152  2.4388  1.0889 -0.7988
  536MOL0     H73918   1.833   3.552   5.183 -1.3180  1.7883 -1.7743
  536MOL0     H73919   1.757   3.472   5.052  0.2929 -2.6205  0.0286
  536MOL0     H73920   1.802   3.255   5.129  1.0972  0.8723 -3.1224
  536MOL0     H73921   1.943   3.355   5.103 -0.5161  0.2888 -1.0942
  536MOL0     H73922   1.951   3.418   5.331 -2.4036  2.4101  0.2193
  536MOL0     H73923   1.818   3.302   5.375 -1.3276 -0.6986 -0.3222
  536MOL0     H73924   2.011   3.189   5.422  0.5251  1.9219 -0.1706
  536MOL0     H73925   1.968   3.116   5.262 -0.0175 -0.7068 -0.3500
  536MOL0     H73926   2.313   3.142   5.127 -1.6193 -0.5006  0.3989
  536MOL0     H73927   2.615   3.101   5.152 -0.0013 -1.0431 -1.6669
  536MOL0     H73928   2.508   2.968   5.133 -0.3224  2.5986 -0.1002
  536MOL0     H73929   2.625   2.957   5.272  0.7348  0.8413  1.8025
  536MOL0     H73930   2.653   2.787   5.632 -0.5615  0.5477  0.7334
  536MOL0     H73931   2.840   2.676   5.759 -1.0919 -0.1476 -2.3154
  536MOL0     H73932   2.999   2.898   6.088 -0.4463  0.3488 -1.9122
  536MOL0     H73933   2.928   2.731   6.069 -1.6595  0.8694 -1.7690
  536MOL0     H73934   3.219   2.802   6.089  0.1726  0.0083  2.1090
  536MOL0     H73935   3.130   2.695   6.196  2.2872  1.9399  0.8580
  536MOL0     H73936   3.190   2.635   5.907 -0.4579  2.2426  0.0408
  536MOL0     H73937   3.106   2.524   6.016  0.8106  0.6099 -0.3472
  536MOL0     H73938   3.310   2.511   6.158  1.3482  0.1395  0.4781
  536MOL0     H73939   3.385   2.629   6.063  0.0481  0.3760  3.1953
  536MOL0     H73940   3.269   2.360   5.969  0.6374  0.1101  1.2121
  536MOL0     H73941   3.377   2.460   5.858  0.8933 -0.6664 -0.5439
  536MOL0     H73942   3.446   2.330   6.125  0.9967 -3.1846  0.3376
  536MOL0     H73943   3.562   2.405   6.006  0.5088 -0.5710 -0.0991
  536MOL0     H73944   3.448   2.224   5.856  1.2975  0.2341 -0.0505
  536MOL0     H73945   3.414   2.141   6.005 -0.7478  1.0668  2.0523
  536MOL0     H73946   3.649   2.131   6.056  1.9316  0.6866 -0.3910
  536MOL0     H73947   3.687   2.228   5.908 -2.0261  2.1538  0.3729
  536MOL0     H73948   2.941   3.067   5.923 -1.2795  1.1220 -0.1193
  536MOL0     H73949   2.762   3.161   5.810 -2.6712 -0.6525  1.2127
  536MOL0     H73950   2.389   3.187   5.619  0.1189  0.7843  0.8520
  536MOL0     H73951   2.203   3.288   5.494  0.8090  4.1195 -1.5787
  536MOL0     H73952   0.592   3.422   5.943 -2.0558 -0.5360 -1.3946
  536MOL0     H73953   0.368   3.478   6.036 -0.0844  0.1597 -0.7123
  536MOL0     H73954   0.046   3.836   5.984  2.6758 -0.9984 -4.0178
  536MOL0     H73955  -0.143   3.903   6.058  1.0395  0.1559 -0.4899
  536MOL0     H73956  -0.478   3.909   5.734 -3.0672  3.2888 -0.6724
  536MOL0     H73957  -0.548   3.790   5.847 -2.9990  1.4350 -2.3704
  536MOL0     H73958  -0.678   3.945   5.954 -2.2728  4.4361  0.6097
  536MOL0     H73959  -0.680   3.994   5.789 -0.7365  4.3106  1.7488
  536MOL0     H73960  -0.496   4.163   5.852 -1.2661 -0.0413 -0.3554
  536MOL0     H73961  -0.659   4.201   5.883 -0.0392  0.1059  0.4038
  536MOL0     H73962  -0.497   4.060   6.076 -0.6080  0.0455  0.5832
  536MOL0     H73963  -0.661   4.118   6.111 -1.7737  0.7690 -2.2584
  536MOL0     H73964  -0.393   4.429   6.211  2.0621 -2.5107  3.5981
  536MOL0     H73965  -0.360   3.688   5.749  0.5100 -1.1034  0.4258
  536MOL0     H73966  -0.109   3.559   5.597 -2.1339  2.7050 -0.7984
  536MOL0     H73967  -0.139   3.434   5.712 -0.3482 -0.1556 -0.1425
  536MOL0     H73968  -0.278   3.528   5.652  0.1825  0.8956 -2.6175
  537MOL0     O73969   6.170   2.158   6.004  0.9341  0.2969  0.3361
  537MOL0     C73970   6.107   2.077   5.927  1.1364  0.1687 -1.1196
  537MOL0     O73971   5.995   2.103   5.860 -0.1049 -0.1418  0.3585
  537MOL0     C73972   5.915   2.212   5.883 -0.1165  0.1314  0.1544
  537MOL0     C73973   5.967   2.336   5.924  0.1684  0.0034 -0.0730
  537MOL0     C73974   5.895   2.449   5.942  0.4626  0.1197 -0.0592
  537MOL0     C73975   5.752   2.437   5.924  0.6264  0.0588  0.7389
  537MOL0     O73976   5.654   2.524   5.931  0.0565  0.5660  0.6052
  537MOL0     C73977   5.671   2.640   6.012 -0.9088 -0.3884 -0.8175
  537MOL0     C73978   5.543   2.727   6.009 -1.0247  0.9363 -0.8236
  537MOL0     C73979   5.573   2.856   6.074  0.2836  0.3574  0.3525
  537MOL0     C73980   5.550   2.976   5.983  0.6144  0.0728 -0.9170
  537MOL0     C73981   5.590   3.107   6.056  0.0517 -0.3009  0.3330
  537MOL0     C73982   5.573   3.235   5.979  1.0523  0.1179 -0.4406
  537MOL0     C73983   5.422   3.270   5.953 -0.4225  0.5412  0.3096
  537MOL0     C73984   5.341   3.317   6.069 -0.3519  1.8148 -0.1809
  537MOL0     N73985   5.199   3.322   6.038 -0.1569  0.8108  0.3140
  537MOL0     C73986   5.116   3.427   6.045  0.1663  0.0881  0.7660
  537MOL0     C73987   4.992   3.372   6.035  0.1424  0.0879 -0.0405
  537MOL0     C73988   4.867   3.430   6.001 -0.2254  0.0600 -1.3603
  537MOL0     C73989   4.796   3.441   6.142  0.7133  0.3333 -0.4430
  537MOL0     C73990   4.658   3.513   6.132 -0.0988  0.5875  0.3926
  537MOL0     C73991   4.568   3.431   6.045  0.6121  0.6407  0.4973
  537MOL0     O73992   4.433   3.493   6.022 -0.4681  0.5991  0.1559
  537MOL0     C73993   4.328   3.480   6.109 -0.2245 -0.1966  0.3773
  537MOL0     C73994   4.317   3.380   6.208  0.4765  0.3859 -0.7537
  537MOL0     C73995   4.209   3.379   6.298 -0.3329 -0.0243 -0.1839
  537MOL0     C73996   4.185   3.265   6.380 -0.4753 -0.5110 -0.5985
  537MOL0     C73997   4.106   3.480   6.279  0.0354  0.2416 -0.1120
  537MOL0     C73998   3.986   3.495   6.366 -0.7081  0.1238  0.0171
  537MOL0     O73999   3.871   3.527   6.305 -1.1686  0.1928  0.3135
  537MOL0     C74000   3.821   3.460   6.198  0.7322  0.4013 -0.6406
  537MOL0     C74001   3.786   3.326   6.210 -0.1212  0.9331  0.1778
  537MOL0     C74002   3.736   3.258   6.092 -0.5073  0.7138 -1.2046
  537MOL0     C74003   3.719   3.332   5.972  0.3962  0.6111 -0.6115
  537MOL0     O74004   3.686   3.266   5.861  0.0159 -0.4450 -0.4506
  537MOL0     C74005   3.763   3.145   5.837 -1.1914  0.7662 -0.7259
  537MOL0     C74006   3.747   3.098   5.697 -0.1715 -0.2571  0.7363
  537MOL0     C74007   3.772   2.950   5.680  0.3722 -0.4624  0.0035
  537MOL0     C74008   3.733   2.901   5.544 -0.3390  0.1672 -0.2323
  537MOL0     C74009   3.704   2.757   5.526  0.2077 -0.3778 -0.0944
  537MOL0     C74010   3.823   2.670   5.495 -0.0935 -0.1400 -0.8270
  537MOL0     C74011   3.788   2.529   5.465 -0.5112 -0.6916 -0.3006
  537MOL0     C74012   3.773   2.433   5.583  0.0713 -0.3483  0.0500
  537MOL0    Cl74013   3.621   2.460   5.688  0.1502 -0.2335 -0.4203
  537MOL0     C74014   3.763   3.469   5.965  0.1186  0.7787 -0.2735
  537MOL0     C74015   3.813   3.530   6.076  1.4401  0.6951  0.0790
  537MOL0     O74016   3.991   3.485   6.483 -0.6889  0.3282 -0.3235
  537MOL0     C74017   4.121   3.580   6.189 -0.4121  0.2914 -0.0570
  537MOL0     C74018   4.234   3.589   6.109 -0.8332  0.2174 -0.6114
  537MOL0     N74019   5.012   3.234   6.011  0.1259 -0.0386 -0.4403
  537MOL0     N74020   5.132   3.207   6.007  0.0455  0.0384 -0.4475
  537MOL0     C74021   5.705   2.319   5.867  0.4088  0.2367  0.2602
  537MOL0     C74022   5.785   2.205   5.844 -0.0483  0.2671 -0.3778
  537MOL0     C74023   6.184   1.955   5.890  1.0723 -0.2225  0.9481
  537MOL0     C74024   6.155   1.901   5.757  0.7889  0.1236 -0.1400
  537MOL0     C74025   6.214   1.783   5.717  0.3088 -0.2084 -0.6538
  537MOL0     C74026   6.325   1.730   5.788 -0.2578 -0.8397 -0.3191
  537MOL0     O74027   6.403   1.640   5.723  0.3248  0.0976  0.6777
  537MOL0     C74028   6.521   1.567   5.776 -0.1128  0.0592  0.4144
  537MOL0     C74029   6.646   1.649   5.730  0.0231  0.2086 -0.1808
  537MOL0     C74030   6.660   1.650   5.581 -0.4354 -0.0214  0.2197
  537MOL0     C74031   6.562   1.741   5.504 -0.5639  0.8085 -0.0762
  537MOL0     C74032   6.615   1.741   5.364  0.6323  0.8934 -0.7516
  537MOL0     C74033   6.667   1.732   5.252  0.6692  0.6544  0.4323
  537MOL0     C74034   6.356   1.785   5.910  0.4626 -0.9494 -0.1894
  537MOL0     C74035   6.283   1.890   5.965  0.9711 -0.0599 -1.0364
  537MOL0     C74036   6.306   1.929   6.109 -0.1698  0.2934  0.2405
  537MOL0     H74037   6.074   2.352   5.934  0.1357  0.3711 -0.2603
  537MOL0     H74038   5.937   2.539   5.987 -1.5200  0.9578  0.2073
  537MOL0     H74039   5.758   2.698   5.982  0.5547 -0.9440  2.0624
  537MOL0     H74040   5.692   2.596   6.110 -3.9393 -2.5431 -0.9747
  537MOL0     H74041   5.525   2.755   5.905 -1.9199  1.6039 -0.5032
  537MOL0     H74042   5.466   2.661   6.051  3.3883 -1.4527  4.8573
  537MOL0     H74043   5.500   2.877   6.152 -1.6482  1.8088 -1.7150
  537MOL0     H74044   5.675   2.864   6.115 -0.3523  0.1203  2.0546
  537MOL0     H74045   5.617   2.963   5.897  0.5359 -1.3132 -0.7936
  537MOL0     H74046   5.449   2.969   5.941  0.8290 -3.2166 -1.1039
  537MOL0     H74047   5.690   3.090   6.096 -0.6806  0.5573  2.6940
  537MOL0     H74048   5.526   3.099   6.144  2.3684 -3.8622  1.9331
  537MOL0     H74049   5.621   3.309   6.043 -2.0878 -0.8056  3.4649
  537MOL0     H74050   5.624   3.245   5.883 -0.8100 -1.1553 -1.6520
  537MOL0     H74051   5.380   3.185   5.898  3.9333 -1.5584 -0.2354
  537MOL0     H74052   5.414   3.357   5.887  0.0471 -0.6658 -1.4186
  537MOL0     H74053   5.356   3.244   6.149  2.8438  1.8227 -0.6464
  537MOL0     H74054   5.394   3.407   6.102  0.5863  1.1373  0.1978
  537MOL0     H74055   5.151   3.528   6.062 -0.0025  0.3486 -0.3833
  537MOL0     H74056   4.818   3.375   5.921 -1.2372  0.5637 -1.1076
  537MOL0     H74057   4.877   3.533   5.964 -0.9871  0.9599  0.7326
  537MOL0     H74058   4.780   3.343   6.187 -1.2420  2.0890  3.1183
  537MOL0     H74059   4.848   3.499   6.218  1.2906 -0.9284  0.1554
  537MOL0     H74060   4.617   3.528   6.232  0.9118 -1.4816  1.1553
  537MOL0     H74061   4.660   3.614   6.089  1.1655  0.8788  1.1032
  537MOL0     H74062   4.612   3.421   5.945  1.7724  1.5028  0.9007
  537MOL0     H74063   4.548   3.330   6.080 -2.1359 -0.1183 -2.7054
  537MOL0     H74064   4.389   3.300   6.216 -1.4303 -1.2064  2.6933
  537MOL0     H74065   4.185   3.295   6.485 -0.6694 -0.2953 -0.6592
  537MOL0     H74066   4.260   3.185   6.374 -0.9210 -1.1445  1.3971
  537MOL0     H74067   4.086   3.235   6.346 -0.1831 -1.7324 -0.4103
  537MOL0     H74068   3.811   3.282   6.306  1.3220  1.1214 -0.0973
  537MOL0     H74069   3.709   3.153   6.095 -1.2493  0.8609 -2.1791
  537MOL0     H74070   3.869   3.161   5.861 -0.5996  0.5291 -2.9382
  537MOL0     H74071   3.726   3.064   5.900  1.0143 -1.0286 -1.5495
  537MOL0     H74072   3.648   3.129   5.664  1.3948  0.9695 -3.3200
  537MOL0     H74073   3.808   3.155   5.627 -1.5789 -2.6981 -2.7264
  537MOL0     H74074   3.706   2.904   5.754  0.6588  0.5757  0.9245
  537MOL0     H74075   3.877   2.926   5.703  1.7045  0.8227 -3.9307
  537MOL0     H74076   3.818   2.933   5.482 -0.3333  0.4579 -0.0764
  537MOL0     H74077   3.639   2.953   5.522 -0.4893  0.0408  0.1077
  537MOL0     H74078   3.649   2.715   5.611 -1.6173 -0.3997 -1.2424
  537MOL0     H74079   3.630   2.748   5.446 -1.9160 -0.6970  1.8057
  537MOL0     H74080   3.882   2.663   5.587 -0.5487 -3.5015 -0.6662
  537MOL0     H74081   3.883   2.728   5.423  0.0869 -0.3712 -0.8642
  537MOL0     H74082   3.877   2.496   5.411 -0.0517  1.9554 -1.3032
  537MOL0     H74083   3.702   2.526   5.397  0.2158 -2.0256 -1.2053
  537MOL0     H74084   3.852   2.429   5.658  0.9110  0.3235 -0.7641
  537MOL0     H74085   3.772   2.331   5.544 -0.3467 -0.7445  1.0861
  537MOL0     H74086   3.761   3.516   5.867  0.6192  0.9619 -0.1988
  537MOL0     H74087   3.847   3.633   6.072  1.1773  0.8190  0.9112
  537MOL0     H74088   4.049   3.658   6.166  0.2407  0.2869 -2.3389
  537MOL0     H74089   4.249   3.667   6.034 -0.4246  0.2580 -0.4910
  537MOL0     H74090   5.600   2.310   5.844  0.8117 -0.9023 -1.3178
  537MOL0     H74091   5.743   2.111   5.810  0.0568 -0.7409  2.0715
  537MOL0     H74092   6.080   1.951   5.697  0.8907 -1.4525 -1.6587
  537MOL0     H74093   6.190   1.747   5.618  1.6611 -0.2597 -0.9866
  537MOL0     H74094   6.519   1.552   5.884  1.2669  0.2147  0.4710
  537MOL0     H74095   6.531   1.472   5.723 -0.3375  1.4727 -2.3987
  537MOL0     H74096   6.734   1.594   5.764 -1.3288 -2.7284 -1.1287
  537MOL0     H74097   6.646   1.749   5.773 -4.1289  0.5770 -0.6397
  537MOL0     H74098   6.767   1.670   5.570  0.7039 -2.9379  3.9164
  537MOL0     H74099   6.648   1.549   5.541  1.1155  0.2906 -1.1070
  537MOL0     H74100   6.552   1.844   5.539  1.2831  1.5575 -1.5460
  537MOL0     H74101   6.463   1.694   5.503  0.0454 -0.5915  1.2278
  537MOL0     H74102   6.691   1.710   5.149 -1.4036 -0.1071  0.0625
  537MOL0     H74103   6.438   1.745   5.968 -1.1653 -0.8237  2.3276
  537MOL0     H74104   6.209   1.940   6.159 -0.5177 -0.9045 -0.1439
  537MOL0     H74105   6.366   1.856   6.163  0.9257 -0.5565 -1.9937
  537MOL0     H74106   6.363   2.022   6.101  0.4461  0.0304  1.4090
  538MOL0     O74107   9.875   7.821   4.532 -0.2902  0.1265  0.1128
  538MOL0     C74108   9.894   7.730   4.457  0.6187 -0.0893 -0.0801
  538MOL0     O74109   9.916   7.605   4.498  0.6391  0.0519  0.3659
  538MOL0     C74110   9.915   7.592   4.640 -0.5525 -0.4840  0.2142
  538MOL0     C74111  10.043   7.568   4.702  0.5527 -0.7057  0.4217
  538MOL0     C74112  10.046   7.558   4.835  0.3490  0.2563 -1.3413
  538MOL0     C74113   9.928   7.568   4.914 -0.7061  1.0053 -0.2614
  538MOL0     O74114   9.937   7.560   5.056  0.1505  0.5691  0.0517
  538MOL0     C74115   9.842   7.477   5.120 -0.3304 -0.0346  0.2299
  538MOL0     C74116   9.901   7.370   5.216  0.5793  0.4679 -0.7889
  538MOL0     C74117   9.780   7.293   5.289  0.0065 -0.1034  1.3040
  538MOL0     C74118   9.810   7.255   5.437 -0.1220 -0.3894  0.3104
  538MOL0     C74119   9.698   7.165   5.492  0.0721 -0.7220  0.3972
  538MOL0     C74120   9.724   7.137   5.650  0.4612 -0.5255 -0.0991
  538MOL0     C74121   9.619   7.055   5.728 -1.0126  0.3289 -0.9989
  538MOL0     C74122   9.476   7.105   5.738  0.6234  0.7032  0.2957
  538MOL0     N74123   9.461   7.246   5.785 -0.0088  0.1788  0.7062
  538MOL0     C74124   9.362   7.329   5.749  0.1218  0.6396  0.1303
  538MOL0     C74125   9.384   7.441   5.809  0.8929 -0.2323  0.1539
  538MOL0     C74126   9.291   7.560   5.806 -0.3769  0.7047 -0.1560
  538MOL0     C74127   9.196   7.558   5.926 -0.0442  0.6054  0.3971
  538MOL0     C74128   9.087   7.459   5.895  0.6692  0.6717  0.5609
  538MOL0     C74129   8.983   7.517   5.802  0.6734 -0.4180  1.4756
  538MOL0     O74130   9.011   7.483   5.667 -0.1274  0.5628  0.6627
  538MOL0     C74131   8.914   7.429   5.579 -0.9605  0.5467 -0.1010
  538MOL0     C74132   8.789   7.381   5.620 -0.7738  0.4573  0.0870
  538MOL0     C74133   8.699   7.310   5.533  0.6515 -0.2570 -0.0618
  538MOL0     C74134   8.572   7.268   5.608  0.0681  0.0210  0.3463
  538MOL0     C74135   8.737   7.287   5.404  0.7954  0.3004 -0.1676
  538MOL0     C74136   8.655   7.225   5.313 -0.8573  1.1482 -0.8425
  538MOL0     O74137   8.709   7.139   5.221 -0.3371 -0.6721  0.1485
  538MOL0     C74138   8.614   7.107   5.125 -0.2989  0.6159  0.3621
  538MOL0     C74139   8.603   7.189   5.011 -0.5089 -0.8731  0.2685
  538MOL0     C74140   8.513   7.160   4.914 -0.3123  1.2859  0.4007
  538MOL0     C74141   8.419   7.052   4.931 -0.6921  1.2694 -0.0356
  538MOL0     O74142   8.348   7.032   4.809  0.0045  0.0971 -0.3433
  538MOL0     C74143   8.208   7.036   4.822 -0.3154  0.5562  0.2551
  538MOL0     C74144   8.142   7.031   4.684  0.1664 -0.2897 -0.7582
  538MOL0     C74145   8.177   7.157   4.601 -0.2227  0.4621  0.4390
  538MOL0     C74146   8.102   7.151   4.469  1.3009  0.4541  0.1457
  538MOL0     C74147   8.125   7.280   4.396 -0.2732  0.1425  0.1727
  538MOL0     C74148   8.270   7.308   4.335  0.4566 -0.1758 -0.3118
  538MOL0     C74149   8.306   7.194   4.233  0.9205  0.0667 -1.0407
  538MOL0     C74150   8.436   7.231   4.167  0.0026 -0.1949  0.2125
  538MOL0    Cl74151   8.445   7.406   4.108 -0.5209  0.2144 -0.0221
  538MOL0     C74152   8.417   6.973   5.047 -0.1066 -0.4777 -0.8486
  538MOL0     C74153   8.520   6.996   5.149  0.4395 -0.5607  0.3954
  538MOL0     O74154   8.542   7.267   5.314 -0.0041 -0.6472 -0.7291
  538MOL0     C74155   8.872   7.318   5.374  0.3725 -1.1837  0.2649
  538MOL0     C74156   8.958   7.386   5.451 -0.3317  0.1681  0.4650
  538MOL0     N74157   9.505   7.431   5.867  0.6064  0.3589 -0.7204
  538MOL0     N74158   9.551   7.316   5.856 -0.1533  0.2792 -0.0726
  538MOL0     C74159   9.802   7.586   4.860  0.0496  0.5186  0.2927
  538MOL0     C74160   9.800   7.605   4.721 -0.0028  0.3149  0.4031
  538MOL0     C74161   9.907   7.757   4.316 -0.3636  0.2164  0.9658
  538MOL0     C74162   9.877   7.659   4.222 -0.1676  0.4440 -0.0370
  538MOL0     C74163   9.881   7.681   4.092 -0.4336 -0.0170  0.0035
  538MOL0     C74164   9.896   7.809   4.044 -0.1806  0.0681 -0.5563
  538MOL0     O74165   9.884   7.812   3.908  0.0954  0.1588 -0.5324
  538MOL0     C74166   9.944   7.928   3.837  0.7628  0.4509 -0.4570
  538MOL0     C74167   9.920   7.906   3.685  0.1788  0.2592 -0.0841
  538MOL0     C74168   9.773   7.895   3.655 -0.0458  0.0594 -0.5003
  538MOL0     C74169   9.695   8.029   3.672 -0.3192 -1.1553 -0.5274
  538MOL0     C74170   9.691   8.128   3.557 -0.6788  0.3764 -0.1393
  538MOL0     C74171   9.691   8.221   3.474 -0.1464 -0.3423 -0.4628
  538MOL0     C74172   9.933   7.908   4.129 -0.3563 -0.4075  0.6731
  538MOL0     C74173   9.943   7.888   4.266 -0.1578  0.3566 -0.7503
  538MOL0     C74174   9.989   7.997   4.349 -1.2782 -0.6889 -0.9876
  538MOL0     H74175  10.122   7.543   4.632 -0.2084  0.2142 -0.8368
  538MOL0     H74176  10.134   7.528   4.891 -1.2830 -0.5828  0.9122
  538MOL0     H74177   9.764   7.426   5.062  0.6186 -2.3231  0.8638
  538MOL0     H74178   9.770   7.546   5.166 -1.2202 -0.4051 -0.5795
  538MOL0     H74179   9.963   7.296   5.165  1.8984  0.3965  0.8260
  538MOL0     H74180   9.975   7.413   5.284  1.8677 -0.4145 -1.6010
  538MOL0     H74181   9.694   7.359   5.274  0.7420  0.2199 -2.6436
  538MOL0     H74182   9.768   7.203   5.228  5.9902 -0.3574 -0.1323
  538MOL0     H74183   9.908   7.206   5.443  1.5803  2.8999  3.4260
  538MOL0     H74184   9.810   7.354   5.482  1.2019  0.5301 -1.5882
  538MOL0     H74185   9.728   7.067   5.452  0.5972 -0.5510  0.3590
  538MOL0     H74186   9.597   7.205   5.480  0.6420  0.8011  0.5665
  538MOL0     H74187   9.817   7.083   5.670 -0.7637 -2.4277  0.7834
  538MOL0     H74188   9.724   7.234   5.701 -2.7636  0.0875 -1.0186
  538MOL0     H74189   9.657   7.040   5.829 -3.4820 -2.1918 -0.3191
  538MOL0     H74190   9.610   6.953   5.689 -0.3424  0.2193 -0.8608
  538MOL0     H74191   9.446   7.107   5.633 -0.0437  2.4331  0.4800
  538MOL0     H74192   9.414   7.040   5.800 -1.1155  1.5336 -0.5216
  538MOL0     H74193   9.282   7.295   5.683  0.3391 -1.7425  0.9780
  538MOL0     H74194   9.242   7.573   5.709 -4.0612 -0.8496  1.3154
  538MOL0     H74195   9.353   7.650   5.812 -1.4379  1.3788  1.2707
  538MOL0     H74196   9.248   7.535   6.020  1.8567  1.3962 -0.4110
  538MOL0     H74197   9.160   7.661   5.938  0.8720  1.5104 -3.2871
  538MOL0     H74198   9.117   7.355   5.885 -0.9029  0.2209  0.3838
  538MOL0     H74199   9.026   7.449   5.985 -3.6773 -0.6520 -2.2167
  538MOL0     H74200   8.883   7.483   5.831  0.0855  1.8397  2.3247
  538MOL0     H74201   8.955   7.622   5.816 -2.3398 -1.2934  2.9443
  538MOL0     H74202   8.755   7.394   5.723  2.9616 -1.1610  1.7017
  538MOL0     H74203   8.504   7.354   5.600 -0.6292 -0.1434  3.1520
  538MOL0     H74204   8.583   7.259   5.717  0.3227  2.0151  0.5246
  538MOL0     H74205   8.537   7.171   5.572  1.3835 -0.1112 -0.6070
  538MOL0     H74206   8.665   7.276   4.991 -1.4451 -0.2564  0.0074
  538MOL0     H74207   8.517   7.232   4.832 -0.4004  0.1031 -0.6764
  538MOL0     H74208   8.178   6.956   4.891  1.0922  2.4318  3.2606
  538MOL0     H74209   8.180   7.133   4.863 -1.7879  1.3550 -2.3899
  538MOL0     H74210   8.166   6.939   4.629 -0.6449 -0.2767 -1.1437
  538MOL0     H74211   8.034   7.031   4.698 -0.5480  2.4859 -4.7147
  538MOL0     H74212   8.283   7.172   4.579  0.4136  0.3734  3.1481
  538MOL0     H74213   8.135   7.234   4.665 -1.0305  0.3898  0.0127
  538MOL0     H74214   7.998   7.136   4.499  1.3591  0.1867  0.2166
  538MOL0     H74215   8.131   7.070   4.402  0.2944  2.0780 -2.3953
  538MOL0     H74216   8.054   7.293   4.313  0.5265 -5.4908 -1.7815
  538MOL0     H74217   8.091   7.368   4.452 -3.3283 -0.3140 -0.8051
  538MOL0     H74218   8.347   7.322   4.411 -0.7665 -0.1326  0.9754
  538MOL0     H74219   8.257   7.409   4.295  0.0659  1.6653  3.9024
  538MOL0     H74220   8.228   7.181   4.158 -2.8931  2.4758  2.0959
  538MOL0     H74221   8.310   7.099   4.288 -0.2933  1.7464  2.2908
  538MOL0     H74222   8.451   7.162   4.083 -1.6955  1.6592 -1.7302
  538MOL0     H74223   8.521   7.231   4.236  0.2370  1.3469 -0.0430
  538MOL0     H74224   8.356   6.884   5.040 -1.0664  0.2932 -4.3881
  538MOL0     H74225   8.531   6.946   5.244 -0.2443  0.2628  0.9233
  538MOL0     H74226   8.906   7.285   5.276 -2.4998 -3.3912 -0.1332
  538MOL0     H74227   9.053   7.409   5.404 -1.3992  3.0212 -0.5104
  538MOL0     H74228   9.719   7.583   4.931 -0.3221 -0.6983 -0.1679
  538MOL0     H74229   9.709   7.629   4.667 -0.1680 -0.3496  0.3712
  538MOL0     H74230   9.873   7.556   4.256  2.2826 -0.0836 -1.1008
  538MOL0     H74231   9.864   7.592   4.033 -2.0887 -1.4604  2.4556
  538MOL0     H74232   9.907   8.025   3.871 -0.4942  0.4125 -1.6194
  538MOL0     H74233  10.046   7.942   3.874  0.6006  0.5947 -0.0551
  538MOL0     H74234   9.974   7.814   3.664  5.2328  2.1462  2.8144
  538MOL0     H74235   9.973   7.983   3.628  1.0470 -0.7143 -0.6054
  538MOL0     H74236   9.756   7.849   3.558  2.5286 -3.4851  0.5419
  538MOL0     H74237   9.718   7.825   3.720 -0.4100  0.2735 -0.5727
  538MOL0     H74238   9.740   8.078   3.759 -1.1821  0.6028 -1.0270
  538MOL0     H74239   9.589   8.009   3.693 -0.3765  0.0767  0.4690
  538MOL0     H74240   9.674   8.301   3.406 -0.4795  1.0446  1.1654
  538MOL0     H74241   9.965   8.005   4.092  1.0656 -0.3004  2.1155
  538MOL0     H74242   9.904   8.027   4.410 -0.0839  0.9401 -0.0572
  538MOL0     H74243  10.070   7.964   4.416 -1.3219 -0.6444 -0.9132
  538MOL0     H74244  10.029   8.075   4.283  0.8029 -1.9552 -1.3379
  539MOL0     O74245   9.706   5.040  11.117 -0.2075 -0.3815  0.8554
  539MOL0     C74246   9.609   4.969  11.119 -0.0168  0.5489 -0.3495
  539MOL0     O74247   9.476   5.009  11.118 -0.8741  0.2349  0.4061
  539MOL0     C74248   9.459   5.143  11.086  0.1278  0.5329 -0.5261
  539MOL0     C74249   9.426   5.241  11.190 -0.0435 -0.6493  0.6019
  539MOL0     C74250   9.400   5.373  11.156 -0.3327  0.4016 -0.1238
  539MOL0     C74251   9.403   5.411  11.015  0.2073 -0.0113 -0.3630
  539MOL0     O74252   9.389   5.536  10.963  0.7064  0.2000 -0.1805
  539MOL0     C74253   9.336   5.644  11.037 -0.2437 -0.5513  0.1137
  539MOL0     C74254   9.335   5.740  10.920  0.5326 -0.5815  0.0805
  539MOL0     C74255   9.288   5.884  10.963 -0.8174 -0.8199  0.2951
  539MOL0     C74256   9.330   5.996  10.861  0.6693  0.4128 -0.0883
  539MOL0     C74257   9.265   6.128  10.890 -0.0174 -0.1589 -1.3757
  539MOL0     C74258   9.315   6.244  10.803 -0.6257  0.2945 -0.1923
  539MOL0     C74259   9.463   6.260  10.783 -0.4083  0.4093 -0.1217
  539MOL0     C74260   9.537   6.264  10.915 -0.3316 -0.8602 -0.1034
  539MOL0     N74261   9.491   6.372  10.999 -0.3047  0.1443 -0.0016
  539MOL0     C74262   9.523   6.503  10.990  0.2083  0.4924  0.9288
  539MOL0     C74263   9.468   6.556  11.104 -0.9299 -0.9279  0.2080
  539MOL0     C74264   9.503   6.691  11.146  0.2396  0.4530  0.7583
  539MOL0     C74265   9.632   6.724  11.222 -0.3139  0.1654 -0.5420
  539MOL0     C74266   9.765   6.667  11.173  0.5301  0.0917 -0.2907
  539MOL0     C74267   9.863   6.619  11.282 -0.0546 -0.2736 -1.0201
  539MOL0     O74268   9.908   6.733  11.366  0.7481 -0.3858  0.0938
  539MOL0     C74269  10.018   6.808  11.322  0.2942 -0.2561 -0.0552
  539MOL0     C74270  10.067   6.918  11.395 -0.0645 -0.6632 -0.6439
  539MOL0     C74271  10.175   7.000  11.364  0.4291  0.7851  0.6081
  539MOL0     C74272  10.227   7.097  11.467  0.6189  0.2652 -0.7650
  539MOL0     C74273  10.238   6.981  11.233  1.2496 -0.0439  0.4317
  539MOL0     C74274  10.335   7.070  11.164  0.4504  0.8944 -0.8915
  539MOL0     O74275  10.400   7.014  11.064  0.1724 -0.2863 -0.0198
  539MOL0     C74276  10.481   7.086  10.980 -0.2980  0.5947 -0.2800
  539MOL0     C74277  10.514   7.018  10.862 -0.1167  0.6901 -0.1997
  539MOL0     C74278  10.587   7.081  10.755  0.5270  0.7842 -0.4932
  539MOL0     C74279  10.618   7.212  10.765 -0.3876  0.1849  0.1809
  539MOL0     O74280  10.643   7.281  10.651 -0.0956 -0.2836 -0.1439
  539MOL0     C74281  10.764   7.259  10.577  0.5695 -0.1266 -1.0034
  539MOL0     C74282  10.725   7.190  10.447  0.7292 -0.0950  1.1172
  539MOL0     C74283  10.843   7.157  10.357  0.0746  0.0794  0.5759
  539MOL0     C74284  10.932   7.053  10.425 -0.4051 -0.2346 -0.4770
  539MOL0     C74285  11.032   6.974  10.330  0.5773 -0.4053 -0.7476
  539MOL0     C74286  11.123   7.069  10.260  0.6014  0.0637  0.6864
  539MOL0     C74287  11.232   7.029  10.159  0.9322 -1.1764 -0.3354
  539MOL0     C74288  11.301   7.151  10.097 -0.4194 -0.1158 -0.0058
  539MOL0    Cl74289  11.408   7.230  10.222 -0.1148  0.0904 -0.2427
  539MOL0     C74290  10.583   7.287  10.877 -0.2017 -0.2401  0.7831
  539MOL0     C74291  10.523   7.220  10.987  0.8838 -0.1967 -0.5136
  539MOL0     O74292  10.343   7.185  11.206  0.0358 -0.0013  1.0172
  539MOL0     C74293  10.196   6.865  11.166 -0.5445  0.6296 -0.9448
  539MOL0     C74294  10.098   6.784  11.211  0.7048  0.3456 -1.0108
  539MOL0     N74295   9.393   6.464  11.173 -0.4422  0.2909 -0.1007
  539MOL0     N74296   9.400   6.364  11.101  0.7892 -0.2229 -0.8150
  539MOL0     C74297   9.434   5.312  10.925 -0.3318 -0.2424 -0.1011
  539MOL0     C74298   9.461   5.179  10.951  0.9479 -0.4994 -0.1613
  539MOL0     C74299   9.637   4.818  11.119  0.0766  0.1847 -0.5663
  539MOL0     C74300   9.522   4.727  11.110 -0.1929 -0.3367 -0.1616
  539MOL0     C74301   9.527   4.593  11.096 -0.2454 -0.5944 -0.4412
  539MOL0     C74302   9.650   4.533  11.104 -0.8558 -0.1601 -0.9669
  539MOL0     O74303   9.677   4.405  11.061 -0.3569 -0.1222 -0.0711
  539MOL0     C74304   9.621   4.312  11.166 -0.5426  0.2471  0.3658
  539MOL0     C74305   9.615   4.166  11.135  0.4707  0.5348  0.1309
  539MOL0     C74306   9.473   4.133  11.081 -0.4458 -0.5209  0.0151
  539MOL0     C74307   9.438   4.211  10.943  0.0503 -0.1646 -0.4774
  539MOL0     C74308   9.319   4.155  10.886  0.1714 -0.4178 -0.1278
  539MOL0     C74309   9.210   4.113  10.848 -0.1720 -0.2716  0.0379
  539MOL0     C74310   9.766   4.614  11.128 -1.0423  0.1388 -0.0930
  539MOL0     C74311   9.758   4.751  11.131 -0.2080  0.1013 -0.3474
  539MOL0     C74312   9.895   4.824  11.139 -0.0220 -0.5795  0.1326
  539MOL0     H74313   9.425   5.210  11.294  2.3876  1.8431  1.5061
  539MOL0     H74314   9.381   5.440  11.240 -2.1643 -4.0200  3.3737
  539MOL0     H74315   9.395   5.661  11.128  1.2394 -1.8136 -0.5719
  539MOL0     H74316   9.230   5.628  11.060 -0.8157  1.6846 -0.6474
  539MOL0     H74317   9.434   5.737  10.874  0.6264  0.2750  0.2056
  539MOL0     H74318   9.261   5.708  10.846  0.2031  0.0601  0.1245
  539MOL0     H74319   9.181   5.867  10.978 -0.2673 -3.0262  2.2017
  539MOL0     H74320   9.332   5.911  11.060 -0.2167 -0.6824 -0.0052
  539MOL0     H74321   9.440   6.000  10.863  0.8715 -2.6748  0.6683
  539MOL0     H74322   9.318   5.959  10.758  2.8103  1.9051 -0.9477
  539MOL0     H74323   9.286   6.154  10.994  2.4653 -0.7378 -1.6795
  539MOL0     H74324   9.157   6.118  10.872 -0.7050 -0.7493  2.4155
  539MOL0     H74325   9.270   6.245  10.704 -1.2752  3.6523  0.0017
  539MOL0     H74326   9.277   6.334  10.852 -0.0556  0.2207  0.4037
  539MOL0     H74327   9.483   6.343  10.716  1.0070 -2.9840 -4.3601
  539MOL0     H74328   9.515   6.181  10.728  0.1832  0.9861 -0.4036
  539MOL0     H74329   9.535   6.167  10.965  0.9729 -3.7908 -5.0153
  539MOL0     H74330   9.644   6.285  10.907 -0.5284  0.5442  0.6712
  539MOL0     H74331   9.601   6.542  10.925  1.6854 -1.8398  1.1517
  539MOL0     H74332   9.415   6.722  11.203 -0.3231 -0.2141  0.2733
  539MOL0     H74333   9.498   6.751  11.055 -5.1113  0.6629  0.8379
  539MOL0     H74334   9.643   6.828  11.251  1.2299  0.5458 -2.3046
  539MOL0     H74335   9.613   6.676  11.318 -0.0362  0.8531 -0.1394
  539MOL0     H74336   9.734   6.579  11.115 -0.6388 -1.6364  2.7275
  539MOL0     H74337   9.814   6.741  11.109  1.0216 -0.4611 -0.5654
  539MOL0     H74338   9.799   6.552  11.340 -0.1721 -0.3839 -1.2781
  539MOL0     H74339   9.949   6.557  11.254  1.8745  0.0007  3.4341
  539MOL0     H74340  10.010   6.928  11.487 -3.7052 -2.3381 -2.5366
  539MOL0     H74341  10.186   7.195  11.441 -0.9073  0.0493  0.6670
  539MOL0     H74342  10.333   7.122  11.471  0.8004 -0.6097  0.2394
  539MOL0     H74343  10.200   7.070  11.569 -0.4968 -2.6832 -1.7344
  539MOL0     H74344  10.477   6.920  10.836  3.0517 -0.2440 -1.6148
  539MOL0     H74345  10.588   7.032  10.658 -0.7896  1.0191 -0.6469
  539MOL0     H74346  10.822   7.350  10.563 -0.7958  1.0783  0.7952
  539MOL0     H74347  10.830   7.188  10.629 -0.7541 -1.4777 -1.0826
  539MOL0     H74348  10.675   7.095  10.466  0.0166  0.0518  0.1269
  539MOL0     H74349  10.659   7.257  10.390  2.2672  1.1447  0.7241
  539MOL0     H74350  10.906   7.243  10.331  2.5854 -1.5513  0.9511
  539MOL0     H74351  10.795   7.110  10.271 -1.0421  1.9904  0.0834
  539MOL0     H74352  10.868   6.981  10.477  0.2473 -0.4802  0.0118
  539MOL0     H74353  11.001   7.102  10.495 -0.8183  1.5777 -1.2656
  539MOL0     H74354  11.089   6.900  10.388  1.6197  3.0235  3.1178
  539MOL0     H74355  10.972   6.917  10.259  0.3901  1.2183 -1.9431
  539MOL0     H74356  11.172   7.130  10.337 -0.9793  1.9462  0.2811
  539MOL0     H74357  11.063   7.142  10.205  0.4280 -0.6440 -0.0861
  539MOL0     H74358  11.194   6.974  10.072  0.2708  0.6748 -1.2609
  539MOL0     H74359  11.308   6.969  10.211  0.8992  0.1594  1.3348
  539MOL0     H74360  11.234   7.228  10.057  1.1587  1.0493 -0.5336
  539MOL0     H74361  11.367   7.114  10.018 -2.6227 -3.2258 -0.5594
  539MOL0     H74362  10.610   7.390  10.855 -0.7417 -0.5022 -1.2484
  539MOL0     H74363  10.504   7.282  11.074  0.9074 -0.5906 -0.2277
  539MOL0     H74364  10.253   6.824  11.083 -0.5749 -3.2046  0.7253
  539MOL0     H74365  10.068   6.697  11.153 -3.1925  0.7940 -0.0023
  539MOL0     H74366   9.453   5.354  10.827  1.9062  1.1575  0.8464
  539MOL0     H74367   9.454   5.090  10.889 -1.3593  0.4679 -1.3934
  539MOL0     H74368   9.424   4.772  11.099 -0.3109 -0.5906 -0.1716
  539MOL0     H74369   9.438   4.531  11.084 -0.7604  0.0456  0.0151
  539MOL0     H74370   9.687   4.335  11.251  1.4470  3.3703 -1.7977
  539MOL0     H74371   9.522   4.336  11.206 -0.3588  0.0274  0.9681
  539MOL0     H74372   9.629   4.096  11.218  0.6016 -0.8020 -0.9898
  539MOL0     H74373   9.694   4.141  11.065  1.4448  2.1787  0.5987
  539MOL0     H74374   9.472   4.025  11.066 -1.3527 -0.5355  0.1335
  539MOL0     H74375   9.403   4.148  11.163 -1.2417 -0.4324 -0.6711
  539MOL0     H74376   9.528   4.189  10.885 -0.3057 -4.6368  0.2883
  539MOL0     H74377   9.443   4.319  10.956  2.0330 -0.2219 -0.4186
  539MOL0     H74378   9.128   4.067  10.798 -0.2211 -1.1937  0.9415
  539MOL0     H74379   9.861   4.562  11.116 -0.6381  1.3918 -3.3545
  539MOL0     H74380   9.898   4.883  11.232  2.2393  2.4719 -1.6621
  539MOL0     H74381   9.972   4.752  11.111 -0.1650 -1.2166  1.3081
  539MOL0     H74382   9.903   4.899  11.059  2.9103  0.7563  1.5032
  540MOL0     O74383   4.319  11.191   2.716  0.8407  0.4173  0.1301
  540MOL0     C74384   4.236  11.250   2.653 -0.3579  0.3314  0.7726
  540MOL0     O74385   4.160  11.349   2.703  1.0306 -0.8448  0.2172
  540MOL0     C74386   4.175  11.410   2.824 -0.2231 -0.8292 -0.2946
  540MOL0     C74387   4.073  11.503   2.861  0.2075 -0.7056 -0.2075
  540MOL0     C74388   4.081  11.584   2.976  0.1972  0.0073 -0.3135
  540MOL0     C74389   4.188  11.562   3.078  0.5683  0.7303  0.7741
  540MOL0     O74390   4.195  11.630   3.188 -0.1483  0.0155 -0.1701
  540MOL0     C74391   4.076  11.634   3.269 -0.3847 -0.3501 -0.4288
  540MOL0     C74392   4.110  11.658   3.416  0.7965  0.9326 -0.0017
  540MOL0     C74393   4.167  11.527   3.480 -0.2155 -0.0645 -0.3119
  540MOL0     C74394   4.147  11.527   3.631  0.5183  0.2097 -0.1788
  540MOL0     C74395   4.218  11.409   3.701 -0.2782  0.3388 -0.6760
  540MOL0     C74396   4.188  11.267   3.651  0.1373  0.2487  0.2550
  540MOL0     C74397   4.248  11.148   3.738  0.5198 -0.5574  0.0898
  540MOL0     C74398   4.399  11.159   3.738  0.7958  0.1260  0.2492
  540MOL0     N74399   4.464  11.034   3.775 -0.0953 -0.1098  0.4433
  540MOL0     C74400   4.449  10.980   3.895 -0.0344 -0.3836 -0.5227
  540MOL0     C74401   4.446  10.854   3.886 -0.5786 -0.3593  0.1976
  540MOL0     C74402   4.409  10.750   3.988 -0.2231 -0.3743  0.0665
  540MOL0     C74403   4.261  10.766   4.020  0.9395  0.0662  0.5127
  540MOL0     C74404   4.215  10.646   4.105  0.6009  0.0877 -0.1748
  540MOL0     C74405   4.263  10.500   4.072 -0.0677 -0.7672  0.1470
  540MOL0     O74406   4.166  10.414   4.142 -0.7147  0.2562  0.0833
  540MOL0     C74407   4.065  10.351   4.074 -0.1525  0.7803 -0.0677
  540MOL0     C74408   4.028  10.217   4.114  0.2216 -0.5300  1.1336
  540MOL0     C74409   3.922  10.143   4.046  0.5994  0.2979 -0.6133
  540MOL0     C74410   3.889  10.005   4.102 -0.1623  0.0904 -0.6481
  540MOL0     C74411   3.860  10.206   3.936  0.2694 -0.1467 -0.0625
  540MOL0     C74412   3.750  10.142   3.856  0.5016  0.2614 -0.3971
  540MOL0     O74413   3.718  10.196   3.730 -0.2803 -0.4031 -0.3089
  540MOL0     C74414   3.609  10.150   3.661 -0.6589  1.0534  0.2667
  540MOL0     C74415   3.629  10.090   3.536 -0.5228  0.7376 -0.6593
  540MOL0     C74416   3.518  10.037   3.463 -1.0499  0.0445  0.8963
  540MOL0     C74417   3.386  10.038   3.510  0.0068  0.3195 -0.1203
  540MOL0     O74418   3.283   9.978   3.445  0.0787 -0.6133 -0.4006
  540MOL0     C74419   3.283   9.835   3.451 -0.3366  0.5516 -0.2872
  540MOL0     C74420   3.144   9.778   3.437  0.2126  0.6111  0.0412
  540MOL0     C74421   3.159   9.626   3.482 -0.3924 -0.3691 -0.1217
  540MOL0     C74422   3.027   9.550   3.462  0.4691 -0.4185 -0.3366
  540MOL0     C74423   3.020   9.406   3.518 -0.9375  1.0966 -0.4249
  540MOL0     C74424   3.149   9.312   3.495  0.1802 -0.0880 -0.2581
  540MOL0     C74425   3.118   9.171   3.536 -0.2076  1.0459 -0.3900
  540MOL0     C74426   3.245   9.083   3.513  0.0438 -0.2211  0.5179
  540MOL0    Cl74427   3.379   9.123   3.635  0.5572 -0.1442  0.2281
  540MOL0     C74428   3.365  10.101   3.634  0.2769  0.9255 -0.1750
  540MOL0     C74429   3.478  10.143   3.710  0.1244  0.0317 -0.4922
  540MOL0     O74430   3.687  10.055   3.920  0.1262 -0.4120 -0.7651
  540MOL0     C74431   3.899  10.337   3.895  0.2174  0.1628  0.0346
  540MOL0     C74432   4.000  10.404   3.960 -1.3137 -0.0355 -0.1832
  540MOL0     N74433   4.468  10.826   3.757  0.1191  0.0888  0.8872
  540MOL0     N74434   4.473  10.940   3.681  0.9490  1.3489  0.0321
  540MOL0     C74435   4.284  11.461   3.041  0.2352 -0.2805 -0.1569
  540MOL0     C74436   4.278  11.393   2.917 -0.5877  0.6685  0.0079
  540MOL0     C74437   4.208  11.196   2.510 -0.1031 -0.3748  0.3087
  540MOL0     C74438   4.293  11.102   2.451 -0.7313 -0.3215  0.2465
  540MOL0     C74439   4.268  11.039   2.324  0.0429 -1.1363 -0.0777
  540MOL0     C74440   4.156  11.069   2.249  0.7665 -0.1769 -1.3566
  540MOL0     O74441   4.138  11.020   2.123 -0.1843 -0.1495  0.0702
  540MOL0     C74442   4.244  10.945   2.062  0.9115 -0.3865 -0.2384
  540MOL0     C74443   4.211  10.903   1.918  0.5286 -0.4384 -0.4814
  540MOL0     C74444   4.209  11.018   1.813 -0.1352  0.0713  0.3264
  540MOL0     C74445   4.177  10.948   1.676 -0.0020 -0.0417  0.0530
  540MOL0     C74446   4.294  10.901   1.598  0.0237  0.5655 -0.3496
  540MOL0     C74447   4.394  10.862   1.546 -1.0891 -0.4164 -0.2008
  540MOL0     C74448   4.064  11.154   2.305 -0.5183  0.6107 -0.3497
  540MOL0     C74449   4.089  11.219   2.432 -0.8142  0.6551 -0.8758
  540MOL0     C74450   3.984  11.313   2.480 -0.2769  0.2081  0.3030
  540MOL0     H74451   3.997  11.514   2.785 -3.1298  1.9910  3.1637
  540MOL0     H74452   4.005  11.657   3.002  0.6408  0.5916 -0.6480
  540MOL0     H74453   4.027  11.537   3.254  2.9262 -1.9591 -1.9668
  540MOL0     H74454   4.007  11.715   3.244 -0.3582  0.2449  1.2671
  540MOL0     H74455   4.195  11.727   3.420 -0.3222  2.6394 -2.9560
  540MOL0     H74456   4.024  11.706   3.464 -0.9862  0.7115 -2.7517
  540MOL0     H74457   4.122  11.444   3.426  0.2371  2.1638 -4.5588
  540MOL0     H74458   4.275  11.525   3.464 -0.2041  3.2386 -1.4142
  540MOL0     H74459   4.198  11.610   3.681  1.3728 -0.9807  0.9640
  540MOL0     H74460   4.042  11.516   3.656  1.1320  0.6859  3.0048
  540MOL0     H74461   4.193  11.408   3.807  0.2281 -0.2321 -0.5590
  540MOL0     H74462   4.326  11.428   3.700  0.1531 -1.7377  0.9233
  540MOL0     H74463   4.081  11.266   3.627  0.3447  2.1239 -0.9653
  540MOL0     H74464   4.238  11.263   3.554  0.3746 -0.4839  0.4001
  540MOL0     H74465   4.208  11.057   3.693 -2.0350 -0.0265  1.0999
  540MOL0     H74466   4.205  11.159   3.838 -4.0858  1.3706 -1.8137
  540MOL0     H74467   4.443  11.185   3.641 -0.2466 -2.1911 -0.9355
  540MOL0     H74468   4.428  11.238   3.807 -1.2379  0.0380  1.2760
  540MOL0     H74469   4.414  11.026   3.987 -1.6917  1.0776 -1.8108
  540MOL0     H74470   4.465  10.782   4.076  1.1854  2.8789 -1.8442
  540MOL0     H74471   4.441  10.649   3.958  0.6733  0.0416 -0.4243
  540MOL0     H74472   4.243  10.867   4.059  0.3069 -0.0704  0.5888
  540MOL0     H74473   4.185  10.764   3.941  0.0121  0.6399  1.3651
  540MOL0     H74474   4.231  10.665   4.211 -0.5639  0.0677  0.0231
  540MOL0     H74475   4.105  10.650   4.099  0.6125  0.1021 -0.3656
  540MOL0     H74476   4.279  10.471   3.968 -0.3020 -2.9896  0.6672
  540MOL0     H74477   4.359  10.477   4.121 -0.9470 -0.0413  2.3389
  540MOL0     H74478   4.092  10.165   4.185  0.2149 -0.8096  0.9374
  540MOL0     H74479   3.896   9.936   4.018  0.3835 -0.5436 -0.0907
  540MOL0     H74480   3.787  10.007   4.141 -0.1043  0.1956 -0.4958
  540MOL0     H74481   3.954   9.967   4.182 -2.6892 -1.2882  0.8671
  540MOL0     H74482   3.728  10.096   3.494 -0.2213 -2.0195 -0.5395
  540MOL0     H74483   3.545   9.997   3.366 -4.1643 -0.1823  0.0023
  540MOL0     H74484   3.350   9.800   3.372 -0.3719  1.4451 -0.7272
  540MOL0     H74485   3.328   9.793   3.542  1.3669 -1.3408 -1.9165
  540MOL0     H74486   3.069   9.818   3.506 -1.3213 -1.5205 -0.3119
  540MOL0     H74487   3.106   9.786   3.334 -1.3197  0.4862  0.5761
  540MOL0     H74488   3.183   9.628   3.589  0.5890  2.5016 -0.2881
  540MOL0     H74489   3.234   9.574   3.423 -0.2667 -2.5221  1.8193
  540MOL0     H74490   3.018   9.548   3.353  0.6666  2.6929 -0.5028
  540MOL0     H74491   2.948   9.608   3.510  0.9510 -0.7258  0.8779
  540MOL0     H74492   3.002   9.409   3.626 -0.3975  0.8853 -0.3272
  540MOL0     H74493   2.927   9.357   3.486 -1.4865  0.1212  2.3236
  540MOL0     H74494   3.224   9.352   3.564 -0.9389  0.6251  0.5789
  540MOL0     H74495   3.187   9.308   3.393 -0.4118  2.2073 -0.6220
  540MOL0     H74496   3.036   9.148   3.467 -0.1495  2.3710 -0.9134
  540MOL0     H74497   3.104   9.155   3.644 -0.7197  2.2450 -0.2636
  540MOL0     H74498   3.292   9.088   3.414  0.8980 -2.8609  0.7188
  540MOL0     H74499   3.234   8.975   3.520  0.8217 -0.3052  0.5267
  540MOL0     H74500   3.267  10.100   3.679  0.4456 -1.9540  0.2827
  540MOL0     H74501   3.461  10.169   3.814 -1.2835 -0.9041 -0.4625
  540MOL0     H74502   3.867  10.375   3.798  2.4368 -2.0695 -1.7120
  540MOL0     H74503   4.022  10.505   3.929 -1.9119 -0.4135 -1.8973
  540MOL0     H74504   4.365  11.436   3.109  2.2933  1.3709 -1.8404
  540MOL0     H74505   4.349  11.310   2.920 -0.8277  0.4800  1.3936
  540MOL0     H74506   4.387  11.074   2.496  0.4339  0.7742 -1.4006
  540MOL0     H74507   4.346  10.971   2.293  2.0008  1.3204 -0.9212
  540MOL0     H74508   4.336  11.004   2.065  0.6360  0.0154  0.3814
  540MOL0     H74509   4.278  10.859   2.120  0.0621 -0.3473  0.3444
  540MOL0     H74510   4.118  10.846   1.914  1.8079 -2.7636  0.5699
  540MOL0     H74511   4.272  10.821   1.882 -0.1990 -0.9532 -0.5581
  540MOL0     H74512   4.146  11.107   1.823  0.0193  0.7882 -3.5025
  540MOL0     H74513   4.307  11.066   1.820 -0.6263  1.2100 -0.3282
  540MOL0     H74514   4.123  11.010   1.605  2.1121  1.4351 -0.3548
  540MOL0     H74515   4.112  10.863   1.700  1.0163 -0.6189  0.8559
  540MOL0     H74516   4.478  10.830   1.487  1.9424  0.1777  3.4361
  540MOL0     H74517   3.980  11.190   2.249 -0.8274  3.6692  1.8559
  540MOL0     H74518   3.952  11.281   2.580  2.4018 -0.6459  0.9649
  540MOL0     H74519   4.024  11.414   2.492 -1.0805  0.3472  2.2265
  540MOL0     H74520   3.900  11.299   2.411  1.4506 -2.2048 -1.4858
  541MOL0     O74521   3.405   8.009   5.683  0.6168 -0.1575  0.5958
  541MOL0     C74522   3.349   7.917   5.626  0.4164 -1.2576  0.0918
  541MOL0     O74523   3.365   7.869   5.495 -0.0676 -0.2340 -0.4707
  541MOL0     C74524   3.437   7.933   5.393 -0.3224  0.0909 -0.7810
  541MOL0     C74525   3.493   7.856   5.293 -0.9343  0.1411 -0.2579
  541MOL0     C74526   3.571   7.921   5.195 -0.0257 -0.7612  0.2154
  541MOL0     C74527   3.579   8.065   5.184 -0.2715 -0.2074 -0.0742
  541MOL0     O74528   3.640   8.118   5.074 -0.6574  1.0842 -0.2740
  541MOL0     C74529   3.649   8.251   5.048  0.4152 -0.5332 -0.3251
  541MOL0     C74530   3.729   8.280   4.918  0.0567 -0.1959  0.3267
  541MOL0     C74531   3.880   8.299   4.937 -0.8536 -0.5299  0.1952
  541MOL0     C74532   3.963   8.179   4.984  0.1695 -0.5031 -0.1698
  541MOL0     C74533   3.940   8.039   4.919  0.4223  0.6491  0.1245
  541MOL0     C74534   4.033   7.949   4.998  0.0947 -0.8889  0.5094
  541MOL0     C74535   4.011   7.810   4.966 -0.4059  0.1843  0.4138
  541MOL0     C74536   4.142   7.728   4.985 -0.0630  0.2184  0.5002
  541MOL0     N74537   4.113   7.579   4.977 -0.7703  0.1257  0.1383
  541MOL0     C74538   4.154   7.503   4.867 -0.1472  0.4520  1.0215
  541MOL0     C74539   4.122   7.377   4.892 -0.1840  0.1028  0.0156
  541MOL0     C74540   4.149   7.273   4.785 -0.6969  0.3810  0.1212
  541MOL0     C74541   4.299   7.255   4.769  0.5843 -0.1599  0.5530
  541MOL0     C74542   4.337   7.198   4.635 -0.7320 -1.0696 -0.3957
  541MOL0     C74543   4.276   7.060   4.614 -0.0715  0.7363 -0.2404
  541MOL0     O74544   4.161   7.059   4.530  0.0617 -0.7898 -0.3934
  541MOL0     C74545   4.167   6.998   4.408 -0.2577  0.5764 -0.5664
  541MOL0     C74546   4.055   6.951   4.350 -0.0551  0.0618  0.3023
  541MOL0     C74547   4.060   6.873   4.231 -0.1711  0.0974 -0.5180
  541MOL0     C74548   3.933   6.827   4.183  0.8021 -0.3161  0.0976
  541MOL0     C74549   4.189   6.851   4.163  0.4717 -1.1862 -0.4252
  541MOL0     C74550   4.209   6.773   4.037 -0.2940 -0.0075 -0.0495
  541MOL0     O74551   4.337   6.730   4.007 -0.1373  0.5810 -0.2809
  541MOL0     C74552   4.358   6.626   3.913 -0.1746 -0.0624 -0.4888
  541MOL0     C74553   4.268   6.518   3.900  0.3393 -0.2808  0.0785
  541MOL0     C74554   4.305   6.405   3.820  0.4036 -1.0370 -0.3937
  541MOL0     C74555   4.431   6.404   3.750  0.2958  0.0175  0.3012
  541MOL0     O74556   4.453   6.286   3.677 -0.0059  0.1365 -0.0081
  541MOL0     C74557   4.542   6.281   3.568 -0.3668 -0.7657 -0.2654
  541MOL0     C74558   4.495   6.370   3.449  0.6749 -0.1454 -0.4748
  541MOL0     C74559   4.381   6.298   3.381 -0.2341 -0.1165  0.9827
  541MOL0     C74560   4.346   6.357   3.244 -0.3777  0.4124  1.0787
  541MOL0     C74561   4.284   6.265   3.137  0.2986  0.3696 -0.1535
  541MOL0     C74562   4.380   6.158   3.077 -0.6159 -1.0432 -0.0036
  541MOL0     C74563   4.307   6.068   2.972 -0.3761  0.2702 -0.9234
  541MOL0     C74564   4.401   5.973   2.905  0.0277 -0.4694  0.4041
  541MOL0    Cl74565   4.325   5.880   2.782  0.1175  0.1212  0.0626
  541MOL0     C74566   4.513   6.513   3.761  0.3100 -0.4828 -0.5096
  541MOL0     C74567   4.479   6.628   3.842  0.2164  0.0153  0.1362
  541MOL0     O74568   4.108   6.753   3.968 -0.6520 -0.7346 -0.8932
  541MOL0     C74569   4.304   6.913   4.219  0.2597  1.3380  0.2514
  541MOL0     C74570   4.295   6.989   4.336  0.5859 -0.6952  0.9219
  541MOL0     N74571   4.062   7.376   5.017  0.3774  0.0503  0.1417
  541MOL0     N74572   4.058   7.494   5.064 -0.2189 -0.0560 -0.3175
  541MOL0     C74573   3.516   8.142   5.287 -0.2694  0.5727  0.2683
  541MOL0     C74574   3.449   8.074   5.395  0.1162  0.0231  0.2733
  541MOL0     C74575   3.242   7.868   5.720  0.6031 -0.9153 -0.5601
  541MOL0     C74576   3.268   7.741   5.772 -0.4138  1.0690 -0.0304
  541MOL0     C74577   3.177   7.694   5.873 -0.7188 -0.0985  0.2946
  541MOL0     C74578   3.075   7.771   5.913  0.4262 -0.2369  0.6552
  541MOL0     O74579   2.991   7.721   6.015 -0.7761  0.5256  0.3017
  541MOL0     C74580   3.009   7.787   6.146 -0.7903  0.1152  0.7790
  541MOL0     C74581   2.897   7.764   6.244  0.1905  0.2283  0.2914
  541MOL0     C74582   2.911   7.846   6.373  0.2339  0.0444 -0.2337
  541MOL0     C74583   2.858   7.984   6.348 -0.2261  0.2630 -0.0252
  541MOL0     C74584   2.864   8.075   6.458  0.4061  0.1873  0.0205
  541MOL0     C74585   2.878   8.149   6.551 -0.0401  0.1113  0.5350
  541MOL0     C74586   3.060   7.902   5.869 -0.3793  0.0850  0.1810
  541MOL0     C74587   3.138   7.954   5.764 -0.4324  0.8174  0.7569
  541MOL0     C74588   3.108   8.092   5.709 -0.0706  0.5812  0.4681
  541MOL0     H74589   3.500   7.749   5.310  2.2291  0.5763  2.1607
  541MOL0     H74590   3.614   7.865   5.112  0.7734 -0.4429  0.4052
  541MOL0     H74591   3.693   8.301   5.134  1.1272 -2.4239  0.4525
  541MOL0     H74592   3.550   8.296   5.036  0.3664 -1.1200 -2.6010
  541MOL0     H74593   3.708   8.205   4.842  1.4304 -0.4450  0.1768
  541MOL0     H74594   3.674   8.373   4.897  1.3935  0.8778  1.4124
  541MOL0     H74595   3.921   8.326   4.839 -0.0280  1.7955  1.1289
  541MOL0     H74596   3.893   8.384   5.004 -1.7488 -2.2428  2.6735
  541MOL0     H74597   4.070   8.202   4.978  0.3441 -0.9218  1.0812
  541MOL0     H74598   3.919   8.190   5.084  1.3427 -1.8641  0.5270
  541MOL0     H74599   3.980   8.047   4.817 -1.7283  1.1933 -0.7372
  541MOL0     H74600   3.834   8.015   4.908  1.1278 -2.3482 -1.0466
  541MOL0     H74601   4.135   7.981   4.978 -0.3249  0.3243  0.1934
  541MOL0     H74602   4.011   7.962   5.104  2.2666 -0.8248  0.9978
  541MOL0     H74603   3.978   7.794   4.863  0.2620  2.4372 -0.1889
  541MOL0     H74604   3.942   7.764   5.039  1.3323 -0.6144  1.6174
  541MOL0     H74605   4.214   7.744   4.904 -0.5913 -2.7665 -0.6909
  541MOL0     H74606   4.184   7.757   5.082 -0.3909 -0.6873  0.9331
  541MOL0     H74607   4.214   7.538   4.784 -1.7684  0.2242 -0.2748
  541MOL0     H74608   4.100   7.312   4.696  0.6656  0.9457 -0.4099
  541MOL0     H74609   4.097   7.181   4.814 -2.1962  2.0698  3.4123
  541MOL0     H74610   4.347   7.353   4.776 -0.3235  0.3455 -0.1284
  541MOL0     H74611   4.348   7.206   4.854  0.6957 -0.6489  0.2138
  541MOL0     H74612   4.298   7.269   4.561  1.0008 -0.3972 -0.7171
  541MOL0     H74613   4.446   7.199   4.637 -0.6301 -2.9654  2.8343
  541MOL0     H74614   4.349   6.993   4.569 -0.8372 -1.7753  1.9724
  541MOL0     H74615   4.252   7.006   4.706  1.3791 -0.5678 -0.6022
  541MOL0     H74616   3.964   6.969   4.406 -0.4025 -0.7713  0.0166
  541MOL0     H74617   3.900   6.894   4.103 -3.6356  0.7962  2.4847
  541MOL0     H74618   3.865   6.829   4.269  0.7842 -4.5185  0.3725
  541MOL0     H74619   3.939   6.730   4.134 -0.6021  0.3226 -1.4332
  541MOL0     H74620   4.181   6.506   3.963  0.2033 -4.2356 -0.5820
  541MOL0     H74621   4.238   6.320   3.815  0.9394 -1.4357 -1.3335
  541MOL0     H74622   4.647   6.305   3.588  0.2894 -0.4539 -3.6040
  541MOL0     H74623   4.541   6.176   3.537  2.7951 -0.1230 -3.0989
  541MOL0     H74624   4.462   6.472   3.473  1.5505 -0.0740  0.4883
  541MOL0     H74625   4.570   6.376   3.370  2.0865 -1.7702  0.6958
  541MOL0     H74626   4.284   6.313   3.430 -1.2524  3.2171 -1.6312
  541MOL0     H74627   4.410   6.193   3.382 -2.2658 -0.7462 -0.8392
  541MOL0     H74628   4.437   6.399   3.200 -1.7872  1.5960 -0.8937
  541MOL0     H74629   4.283   6.445   3.254  0.4670  1.5924 -2.5838
  541MOL0     H74630   4.191   6.216   3.167  0.0005  1.6618  1.1831
  541MOL0     H74631   4.250   6.325   3.053  3.6263  2.4261 -0.1806
  541MOL0     H74632   4.419   6.086   3.150 -3.1474 -2.1046  0.4006
  541MOL0     H74633   4.465   6.210   3.033  0.8057 -1.1144  2.4972
  541MOL0     H74634   4.277   6.140   2.896 -1.0529  0.4907 -0.4621
  541MOL0     H74635   4.219   6.018   3.014  1.5652 -2.5340  0.0696
  541MOL0     H74636   4.440   5.907   2.983 -0.4759  0.1899  1.2335
  541MOL0     H74637   4.479   6.038   2.864 -0.6519  0.8026  1.0763
  541MOL0     H74638   4.612   6.514   3.716 -1.4120  2.3538 -4.8762
  541MOL0     H74639   4.549   6.711   3.850 -2.9712  3.5330 -4.0027
  541MOL0     H74640   4.401   6.909   4.169  1.5500  1.1944  2.6212
  541MOL0     H74641   4.389   7.038   4.360  0.8932 -1.7578  1.9995
  541MOL0     H74642   3.516   8.249   5.271  0.4991  0.2972 -2.0793
  541MOL0     H74643   3.390   8.133   5.464 -0.5765 -0.4606  0.1008
  541MOL0     H74644   3.353   7.678   5.748  0.2413  1.7078  0.5702
  541MOL0     H74645   3.196   7.600   5.925  1.4172  0.9227  1.5163
  541MOL0     H74646   3.102   7.743   6.183  0.0715 -0.0467 -1.4253
  541MOL0     H74647   3.026   7.895   6.135 -0.1351  0.0218  0.8069
  541MOL0     H74648   2.894   7.660   6.279 -0.4859 -0.0693 -0.5801
  541MOL0     H74649   2.804   7.785   6.189  0.0287 -1.0636  0.0353
  541MOL0     H74650   2.842   7.807   6.449 -0.8719  2.8364  0.3218
  541MOL0     H74651   3.014   7.840   6.410 -0.7705 -0.1509  2.8197
  541MOL0     H74652   2.754   7.985   6.313 -0.3539 -0.7510  0.3099
  541MOL0     H74653   2.923   8.036   6.277  2.7241  0.0967  2.3840
  541MOL0     H74654   2.878   8.223   6.629 -0.5097  0.8447 -0.1591
  541MOL0     H74655   2.973   7.952   5.909 -1.4025  1.8053 -3.7051
  541MOL0     H74656   3.003   8.122   5.717 -0.1434  0.3649  0.3326
  541MOL0     H74657   3.164   8.165   5.769  0.8715  0.8055 -0.6618
  541MOL0     H74658   3.133   8.109   5.604 -1.7433  2.6169  0.3416
  542MOL0     O74659   7.419   6.493   2.070 -0.0032  0.2012  0.5921
  542MOL0     C74660   7.438   6.496   1.951 -0.7821  0.0889  0.5220
  542MOL0     O74661   7.364   6.567   1.860 -0.6991  0.4947 -0.2808
  542MOL0     C74662   7.272   6.667   1.900  0.4268  0.2330 -0.1142
  542MOL0     C74663   7.212   6.692   2.029  0.4594 -0.1819 -0.1537
  542MOL0     C74664   7.128   6.802   2.045  1.5740 -0.1495 -0.8300
  542MOL0     C74665   7.095   6.886   1.943  0.2726  1.2134 -0.3031
  542MOL0     O74666   7.014   6.995   1.961  0.2702 -0.0555  0.0507
  542MOL0     C74667   6.901   6.990   2.046 -0.5019  0.8056 -0.5918
  542MOL0     C74668   6.846   7.138   2.048 -0.8073 -0.7344  0.3072
  542MOL0     C74669   6.781   7.183   2.181 -0.4745  0.1539 -0.4515
  542MOL0     C74670   6.865   7.274   2.282  0.3540  0.0350  0.3733
  542MOL0     C74671   6.772   7.346   2.388  0.1507 -0.2544 -0.2839
  542MOL0     C74672   6.850   7.368   2.516 -0.0970  0.0810 -0.3578
  542MOL0     C74673   6.751   7.401   2.629  0.3367  0.2642  0.7441
  542MOL0     C74674   6.827   7.377   2.759 -0.4651  0.1551 -0.2285
  542MOL0     N74675   6.853   7.238   2.807  0.3973 -0.7258  0.4006
  542MOL0     C74676   6.970   7.164   2.790  1.4940  0.3769  0.0854
  542MOL0     C74677   6.956   7.050   2.868 -0.3480 -0.2214  0.4628
  542MOL0     C74678   7.065   6.945   2.896 -0.9123 -1.2028  0.4643
  542MOL0     C74679   7.144   6.981   3.024 -0.1881 -0.6894  0.1040
  542MOL0     C74680   7.062   6.994   3.151  0.0827  0.0117  0.4223
  542MOL0     C74681   7.154   7.005   3.268 -0.0230 -0.5015  0.9166
  542MOL0     O74682   7.089   7.012   3.397 -0.3508 -0.0170 -0.2136
  542MOL0     C74683   7.169   7.032   3.505 -0.1668  0.1742 -0.4438
  542MOL0     C74684   7.301   6.984   3.514  0.2609 -0.3594  1.2661
  542MOL0     C74685   7.379   6.992   3.624  0.5296 -0.2292  0.0422
  542MOL0     C74686   7.520   6.953   3.610  0.2208  0.1708  0.8601
  542MOL0     C74687   7.318   7.046   3.749 -0.0471  0.1535  0.2812
  542MOL0     C74688   7.375   7.060   3.887  0.1613 -0.3395  0.7395
  542MOL0     O74689   7.514   7.082   3.892  0.0167  0.7984  0.4372
  542MOL0     C74690   7.570   7.067   4.014  0.4908  0.3016 -0.3019
  542MOL0     C74691   7.621   7.183   4.078 -0.8275 -0.7372 -0.5672
  542MOL0     C74692   7.664   7.172   4.213  0.5351 -0.8113 -0.5113
  542MOL0     C74693   7.680   7.056   4.284 -0.1137  0.5053  0.8817
  542MOL0     O74694   7.749   7.051   4.406 -0.1619 -0.2448 -0.1748
  542MOL0     C74695   7.797   6.922   4.456 -0.1757  0.0434 -0.1093
  542MOL0     C74696   7.702   6.840   4.541 -0.1183  0.0065 -0.4467
  542MOL0     C74697   7.756   6.693   4.540 -0.5868 -0.1387 -0.6943
  542MOL0     C74698   7.874   6.668   4.638  0.8594  0.8133 -0.0178
  542MOL0     C74699   7.918   6.522   4.620 -0.0834  0.5328 -0.3093
  542MOL0     C74700   8.054   6.490   4.689 -0.4044 -0.6153  0.2300
  542MOL0     C74701   8.024   6.501   4.839  0.3313 -0.4190  0.7572
  542MOL0     C74702   8.146   6.473   4.926 -0.7095  0.4497 -0.5236
  542MOL0    Cl74703   8.292   6.572   4.891  0.0121 -0.1018  0.1882
  542MOL0     C74704   7.629   6.942   4.213  1.0899 -0.4567 -0.7475
  542MOL0     C74705   7.570   6.944   4.082 -0.0051 -0.1458 -0.1706
  542MOL0     O74706   7.296   7.060   3.981  0.0586 -0.8172  0.0661
  542MOL0     C74707   7.185   7.089   3.740 -0.3206 -0.7899 -0.2685
  542MOL0     C74708   7.115   7.085   3.619 -0.2771 -0.0312 -0.4992
  542MOL0     N74709   6.837   7.058   2.932  0.4831  0.0050 -0.0026
  542MOL0     N74710   6.782   7.170   2.891  0.1908  0.4302  0.6267
  542MOL0     C74711   7.143   6.862   1.816  0.5250  0.3581  0.3374
  542MOL0     C74712   7.235   6.761   1.792  0.0273  0.2963 -0.4320
  542MOL0     C74713   7.541   6.393   1.907  0.1998 -0.3759 -0.7626
  542MOL0     C74714   7.570   6.288   1.992  0.0528  0.5772 -0.1394
  542MOL0     C74715   7.670   6.198   1.958 -0.4690  0.2821  0.5791
  542MOL0     C74716   7.752   6.205   1.841  0.0527 -0.8330 -0.3422
  542MOL0     O74717   7.857   6.116   1.822 -0.4685  0.6817 -0.0342
  542MOL0     C74718   7.910   6.100   1.688 -0.7104 -0.0268  0.5880
  542MOL0     C74719   7.960   5.951   1.685  0.6533  0.4655 -0.4381
  542MOL0     C74720   8.077   5.908   1.767 -0.0464  0.3229 -0.6749
  542MOL0     C74721   8.047   5.890   1.921  0.1012 -0.5972  0.5035
  542MOL0     C74722   8.109   5.770   1.981  0.3817  0.7787 -0.2791
  542MOL0     C74723   8.167   5.668   2.020 -0.0364  0.0737  0.2220
  542MOL0     C74724   7.715   6.308   1.754 -0.3670 -0.1805  0.1490
  542MOL0     C74725   7.613   6.403   1.789  0.4967 -0.2248 -0.3509
  542MOL0     C74726   7.580   6.510   1.684  0.2945  0.0877  0.3182
  542MOL0     H74727   7.238   6.634   2.117 -1.1644  1.4853  1.4955
  542MOL0     H74728   7.090   6.818   2.146  1.3616 -2.4852 -0.4950
  542MOL0     H74729   6.933   6.976   2.149 -2.0783  2.6373  0.2048
  542MOL0     H74730   6.821   6.925   2.009 -2.2024  3.0808 -1.1334
  542MOL0     H74731   6.918   7.216   2.022 -0.1129 -1.8284 -1.1504
  542MOL0     H74732   6.777   7.141   1.964  0.8433 -4.0995 -1.3613
  542MOL0     H74733   6.689   7.234   2.150  0.5996  3.1652  0.9152
  542MOL0     H74734   6.750   7.093   2.234  0.2461  1.0265  1.5625
  542MOL0     H74735   6.932   7.201   2.327 -0.6781 -0.5529  0.9710
  542MOL0     H74736   6.936   7.341   2.231  2.1850 -1.9923  0.1010
  542MOL0     H74737   6.690   7.280   2.417  0.8682 -0.5450  1.1749
  542MOL0     H74738   6.730   7.443   2.358  0.2719  0.0947  0.6650
  542MOL0     H74739   6.925   7.291   2.534 -0.3748 -0.5189 -1.6134
  542MOL0     H74740   6.904   7.461   2.494 -1.8253  0.7324 -2.1759
  542MOL0     H74741   6.662   7.337   2.627 -0.5761  1.0938 -5.4241
  542MOL0     H74742   6.723   7.506   2.622  0.9471  0.3913  0.1403
  542MOL0     H74743   6.929   7.416   2.759 -0.8754  1.2473 -0.3335
  542MOL0     H74744   6.768   7.430   2.835  0.8200  0.4485  0.6107
  542MOL0     H74745   7.061   7.194   2.740  1.8711 -0.5425  0.2120
  542MOL0     H74746   7.138   6.951   2.814 -0.1036 -2.2237  1.0901
  542MOL0     H74747   7.025   6.845   2.876  0.5808 -1.2388 -3.2968
  542MOL0     H74748   7.228   6.918   3.055  1.5745  0.0978 -2.7445
  542MOL0     H74749   7.193   7.077   3.007 -0.1253 -0.1467  2.8765
  542MOL0     H74750   6.996   7.080   3.137 -1.4451 -0.9279  1.4550
  542MOL0     H74751   6.989   6.913   3.164 -2.7620  2.4623  0.8862
  542MOL0     H74752   7.217   6.916   3.267  1.2782  0.3299  2.6508
  542MOL0     H74753   7.211   7.096   3.250 -1.7341  0.5871  0.7263
  542MOL0     H74754   7.354   6.942   3.429  1.1995  0.2265  1.5406
  542MOL0     H74755   7.576   7.041   3.642 -1.8406  2.3046 -1.0434
  542MOL0     H74756   7.548   6.924   3.509 -4.6234 -0.0982 -0.6702
  542MOL0     H74757   7.540   6.864   3.670 -3.8381 -0.8350  1.0225
  542MOL0     H74758   7.625   7.280   4.030  0.9974  0.1658  1.2312
  542MOL0     H74759   7.683   7.262   4.269  0.5928 -0.3292 -1.2839
  542MOL0     H74760   7.816   6.863   4.366 -2.6707  0.4980 -0.9917
  542MOL0     H74761   7.896   6.939   4.500 -0.7306  1.4996  0.6742
  542MOL0     H74762   7.700   6.889   4.639  1.0131  1.4755 -1.1111
  542MOL0     H74763   7.598   6.835   4.509 -0.0987 -3.8496 -0.3310
  542MOL0     H74764   7.775   6.649   4.442 -2.8525 -1.2831 -0.6753
  542MOL0     H74765   7.681   6.623   4.578  0.5719 -0.2196  1.6423
  542MOL0     H74766   7.848   6.711   4.735  0.5546 -0.0096  0.2758
  542MOL0     H74767   7.958   6.725   4.597  0.1675  0.7812 -1.5611
  542MOL0     H74768   7.833   6.482   4.676  1.4930  1.6937  3.2026
  542MOL0     H74769   7.924   6.500   4.513  0.5117  2.1711 -0.6510
  542MOL0     H74770   8.147   6.543   4.666  0.3786 -1.6292  0.9360
  542MOL0     H74771   8.083   6.387   4.665 -5.1884 -1.6986 -2.0146
  542MOL0     H74772   7.941   6.436   4.866 -1.1109 -0.1837 -2.6354
  542MOL0     H74773   7.991   6.601   4.870  2.2035 -0.2898  2.5621
  542MOL0     H74774   8.166   6.366   4.928 -2.8711 -0.0526  2.5160
  542MOL0     H74775   8.114   6.505   5.026  1.1615 -2.6023  1.1658
  542MOL0     H74776   7.620   6.853   4.275 -1.2717 -0.3701 -0.8821
  542MOL0     H74777   7.532   6.859   4.027  1.6374 -0.2962 -1.1394
  542MOL0     H74778   7.132   7.135   3.823 -0.9786  0.2764 -1.2456
  542MOL0     H74779   7.010   7.113   3.621 -0.8925 -2.0421  2.2995
  542MOL0     H74780   7.123   6.947   1.752 -0.4798  1.0447  1.5098
  542MOL0     H74781   7.284   6.754   1.696  4.2962 -0.7594  1.5975
  542MOL0     H74782   7.523   6.283   2.089  0.0482  2.3738 -0.0033
  542MOL0     H74783   7.706   6.119   2.023  2.5630 -0.1223 -1.3559
  542MOL0     H74784   7.830   6.116   1.615 -3.3656 -1.7445  2.9300
  542MOL0     H74785   7.990   6.174   1.683 -0.0358 -0.8247 -0.8352
  542MOL0     H74786   7.988   5.924   1.583  2.1569  2.1008 -0.5051
  542MOL0     H74787   7.870   5.890   1.692  1.2176 -0.5004 -1.2757
  542MOL0     H74788   8.111   5.813   1.724  0.7049 -0.1827  0.9828
  542MOL0     H74789   8.164   5.972   1.750  0.8732 -1.0703 -1.4226
  542MOL0     H74790   7.939   5.885   1.936 -0.1235 -2.3857 -1.3238
  542MOL0     H74791   8.080   5.978   1.977 -1.1201  0.1419  0.0754
  542MOL0     H74792   8.211   5.574   2.044 -0.7988 -0.3642 -0.0575
  542MOL0     H74793   7.762   6.324   1.657  2.3316  0.3678  1.4408
  542MOL0     H74794   7.588   6.605   1.738  0.3502 -1.0163  2.3820
  542MOL0     H74795   7.659   6.501   1.609 -1.4733  0.8619 -1.7361
  542MOL0     H74796   7.479   6.499   1.643  0.0363 -2.2351  1.4053
  543MOL0     O74797   5.581   2.231   1.221 -0.1146  0.2420  0.3767
  543MOL0     C74798   5.510   2.334   1.206  0.1403  0.1468  0.8304
  543MOL0     O74799   5.556   2.460   1.206  0.2807  0.3651 -0.1256
  543MOL0     C74800   5.681   2.490   1.244 -0.6379 -0.9131  0.2341
  543MOL0     C74801   5.704   2.557   1.368  0.7120  0.1390  0.4101
  543MOL0     C74802   5.837   2.580   1.405 -1.3483 -0.7466  0.3195
  543MOL0     C74803   5.949   2.537   1.327  0.9065 -0.7505  0.0328
  543MOL0     O74804   6.071   2.566   1.366 -0.2091 -0.0006  0.4686
  543MOL0     C74805   6.178   2.485   1.312 -0.5327  0.4881  0.1382
  543MOL0     C74806   6.306   2.512   1.384  0.1563  0.5961 -0.5572
  543MOL0     C74807   6.353   2.656   1.370  0.4705  1.2433  0.1252
  543MOL0     C74808   6.490   2.678   1.436 -0.1554  0.3286 -0.5760
  543MOL0     C74809   6.549   2.830   1.430  0.1956  0.5417 -0.4313
  543MOL0     C74810   6.462   2.940   1.486 -0.3150  0.0083  0.0643
  543MOL0     C74811   6.434   2.924   1.631 -0.6293  0.2272 -0.2301
  543MOL0     C74812   6.554   2.972   1.718 -0.4336 -0.1052  0.4037
  543MOL0     N74813   6.526   2.997   1.851  0.5801 -0.3236  0.0276
  543MOL0     C74814   6.588   2.943   1.967  1.2520  0.7271 -0.2743
  543MOL0     C74815   6.534   3.006   2.068  0.2787 -0.9416 -0.4086
  543MOL0     C74816   6.542   2.976   2.224 -0.4502 -0.7694 -0.3104
  543MOL0     C74817   6.437   2.883   2.277 -0.4728 -0.1658 -0.0701
  543MOL0     C74818   6.298   2.924   2.242  0.2962 -0.7795  0.2967
  543MOL0     C74819   6.202   2.840   2.325  1.1959 -0.0508 -0.2744
  543MOL0     O74820   6.227   2.700   2.310  0.6470 -0.3322  0.1024
  543MOL0     C74821   6.107   2.634   2.315 -0.0312 -0.2440 -0.6517
  543MOL0     C74822   6.019   2.644   2.429  0.2479  0.8137  0.3627
  543MOL0     C74823   5.887   2.587   2.430  1.0580 -0.6478 -0.0972
  543MOL0     C74824   5.825   2.589   2.563 -0.4060 -0.0593  0.3018
  543MOL0     C74825   5.841   2.533   2.308  0.1338  0.2999  0.1835
  543MOL0     C74826   5.706   2.467   2.305 -0.9637  0.6335  0.1912
  543MOL0     O74827   5.596   2.527   2.367  0.1424  0.4409 -0.1979
  543MOL0     C74828   5.479   2.456   2.407 -0.7803  0.3942 -0.5463
  543MOL0     C74829   5.429   2.499   2.526  0.1537 -0.1895  0.6887
  543MOL0     C74830   5.325   2.442   2.586  1.0444 -0.0112 -0.3530
  543MOL0     C74831   5.255   2.334   2.525  0.5567 -0.0634 -1.1437
  543MOL0     O74832   5.155   2.264   2.589  0.5664 -0.2502  0.8422
  543MOL0     C74833   5.189   2.204   2.711  0.5972 -0.1731 -0.6002
  543MOL0     C74834   5.066   2.188   2.791 -0.3115  0.8457  0.8161
  543MOL0     C74835   5.032   2.319   2.875  0.3536  0.3818  0.5036
  543MOL0     C74836   4.968   2.266   3.001 -0.1215 -0.2759  0.7070
  543MOL0     C74837   4.883   2.378   3.070  0.3262 -0.7349 -0.3027
  543MOL0     C74838   4.963   2.492   3.131 -0.0465  0.3709  0.0220
  543MOL0     C74839   5.065   2.461   3.242  0.3865  0.2254 -0.3314
  543MOL0     C74840   4.997   2.445   3.381 -0.2392 -0.1545  0.8148
  543MOL0    Cl74841   4.899   2.598   3.426  0.2525  0.3836  0.1660
  543MOL0     C74842   5.302   2.282   2.416  0.0357 -0.3427 -0.1989
  543MOL0     C74843   5.417   2.338   2.351 -0.0079 -0.7999 -0.8915
  543MOL0     O74844   5.699   2.365   2.243  0.4347 -0.4158  0.1864
  543MOL0     C74845   5.920   2.525   2.194  0.1867 -0.0252 -0.8961
  543MOL0     C74846   6.051   2.572   2.198 -0.5274  0.3119  0.6454
  543MOL0     N74847   6.449   3.096   2.020 -0.0568 -1.3150  0.6049
  543MOL0     N74848   6.448   3.097   1.887 -0.5052 -0.9834 -0.0638
  543MOL0     C74849   5.919   2.484   1.202  0.6122  0.4113  0.6298
  543MOL0     C74850   5.788   2.458   1.154 -0.0146 -0.4285 -0.7481
  543MOL0     C74851   5.367   2.305   1.171  1.0914  0.2348  0.2911
  543MOL0     C74852   5.352   2.234   1.051  0.2244 -0.0817  0.1170
  543MOL0     C74853   5.225   2.219   0.997 -0.4349 -0.6771  0.0174
  543MOL0     C74854   5.106   2.285   1.052 -0.4349 -0.3040  1.3538
  543MOL0     O74855   4.989   2.280   0.974  0.2242 -0.6214  0.6114
  543MOL0     C74856   4.889   2.373   1.008 -0.8578  0.4107  0.1800
  543MOL0     C74857   4.776   2.377   0.908 -1.0257  0.5195  0.0383
  543MOL0     C74858   4.673   2.485   0.939  0.4755  0.8784  0.2601
  543MOL0     C74859   4.543   2.453   0.859 -0.3551 -0.6600 -0.0274
  543MOL0     C74860   4.539   2.496   0.721  0.7546  0.5222  0.2725
  543MOL0     C74861   4.541   2.519   0.605 -0.2173 -0.3922  0.2233
  543MOL0     C74862   5.122   2.349   1.174 -0.1131  0.2959  0.4675
  543MOL0     C74863   5.255   2.357   1.236  0.0011 -0.1640 -0.1332
  543MOL0     C74864   5.265   2.431   1.368  0.3117 -0.0577 -0.1079
  543MOL0     H74865   5.616   2.569   1.430  0.5742 -0.0229  0.2487
  543MOL0     H74866   5.854   2.623   1.503  2.8125 -2.5038  0.5553
  543MOL0     H74867   6.199   2.512   1.208  1.6939  1.9378  0.8948
  543MOL0     H74868   6.156   2.379   1.323 -0.4780  0.1938 -2.1563
  543MOL0     H74869   6.292   2.483   1.489  1.6902 -0.1715 -0.5320
  543MOL0     H74870   6.381   2.448   1.335  1.9567  1.0807  1.4376
  543MOL0     H74871   6.362   2.671   1.262  2.2944 -1.3132 -0.1851
  543MOL0     H74872   6.285   2.723   1.424 -0.6489  1.2423 -1.2284
  543MOL0     H74873   6.485   2.652   1.543  1.5230  2.3412  0.0584
  543MOL0     H74874   6.560   2.615   1.380 -1.5808 -1.6144 -0.2769
  543MOL0     H74875   6.577   2.829   1.324  3.4475 -2.2412  0.2822
  543MOL0     H74876   6.645   2.837   1.481 -1.4857  0.7952  2.9459
  543MOL0     H74877   6.507   3.039   1.471 -2.8910  1.3164  0.3211
  543MOL0     H74878   6.369   2.950   1.429  0.4389  1.0000 -1.0712
  543MOL0     H74879   6.400   2.823   1.655  1.3172 -0.6927 -1.0858
  543MOL0     H74880   6.351   2.987   1.666 -0.6835 -0.9768  1.9200
  543MOL0     H74881   6.615   2.881   1.711 -1.4757 -0.6668 -2.9579
  543MOL0     H74882   6.603   3.059   1.674  1.3745  0.0498  2.5293
  543MOL0     H74883   6.653   2.857   1.963 -0.9237 -1.0168 -0.3195
  543MOL0     H74884   6.540   3.070   2.280 -5.3898  0.1812 -1.5329
  543MOL0     H74885   6.641   2.930   2.229 -0.2251 -0.8017 -3.2927
  543MOL0     H74886   6.463   2.785   2.236 -1.2029 -0.9746  1.3260
  543MOL0     H74887   6.452   2.872   2.385 -2.6282  0.6909  0.3642
  543MOL0     H74888   6.268   3.028   2.258 -2.4901 -1.4115 -0.3055
  543MOL0     H74889   6.277   2.892   2.139  2.8251  0.9853 -0.8788
  543MOL0     H74890   6.201   2.854   2.434 -0.6950 -1.6572 -0.0346
  543MOL0     H74891   6.104   2.875   2.292 -0.4373 -1.5786  2.5366
  543MOL0     H74892   6.061   2.694   2.516 -2.3354  1.6966  1.1975
  543MOL0     H74893   5.896   2.617   2.642  0.8520 -0.2701 -0.7167
  543MOL0     H74894   5.788   2.491   2.593  0.0049  0.2762  2.0391
  543MOL0     H74895   5.736   2.653   2.568 -1.3902 -1.2703 -0.9972
  543MOL0     H74896   5.483   2.576   2.580  0.0496  0.0770  0.4169
  543MOL0     H74897   5.294   2.481   2.683  0.8928  0.3588 -0.5498
  543MOL0     H74898   5.214   2.101   2.686  3.6098  0.1640  0.5535
  543MOL0     H74899   5.273   2.245   2.768 -0.0002  0.1263  0.0790
  543MOL0     H74900   4.986   2.160   2.723  0.0624 -0.3729  0.8550
  543MOL0     H74901   5.087   2.107   2.861 -2.2268 -1.6333 -1.3123
  543MOL0     H74902   4.972   2.392   2.819  2.4848  2.2476  0.5303
  543MOL0     H74903   5.117   2.378   2.910 -0.6076 -0.7675  5.5247
  543MOL0     H74904   5.053   2.239   3.064  1.6155  3.2042  0.1133
  543MOL0     H74905   4.898   2.184   2.982 -3.9400  2.4320  1.6180
  543MOL0     H74906   4.811   2.423   3.000 -1.5667 -1.5199  1.0566
  543MOL0     H74907   4.828   2.319   3.144 -0.9588 -5.1048 -4.2064
  543MOL0     H74908   4.891   2.568   3.161 -0.7772 -0.9609  1.8104
  543MOL0     H74909   5.028   2.521   3.048  1.5511 -0.5616  0.8876
  543MOL0     H74910   5.136   2.544   3.245  1.1179 -0.3832  2.5456
  543MOL0     H74911   5.120   2.369   3.220 -1.1789 -0.5099 -1.3437
  543MOL0     H74912   5.071   2.432   3.461 -0.4898 -1.9564  0.8030
  543MOL0     H74913   4.925   2.363   3.371  0.0142 -0.1190 -2.2547
  543MOL0     H74914   5.246   2.200   2.372  1.5847 -0.4372 -2.1056
  543MOL0     H74915   5.470   2.291   2.269  3.7305  2.7708 -0.8869
  543MOL0     H74916   5.885   2.482   2.101 -1.1368  1.9326 -1.3617
  543MOL0     H74917   6.106   2.554   2.106 -1.5917 -0.6312  0.1655
  543MOL0     H74918   5.998   2.462   1.131 -0.3137  0.2149 -0.3774
  543MOL0     H74919   5.766   2.411   1.059 -1.0502 -0.4577 -0.5005
  543MOL0     H74920   5.437   2.199   0.993 -0.8659 -3.4061  0.3293
  543MOL0     H74921   5.210   2.165   0.903 -0.4617 -0.0979 -0.3140
  543MOL0     H74922   4.847   2.355   1.108 -0.5042  0.5627  0.3553
  543MOL0     H74923   4.931   2.473   1.016 -2.3715  0.9291  3.9617
  543MOL0     H74924   4.723   2.281   0.915 -1.6405  0.6304 -2.2479
  543MOL0     H74925   4.815   2.389   0.806 -1.2243  1.3517  0.0547
  543MOL0     H74926   4.650   2.491   1.046  2.6094 -0.7882  0.8788
  543MOL0     H74927   4.702   2.586   0.910 -1.2067  0.3785 -3.7829
  543MOL0     H74928   4.467   2.502   0.921  2.4029  1.4745  1.9162
  543MOL0     H74929   4.518   2.346   0.866 -1.8442 -0.2874  0.9388
  543MOL0     H74930   4.547   2.535   0.499  0.0781 -2.3278 -0.0776
  543MOL0     H74931   5.035   2.394   1.222 -0.7684  1.5863 -1.7854
  543MOL0     H74932   5.326   2.520   1.351 -1.9379  1.2445 -1.9767
  543MOL0     H74933   5.166   2.473   1.388  0.7537  0.6779  0.6255
  543MOL0     H74934   5.307   2.359   1.439  0.6471 -0.8479 -1.0912
  544MOL0     O74935   9.578   3.687  10.518  0.1524  0.1082 -0.5149
  544MOL0     C74936   9.530   3.624  10.421  0.1979  1.2217 -0.4614
  544MOL0     O74937   9.511   3.669  10.303 -0.1719 -0.3219 -0.7396
  544MOL0     C74938   9.565   3.779  10.247  0.0678 -0.2079 -1.0698
  544MOL0     C74939   9.500   3.825  10.135  0.0737 -0.2996  0.4308
  544MOL0     C74940   9.540   3.944  10.073 -0.0790  1.1127  0.4493
  544MOL0     C74941   9.661   4.002  10.104 -0.7936  0.3147  0.3000
  544MOL0     O74942   9.696   4.109  10.033 -0.6567 -0.3452  0.4416
  544MOL0     C74943   9.834   4.171  10.024  0.4111  0.3195  0.2465
  544MOL0     C74944   9.820   4.312   9.970  0.4759  0.4543  0.3021
  544MOL0     C74945   9.684   4.332   9.897 -0.3507  0.5760  0.2813
  544MOL0     C74946   9.659   4.478   9.855  0.1089  0.1476  0.3181
  544MOL0     C74947   9.553   4.492   9.736  0.4599  0.2616 -0.7707
  544MOL0     C74948   9.613   4.455   9.594  0.8361  0.0326  0.3071
  544MOL0     C74949   9.719   4.549   9.535 -0.5074 -0.8009  0.2680
  544MOL0     C74950   9.751   4.514   9.384  0.3984 -0.5366 -0.9583
  544MOL0     N74951   9.824   4.611   9.312  0.7693  0.5509  0.2559
  544MOL0     C74952   9.949   4.597   9.252  0.3444  0.2441  0.6653
  544MOL0     C74953   9.963   4.706   9.176 -0.1814  0.1123 -0.4522
  544MOL0     C74954  10.093   4.727   9.103  0.0784  0.5906  0.0182
  544MOL0     C74955  10.125   4.874   9.060  0.0750 -0.5423 -0.4913
  544MOL0     C74956  10.158   4.948   9.190  0.4939 -0.0614 -0.1853
  544MOL0     C74957  10.184   5.097   9.162  0.0341  1.1010 -0.6518
  544MOL0     O74958  10.298   5.104   9.088 -1.1272  0.3432  0.3690
  544MOL0     C74959  10.345   5.235   9.071  0.3038  0.3878  0.0822
  544MOL0     C74960  10.471   5.253   9.009 -0.1440  0.4983  0.3271
  544MOL0     C74961  10.528   5.372   8.991 -0.5247 -0.6324  0.2243
  544MOL0     C74962  10.651   5.381   8.897  0.4818 -0.1256 -0.2796
  544MOL0     C74963  10.468   5.489   9.042  0.1221  0.4631  0.0038
  544MOL0     C74964  10.521   5.634   9.023 -0.0782  0.2239 -0.7794
  544MOL0     O74965  10.429   5.733   9.021 -0.1303  0.6118  0.7666
  544MOL0     C74966  10.490   5.857   9.003  0.9006 -0.3194 -0.5851
  544MOL0     C74967  10.555   5.925   9.108 -0.2112 -0.5538  0.0325
  544MOL0     C74968  10.614   6.048   9.078 -0.8870  0.4532  0.4878
  544MOL0     C74969  10.604   6.100   8.950  0.3331 -0.1567  0.2693
  544MOL0     O74970  10.674   6.213   8.941  0.1424 -0.1414  0.1713
  544MOL0     C74971  10.585   6.321   8.895  0.3439 -0.4449 -0.9427
  544MOL0     C74972  10.657   6.458   8.919 -0.0866  0.4803  0.6297
  544MOL0     C74973  10.755   6.481   8.804  0.8801  0.0989 -0.8220
  544MOL0     C74974  10.851   6.597   8.843  0.1046  0.1035  0.5484
  544MOL0     C74975  10.965   6.605   8.748  1.1475  0.8776 -0.7517
  544MOL0     C74976  11.076   6.708   8.794 -0.4285  0.4588  0.0540
  544MOL0     C74977  11.043   6.849   8.850  0.3967  0.5278  0.1928
  544MOL0     C74978  10.989   6.948   8.753  0.4625 -0.2635 -1.2523
  544MOL0    Cl74979  10.813   6.910   8.705  0.0807 -0.1430  0.5800
  544MOL0     C74980  10.541   6.039   8.847 -0.0102 -0.1787  0.1191
  544MOL0     C74981  10.487   5.912   8.873 -0.2579 -0.0237  0.3060
  544MOL0     O74982  10.640   5.644   8.998  0.0573 -0.2084 -0.1149
  544MOL0     C74983  10.357   5.476   9.124  0.7501  0.3157 -0.3489
  544MOL0     C74984  10.285   5.354   9.123 -0.6655 -0.0911  0.0235
  544MOL0     N74985   9.850   4.783   9.186 -0.3557  0.4619 -0.0674
  544MOL0     N74986   9.769   4.727   9.263 -1.3371 -0.5384 -0.8823
  544MOL0     C74987   9.740   3.952  10.212  0.1906 -0.1801 -0.1216
  544MOL0     C74988   9.689   3.843  10.284 -0.7246  0.0878 -0.2077
  544MOL0     C74989   9.509   3.481  10.443  0.2784 -0.0372 -0.2757
  544MOL0     C74990   9.522   3.394  10.334  0.1920 -0.6857 -0.1448
  544MOL0     C74991   9.503   3.259  10.354  1.0511 -0.4467  0.2358
  544MOL0     C74992   9.455   3.205  10.466  0.0730  0.5009 -0.2452
  544MOL0     O74993   9.436   3.074  10.480  0.5335  0.0084  0.3281
  544MOL0     C74994   9.371   3.015  10.359 -0.0064 -0.3799  0.3663
  544MOL0     C74995   9.283   2.890  10.385  1.1893 -0.8186  0.0384
  544MOL0     C74996   9.234   2.844  10.249 -0.2721  0.0871  0.7635
  544MOL0     C74997   9.130   2.725  10.242 -0.9092  0.4175  0.3853
  544MOL0     C74998   9.023   2.729  10.351  0.1997 -0.2781  0.1029
  544MOL0     C74999   8.953   2.750  10.448 -0.1723 -0.0401  0.5520
  544MOL0     C75000   9.455   3.278  10.583  0.3096  0.2259 -0.2916
  544MOL0     C75001   9.473   3.422  10.577 -0.9103  0.2228  0.3896
  544MOL0     C75002   9.428   3.489  10.698 -0.2058  0.1991  0.3474
  544MOL0     H75003   9.401   3.785  10.119  0.0821  0.6502 -2.8160
  544MOL0     H75004   9.476   3.982   9.994 -1.5099 -0.3554  0.8456
  544MOL0     H75005   9.901   4.121   9.953  1.6311  0.3543  1.3433
  544MOL0     H75006   9.890   4.174  10.118 -1.9167  1.5385  1.6667
  544MOL0     H75007   9.807   4.380  10.055 -1.2563  0.3768  0.1429
  544MOL0     H75008   9.906   4.335   9.907 -0.5552  0.3353 -1.2030
  544MOL0     H75009   9.679   4.266   9.810 -0.0894 -2.0018  2.0999
  544MOL0     H75010   9.597   4.309   9.960 -0.5409 -1.5574 -0.6996
  544MOL0     H75011   9.599   4.524   9.934 -1.3289 -1.9761  0.5597
  544MOL0     H75012   9.752   4.528   9.829  1.0589 -2.3389 -1.5029
  544MOL0     H75013   9.513   4.593   9.736 -0.4435 -0.0817 -1.6141
  544MOL0     H75014   9.470   4.424   9.759 -0.6723  1.9406  0.2821
  544MOL0     H75015   9.641   4.350   9.603  2.1765  0.3121 -0.2942
  544MOL0     H75016   9.539   4.463   9.514  2.7552  0.4074 -1.4990
  544MOL0     H75017   9.813   4.546   9.591 -0.7213 -3.8446  0.6207
  544MOL0     H75018   9.687   4.653   9.531 -0.7864 -0.9149 -1.1167
  544MOL0     H75019   9.815   4.427   9.403 -0.1111 -0.0465  4.4006
  544MOL0     H75020   9.652   4.484   9.348 -1.1633  1.3250  1.4369
  544MOL0     H75021  10.020   4.516   9.261 -0.3984 -1.0754 -3.2962
  544MOL0     H75022  10.084   4.674   9.007 -0.4975 -0.0602  0.4165
  544MOL0     H75023  10.180   4.693   9.159 -0.5387 -1.2958 -0.0852
  544MOL0     H75024  10.209   4.879   8.990  0.6539  2.6628  0.2847
  544MOL0     H75025  10.039   4.916   9.008 -0.9413 -1.5806  0.2897
  544MOL0     H75026  10.077   4.933   9.262  1.1725  0.8031  0.7930
  544MOL0     H75027  10.247   4.899   9.230  0.4003  0.7585  1.1253
  544MOL0     H75028  10.093   5.121   9.107  0.8272  1.0546 -2.0226
  544MOL0     H75029  10.182   5.147   9.260 -4.2987  1.2745 -0.6442
  544MOL0     H75030  10.524   5.164   8.981  0.7422  0.7132  1.2625
  544MOL0     H75031  10.721   5.461   8.919  0.6698 -0.7631  1.5532
  544MOL0     H75032  10.625   5.385   8.790  3.6756  3.8377 -1.1389
  544MOL0     H75033  10.707   5.289   8.918  1.3239  0.1274 -1.3022
  544MOL0     H75034  10.552   5.886   9.209 -2.4407 -2.4784 -0.6879
  544MOL0     H75035  10.676   6.105   9.147  0.6062 -1.1649  0.5425
  544MOL0     H75036  10.546   6.317   8.793 -2.4479 -0.4253  0.0439
  544MOL0     H75037  10.493   6.323   8.955  0.6411  2.5023 -0.4115
  544MOL0     H75038  10.600   6.550   8.933  2.4613  2.3407 -0.3312
  544MOL0     H75039  10.714   6.444   9.011  2.1788 -1.3468 -0.9233
  544MOL0     H75040  10.696   6.516   8.719 -1.7038 -0.9733  0.4235
  544MOL0     H75041  10.814   6.393   8.775  0.8999  0.6474 -2.5932
  544MOL0     H75042  10.898   6.568   8.937  1.3174 -0.9014 -0.3300
  544MOL0     H75043  10.794   6.689   8.858  0.2418  0.4690 -0.9934
  544MOL0     H75044  11.001   6.502   8.733 -1.8979 -0.7501  1.9821
  544MOL0     H75045  10.932   6.642   8.651 -0.6843  1.2682 -0.0202
  544MOL0     H75046  11.135   6.715   8.702  0.8403 -0.4910  0.7694
  544MOL0     H75047  11.133   6.649   8.866 -2.5797 -0.1943  1.3250
  544MOL0     H75048  11.132   6.889   8.900  0.1989 -0.6619  1.5513
  544MOL0     H75049  10.969   6.842   8.930 -0.1826 -0.1813 -0.3965
  544MOL0     H75050  11.053   6.954   8.664  0.5072  0.9738 -1.1566
  544MOL0     H75051  10.986   7.049   8.795  1.5431  0.0923 -2.0028
  544MOL0     H75052  10.534   6.081   8.747  0.3867  1.2291  0.6496
  544MOL0     H75053  10.425   5.854   8.804 -1.1118  3.4810 -2.1474
  544MOL0     H75054  10.313   5.563   9.172 -0.4485  0.4038 -1.5541
  544MOL0     H75055  10.195   5.341   9.184  0.0984 -3.5567  0.6215
  544MOL0     H75056   9.841   3.982  10.240  1.8072 -2.6237 -2.6935
  544MOL0     H75057   9.744   3.813  10.373  0.6112 -3.1705 -1.9584
  544MOL0     H75058   9.555   3.422  10.234 -0.0881  0.6786  0.1129
  544MOL0     H75059   9.528   3.192  10.272  2.2290 -1.0602  1.0605
  544MOL0     H75060   9.300   3.089  10.322  0.3821  1.5872  3.2248
  544MOL0     H75061   9.437   3.003  10.273 -4.1021  0.2327 -3.2083
  544MOL0     H75062   9.199   2.910  10.453  0.8168 -0.2306 -0.5920
  544MOL0     H75063   9.335   2.804  10.428 -1.0073 -1.7924  0.9097
  544MOL0     H75064   9.190   2.929  10.196  0.1450  0.8324  1.5923
  544MOL0     H75065   9.316   2.812  10.184 -1.1771  0.6774 -0.7181
  544MOL0     H75066   9.184   2.630  10.250  0.1602  0.8657 -1.0706
  544MOL0     H75067   9.093   2.715  10.139 -1.0070  0.2489  0.4376
  544MOL0     H75068   8.877   2.769  10.520  1.9395  0.8668  2.6784
  544MOL0     H75069   9.434   3.226  10.676 -1.4734 -2.2337 -1.9553
  544MOL0     H75070   9.514   3.503  10.764 -0.1192  2.2920 -0.1520
  544MOL0     H75071   9.383   3.585  10.672 -3.4588 -0.8015  1.6237
  544MOL0     H75072   9.354   3.437  10.760  0.2430  0.3505  1.0213
  545MOL0     O75073   4.490   3.083   3.371 -0.0186  0.0690  0.5196
  545MOL0     C75074   4.464   2.965   3.362  0.1694  0.4806  0.3039
  545MOL0     O75075   4.468   2.885   3.467 -0.1534  0.4057 -0.7192
  545MOL0     C75076   4.538   2.923   3.576 -0.4003 -0.2412  0.2246
  545MOL0     C75077   4.671   2.921   3.574 -0.3554 -0.0213  0.1315
  545MOL0     C75078   4.749   2.967   3.678 -0.1224  0.5670 -0.4865
  545MOL0     C75079   4.693   3.024   3.787  0.2783 -0.0008 -0.2159
  545MOL0     O75080   4.770   3.073   3.887 -0.5657  0.2593 -0.1924
  545MOL0     C75081   4.855   2.978   3.956 -0.1545 -0.4476  0.0943
  545MOL0     C75082   4.963   3.051   4.033  0.4056 -0.0148  0.0592
  545MOL0     C75083   5.080   3.112   3.949 -0.2600  0.5590  0.1391
  545MOL0     C75084   5.175   3.206   4.022 -0.1081  0.0706 -0.4166
  545MOL0     C75085   5.327   3.212   3.970  0.1184  0.0977  0.2299
  545MOL0     C75086   5.346   3.341   3.891 -0.3211  0.0735 -0.1643
  545MOL0     C75087   5.485   3.342   3.825 -0.5082 -0.6720 -0.2876
  545MOL0     C75088   5.469   3.350   3.669  0.6432 -0.1067  0.4163
  545MOL0     N75089   5.578   3.423   3.613 -0.8575 -0.3494 -0.0830
  545MOL0     C75090   5.718   3.396   3.631  0.0210 -0.1731 -0.3663
  545MOL0     C75091   5.778   3.470   3.535  0.0081  0.5079 -0.2600
  545MOL0     C75092   5.935   3.495   3.524 -0.3289  0.3447  0.0434
  545MOL0     C75093   6.001   3.361   3.481  0.4886  0.0506  0.0306
  545MOL0     C75094   6.154   3.375   3.489 -0.2561 -0.3687  0.3384
  545MOL0     C75095   6.212   3.236   3.482  0.2550 -0.2616  0.0374
  545MOL0     O75096   6.209   3.187   3.337  0.4084  0.3869 -0.4109
  545MOL0     C75097   6.294   3.076   3.311  0.3018 -0.6404  0.1912
  545MOL0     C75098   6.358   3.010   3.407 -0.0188  0.1982 -0.2493
  545MOL0     C75099   6.445   2.907   3.375  0.2595 -0.3306 -0.7724
  545MOL0     C75100   6.518   2.843   3.486 -0.6549  0.0715  0.0949
  545MOL0     C75101   6.450   2.859   3.246 -0.4103 -2.0069  0.5496
  545MOL0     C75102   6.536   2.753   3.197 -0.9908 -0.3232  0.3757
  545MOL0     O75103   6.487   2.688   3.089  0.3487 -0.5716  0.7199
  545MOL0     C75104   6.577   2.620   3.012  0.3826  0.3514  0.1763
  545MOL0     C75105   6.601   2.488   3.030  0.3340 -0.7073  0.0409
  545MOL0     C75106   6.695   2.425   2.954 -0.0217  0.5936  0.1768
  545MOL0     C75107   6.772   2.497   2.869 -0.1174  0.4555  0.0962
  545MOL0     O75108   6.857   2.434   2.789 -0.3818  0.5299 -0.2217
  545MOL0     C75109   6.877   2.480   2.654 -0.1092  0.2580 -0.3672
  545MOL0     C75110   6.754   2.432   2.580  0.2292 -0.3127 -0.2478
  545MOL0     C75111   6.758   2.458   2.429  0.5536  0.4104 -0.1140
  545MOL0     C75112   6.629   2.436   2.358  0.1672 -0.6678 -0.5617
  545MOL0     C75113   6.641   2.482   2.213 -0.2868  0.2296  0.2776
  545MOL0     C75114   6.515   2.463   2.124  0.1073 -0.3757  0.2523
  545MOL0     C75115   6.516   2.532   1.985  0.6891 -0.7828 -0.8528
  545MOL0     C75116   6.414   2.468   1.891 -1.2323  0.7250 -0.7464
  545MOL0    Cl75117   6.472   2.301   1.865 -0.1518 -0.0798  0.1068
  545MOL0     C75118   6.765   2.632   2.854 -0.1364 -0.4321 -0.0257
  545MOL0     C75119   6.662   2.697   2.932 -0.1970  0.0219 -0.4150
  545MOL0     O75120   6.645   2.722   3.251 -0.3411 -0.5764 -0.1708
  545MOL0     C75121   6.403   2.944   3.149  0.6395  0.6572 -0.1050
  545MOL0     C75122   6.312   3.041   3.178 -0.1487  0.3155 -0.4193
  545MOL0     N75123   5.672   3.530   3.458 -0.3594  0.2675 -0.2890
  545MOL0     N75124   5.560   3.497   3.502 -0.1379  0.8900 -0.0495
  545MOL0     C75125   4.557   3.033   3.799  0.3982  0.3188  0.2805
  545MOL0     C75126   4.470   2.985   3.692 -0.2465  0.2112  0.0191
  545MOL0     C75127   4.415   2.912   3.237 -0.4572  0.4225  0.5115
  545MOL0     C75128   4.457   2.785   3.196 -0.2378  0.8567 -1.2615
  545MOL0     C75129   4.414   2.724   3.080 -0.3016 -0.1920 -0.1260
  545MOL0     C75130   4.323   2.789   3.001 -0.0016 -1.0554 -0.0807
  545MOL0     O75131   4.291   2.734   2.880  0.4871 -0.1515  0.1387
  545MOL0     C75132   4.360   2.618   2.823 -0.1074 -0.0997  0.0359
  545MOL0     C75133   4.495   2.665   2.768 -0.5942 -0.7383 -1.6113
  545MOL0     C75134   4.575   2.556   2.691 -0.7832  1.2220  0.6090
  545MOL0     C75135   4.664   2.610   2.586  0.7934 -0.8208 -0.4779
  545MOL0     C75136   4.782   2.649   2.644 -0.2298 -0.7445 -0.8180
  545MOL0     C75137   4.881   2.690   2.699 -0.2140 -0.2425 -0.1686
  545MOL0     C75138   4.278   2.916   3.037  0.6422 -0.1820 -0.6572
  545MOL0     C75139   4.319   2.976   3.162  0.2931 -0.9152 -0.0263
  545MOL0     C75140   4.253   3.109   3.190 -1.1133  0.5265  0.5363
  545MOL0     H75141   4.722   2.903   3.480 -0.3486  0.2077  0.0908
  545MOL0     H75142   4.856   2.960   3.667  0.1171  0.1929  1.5860
  545MOL0     H75143   4.911   2.910   3.891  1.7386 -0.3516  1.5383
  545MOL0     H75144   4.802   2.926   4.036  3.6444  0.2692  3.4522
  545MOL0     H75145   4.911   3.124   4.095 -0.9464 -1.5116  0.7436
  545MOL0     H75146   5.018   2.985   4.101  0.7725  0.3504  0.1258
  545MOL0     H75147   5.137   3.030   3.906 -1.4231 -0.3696  0.3130
  545MOL0     H75148   5.022   3.160   3.869  1.5776  2.3718 -0.1896
  545MOL0     H75149   5.142   3.310   4.022  1.7276  0.6944 -1.2712
  545MOL0     H75150   5.174   3.176   4.128  0.7420  2.2500  0.2673
  545MOL0     H75151   5.340   3.128   3.901  0.2684  1.1092 -1.0214
  545MOL0     H75152   5.396   3.219   4.055 -1.0943  2.1701  1.1147
  545MOL0     H75153   5.261   3.355   3.823 -0.1303 -0.6833 -0.5606
  545MOL0     H75154   5.354   3.421   3.965  2.7235 -0.3421  0.0518
  545MOL0     H75155   5.540   3.254   3.860  0.1906 -1.2941 -2.7433
  545MOL0     H75156   5.534   3.433   3.861 -2.2564 -0.0575  0.6443
  545MOL0     H75157   5.471   3.247   3.634  1.9169 -0.8587  2.4947
  545MOL0     H75158   5.377   3.407   3.653 -0.2762 -1.0229  2.1826
  545MOL0     H75159   5.767   3.339   3.710 -0.1654  1.7087  1.1933
  545MOL0     H75160   5.965   3.543   3.618 -0.6857  2.8696 -1.0458
  545MOL0     H75161   5.945   3.573   3.447  0.3840  0.0922 -0.1278
  545MOL0     H75162   5.967   3.283   3.550 -0.3136  0.3545 -0.0073
  545MOL0     H75163   5.971   3.344   3.377 -3.7366  3.9327  0.3309
  545MOL0     H75164   6.192   3.434   3.404  1.6034  1.5345  2.3705
  545MOL0     H75165   6.179   3.419   3.586 -0.1206 -4.1655  2.2087
  545MOL0     H75166   6.317   3.249   3.508  0.6817 -3.9703  0.6508
  545MOL0     H75167   6.161   3.180   3.561  0.7530  0.1796  0.6722
  545MOL0     H75168   6.349   3.037   3.512  2.4000  2.9072 -0.6200
  545MOL0     H75169   6.626   2.853   3.469 -0.0426 -1.6932  2.4133
  545MOL0     H75170   6.502   2.736   3.492 -0.1870 -0.2608 -2.9750
  545MOL0     H75171   6.489   2.877   3.586  0.6429 -2.0394  1.2671
  545MOL0     H75172   6.541   2.436   3.104 -1.2745  0.2118 -0.5692
  545MOL0     H75173   6.712   2.319   2.970  0.4782  0.5917 -0.3413
  545MOL0     H75174   6.890   2.588   2.647 -0.0063  0.3556  1.1816
  545MOL0     H75175   6.965   2.437   2.606  2.8543  0.6877  4.1214
  545MOL0     H75176   6.742   2.324   2.590 -0.3403 -0.4075 -1.7040
  545MOL0     H75177   6.666   2.478   2.626  1.7712  4.2177 -1.2222
  545MOL0     H75178   6.843   2.401   2.389  0.4367  1.8530 -2.5904
  545MOL0     H75179   6.774   2.565   2.421  1.9558  0.3849  1.6722
  545MOL0     H75180   6.551   2.497   2.406 -0.3967 -1.1741 -0.8271
  545MOL0     H75181   6.596   2.332   2.357 -2.2227  0.0283 -1.4814
  545MOL0     H75182   6.666   2.588   2.215 -0.4982  0.2781  2.0464
  545MOL0     H75183   6.728   2.430   2.170 -0.8905 -0.1003 -0.5675
  545MOL0     H75184   6.432   2.508   2.179 -0.3088  1.6564 -1.8796
  545MOL0     H75185   6.493   2.357   2.111 -1.3829 -0.1086  0.4390
  545MOL0     H75186   6.614   2.535   1.937  1.0937 -2.5098 -0.2020
  545MOL0     H75187   6.495   2.635   2.015 -0.1464 -1.7690  2.3906
  545MOL0     H75188   6.402   2.524   1.798  1.4908 -2.1898 -3.0719
  545MOL0     H75189   6.317   2.463   1.942 -1.1173  1.7895 -0.4087
  545MOL0     H75190   6.833   2.695   2.799  0.5485 -3.9043 -3.6062
  545MOL0     H75191   6.666   2.806   2.932  1.3710  0.0560  2.2438
  545MOL0     H75192   6.433   2.920   3.047 -0.6661  0.0639 -0.3736
  545MOL0     H75193   6.259   3.097   3.101 -1.0653 -0.4436 -0.3566
  545MOL0     H75194   4.510   3.075   3.887  0.9986  1.8841 -0.1017
  545MOL0     H75195   4.362   2.981   3.701 -0.3218 -1.5637 -1.1115
  545MOL0     H75196   4.520   2.731   3.266 -1.1328 -0.9615 -1.8006
  545MOL0     H75197   4.449   2.623   3.062 -3.2028 -1.2898 -0.0815
  545MOL0     H75198   4.358   2.530   2.889 -1.7558 -0.0949  0.0385
  545MOL0     H75199   4.290   2.588   2.745 -1.4562  0.1225  1.1287
  545MOL0     H75200   4.554   2.706   2.850 -1.1252  0.8432 -1.9856
  545MOL0     H75201   4.476   2.751   2.703  0.8233 -0.1677 -1.3102
  545MOL0     H75202   4.637   2.490   2.753  0.6769  1.2494 -0.7587
  545MOL0     H75203   4.502   2.488   2.647  1.4992 -2.3465  1.8568
  545MOL0     H75204   4.623   2.697   2.533 -1.7227  0.2004  2.7893
  545MOL0     H75205   4.691   2.540   2.506 -3.0921  1.7733 -4.5428
  545MOL0     H75206   4.968   2.712   2.758 -1.8219  3.0873  1.2204
  545MOL0     H75207   4.206   2.973   2.979  1.5187  1.1493 -0.4810
  545MOL0     H75208   4.151   3.110   3.151 -1.0179 -1.6181  0.1356
  545MOL0     H75209   4.237   3.122   3.297 -2.5353  0.5173  0.3403
  545MOL0     H75210   4.316   3.188   3.148  2.0626 -0.1329  3.6103
  546MOL0     O75211   9.015   8.478   2.295 -0.1161  0.8364 -0.3214
  546MOL0     C75212   9.021   8.366   2.241  0.5790  0.0931 -0.2379
  546MOL0     O75213   9.026   8.336   2.106 -0.9131  0.2011 -0.1227
  546MOL0     C75214   9.027   8.446   2.031  0.0454 -0.5635 -0.4365
  546MOL0     C75215   8.909   8.502   1.994 -0.6391  0.2275  0.2746
  546MOL0     C75216   8.914   8.603   1.894 -0.3363  0.2809 -0.2190
  546MOL0     C75217   9.033   8.656   1.842  0.7417 -0.2111 -0.2677
  546MOL0     O75218   9.023   8.764   1.759  0.0312 -0.2966 -0.4752
  546MOL0     C75219   9.120   8.777   1.647 -0.6657 -0.0451 -0.4552
  546MOL0     C75220   9.111   8.656   1.545 -0.5733 -0.1159 -1.0649
  546MOL0     C75221   9.206   8.670   1.431  0.2060 -0.0015  0.3566
  546MOL0     C75222   9.127   8.750   1.324  0.1452  0.1082 -0.3724
  546MOL0     C75223   9.194   8.783   1.193 -0.3046  0.4928  0.3999
  546MOL0     C75224   9.227   8.659   1.111 -0.6222 -0.0191 -0.3693
  546MOL0     C75225   9.293   8.715   0.980 -0.0647 -0.9261 -0.4423
  546MOL0     C75226   9.275   8.623   0.854  0.4466 -0.3451 -0.3400
  546MOL0     N75227   9.348   8.502   0.878 -0.3372  0.3897  0.2973
  546MOL0     C75228   9.303   8.395   0.947 -0.1583 -0.2270 -0.0249
  546MOL0     C75229   9.404   8.304   0.923 -0.0111 -0.3104 -0.1022
  546MOL0     C75230   9.399   8.165   0.991 -0.1998 -0.3437  0.0099
  546MOL0     C75231   9.537   8.112   1.018 -0.2447 -0.5455  0.4418
  546MOL0     C75232   9.539   7.957   1.036  0.8600  0.1817 -0.1547
  546MOL0     C75233   9.685   7.913   1.048 -0.2686 -1.4799 -0.0961
  546MOL0     O75234   9.739   7.970   1.169 -0.1890  0.0532 -0.1831
  546MOL0     C75235   9.830   8.070   1.183  0.1550 -0.1120 -0.6401
  546MOL0     C75236   9.890   8.076   1.313  0.9306  0.4318  0.0338
  546MOL0     C75237   9.979   8.176   1.355 -0.7332 -0.9349 -0.2766
  546MOL0     C75238  10.046   8.169   1.491 -0.8820 -0.3239 -0.0155
  546MOL0     C75239  10.032   8.260   1.253  0.2073 -0.2358  0.0431
  546MOL0     C75240  10.139   8.359   1.278  0.2265  0.3859  0.6222
  546MOL0     O75241  10.150   8.451   1.177  0.2095 -0.2292 -0.1722
  546MOL0     C75242  10.247   8.551   1.196  0.2128  0.0470 -1.3907
  546MOL0     C75243  10.361   8.543   1.110 -0.1066 -0.2635  0.0503
  546MOL0     C75244  10.458   8.641   1.121  0.1494 -0.4414  0.3948
  546MOL0     C75245  10.461   8.734   1.229 -0.2683 -0.1427  0.2094
  546MOL0     O75246  10.586   8.794   1.256  0.4497  0.6256  0.5802
  546MOL0     C75247  10.587   8.885   1.364 -0.0185 -0.4325  0.3821
  546MOL0     C75248  10.732   8.940   1.376  0.2413 -0.3854 -0.8150
  546MOL0     C75249  10.749   9.016   1.514  0.2978  0.4205  0.3461
  546MOL0     C75250  10.864   9.104   1.512 -1.3130  0.5110 -0.0815
  546MOL0     C75251  10.901   9.162   1.648 -0.1576  0.3070  0.4514
  546MOL0     C75252  11.035   9.241   1.660 -0.4035  0.3309  0.6079
  546MOL0     C75253  11.041   9.392   1.654 -0.7356 -0.2436 -0.5592
  546MOL0     C75254  10.982   9.462   1.773  1.3959  0.1981  0.2537
  546MOL0    Cl75255  10.798   9.456   1.769 -0.4632 -0.1997  0.1304
  546MOL0     C75256  10.358   8.730   1.318  0.3563 -0.2296 -0.7973
  546MOL0     C75257  10.242   8.645   1.297 -0.0927  0.1301  0.0497
  546MOL0     O75258  10.214   8.359   1.376  0.6070 -0.1103 -0.5408
  546MOL0     C75259   9.969   8.255   1.125  0.1408  0.8958  0.7279
  546MOL0     C75260   9.872   8.163   1.087  0.2317  0.5913 -0.1918
  546MOL0     N75261   9.494   8.354   0.829 -0.1519 -0.1940 -0.3034
  546MOL0     N75262   9.449   8.470   0.796 -0.5112  0.2741  0.2997
  546MOL0     C75263   9.148   8.593   1.888 -0.1047 -0.3669 -0.1256
  546MOL0     C75264   9.144   8.493   1.979  0.1490  1.1055  0.0884
  546MOL0     C75265   9.009   8.240   2.326 -0.5186 -0.5145  0.0915
  546MOL0     C75266   8.997   8.124   2.256  1.0367 -0.7001  0.0364
  546MOL0     C75267   8.971   8.011   2.324 -0.6645  0.4373  0.4924
  546MOL0     C75268   8.958   8.005   2.464  0.5070  1.0279  0.1114
  546MOL0     O75269   8.918   7.887   2.520  0.5873  0.5777 -0.1976
  546MOL0     C75270   8.910   7.864   2.659  0.1030  0.5215 -0.3908
  546MOL0     C75271   8.880   7.716   2.701 -0.4628 -0.8720 -0.0500
  546MOL0     C75272   9.002   7.624   2.665 -0.5758  0.4424 -1.1744
  546MOL0     C75273   9.027   7.505   2.763  0.4072 -0.0624  0.7510
  546MOL0     C75274   9.136   7.555   2.848 -0.2411 -0.4871 -0.0734
  546MOL0     C75275   9.217   7.610   2.922 -0.1095  0.9914  0.8400
  546MOL0     C75276   8.982   8.122   2.534  0.3023 -0.4830  0.4167
  546MOL0     C75277   9.008   8.246   2.469  0.1522  0.1222 -0.7272
  546MOL0     C75278   9.015   8.368   2.553 -0.3735  0.4129  1.0791
  546MOL0     H75279   8.819   8.484   2.053 -0.2142  1.2417  1.2606
  546MOL0     H75280   8.817   8.623   1.849 -1.2900 -4.4972 -0.7858
  546MOL0     H75281   9.224   8.795   1.676  0.3711 -1.2303 -3.1082
  546MOL0     H75282   9.091   8.867   1.591  0.5319  0.9954  0.5555
  546MOL0     H75283   9.141   8.575   1.612  1.6377  1.4018 -0.0768
  546MOL0     H75284   9.006   8.648   1.515 -1.0853  4.1581 -1.0292
  546MOL0     H75285   9.292   8.729   1.464 -0.8126  1.3512  0.6757
  546MOL0     H75286   9.239   8.571   1.398 -0.6160 -0.5110  1.0220
  546MOL0     H75287   9.028   8.705   1.313 -0.5665  1.6986 -0.7133
  546MOL0     H75288   9.092   8.845   1.366 -2.8302 -0.9051 -0.2765
  546MOL0     H75289   9.286   8.839   1.212  1.5246 -2.3514  0.5221
  546MOL0     H75290   9.126   8.845   1.134  0.7865  0.2345 -1.1613
  546MOL0     H75291   9.300   8.603   1.169  0.5449  1.4845 -0.3165
  546MOL0     H75292   9.137   8.598   1.103 -0.1754 -0.6134 -0.9357
  546MOL0     H75293   9.402   8.724   0.992  0.0866  0.6061 -2.3807
  546MOL0     H75294   9.246   8.811   0.957 -4.6755 -2.2888  2.1079
  546MOL0     H75295   9.169   8.595   0.853  0.1323  0.8002 -0.3137
  546MOL0     H75296   9.305   8.677   0.764  1.6691 -2.2936 -1.1545
  546MOL0     H75297   9.211   8.379   1.002 -0.3107 -0.4171 -0.3334
  546MOL0     H75298   9.331   8.097   0.938 -0.2493 -0.3192  0.0415
  546MOL0     H75299   9.351   8.159   1.089 -0.8568  0.7617 -0.2150
  546MOL0     H75300   9.598   8.121   0.928  1.1765  0.2154  1.4490
  546MOL0     H75301   9.589   8.160   1.101  0.0970 -0.2192  0.0405
  546MOL0     H75302   9.483   7.933   1.126  0.1774 -2.3221 -1.1867
  546MOL0     H75303   9.490   7.914   0.948  1.5261  0.8095 -0.8481
  546MOL0     H75304   9.691   7.805   1.058 -0.1467 -1.4802 -0.1715
  546MOL0     H75305   9.748   7.943   0.964  0.1908 -2.4663 -0.1177
  546MOL0     H75306   9.862   8.005   1.390 -0.3497  1.7434  0.8189
  546MOL0     H75307  10.058   8.267   1.539  0.0205 -0.3657 -0.1376
  546MOL0     H75308  10.142   8.119   1.473  0.7768  2.8077 -0.7008
  546MOL0     H75309   9.993   8.099   1.556 -1.5883  3.0419  3.3938
  546MOL0     H75310  10.378   8.474   1.027 -0.5556 -3.2506  2.2946
  546MOL0     H75311  10.533   8.646   1.043 -3.9349 -0.3626 -4.0240
  546MOL0     H75312  10.510   8.961   1.346  0.0752 -0.8977 -2.6369
  546MOL0     H75313  10.563   8.827   1.454 -0.8532 -1.8427 -0.6939
  546MOL0     H75314  10.804   8.859   1.388  0.5338 -0.0144 -0.0018
  546MOL0     H75315  10.764   8.994   1.287  0.6756 -0.2101 -0.5518
  546MOL0     H75316  10.765   8.940   1.591 -2.2534 -1.5949 -0.9608
  546MOL0     H75317  10.662   9.082   1.525  1.2906  1.8497 -0.1275
  546MOL0     H75318  10.848   9.191   1.448  0.6418  1.7518  1.0214
  546MOL0     H75319  10.956   9.051   1.486  1.3241  3.5412  2.2396
  546MOL0     H75320  10.815   9.221   1.679  0.5187  1.2317  0.6038
  546MOL0     H75321  10.914   9.073   1.710  2.0502 -1.2060 -1.9857
  546MOL0     H75322  11.105   9.200   1.587  0.6566  0.2909  1.6073
  546MOL0     H75323  11.075   9.211   1.758 -2.6741  0.3349  1.6252
  546MOL0     H75324  10.996   9.437   1.565 -0.2424 -0.5831 -0.9928
  546MOL0     H75325  11.148   9.416   1.652 -1.0003  1.1948  0.9599
  546MOL0     H75326  10.995   9.570   1.771 -0.1780  0.5078  2.6500
  546MOL0     H75327  11.024   9.435   1.870 -0.2872  0.9680  1.2441
  546MOL0     H75328  10.349   8.784   1.412 -0.9910  0.3709 -1.2407
  546MOL0     H75329  10.161   8.635   1.368 -0.4522 -1.5801 -0.5464
  546MOL0     H75330  10.004   8.321   1.045  0.9684 -4.0413 -3.5177
  546MOL0     H75331   9.830   8.161   0.987 -0.6279  1.7050  0.1152
  546MOL0     H75332   9.248   8.623   1.856 -0.2233 -0.5098 -0.6320
  546MOL0     H75333   9.240   8.451   2.006 -0.3851 -0.6443 -0.6065
  546MOL0     H75334   9.025   8.114   2.151  0.6047 -2.0474  0.0407
  546MOL0     H75335   8.972   7.921   2.263 -2.0285  2.6377 -3.0798
  546MOL0     H75336   9.004   7.887   2.710 -0.5271  2.1259  0.1119
  546MOL0     H75337   8.844   7.939   2.702  1.2927  0.8338  0.9523
  546MOL0     H75338   8.800   7.682   2.634 -0.6513 -4.1423  1.6009
  546MOL0     H75339   8.848   7.713   2.805 -1.5639 -0.5495 -0.3648
  546MOL0     H75340   8.972   7.574   2.572  2.2499 -1.5642 -1.1230
  546MOL0     H75341   9.095   7.676   2.640 -1.7879  2.1545 -2.3208
  546MOL0     H75342   9.054   7.414   2.707 -0.7312 -1.0928  1.8154
  546MOL0     H75343   8.933   7.473   2.809  1.1837 -2.5332  0.7805
  546MOL0     H75344   9.282   7.653   2.995  0.8029  1.4149 -0.1854
  546MOL0     H75345   8.968   8.137   2.640  0.9318 -0.4691  0.4977
  546MOL0     H75346   8.926   8.427   2.530  0.0268  0.5452 -0.1936
  546MOL0     H75347   9.028   8.337   2.657  0.8398 -2.5572  0.1505
  546MOL0     H75348   9.100   8.431   2.526  0.4387 -0.5787  1.2730
  547MOL0     O75349   2.044   8.378   6.534  0.9985 -0.0290  0.5091
  547MOL0     C75350   2.082   8.486   6.582  0.8602  0.3352 -0.1905
  547MOL0     O75351   1.997   8.593   6.629 -0.7229  0.1347 -0.6680
  547MOL0     C75352   1.874   8.602   6.574  0.6898 -0.7437  0.4045
  547MOL0     C75353   1.778   8.522   6.633 -0.3798  0.2558 -0.3922
  547MOL0     C75354   1.646   8.530   6.589  0.4169  0.7551 -0.0172
  547MOL0     C75355   1.611   8.618   6.486 -0.2282 -0.1574 -0.6585
  547MOL0     O75356   1.480   8.631   6.447 -0.6423  0.0202 -0.2382
  547MOL0     C75357   1.389   8.671   6.548  0.0541  0.5514  0.6087
  547MOL0     C75358   1.245   8.700   6.489  0.5017  0.1584  0.0668
  547MOL0     C75359   1.140   8.757   6.590  0.4281  0.0655  0.2376
  547MOL0     C75360   1.011   8.683   6.559  0.5776  0.1371 -0.6516
  547MOL0     C75361   1.015   8.537   6.614  0.5474 -0.0321 -1.1927
  547MOL0     C75362   0.892   8.457   6.573  0.2661  0.5906  0.0891
  547MOL0     C75363   0.898   8.327   6.653 -0.2918  0.8525 -0.8335
  547MOL0     C75364   0.795   8.224   6.607 -0.3149 -0.1384  0.7835
  547MOL0     N75365   0.836   8.154   6.483  0.0830 -0.4136  0.3180
  547MOL0     C75366   0.833   8.212   6.357  0.3311 -0.4558  0.2826
  547MOL0     C75367   0.882   8.112   6.272 -0.0753  0.0813 -0.3924
  547MOL0     C75368   0.904   8.135   6.128  1.5427 -0.2124  0.0738
  547MOL0     C75369   0.952   8.004   6.065 -0.1901  0.1152  0.9435
  547MOL0     C75370   1.002   8.029   5.916 -0.4416 -0.6504  0.0911
  547MOL0     C75371   1.117   7.933   5.901  0.1354  0.0044  0.9445
  547MOL0     O75372   1.061   7.799   5.930 -0.5240  0.0259 -0.3924
  547MOL0     C75373   1.124   7.700   5.848  0.1930  0.0865 -0.2452
  547MOL0     C75374   1.028   7.605   5.810  0.0388  0.3478 -0.8030
  547MOL0     C75375   1.072   7.496   5.735 -1.1519  0.3922  0.1673
  547MOL0     C75376   0.965   7.388   5.719 -0.0826 -0.7852 -0.1025
  547MOL0     C75377   1.203   7.484   5.682  0.5051  0.2507 -0.3868
  547MOL0     C75378   1.253   7.378   5.592  0.1971  0.4737  0.4634
  547MOL0     O75379   1.385   7.359   5.582 -0.3312  0.7234  0.0426
  547MOL0     C75380   1.445   7.300   5.472 -0.1674  1.1448 -0.3786
  547MOL0     C75381   1.537   7.205   5.511  0.7127  0.0809  0.3346
  547MOL0     C75382   1.608   7.140   5.404 -0.0504 -0.4252 -0.0874
  547MOL0     C75383   1.585   7.165   5.270 -0.8145 -0.5430  0.9337
  547MOL0     O75384   1.645   7.105   5.164 -1.1960 -0.0911 -0.0663
  547MOL0     C75385   1.736   6.999   5.187 -0.1523 -0.1854 -0.3224
  547MOL0     C75386   1.795   6.964   5.047 -0.3865 -0.0106 -0.1046
  547MOL0     C75387   1.711   6.944   4.922 -0.1853 -0.6185  0.3033
  547MOL0     C75388   1.584   6.858   4.960 -1.3568 -0.2515  1.0677
  547MOL0     C75389   1.525   6.774   4.848  1.0481  0.6780  0.1409
  547MOL0     C75390   1.496   6.855   4.721 -0.0273 -0.0767  0.6228
  547MOL0     C75391   1.500   6.742   4.611  0.8755  0.3067  0.0038
  547MOL0     C75392   1.366   6.662   4.613 -0.2678 -0.1498 -0.1227
  547MOL0    Cl75393   1.226   6.755   4.586 -0.3657 -0.6476 -0.2680
  547MOL0     C75394   1.502   7.277   5.245 -0.6677  0.7449  0.5176
  547MOL0     C75395   1.436   7.341   5.342  0.1508 -0.7428  0.2270
  547MOL0     O75396   1.173   7.333   5.509 -0.1181  0.4346  0.1754
  547MOL0     C75397   1.291   7.581   5.732  0.1979 -0.9743 -0.5777
  547MOL0     C75398   1.254   7.688   5.816 -0.1902  0.1609 -0.3709
  547MOL0     N75399   0.940   8.018   6.352  0.0649  0.0649 -0.5213
  547MOL0     N75400   0.906   8.043   6.478 -0.3714  0.1895 -0.4269
  547MOL0     C75401   1.706   8.697   6.421  0.1592  0.0478 -0.5830
  547MOL0     C75402   1.840   8.689   6.471 -0.2281 -0.6532  0.2327
  547MOL0     C75403   2.229   8.496   6.609 -0.7524  0.6137  0.6275
  547MOL0     C75404   2.308   8.379   6.564 -0.4740  0.8664  0.1534
  547MOL0     C75405   2.446   8.386   6.587 -1.1094 -0.2049 -0.9893
  547MOL0     C75406   2.513   8.497   6.640 -0.0203 -0.8329  0.1100
  547MOL0     O75407   2.649   8.469   6.635  0.1953  0.2741 -0.9855
  547MOL0     C75408   2.739   8.562   6.685 -0.5445 -0.0835  0.3091
  547MOL0     C75409   2.868   8.482   6.699 -0.0439 -0.1236  1.1877
  547MOL0     C75410   2.977   8.562   6.770  0.4486  0.7056 -0.6951
  547MOL0     C75411   2.979   8.708   6.745 -0.6723  0.3658 -0.4156
  547MOL0     C75412   3.110   8.762   6.771  0.5833  0.0477 -0.4683
  547MOL0     C75413   3.216   8.809   6.808 -0.7411 -0.0641 -0.7432
  547MOL0     C75414   2.441   8.602   6.689 -0.2786 -0.1704  0.0617
  547MOL0     C75415   2.302   8.608   6.673  0.8276  0.0915  0.0517
  547MOL0     C75416   2.229   8.724   6.730  0.7937 -0.8734 -0.2930
  547MOL0     H75417   1.788   8.453   6.715 -1.5691  2.1573  1.4473
  547MOL0     H75418   1.578   8.476   6.655  0.9724 -0.8842 -0.7217
  547MOL0     H75419   1.434   8.757   6.598  2.0750 -1.1137  1.8654
  547MOL0     H75420   1.371   8.593   6.623  0.9064 -0.8235 -0.5564
  547MOL0     H75421   1.256   8.760   6.399  1.7746 -0.2556 -0.0824
  547MOL0     H75422   1.222   8.606   6.437  1.9099  0.6925 -1.6299
  547MOL0     H75423   1.172   8.737   6.692 -1.8129 -0.2555  0.9326
  547MOL0     H75424   1.121   8.864   6.573  1.5399 -0.0434 -2.1047
  547MOL0     H75425   0.921   8.733   6.596 -0.4222 -0.3407 -2.3122
  547MOL0     H75426   0.983   8.677   6.454 -0.8748 -0.8882 -0.2403
  547MOL0     H75427   1.027   8.547   6.723 -1.9812  3.4621 -1.0688
  547MOL0     H75428   1.104   8.484   6.577 -1.1222 -4.6336  0.6205
  547MOL0     H75429   0.803   8.510   6.609  0.0343  0.5535 -0.4222
  547MOL0     H75430   0.895   8.441   6.465  0.6171  1.0075  0.0359
  547MOL0     H75431   0.869   8.342   6.758 -3.7422  0.4334 -1.6166
  547MOL0     H75432   0.997   8.281   6.650  0.0043  1.5479 -2.3518
  547MOL0     H75433   0.787   8.145   6.682  2.0254 -1.6446 -0.4257
  547MOL0     H75434   0.704   8.278   6.583 -0.6979 -1.7476 -1.7939
  547MOL0     H75435   0.805   8.313   6.330 -1.8426 -1.3540 -1.1242
  547MOL0     H75436   0.982   8.211   6.128  2.2448 -0.8789  1.6026
  547MOL0     H75437   0.813   8.180   6.088  2.1735  1.2855  0.2682
  547MOL0     H75438   1.042   7.972   6.118  2.3742  0.5183 -2.7711
  547MOL0     H75439   0.872   7.930   6.061  0.4882 -0.6098 -1.9325
  547MOL0     H75440   0.920   8.017   5.844  0.8247 -0.5708 -1.4231
  547MOL0     H75441   1.048   8.127   5.900  1.0426 -1.5964 -1.8058
  547MOL0     H75442   1.161   7.942   5.801  1.5492 -1.5425  1.3651
  547MOL0     H75443   1.196   7.957   5.972  1.4988  1.0031 -0.8120
  547MOL0     H75444   0.926   7.620   5.845 -0.4499  3.6075 -3.1059
  547MOL0     H75445   0.893   7.398   5.801 -0.4485  1.1195 -0.6116
  547MOL0     H75446   1.011   7.289   5.731  1.0952 -0.0844  1.6301
  547MOL0     H75447   0.931   7.396   5.616 -1.2526 -0.1737  0.3150
  547MOL0     H75448   1.542   7.188   5.619 -2.1937  0.1583  0.5665
  547MOL0     H75449   1.673   7.062   5.443  0.2620  0.2041  0.6883
  547MOL0     H75450   1.818   7.022   5.256 -2.4296 -2.3270  3.3993
  547MOL0     H75451   1.680   6.921   5.239  1.5969  1.7199  5.1038
  547MOL0     H75452   1.877   7.033   5.024  0.5056 -1.1108 -0.3377
  547MOL0     H75453   1.848   6.868   5.051  1.2117  0.8489  0.4120
  547MOL0     H75454   1.773   6.896   4.846  0.2160 -0.8998  0.7992
  547MOL0     H75455   1.674   7.038   4.881  0.8480  0.0297  0.8139
  547MOL0     H75456   1.506   6.927   4.996 -2.4087  0.0036 -1.4617
  547MOL0     H75457   1.617   6.786   5.035 -1.9967 -0.9471  0.6946
  547MOL0     H75458   1.599   6.697   4.828  1.3446  1.3202 -1.4200
  547MOL0     H75459   1.431   6.726   4.876  2.1377  0.5211  4.1123
  547MOL0     H75460   1.579   6.915   4.684  0.8247 -1.2057  0.6558
  547MOL0     H75461   1.405   6.915   4.718  0.3351  0.4696  0.4267
  547MOL0     H75462   1.588   6.678   4.623  0.2280 -0.9573 -1.5759
  547MOL0     H75463   1.500   6.788   4.511  1.0527  0.7757  0.2147
  547MOL0     H75464   1.360   6.593   4.698 -1.6624 -1.2301 -1.0432
  547MOL0     H75465   1.375   6.593   4.529 -0.8871 -0.7711  0.3089
  547MOL0     H75466   1.489   7.297   5.139  0.3728 -1.9850 -0.2085
  547MOL0     H75467   1.375   7.429   5.324  0.4253 -0.9133 -1.6613
  547MOL0     H75468   1.396   7.575   5.708  0.6302  0.2292  0.8919
  547MOL0     H75469   1.331   7.754   5.854  0.0204 -0.8526  1.0487
  547MOL0     H75470   1.682   8.770   6.345  0.2326  0.9079  0.2035
  547MOL0     H75471   1.915   8.756   6.430 -1.6789  0.0309 -1.4464
  547MOL0     H75472   2.260   8.288   6.528 -0.8008  0.1518  2.2670
  547MOL0     H75473   2.514   8.306   6.559 -0.3312 -0.4051  1.3211
  547MOL0     H75474   2.746   8.648   6.617  0.6826 -0.0340  0.4633
  547MOL0     H75475   2.712   8.604   6.782  1.3924  2.9268 -0.3237
  547MOL0     H75476   2.900   8.448   6.600  0.2048  1.6870  0.6116
  547MOL0     H75477   2.848   8.391   6.758 -3.2296 -0.4869 -0.2077
  547MOL0     H75478   2.968   8.538   6.876 -0.8726  0.8195 -0.7580
  547MOL0     H75479   3.072   8.522   6.734 -1.3263 -1.4305 -3.4464
  547MOL0     H75480   2.903   8.764   6.801 -0.5792  0.5691 -0.4923
  547MOL0     H75481   2.964   8.724   6.638 -1.7603 -1.8933 -0.6600
  547MOL0     H75482   3.306   8.857   6.839 -2.9787  3.2682  1.2645
  547MOL0     H75483   2.492   8.685   6.737  0.6900 -0.4806 -0.3883
  547MOL0     H75484   2.285   8.807   6.774 -1.1900  0.2050  0.3510
  547MOL0     H75485   2.160   8.769   6.658 -1.2989 -0.8326  1.6075
  547MOL0     H75486   2.163   8.686   6.810  1.7072 -0.9750  0.4300
  548MOL0     O75487  10.364   3.972   9.345 -0.4928 -0.2815 -0.4620
  548MOL0     C75488  10.433   3.887   9.299  0.0313 -0.9252  0.7390
  548MOL0     O75489  10.565   3.900   9.258  0.4169 -0.3815 -0.3411
  548MOL0     C75490  10.643   4.016   9.239  0.9802 -0.8984 -0.2495
  548MOL0     C75491  10.777   4.005   9.185 -0.3338  0.0132 -0.6245
  548MOL0     C75492  10.858   4.124   9.161  0.3382  1.2371 -0.7088
  548MOL0     C75493  10.804   4.244   9.184  0.7085  0.3971 -0.5813
  548MOL0     O75494  10.876   4.356   9.173 -0.3811 -0.6088 -0.1909
  548MOL0     C75495  11.012   4.348   9.124  1.0529  0.4050  0.1677
  548MOL0     C75496  11.073   4.482   9.108 -0.4751 -0.2907 -0.6280
  548MOL0     C75497  11.096   4.568   9.229 -0.9660 -0.5900 -0.6983
  548MOL0     C75498  11.189   4.686   9.197 -0.2698 -0.6368 -0.4408
  548MOL0     C75499  11.184   4.790   9.311  0.2984  0.4477  0.8651
  548MOL0     C75500  11.304   4.882   9.294  0.0640  0.1791 -0.6836
  548MOL0     C75501  11.317   5.003   9.391 -0.7479 -0.7236  0.3953
  548MOL0     C75502  11.198   5.110   9.379  0.4038 -0.0370  0.0721
  548MOL0     N75503  11.185   5.204   9.492  0.2945 -0.6587 -0.6412
  548MOL0     C75504  11.155   5.163   9.629  0.3543 -0.6499 -0.1213
  548MOL0     C75505  11.186   5.277   9.703 -0.6229 -0.1771 -0.0685
  548MOL0     C75506  11.195   5.268   9.852 -0.0005 -0.6335 -0.0610
  548MOL0     C75507  11.192   5.417   9.906  0.5161 -0.4504 -0.3029
  548MOL0     C75508  11.152   5.428  10.059  0.6267 -0.2748  0.4512
  548MOL0     C75509  11.019   5.498  10.089 -0.3284 -0.0397 -0.3708
  548MOL0     O75510  10.917   5.414  10.028 -0.3743 -0.3956  0.7562
  548MOL0     C75511  10.785   5.454  10.021  0.6404  0.2790  0.4535
  548MOL0     C75512  10.733   5.571  10.073  0.2513  0.4857  1.0843
  548MOL0     C75513  10.601   5.607  10.061  0.2754 -0.0724 -0.0624
  548MOL0     C75514  10.556   5.739  10.127 -0.7563 -0.5644  0.7352
  548MOL0     C75515  10.513   5.543   9.973  0.0776  0.0387  0.4170
  548MOL0     C75516  10.382   5.564   9.942 -0.0573  0.2471  0.4807
  548MOL0     O75517  10.294   5.463   9.987 -0.2898  0.5817  0.3029
  548MOL0     C75518  10.161   5.479   9.946 -0.2251  0.4399 -0.1775
  548MOL0     C75519  10.100   5.384   9.859  0.0798  0.5864  0.4570
  548MOL0     C75520   9.968   5.407   9.818  0.0357  0.3452  0.1616
  548MOL0     C75521   9.887   5.514   9.864  0.0462  0.3817  0.0336
  548MOL0     O75522   9.772   5.541   9.800 -0.1388  0.7472 -1.0867
  548MOL0     C75523   9.648   5.549   9.882  0.4418  0.0109 -1.2605
  548MOL0     C75524   9.618   5.434   9.973  0.0902 -0.0761 -0.0807
  548MOL0     C75525   9.525   5.475  10.087  0.6948 -0.5649 -0.5177
  548MOL0     C75526   9.391   5.543  10.047 -0.3291  0.2054 -0.3589
  548MOL0     C75527   9.303   5.576  10.169  0.2857 -0.0648 -0.2905
  548MOL0     C75528   9.150   5.594  10.139  0.3774 -0.2618  0.2814
  548MOL0     C75529   9.077   5.661  10.260  0.3611 -0.2915 -0.5044
  548MOL0     C75530   8.934   5.718  10.222 -0.2806 -0.3365 -0.0719
  548MOL0    Cl75531   8.832   5.581  10.169  0.4005  0.1424 -0.1252
  548MOL0     C75532   9.935   5.590   9.969  0.1086 -0.5604 -0.3593
  548MOL0     C75533  10.076   5.579  10.001 -0.2372  0.0238 -0.0511
  548MOL0     O75534  10.342   5.670   9.905 -0.3507 -0.1989 -0.1775
  548MOL0     C75535  10.563   5.425   9.923  0.5516 -0.1503 -0.2412
  548MOL0     C75536  10.690   5.383   9.948 -0.7771  0.2494  0.0939
  548MOL0     N75537  11.217   5.382   9.614  0.4082  0.6202 -0.3937
  548MOL0     N75538  11.217   5.333   9.494  0.1862  0.1439 -0.5404
  548MOL0     C75539  10.670   4.255   9.228  0.4100  0.7537  0.0945
  548MOL0     C75540  10.594   4.145   9.256  0.0044  0.0181 -0.2144
  548MOL0     C75541  10.371   3.750   9.286  0.4399  1.1736  0.2302
  548MOL0     C75542  10.458   3.645   9.264  0.5173 -0.3246 -0.0328
  548MOL0     C75543  10.426   3.510   9.255 -1.6776  0.4255  0.1728
  548MOL0     C75544  10.294   3.477   9.258 -0.4253  0.3596 -0.1049
  548MOL0     O75545  10.265   3.342   9.243  0.4430  0.8986  0.3969
  548MOL0     C75546  10.190   3.276   9.347  1.5875  0.0750  0.4407
  548MOL0     C75547  10.154   3.135   9.295  0.0820 -0.3441  0.0645
  548MOL0     C75548  10.058   3.135   9.182  0.9367 -0.0493  1.1980
  548MOL0     C75549   9.905   3.150   9.224 -0.0964 -0.6203 -0.4376
  548MOL0     C75550   9.836   3.023   9.255 -0.7448 -0.4333  0.3753
  548MOL0     C75551   9.781   2.926   9.284  0.5513 -0.4364  0.4225
  548MOL0     C75552  10.197   3.578   9.279  0.5910  1.3597 -0.3680
  548MOL0     C75553  10.235   3.712   9.279  0.4851 -0.3439  0.5928
  548MOL0     C75554  10.117   3.812   9.293 -0.5075 -0.5481 -0.7026
  548MOL0     H75555  10.827   3.911   9.163 -0.1956  0.7493 -3.8632
  548MOL0     H75556  10.959   4.105   9.127  0.7741  2.1803  0.0051
  548MOL0     H75557  11.010   4.293   9.030 -1.7794 -0.2051  0.4678
  548MOL0     H75558  11.075   4.284   9.187  2.1708  1.3677  0.0539
  548MOL0     H75559  11.174   4.471   9.066 -0.4319  0.6158 -0.7904
  548MOL0     H75560  11.016   4.548   9.042 -1.3179 -0.2284  0.1618
  548MOL0     H75561  10.998   4.603   9.262 -0.0690  0.0854  1.4210
  548MOL0     H75562  11.152   4.509   9.302  0.0193 -1.1160 -1.8351
  548MOL0     H75563  11.294   4.655   9.196 -0.3483 -0.9116 -1.3137
  548MOL0     H75564  11.167   4.730   9.099  0.8472  0.7419 -0.1055
  548MOL0     H75565  11.192   4.741   9.408 -0.7011  1.8705  1.7040
  548MOL0     H75566  11.092   4.848   9.300 -0.3467 -0.6345  0.4228
  548MOL0     H75567  11.386   4.811   9.308 -1.6278 -2.8564 -4.3354
  548MOL0     H75568  11.316   4.920   9.192  3.6382 -0.4026 -0.6218
  548MOL0     H75569  11.415   5.050   9.401 -0.9530 -0.1797 -0.0439
  548MOL0     H75570  11.312   4.953   9.488  3.2718  0.2950  1.2969
  548MOL0     H75571  11.220   5.166   9.288  2.9810  0.1137  0.7286
  548MOL0     H75572  11.105   5.056   9.356  0.0147  1.3860 -1.8954
  548MOL0     H75573  11.136   5.063   9.666  2.2980 -0.3239  1.9897
  548MOL0     H75574  11.279   5.210   9.891  3.4747  4.0245  0.2152
  548MOL0     H75575  11.103   5.220   9.886 -1.3821 -1.1262 -3.9720
  548MOL0     H75576  11.296   5.448   9.917  0.4705 -0.0483 -0.9618
  548MOL0     H75577  11.134   5.486   9.844  1.4932  1.1230  0.4842
  548MOL0     H75578  11.144   5.332  10.109 -4.6529  0.3919  1.4611
  548MOL0     H75579  11.238   5.487  10.094  1.6667 -0.7148 -1.2462
  548MOL0     H75580  10.997   5.514  10.195 -3.2528 -1.5519 -0.6440
  548MOL0     H75581  11.024   5.599  10.048  0.2148 -0.2850 -0.9254
  548MOL0     H75582  10.791   5.630  10.143  0.2977  0.9375  0.6658
  548MOL0     H75583  10.448   5.751  10.136 -0.9413 -2.8830  2.5421
  548MOL0     H75584  10.594   5.824  10.068  1.4791 -1.3121  1.0114
  548MOL0     H75585  10.603   5.742  10.226  1.6875  0.0919 -0.3614
  548MOL0     H75586  10.160   5.303   9.819 -1.7697 -0.7623  0.2704
  548MOL0     H75587   9.931   5.347   9.735 -0.9350 -1.8248  2.0453
  548MOL0     H75588   9.645   5.641   9.941 -2.6960 -1.9025  2.0148
  548MOL0     H75589   9.569   5.560   9.808  1.5856 -1.0199 -2.6875
  548MOL0     H75590   9.569   5.357   9.911  0.3169  2.5951 -3.9697
  548MOL0     H75591   9.707   5.397  10.025  1.8773  3.9968  0.1154
  548MOL0     H75592   9.565   5.551  10.154 -3.1995  0.7295  0.6271
  548MOL0     H75593   9.494   5.388  10.145 -1.1223 -0.3855 -1.1292
  548MOL0     H75594   9.328   5.473   9.990 -0.9121 -1.3660  2.0892
  548MOL0     H75595   9.416   5.635   9.994  2.2833 -0.9134 -1.2140
  548MOL0     H75596   9.315   5.499  10.246  2.7584  1.1032  0.5587
  548MOL0     H75597   9.334   5.668  10.218  0.7877 -0.2780 -0.2061
  548MOL0     H75598   9.090   5.503  10.132 -1.0036  0.6919 -1.0856
  548MOL0     H75599   9.128   5.656  10.051 -1.2864  0.1363  0.9409
  548MOL0     H75600   9.147   5.735  10.301  2.8801 -2.3769 -0.8386
  548MOL0     H75601   9.066   5.588  10.340  0.4699 -0.1776 -0.3834
  548MOL0     H75602   8.950   5.785  10.137  3.3709  0.4698  1.1078
  548MOL0     H75603   8.875   5.775  10.294 -0.2957  0.5994 -0.8145
  548MOL0     H75604   9.876   5.661  10.026  1.4538 -1.0763  1.7992
  548MOL0     H75605  10.133   5.642  10.068  0.0015 -0.0825 -0.1563
  548MOL0     H75606  10.498   5.367   9.859  1.0631  1.4255 -2.3263
  548MOL0     H75607  10.729   5.292   9.904 -1.0238 -0.9009  2.1683
  548MOL0     H75608  10.631   4.354   9.250  1.8548  0.7965  2.9373
  548MOL0     H75609  10.496   4.150   9.303  0.5326  2.5649  0.7328
  548MOL0     H75610  10.563   3.658   9.238  0.2577 -1.6984 -1.9463
  548MOL0     H75611  10.502   3.439   9.225  1.1677  2.1388  2.7876
  548MOL0     H75612  10.250   3.275   9.439  0.0266 -1.0493  1.5054
  548MOL0     H75613  10.096   3.324   9.377  0.8337  0.6361 -2.4962
  548MOL0     H75614  10.113   3.081   9.381 -2.0517 -2.0562 -1.9004
  548MOL0     H75615  10.240   3.081   9.253  0.2391 -0.0543  0.0109
  548MOL0     H75616  10.073   3.213   9.107 -1.0851 -1.2080 -0.5233
  548MOL0     H75617  10.065   3.038   9.133  0.0989 -0.5770  2.0755
  548MOL0     H75618   9.857   3.198   9.139 -1.7084 -0.7652  0.3674
  548MOL0     H75619   9.887   3.215   9.310 -5.0373 -0.6705 -1.1432
  548MOL0     H75620   9.759   2.824   9.307  0.3848 -0.5857 -0.3406
  548MOL0     H75621  10.092   3.554   9.272  0.7973  0.3879 -0.2594
  548MOL0     H75622  10.122   3.863   9.390  0.8368  1.3385 -1.7048
  548MOL0     H75623  10.130   3.887   9.214  1.8016  0.5864  0.6733
  548MOL0     H75624  10.023   3.758   9.276  0.1769 -1.7804 -0.7249
  549MOL0     O75625   4.287   2.514   1.952  0.0812  0.4241  0.2230
  549MOL0     C75626   4.364   2.413   1.944 -0.2408 -0.5351  0.1541
  549MOL0     O75627   4.344   2.299   1.870  0.0204  0.1315  0.4117
  549MOL0     C75628   4.215   2.271   1.827 -0.1694  0.2424 -0.4196
  549MOL0     C75629   4.102   2.308   1.899  0.3764  0.6211  0.2240
  549MOL0     C75630   3.967   2.290   1.839 -0.3580 -0.4767 -1.0298
  549MOL0     C75631   3.954   2.226   1.714 -1.2902 -0.2009 -0.4290
  549MOL0     O75632   3.835   2.195   1.656  0.5085 -0.5868 -0.1186
  549MOL0     C75633   3.729   2.155   1.741  0.3756 -0.0867 -0.3669
  549MOL0     C75634   3.623   2.268   1.769  0.3560 -0.0304  0.5150
  549MOL0     C75635   3.488   2.206   1.832 -0.5564 -0.1618 -0.5244
  549MOL0     C75636   3.439   2.077   1.763  0.6767 -0.3097  0.4254
  549MOL0     C75637   3.291   2.054   1.790 -0.7739  0.3302 -0.0170
  549MOL0     C75638   3.238   1.936   1.712  0.2365 -0.2798  0.4241
  549MOL0     C75639   3.266   1.809   1.799  0.6008  0.0032 -0.2271
  549MOL0     C75640   3.318   1.685   1.719  0.3592 -0.3982  0.2033
  549MOL0     N75641   3.456   1.675   1.686  0.3983 -0.5323 -0.3225
  549MOL0     C75642   3.531   1.761   1.608 -0.0604  0.2955  0.9245
  549MOL0     C75643   3.638   1.695   1.565 -0.4939  0.7113  0.2954
  549MOL0     C75644   3.720   1.758   1.455 -0.2415  0.9094 -0.5481
  549MOL0     C75645   3.651   1.759   1.319 -0.3483  0.5696  0.7229
  549MOL0     C75646   3.608   1.623   1.251  0.4191  0.7359 -0.2281
  549MOL0     C75647   3.547   1.634   1.110  0.0418  0.0064 -0.2653
  549MOL0     O75648   3.432   1.725   1.110  0.2354  0.1461  0.1874
  549MOL0     C75649   3.324   1.691   1.197  0.3486 -0.4183 -0.3703
  549MOL0     C75650   3.287   1.563   1.237  0.2224 -0.0868  0.7315
  549MOL0     C75651   3.197   1.536   1.337  1.3159  0.0643  0.0072
  549MOL0     C75652   3.168   1.394   1.366 -0.7940  0.1846 -0.3267
  549MOL0     C75653   3.118   1.652   1.384 -0.8033  0.5290 -0.2493
  549MOL0     C75654   3.011   1.644   1.488 -0.0328 -0.4363 -0.7447
  549MOL0     O75655   2.976   1.763   1.536 -0.3511 -0.4103 -0.8034
  549MOL0     C75656   2.920   1.766   1.662  0.1840 -0.0382 -0.2728
  549MOL0     C75657   2.954   1.683   1.773  0.9291 -0.6051 -0.3943
  549MOL0     C75658   2.896   1.685   1.897  0.5086  0.1054 -0.0227
  549MOL0     C75659   2.788   1.767   1.919 -0.1911  1.2345 -0.8212
  549MOL0     O75660   2.735   1.761   2.047 -0.0487 -0.3908  0.0281
  549MOL0     C75661   2.776   1.863   2.140  0.6107 -1.5198 -0.1894
  549MOL0     C75662   2.715   1.888   2.281 -0.0661 -0.0438 -0.0257
  549MOL0     C75663   2.732   1.777   2.378 -1.0675  0.3322 -0.6257
  549MOL0     C75664   2.880   1.739   2.409  0.6071 -0.0848 -0.2988
  549MOL0     C75665   2.898   1.622   2.515 -0.1878  0.7409  0.1853
  549MOL0     C75666   3.042   1.603   2.566 -0.3419  0.3900  0.0030
  549MOL0     C75667   3.088   1.700   2.674 -0.0869 -0.0487 -0.2209
  549MOL0     C75668   3.185   1.629   2.766  0.5577  0.1633  0.0455
  549MOL0    Cl75669   3.229   1.742   2.887 -0.3892  0.0733 -0.0574
  549MOL0     C75670   2.742   1.848   1.813 -0.0775 -0.6249  0.8646
  549MOL0     C75671   2.815   1.853   1.689  0.4056 -0.3793 -1.2257
  549MOL0     O75672   2.957   1.536   1.529 -0.3198  0.6712  0.3356
  549MOL0     C75673   3.161   1.783   1.359  0.2537 -0.7724 -0.5785
  549MOL0     C75674   3.262   1.799   1.261 -0.2451 -0.0275  0.3096
  549MOL0     N75675   3.641   1.575   1.634  0.7820  0.5625  0.4605
  549MOL0     N75676   3.528   1.559   1.704  0.4044 -0.2535 -0.2250
  549MOL0     C75677   4.071   2.178   1.651  0.7317  0.2082 -0.4526
  549MOL0     C75678   4.200   2.198   1.714  0.0094 -0.0432 -0.7207
  549MOL0     C75679   4.496   2.435   2.012  0.1902  1.0705  0.4206
  549MOL0     C75680   4.614   2.381   1.952  0.3633  0.8207 -0.5045
  549MOL0     C75681   4.741   2.415   1.995  0.3669 -0.8636  0.8228
  549MOL0     C75682   4.762   2.472   2.120 -1.0208  0.5186  0.1005
  549MOL0     O75683   4.898   2.481   2.166  0.3561  0.2123 -0.2553
  549MOL0     C75684   4.918   2.521   2.309  0.7246  0.4245  0.2127
  549MOL0     C75685   4.958   2.674   2.307 -0.3546 -0.4324  0.0774
  549MOL0     C75686   5.081   2.725   2.220  0.7813 -0.5843 -0.4672
  549MOL0     C75687   5.209   2.666   2.279  0.4570 -0.0231 -0.3849
  549MOL0     C75688   5.228   2.742   2.402 -0.2838 -0.2477 -0.7363
  549MOL0     C75689   5.269   2.807   2.500  1.1722 -0.1197 -0.5635
  549MOL0     C75690   4.643   2.518   2.184 -0.0520 -0.3047  0.0788
  549MOL0     C75691   4.513   2.517   2.125  0.8241 -0.0482  0.2038
  549MOL0     C75692   4.405   2.591   2.204  0.3043  0.2221 -0.4864
  549MOL0     H75693   4.105   2.361   1.994  3.5188 -1.1405  1.2798
  549MOL0     H75694   3.879   2.321   1.895  1.3258 -0.6981  1.8843
  549MOL0     H75695   3.772   2.132   1.839  0.3038  3.8705  0.7614
  549MOL0     H75696   3.682   2.070   1.692  1.7559 -2.0625  1.5392
  549MOL0     H75697   3.674   2.329   1.844 -1.2007  1.9413  0.0733
  549MOL0     H75698   3.601   2.321   1.676  1.0554 -2.2637 -1.0127
  549MOL0     H75699   3.518   2.191   1.936  1.8030 -0.4998 -1.2070
  549MOL0     H75700   3.403   2.276   1.832  1.3258  2.4711  2.9602
  549MOL0     H75701   3.453   2.096   1.656 -0.0932  0.0037  0.3654
  549MOL0     H75702   3.486   1.986   1.801  1.4414 -0.3465 -0.5567
  549MOL0     H75703   3.236   2.142   1.755  0.1239  0.9320  0.0449
  549MOL0     H75704   3.271   2.042   1.897  2.0110 -1.3988  0.3909
  549MOL0     H75705   3.132   1.960   1.704  0.6074  1.1780 -0.4522
  549MOL0     H75706   3.274   1.933   1.609 -0.9411 -2.4203  0.0177
  549MOL0     H75707   3.175   1.781   1.853  0.0213  0.0146 -1.1602
  549MOL0     H75708   3.335   1.839   1.878 -2.5960  1.8164  2.0963
  549MOL0     H75709   3.302   1.601   1.788 -0.5111 -1.5107 -1.3020
  549MOL0     H75710   3.251   1.661   1.636 -2.2953 -3.4598  2.9277
  549MOL0     H75711   3.500   1.858   1.570  0.3239  0.9678  2.2737
  549MOL0     H75712   3.816   1.706   1.456  0.0088  1.3083 -1.9453
  549MOL0     H75713   3.724   1.863   1.483  0.1975  0.6544  0.3727
  549MOL0     H75714   3.564   1.825   1.315  0.8129  2.1628  0.6609
  549MOL0     H75715   3.725   1.807   1.254  0.2460  0.8566  1.5855
  549MOL0     H75716   3.697   1.563   1.271  0.2218  1.4823  3.6594
  549MOL0     H75717   3.534   1.589   1.323  2.1540 -3.5715 -0.1870
  549MOL0     H75718   3.624   1.675   1.045  1.1220 -1.1179  0.2786
  549MOL0     H75719   3.518   1.539   1.066 -2.2707  0.7497 -0.5148
  549MOL0     H75720   3.338   1.481   1.187  2.4345 -0.2822  3.0524
  549MOL0     H75721   3.242   1.333   1.313 -0.0104  1.0717 -0.2978
  549MOL0     H75722   3.068   1.363   1.337 -1.6525  1.8656  0.6576
  549MOL0     H75723   3.167   1.375   1.474  1.2294 -1.2114 -0.4997
  549MOL0     H75724   3.035   1.613   1.755  0.1028 -1.7140  0.1029
  549MOL0     H75725   2.933   1.613   1.969 -0.0313 -0.4827 -0.3262
  549MOL0     H75726   2.885   1.866   2.148  0.4796  0.0012  1.7600
  549MOL0     H75727   2.750   1.955   2.086  0.5153  0.1072  2.4632
  549MOL0     H75728   2.767   1.974   2.323 -0.2584  1.8058 -3.2554
  549MOL0     H75729   2.609   1.910   2.262  0.4563  1.4605 -1.4185
  549MOL0     H75730   2.681   1.685   2.346 -0.6017  0.6906 -2.5253
  549MOL0     H75731   2.686   1.803   2.474  2.6852  1.6401  1.0087
  549MOL0     H75732   2.933   1.827   2.447 -0.3800  0.3748  0.0484
  549MOL0     H75733   2.929   1.713   2.315  3.4809 -0.5809  1.2144
  549MOL0     H75734   2.828   1.635   2.598 -2.0562  3.5694 -1.6661
  549MOL0     H75735   2.869   1.530   2.463 -2.0294 -0.3697  2.9387
  549MOL0     H75736   3.110   1.620   2.482 -2.4244  0.9968 -1.6651
  549MOL0     H75737   3.052   1.497   2.592 -0.3756  0.5865  0.8594
  549MOL0     H75738   2.996   1.726   2.726 -2.0967 -0.3412 -3.3690
  549MOL0     H75739   3.135   1.787   2.628  0.8318  0.0837  0.9198
  549MOL0     H75740   3.268   1.601   2.700 -0.5079 -1.5810 -0.6381
  549MOL0     H75741   3.144   1.534   2.801  3.7216 -0.7867  1.6247
  549MOL0     H75742   2.646   1.900   1.813 -1.1055 -2.3902  2.5961
  549MOL0     H75743   2.782   1.925   1.614  2.6153  1.7779 -0.2391
  549MOL0     H75744   3.118   1.875   1.398  1.1916 -1.0763  1.2531
  549MOL0     H75745   3.299   1.895   1.226 -1.7079  0.5682  0.3295
  549MOL0     H75746   4.054   2.117   1.563  1.2083  0.9901 -1.0923
  549MOL0     H75747   4.288   2.170   1.657  0.9073 -1.1550  1.1183
  549MOL0     H75748   4.617   2.340   1.851  1.9498  0.9713 -0.5423
  549MOL0     H75749   4.837   2.392   1.949  1.3079  0.3055  2.0965
  549MOL0     H75750   4.833   2.496   2.374  0.1605  1.6752 -0.0134
  549MOL0     H75751   4.999   2.452   2.337  1.0960 -0.3100 -2.4574
  549MOL0     H75752   4.979   2.694   2.412  3.4437  1.3573 -0.8448
  549MOL0     H75753   4.869   2.729   2.276 -0.7225 -1.3291 -0.4825
  549MOL0     H75754   5.079   2.687   2.117  0.1344 -0.0628 -0.6541
  549MOL0     H75755   5.093   2.833   2.210  1.0988 -0.3988  1.5175
  549MOL0     H75756   5.296   2.686   2.216  0.3750  0.4937 -0.3398
  549MOL0     H75757   5.202   2.559   2.298 -2.4831  0.2338  0.5126
  549MOL0     H75758   5.290   2.875   2.581 -1.1007 -0.4039  0.3355
  549MOL0     H75759   4.649   2.550   2.287 -3.0691  1.3980 -0.1487
  549MOL0     H75760   4.409   2.689   2.155  1.0902  0.3100 -0.2539
  549MOL0     H75761   4.311   2.538   2.190  0.8525 -0.9652  0.2188
  549MOL0     H75762   4.419   2.608   2.311 -2.6496  0.5715 -0.0604
  550MOL0     O75763   7.520   7.477   2.665  0.3674 -0.4044 -0.3490
  550MOL0     C75764   7.401   7.464   2.647 -1.2234  0.3274  0.4292
  550MOL0     O75765   7.339   7.336   2.641 -0.8319 -0.6102 -0.0371
  550MOL0     C75766   7.397   7.215   2.677 -0.3411 -0.7613 -0.1285
  550MOL0     C75767   7.365   7.099   2.609 -0.8076  0.1331 -0.0746
  550MOL0     C75768   7.416   6.982   2.654 -0.7943  0.0298 -0.6887
  550MOL0     C75769   7.517   6.972   2.756  0.5242 -0.5894  0.2509
  550MOL0     O75770   7.581   6.856   2.780 -0.1693 -0.1757 -0.6115
  550MOL0     C75771   7.518   6.755   2.866  0.9548 -0.7172 -0.1368
  550MOL0     C75772   7.592   6.626   2.895  0.2447  0.6450 -0.2584
  550MOL0     C75773   7.637   6.558   2.765 -0.1358  0.5798  0.0683
  550MOL0     C75774   7.766   6.620   2.716  0.6097  0.2461  0.1211
  550MOL0     C75775   7.840   6.538   2.609 -0.4935  0.3669 -0.4075
  550MOL0     C75776   7.941   6.633   2.558 -0.1013  0.2684  0.1135
  550MOL0     C75777   8.028   6.571   2.447  0.3634 -1.0119  0.4463
  550MOL0     C75778   8.165   6.648   2.437  1.4569  0.1910 -0.2750
  550MOL0     N75779   8.259   6.552   2.392  0.9444  0.3316  0.3013
  550MOL0     C75780   8.341   6.480   2.470  0.7583 -0.0392  0.9107
  550MOL0     C75781   8.438   6.420   2.398  0.5527  0.4363 -0.3614
  550MOL0     C75782   8.546   6.325   2.447  0.9660  0.6893 -0.3368
  550MOL0     C75783   8.661   6.373   2.537  0.5427 -0.2274 -0.1155
  550MOL0     C75784   8.696   6.517   2.515  0.0757  0.2396  0.3082
  550MOL0     C75785   8.781   6.551   2.388 -0.2049 -0.5562 -0.4546
  550MOL0     O75786   8.833   6.683   2.410  0.0589  0.1302  0.4780
  550MOL0     C75787   8.761   6.784   2.356  0.2669  0.0752 -1.2286
  550MOL0     C75788   8.630   6.778   2.320  0.8315  0.1674 -0.2525
  550MOL0     C75789   8.558   6.893   2.265  0.2245 -0.0986  0.8832
  550MOL0     C75790   8.418   6.874   2.221  0.0293  0.5200 -0.1177
  550MOL0     C75791   8.641   7.001   2.234 -0.9911 -0.1692 -0.3136
  550MOL0     C75792   8.593   7.117   2.163  0.2337 -0.5738 -0.3340
  550MOL0     O75793   8.675   7.161   2.065  0.3267  0.2959 -0.3775
  550MOL0     C75794   8.669   7.295   2.029 -0.2706  0.3049 -0.3340
  550MOL0     C75795   8.703   7.393   2.125  0.8347 -0.2413  0.7259
  550MOL0     C75796   8.729   7.526   2.091 -0.1972  0.2737  0.2878
  550MOL0     C75797   8.716   7.565   1.956  0.0961 -0.1736  0.9307
  550MOL0     O75798   8.737   7.692   1.905  0.0078  0.1517 -0.1169
  550MOL0     C75799   8.735   7.801   1.995  0.6734 -0.4384 -0.1527
  550MOL0     C75800   8.730   7.928   1.913  0.3980 -0.2991  0.3771
  550MOL0     C75801   8.646   7.944   1.786 -0.3461 -0.9471  1.3517
  550MOL0     C75802   8.591   8.089   1.765 -0.2028 -0.8023  0.3581
  550MOL0     C75803   8.498   8.097   1.638 -0.4628  0.1507  0.1139
  550MOL0     C75804   8.583   8.072   1.510 -0.4108 -0.2210 -0.5961
  550MOL0     C75805   8.514   8.109   1.380  0.2348 -0.2219 -0.4294
  550MOL0     C75806   8.583   8.209   1.284 -0.6869  0.1676 -0.4106
  550MOL0    Cl75807   8.470   8.233   1.153  0.0449 -0.3437  0.1266
  550MOL0     C75808   8.654   7.468   1.866 -0.0929 -0.9185 -0.0851
  550MOL0     C75809   8.655   7.332   1.899  0.4442 -0.1369 -0.4863
  550MOL0     O75810   8.487   7.180   2.194  0.0601  0.3182  0.5221
  550MOL0     C75811   8.782   7.006   2.262 -0.4773 -0.0064 -0.9963
  550MOL0     C75812   8.839   6.902   2.343  0.4525  0.2949  0.2145
  550MOL0     N75813   8.409   6.451   2.265 -0.0682 -0.3086 -0.7383
  550MOL0     N75814   8.302   6.526   2.267 -0.4105 -0.1120 -0.1457
  550MOL0     C75815   7.566   7.094   2.809 -0.3867  0.8043 -1.4868
  550MOL0     C75816   7.508   7.213   2.771  0.5850  0.4286 -0.2739
  550MOL0     C75817   7.313   7.573   2.620  0.0863 -0.4299  0.5017
  550MOL0     C75818   7.177   7.540   2.623  0.4979  0.7483  0.8070
  550MOL0     C75819   7.073   7.640   2.604  0.0961  0.8476 -0.1581
  550MOL0     C75820   7.111   7.768   2.574 -0.1640 -0.1108  0.9706
  550MOL0     O75821   7.001   7.853   2.570 -0.5160 -0.7695 -0.2296
  550MOL0     C75822   7.027   8.001   2.556  0.1220  0.3515 -0.1273
  550MOL0     C75823   6.893   8.078   2.575 -0.6323  0.2932  0.3866
  550MOL0     C75824   6.931   8.220   2.622 -0.4085 -0.5016 -0.4168
  550MOL0     C75825   6.818   8.315   2.597  0.0652  0.9642 -0.4465
  550MOL0     C75826   6.812   8.365   2.458  0.4626  0.2876 -0.0949
  550MOL0     C75827   6.806   8.412   2.345 -0.4806  0.2773 -0.1556
  550MOL0     C75828   7.250   7.806   2.572 -0.0296 -0.0698 -0.2466
  550MOL0     C75829   7.349   7.712   2.610  0.6628  0.3516  0.0187
  550MOL0     C75830   7.483   7.744   2.607 -0.1093 -0.8638  0.4874
  550MOL0     H75831   7.299   7.103   2.523 -0.5446  3.5693 -0.2491
  550MOL0     H75832   7.396   6.883   2.613 -1.1432 -2.4062  4.5298
  550MOL0     H75833   7.422   6.732   2.818  0.9963 -0.0956 -0.5314
  550MOL0     H75834   7.501   6.804   2.963  3.1312  1.6215 -0.8199
  550MOL0     H75835   7.675   6.646   2.963  0.5336 -0.3316 -0.3059
  550MOL0     H75836   7.527   6.554   2.946 -1.2559  3.3272  1.8284
  550MOL0     H75837   7.656   6.454   2.792 -2.8320 -1.0601 -3.4366
  550MOL0     H75838   7.556   6.552   2.692 -1.8356  2.2913  1.7123
  550MOL0     H75839   7.737   6.715   2.671 -0.7822 -2.3340 -5.2713
  550MOL0     H75840   7.833   6.642   2.799  2.6887  0.6564 -1.5806
  550MOL0     H75841   7.769   6.510   2.531 -3.9585  3.0421  1.5163
  550MOL0     H75842   7.881   6.448   2.655 -2.8752  0.5134  2.2897
  550MOL0     H75843   7.904   6.720   2.502  0.9424 -1.5246 -3.6817
  550MOL0     H75844   8.009   6.662   2.639  2.0305  0.7021 -1.7401
  550MOL0     H75845   7.979   6.571   2.349  1.5149 -2.2265 -0.1664
  550MOL0     H75846   8.052   6.468   2.474  0.9970 -0.6290  1.4076
  550MOL0     H75847   8.166   6.728   2.362  0.8888  0.7452  0.2904
  550MOL0     H75848   8.185   6.698   2.533 -1.5003  0.9303  0.0594
  550MOL0     H75849   8.322   6.476   2.577  0.2350  0.6546  0.8505
  550MOL0     H75850   8.597   6.280   2.362  0.4856  1.1005 -0.8492
  550MOL0     H75851   8.486   6.257   2.509  0.4668 -1.4758 -3.0447
  550MOL0     H75852   8.623   6.354   2.638 -3.7730  0.2305 -1.4244
  550MOL0     H75853   8.744   6.308   2.510 -2.6603 -3.3402 -3.6680
  550MOL0     H75854   8.601   6.570   2.510 -0.5793 -0.8727  0.5719
  550MOL0     H75855   8.740   6.574   2.597 -1.9679  2.6587 -0.1341
  550MOL0     H75856   8.860   6.475   2.386  1.3575  0.8499 -5.1226
  550MOL0     H75857   8.730   6.543   2.292 -1.2188 -2.4273  0.1840
  550MOL0     H75858   8.564   6.693   2.333  3.4946 -2.0654 -0.3930
  550MOL0     H75859   8.413   6.801   2.140  0.9146  1.3780 -0.9684
  550MOL0     H75860   8.375   6.972   2.196 -1.0454 -0.1742 -1.0620
  550MOL0     H75861   8.369   6.828   2.307 -1.0941 -0.6876 -1.3479
  550MOL0     H75862   8.726   7.374   2.229  1.0750  3.0199  1.3804
  550MOL0     H75863   8.769   7.598   2.161  1.9013  0.8832 -1.4281
  550MOL0     H75864   8.645   7.800   2.057 -0.1368  0.5712 -1.2552
  550MOL0     H75865   8.829   7.801   2.051  0.3722  0.6567  0.3759
  550MOL0     H75866   8.703   8.006   1.985 -3.8347  0.0351 -1.2575
  550MOL0     H75867   8.828   7.952   1.870 -0.6217  0.2652 -1.7975
  550MOL0     H75868   8.564   7.875   1.808 -1.7483  0.4558  0.6869
  550MOL0     H75869   8.698   7.908   1.696 -0.7900  0.7122  0.3867
  550MOL0     H75870   8.674   8.159   1.762 -1.3455  0.7688  2.7659
  550MOL0     H75871   8.539   8.107   1.859  0.3836 -1.0742  0.7394
  550MOL0     H75872   8.414   8.030   1.656 -0.7793  0.6289  0.4403
  550MOL0     H75873   8.459   8.199   1.626 -0.3579 -0.1037 -3.1993
  550MOL0     H75874   8.608   7.967   1.490 -1.5364  0.1697 -4.8983
  550MOL0     H75875   8.678   8.125   1.508 -0.7527  0.3751 -1.1342
  550MOL0     H75876   8.417   8.146   1.416  1.0469  2.2872 -0.6096
  550MOL0     H75877   8.502   8.014   1.327  0.0183 -0.9545  0.8642
  550MOL0     H75878   8.677   8.170   1.244 -0.9243  0.0665 -0.8651
  550MOL0     H75879   8.598   8.301   1.342 -1.7805  1.5272 -2.1844
  550MOL0     H75880   8.641   7.490   1.760  0.2815 -0.0085  0.0466
  550MOL0     H75881   8.612   7.264   1.825 -3.5495  3.7105 -2.1456
  550MOL0     H75882   8.838   7.092   2.228  0.9445 -1.0511 -1.3638
  550MOL0     H75883   8.942   6.906   2.376  0.2860 -1.4428  1.0176
  550MOL0     H75884   7.638   7.075   2.888 -3.1567 -1.3323  0.7752
  550MOL0     H75885   7.558   7.299   2.816  0.6740 -0.5426  1.5701
  550MOL0     H75886   7.142   7.440   2.644 -0.4046  1.0149  0.6287
  550MOL0     H75887   6.970   7.609   2.606  1.1655 -3.4506 -1.2485
  550MOL0     H75888   7.101   8.021   2.634 -0.3882  2.2154 -0.0666
  550MOL0     H75889   7.072   8.041   2.465 -0.7580 -0.5784 -0.9912
  550MOL0     H75890   6.839   8.028   2.656  3.8179 -1.5291  2.6059
  550MOL0     H75891   6.838   8.076   2.481 -1.3128  1.4784  0.7346
  550MOL0     H75892   6.954   8.219   2.729  0.1972  0.0629 -0.5377
  550MOL0     H75893   7.016   8.266   2.571 -0.9767 -0.8329 -1.7237
  550MOL0     H75894   6.835   8.396   2.669 -1.0736  0.5617  0.3000
  550MOL0     H75895   6.726   8.262   2.623  0.4988  1.4218  2.3550
  550MOL0     H75896   6.807   8.449   2.245  4.2345  1.7434  0.1805
  550MOL0     H75897   7.277   7.910   2.555 -0.7755  0.0324 -0.8861
  550MOL0     H75898   7.526   7.727   2.706 -4.2709 -0.6753  2.5248
  550MOL0     H75899   7.550   7.708   2.529  2.7235  4.1019  0.1915
  550MOL0     H75900   7.483   7.852   2.590 -0.7384 -0.5856  2.0594
  551MOL0     O75901   5.323   7.438   6.100 -0.2902  0.2356  0.0148
  551MOL0     C75902   5.226   7.407   6.030 -0.4781  0.2583  0.1637
  551MOL0     O75903   5.209   7.284   5.974  0.0093 -0.0564  0.0801
  551MOL0     C75904   5.312   7.187   5.977  0.1640  0.0051  1.3066
  551MOL0     C75905   5.286   7.062   6.022 -1.2686  1.0101 -1.9119
  551MOL0     C75906   5.375   6.952   6.028 -0.3821  0.2263  0.5824
  551MOL0     C75907   5.492   6.969   5.952 -0.6145 -0.0922 -0.4384
  551MOL0     O75908   5.597   6.884   5.943 -0.8745 -0.7140 -0.2089
  551MOL0     C75909   5.568   6.744   5.940  0.2966  0.2531 -0.2057
  551MOL0     C75910   5.602   6.687   6.074  0.0181 -0.1275 -0.4180
  551MOL0     C75911   5.640   6.540   6.057  0.2318 -0.5051  0.2762
  551MOL0     C75912   5.699   6.478   6.181  0.4409  0.2307  0.6971
  551MOL0     C75913   5.746   6.342   6.162 -0.4471  0.2675 -0.2014
  551MOL0     C75914   5.860   6.331   6.058 -0.6517 -0.5854 -0.4598
  551MOL0     C75915   5.952   6.194   6.073  0.5503 -0.3649 -0.4852
  551MOL0     C75916   6.067   6.196   5.968 -0.3775  0.1390 -0.5229
  551MOL0     N75917   6.019   6.213   5.839 -0.5036  0.2126  1.0052
  551MOL0     C75918   6.051   6.316   5.744  0.4795  0.3202 -0.3808
  551MOL0     C75919   6.004   6.264   5.629  0.0332  0.5112  0.3858
  551MOL0     C75920   6.034   6.324   5.485  0.2360 -0.1725 -0.1002
  551MOL0     C75921   6.151   6.275   5.403 -0.6276  0.9900 -0.2319
  551MOL0     C75922   6.289   6.316   5.455  0.7175 -0.4898 -0.0271
  551MOL0     C75923   6.404   6.228   5.398  0.1249  0.5940  0.4450
  551MOL0     O75924   6.442   6.304   5.283 -0.1743  0.4060  0.1768
  551MOL0     C75925   6.513   6.243   5.184  0.3226 -0.8002 -0.3513
  551MOL0     C75926   6.550   6.323   5.069 -0.1704 -0.1800 -0.0324
  551MOL0     C75927   6.640   6.283   4.964  0.1253  1.0439 -0.7716
  551MOL0     C75928   6.659   6.379   4.856 -0.5075 -0.5713 -0.6509
  551MOL0     C75929   6.683   6.149   4.971 -0.2154 -0.2852  0.3903
  551MOL0     C75930   6.754   6.081   4.861  0.5695 -0.9298 -0.3279
  551MOL0     O75931   6.819   6.159   4.763 -0.2555 -0.1229 -1.0638
  551MOL0     C75932   6.852   6.100   4.643  0.0324  0.2379 -0.0802
  551MOL0     C75933   6.977   6.140   4.587 -0.9015 -0.3446 -0.0686
  551MOL0     C75934   7.025   6.078   4.467  0.3469  0.7884  0.3348
  551MOL0     C75935   6.938   5.986   4.391  0.0574  0.6530 -0.9204
  551MOL0     O75936   6.975   5.931   4.272  0.8050  0.9180 -0.6590
  551MOL0     C75937   7.099   5.852   4.263  0.8157 -0.8631 -0.4539
  551MOL0     C75938   7.126   5.804   4.127  0.2211  0.2442  0.2368
  551MOL0     C75939   7.249   5.706   4.136 -0.8921 -0.2292  0.5844
  551MOL0     C75940   7.267   5.627   4.013  0.1337 -0.3741  0.5909
  551MOL0     C75941   7.412   5.597   3.963  0.9433  0.7751  1.0485
  551MOL0     C75942   7.489   5.517   4.066  0.3563  0.0923 -0.1631
  551MOL0     C75943   7.587   5.429   3.992 -0.0600 -0.0531 -0.5353
  551MOL0     C75944   7.694   5.517   3.921 -0.3693  0.6853  0.7605
  551MOL0    Cl75945   7.824   5.414   3.849  0.4711 -0.0118  0.1806
  551MOL0     C75946   6.820   5.938   4.455 -1.3423 -1.4006  0.1305
  551MOL0     C75947   6.782   5.994   4.576  0.0970 -0.4433  0.2184
  551MOL0     O75948   6.760   5.954   4.867  0.4535 -0.4649  0.9844
  551MOL0     C75949   6.651   6.074   5.083  0.4867  1.2305  0.4747
  551MOL0     C75950   6.562   6.115   5.186  0.2224  0.3550  0.0149
  551MOL0     N75951   5.942   6.144   5.650 -0.3189  0.1283 -0.1732
  551MOL0     N75952   5.965   6.112   5.773  0.6578  0.2053 -0.3278
  551MOL0     C75953   5.519   7.089   5.885 -0.1718  0.0883  0.1051
  551MOL0     C75954   5.429   7.197   5.906  0.6967  0.4774  0.1701
  551MOL0     C75955   5.115   7.509   6.019 -0.2032 -0.0946  0.8415
  551MOL0     C75956   4.993   7.463   5.984  0.0026 -0.0764 -0.3924
  551MOL0     C75957   4.884   7.544   5.963  0.2415 -0.8232  0.1823
  551MOL0     C75958   4.897   7.684   5.984  0.3484  0.4011 -0.0053
  551MOL0     O75959   4.808   7.784   5.960 -0.1227  0.0626 -0.1605
  551MOL0     C75960   4.698   7.741   5.870 -0.9550 -0.4302 -0.1728
  551MOL0     C75961   4.611   7.867   5.850 -0.7739 -0.0827  1.0049
  551MOL0     C75962   4.560   7.921   5.980  0.7858 -0.2732  0.4150
  551MOL0     C75963   4.445   8.030   5.956 -0.4995 -0.0455 -0.0468
  551MOL0     C75964   4.314   7.964   5.945 -0.1024  0.7430 -0.1812
  551MOL0     C75965   4.205   7.915   5.926  0.4469  0.5831  0.4399
  551MOL0     C75966   5.020   7.728   6.027 -0.4542 -0.3128 -0.0057
  551MOL0     C75967   5.133   7.651   6.048  0.6185  0.3565 -0.2050
  551MOL0     C75968   5.266   7.716   6.078 -0.7938 -0.7877 -0.1907
  551MOL0     H75969   5.192   7.053   6.075  0.3645 -2.3498  0.8221
  551MOL0     H75970   5.357   6.860   6.084 -0.7043 -0.6302 -0.8720
  551MOL0     H75971   5.636   6.708   5.862 -0.3351 -0.2418 -0.5341
  551MOL0     H75972   5.466   6.725   5.906  0.0422 -0.3933  0.8843
  551MOL0     H75973   5.684   6.746   6.116  1.6214 -2.1561 -0.4952
  551MOL0     H75974   5.519   6.697   6.145  0.6834 -0.2115  0.3857
  551MOL0     H75975   5.554   6.485   6.018  0.6186 -0.3863 -0.7799
  551MOL0     H75976   5.723   6.537   5.986  2.5084 -2.0908  2.8213
  551MOL0     H75977   5.788   6.536   6.208 -0.2756  2.1299 -0.7931
  551MOL0     H75978   5.623   6.476   6.260  0.0903 -0.5813  0.3476
  551MOL0     H75979   5.657   6.284   6.134  1.9892 -3.2080 -1.3200
  551MOL0     H75980   5.788   6.306   6.256 -1.7233 -2.7542 -0.6621
  551MOL0     H75981   5.812   6.326   5.960 -2.0430  0.7060  0.1313
  551MOL0     H75982   5.929   6.416   6.060 -2.0907  0.6303 -0.6580
  551MOL0     H75983   5.890   6.108   6.050  0.9436 -1.4155  1.9930
  551MOL0     H75984   5.984   6.188   6.178  2.4280 -0.5914 -1.0263
  551MOL0     H75985   6.140   6.272   5.998 -1.8761  0.7753  1.7897
  551MOL0     H75986   6.113   6.097   5.957  0.8505  0.3928  1.6744
  551MOL0     H75987   6.108   6.405   5.770 -0.9308  1.6730 -1.7086
  551MOL0     H75988   6.047   6.431   5.500 -0.7472  0.1071 -1.1471
  551MOL0     H75989   5.941   6.298   5.434 -1.6096 -0.2491  3.0419
  551MOL0     H75990   6.141   6.166   5.404 -0.5821  0.9549  1.8695
  551MOL0     H75991   6.144   6.320   5.304  0.5072 -1.9618 -1.7733
  551MOL0     H75992   6.295   6.424   5.434 -2.5193  0.2283  2.0733
  551MOL0     H75993   6.295   6.307   5.564 -0.6794  2.5537  0.4201
  551MOL0     H75994   6.489   6.217   5.466  1.6332  0.4158 -1.4151
  551MOL0     H75995   6.349   6.136   5.375 -0.4272  0.6119  1.5945
  551MOL0     H75996   6.511   6.424   5.076 -0.2404  0.0137 -2.3450
  551MOL0     H75997   6.602   6.473   4.857  0.2898 -0.0560 -1.7911
  551MOL0     H75998   6.628   6.331   4.762 -1.0755 -0.8595 -0.3200
  551MOL0     H75999   6.765   6.404   4.859 -0.0512 -2.3950 -0.7498
  551MOL0     H76000   7.031   6.223   4.632 -2.5410  0.7045  0.0479
  551MOL0     H76001   7.124   6.111   4.439  1.8086 -1.6906  2.1113
  551MOL0     H76002   7.183   5.920   4.283  0.8573 -0.7256 -1.0697
  551MOL0     H76003   7.090   5.777   4.343  0.9319 -0.5039 -0.1001
  551MOL0     H76004   7.037   5.763   4.079 -1.9604  1.1476  3.1845
  551MOL0     H76005   7.152   5.892   4.067  1.4181  0.4350  1.0090
  551MOL0     H76006   7.230   5.634   4.217 -1.4080  1.2128  1.7864
  551MOL0     H76007   7.336   5.762   4.172 -0.9868  0.4474 -0.2044
  551MOL0     H76008   7.218   5.689   3.937 -0.4738  0.9536  1.9990
  551MOL0     H76009   7.199   5.541   4.019 -1.9898  0.8454 -2.9195
  551MOL0     H76010   7.414   5.547   3.866 -0.8302  0.2975  1.2197
  551MOL0     H76011   7.459   5.696   3.956  1.2789  0.5071 -0.7837
  551MOL0     H76012   7.430   5.454   4.133 -2.3790  1.6970 -0.9142
  551MOL0     H76013   7.549   5.578   4.134  0.4695 -1.9819  1.6807
  551MOL0     H76014   7.538   5.370   3.913  1.0055  1.5825 -2.5100
  551MOL0     H76015   7.637   5.359   4.059  1.1136  0.9014 -0.3773
  551MOL0     H76016   7.746   5.565   4.004 -0.9014 -1.6736  2.5661
  551MOL0     H76017   7.652   5.586   3.846 -0.0163  0.9006  0.7578
  551MOL0     H76018   6.744   5.871   4.416 -1.3098 -2.0294  1.1067
  551MOL0     H76019   6.680   5.964   4.599 -0.4764 -0.5982 -2.2451
  551MOL0     H76020   6.682   5.971   5.095 -1.6210  0.5053  0.0065
  551MOL0     H76021   6.540   6.039   5.261  2.2647  1.8360  2.2906
  551MOL0     H76022   5.621   7.098   5.848  0.3059  2.7038  1.7447
  551MOL0     H76023   5.454   7.296   5.871 -2.7215  1.3350 -0.1177
  551MOL0     H76024   4.977   7.356   5.980 -0.5753 -0.0139  0.1372
  551MOL0     H76025   4.794   7.492   5.933  0.5139 -0.3145 -1.6189
  551MOL0     H76026   4.735   7.718   5.770 -1.0066  1.2324 -0.5986
  551MOL0     H76027   4.641   7.656   5.908  0.3300 -0.8532  0.8830
  551MOL0     H76028   4.523   7.860   5.784 -1.9881  2.4458  2.1961
  551MOL0     H76029   4.662   7.953   5.806  1.4132 -1.0682  1.4897
  551MOL0     H76030   4.502   7.847   6.036  1.3762 -1.6821 -0.7720
  551MOL0     H76031   4.630   7.962   6.054 -0.3517  0.2084  1.2518
  551MOL0     H76032   4.473   8.075   5.860  2.5250 -1.0733  0.2117
  551MOL0     H76033   4.439   8.099   6.040 -2.5758  1.0952 -1.0559
  551MOL0     H76034   4.106   7.875   5.915 -0.2647  2.4618 -0.6233
  551MOL0     H76035   5.016   7.832   6.055 -1.9273 -1.0744  3.0675
  551MOL0     H76036   5.315   7.668   6.163  0.6216  1.3350  0.2649
  551MOL0     H76037   5.333   7.701   5.993 -1.5399 -0.6989 -0.8071
  551MOL0     H76038   5.258   7.824   6.098 -0.9769 -0.0927 -3.4381
  552MOL0     O76039   4.803   4.176   9.469 -0.0604  0.5070  0.4898
  552MOL0     C76040   4.783   4.072   9.412  0.3939  0.6588  0.3308
  552MOL0     O76041   4.680   4.055   9.321  0.7478 -0.1868  0.3855
  552MOL0     C76042   4.571   4.143   9.306  0.7440  0.9817  0.4027
  552MOL0     C76043   4.592   4.274   9.299  0.3378  0.4148  0.1797
  552MOL0     C76044   4.474   4.355   9.283 -0.7726  0.4804 -0.0663
  552MOL0     C76045   4.343   4.308   9.271 -0.1880 -0.4081  0.0479
  552MOL0     O76046   4.242   4.403   9.258 -0.8191 -0.2006  0.7436
  552MOL0     C76047   4.149   4.369   9.160  0.8082 -0.9178 -0.0817
  552MOL0     C76048   4.056   4.488   9.122 -0.8464  0.3281 -0.2687
  552MOL0     C76049   4.086   4.535   8.976 -0.9288 -0.6793 -0.8861
  552MOL0     C76050   3.972   4.635   8.932 -0.3744  0.5297 -0.2880
  552MOL0     C76051   3.987   4.628   8.775 -0.5459 -0.3010 -0.4117
  552MOL0     C76052   3.906   4.753   8.716 -0.1142 -0.1875 -0.1900
  552MOL0     C76053   3.762   4.721   8.655 -0.6105 -0.5639 -0.3848
  552MOL0     C76054   3.658   4.692   8.762  1.0018  1.0367 -0.6578
  552MOL0     N76055   3.528   4.753   8.723 -0.1863 -0.2066 -0.4026
  552MOL0     C76056   3.504   4.890   8.748  0.4886  0.0270  0.3407
  552MOL0     C76057   3.377   4.898   8.780 -0.4791  1.4175 -0.2261
  552MOL0     C76058   3.292   5.017   8.821 -0.1104  0.8520 -0.3277
  552MOL0     C76059   3.314   5.066   8.965  0.2405  0.7730 -0.0126
  552MOL0     C76060   3.231   5.187   8.999 -0.3662  0.2657  0.6078
  552MOL0     C76061   3.242   5.235   9.145 -0.2500 -0.2318  0.3641
  552MOL0     O76062   3.127   5.198   9.220  0.0589  0.1152 -0.0583
  552MOL0     C76063   3.016   5.271   9.219  0.6111  0.5176 -0.7903
  552MOL0     C76064   2.987   5.395   9.151 -0.8356  0.5316 -0.5372
  552MOL0     C76065   2.868   5.463   9.163 -0.6249 -0.0693  0.0828
  552MOL0     C76066   2.846   5.574   9.068  0.2587  0.9237 -0.0460
  552MOL0     C76067   2.775   5.420   9.258 -1.5726 -0.8724  0.1109
  552MOL0     C76068   2.644   5.489   9.285  0.3335  0.0855  0.3178
  552MOL0     O76069   2.555   5.421   9.368 -0.4359  0.1781  0.2194
  552MOL0     C76070   2.418   5.432   9.350  0.1122  0.3338 -0.7328
  552MOL0     C76071   2.345   5.316   9.314 -0.4586  0.3930 -0.1550
  552MOL0     C76072   2.206   5.320   9.300 -0.1499  0.0970  0.7085
  552MOL0     C76073   2.136   5.440   9.312 -0.5861 -0.7780  0.2242
  552MOL0     O76074   2.004   5.439   9.279  0.2785  0.1532  0.5478
  552MOL0     C76075   1.917   5.490   9.383  0.0063 -0.3091  0.1036
  552MOL0     C76076   1.858   5.616   9.338 -0.0763  0.7299 -0.5132
  552MOL0     C76077   1.745   5.654   9.430 -0.1051 -0.4176 -0.5574
  552MOL0     C76078   1.687   5.787   9.385  0.4566 -0.4252 -0.1775
  552MOL0     C76079   1.621   5.879   9.497  0.7786 -0.2167 -0.2975
  552MOL0     C76080   1.476   5.840   9.519  0.1775 -0.0376 -0.6307
  552MOL0     C76081   1.459   5.718   9.611 -0.5905  0.9875  0.3190
  552MOL0     C76082   1.342   5.711   9.698  0.6332 -0.0765 -1.2406
  552MOL0    Cl76083   1.323   5.564   9.791  0.2635 -0.1462 -0.3227
  552MOL0     C76084   2.211   5.553   9.370  0.0332  0.5682  0.5583
  552MOL0     C76085   2.345   5.544   9.386 -0.1081 -0.6267  0.1437
  552MOL0     O76086   2.619   5.590   9.222  0.5856  0.0602 -0.2329
  552MOL0     C76087   2.798   5.294   9.326  0.9931  0.4272 -0.0075
  552MOL0     C76088   2.917   5.220   9.302 -0.0851  0.3523  0.7101
  552MOL0     N76089   3.319   4.770   8.772  0.5381 -0.7830 -0.1544
  552MOL0     N76090   3.407   4.684   8.729 -0.8896 -0.7291 -0.5728
  552MOL0     C76091   4.331   4.171   9.280  0.5000 -0.1531  0.0768
  552MOL0     C76092   4.443   4.094   9.298 -0.5325  0.6412  0.7153
  552MOL0     C76093   4.871   3.952   9.441  0.1276  1.3277  0.8780
  552MOL0     C76094   4.822   3.829   9.398 -0.3825  0.0429 -0.4268
  552MOL0     C76095   4.888   3.707   9.422  0.2693  0.6309 -1.2622
  552MOL0     C76096   5.005   3.711   9.494  0.8188 -0.0938  0.1829
  552MOL0     O76097   5.070   3.596   9.537 -0.7400 -1.1962  0.1924
  552MOL0     C76098   4.985   3.477   9.566 -0.3069  0.1122  0.2832
  552MOL0     C76099   5.032   3.417   9.691  0.5705 -0.3547  0.0048
  552MOL0     C76100   4.944   3.300   9.730  0.9130 -0.0232 -0.0236
  552MOL0     C76101   4.998   3.225   9.856  0.3337 -0.4024 -0.2164
  552MOL0     C76102   4.919   3.112   9.914 -0.5118  0.0293 -0.0510
  552MOL0     C76103   4.849   3.023   9.957 -1.4566 -0.4686  0.5533
  552MOL0     C76104   5.059   3.829   9.541  0.7435 -0.1562  0.7101
  552MOL0     C76105   4.998   3.954   9.504 -0.2311  0.7918 -0.5035
  552MOL0     C76106   5.070   4.075   9.541  0.4991 -0.5527 -0.6842
  552MOL0     H76107   4.690   4.321   9.302  0.6157 -0.1247 -0.3892
  552MOL0     H76108   4.503   4.460   9.276  3.7056 -0.6128 -0.9313
  552MOL0     H76109   4.076   4.295   9.194  0.3669 -0.5638 -0.2359
  552MOL0     H76110   4.192   4.318   9.074  2.4174 -1.9688  1.2967
  552MOL0     H76111   3.951   4.456   9.125 -0.8232  0.2686 -0.0943
  552MOL0     H76112   4.063   4.575   9.188  1.2679 -1.9255  2.7115
  552MOL0     H76113   4.181   4.586   8.962 -1.6689  1.4501  1.1507
  552MOL0     H76114   4.084   4.445   8.914  0.4245 -1.5998  0.3397
  552MOL0     H76115   3.875   4.617   8.979 -0.9380 -0.0117 -1.6075
  552MOL0     H76116   4.011   4.733   8.961  0.2334  0.1194  0.3001
  552MOL0     H76117   3.944   4.536   8.733 -0.4447 -1.6359  2.1902
  552MOL0     H76118   4.090   4.632   8.740 -0.5452  2.1864 -0.2912
  552MOL0     H76119   3.886   4.831   8.790 -0.0411  1.5489 -1.9088
  552MOL0     H76120   3.967   4.789   8.633  2.2932  0.5135  1.7559
  552MOL0     H76121   3.773   4.644   8.578  4.0875 -0.7989  0.2023
  552MOL0     H76122   3.724   4.805   8.597  1.0531 -0.7223 -1.7965
  552MOL0     H76123   3.661   4.584   8.782  2.7952  0.8307 -1.8083
  552MOL0     H76124   3.685   4.746   8.854 -2.4811  1.2759  0.3621
  552MOL0     H76125   3.570   4.977   8.745  1.9852 -1.0754  0.0527
  552MOL0     H76126   3.187   4.991   8.805 -1.2746  3.2781  2.5547
  552MOL0     H76127   3.301   5.107   8.759 -3.8827 -0.6883 -3.5861
  552MOL0     H76128   3.291   4.986   9.035  0.8170 -0.2547 -0.9709
  552MOL0     H76129   3.421   5.086   8.977  0.5859 -1.3768  0.8938
  552MOL0     H76130   3.264   5.275   8.943  2.6040  0.4150  2.3820
  552MOL0     H76131   3.129   5.166   8.964 -0.2243 -3.0457  1.8110
  552MOL0     H76132   3.327   5.187   9.196 -1.0262 -4.3629 -1.8338
  552MOL0     H76133   3.266   5.342   9.140  1.4582 -0.6420 -0.8901
  552MOL0     H76134   3.056   5.444   9.084 -0.1828  0.5621  0.1477
  552MOL0     H76135   2.919   5.580   8.986  0.2227  1.0639 -0.0685
  552MOL0     H76136   2.848   5.672   9.117 -2.5968  0.5774  0.9502
  552MOL0     H76137   2.747   5.562   9.023  0.3131  1.1900 -0.2394
  552MOL0     H76138   2.398   5.222   9.304 -1.0573  0.1200 -0.8289
  552MOL0     H76139   2.150   5.229   9.278 -3.9094  2.1329  1.0642
  552MOL0     H76140   1.838   5.416   9.399 -0.9662  0.7217  0.0875
  552MOL0     H76141   1.963   5.495   9.483  2.7347  1.1350 -1.1139
  552MOL0     H76142   1.945   5.681   9.347 -0.1377  0.5686  1.7320
  552MOL0     H76143   1.819   5.580   9.243  1.9711 -2.8019 -0.1918
  552MOL0     H76144   1.787   5.669   9.530 -1.0723 -0.4866 -0.1302
  552MOL0     H76145   1.669   5.576   9.427  0.1016 -1.1189  4.3161
  552MOL0     H76146   1.626   5.773   9.296 -0.0355  1.4153 -0.1775
  552MOL0     H76147   1.768   5.847   9.341 -0.1843 -0.2073 -1.0702
  552MOL0     H76148   1.683   5.881   9.587  1.5766  1.0723 -0.8491
  552MOL0     H76149   1.618   5.983   9.461 -1.9855  0.5448  1.7815
  552MOL0     H76150   1.421   5.827   9.425 -0.6171 -2.5203  0.0983
  552MOL0     H76151   1.421   5.916   9.576 -2.5890 -2.7649  0.6202
  552MOL0     H76152   1.533   5.709   9.691 -2.3667 -0.8370  1.8743
  552MOL0     H76153   1.468   5.636   9.540 -1.3548  0.4569  0.8203
  552MOL0     H76154   1.257   5.708   9.628  0.3844 -4.3631 -1.0012
  552MOL0     H76155   1.336   5.796   9.765  3.6513 -1.7105  1.3430
  552MOL0     H76156   2.167   5.650   9.389  0.9262  1.2431 -0.7193
  552MOL0     H76157   2.397   5.628   9.432 -1.1136 -0.6516  1.3701
  552MOL0     H76158   2.721   5.249   9.387 -0.7928  2.5829 -0.5551
  552MOL0     H76159   2.918   5.124   9.352 -2.6099  0.5544  1.2518
  552MOL0     H76160   4.230   4.134   9.270  1.0419 -1.7578  0.2947
  552MOL0     H76161   4.435   3.986   9.296 -1.0127  0.6769  0.6149
  552MOL0     H76162   4.730   3.815   9.343 -0.5227 -3.5000  0.4830
  552MOL0     H76163   4.828   3.621   9.393 -2.7912  0.3056  4.6246
  552MOL0     H76164   4.879   3.503   9.579  0.3803  3.1124  0.6056
  552MOL0     H76165   4.973   3.397   9.492 -0.3003 -1.8951  2.3096
  552MOL0     H76166   5.032   3.497   9.766 -0.0527 -0.5315  0.1975
  552MOL0     H76167   5.135   3.384   9.681  0.7264  0.3376 -0.8152
  552MOL0     H76168   4.842   3.335   9.749  1.4606  1.0581  1.0259
  552MOL0     H76169   4.933   3.226   9.650 -2.8964  1.0012 -0.6522
  552MOL0     H76170   4.987   3.302   9.933  2.0677  1.8606 -2.0917
  552MOL0     H76171   5.101   3.195   9.834  0.5887  1.2409 -1.4849
  552MOL0     H76172   4.805   2.938  10.007 -0.2464 -1.1829  0.4602
  552MOL0     H76173   5.142   3.822   9.610  1.4301  0.1757 -0.0651
  552MOL0     H76174   5.089   4.123   9.444 -1.3681 -0.0777 -0.8571
  552MOL0     H76175   5.014   4.147   9.602 -0.6266  0.1320 -2.4450
  552MOL0     H76176   5.166   4.056   9.590  0.5173  1.5485  0.1892
  553MOL0     O76177   5.634   1.315   5.374 -0.6269 -0.2610  0.8083
  553MOL0     C76178   5.714   1.400   5.388  0.1996  0.5372 -0.0012
  553MOL0     O76179   5.684   1.533   5.383  0.0482 -2.3693  0.4126
  553MOL0     C76180   5.553   1.569   5.351  0.3092  0.8135 -0.2390
  553MOL0     C76181   5.503   1.541   5.226  0.0717 -0.3244 -0.9016
  553MOL0     C76182   5.367   1.571   5.196 -0.2720  0.7160  0.4571
  553MOL0     C76183   5.281   1.639   5.288  0.3876 -0.8691 -0.6931
  553MOL0     O76184   5.155   1.659   5.251 -0.0501 -0.3577 -0.1613
  553MOL0     C76185   5.081   1.749   5.329  1.2468 -0.4091 -0.3429
  553MOL0     C76186   4.948   1.802   5.277  1.0578  0.3394  0.0069
  553MOL0     C76187   4.986   1.897   5.160 -0.5419  0.9751  0.3141
  553MOL0     C76188   4.846   1.952   5.107 -0.1815  0.4092 -0.7979
  553MOL0     C76189   4.860   2.028   4.972 -0.1780 -0.1283  0.2510
  553MOL0     C76190   4.739   2.104   4.926 -0.8633  0.0577 -0.3766
  553MOL0     C76191   4.745   2.170   4.780 -0.5270  0.3557  0.2660
  553MOL0     C76192   4.879   2.255   4.767  0.0532  0.4301 -1.0633
  553MOL0     N76193   4.878   2.338   4.651 -0.0118 -0.0064  1.3894
  553MOL0     C76194   4.789   2.432   4.624 -0.3078 -0.7432 -0.4747
  553MOL0     C76195   4.837   2.489   4.513  0.3801 -0.1001 -0.4566
  553MOL0     C76196   4.771   2.616   4.460  0.8538  0.5998  0.6216
  553MOL0     C76197   4.869   2.736   4.489 -0.0510 -0.3796 -0.0352
  553MOL0     C76198   4.962   2.759   4.371 -0.1331  0.2941 -0.8683
  553MOL0     C76199   5.100   2.797   4.425 -0.3526  0.3834 -0.3687
  553MOL0     O76200   5.190   2.834   4.319  0.7194  0.4856 -0.1339
  553MOL0     C76201   5.268   2.750   4.249  0.6243 -0.4679 -1.0176
  553MOL0     C76202   5.272   2.609   4.265 -0.4453 -0.1536  0.3363
  553MOL0     C76203   5.343   2.521   4.178 -0.1989  0.1930  0.1384
  553MOL0     C76204   5.340   2.382   4.217 -0.4702 -0.1290 -1.2487
  553MOL0     C76205   5.414   2.578   4.067  0.8051 -0.4797 -0.1547
  553MOL0     C76206   5.484   2.499   3.950  0.4170  0.1445 -0.0105
  553MOL0     O76207   5.538   2.569   3.854 -1.0184 -0.3868  1.1744
  553MOL0     C76208   5.577   2.503   3.744 -0.2987 -1.0112 -0.0072
  553MOL0     C76209   5.705   2.441   3.742 -0.5454  0.2081 -0.7340
  553MOL0     C76210   5.744   2.367   3.621 -0.4145 -0.2676 -0.1030
  553MOL0     C76211   5.649   2.355   3.514  0.2663  0.5643 -0.2216
  553MOL0     O76212   5.667   2.292   3.397 -0.3544 -0.6946 -0.0049
  553MOL0     C76213   5.773   2.349   3.316  0.2294 -0.1143  0.1547
  553MOL0     C76214   5.817   2.252   3.204  0.6307 -0.5434  0.4914
  553MOL0     C76215   5.902   2.345   3.114  0.4997  0.0431  0.4851
  553MOL0     C76216   6.026   2.399   3.182 -0.2044  0.1515  0.6536
  553MOL0     C76217   6.118   2.466   3.082  0.8705  0.0911 -1.0868
  553MOL0     C76218   6.067   2.562   2.977  0.8521 -0.2686 -0.2865
  553MOL0     C76219   6.158   2.624   2.876 -0.5770 -0.1991  0.0890
  553MOL0     C76220   6.205   2.544   2.760  0.4832  0.4473  0.1893
  553MOL0    Cl76221   6.324   2.628   2.664  0.2016  0.2623  0.0289
  553MOL0     C76222   5.525   2.401   3.527 -0.2410  0.1654  0.5335
  553MOL0     C76223   5.493   2.480   3.635  0.4449  0.9208 -0.2946
  553MOL0     O76224   5.487   2.373   3.948  0.6073  0.0757  0.2710
  553MOL0     C76225   5.427   2.720   4.068 -0.6053 -0.2273  0.2920
  553MOL0     C76226   5.348   2.805   4.148 -0.1942  0.5160 -0.6612
  553MOL0     N76227   4.967   2.444   4.484  0.2476  0.6093  0.0220
  553MOL0     N76228   4.981   2.340   4.566 -1.0126  1.1983 -0.0781
  553MOL0     C76229   5.330   1.635   5.423  0.3261  0.0803  0.0811
  553MOL0     C76230   5.463   1.618   5.448 -0.8028 -0.0071  0.0672
  553MOL0     C76231   5.861   1.364   5.405 -0.3020 -0.4678  0.8406
  553MOL0     C76232   5.910   1.247   5.353 -0.5619  0.2442  0.5283
  553MOL0     C76233   6.042   1.199   5.391  0.1287 -0.7344  0.1722
  553MOL0     C76234   6.115   1.268   5.472 -0.0421 -0.6400 -0.2478
  553MOL0     O76235   6.240   1.224   5.503  0.0699  0.6939  0.0885
  553MOL0     C76236   6.326   1.329   5.468  0.7003  1.0484  0.7149
  553MOL0     C76237   6.467   1.282   5.479 -1.0367 -0.2616 -0.8015
  553MOL0     C76238   6.566   1.344   5.387 -0.4154  0.8079 -0.3962
  553MOL0     C76239   6.565   1.276   5.251 -1.0241  0.3474  0.3886
  553MOL0     C76240   6.633   1.360   5.150  0.6205 -0.2818 -0.4769
  553MOL0     C76241   6.673   1.439   5.073  0.4306  0.1975  0.8835
  553MOL0     C76242   6.065   1.392   5.524 -0.2105  0.6143 -1.1502
  553MOL0     C76243   5.940   1.444   5.495  0.5434 -0.2167  1.3776
  553MOL0     C76244   5.907   1.568   5.573  1.1826  0.5457  0.6297
  553MOL0     H76245   5.580   1.494   5.166  3.1177  0.6877  1.9364
  553MOL0     H76246   5.328   1.559   5.095 -1.1127  2.6453  0.5087
  553MOL0     H76247   5.149   1.833   5.347  0.5201  0.2795 -0.7347
  553MOL0     H76248   5.072   1.703   5.428 -0.1310  1.0864  0.2579
  553MOL0     H76249   4.881   1.721   5.245  2.3741 -1.0541  0.6764
  553MOL0     H76250   4.900   1.862   5.355  1.5402  0.0997  0.4869
  553MOL0     H76251   5.049   1.983   5.185 -1.7756  1.9154  0.2764
  553MOL0     H76252   5.038   1.829   5.091  0.6681 -0.7743  2.7757
  553MOL0     H76253   4.776   1.868   5.098  1.6535 -1.1621 -1.1622
  553MOL0     H76254   4.806   2.011   5.190 -1.2806 -1.8270  0.3435
  553MOL0     H76255   4.891   1.962   4.890  1.1153  0.4317  0.2766
  553MOL0     H76256   4.936   2.106   4.981  0.4565 -0.4121 -2.1553
  553MOL0     H76257   4.656   2.033   4.932  0.0052 -0.8654  1.9411
  553MOL0     H76258   4.720   2.180   5.002  0.1346 -1.3864  1.4155
  553MOL0     H76259   4.661   2.241   4.779 -0.1612  0.7902 -0.6484
  553MOL0     H76260   4.737   2.096   4.700  1.0149  1.1980 -0.7143
  553MOL0     H76261   4.882   2.324   4.852 -3.4059 -0.6243  0.0722
  553MOL0     H76262   4.964   2.187   4.754  1.1241  0.8751  2.4075
  553MOL0     H76263   4.694   2.452   4.673 -0.0766  1.7027 -0.9069
  553MOL0     H76264   4.672   2.630   4.504  0.2710  2.9068 -1.2052
  553MOL0     H76265   4.752   2.610   4.353 -0.3373  1.5882  0.7561
  553MOL0     H76266   4.806   2.824   4.501  2.2895  1.8490 -2.8277
  553MOL0     H76267   4.928   2.715   4.579  1.5868 -0.3762 -1.0674
  553MOL0     H76268   4.964   2.661   4.322 -0.5272  0.2001 -0.7064
  553MOL0     H76269   4.919   2.827   4.297 -5.0490 -2.0460 -0.6034
  553MOL0     H76270   5.076   2.883   4.489  2.0058 -0.1634  1.3547
  553MOL0     H76271   5.149   2.719   4.484 -0.7477  0.2001 -0.2797
  553MOL0     H76272   5.226   2.567   4.354 -4.1522  2.8562  0.1319
  553MOL0     H76273   5.315   2.317   4.133  0.6471 -0.9171 -0.9887
  553MOL0     H76274   5.260   2.366   4.290  0.8673  0.8356  0.5215
  553MOL0     H76275   5.436   2.350   4.259 -1.1222  0.8505  1.1897
  553MOL0     H76276   5.778   2.443   3.822  0.2318  1.6488 -1.4338
  553MOL0     H76277   5.834   2.308   3.610 -1.0843 -0.8678 -3.1590
  553MOL0     H76278   5.739   2.437   3.261  1.6596 -0.5851 -1.5874
  553MOL0     H76279   5.855   2.385   3.380 -3.0608  1.0690  4.1557
  553MOL0     H76280   5.886   2.176   3.241  2.1596  0.6187  0.1503
  553MOL0     H76281   5.739   2.205   3.145  1.3513 -1.4757  0.2707
  553MOL0     H76282   5.836   2.421   3.072  1.2286  0.1962 -0.4246
  553MOL0     H76283   5.941   2.287   3.030 -0.9605 -1.4844  0.8138
  553MOL0     H76284   6.091   2.322   3.224  2.6089  1.4344 -1.1008
  553MOL0     H76285   5.996   2.468   3.262  1.0178  0.0488  1.2258
  553MOL0     H76286   6.194   2.506   3.151 -1.1554  1.5458  0.4361
  553MOL0     H76287   6.162   2.380   3.031  0.7707 -0.2826 -0.5549
  553MOL0     H76288   6.023   2.653   3.018  0.8833 -0.5386  0.3662
  553MOL0     H76289   5.989   2.514   2.918 -0.0305  1.6340 -0.7149
  553MOL0     H76290   6.245   2.671   2.922 -1.0450  2.0554 -1.1910
  553MOL0     H76291   6.097   2.709   2.843 -0.6727  0.3531  1.6187
  553MOL0     H76292   6.116   2.509   2.708 -0.0059  0.0259  1.2697
  553MOL0     H76293   6.261   2.455   2.793  2.3338  1.5125  0.0776
  553MOL0     H76294   5.446   2.370   3.460  0.5993  0.4766 -0.6547
  553MOL0     H76295   5.394   2.522   3.650  1.4550  2.1491  4.8613
  553MOL0     H76296   5.474   2.765   3.981 -0.6947  0.2242  0.4762
  553MOL0     H76297   5.351   2.913   4.146 -2.5222  0.6317 -0.5194
  553MOL0     H76298   5.258   1.654   5.503  0.4527 -2.3386  0.8379
  553MOL0     H76299   5.495   1.619   5.552  2.6058 -0.3091 -0.8496
  553MOL0     H76300   5.851   1.177   5.294  1.1725  0.1677 -1.2028
  553MOL0     H76301   6.081   1.102   5.361  0.1698 -0.9283  0.8361
  553MOL0     H76302   6.305   1.340   5.361 -0.2161 -2.6199  0.3801
  553MOL0     H76303   6.322   1.419   5.530  0.8336  3.8779 -3.0372
  553MOL0     H76304   6.473   1.174   5.466 -2.5326 -0.4094 -0.5179
  553MOL0     H76305   6.497   1.290   5.583 -1.4475 -0.5673 -0.6559
  553MOL0     H76306   6.556   1.452   5.368  0.2099  0.6220 -1.9689
  553MOL0     H76307   6.663   1.332   5.434  0.6966  1.5896 -2.3583
  553MOL0     H76308   6.465   1.248   5.214 -0.5263  2.4773 -3.0590
  553MOL0     H76309   6.620   1.182   5.253 -1.1426  0.1535 -1.9644
  553MOL0     H76310   6.706   1.519   5.010 -0.7319  1.1746  1.4742
  553MOL0     H76311   6.129   1.455   5.585 -0.6297  3.5368 -3.4889
  553MOL0     H76312   5.917   1.653   5.504 -1.4685  0.5014  0.0708
  553MOL0     H76313   5.805   1.553   5.610  0.7562  2.0435  0.1215
  553MOL0     H76314   5.975   1.595   5.654  4.3830 -2.6602 -0.7006
  554MOL0     O76315   2.791  10.087  10.516 -0.3615  0.1659  0.1326
  554MOL0     C76316   2.835  10.197  10.499 -0.1017 -0.4229 -0.6541
  554MOL0     O76317   2.816  10.300  10.571 -0.0322  0.7257 -0.7889
  554MOL0     C76318   2.710  10.296  10.665 -0.4265 -0.7624  0.4339
  554MOL0     C76319   2.752  10.289  10.803 -0.3797  0.4932  0.2936
  554MOL0     C76320   2.664  10.309  10.906 -0.4042 -0.3059  0.7675
  554MOL0     C76321   2.527  10.307  10.877 -0.3255 -0.2761  0.8470
  554MOL0     O76322   2.433  10.313  10.973 -0.1735  0.4428  0.2504
  554MOL0     C76323   2.448  10.429  11.066 -0.0951 -0.2742 -1.1367
  554MOL0     C76324   2.324  10.434  11.170  0.1487 -0.0734 -0.2763
  554MOL0     C76325   2.240  10.553  11.124 -0.0025  0.3192  0.1159
  554MOL0     C76326   2.122  10.579  11.224 -0.2797 -0.2084  0.1059
  554MOL0     C76327   2.022  10.680  11.170 -0.0618 -0.1690  0.0656
  554MOL0     C76328   1.884  10.670  11.230  0.5313  0.2756 -1.0206
  554MOL0     C76329   1.804  10.787  11.193 -0.4176 -0.2453 -0.5881
  554MOL0     C76330   1.656  10.783  11.216  0.4020  0.4684 -0.0180
  554MOL0     N76331   1.586  10.905  11.200 -0.2350 -0.0798 -0.1074
  554MOL0     C76332   1.532  10.981  11.299  1.2627  0.7985  0.8692
  554MOL0     C76333   1.466  11.081  11.241  0.6395 -0.1686  0.3860
  554MOL0     C76334   1.397  11.191  11.305 -0.3771 -0.5808 -0.2641
  554MOL0     C76335   1.460  11.330  11.267 -0.9039 -0.2800  1.0551
  554MOL0     C76336   1.611  11.347  11.273  0.3568 -0.1337  0.0220
  554MOL0     C76337   1.667  11.376  11.407 -0.1955 -0.7944 -0.6819
  554MOL0     O76338   1.659  11.266  11.501 -0.0841  0.4244 -0.0281
  554MOL0     C76339   1.718  11.275  11.625 -0.0565 -0.1626 -0.0971
  554MOL0     C76340   1.681  11.166  11.703 -0.1377  0.0430 -0.3012
  554MOL0     C76341   1.726  11.163  11.834  0.9224  0.3334 -0.0221
  554MOL0     C76342   1.669  11.054  11.922 -0.2698  0.3947 -0.3795
  554MOL0     C76343   1.815  11.267  11.883 -0.3158  0.4372  0.6108
  554MOL0     C76344   1.863  11.286  12.027  0.2065  0.3031 -0.2621
  554MOL0     O76345   1.863  11.191  12.108 -0.2652 -0.5758 -0.5367
  554MOL0     C76346   1.881  11.208  12.242 -1.1123  0.1539  0.5429
  554MOL0     C76347   1.815  11.120  12.336 -0.0723  0.5662  0.7141
  554MOL0     C76348   1.855  11.117  12.468 -0.7644 -0.1654  0.2872
  554MOL0     C76349   1.959  11.205  12.520  0.2106  0.4724 -0.8972
  554MOL0     O76350   1.993  11.211  12.660 -0.3520  0.0330  0.7935
  554MOL0     C76351   2.113  11.140  12.697  0.5648 -1.0670  0.4422
  554MOL0     C76352   2.090  11.000  12.741 -0.7566  0.9544  0.0608
  554MOL0     C76353   1.980  10.972  12.840 -1.4974 -0.0515 -0.0150
  554MOL0     C76354   2.025  11.012  12.987 -0.5116  0.3796  1.1266
  554MOL0     C76355   1.945  11.127  13.039  0.2105  0.0312 -1.0582
  554MOL0     C76356   1.802  11.090  13.076 -0.6667 -0.9579 -0.4759
  554MOL0     C76357   1.684  11.146  12.988  0.3253  0.3188 -0.2415
  554MOL0     C76358   1.559  11.057  12.990 -0.7313 -0.7221  0.3229
  554MOL0    Cl76359   1.574  10.910  12.899 -0.1876  0.5163  0.5569
  554MOL0     C76360   2.019  11.284  12.430 -0.5801  1.5444  1.3789
  554MOL0     C76361   1.983  11.290  12.296  0.0645 -0.6479 -1.1208
  554MOL0     O76362   1.881  11.403  12.062  0.4892 -1.0671  0.0762
  554MOL0     C76363   1.859  11.366  11.797  0.3728 -0.9844  0.2499
  554MOL0     C76364   1.807  11.371  11.668 -0.3290 -0.7866 -0.8380
  554MOL0     N76365   1.476  11.063  11.106 -0.3090 -1.0961 -0.1463
  554MOL0     N76366   1.552  10.963  11.081  0.2700  0.7720 -0.2457
  554MOL0     C76367   2.478  10.305  10.751  0.4521  0.0562  0.3028
  554MOL0     C76368   2.573  10.287  10.640 -0.5690 -0.3820  0.7178
  554MOL0     C76369   2.910  10.206  10.373 -0.6228  0.3491  0.1027
  554MOL0     C76370   2.852  10.138  10.266 -0.1116 -1.3402 -0.9293
  554MOL0     C76371   2.915  10.141  10.145  0.9457 -0.3227  0.7431
  554MOL0     C76372   3.041  10.196  10.123  0.3164 -0.2482 -0.2306
  554MOL0     O76373   3.107  10.176  10.012  0.1037 -0.2073  0.8707
  554MOL0     C76374   3.050  10.234   9.898 -0.3154  0.0091  0.1395
  554MOL0     C76375   3.172  10.287   9.817 -0.0749  1.0668  0.4246
  554MOL0     C76376   3.256  10.165   9.763  0.0403  0.1417 -0.6125
  554MOL0     C76377   3.359  10.184   9.653  0.4376 -1.1900  0.1645
  554MOL0     C76378   3.392  10.058   9.592 -0.1859  0.1000  1.0812
  554MOL0     C76379   3.430   9.958   9.540  0.7652  0.0629 -0.0360
  554MOL0     C76380   3.102  10.266  10.229 -0.1436 -0.2071  0.2142
  554MOL0     C76381   3.038  10.267  10.356 -0.0065 -0.1572 -0.4140
  554MOL0     C76382   3.112  10.342  10.470  0.0990  0.4652  0.3253
  554MOL0     H76383   2.857  10.273  10.826  0.1308  0.3219 -1.8881
  554MOL0     H76384   2.702  10.349  10.999 -1.7474  2.2292  0.3059
  554MOL0     H76385   2.441  10.530  11.025 -4.4062  1.4186  2.8126
  554MOL0     H76386   2.543  10.412  11.119 -0.6141  0.6068  0.1165
  554MOL0     H76387   2.263  10.344  11.155 -0.1822  0.3095 -1.2409
  554MOL0     H76388   2.360  10.432  11.274 -3.4467 -0.4647  1.0867
  554MOL0     H76389   2.304  10.642  11.127  0.0707  0.2433  0.7939
  554MOL0     H76390   2.204  10.539  11.022 -2.2111 -1.2404  1.0405
  554MOL0     H76391   2.066  10.491  11.260 -1.4247  0.9412  1.2570
  554MOL0     H76392   2.178  10.619  11.309 -0.0250 -1.6903  0.6738
  554MOL0     H76393   2.013  10.660  11.063 -1.0067 -0.9074  0.2701
  554MOL0     H76394   2.052  10.782  11.195 -3.7146  0.9799  0.3002
  554MOL0     H76395   1.837  10.580  11.188 -1.4455 -0.2863  2.1086
  554MOL0     H76396   1.887  10.672  11.339 -1.9616  2.1673 -0.9045
  554MOL0     H76397   1.822  10.815  11.088  1.6631 -0.2215 -0.2647
  554MOL0     H76398   1.847  10.864  11.258 -2.2638 -1.3336  2.0701
  554MOL0     H76399   1.606  10.717  11.145 -1.5450  0.0671  1.6273
  554MOL0     H76400   1.633  10.743  11.315 -0.7583  2.0161  0.3876
  554MOL0     H76401   1.533  10.957  11.405  0.9019 -2.0317  0.2956
  554MOL0     H76402   1.412  11.171  11.412 -1.1696  1.3186  0.2388
  554MOL0     H76403   1.288  11.191  11.291 -0.8523 -1.4351  2.7345
  554MOL0     H76404   1.439  11.336  11.159  0.1962 -2.2886  0.6758
  554MOL0     H76405   1.417  11.406  11.332  0.5742 -0.6163  2.4848
  554MOL0     H76406   1.656  11.260  11.225  3.6997  1.2535  0.3357
  554MOL0     H76407   1.641  11.430  11.208  1.1226 -1.7783 -1.8189
  554MOL0     H76408   1.774  11.396  11.392 -0.2032  2.3273  2.1366
  554MOL0     H76409   1.637  11.475  11.444  0.5151 -0.0381 -2.0555
  554MOL0     H76410   1.604  11.094  11.676 -2.0174  1.2895  1.4336
  554MOL0     H76411   1.562  11.043  11.903 -0.5653 -1.6278  1.9553
  554MOL0     H76412   1.678  11.071  12.030  2.6938 -2.2290 -0.0686
  554MOL0     H76413   1.701  10.951  11.904 -2.7892 -0.2884 -1.4186
  554MOL0     H76414   1.735  11.057  12.298 -0.4630  2.6532 -2.2451
  554MOL0     H76415   1.800  11.055  12.538  0.3514 -4.5921 -2.3377
  554MOL0     H76416   2.180  11.139  12.611  1.4050 -1.0112  1.0749
  554MOL0     H76417   2.155  11.208  12.773  1.1064  1.5310 -2.0331
  554MOL0     H76418   2.074  10.938  12.653 -1.1385 -1.8547  1.9801
  554MOL0     H76419   2.187  10.970  12.782 -0.3142 -0.2256 -1.7643
  554MOL0     H76420   1.966  10.864  12.843  0.4882 -0.4111 -1.9650
  554MOL0     H76421   1.895  11.025  12.796 -0.1165 -0.0720 -2.8943
  554MOL0     H76422   2.129  11.046  12.982 -1.0739  2.2929  1.7861
  554MOL0     H76423   2.018  10.927  13.056  0.5421 -0.8011 -0.1576
  554MOL0     H76424   2.006  11.158  13.124 -2.0188 -1.9283  1.4371
  554MOL0     H76425   1.947  11.214  12.972  3.7176  1.4116  0.5707
  554MOL0     H76426   1.784  11.137  13.172  0.8147  0.2557 -0.7627
  554MOL0     H76427   1.802  10.980  13.082  2.1609 -1.2217 -2.6513
  554MOL0     H76428   1.719  11.150  12.884 -1.0045 -2.2631 -0.8658
  554MOL0     H76429   1.655  11.247  13.020 -2.0156 -0.5430  0.5437
  554MOL0     H76430   1.486  11.126  12.949  0.3215  0.7510  0.8430
  554MOL0     H76431   1.539  11.044  13.097 -2.2862  2.4567  0.5055
  554MOL0     H76432   2.105  11.337  12.471  1.5150 -1.5725  1.3964
  554MOL0     H76433   2.052  11.354  12.240 -1.4352  1.6415 -0.4836
  554MOL0     H76434   1.931  11.437  11.836 -1.4536 -0.0671  2.1015
  554MOL0     H76435   1.833  11.461  11.614  0.6552 -0.0938  0.7243
  554MOL0     H76436   2.372  10.320  10.729  1.1933  3.1733 -1.8441
  554MOL0     H76437   2.550  10.301  10.535  2.3952  1.0232  0.1529
  554MOL0     H76438   2.764  10.075  10.266  0.0464 -1.5881  0.3752
  554MOL0     H76439   2.877  10.089  10.058 -1.8502 -1.1057  2.3183
  554MOL0     H76440   2.982  10.174   9.838 -1.5410  1.9345 -0.5068
  554MOL0     H76441   2.983  10.313   9.934  1.8921  2.1070 -0.0393
  554MOL0     H76442   3.217  10.359   9.886  2.1320  1.9454 -1.7828
  554MOL0     H76443   3.121  10.341   9.737 -1.2179  1.1205  1.1638
  554MOL0     H76444   3.312  10.128   9.849  0.8309  3.1067  0.2606
  554MOL0     H76445   3.189  10.083   9.733  1.7269 -2.2835  1.8318
  554MOL0     H76446   3.449  10.240   9.680 -2.4487  2.5845  3.0687
  554MOL0     H76447   3.305  10.250   9.584  2.3494  0.1446 -0.1397
  554MOL0     H76448   3.465   9.872   9.486  2.8341  0.8451 -0.0306
  554MOL0     H76449   3.192  10.322  10.206 -0.7050 -0.0740 -1.8646
  554MOL0     H76450   3.082  10.314  10.572 -1.9921  0.5923 -0.2196
  554MOL0     H76451   3.221  10.336  10.464  0.0571  1.1652 -2.0522
  554MOL0     H76452   3.101  10.451  10.467  2.4877  0.8400  1.8799
  555MOL0     O76453   1.824   2.931   0.345 -0.0219  0.2603  0.1221
  555MOL0     C76454   1.945   2.943   0.329 -0.1150  0.1824  0.5779
  555MOL0     O76455   2.015   3.034   0.382 -0.7029 -0.2660 -0.0273
  555MOL0     C76456   1.950   3.143   0.431  0.1293 -0.3963  0.3661
  555MOL0     C76457   1.878   3.157   0.549 -0.6227  0.1448  0.3037
  555MOL0     C76458   1.820   3.284   0.579  1.2444 -0.5521 -0.1375
  555MOL0     C76459   1.839   3.395   0.498  0.8325 -0.0906 -0.7727
  555MOL0     O76460   1.781   3.512   0.523  0.6594  0.1408  0.4855
  555MOL0     C76461   1.831   3.596   0.629  0.0685 -0.8894 -0.1484
  555MOL0     C76462   1.739   3.586   0.753 -0.1257 -0.6829 -0.2795
  555MOL0     C76463   1.746   3.701   0.854 -0.1225  0.4355 -0.4842
  555MOL0     C76464   1.825   3.670   0.984 -0.4365  0.1928  0.2169
  555MOL0     C76465   1.828   3.789   1.081  0.2633 -0.4731 -0.0502
  555MOL0     C76466   1.923   3.761   1.195  0.4924  0.8224  0.0518
  555MOL0     C76467   1.922   3.886   1.298 -0.0838  0.7983  0.6574
  555MOL0     C76468   2.041   3.890   1.400  0.5544  0.7001 -0.4761
  555MOL0     N76469   1.998   3.948   1.531  0.4595  0.3083 -0.3317
  555MOL0     C76470   1.950   4.076   1.544  0.8313 -0.3236  0.5270
  555MOL0     C76471   1.920   4.091   1.677 -0.1764  0.5812  0.1587
  555MOL0     C76472   1.852   4.207   1.752  0.0403  0.0688 -0.1105
  555MOL0     C76473   1.700   4.210   1.758 -0.1376 -0.8653  0.4084
  555MOL0     C76474   1.670   4.139   1.888  0.3157 -0.2358 -0.0519
  555MOL0     C76475   1.521   4.137   1.923 -0.0241  0.6531  0.5696
  555MOL0     O76476   1.448   4.040   1.842  0.2453 -0.4056  0.2462
  555MOL0     C76477   1.359   3.973   1.919 -0.2769  0.2782  0.0256
  555MOL0     C76478   1.385   3.838   1.961  0.5932 -0.8355  0.0369
  555MOL0     C76479   1.288   3.750   2.014 -0.3156  0.4753 -0.5015
  555MOL0     C76480   1.333   3.603   2.028 -0.1253 -0.0466  0.6428
  555MOL0     C76481   1.163   3.805   2.049 -0.6003 -0.8273 -0.4982
  555MOL0     C76482   1.046   3.730   2.108  0.0865  0.0315 -0.3775
  555MOL0     O76483   0.922   3.790   2.100 -0.3943 -0.0484 -0.1334
  555MOL0     C76484   0.804   3.752   2.160  0.2634  0.8356  0.2279
  555MOL0     C76485   0.696   3.841   2.158  0.1874  0.4087  0.2678
  555MOL0     C76486   0.566   3.814   2.207  0.1571  0.0723  0.3767
  555MOL0     C76487   0.550   3.689   2.267  0.4038  1.0216 -0.3150
  555MOL0     O76488   0.435   3.631   2.308 -0.0816 -0.0976 -0.1753
  555MOL0     C76489   0.313   3.702   2.291 -0.7684 -0.2616  0.7690
  555MOL0     C76490   0.187   3.622   2.333 -0.8414 -0.7002  0.4596
  555MOL0     C76491   0.200   3.554   2.472 -0.4031 -0.9261  0.1824
  555MOL0     C76492   0.268   3.421   2.469 -0.0377 -0.9549 -0.6085
  555MOL0     C76493   0.247   3.355   2.607  0.1701 -0.2423 -0.2170
  555MOL0     C76494   0.301   3.213   2.614  0.3805 -0.5543 -0.7434
  555MOL0     C76495   0.245   3.133   2.725  0.3129 -0.3152 -0.4601
  555MOL0     C76496   0.328   3.015   2.746  0.1131  0.3159  0.3143
  555MOL0    Cl76497   0.274   2.908   2.872  0.3746 -0.5985 -0.2610
  555MOL0     C76498   0.652   3.597   2.278 -0.1292 -0.6389  0.0329
  555MOL0     C76499   0.774   3.622   2.214 -0.1763 -0.6467 -0.4971
  555MOL0     O76500   1.062   3.612   2.152 -0.4152 -0.0992 -0.1732
  555MOL0     C76501   1.144   3.944   2.017 -0.2111  0.2557 -0.3359
  555MOL0     C76502   1.229   4.022   1.948  0.3099 -0.4450  0.7753
  555MOL0     N76503   1.959   3.972   1.743 -0.1995 -0.3330 -0.3844
  555MOL0     N76504   2.003   3.892   1.653  1.0710 -0.5842 -0.2929
  555MOL0     C76505   1.906   3.376   0.384  0.1577  0.5009 -0.4924
  555MOL0     C76506   1.964   3.255   0.346  0.9143  0.0868 -0.5213
  555MOL0     C76507   2.013   2.866   0.213 -0.6535 -0.0068  0.1343
  555MOL0     C76508   2.123   2.921   0.152 -0.2479  0.7177  0.5909
  555MOL0     C76509   2.187   2.865   0.044  0.3863  0.2467  1.0960
  555MOL0     C76510   2.131   2.748  -0.016 -0.1364 -0.1296  1.0854
  555MOL0     O76511   2.171   2.699  -0.138 -0.1395 -0.3677  0.2355
  555MOL0     C76512   2.300   2.722  -0.202  0.2659  0.3521 -0.3289
  555MOL0     C76513   2.355   2.587  -0.259 -0.3908  0.1217 -0.0014
  555MOL0     C76514   2.416   2.486  -0.166 -0.0967 -0.1425 -1.2674
  555MOL0     C76515   2.471   2.361  -0.241  0.3497  1.2761 -0.1143
  555MOL0     C76516   2.363   2.275  -0.298 -0.4345 -0.0913 -0.2603
  555MOL0     C76517   2.269   2.207  -0.317 -0.2269  1.5128 -0.4160
  555MOL0     C76518   2.028   2.687   0.053  0.2633  0.4330 -0.4487
  555MOL0     C76519   1.965   2.743   0.160  0.0914  0.9620  0.0804
  555MOL0     C76520   1.849   2.654   0.216  0.5381 -0.8398  0.0069
  555MOL0     H76521   1.865   3.064   0.603  0.2144 -1.2713 -1.8105
  555MOL0     H76522   1.758   3.295   0.666 -1.4214  2.0058 -2.1666
  555MOL0     H76523   1.837   3.698   0.589 -1.8816 -1.6543 -2.6633
  555MOL0     H76524   1.927   3.564   0.673 -0.3219  1.7373  3.0000
  555MOL0     H76525   1.647   3.592   0.694  1.4381  0.2198 -2.8069
  555MOL0     H76526   1.756   3.492   0.806 -1.4323 -0.6815  0.1667
  555MOL0     H76527   1.806   3.785   0.817  0.1231  1.3768  1.8641
  555MOL0     H76528   1.648   3.739   0.885  1.2408  2.0412  2.2496
  555MOL0     H76529   1.774   3.584   1.029 -1.6949 -0.9028 -2.9900
  555MOL0     H76530   1.922   3.637   0.946 -1.5206 -2.4354 -0.5258
  555MOL0     H76531   1.724   3.798   1.116 -0.7294 -0.7373 -2.7058
  555MOL0     H76532   1.855   3.878   1.022 -0.8663 -2.3487 -3.7409
  555MOL0     H76533   1.878   3.676   1.247  0.3429  2.0971  2.1175
  555MOL0     H76534   2.020   3.728   1.156 -0.6187  0.6227 -2.7870
  555MOL0     H76535   1.825   3.901   1.346  0.5956  2.5141  1.5821
  555MOL0     H76536   1.944   3.974   1.237  1.6661 -0.7916 -1.1728
  555MOL0     H76537   2.081   3.790   1.420  0.3365  0.5606 -0.7323
  555MOL0     H76538   2.122   3.945   1.353  1.4642 -0.5966 -0.4720
  555MOL0     H76539   1.926   4.153   1.471  0.6612 -1.7186 -0.9398
  555MOL0     H76540   1.893   4.298   1.709  3.4195 -0.3126  1.9910
  555MOL0     H76541   1.895   4.199   1.852  0.0367  1.5200  0.0193
  555MOL0     H76542   1.657   4.311   1.753 -1.0315 -1.2898 -1.1564
  555MOL0     H76543   1.652   4.149   1.682 -2.7371  0.5156  0.8074
  555MOL0     H76544   1.715   4.040   1.883 -1.9472 -1.2704 -3.3780
  555MOL0     H76545   1.708   4.199   1.971 -0.1019 -2.1300  1.5801
  555MOL0     H76546   1.520   4.132   2.032  2.7870 -1.2015  0.6071
  555MOL0     H76547   1.466   4.229   1.900  0.1418  0.0975 -2.4028
  555MOL0     H76548   1.486   3.811   1.933  0.6431  0.4933 -1.1652
  555MOL0     H76549   1.420   3.591   1.963 -0.7147 -1.3720  0.0500
  555MOL0     H76550   1.253   3.537   1.992  0.5646 -1.6558  1.9429
  555MOL0     H76551   1.368   3.580   2.130  1.4150  0.7127  0.3074
  555MOL0     H76552   0.709   3.940   2.116  2.7364  0.8966  1.9500
  555MOL0     H76553   0.478   3.874   2.190 -0.6426 -1.5146 -1.4605
  555MOL0     H76554   0.317   3.790   2.357  0.3602  0.9128 -0.7866
  555MOL0     H76555   0.299   3.741   2.190 -0.3137 -1.5360  0.1925
  555MOL0     H76556   0.094   3.678   2.318  0.5101  2.3250  2.3702
  555MOL0     H76557   0.167   3.548   2.256 -0.6168  1.7762 -2.1533
  555MOL0     H76558   0.098   3.532   2.505 -0.8847  0.1815 -0.5121
  555MOL0     H76559   0.246   3.623   2.543 -1.6748  0.1352  0.0261
  555MOL0     H76560   0.374   3.439   2.450 -0.2222  0.1175 -0.7161
  555MOL0     H76561   0.216   3.362   2.393 -2.0975 -0.8857  0.6664
  555MOL0     H76562   0.303   3.413   2.681 -0.9626  2.4840 -1.3606
  555MOL0     H76563   0.141   3.366   2.632  0.9266  3.4701  2.2313
  555MOL0     H76564   0.409   3.214   2.632 -0.2232 -0.1419  4.1682
  555MOL0     H76565   0.285   3.157   2.522  0.4808 -0.0060 -1.0985
  555MOL0     H76566   0.145   3.103   2.692  0.3537  0.5392 -1.4026
  555MOL0     H76567   0.231   3.186   2.819 -1.7989 -0.7930 -0.4487
  555MOL0     H76568   0.420   3.059   2.785 -1.1724  2.4994  1.1327
  555MOL0     H76569   0.340   2.954   2.657  1.1313 -1.0008  1.3208
  555MOL0     H76570   0.638   3.494   2.310 -1.6596 -1.0425 -1.7956
  555MOL0     H76571   0.853   3.548   2.226  2.8024  2.2772 -0.4237
  555MOL0     H76572   1.048   3.976   2.057 -0.6650 -1.5433  0.1086
  555MOL0     H76573   1.217   4.125   1.916  0.3688 -0.0995  1.8497
  555MOL0     H76574   1.912   3.455   0.309  0.5749  0.2166 -0.7595
  555MOL0     H76575   2.013   3.247   0.249  1.1565  1.7514 -0.5666
  555MOL0     H76576   2.171   3.016   0.175  0.5944  0.6556 -0.7694
  555MOL0     H76577   2.266   2.921  -0.005 -0.5211 -0.9550 -2.0465
  555MOL0     H76578   2.281   2.794  -0.283  0.5933  0.0335 -0.6954
  555MOL0     H76579   2.367   2.764  -0.128  0.2720  1.0477 -0.7207
  555MOL0     H76580   2.435   2.621  -0.326  2.0621  1.0456  3.1615
  555MOL0     H76581   2.287   2.542  -0.331  0.3037  0.2060 -0.7314
  555MOL0     H76582   2.503   2.538  -0.124  0.3150 -0.7661 -1.3322
  555MOL0     H76583   2.339   2.461  -0.092 -1.4349 -2.5360 -3.3198
  555MOL0     H76584   2.517   2.297  -0.165  0.0365  1.4399  0.2143
  555MOL0     H76585   2.532   2.384  -0.328 -0.5840 -3.5692 -2.3944
  555MOL0     H76586   2.186   2.140  -0.328  0.2906  1.1535 -2.7025
  555MOL0     H76587   1.987   2.594   0.014 -1.0309  1.2399 -1.0907
  555MOL0     H76588   1.845   2.559   0.162  1.1717  0.2401 -2.0109
  555MOL0     H76589   1.864   2.632   0.323 -1.7386 -1.2276  0.3130
  555MOL0     H76590   1.755   2.710   0.218 -1.2313 -3.3818  4.3609
  556MOL0     O76591   9.492   8.694   5.082  0.6382  0.0174  0.1986
  556MOL0     C76592   9.504   8.612   4.991  0.2739  0.4867  0.3053
  556MOL0     O76593   9.513   8.468   5.003  0.4398 -0.1272  0.2006
  556MOL0     C76594   9.487   8.419   5.125  0.1590  0.3995 -0.0678
  556MOL0     C76595   9.361   8.377   5.165 -0.5009 -0.3039 -0.5327
  556MOL0     C76596   9.339   8.302   5.282 -1.2602  0.6601 -0.5213
  556MOL0     C76597   9.449   8.273   5.369 -0.0638 -0.8718 -0.3583
  556MOL0     O76598   9.449   8.190   5.478  0.1488 -0.3782  0.3489
  556MOL0     C76599   9.324   8.168   5.542 -0.7209  0.2401 -0.6825
  556MOL0     C76600   9.352   8.073   5.664 -0.2770 -0.8757  0.3205
  556MOL0     C76601   9.234   8.074   5.760 -0.1959 -0.5015  0.4387
  556MOL0     C76602   9.271   7.994   5.891 -1.1062  0.3747  0.6776
  556MOL0     C76603   9.151   7.940   5.975  0.3960 -0.6126 -0.3936
  556MOL0     C76604   9.075   8.055   6.043 -0.7030 -0.6591  0.3803
  556MOL0     C76605   8.963   8.003   6.142 -0.3431  0.6028  0.2325
  556MOL0     C76606   8.844   7.931   6.069 -0.1999  1.0162  0.4589
  556MOL0     N76607   8.799   7.804   6.133  0.4386  0.3316 -1.0519
  556MOL0     C76608   8.667   7.780   6.167  1.0361  0.2806  0.3837
  556MOL0     C76609   8.660   7.652   6.204  0.1520 -0.3161  0.2891
  556MOL0     C76610   8.543   7.569   6.246 -0.5368 -0.0285 -0.1956
  556MOL0     C76611   8.518   7.471   6.134  0.4312  0.8046  0.4954
  556MOL0     C76612   8.395   7.381   6.180  0.4213  0.6968  0.4672
  556MOL0     C76613   8.384   7.250   6.107 -0.1187  0.0059 -0.0670
  556MOL0     O76614   8.302   7.144   6.159  0.5393 -0.4308 -0.2396
  556MOL0     C76615   8.284   7.025   6.090  0.0885  0.7191 -0.5227
  556MOL0     C76616   8.302   7.012   5.957  0.4370  0.0248  1.6884
  556MOL0     C76617   8.281   6.888   5.894  0.3103 -0.7952 -0.2702
  556MOL0     C76618   8.272   6.887   5.740  0.9218  0.5713  0.1272
  556MOL0     C76619   8.263   6.768   5.968 -0.0057 -0.8829 -0.9211
  556MOL0     C76620   8.240   6.638   5.904 -0.0559  0.7409 -0.1739
  556MOL0     O76621   8.141   6.558   5.957 -0.1600 -0.1007  0.1768
  556MOL0     C76622   8.113   6.439   5.906  0.3763 -0.6284 -0.0743
  556MOL0     C76623   8.102   6.337   5.988 -0.3402 -0.1662 -0.7550
  556MOL0     C76624   8.073   6.204   5.940  0.0012  0.7481 -0.3119
  556MOL0     C76625   8.064   6.176   5.799  0.4046 -0.4605 -0.3481
  556MOL0     O76626   8.034   6.056   5.742 -0.9740  0.8245  0.0157
  556MOL0     C76627   7.958   5.960   5.822  1.1365  0.6348 -0.1116
  556MOL0     C76628   7.911   5.848   5.728 -0.1600 -0.7051 -0.2313
  556MOL0     C76629   7.801   5.768   5.790 -0.2219 -0.2250  0.3022
  556MOL0     C76630   7.783   5.632   5.715  0.7679  0.8418 -0.4627
  556MOL0     C76631   7.645   5.565   5.733  0.2301 -0.3244 -0.5116
  556MOL0     C76632   7.619   5.424   5.691 -0.1854  0.1558  0.3341
  556MOL0     C76633   7.697   5.327   5.784  0.6138 -0.4943  0.2677
  556MOL0     C76634   7.680   5.174   5.748 -0.5334 -1.4799  0.3042
  556MOL0    Cl76635   7.829   5.071   5.784 -0.3508 -0.3269  0.1475
  556MOL0     C76636   8.076   6.284   5.713 -0.2107 -0.5599  0.1532
  556MOL0     C76637   8.098   6.419   5.764 -0.6142  0.4746 -0.6939
  556MOL0     O76638   8.307   6.607   5.813 -0.3714 -0.6616  0.3525
  556MOL0     C76639   8.251   6.781   6.107  0.0206  0.3631 -0.0892
  556MOL0     C76640   8.268   6.910   6.171 -0.1857  0.3221  0.2836
  556MOL0     N76641   8.788   7.601   6.195  0.0971 -0.5644  0.0302
  556MOL0     N76642   8.871   7.686   6.144 -0.3471  0.4657  0.4783
  556MOL0     C76643   9.579   8.322   5.345 -0.7535 -0.5950  0.8465
  556MOL0     C76644   9.591   8.406   5.223  0.9289  0.3357 -0.4058
  556MOL0     C76645   9.535   8.652   4.855 -0.6694  0.1415 -0.6278
  556MOL0     C76646   9.619   8.570   4.775 -0.9546 -0.3713 -0.2577
  556MOL0     C76647   9.641   8.602   4.643 -0.0252 -0.3487 -0.5426
  556MOL0     C76648   9.576   8.710   4.584 -1.4008 -0.1686  0.7869
  556MOL0     O76649   9.601   8.720   4.441 -0.0129  0.4613 -0.5171
  556MOL0     C76650   9.509   8.797   4.370 -0.3257 -0.7531  0.1655
  556MOL0     C76651   9.519   8.752   4.218 -0.1054  0.4972 -0.0709
  556MOL0     C76652   9.464   8.609   4.181 -0.2006  1.2164  0.1339
  556MOL0     C76653   9.471   8.574   4.033 -0.1651 -0.1633 -0.4202
  556MOL0     C76654   9.605   8.600   3.980 -0.3180 -0.0633  0.0094
  556MOL0     C76655   9.709   8.628   3.923  0.2049 -0.2695 -0.1474
  556MOL0     C76656   9.493   8.792   4.655 -0.4249  0.5736  0.3184
  556MOL0     C76657   9.472   8.766   4.798  0.2280  0.4242  0.6572
  556MOL0     C76658   9.391   8.883   4.860 -1.0688  0.9422  0.0179
  556MOL0     H76659   9.287   8.409   5.092  2.5058 -0.1376 -3.8414
  556MOL0     H76660   9.245   8.252   5.301  1.6563 -5.3350  0.5712
  556MOL0     H76661   9.249   8.126   5.474 -0.8367  0.2697 -0.5722
  556MOL0     H76662   9.284   8.258   5.589  0.3223  0.8116 -0.8579
  556MOL0     H76663   9.368   7.969   5.635 -1.1314 -1.3502  1.4863
  556MOL0     H76664   9.442   8.118   5.709 -1.9743  3.7393 -0.2937
  556MOL0     H76665   9.216   8.175   5.799  0.4618 -0.3988  0.4908
  556MOL0     H76666   9.142   8.037   5.716  1.0631 -1.2219 -1.7474
  556MOL0     H76667   9.324   7.908   5.850  0.6449  2.3896 -1.5781
  556MOL0     H76668   9.333   8.058   5.955 -1.0672 -0.6044  1.6371
  556MOL0     H76669   9.195   7.868   6.044  1.4643  0.4258  0.0339
  556MOL0     H76670   9.077   7.886   5.915 -0.9933  0.9310 -0.1369
  556MOL0     H76671   9.140   8.118   6.104 -4.0719  2.1095  1.4702
  556MOL0     H76672   9.034   8.117   5.963  2.0428 -0.5646 -1.0683
  556MOL0     H76673   8.931   8.081   6.212 -2.0742 -0.3338  0.5261
  556MOL0     H76674   9.013   7.924   6.198  0.7114  1.9203  1.2457
  556MOL0     H76675   8.762   8.003   6.058 -0.6561  0.5262  0.6618
  556MOL0     H76676   8.866   7.899   5.966  0.2610  3.6223 -0.3315
  556MOL0     H76677   8.590   7.856   6.174 -1.9151 -2.6339  2.9535
  556MOL0     H76678   8.455   7.631   6.264  1.0788  1.9855  1.2528
  556MOL0     H76679   8.568   7.513   6.336  0.9545 -0.9949 -1.1569
  556MOL0     H76680   8.475   7.509   6.040 -0.6041 -2.8549 -0.6934
  556MOL0     H76681   8.601   7.406   6.109 -0.7716  0.6314 -3.8462
  556MOL0     H76682   8.400   7.356   6.287 -3.5144  4.1792  1.7188
  556MOL0     H76683   8.307   7.440   6.154  0.8731  0.9856 -0.4531
  556MOL0     H76684   8.342   7.282   6.012 -1.6991  0.8330  0.8690
  556MOL0     H76685   8.488   7.221   6.091  0.3285  2.4113 -2.2397
  556MOL0     H76686   8.292   7.107   5.906 -0.6665 -0.5831  0.7257
  556MOL0     H76687   8.363   6.850   5.693 -1.5451 -0.4438 -4.4477
  556MOL0     H76688   8.247   6.985   5.697  1.9517  0.5318 -0.6040
  556MOL0     H76689   8.194   6.818   5.706  1.8836 -0.3670 -0.2170
  556MOL0     H76690   8.103   6.352   6.095 -1.0306 -2.9262 -0.2941
  556MOL0     H76691   8.091   6.119   6.006  0.9975 -2.4485 -4.2790
  556MOL0     H76692   8.013   5.918   5.907 -1.1890  0.7928  1.5488
  556MOL0     H76693   7.872   6.013   5.863  2.2043  2.5062 -0.2075
  556MOL0     H76694   7.869   5.891   5.637 -1.3101  2.0625  1.5104
  556MOL0     H76695   7.997   5.784   5.706  1.0351 -0.0894  2.3349
  556MOL0     H76696   7.714   5.834   5.792 -0.0939  0.3042 -3.6107
  556MOL0     H76697   7.834   5.752   5.893  2.8946 -0.5703 -0.6349
  556MOL0     H76698   7.870   5.573   5.743  2.6242  2.2848 -2.7265
  556MOL0     H76699   7.791   5.652   5.607 -1.3414  0.1557 -0.7923
  556MOL0     H76700   7.629   5.561   5.841 -3.1820  0.6695 -0.8642
  556MOL0     H76701   7.566   5.629   5.693 -0.2327  0.7367  1.9872
  556MOL0     H76702   7.632   5.408   5.583 -2.2802  2.7196 -0.4059
  556MOL0     H76703   7.510   5.411   5.693 -0.6677  2.9325 -1.8288
  556MOL0     H76704   7.674   5.350   5.889  3.5050  0.9170  0.7112
  556MOL0     H76705   7.806   5.335   5.776  0.7689 -2.7730 -0.7241
  556MOL0     H76706   7.671   5.168   5.639  2.0059  2.2811 -0.3012
  556MOL0     H76707   7.595   5.134   5.803 -1.9158  1.8613  0.8191
  556MOL0     H76708   8.056   6.277   5.606 -1.0445  2.9060 -0.0362
  556MOL0     H76709   8.094   6.508   5.703  1.4784 -0.0894 -1.7360
  556MOL0     H76710   8.218   6.697   6.167 -1.1628  0.8575 -0.0204
  556MOL0     H76711   8.259   6.910   6.279  0.0416 -3.2849  0.4230
  556MOL0     H76712   9.671   8.291   5.393 -1.3845 -3.8933  0.2143
  556MOL0     H76713   9.694   8.436   5.207  0.5266  1.3293 -1.2258
  556MOL0     H76714   9.670   8.485   4.819 -0.3141  0.3588  0.4445
  556MOL0     H76715   9.694   8.530   4.581  2.4016  2.1792 -1.6185
  556MOL0     H76716   9.404   8.777   4.390 -0.2140 -1.1418  0.3783
  556MOL0     H76717   9.534   8.902   4.392 -1.2391  0.0385 -2.2127
  556MOL0     H76718   9.626   8.755   4.198  0.0276  0.6766  0.6252
  556MOL0     H76719   9.459   8.816   4.152 -0.9286 -0.8454 -0.6897
  556MOL0     H76720   9.520   8.534   4.238  1.0520  0.6217 -1.7666
  556MOL0     H76721   9.363   8.601   4.221  0.5034 -0.7637  1.7321
  556MOL0     H76722   9.405   8.646   3.985 -0.6742  0.5584  1.3141
  556MOL0     H76723   9.445   8.469   4.018  2.9419 -1.4691  2.0521
  556MOL0     H76724   9.806   8.657   3.888  0.2002  1.1532  0.9773
  556MOL0     H76725   9.439   8.874   4.609 -1.6342 -1.1088 -1.4270
  556MOL0     H76726   9.290   8.895   4.820 -0.6306 -3.3175 -3.1298
  556MOL0     H76727   9.383   8.869   4.969 -2.2368  0.6981 -0.0821
  556MOL0     H76728   9.446   8.977   4.856  2.6241 -0.9506  1.5819
  557MOL0     O76729   7.471   7.818   7.504 -0.0933 -0.0190 -0.2647
  557MOL0     C76730   7.414   7.870   7.409 -0.7535  0.5706 -0.4497
  557MOL0     O76731   7.482   7.913   7.299  0.7495 -0.3008  0.1840
  557MOL0     C76732   7.594   7.842   7.264  0.7127 -0.6151 -0.6336
  557MOL0     C76733   7.572   7.752   7.168 -0.6308 -0.4207  0.3047
  557MOL0     C76734   7.676   7.675   7.111  0.6088  0.3424 -0.1550
  557MOL0     C76735   7.812   7.689   7.161  0.2258 -0.6238 -0.4163
  557MOL0     O76736   7.928   7.634   7.111  0.1639 -1.2003 -0.1348
  557MOL0     C76737   7.928   7.611   6.970  0.3923  0.0416 -0.3927
  557MOL0     C76738   8.078   7.607   6.929  0.0867 -0.1646 -0.3103
  557MOL0     C76739   8.154   7.734   6.974  0.1549 -0.5671 -1.2713
  557MOL0     C76740   8.286   7.736   6.910 -0.0641  0.1856  0.0673
  557MOL0     C76741   8.374   7.831   6.984 -0.4694 -0.2639 -0.2527
  557MOL0     C76742   8.496   7.869   6.902 -0.3063 -0.3286 -0.3772
  557MOL0     C76743   8.575   7.980   6.969  0.2308 -0.0523  0.5616
  557MOL0     C76744   8.638   8.088   6.876 -0.4948  0.9781 -0.1198
  557MOL0     N76745   8.680   8.012   6.759 -0.1211  0.0423 -0.1207
  557MOL0     C76746   8.803   7.950   6.747 -0.1116 -0.1582  0.9840
  557MOL0     C76747   8.811   7.912   6.615  0.6739 -0.8036 -0.0734
  557MOL0     C76748   8.934   7.861   6.549  1.0564 -0.2655 -0.2438
  557MOL0     C76749   9.066   7.857   6.618  0.2748  0.2854  0.2922
  557MOL0     C76750   9.154   7.730   6.602  0.8160 -0.1351 -0.8804
  557MOL0     C76751   9.239   7.739   6.477 -0.5334 -0.4722 -0.2817
  557MOL0     O76752   9.320   7.863   6.468  0.5783  0.3110 -0.6257
  557MOL0     C76753   9.388   7.885   6.350 -0.3856  0.2217 -0.8436
  557MOL0     C76754   9.421   7.782   6.267  0.7165  0.3667  0.2605
  557MOL0     C76755   9.486   7.806   6.148 -0.1215 -0.9449 -0.6556
  557MOL0     C76756   9.535   7.695   6.067 -1.0681  0.1629 -0.0672
  557MOL0     C76757   9.533   7.941   6.114  1.2579  0.3173 -0.4156
  557MOL0     C76758   9.622   7.987   6.002  0.6117  0.3206  0.1790
  557MOL0     O76759   9.626   8.121   5.972  0.0775 -0.3850  0.4886
  557MOL0     C76760   9.697   8.159   5.865 -0.2444 -0.1268 -0.3193
  557MOL0     C76761   9.705   8.096   5.741  1.2344  0.2838  0.2016
  557MOL0     C76762   9.787   8.142   5.641  0.0420  0.3808 -0.3727
  557MOL0     C76763   9.866   8.255   5.659 -0.7375 -0.0026 -0.0837
  557MOL0     O76764   9.968   8.294   5.579 -0.6162 -0.7704  0.0765
  557MOL0     C76765   9.940   8.289   5.443 -0.1349 -0.4920  0.2267
  557MOL0     C76766  10.069   8.285   5.365  0.3209 -0.8966 -0.7785
  557MOL0     C76767  10.157   8.164   5.394  0.0937 -0.2374  0.5724
  557MOL0     C76768  10.247   8.178   5.513 -0.1501  0.5069  0.8392
  557MOL0     C76769  10.310   8.039   5.533  0.4443 -0.2343 -0.5940
  557MOL0     C76770  10.204   7.930   5.571 -0.4688  0.5536 -0.3023
  557MOL0     C76771  10.277   7.807   5.619 -0.5339 -0.0403 -0.4339
  557MOL0     C76772  10.171   7.698   5.652 -0.5070 -0.1373  0.9909
  557MOL0    Cl76773  10.122   7.650   5.486 -0.3985 -0.0005  0.4287
  557MOL0     C76774   9.858   8.330   5.777  0.2004  0.4774  1.3103
  557MOL0     C76775   9.780   8.274   5.880 -0.2696 -0.9300 -0.5197
  557MOL0     O76776   9.687   7.900   5.944 -0.6416  0.5082  0.3823
  557MOL0     C76777   9.485   8.042   6.205 -0.2156  0.0796  0.5022
  557MOL0     C76778   9.412   8.016   6.319 -0.5395  0.1673 -0.2537
  557MOL0     N76779   8.687   7.933   6.561 -0.1731  0.4890  0.0472
  557MOL0     N76780   8.611   8.007   6.644 -1.0190 -0.5786  0.2754
  557MOL0     C76781   7.834   7.788   7.265  0.5322  0.7335  0.3210
  557MOL0     C76782   7.722   7.862   7.313  0.1054  0.7338 -0.3466
  557MOL0     C76783   7.276   7.916   7.438 -0.6133 -0.1825 -0.2933
  557MOL0     C76784   7.247   7.931   7.576  0.3676  0.0240  0.2430
  557MOL0     C76785   7.126   7.995   7.617 -0.7539  0.4731 -0.0724
  557MOL0     C76786   7.033   8.029   7.533 -1.2050 -0.7470  1.1537
  557MOL0     O76787   6.919   8.099   7.569  0.2477  0.2709 -0.5369
  557MOL0     C76788   6.940   8.221   7.656  0.2075 -0.9216  0.5416
  557MOL0     C76789   6.914   8.188   7.801  0.6207  0.0061  0.7913
  557MOL0     C76790   6.930   8.315   7.891  0.6380  0.5816 -0.0883
  557MOL0     C76791   7.021   8.289   8.014 -0.2304  0.4029  0.1114
  557MOL0     C76792   7.162   8.270   7.964 -1.0449 -0.8300 -0.2788
  557MOL0     C76793   7.275   8.250   7.922 -0.6796 -0.6074 -0.4702
  557MOL0     C76794   7.045   7.998   7.397  0.0369 -0.3750  0.3846
  557MOL0     C76795   7.174   7.955   7.343  0.0549  0.7384 -0.0632
  557MOL0     C76796   7.189   7.945   7.205  0.4820  0.4396  0.4577
  557MOL0     H76797   7.475   7.753   7.120 -0.0131  1.8385 -1.0503
  557MOL0     H76798   7.650   7.607   7.031 -0.7407  1.7466 -0.9710
  557MOL0     H76799   7.880   7.690   6.913  1.1389 -0.7006 -2.1035
  557MOL0     H76800   7.880   7.514   6.954 -0.3230 -0.2646  2.8134
  557MOL0     H76801   8.136   7.517   6.952  5.1641  2.2361 -2.0741
  557MOL0     H76802   8.074   7.617   6.820  0.9022 -3.6387 -0.7680
  557MOL0     H76803   8.100   7.827   6.951  2.1988  0.8292 -0.6591
  557MOL0     H76804   8.178   7.731   7.081  0.9128  0.6863 -1.3938
  557MOL0     H76805   8.334   7.637   6.913  1.9107  1.1099  0.3316
  557MOL0     H76806   8.282   7.759   6.803 -2.3291 -0.7423 -0.1082
  557MOL0     H76807   8.420   7.765   7.058 -0.4367 -1.4449 -1.2881
  557MOL0     H76808   8.320   7.909   7.039  2.4024  1.4955  0.2740
  557MOL0     H76809   8.566   7.786   6.888  0.7898  0.4439  0.3792
  557MOL0     H76810   8.467   7.897   6.800  0.6422 -2.6396 -1.3756
  557MOL0     H76811   8.647   7.935   7.038  1.1554  1.5489  0.6972
  557MOL0     H76812   8.514   8.041   7.037  0.1912 -1.0969  1.5094
  557MOL0     H76813   8.569   8.162   6.836 -1.1870 -0.7986 -2.4928
  557MOL0     H76814   8.722   8.136   6.927 -2.0878  2.3240  1.3737
  557MOL0     H76815   8.885   7.948   6.817  0.2561  2.9177  0.7898
  557MOL0     H76816   8.932   7.915   6.453  1.0927  3.2297  1.5757
  557MOL0     H76817   8.906   7.756   6.539  1.9868 -0.4661 -0.9051
  557MOL0     H76818   9.118   7.945   6.577 -0.1791  0.5270  0.2281
  557MOL0     H76819   9.058   7.876   6.725 -3.6461  0.3778  0.1070
  557MOL0     H76820   9.225   7.718   6.685  1.4017  0.1630 -1.3293
  557MOL0     H76821   9.092   7.641   6.596  1.7487 -0.7172 -2.6861
  557MOL0     H76822   9.303   7.653   6.453 -1.4687 -1.2695  0.0122
  557MOL0     H76823   9.160   7.741   6.402 -2.8391 -2.5388  1.8872
  557MOL0     H76824   9.389   7.678   6.272  1.0988  0.2457  0.2245
  557MOL0     H76825   9.508   7.706   5.961  0.1309  0.9276 -0.3238
  557MOL0     H76826   9.486   7.599   6.086 -0.8458 -0.7341 -3.3587
  557MOL0     H76827   9.644   7.694   6.082 -0.6390  1.6750 -2.3857
  557MOL0     H76828   9.637   8.012   5.725  0.1243  0.7885  1.9526
  557MOL0     H76829   9.783   8.097   5.542  3.0542 -2.4733  0.6444
  557MOL0     H76830   9.873   8.209   5.411  1.0023 -1.5036  0.3052
  557MOL0     H76831   9.883   8.380   5.421 -1.8048 -1.3714  0.7819
  557MOL0     H76832  10.035   8.274   5.262 -1.1193  0.1924 -0.4487
  557MOL0     H76833  10.119   8.380   5.385 -2.8544  1.0092 -1.2861
  557MOL0     H76834  10.221   8.153   5.306  1.9281  0.7088  1.7252
  557MOL0     H76835  10.088   8.080   5.401  3.0983 -2.8133  1.3391
  557MOL0     H76836  10.183   8.191   5.601  1.3449  1.9337  1.7621
  557MOL0     H76837  10.312   8.266   5.506 -0.2497  0.5878  0.9252
  557MOL0     H76838  10.358   8.022   5.436  2.4984  3.7558 -0.4726
  557MOL0     H76839  10.387   8.049   5.610 -1.6754  0.3416  1.6057
  557MOL0     H76840  10.137   7.894   5.493 -0.0442 -3.2161  0.8668
  557MOL0     H76841  10.133   7.970   5.644 -1.0729 -1.2730  0.1619
  557MOL0     H76842  10.343   7.829   5.703  0.2574 -1.8837 -0.5234
  557MOL0     H76843  10.334   7.768   5.534 -1.8890 -0.3691 -1.2317
  557MOL0     H76844  10.088   7.748   5.703  0.2782  2.9799 -0.5535
  557MOL0     H76845  10.206   7.609   5.705  0.0785  1.7089  3.9810
  557MOL0     H76846   9.908   8.425   5.794 -0.1766  0.8976  0.1990
  557MOL0     H76847   9.785   8.320   5.979 -0.1543 -1.3439 -0.3311
  557MOL0     H76848   9.513   8.146   6.192 -1.3864  0.3018 -0.4592
  557MOL0     H76849   9.392   8.096   6.391  1.2351  0.2854  0.1603
  557MOL0     H76850   7.935   7.806   7.300  1.0930  2.4117 -1.9177
  557MOL0     H76851   7.735   7.942   7.385 -1.8017  0.3965  0.4458
  557MOL0     H76852   7.306   7.893   7.659 -2.0076 -1.8848  1.1996
  557MOL0     H76853   7.100   7.996   7.722 -0.2852 -3.7578  0.2360
  557MOL0     H76854   7.038   8.269   7.644 -0.9936  1.6208  0.3453
  557MOL0     H76855   6.886   8.307   7.616  1.8357 -0.9218 -1.9139
  557MOL0     H76856   6.975   8.105   7.838 -0.7933 -1.0112  0.9126
  557MOL0     H76857   6.810   8.157   7.814  1.2196 -1.6112  2.1548
  557MOL0     H76858   6.969   8.402   7.838 -2.4203  2.2427  0.1594
  557MOL0     H76859   6.832   8.349   7.926  0.4714  0.2615 -0.2368
  557MOL0     H76860   6.991   8.207   8.081 -1.1276  0.7403  0.1390
  557MOL0     H76861   7.046   8.370   8.084  4.2416 -0.6795  0.0666
  557MOL0     H76862   7.374   8.234   7.884  0.2101  0.6954  1.1395
  557MOL0     H76863   6.962   8.030   7.335  0.6008 -0.0160 -0.2021
  557MOL0     H76864   7.206   7.845   7.164  0.5536 -0.0934  1.7503
  557MOL0     H76865   7.102   7.981   7.149  1.4047  1.8058 -0.1452
  557MOL0     H76866   7.269   8.010   7.168  1.5242 -0.6701  0.6760
  558MOL0     O76867   1.513   2.216   3.684  1.0467 -0.0090  0.1650
  558MOL0     C76868   1.580   2.132   3.636  0.4222 -0.4602  0.1759
  558MOL0     O76869   1.648   2.149   3.524 -0.2773  0.2234 -0.1163
  558MOL0     C76870   1.656   2.271   3.459 -0.0628 -0.7454  0.5506
  558MOL0     C76871   1.542   2.331   3.403  0.1432  1.0048 -0.5272
  558MOL0     C76872   1.554   2.461   3.348 -0.0260  0.5532 -0.5440
  558MOL0     C76873   1.687   2.515   3.341 -0.3847 -0.7207  0.1400
  558MOL0     O76874   1.693   2.638   3.266 -0.3075  0.2937 -0.0238
  558MOL0     C76875   1.826   2.697   3.239  0.3861  0.0176 -0.3261
  558MOL0     C76876   1.832   2.817   3.149 -0.3340  1.0157 -0.8882
  558MOL0     C76877   1.978   2.847   3.090  0.5507  0.1945  0.1157
  558MOL0     C76878   2.087   2.857   3.195  0.6751 -0.4224 -0.3136
  558MOL0     C76879   2.229   2.877   3.131  0.1710 -0.2069  0.6105
  558MOL0     C76880   2.254   3.010   3.053  1.2014  0.5651 -0.3526
  558MOL0     C76881   2.215   3.005   2.907 -0.1617  0.0812  0.2755
  558MOL0     C76882   2.167   3.145   2.858 -0.3732  0.5863  0.0121
  558MOL0     N76883   2.125   3.141   2.714  0.5095  0.3751  0.6814
  558MOL0     C76884   2.175   3.073   2.604  0.3048  0.2138 -0.1209
  558MOL0     C76885   2.078   3.064   2.510  0.5485  0.2666 -0.6725
  558MOL0     C76886   2.074   3.000   2.370 -0.7107  0.0112 -0.4351
  558MOL0     C76887   2.120   2.855   2.393  0.1160  0.3463  0.5854
  558MOL0     C76888   2.021   2.758   2.461 -0.0444 -0.3368  0.1454
  558MOL0     C76889   2.095   2.648   2.537  0.3425  0.2794 -0.6235
  558MOL0     O76890   2.014   2.527   2.565 -0.4710  0.1533  0.2249
  558MOL0     C76891   1.989   2.448   2.460 -0.1768 -0.4735  1.4619
  558MOL0     C76892   1.912   2.337   2.494 -0.3707  0.4328  0.1828
  558MOL0     C76893   1.894   2.226   2.408  0.8545 -1.3292  0.0729
  558MOL0     C76894   1.816   2.102   2.458 -0.1612  0.4762  0.4657
  558MOL0     C76895   1.937   2.237   2.277  0.5154 -1.7795 -0.2574
  558MOL0     C76896   1.928   2.123   2.173  0.3539 -0.4298 -0.2787
  558MOL0     O76897   1.930   2.175   2.042  0.5445  0.7315 -0.1150
  558MOL0     C76898   1.935   2.088   1.937  0.7295  0.2163 -0.8744
  558MOL0     C76899   1.848   1.978   1.908 -0.5969 -0.0853  0.3243
  558MOL0     C76900   1.857   1.910   1.786  0.0587 -0.3399 -0.1941
  558MOL0     C76901   1.958   1.944   1.695 -0.2674 -0.2730 -0.3384
  558MOL0     O76902   1.948   1.875   1.581  0.5640 -0.3365  0.1390
  558MOL0     C76903   2.054   1.869   1.495 -1.0931 -0.1167 -0.1181
  558MOL0     C76904   2.033   1.765   1.394  0.1220  0.2856  0.9015
  558MOL0     C76905   2.155   1.692   1.345  0.3655  0.5724 -0.3741
  558MOL0     C76906   2.117   1.572   1.251 -0.4858 -0.0505  0.5290
  558MOL0     C76907   2.235   1.491   1.209  0.2663 -0.1472 -1.2534
  558MOL0     C76908   2.211   1.410   1.082  0.1662 -0.4697  0.7738
  558MOL0     C76909   2.328   1.318   1.052 -0.0955 -1.2675  0.5870
  558MOL0     C76910   2.382   1.311   0.903  1.2391  0.7408  0.2206
  558MOL0    Cl76911   2.507   1.444   0.873 -0.0612  0.0202  0.0647
  558MOL0     C76912   2.045   2.049   1.724  0.2499  0.8740  0.9147
  558MOL0     C76913   2.038   2.111   1.854 -0.7998 -0.7992  0.2016
  558MOL0     O76914   1.922   2.007   2.208 -0.2567  0.1797 -0.3610
  558MOL0     C76915   1.993   2.362   2.231 -0.7204 -0.4506  0.6627
  558MOL0     C76916   2.020   2.469   2.321  0.5022  0.0475 -0.3489
  558MOL0     N76917   1.973   3.142   2.552  0.6821  0.3364  0.1432
  558MOL0     N76918   2.002   3.188   2.670  0.2830 -0.2961  0.3815
  558MOL0     C76919   1.798   2.446   3.382 -0.4577  0.5035  0.3795
  558MOL0     C76920   1.780   2.322   3.442 -0.2916 -0.2320 -0.4251
  558MOL0     C76921   1.578   2.006   3.710  0.1170 -0.4008 -1.5916
  558MOL0     C76922   1.701   1.966   3.763  0.9483  1.0484 -0.5582
  558MOL0     C76923   1.704   1.855   3.848 -0.8479  0.2857  0.2503
  558MOL0     C76924   1.597   1.771   3.866 -0.8010  0.6734  1.2628
  558MOL0     O76925   1.637   1.658   3.938  0.8601 -0.2585  0.5549
  558MOL0     C76926   1.536   1.571   3.997  0.4328 -0.1670 -0.6002
  558MOL0     C76927   1.604   1.492   4.114  0.2879 -0.3206 -0.5180
  558MOL0     C76928   1.614   1.574   4.242 -0.3562 -0.1590  0.6043
  558MOL0     C76929   1.726   1.528   4.335  0.3660  0.1225  0.0929
  558MOL0     C76930   1.864   1.525   4.278  0.0333 -1.1426  0.2991
  558MOL0     C76931   1.968   1.562   4.225  0.8941 -0.2069  0.0725
  558MOL0     C76932   1.466   1.817   3.828 -0.7501  0.4206 -0.7424
  558MOL0     C76933   1.460   1.939   3.750 -1.0021  0.3748 -0.2177
  558MOL0     C76934   1.332   1.971   3.687  0.5544  0.4789  0.0251
  558MOL0     H76935   1.448   2.278   3.400  2.0499 -2.7257 -0.2504
  558MOL0     H76936   1.481   2.527   3.303 -0.8688 -2.0253 -3.1690
  558MOL0     H76937   1.900   2.626   3.202  3.4597  2.4793  0.5882
  558MOL0     H76938   1.868   2.729   3.335  2.0966 -0.8090 -0.7541
  558MOL0     H76939   1.746   2.825   3.082 -2.3982  0.9257  1.5749
  558MOL0     H76940   1.815   2.894   3.226 -1.9676 -0.3380  0.1820
  558MOL0     H76941   1.999   2.774   3.011 -1.4275  3.5360 -3.8910
  558MOL0     H76942   1.958   2.939   3.036 -3.7879  0.6044  1.9851
  558MOL0     H76943   2.062   2.944   3.256  0.1153 -0.4564 -0.4876
  558MOL0     H76944   2.087   2.771   3.264  0.3920  0.7670  1.2351
  558MOL0     H76945   2.245   2.794   3.061  0.5357  0.8240 -0.5649
  558MOL0     H76946   2.297   2.874   3.217 -1.5389 -3.0066  2.0392
  558MOL0     H76947   2.208   3.092   3.110  1.6627 -0.6544  1.9209
  558MOL0     H76948   2.360   3.034   3.065  1.0101  1.1073  0.3919
  558MOL0     H76949   2.136   2.930   2.892 -0.0635 -0.5264  2.5014
  558MOL0     H76950   2.300   2.969   2.848 -0.9536  2.3217 -2.4655
  558MOL0     H76951   2.077   3.175   2.913 -0.8636 -0.1545 -0.3585
  558MOL0     H76952   2.252   3.211   2.876  2.8121 -2.9269 -0.6682
  558MOL0     H76953   2.272   3.025   2.602  0.7597  1.1251 -1.1955
  558MOL0     H76954   2.145   3.061   2.314 -0.1348  1.3643  1.6169
  558MOL0     H76955   1.974   3.006   2.326 -1.4367 -0.1533  1.1018
  558MOL0     H76956   2.143   2.817   2.293  1.7125 -1.8617  1.7181
  558MOL0     H76957   2.210   2.847   2.455  2.3136 -2.6450 -2.6169
  558MOL0     H76958   1.962   2.814   2.534  0.9328 -1.0837  1.5430
  558MOL0     H76959   1.958   2.719   2.381 -1.8504  1.7860  0.4167
  558MOL0     H76960   2.190   2.615   2.496 -0.4956 -0.9044 -1.6937
  558MOL0     H76961   2.109   2.696   2.634  0.0684  1.1131 -0.9853
  558MOL0     H76962   1.880   2.313   2.595 -1.1485 -0.0768 -0.1756
  558MOL0     H76963   1.765   2.137   2.549 -1.4497  3.5654 -1.2554
  558MOL0     H76964   1.881   2.015   2.471 -1.8334 -1.5039 -3.0221
  558MOL0     H76965   1.742   2.077   2.382  0.1695  0.1147  0.2617
  558MOL0     H76966   1.766   1.956   1.976 -0.8115  1.2189  0.5279
  558MOL0     H76967   1.792   1.824   1.772  3.5603 -2.9199 -1.9615
  558MOL0     H76968   2.064   1.972   1.460  2.8924  1.0057  3.4714
  558MOL0     H76969   2.143   1.842   1.553 -1.9317  0.2680  1.3918
  558MOL0     H76970   1.974   1.688   1.445  1.2578  1.1544  3.7463
  558MOL0     H76971   1.994   1.799   1.298  0.9055 -1.8418 -0.2476
  558MOL0     H76972   2.205   1.654   1.434 -3.5092  3.2894  3.3651
  558MOL0     H76973   2.223   1.750   1.281  0.3542  0.5154 -0.4382
  558MOL0     H76974   2.061   1.614   1.167 -1.8481 -0.2811  1.2886
  558MOL0     H76975   2.055   1.496   1.300  4.4946 -3.8127  1.8535
  558MOL0     H76976   2.310   1.568   1.193  1.4362 -1.7343 -4.3111
  558MOL0     H76977   2.266   1.430   1.295  0.2658 -1.2630 -2.0169
  558MOL0     H76978   2.197   1.487   1.005 -0.1358 -2.3964 -1.2135
  558MOL0     H76979   2.120   1.350   1.081 -0.0029 -0.2951 -1.6513
  558MOL0     H76980   2.284   1.223   1.085  0.8059 -1.8637  0.1285
  558MOL0     H76981   2.420   1.340   1.107  0.7189 -1.4054 -0.6659
  558MOL0     H76982   2.307   1.324   0.824  2.0596  1.5088 -0.4555
  558MOL0     H76983   2.423   1.213   0.876 -2.0152 -0.2723 -1.6296
  558MOL0     H76984   2.126   2.074   1.655 -0.0931  1.3774  0.6912
  558MOL0     H76985   2.105   2.181   1.902 -3.1163 -0.8103  3.8846
  558MOL0     H76986   2.019   2.375   2.126 -1.0696  1.1405  0.7498
  558MOL0     H76987   2.067   2.560   2.284 -0.3799  0.5418 -0.2698
  558MOL0     H76988   1.897   2.492   3.381 -0.9372  1.5620  0.2025
  558MOL0     H76989   1.862   2.278   3.499 -0.4720  0.5870  0.5035
  558MOL0     H76990   1.795   2.014   3.740  1.5822 -0.7745 -1.9698
  558MOL0     H76991   1.802   1.823   3.881 -1.0506 -1.5623 -0.7595
  558MOL0     H76992   1.456   1.623   4.049 -0.5987 -1.2953 -1.0013
  558MOL0     H76993   1.487   1.518   3.915  1.2171  1.1409 -1.9585
  558MOL0     H76994   1.705   1.461   4.084  0.6480  0.3998 -0.0586
  558MOL0     H76995   1.542   1.404   4.135  0.0070 -0.0111 -0.0352
  558MOL0     H76996   1.640   1.675   4.207 -1.9974  0.2507  0.4342
  558MOL0     H76997   1.515   1.570   4.289 -0.3263 -3.4714  0.5969
  558MOL0     H76998   1.702   1.427   4.370  2.1305 -0.7049 -0.9844
  558MOL0     H76999   1.715   1.600   4.416 -1.5560 -0.8370  0.7642
  558MOL0     H77000   2.061   1.586   4.179  0.8857 -3.2118 -1.7979
  558MOL0     H77001   1.376   1.760   3.847 -0.6138  0.2020 -0.7509
  558MOL0     H77002   1.344   2.019   3.589  2.8267 -0.3620 -0.1801
  558MOL0     H77003   1.264   1.886   3.682  0.7547  0.2848  0.4951
  558MOL0     H77004   1.281   2.044   3.750 -2.6418  0.1246 -1.9495
  559MOL0     O77005   0.386   9.619  10.928  0.0465  0.6578 -1.2178
  559MOL0     C77006   0.336   9.576  11.034  0.4823  0.3042  0.1791
  559MOL0     O77007   0.297   9.453  11.059 -0.3733  0.6097 -0.0785
  559MOL0     C77008   0.311   9.351  10.969  1.0260  0.0218  1.3007
  559MOL0     C77009   0.397   9.352  10.854 -0.5329 -0.5429  0.1577
  559MOL0     C77010   0.394   9.248  10.762  0.2847 -0.4625 -0.1927
  559MOL0     C77011   0.298   9.146  10.777 -0.2465  0.5053 -1.0976
  559MOL0     O77012   0.278   9.053  10.673 -0.7596 -0.0201 -0.4029
  559MOL0     C77013   0.157   8.977  10.684  0.3449 -1.1121  0.0812
  559MOL0     C77014   0.135   8.899  10.555  0.3265  0.7734  0.6863
  559MOL0     C77015   0.238   8.796  10.515 -0.7723  0.6032 -0.4961
  559MOL0     C77016   0.218   8.741  10.377 -0.4081 -0.1164 -0.0338
  559MOL0     C77017   0.296   8.612  10.347  0.2258  0.1630 -0.8648
  559MOL0     C77018   0.248   8.552  10.215  0.9967  0.7464  0.5181
  559MOL0     C77019   0.284   8.407  10.220 -0.0516  0.6044 -0.1324
  559MOL0     C77020   0.199   8.312  10.323  0.1895 -1.4667 -0.2146
  559MOL0     N77021   0.256   8.177  10.334  0.6976 -0.4091  1.0364
  559MOL0     C77022   0.252   8.092  10.228  0.2223 -0.1695  0.8378
  559MOL0     C77023   0.340   7.996  10.258  0.0581  0.7571 -0.7160
  559MOL0     C77024   0.380   7.878  10.172 -0.2389 -0.8684 -0.3978
  559MOL0     C77025   0.329   7.739  10.225 -1.2220 -0.2429 -0.1746
  559MOL0     C77026   0.316   7.641  10.111  0.6079 -0.0516 -0.7205
  559MOL0     C77027   0.266   7.497  10.153 -0.4763 -0.0062 -0.2345
  559MOL0     O77028   0.198   7.435  10.043 -0.5315 -0.2207 -0.0427
  559MOL0     C77029   0.068   7.466  10.022  0.7024 -0.3433  0.3238
  559MOL0     C77030  -0.014   7.563  10.094  0.0503  0.1956 -0.2660
  559MOL0     C77031  -0.147   7.578  10.076 -0.5048 -0.0858  0.2492
  559MOL0     C77032  -0.232   7.673  10.155  0.2334 -0.9725 -0.9593
  559MOL0     C77033  -0.200   7.504   9.962 -0.0345 -0.7684  0.0522
  559MOL0     C77034  -0.340   7.525   9.916  0.3842  0.1836  0.0090
  559MOL0     O77035  -0.441   7.455   9.970  0.0616  0.7441  0.4527
  559MOL0     C77036  -0.570   7.491   9.954  0.3868 -0.0828 -0.2780
  559MOL0     C77037  -0.659   7.412  10.024  0.3308 -0.2462 -0.6247
  559MOL0     C77038  -0.797   7.438  10.029  0.2054 -0.4726  0.7138
  559MOL0     C77039  -0.855   7.544   9.959  0.3040 -0.6289  0.8261
  559MOL0     O77040  -0.983   7.572   9.965  0.0474 -1.0040 -0.6863
  559MOL0     C77041  -1.077   7.503  10.047 -0.2229 -0.3794 -0.5552
  559MOL0     C77042  -1.069   7.545  10.199  0.1831 -0.0240 -0.1572
  559MOL0     C77043  -1.141   7.443  10.290 -0.3001  0.6943 -0.2448
  559MOL0     C77044  -1.283   7.406  10.258 -0.6590 -0.1794 -0.5939
  559MOL0     C77045  -1.361   7.340  10.373  0.8261 -0.0435 -0.2731
  559MOL0     C77046  -1.447   7.209  10.341  0.4528  0.5241 -0.0548
  559MOL0     C77047  -1.541   7.234  10.221  0.2024 -0.4594  0.8703
  559MOL0     C77048  -1.657   7.138  10.211  0.3233 -0.4504 -0.2441
  559MOL0    Cl77049  -1.741   7.149  10.055 -0.1284 -0.4231  0.3161
  559MOL0     C77050  -0.765   7.618   9.870 -0.1098 -0.6751  0.0772
  559MOL0     C77051  -0.624   7.605   9.883  1.0986 -0.0049 -0.1304
  559MOL0     O77052  -0.339   7.581   9.810 -0.5183 -0.3949 -0.1982
  559MOL0     C77053  -0.123   7.416   9.888 -0.3329  0.1645  0.7650
  559MOL0     C77054   0.011   7.396   9.915  0.2394 -0.3526 -0.0157
  559MOL0     N77055   0.388   8.019  10.384  0.9011 -0.4328 -0.4521
  559MOL0     N77056   0.341   8.132  10.429 -0.4868  0.4270 -0.3514
  559MOL0     C77057   0.221   9.146  10.894  0.4981 -0.3288 -0.3725
  559MOL0     C77058   0.234   9.242  10.997 -0.2613  0.0584 -0.2946
  559MOL0     C77059   0.295   9.679  11.136 -0.2205 -0.3553 -0.8228
  559MOL0     C77060   0.183   9.654  11.221 -0.2802 -0.1328 -1.2482
  559MOL0     C77061   0.140   9.740  11.317  1.0102  0.0187  0.0257
  559MOL0     C77062   0.205   9.863  11.325  0.3829  0.1505 -0.4076
  559MOL0     O77063   0.169   9.969  11.406  0.0705 -0.7016  0.9564
  559MOL0     C77064   0.091   9.951  11.532 -0.6393 -0.6791  0.9740
  559MOL0     C77065   0.059  10.094  11.588 -0.2236  0.2762  0.5006
  559MOL0     C77066   0.183  10.136  11.673  0.1261  0.4359  0.3249
  559MOL0     C77067   0.204  10.291  11.691 -0.0495  0.1347  0.7438
  559MOL0     C77068   0.268  10.358  11.569  0.4300  0.6009  0.3569
  559MOL0     C77069   0.340  10.402  11.487 -0.4839  0.3667  0.0598
  559MOL0     C77070   0.308   9.893  11.243 -0.1000  0.2164  0.6849
  559MOL0     C77071   0.360   9.807  11.148  0.2035 -0.4491 -0.3691
  559MOL0     C77072   0.458   9.879  11.055  0.0161 -0.1317  0.8485
  559MOL0     H77073   0.482   9.416  10.833 -0.6342 -1.0367 -1.9706
  559MOL0     H77074   0.455   9.241  10.672  1.0866  0.1999  0.2834
  559MOL0     H77075   0.072   9.043  10.704  2.6018  2.4220 -1.0597
  559MOL0     H77076   0.162   8.909  10.769 -2.3151  0.4468  1.6188
  559MOL0     H77077   0.040   8.847  10.567 -1.2880  3.8099  2.3347
  559MOL0     H77078   0.117   8.977  10.480 -0.1705  0.4363  0.4494
  559MOL0     H77079   0.340   8.835  10.523 -0.7244  0.0464  3.2043
  559MOL0     H77080   0.222   8.708  10.578 -2.0541  2.2166  1.5833
  559MOL0     H77081   0.114   8.708  10.373 -0.4214 -0.2564  1.1658
  559MOL0     H77082   0.235   8.815  10.298  0.6541  0.4396  0.6869
  559MOL0     H77083   0.291   8.542  10.431  1.8986  0.8181 -0.1732
  559MOL0     H77084   0.404   8.625  10.343  0.2936 -0.6319 -2.1212
  559MOL0     H77085   0.140   8.567  10.205  1.4276  2.9426 -1.5114
  559MOL0     H77086   0.296   8.592  10.125  3.4475 -3.3976 -0.2990
  559MOL0     H77087   0.389   8.387  10.244  0.2513  2.8314  0.6032
  559MOL0     H77088   0.256   8.370  10.121 -1.5655  1.7735 -0.1641
  559MOL0     H77089   0.189   8.357  10.422 -1.5660  0.3227 -1.1258
  559MOL0     H77090   0.094   8.312  10.293  0.5345 -1.2637 -1.4620
  559MOL0     H77091   0.217   8.101  10.125  3.5815  3.2984 -0.2724
  559MOL0     H77092   0.489   7.876  10.188 -0.5036 -0.1427  1.9812
  559MOL0     H77093   0.356   7.906  10.070  1.2075  1.0990 -0.2619
  559MOL0     H77094   0.386   7.704  10.311 -2.4763 -0.5527  0.5690
  559MOL0     H77095   0.237   7.770  10.276 -0.3677 -1.4191  2.2120
  559MOL0     H77096   0.236   7.686  10.052  1.0649  1.2804 -0.3733
  559MOL0     H77097   0.411   7.639  10.057 -0.7500  1.1276 -3.2940
  559MOL0     H77098   0.347   7.434  10.191  0.6364  1.6161  0.1958
  559MOL0     H77099   0.196   7.500  10.236 -1.8350 -0.3670 -1.3261
  559MOL0     H77100   0.037   7.619  10.171  1.4832 -0.0133 -1.0246
  559MOL0     H77101  -0.163   7.713  10.230 -0.2391  3.1404 -2.4616
  559MOL0     H77102  -0.325   7.631  10.194  0.2502 -0.7253 -0.6467
  559MOL0     H77103  -0.261   7.761  10.097  4.5534  1.9047  0.7039
  559MOL0     H77104  -0.638   7.332  10.094 -2.7746  1.2329  2.3010
  559MOL0     H77105  -0.858   7.379  10.096 -0.1343  1.1839  1.9071
  559MOL0     H77106  -1.180   7.524  10.017 -0.6183 -0.3141  0.7776
  559MOL0     H77107  -1.061   7.395  10.043 -1.4457 -0.5436 -2.9413
  559MOL0     H77108  -0.963   7.555  10.227 -0.4962  1.0371  2.3790
  559MOL0     H77109  -1.110   7.646  10.210  3.3901  1.3418  0.4143
  559MOL0     H77110  -1.133   7.499  10.384 -0.9551  5.0516 -2.5320
  559MOL0     H77111  -1.078   7.356  10.311 -0.1798  1.4640  3.2106
  559MOL0     H77112  -1.285   7.331  10.178  1.1989 -1.1540  0.1960
  559MOL0     H77113  -1.330   7.502  10.236 -2.9871 -0.6009  2.0867
  559MOL0     H77114  -1.292   7.328  10.457  0.4399 -3.3837 -0.3050
  559MOL0     H77115  -1.435   7.417  10.396  0.2619 -0.5553 -0.3671
  559MOL0     H77116  -1.508   7.185  10.428  1.1487 -1.7683 -0.1400
  559MOL0     H77117  -1.379   7.125  10.321 -0.4279 -0.6064  1.4861
  559MOL0     H77118  -1.481   7.227  10.130 -0.0399  2.1359  0.4276
  559MOL0     H77119  -1.582   7.335  10.225 -1.6225 -1.1744  1.4098
  559MOL0     H77120  -1.729   7.148  10.293 -0.5089 -3.0562 -0.5682
  559MOL0     H77121  -1.621   7.035  10.219 -0.0186 -0.6021 -0.5837
  559MOL0     H77122  -0.805   7.691   9.801 -2.1194 -2.0210 -0.3001
  559MOL0     H77123  -0.561   7.663   9.816  0.3218  1.3321  0.2540
  559MOL0     H77124  -0.181   7.363   9.813  1.8906 -1.9460  0.4343
  559MOL0     H77125   0.066   7.319   9.861  2.6830  0.0074  1.8143
  559MOL0     H77126   0.139   9.077  10.913 -1.1523  1.2084 -1.6111
  559MOL0     H77127   0.176   9.239  11.089 -0.9735  0.3393 -0.7295
  559MOL0     H77128   0.134   9.557  11.220  0.1040 -0.3409 -0.5434
  559MOL0     H77129   0.063   9.708  11.387  0.6469 -1.9049 -1.1880
  559MOL0     H77130  -0.003   9.899  11.513  0.1240 -1.3677 -1.1460
  559MOL0     H77131   0.153   9.891  11.599 -0.7225  1.0426  2.7045
  559MOL0     H77132  -0.025  10.083  11.656  0.9917  1.2612  2.2505
  559MOL0     H77133   0.039  10.171  11.512  1.6488  0.2663 -0.0532
  559MOL0     H77134   0.157  10.101  11.774 -0.5729  1.0449  0.3570
  559MOL0     H77135   0.277  10.099  11.630  0.2675  0.0198  0.9624
  559MOL0     H77136   0.276  10.313  11.770  0.8746 -1.3049  0.3641
  559MOL0     H77137   0.111  10.344  11.708  0.3917  0.0578  4.0741
  559MOL0     H77138   0.403  10.453  11.416 -0.7098 -2.0014 -2.0107
  559MOL0     H77139   0.355   9.990  11.241  1.8612 -0.6833  0.6677
  559MOL0     H77140   0.422   9.868  10.953 -0.3052  0.8535  0.8457
  559MOL0     H77141   0.466   9.987  11.066 -0.4991  0.3827 -2.8223
  559MOL0     H77142   0.558   9.833  11.054  0.7776  1.3933 -1.5231
  560MOL0     O77143  11.267   9.894  11.396  0.1174 -0.1930 -0.0029
  560MOL0     C77144  11.154   9.930  11.358  0.7843  0.3192  0.9770
  560MOL0     O77145  11.057   9.982  11.438 -0.6021 -0.3592 -0.1153
  560MOL0     C77146  11.069   9.982  11.576 -0.0524 -0.7320 -0.2910
  560MOL0     C77147  10.963   9.925  11.641 -0.5064  0.8694 -0.8109
  560MOL0     C77148  10.963   9.915  11.776  0.3359  0.4158  0.7315
  560MOL0     C77149  11.071   9.963  11.846 -0.0576 -0.9382 -0.0347
  560MOL0     O77150  11.078   9.959  11.980 -0.1734 -0.8722 -0.1224
  560MOL0     C77151  11.014   9.862  12.052  0.2839 -0.4326  0.0490
  560MOL0     C77152  11.043   9.866  12.205  0.1848  0.3629 -0.2951
  560MOL0     C77153  10.992   9.985  12.276  0.3602 -0.5546 -0.2550
  560MOL0     C77154  11.065  10.125  12.257 -0.3909  0.5955 -0.4550
  560MOL0     C77155  10.984  10.240  12.313  0.1579  0.2965 -0.4062
  560MOL0     C77156  11.045  10.374  12.270 -0.2731 -0.6884  0.6174
  560MOL0     C77157  10.969  10.499  12.322 -0.7219 -0.6590 -0.1751
  560MOL0     C77158  11.031  10.623  12.244  0.8327 -0.2592 -0.3576
  560MOL0     N77159  10.952  10.742  12.283 -0.2434  0.6711  0.6289
  560MOL0     C77160  10.952  10.806  12.404 -0.2598 -1.4494 -0.3556
  560MOL0     C77161  10.834  10.871  12.411  0.4259 -0.2962 -0.4522
  560MOL0     C77162  10.774  10.956  12.521 -0.2357 -0.2727  0.1026
  560MOL0     C77163  10.673  10.883  12.607  0.6756  0.0953  0.3232
  560MOL0     C77164  10.734  10.760  12.683 -1.1466  0.0674  0.2623
  560MOL0     C77165  10.843  10.795  12.782  0.1355 -0.6330  0.6699
  560MOL0     O77166  10.983  10.805  12.740 -0.5743  0.0714  0.5140
  560MOL0     C77167  11.048  10.691  12.717  0.5946 -0.2646  0.8772
  560MOL0     C77168  11.010  10.569  12.769  0.6270  0.1307  0.2784
  560MOL0     C77169  11.078  10.450  12.729 -0.3977 -0.0649 -0.7978
  560MOL0     C77170  11.023  10.329  12.794  0.6819 -0.0035 -0.4937
  560MOL0     C77171  11.192  10.459  12.642 -0.0800  0.8831  0.0043
  560MOL0     C77172  11.280  10.349  12.587 -0.2756  1.2561  0.5793
  560MOL0     O77173  11.246  10.218  12.619 -0.0052 -0.0608  0.2703
  560MOL0     C77174  11.294  10.102  12.545 -0.4487  0.3044 -0.4121
  560MOL0     C77175  11.400  10.093  12.451 -0.3443  0.7210  0.9892
  560MOL0     C77176  11.426   9.976  12.392 -0.3319 -0.0258  0.5428
  560MOL0     C77177  11.353   9.859  12.420 -0.1887  0.8128  0.7278
  560MOL0     O77178  11.390   9.736  12.365  0.6509 -0.7718  0.0135
  560MOL0     C77179  11.430   9.726  12.222 -0.9378  0.1958  0.3730
  560MOL0     C77180  11.406   9.579  12.182  1.1547 -0.2124  1.1466
  560MOL0     C77181  11.257   9.548  12.177 -0.7327 -1.0630  0.6080
  560MOL0     C77182  11.239   9.400  12.143  0.7072  0.1007  0.7053
  560MOL0     C77183  11.091   9.366  12.146 -0.6902  0.1788  0.6721
  560MOL0     C77184  11.025   9.402  12.006  0.1141  0.0773 -0.9992
  560MOL0     C77185  10.881   9.346  12.011  0.1358  0.8573 -0.0160
  560MOL0     C77186  10.796   9.418  11.902 -0.5042  0.4158 -0.4082
  560MOL0    Cl77187  10.765   9.576  11.964  0.1714  0.3165  0.0556
  560MOL0     C77188  11.247   9.855  12.519 -0.6297 -0.0976 -0.4090
  560MOL0     C77189  11.217   9.988  12.579  0.2021  0.4924  0.1103
  560MOL0     O77190  11.371  10.379  12.503  0.0370 -0.4442  0.7783
  560MOL0     C77191  11.234  10.588  12.610  0.6027 -0.2214  0.7183
  560MOL0     C77192  11.160  10.704  12.649 -0.1605 -0.6440  0.1212
  560MOL0     N77193  10.775  10.858  12.281  0.5085  0.1182 -0.8083
  560MOL0     N77194  10.844  10.777  12.211  0.0438  1.2163 -0.0484
  560MOL0     C77195  11.171  10.041  11.780  0.3167  0.6101 -0.5348
  560MOL0     C77196  11.177  10.042  11.644  0.5318 -0.5725  0.4332
  560MOL0     C77197  11.132   9.919  11.212 -0.6594  0.7655  0.2614
  560MOL0     C77198  11.242   9.866  11.135 -0.7785 -0.1807  0.2577
  560MOL0     C77199  11.239   9.846  11.000 -0.1852 -0.2401  0.6358
  560MOL0     C77200  11.125   9.876  10.925 -0.5887  0.3909 -0.5082
  560MOL0     O77201  11.133   9.849  10.794  0.4176  0.5236 -0.2455
  560MOL0     C77202  11.014   9.863  10.707  0.2646 -0.3323  0.7783
  560MOL0     C77203  11.041   9.797  10.573 -0.3221  0.9508  0.0771
  560MOL0     C77204  11.168   9.860  10.507  0.3627  0.9159  0.3891
  560MOL0     C77205  11.168   9.784  10.369  0.6386 -0.0588  0.3581
  560MOL0     C77206  11.304   9.789  10.315 -0.3260 -0.4384 -1.1906
  560MOL0     C77207  11.412   9.798  10.256 -0.0461 -0.8782 -0.3787
  560MOL0     C77208  11.013   9.927  10.994 -0.4336  0.4273  0.8878
  560MOL0     C77209  11.011   9.939  11.139 -0.0771  0.5809  0.0859
  560MOL0     C77210  10.892   9.987  11.219 -0.2658  0.2999 -0.1035
  560MOL0     H77211  10.893   9.870  11.578 -3.4354  0.5440  2.4264
  560MOL0     H77212  10.876   9.861  11.812 -1.5027 -1.1448 -4.9572
  560MOL0     H77213  11.047   9.761  12.023 -1.6200 -3.5869  6.7887
  560MOL0     H77214  10.906   9.871  12.040  0.2936 -0.0228  0.2569
  560MOL0     H77215  11.004   9.781  12.262  2.1447 -0.2596  0.2172
  560MOL0     H77216  11.152   9.861  12.213  0.3348  0.9244 -1.6257
  560MOL0     H77217  10.885   9.993  12.250 -0.5384 -6.0849  0.6495
  560MOL0     H77218  10.996   9.974  12.384  0.5011  2.9245  0.2290
  560MOL0     H77219  11.165  10.132  12.300 -0.7671 -0.9457  0.7587
  560MOL0     H77220  11.078  10.149  12.151 -0.3000 -1.0780 -0.8546
  560MOL0     H77221  10.971  10.234  12.421 -0.5828 -0.6704 -0.5361
  560MOL0     H77222  10.880  10.232  12.280  0.0114  0.2103  0.0618
  560MOL0     H77223  11.147  10.382  12.308  0.3399 -2.6629 -0.4668
  560MOL0     H77224  11.049  10.371  12.161  0.2635 -5.0703  0.5775
  560MOL0     H77225  10.992  10.506  12.429 -0.3900  0.4243 -0.3005
  560MOL0     H77226  10.861  10.494  12.305 -0.4465  0.4075 -2.7185
  560MOL0     H77227  11.136  10.639  12.272  0.2000 -0.0918  2.0855
  560MOL0     H77228  11.036  10.622  12.134 -1.6425  1.4248 -0.5536
  560MOL0     H77229  11.028  10.803  12.482 -0.7029 -1.8118  0.0698
  560MOL0     H77230  10.721  11.039  12.472 -1.8722 -0.5993  1.2412
  560MOL0     H77231  10.854  11.000  12.582 -1.5236  3.1110 -0.4434
  560MOL0     H77232  10.643  10.961  12.677  2.2443 -0.4048  1.6136
  560MOL0     H77233  10.599  10.845  12.537 -1.7544  0.1502  2.7049
  560MOL0     H77234  10.666  10.704  12.747 -1.0807  0.7696  0.9561
  560MOL0     H77235  10.782  10.689  12.614 -2.7491 -0.9219  0.1226
  560MOL0     H77236  10.801  10.887  12.824 -0.9742 -0.3912 -0.8995
  560MOL0     H77237  10.835  10.727  12.868  2.2815 -0.4904  1.0490
  560MOL0     H77238  10.921  10.561  12.830  0.1945  2.1460 -0.0260
  560MOL0     H77239  11.095  10.283  12.863  0.5600 -2.9482 -2.1735
  560MOL0     H77240  10.977  10.261  12.723 -0.9541 -0.7275  1.1774
  560MOL0     H77241  10.935  10.361  12.851  1.3190 -1.3197  1.3476
  560MOL0     H77242  11.457  10.182  12.428 -0.7280  0.5982 -0.5875
  560MOL0     H77243  11.510   9.966  12.324  0.9535  3.3889  1.4219
  560MOL0     H77244  11.382   9.787  12.145 -1.2260 -3.2558 -2.4490
  560MOL0     H77245  11.537   9.748  12.222 -0.3348 -2.4202  0.8403
  560MOL0     H77246  11.450   9.547  12.087  0.0044  1.0369  0.1628
  560MOL0     H77247  11.450   9.514  12.258 -1.0839 -2.6421  0.4910
  560MOL0     H77248  11.208   9.600  12.094  0.7785 -1.6071 -0.6863
  560MOL0     H77249  11.211   9.579  12.271  1.3273 -0.9593  1.6400
  560MOL0     H77250  11.293   9.342  12.218  2.6017  1.2232  0.2975
  560MOL0     H77251  11.273   9.371  12.043 -1.0045 -1.0419  0.4230
  560MOL0     H77252  11.094   9.259  12.171  4.1068  0.4837  2.5618
  560MOL0     H77253  11.039   9.427  12.220  0.2988 -0.2675  1.7724
  560MOL0     H77254  11.085   9.361  11.924  0.2418 -1.0158 -0.3674
  560MOL0     H77255  11.026   9.511  11.990  0.6385 -0.0178 -1.6798
  560MOL0     H77256  10.847   9.360  12.114  3.3045  0.6742  1.1746
  560MOL0     H77257  10.884   9.238  11.994  2.1423  0.5467  1.8057
  560MOL0     H77258  10.707   9.355  11.891  0.3807 -1.5670  2.4397
  560MOL0     H77259  10.855   9.426  11.811 -2.1422 -0.1037 -1.5626
  560MOL0     H77260  11.201   9.768  12.565  0.0502  0.7091  1.9372
  560MOL0     H77261  11.137   9.995  12.652 -1.4515 -3.7345 -0.9635
  560MOL0     H77262  11.326  10.600  12.552  0.2715  0.5495  0.3424
  560MOL0     H77263  11.196  10.803  12.623  0.1765 -0.2563  1.9308
  560MOL0     H77264  11.249  10.073  11.849  0.4082 -0.8230  0.0693
  560MOL0     H77265  11.256  10.089  11.585  0.2088 -0.9563 -0.3214
  560MOL0     H77266  11.340   9.853  11.179 -0.1608 -1.0762 -1.3297
  560MOL0     H77267  11.324   9.803  10.948 -3.1449  0.0431 -5.2351
  560MOL0     H77268  10.931   9.807  10.750 -0.0656 -0.0931  0.4555
  560MOL0     H77269  10.983   9.964  10.680 -1.4035 -0.7487  1.0467
  560MOL0     H77270  10.947   9.795  10.517 -1.2094 -3.4091  1.3128
  560MOL0     H77271  11.064   9.691  10.587 -2.6488  0.2557 -0.8937
  560MOL0     H77272  11.156   9.968  10.490 -2.5363  0.7582  0.9167
  560MOL0     H77273  11.264   9.857  10.558  0.3898  3.6800  0.6617
  560MOL0     H77274  11.093   9.832  10.306 -0.8578 -2.2471  0.3387
  560MOL0     H77275  11.146   9.677  10.377  3.5814 -0.7031  1.0390
  560MOL0     H77276  11.506   9.802  10.205 -0.9251 -0.9234 -2.0786
  560MOL0     H77277  10.925   9.953  10.936 -0.7718 -1.7542  0.3048
  560MOL0     H77278  10.861   9.908  11.287 -1.1855 -0.0863 -0.9364
  560MOL0     H77279  10.914  10.079  11.274  0.1333 -0.1561  0.5104
  560MOL0     H77280  10.807   9.999  11.151 -0.5886 -1.9841 -0.1792
  561MOL0     O77281   0.076   2.686   1.308  0.2544  0.0132  0.1330
  561MOL0     C77282  -0.032   2.658   1.249  0.4067  0.6266 -0.5327
  561MOL0     O77283  -0.069   2.524   1.214 -0.0571 -0.3261 -0.1962
  561MOL0     C77284   0.016   2.429   1.250 -1.1671 -0.7674  0.1051
  561MOL0     C77285   0.125   2.392   1.161 -0.4493  0.1254  0.6236
  561MOL0     C77286   0.236   2.316   1.218 -0.1148 -0.3121 -0.0789
  561MOL0     C77287   0.231   2.262   1.347 -0.1039 -0.0145  0.5820
  561MOL0     O77288   0.328   2.192   1.417  0.0953  0.3183  0.3787
  561MOL0     C77289   0.460   2.176   1.359 -0.0173  0.7733  0.5616
  561MOL0     C77290   0.534   2.067   1.443 -0.5383  0.1480 -0.5452
  561MOL0     C77291   0.572   2.137   1.572  1.0565 -0.0090  0.7112
  561MOL0     C77292   0.618   2.032   1.677 -0.2573 -0.5434  0.2964
  561MOL0     C77293   0.508   1.954   1.758  0.3649  0.0284  0.2749
  561MOL0     C77294   0.484   2.013   1.900  0.6101  0.9959  0.6345
  561MOL0     C77295   0.405   1.909   1.981  0.1417 -0.1678  0.4378
  561MOL0     C77296   0.327   1.972   2.098  0.6723  0.1941 -0.7091
  561MOL0     N77297   0.192   1.916   2.120 -0.3412 -0.2885 -0.4861
  561MOL0     C77298   0.147   1.841   2.220  0.4417  0.9873  0.0784
  561MOL0     C77299   0.011   1.821   2.202 -0.7006  0.5239 -0.8690
  561MOL0     C77300  -0.075   1.730   2.287  0.3680  0.2951  0.0040
  561MOL0     C77301  -0.151   1.626   2.197 -0.6445  0.6480  0.1364
  561MOL0     C77302  -0.259   1.547   2.281 -0.4643 -0.5523 -0.2825
  561MOL0     C77303  -0.350   1.462   2.195 -0.4817 -0.1819 -0.8196
  561MOL0     O77304  -0.290   1.338   2.184 -0.1471  0.6267 -0.2014
  561MOL0     C77305  -0.358   1.230   2.126  0.0641 -0.5153 -0.8200
  561MOL0     C77306  -0.482   1.244   2.061  0.3649 -0.8559  0.5409
  561MOL0     C77307  -0.538   1.143   1.984  0.1506 -0.6277  0.2324
  561MOL0     C77308  -0.674   1.169   1.927  0.6573 -0.8331  0.7690
  561MOL0     C77309  -0.466   1.017   1.967 -1.0825  0.3227 -0.0230
  561MOL0     C77310  -0.522   0.894   1.901 -1.0284 -0.4702 -0.2306
  561MOL0     O77311  -0.428   0.808   1.849  0.1583  0.0725 -1.1158
  561MOL0     C77312  -0.453   0.711   1.759 -0.7084  1.1922  0.5609
  561MOL0     C77313  -0.354   0.616   1.750 -0.1028 -0.4226  0.9015
  561MOL0     C77314  -0.380   0.493   1.689 -0.0332 -0.8988 -0.1327
  561MOL0     C77315  -0.491   0.479   1.608 -0.7235  0.6063  0.4672
  561MOL0     O77316  -0.517   0.367   1.533  0.3902  0.5060  0.5286
  561MOL0     C77317  -0.434   0.248   1.532 -0.1087  0.1564 -0.3050
  561MOL0     C77318  -0.506   0.134   1.472 -0.1174 -0.1842 -0.6685
  561MOL0     C77319  -0.519   0.140   1.319  1.0383  0.5298 -0.5348
  561MOL0     C77320  -0.393   0.159   1.234 -0.1551  1.1915  0.3515
  561MOL0     C77321  -0.435   0.141   1.088  0.3704  0.4189  0.0405
  561MOL0     C77322  -0.310   0.099   1.002  0.1821 -0.0323  0.6627
  561MOL0     C77323  -0.348   0.075   0.861  1.5045 -0.3618  0.2666
  561MOL0     C77324  -0.241   0.028   0.760 -0.9428  0.3205  0.2985
  561MOL0    Cl77325  -0.300  -0.090   0.634  0.4272 -0.0214 -0.3554
  561MOL0     C77326  -0.586   0.576   1.601  0.4422  0.5090 -0.9676
  561MOL0     C77327  -0.567   0.691   1.669  0.6592 -0.5581 -0.6456
  561MOL0     O77328  -0.637   0.875   1.909 -0.1693 -0.2370  0.0319
  561MOL0     C77329  -0.337   1.007   2.027  0.3171 -0.3786  0.4689
  561MOL0     C77330  -0.283   1.110   2.110  0.6408 -0.2300 -0.4627
  561MOL0     N77331  -0.022   1.891   2.089 -0.6556  0.6784  0.2411
  561MOL0     N77332   0.080   1.943   2.036  0.1537 -0.3843 -0.1100
  561MOL0     C77333   0.123   2.293   1.423  0.0803  0.5590  0.7588
  561MOL0     C77334   0.019   2.377   1.382  0.3386  0.1678  0.0866
  561MOL0     C77335  -0.129   2.763   1.199 -0.6271  0.6012 -0.6717
  561MOL0     C77336  -0.239   2.730   1.124 -0.1897 -0.1071 -0.2117
  561MOL0     C77337  -0.340   2.819   1.102 -0.2596  0.3867  1.2237
  561MOL0     C77338  -0.334   2.956   1.127 -0.6250  0.2644 -0.2708
  561MOL0     O77339  -0.430   3.048   1.084  0.1624 -0.0610  0.7593
  561MOL0     C77340  -0.555   3.017   1.019  0.1562  0.9849  0.1927
  561MOL0     C77341  -0.557   3.010   0.861  0.3920 -0.5647  0.1725
  561MOL0     C77342  -0.481   3.121   0.797 -0.9300  0.1262  1.5079
  561MOL0     C77343  -0.545   3.148   0.658  0.9634 -0.8197  0.3272
  561MOL0     C77344  -0.698   3.179   0.656 -0.1371  0.2685 -0.3273
  561MOL0     C77345  -0.818   3.185   0.658 -0.1732 -0.2819 -0.5636
  561MOL0     C77346  -0.204   2.993   1.171  0.3124  0.9524  0.0195
  561MOL0     C77347  -0.104   2.902   1.217 -0.1423  0.0230 -0.3180
  561MOL0     C77348   0.013   2.972   1.293  0.1058 -0.0269  0.0001
  561MOL0     H77349   0.107   2.436   1.063 -3.5780 -2.6258 -0.2096
  561MOL0     H77350   0.319   2.308   1.149 -0.8554  1.1179 -1.1978
  561MOL0     H77351   0.514   2.271   1.356  1.1032  0.1517 -1.4437
  561MOL0     H77352   0.450   2.155   1.252  1.2413 -0.1521  0.6017
  561MOL0     H77353   0.458   1.993   1.471 -1.0765  1.8731  3.2251
  561MOL0     H77354   0.622   2.020   1.398 -1.3193 -2.4118  0.4316
  561MOL0     H77355   0.647   2.216   1.561  0.7675  0.8880  3.9891
  561MOL0     H77356   0.481   2.188   1.605  0.7074  2.5921 -3.5311
  561MOL0     H77357   0.671   1.952   1.623 -1.2309 -2.1358  1.6017
  561MOL0     H77358   0.696   2.076   1.740  1.5153  0.2298 -2.2548
  561MOL0     H77359   0.532   1.849   1.778 -2.0514 -0.2376  2.2659
  561MOL0     H77360   0.416   1.961   1.699 -0.7407 -1.6250  1.6918
  561MOL0     H77361   0.583   2.018   1.947  0.7940 -0.8456  0.5178
  561MOL0     H77362   0.439   2.111   1.888 -3.1847 -0.6128  0.4123
  561MOL0     H77363   0.479   1.834   2.012  1.0733  0.2336 -0.7263
  561MOL0     H77364   0.329   1.856   1.924  3.0665 -2.0603 -2.0528
  561MOL0     H77365   0.389   1.968   2.189 -0.9463  0.8860  0.4657
  561MOL0     H77366   0.309   2.077   2.076 -0.5356  0.2248  0.3296
  561MOL0     H77367   0.204   1.795   2.301  1.2097  1.2613 -0.2955
  561MOL0     H77368  -0.147   1.788   2.345 -2.2915 -0.8786 -1.9415
  561MOL0     H77369  -0.013   1.676   2.359  1.9959 -0.1103 -1.6140
  561MOL0     H77370  -0.196   1.666   2.106 -0.5960 -4.1347 -2.3092
  561MOL0     H77371  -0.078   1.556   2.155 -1.1696 -0.4205  0.9543
  561MOL0     H77372  -0.214   1.502   2.370 -3.1821 -2.8026  0.0927
  561MOL0     H77373  -0.325   1.628   2.311  1.0339  0.2172  1.0806
  561MOL0     H77374  -0.448   1.448   2.241 -3.1337  2.6039 -4.9428
  561MOL0     H77375  -0.362   1.513   2.099  2.0477  1.3221 -0.4427
  561MOL0     H77376  -0.544   1.332   2.076 -1.3485 -1.2798 -3.0333
  561MOL0     H77377  -0.701   1.105   1.842 -2.9022 -0.4055  1.3924
  561MOL0     H77378  -0.684   1.272   1.891  0.7466 -2.2066 -3.9501
  561MOL0     H77379  -0.756   1.139   1.992 -2.6782  1.0516 -2.1675
  561MOL0     H77380  -0.265   0.615   1.812  0.3798 -1.6842  0.2278
  561MOL0     H77381  -0.317   0.407   1.714  1.4113 -0.2704 -1.4636
  561MOL0     H77382  -0.337   0.266   1.484  0.0132 -0.5005 -0.3189
  561MOL0     H77383  -0.423   0.207   1.633 -1.0747  0.3160 -0.1329
  561MOL0     H77384  -0.454   0.044   1.505 -2.9706 -2.1042 -1.0260
  561MOL0     H77385  -0.609   0.136   1.510  0.4435 -1.8918  1.1151
  561MOL0     H77386  -0.604   0.204   1.292  0.2189 -0.9057 -1.5197
  561MOL0     H77387  -0.557   0.039   1.298 -2.1256  0.9801  2.2795
  561MOL0     H77388  -0.317   0.086   1.266 -0.2794  1.4058  1.1676
  561MOL0     H77389  -0.348   0.258   1.237 -2.3749  2.2744 -0.3587
  561MOL0     H77390  -0.502   0.056   1.076  0.6132  0.5426 -3.1326
  561MOL0     H77391  -0.481   0.234   1.054 -1.7526 -0.2329  0.9466
  561MOL0     H77392  -0.267   0.010   1.049 -1.2966  0.2738  2.7241
  561MOL0     H77393  -0.242   0.184   1.002 -0.8157  0.7760  1.1849
  561MOL0     H77394  -0.394   0.171   0.838 -0.2575 -0.9282  1.2162
  561MOL0     H77395  -0.412  -0.014   0.854  0.7410  0.2913 -2.9530
  561MOL0     H77396  -0.164  -0.024   0.818  0.6674  2.2309 -0.0042
  561MOL0     H77397  -0.193   0.112   0.708 -1.4015  0.5655  0.2718
  561MOL0     H77398  -0.662   0.571   1.524 -1.4825  1.2660  0.8077
  561MOL0     H77399  -0.640   0.771   1.662  1.4066  0.1025 -0.9953
  561MOL0     H77400  -0.283   0.915   2.011 -1.0446 -0.5825 -4.4827
  561MOL0     H77401  -0.186   1.108   2.159 -0.1022  0.5617  1.1289
  561MOL0     H77402   0.130   2.266   1.528 -0.5977  0.9346  0.9012
  561MOL0     H77403  -0.060   2.403   1.452  1.6027 -0.5301  1.8239
  561MOL0     H77404  -0.255   2.626   1.097  0.2851 -1.1666  3.1989
  561MOL0     H77405  -0.429   2.774   1.060  1.5379 -1.5756 -0.7500
  561MOL0     H77406  -0.582   2.919   1.059  0.6126  2.0152  3.2421
  561MOL0     H77407  -0.628   3.095   1.044 -1.6251 -0.1484 -1.1580
  561MOL0     H77408  -0.659   3.008   0.824  1.3152  1.5731 -2.8594
  561MOL0     H77409  -0.505   2.925   0.817  2.3738  2.0621 -2.9884
  561MOL0     H77410  -0.482   3.208   0.863 -2.4033 -0.8003  2.7860
  561MOL0     H77411  -0.377   3.093   0.779 -0.0703  3.9638 -0.3716
  561MOL0     H77412  -0.521   3.074   0.582 -3.4733 -0.9228 -1.2613
  561MOL0     H77413  -0.511   3.249   0.630 -0.3252 -0.4132  0.1725
  561MOL0     H77414  -0.924   3.191   0.645  0.0706  3.1538 -1.7188
  561MOL0     H77415  -0.208   3.098   1.199 -2.2145  0.5308  1.5817
  561MOL0     H77416   0.026   3.072   1.252 -0.5770  0.7654  1.6180
  561MOL0     H77417   0.002   2.967   1.402 -1.9743 -2.3892 -0.2249
  561MOL0     H77418   0.111   2.928   1.274 -0.7817 -2.4756  0.6855
  562MOL0     O77419   3.169  11.077   4.552 -0.4224 -0.6662  0.7091
  562MOL0     C77420   3.201  10.961   4.521  0.3495 -0.2263  0.1702
  562MOL0     O77421   3.240  10.859   4.606  0.5250 -0.3858  0.1883
  562MOL0     C77422   3.233  10.878   4.744  0.3891 -0.1551  0.3925
  562MOL0     C77423   3.173  10.788   4.826 -0.7975 -0.7295  0.1795
  562MOL0     C77424   3.170  10.814   4.967 -0.1690  0.1356  0.9670
  562MOL0     C77425   3.216  10.929   5.026  0.0632  0.2238  0.1264
  562MOL0     O77426   3.195  10.956   5.157  0.7692 -0.3990  0.0412
  562MOL0     C77427   3.278  11.044   5.226 -0.0456 -0.3367 -0.1179
  562MOL0     C77428   3.245  11.051   5.376 -0.2943  0.2839  0.3325
  562MOL0     C77429   3.114  11.112   5.422 -0.1441 -0.2933 -1.0395
  562MOL0     C77430   3.093  11.256   5.387 -0.5536 -0.5874  0.5309
  562MOL0     C77431   2.963  11.308   5.447  0.1241  1.0084 -1.3015
  562MOL0     C77432   2.921  11.453   5.402  0.1810  0.7050 -0.8096
  562MOL0     C77433   2.767  11.458   5.447 -0.8752 -0.6241 -0.4419
  562MOL0     C77434   2.720  11.605   5.455 -0.0811 -0.2507 -0.0091
  562MOL0     N77435   2.728  11.678   5.322  0.1461  0.4584  0.8755
  562MOL0     C77436   2.659  11.646   5.206  0.4120 -0.3201 -0.0513
  562MOL0     C77437   2.718  11.722   5.110 -0.1585 -0.8146 -0.1663
  562MOL0     C77438   2.686  11.734   4.960  0.8944 -0.4743  0.1766
  562MOL0     C77439   2.781  11.660   4.866  0.2090 -0.0440  0.2321
  562MOL0     C77440   2.745  11.689   4.725 -0.0342 -0.0581  0.0490
  562MOL0     C77441   2.751  11.825   4.672 -0.3295 -0.1086 -0.1298
  562MOL0     O77442   2.687  11.823   4.541  0.3155  0.5324  0.6873
  562MOL0     C77443   2.713  11.908   4.437  0.0443 -0.7912  0.1220
  562MOL0     C77444   2.666  11.869   4.311 -0.2337  0.1472 -0.5457
  562MOL0     C77445   2.718  11.955   4.206 -0.4912  1.1155  0.0001
  562MOL0     C77446   2.677  11.906   4.073  0.0396  0.5548 -0.0047
  562MOL0     C77447   2.797  12.076   4.224  0.3602  0.1849  0.2926
  562MOL0     C77448   2.848  12.168   4.121 -0.4783 -0.8379  0.2933
  562MOL0     O77449   2.937  12.262   4.170  0.6954  0.0900  0.3034
  562MOL0     C77450   2.966  12.369   4.083  0.5448 -0.5246  0.4185
  562MOL0     C77451   2.896  12.499   4.100 -0.9354  0.2391 -0.4255
  562MOL0     C77452   2.920  12.608   4.015 -0.2965 -0.3335  0.6877
  562MOL0     C77453   3.032  12.605   3.928  1.2071 -0.1053  0.2105
  562MOL0     O77454   3.041  12.719   3.842  0.3464 -0.2080  0.9133
  562MOL0     C77455   3.110  12.697   3.710 -1.0401 -0.0710  0.2451
  562MOL0     C77456   3.018  12.605   3.628  0.7206  0.7338  0.5138
  562MOL0     C77457   3.082  12.564   3.497 -0.3395 -0.0422  0.1891
  562MOL0     C77458   3.123  12.683   3.399  0.7510  0.3347  0.6528
  562MOL0     C77459   3.265  12.730   3.418 -0.2375  0.8727 -0.0967
  562MOL0     C77460   3.323  12.831   3.311 -0.9132 -1.1132  0.3139
  562MOL0     C77461   3.240  12.958   3.289 -0.3024  1.2585 -0.5391
  562MOL0     C77462   3.308  13.060   3.198 -0.0536  0.1679  0.1386
  562MOL0    Cl77463   3.325  12.988   3.024  0.2756 -0.0836 -0.0288
  562MOL0     C77464   3.105  12.478   3.927  0.0519  0.4125 -0.0134
  562MOL0     C77465   3.069  12.360   3.997 -0.1982  0.8646  0.2714
  562MOL0     O77466   2.815  12.162   4.002  0.4911 -0.6690  0.1535
  562MOL0     C77467   2.818  12.115   4.358 -0.0044  0.0800 -0.5126
  562MOL0     C77468   2.779  12.025   4.460 -0.2780  0.8425 -1.1805
  562MOL0     N77469   2.817  11.803   5.176 -0.0153  0.6384  0.0524
  562MOL0     N77470   2.822  11.775   5.299  0.3091 -0.2791  0.5031
  562MOL0     C77471   3.277  11.019   4.937 -0.4326  0.1420 -0.5732
  562MOL0     C77472   3.279  10.994   4.802 -0.2822  0.2532  1.5613
  562MOL0     C77473   3.178  10.926   4.379  0.2236 -1.1462 -0.4493
  562MOL0     C77474   3.045  10.927   4.325 -0.5251 -0.7011  0.1105
  562MOL0     C77475   3.023  10.905   4.192  0.9086  0.5137  0.4583
  562MOL0     C77476   3.133  10.889   4.111  0.0304  0.3037  0.3690
  562MOL0     O77477   3.106  10.881   3.977 -0.2428  0.9271 -0.3163
  562MOL0     C77478   3.109  10.747   3.927 -0.3174  0.6907  0.0830
  562MOL0     C77479   3.053  10.762   3.783  0.4706 -0.0330  0.1767
  562MOL0     C77480   2.905  10.775   3.772 -0.8725  0.5374  0.4484
  562MOL0     C77481   2.880  10.793   3.616 -0.1290  0.7570  0.6011
  562MOL0     C77482   2.738  10.832   3.588 -0.7435 -0.6439 -0.6723
  562MOL0     C77483   2.628  10.870   3.571 -0.1888  1.2278  0.4373
  562MOL0     C77484   3.263  10.873   4.152 -0.6728  0.1148 -1.9845
  562MOL0     C77485   3.287  10.896   4.296 -0.1144 -0.5082  0.7004
  562MOL0     C77486   3.433  10.885   4.339  0.2527 -0.0046 -0.3525
  562MOL0     H77487   3.142  10.693   4.784 -0.7841 -0.1767 -1.1147
  562MOL0     H77488   3.131  10.734   5.029  0.0139 -0.1878  0.6679
  562MOL0     H77489   3.263  11.144   5.183 -0.4163  0.2081  1.2384
  562MOL0     H77490   3.384  11.027   5.206  0.0895  0.8191 -0.4492
  562MOL0     H77491   3.255  10.954   5.426  1.9891  0.9707  1.3404
  562MOL0     H77492   3.325  11.110   5.421 -0.0559  2.8936 -3.0799
  562MOL0     H77493   3.034  11.041   5.399 -1.3889 -0.4203  2.9958
  562MOL0     H77494   3.114  11.115   5.531 -0.7567 -0.2932 -1.0335
  562MOL0     H77495   3.179  11.320   5.407  0.0879 -0.6918 -1.5891
  562MOL0     H77496   3.089  11.256   5.277 -1.4980 -2.3441  0.5283
  562MOL0     H77497   2.953  11.312   5.556 -1.1754 -1.7567 -1.2460
  562MOL0     H77498   2.876  11.248   5.420 -0.4316  1.4591 -0.5402
  562MOL0     H77499   2.986  11.532   5.441  1.8110 -0.0196 -1.9659
  562MOL0     H77500   2.919  11.465   5.293 -0.3544  0.4530 -0.8304
  562MOL0     H77501   2.753  11.428   5.552 -2.9509  1.3430 -0.0971
  562MOL0     H77502   2.701  11.405   5.378 -1.7560  0.8396 -0.7574
  562MOL0     H77503   2.619  11.614   5.495  0.4695 -1.0653  1.6998
  562MOL0     H77504   2.770  11.673   5.525 -2.0325 -1.0722  2.3149
  562MOL0     H77505   2.584  11.570   5.185 -1.0068  0.8062  0.7756
  562MOL0     H77506   2.679  11.840   4.933  1.7481 -0.9864 -2.2306
  562MOL0     H77507   2.582  11.703   4.949 -0.0131  2.2866  0.1810
  562MOL0     H77508   2.883  11.699   4.871 -0.2987  1.5023 -0.7363
  562MOL0     H77509   2.777  11.553   4.888  0.3570 -0.2246 -0.6046
  562MOL0     H77510   2.812  11.634   4.658  2.0784  1.0578  1.1197
  562MOL0     H77511   2.642  11.657   4.711 -0.2244  1.2500 -2.0570
  562MOL0     H77512   2.694  11.895   4.734  1.0890  0.1569  0.9348
  562MOL0     H77513   2.855  11.861   4.667 -1.0753  2.1993 -0.1112
  562MOL0     H77514   2.610  11.776   4.301 -1.1825  0.9148 -3.1845
  562MOL0     H77515   2.605  11.982   4.039  1.5926  1.2632 -1.8895
  562MOL0     H77516   2.619  11.813   4.074  2.2613 -0.9039 -0.5178
  562MOL0     H77517   2.757  11.899   3.999  0.8169 -3.5474  0.9620
  562MOL0     H77518   2.834  12.515   4.188  1.8972  0.2202  1.7286
  562MOL0     H77519   2.875  12.707   4.017  3.0409  1.4307 -1.0814
  562MOL0     H77520   3.129  12.793   3.662  0.3074 -2.1217 -3.7473
  562MOL0     H77521   3.204  12.643   3.714 -0.9092  0.0803 -0.5283
  562MOL0     H77522   2.993  12.515   3.684 -2.1576 -1.3171 -3.5148
  562MOL0     H77523   2.926  12.657   3.601  0.3328 -0.7556 -1.2873
  562MOL0     H77524   3.010  12.504   3.441 -1.8821  2.4924 -0.7024
  562MOL0     H77525   3.171  12.502   3.514 -0.8475 -0.5040  1.3181
  562MOL0     H77526   3.045  12.757   3.416 -1.9396 -1.4562 -2.5141
  562MOL0     H77527   3.121  12.652   3.294  1.1242  0.5677  0.5749
  562MOL0     H77528   3.269  12.786   3.512 -1.3538  3.3861 -1.4328
  562MOL0     H77529   3.325  12.639   3.414  0.1247  1.0251  1.4705
  562MOL0     H77530   3.339  12.769   3.222  0.1016 -0.6647  0.1705
  562MOL0     H77531   3.425  12.863   3.333 -1.7080  1.6355  0.3662
  562MOL0     H77532   3.224  13.008   3.385 -3.5728 -0.9510  0.2328
  562MOL0     H77533   3.147  12.936   3.236 -0.8225  2.3635 -0.1345
  562MOL0     H77534   3.410  13.075   3.236  0.0563 -1.6120  0.6361
  562MOL0     H77535   3.259  13.157   3.192  1.2006  0.9463  1.7664
  562MOL0     H77536   3.184  12.475   3.852  2.3010  3.5991  1.9755
  562MOL0     H77537   3.113  12.260   3.996 -0.7959  0.4618 -4.2293
  562MOL0     H77538   2.869  12.202   4.399 -0.4205 -0.7200  1.9104
  562MOL0     H77539   2.802  12.057   4.562  1.5985  3.3161 -2.2610
  562MOL0     H77540   3.335  11.103   4.974  1.1434 -2.0534  2.3481
  562MOL0     H77541   3.337  11.057   4.736  0.8547  0.3086  2.5735
  562MOL0     H77542   2.963  10.946   4.393  0.9693  2.1948  1.2720
  562MOL0     H77543   2.921  10.899   4.156  0.1116  0.5411  2.5327
  562MOL0     H77544   3.211  10.709   3.925 -0.6686 -0.2554 -0.6626
  562MOL0     H77545   3.062  10.677   3.998  0.1401 -0.0956 -0.3797
  562MOL0     H77546   3.079  10.671   3.728  0.6749 -0.9646  1.7475
  562MOL0     H77547   3.106  10.840   3.728  1.6925 -2.3500 -2.1605
  562MOL0     H77548   2.854  10.685   3.807  0.2018  0.5301  2.0636
  562MOL0     H77549   2.855  10.860   3.819 -2.0290  1.3359 -2.0179
  562MOL0     H77550   2.897  10.692   3.579  1.8198  1.3231 -0.1581
  562MOL0     H77551   2.946  10.864   3.566  0.5192 -1.4904 -1.9603
  562MOL0     H77552   2.529  10.882   3.531 -0.9673  1.0320  2.2084
  562MOL0     H77553   3.354  10.853   4.097 -0.1706  0.0133 -1.1402
  562MOL0     H77554   3.455  10.827   4.429  2.0274 -1.9149 -1.8858
  562MOL0     H77555   3.482  10.815   4.269  2.8171  1.7227 -0.4309
  562MOL0     H77556   3.477  10.984   4.348 -3.5475  1.7644  0.5845
  563MOL0     O77557   8.473  11.416   8.323 -0.2030  0.0346 -0.1397
  563MOL0     C77558   8.460  11.295   8.322  1.2420  1.0878  0.1695
  563MOL0     O77559   8.561  11.211   8.290 -0.1003 -0.3752 -0.9428
  563MOL0     C77560   8.674  11.274   8.256  0.4507  0.1470 -0.5101
  563MOL0     C77561   8.790  11.225   8.314 -0.3384 -0.3120  0.7566
  563MOL0     C77562   8.917  11.296   8.288 -0.0041 -0.1287 -0.3105
  563MOL0     C77563   8.923  11.396   8.184  0.3677  0.3365  0.4915
  563MOL0     O77564   9.043  11.449   8.133  0.1828 -0.6153 -0.3451
  563MOL0     C77565   9.173  11.397   8.176 -0.2034 -0.0900 -0.0231
  563MOL0     C77566   9.246  11.470   8.286  0.0218 -0.7822  0.1134
  563MOL0     C77567   9.273  11.619   8.243 -0.4790  0.8952 -0.0952
  563MOL0     C77568   9.347  11.689   8.357  0.6159  0.5198  0.7374
  563MOL0     C77569   9.317  11.837   8.351 -0.1783  0.3680  0.9331
  563MOL0     C77570   9.164  11.869   8.324 -0.2104 -0.1297 -0.0822
  563MOL0     C77571   9.128  12.005   8.379 -0.3994  0.0492 -1.5498
  563MOL0     C77572   9.208  12.117   8.308 -0.1826  0.1334 -0.1541
  563MOL0     N77573   9.179  12.250   8.352  0.3027  0.5830 -0.6262
  563MOL0     C77574   9.126  12.345   8.275 -0.4960  0.6277  0.2838
  563MOL0     C77575   9.132  12.457   8.345  0.5704 -0.5626 -0.3466
  563MOL0     C77576   9.093  12.600   8.310  1.1209 -0.2578 -0.5555
  563MOL0     C77577   8.988  12.669   8.405  0.5588  1.5870 -0.2880
  563MOL0     C77578   8.984  12.818   8.376 -0.0301  0.8356  0.3973
  563MOL0     C77579   8.894  12.849   8.251 -0.0311  0.1507  0.3039
  563MOL0     O77580   8.760  12.791   8.275  0.0934 -1.0233 -0.5360
  563MOL0     C77581   8.648  12.861   8.228  0.0819 -0.5016 -0.4395
  563MOL0     C77582   8.531  12.824   8.285  0.0467  0.5458 -0.8539
  563MOL0     C77583   8.412  12.863   8.234  0.2484 -0.1912 -0.1490
  563MOL0     C77584   8.291  12.797   8.286  0.3986  0.3306  0.1478
  563MOL0     C77585   8.407  12.972   8.145  0.5653  0.3613 -0.5584
  563MOL0     C77586   8.283  13.032   8.092 -0.4463  0.4357  0.2432
  563MOL0     O77587   8.302  13.135   8.000 -0.7065  0.6690 -0.7205
  563MOL0     C77588   8.213  13.157   7.903  0.0513  0.4147 -0.2516
  563MOL0     C77589   8.104  13.078   7.859  0.5569 -0.3186  0.3069
  563MOL0     C77590   8.028  13.110   7.740 -0.0073  0.1618  0.2640
  563MOL0     C77591   8.054  13.228   7.671 -0.1809 -0.1003 -0.4609
  563MOL0     O77592   7.971  13.254   7.562 -0.4322  0.1295 -0.3712
  563MOL0     C77593   7.904  13.384   7.573 -0.3681 -0.3729 -0.5779
  563MOL0     C77594   7.846  13.419   7.445  0.4492 -0.2515  0.1628
  563MOL0     C77595   7.956  13.433   7.334  0.1580 -0.1677  0.3204
  563MOL0     C77596   7.948  13.576   7.278  0.2797 -0.0330 -0.2695
  563MOL0     C77597   8.055  13.598   7.164  0.6038  0.6813  0.3156
  563MOL0     C77598   8.052  13.738   7.108  0.4575 -0.0387 -0.0720
  563MOL0     C77599   8.118  13.755   6.974 -0.1408 -1.2303 -0.4141
  563MOL0     C77600   8.107  13.896   6.906  0.6056 -0.4714 -0.2267
  563MOL0    Cl77601   8.210  14.012   6.978 -0.0423  0.1647  0.1202
  563MOL0     C77602   8.156  13.317   7.720 -0.3999  0.0495 -0.2115
  563MOL0     C77603   8.239  13.277   7.834 -0.0467 -0.2974  0.1257
  563MOL0     O77604   8.171  13.005   8.146 -0.1362  0.4846  0.6263
  563MOL0     C77605   8.523  13.022   8.091 -0.6328 -0.1243  0.7695
  563MOL0     C77606   8.641  12.955   8.129  0.3300 -0.1199 -0.0668
  563MOL0     N77607   9.167  12.421   8.469 -0.5845 -0.1592 -0.1154
  563MOL0     N77608   9.193  12.300   8.473  0.1665  1.2154  0.2147
  563MOL0     C77609   8.802  11.429   8.109 -0.4202  0.6826 -0.5158
  563MOL0     C77610   8.682  11.384   8.159  0.4294 -0.0000  0.2279
  563MOL0     C77611   8.326  11.232   8.337  0.0284  0.2940 -0.3401
  563MOL0     C77612   8.302  11.100   8.288  0.0014  0.4938  0.9737
  563MOL0     C77613   8.178  11.048   8.294 -1.0723 -0.5067  1.4343
  563MOL0     C77614   8.066  11.112   8.344  0.4606  0.8890 -1.1914
  563MOL0     O77615   7.943  11.051   8.322  0.2816  0.2230  0.0316
  563MOL0     C77616   7.817  11.119   8.342  0.5143  0.8646  0.6195
  563MOL0     C77617   7.794  11.233   8.244 -0.2698  0.4600 -0.5019
  563MOL0     C77618   7.646  11.273   8.275 -0.2485  0.2736 -0.6234
  563MOL0     C77619   7.581  11.391   8.203 -0.5685  0.5346  0.1697
  563MOL0     C77620   7.439  11.379   8.171 -0.6534  0.8722 -0.2377
  563MOL0     C77621   7.320  11.378   8.140 -0.1101  0.9076 -0.3128
  563MOL0     C77622   8.083  11.238   8.400  0.5235  0.2781 -0.5558
  563MOL0     C77623   8.217  11.295   8.403 -0.4186  0.0628  0.0207
  563MOL0     C77624   8.217  11.429   8.476 -0.0381 -0.5209  1.1113
  563MOL0     H77625   8.790  11.164   8.404 -1.0781 -3.5504 -1.2891
  563MOL0     H77626   9.001  11.271   8.352  0.5543  2.0807 -0.0918
  563MOL0     H77627   9.234  11.393   8.085  0.1580 -0.8666  0.2446
  563MOL0     H77628   9.172  11.298   8.222  1.7455  1.8727  4.9033
  563MOL0     H77629   9.182  11.474   8.374 -1.1481 -1.5030 -0.6650
  563MOL0     H77630   9.335  11.420   8.325  1.4373  2.9786  2.1432
  563MOL0     H77631   9.327  11.632   8.149 -0.0130 -0.4392 -0.0395
  563MOL0     H77632   9.172  11.656   8.222 -1.2807 -0.6580  0.8544
  563MOL0     H77633   9.324  11.644   8.454 -0.5206  1.8123  1.0965
  563MOL0     H77634   9.454  11.675   8.339  0.3154 -0.9589  0.0039
  563MOL0     H77635   9.384  11.887   8.281  5.3146 -0.4968  4.9311
  563MOL0     H77636   9.350  11.872   8.450 -0.4712  1.1770  0.7554
  563MOL0     H77637   9.125  11.863   8.222 -2.6509  1.5619  0.6601
  563MOL0     H77638   9.113  11.794   8.385  1.0220 -0.8614  0.0899
  563MOL0     H77639   9.163  12.009   8.482  1.7742  0.8630 -2.2459
  563MOL0     H77640   9.019  12.011   8.374 -0.4828  0.9994  0.6694
  563MOL0     H77641   9.312  12.094   8.335  0.0264  0.6496 -0.5039
  563MOL0     H77642   9.185  12.106   8.202 -1.1576 -0.4258  0.1063
  563MOL0     H77643   9.090  12.341   8.173 -1.7573 -0.0672  0.7402
  563MOL0     H77644   9.047  12.598   8.211 -1.4087  0.1292  0.5341
  563MOL0     H77645   9.188  12.656   8.313  2.5467 -2.5094 -1.2258
  563MOL0     H77646   8.895  12.617   8.381  2.0271 -1.3718 -0.0293
  563MOL0     H77647   9.001  12.651   8.512  2.4518  1.6619 -0.4655
  563MOL0     H77648   8.937  12.869   8.461 -0.1776  2.5126 -0.6379
  563MOL0     H77649   9.084  12.860   8.364  0.0201  1.3399  2.2592
  563MOL0     H77650   8.903  12.958   8.251 -1.3925  0.2897  0.2031
  563MOL0     H77651   8.933  12.808   8.158 -2.4127 -0.9121 -0.3067
  563MOL0     H77652   8.536  12.746   8.360  0.5517  1.7320  0.3841
  563MOL0     H77653   8.241  12.870   8.350 -0.8454  1.0543 -1.5806
  563MOL0     H77654   8.318  12.708   8.344  1.1093 -1.8415 -3.2602
  563MOL0     H77655   8.228  12.769   8.201  0.3988  0.2872  0.1627
  563MOL0     H77656   8.082  12.983   7.908 -0.3140 -0.5997 -0.5932
  563MOL0     H77657   7.960  13.038   7.696 -1.3459  1.8149 -0.4971
  563MOL0     H77658   7.823  13.370   7.645 -0.2669 -1.9832 -0.7324
  563MOL0     H77659   7.968  13.467   7.605 -0.9959  0.5535 -1.6658
  563MOL0     H77660   7.774  13.339   7.431 -1.4660  1.6393 -1.3070
  563MOL0     H77661   7.796  13.516   7.451  2.9613  1.0895  0.8991
  563MOL0     H77662   7.950  13.365   7.249 -1.4199  0.5316 -0.1710
  563MOL0     H77663   8.055  13.420   7.378  1.7334  0.1744 -2.8675
  563MOL0     H77664   7.961  13.647   7.360  3.0071 -0.8962  0.1589
  563MOL0     H77665   7.852  13.590   7.226  0.3498  1.8490  0.0482
  563MOL0     H77666   8.159  13.571   7.187  1.5394  0.9551 -3.0532
  563MOL0     H77667   8.009  13.537   7.085 -0.2813  1.3538  0.2945
  563MOL0     H77668   8.103  13.793   7.188 -1.6743 -0.4444  1.6554
  563MOL0     H77669   7.947  13.761   7.090  0.5165 -1.1494 -2.2386
  563MOL0     H77670   8.082  13.683   6.900  4.2486 -2.1258 -1.9613
  563MOL0     H77671   8.226  13.741   6.984 -0.0918  0.3479  2.4635
  563MOL0     H77672   8.001  13.926   6.907  0.1439 -1.6648  3.4036
  563MOL0     H77673   8.138  13.891   6.802  1.1242 -0.7751 -0.0617
  563MOL0     H77674   8.170  13.402   7.654  2.9630  0.2453  0.6041
  563MOL0     H77675   8.317  13.341   7.874 -0.0244 -1.0623  1.3359
  563MOL0     H77676   8.529  13.100   8.017 -0.6914 -1.3283 -0.5519
  563MOL0     H77677   8.737  12.987   8.090  0.1594  1.5410  0.8085
  563MOL0     H77678   8.815  11.505   8.032 -0.9721  0.0395 -1.2558
  563MOL0     H77679   8.592  11.425   8.116  1.9139  1.4679 -1.6248
  563MOL0     H77680   8.393  11.052   8.251  1.7663  3.0027  1.8041
  563MOL0     H77681   8.162  10.952   8.246 -1.2725  0.4798 -0.5819
  563MOL0     H77682   7.738  11.046   8.323  1.2203  0.5496 -1.3816
  563MOL0     H77683   7.804  11.155   8.444  0.0077 -1.1255  1.3030
  563MOL0     H77684   7.800  11.191   8.143 -0.3501  1.1901 -0.8090
  563MOL0     H77685   7.859  11.319   8.262 -0.2187  0.2177  0.5818
  563MOL0     H77686   7.592  11.183   8.244 -1.8045  0.4827  1.2705
  563MOL0     H77687   7.644  11.294   8.382  3.1976  2.6880 -0.8510
  563MOL0     H77688   7.643  11.415   8.116 -0.1474  2.3513  0.9126
  563MOL0     H77689   7.595  11.473   8.275 -0.5036 -0.4602  1.3116
  563MOL0     H77690   7.214  11.390   8.124 -0.9435 -0.7591  2.9846
  563MOL0     H77691   7.994  11.290   8.434 -0.6015 -2.6983  1.4854
  563MOL0     H77692   8.137  11.454   8.546  0.4031  2.6856  0.6077
  563MOL0     H77693   8.312  11.439   8.529 -0.3873 -1.9958  2.0592
  563MOL0     H77694   8.211  11.503   8.395  1.7280  0.3101  1.6898
  564MOL0     O77695  11.333   0.528   8.174  0.4402  0.7137  0.1987
  564MOL0     C77696  11.245   0.579   8.112 -0.6962  0.2281 -0.3750
  564MOL0     O77697  11.201   0.704   8.138  0.4732  0.2447  0.0163
  564MOL0     C77698  11.231   0.775   8.247 -0.1904 -1.2389  0.0302
  564MOL0     C77699  11.267   0.905   8.229  0.1510 -0.7488 -0.4228
  564MOL0     C77700  11.286   0.995   8.330  1.7760 -0.6492 -0.2137
  564MOL0     C77701  11.277   0.946   8.466  0.7906 -0.3603  0.6256
  564MOL0     O77702  11.316   1.012   8.571  0.0043 -0.1215 -0.1636
  564MOL0     C77703  11.301   1.159   8.573  0.2525  0.5277 -0.4564
  564MOL0     C77704  11.328   1.215   8.721 -0.3571  0.6361  0.9704
  564MOL0     C77705  11.226   1.160   8.837 -0.7478 -0.1499 -0.1256
  564MOL0     C77706  11.082   1.204   8.804  0.1355 -0.2562  0.1425
  564MOL0     C77707  10.978   1.235   8.916 -0.5913  0.2608  0.2739
  564MOL0     C77708  10.938   1.093   8.973 -1.0342  0.5154  0.5660
  564MOL0     C77709  10.844   1.097   9.089  0.9929  0.5105  0.1027
  564MOL0     C77710  10.817   0.961   9.140 -0.8430 -0.1518  0.6805
  564MOL0     N77711  10.750   0.972   9.269  0.2428  0.2789  1.1647
  564MOL0     C77712  10.623   1.018   9.288 -0.2948 -0.4236 -0.1555
  564MOL0     C77713  10.594   1.020   9.420 -1.1599 -0.3629  0.8097
  564MOL0     C77714  10.462   1.056   9.479  0.0796  0.1239 -0.0241
  564MOL0     C77715  10.485   1.149   9.597  0.1811  0.5073 -0.4231
  564MOL0     C77716  10.361   1.237   9.622 -0.2024  0.4852 -0.4444
  564MOL0     C77717  10.245   1.152   9.675  0.4780 -0.3050 -1.4804
  564MOL0     O77718  10.264   1.088   9.800  0.5627  0.7887 -0.1325
  564MOL0     C77719  10.318   1.164   9.903  0.3880 -0.2024 -1.0427
  564MOL0     C77720  10.263   1.282   9.943  0.3702 -0.8311  0.3907
  564MOL0     C77721  10.310   1.349  10.059  0.4104  0.8307  0.9984
  564MOL0     C77722  10.242   1.477  10.078  0.3279 -0.2694  0.3492
  564MOL0     C77723  10.419   1.300  10.134 -0.0135  1.0304 -0.0474
  564MOL0     C77724  10.491   1.373  10.245 -0.0497  0.6563 -0.7750
  564MOL0     O77725  10.629   1.356  10.253 -0.0392  0.0930  0.9912
  564MOL0     C77726  10.698   1.427  10.350  0.2070  0.3552  0.0052
  564MOL0     C77727  10.740   1.560  10.348  0.2221 -0.3234  0.5626
  564MOL0     C77728  10.813   1.617  10.452 -0.1128  0.0198 -0.2946
  564MOL0     C77729  10.855   1.542  10.560  0.2086 -0.1373  0.0825
  564MOL0     O77730  10.943   1.601  10.648 -0.1358 -0.8154 -0.1347
  564MOL0     C77731  11.045   1.514  10.690 -0.6745  0.4745  0.4900
  564MOL0     C77732  11.164   1.611  10.747  0.4562 -0.3178  0.0323
  564MOL0     C77733  11.262   1.668  10.644  0.3382  0.3406 -0.0672
  564MOL0     C77734  11.206   1.729  10.516 -0.3062  0.2962 -0.4362
  564MOL0     C77735  11.322   1.796  10.450  0.6851 -0.2708  0.9450
  564MOL0     C77736  11.275   1.879  10.332 -0.8880  0.2836  0.2221
  564MOL0     C77737  11.396   1.961  10.277  0.0962  0.1945 -0.1257
  564MOL0     C77738  11.384   2.023  10.139  0.0406 -0.7768 -0.2856
  564MOL0    Cl77739  11.266   2.148  10.151  0.0955 -0.1176 -0.1298
  564MOL0     C77740  10.808   1.415  10.574  0.7448  0.6579  0.4834
  564MOL0     C77741  10.720   1.360  10.474  0.3856 -0.2321 -0.3636
  564MOL0     O77742  10.428   1.450  10.323  1.0177 -0.0555 -0.2614
  564MOL0     C77743  10.461   1.170  10.094  0.4124  0.0747  0.8697
  564MOL0     C77744  10.415   1.113   9.981 -0.4608 -0.3219  0.6558
  564MOL0     N77745  10.714   0.966   9.475  0.1585  0.1316  0.1199
  564MOL0     N77746  10.797   0.933   9.385  1.1349  0.3055 -1.2450
  564MOL0     C77747  11.244   0.812   8.483 -0.6721 -0.4197  0.7228
  564MOL0     C77748  11.219   0.725   8.377  0.2611  0.7095 -0.7198
  564MOL0     C77749  11.194   0.503   8.000 -0.0149 -0.1592 -1.1164
  564MOL0     C77750  11.094   0.565   7.912 -0.3354  0.6207  0.0490
  564MOL0     C77751  11.052   0.498   7.796 -0.0930 -0.2514  0.1417
  564MOL0     C77752  11.068   0.366   7.781  0.7862  0.0318  0.8608
  564MOL0     O77753  11.014   0.322   7.663  0.0631  0.6367  0.5593
  564MOL0     C77754  11.038   0.185   7.603  0.2229 -0.5288  0.1060
  564MOL0     C77755  10.928   0.096   7.640 -0.0691 -0.8197 -0.2063
  564MOL0     C77756  10.795   0.152   7.608 -0.4983  0.0598  0.1154
  564MOL0     C77757  10.693   0.039   7.582 -0.3315  0.5314 -0.0229
  564MOL0     C77758  10.558   0.091   7.595 -0.2016  0.0292 -0.7799
  564MOL0     C77759  10.455   0.146   7.618 -0.1673  0.1595 -0.1196
  564MOL0     C77760  11.146   0.293   7.870 -0.7505 -0.4558 -0.2447
  564MOL0     C77761  11.215   0.361   7.979 -0.6462  0.4620 -0.6090
  564MOL0     C77762  11.293   0.258   8.066 -0.5486 -1.5208 -0.1607
  564MOL0     H77763  11.271   0.937   8.125  0.2680 -1.6126 -0.6937
  564MOL0     H77764  11.300   1.101   8.314 -1.0003 -0.2609 -0.5782
  564MOL0     H77765  11.197   1.185   8.549  0.2503  1.4408  0.4443
  564MOL0     H77766  11.359   1.212   8.498 -2.6414  4.0055 -0.5073
  564MOL0     H77767  11.428   1.174   8.741 -2.2119 -5.5249 -0.0289
  564MOL0     H77768  11.320   1.324   8.718 -0.5007  0.6666 -3.0535
  564MOL0     H77769  11.244   1.053   8.849  0.3702 -0.0498 -0.7775
  564MOL0     H77770  11.253   1.208   8.931 -0.4629 -0.0293 -0.2677
  564MOL0     H77771  11.075   1.297   8.746 -0.5285 -1.4956 -1.8790
  564MOL0     H77772  11.035   1.133   8.736  2.0136  0.0586 -1.5738
  564MOL0     H77773  10.880   1.264   8.876 -0.8526 -2.9734 -1.8345
  564MOL0     H77774  11.028   1.293   8.994  0.7827  2.1098 -1.8626
  564MOL0     H77775  10.888   1.025   8.903  0.4898 -1.2097  1.0589
  564MOL0     H77776  11.023   1.034   9.011 -0.3166  0.5422 -0.9260
  564MOL0     H77777  10.753   1.135   9.041  1.2008  0.8549 -0.0161
  564MOL0     H77778  10.862   1.164   9.173 -1.3424 -0.5327  1.5509
  564MOL0     H77779  10.756   0.905   9.069  0.9800 -0.8966 -0.3859
  564MOL0     H77780  10.906   0.897   9.143  0.5921  1.2461 -3.9209
  564MOL0     H77781  10.551   1.041   9.211 -0.6825 -1.2331 -0.0502
  564MOL0     H77782  10.409   0.967   9.514 -0.0703 -0.3426 -1.3714
  564MOL0     H77783  10.391   1.100   9.409 -1.1867 -1.3108  0.2973
  564MOL0     H77784  10.516   1.093   9.686  0.6122  0.1417 -0.7988
  564MOL0     H77785  10.572   1.212   9.580  2.0758 -1.6291  0.7351
  564MOL0     H77786  10.389   1.311   9.697 -3.1574  0.3422  0.9178
  564MOL0     H77787  10.323   1.291   9.535  0.0150  2.6162  0.7180
  564MOL0     H77788  10.157   1.218   9.678  0.5040 -0.2960 -0.9178
  564MOL0     H77789  10.226   1.078   9.597  1.4883 -1.3605 -0.7533
  564MOL0     H77790  10.191   1.332   9.878  0.5945 -0.0076  0.7653
  564MOL0     H77791  10.138   1.470  10.044  0.7135  0.3654 -1.0309
  564MOL0     H77792  10.299   1.543  10.013  1.0242 -0.7672  0.4505
  564MOL0     H77793  10.237   1.508  10.183 -1.7202 -2.4687  0.9959
  564MOL0     H77794  10.716   1.621  10.261 -1.6629  1.9304  2.5124
  564MOL0     H77795  10.848   1.720  10.451  0.6149 -0.0775  2.7890
  564MOL0     H77796  11.004   1.442  10.761 -2.0183 -0.2959 -1.0071
  564MOL0     H77797  11.101   1.458  10.614 -2.1152 -0.0120 -0.2434
  564MOL0     H77798  11.109   1.678  10.814  1.8710  1.2194 -0.2729
  564MOL0     H77799  11.230   1.546  10.806  1.0578  0.7183  0.5204
  564MOL0     H77800  11.327   1.587  10.610 -1.0507 -0.1613 -1.6999
  564MOL0     H77801  11.331   1.743  10.684  0.6076  0.6144 -1.0148
  564MOL0     H77802  11.132   1.799  10.554  0.8244  0.1642  2.1787
  564MOL0     H77803  11.158   1.651  10.456 -0.5484 -0.4821  0.7314
  564MOL0     H77804  11.378   1.867  10.512  2.9784  0.7362 -2.0134
  564MOL0     H77805  11.399   1.725  10.418  2.1869  1.6844 -0.0174
  564MOL0     H77806  11.205   1.959  10.355  1.8974  3.2233 -0.6984
  564MOL0     H77807  11.230   1.819  10.253  1.0894  0.3189 -0.9977
  564MOL0     H77808  11.482   1.895  10.261 -1.4330 -1.9359 -0.0822
  564MOL0     H77809  11.422   2.043  10.344 -1.2379  1.7308 -1.4164
  564MOL0     H77810  11.356   1.942  10.070  1.0644 -0.5800 -0.9497
  564MOL0     H77811  11.478   2.067  10.104  1.6181 -2.9856  0.9691
  564MOL0     H77812  10.840   1.351  10.656  3.1911 -0.2812 -1.0971
  564MOL0     H77813  10.661   1.268  10.476 -2.5341  1.5132 -0.8724
  564MOL0     H77814  10.548   1.116  10.131 -0.8948 -2.5084  0.3834
  564MOL0     H77815  10.457   1.024   9.937 -1.3569 -0.1426 -0.6282
  564MOL0     H77816  11.243   0.773   8.585 -1.5987 -0.3623  0.7429
  564MOL0     H77817  11.203   0.619   8.389  0.1743  0.1789 -4.4694
  564MOL0     H77818  11.060   0.665   7.935 -2.1323 -0.5085  2.9374
  564MOL0     H77819  11.000   0.560   7.723 -1.9603  1.0646  2.4304
  564MOL0     H77820  11.035   0.188   7.494  0.9761 -1.4081  0.0497
  564MOL0     H77821  11.130   0.138   7.639  2.1321  0.1216 -3.3834
  564MOL0     H77822  10.938   0.080   7.748  0.0930 -0.7476 -0.2106
  564MOL0     H77823  10.954  -0.004   7.603 -2.6206 -2.0109  0.9253
  564MOL0     H77824  10.765   0.213   7.693 -1.0562  0.3096 -0.2510
  564MOL0     H77825  10.790   0.208   7.514 -1.5108 -1.4010 -0.7466
  564MOL0     H77826  10.698  -0.043   7.654 -0.6687 -1.9112 -2.6100
  564MOL0     H77827  10.711  -0.013   7.488 -2.2202 -0.2635  0.0097
  564MOL0     H77828  10.365   0.193   7.653  0.3958  1.0477  0.1582
  564MOL0     H77829  11.152   0.185   7.873 -0.4305 -0.4282  0.9174
  564MOL0     H77830  11.396   0.245   8.030 -0.9108  0.1421 -1.9429
  564MOL0     H77831  11.301   0.288   8.171 -0.2792 -1.0756 -0.3050
  564MOL0     H77832  11.235   0.165   8.058 -2.1874 -0.5553  0.0035
  565MOL0     O77833   4.882   7.266   0.173 -0.3848  0.3881  0.2779
  565MOL0     C77834   4.972   7.189   0.154 -0.0869  1.3170  0.5742
  565MOL0     O77835   5.063   7.150   0.249 -0.2275  0.0680  1.0712
  565MOL0     C77836   5.097   7.225   0.358 -0.7465 -0.6079 -0.3081
  565MOL0     C77837   5.238   7.229   0.391 -0.5064 -0.3267  1.0385
  565MOL0     C77838   5.281   7.289   0.510 -0.2152  0.3794 -0.3911
  565MOL0     C77839   5.188   7.345   0.598 -0.2443  0.1959  0.4430
  565MOL0     O77840   5.243   7.400   0.704  0.6639  0.2304 -0.2364
  565MOL0     C77841   5.155   7.385   0.822 -0.3559 -0.4513  0.6130
  565MOL0     C77842   5.243   7.390   0.943  0.4293 -0.3727 -0.2436
  565MOL0     C77843   5.332   7.280   0.979 -0.3062  0.1876 -0.0121
  565MOL0     C77844   5.446   7.328   1.078  0.0769  0.6260 -0.4966
  565MOL0     C77845   5.534   7.211   1.123  0.7045 -1.0420  0.4835
  565MOL0     C77846   5.672   7.254   1.159  0.2827  0.9131  0.1199
  565MOL0     C77847   5.677   7.303   1.305 -0.1145 -0.1678  0.3718
  565MOL0     C77848   5.818   7.346   1.333 -0.3513 -0.4436 -0.7398
  565MOL0     N77849   5.926   7.245   1.302  0.9711 -0.2044 -0.4273
  565MOL0     C77850   5.966   7.141   1.384  0.6853 -0.4885 -1.0529
  565MOL0     C77851   6.083   7.105   1.323  0.3331  0.3689 -0.2744
  565MOL0     C77852   6.191   7.012   1.374  0.2042 -0.0665  0.0870
  565MOL0     C77853   6.197   6.893   1.284 -0.0097  0.3771  0.3103
  565MOL0     C77854   6.257   6.914   1.136  0.7773 -1.1819 -0.5221
  565MOL0     C77855   6.399   6.964   1.131  0.1474 -0.0798 -0.0755
  565MOL0     O77856   6.477   6.898   1.230  0.4019  0.1142 -0.1363
  565MOL0     C77857   6.597   6.860   1.182 -0.5616 -0.0367  0.3216
  565MOL0     C77858   6.683   6.957   1.136 -0.2927  0.2629  0.3942
  565MOL0     C77859   6.806   6.919   1.082 -0.0709 -0.4596  0.0043
  565MOL0     C77860   6.891   7.026   1.030  0.2401  0.2007  0.6796
  565MOL0     C77861   6.852   6.787   1.083 -0.4258 -0.9455  0.3095
  565MOL0     C77862   6.989   6.732   1.044  0.0749  0.0722 -0.5222
  565MOL0     O77863   6.991   6.611   0.977 -0.3458 -0.3672  0.2490
  565MOL0     C77864   7.104   6.554   0.923 -0.9107  0.8298 -0.1754
  565MOL0     C77865   7.245   6.592   0.929  0.2951 -0.4383 -0.2669
  565MOL0     C77866   7.339   6.516   0.859 -0.1026  1.0425 -0.5307
  565MOL0     C77867   7.312   6.393   0.807 -0.0822 -0.4645 -0.0438
  565MOL0     O77868   7.389   6.301   0.745 -0.1157 -0.3859 -0.0415
  565MOL0     C77869   7.536   6.321   0.730  0.2679  0.2382  0.7966
  565MOL0     C77870   7.598   6.199   0.651 -0.2802 -0.6139  0.4204
  565MOL0     C77871   7.593   6.070   0.744 -1.0672 -0.4628 -0.4138
  565MOL0     C77872   7.671   5.961   0.681  0.4574  0.8418  0.4113
  565MOL0     C77873   7.811   5.986   0.704 -0.9030 -0.1078 -0.5142
  565MOL0     C77874   7.894   5.882   0.628  0.0886  0.3636 -0.2617
  565MOL0     C77875   8.042   5.919   0.606 -0.0955  0.6016 -0.0151
  565MOL0     C77876   8.128   5.790   0.568  0.9373 -0.5635  1.3863
  565MOL0    Cl77877   8.055   5.727   0.417  0.2925  0.6116 -0.1710
  565MOL0     C77878   7.179   6.354   0.808  0.1866  0.4004  1.0497
  565MOL0     C77879   7.068   6.436   0.855 -0.0676  0.1845 -0.8178
  565MOL0     O77880   7.086   6.797   1.065 -1.0324  0.0904  0.4255
  565MOL0     C77881   6.765   6.688   1.144  0.0036  0.3679  0.0218
  565MOL0     C77882   6.635   6.723   1.187  0.3418 -0.3240 -0.6017
  565MOL0     N77883   6.111   7.194   1.221  0.1384 -0.0814 -0.1477
  565MOL0     N77884   6.012   7.268   1.210 -0.0789 -0.1286 -0.0424
  565MOL0     C77885   5.054   7.350   0.559  0.2993  0.7145 -0.9356
  565MOL0     C77886   5.011   7.279   0.451 -0.2025  1.1397 -0.6669
  565MOL0     C77887   5.014   7.147   0.018 -0.6513  0.2498  0.8813
  565MOL0     C77888   5.155   7.136  -0.004 -1.9391  0.0264  0.7609
  565MOL0     C77889   5.200   7.087  -0.132 -0.6126 -0.5145  0.3488
  565MOL0     C77890   5.115   7.069  -0.238 -0.1931 -0.9929 -0.5673
  565MOL0     O77891   5.153   7.031  -0.361 -0.9728 -0.1574  0.4976
  565MOL0     C77892   5.274   7.083  -0.412 -0.0541 -0.4196  0.8156
  565MOL0     C77893   5.298   7.042  -0.554 -0.2025  0.1201  0.5395
  565MOL0     C77894   5.338   6.893  -0.583  0.6246 -0.5619 -0.6526
  565MOL0     C77895   5.400   6.879  -0.728  0.3754  0.4441 -0.2272
  565MOL0     C77896   5.468   6.744  -0.744 -0.4873 -0.1017 -0.0337
  565MOL0     C77897   5.505   6.631  -0.766 -0.2273  0.3007 -0.0883
  565MOL0     C77898   4.978   7.091  -0.221  1.0599  0.2848  0.1739
  565MOL0     C77899   4.922   7.109  -0.092 -0.0829  0.0352  0.1475
  565MOL0     C77900   4.769   7.126  -0.075 -0.4103 -0.4996  0.8469
  565MOL0     H77901   5.310   7.190   0.320  1.1716  2.8818  0.7846
  565MOL0     H77902   5.386   7.284   0.535 -0.0485 -3.2453 -1.2819
  565MOL0     H77903   5.098   7.292   0.824 -0.4431 -0.4071  0.3231
  565MOL0     H77904   5.082   7.465   0.842 -1.1063 -1.0628  0.3621
  565MOL0     H77905   5.307   7.477   0.931 -0.2805  0.7057  2.7790
  565MOL0     H77906   5.180   7.424   1.026  0.7349 -0.0784 -0.1324
  565MOL0     H77907   5.273   7.197   1.018  0.2122  0.4866  1.4552
  565MOL0     H77908   5.371   7.233   0.889 -1.2999  1.4634 -1.1545
  565MOL0     H77909   5.506   7.394   1.014 -0.6236  1.0420 -0.7361
  565MOL0     H77910   5.421   7.387   1.167  1.7337  0.4478  0.1304
  565MOL0     H77911   5.544   7.143   1.038 -0.4686 -0.2033 -0.3323
  565MOL0     H77912   5.485   7.159   1.206  2.2880 -0.1157  2.0913
  565MOL0     H77913   5.739   7.170   1.143 -0.9220  0.1209 -0.9666
  565MOL0     H77914   5.706   7.336   1.094 -0.6210  1.3548  0.1766
  565MOL0     H77915   5.650   7.222   1.374  1.5015 -0.1327  1.0909
  565MOL0     H77916   5.603   7.382   1.314  2.4470  2.5931 -1.1468
  565MOL0     H77917   5.824   7.446   1.288 -2.9483  1.8890  3.3920
  565MOL0     H77918   5.824   7.363   1.441 -4.7134 -1.6886 -0.1350
  565MOL0     H77919   5.919   7.104   1.475  0.8311  3.3006  0.7925
  565MOL0     H77920   6.187   6.986   1.481 -0.1011 -1.0287 -0.1423
  565MOL0     H77921   6.283   7.070   1.371 -0.3991  1.1396  2.4413
  565MOL0     H77922   6.268   6.832   1.341  0.1334 -0.1581 -0.4280
  565MOL0     H77923   6.103   6.839   1.289 -0.5722  1.1812 -0.9568
  565MOL0     H77924   6.257   6.820   1.080  0.6090 -0.4019 -1.8774
  565MOL0     H77925   6.196   6.988   1.083 -2.8465 -2.3739  1.6236
  565MOL0     H77926   6.431   6.967   1.027  2.0017  1.8082  0.4645
  565MOL0     H77927   6.411   7.068   1.163  1.7595 -0.6803  1.5113
  565MOL0     H77928   6.648   7.059   1.132 -0.9318  0.0051 -2.2158
  565MOL0     H77929   6.958   7.060   1.110 -0.6505  0.7802  1.2052
  565MOL0     H77930   6.824   7.105   0.995 -2.1015 -2.3533 -0.9549
  565MOL0     H77931   6.951   6.993   0.945 -1.7660 -2.2510  0.0939
  565MOL0     H77932   7.280   6.684   0.974  3.9802 -0.0701 -3.3049
  565MOL0     H77933   7.435   6.561   0.836 -0.1855 -0.2692 -4.0343
  565MOL0     H77934   7.566   6.416   0.684  0.5870 -0.7362 -1.1022
  565MOL0     H77935   7.571   6.314   0.834  1.3450 -2.8997  0.3254
  565MOL0     H77936   7.536   6.187   0.562  2.9158 -1.2860 -1.9158
  565MOL0     H77937   7.699   6.230   0.622 -0.3121 -0.9380 -0.0556
  565MOL0     H77938   7.488   6.043   0.754 -1.2226 -0.1720 -1.1950
  565MOL0     H77939   7.632   6.102   0.841 -0.0450  0.3955 -1.0803
  565MOL0     H77940   7.640   5.960   0.576  0.0007  1.4177  0.5386
  565MOL0     H77941   7.635   5.867   0.724 -1.9221  0.4397 -2.1503
  565MOL0     H77942   7.834   6.090   0.679  2.8405  0.1537  2.8652
  565MOL0     H77943   7.840   5.974   0.809 -0.2884 -2.3246 -0.8628
  565MOL0     H77944   7.849   5.879   0.529 -1.8249  0.8649  0.5428
  565MOL0     H77945   7.889   5.778   0.662 -2.2850 -0.3394 -2.4895
  565MOL0     H77946   8.076   5.950   0.705  0.8583 -1.9183  0.5121
  565MOL0     H77947   8.048   5.991   0.523 -1.0517  0.3886 -0.2894
  565MOL0     H77948   8.122   5.711   0.643  2.1647  0.0774  2.2020
  565MOL0     H77949   8.235   5.808   0.559  1.0934  0.3288  4.1532
  565MOL0     H77950   7.167   6.254   0.766  2.7719 -0.0531  1.2288
  565MOL0     H77951   6.962   6.418   0.863 -0.1957  1.4390  1.1895
  565MOL0     H77952   6.791   6.583   1.142  2.1879  0.8719 -2.4079
  565MOL0     H77953   6.562   6.643   1.191  0.3333 -0.4665 -2.4859
  565MOL0     H77954   4.977   7.395   0.622 -1.3354 -3.9038  0.7965
  565MOL0     H77955   4.905   7.259   0.435 -0.1958  0.0745  0.5158
  565MOL0     H77956   5.226   7.164   0.073 -0.2136  6.0601 -2.4175
  565MOL0     H77957   5.302   7.052  -0.149 -1.3939 -1.4419 -3.6799
  565MOL0     H77958   5.270   7.192  -0.406 -3.8150 -0.1482 -2.3567
  565MOL0     H77959   5.363   7.052  -0.357  3.6813  4.0933 -1.9744
  565MOL0     H77960   5.367   7.116  -0.596  1.2098  0.7542  3.6380
  565MOL0     H77961   5.208   7.060  -0.612  0.2357  0.3742 -0.0744
  565MOL0     H77962   5.406   6.856  -0.505  2.2258  2.8611 -0.2427
  565MOL0     H77963   5.247   6.833  -0.572  1.7255 -1.9515  1.7270
  565MOL0     H77964   5.469   6.964  -0.724 -2.8048  3.2538  3.5612
  565MOL0     H77965   5.318   6.897  -0.798  0.5891  2.2558 -0.0762
  565MOL0     H77966   5.523   6.537  -0.815  0.2903  1.1326 -1.5428
  565MOL0     H77967   4.924   7.062  -0.311  2.3557 -0.1999 -0.4675
  565MOL0     H77968   4.743   7.232  -0.071  0.0304 -0.4373  4.3012
  565MOL0     H77969   4.719   7.070  -0.156  1.3030 -2.1145  0.8537
  565MOL0     H77970   4.739   7.071   0.014  0.2414 -1.0227  0.7523
  566MOL0     O77971   3.407  11.400  10.911 -0.1486 -0.0937  0.3408
  566MOL0     C77972   3.471  11.356  10.816 -0.6142 -0.0252 -0.3867
  566MOL0     O77973   3.485  11.421  10.697 -0.2889  0.1691  0.4313
  566MOL0     C77974   3.413  11.537  10.669  0.3693 -0.2432  0.9690
  566MOL0     C77975   3.282  11.519  10.616 -0.7398  0.6659 -0.2925
  566MOL0     C77976   3.191  11.625  10.595 -0.3030 -0.5018  0.6184
  566MOL0     C77977   3.248  11.756  10.615  0.9518  0.1429  0.7849
  566MOL0     O77978   3.165  11.857  10.602  0.0968 -0.0474 -0.1022
  566MOL0     C77979   3.193  11.990  10.645 -0.1603 -0.0171 -0.0864
  566MOL0     C77980   3.052  12.064  10.638  0.5091  0.1825  0.5047
  566MOL0     C77981   3.057  12.214  10.659 -0.8392  0.2236 -0.6313
  566MOL0     C77982   2.923  12.275  10.680  0.3644  0.1118 -0.1291
  566MOL0     C77983   2.936  12.434  10.678  0.3655  0.4555 -0.2525
  566MOL0     C77984   2.791  12.490  10.658  0.6346 -0.0360  0.2113
  566MOL0     C77985   2.799  12.643  10.678  0.2040  0.2728  0.1818
  566MOL0     C77986   2.662  12.710  10.691 -0.7031  0.7672 -0.5641
  566MOL0     N77987   2.605  12.679  10.820 -0.0563  0.3747 -0.8669
  566MOL0     C77988   2.678  12.672  10.947  0.6833 -0.9003 -0.6518
  566MOL0     C77989   2.573  12.643  11.043  0.1800 -0.6577  0.5998
  566MOL0     C77990   2.611  12.609  11.182  0.3718 -0.6139 -0.6086
  566MOL0     C77991   2.493  12.520  11.239 -0.5791 -0.2969 -0.8319
  566MOL0     C77992   2.526  12.499  11.392  0.5293  0.1728  0.1305
  566MOL0     C77993   2.415  12.416  11.453  0.7215 -0.3480 -1.1676
  566MOL0     O77994   2.456  12.384  11.583 -0.0380 -0.0191 -1.1407
  566MOL0     C77995   2.381  12.308  11.663  0.2687  0.4714 -0.3417
  566MOL0     C77996   2.299  12.205  11.611 -0.3734  0.1398  0.1670
  566MOL0     C77997   2.204  12.140  11.686  0.4574  0.3052  0.9116
  566MOL0     C77998   2.101  12.057  11.607  0.2217  0.0853 -0.2098
  566MOL0     C77999   2.187  12.179  11.825  1.4663  0.3496  0.6653
  566MOL0     C78000   2.070  12.130  11.904 -0.0960  0.0183 -0.8154
  566MOL0     O78001   2.114  12.090  12.026  0.1250 -0.6566 -0.4201
  566MOL0     C78002   2.030  12.008  12.105  0.8410 -0.1583  0.3443
  566MOL0     C78003   1.915  12.051  12.176 -0.0852 -0.8528 -0.0201
  566MOL0     C78004   1.837  11.960  12.248  0.7211  0.3796 -0.3292
  566MOL0     C78005   1.861  11.822  12.240  0.5737  0.8087 -0.2736
  566MOL0     O78006   1.784  11.736  12.316 -0.0565 -0.2580 -0.1950
  566MOL0     C78007   1.833  11.603  12.339 -0.2544 -0.3537 -0.0373
  566MOL0     C78008   1.763  11.562  12.471  0.0678  0.2128  0.5522
  566MOL0     C78009   1.853  11.619  12.592 -0.8665 -0.0490  0.5855
  566MOL0     C78010   1.807  11.570  12.722  0.1715 -0.5806 -1.1281
  566MOL0     C78011   1.883  11.654  12.840 -0.4449  1.2342 -0.3297
  566MOL0     C78012   1.831  11.613  12.976  0.3858 -0.1964 -0.5672
  566MOL0     C78013   1.911  11.688  13.089 -0.1557 -0.6431  0.4187
  566MOL0     C78014   1.855  11.654  13.236 -0.1478 -0.4075 -0.2030
  566MOL0    Cl78015   1.885  11.483  13.269 -0.4629 -0.3501  0.5810
  566MOL0     C78016   1.963  11.778  12.156 -0.5163 -0.1990  0.2177
  566MOL0     C78017   2.050  11.870  12.091  0.6971  0.5831  0.4923
  566MOL0     O78018   1.952  12.125  11.860  0.1592  0.2316  0.0315
  566MOL0     C78019   2.278  12.266  11.889  0.3992 -0.1663 -0.2444
  566MOL0     C78020   2.378  12.328  11.802 -0.5585  0.1879 -0.1131
  566MOL0     N78021   2.447  12.664  10.984  0.9839  0.7181 -0.6739
  566MOL0     N78022   2.475  12.693  10.860 -0.4339 -0.2469 -0.2309
  566MOL0     C78023   3.380  11.776  10.656 -0.4110  0.1887 -0.4877
  566MOL0     C78024   3.459  11.665  10.680 -0.1108 -0.3079 -0.2204
  566MOL0     C78025   3.543  11.223  10.836 -0.5430 -0.1101 -0.2891
  566MOL0     C78026   3.536  11.116  10.751  0.7002 -1.0778  0.2796
  566MOL0     C78027   3.600  10.984  10.764  0.0915 -0.4230  0.2984
  566MOL0     C78028   3.682  10.968  10.874 -0.4241  0.0492  0.3885
  566MOL0     O78029   3.755  10.855  10.901  0.5428 -0.1941  0.1145
  566MOL0     C78030   3.684  10.744  10.940  0.4422 -0.2671 -0.5361
  566MOL0     C78031   3.787  10.641  10.973 -0.5061  0.0355  0.1764
  566MOL0     C78032   3.746  10.525  11.066  0.2759 -0.5657  0.7007
  566MOL0     C78033   3.617  10.460  11.024  0.5468  0.3634 -0.2137
  566MOL0     C78034   3.593  10.325  11.090 -0.5504 -0.3504  0.5113
  566MOL0     C78035   3.581  10.216  11.140 -0.0695  0.9825 -0.1882
  566MOL0     C78036   3.696  11.077  10.964 -0.0649  0.4831  0.1486
  566MOL0     C78037   3.629  11.197  10.947 -0.5967 -0.4221  0.2904
  566MOL0     C78038   3.666  11.306  11.042 -0.9542 -0.2883  0.5278
  566MOL0     H78039   3.265  11.415  10.588  1.1661 -0.2395  1.6048
  566MOL0     H78040   3.086  11.602  10.581 -0.2978  0.5910 -1.5587
  566MOL0     H78041   3.250  12.051  10.574 -1.6796  2.7623  0.9141
  566MOL0     H78042   3.241  11.997  10.743  1.0986 -0.1663 -0.6801
  566MOL0     H78043   3.016  12.049  10.535 -2.2370  1.4670  1.2005
  566MOL0     H78044   2.993  12.005  10.708  3.6969 -2.2717  1.3665
  566MOL0     H78045   3.121  12.231  10.746  0.6956  0.7753 -1.8137
  566MOL0     H78046   3.109  12.259  10.574 -1.1615 -2.2473 -2.2393
  566MOL0     H78047   2.850  12.244  10.605 -0.7561  0.3476  0.8200
  566MOL0     H78048   2.879  12.251  10.778 -1.4360  3.9380  0.1772
  566MOL0     H78049   3.002  12.464  10.596  3.5823 -2.0224  1.1898
  566MOL0     H78050   2.976  12.466  10.775  0.3551 -1.9341  0.5938
  566MOL0     H78051   2.745  12.455  10.565  0.8906  0.4086 -0.0851
  566MOL0     H78052   2.718  12.465  10.736 -2.5120  2.9233 -1.4985
  566MOL0     H78053   2.841  12.694  10.590 -0.3488  1.0875  0.3840
  566MOL0     H78054   2.847  12.678  10.770 -3.5520  2.4469  1.5166
  566MOL0     H78055   2.680  12.817  10.680  2.4897  0.7965  3.0275
  566MOL0     H78056   2.588  12.680  10.616 -0.2803 -2.9414  0.3162
  566MOL0     H78057   2.782  12.657  10.973  0.4241 -1.5045  0.1062
  566MOL0     H78058   2.621  12.703  11.238 -3.4382 -0.1393 -0.4416
  566MOL0     H78059   2.708  12.560  11.187  1.6401  1.8980  1.4048
  566MOL0     H78060   2.394  12.565  11.230 -1.2102 -1.2483  0.9093
  566MOL0     H78061   2.499  12.421  11.193 -0.1885 -1.2756  1.1917
  566MOL0     H78062   2.626  12.454  11.395  0.4671 -0.0253 -0.5852
  566MOL0     H78063   2.530  12.595  11.445 -0.4877 -0.3658  1.2245
  566MOL0     H78064   2.320  12.469  11.459  2.0479  2.0244  0.7995
  566MOL0     H78065   2.408  12.318  11.405  0.3617 -1.8801  1.7960
  566MOL0     H78066   2.302  12.189  11.504 -1.5519  0.1020  0.1262
  566MOL0     H78067   2.105  11.960  11.657  1.6138 -0.5559 -1.5040
  566MOL0     H78068   2.125  12.028  11.505 -0.8247 -1.1582 -0.1339
  566MOL0     H78069   2.001  12.103  11.610  0.8309  1.4104  1.1921
  566MOL0     H78070   1.894  12.157  12.166  1.2083 -0.6469 -0.8396
  566MOL0     H78071   1.754  11.988  12.312  0.6340 -0.2451 -0.1611
  566MOL0     H78072   1.804  11.532  12.262  0.4686 -1.4908  0.6974
  566MOL0     H78073   1.942  11.605  12.350 -0.5088 -0.8423  4.9590
  566MOL0     H78074   1.663  11.605  12.460  1.0666  2.1377 -2.2407
  566MOL0     H78075   1.759  11.453  12.484  0.2772 -0.1796 -2.0846
  566MOL0     H78076   1.855  11.727  12.578 -0.8145 -0.2033 -0.6410
  566MOL0     H78077   1.952  11.577  12.573 -0.3788 -0.9009  4.1708
  566MOL0     H78078   1.807  11.461  12.731  4.5288 -0.5712  2.7293
  566MOL0     H78079   1.705  11.607  12.738  1.5701  2.8554  1.2181
  566MOL0     H78080   1.991  11.641  12.838 -0.4491  1.2333 -0.7549
  566MOL0     H78081   1.867  11.760  12.816  0.1469  0.9800 -2.0338
  566MOL0     H78082   1.851  11.505  12.977  0.5000 -0.1773 -0.7807
  566MOL0     H78083   1.723  11.628  12.981  0.4989  1.0906 -1.5380
  566MOL0     H78084   1.908  11.797  13.074 -0.2060 -0.5911  0.7910
  566MOL0     H78085   2.015  11.660  13.072 -0.6780 -2.5856  0.2681
  566MOL0     H78086   1.747  11.671  13.227 -0.1378 -1.3514 -3.1263
  566MOL0     H78087   1.902  11.710  13.318 -0.5304 -1.6010  0.8680
  566MOL0     H78088   1.974  11.671  12.144 -2.4495 -0.4776  0.5748
  566MOL0     H78089   2.128  11.821  12.033 -1.3813 -2.9880  0.4919
  566MOL0     H78090   2.279  12.288  11.995  0.8264 -0.5321 -0.1717
  566MOL0     H78091   2.461  12.384  11.845 -0.1546 -2.0101  2.2401
  566MOL0     H78092   3.415  11.877  10.676  0.0770 -0.2130  0.8591
  566MOL0     H78093   3.557  11.679  10.726  0.3983  1.3167 -1.6725
  566MOL0     H78094   3.470  11.112  10.665 -1.0503  0.7106  1.4644
  566MOL0     H78095   3.595  10.920  10.676 -1.8082  2.2084 -1.6616
  566MOL0     H78096   3.623  10.771  11.028  0.5126  1.3044 -0.9442
  566MOL0     H78097   3.618  10.710  10.860  0.0203 -0.5107 -0.0921
  566MOL0     H78098   3.877  10.687  11.014 -1.7391  2.5866  0.2134
  566MOL0     H78099   3.811  10.606  10.872 -0.3425  1.9040 -0.4696
  566MOL0     H78100   3.828  10.452  11.058  1.2163  0.6882 -3.0253
  566MOL0     H78101   3.738  10.561  11.169 -1.6625 -0.5654  0.5866
  566MOL0     H78102   3.626  10.440  10.916  1.6967 -1.1059  0.1211
  566MOL0     H78103   3.535  10.528  11.049 -0.9610 -2.2249  2.5135
  566MOL0     H78104   3.559  10.131  11.202  0.0836  2.7465  2.4401
  566MOL0     H78105   3.762  11.057  11.048  0.1238 -1.0242 -0.3302
  566MOL0     H78106   3.724  11.385  10.994 -2.5828  0.0801 -0.9146
  566MOL0     H78107   3.572  11.340  11.086  0.2314  1.2057  2.0392
  566MOL0     H78108   3.720  11.269  11.130  0.9967 -1.0424 -0.9233
  567MOL0     O78109   1.566   7.290   3.439 -0.4821  0.6566  0.1952
  567MOL0     C78110   1.514   7.358   3.351  0.0209 -0.3710  0.6712
  567MOL0     O78111   1.582   7.454   3.277 -0.1758  0.3180  0.0731
  567MOL0     C78112   1.695   7.499   3.336  0.2000 -0.6311  1.6309
  567MOL0     C78113   1.695   7.604   3.433  0.0275 -0.2020 -0.2935
  567MOL0     C78114   1.816   7.657   3.475 -1.0897  0.0204  0.6320
  567MOL0     C78115   1.936   7.604   3.431 -1.6004  0.0082 -0.1410
  567MOL0     O78116   2.053   7.656   3.485  1.0239 -0.3744  0.9387
  567MOL0     C78117   2.178   7.578   3.481  0.4424  0.1337 -0.0365
  567MOL0     C78118   2.300   7.681   3.485 -0.5396  0.5784 -0.1954
  567MOL0     C78119   2.425   7.608   3.538  0.5428 -0.0465  0.1849
  567MOL0     C78120   2.549   7.692   3.513 -0.2924 -0.3945  0.2082
  567MOL0     C78121   2.673   7.606   3.536  0.3923  0.0361 -0.5349
  567MOL0     C78122   2.694   7.495   3.428  0.1684  1.2647 -0.0611
  567MOL0     C78123   2.725   7.552   3.294 -0.4152 -0.6479  0.8572
  567MOL0     C78124   2.706   7.432   3.184 -0.2238 -1.1248 -0.9911
  567MOL0     N78125   2.563   7.378   3.158 -0.1821  0.3781  0.9166
  567MOL0     C78126   2.534   7.238   3.150 -0.1613 -0.1875 -0.3284
  567MOL0     C78127   2.400   7.230   3.126  0.4887 -1.1174  0.3302
  567MOL0     C78128   2.313   7.112   3.111 -0.3141  0.3949  0.7392
  567MOL0     C78129   2.302   7.065   2.967  0.1543 -0.5789  0.9105
  567MOL0     C78130   2.428   7.002   2.905  0.1078 -0.3855  0.0255
  567MOL0     C78131   2.423   6.975   2.754  0.4610 -0.1205  0.4114
  567MOL0     O78132   2.316   6.881   2.729 -0.8531  0.4193 -0.6569
  567MOL0     C78133   2.287   6.858   2.600  0.5675  0.5769 -0.7547
  567MOL0     C78134   2.355   6.902   2.491  0.5333 -0.7324  0.0179
  567MOL0     C78135   2.308   6.878   2.360  0.1779 -0.4544  0.3918
  567MOL0     C78136   2.394   6.948   2.254  0.1391  1.2036 -0.0916
  567MOL0     C78137   2.187   6.814   2.343 -0.3255  0.6439  0.3661
  567MOL0     C78138   2.112   6.821   2.210 -0.2683 -0.0358  0.1769
  567MOL0     O78139   1.986   6.767   2.209  0.4461  0.0183 -0.1795
  567MOL0     C78140   1.902   6.755   2.098 -0.4466  0.7136 -0.0408
  567MOL0     C78141   1.944   6.738   1.964  0.6216 -0.2091 -0.0175
  567MOL0     C78142   1.846   6.736   1.863  0.8471 -0.4168 -0.6661
  567MOL0     C78143   1.716   6.758   1.881  0.7199 -0.1624 -0.0426
  567MOL0     O78144   1.641   6.773   1.765  0.3424 -0.6504 -0.5555
  567MOL0     C78145   1.503   6.816   1.766 -0.1301  0.1090  0.9704
  567MOL0     C78146   1.462   6.828   1.619 -0.1553 -0.4427 -0.1714
  567MOL0     C78147   1.310   6.809   1.592 -0.3941 -0.4045 -0.2673
  567MOL0     C78148   1.271   6.867   1.452  0.5757 -0.9121  0.1247
  567MOL0     C78149   1.116   6.895   1.444  0.0975 -0.1139 -0.7249
  567MOL0     C78150   1.056   6.867   1.301  0.1849 -0.0039  0.7778
  567MOL0     C78151   0.909   6.925   1.276 -0.0485  0.5064 -0.3938
  567MOL0     C78152   0.910   7.074   1.313  0.0160 -0.3374 -0.0167
  567MOL0    Cl78153   1.048   7.142   1.215 -0.3418 -0.2335 -0.0398
  567MOL0     C78154   1.671   6.772   2.015  0.2746  0.1757  0.6169
  567MOL0     C78155   1.763   6.772   2.118 -0.2723  0.1869  0.1029
  567MOL0     O78156   2.160   6.880   2.112  0.0621 -0.4313 -0.0532
  567MOL0     C78157   2.115   6.770   2.460 -0.3551  0.1343  0.1853
  567MOL0     C78158   2.168   6.791   2.585  0.6673  0.1099  0.0101
  567MOL0     N78159   2.352   7.363   3.115  0.2923  1.3119 -0.8168
  567MOL0     N78160   2.446   7.444   3.148 -0.9728  0.1946  0.8038
  567MOL0     C78161   1.939   7.496   3.342 -0.1913  0.0824 -0.3734
  567MOL0     C78162   1.818   7.438   3.291 -0.2306  1.0720  0.0580
  567MOL0     C78163   1.389   7.305   3.296 -0.0264  0.9802  0.3566
  567MOL0     C78164   1.362   7.163   3.287 -0.3253  0.9792 -0.8175
  567MOL0     C78165   1.245   7.114   3.230  0.4541 -0.5103 -0.9078
  567MOL0     C78166   1.159   7.207   3.171  0.7407  0.1878  0.2266
  567MOL0     O78167   1.047   7.159   3.110  0.2121  0.2644  0.1986
  567MOL0     C78168   1.065   7.138   2.970 -0.1074 -0.3516 -0.0180
  567MOL0     C78169   0.946   7.059   2.911  0.0167 -0.1622  0.6373
  567MOL0     C78170   0.919   6.944   3.005 -0.9396  0.3274  0.4461
  567MOL0     C78171   0.809   6.849   2.964  0.7835 -0.4598  0.7102
  567MOL0     C78172   0.670   6.896   2.975  1.6128 -0.3354  0.0859
  567MOL0     C78173   0.549   6.918   2.996  0.3855 -0.1884 -0.2403
  567MOL0     C78174   1.173   7.343   3.188 -0.8816  0.3993 -0.2281
  567MOL0     C78175   1.288   7.392   3.252 -0.0806 -0.0950  0.9974
  567MOL0     C78176   1.280   7.544   3.277 -0.3143  1.0991  0.3775
  567MOL0     H78177   1.597   7.632   3.471 -0.2749 -2.0949  0.4032
  567MOL0     H78178   1.828   7.747   3.534  1.6305 -0.1746  0.5247
  567MOL0     H78179   2.209   7.527   3.389  1.3896  1.3522 -0.4145
  567MOL0     H78180   2.174   7.503   3.560  1.6119 -0.4355 -0.5001
  567MOL0     H78181   2.322   7.710   3.382  1.5718 -0.1557 -0.0043
  567MOL0     H78182   2.272   7.758   3.557 -2.2903 -1.5939  1.5909
  567MOL0     H78183   2.398   7.592   3.642 -1.1314  2.0393  0.1282
  567MOL0     H78184   2.427   7.509   3.491  0.1250  0.4805 -1.0108
  567MOL0     H78185   2.550   7.736   3.413 -1.3295  0.0039  0.3549
  567MOL0     H78186   2.551   7.776   3.583  1.2184 -1.1740  1.1337
  567MOL0     H78187   2.671   7.565   3.638  2.6133 -0.2563 -0.5710
  567MOL0     H78188   2.756   7.676   3.535 -2.5335  4.1049  3.3441
  567MOL0     H78189   2.778   7.432   3.458 -0.1140  0.3931 -1.0415
  567MOL0     H78190   2.598   7.444   3.416 -0.4159  2.9295 -4.7927
  567MOL0     H78191   2.824   7.599   3.299 -1.7058  2.1315  2.0757
  567MOL0     H78192   2.650   7.626   3.265  1.2883  0.9341  0.3013
  567MOL0     H78193   2.735   7.467   3.084 -1.2286  0.7824 -0.6667
  567MOL0     H78194   2.780   7.355   3.205  0.5604 -1.3784 -4.0943
  567MOL0     H78195   2.601   7.159   3.182  1.6830  1.7919  1.0807
  567MOL0     H78196   2.214   7.121   3.156  0.1050 -0.0704  1.8096
  567MOL0     H78197   2.362   7.032   3.167 -1.2501 -0.2655  0.6323
  567MOL0     H78198   2.221   6.993   2.949  1.5908 -2.1996  0.6000
  567MOL0     H78199   2.282   7.145   2.895  0.6031 -1.4206 -0.1917
  567MOL0     H78200   2.516   7.067   2.915 -1.1080  1.4679 -0.9088
  567MOL0     H78201   2.449   6.906   2.952  1.8439  0.3354  0.8289
  567MOL0     H78202   2.395   7.066   2.701 -1.1615  0.6170  2.3765
  567MOL0     H78203   2.515   6.932   2.715 -0.7755 -0.9361 -1.7694
  567MOL0     H78204   2.447   6.958   2.499  0.1525 -0.0031 -0.6449
  567MOL0     H78205   2.486   6.986   2.299 -0.4230  0.7659  1.4611
  567MOL0     H78206   2.337   7.034   2.218 -3.0936  0.0353  1.8025
  567MOL0     H78207   2.423   6.901   2.159  1.2067  0.2678  0.6724
  567MOL0     H78208   2.049   6.727   1.941  1.5874 -0.0091  3.6867
  567MOL0     H78209   1.888   6.738   1.763 -1.7721  1.2032 -1.8266
  567MOL0     H78210   1.433   6.749   1.817  1.5226 -3.0435 -0.6271
  567MOL0     H78211   1.494   6.919   1.802 -1.8589  1.2268 -2.2380
  567MOL0     H78212   1.503   6.923   1.584  1.2752 -1.4425 -1.3158
  567MOL0     H78213   1.511   6.748   1.562 -2.0038  0.3802 -3.1349
  567MOL0     H78214   1.251   6.862   1.667  0.2702  1.9705 -1.3537
  567MOL0     H78215   1.279   6.706   1.614 -1.3004 -0.0475  0.1738
  567MOL0     H78216   1.299   6.792   1.377 -1.6571 -3.0389  1.3040
  567MOL0     H78217   1.327   6.960   1.442  2.0797 -1.7151  0.6598
  567MOL0     H78218   1.067   6.820   1.506 -1.9890  1.2980 -0.5615
  567MOL0     H78219   1.084   6.988   1.492 -0.7164 -0.1505 -1.1796
  567MOL0     H78220   1.054   6.761   1.273 -1.8388 -0.0842  1.0591
  567MOL0     H78221   1.124   6.919   1.234 -2.4393  2.1710 -0.3988
  567MOL0     H78222   0.839   6.872   1.340 -0.4809  1.1606 -0.3142
  567MOL0     H78223   0.873   6.918   1.173 -1.9663 -1.1651  0.3207
  567MOL0     H78224   0.924   7.099   1.419  0.3231  2.8727 -0.6918
  567MOL0     H78225   0.813   7.112   1.280 -0.4990 -1.3536  0.2820
  567MOL0     H78226   1.572   6.801   2.048  0.7767 -0.5106  2.8967
  567MOL0     H78227   1.729   6.782   2.221  0.6435 -0.9580  0.5330
  567MOL0     H78228   2.022   6.715   2.450  0.5866 -1.3744 -0.6285
  567MOL0     H78229   2.110   6.755   2.670 -0.8725  0.3578 -0.8907
  567MOL0     H78230   2.025   7.450   3.292  0.9298  1.2565  0.4296
  567MOL0     H78231   1.823   7.343   3.238  0.3914  0.8301  0.5448
  567MOL0     H78232   1.434   7.099   3.338  0.9169  2.8338 -0.1605
  567MOL0     H78233   1.210   7.012   3.220  0.4364 -0.3326 -3.1192
  567MOL0     H78234   1.068   7.234   2.917 -1.1289  2.7589  4.9417
  567MOL0     H78235   1.154   7.076   2.957 -0.1907 -0.2242 -1.2871
  567MOL0     H78236   0.972   7.038   2.807  1.3146 -1.5809  1.2077
  567MOL0     H78237   0.863   7.130   2.913  2.8308  3.5312 -1.1113
  567MOL0     H78238   1.004   6.878   3.022  0.7681  2.9363  3.1339
  567MOL0     H78239   0.892   6.997   3.097 -1.2674 -1.0110  1.1415
  567MOL0     H78240   0.815   6.752   3.015  1.1806  1.6011  5.0148
  567MOL0     H78241   0.831   6.827   2.859 -1.6422  0.0657  0.0080
  567MOL0     H78242   0.447   6.937   3.024  0.6501  2.6568 -0.9019
  567MOL0     H78243   1.094   7.411   3.158 -3.9905 -2.3220  1.1295
  567MOL0     H78244   1.238   7.554   3.378 -1.6206 -2.0521  0.2845
  567MOL0     H78245   1.374   7.600   3.275 -1.1309  2.4806 -1.2401
  567MOL0     H78246   1.215   7.585   3.200 -1.3048 -1.4233 -0.2127
  568MOL0     O78247   3.291  11.137  10.349  0.1223 -0.3556 -0.4703
  568MOL0     C78248   3.351  11.197  10.263  1.2143 -0.0020  0.2745
  568MOL0     O78249   3.301  11.207  10.134 -0.3386 -0.2639 -0.8423
  568MOL0     C78250   3.175  11.170  10.094  0.0159  0.1381 -0.5627
  568MOL0     C78251   3.159  11.142   9.959  0.7577  0.1729  0.0079
  568MOL0     C78252   3.029  11.131   9.906 -0.7042 -0.2400  0.7331
  568MOL0     C78253   2.918  11.133   9.990 -0.0130 -0.0611 -0.4730
  568MOL0     O78254   2.788  11.128   9.940  0.2091  0.3979 -0.1976
  568MOL0     C78255   2.703  11.031  10.005  0.4636 -0.2697 -0.3032
  568MOL0     C78256   2.602  10.961   9.930  0.7848  0.1850  1.1143
  568MOL0     C78257   2.532  11.050   9.829 -0.3880  0.0802 -0.6213
  568MOL0     C78258   2.388  11.008   9.788 -0.1130  0.3784 -0.0692
  568MOL0     C78259   2.312  11.113   9.701 -0.1606  0.3014  0.5169
  568MOL0     C78260   2.169  11.088   9.742 -0.1274  0.5218 -0.0148
  568MOL0     C78261   2.077  11.151   9.638  0.0621 -0.2514 -0.1872
  568MOL0     C78262   2.085  11.300   9.635  0.3873 -0.7066 -0.5659
  568MOL0     N78263   1.993  11.349   9.523  0.0279 -0.2996 -1.0550
  568MOL0     C78264   2.019  11.360   9.392  0.6492 -0.9758 -0.9404
  568MOL0     C78265   1.931  11.444   9.339  0.5663 -0.1340 -0.3913
  568MOL0     C78266   1.943  11.469   9.194 -0.6007  0.3473  0.4518
  568MOL0     C78267   2.080  11.539   9.161 -0.8606  0.6574  0.0271
  568MOL0     C78268   2.090  11.554   9.015 -0.0431 -0.2613  0.3269
  568MOL0     C78269   2.006  11.656   8.944 -0.4603  0.5679  0.4153
  568MOL0     O78270   2.051  11.789   8.972  0.8050 -0.1831  0.1782
  568MOL0     C78271   2.172  11.836   8.932 -0.4008  0.6460 -0.5200
  568MOL0     C78272   2.262  11.780   8.839 -0.8324 -0.0668 -0.4438
  568MOL0     C78273   2.396  11.832   8.824 -0.0845 -0.4246  1.0360
  568MOL0     C78274   2.485  11.750   8.723  0.0947  0.2443  0.1449
  568MOL0     C78275   2.431  11.948   8.892 -1.3538 -0.0498  0.3407
  568MOL0     C78276   2.577  12.010   8.888  0.2657  0.6341 -0.5863
  568MOL0     O78277   2.602  12.077   9.010  0.5102 -0.0300  0.1142
  568MOL0     C78278   2.716  12.139   9.017 -0.0330 -0.5937 -0.7524
  568MOL0     C78279   2.847  12.083   9.021  1.2740  0.2452  0.2037
  568MOL0     C78280   2.959  12.164   9.039 -0.3734  0.5538  0.1206
  568MOL0     C78281   2.948  12.305   9.061  0.0008  0.4407  0.6912
  568MOL0     O78282   3.055  12.390   9.082  0.1532  0.4525  0.1262
  568MOL0     C78283   3.181  12.342   9.036  1.1531 -0.7169 -0.6769
  568MOL0     C78284   3.287  12.459   9.032 -0.7184 -0.5992  0.0169
  568MOL0     C78285   3.256  12.549   8.914  0.7940  0.5668  0.0708
  568MOL0     C78286   3.358  12.656   8.886 -0.2491 -0.3566  0.1659
  568MOL0     C78287   3.339  12.721   8.750  0.5543 -0.0926  0.2527
  568MOL0     C78288   3.454  12.833   8.729 -0.2525 -0.2000 -0.7932
  568MOL0     C78289   3.450  12.898   8.587 -0.1614 -0.6679  0.4375
  568MOL0     C78290   3.587  12.951   8.544 -0.4496  0.2889 -0.2960
  568MOL0    Cl78291   3.569  12.973   8.358  0.3703 -0.1381 -0.3382
  568MOL0     C78292   2.819  12.356   9.058 -0.1960 -0.0759  0.0859
  568MOL0     C78293   2.707  12.280   9.033  0.2174 -0.2864 -0.7389
  568MOL0     O78294   2.654  11.995   8.798  0.3252 -0.2112 -0.6166
  568MOL0     C78295   2.336  12.013   8.972 -0.8877  0.2251  1.1333
  568MOL0     C78296   2.213  11.952   8.989 -0.7761 -0.0619 -0.0484
  568MOL0     N78297   1.837  11.477   9.428 -0.1814  0.6811  0.1781
  568MOL0     N78298   1.874  11.408   9.544  0.4804 -0.5231 -0.0981
  568MOL0     C78299   2.937  11.158  10.126 -0.3644 -0.6392  0.0649
  568MOL0     C78300   3.060  11.171  10.176 -0.8268 -0.2948 -0.4077
  568MOL0     C78301   3.482  11.256  10.307  0.7917  0.5738 -0.3189
  568MOL0     C78302   3.560  11.175  10.388 -0.8419  0.1606  0.1930
  568MOL0     C78303   3.685  11.219  10.436  0.6388  0.1850 -0.7250
  568MOL0     C78304   3.725  11.346  10.412  0.5109 -0.3250 -0.4074
  568MOL0     O78305   3.845  11.406  10.455 -0.5811  0.5833  0.4529
  568MOL0     C78306   3.908  11.368  10.573  0.4761  0.0414 -0.2635
  568MOL0     C78307   3.854  11.456  10.680 -0.1788  0.1635 -1.0565
  568MOL0     C78308   3.957  11.483  10.793  0.6715  0.9388 -0.6473
  568MOL0     C78309   3.989  11.349  10.859  0.3571  0.1860  0.5721
  568MOL0     C78310   4.010  11.356  11.008 -0.9753 -0.2260  0.4779
  568MOL0     C78311   4.021  11.347  11.128 -0.4766 -0.0790 -0.3079
  568MOL0     C78312   3.634  11.434  10.346  0.4862  0.1349 -0.7204
  568MOL0     C78313   3.514  11.387  10.293  0.8400 -0.6913 -0.1285
  568MOL0     C78314   3.443  11.491  10.209 -0.0749 -0.2881  0.2408
  568MOL0     H78315   3.243  11.145   9.890 -1.2916 -1.3643 -2.7631
  568MOL0     H78316   3.011  11.121   9.800  0.2498 -1.9857  0.7007
  568MOL0     H78317   2.647  11.084  10.083 -0.1845  0.7827 -1.4575
  568MOL0     H78318   2.765  10.967  10.068  1.6688  0.1982 -0.9899
  568MOL0     H78319   2.645  10.886   9.862  0.3994  1.7405 -0.9573
  568MOL0     H78320   2.526  10.938  10.006 -0.6417  2.6800  0.5569
  568MOL0     H78321   2.515  11.146   9.878  1.4961  0.0206  0.2456
  568MOL0     H78322   2.579  11.072   9.732  1.5287  1.2092  0.4965
  568MOL0     H78323   2.387  10.906   9.748 -1.9862  0.6721 -0.8815
  568MOL0     H78324   2.334  11.013   9.883 -0.3673  1.3534 -0.2536
  568MOL0     H78325   2.336  11.084   9.599  0.8785 -2.4003  1.4442
  568MOL0     H78326   2.341  11.218   9.708 -2.2977  1.1102 -1.4029
  568MOL0     H78327   2.140  10.983   9.746  1.5536 -0.2839 -4.2279
  568MOL0     H78328   2.144  11.136   9.837 -1.2248  0.2207 -0.1331
  568MOL0     H78329   1.974  11.114   9.649 -0.0028  0.2197  0.8743
  568MOL0     H78330   2.115  11.122   9.539  3.2224 -0.7003  1.0362
  568MOL0     H78331   2.055  11.341   9.733 -1.3060  1.4846 -1.9072
  568MOL0     H78332   2.183  11.342   9.610  0.7691 -1.1281  0.1820
  568MOL0     H78333   2.105  11.323   9.337  2.4269  0.5303  0.6785
  568MOL0     H78334   1.868  11.542   9.159 -0.7238 -0.3002 -0.6819
  568MOL0     H78335   1.931  11.380   9.132  0.2928 -2.5155  4.0969
  568MOL0     H78336   2.083  11.640   9.204 -1.1156  1.1118 -0.9830
  568MOL0     H78337   2.162  11.483   9.205  0.0296  1.3703 -0.6865
  568MOL0     H78338   2.194  11.582   8.995 -0.9279  5.6759  2.0139
  568MOL0     H78339   2.076  11.460   8.961  0.4314 -0.0758 -0.1258
  568MOL0     H78340   2.019  11.647   8.836  2.0817  2.6516  0.4504
  568MOL0     H78341   1.901  11.650   8.973 -1.4332 -0.1842 -2.8651
  568MOL0     H78342   2.231  11.690   8.787 -2.5466  0.6614 -0.7627
  568MOL0     H78343   2.421  11.676   8.674  2.8739 -1.8014 -0.6442
  568MOL0     H78344   2.568  11.707   8.779  0.0359  0.3183  0.2874
  568MOL0     H78345   2.525  11.807   8.638  0.6422 -1.7497 -1.0257
  568MOL0     H78346   2.852  11.975   9.011 -0.8089  0.2204 -1.1551
  568MOL0     H78347   3.053  12.117   9.012 -0.5650  0.6289 -0.7063
  568MOL0     H78348   3.209  12.259   9.101  1.4501  0.6166  0.9516
  568MOL0     H78349   3.168  12.313   8.931  1.5850 -0.3523 -0.8378
  568MOL0     H78350   3.281  12.506   9.130 -1.4153 -1.8664  0.6013
  568MOL0     H78351   3.385  12.415   9.011 -1.3775 -2.3050  0.3445
  568MOL0     H78352   3.164  12.602   8.938 -0.7431 -0.5828 -2.8938
  568MOL0     H78353   3.242  12.481   8.830 -1.9673  1.7458 -0.5137
  568MOL0     H78354   3.457  12.608   8.887 -0.4286 -0.7255  0.4857
  568MOL0     H78355   3.351  12.732   8.964 -0.6306  0.5369 -0.7115
  568MOL0     H78356   3.347  12.649   8.668  5.5815  0.7793 -0.3352
  568MOL0     H78357   3.241  12.768   8.750  1.3620  1.9471  3.7111
  568MOL0     H78358   3.548  12.780   8.745  0.7262  1.7444  0.1899
  568MOL0     H78359   3.439  12.918   8.796  1.2418  0.8469 -1.7423
  568MOL0     H78360   3.383  12.984   8.595  1.6566  1.0410 -1.3288
  568MOL0     H78361   3.418  12.837   8.502  0.1381  0.0982 -0.2431
  568MOL0     H78362   3.661  12.872   8.554  0.4082  0.9908 -0.9456
  568MOL0     H78363   3.628  13.043   8.587  2.6593 -1.2159  0.2747
  568MOL0     H78364   2.811  12.463   9.071 -1.1372  0.2108 -2.2926
  568MOL0     H78365   2.607  12.324   9.024 -0.0765 -0.6803  0.4474
  568MOL0     H78366   2.361  12.107   9.021 -2.5860  1.7267 -0.7286
  568MOL0     H78367   2.143  11.991   9.062 -2.9990 -1.5716 -1.2504
  568MOL0     H78368   2.850  11.180  10.186 -0.2946  0.4837 -0.2266
  568MOL0     H78369   3.064  11.191  10.282 -2.5070 -0.2803 -0.3177
  568MOL0     H78370   3.525  11.075  10.408  2.7771 -0.8569  2.3447
  568MOL0     H78371   3.738  11.146  10.497  1.3509 -0.1225 -1.6829
  568MOL0     H78372   3.897  11.264  10.605  0.6720  0.1964  0.3279
  568MOL0     H78373   4.014  11.390  10.564  0.0487  2.1080 -0.8229
  568MOL0     H78374   3.770  11.408  10.730  0.0407  2.7018  2.0587
  568MOL0     H78375   3.817  11.552  10.643  1.2900  1.9882  1.8422
  568MOL0     H78376   4.038  11.543  10.750  0.4630 -1.0534 -4.2105
  568MOL0     H78377   3.909  11.541  10.872 -1.0858 -0.6759 -0.4653
  568MOL0     H78378   4.080  11.307  10.815  0.9803  0.7444  1.3078
  568MOL0     H78379   3.907  11.280  10.835 -0.8556  1.2602  1.4791
  568MOL0     H78380   4.023  11.338  11.235 -1.2919 -0.4003 -0.3132
  568MOL0     H78381   3.664  11.537  10.331  0.2418  0.5249  1.2132
  568MOL0     H78382   3.420  11.576  10.273  0.0233  1.0742 -1.4417
  568MOL0     H78383   3.503  11.528  10.124 -0.8944  0.2385 -0.1166
  568MOL0     H78384   3.351  11.444  10.174  1.5079 -2.8972 -0.7729
  569MOL0     O78385   4.625   8.242   6.566 -0.1555  1.0265  0.2056
  569MOL0     C78386   4.518   8.280   6.609  0.6827  0.6542 -0.5420
  569MOL0     O78387   4.443   8.215   6.709 -0.4024 -0.5613  1.1567
  569MOL0     C78388   4.519   8.147   6.799  0.1613  0.7997  0.4279
  569MOL0     C78389   4.520   8.191   6.927 -0.7306  0.1649 -0.3112
  569MOL0     C78390   4.573   8.108   7.026  0.3259 -0.5724  0.2628
  569MOL0     C78391   4.632   7.984   6.999 -0.1803 -0.3119  0.8535
  569MOL0     O78392   4.700   7.911   7.099  0.0763  0.4735 -0.1067
  569MOL0     C78393   4.768   7.986   7.199 -0.6308  1.0790 -0.2450
  569MOL0     C78394   4.848   7.877   7.273  0.0094 -0.7384 -0.2271
  569MOL0     C78395   4.951   7.945   7.364  0.7977  0.4709 -0.4698
  569MOL0     C78396   5.047   7.835   7.399  0.2219 -0.3280 -0.1551
  569MOL0     C78397   5.141   7.884   7.516  0.4832  0.0535 -0.1508
  569MOL0     C78398   5.236   7.781   7.575  0.0961  0.5471  0.7281
  569MOL0     C78399   5.316   7.820   7.693 -0.0675 -0.2210 -0.0080
  569MOL0     C78400   5.371   7.710   7.783  0.8378  0.6310 -0.6451
  569MOL0     N78401   5.254   7.669   7.873 -0.2246  0.0464  0.6647
  569MOL0     C78402   5.215   7.705   8.002  1.7058 -0.2616 -0.0013
  569MOL0     C78403   5.122   7.617   8.051  0.7474 -0.9138 -0.0361
  569MOL0     C78404   5.058   7.615   8.187  0.2353 -0.1086 -0.0048
  569MOL0     C78405   5.017   7.478   8.227  0.7669  1.4097  0.2064
  569MOL0     C78406   5.136   7.405   8.287  0.4837  0.8491  0.4183
  569MOL0     C78407   5.088   7.268   8.333  0.1567  0.0434  0.0042
  569MOL0     O78408   5.194   7.176   8.366  0.4508 -0.7552  0.2589
  569MOL0     C78409   5.148   7.056   8.418 -0.4583  0.2427 -0.3742
  569MOL0     C78410   5.246   6.948   8.427  0.6247 -0.6888 -0.3089
  569MOL0     C78411   5.220   6.820   8.473  0.5827  0.1125 -1.0580
  569MOL0     C78412   5.336   6.724   8.485 -0.3841 -0.2618  0.7473
  569MOL0     C78413   5.078   6.785   8.509 -1.2082  0.5514 -0.3632
  569MOL0     C78414   5.042   6.666   8.600  0.0361  0.4340  0.1317
  569MOL0     O78415   5.148   6.615   8.650  0.1192 -0.1632 -0.2631
  569MOL0     C78416   5.140   6.541   8.763 -0.7615 -0.2039  0.4253
  569MOL0     C78417   5.196   6.592   8.883 -0.2118  0.4304 -0.2347
  569MOL0     C78418   5.209   6.519   8.998 -0.0374 -0.6977  0.1201
  569MOL0     C78419   5.155   6.398   9.012  1.1857 -0.4701 -0.0491
  569MOL0     O78420   5.153   6.340   9.138 -0.0137 -0.1883  0.8205
  569MOL0     C78421   5.175   6.195   9.130 -0.4446  0.0436 -0.0695
  569MOL0     C78422   5.264   6.161   9.252 -0.9487  0.5412  0.5090
  569MOL0     C78423   5.316   6.023   9.242  0.3753 -0.2605  0.5452
  569MOL0     C78424   5.358   5.956   9.368  0.5685 -0.1079  0.4218
  569MOL0     C78425   5.381   5.803   9.369 -0.0639  0.7952 -0.3316
  569MOL0     C78426   5.489   5.765   9.257 -0.2863 -0.2787  0.8442
  569MOL0     C78427   5.490   5.610   9.227 -0.2003  0.0999 -0.7276
  569MOL0     C78428   5.620   5.560   9.186  0.5004 -0.0106  0.0912
  569MOL0    Cl78429   5.741   5.548   9.319  0.3085 -0.5315  0.0792
  569MOL0     C78430   5.090   6.343   8.899  0.6200  0.5333 -0.2305
  569MOL0     C78431   5.085   6.412   8.777 -0.8288 -0.1979 -0.0003
  569MOL0     O78432   4.925   6.641   8.628  0.2660  0.1631  0.4246
  569MOL0     C78433   4.982   6.890   8.503 -0.0006 -0.1036  0.1204
  569MOL0     C78434   5.017   7.015   8.453  0.3431  0.6984  0.5386
  569MOL0     N78435   5.083   7.547   7.942  0.1955  0.2352  0.0746
  569MOL0     N78436   5.159   7.578   7.839 -0.4303 -0.0202 -0.0520
  569MOL0     C78437   4.642   7.939   6.871 -0.0014 -0.0287  0.4641
  569MOL0     C78438   4.584   8.017   6.770  0.0695  0.1065 -0.2301
  569MOL0     C78439   4.445   8.396   6.558  0.8153 -0.8981 -0.2629
  569MOL0     C78440   4.299   8.414   6.581 -0.6520 -0.1424 -0.4210
  569MOL0     C78441   4.229   8.518   6.515 -1.3233  0.1651 -0.4127
  569MOL0     C78442   4.294   8.615   6.440  0.1374  0.2953  0.5020
  569MOL0     O78443   4.221   8.726   6.424  0.6163  0.1404  0.0176
  569MOL0     C78444   4.265   8.802   6.307 -0.0442  0.7287  0.4073
  569MOL0     C78445   4.171   8.911   6.276  0.3785 -0.0311  0.5092
  569MOL0     C78446   4.188   9.033   6.362  0.4024  0.0970  0.2800
  569MOL0     C78447   4.120   9.010   6.502  0.0577  1.1123  0.2737
  569MOL0     C78448   4.123   9.136   6.574 -0.0935 -0.2191  0.5942
  569MOL0     C78449   4.130   9.244   6.636  0.2335  0.1366  0.5835
  569MOL0     C78450   4.432   8.604   6.433 -1.3856 -0.2707 -0.8784
  569MOL0     C78451   4.501   8.493   6.476  0.0300 -0.3889 -1.6151
  569MOL0     C78452   4.647   8.498   6.455 -0.0628 -0.5618  0.0800
  569MOL0     H78453   4.476   8.288   6.949  1.2735  1.4526 -1.7309
  569MOL0     H78454   4.554   8.136   7.130 -3.1499  1.2653 -0.6997
  569MOL0     H78455   4.689   8.029   7.261 -3.1040 -0.1970 -2.3065
  569MOL0     H78456   4.826   8.072   7.163 -0.7263  2.4517  2.5935
  569MOL0     H78457   4.793   7.813   7.343 -0.8946  0.4099  0.1379
  569MOL0     H78458   4.907   7.823   7.198 -1.1982 -1.4418 -0.7008
  569MOL0     H78459   5.002   8.019   7.303  1.9255  0.7281  0.7281
  569MOL0     H78460   4.902   7.994   7.449 -0.6513  0.9842 -1.5640
  569MOL0     H78461   4.987   7.753   7.439 -0.0850 -1.5111 -2.8188
  569MOL0     H78462   5.100   7.802   7.309  3.4526  0.0326  1.4484
  569MOL0     H78463   5.076   7.918   7.597 -1.3857 -4.9799  0.8531
  569MOL0     H78464   5.198   7.967   7.474 -1.6665  1.5472 -0.2421
  569MOL0     H78465   5.173   7.693   7.595  1.1334 -0.4232 -0.1479
  569MOL0     H78466   5.298   7.743   7.494  0.3269 -0.9139  1.5422
  569MOL0     H78467   5.242   7.867   7.758 -0.5867  0.2817 -0.9318
  569MOL0     H78468   5.389   7.896   7.665  0.8820 -1.1856 -0.1942
  569MOL0     H78469   5.417   7.623   7.736 -0.6668  1.1768 -3.3264
  569MOL0     H78470   5.443   7.763   7.846 -0.3140  0.4441  0.8881
  569MOL0     H78471   5.256   7.791   8.053  0.7474  0.0774  0.2177
  569MOL0     H78472   4.970   7.679   8.189  0.3680  0.2508 -2.7856
  569MOL0     H78473   5.125   7.658   8.262  1.8631 -1.4291 -0.6318
  569MOL0     H78474   4.941   7.479   8.306  0.7267  0.5079  0.1841
  569MOL0     H78475   4.990   7.415   8.142  1.9464  1.8231 -0.4926
  569MOL0     H78476   5.207   7.374   8.210 -1.9445 -0.7772 -1.3686
  569MOL0     H78477   5.177   7.466   8.367  1.3102  1.9382 -0.7994
  569MOL0     H78478   5.027   7.279   8.423  0.9893  1.8260  0.3934
  569MOL0     H78479   5.035   7.222   8.249  1.8432 -0.9704 -0.5604
  569MOL0     H78480   5.346   6.969   8.390  0.3353  1.7287  0.1476
  569MOL0     H78481   5.304   6.621   8.464 -3.3984  0.6525  0.4302
  569MOL0     H78482   5.379   6.732   8.585  3.7620  0.7646 -0.8662
  569MOL0     H78483   5.419   6.760   8.423  0.7354  2.4247  3.5520
  569MOL0     H78484   5.232   6.694   8.878  1.9461 -0.0670  2.5850
  569MOL0     H78485   5.234   6.584   9.082  0.8505  0.2917 -0.8691
  569MOL0     H78486   5.082   6.137   9.132 -1.5022  1.7080  1.2506
  569MOL0     H78487   5.217   6.166   9.034  0.8903  4.9678 -1.2501
  569MOL0     H78488   5.344   6.235   9.249 -3.3647  3.3308 -1.3247
  569MOL0     H78489   5.213   6.157   9.349 -0.3496 -1.9223  0.7776
  569MOL0     H78490   5.385   6.019   9.157 -0.4895  2.2764 -0.3527
  569MOL0     H78491   5.229   5.964   9.211 -0.8771  1.4704  0.6686
  569MOL0     H78492   5.295   5.973   9.455  0.1773  1.2336 -0.0922
  569MOL0     H78493   5.453   6.003   9.396 -0.5346  3.2600 -0.9811
  569MOL0     H78494   5.416   5.776   9.469 -1.3333  1.1410  0.2255
  569MOL0     H78495   5.288   5.753   9.341  0.9051 -1.1011 -0.3655
  569MOL0     H78496   5.594   5.791   9.270  0.1604  0.5712 -3.1010
  569MOL0     H78497   5.459   5.794   9.156  0.9303  2.6143  1.2414
  569MOL0     H78498   5.424   5.592   9.142  3.4881 -2.1635 -3.3760
  569MOL0     H78499   5.456   5.557   9.317  1.7928  0.3036  0.2145
  569MOL0     H78500   5.671   5.627   9.116 -1.7285  3.4801  1.4838
  569MOL0     H78501   5.609   5.455   9.160  0.7490  0.3748 -1.7176
  569MOL0     H78502   5.059   6.240   8.913  2.2354  0.0160 -0.1972
  569MOL0     H78503   5.058   6.356   8.688 -1.2744 -2.7054  1.6194
  569MOL0     H78504   4.883   6.866   8.541  1.3857 -2.1043  2.8577
  569MOL0     H78505   4.941   7.092   8.440 -0.0187  0.0629 -1.5575
  569MOL0     H78506   4.705   7.856   6.843  0.5746  0.4401  0.3532
  569MOL0     H78507   4.580   7.982   6.668  1.4153  1.5207 -0.8004
  569MOL0     H78508   4.247   8.346   6.648  0.0106 -0.4448 -0.2032
  569MOL0     H78509   4.121   8.518   6.523 -1.5831 -0.9053 -2.8257
  569MOL0     H78510   4.361   8.853   6.307 -1.0040  3.0252 -4.1455
  569MOL0     H78511   4.274   8.730   6.225  0.8216  1.8681 -0.5201
  569MOL0     H78512   4.073   8.862   6.276  1.2331 -1.8234  0.1847
  569MOL0     H78513   4.187   8.939   6.171 -0.4601 -0.6946  0.1966
  569MOL0     H78514   4.293   9.061   6.371  0.7690  0.0887 -2.9773
  569MOL0     H78515   4.129   9.113   6.317 -2.3508 -1.7684  0.3256
  569MOL0     H78516   4.173   8.935   6.561  0.8095  1.0303 -0.4844
  569MOL0     H78517   4.019   8.967   6.501  0.3459  0.4179  0.0329
  569MOL0     H78518   4.144   9.330   6.698 -2.7638 -0.2448  1.9880
  569MOL0     H78519   4.494   8.683   6.391 -1.7195  0.5454  0.1120
  569MOL0     H78520   4.686   8.419   6.390 -2.3482 -0.8502 -1.0441
  569MOL0     H78521   4.682   8.592   6.410  1.2582 -0.7601  0.6584
  569MOL0     H78522   4.703   8.489   6.548 -0.3220  0.5293  0.3581
  570MOL0     O78523   7.325   4.033   0.419  0.0746 -0.0068 -0.0705
  570MOL0     C78524   7.379   3.943   0.481  0.1725  0.0246 -0.8663
  570MOL0     O78525   7.505   3.891   0.448  0.5320  0.5056  0.0729
  570MOL0     C78526   7.567   3.929   0.336 -0.4174  0.3425  0.0303
  570MOL0     C78527   7.579   3.837   0.231  0.7736  1.0046  0.0752
  570MOL0     C78528   7.633   3.890   0.106 -0.0678 -0.1143  0.5260
  570MOL0     C78529   7.679   4.022   0.100  0.1565 -0.2889  0.4427
  570MOL0     O78530   7.731   4.093  -0.012 -0.3068 -0.4203  0.1282
  570MOL0     C78531   7.751   4.009  -0.132  0.3073 -0.4267 -0.6591
  570MOL0     C78532   7.830   4.083  -0.241 -0.4386  0.1940 -0.5336
  570MOL0     C78533   7.987   4.093  -0.197  0.3836 -0.0543  1.4587
  570MOL0     C78534   8.063   4.115  -0.333  0.4029 -0.0531  0.2006
  570MOL0     C78535   8.216   4.134  -0.309 -0.6517 -0.2252  0.4788
  570MOL0     C78536   8.289   4.179  -0.439  0.0643 -0.3535 -0.3680
  570MOL0     C78537   8.295   4.057  -0.526 -0.1564  0.4625  0.3269
  570MOL0     C78538   8.408   4.067  -0.635 -0.2097  0.6814  0.2470
  570MOL0     N78539   8.362   4.143  -0.748  0.3475 -0.6239  0.3825
  570MOL0     C78540   8.346   4.281  -0.752  0.1181  0.0169 -0.4780
  570MOL0     C78541   8.355   4.314  -0.881 -0.1450  0.8712  0.4233
  570MOL0     C78542   8.366   4.455  -0.937 -0.7313  0.2684 -0.4619
  570MOL0     C78543   8.510   4.486  -0.972 -0.5428  0.8108 -0.4399
  570MOL0     C78544   8.517   4.641  -0.972 -0.0639  0.7515 -0.0933
  570MOL0     C78545   8.623   4.694  -1.061 -0.8488 -1.0963  0.4071
  570MOL0     O78546   8.605   4.837  -1.062 -0.5098  0.2638 -0.0050
  570MOL0     C78547   8.545   4.883  -1.179  0.5061  0.1491 -0.3728
  570MOL0     C78548   8.418   4.926  -1.174 -0.4606  0.1058  0.6551
  570MOL0     C78549   8.351   4.977  -1.283  0.4154 -0.4387  0.4800
  570MOL0     C78550   8.203   5.004  -1.269 -0.5760  0.2090  0.2014
  570MOL0     C78551   8.426   4.998  -1.399  0.2229 -0.1416  0.4158
  570MOL0     C78552   8.368   5.052  -1.522  0.1506 -0.3645  0.3285
  570MOL0     O78553   8.433   4.996  -1.637  0.2866  0.1247 -0.4530
  570MOL0     C78554   8.415   5.057  -1.761  0.5203  0.7821  0.0239
  570MOL0     C78555   8.445   5.190  -1.789 -0.0052 -0.4218  0.5685
  570MOL0     C78556   8.424   5.246  -1.917  0.6836  0.8755 -0.2849
  570MOL0     C78557   8.390   5.155  -2.022 -0.8532  0.4044 -0.0005
  570MOL0     O78558   8.376   5.194  -2.147 -0.5933 -0.2247  0.2522
  570MOL0     C78559   8.291   5.302  -2.174  0.3971  0.4939 -0.2093
  570MOL0     C78560   8.146   5.277  -2.146  0.3487 -0.1577 -0.0539
  570MOL0     C78561   8.088   5.163  -2.219  0.2646 -0.4469 -0.1332
  570MOL0     C78562   8.030   5.203  -2.359 -0.0790  0.1825 -0.3547
  570MOL0     C78563   7.955   5.078  -2.403 -0.2446  0.0277  0.3273
  570MOL0     C78564   7.939   5.096  -2.549  0.1594  0.2560  0.1009
  570MOL0     C78565   7.848   4.985  -2.603  0.1412  0.3563 -0.2601
  570MOL0     C78566   7.822   4.988  -2.758 -0.1382 -0.0853  0.5099
  570MOL0    Cl78567   7.718   5.130  -2.812  0.1034 -0.3992  0.2061
  570MOL0     C78568   8.374   5.021  -1.997 -0.2831  0.1357 -1.0556
  570MOL0     C78569   8.380   4.968  -1.866  0.3046 -0.2704 -0.4227
  570MOL0     O78570   8.277   5.132  -1.529  0.5735  0.4565  0.1295
  570MOL0     C78571   8.560   4.963  -1.402 -0.1341  0.7003 -0.9001
  570MOL0     C78572   8.615   4.887  -1.299 -0.3311 -1.4022 -0.2103
  570MOL0     N78573   8.370   4.199  -0.960  1.1911 -0.6139  0.1859
  570MOL0     N78574   8.378   4.102  -0.882 -0.0282  0.8776 -0.2649
  570MOL0     C78575   7.692   4.088   0.221 -0.6680  0.5719  0.5970
  570MOL0     C78576   7.627   4.056   0.339  1.0282 -0.4133  1.4505
  570MOL0     C78577   7.311   3.871   0.595  0.5035 -0.5482  0.8242
  570MOL0     C78578   7.353   3.745   0.642 -0.2687  0.4875  0.4489
  570MOL0     C78579   7.300   3.666   0.737  0.1055  0.4297  1.0336
  570MOL0     C78580   7.186   3.709   0.808 -0.0637  0.1357  0.8382
  570MOL0     O78581   7.130   3.619   0.897 -0.6064  0.2960 -0.9726
  570MOL0     C78582   7.002   3.650   0.938  0.2308 -0.7134 -0.4590
  570MOL0     C78583   6.917   3.521   0.965  0.0822 -0.0471  0.5974
  570MOL0     C78584   6.773   3.554   1.024 -0.1443  0.2911 -0.6967
  570MOL0     C78585   6.664   3.438   1.029 -0.0825 -0.0477  0.3238
  570MOL0     C78586   6.680   3.341   1.135 -0.4391 -0.0227  0.0074
  570MOL0     C78587   6.671   3.248   1.212  0.1175  0.4078  0.0037
  570MOL0     C78588   7.137   3.833   0.768  0.1724  0.6031 -0.9171
  570MOL0     C78589   7.199   3.925   0.673 -0.0848  2.0081 -0.1510
  570MOL0     C78590   7.147   4.070   0.668  0.3583  0.9189  0.8307
  570MOL0     H78591   7.547   3.735   0.248 -2.5422  2.1367  1.4857
  570MOL0     H78592   7.629   3.830   0.016 -1.2331  2.1464 -1.0422
  570MOL0     H78593   7.656   3.977  -0.177  0.9499  1.5104 -3.7460
  570MOL0     H78594   7.815   3.926  -0.104  2.4861  1.3336 -0.1374
  570MOL0     H78595   7.811   4.034  -0.337  0.4549 -0.6731 -0.2700
  570MOL0     H78596   7.781   4.181  -0.251  2.3982  1.5982 -2.0602
  570MOL0     H78597   7.997   4.176  -0.127  0.3732  1.5141 -0.3293
  570MOL0     H78598   8.030   4.000  -0.159  0.2231 -0.9565 -0.4437
  570MOL0     H78599   8.045   4.033  -0.403 -0.3960  0.4068 -0.1487
  570MOL0     H78600   8.019   4.208  -0.369  1.3935  0.9129  1.3699
  570MOL0     H78601   8.250   4.036  -0.274 -0.6794  0.0777  1.3801
  570MOL0     H78602   8.234   4.202  -0.226 -0.7551 -0.1944  0.4761
  570MOL0     H78603   8.234   4.256  -0.494 -2.0874 -1.9701 -0.6055
  570MOL0     H78604   8.389   4.215  -0.414  0.4046 -2.8130  2.2729
  570MOL0     H78605   8.203   4.039  -0.583  0.9204 -0.9718 -1.0873
  570MOL0     H78606   8.310   3.966  -0.467  0.6266 -0.5893 -1.3935
  570MOL0     H78607   8.495   4.123  -0.599  0.2967 -0.0240  0.1557
  570MOL0     H78608   8.451   3.972  -0.670  2.0814  1.9851 -0.6354
  570MOL0     H78609   8.353   4.346  -0.665  0.3540 -0.4124 -0.1695
  570MOL0     H78610   8.339   4.523  -0.856 -0.9871 -1.8771  1.3618
  570MOL0     H78611   8.304   4.461  -1.027 -0.8428  0.2590 -0.3857
  570MOL0     H78612   8.569   4.433  -0.897 -2.0696  1.4773  1.3108
  570MOL0     H78613   8.535   4.446  -1.070 -0.5921  2.1262 -1.0123
  570MOL0     H78614   8.421   4.670  -1.016 -1.3571 -2.5675  0.2376
  570MOL0     H78615   8.545   4.672  -0.871 -0.8594 -1.8534  1.0172
  570MOL0     H78616   8.726   4.664  -1.040  0.1330 -0.4445 -2.8871
  570MOL0     H78617   8.606   4.663  -1.164 -1.0872  6.4273 -2.5050
  570MOL0     H78618   8.367   4.911  -1.079 -0.1728 -0.5434  0.7056
  570MOL0     H78619   8.145   4.947  -1.342 -2.2495  2.6475 -0.5078
  570MOL0     H78620   8.184   5.111  -1.279 -0.9041  0.0895 -0.4898
  570MOL0     H78621   8.172   4.979  -1.167 -1.6138  1.0451  0.1001
  570MOL0     H78622   8.461   5.270  -1.717 -5.2219  2.2864 -0.7200
  570MOL0     H78623   8.425   5.352  -1.939 -1.3007  0.9163 -0.3852
  570MOL0     H78624   8.322   5.392  -2.119 -1.6526  1.6361 -0.8275
  570MOL0     H78625   8.304   5.321  -2.281  3.3741  3.5506  0.5226
  570MOL0     H78626   8.129   5.265  -2.039 -2.7098  2.2250 -0.1272
  570MOL0     H78627   8.090   5.366  -2.175 -0.8587 -1.4876 -2.0766
  570MOL0     H78628   7.999   5.129  -2.166 -1.3554  1.9676 -1.1501
  570MOL0     H78629   8.155   5.077  -2.231 -0.3780 -0.9846  0.0546
  570MOL0     H78630   8.115   5.242  -2.415  1.7199  1.1778  2.8187
  570MOL0     H78631   7.963   5.288  -2.340  3.3311  2.4653  3.0020
  570MOL0     H78632   8.003   4.981  -2.398 -0.3019  0.0202  0.8058
  570MOL0     H78633   7.866   5.053  -2.344  0.2199 -1.2377  0.5104
  570MOL0     H78634   8.029   5.085  -2.609 -1.0157 -2.4688 -1.3122
  570MOL0     H78635   7.890   5.193  -2.562 -0.1074  0.4359  2.0451
  570MOL0     H78636   7.748   4.989  -2.559 -0.7415 -0.7094 -2.0408
  570MOL0     H78637   7.875   4.882  -2.576 -1.4080  0.1361  0.5367
  570MOL0     H78638   7.765   4.898  -2.781 -0.5635  0.1306  0.7141
  570MOL0     H78639   7.919   4.983  -2.809 -0.6173  1.1926 -0.6110
  570MOL0     H78640   8.355   4.964  -2.087 -1.1196  0.7625 -1.2844
  570MOL0     H78641   8.348   4.867  -1.844 -0.0140 -0.7221 -2.6596
  570MOL0     H78642   8.625   4.985  -1.486  0.0525 -1.1509 -1.2777
  570MOL0     H78643   8.716   4.848  -1.302  1.4541  2.4630  1.6626
  570MOL0     H78644   7.725   4.192   0.216  0.2779  0.2304 -1.0096
  570MOL0     H78645   7.618   4.132   0.416 -0.4185  0.1405  0.7739
  570MOL0     H78646   7.424   3.685   0.586 -0.6904  0.8867 -0.5472
  570MOL0     H78647   7.354   3.572   0.743 -0.4311  0.1036  0.8535
  570MOL0     H78648   7.016   3.702   1.033 -1.9760 -0.7626 -0.0427
  570MOL0     H78649   6.953   3.714   0.865  1.5981  0.5825 -0.2815
  570MOL0     H78650   6.973   3.464   1.040 -0.9349 -1.5910  0.2372
  570MOL0     H78651   6.913   3.467   0.870  1.5990  2.0874 -0.7747
  570MOL0     H78652   6.796   3.582   1.127  0.8265 -0.6764 -0.6222
  570MOL0     H78653   6.729   3.630   0.960 -2.1034  0.3166  0.6071
  570MOL0     H78654   6.657   3.386   0.933  1.5005  2.1753 -1.0919
  570MOL0     H78655   6.569   3.488   1.048  0.5990  1.5738 -0.3685
  570MOL0     H78656   6.661   3.167   1.283 -1.5145 -0.4007 -1.0784
  570MOL0     H78657   7.054   3.881   0.820  0.2426 -1.4265  1.2795
  570MOL0     H78658   7.056   4.077   0.607  1.5636 -0.0811 -1.2028
  570MOL0     H78659   7.137   4.093   0.774  1.8680 -0.0495  1.2172
  570MOL0     H78660   7.217   4.137   0.617 -0.0911  0.2338 -0.7370
  571MOL0     O78661   9.247   6.099   9.891 -0.5979 -1.0020  0.1102
  571MOL0     C78662   9.226   5.987   9.847 -0.1441 -0.0271  0.7435
  571MOL0     O78663   9.322   5.900   9.805  0.3703 -0.3828  0.5391
  571MOL0     C78664   9.456   5.931   9.817  0.1377 -0.2435  0.4444
  571MOL0     C78665   9.537   5.892   9.926 -0.1233  1.0609 -0.3127
  571MOL0     C78666   9.677   5.918   9.915 -0.7734  0.2837  0.0212
  571MOL0     C78667   9.740   5.983   9.801  0.4705 -0.4418 -0.2436
  571MOL0     O78668   9.883   6.007   9.794  0.1411 -0.9084  0.1277
  571MOL0     C78669   9.968   5.890   9.796 -0.1000  0.2256 -0.6189
  571MOL0     C78670  10.113   5.931   9.796 -0.1082 -0.2686  0.1548
  571MOL0     C78671  10.152   5.998   9.657 -0.3035 -0.5756  0.1335
  571MOL0     C78672  10.297   6.053   9.648 -0.1558  0.0553  0.1239
  571MOL0     C78673  10.308   6.144   9.523 -0.6093  0.2076 -0.2809
  571MOL0     C78674  10.445   6.204   9.511  0.1446 -0.6668  0.7940
  571MOL0     C78675  10.477   6.211   9.360  0.2429  0.0793 -0.7168
  571MOL0     C78676  10.551   6.335   9.315  0.1751 -0.3698  0.0878
  571MOL0     N78677  10.688   6.354   9.372 -0.6680  0.5819  0.6114
  571MOL0     C78678  10.718   6.372   9.504 -0.0961  1.1343  0.1045
  571MOL0     C78679  10.853   6.357   9.511  0.4584  0.3396 -0.0687
  571MOL0     C78680  10.925   6.367   9.631 -0.4722  0.2503 -0.8285
  571MOL0     C78681  11.064   6.423   9.596 -0.5265  0.0172 -0.2691
  571MOL0     C78682  11.172   6.430   9.711 -0.1034  0.1350 -0.2453
  571MOL0     C78683  11.299   6.503   9.666  0.3606  0.5326 -0.4763
  571MOL0     O78684  11.391   6.499   9.771 -0.3658 -0.1876  0.2021
  571MOL0     C78685  11.521   6.527   9.725 -0.1959 -0.5876 -0.1229
  571MOL0     C78686  11.556   6.626   9.634 -1.1233 -0.8295  0.0011
  571MOL0     C78687  11.685   6.642   9.589 -0.2298 -0.5869  0.5712
  571MOL0     C78688  11.696   6.730   9.467  0.0598 -0.0857 -0.8713
  571MOL0     C78689  11.790   6.562   9.644  0.1946  0.1943  0.0314
  571MOL0     C78690  11.932   6.554   9.605  0.5720 -0.5531  0.3614
  571MOL0     O78691  12.020   6.481   9.690  0.3238  0.3769  1.3032
  571MOL0     C78692  12.147   6.475   9.661 -0.0710 -0.6181  0.2670
  571MOL0     C78693  12.235   6.528   9.754 -0.2621 -0.2123 -0.5094
  571MOL0     C78694  12.372   6.508   9.750  0.0890 -0.4001  0.1876
  571MOL0     C78695  12.412   6.436   9.641 -1.0516  1.1533  0.4831
  571MOL0     O78696  12.550   6.410   9.627 -0.0982 -0.5051 -0.3563
  571MOL0     C78697  12.606   6.500   9.528 -0.3982  0.3343 -0.2270
  571MOL0     C78698  12.691   6.415   9.431 -0.7516  0.4689 -0.0652
  571MOL0     C78699  12.771   6.498   9.325 -0.1286  0.0048  0.0268
  571MOL0     C78700  12.917   6.523   9.374 -0.1617 -0.7222  0.4292
  571MOL0     C78701  12.983   6.609   9.267 -0.6990 -0.3830  1.0962
  571MOL0     C78702  13.126   6.645   9.321  0.5506 -0.4615  0.0762
  571MOL0     C78703  13.205   6.721   9.212  0.3454  0.3631 -0.4758
  571MOL0     C78704  13.176   6.699   9.066 -0.0261  0.1098  0.0055
  571MOL0    Cl78705  13.314   6.773   8.982 -0.1452 -0.2288 -0.1448
  571MOL0     C78706  12.326   6.376   9.538 -0.1614 -0.7248 -0.8434
  571MOL0     C78707  12.187   6.395   9.557 -1.3901 -0.1866 -0.2798
  571MOL0     O78708  11.959   6.604   9.495  0.7709 -0.6479  0.4234
  571MOL0     C78709  11.752   6.476   9.749 -0.0355  0.4155  0.0322
  571MOL0     C78710  11.624   6.464   9.794  0.2838 -0.3743  0.4675
  571MOL0     N78711  10.896   6.316   9.387 -0.3016  0.3608  0.1865
  571MOL0     N78712  10.803   6.313   9.301 -0.8241  0.2022 -0.4255
  571MOL0     C78713   9.649   6.030   9.708 -0.2748 -0.0111  0.6301
  571MOL0     C78714   9.508   5.995   9.706 -0.3543 -0.2450  0.1471
  571MOL0     C78715   9.086   5.937   9.845  0.4432 -0.5842 -0.4432
  571MOL0     C78716   9.056   5.796   9.838 -0.0772  0.9757  0.1619
  571MOL0     C78717   8.930   5.738   9.825  0.6394 -0.1868  0.6196
  571MOL0     C78718   8.814   5.814   9.808  0.8803 -0.3919  0.6594
  571MOL0     O78719   8.690   5.768   9.794  0.6014  0.6295  0.4364
  571MOL0     C78720   8.654   5.650   9.712  0.1478 -0.9371  0.0831
  571MOL0     C78721   8.706   5.661   9.569 -0.1678  0.7591  0.7933
  571MOL0     C78722   8.614   5.571   9.470 -1.1241 -0.7566 -0.3522
  571MOL0     C78723   8.678   5.587   9.329  0.5452 -0.3519 -0.6786
  571MOL0     C78724   8.816   5.524   9.315  0.4875 -0.0988 -0.3784
  571MOL0     C78725   8.920   5.467   9.299 -0.5917 -1.2799  0.0234
  571MOL0     C78726   8.831   5.952   9.821  0.5002  0.3211 -0.4837
  571MOL0     C78727   8.963   6.016   9.844 -0.1384 -0.1599  0.5803
  571MOL0     C78728   8.963   6.162   9.848 -0.6815 -0.4922 -0.2839
  571MOL0     H78729   9.490   5.853  10.016 -0.9828 -0.1311 -1.2255
  571MOL0     H78730   9.738   5.905  10.004 -0.7368  0.5620  0.0373
  571MOL0     H78731   9.952   5.810   9.723 -3.1620 -2.8342  2.9677
  571MOL0     H78732   9.940   5.838   9.888 -0.5190 -0.1538 -0.9515
  571MOL0     H78733  10.134   5.995   9.882  0.3032  0.6740 -0.6116
  571MOL0     H78734  10.171   5.839   9.802 -2.4511 -1.8249 -0.0945
  571MOL0     H78735  10.142   5.927   9.575 -0.6956 -1.7659  1.1811
  571MOL0     H78736  10.087   6.084   9.640 -1.3537 -0.0668  5.0507
  571MOL0     H78737  10.320   6.121   9.730 -1.5465  1.7379 -0.7944
  571MOL0     H78738  10.363   5.966   9.654  3.0209  2.3167  0.2933
  571MOL0     H78739  10.238   6.228   9.532  1.0632  1.7802 -1.1943
  571MOL0     H78740  10.282   6.080   9.438  0.5420 -1.4744  0.5757
  571MOL0     H78741  10.447   6.302   9.559  0.9904  1.0389 -2.4246
  571MOL0     H78742  10.521   6.135   9.548  0.5984 -0.1444  0.8531
  571MOL0     H78743  10.384   6.206   9.303  0.3494 -0.3700 -0.8515
  571MOL0     H78744  10.538   6.124   9.336 -1.7015 -1.7313  0.5636
  571MOL0     H78745  10.571   6.336   9.207 -3.3246  0.6836 -0.6599
  571MOL0     H78746  10.494   6.425   9.338  2.4266  1.2657 -0.3046
  571MOL0     H78747  10.658   6.407   9.587  2.3231 -2.2963  3.6472
  571MOL0     H78748  10.923   6.277   9.694 -1.8395 -0.3006 -1.6079
  571MOL0     H78749  10.863   6.432   9.693 -1.4526  0.0737 -1.5943
  571MOL0     H78750  11.105   6.352   9.524 -0.1417 -0.0268 -0.0128
  571MOL0     H78751  11.050   6.521   9.551  0.1328  0.8608  1.2764
  571MOL0     H78752  11.119   6.493   9.784 -1.7449  1.3549 -2.3766
  571MOL0     H78753  11.203   6.334   9.753  4.4155  0.3127 -2.6290
  571MOL0     H78754  11.348   6.444   9.588  1.3486 -1.4527  1.5287
  571MOL0     H78755  11.276   6.607   9.642 -1.4852  0.4749  0.8522
  571MOL0     H78756  11.480   6.675   9.574  0.5760  1.9585 -0.0305
  571MOL0     H78757  11.605   6.790   9.464  0.5317  0.6395 -0.8346
  571MOL0     H78758  11.707   6.669   9.376 -3.1463 -1.9753 -0.1457
  571MOL0     H78759  11.778   6.801   9.480  0.2438 -0.4576  0.0048
  571MOL0     H78760  12.200   6.587   9.838 -2.2933  0.0686 -1.4925
  571MOL0     H78761  12.436   6.534   9.834  1.2911 -0.3301 -0.7171
  571MOL0     H78762  12.537   6.561   9.470  1.9004 -0.6494 -4.4042
  571MOL0     H78763  12.674   6.570   9.578 -2.1225  2.7391 -1.0728
  571MOL0     H78764  12.764   6.347   9.475  2.1437  1.4935 -2.8699
  571MOL0     H78765  12.617   6.350   9.383  0.2246 -0.7772  0.0656
  571MOL0     H78766  12.724   6.594   9.301 -2.8461 -0.5053  2.6680
  571MOL0     H78767  12.791   6.435   9.238 -2.2243 -0.5685 -0.0742
  571MOL0     H78768  12.974   6.435   9.405  1.3187  0.8353  2.3185
  571MOL0     H78769  12.916   6.587   9.462 -1.8371  2.4816 -1.7279
  571MOL0     H78770  12.991   6.560   9.169  0.8244 -0.8742  1.4373
  571MOL0     H78771  12.926   6.700   9.249  0.7324  0.2871 -0.3981
  571MOL0     H78772  13.177   6.549   9.332 -2.0087 -2.3739 -2.8611
  571MOL0     H78773  13.114   6.702   9.413  0.3700 -0.5846  0.1293
  571MOL0     H78774  13.311   6.696   9.218  0.1835 -0.1637  0.3953
  571MOL0     H78775  13.196   6.830   9.216 -1.2995  0.2920 -1.1589
  571MOL0     H78776  13.085   6.744   9.026  1.4904  2.7454 -0.7584
  571MOL0     H78777  13.162   6.592   9.049 -3.4521  0.2699  1.1662
  571MOL0     H78778  12.359   6.321   9.451  0.7218 -0.9891 -0.3599
  571MOL0     H78779  12.130   6.338   9.484 -0.6092 -2.3244  0.6902
  571MOL0     H78780  11.827   6.413   9.797 -0.5758 -0.3626 -0.1236
  571MOL0     H78781  11.596   6.413   9.885 -3.1797  0.5921  0.0670
  571MOL0     H78782   9.677   6.087   9.620 -2.7831  2.0445  1.0613
  571MOL0     H78783   9.435   6.026   9.633  0.1783  0.0671 -0.2624
  571MOL0     H78784   9.134   5.722   9.825 -2.2220 -1.3080 -0.5852
  571MOL0     H78785   8.905   5.633   9.820 -3.0341  0.6046 -1.0447
  571MOL0     H78786   8.696   5.558   9.752  1.8436 -0.2252  0.0098
  571MOL0     H78787   8.544   5.648   9.718  0.0970  1.4486  1.4073
  571MOL0     H78788   8.811   5.629   9.571  1.2427  4.6091 -1.1415
  571MOL0     H78789   8.687   5.764   9.537 -1.2831  0.3411  0.0623
  571MOL0     H78790   8.610   5.465   9.500  0.4874 -0.4202  1.2195
  571MOL0     H78791   8.508   5.596   9.480 -2.3159 -5.5291  4.6594
  571MOL0     H78792   8.693   5.692   9.303 -2.7522  0.0691 -1.2582
  571MOL0     H78793   8.611   5.535   9.259  1.3195  0.2960 -1.9312
  571MOL0     H78794   9.013   5.421   9.272 -0.4173 -1.5672  1.0389
  571MOL0     H78795   8.740   6.009   9.806 -2.7657 -3.8377  1.4837
  571MOL0     H78796   9.009   6.204   9.938  3.1125 -1.9373 -1.3562
  571MOL0     H78797   9.027   6.209   9.772 -2.2172 -1.0723 -2.0314
  571MOL0     H78798   8.860   6.195   9.827 -0.4218  0.3967 -0.2012
  572MOL0     O78799   7.306   2.707   0.790  0.1727  0.2508  0.2858
  572MOL0     C78800   7.336   2.595   0.828 -0.7041  0.0718 -0.1170
  572MOL0     O78801   7.467   2.556   0.861 -0.0256 -0.7726  0.8905
  572MOL0     C78802   7.577   2.639   0.836 -0.9659  0.3631 -0.0635
  572MOL0     C78803   7.696   2.605   0.909  0.3595 -0.5200  0.1232
  572MOL0     C78804   7.807   2.693   0.899 -0.6468  0.5391 -0.3199
  572MOL0     C78805   7.805   2.799   0.802  0.1279 -0.1070  0.9123
  572MOL0     O78806   7.907   2.889   0.791  0.3661 -0.1044 -0.7833
  572MOL0     C78807   8.042   2.844   0.786 -0.2509 -0.3127  0.0925
  572MOL0     C78808   8.143   2.946   0.805  1.0090 -0.1490 -0.3555
  572MOL0     C78809   8.113   3.067   0.714  0.2045 -0.9157  0.0452
  572MOL0     C78810   8.165   3.055   0.573 -0.1338  0.2302  0.0010
  572MOL0     C78811   8.104   3.153   0.472  0.2124 -0.0650  0.5311
  572MOL0     C78812   8.127   3.306   0.504  0.3026  0.1486 -0.4616
  572MOL0     C78813   8.082   3.375   0.368 -0.6183  0.7818 -0.6553
  572MOL0     C78814   8.090   3.527   0.371  0.2973 -0.2978  0.0108
  572MOL0     N78815   8.227   3.588   0.412 -0.3155 -0.0424  0.0923
  572MOL0     C78816   8.260   3.686   0.510 -1.0560  0.5786 -1.0249
  572MOL0     C78817   8.386   3.723   0.471  0.5276  0.2842 -0.0578
  572MOL0     C78818   8.470   3.801   0.560  0.2578  0.5723 -0.5514
  572MOL0     C78819   8.621   3.776   0.557  0.2114 -0.3971  0.2731
  572MOL0     C78820   8.664   3.627   0.560  0.1025 -0.2430  0.2524
  572MOL0     C78821   8.629   3.562   0.693  0.1256 -0.6163 -0.0573
  572MOL0     O78822   8.694   3.433   0.717  0.2123 -0.5501  0.2043
  572MOL0     C78823   8.663   3.325   0.641  0.4217 -0.6180  0.0076
  572MOL0     C78824   8.768   3.237   0.614  0.0704 -0.4892  0.5323
  572MOL0     C78825   8.756   3.130   0.525  0.3934 -0.5488  0.0528
  572MOL0     C78826   8.865   3.031   0.506  0.1682 -0.3682 -0.3895
  572MOL0     C78827   8.624   3.112   0.458 -0.0100 -0.5124 -0.0030
  572MOL0     C78828   8.598   2.995   0.372 -0.1512  0.2654  0.4174
  572MOL0     O78829   8.480   2.934   0.397 -0.4284 -0.3779  0.0334
  572MOL0     C78830   8.441   2.816   0.348  0.8392  0.1186  0.3066
  572MOL0     C78831   8.365   2.738   0.435  0.6444 -0.9140  0.5868
  572MOL0     C78832   8.311   2.610   0.404 -0.0025 -0.4652  0.1316
  572MOL0     C78833   8.351   2.558   0.282 -0.1210  0.1512 -0.2615
  572MOL0     O78834   8.314   2.428   0.255 -0.3393  0.3939 -0.8274
  572MOL0     C78835   8.427   2.352   0.214  0.1260 -0.1451  0.9079
  572MOL0     C78836   8.402   2.198   0.219  1.7555 -0.6336 -0.0173
  572MOL0     C78837   8.512   2.125   0.159 -0.8264 -0.5972 -0.1580
  572MOL0     C78838   8.506   1.977   0.200 -0.0518  0.0380 -0.2009
  572MOL0     C78839   8.615   1.878   0.142  0.5105 -0.2476  0.2246
  572MOL0     C78840   8.764   1.917   0.182  0.7740 -0.1942  0.2937
  572MOL0     C78841   8.860   1.801   0.136 -0.5490  0.0580 -0.5232
  572MOL0     C78842   9.004   1.827   0.183 -0.1994  0.4417  1.1554
  572MOL0    Cl78843   9.074   1.679   0.250  0.1037 -0.0776  0.2520
  572MOL0     C78844   8.432   2.625   0.192  0.4181  0.1562  0.6377
  572MOL0     C78845   8.475   2.757   0.221  0.0355  1.2141  0.7922
  572MOL0     O78846   8.688   2.968   0.286  0.1180 -0.1196 -0.0627
  572MOL0     C78847   8.527   3.211   0.484 -1.2256  0.1372 -0.3501
  572MOL0     C78848   8.540   3.311   0.572 -0.1652 -0.4824 -0.0182
  572MOL0     N78849   8.425   3.661   0.351 -0.1281 -0.2775 -0.7721
  572MOL0     N78850   8.329   3.582   0.326  0.2916 -0.4355  0.4040
  572MOL0     C78851   7.696   2.821   0.718 -0.4860 -0.0435  0.8271
  572MOL0     C78852   7.579   2.750   0.735 -0.6149  0.5359 -0.3896
  572MOL0     C78853   7.238   2.481   0.851  0.0246  0.3430  0.2891
  572MOL0     C78854   7.290   2.354   0.892  0.4330 -0.2564  0.1945
  572MOL0     C78855   7.198   2.247   0.922 -0.0099 -0.8178  0.4515
  572MOL0     C78856   7.059   2.263   0.914  0.2002  0.3637 -0.2282
  572MOL0     O78857   6.990   2.148   0.943 -0.5759 -1.2947 -0.5186
  572MOL0     C78858   6.877   2.118   0.868 -0.2885 -0.1360  0.5127
  572MOL0     C78859   6.932   2.053   0.745  1.1193  0.9546  0.0643
  572MOL0     C78860   6.826   1.980   0.655  0.0767 -0.1724 -0.4236
  572MOL0     C78861   6.727   2.083   0.600  0.9283  0.3621  0.2239
  572MOL0     C78862   6.646   2.014   0.497 -0.3979 -0.1860  0.2182
  572MOL0     C78863   6.577   1.974   0.402  0.0608 -0.5329 -0.3560
  572MOL0     C78864   7.015   2.390   0.879 -0.8692  0.4077 -0.3626
  572MOL0     C78865   7.099   2.498   0.852  0.5158 -0.2342 -0.5177
  572MOL0     C78866   7.022   2.629   0.822  0.5580 -0.2051  0.2667
  572MOL0     H78867   7.682   2.520   0.976 -5.5756 -1.4169 -1.6699
  572MOL0     H78868   7.905   2.672   0.942  0.6172 -1.3797 -3.6685
  572MOL0     H78869   8.052   2.792   0.690 -0.0572  0.4602 -0.3166
  572MOL0     H78870   8.063   2.775   0.868  1.1871 -0.6013 -0.4900
  572MOL0     H78871   8.153   2.974   0.911  1.2180 -0.8818 -0.1705
  572MOL0     H78872   8.241   2.907   0.777  2.2294  1.2442  1.7084
  572MOL0     H78873   8.011   3.104   0.727  1.0310  0.4974  4.0166
  572MOL0     H78874   8.160   3.161   0.744 -2.9445  0.6590  0.3912
  572MOL0     H78875   8.272   3.074   0.566 -0.4031  1.2147 -3.4930
  572MOL0     H78876   8.138   2.953   0.543  1.9944 -0.8244  1.3819
  572MOL0     H78877   7.997   3.135   0.464  0.0316  0.5267  1.4238
  572MOL0     H78878   8.148   3.134   0.373 -2.0835  0.1011 -0.5787
  572MOL0     H78879   8.061   3.341   0.583  1.0551  1.9366 -0.5646
  572MOL0     H78880   8.233   3.323   0.529  0.2308 -1.0633  0.8259
  572MOL0     H78881   7.982   3.341   0.339 -0.2949 -2.1473  1.2139
  572MOL0     H78882   8.152   3.348   0.289  2.6551  1.0137  1.9294
  572MOL0     H78883   8.061   3.561   0.272  1.0955 -0.8994 -0.4434
  572MOL0     H78884   8.013   3.555   0.443 -1.6350 -1.6769 -1.4224
  572MOL0     H78885   8.201   3.716   0.596  1.9710  1.4031  0.9309
  572MOL0     H78886   8.445   3.770   0.661 -1.5242  0.5739 -0.9601
  572MOL0     H78887   8.438   3.905   0.545 -2.2791 -0.0469  0.0187
  572MOL0     H78888   8.670   3.823   0.471 -0.1270 -1.1018 -0.3145
  572MOL0     H78889   8.670   3.825   0.641 -1.3135  1.7536  0.0003
  572MOL0     H78890   8.626   3.562   0.480 -1.1791 -3.2759  3.0836
  572MOL0     H78891   8.773   3.621   0.553 -0.0005 -2.4445 -0.1583
  572MOL0     H78892   8.645   3.638   0.770 -1.2780 -1.1338  0.7811
  572MOL0     H78893   8.520   3.549   0.696 -0.1145  0.7545 -1.2512
  572MOL0     H78894   8.861   3.260   0.663  0.5230  1.9286 -1.2749
  572MOL0     H78895   8.937   3.062   0.583 -1.9314 -0.6135  1.8062
  572MOL0     H78896   8.904   3.041   0.405  1.2341  2.8085  0.2005
  572MOL0     H78897   8.839   2.927   0.528  0.3498 -0.4370 -0.5058
  572MOL0     H78898   8.336   2.779   0.532 -4.0712 -0.9297 -0.5979
  572MOL0     H78899   8.260   2.544   0.473 -0.9244  0.5393  0.4348
  572MOL0     H78900   8.437   2.364   0.106 -0.4822 -2.7188  0.4977
  572MOL0     H78901   8.516   2.389   0.265  0.1165 -1.8151  2.2547
  572MOL0     H78902   8.385   2.175   0.325  0.8255  1.6909  0.3966
  572MOL0     H78903   8.309   2.176   0.166  1.9632 -1.1230 -0.1871
  572MOL0     H78904   8.603   2.149   0.215 -3.0897  0.3119  3.4764
  572MOL0     H78905   8.529   2.134   0.051 -0.6134  0.0190 -0.0782
  572MOL0     H78906   8.405   1.950   0.168 -0.8446  2.1879  0.3442
  572MOL0     H78907   8.523   1.964   0.307  0.9679 -0.6186 -0.4188
  572MOL0     H78908   8.597   1.771   0.154 -2.5899 -0.3143 -3.3909
  572MOL0     H78909   8.619   1.895   0.034 -0.6031 -0.1794  0.1915
  572MOL0     H78910   8.768   1.932   0.290  2.0169  0.3093  0.1893
  572MOL0     H78911   8.799   2.007   0.132 -0.1848 -0.7699 -1.4979
  572MOL0     H78912   8.859   1.777   0.029 -0.6631  0.4561 -0.6121
  572MOL0     H78913   8.823   1.714   0.191  0.1869  0.8703  1.3212
  572MOL0     H78914   8.990   1.902   0.261 -2.0847 -1.5773  2.9072
  572MOL0     H78915   9.066   1.876   0.108  1.4191 -2.1093  0.6996
  572MOL0     H78916   8.450   2.583   0.094 -3.5578  0.4374 -0.4148
  572MOL0     H78917   8.548   2.795   0.150  3.1190 -4.7823  0.1244
  572MOL0     H78918   8.438   3.210   0.423  0.2419 -1.5410 -2.6403
  572MOL0     H78919   8.456   3.379   0.580 -0.1625 -0.0296 -2.9000
  572MOL0     H78920   7.711   2.892   0.637  3.0082  0.7786  2.0180
  572MOL0     H78921   7.505   2.780   0.662  0.0794  0.5977 -1.0830
  572MOL0     H78922   7.397   2.336   0.897  1.1506  3.3407  0.4647
  572MOL0     H78923   7.226   2.142   0.932  1.2859 -0.7920 -2.0875
  572MOL0     H78924   6.800   2.064   0.923 -1.1073 -0.8097 -1.2283
  572MOL0     H78925   6.829   2.213   0.843 -0.9481  0.1889  2.8344
  572MOL0     H78926   7.002   1.974   0.774 -0.0613 -1.5266 -3.1470
  572MOL0     H78927   6.977   2.141   0.698 -1.5030  3.5072  1.9463
  572MOL0     H78928   6.860   1.933   0.563 -0.4598  1.3305 -1.4276
  572MOL0     H78929   6.768   1.907   0.713 -3.5381  1.4376 -1.6724
  572MOL0     H78930   6.771   2.171   0.551 -0.1709  0.2452 -1.0357
  572MOL0     H78931   6.664   2.120   0.681  0.0426 -1.3928  0.3796
  572MOL0     H78932   6.500   1.948   0.333  0.8465 -0.1992 -1.3831
  572MOL0     H78933   6.908   2.411   0.878 -0.6270  1.7241 -1.3524
  572MOL0     H78934   7.042   2.711   0.892  1.9771  0.9221 -1.3939
  572MOL0     H78935   7.055   2.667   0.725  1.6520  0.4679  0.8888
  572MOL0     H78936   6.913   2.612   0.821  0.4769  0.2598  0.8686
  573MOL0     O78937   8.015   2.540   0.580  0.3435 -0.2350  0.1592
  573MOL0     C78938   7.903   2.512   0.534 -0.2271 -0.2731  0.1881
  573MOL0     O78939   7.843   2.555   0.422 -0.8426  0.5614  0.1473
  573MOL0     C78940   7.904   2.654   0.361  0.4708  0.4028  0.0604
  573MOL0     C78941   7.870   2.794   0.370 -0.4564 -0.3905  0.6032
  573MOL0     C78942   7.952   2.888   0.305  0.5805  0.4093 -0.3682
  573MOL0     C78943   8.045   2.849   0.207  0.2829  0.1144 -0.1302
  573MOL0     O78944   8.119   2.943   0.144 -0.9028 -0.0100  0.1457
  573MOL0     C78945   8.185   2.906   0.021  0.9545  0.4072  0.0057
  573MOL0     C78946   8.265   3.019  -0.047  0.4168  0.1204 -0.3026
  573MOL0     C78947   8.395   3.039   0.019  0.2477 -0.4837 -0.2215
  573MOL0     C78948   8.458   3.164  -0.026 -0.5371 -0.8256  0.0672
  573MOL0     C78949   8.592   3.189   0.038 -0.3905 -0.8808 -0.2612
  573MOL0     C78950   8.664   3.324  -0.003  0.4942 -0.0361 -0.5185
  573MOL0     C78951   8.622   3.450   0.066 -0.1431  0.8242 -0.4816
  573MOL0     C78952   8.658   3.457   0.212  0.0426  0.5614  1.0438
  573MOL0     N78953   8.810   3.462   0.221  0.9497 -0.1324  0.0421
  573MOL0     C78954   8.861   3.418   0.340 -0.3831  0.3543 -0.4408
  573MOL0     C78955   8.991   3.443   0.336 -0.2890 -0.1807 -0.0298
  573MOL0     C78956   9.094   3.394   0.440 -0.0606  0.0189  0.1876
  573MOL0     C78957   9.100   3.488   0.558  0.5088 -0.0002  0.4398
  573MOL0     C78958   9.191   3.434   0.669  0.2234  0.3212  0.2877
  573MOL0     C78959   9.196   3.532   0.782  1.0438  0.3622  0.6037
  573MOL0     O78960   9.073   3.518   0.857  0.6037  0.5833 -0.1200
  573MOL0     C78961   9.048   3.594   0.965 -0.2151 -0.3506  0.1669
  573MOL0     C78962   9.149   3.666   1.026  0.4594  0.4645 -0.2959
  573MOL0     C78963   9.119   3.761   1.131 -1.0439 -0.5628  0.1328
  573MOL0     C78964   9.238   3.829   1.208 -0.1041 -0.4186  0.3383
  573MOL0     C78965   8.981   3.780   1.167  0.4400 -0.2500  0.4860
  573MOL0     C78966   8.939   3.887   1.267 -0.2319  0.3200 -0.1403
  573MOL0     O78967   9.034   3.962   1.329  0.4605  0.1173 -0.5452
  573MOL0     C78968   8.981   4.060   1.410  0.2010  0.8410  0.8035
  573MOL0     C78969   8.971   4.038   1.548 -0.8924 -0.0827  0.8197
  573MOL0     C78970   8.941   4.149   1.626 -0.2309 -0.5227 -1.1909
  573MOL0     C78971   8.895   4.267   1.567 -0.5070  0.1647  0.1362
  573MOL0     O78972   8.866   4.388   1.625 -0.1208  0.4157 -0.0355
  573MOL0     C78973   8.877   4.392   1.767 -0.5736  1.1739  0.1872
  573MOL0     C78974   8.839   4.525   1.826  0.1875  0.2133  0.7146
  573MOL0     C78975   8.682   4.541   1.815  0.2146 -0.2747 -0.2099
  573MOL0     C78976   8.641   4.687   1.850  0.3905  0.1016 -0.0977
  573MOL0     C78977   8.662   4.725   1.993  0.6175  0.4306  0.0294
  573MOL0     C78978   8.628   4.881   2.018 -0.7577 -0.2186 -0.4633
  573MOL0     C78979   8.737   4.976   1.973 -0.5034 -1.2050  0.4522
  573MOL0     C78980   8.706   5.035   1.835 -0.7579 -0.3504  0.1746
  573MOL0    Cl78981   8.860   5.095   1.766  0.0780 -0.2817 -0.1227
  573MOL0     C78982   8.894   4.277   1.430  0.8715  0.5191  0.5834
  573MOL0     C78983   8.934   4.176   1.346  0.0694 -0.3523 -0.2703
  573MOL0     O78984   8.813   3.897   1.289  0.1222 -0.2627  0.3096
  573MOL0     C78985   8.885   3.691   1.107  0.5060 -1.1403 -0.4110
  573MOL0     C78986   8.916   3.605   1.010  0.0037 -0.3500  0.7400
  573MOL0     N78987   9.010   3.525   0.229 -1.4133  0.2582 -0.2560
  573MOL0     N78988   8.899   3.544   0.157  0.4810 -0.2235  0.0301
  573MOL0     C78989   8.079   2.710   0.187  0.4750 -0.0414  0.0970
  573MOL0     C78990   8.011   2.614   0.274 -0.1111  0.6087  1.1436
  573MOL0     C78991   7.815   2.427   0.625 -0.6092  0.0672  0.1741
  573MOL0     C78992   7.678   2.406   0.585 -0.4764  1.2370  0.1615
  573MOL0     C78993   7.593   2.319   0.660 -0.4348 -0.0399  0.2494
  573MOL0     C78994   7.643   2.252   0.767 -0.5479 -0.6567 -0.4759
  573MOL0     O78995   7.559   2.187   0.851 -0.3242  0.4243 -1.2487
  573MOL0     C78996   7.561   2.046   0.846 -0.5451 -0.3536  0.4047
  573MOL0     C78997   7.563   1.998   0.993  0.3638 -0.4364 -0.2846
  573MOL0     C78998   7.545   1.845   1.003  0.7186 -0.0164  0.6171
  573MOL0     C78999   7.545   1.811   1.155  0.3069 -0.2158  0.5987
  573MOL0     C79000   7.553   1.664   1.183 -0.1358 -0.8367  1.0087
  573MOL0     C79001   7.551   1.551   1.206  1.0948 -0.0316 -0.0193
  573MOL0     C79002   7.775   2.265   0.803  0.3866  0.3646 -0.0597
  573MOL0     C79003   7.862   2.347   0.738  0.2059 -0.9170 -0.4281
  573MOL0     C79004   8.003   2.351   0.796 -0.2890 -0.4889 -0.2492
  573MOL0     H79005   7.792   2.823   0.439  0.0038 -0.0822  0.9980
  573MOL0     H79006   7.924   2.993   0.312  0.8594  0.4241  0.5838
  573MOL0     H79007   8.099   2.882  -0.042  1.8574 -0.4916 -0.9372
  573MOL0     H79008   8.247   2.816   0.027 -4.0287 -3.6024 -1.4648
  573MOL0     H79009   8.277   2.986  -0.150  2.9799  0.2751 -0.1100
  573MOL0     H79010   8.204   3.109  -0.039  1.1779  0.7320 -1.2510
  573MOL0     H79011   8.393   3.029   0.128 -0.9022  0.4662 -0.1298
  573MOL0     H79012   8.463   2.963  -0.019  0.0858 -0.9981  0.5065
  573MOL0     H79013   8.471   3.165  -0.135  1.1841 -0.4328  0.2326
  573MOL0     H79014   8.384   3.243  -0.010  0.9022  0.9079 -1.3978
  573MOL0     H79015   8.651   3.103   0.005 -0.0009 -0.4164 -0.7867
  573MOL0     H79016   8.591   3.172   0.146  0.3505 -2.2651 -0.4492
  573MOL0     H79017   8.768   3.314   0.026  0.1300  1.6215  1.6002
  573MOL0     H79018   8.647   3.351  -0.108 -1.9160  2.3382  0.3423
  573MOL0     H79019   8.513   3.455   0.067 -0.1640  0.5448  1.4805
  573MOL0     H79020   8.669   3.531   0.008  4.8494 -2.3589 -1.5286
  573MOL0     H79021   8.600   3.537   0.260 -2.2472  0.5447 -1.4145
  573MOL0     H79022   8.613   3.367   0.255 -1.7249  0.9030  0.0160
  573MOL0     H79023   8.808   3.349   0.406  1.9716  0.3111  1.5872
  573MOL0     H79024   9.190   3.389   0.389 -0.1738  0.4688 -0.0780
  573MOL0     H79025   9.079   3.293   0.479  2.3012  0.7229  3.2941
  573MOL0     H79026   9.143   3.578   0.513 -1.4465 -1.2502 -4.5525
  573MOL0     H79027   9.002   3.507   0.603 -0.6032 -3.8352 -0.0769
  573MOL0     H79028   9.148   3.341   0.709 -1.4786  1.2411  0.6985
  573MOL0     H79029   9.279   3.401   0.613 -2.0269 -6.6941 -0.1855
  573MOL0     H79030   9.282   3.514   0.848  2.0209  1.6795 -0.2495
  573MOL0     H79031   9.221   3.630   0.739  0.5141  0.0086 -0.5215
  573MOL0     H79032   9.254   3.678   0.999  0.6611 -1.4860 -0.5182
  573MOL0     H79033   9.338   3.788   1.190  0.2661  1.3074 -2.1739
  573MOL0     H79034   9.219   3.806   1.313 -0.6065 -3.3528 -0.3179
  573MOL0     H79035   9.249   3.936   1.185 -1.2705  0.0024  1.6155
  573MOL0     H79036   8.997   3.940   1.585 -1.8498 -1.6480 -2.2643
  573MOL0     H79037   8.946   4.141   1.734 -1.9797  2.3456 -0.7850
  573MOL0     H79038   8.812   4.314   1.806  1.7436 -1.0417 -0.1693
  573MOL0     H79039   8.983   4.373   1.784 -0.8214  0.8163  1.3844
  573MOL0     H79040   8.877   4.535   1.928  2.9693  3.0456 -0.4411
  573MOL0     H79041   8.883   4.611   1.774  0.4555  1.1378  2.4186
  573MOL0     H79042   8.651   4.469   1.892 -0.5897  0.2808 -0.0049
  573MOL0     H79043   8.648   4.521   1.713 -0.9481 -2.9921  0.6137
  573MOL0     H79044   8.538   4.701   1.815  0.5108  0.0844 -0.4638
  573MOL0     H79045   8.708   4.750   1.791 -0.3831  2.7181  1.6466
  573MOL0     H79046   8.589   4.666   2.049  1.1452 -0.6819 -0.4325
  573MOL0     H79047   8.763   4.697   2.023  0.4842 -1.6966 -1.3261
  573MOL0     H79048   8.620   4.892   2.126 -0.0407  0.4244 -0.4694
  573MOL0     H79049   8.533   4.917   1.978  0.4953  0.4224 -3.1126
  573MOL0     H79050   8.839   4.937   1.971  0.5886  1.4327  0.4613
  573MOL0     H79051   8.727   5.066   2.034 -0.0814  0.0510 -1.2669
  573MOL0     H79052   8.624   5.107   1.844  0.2854  0.9336 -0.2581
  573MOL0     H79053   8.675   4.950   1.773 -1.0574  1.5407 -2.4648
  573MOL0     H79054   8.848   4.365   1.385 -3.1602 -0.5973  2.0941
  573MOL0     H79055   8.915   4.176   1.239  0.1605 -1.0398 -0.2884
  573MOL0     H79056   8.779   3.699   1.127  0.8053  0.5231  0.7345
  573MOL0     H79057   8.845   3.539   0.963 -0.3378  0.7495 -0.3296
  573MOL0     H79058   8.151   2.666   0.119  0.7133  0.3146  0.1165
  573MOL0     H79059   8.058   2.517   0.264  1.3071  1.5006 -4.7202
  573MOL0     H79060   7.645   2.471   0.505  2.0363  5.5788  2.2710
  573MOL0     H79061   7.490   2.299   0.634 -0.0432  1.1137 -2.5838
  573MOL0     H79062   7.474   2.006   0.794  0.0488  0.9928 -1.7171
  573MOL0     H79063   7.647   2.006   0.791 -0.9507  0.1033 -0.5836
  573MOL0     H79064   7.488   2.058   1.047  1.5104  1.9589 -1.1872
  573MOL0     H79065   7.662   2.012   1.036 -0.1056  2.9745 -0.0323
  573MOL0     H79066   7.454   1.814   0.950  1.5335 -0.1017 -0.7820
  573MOL0     H79067   7.631   1.796   0.957 -1.1775 -3.6594  0.5940
  573MOL0     H79068   7.458   1.858   1.202 -1.4859 -2.2209 -0.4943
  573MOL0     H79069   7.639   1.849   1.194  0.1699  1.4428 -0.5721
  573MOL0     H79070   7.539   1.446   1.221 -0.3844 -0.0720 -1.2243
  573MOL0     H79071   7.799   2.230   0.903  1.0820  0.3832 -0.2111
  573MOL0     H79072   8.018   2.287   0.884  1.6972 -0.8420 -0.7895
  573MOL0     H79073   8.073   2.320   0.717  1.9656  1.3173  0.9115
  573MOL0     H79074   8.023   2.451   0.837  0.4450 -0.6150 -0.2804
  574MOL0     O79075  10.293   0.425   5.096  0.2388  0.1767  0.2669
  574MOL0     C79076  10.352   0.331   5.150  0.1794  0.0843  0.0005
  574MOL0     O79077  10.374   0.317   5.288  0.9254 -0.6801 -0.9465
  574MOL0     C79078  10.304   0.394   5.382  0.1048 -0.3014 -0.8815
  574MOL0     C79079  10.378   0.481   5.478 -0.1503 -0.2965  0.0515
  574MOL0     C79080  10.307   0.563   5.561  0.5970 -0.0868 -0.0663
  574MOL0     C79081  10.166   0.562   5.564  0.4561  1.0801  0.6007
  574MOL0     O79082  10.114   0.660   5.634  0.0945 -0.2682 -0.3047
  574MOL0     C79083   9.980   0.628   5.682 -0.3061 -0.1694  0.8048
  574MOL0     C79084   9.878   0.692   5.591 -0.2387  0.0776  0.8928
  574MOL0     C79085   9.757   0.720   5.684  0.0570  0.1128  0.3685
  574MOL0     C79086   9.624   0.699   5.613  0.0908  0.0089  0.4327
  574MOL0     C79087   9.614   0.797   5.493 -0.1497 -0.7329 -0.1002
  574MOL0     C79088   9.472   0.802   5.443  0.6929  0.0292  0.5790
  574MOL0     C79089   9.449   0.922   5.351 -0.2217  0.6719  0.0724
  574MOL0     C79090   9.300   0.914   5.301 -0.0450 -0.4306 -0.0782
  574MOL0     N79091   9.252   1.016   5.207  0.2159  0.2794 -0.0469
  574MOL0     C79092   9.289   1.143   5.207  0.1352  0.8620 -0.4762
  574MOL0     C79093   9.230   1.197   5.096  0.0507  0.3827  0.1153
  574MOL0     C79094   9.244   1.335   5.058 -0.1745 -0.3008 -0.7537
  574MOL0     C79095   9.353   1.341   4.960  0.3138 -0.7492 -0.2384
  574MOL0     C79096   9.385   1.482   4.921  0.5486  0.7959  0.3929
  574MOL0     C79097   9.255   1.559   4.861  0.6892 -0.3040  0.5409
  574MOL0     O79098   9.296   1.627   4.741  0.7804 -0.9300  0.4467
  574MOL0     C79099   9.198   1.689   4.677 -0.0793 -0.1378  0.7726
  574MOL0     C79100   9.057   1.675   4.698  0.2852 -0.4136  0.2148
  574MOL0     C79101   8.959   1.751   4.625 -0.4289 -0.6741 -0.1023
  574MOL0     C79102   8.810   1.727   4.652  0.4848 -1.2343  0.7695
  574MOL0     C79103   9.015   1.848   4.539 -0.6615 -0.5132 -0.2250
  574MOL0     C79104   8.925   1.945   4.475  0.1844  0.0514  0.3202
  574MOL0     O79105   8.873   2.049   4.552  0.3297  0.3167  0.6039
  574MOL0     C79106   8.821   2.167   4.497 -0.3351 -0.3020  0.3967
  574MOL0     C79107   8.818   2.212   4.368 -0.5793 -0.2291 -0.7510
  574MOL0     C79108   8.759   2.335   4.344 -0.0080 -0.3468  0.0554
  574MOL0     C79109   8.719   2.420   4.438  0.3838  0.4623  0.2331
  574MOL0     O79110   8.659   2.547   4.410 -0.3309 -0.1167  0.2135
  574MOL0     C79111   8.650   2.600   4.284  0.1100 -0.5745 -0.7129
  574MOL0     C79112   8.596   2.751   4.280  1.3653 -0.1315  0.5946
  574MOL0     C79113   8.631   2.837   4.150  0.4494 -0.8274 -0.0027
  574MOL0     C79114   8.525   2.956   4.141  0.0172  0.0347  0.6272
  574MOL0     C79115   8.536   3.051   4.009 -0.5248  0.7897 -0.9008
  574MOL0     C79116   8.456   3.010   3.885  0.8165  0.0825 -0.0271
  574MOL0     C79117   8.525   2.900   3.810  0.4533 -0.5393 -0.7640
  574MOL0     C79118   8.478   2.897   3.665 -1.4733 -0.3562 -0.5371
  574MOL0    Cl79119   8.294   2.904   3.658  0.3875 -0.0288 -0.2059
  574MOL0     C79120   8.716   2.373   4.573 -0.2558  0.7558 -0.8495
  574MOL0     C79121   8.779   2.251   4.599  1.3639  0.9105  0.2975
  574MOL0     O79122   8.914   1.927   4.350  0.3375  0.6235  0.6329
  574MOL0     C79123   9.157   1.859   4.510  0.5151 -0.2232  0.2803
  574MOL0     C79124   9.248   1.779   4.581 -0.5458  0.5118 -0.2698
  574MOL0     N79125   9.180   1.098   5.019  0.4475 -0.6572 -0.1883
  574MOL0     N79126   9.195   0.987   5.086  0.2293 -0.4069  0.5420
  574MOL0     C79127  10.090   0.466   5.480  0.6149 -0.3933 -1.0849
  574MOL0     C79128  10.161   0.379   5.385  0.3572  0.2945  1.7180
  574MOL0     C79129  10.415   0.236   5.056  0.2827  0.5146  0.5208
  574MOL0     C79130  10.362   0.232   4.927  0.0837 -0.0334  1.0603
  574MOL0     C79131  10.427   0.171   4.826 -0.3901  0.6022  0.5979
  574MOL0     C79132  10.552   0.111   4.847 -0.1785 -0.3665 -0.4526
  574MOL0     O79133  10.637   0.049   4.759 -0.2163  0.3919  0.1637
  574MOL0     C79134  10.597   0.036   4.621 -0.2178  0.4680  0.6744
  574MOL0     C79135  10.537  -0.107   4.606  0.1395  0.5940  0.1340
  574MOL0     C79136  10.476  -0.131   4.465 -0.1236 -0.8773  0.2792
  574MOL0     C79137  10.351  -0.042   4.445 -0.6599  0.2460 -1.3823
  574MOL0     C79138  10.276  -0.079   4.329  0.7562 -1.0589  0.3362
  574MOL0     C79139  10.205  -0.096   4.233 -0.6475  0.6405  0.8760
  574MOL0     C79140  10.608   0.123   4.978 -0.7260  0.4083  0.6548
  574MOL0     C79141  10.537   0.172   5.083 -1.4915  0.0234  0.1204
  574MOL0     C79142  10.606   0.172   5.217 -0.2270 -0.5750  0.3026
  574MOL0     H79143  10.485   0.477   5.467 -0.3604 -0.5563 -2.2270
  574MOL0     H79144  10.354   0.634   5.630 -1.1676  1.5426 -0.4636
  574MOL0     H79145   9.969   0.676   5.779 -1.8224 -0.9420  1.0540
  574MOL0     H79146   9.968   0.522   5.704 -1.4118  0.0016  1.0915
  574MOL0     H79147   9.912   0.783   5.542  0.2414 -0.8984 -0.6464
  574MOL0     H79148   9.855   0.615   5.517  0.0185  2.4322 -1.8130
  574MOL0     H79149   9.761   0.653   5.771 -0.0049  0.2056  0.4435
  574MOL0     H79150   9.768   0.823   5.718 -1.2390  0.1596  0.7057
  574MOL0     H79151   9.608   0.595   5.586  0.3242 -0.6511  2.6362
  574MOL0     H79152   9.542   0.728   5.679 -0.5558 -2.0071  0.5593
  574MOL0     H79153   9.679   0.761   5.413  1.7902  2.7034 -0.2875
  574MOL0     H79154   9.649   0.898   5.515  0.6914 -1.5447  2.5825
  574MOL0     H79155   9.433   0.708   5.404 -1.2738  0.3273  1.6519
  574MOL0     H79156   9.411   0.826   5.531 -0.3540  0.5019 -0.2515
  574MOL0     H79157   9.524   0.920   5.271  0.1978 -0.1026  0.4653
  574MOL0     H79158   9.459   1.018   5.402  0.3518  0.9316 -0.5111
  574MOL0     H79159   9.277   0.814   5.264 -0.2901  0.1367 -1.5794
  574MOL0     H79160   9.243   0.913   5.394  3.6110  1.0839  2.3693
  574MOL0     H79161   9.343   1.206   5.277 -1.7462  0.6217  1.2686
  574MOL0     H79162   9.266   1.398   5.145 -2.5381  1.9162 -1.6609
  574MOL0     H79163   9.149   1.381   5.032 -1.2665  2.4720  6.0047
  574MOL0     H79164   9.445   1.294   4.997  1.3185  1.3077 -0.0118
  574MOL0     H79165   9.322   1.284   4.871  0.4718 -1.3572  0.0882
  574MOL0     H79166   9.420   1.532   5.012 -1.5329 -1.2350  2.4428
  574MOL0     H79167   9.467   1.480   4.848 -0.8976  0.9573 -1.3185
  574MOL0     H79168   9.177   1.484   4.845 -0.0057 -0.1941  3.0275
  574MOL0     H79169   9.225   1.628   4.941  0.5502  0.4831 -0.1804
  574MOL0     H79170   9.020   1.610   4.776  0.0353  0.8231  1.1502
  574MOL0     H79171   8.755   1.712   4.559 -1.5545  2.9868  1.0866
  574MOL0     H79172   8.762   1.813   4.700 -0.5962 -1.1707 -0.3955
  574MOL0     H79173   8.786   1.645   4.720 -1.8286 -1.3011 -0.0290
  574MOL0     H79174   8.865   2.157   4.287  1.0113  2.1747 -1.5886
  574MOL0     H79175   8.763   2.369   4.241  0.0849 -0.6511 -0.0426
  574MOL0     H79176   8.753   2.607   4.249  1.0596  2.8977  2.1552
  574MOL0     H79177   8.592   2.525   4.230 -0.2050 -1.7594  1.1576
  574MOL0     H79178   8.487   2.740   4.282  1.4486 -1.0834  0.2969
  574MOL0     H79179   8.618   2.808   4.371  1.8117  1.1668 -0.2921
  574MOL0     H79180   8.625   2.783   4.055 -1.2675 -1.2299  0.3029
  574MOL0     H79181   8.734   2.874   4.146  0.8151 -1.8536 -0.5364
  574MOL0     H79182   8.545   3.026   4.223 -0.7818 -1.1908  1.9248
  574MOL0     H79183   8.420   2.926   4.146 -0.2752  0.8695 -0.1743
  574MOL0     H79184   8.501   3.144   4.055 -1.5234  0.4040 -0.8410
  574MOL0     H79185   8.641   3.064   3.983  0.1960  1.2088  1.8669
  574MOL0     H79186   8.445   3.091   3.813 -1.6392 -0.5298 -0.4174
  574MOL0     H79187   8.355   2.975   3.908  0.0826  1.5633 -0.8729
  574MOL0     H79188   8.510   2.801   3.855  2.7699 -1.8042 -2.4989
  574MOL0     H79189   8.633   2.918   3.817  0.0470  3.3513 -2.2132
  574MOL0     H79190   8.516   2.805   3.620  2.3230 -0.8055  2.9726
  574MOL0     H79191   8.518   2.983   3.612 -1.7831 -0.1955 -0.5109
  574MOL0     H79192   8.693   2.433   4.660  0.7360 -0.6331  0.4123
  574MOL0     H79193   8.799   2.230   4.704  2.6091  0.5282 -0.0041
  574MOL0     H79194   9.192   1.940   4.446 -0.7938 -0.8180 -1.2415
  574MOL0     H79195   9.356   1.785   4.576 -0.5336  0.4409 -0.0933
  574MOL0     H79196   9.982   0.460   5.475  0.3870  2.3033 -0.6605
  574MOL0     H79197  10.115   0.304   5.322 -0.8165  0.3212  2.5196
  574MOL0     H79198  10.266   0.277   4.907  0.9486  1.3610 -0.1817
  574MOL0     H79199  10.380   0.151   4.731 -0.0699  1.3032  0.2897
  574MOL0     H79200  10.541   0.123   4.584  0.5210  1.2064  1.2433
  574MOL0     H79201  10.694   0.032   4.569 -0.2359  3.4669  0.2180
  574MOL0     H79202  10.451  -0.128   4.671 -0.4503  1.3569 -0.3862
  574MOL0     H79203  10.614  -0.180   4.632  0.7695  2.0609  2.5877
  574MOL0     H79204  10.553  -0.129   4.387 -1.0650 -0.4000 -0.6605
  574MOL0     H79205  10.443  -0.235   4.464  1.3576 -1.3774  0.0274
  574MOL0     H79206  10.375   0.065   4.444 -0.8550  0.3176 -0.3199
  574MOL0     H79207  10.282  -0.067   4.526 -0.0607  0.5585 -0.7644
  574MOL0     H79208  10.139  -0.131   4.156  0.1202 -0.8969  0.8804
  574MOL0     H79209  10.700   0.067   4.992 -1.7034 -2.1010 -2.0215
  574MOL0     H79210  10.653   0.269   5.232  0.8556 -0.4554 -3.0522
  574MOL0     H79211  10.536   0.158   5.300 -1.4693 -0.5459 -0.7195
  574MOL0     H79212  10.682   0.093   5.222  0.8211  0.4395  3.8718
  575MOL0     O79213  11.072   2.993  11.206 -0.1123 -0.7781 -0.4755
  575MOL0     C79214  11.002   2.898  11.168  0.2573 -0.4146  0.1157
  575MOL0     O79215  10.871   2.912  11.130 -0.0557 -0.0745 -0.4465
  575MOL0     C79216  10.833   3.032  11.070 -0.0380 -0.7205  0.2399
  575MOL0     C79217  10.709   3.091  11.105 -0.2969  0.2484  1.3192
  575MOL0     C79218  10.672   3.217  11.055  0.0163  0.2603 -0.3635
  575MOL0     C79219  10.758   3.284  10.963  0.2624  0.1031 -0.2673
  575MOL0     O79220  10.728   3.400  10.902  0.4334 -0.7228  0.4285
  575MOL0     C79221  10.817   3.461  10.793  0.1225  0.6463  0.1170
  575MOL0     C79222  10.724   3.573  10.739  0.5748  0.7218  0.0214
  575MOL0     C79223  10.777   3.611  10.599  0.7952 -0.4381 -0.4056
  575MOL0     C79224  10.894   3.705  10.615 -0.3496 -0.3663 -0.9989
  575MOL0     C79225  10.966   3.735  10.487 -0.8366 -0.0574 -0.0457
  575MOL0     C79226  10.930   3.866  10.417  0.1745  0.8191  0.2270
  575MOL0     C79227  11.018   3.881  10.287  0.5789 -0.3345 -0.1453
  575MOL0     C79228  10.976   4.000  10.196  0.4571 -0.4532  0.6037
  575MOL0     N79229  10.836   4.002  10.158  0.0772  0.0824  0.1227
  575MOL0     C79230  10.779   3.888  10.109  0.2574  0.9419 -0.5601
  575MOL0     C79231  10.650   3.931  10.082  0.6175 -0.0495  0.9793
  575MOL0     C79232  10.518   3.844  10.057 -0.5897  0.0299  0.5051
  575MOL0     C79233  10.406   3.858  10.162  0.4676 -0.0200  1.8447
  575MOL0     C79234  10.270   3.841  10.094 -0.2266 -0.2658 -0.0452
  575MOL0     C79235  10.145   3.869  10.174  0.4006  0.7178 -0.4508
  575MOL0     O79236  10.023   3.848  10.093 -0.1253 -0.0364 -0.1728
  575MOL0     C79237   9.975   3.718  10.078  0.2533 -0.4949 -1.4001
  575MOL0     C79238   9.859   3.704  10.009 -0.0879  0.5624  0.5795
  575MOL0     C79239   9.794   3.581   9.999  0.3704 -0.5220 -0.3174
  575MOL0     C79240   9.669   3.569   9.920  0.2255  0.0482 -0.3185
  575MOL0     C79241   9.839   3.468  10.079  0.0833 -0.6878  0.2013
  575MOL0     C79242   9.771   3.336  10.089 -0.5882  0.8745  0.1757
  575MOL0     O79243   9.811   3.244  10.181  0.6421  0.4429 -0.5947
  575MOL0     C79244   9.811   3.107  10.153 -0.6856  0.2650  0.3530
  575MOL0     C79245   9.765   3.039  10.036  0.2988  0.0964  0.1604
  575MOL0     C79246   9.746   2.901  10.046  0.4102 -0.2860 -1.3005
  575MOL0     C79247   9.768   2.830  10.162 -1.0867 -0.4211  0.5681
  575MOL0     O79248   9.766   2.694  10.148  1.0053 -0.0470 -1.0942
  575MOL0     C79249   9.681   2.631  10.243 -0.0821 -0.8486  0.8501
  575MOL0     C79250   9.536   2.609  10.196 -0.1826  0.0881  0.4217
  575MOL0     C79251   9.537   2.490  10.093  0.8111 -0.3303 -0.5285
  575MOL0     C79252   9.402   2.495  10.005  0.2435  0.3538  0.6895
  575MOL0     C79253   9.393   2.371   9.921 -0.9576 -1.3360  0.6457
  575MOL0     C79254   9.263   2.356   9.847  1.0746  1.1756 -0.7120
  575MOL0     C79255   9.143   2.300   9.944 -0.0805  0.3637 -0.0722
  575MOL0     C79256   9.020   2.388   9.948  0.7224 -0.5165 -0.1095
  575MOL0    Cl79257   8.891   2.318  10.046  0.2441 -0.2564  0.0184
  575MOL0     C79258   9.833   2.895  10.265  0.0524 -0.0731  0.0235
  575MOL0     C79259   9.839   3.031  10.268 -1.0906  1.1692 -0.9244
  575MOL0     O79260   9.681   3.317  10.013 -0.2193  0.4569  1.3452
  575MOL0     C79261   9.958   3.486  10.151  0.1982 -1.0442 -0.2532
  575MOL0     C79262  10.030   3.612  10.147 -0.3225  0.8456  0.1107
  575MOL0     N79263  10.650   4.063  10.104  0.2771  0.0606  0.2173
  575MOL0     N79264  10.763   4.107  10.140  0.0712  0.2837 -0.1675
  575MOL0     C79265  10.876   3.211  10.926  0.2624 -0.2345  0.0011
  575MOL0     C79266  10.918   3.090  10.975  0.3376  0.0801  0.9963
  575MOL0     C79267  11.032   2.757  11.214 -0.5719 -0.2539 -0.7237
  575MOL0     C79268  10.927   2.670  11.264 -0.2011 -0.2945  0.5641
  575MOL0     C79269  10.963   2.545  11.313 -0.8417  0.0583 -0.2415
  575MOL0     C79270  11.100   2.507  11.300  0.8713 -0.5613 -0.8805
  575MOL0     O79271  11.133   2.385  11.352  0.1770  0.3458  0.1759
  575MOL0     C79272  11.052   2.273  11.298  0.2849  0.4842  0.0072
  575MOL0     C79273  11.145   2.167  11.245 -0.6337  1.1868 -0.0112
  575MOL0     C79274  11.063   2.046  11.196 -0.3612 -0.1757 -0.5399
  575MOL0     C79275  11.131   1.953  11.093 -0.0561 -0.8161 -0.1860
  575MOL0     C79276  11.207   1.854  11.164 -0.4709 -0.1060 -0.4253
  575MOL0     C79277  11.284   1.780  11.208 -0.3847 -0.1507 -0.6951
  575MOL0     C79278  11.194   2.584  11.247 -0.0025 -0.4242  0.2464
  575MOL0     C79279  11.164   2.715  11.204 -0.1135  0.2158  0.3268
  575MOL0     C79280  11.277   2.798  11.136  0.2205  0.1358  1.0135
  575MOL0     H79281  10.637   3.025  11.153 -1.3855  1.2537  1.1153
  575MOL0     H79282  10.580   3.261  11.092  0.8608  0.4022  1.7088
  575MOL0     H79283  10.838   3.390  10.712  0.3309  1.9423 -1.0040
  575MOL0     H79284  10.913   3.500  10.830  0.0384  1.1698 -0.2046
  575MOL0     H79285  10.622   3.537  10.721  0.5362  0.4319  0.7792
  575MOL0     H79286  10.719   3.644  10.822 -0.4195 -0.4737  1.0154
  575MOL0     H79287  10.820   3.528  10.543  1.7300  0.0943 -0.4972
  575MOL0     H79288  10.705   3.665  10.536  0.0319 -0.7309  0.1988
  575MOL0     H79289  10.843   3.796  10.650 -1.4957 -0.9348 -1.1446
  575MOL0     H79290  10.972   3.672  10.684 -2.7857  0.3707  2.3384
  575MOL0     H79291  10.965   3.651  10.417 -0.4064 -1.0626  1.1248
  575MOL0     H79292  11.073   3.742  10.511 -0.8012  0.9198 -0.3988
  575MOL0     H79293  10.822   3.877  10.401 -0.1003  1.4216  2.2419
  575MOL0     H79294  10.943   3.955  10.479 -1.0977  1.2815 -0.1351
  575MOL0     H79295  11.005   3.781  10.243  0.0499 -0.7296  0.8888
  575MOL0     H79296  11.122   3.887  10.320  0.4199  1.3608  0.0862
  575MOL0     H79297  10.988   4.095  10.248 -2.4445  0.5747 -0.3709
  575MOL0     H79298  11.038   4.009  10.107 -2.9723  0.3904 -1.9357
  575MOL0     H79299  10.823   3.788  10.104  0.0501  0.7314  1.1339
  575MOL0     H79300  10.548   3.740  10.044  0.8272  0.6804 -2.1564
  575MOL0     H79301  10.482   3.873   9.958  2.3565  1.4436 -0.2960
  575MOL0     H79302  10.423   3.791  10.246  2.0000  0.4159  1.9075
  575MOL0     H79303  10.409   3.962  10.197  4.4695  1.0953 -1.1073
  575MOL0     H79304  10.275   3.918  10.017  1.0085  0.3681  0.6423
  575MOL0     H79305  10.265   3.745  10.041 -2.7116 -1.4227  2.0911
  575MOL0     H79306  10.155   3.811  10.266 -1.9547  1.3315  0.2684
  575MOL0     H79307  10.129   3.973  10.203 -4.1212  0.6600 -1.8576
  575MOL0     H79308   9.817   3.787   9.952 -0.4723 -0.0799 -0.0980
  575MOL0     H79309   9.684   3.492   9.844 -1.2327  0.1983 -0.7815
  575MOL0     H79310   9.648   3.661   9.863  0.2471 -1.0560 -2.1980
  575MOL0     H79311   9.580   3.540   9.975 -0.6499  1.3215 -1.0108
  575MOL0     H79312   9.750   3.084   9.939 -0.2895 -2.9148 -1.2337
  575MOL0     H79313   9.715   2.857   9.952 -2.0085  0.5495 -0.9705
  575MOL0     H79314   9.721   2.531  10.261  0.8251 -0.4544  1.0590
  575MOL0     H79315   9.680   2.681  10.340 -2.5113 -1.7265  1.3650
  575MOL0     H79316   9.466   2.590  10.277  0.0416  1.2932  0.9157
  575MOL0     H79317   9.505   2.704  10.152 -3.0866 -0.7401  0.4692
  575MOL0     H79318   9.548   2.397  10.150 -0.6131  0.6434  1.4564
  575MOL0     H79319   9.621   2.492  10.024  1.3142 -0.0462  0.0756
  575MOL0     H79320   9.411   2.589   9.949 -1.2611  1.2809  1.9213
  575MOL0     H79321   9.315   2.501  10.072 -0.1740  0.4060  0.1573
  575MOL0     H79322   9.476   2.382   9.850 -0.1070 -1.5282  1.5748
  575MOL0     H79323   9.415   2.281   9.980  1.1476 -3.3224 -2.7869
  575MOL0     H79324   9.279   2.299   9.755 -0.4288 -0.3738 -0.0720
  575MOL0     H79325   9.241   2.454   9.804 -0.3347  0.5450 -1.4773
  575MOL0     H79326   9.178   2.303  10.048 -1.5726 -1.4957  0.5321
  575MOL0     H79327   9.108   2.199   9.924 -0.6589  0.5163  0.1344
  575MOL0     H79328   8.968   2.407   9.853 -1.4925 -0.6801  0.9949
  575MOL0     H79329   9.042   2.480  10.002  0.2244 -0.8876  0.7389
  575MOL0     H79330   9.871   2.839  10.350 -0.6716  1.5497  1.4806
  575MOL0     H79331   9.887   3.078  10.353  2.2956 -0.4788 -1.7628
  575MOL0     H79332  10.001   3.410  10.215  2.2604  1.0858  1.0483
  575MOL0     H79333  10.121   3.618  10.205  0.6240  1.8683 -1.4073
  575MOL0     H79334  10.943   3.243  10.847  1.2891 -0.6828  0.6740
  575MOL0     H79335  11.012   3.043  10.947  0.2451  1.2888 -1.6985
  575MOL0     H79336  10.827   2.711  11.273 -0.5963 -1.3229  1.0230
  575MOL0     H79337  10.892   2.479  11.361  0.9724  0.4661  3.3052
  575MOL0     H79338  10.995   2.225  11.378 -0.0593 -1.6394 -1.4017
  575MOL0     H79339  10.979   2.299  11.221 -1.3120 -0.8731  0.9860
  575MOL0     H79340  11.207   2.122  11.323 -0.7781 -1.5742 -1.3866
  575MOL0     H79341  11.208   2.201  11.163  0.4598  0.6163  0.5633
  575MOL0     H79342  11.030   1.989  11.284  1.7487 -1.6744 -0.6215
  575MOL0     H79343  10.970   2.076  11.148 -1.5095 -1.0410  1.0129
  575MOL0     H79344  11.199   2.017  11.036 -1.0063  1.6895  1.3106
  575MOL0     H79345  11.060   1.903  11.028 -1.3359 -0.4093  0.8448
  575MOL0     H79346  11.354   1.722  11.266 -1.3297 -1.5412 -0.8999
  575MOL0     H79347  11.288   2.537  11.222 -0.5174 -1.0672 -0.4974
  575MOL0     H79348  11.376   2.752  11.138  0.2382 -0.0638 -1.3274
  575MOL0     H79349  11.257   2.822  11.031  2.4642  1.0508  0.7371
  575MOL0     H79350  11.285   2.895  11.186 -2.5647 -0.0687  2.0044
  576MOL0     O79351   0.282   9.385   7.707 -0.5696 -0.0806  0.0910
  576MOL0     C79352   0.252   9.456   7.616  0.4197 -0.2700  0.3588
  576MOL0     O79353   0.197   9.420   7.493  0.3184  0.0124 -0.2643
  576MOL0     C79354   0.147   9.288   7.480 -0.7880  0.8439  0.0759
  576MOL0     C79355   0.228   9.191   7.429 -0.2540  0.4396  0.3892
  576MOL0     C79356   0.183   9.054   7.418 -1.0908 -0.0565  0.2081
  576MOL0     C79357   0.050   9.023   7.442 -0.2025 -0.8160 -0.5798
  576MOL0     O79358   0.007   8.895   7.427 -0.8564 -0.5494  0.0459
  576MOL0     C79359  -0.079   8.879   7.310  0.6041 -0.0338 -0.5704
  576MOL0     C79360   0.007   8.884   7.183 -1.0657 -0.3824 -0.3132
  576MOL0     C79361   0.077   8.745   7.156 -0.8714 -0.6947 -0.3456
  576MOL0     C79362   0.148   8.726   7.020 -0.2895 -0.3263  0.0069
  576MOL0     C79363   0.219   8.590   7.008  0.5285 -0.0072 -0.3774
  576MOL0     C79364   0.132   8.470   7.026 -0.3040 -0.0250  0.4999
  576MOL0     C79365   0.220   8.343   6.998  0.0064 -0.1673  0.1344
  576MOL0     C79366   0.144   8.216   7.044  0.4704  0.0840  0.0239
  576MOL0     N79367   0.215   8.096   7.056  0.4984 -0.5887  0.6301
  576MOL0     C79368   0.327   8.062   7.119 -0.5769  0.3594  0.4686
  576MOL0     C79369   0.325   7.924   7.137 -0.2966 -0.4485  1.4521
  576MOL0     C79370   0.442   7.851   7.201 -0.2085  0.8307 -0.5106
  576MOL0     C79371   0.399   7.735   7.300  0.0815  0.4788 -0.4737
  576MOL0     C79372   0.510   7.642   7.356  0.1987  0.2535  0.7353
  576MOL0     C79373   0.621   7.715   7.436 -0.3156 -0.2144  0.2795
  576MOL0     O79374   0.649   7.648   7.560  0.3046 -0.2570 -0.4797
  576MOL0     C79375   0.576   7.681   7.673  0.7432  0.5920  0.1326
  576MOL0     C79376   0.602   7.597   7.787  0.0472  0.0679  0.1873
  576MOL0     C79377   0.551   7.636   7.912  0.1963  0.6368  0.1335
  576MOL0     C79378   0.621   7.582   8.026 -0.6860 -0.4723 -0.0168
  576MOL0     C79379   0.462   7.743   7.927  0.1054 -1.0528 -0.0109
  576MOL0     C79380   0.390   7.770   8.054  0.0068 -0.2346  0.3912
  576MOL0     O79381   0.397   7.687   8.162 -0.1135 -0.6999 -0.1848
  576MOL0     C79382   0.336   7.713   8.281  0.5603  0.3900 -0.4972
  576MOL0     C79383   0.406   7.686   8.400 -0.5147 -0.5204  0.1722
  576MOL0     C79384   0.355   7.694   8.534  0.1168 -0.6221  1.3740
  576MOL0     C79385   0.225   7.742   8.542 -0.2929 -0.2443  0.7148
  576MOL0     O79386   0.157   7.739   8.660 -0.0979  0.2608 -0.1343
  576MOL0     C79387   0.141   7.613   8.723 -0.0831  0.5220 -0.2794
  576MOL0     C79388   0.045   7.503   8.661 -0.2606 -0.0500  0.1532
  576MOL0     C79389  -0.103   7.547   8.699  1.2088 -0.2822 -0.0821
  576MOL0     C79390  -0.196   7.469   8.599 -0.9107 -0.4483  0.8373
  576MOL0     C79391  -0.340   7.529   8.581  0.7018  0.1427 -0.0488
  576MOL0     C79392  -0.426   7.524   8.714 -0.4737 -0.2133  0.0563
  576MOL0     C79393  -0.421   7.385   8.769 -0.1319 -0.6971  0.0205
  576MOL0     C79394  -0.532   7.376   8.871  0.4803  0.1047 -0.5087
  576MOL0    Cl79395  -0.515   7.494   9.001 -0.2578 -0.3989 -0.1789
  576MOL0     C79396   0.153   7.788   8.425  0.5166 -0.3949 -0.0622
  576MOL0     C79397   0.206   7.762   8.301 -0.6293 -0.0673  0.5797
  576MOL0     O79398   0.315   7.870   8.049 -0.3238  0.5739  0.4883
  576MOL0     C79399   0.434   7.817   7.814  0.5144  0.3617  1.1129
  576MOL0     C79400   0.477   7.783   7.682 -0.4975 -0.2201  0.0754
  576MOL0     N79401   0.197   7.881   7.101 -0.0974 -0.7703  0.0501
  576MOL0     N79402   0.132   7.980   7.050  0.1097 -0.6979  0.1988
  576MOL0     C79403  -0.030   9.121   7.502  0.0550  0.7117 -0.1213
  576MOL0     C79404   0.017   9.248   7.517  0.6344 -0.5338 -0.0990
  576MOL0     C79405   0.250   9.607   7.656 -0.2418  0.1205 -0.3963
  576MOL0     C79406   0.175   9.697   7.575  0.2914  0.2226  0.5855
  576MOL0     C79407   0.173   9.836   7.592  0.0789 -0.3107 -0.5546
  576MOL0     C79408   0.239   9.893   7.706 -0.3819 -0.3436 -0.1576
  576MOL0     O79409   0.234  10.026   7.734  0.5758  1.0016  0.6434
  576MOL0     C79410   0.305  10.097   7.840  1.0056 -0.5372  0.3916
  576MOL0     C79411   0.257  10.078   7.990  0.0257 -0.3590 -0.5333
  576MOL0     C79412   0.325  10.188   8.085 -0.5839  0.2823 -0.1063
  576MOL0     C79413   0.298  10.147   8.234  0.0968 -0.0566  0.0838
  576MOL0     C79414   0.400  10.044   8.266  1.3236  0.3348  0.5511
  576MOL0     C79415   0.457   9.937   8.293 -0.3189  0.0514 -0.2948
  576MOL0     C79416   0.305   9.803   7.787 -0.7046  0.4400 -0.3503
  576MOL0     C79417   0.316   9.672   7.761  0.3394 -0.2973 -0.1192
  576MOL0     C79418   0.415   9.609   7.851 -0.4802  0.2984 -0.2998
  576MOL0     H79419   0.329   9.218   7.400 -0.5015  1.4875  0.4471
  576MOL0     H79420   0.256   8.987   7.373  2.2796  2.2368  1.8632
  576MOL0     H79421  -0.150   8.957   7.283  0.7886 -1.0554 -4.6444
  576MOL0     H79422  -0.139   8.788   7.317 -1.9732  1.6376  0.8641
  576MOL0     H79423  -0.056   8.884   7.094 -0.9924  0.0897 -0.3687
  576MOL0     H79424   0.068   8.974   7.176 -1.2987  0.6912  5.8661
  576MOL0     H79425   0.150   8.717   7.232 -0.1570  1.3160 -0.2251
  576MOL0     H79426   0.000   8.668   7.165  1.6549 -3.4532 -0.8905
  576MOL0     H79427   0.075   8.755   6.944  2.5933  2.0569 -2.0922
  576MOL0     H79428   0.223   8.803   7.001 -0.7315 -0.1638 -1.1216
  576MOL0     H79429   0.320   8.593   7.051  0.3361  0.2230  0.0732
  576MOL0     H79430   0.253   8.585   6.904 -1.0685  0.9647 -0.9819
  576MOL0     H79431   0.084   8.467   7.124  0.2957 -2.9282  0.7853
  576MOL0     H79432   0.049   8.471   6.954 -1.2385 -1.7993  1.4924
  576MOL0     H79433   0.314   8.343   7.053  1.8562  0.8335 -2.8292
  576MOL0     H79434   0.262   8.339   6.897  1.6489 -1.5636  0.8202
  576MOL0     H79435   0.096   8.246   7.138 -0.2324  1.8135 -0.8348
  576MOL0     H79436   0.066   8.194   6.970  0.2046  2.6635 -0.5959
  576MOL0     H79437   0.412   8.125   7.142  0.1149  0.1466 -1.3891
  576MOL0     H79438   0.493   7.924   7.265 -0.9439  2.4149 -1.6603
  576MOL0     H79439   0.516   7.822   7.126  0.5786  2.1265 -0.2752
  576MOL0     H79440   0.348   7.772   7.389 -0.2094 -0.7145 -0.1337
  576MOL0     H79441   0.327   7.683   7.236  2.1630 -1.7954 -1.1115
  576MOL0     H79442   0.465   7.570   7.425 -0.3015  1.0315  1.2375
  576MOL0     H79443   0.549   7.582   7.273  1.1574 -2.1974  2.8366
  576MOL0     H79444   0.710   7.721   7.373  0.2078 -2.0712  0.7731
  576MOL0     H79445   0.597   7.817   7.469  2.0869 -0.0114  1.6611
  576MOL0     H79446   0.672   7.514   7.777 -0.6478 -0.3967 -1.0161
  576MOL0     H79447   0.553   7.502   8.059 -5.0804  1.5573 -3.1119
  576MOL0     H79448   0.646   7.655   8.103  3.0916  0.8775 -2.2356
  576MOL0     H79449   0.715   7.535   7.997 -1.1899 -1.3965 -0.2070
  576MOL0     H79450   0.508   7.647   8.395 -0.3293  0.0714 -0.8923
  576MOL0     H79451   0.395   7.654   8.626  1.0545  2.3228  2.3411
  576MOL0     H79452   0.237   7.566   8.745  0.7649  1.8065 -1.0889
  576MOL0     H79453   0.100   7.635   8.822  3.2693  0.6970  1.1880
  576MOL0     H79454   0.064   7.488   8.555  1.7354  0.9165  0.3121
  576MOL0     H79455   0.057   7.410   8.717  2.9263  1.2418  1.9123
  576MOL0     H79456  -0.119   7.655   8.701  1.3707 -0.0874  5.2544
  576MOL0     H79457  -0.132   7.528   8.803  0.1389  0.1202 -0.2992
  576MOL0     H79458  -0.199   7.362   8.618 -1.7074 -0.1889  2.3527
  576MOL0     H79459  -0.149   7.485   8.501  0.7538 -3.0678  1.1458
  576MOL0     H79460  -0.342   7.635   8.555 -0.2095  0.0378 -0.4421
  576MOL0     H79461  -0.382   7.475   8.496 -1.1131  1.0862  0.2028
  576MOL0     H79462  -0.529   7.550   8.691 -0.0273  3.4855  1.6146
  576MOL0     H79463  -0.388   7.601   8.782 -3.9045  0.3396  1.5336
  576MOL0     H79464  -0.323   7.370   8.815  0.6305 -2.3072 -1.9756
  576MOL0     H79465  -0.436   7.307   8.694 -1.3834 -1.3653  0.9272
  576MOL0     H79466  -0.519   7.277   8.916  4.4826  1.8247  2.8419
  576MOL0     H79467  -0.627   7.382   8.817  0.6901  2.8247 -0.7268
  576MOL0     H79468   0.055   7.832   8.439  0.6873 -0.0397  0.0114
  576MOL0     H79469   0.144   7.786   8.216  2.6147  1.5469 -1.5355
  576MOL0     H79470   0.354   7.890   7.814  1.5751  1.6089 -0.2914
  576MOL0     H79471   0.441   7.834   7.593  2.6702  0.8483 -0.7275
  576MOL0     H79472  -0.136   9.106   7.521 -0.3411  1.4337 -1.5738
  576MOL0     H79473  -0.043   9.334   7.545  0.0559 -0.9173 -0.1247
  576MOL0     H79474   0.121   9.655   7.491  1.5633  1.5229 -0.9384
  576MOL0     H79475   0.110   9.894   7.525  1.5127 -0.9212 -2.5392
  576MOL0     H79476   0.410  10.065   7.842  2.1337  2.7203 -0.4893
  576MOL0     H79477   0.307  10.201   7.805 -0.5254 -0.7982 -0.5460
  576MOL0     H79478   0.296   9.978   8.011  1.3338  0.3814  0.7298
  576MOL0     H79479   0.150  10.081   8.012  0.2421 -2.2164  1.0233
  576MOL0     H79480   0.434  10.190   8.076 -0.3147 -0.9548  2.0820
  576MOL0     H79481   0.285  10.288   8.068 -1.1077  0.2132  0.6647
  576MOL0     H79482   0.194  10.119   8.250 -0.4609  2.8159  2.2978
  576MOL0     H79483   0.312  10.236   8.297  1.8227  0.5488 -1.0761
  576MOL0     H79484   0.490   9.835   8.304 -3.3505 -1.0619 -0.4758
  576MOL0     H79485   0.353   9.841   7.877 -2.6459  0.2142  0.8514
  576MOL0     H79486   0.435   9.679   7.933 -1.7873 -0.2877  0.5664
  576MOL0     H79487   0.371   9.518   7.894  2.3626 -0.8236  0.4067
  576MOL0     H79488   0.513   9.582   7.812 -1.2519  1.0174 -2.9649
  577MOL0     O79489   7.863   3.987   3.069  0.1899 -0.0794  0.1916
  577MOL0     C79490   7.850   3.957   2.954  0.9000  0.4502  0.1182
  577MOL0     O79491   7.946   3.891   2.880  0.0019 -0.3973  0.3876
  577MOL0     C79492   8.005   3.775   2.929  0.3251  0.2486  0.1153
  577MOL0     C79493   7.943   3.673   3.011 -0.1745  0.7251 -0.6331
  577MOL0     C79494   8.010   3.563   3.053 -0.4579  0.6731 -0.1490
  577MOL0     C79495   8.150   3.559   3.028 -0.3598  0.3589  0.9026
  577MOL0     O79496   8.219   3.454   3.070  0.3796  0.5572  0.0025
  577MOL0     C79497   8.340   3.423   2.992 -0.6978  0.9525  0.3016
  577MOL0     C79498   8.401   3.292   3.031  0.0934  0.1499  0.4617
  577MOL0     C79499   8.519   3.248   2.941 -0.0706 -0.6307  0.4928
  577MOL0     C79500   8.556   3.093   2.945  0.9166 -0.3648 -0.5591
  577MOL0     C79501   8.689   3.046   2.886 -1.1014 -0.0465  1.1812
  577MOL0     C79502   8.802   3.079   2.981 -0.3848  1.0576 -0.3320
  577MOL0     C79503   8.936   3.011   2.931  0.2978 -1.1583  0.9326
  577MOL0     C79504   8.931   2.864   2.975 -0.2939 -0.6328  0.4733
  577MOL0     N79505   8.963   2.775   2.867  0.2074  0.5425 -0.0417
  577MOL0     C79506   8.871   2.746   2.769 -0.4863  0.5934 -0.2137
  577MOL0     C79507   8.937   2.664   2.683 -0.4087 -0.1800 -0.1691
  577MOL0     C79508   8.884   2.621   2.552 -0.4607 -0.3082 -0.4405
  577MOL0     C79509   8.814   2.724   2.459  0.0993  0.1762 -0.8949
  577MOL0     C79510   8.892   2.856   2.434 -0.7887  0.2503  0.7760
  577MOL0     C79511   9.007   2.819   2.335  0.4345 -0.3641  0.0040
  577MOL0     O79512   9.097   2.939   2.318  0.1994  0.1647  0.7881
  577MOL0     C79513   9.216   2.912   2.260 -0.8609 -0.9977  0.8900
  577MOL0     C79514   9.232   2.917   2.114 -0.2626 -0.2760 -0.4403
  577MOL0     C79515   9.356   2.894   2.047  0.9032 -0.3443  0.0053
  577MOL0     C79516   9.353   2.898   1.893  0.4809 -0.3005 -0.6297
  577MOL0     C79517   9.466   2.875   2.135 -1.3626 -0.2429  1.0124
  577MOL0     C79518   9.597   2.842   2.090  0.6603 -0.4318 -1.0508
  577MOL0     O79519   9.697   2.863   2.190 -0.0121  0.3294  0.1595
  577MOL0     C79520   9.829   2.833   2.174 -1.1692 -0.0352  0.5541
  577MOL0     C79521   9.876   2.707   2.126  0.5110 -0.2324  0.5640
  577MOL0     C79522  10.009   2.659   2.124  0.4532  0.3030 -0.1453
  577MOL0     C79523  10.106   2.744   2.172  0.1001  0.2132  0.5890
  577MOL0     O79524  10.238   2.700   2.171 -0.3121  0.2052 -0.1462
  577MOL0     C79525  10.344   2.786   2.170 -0.7375  0.0161 -0.8194
  577MOL0     C79526  10.355   2.850   2.032 -0.0087 -0.1848  0.3504
  577MOL0     C79527  10.479   2.930   2.008 -0.4477  0.2419  1.9026
  577MOL0     C79528  10.462   3.015   1.876  0.0653  0.7189  0.6841
  577MOL0     C79529  10.480   2.914   1.759  0.7230 -1.1171 -0.0120
  577MOL0     C79530  10.466   2.996   1.630 -1.3366  1.4896 -0.1817
  577MOL0     C79531  10.495   2.923   1.506 -0.2284  0.5076 -0.2449
  577MOL0     C79532  10.488   2.991   1.370  0.5000  0.4789  0.0404
  577MOL0    Cl79533  10.330   3.089   1.349 -0.1861  0.5454  0.4301
  577MOL0     C79534  10.063   2.873   2.219  0.3631 -0.1121  0.5925
  577MOL0     C79535   9.926   2.910   2.231  0.6627 -0.5824 -0.6753
  577MOL0     O79536   9.621   2.810   1.974 -0.2854 -0.1025  0.4711
  577MOL0     C79537   9.446   2.874   2.275  0.1733 -0.3123 -0.3432
  577MOL0     C79538   9.327   2.899   2.337  0.1285  0.1996  0.3412
  577MOL0     N79539   9.069   2.650   2.734  0.2717 -0.0919  0.1147
  577MOL0     N79540   9.093   2.720   2.840  0.4814 -0.6028 -0.0943
  577MOL0     C79541   8.208   3.665   2.947 -0.6217 -0.5336  0.4855
  577MOL0     C79542   8.136   3.764   2.887  1.0220 -0.1771 -0.5502
  577MOL0     C79543   7.746   4.024   2.886 -0.5808 -0.9532  0.0400
  577MOL0     C79544   7.775   4.084   2.764  0.0097  0.1239  0.1099
  577MOL0     C79545   7.669   4.148   2.692 -0.2298 -0.3176  0.4680
  577MOL0     C79546   7.540   4.166   2.739 -0.5521  0.0022 -0.6388
  577MOL0     O79547   7.448   4.214   2.644 -0.6568 -0.5689 -0.2160
  577MOL0     C79548   7.312   4.243   2.689 -0.0880 -0.4269  0.4543
  577MOL0     C79549   7.210   4.278   2.589 -0.0007 -0.0946  0.3882
  577MOL0     C79550   7.087   4.345   2.652 -1.2167 -0.1083  0.1469
  577MOL0     C79551   6.996   4.408   2.551 -0.6298  0.5077 -0.1489
  577MOL0     C79552   6.885   4.469   2.622  0.2986  0.8394  0.1610
  577MOL0     C79553   6.782   4.498   2.676  0.0210  0.2367  0.5522
  577MOL0     C79554   7.518   4.121   2.861  0.0120  0.0436 -0.7290
  577MOL0     C79555   7.617   4.048   2.942 -0.1017  0.0243  0.0746
  577MOL0     C79556   7.557   3.995   3.078 -0.2522 -0.6788 -0.4288
  577MOL0     H79557   7.838   3.677   3.038  0.6233  1.1473  2.9467
  577MOL0     H79558   7.968   3.480   3.109  1.5632  0.4864  1.1846
  577MOL0     H79559   8.418   3.500   2.987 -0.8445  1.1383  0.8031
  577MOL0     H79560   8.307   3.418   2.887 -3.9097  4.4813  0.9344
  577MOL0     H79561   8.441   3.305   3.132  0.8233  3.7686 -0.1725
  577MOL0     H79562   8.318   3.223   3.009  1.7036 -0.7088 -3.8082
  577MOL0     H79563   8.496   3.280   2.839 -1.9169 -1.0035  0.7584
  577MOL0     H79564   8.602   3.306   2.982 -1.1693 -0.7498  3.0486
  577MOL0     H79565   8.552   3.058   3.048 -1.0163  0.6611 -0.2498
  577MOL0     H79566   8.478   3.041   2.889  1.7505  0.4871 -2.6077
  577MOL0     H79567   8.706   3.088   2.787  3.4496 -2.5206  0.6350
  577MOL0     H79568   8.688   2.938   2.874 -1.4743  0.3167 -4.3521
  577MOL0     H79569   8.813   3.188   2.986 -4.1191  1.7475 -2.8639
  577MOL0     H79570   8.772   3.039   3.078  0.0638  2.1307  0.2768
  577MOL0     H79571   9.025   3.060   2.972 -0.2337  1.4295 -0.7231
  577MOL0     H79572   8.956   3.019   2.824  0.6932  0.5986  1.1015
  577MOL0     H79573   9.017   2.849   3.041  1.2824 -2.9477 -1.9005
  577MOL0     H79574   8.854   2.824   3.041  0.3376 -0.7061  1.1878
  577MOL0     H79575   8.769   2.781   2.755  0.6581  3.8004 -1.5438
  577MOL0     H79576   8.798   2.556   2.574 -2.1169  0.7841 -3.2306
  577MOL0     H79577   8.954   2.554   2.501  2.6503  1.6886  0.8975
  577MOL0     H79578   8.797   2.661   2.371  0.1206 -1.1950  0.0581
  577MOL0     H79579   8.718   2.747   2.508  1.8734  0.3062  2.8743
  577MOL0     H79580   8.830   2.925   2.376 -0.7363 -1.3431 -1.2851
  577MOL0     H79581   8.927   2.897   2.529 -1.2674 -0.5471  1.3071
  577MOL0     H79582   9.074   2.744   2.378  1.0228 -0.2407 -0.6783
  577MOL0     H79583   8.964   2.788   2.239  0.1331 -0.6821  0.2390
  577MOL0     H79584   9.145   2.929   2.051  0.5747  1.7743 -1.3003
  577MOL0     H79585   9.418   2.979   1.860 -0.6367  0.6932 -0.4511
  577MOL0     H79586   9.251   2.927   1.865 -1.2520 -0.0118  4.7758
  577MOL0     H79587   9.382   2.797   1.862 -2.1799 -1.0284 -1.0261
  577MOL0     H79588   9.802   2.633   2.095  1.2363 -0.9535  0.5336
  577MOL0     H79589  10.031   2.555   2.103  0.3612  0.9746 -4.4436
  577MOL0     H79590  10.347   2.860   2.250 -3.0646 -2.1167  1.4125
  577MOL0     H79591  10.433   2.733   2.204  1.2163  2.9239 -0.9936
  577MOL0     H79592  10.328   2.770   1.962 -3.6978 -2.3180  3.8080
  577MOL0     H79593  10.277   2.926   2.024  1.5680  1.5518  0.9402
  577MOL0     H79594  10.567   2.864   2.002  1.0116  2.1926  0.4684
  577MOL0     H79595  10.487   3.008   2.084  1.6011  0.2705  1.7061
  577MOL0     H79596  10.545   3.086   1.872  0.6133  0.4054  3.9892
  577MOL0     H79597  10.358   3.049   1.867  0.3021  1.1761 -0.4367
  577MOL0     H79598  10.578   2.865   1.761  0.5052 -1.5433  0.2157
  577MOL0     H79599  10.394   2.846   1.755 -2.6368  2.5672  2.0102
  577MOL0     H79600  10.536   3.077   1.652 -0.2000 -0.0902  2.4364
  577MOL0     H79601  10.364   3.037   1.631 -2.2481 -0.5997  1.7477
  577MOL0     H79602  10.425   2.840   1.511 -1.4705  1.5924  1.5939
  577MOL0     H79603  10.596   2.885   1.521 -0.1931  0.7825  0.2353
  577MOL0     H79604  10.494   2.916   1.291 -1.0137 -0.1612  0.4949
  577MOL0     H79605  10.573   3.059   1.364 -0.7793  2.0493 -1.1390
  577MOL0     H79606  10.140   2.948   2.237  2.3645 -1.3828 -1.9626
  577MOL0     H79607   9.891   3.004   2.272 -2.6532 -3.0652  2.9248
  577MOL0     H79608   9.528   2.847   2.341  0.4430 -1.0276 -0.9498
  577MOL0     H79609   9.318   2.895   2.445  0.9157 -1.4745  0.3829
  577MOL0     H79610   8.311   3.658   2.916 -0.6323 -4.5911  0.7668
  577MOL0     H79611   8.176   3.840   2.819 -2.7537  2.7469  0.1303
  577MOL0     H79612   7.875   4.077   2.722 -0.3985  1.1379 -1.1017
  577MOL0     H79613   7.719   4.165   2.597  4.0918 -1.4528  2.2616
  577MOL0     H79614   7.265   4.160   2.742 -1.6989 -0.6751 -1.2571
  577MOL0     H79615   7.326   4.338   2.742  0.7112  1.0688 -2.2725
  577MOL0     H79616   7.177   4.209   2.511 -1.8760  0.7419  0.3979
  577MOL0     H79617   7.255   4.355   2.526  0.6326 -1.7661 -1.3082
  577MOL0     H79618   7.040   4.271   2.718 -0.9384  0.4224  0.9504
  577MOL0     H79619   7.125   4.429   2.711 -1.3774 -0.5228  0.8516
  577MOL0     H79620   6.972   4.334   2.474  1.1481  3.2016 -3.6095
  577MOL0     H79621   7.057   4.480   2.495  1.2537 -0.7043  0.2371
  577MOL0     H79622   6.680   4.520   2.703 -0.3357  0.3328 -0.7857
  577MOL0     H79623   7.423   4.131   2.913  0.3140 -3.1597  0.6652
  577MOL0     H79624   7.462   3.940   3.072  1.2229 -3.7072  1.5067
  577MOL0     H79625   7.626   3.916   3.108  1.6778  0.6464 -1.2028
  577MOL0     H79626   7.546   4.068   3.159  2.5917 -0.9674  0.3249
  578MOL0     O79627   1.713  10.466   8.407  0.3201  1.0422 -0.4496
  578MOL0     C79628   1.600  10.507   8.374  0.7495 -0.2057 -0.7023
  578MOL0     O79629   1.489  10.432   8.350 -0.2067  0.6176  0.2647
  578MOL0     C79630   1.497  10.299   8.322  0.1834  0.2034 -1.4620
  578MOL0     C79631   1.613  10.214   8.306 -0.6445 -0.0131  0.3444
  578MOL0     C79632   1.599  10.080   8.261  0.5507  0.2633  0.3432
  578MOL0     C79633   1.474  10.039   8.206  0.1823 -0.5006 -0.3302
  578MOL0     O79634   1.453   9.925   8.137  0.2149 -0.2659 -0.4359
  578MOL0     C79635   1.558   9.888   8.047 -0.8240 -0.2338 -0.0097
  578MOL0     C79636   1.505   9.784   7.942 -0.7085  0.4439 -0.0899
  578MOL0     C79637   1.382   9.847   7.868 -0.1749  0.3507  0.0359
  578MOL0     C79638   1.395   9.800   7.722 -1.2712 -0.5400  0.3412
  578MOL0     C79639   1.265   9.855   7.647 -1.0693  0.0918  0.0274
  578MOL0     C79640   1.205   9.740   7.565 -0.1859  0.0295 -0.9849
  578MOL0     C79641   1.086   9.798   7.483 -0.1314 -0.1939  0.4625
  578MOL0     C79642   1.039   9.699   7.381 -0.7072  1.0684  0.2005
  578MOL0     N79643   0.985   9.582   7.446  0.3329  0.0009 -0.4559
  578MOL0     C79644   0.870   9.587   7.525  0.5959 -0.0232 -0.4463
  578MOL0     C79645   0.872   9.464   7.581  0.9977  0.1711  0.3739
  578MOL0     C79646   0.758   9.394   7.657  0.4746  0.4159  0.1116
  578MOL0     C79647   0.677   9.288   7.580  0.3013  0.2193  0.3589
  578MOL0     C79648   0.765   9.157   7.562 -0.3480 -0.4918 -0.3870
  578MOL0     C79649   0.668   9.035   7.538 -0.3078 -0.2776  0.4724
  578MOL0     O79650   0.756   8.918   7.505 -0.3583 -0.1628  0.1901
  578MOL0     C79651   0.704   8.819   7.426  0.1094 -0.5430  0.3698
  578MOL0     C79652   0.577   8.764   7.460  0.5092  0.0272 -0.4565
  578MOL0     C79653   0.528   8.657   7.380  0.3393 -0.3312 -0.2446
  578MOL0     C79654   0.392   8.597   7.403  0.1372  0.3476  0.1394
  578MOL0     C79655   0.603   8.606   7.269 -0.3310 -0.1995  0.0620
  578MOL0     C79656   0.574   8.486   7.182  0.0753  0.6273 -0.1843
  578MOL0     O79657   0.617   8.504   7.058 -0.8805 -0.6367 -0.6020
  578MOL0     C79658   0.587   8.407   6.970 -0.7255 -0.1578 -0.4440
  578MOL0     C79659   0.641   8.278   6.987 -1.0420 -0.3418 -0.5630
  578MOL0     C79660   0.612   8.178   6.908  0.2779  0.5799  1.0344
  578MOL0     C79661   0.541   8.206   6.791 -0.7517  0.0124  0.9028
  578MOL0     O79662   0.506   8.108   6.696  0.3181 -0.3333  0.8036
  578MOL0     C79663   0.465   7.988   6.760 -0.3889 -1.0830  0.6950
  578MOL0     C79664   0.428   7.900   6.641  0.7509  0.8979  0.7459
  578MOL0     C79665   0.333   7.784   6.683 -0.5390  0.2612 -0.9503
  578MOL0     C79666   0.376   7.715   6.823 -0.0015  0.0498 -0.2835
  578MOL0     C79667   0.327   7.563   6.820 -0.2543 -0.3266 -0.4526
  578MOL0     C79668   0.177   7.545   6.828 -0.1145 -0.4608 -0.5129
  578MOL0     C79669   0.143   7.410   6.888  0.3156 -0.1284  0.0014
  578MOL0     C79670  -0.009   7.375   6.907 -0.3226 -0.0805  0.3779
  578MOL0    Cl79671  -0.024   7.202   6.972  0.0859 -0.3883  0.2835
  578MOL0     C79672   0.485   8.332   6.764 -1.3102 -0.6815  0.1733
  578MOL0     C79673   0.514   8.432   6.860  0.2554  0.5165  0.2725
  578MOL0     O79674   0.521   8.382   7.224  0.1601 -0.7995 -0.5516
  578MOL0     C79675   0.720   8.674   7.238  0.7357  0.3870  1.3710
  578MOL0     C79676   0.773   8.780   7.312  0.1831  0.3248  0.5441
  578MOL0     N79677   0.988   9.389   7.543 -0.1312  0.2445  0.0116
  578MOL0     N79678   1.045   9.461   7.455 -0.1575 -0.0725 -0.4359
  578MOL0     C79679   1.364  10.128   8.228 -0.9795  0.4823  0.0685
  578MOL0     C79680   1.376  10.250   8.284  0.8556  0.1226  0.3026
  578MOL0     C79681   1.597  10.659   8.350  0.4510 -0.7424  0.4338
  578MOL0     C79682   1.726  10.716   8.357 -0.9615  0.0910  0.6129
  578MOL0     C79683   1.738  10.854   8.336 -0.4218 -0.4607  1.1683
  578MOL0     C79684   1.628  10.936   8.300 -0.5507 -0.8093 -0.0658
  578MOL0     O79685   1.645  11.068   8.264  0.6056  0.4323 -0.6147
  578MOL0     C79686   1.543  11.151   8.226  1.0600 -0.0946 -0.3113
  578MOL0     C79687   1.608  11.274   8.165 -0.0370  0.8133  0.2936
  578MOL0     C79688   1.495  11.375   8.144 -0.3976  0.6709 -0.7444
  578MOL0     C79689   1.507  11.505   8.067 -0.1971 -0.1275  0.1637
  578MOL0     C79690   1.621  11.569   8.142 -1.2562 -0.1775 -0.3716
  578MOL0     C79691   1.708  11.629   8.215  1.0109  0.4915  0.6832
  578MOL0     C79692   1.505  10.877   8.300 -0.8541 -0.8160 -0.0827
  578MOL0     C79693   1.486  10.748   8.342 -0.4738  0.3029  0.4978
  578MOL0     C79694   1.338  10.710   8.358 -0.6117  0.7508 -0.2950
  578MOL0     H79695   1.713  10.237   8.342 -0.5420 -2.7793  2.2025
  578MOL0     H79696   1.695  10.033   8.242  0.4618 -0.0649  0.7053
  578MOL0     H79697   1.627   9.833   8.111 -0.2664 -1.4771 -1.6178
  578MOL0     H79698   1.595   9.983   8.007  1.1623  0.2784  2.7745
  578MOL0     H79699   1.587   9.757   7.875 -0.7767 -3.1053  1.0668
  578MOL0     H79700   1.475   9.688   7.983  2.8829 -1.4358 -1.4444
  578MOL0     H79701   1.292   9.807   7.917 -2.3706 -0.1821 -3.9897
  578MOL0     H79702   1.369   9.956   7.871 -3.6977  0.0867 -0.6713
  578MOL0     H79703   1.485   9.837   7.672 -0.3785 -3.8142 -0.6736
  578MOL0     H79704   1.404   9.691   7.727 -0.5578 -0.4499  1.4264
  578MOL0     H79705   1.293   9.938   7.581  1.2303 -1.0374 -0.5306
  578MOL0     H79706   1.180   9.888   7.706 -2.3820 -1.7789 -0.7184
  578MOL0     H79707   1.278   9.686   7.505  0.9332  0.6686 -0.2359
  578MOL0     H79708   1.157   9.680   7.643  2.0506  3.8694  3.8587
  578MOL0     H79709   1.125   9.885   7.429  0.7122 -0.2812  0.9107
  578MOL0     H79710   1.010   9.830   7.555 -1.7253  1.0682 -1.6784
  578MOL0     H79711   0.972   9.745   7.308 -0.8262  0.4341 -0.0986
  578MOL0     H79712   1.122   9.668   7.317  0.0193  2.7708  0.2530
  578MOL0     H79713   0.797   9.668   7.523  1.1854  0.5338  0.1371
  578MOL0     H79714   0.693   9.476   7.688 -1.2863 -0.6128 -0.7030
  578MOL0     H79715   0.812   9.357   7.745  0.1859 -2.4307 -0.7811
  578MOL0     H79716   0.582   9.258   7.625 -2.1733  0.7749 -3.9420
  578MOL0     H79717   0.656   9.330   7.481  2.6577  1.3531  0.2699
  578MOL0     H79718   0.820   9.178   7.469 -0.0160 -1.1024 -0.3290
  578MOL0     H79719   0.837   9.144   7.643 -0.0053 -2.3464 -0.9440
  578MOL0     H79720   0.602   9.009   7.621 -1.2344 -2.0909 -0.7562
  578MOL0     H79721   0.604   9.063   7.453 -1.6800 -1.5052  1.0499
  578MOL0     H79722   0.511   8.805   7.536 -0.5682  4.2766 -3.3504
  578MOL0     H79723   0.387   8.494   7.441 -0.1398 -0.2161 -1.3184
  578MOL0     H79724   0.336   8.603   7.308  0.8702 -1.5535 -0.4724
  578MOL0     H79725   0.345   8.669   7.470 -0.6283  0.6840 -0.7265
  578MOL0     H79726   0.712   8.260   7.067 -0.7448 -1.8766 -1.1416
  578MOL0     H79727   0.640   8.075   6.924  1.3186  0.9624  1.8213
  578MOL0     H79728   0.553   7.948   6.813  0.8155  2.8408  2.0420
  578MOL0     H79729   0.377   8.000   6.823 -0.8894 -0.1591 -0.1649
  578MOL0     H79730   0.365   7.961   6.575  1.9213  0.1786 -1.1238
  578MOL0     H79731   0.518   7.861   6.593 -0.8173  0.7457 -2.3420
  578MOL0     H79732   0.357   7.712   6.604  0.6067 -0.3923 -0.0465
  578MOL0     H79733   0.229   7.818   6.677 -1.0830 -1.1432 -0.0048
  578MOL0     H79734   0.331   7.774   6.903 -0.1972 -1.5921  0.8605
  578MOL0     H79735   0.484   7.704   6.832 -0.0627  0.2343  0.8047
  578MOL0     H79736   0.371   7.516   6.731 -0.6943  0.5589 -1.1429
  578MOL0     H79737   0.377   7.523   6.909  0.7635 -0.9962 -1.2906
  578MOL0     H79738   0.143   7.561   6.726  0.0959  1.6485 -0.3065
  578MOL0     H79739   0.139   7.629   6.887  1.4721  0.5013 -0.7976
  578MOL0     H79740   0.195   7.407   6.984 -0.9630  0.6106  0.7538
  578MOL0     H79741   0.185   7.333   6.823 -1.5280 -0.7767 -0.5024
  578MOL0     H79742  -0.048   7.381   6.804 -0.7809  1.4632  0.6159
  578MOL0     H79743  -0.056   7.452   6.968  0.6129  1.7135 -1.0730
  578MOL0     H79744   0.416   8.360   6.684  1.7660  3.9952 -1.2226
  578MOL0     H79745   0.467   8.529   6.848 -4.4492 -1.7251 -2.0542
  578MOL0     H79746   0.776   8.659   7.146 -2.1081  4.8535 -1.5601
  578MOL0     H79747   0.864   8.821   7.269  1.4171 -0.4493  2.2937
  578MOL0     H79748   1.265  10.098   8.193 -2.4179  1.8302  2.7238
  578MOL0     H79749   1.302  10.328   8.279 -0.1556 -0.8217  0.1124
  578MOL0     H79750   1.819  10.667   8.383 -1.2492 -0.2223  1.0601
  578MOL0     H79751   1.834  10.904   8.342 -1.0376  1.6856 -2.9968
  578MOL0     H79752   1.483  11.112   8.143 -1.6313  3.8419 -0.5032
  578MOL0     H79753   1.485  11.171   8.317 -1.2527  1.2334 -1.9685
  578MOL0     H79754   1.651  11.251   8.067 -0.1036  0.5262  0.3305
  578MOL0     H79755   1.677  11.325   8.233  1.3997  0.0438 -0.5466
  578MOL0     H79756   1.408  11.325   8.100 -0.0618 -1.8219  1.1571
  578MOL0     H79757   1.471  11.400   8.248  0.2951 -1.4986 -0.0134
  578MOL0     H79758   1.412  11.558   8.077 -1.2023 -1.1922 -2.6577
  578MOL0     H79759   1.528  11.491   7.961  0.0686 -1.5154  0.3699
  578MOL0     H79760   1.790  11.676   8.263  1.0829  1.6927 -0.5712
  578MOL0     H79761   1.416  10.930   8.267  0.3147  1.2815 -0.0560
  578MOL0     H79762   1.291  10.702   8.259 -0.6730 -0.4557 -0.1812
  578MOL0     H79763   1.322  10.612   8.403 -2.6226  0.5154 -1.4125
  578MOL0     H79764   1.291  10.769   8.437 -0.3759  0.3141  0.1732
  579MOL0     O79765   4.102   3.985   4.820 -0.7465 -0.5174 -0.5727
  579MOL0     C79766   4.005   3.916   4.824  0.1792  0.6080 -1.0941
  579MOL0     O79767   4.005   3.778   4.873  0.5622 -0.7908  0.4365
  579MOL0     C79768   4.113   3.737   4.960  0.1457 -0.0973  0.7405
  579MOL0     C79769   4.189   3.641   4.911  1.0575  0.8256 -0.9075
  579MOL0     C79770   4.294   3.588   5.000 -0.5759 -0.6052  0.1701
  579MOL0     C79771   4.296   3.631   5.134 -0.4507  0.3164 -0.3490
  579MOL0     O79772   4.391   3.584   5.229  0.3690  0.5177 -0.1049
  579MOL0     C79773   4.524   3.594   5.186 -0.5509 -0.4270  0.3629
  579MOL0     C79774   4.625   3.565   5.298  0.5897  0.7732  0.8271
  579MOL0     C79775   4.633   3.668   5.412 -0.3043  0.1460  0.0847
  579MOL0     C79776   4.697   3.607   5.531 -0.5284  0.8587 -1.0462
  579MOL0     C79777   4.850   3.606   5.503  0.0054  0.5277  0.0549
  579MOL0     C79778   4.907   3.529   5.620 -0.9327  0.4789 -0.1580
  579MOL0     C79779   5.059   3.502   5.584 -0.1268  0.0724  0.0613
  579MOL0     C79780   5.140   3.409   5.682  0.1444 -0.9550  0.0714
  579MOL0     N79781   5.260   3.340   5.625  0.2225  0.7068 -1.0737
  579MOL0     C79782   5.282   3.203   5.631  0.4655 -0.4025 -0.3699
  579MOL0     C79783   5.416   3.197   5.616  0.1238  0.5862 -1.0340
  579MOL0     C79784   5.493   3.066   5.618 -0.4525  0.3217 -0.3281
  579MOL0     C79785   5.555   3.008   5.484  0.8527 -0.4718 -0.7704
  579MOL0     C79786   5.435   2.979   5.390  0.4633 -1.0678  0.5828
  579MOL0     C79787   5.437   3.033   5.248  0.3434 -0.5431  0.3270
  579MOL0     O79788   5.448   3.177   5.265 -0.3294 -0.1867 -0.2937
  579MOL0     C79789   5.408   3.256   5.156 -0.4165  0.2520 -0.5811
  579MOL0     C79790   5.382   3.390   5.182  0.6920  0.9637 -0.4712
  579MOL0     C79791   5.356   3.487   5.092  0.2619  0.5250 -0.2598
  579MOL0     C79792   5.332   3.626   5.166  0.1550 -0.3551 -0.5800
  579MOL0     C79793   5.348   3.454   4.958  1.0040  0.4154 -0.1216
  579MOL0     C79794   5.291   3.549   4.849  0.1574  0.0325 -0.2995
  579MOL0     O79795   5.235   3.664   4.884  0.6294  1.0373 -0.2522
  579MOL0     C79796   5.138   3.708   4.800 -0.1436  0.1845  0.3802
  579MOL0     C79797   5.174   3.775   4.676  0.1412  0.3149 -0.6270
  579MOL0     C79798   5.077   3.855   4.617 -0.2189 -0.3061 -0.6036
  579MOL0     C79799   4.950   3.874   4.668  0.2173 -0.2251 -0.0798
  579MOL0     O79800   4.873   3.966   4.607  0.2386  0.0517  0.0628
  579MOL0     C79801   4.777   4.037   4.690 -0.2174  1.0697 -0.6205
  579MOL0     C79802   4.719   4.152   4.614 -0.0641 -0.0188  0.3820
  579MOL0     C79803   4.626   4.110   4.498  0.7256  0.4085  0.6696
  579MOL0     C79804   4.573   4.230   4.419  0.4051 -0.3023  0.4329
  579MOL0     C79805   4.451   4.183   4.328  0.0230  0.4188  0.2894
  579MOL0     C79806   4.326   4.200   4.414 -0.7546 -0.0276 -1.3686
  579MOL0     C79807   4.204   4.154   4.340 -0.3232  0.6726  0.2692
  579MOL0     C79808   4.089   4.138   4.434 -1.1407 -0.5894  0.0991
  579MOL0    Cl79809   3.944   4.076   4.340 -0.6356  0.0009 -0.2315
  579MOL0     C79810   4.912   3.804   4.782 -0.7406 -0.2552  0.0966
  579MOL0     C79811   5.003   3.721   4.852 -0.3270 -0.2152 -0.0827
  579MOL0     O79812   5.281   3.500   4.739 -0.7767 -0.2834  0.1482
  579MOL0     C79813   5.400   3.329   4.926  0.5471  0.2847  0.5080
  579MOL0     C79814   5.423   3.232   5.023  0.7631  0.1723 -0.0889
  579MOL0     N79815   5.474   3.314   5.598  0.5534 -0.9110 -0.9247
  579MOL0     N79816   5.386   3.402   5.600 -0.0975  0.0549  0.5417
  579MOL0     C79817   4.205   3.723   5.175  0.6107 -0.9728  0.2016
  579MOL0     C79818   4.110   3.781   5.088  0.4550  0.0864 -0.2048
  579MOL0     C79819   3.886   3.979   4.757  0.2909 -0.8171  0.0927
  579MOL0     C79820   3.778   3.897   4.725  0.1720  0.0734 -0.6003
  579MOL0     C79821   3.655   3.941   4.675 -0.7367 -0.6823  0.4041
  579MOL0     C79822   3.638   4.073   4.634 -1.4103 -0.0920  0.5114
  579MOL0     O79823   3.539   4.117   4.560  0.5508 -0.3586 -0.2044
  579MOL0     C79824   3.416   4.047   4.557  0.1817  0.4649 -1.0055
  579MOL0     C79825   3.313   4.121   4.481 -0.2090 -0.1171 -0.2701
  579MOL0     C79826   3.222   4.227   4.556 -0.5086 -0.6050 -0.7186
  579MOL0     C79827   3.113   4.284   4.470 -0.1753 -0.6954  0.8010
  579MOL0     C79828   3.166   4.325   4.337  0.4924  0.3401 -1.0877
  579MOL0     C79829   3.181   4.370   4.223  0.3792  0.4704  0.2343
  579MOL0     C79830   3.737   4.168   4.666 -0.1923  0.0677 -0.5088
  579MOL0     C79831   3.860   4.124   4.722 -0.2329  0.5383 -0.2676
  579MOL0     C79832   3.959   4.237   4.753  0.2772  0.7763 -0.5100
  579MOL0     H79833   4.186   3.608   4.807  4.4068  1.9747 -1.4871
  579MOL0     H79834   4.366   3.510   4.975 -0.0178 -0.4631  1.2622
  579MOL0     H79835   4.544   3.693   5.142  1.1833 -0.7508  0.3672
  579MOL0     H79836   4.535   3.529   5.099 -0.2913  1.3272 -0.9838
  579MOL0     H79837   4.589   3.469   5.337 -1.7614  1.6243  0.9332
  579MOL0     H79838   4.721   3.545   5.251 -0.3403 -0.9761 -0.4513
  579MOL0     H79839   4.684   3.751   5.363  0.9743 -0.9536 -0.5205
  579MOL0     H79840   4.540   3.717   5.442  1.9500  2.4917  4.0572
  579MOL0     H79841   4.674   3.667   5.619  0.8622  0.6706 -0.5191
  579MOL0     H79842   4.668   3.505   5.560  1.0744  0.6438 -0.0159
  579MOL0     H79843   4.892   3.707   5.504  1.0458  0.0985  1.3790
  579MOL0     H79844   4.880   3.552   5.412 -0.7112 -3.0418  1.7508
  579MOL0     H79845   4.896   3.599   5.704  1.1573 -0.1477  0.7179
  579MOL0     H79846   4.858   3.433   5.640  3.4902 -2.0043  0.1063
  579MOL0     H79847   5.106   3.601   5.580 -0.1027  0.4572  4.6079
  579MOL0     H79848   5.061   3.458   5.484  1.6169  0.1195  0.0504
  579MOL0     H79849   5.165   3.470   5.769  2.0262 -1.0769 -0.3579
  579MOL0     H79850   5.075   3.330   5.722 -1.2385 -0.0932 -0.3847
  579MOL0     H79851   5.205   3.127   5.630 -0.8261  0.8387 -2.2993
  579MOL0     H79852   5.420   2.998   5.663  1.5383 -0.4748  1.9396
  579MOL0     H79853   5.574   3.067   5.692  0.9630  1.1102 -1.8446
  579MOL0     H79854   5.614   3.085   5.432  1.5036 -1.5554 -1.6857
  579MOL0     H79855   5.613   2.917   5.497  2.7259  0.7482 -0.1678
  579MOL0     H79856   5.418   2.872   5.375 -0.0564 -1.1378  1.6158
  579MOL0     H79857   5.336   3.004   5.428  0.6417 -1.7533  1.5211
  579MOL0     H79858   5.522   2.995   5.191  1.0226 -1.5960  1.9366
  579MOL0     H79859   5.342   3.010   5.200  0.2344  2.0156 -0.7913
  579MOL0     H79860   5.382   3.419   5.287 -0.0497 -0.2310 -0.1083
  579MOL0     H79861   5.424   3.655   5.217 -0.1436 -0.7389  0.1835
  579MOL0     H79862   5.251   3.603   5.236  2.2056 -2.2457  1.3019
  579MOL0     H79863   5.303   3.710   5.100  1.7457 -0.7508 -1.8472
  579MOL0     H79864   5.271   3.756   4.632  1.6680  1.4804  2.0165
  579MOL0     H79865   5.097   3.918   4.530  1.2094 -1.0129 -0.8234
  579MOL0     H79866   4.695   3.970   4.718  2.2194 -2.6340 -1.5658
  579MOL0     H79867   4.826   4.086   4.775 -0.4262  0.9510 -0.4293
  579MOL0     H79868   4.653   4.214   4.677 -1.0439  0.9688 -1.5370
  579MOL0     H79869   4.803   4.212   4.579  0.1002 -1.1086 -1.1724
  579MOL0     H79870   4.551   4.039   4.535  1.6413 -0.2300  1.3652
  579MOL0     H79871   4.681   4.051   4.424  0.8082  3.8338 -2.2561
  579MOL0     H79872   4.654   4.261   4.352 -0.8795 -1.1997 -1.6389
  579MOL0     H79873   4.539   4.315   4.479  1.4844  0.3698  0.1088
  579MOL0     H79874   4.439   4.248   4.241  0.1646  0.6979  0.4724
  579MOL0     H79875   4.461   4.087   4.277 -2.4171  0.3398 -0.1376
  579MOL0     H79876   4.307   4.306   4.431 -1.7635 -0.5244  1.1189
  579MOL0     H79877   4.339   4.158   4.514  1.2383 -0.2392 -1.6759
  579MOL0     H79878   4.232   4.060   4.292 -0.2057  1.5399 -1.4657
  579MOL0     H79879   4.181   4.213   4.251  1.9813  3.5686  1.4215
  579MOL0     H79880   4.077   4.235   4.481  1.6224 -1.3850  2.8198
  579MOL0     H79881   4.111   4.067   4.515  1.1734  0.5306  0.5357
  579MOL0     H79882   4.811   3.819   4.820 -0.4434 -1.7630  1.5940
  579MOL0     H79883   4.961   3.681   4.944 -2.5664 -1.3131 -1.5085
  579MOL0     H79884   5.405   3.298   4.822 -2.5198 -3.2710  1.1757
  579MOL0     H79885   5.459   3.130   5.010  0.5013  0.2761 -1.7385
  579MOL0     H79886   4.216   3.744   5.281  2.2734 -2.6934  0.4172
  579MOL0     H79887   4.033   3.852   5.119 -0.8362 -0.3135 -2.3267
  579MOL0     H79888   3.796   3.791   4.740 -1.8199 -0.1128  0.8987
  579MOL0     H79889   3.584   3.861   4.655 -0.8169 -0.5244  0.0491
  579MOL0     H79890   3.442   3.960   4.497  0.3860 -0.2580  0.0912
  579MOL0     H79891   3.387   4.026   4.661  0.0627  3.3993 -0.3681
  579MOL0     H79892   3.259   4.053   4.414 -1.1357 -0.9682  1.2717
  579MOL0     H79893   3.374   4.175   4.408  0.3794  1.2301  1.1766
  579MOL0     H79894   3.176   4.178   4.642 -0.0608 -1.3141 -0.8707
  579MOL0     H79895   3.286   4.312   4.582  0.3720 -0.7873 -2.1397
  579MOL0     H79896   3.069   4.374   4.514  0.9274  0.5187 -0.5006
  579MOL0     H79897   3.029   4.213   4.469 -0.8768  0.0763 -1.4500
  579MOL0     H79898   3.208   4.414   4.129 -1.0151  1.7536  0.4016
  579MOL0     H79899   3.722   4.272   4.636  1.1293 -0.5363 -3.6947
  579MOL0     H79900   4.005   4.215   4.850 -0.0358 -1.6607 -0.8730
  579MOL0     H79901   4.041   4.242   4.682  0.5535  1.2905 -0.1660
  579MOL0     H79902   3.906   4.332   4.768 -0.8239  0.0673  0.2776
  580MOL0     O79903   8.113   3.664   8.034 -0.0243 -0.1680 -0.7716
  580MOL0     C79904   8.149   3.555   7.984 -0.4798  0.3384  0.3158
  580MOL0     O79905   8.180   3.525   7.848  0.3071 -0.6384  0.3218
  580MOL0     C79906   8.178   3.616   7.743 -0.1363 -0.2870  0.2885
  580MOL0     C79907   8.059   3.643   7.673 -0.2788  0.3008  0.1516
  580MOL0     C79908   8.057   3.723   7.559 -0.7085 -0.0923  0.5011
  580MOL0     C79909   8.172   3.793   7.516  0.3029  0.0142 -0.3419
  580MOL0     O79910   8.162   3.894   7.420 -0.1970  0.3401  0.2271
  580MOL0     C79911   8.277   3.930   7.340 -0.4489  0.9911 -0.2302
  580MOL0     C79912   8.248   4.035   7.241  0.0936 -0.1897 -0.3625
  580MOL0     C79913   8.368   4.095   7.161  0.4064 -0.6318  0.2184
  580MOL0     C79914   8.345   4.229   7.097  0.0157  0.2806  0.0007
  580MOL0     C79915   8.305   4.352   7.176  0.1720  0.6496 -0.1736
  580MOL0     C79916   8.392   4.405   7.292  0.4333 -0.2854 -0.8114
  580MOL0     C79917   8.523   4.452   7.243 -0.3302 -0.2117  0.8775
  580MOL0     C79918   8.520   4.590   7.160 -0.3153 -0.1249  0.7785
  580MOL0     N79919   8.429   4.693   7.224  0.3694  0.6049 -0.3183
  580MOL0     C79920   8.301   4.724   7.188 -0.0734 -1.0567  0.4734
  580MOL0     C79921   8.273   4.823   7.272  0.9915 -0.3190 -0.5273
  580MOL0     C79922   8.140   4.890   7.276  0.5743 -1.1142  0.3252
  580MOL0     C79923   8.082   4.918   7.417  0.8515  0.5685  0.5024
  580MOL0     C79924   7.978   5.032   7.417  0.3411 -0.0531 -0.8025
  580MOL0     C79925   8.039   5.172   7.450  0.7387  0.7805 -0.7446
  580MOL0     O79926   7.941   5.277   7.425 -0.1101  0.1828  0.4197
  580MOL0     C79927   7.999   5.391   7.387 -0.3040  0.0943  0.0690
  580MOL0     C79928   8.040   5.487   7.481  0.1991  0.5667  0.0145
  580MOL0     C79929   8.064   5.620   7.446 -0.4245 -0.6105 -0.7420
  580MOL0     C79930   8.093   5.711   7.558 -0.6723  0.5500 -0.2838
  580MOL0     C79931   8.048   5.662   7.316 -0.0785 -0.7266  0.4268
  580MOL0     C79932   8.055   5.797   7.255 -0.0353 -1.0093 -0.6341
  580MOL0     O79933   8.167   5.864   7.289  0.0767 -0.2927 -0.0142
  580MOL0     C79934   8.193   5.995   7.248 -0.6330 -0.4398  0.4262
  580MOL0     C79935   8.111   6.089   7.307  0.3262 -0.5831  0.1166
  580MOL0     C79936   8.123   6.231   7.294 -1.0304  0.3692  0.1059
  580MOL0     C79937   8.224   6.270   7.205 -0.6276  0.3762  0.5797
  580MOL0     O79938   8.243   6.402   7.176  0.2012  1.1955  0.1787
  580MOL0     C79939   8.136   6.494   7.206  1.1334 -0.1612  0.4131
  580MOL0     C79940   8.161   6.557   7.345  0.0139 -0.4331  0.8058
  580MOL0     C79941   8.127   6.705   7.344 -0.4636 -0.5378 -0.6644
  580MOL0     C79942   7.975   6.727   7.315  0.6673  0.9633 -0.5585
  580MOL0     C79943   7.929   6.861   7.364 -0.6341  0.6422 -0.0335
  580MOL0     C79944   7.779   6.874   7.362  0.5942 -0.3531 -0.2925
  580MOL0     C79945   7.738   7.006   7.426 -0.5880  0.6033  0.6047
  580MOL0     C79946   7.776   7.002   7.578 -0.0149 -0.4320  0.5270
  580MOL0    Cl79947   7.632   7.054   7.671  0.0853  0.0823  0.0012
  580MOL0     C79948   8.305   6.174   7.143  0.4375  0.0064  0.2539
  580MOL0     C79949   8.308   6.034   7.173  0.1957 -0.1339 -0.2968
  580MOL0     O79950   7.965   5.838   7.178 -0.1734 -0.1661 -0.6512
  580MOL0     C79951   8.016   5.565   7.220 -0.0587 -0.5252 -0.4274
  580MOL0     C79952   7.997   5.430   7.250 -0.4788 -1.3928 -0.4907
  580MOL0     N79953   8.366   4.842   7.368 -0.0860 -0.2563 -0.9622
  580MOL0     N79954   8.457   4.757   7.342 -0.5534 -0.8868 -1.0377
  580MOL0     C79955   8.289   3.754   7.577 -0.5502 -0.4267 -0.0669
  580MOL0     C79956   8.296   3.674   7.693 -0.5218 -0.0404 -0.4254
  580MOL0     C79957   8.136   3.434   8.070 -0.3144  0.3494 -0.1009
  580MOL0     C79958   8.064   3.324   8.030  0.0989 -0.6859  0.0961
  580MOL0     C79959   8.068   3.194   8.079 -0.2907 -0.0675  0.4234
  580MOL0     C79960   8.149   3.178   8.194  0.5883  0.1913 -0.1342
  580MOL0     O79961   8.165   3.050   8.250  0.0406 -0.3970  0.2971
  580MOL0     C79962   8.139   3.004   8.377  0.8835  0.8182 -0.8488
  580MOL0     C79963   7.982   3.009   8.416 -0.7751  0.2335  0.1197
  580MOL0     C79964   7.960   2.978   8.562  0.2840  0.7739 -0.8428
  580MOL0     C79965   8.013   2.837   8.586  0.6248  0.6332 -0.0528
  580MOL0     C79966   7.923   2.733   8.528  0.5143 -1.0965 -1.3131
  580MOL0     C79967   7.841   2.649   8.495 -1.2162 -0.1384  0.3763
  580MOL0     C79968   8.201   3.288   8.259  0.9773  0.1740 -0.0399
  580MOL0     C79969   8.201   3.408   8.194 -0.2818 -0.3002  0.3358
  580MOL0     C79970   8.286   3.516   8.260 -0.0306  0.3085 -0.4080
  580MOL0     H79971   7.971   3.587   7.704 -0.0186  1.6765  3.7655
  580MOL0     H79972   7.970   3.743   7.498 -1.9173 -2.3315  1.3872
  580MOL0     H79973   8.302   3.834   7.293  0.6571  0.9495  0.4061
  580MOL0     H79974   8.369   3.960   7.391  0.4645 -1.6619 -0.1368
  580MOL0     H79975   8.183   3.993   7.163 -0.4217  1.1382 -0.6700
  580MOL0     H79976   8.200   4.121   7.288 -0.9346  0.2405 -2.1273
  580MOL0     H79977   8.450   4.105   7.233 -0.0441  0.2417  0.6232
  580MOL0     H79978   8.398   4.018   7.089  2.5217  0.4684 -0.1696
  580MOL0     H79979   8.433   4.257   7.038 -0.4975  3.4400  0.5319
  580MOL0     H79980   8.266   4.212   7.024  0.0998 -1.2808  0.2445
  580MOL0     H79981   8.207   4.336   7.222 -0.1308  1.3262 -0.5603
  580MOL0     H79982   8.304   4.438   7.109  2.1642  1.3319  0.5871
  580MOL0     H79983   8.347   4.487   7.350  0.1244 -0.1240 -1.2716
  580MOL0     H79984   8.400   4.324   7.365  2.4704  1.1811  0.6984
  580MOL0     H79985   8.578   4.378   7.184 -0.0410 -1.3928  2.5520
  580MOL0     H79986   8.579   4.468   7.335 -4.0743  0.3038  3.3150
  580MOL0     H79987   8.619   4.635   7.168  0.3248 -1.0974 -1.0608
  580MOL0     H79988   8.497   4.579   7.054  0.9364 -0.6295  0.5377
  580MOL0     H79989   8.246   4.693   7.100  0.7043  3.1006 -1.7713
  580MOL0     H79990   8.070   4.841   7.207 -0.8092  0.3359  0.6155
  580MOL0     H79991   8.148   4.992   7.239  1.0979  0.0033  3.2569
  580MOL0     H79992   8.043   4.825   7.459  2.2794  0.5730  1.9292
  580MOL0     H79993   8.167   4.941   7.481  2.4809  0.2365 -1.4483
  580MOL0     H79994   7.909   5.043   7.334 -2.8473  0.5948  1.7115
  580MOL0     H79995   7.904   5.015   7.496  0.4279 -0.0460 -0.7190
  580MOL0     H79996   8.062   5.168   7.557 -0.8585  1.3936 -0.3491
  580MOL0     H79997   8.132   5.185   7.395  1.0824 -0.7230 -0.5492
  580MOL0     H79998   8.032   5.466   7.588  0.3363  1.4017  0.1956
  580MOL0     H79999   8.054   5.694   7.659 -0.8921  1.1893 -0.2623
  580MOL0     H80000   8.068   5.814   7.533  0.7900  0.2598 -3.4635
  580MOL0     H80001   8.201   5.716   7.574 -0.1046 -5.0557 -0.3593
  580MOL0     H80002   8.044   6.059   7.388  0.6216 -2.3330 -0.2635
  580MOL0     H80003   8.059   6.295   7.354 -3.4064 -1.1018 -0.7155
  580MOL0     H80004   8.141   6.575   7.134  0.4180  0.5606  1.1608
  580MOL0     H80005   8.036   6.449   7.207  1.6008 -1.2352  1.1116
  580MOL0     H80006   8.103   6.501   7.419 -0.6082 -0.8558  0.0162
  580MOL0     H80007   8.264   6.552   7.381 -0.4171  1.7294  2.5540
  580MOL0     H80008   8.189   6.768   7.280 -0.9399 -0.8299 -1.4282
  580MOL0     H80009   8.160   6.740   7.442 -0.1748  0.4592 -1.1063
  580MOL0     H80010   7.909   6.648   7.353  1.4572  1.0619  1.1069
  580MOL0     H80011   7.975   6.715   7.206  0.0374 -0.5280 -0.4323
  580MOL0     H80012   7.956   6.867   7.470  1.6378  1.3012 -0.6071
  580MOL0     H80013   7.992   6.931   7.309  2.2400 -0.4921  1.5629
  580MOL0     H80014   7.736   6.787   7.412  1.0078 -1.2397 -1.4346
  580MOL0     H80015   7.740   6.873   7.259 -0.1039  0.2194 -0.0478
  580MOL0     H80016   7.630   7.023   7.419 -0.4824  0.5426 -3.0980
  580MOL0     H80017   7.782   7.087   7.368  0.8433 -0.6007 -0.0618
  580MOL0     H80018   7.869   7.050   7.607  2.1563 -3.7955 -0.2381
  580MOL0     H80019   7.797   6.898   7.605 -1.6727 -0.8328  0.4055
  580MOL0     H80020   8.367   6.216   7.065  1.3271  1.5881  1.7600
  580MOL0     H80021   8.375   5.961   7.129 -0.5724  0.2975 -2.2676
  580MOL0     H80022   8.001   5.567   7.113 -3.2113 -2.7289 -0.1444
  580MOL0     H80023   7.967   5.365   7.169 -1.7592  0.1270 -1.2924
  580MOL0     H80024   8.378   3.806   7.543 -0.9340  0.5701  0.3993
  580MOL0     H80025   8.388   3.651   7.746 -1.2672 -1.1586  0.4326
  580MOL0     H80026   8.001   3.338   7.943 -3.6915  0.6082  2.7514
  580MOL0     H80027   8.027   3.117   8.015 -0.9465 -0.6332  1.4957
  580MOL0     H80028   8.170   2.899   8.385 -1.9374  0.0402  3.0913
  580MOL0     H80029   8.185   3.056   8.461  2.8066 -3.3296  0.9867
  580MOL0     H80030   7.932   2.940   8.347 -0.1939  0.9707 -1.0932
  580MOL0     H80031   7.944   3.111   8.406  0.5941  1.1061  2.9381
  580MOL0     H80032   8.019   3.046   8.625  0.4438  1.3710 -1.6232
  580MOL0     H80033   7.854   2.980   8.589  0.7280 -0.5036  1.1421
  580MOL0     H80034   8.002   2.824   8.694 -0.8648  0.4544 -0.1946
  580MOL0     H80035   8.118   2.815   8.568  1.4921  1.6592  3.0926
  580MOL0     H80036   7.773   2.578   8.452 -0.4998 -1.3099  1.0962
  580MOL0     H80037   8.241   3.275   8.360 -0.5150  0.6728  0.6529
  580MOL0     H80038   8.252   3.619   8.246  2.2911  1.0299 -1.1936
  580MOL0     H80039   8.288   3.516   8.369 -0.5742  0.7258 -0.3915
  580MOL0     H80040   8.389   3.513   8.225  1.5596  1.7091  3.6167
  581MOL0     O80041   8.594  11.278   6.009  0.2428  0.0172 -0.5399
  581MOL0     C80042   8.468  11.294   5.999  0.5531  0.5292  1.0282
  581MOL0     O80043   8.404  11.417   6.004 -0.4454  0.4612 -0.2871
  581MOL0     C80044   8.469  11.541   5.994  0.3029 -0.0166  0.0540
  581MOL0     C80045   8.590  11.567   5.941  0.4806  0.3885  0.6731
  581MOL0     C80046   8.642  11.696   5.921 -1.1149  0.3739  1.3170
  581MOL0     C80047   8.578  11.805   5.965 -0.3980 -0.1025  0.0002
  581MOL0     O80048   8.628  11.927   5.938  0.0664 -0.3831  0.2592
  581MOL0     C80049   8.551  12.043   5.971  0.0199 -0.6226  0.0660
  581MOL0     C80050   8.596  12.168   5.901 -0.0499 -0.2607  0.3707
  581MOL0     C80051   8.732  12.218   5.943  0.0388 -0.6168  0.1469
  581MOL0     C80052   8.741  12.244   6.095 -0.1301 -0.4424 -0.1298
  581MOL0     C80053   8.841  12.357   6.133  0.8611  0.5390  0.6910
  581MOL0     C80054   8.981  12.319   6.087  1.0748  0.1238 -0.4854
  581MOL0     C80055   9.045  12.216   6.181 -0.1395 -0.8221  0.7007
  581MOL0     C80056   9.188  12.173   6.147 -0.3482  0.0268  0.4409
  581MOL0     N80057   9.190  12.065   6.044  0.7117  0.0180 -0.4506
  581MOL0     C80058   9.080  12.009   5.983  0.4882 -0.2036  0.7123
  581MOL0     C80059   9.127  11.908   5.912  0.1919  0.4292  1.0402
  581MOL0     C80060   9.036  11.808   5.843  0.3294 -0.6685 -0.3746
  581MOL0     C80061   9.054  11.656   5.886 -1.2945  0.2489  0.7600
  581MOL0     C80062   8.998  11.575   5.767 -0.8000  0.5310  0.0629
  581MOL0     C80063   9.016  11.425   5.776 -0.7176 -0.2643 -0.0578
  581MOL0     O80064   8.890  11.367   5.730  0.0729 -0.0877  0.4873
  581MOL0     C80065   8.879  11.232   5.762 -0.2912 -0.4702  0.8216
  581MOL0     C80066   8.990  11.149   5.776 -0.4661  0.4821 -0.4357
  581MOL0     C80067   8.977  11.010   5.799 -0.2812  0.2461  0.2755
  581MOL0     C80068   9.097  10.927   5.811  0.6421  0.5858 -0.5218
  581MOL0     C80069   8.839  10.959   5.818  0.1466 -1.0785 -1.1099
  581MOL0     C80070   8.809  10.819   5.872 -1.1507 -0.8412  0.8276
  581MOL0     O80071   8.691  10.774   5.840  0.4006  0.1572 -0.2651
  581MOL0     C80072   8.648  10.640   5.883 -0.2401 -0.1679 -0.1817
  581MOL0     C80073   8.619  10.617   6.016  0.0398  0.2018  0.0501
  581MOL0     C80074   8.550  10.493   6.043 -0.2000 -0.2919  0.6003
  581MOL0     C80075   8.532  10.395   5.940 -0.5422 -1.4066  0.1927
  581MOL0     O80076   8.486  10.273   5.961  0.4878 -0.1128  0.0359
  581MOL0     C80077   8.534  10.192   6.070 -0.1313  0.2250  0.8743
  581MOL0     C80078   8.484  10.040   6.065 -0.2903 -0.3200  0.6308
  581MOL0     C80079   8.550   9.950   5.965 -0.0129  0.5001 -0.9186
  581MOL0     C80080   8.515   9.991   5.824  0.0250  0.0244  0.7032
  581MOL0     C80081   8.592   9.892   5.733 -0.9809  0.6734  0.2913
  581MOL0     C80082   8.562   9.936   5.587  0.1115  0.2671  0.5207
  581MOL0     C80083   8.673  10.025   5.527 -0.3054  0.2234 -0.6970
  581MOL0     C80084   8.643  10.074   5.387 -0.3268  0.7308  0.0501
  581MOL0    Cl80085   8.541  10.218   5.400  0.0498  0.0667 -0.0197
  581MOL0     C80086   8.574  10.422   5.816 -0.4905 -0.1685  0.9275
  581MOL0     C80087   8.614  10.553   5.784 -0.4100 -0.0769  0.1171
  581MOL0     O80088   8.876  10.766   5.958  0.0164  0.2867 -0.0083
  581MOL0     C80089   8.732  11.048   5.793 -0.2188 -0.1241  0.0825
  581MOL0     C80090   8.748  11.184   5.759 -0.0182  1.0149  0.2148
  581MOL0     N80091   9.265  11.912   5.916 -0.4624  0.1661  0.1480
  581MOL0     N80092   9.306  12.007   5.996 -0.1889 -0.0703 -0.0440
  581MOL0     C80093   8.455  11.778   6.033  0.8160  0.3903 -0.2550
  581MOL0     C80094   8.401  11.645   6.042 -0.0685 -0.5401  0.5312
  581MOL0     C80095   8.384  11.178   5.965 -0.3220  0.0305  0.0976
  581MOL0     C80096   8.435  11.054   6.001 -0.1683 -0.6169 -0.1537
  581MOL0     C80097   8.369  10.939   5.956  1.2232  0.1014 -0.0192
  581MOL0     C80098   8.243  10.935   5.899 -0.3996  0.2425  0.2192
  581MOL0     O80099   8.167  10.821   5.862  0.0882 -0.1183 -0.3203
  581MOL0     C80100   8.219  10.680   5.887  0.3668 -0.0758 -0.3445
  581MOL0     C80101   8.208  10.629   6.034  0.4050  0.4910 -0.1304
  581MOL0     C80102   8.070  10.632   6.083  0.6448 -0.2484 -0.8831
  581MOL0     C80103   8.054  10.540   6.197  0.1416  0.3059  0.0298
  581MOL0     C80104   8.132  10.549   6.313 -0.4127 -0.5096 -0.0990
  581MOL0     C80105   8.205  10.561   6.414  0.1044  0.6326 -0.5418
  581MOL0     C80106   8.187  11.056   5.864  0.1190 -0.2864  0.5198
  581MOL0     C80107   8.250  11.180   5.903  0.0988 -0.5270 -0.5783
  581MOL0     C80108   8.167  11.308   5.870 -0.4465  0.3273 -0.0318
  581MOL0     H80109   8.646  11.479   5.910  0.5608 -0.5959  3.3158
  581MOL0     H80110   8.735  11.721   5.872  1.0348 -3.0374  3.2680
  581MOL0     H80111   8.541  12.063   6.078 -3.2293 -3.3018  0.4394
  581MOL0     H80112   8.445  12.033   5.945  0.0466  0.6857 -0.6410
  581MOL0     H80113   8.605  12.152   5.794  2.1617  2.0728  0.1102
  581MOL0     H80114   8.523  12.247   5.921  1.2756  0.9127  0.6727
  581MOL0     H80115   8.815  12.151   5.918  0.3229  0.4578 -2.0946
  581MOL0     H80116   8.745  12.309   5.882 -2.2391  0.1013  0.6248
  581MOL0     H80117   8.642  12.282   6.124  1.7289  2.3116  3.2715
  581MOL0     H80118   8.765  12.162   6.163 -1.7849  1.8328  3.4701
  581MOL0     H80119   8.835  12.369   6.241  2.8702 -1.9702  1.1853
  581MOL0     H80120   8.809  12.455   6.097 -0.9120 -0.2690 -0.0445
  581MOL0     H80121   8.989  12.283   5.984  4.0082 -0.6184 -0.0834
  581MOL0     H80122   9.039  12.410   6.103  1.9346 -0.5433  0.3848
  581MOL0     H80123   8.985  12.124   6.180 -2.3016  0.4505 -2.5203
  581MOL0     H80124   9.053  12.261   6.280  2.1977 -1.7303  0.9898
  581MOL0     H80125   9.250  12.258   6.119  2.3798 -1.7330  0.7204
  581MOL0     H80126   9.246  12.124   6.226 -0.7656 -0.8795  0.2057
  581MOL0     H80127   8.973  12.030   5.985 -0.0310 -2.0493 -2.0177
  581MOL0     H80128   9.061  11.815   5.737 -2.6092 -0.2797 -1.1293
  581MOL0     H80129   8.933  11.838   5.861  0.7876  0.7476  0.0109
  581MOL0     H80130   9.161  11.648   5.908 -0.6846  0.3415 -1.8393
  581MOL0     H80131   8.987  11.630   5.969 -1.2462  0.4855  0.8731
  581MOL0     H80132   8.893  11.605   5.764 -0.7952  0.8454  1.9006
  581MOL0     H80133   9.050  11.608   5.676 -2.3178  4.2715  0.3800
  581MOL0     H80134   9.094  11.391   5.707  0.3287 -0.9002  1.4020
  581MOL0     H80135   9.043  11.395   5.877 -0.9753  0.7982  0.3441
  581MOL0     H80136   9.092  11.184   5.766 -0.5890  0.8765 -0.3109
  581MOL0     H80137   9.125  10.922   5.917  0.8170  4.6152 -0.2495
  581MOL0     H80138   9.175  10.965   5.744  4.3043 -2.8873  1.2878
  581MOL0     H80139   9.082  10.823   5.778 -0.3569  0.8057 -0.7886
  581MOL0     H80140   8.643  10.707   6.073 -0.8538  1.4197 -1.4241
  581MOL0     H80141   8.515  10.462   6.141 -1.3418 -1.1245 -0.0365
  581MOL0     H80142   8.643  10.195   6.081 -0.1923  0.8353  1.4194
  581MOL0     H80143   8.500  10.238   6.164 -1.3040  4.0571 -1.1850
  581MOL0     H80144   8.512   9.986   6.156  1.0020 -0.3468  0.2274
  581MOL0     H80145   8.377  10.020   6.054  0.3522 -2.9547 -1.8111
  581MOL0     H80146   8.523   9.844   5.971 -0.4661  0.6410 -0.2983
  581MOL0     H80147   8.659   9.948   5.970  0.0049 -3.0277 -0.4519
  581MOL0     H80148   8.536  10.096   5.802  5.5414 -1.0496 -0.7072
  581MOL0     H80149   8.408   9.982   5.803  0.3997  0.5628 -1.7697
  581MOL0     H80150   8.700   9.894   5.751 -0.5880 -2.1181 -1.2365
  581MOL0     H80151   8.547   9.793   5.745  1.7663 -1.2359 -3.2329
  581MOL0     H80152   8.473   9.999   5.576 -1.4317 -1.7754  0.5537
  581MOL0     H80153   8.547   9.842   5.532  2.9254 -1.2217  2.1202
  581MOL0     H80154   8.761   9.961   5.535  1.7060  3.0318  1.5184
  581MOL0     H80155   8.695  10.124   5.569 -0.7034  0.8139 -1.8335
  581MOL0     H80156   8.599   9.996   5.324  0.9176 -0.3325  0.4366
  581MOL0     H80157   8.735  10.102   5.334  0.2007 -2.2552 -0.7987
  581MOL0     H80158   8.555  10.338   5.749  0.4510 -1.9826  2.8396
  581MOL0     H80159   8.627  10.580   5.679  0.2450  1.6960  0.6235
  581MOL0     H80160   8.633  11.006   5.807 -0.1350  0.1811  1.7108
  581MOL0     H80161   8.661  11.240   5.727 -2.4727 -0.6712  3.3165
  581MOL0     H80162   8.382  11.846   6.077 -2.9980 -3.4078 -0.0754
  581MOL0     H80163   8.298  11.630   6.073  0.0401 -0.8541  0.7447
  581MOL0     H80164   8.528  11.052   6.056  0.1467  1.8994 -0.4452
  581MOL0     H80165   8.418  10.844   5.976 -0.7156 -0.7532  0.9571
  581MOL0     H80166   8.175  10.612   5.813  2.1421 -1.6555 -0.0446
  581MOL0     H80167   8.326  10.670   5.865  0.7701 -0.0677  1.4595
  581MOL0     H80168   8.260  10.705   6.092  0.7739 -0.9075  1.4509
  581MOL0     H80169   8.252  10.529   6.037 -1.1808 -0.2336  0.5916
  581MOL0     H80170   8.034  10.735   6.088 -0.5497 -0.6780 -0.2310
  581MOL0     H80171   8.015  10.588   5.999  1.0282 -0.1233 -1.2050
  581MOL0     H80172   8.080  10.439   6.163 -1.7167 -0.4414  0.7137
  581MOL0     H80173   7.951  10.536   6.235 -1.2235  1.9649 -3.0718
  581MOL0     H80174   8.281  10.569   6.489  2.1555 -1.3434 -2.2407
  581MOL0     H80175   8.093  11.069   5.811  0.8447 -0.8978 -0.9594
  581MOL0     H80176   8.085  11.300   5.798  0.0465  3.1547 -1.0486
  581MOL0     H80177   8.123  11.344   5.963  0.8913 -0.0162  0.7669
  581MOL0     H80178   8.226  11.394   5.835 -1.3871  2.1412  2.5680
  582MOL0     O80179   1.691   9.224   0.679  0.0674 -0.0287  0.6668
  582MOL0     C80180   1.653   9.236   0.796 -2.2356 -0.2939  0.1035
  582MOL0     O80181   1.685   9.148   0.888  0.9883 -0.1180 -0.5980
  582MOL0     C80182   1.726   9.014   0.863 -0.0561 -1.0059  0.3449
  582MOL0     C80183   1.691   8.942   0.752  0.5612  0.2641  1.4801
  582MOL0     C80184   1.721   8.807   0.732  1.0683  0.4072 -0.1411
  582MOL0     C80185   1.791   8.733   0.828  0.0852  0.4255  0.5757
  582MOL0     O80186   1.821   8.611   0.805  0.0839 -0.1407  0.2498
  582MOL0     C80187   1.855   8.517   0.906 -0.5025  0.7285  0.1339
  582MOL0     C80188   2.003   8.515   0.934 -1.5690 -0.4516  0.3183
  582MOL0     C80189   2.096   8.507   0.810 -0.3746 -0.2450  0.8676
  582MOL0     C80190   2.059   8.385   0.727 -0.3308 -0.2158  0.1377
  582MOL0     C80191   2.188   8.321   0.659  0.5339 -0.9371 -0.1619
  582MOL0     C80192   2.160   8.193   0.568 -0.3463  0.4458 -0.3979
  582MOL0     C80193   2.290   8.146   0.503  0.2543 -0.7640  0.1725
  582MOL0     C80194   2.271   8.028   0.409  0.1655 -0.3859 -0.5363
  582MOL0     N80195   2.406   7.999   0.343 -0.0212 -0.6781  0.2746
  582MOL0     C80196   2.438   8.033   0.217  0.3084  0.3830 -0.2264
  582MOL0     C80197   2.546   7.971   0.186 -0.7205  0.0101 -0.3427
  582MOL0     C80198   2.602   7.981   0.049 -0.5745  0.1077  0.5986
  582MOL0     C80199   2.614   7.848  -0.024 -0.3608  0.4692  0.6697
  582MOL0     C80200   2.712   7.752   0.056  1.8857  0.1519  0.0423
  582MOL0     C80201   2.796   7.674  -0.039  0.9990 -0.5734 -0.9736
  582MOL0     O80202   2.888   7.757  -0.117  0.5935  0.2214 -0.6627
  582MOL0     C80203   2.966   7.692  -0.223  0.6741  0.6862 -0.4548
  582MOL0     C80204   3.065   7.770  -0.293 -0.4246  0.0897 -0.3135
  582MOL0     C80205   3.145   7.716  -0.394  0.1952 -0.8810 -0.2149
  582MOL0     C80206   3.256   7.812  -0.439 -0.0336  0.5771 -0.5131
  582MOL0     C80207   3.126   7.586  -0.446 -0.2859 -1.2707 -0.7276
  582MOL0     C80208   3.204   7.533  -0.558  0.7391  0.3660  0.5920
  582MOL0     O80209   3.162   7.413  -0.604  0.9720  0.0255  0.3074
  582MOL0     C80210   3.218   7.332  -0.709  0.4362 -0.6660  0.7017
  582MOL0     C80211   3.345   7.354  -0.776  0.1641 -0.3407 -0.0697
  582MOL0     C80212   3.399   7.269  -0.868 -0.1101  0.0509 -0.8427
  582MOL0     C80213   3.330   7.155  -0.907 -0.6969  0.3469  0.4358
  582MOL0     O80214   3.366   7.060  -1.010  0.5878  0.2192 -0.4519
  582MOL0     C80215   3.438   7.109  -1.117 -0.3490 -0.5388 -0.2562
  582MOL0     C80216   3.482   6.992  -1.202  0.6994  0.7082 -0.6221
  582MOL0     C80217   3.356   6.955  -1.292 -0.0033  0.4437 -0.1553
  582MOL0     C80218   3.387   6.853  -1.408  0.8044  0.1296  1.3134
  582MOL0     C80219   3.273   6.825  -1.503  0.0632 -0.1882 -1.3833
  582MOL0     C80220   3.286   6.925  -1.618  0.3737 -0.7106  0.2699
  582MOL0     C80221   3.181   6.894  -1.726  0.6710  0.2835  0.3776
  582MOL0     C80222   3.207   6.956  -1.871  0.1082  0.4225 -1.0765
  582MOL0    Cl80223   3.203   7.137  -1.858 -0.1853  0.1546 -0.1401
  582MOL0     C80224   3.207   7.129  -0.849 -0.2854 -0.3111 -0.5682
  582MOL0     C80225   3.156   7.216  -0.757  0.8442 -0.1852 -0.7178
  582MOL0     O80226   3.293   7.604  -0.613 -0.3834  0.0856 -0.0340
  582MOL0     C80227   3.025   7.515  -0.376  0.0519  1.1581  0.1768
  582MOL0     C80228   2.954   7.559  -0.260  0.0110 -0.3573  0.4465
  582MOL0     N80229   2.603   7.923   0.303 -0.4517  0.9725 -1.0388
  582MOL0     N80230   2.520   7.950   0.398 -0.4940  0.1068  0.0003
  582MOL0     C80231   1.842   8.816   0.941  0.6035  0.0918 -0.4969
  582MOL0     C80232   1.803   8.951   0.960  0.3960  0.0536  0.3573
  582MOL0     C80233   1.602   9.379   0.835  1.1198  0.2369 -0.7100
  582MOL0     C80234   1.592   9.409   0.976 -0.5906  0.2299  0.1665
  582MOL0     C80235   1.553   9.533   1.026  1.0681  0.8636 -0.6611
  582MOL0     C80236   1.518   9.632   0.933  0.0365  0.2083  1.1540
  582MOL0     O80237   1.481   9.754   0.977 -0.4227  0.1713 -0.4017
  582MOL0     C80238   1.597   9.830   1.019 -0.3579 -0.3642 -0.0805
  582MOL0     C80239   1.596   9.969   0.970  0.2065 -0.2730  0.1532
  582MOL0     C80240   1.624   9.975   0.820  0.1726  0.3021  0.6762
  582MOL0     C80241   1.741   9.906   0.775 -1.3921 -0.3892 -0.2427
  582MOL0     C80242   1.858   9.931   0.866  0.2341  0.5564  0.4486
  582MOL0     C80243   1.960   9.946   0.929 -0.0785 -0.3166  0.3618
  582MOL0     C80244   1.517   9.613   0.794  0.0680 -0.0959 -0.6257
  582MOL0     C80245   1.555   9.484   0.744 -0.0992 -1.0410  0.4305
  582MOL0     C80246   1.543   9.470   0.591 -0.2452 -0.8464  0.1314
  582MOL0     H80247   1.635   8.994   0.675  0.3462 -1.4517  0.4306
  582MOL0     H80248   1.695   8.765   0.636  2.3049 -1.5094  0.3049
  582MOL0     H80249   1.820   8.424   0.860 -2.5581  1.9292 -0.8802
  582MOL0     H80250   1.801   8.545   0.997 -0.4296  2.9931 -0.4719
  582MOL0     H80251   2.029   8.607   0.986 -2.8330  0.7734 -1.1198
  582MOL0     H80252   2.038   8.428   0.990 -0.7349 -1.5476 -1.7633
  582MOL0     H80253   2.101   8.596   0.746  3.0822 -0.5617  0.4726
  582MOL0     H80254   2.199   8.496   0.845  0.7638  1.6612 -1.4983
  582MOL0     H80255   2.010   8.304   0.782  1.7408  0.4136  3.1140
  582MOL0     H80256   1.983   8.418   0.655  1.2870  3.2729 -0.1717
  582MOL0     H80257   2.251   8.299   0.745  1.2525  0.1438 -0.3969
  582MOL0     H80258   2.241   8.401   0.606  3.8334 -1.7338  1.6782
  582MOL0     H80259   2.120   8.103   0.618 -1.0600 -0.2195 -2.0951
  582MOL0     H80260   2.079   8.210   0.496 -0.3966  2.5173  0.0951
  582MOL0     H80261   2.350   8.118   0.590 -1.2212  0.3419  1.6236
  582MOL0     H80262   2.339   8.230   0.454 -0.8062 -1.3339 -1.9858
  582MOL0     H80263   2.234   7.939   0.462 -2.7598  1.4161  0.6753
  582MOL0     H80264   2.197   8.042   0.330  0.0993 -3.4705 -1.1487
  582MOL0     H80265   2.380   8.101   0.155  1.9436  4.4626  2.3349
  582MOL0     H80266   2.702   8.022   0.063 -0.4478  0.4334 -1.0507
  582MOL0     H80267   2.542   8.042  -0.019 -4.3144  1.0965  4.3465
  582MOL0     H80268   2.514   7.811  -0.049 -1.1007  4.2616 -3.0341
  582MOL0     H80269   2.664   7.873  -0.118 -0.6965 -0.7088  0.1555
  582MOL0     H80270   2.768   7.799   0.138 -1.0689  2.4418  0.9187
  582MOL0     H80271   2.652   7.675   0.106  0.3061  1.2202 -0.1436
  582MOL0     H80272   2.857   7.593   0.002  2.4135  0.0177 -1.8522
  582MOL0     H80273   2.721   7.640  -0.112 -1.2090  2.8907 -0.5365
  582MOL0     H80274   3.081   7.865  -0.243 -1.5637 -0.0058  0.2622
  582MOL0     H80275   3.233   7.856  -0.536 -0.3338  1.2020 -0.1632
  582MOL0     H80276   3.353   7.761  -0.446 -0.1336  0.5252 -1.7689
  582MOL0     H80277   3.259   7.893  -0.365 -2.1617  1.2332 -1.0745
  582MOL0     H80278   3.410   7.432  -0.737 -1.0666  0.3269  0.6852
  582MOL0     H80279   3.499   7.297  -0.900  0.6385  0.3834  1.5916
  582MOL0     H80280   3.390   7.188  -1.175 -0.8647  0.0391  0.9465
  582MOL0     H80281   3.532   7.156  -1.087  2.4003 -4.4753 -1.8071
  582MOL0     H80282   3.562   7.033  -1.265  0.5224  2.9317  0.4973
  582MOL0     H80283   3.503   6.911  -1.132 -1.5570  1.6780  1.3277
  582MOL0     H80284   3.328   7.042  -1.351  0.8285 -2.0077 -4.6017
  582MOL0     H80285   3.268   6.921  -1.237  1.3469 -1.4270  1.0196
  582MOL0     H80286   3.423   6.760  -1.363 -1.6441 -1.4013  0.3026
  582MOL0     H80287   3.461   6.892  -1.478 -1.5307 -0.6856 -1.8333
  582MOL0     H80288   3.292   6.722  -1.533 -0.5366 -0.1694 -1.8424
  582MOL0     H80289   3.176   6.829  -1.451  1.3759 -3.1485  1.7058
  582MOL0     H80290   3.382   6.907  -1.667  2.2987  2.3456  2.5583
  582MOL0     H80291   3.269   7.030  -1.592 -0.9785  0.5356 -4.6651
  582MOL0     H80292   3.080   6.927  -1.699  1.2719  0.1526  3.0772
  582MOL0     H80293   3.176   6.785  -1.725  0.3190  0.3034  0.8265
  582MOL0     H80294   3.131   6.919  -1.940  1.0508  1.8107 -2.9465
  582MOL0     H80295   3.305   6.927  -1.912 -0.1762 -1.9296 -0.2070
  582MOL0     H80296   3.143   7.048  -0.885  0.4980 -0.5204 -1.5413
  582MOL0     H80297   3.055   7.195  -0.724  0.7540 -0.6818 -1.2955
  582MOL0     H80298   2.987   7.416  -0.398 -0.0547  1.4135 -0.8111
  582MOL0     H80299   2.881   7.490  -0.218  1.6081 -2.1315  0.4357
  582MOL0     H80300   1.893   8.766   1.022  0.5665  0.0784 -0.4820
  582MOL0     H80301   1.829   8.997   1.055 -0.1423  3.6350 -1.0854
  582MOL0     H80302   1.617   9.336   1.052 -2.2093  1.4457  1.9810
  582MOL0     H80303   1.573   9.539   1.132  0.9940 -1.2643 -0.4842
  582MOL0     H80304   1.610   9.844   1.127  0.6494  2.4242 -0.4771
  582MOL0     H80305   1.689   9.781   0.987 -0.1589 -0.5787  0.7925
  582MOL0     H80306   1.668  10.038   1.015 -1.7795  1.3290  1.0069
  582MOL0     H80307   1.496  10.009   0.983  1.0634  1.9257  0.4648
  582MOL0     H80308   1.538   9.933   0.767 -0.8336 -0.2737  2.6939
  582MOL0     H80309   1.626  10.080   0.786 -0.2267 -0.4168 -1.7914
  582MOL0     H80310   1.779   9.940   0.679  1.4622  1.6582  1.4471
  582MOL0     H80311   1.715   9.799   0.773  1.3308 -1.3378  3.5089
  582MOL0     H80312   2.046   9.978   0.985 -1.3702  4.6656 -0.0190
  582MOL0     H80313   1.479   9.700   0.741  3.0364  1.4825 -0.4087
  582MOL0     H80314   1.518   9.367   0.565 -1.0271 -1.2447  2.2672
  582MOL0     H80315   1.461   9.531   0.552 -0.4010 -0.1991  1.3935
  582MOL0     H80316   1.643   9.493   0.554  0.6003 -1.3911  1.9942
  583MOL0     O80317   1.955   0.554   4.384  0.4007 -0.2551 -0.6194
  583MOL0     C80318   1.937   0.434   4.367 -0.6632 -0.2541 -0.4576
  583MOL0     O80319   1.898   0.348   4.466  0.6770 -0.0636  0.2800
  583MOL0     C80320   1.914   0.381   4.599  0.0538 -0.6338  0.6975
  583MOL0     C80321   1.854   0.492   4.662 -0.4034 -0.1314  0.7360
  583MOL0     C80322   1.881   0.521   4.798  0.3494  0.7712 -0.3827
  583MOL0     C80323   1.972   0.443   4.874 -0.2683 -0.1016 -0.0502
  583MOL0     O80324   1.984   0.459   5.008 -0.5551 -0.0600  0.1073
  583MOL0     C80325   1.906   0.373   5.095  0.5236 -0.4938  1.0009
  583MOL0     C80326   1.921   0.408   5.237 -0.8098  1.1262  0.9288
  583MOL0     C80327   1.827   0.335   5.335 -0.1028  0.1651  0.6393
  583MOL0     C80328   1.680   0.383   5.319 -0.6947  0.5852 -0.0410
  583MOL0     C80329   1.554   0.314   5.377  0.2800 -0.2321  0.3308
  583MOL0     C80330   1.538   0.350   5.529 -0.2523 -0.1310  1.1985
  583MOL0     C80331   1.413   0.273   5.594 -0.5323  0.0776  0.6458
  583MOL0     C80332   1.373   0.304   5.738 -0.1977 -0.3193  0.5294
  583MOL0     N80333   1.258   0.402   5.733 -0.6323  0.6402 -0.2816
  583MOL0     C80334   1.276   0.537   5.703  0.7141  0.1564 -0.1796
  583MOL0     C80335   1.165   0.602   5.732  0.6161  0.2665 -0.0492
  583MOL0     C80336   1.146   0.749   5.697  0.3799  0.3006  0.0954
  583MOL0     C80337   1.012   0.764   5.615 -0.3212 -0.1340  0.4194
  583MOL0     C80338   0.881   0.742   5.686  0.8644  0.4747  0.3311
  583MOL0     C80339   0.763   0.816   5.612  0.9209  0.3887 -0.8500
  583MOL0     O80340   0.747   0.773   5.471  0.0203  0.3271 -1.0178
  583MOL0     C80341   0.718   0.646   5.436 -0.1686  0.9163  0.5885
  583MOL0     C80342   0.745   0.603   5.303  0.4766  1.2740  0.1440
  583MOL0     C80343   0.727   0.469   5.260 -0.3761 -0.2111  0.0379
  583MOL0     C80344   0.760   0.443   5.118 -0.0133  0.2568  0.9452
  583MOL0     C80345   0.678   0.372   5.353 -0.4576  0.0182  0.2119
  583MOL0     C80346   0.631   0.234   5.310  0.7332  0.2936 -0.2619
  583MOL0     O80347   0.561   0.176   5.415 -0.7020 -0.4778 -0.6907
  583MOL0     C80348   0.524   0.048   5.406 -0.7762 -0.0532 -0.4950
  583MOL0     C80349   0.393   0.007   5.367  0.0753  0.6970 -0.2216
  583MOL0     C80350   0.371  -0.128   5.330 -0.3115  0.4266  0.6684
  583MOL0     C80351   0.461  -0.224   5.357 -0.3044 -0.1323  0.0245
  583MOL0     O80352   0.423  -0.351   5.342 -0.8718  0.1251 -0.5168
  583MOL0     C80353   0.500  -0.461   5.396 -0.0499  0.3092  0.0395
  583MOL0     C80354   0.409  -0.578   5.430 -0.2024  1.4913  0.2945
  583MOL0     C80355   0.515  -0.696   5.462  0.0636 -0.0866  0.4413
  583MOL0     C80356   0.455  -0.828   5.504 -0.6773 -0.0781  0.0315
  583MOL0     C80357   0.550  -0.938   5.526  0.1323  0.4372  0.0988
  583MOL0     C80358   0.619  -0.999   5.401  0.1506 -0.0602 -0.6569
  583MOL0     C80359   0.678  -1.133   5.445 -0.0080  0.9463  0.4183
  583MOL0     C80360   0.782  -1.170   5.338  0.5552 -0.1118  0.5713
  583MOL0    Cl80361   0.863  -1.317   5.405  0.3964 -0.2972 -0.3347
  583MOL0     C80362   0.588  -0.183   5.403 -0.3136  0.2991  0.3859
  583MOL0     C80363   0.624  -0.052   5.416  0.8814  0.3892 -0.0118
  583MOL0     O80364   0.670   0.171   5.209 -0.2846 -0.9784 -0.6485
  583MOL0     C80365   0.644   0.413   5.486 -0.9406  0.0320 -0.0236
  583MOL0     C80366   0.676   0.544   5.522 -0.1563  0.6345  0.3554
  583MOL0     N80367   1.084   0.507   5.799  0.3453  0.3488  0.7491
  583MOL0     N80368   1.146   0.395   5.803  0.8818  0.7409 -0.1522
  583MOL0     C80369   2.030   0.330   4.811  0.3811 -0.6582 -0.0207
  583MOL0     C80370   1.992   0.301   4.684  0.4922  0.9224  0.1452
  583MOL0     C80371   1.932   0.388   4.225  0.3059  0.0273 -0.0577
  583MOL0     C80372   1.970   0.488   4.130 -0.2355  0.2436  0.3918
  583MOL0     C80373   1.990   0.458   3.998 -0.3171  0.3224 -0.0344
  583MOL0     C80374   1.975   0.317   3.947 -1.1767 -0.5536  0.2546
  583MOL0     O80375   1.988   0.286   3.815 -0.5827  0.1182 -0.1443
  583MOL0     C80376   2.028   0.378   3.709 -0.3416 -0.5640 -0.2654
  583MOL0     C80377   2.009   0.319   3.567  0.9051  0.2134 -0.0735
  583MOL0     C80378   1.868   0.277   3.529 -0.5140  0.1357 -0.2993
  583MOL0     C80379   1.845   0.231   3.380 -0.3678 -0.4458 -0.5417
  583MOL0     C80380   1.709   0.245   3.368  0.5185 -0.1831  0.4329
  583MOL0     C80381   1.593   0.270   3.336 -0.0828  0.0983  0.6599
  583MOL0     C80382   1.933   0.223   4.036 -0.3835 -0.0046 -0.2750
  583MOL0     C80383   1.904   0.256   4.174 -0.1346 -0.2142 -0.7225
  583MOL0     C80384   1.856   0.145   4.263 -0.2747  0.5287  0.2965
  583MOL0     H80385   1.781   0.555   4.611  0.7955 -0.6365 -1.7735
  583MOL0     H80386   1.841   0.613   4.839  1.8373  1.1444  0.2629
  583MOL0     H80387   1.936   0.268   5.086  2.7138  0.2399 -1.4767
  583MOL0     H80388   1.805   0.397   5.061  2.0438  2.9302 -1.7927
  583MOL0     H80389   2.021   0.373   5.263  0.9371  1.4311 -4.2071
  583MOL0     H80390   1.913   0.517   5.244 -0.8964  1.1834  0.0421
  583MOL0     H80391   1.829   0.227   5.320  0.2954  0.6103 -4.1796
  583MOL0     H80392   1.865   0.347   5.437  0.3043 -0.6603  0.5896
  583MOL0     H80393   1.690   0.484   5.362  0.5366  2.1194 -3.5113
  583MOL0     H80394   1.655   0.413   5.217  0.6706 -0.9846 -0.8765
  583MOL0     H80395   1.554   0.205   5.366 -0.4161 -0.0789 -1.4955
  583MOL0     H80396   1.473   0.342   5.309  1.1881  3.7766  0.6821
  583MOL0     H80397   1.633   0.329   5.578 -0.5897 -2.6531  0.8721
  583MOL0     H80398   1.521   0.458   5.541  1.1121  0.4578 -1.3738
  583MOL0     H80399   1.446   0.169   5.596 -0.5698  0.0218 -0.7331
  583MOL0     H80400   1.323   0.281   5.532  0.6827 -0.2889 -1.2688
  583MOL0     H80401   1.353   0.214   5.798 -0.8298  0.9251  2.2546
  583MOL0     H80402   1.452   0.357   5.790  1.5984 -2.2819 -0.0514
  583MOL0     H80403   1.367   0.570   5.655 -0.3044  0.2009 -2.1921
  583MOL0     H80404   1.229   0.785   5.637  4.3942 -2.0525  3.6675
  583MOL0     H80405   1.141   0.809   5.788 -2.2646 -1.6239  1.3891
  583MOL0     H80406   1.008   0.867   5.580  1.9772 -0.5931 -1.4730
  583MOL0     H80407   1.027   0.693   5.533 -0.3346 -0.8851  1.0557
  583MOL0     H80408   0.866   0.634   5.692  0.6492  0.4182 -0.8518
  583MOL0     H80409   0.898   0.777   5.788 -1.7523  2.6516  0.1371
  583MOL0     H80410   0.676   0.803   5.676  1.3977  3.2656  0.5422
  583MOL0     H80411   0.778   0.923   5.622 -0.1928  0.4995 -0.2767
  583MOL0     H80412   0.779   0.677   5.231  0.0272  1.7454  0.4062
  583MOL0     H80413   0.786   0.537   5.069 -1.2760  0.4729  0.6513
  583MOL0     H80414   0.679   0.406   5.053  2.7162 -0.9191 -2.0944
  583MOL0     H80415   0.840   0.368   5.121  0.2776  0.5462  0.5426
  583MOL0     H80416   0.314   0.078   5.344 -0.6991  0.4691  1.5504
  583MOL0     H80417   0.282  -0.157   5.275  0.2649 -1.2670  0.5825
  583MOL0     H80418   0.571  -0.492   5.319  2.6087  0.8779  2.1291
  583MOL0     H80419   0.558  -0.429   5.483 -0.2452 -1.3680  0.8102
  583MOL0     H80420   0.361  -0.565   5.527 -2.2691 -4.0719  0.3587
  583MOL0     H80421   0.337  -0.611   5.355  0.3524 -1.0751  0.7831
  583MOL0     H80422   0.594  -0.654   5.525  0.2734 -1.2832  0.9921
  583MOL0     H80423   0.557  -0.717   5.363  0.3808 -0.2487  0.6078
  583MOL0     H80424   0.379  -0.860   5.432  0.1992  1.0547 -1.4661
  583MOL0     H80425   0.414  -0.817   5.604  1.1700 -1.3556  1.0071
  583MOL0     H80426   0.622  -0.916   5.605 -2.5136  0.2162  2.7490
  583MOL0     H80427   0.485  -1.013   5.573  1.3628 -0.0726  1.0470
  583MOL0     H80428   0.694  -0.925   5.370  0.6757  0.7842  2.3248
  583MOL0     H80429   0.553  -1.016   5.315 -1.1707 -0.6725  0.4489
  583MOL0     H80430   0.605  -1.213   5.435 -0.5597  1.4611  0.2897
  583MOL0     H80431   0.726  -1.117   5.542 -0.7877  0.3096  0.9248
  583MOL0     H80432   0.848  -1.085   5.318  0.0911 -0.0410 -0.7046
  583MOL0     H80433   0.727  -1.197   5.248 -0.2166  2.1254  0.2993
  583MOL0     H80434   0.662  -0.262   5.421  0.0725  1.1155  2.7821
  583MOL0     H80435   0.729  -0.037   5.439  1.5467  0.2735 -2.6214
  583MOL0     H80436   0.583   0.362   5.561 -2.5562  0.2670 -1.1177
  583MOL0     H80437   0.648   0.564   5.625  0.9142  0.9933  0.5933
  583MOL0     H80438   2.110   0.280   4.864  1.2122  0.6257 -0.0089
  583MOL0     H80439   2.041   0.213   4.643  1.6484  1.2815  0.7173
  583MOL0     H80440   2.008   0.587   4.151  0.4505 -0.0281  0.4920
  583MOL0     H80441   2.031   0.526   3.924 -2.0515  0.5561 -0.8339
  583MOL0     H80442   1.976   0.475   3.708 -1.5222 -1.1136 -3.1210
  583MOL0     H80443   2.132   0.410   3.721 -0.1115 -0.9151 -1.2191
  583MOL0     H80444   2.072   0.230   3.554  1.3997  0.7055 -1.1805
  583MOL0     H80445   2.043   0.385   3.486  4.3308 -2.6724 -1.2512
  583MOL0     H80446   1.838   0.199   3.599  0.2307  1.7378  1.9301
  583MOL0     H80447   1.819   0.372   3.552  0.5006  1.0385 -1.6868
  583MOL0     H80448   1.880   0.127   3.371 -0.5765 -0.4700 -1.0906
  583MOL0     H80449   1.885   0.305   3.310 -1.8117  0.5437 -0.3521
  583MOL0     H80450   1.499   0.300   3.294 -0.1565 -1.5431 -0.4177
  583MOL0     H80451   1.905   0.136   3.978 -0.1782  1.3538 -2.5345
  583MOL0     H80452   1.942   0.112   4.322 -0.1614  0.0285 -0.1453
  583MOL0     H80453   1.772   0.173   4.328 -0.5554 -0.4589  0.3663
  583MOL0     H80454   1.831   0.064   4.195  1.4058 -0.8616  1.2592
  584MOL0     O80455   2.327   8.678   4.835 -0.6437  0.3741  0.5474
  584MOL0     C80456   2.383   8.585   4.779 -0.5686 -0.2094  0.5377
  584MOL0     O80457   2.351   8.453   4.788 -0.0089  0.0191  0.9693
  584MOL0     C80458   2.248   8.398   4.865  0.1128 -0.3725  0.7153
  584MOL0     C80459   2.156   8.461   4.954  0.5217 -0.3816  0.9059
  584MOL0     C80460   2.072   8.388   5.035  0.4988  0.0710  0.9421
  584MOL0     C80461   2.064   8.247   5.030 -1.2704  0.5394 -0.5732
  584MOL0     O80462   1.978   8.188   5.123  0.1947  0.1739  0.1770
  584MOL0     C80463   1.957   8.038   5.133 -0.1553  0.1673  0.9321
  584MOL0     C80464   2.081   7.957   5.182  0.1455  0.4949 -0.0075
  584MOL0     C80465   2.028   7.833   5.257  0.6678 -0.0454 -0.0944
  584MOL0     C80466   2.030   7.846   5.410  0.0658 -0.2351  0.0063
  584MOL0     C80467   1.927   7.932   5.470  0.0297  0.0546  0.1559
  584MOL0     C80468   1.935   7.929   5.622  0.6546 -0.2786 -0.1749
  584MOL0     C80469   1.808   7.981   5.692 -0.1290 -0.1779 -0.6197
  584MOL0     C80470   1.668   7.919   5.642  1.1539  0.7425  0.2344
  584MOL0     N80471   1.647   7.783   5.706  0.1470 -0.3560  0.0282
  584MOL0     C80472   1.698   7.667   5.647 -0.4402 -0.8317  0.1910
  584MOL0     C80473   1.657   7.572   5.736  0.1285  0.5383  0.0527
  584MOL0     C80474   1.712   7.434   5.735 -0.5250 -1.0147  0.5432
  584MOL0     C80475   1.840   7.433   5.814  0.3816  0.4605  0.1793
  584MOL0     C80476   1.953   7.356   5.735 -0.2519 -0.7576 -0.0058
  584MOL0     C80477   1.926   7.212   5.704 -0.0043  0.5055  0.2130
  584MOL0     O80478   2.046   7.142   5.664 -0.0749  0.5498  0.4727
  584MOL0     C80479   2.033   7.038   5.582  0.3959 -0.0019  0.1747
  584MOL0     C80480   2.134   7.003   5.494  0.0176 -0.1756  1.2861
  584MOL0     C80481   2.126   6.892   5.409 -0.0464  0.6815  0.1307
  584MOL0     C80482   2.251   6.858   5.330  0.5065 -0.0736  0.2521
  584MOL0     C80483   2.004   6.809   5.416 -0.4486  0.3249  0.1116
  584MOL0     C80484   1.974   6.690   5.333 -0.2763 -0.6847 -0.2567
  584MOL0     O80485   1.875   6.597   5.366  0.4308  0.6510 -0.2419
  584MOL0     C80486   1.873   6.474   5.311 -0.7025  0.3261 -0.2827
  584MOL0     C80487   1.904   6.366   5.392 -0.1639 -0.0308 -0.1627
  584MOL0     C80488   1.890   6.237   5.344  0.1854  0.8124 -0.0450
  584MOL0     C80489   1.861   6.212   5.218 -0.7327  0.6148  1.1436
  584MOL0     O80490   1.836   6.086   5.166  0.2859 -0.5425  1.0831
  584MOL0     C80491   1.842   5.969   5.250 -0.4013 -0.9602  0.8131
  584MOL0     C80492   1.813   5.843   5.164 -0.7889 -0.2929  0.2179
  584MOL0     C80493   1.909   5.826   5.045 -0.0753  0.0165  0.7289
  584MOL0     C80494   2.055   5.806   5.074  0.0082  0.7096 -0.3413
  584MOL0     C80495   2.145   5.787   4.949 -0.2841  0.3436 -0.1313
  584MOL0     C80496   2.287   5.730   4.992  0.6216 -1.2910  0.4986
  584MOL0     C80497   2.391   5.753   4.878  0.1247 -0.2835 -0.0247
  584MOL0     C80498   2.533   5.698   4.908 -0.6561  0.4795 -0.6744
  584MOL0    Cl80499   2.535   5.519   4.924  0.2540 -0.3569  0.2614
  584MOL0     C80500   1.846   6.319   5.129 -0.5566  0.0014 -0.1440
  584MOL0     C80501   1.855   6.449   5.173  0.1566  0.2289 -0.3568
  584MOL0     O80502   2.050   6.676   5.237 -0.5016 -0.6008  0.2453
  584MOL0     C80503   1.907   6.843   5.511 -1.1185 -0.8159 -0.1143
  584MOL0     C80504   1.927   6.952   5.597  0.0399 -0.3720  1.1664
  584MOL0     N80505   1.598   7.634   5.839 -0.9249 -0.9299  0.9021
  584MOL0     N80506   1.594   7.760   5.831 -0.1422 -0.3410  0.8436
  584MOL0     C80507   2.148   8.173   4.931  0.7992 -0.5801  0.3573
  584MOL0     C80508   2.245   8.252   4.860  0.2713  0.0075  1.1517
  584MOL0     C80509   2.496   8.609   4.674  0.8476  0.6231 -0.7498
  584MOL0     C80510   2.573   8.719   4.701 -0.2808 -0.5140 -0.7871
  584MOL0     C80511   2.678   8.761   4.622 -1.0849  0.0926  1.2588
  584MOL0     C80512   2.728   8.671   4.528  0.2255  0.3821  0.0868
  584MOL0     O80513   2.837   8.690   4.449 -0.2924  0.0077 -0.0055
  584MOL0     C80514   2.944   8.772   4.486  0.0706  0.1839 -0.0856
  584MOL0     C80515   3.049   8.694   4.551 -0.6545  0.0392 -0.1020
  584MOL0     C80516   3.133   8.606   4.458 -0.1664  1.2148 -0.4215
  584MOL0     C80517   3.175   8.484   4.534  1.2305  0.3030  0.2442
  584MOL0     C80518   3.278   8.510   4.635 -0.0637 -0.8094 -1.0159
  584MOL0     C80519   3.353   8.533   4.722  0.8825  0.2902  0.3216
  584MOL0     C80520   2.643   8.570   4.484  0.0573  0.3997  0.1373
  584MOL0     C80521   2.528   8.534   4.556  0.2346  0.1897 -0.0236
  584MOL0     C80522   2.429   8.433   4.499  0.3566  0.2149 -0.3250
  584MOL0     H80523   2.147   8.569   4.955  0.6279 -0.2207 -2.9402
  584MOL0     H80524   2.010   8.426   5.116 -1.9313 -2.0768  0.2289
  584MOL0     H80525   1.918   7.998   5.039  0.1904  0.1674  0.7853
  584MOL0     H80526   1.880   8.032   5.209  0.0244  0.1439  1.1126
  584MOL0     H80527   2.141   7.938   5.092 -1.3007  1.5572 -1.2745
  584MOL0     H80528   2.140   8.020   5.249 -2.1849 -0.1827  2.8971
  584MOL0     H80529   1.929   7.809   5.216  0.2915  4.2858 -2.2713
  584MOL0     H80530   2.099   7.754   5.232  1.2094  0.4287 -0.0806
  584MOL0     H80531   2.028   7.746   5.454  3.9649  0.1265  1.3517
  584MOL0     H80532   2.124   7.887   5.447  0.1037  0.3520 -0.7030
  584MOL0     H80533   1.832   7.897   5.428  0.5175  0.4952 -1.3639
  584MOL0     H80534   1.948   8.034   5.435  2.1113 -0.7466 -1.0719
  584MOL0     H80535   1.949   7.823   5.647  0.2922 -0.2082  0.3230
  584MOL0     H80536   2.021   7.980   5.667 -0.2382  2.0077 -0.9421
  584MOL0     H80537   1.799   8.089   5.680 -2.5750 -0.1112  1.1030
  584MOL0     H80538   1.821   7.966   5.800 -2.8074 -1.4982 -0.4171
  584MOL0     H80539   1.587   7.988   5.666  1.1265  0.1758  1.8878
  584MOL0     H80540   1.672   7.905   5.534  2.1590  3.9973 -0.2555
  584MOL0     H80541   1.761   7.658   5.560  1.1499 -3.4230  1.4818
  584MOL0     H80542   1.732   7.410   5.630  2.2298  2.0010  0.2194
  584MOL0     H80543   1.646   7.367   5.791 -1.4725  0.5229  1.3456
  584MOL0     H80544   1.881   7.529   5.849  0.7241  0.6296 -0.6674
  584MOL0     H80545   1.830   7.380   5.909  5.5678 -0.1199  0.7279
  584MOL0     H80546   1.976   7.419   5.649  0.5505 -1.0964 -0.0490
  584MOL0     H80547   2.044   7.348   5.796  0.6123  2.7138 -0.6030
  584MOL0     H80548   1.887   7.159   5.791 -0.6009  2.1705  0.9962
  584MOL0     H80549   1.844   7.212   5.631 -0.3489  2.1063  0.5588
  584MOL0     H80550   2.223   7.065   5.496 -0.0652  0.0202  0.0471
  584MOL0     H80551   2.341   6.920   5.339  0.2614  0.2198  0.7015
  584MOL0     H80552   2.217   6.872   5.227  1.5437 -0.5935 -0.1767
  584MOL0     H80553   2.292   6.759   5.354  5.2375  2.0081  2.2017
  584MOL0     H80554   1.928   6.389   5.496  0.7353 -0.1309 -0.3454
  584MOL0     H80555   1.915   6.162   5.419  1.2285 -0.5942 -1.7141
  584MOL0     H80556   1.940   5.953   5.296 -1.4238 -0.5600  3.3333
  584MOL0     H80557   1.779   5.975   5.340  3.0141 -0.4790  3.3736
  584MOL0     H80558   1.804   5.754   5.225  0.3938 -1.3027 -1.0105
  584MOL0     H80559   1.712   5.849   5.122 -0.6861  0.7718  0.0870
  584MOL0     H80560   1.901   5.911   4.977  0.5311 -0.9328 -0.5719
  584MOL0     H80561   1.878   5.743   4.981 -0.3915  1.8083 -1.5699
  584MOL0     H80562   2.068   5.713   5.130  1.0062  0.0514 -1.6210
  584MOL0     H80563   2.099   5.884   5.135 -0.4779  1.2665 -0.6901
  584MOL0     H80564   2.100   5.719   4.876  2.7735 -0.0844 -1.7701
  584MOL0     H80565   2.153   5.885   4.900  2.0035 -0.0085 -0.5550
  584MOL0     H80566   2.297   5.627   5.029 -2.8379 -3.1192 -2.9121
  584MOL0     H80567   2.323   5.799   5.068  0.6965  0.7544 -1.3081
  584MOL0     H80568   2.401   5.859   4.853  2.8578 -0.6461 -0.8891
  584MOL0     H80569   2.363   5.697   4.788  2.7234 -2.5481  0.4362
  584MOL0     H80570   2.584   5.756   4.986 -2.0004 -0.5407  1.0313
  584MOL0     H80571   2.594   5.718   4.820  1.7256  2.2671  1.2259
  584MOL0     H80572   1.803   6.294   5.032  0.2181 -1.7795 -0.0614
  584MOL0     H80573   1.826   6.534   5.112 -0.6991  2.5408  2.9647
  584MOL0     H80574   1.829   6.768   5.522 -2.3227  0.4275  0.0865
  584MOL0     H80575   1.849   6.980   5.667  0.4658  2.2162  0.7114
  584MOL0     H80576   2.146   8.065   4.937 -0.8308 -0.6937 -1.4351
  584MOL0     H80577   2.327   8.206   4.805 -0.2701 -1.2494  1.3427
  584MOL0     H80578   2.550   8.774   4.791  3.9861  2.8222 -1.4169
  584MOL0     H80579   2.740   8.844   4.655  0.2398 -0.9393  1.4444
  584MOL0     H80580   2.990   8.817   4.397  1.7930  0.7191  1.0245
  584MOL0     H80581   2.905   8.856   4.544 -0.1807  1.3937 -1.9209
  584MOL0     H80582   2.994   8.626   4.617 -0.5273 -2.1539 -2.1294
  584MOL0     H80583   3.106   8.754   4.622 -1.1882 -1.0173  1.2708
  584MOL0     H80584   3.085   8.566   4.368 -0.5314  0.4816  0.0899
  584MOL0     H80585   3.219   8.667   4.430  1.1564 -0.3181  0.1684
  584MOL0     H80586   3.219   8.421   4.455 -3.3290  0.6030 -2.9634
  584MOL0     H80587   3.085   8.437   4.575 -0.6560  4.2404  1.0995
  584MOL0     H80588   3.427   8.567   4.791 -0.4162  1.1240  1.3720
  584MOL0     H80589   2.675   8.503   4.405  2.5467 -1.1198  2.2402
  584MOL0     H80590   2.468   8.388   4.407  4.2528 -2.4825  2.3141
  584MOL0     H80591   2.410   8.351   4.568 -1.2374 -0.1778 -1.1874
  584MOL0     H80592   2.336   8.488   4.481  1.4171  2.0118 -0.5354
  585MOL0     O80593   1.877   2.639   9.188 -1.0887  0.0766 -0.4923
  585MOL0     C80594   1.826   2.750   9.197  0.8776 -0.4862  0.1304
  585MOL0     O80595   1.701   2.770   9.257 -0.4564  0.4557  1.3395
  585MOL0     C80596   1.616   2.664   9.273 -0.5246  0.7679 -0.6440
  585MOL0     C80597   1.599   2.553   9.187  1.2260  0.4512 -0.1332
  585MOL0     C80598   1.483   2.474   9.201  0.1551  0.2153  0.2143
  585MOL0     C80599   1.399   2.486   9.308  0.5091 -0.2836 -0.7456
  585MOL0     O80600   1.297   2.398   9.330  0.1315 -0.2764  0.2576
  585MOL0     C80601   1.248   2.300   9.237  0.3624  1.0659 -0.0842
  585MOL0     C80602   1.096   2.274   9.254  0.0371 -0.9831 -0.2417
  585MOL0     C80603   1.016   2.403   9.213 -0.2828 -1.3004  0.0907
  585MOL0     C80604   0.866   2.373   9.258 -0.6332  0.2398 -0.3279
  585MOL0     C80605   0.770   2.490   9.240  0.5976  1.0128 -0.2599
  585MOL0     C80606   0.638   2.478   9.314  0.5370  0.4848 -0.0367
  585MOL0     C80607   0.551   2.592   9.264  0.0927 -0.5843 -0.6971
  585MOL0     C80608   0.424   2.615   9.347 -0.3761 -0.0725  0.5624
  585MOL0     N80609   0.331   2.697   9.265 -0.1118  0.7737  0.5470
  585MOL0     C80610   0.199   2.708   9.279  0.1364 -0.0523  1.0564
  585MOL0     C80611   0.154   2.795   9.183 -0.0810  0.1750 -0.2020
  585MOL0     C80612   0.017   2.836   9.160  0.1465  0.5983  0.2399
  585MOL0     C80613   0.004   2.989   9.164  0.1247  0.8514 -0.0629
  585MOL0     C80614  -0.127   3.036   9.099 -0.4263 -0.3135  0.7662
  585MOL0     C80615  -0.138   3.010   8.950 -0.0878 -0.5823  0.5163
  585MOL0     O80616  -0.205   2.885   8.921  0.6256 -0.1704 -0.1965
  585MOL0     C80617  -0.220   2.853   8.786  0.1283 -0.7476  0.5969
  585MOL0     C80618  -0.275   2.729   8.745 -1.2907  0.4071  0.0796
  585MOL0     C80619  -0.266   2.687   8.610  0.7514  0.2456 -1.0584
  585MOL0     C80620  -0.321   2.555   8.594 -0.2069 -0.3706  0.3189
  585MOL0     C80621  -0.207   2.767   8.521 -0.6065  0.6639  0.2770
  585MOL0     C80622  -0.164   2.720   8.389  0.6371  0.2709  0.4073
  585MOL0     O80623  -0.058   2.778   8.333 -0.6171  0.5514 -0.0238
  585MOL0     C80624   0.010   2.739   8.215  0.4148 -0.7712 -0.3091
  585MOL0     C80625   0.020   2.611   8.157 -0.7104  0.9842  0.4001
  585MOL0     C80626   0.097   2.586   8.040 -0.7165 -0.5668 -0.1614
  585MOL0     C80627   0.157   2.696   7.976  0.9784  0.8657  0.5067
  585MOL0     O80628   0.212   2.660   7.854  0.7788 -0.0099 -0.2069
  585MOL0     C80629   0.264   2.751   7.753 -0.2353 -0.5299 -0.8934
  585MOL0     C80630   0.354   2.680   7.653  0.5865  0.2355  0.2923
  585MOL0     C80631   0.299   2.552   7.587 -0.3025  0.0759 -0.1447
  585MOL0     C80632   0.398   2.494   7.480  0.3840 -0.0394 -0.1178
  585MOL0     C80633   0.508   2.425   7.552 -0.3472  1.6977  0.0184
  585MOL0     C80634   0.617   2.381   7.444  0.0182  0.3421  0.1875
  585MOL0     C80635   0.741   2.294   7.493 -0.4897 -0.5973 -0.0315
  585MOL0     C80636   0.857   2.295   7.406 -0.2945 -0.6228  0.7812
  585MOL0    Cl80637   0.970   2.438   7.435  0.1357  0.2820 -0.0544
  585MOL0     C80638   0.140   2.827   8.023 -0.3385  0.2106  0.8401
  585MOL0     C80639   0.077   2.849   8.151  0.1235 -0.3177  0.1702
  585MOL0     O80640  -0.215   2.619   8.337 -0.0391 -0.6714  0.0892
  585MOL0     C80641  -0.169   2.896   8.556  0.6041  0.1534 -0.0894
  585MOL0     C80642  -0.173   2.936   8.688  1.0367  0.3129  0.1897
  585MOL0     N80643   0.266   2.840   9.114  0.3193 -0.0368 -0.4123
  585MOL0     N80644   0.369   2.782   9.167  0.1393 -0.0399  0.1576
  585MOL0     C80645   1.426   2.585   9.400  0.9620 -0.1053 -0.5597
  585MOL0     C80646   1.530   2.671   9.384 -0.5726 -0.2971  0.4280
  585MOL0     C80647   1.907   2.872   9.157 -0.4832 -0.1765 -0.8884
  585MOL0     C80648   2.026   2.852   9.070  0.0987  0.3576 -0.0698
  585MOL0     C80649   2.122   2.955   9.049  0.5133 -0.1194 -0.1024
  585MOL0     C80650   2.098   3.079   9.094  0.1675 -1.2049 -0.3624
  585MOL0     O80651   2.177   3.193   9.080  0.0339  0.0105 -0.4066
  585MOL0     C80652   2.309   3.168   9.023  0.8701  0.0372  0.4636
  585MOL0     C80653   2.418   3.132   9.124  0.6798 -0.5932 -0.3480
  585MOL0     C80654   2.534   3.073   9.046 -0.7616  0.6653 -0.3187
  585MOL0     C80655   2.650   3.027   9.136  0.0340  0.0328 -0.4265
  585MOL0     C80656   2.787   3.028   9.077  0.6905  0.4471 -0.5233
  585MOL0     C80657   2.888   3.006   9.020 -0.1634  1.0897 -0.2216
  585MOL0     C80658   1.978   3.096   9.172 -0.6493 -0.0575  0.1112
  585MOL0     C80659   1.888   2.997   9.211  0.7754  0.3653  0.3976
  585MOL0     C80660   1.765   3.039   9.286 -0.1059  0.8701 -1.0027
  585MOL0     H80661   1.670   2.542   9.106  1.6759  1.1725  0.1524
  585MOL0     H80662   1.458   2.400   9.126 -1.6968  0.0156  0.9705
  585MOL0     H80663   1.297   2.204   9.251 -0.6933  0.5089 -0.0918
  585MOL0     H80664   1.260   2.332   9.133 -4.2878  0.8084 -0.9072
  585MOL0     H80665   1.062   2.188   9.195 -0.2424 -1.5501  0.7089
  585MOL0     H80666   1.083   2.246   9.359  4.2228  1.6493  1.2346
  585MOL0     H80667   1.051   2.494   9.263 -0.2923 -1.0517 -0.3380
  585MOL0     H80668   1.029   2.427   9.107 -0.9851  0.3241  0.3333
  585MOL0     H80669   0.822   2.292   9.198 -1.5690 -0.2906  1.0362
  585MOL0     H80670   0.860   2.349   9.364 -2.8848  1.7371 -0.0445
  585MOL0     H80671   0.752   2.496   9.132  0.7855 -1.3146 -0.4655
  585MOL0     H80672   0.814   2.586   9.270  1.8831  0.0481  1.0950
  585MOL0     H80673   0.598   2.380   9.289  2.4699  0.0320 -1.6461
  585MOL0     H80674   0.647   2.483   9.422 -0.2343  1.2695  0.0028
  585MOL0     H80675   0.523   2.584   9.158  1.4249 -0.1338 -1.0979
  585MOL0     H80676   0.611   2.683   9.266  0.9234 -1.0577  2.9857
  585MOL0     H80677   0.374   2.522   9.376 -1.1370  0.1176 -0.0890
  585MOL0     H80678   0.454   2.678   9.431  2.0013  2.9718 -2.2693
  585MOL0     H80679   0.138   2.667   9.360  1.8418  2.9589  4.1263
  585MOL0     H80680  -0.050   2.785   9.229 -1.0267  0.4026 -1.0048
  585MOL0     H80681  -0.015   2.788   9.067 -0.6111  3.1267 -0.8836
  585MOL0     H80682  -0.003   3.010   9.272  1.2530 -1.3881  0.5056
  585MOL0     H80683   0.098   3.030   9.127  0.9917 -1.4097 -0.4835
  585MOL0     H80684  -0.209   2.991   9.156  1.4728  0.8508  4.7787
  585MOL0     H80685  -0.129   3.144   9.113  4.2201  0.1411 -0.4916
  585MOL0     H80686  -0.200   3.094   8.919 -1.2837 -0.6162  2.6448
  585MOL0     H80687  -0.037   3.011   8.906 -0.3356  3.7902 -0.3264
  585MOL0     H80688  -0.307   2.673   8.833 -0.9289 -3.2250 -1.9194
  585MOL0     H80689  -0.366   2.526   8.689 -2.9722  1.7485 -0.2056
  585MOL0     H80690  -0.242   2.488   8.560  1.7262  0.9560  1.8992
  585MOL0     H80691  -0.394   2.556   8.513 -2.6679 -4.7666  2.1463
  585MOL0     H80692  -0.019   2.523   8.208  1.0380  1.4703  2.7868
  585MOL0     H80693   0.123   2.486   8.006  0.8449 -1.2800  2.8081
  585MOL0     H80694   0.177   2.811   7.722 -2.4916 -2.6757  0.8702
  585MOL0     H80695   0.324   2.827   7.805 -5.1417  1.4244  2.8063
  585MOL0     H80696   0.365   2.754   7.573  1.1949  0.0848  0.2340
  585MOL0     H80697   0.450   2.664   7.702 -0.3370  0.1260  2.1389
  585MOL0     H80698   0.211   2.580   7.528 -2.0683  2.0552  3.1263
  585MOL0     H80699   0.278   2.474   7.660 -2.6602  1.1591  0.4267
  585MOL0     H80700   0.443   2.574   7.420  1.1638 -1.5331 -1.6182
  585MOL0     H80701   0.347   2.428   7.410 -1.2427  1.3401 -0.3205
  585MOL0     H80702   0.562   2.488   7.623 -0.9268  0.1741  1.8728
  585MOL0     H80703   0.472   2.331   7.593  1.5955  1.1572  0.5856
  585MOL0     H80704   0.652   2.465   7.382  2.7768 -0.2016  0.8848
  585MOL0     H80705   0.565   2.311   7.378  3.0310 -1.7337 -0.1681
  585MOL0     H80706   0.718   2.192   7.523 -1.1884 -0.7465 -1.0158
  585MOL0     H80707   0.776   2.347   7.582 -0.0253 -1.8103  0.5209
  585MOL0     H80708   0.807   2.295   7.308 -2.8919  1.9177  1.9526
  585MOL0     H80709   0.928   2.212   7.408  3.2282  2.1264  1.1670
  585MOL0     H80710   0.180   2.915   7.975  0.1698 -1.4245 -1.9940
  585MOL0     H80711   0.081   2.951   8.187 -0.7551 -0.4502  0.6631
  585MOL0     H80712  -0.122   2.954   8.477 -0.2873 -1.9839 -2.3163
  585MOL0     H80713  -0.123   3.029   8.714 -0.1192  0.2663  2.9526
  585MOL0     H80714   1.347   2.595   9.474 -0.2854 -4.7433 -0.9002
  585MOL0     H80715   1.527   2.742   9.466  1.7608  0.9051 -0.4241
  585MOL0     H80716   2.061   2.764   9.018  0.4912 -0.6086  1.7557
  585MOL0     H80717   2.209   2.929   8.991  0.6170 -0.4364  0.1856
  585MOL0     H80718   2.299   3.098   8.939  1.7237  1.9651 -1.3277
  585MOL0     H80719   2.333   3.267   8.984 -3.5631  0.7339 -1.1113
  585MOL0     H80720   2.379   3.066   9.202  0.9907 -0.1757  0.1676
  585MOL0     H80721   2.429   3.228   9.174 -1.2591  0.2307 -1.3811
  585MOL0     H80722   2.508   2.976   9.002  1.8378 -0.9139  1.3685
  585MOL0     H80723   2.564   3.145   8.969  0.1095 -0.2729 -0.8926
  585MOL0     H80724   2.626   2.926   9.170 -1.0368  0.9234  1.6433
  585MOL0     H80725   2.646   3.082   9.230 -0.0090 -0.6087 -0.0431
  585MOL0     H80726   2.976   2.988   8.962 -1.1283 -4.7820 -0.4830
  585MOL0     H80727   1.966   3.195   9.214  0.0745 -0.6737  1.8521
  585MOL0     H80728   1.755   3.146   9.309  1.0187  1.2641 -2.2153
  585MOL0     H80729   1.673   3.017   9.230 -0.5496  1.3981 -0.4936
  585MOL0     H80730   1.763   2.989   9.383  0.6398  1.1659 -0.8341
  586MOL0     O80731   1.659   7.012   9.728  0.0443 -0.2199 -1.0856
  586MOL0     C80732   1.553   7.024   9.669  0.3621  0.1647 -0.7763
  586MOL0     O80733   1.540   7.063   9.542 -0.1423  0.4884 -0.6395
  586MOL0     C80734   1.652   7.102   9.479 -0.2145 -0.0854  0.6489
  586MOL0     C80735   1.708   7.232   9.500  0.0237 -1.0799 -0.8066
  586MOL0     C80736   1.837   7.259   9.455 -0.2999  0.1868 -0.0473
  586MOL0     C80737   1.917   7.158   9.389 -0.4378  0.3898  0.2179
  586MOL0     O80738   2.050   7.175   9.354 -0.0645  0.0473  1.0314
  586MOL0     C80739   2.118   7.301   9.386  0.1593 -0.5514  0.0873
  586MOL0     C80740   2.087   7.411   9.279  0.6623 -0.2013 -0.4459
  586MOL0     C80741   2.128   7.364   9.137  0.4828 -0.4596  0.6644
  586MOL0     C80742   2.280   7.330   9.130  0.4656 -0.3755  0.5281
  586MOL0     C80743   2.332   7.323   8.979 -0.0600 -0.5219 -1.1334
  586MOL0     C80744   2.486   7.284   8.989 -0.0335 -0.2959  0.1000
  586MOL0     C80745   2.589   7.386   9.042  0.0463  0.7997 -0.4191
  586MOL0     C80746   2.610   7.501   8.938 -0.1266  0.0956  0.0809
  586MOL0     N80747   2.701   7.476   8.823  0.0486  0.3593 -0.4488
  586MOL0     C80748   2.835   7.499   8.852  0.7069  0.1196  0.7809
  586MOL0     C80749   2.895   7.505   8.730  0.0088 -0.1994 -0.5271
  586MOL0     C80750   3.045   7.526   8.714  1.7156  0.2665 -0.2422
  586MOL0     C80751   3.132   7.418   8.649 -0.7250 -0.4229  0.4260
  586MOL0     C80752   3.121   7.435   8.494  0.0710 -0.0070 -0.7191
  586MOL0     C80753   3.208   7.336   8.407  0.5027  0.1962 -0.0515
  586MOL0     O80754   3.136   7.320   8.279 -0.4361 -0.5259 -0.2102
  586MOL0     C80755   3.210   7.268   8.178 -0.1720 -0.0863 -0.8268
  586MOL0     C80756   3.160   7.286   8.047 -0.3728 -0.2971  0.3166
  586MOL0     C80757   3.225   7.225   7.931 -1.1864 -0.5195  0.5225
  586MOL0     C80758   3.159   7.258   7.792  0.0235  0.2801 -0.7414
  586MOL0     C80759   3.346   7.155   7.949  0.1134  1.4148  0.5069
  586MOL0     C80760   3.417   7.092   7.831  0.1610  0.0520  0.0072
  586MOL0     O80761   3.342   6.993   7.765 -0.1133  0.0537 -0.2222
  586MOL0     C80762   3.377   6.955   7.638  0.9212 -0.0758 -0.3969
  586MOL0     C80763   3.349   7.043   7.532  0.0790 -0.8245 -0.2077
  586MOL0     C80764   3.376   7.013   7.405  0.7266 -0.6744 -0.4005
  586MOL0     C80765   3.467   6.913   7.377  0.2376  0.2257 -0.2575
  586MOL0     O80766   3.497   6.909   7.246 -0.6918 -0.0716  0.0200
  586MOL0     C80767   3.618   6.836   7.218  0.4261  0.7849  0.1146
  586MOL0     C80768   3.646   6.864   7.071 -1.3448  0.4394 -0.0569
  586MOL0     C80769   3.686   7.013   7.063  0.2624  0.4078  0.4215
  586MOL0     C80770   3.770   7.035   6.934  0.0483  0.4777  0.4680
  586MOL0     C80771   3.814   7.175   6.922 -0.0084  1.0208  0.1327
  586MOL0     C80772   3.867   7.194   6.784 -0.0538  0.4681  1.4993
  586MOL0     C80773   3.865   7.344   6.760 -1.1134 -0.1814 -0.3249
  586MOL0     C80774   3.926   7.393   6.635  0.5262  1.1303 -0.4741
  586MOL0    Cl80775   3.816   7.349   6.510 -0.0400  0.6216  0.2266
  586MOL0     C80776   3.501   6.824   7.486 -0.3392 -0.2125  0.3265
  586MOL0     C80777   3.457   6.845   7.612  0.3779  0.3030  0.2336
  586MOL0     O80778   3.543   7.110   7.814 -0.6886  0.4181  0.1958
  586MOL0     C80779   3.389   7.136   8.076 -0.1311 -0.9247  0.0901
  586MOL0     C80780   3.323   7.192   8.188  0.0256 -0.0844  0.5681
  586MOL0     N80781   2.793   7.483   8.635  1.2026 -0.1144  0.5703
  586MOL0     N80782   2.673   7.474   8.689  0.1245 -0.2475  0.3574
  586MOL0     C80783   1.855   7.039   9.358 -0.5481  0.9986 -0.2944
  586MOL0     C80784   1.734   7.010   9.416 -0.2824 -0.2182  0.8787
  586MOL0     C80785   1.420   6.978   9.732  0.8344  0.6395  0.0546
  586MOL0     C80786   1.330   6.926   9.632 -0.1015  0.8014  0.1007
  586MOL0     C80787   1.210   6.880   9.660 -0.0124 -0.3457  0.6406
  586MOL0     C80788   1.166   6.874   9.788  0.2272  0.0547 -0.2897
  586MOL0     O80789   1.041   6.809   9.814  1.1388 -1.6027 -0.5249
  586MOL0     C80790   0.954   6.843   9.921  0.0666  0.1703 -0.2109
  586MOL0     C80791   0.981   6.750  10.045  0.6273  0.8712 -0.2831
  586MOL0     C80792   0.875   6.765  10.151 -0.5259 -0.5034  0.9237
  586MOL0     C80793   0.735   6.711  10.117  0.0217  0.7544  0.1322
  586MOL0     C80794   0.644   6.735  10.227  0.0969 -0.1912 -0.5847
  586MOL0     C80795   0.573   6.772  10.325 -0.7225  0.6057 -0.4776
  586MOL0     C80796   1.244   6.933   9.886  0.8717 -0.0258 -0.6273
  586MOL0     C80797   1.373   6.987   9.858 -0.7511 -0.1195 -0.0162
  586MOL0     C80798   1.454   7.061   9.963 -0.6268  1.0886 -0.7706
  586MOL0     H80799   1.641   7.294   9.558 -1.0787 -0.6823 -2.4147
  586MOL0     H80800   1.873   7.357   9.486  2.7826 -0.4115 -1.4025
  586MOL0     H80801   2.225   7.284   9.402  0.3361 -1.1764 -1.5216
  586MOL0     H80802   2.083   7.342   9.481 -1.1899 -1.1943 -0.1003
  586MOL0     H80803   1.979   7.426   9.288  0.8306  0.6965  0.2002
  586MOL0     H80804   2.126   7.509   9.308 -3.7004  1.5345  0.3012
  586MOL0     H80805   2.062   7.284   9.103  2.3608 -1.9337  0.3297
  586MOL0     H80806   2.108   7.447   9.068 -1.7849 -0.4863  1.2105
  586MOL0     H80807   2.344   7.405   9.176 -0.0285  1.0258 -0.9796
  586MOL0     H80808   2.295   7.227   9.165  2.1555 -0.6165 -0.8099
  586MOL0     H80809   2.314   7.418   8.929 -0.2824 -0.2368 -0.5231
  586MOL0     H80810   2.276   7.246   8.926 -4.1056  0.8227  0.8099
  586MOL0     H80811   2.490   7.201   9.059  2.2174  0.5591  1.0538
  586MOL0     H80812   2.507   7.249   8.887 -4.3572 -0.6491 -0.9030
  586MOL0     H80813   2.690   7.344   9.048  0.8658  2.2890 -2.6060
  586MOL0     H80814   2.550   7.430   9.135 -1.7706 -0.3675 -0.5822
  586MOL0     H80815   2.508   7.519   8.902 -0.3388  1.7561  1.3957
  586MOL0     H80816   2.635   7.592   8.993 -3.3078  0.7132  0.7164
  586MOL0     H80817   2.880   7.507   8.950 -0.7874  2.6650  1.3355
  586MOL0     H80818   3.090   7.541   8.813 -0.5545  0.0282  0.8989
  586MOL0     H80819   3.050   7.625   8.668 -0.3880 -0.4121 -2.0826
  586MOL0     H80820   3.237   7.429   8.679 -0.6400 -1.1045  0.3841
  586MOL0     H80821   3.092   7.319   8.671  0.1716 -0.9652 -0.3451
  586MOL0     H80822   3.021   7.416   8.454 -0.1925  0.0203 -0.0818
  586MOL0     H80823   3.142   7.542   8.486 -2.9755  0.9384  1.8006
  586MOL0     H80824   3.309   7.372   8.384  0.5306 -1.9206 -4.4042
  586MOL0     H80825   3.205   7.238   8.455 -2.4694 -1.1569 -2.6433
  586MOL0     H80826   3.063   7.335   8.039 -1.1897 -2.0191 -0.9241
  586MOL0     H80827   3.232   7.298   7.721 -1.1312  2.0297 -0.9980
  586MOL0     H80828   3.067   7.315   7.805 -0.5469 -0.7407 -0.1134
  586MOL0     H80829   3.131   7.163   7.744  2.9029 -2.0982  1.8439
  586MOL0     H80830   3.291   7.133   7.554 -0.0090 -0.5938 -1.3277
  586MOL0     H80831   3.341   7.083   7.329 -1.3258 -0.0466  1.0377
  586MOL0     H80832   3.704   6.859   7.282 -0.6074  5.6144  0.1272
  586MOL0     H80833   3.601   6.729   7.234  2.5015  0.3281 -0.3962
  586MOL0     H80834   3.727   6.795   7.047 -0.6602  1.0249  0.5210
  586MOL0     H80835   3.558   6.849   7.008 -2.4144 -1.6884  1.7732
  586MOL0     H80836   3.747   7.034   7.151  0.1887  2.0996  0.1013
  586MOL0     H80837   3.597   7.077   7.063  1.2083  1.7877 -0.4287
  586MOL0     H80838   3.708   7.019   6.846 -0.0390  4.7261 -0.4526
  586MOL0     H80839   3.864   6.980   6.933 -0.3980 -0.2938  0.4583
  586MOL0     H80840   3.725   7.229   6.956 -0.7808  0.3349 -0.7102
  586MOL0     H80841   3.894   7.191   6.994  0.9375 -2.0308 -0.1065
  586MOL0     H80842   3.807   7.138   6.712  1.4393 -1.1239  1.4119
  586MOL0     H80843   3.970   7.160   6.766  0.3512  2.4382 -0.2360
  586MOL0     H80844   3.922   7.397   6.837 -0.1069  0.1900 -1.3012
  586MOL0     H80845   3.763   7.382   6.769 -0.7053  0.5604  1.5325
  586MOL0     H80846   4.023   7.346   6.617 -0.4610 -1.8330  1.3536
  586MOL0     H80847   3.933   7.502   6.638 -0.7970  1.2574 -1.2367
  586MOL0     H80848   3.557   6.732   7.478 -2.0037 -1.1842 -0.5433
  586MOL0     H80849   3.487   6.782   7.694  4.1799  3.3532  1.5172
  586MOL0     H80850   3.482   7.082   8.087 -0.3323 -1.4991 -0.9301
  586MOL0     H80851   3.369   7.176   8.286  0.9003 -1.6182 -0.0497
  586MOL0     H80852   1.915   6.959   9.315  1.2703  2.7405 -1.1662
  586MOL0     H80853   1.704   6.906   9.411  0.8183 -0.4673 -1.0774
  586MOL0     H80854   1.355   6.915   9.527  2.2637  1.3536  0.5547
  586MOL0     H80855   1.132   6.851   9.590  0.7320  1.4233 -1.0216
  586MOL0     H80856   0.966   6.947   9.950 -1.2691  0.6428 -1.2612
  586MOL0     H80857   0.847   6.836   9.900  0.0464 -1.7914  0.3164
  586MOL0     H80858   1.073   6.777  10.096  0.2238  3.9481 -0.9745
  586MOL0     H80859   0.984   6.643  10.023 -1.3268  1.0330 -1.6305
  586MOL0     H80860   0.915   6.710  10.237 -0.2327 -0.9919  0.4811
  586MOL0     H80861   0.866   6.870  10.180  0.0683  0.7540 -2.8825
  586MOL0     H80862   0.737   6.602  10.107  0.1877  0.4237  2.9830
  586MOL0     H80863   0.697   6.760  10.028  0.3731 -1.4323 -1.2994
  586MOL0     H80864   0.514   6.816  10.403 -1.1571 -0.7770 -0.0066
  586MOL0     H80865   1.221   6.918   9.991  0.6971 -0.7339 -0.7647
  586MOL0     H80866   1.394   7.078  10.053 -0.6225 -2.7937  0.1111
  586MOL0     H80867   1.538   7.000   9.995 -0.1418  2.3865  0.5650
  586MOL0     H80868   1.487   7.158   9.923  0.8720 -0.1424 -2.6802
  587MOL0     O80869  10.916   2.793   2.775 -0.0123  0.1151 -0.1073
  587MOL0     C80870  10.994   2.753   2.688  0.4395  0.5956  0.7421
  587MOL0     O80871  11.067   2.832   2.609 -0.0937 -0.7662  0.3251
  587MOL0     C80872  11.057   2.967   2.615 -0.4552 -0.2191 -0.0984
  587MOL0     C80873  11.046   3.045   2.727 -0.3442  0.0357  0.1410
  587MOL0     C80874  11.046   3.182   2.722  0.0086 -0.5668  0.0442
  587MOL0     C80875  11.052   3.241   2.590 -0.2140  0.2634  0.1895
  587MOL0     O80876  11.063   3.380   2.569  0.3532  0.2370 -0.0029
  587MOL0     C80877  11.039   3.465   2.688 -0.1619  0.1141  0.0132
  587MOL0     C80878  11.022   3.616   2.653 -1.0706  0.8674 -0.4066
  587MOL0     C80879  10.923   3.651   2.542  0.1011 -0.1318  0.0242
  587MOL0     C80880  10.788   3.595   2.554  1.1745  0.0963 -0.3510
  587MOL0     C80881  10.707   3.645   2.435  0.6066 -0.1928  0.0126
  587MOL0     C80882  10.578   3.571   2.441 -0.6171 -0.2331  0.3037
  587MOL0     C80883  10.474   3.619   2.340  0.8560 -0.3667 -0.7322
  587MOL0     C80884  10.402   3.748   2.377 -0.0366  0.3173 -0.1928
  587MOL0     N80885  10.339   3.837   2.267 -0.2319  0.6012 -0.6072
  587MOL0     C80886  10.239   3.799   2.185  0.4623 -0.7996 -0.0545
  587MOL0     C80887  10.214   3.907   2.108  0.3035  0.3839 -0.7391
  587MOL0     C80888  10.091   3.906   2.020 -0.8659 -0.5536  0.6984
  587MOL0     C80889  10.012   4.040   2.006  0.7244 -0.3727  0.0159
  587MOL0     C80890  10.102   4.159   1.968 -0.0564 -0.7823 -0.5062
  587MOL0     C80891  10.032   4.256   1.866 -0.6017  0.1965  0.1026
  587MOL0     O80892   9.889   4.266   1.862  0.0979  0.5242  0.6736
  587MOL0     C80893   9.834   4.359   1.939  0.6798  0.2123  0.0020
  587MOL0     C80894   9.704   4.330   1.974  0.6433 -0.2338  0.0188
  587MOL0     C80895   9.619   4.414   2.053  0.2335 -0.6742  0.4798
  587MOL0     C80896   9.486   4.369   2.107  0.1116  1.2683 -0.0603
  587MOL0     C80897   9.682   4.531   2.099 -0.3837  0.0850  0.4830
  587MOL0     C80898   9.611   4.636   2.187 -0.7909  0.3188  0.9654
  587MOL0     O80899   9.691   4.724   2.243  0.2564  0.1010  0.2918
  587MOL0     C80900   9.628   4.810   2.334 -0.0177  0.1319 -0.0897
  587MOL0     C80901   9.622   4.775   2.468 -1.1182  0.8535  0.5611
  587MOL0     C80902   9.555   4.862   2.559 -0.0752  0.3010  0.2752
  587MOL0     C80903   9.504   4.988   2.513 -0.6484 -0.3247  0.3154
  587MOL0     O80904   9.433   5.068   2.599 -0.2265 -0.4711  0.1414
  587MOL0     C80905   9.400   5.035   2.732  0.3465  0.0398  0.4793
  587MOL0     C80906   9.510   5.084   2.829 -0.2653  0.8960 -0.6909
  587MOL0     C80907   9.488   5.067   2.981  0.1552  0.2080  0.3041
  587MOL0     C80908   9.475   4.919   3.019 -0.1378  0.7756  0.3998
  587MOL0     C80909   9.484   4.915   3.170  0.5843 -0.6208  0.4614
  587MOL0     C80910   9.445   4.780   3.234 -0.3808  0.1411  0.4375
  587MOL0     C80911   9.448   4.786   3.387 -0.0277  0.5901  0.0117
  587MOL0     C80912   9.407   4.656   3.458  0.7468 -0.5166  0.4020
  587MOL0    Cl80913   9.497   4.511   3.411 -0.6319 -0.2550  0.3882
  587MOL0     C80914   9.523   5.022   2.380  0.5513  0.6502  0.9217
  587MOL0     C80915   9.584   4.932   2.282  0.2720  0.0670 -0.5186
  587MOL0     O80916   9.485   4.629   2.205  0.0747  0.5468 -0.2013
  587MOL0     C80917   9.812   4.561   2.065 -0.9239 -0.1181  0.8232
  587MOL0     C80918   9.890   4.479   1.983  0.3511  0.5977 -0.6571
  587MOL0     N80919  10.304   4.012   2.145 -0.3765  0.3215 -1.0494
  587MOL0     N80920  10.371   3.968   2.253 -0.0235 -0.0150  0.1423
  587MOL0     C80921  11.087   3.160   2.480  0.0149  0.3670 -0.1217
  587MOL0     C80922  11.086   3.022   2.492  0.0636 -0.0654  0.0772
  587MOL0     C80923  10.981   2.615   2.635 -0.2618  0.0804 -0.6593
  587MOL0     C80924  11.061   2.577   2.519 -0.1047 -0.4296 -0.5880
  587MOL0     C80925  11.042   2.453   2.452  0.5640 -0.3653  0.1906
  587MOL0     C80926  10.957   2.353   2.501 -0.1484  0.2817  0.2010
  587MOL0     O80927  10.939   2.232   2.437 -0.1560 -0.4241 -0.2908
  587MOL0     C80928  11.053   2.147   2.397  0.4411  0.0672  0.0609
  587MOL0     C80929  11.095   2.082   2.529  0.1650  0.7199 -0.6255
  587MOL0     C80930  11.175   1.953   2.498 -0.5615  0.6436  0.0819
  587MOL0     C80931  11.202   1.882   2.630  0.3231  0.5283  0.9269
  587MOL0     C80932  11.086   1.824   2.695  0.2023 -0.8603  0.2398
  587MOL0     C80933  11.000   1.764   2.757 -0.6609  0.2214 -0.5090
  587MOL0     C80934  10.890   2.389   2.615  0.0512  0.7014 -0.6173
  587MOL0     C80935  10.897   2.514   2.683  0.2704  1.4361  0.2322
  587MOL0     C80936  10.805   2.521   2.801  1.1806 -0.0783  0.1263
  587MOL0     H80937  11.026   2.994   2.821 -1.2398  2.2259  1.2079
  587MOL0     H80938  11.054   3.250   2.806  4.3244  0.9416 -1.3328
  587MOL0     H80939  11.131   3.462   2.746  0.0982  2.1251 -0.2213
  587MOL0     H80940  10.957   3.422   2.747  0.4919  0.0334  0.8774
  587MOL0     H80941  11.000   3.670   2.746  2.1605  0.8468  0.4975
  587MOL0     H80942  11.121   3.655   2.629 -0.0705  0.2410  2.2667
  587MOL0     H80943  10.910   3.759   2.549  0.4027 -0.0554 -0.5566
  587MOL0     H80944  10.969   3.632   2.445  0.3994 -1.6055  0.4276
  587MOL0     H80945  10.793   3.486   2.548  0.0624 -0.0274  0.6863
  587MOL0     H80946  10.747   3.617   2.653 -3.0125 -0.5176 -1.7742
  587MOL0     H80947  10.743   3.616   2.336  1.2383 -1.8324  0.6882
  587MOL0     H80948  10.691   3.753   2.431 -4.1041 -0.6136  1.0364
  587MOL0     H80949  10.602   3.469   2.412  3.3011  0.9177 -1.1380
  587MOL0     H80950  10.526   3.580   2.537 -2.1640 -0.7677 -0.4483
  587MOL0     H80951  10.395   3.544   2.344  1.0692 -0.5907  3.3785
  587MOL0     H80952  10.520   3.634   2.242 -2.0018 -0.8000 -2.2492
  587MOL0     H80953  10.328   3.715   2.451 -1.5580 -1.1149 -2.2473
  587MOL0     H80954  10.475   3.809   2.430 -0.3067  1.0493 -0.6487
  587MOL0     H80955  10.174   3.714   2.201  3.1973 -3.1429 -0.4757
  587MOL0     H80956  10.024   3.827   2.054  1.5929 -1.8044  2.9936
  587MOL0     H80957  10.125   3.876   1.921  0.1757  0.5405  0.7039
  587MOL0     H80958   9.939   4.015   1.929 -0.2377 -2.5711  1.5342
  587MOL0     H80959   9.958   4.052   2.100  1.1623  0.9225  0.1329
  587MOL0     H80960  10.131   4.208   2.061 -0.8635  1.2599 -1.2768
  587MOL0     H80961  10.198   4.123   1.929 -0.7119 -0.3523 -2.6426
  587MOL0     H80962  10.081   4.353   1.875  1.7157 -0.9806  1.2654
  587MOL0     H80963  10.064   4.215   1.770 -0.1274 -0.9281  0.7154
  587MOL0     H80964   9.667   4.243   1.921 -0.7715  1.3463 -1.7475
  587MOL0     H80965   9.491   4.341   2.213  2.2664  0.7426 -0.2571
  587MOL0     H80966   9.457   4.279   2.053 -1.9144  3.2135 -2.4635
  587MOL0     H80967   9.406   4.437   2.076 -1.4067 -0.9201 -1.1693
  587MOL0     H80968   9.671   4.685   2.504  2.1756  2.2528 -0.1053
  587MOL0     H80969   9.551   4.848   2.666  1.5489 -0.8211  0.2340
  587MOL0     H80970   9.317   5.099   2.762 -0.1175 -0.9747  1.4575
  587MOL0     H80971   9.376   4.928   2.740  0.7095 -0.2798 -2.0616
  587MOL0     H80972   9.595   5.018   2.808 -0.5705  0.4482 -0.5471
  587MOL0     H80973   9.536   5.186   2.799 -2.3791  2.0975  1.2976
  587MOL0     H80974   9.403   5.125   3.019  0.2302  0.8624 -0.5083
  587MOL0     H80975   9.576   5.110   3.029  1.7033  0.3065 -2.4083
  587MOL0     H80976   9.555   4.861   2.972  2.8414  1.7852  3.7747
  587MOL0     H80977   9.376   4.892   2.982  0.4201 -1.6607  0.5076
  587MOL0     H80978   9.588   4.936   3.197  1.0772 -4.1708  1.9078
  587MOL0     H80979   9.416   4.986   3.218 -0.5073 -2.6561  2.0885
  587MOL0     H80980   9.516   4.710   3.191 -1.1192 -0.6391  0.4717
  587MOL0     H80981   9.343   4.748   3.211 -1.6977  2.6105  2.2551
  587MOL0     H80982   9.370   4.857   3.414 -1.1987 -0.1308 -1.3548
  587MOL0     H80983   9.553   4.805   3.411 -0.0234  2.1940 -1.1213
  587MOL0     H80984   9.302   4.636   3.438  0.3233  0.5017  1.4788
  587MOL0     H80985   9.413   4.674   3.566 -3.7258  0.5522  0.6618
  587MOL0     H80986   9.479   5.112   2.337 -0.7198 -0.8900 -1.2557
  587MOL0     H80987   9.592   4.960   2.177  0.7453  1.0049 -0.2401
  587MOL0     H80988   9.866   4.646   2.105 -0.4078 -0.5534  1.0606
  587MOL0     H80989   9.990   4.507   1.954  1.1895 -0.9026  0.6249
  587MOL0     H80990  11.123   3.208   2.390  2.0970 -0.4942  0.2040
  587MOL0     H80991  11.109   2.957   2.408  1.4719  0.8541 -0.2869
  587MOL0     H80992  11.142   2.643   2.488 -1.1887  2.0703  1.4441
  587MOL0     H80993  11.096   2.439   2.359  0.9906 -3.8036  0.8384
  587MOL0     H80994  11.009   2.062   2.345  0.1740  1.3238 -1.8400
  587MOL0     H80995  11.134   2.185   2.334  0.7298  1.6440  1.3281
  587MOL0     H80996  11.011   2.060   2.595 -0.0221  1.2729 -0.6681
  587MOL0     H80997  11.144   2.158   2.590 -2.7480  3.1000 -1.0119
  587MOL0     H80998  11.108   1.890   2.439 -1.7452  1.5075  0.4700
  587MOL0     H80999  11.262   1.963   2.432 -1.1596  1.7135 -0.5642
  587MOL0     H81000  11.238   1.956   2.702 -5.1639  2.5080  2.0732
  587MOL0     H81001  11.273   1.802   2.606  0.8318  1.0714  0.6031
  587MOL0     H81002  10.927   1.709   2.812 -0.2157 -0.8359 -0.9349
  587MOL0     H81003  10.831   2.306   2.653  0.0903 -1.3622 -4.5155
  587MOL0     H81004  10.864   2.545   2.890 -0.1175 -3.3219  2.0308
  587MOL0     H81005  10.722   2.591   2.787  1.0504 -0.2452  0.0641
  587MOL0     H81006  10.766   2.421   2.820 -0.0812  0.8534  2.9629
  588MOL0     O81007  10.546   1.826   4.392 -0.1623  0.1321 -1.3235
  588MOL0     C81008  10.535   1.807   4.273 -0.1129 -0.6041  0.0286
  588MOL0     O81009  10.633   1.747   4.194  0.4451 -0.5534  0.4013
  588MOL0     C81010  10.751   1.705   4.255  1.2409 -0.3969  0.1209
  588MOL0     C81011  10.751   1.626   4.371  0.2930 -0.1619 -0.3942
  588MOL0     C81012  10.863   1.565   4.412 -1.4466  0.3115  0.1116
  588MOL0     C81013  10.994   1.597   4.349  0.2322  0.1220  0.3140
  588MOL0     O81014  11.106   1.543   4.402  0.4980 -0.0030 -0.1079
  588MOL0     C81015  11.209   1.517   4.300  0.3348  0.2613 -0.5426
  588MOL0     C81016  11.307   1.412   4.348 -0.4009 -0.1271 -0.5392
  588MOL0     C81017  11.284   1.277   4.286  0.1184  0.6782  0.5584
  588MOL0     C81018  11.374   1.165   4.332  0.1520  0.1220 -1.2071
  588MOL0     C81019  11.334   1.024   4.297  0.7517 -0.1590 -0.0045
  588MOL0     C81020  11.382   0.989   4.151  0.3311  1.0915  0.3741
  588MOL0     C81021  11.539   0.969   4.143  0.8941  0.7865  0.8892
  588MOL0     C81022  11.590   0.872   4.039 -0.2234 -0.2570  0.3659
  588MOL0     N81023  11.541   0.917   3.915 -0.5299 -0.4389 -0.2777
  588MOL0     C81024  11.416   0.888   3.853 -0.7686  1.1808  0.3310
  588MOL0     C81025  11.429   0.933   3.730  0.8213 -0.1145  0.1841
  588MOL0     C81026  11.343   0.922   3.624 -0.4700  0.9323  0.8803
  588MOL0     C81027  11.378   0.800   3.543  0.8359 -0.3911 -0.5662
  588MOL0     C81028  11.277   0.785   3.434  0.7987  0.7199  0.3096
  588MOL0     C81029  11.254   0.629   3.400  0.7141 -0.0512 -1.0277
  588MOL0     O81030  11.370   0.551   3.404  0.4259  0.4709  0.2412
  588MOL0     C81031  11.462   0.564   3.309  0.0450  0.0471 -0.0930
  588MOL0     C81032  11.444   0.611   3.174  0.3782 -0.2711 -0.7511
  588MOL0     C81033  11.554   0.607   3.087 -0.6951 -0.5841 -0.1431
  588MOL0     C81034  11.529   0.679   2.953 -0.3346  0.2793  0.2826
  588MOL0     C81035  11.674   0.555   3.133  0.0374  0.0092  0.8122
  588MOL0     C81036  11.789   0.527   3.047 -0.9089  0.2442  0.1188
  588MOL0     O81037  11.915   0.533   3.094  0.0638  0.0656  0.1714
  588MOL0     C81038  12.015   0.467   3.020  0.2766 -0.1590 -0.1210
  588MOL0     C81039  12.031   0.327   3.027  0.0082  0.1772  0.0974
  588MOL0     C81040  12.131   0.252   2.954  0.4293  0.6096  0.6623
  588MOL0     C81041  12.227   0.332   2.891 -0.1145 -0.8001 -0.3447
  588MOL0     O81042  12.346   0.281   2.860 -0.7039  0.2323 -0.6993
  588MOL0     C81043  12.348   0.170   2.763  0.3441  0.3533 -0.0165
  588MOL0     C81044  12.452   0.217   2.668 -0.2657 -0.1731  0.7519
  588MOL0     C81045  12.479   0.122   2.545 -0.5985 -0.0973  0.0178
  588MOL0     C81046  12.493  -0.025   2.563  0.1124 -0.3424  0.5820
  588MOL0     C81047  12.546  -0.089   2.437 -0.4367 -0.5948 -0.5262
  588MOL0     C81048  12.587  -0.235   2.458 -0.5996  0.3241 -0.2797
  588MOL0     C81049  12.667  -0.283   2.335  1.1394 -0.3026 -0.6217
  588MOL0     C81050  12.568  -0.298   2.223 -0.7007 -0.4591 -0.1071
  588MOL0    Cl81051  12.675  -0.354   2.088 -0.2484 -0.2719 -0.3283
  588MOL0     C81052  12.221   0.475   2.889  0.3119 -0.3434 -0.5765
  588MOL0     C81053  12.112   0.540   2.950  0.6761 -0.2673 -0.9189
  588MOL0     O81054  11.755   0.475   2.936  0.9140  0.5594 -0.4105
  588MOL0     C81055  11.698   0.526   3.268 -0.2543  0.2153  0.0944
  588MOL0     C81056  11.587   0.522   3.350 -0.1247 -0.4642  1.0973
  588MOL0     N81057  11.546   1.001   3.723 -0.1461  0.4662 -0.0494
  588MOL0     N81058  11.616   0.994   3.819  0.0816  0.7019 -0.6165
  588MOL0     C81059  10.993   1.683   4.229 -0.0536  0.5538 -0.0837
  588MOL0     C81060  10.869   1.732   4.184 -1.1153  0.3410  0.1572
  588MOL0     C81061  10.410   1.851   4.212 -0.0318 -0.5683  0.6220
  588MOL0     C81062  10.406   1.821   4.073 -0.2740 -0.2216 -0.6196
  588MOL0     C81063  10.297   1.872   4.002  0.2579 -0.5957 -0.5339
  588MOL0     C81064  10.191   1.938   4.055  0.1740 -0.1758  0.2069
  588MOL0     O81065  10.090   1.983   3.979 -0.4954  0.8874 -0.3728
  588MOL0     C81066  10.106   2.022   3.841 -0.6147 -0.4539  0.2890
  588MOL0     C81067   9.990   2.125   3.815 -0.8495  0.2102  0.0673
  588MOL0     C81068   9.980   2.171   3.666  0.6553  0.1850  0.2460
  588MOL0     C81069   9.868   2.278   3.661 -0.2123 -0.1612  0.3943
  588MOL0     C81070   9.768   2.244   3.560 -0.4747 -0.3819 -0.1831
  588MOL0     C81071   9.687   2.223   3.479 -0.4982 -0.2629  0.2614
  588MOL0     C81072  10.194   1.964   4.191 -0.2672 -0.1201  0.3778
  588MOL0     C81073  10.302   1.919   4.275 -0.0306 -0.2040 -0.6452
  588MOL0     C81074  10.288   1.943   4.422 -0.1477  0.1097  0.5884
  588MOL0     H81075  10.648   1.601   4.396  0.1774  0.2182 -0.4718
  588MOL0     H81076  10.873   1.501   4.499  3.2898 -2.0269 -1.7982
  588MOL0     H81077  11.255   1.614   4.281  0.2546  0.6549  1.1821
  588MOL0     H81078  11.171   1.489   4.201 -1.4096 -0.1705  0.1989
  588MOL0     H81079  11.413   1.441   4.345  1.0131 -4.1343  1.5899
  588MOL0     H81080  11.286   1.391   4.454  2.3797  1.6470  0.4808
  588MOL0     H81081  11.190   1.236   4.324  1.0181 -0.9767  1.0763
  588MOL0     H81082  11.285   1.284   4.177  3.6174  2.6111  0.5895
  588MOL0     H81083  11.474   1.191   4.296  0.7206  2.5854  1.7372
  588MOL0     H81084  11.385   1.171   4.441  1.4951 -0.7932 -1.2593
  588MOL0     H81085  11.226   1.010   4.294  0.9464 -2.0236  0.3413
  588MOL0     H81086  11.376   0.947   4.363  1.3540 -1.2403 -1.5922
  588MOL0     H81087  11.347   0.893   4.110  4.6551 -0.8054  0.5956
  588MOL0     H81088  11.356   1.066   4.078  0.7709  0.8345 -0.0664
  588MOL0     H81089  11.582   0.950   4.242  1.4356  0.3705  0.5825
  588MOL0     H81090  11.581   1.065   4.114  1.1651  0.3229 -0.2918
  588MOL0     H81091  11.698   0.874   4.051 -0.4329  1.6056  2.6320
  588MOL0     H81092  11.552   0.769   4.042  1.3914 -1.2161 -4.1821
  588MOL0     H81093  11.336   0.834   3.902  2.0201 -1.8705  1.9804
  588MOL0     H81094  11.341   1.014   3.564  0.9459 -0.7597 -2.0230
  588MOL0     H81095  11.249   0.903   3.676  0.4813 -3.6696  1.3438
  588MOL0     H81096  11.476   0.812   3.497  1.3287 -0.1657  0.5191
  588MOL0     H81097  11.371   0.714   3.611 -0.7054 -0.0515 -0.2544
  588MOL0     H81098  11.172   0.806   3.456  0.3086 -0.4163 -0.8218
  588MOL0     H81099  11.312   0.835   3.344 -0.8336 -0.5143 -1.0623
  588MOL0     H81100  11.192   0.571   3.468  3.3622 -0.7498  0.9659
  588MOL0     H81101  11.195   0.615   3.309  0.4875 -1.3684 -0.6992
  588MOL0     H81102  11.344   0.637   3.140  0.4181 -0.5520 -1.0802
  588MOL0     H81103  11.615   0.734   2.912 -0.1977 -0.3868 -0.3406
  588MOL0     H81104  11.446   0.750   2.951  0.5206  1.3235  0.6437
  588MOL0     H81105  11.486   0.603   2.888  0.6547 -0.3564  0.3570
  588MOL0     H81106  11.965   0.271   3.094  0.3584  0.2461  0.5038
  588MOL0     H81107  12.141   0.144   2.954  0.0894  0.5633  1.5670
  588MOL0     H81108  12.385   0.080   2.811  3.0259  1.6438  0.4941
  588MOL0     H81109  12.254   0.154   2.707 -0.2201 -2.4310  1.5497
  588MOL0     H81110  12.434   0.318   2.629 -0.3177 -0.3324  0.3616
  588MOL0     H81111  12.543   0.223   2.729  0.8848 -1.0956 -0.7917
  588MOL0     H81112  12.567   0.158   2.491 -1.9916 -1.3271 -3.3408
  588MOL0     H81113  12.402   0.140   2.469  0.7933  1.3799 -1.1159
  588MOL0     H81114  12.399  -0.073   2.592 -0.0383  0.3755  1.3083
  588MOL0     H81115  12.571  -0.032   2.640 -1.2187 -2.2979  1.8557
  588MOL0     H81116  12.472  -0.072   2.359 -1.1940  0.4633  0.3835
  588MOL0     H81117  12.638  -0.033   2.416  0.7684 -2.8181 -1.4733
  588MOL0     H81118  12.491  -0.285   2.474  0.5979 -2.3984 -0.9747
  588MOL0     H81119  12.652  -0.259   2.543  2.8657 -2.1023 -3.2805
  588MOL0     H81120  12.723  -0.376   2.348  0.2723 -0.6467  0.8771
  588MOL0     H81121  12.748  -0.211   2.317 -1.7781  2.3626 -5.0259
  588MOL0     H81122  12.515  -0.207   2.191 -0.4355 -0.2036  0.1655
  588MOL0     H81123  12.498  -0.378   2.246 -1.6531  1.0473  2.7108
  588MOL0     H81124  12.305   0.525   2.842 -0.6768 -0.3553 -2.4387
  588MOL0     H81125  12.100   0.645   2.929 -2.1191 -0.4900 -0.7614
  588MOL0     H81126  11.795   0.481   3.285 -0.9348 -1.0947  0.6298
  588MOL0     H81127  11.603   0.494   3.454 -1.8359 -3.9371  0.5353
  588MOL0     H81128  11.079   1.722   4.175  0.2438 -0.5545 -0.4444
  588MOL0     H81129  10.865   1.805   4.103 -0.4867 -0.1437 -0.3150
  588MOL0     H81130  10.484   1.764   4.024  0.6452  1.2544 -0.9371
  588MOL0     H81131  10.292   1.849   3.896 -1.2657 -0.1967 -0.5700
  588MOL0     H81132  10.200   2.077   3.835  0.2953 -1.9878 -0.2300
  588MOL0     H81133  10.102   1.930   3.781 -3.5063  1.2342 -2.4491
  588MOL0     H81134   9.977   2.200   3.894 -3.8662  2.1345 -2.0220
  588MOL0     H81135   9.898   2.069   3.834 -1.1334  0.4379 -0.5836
  588MOL0     H81136  10.070   2.219   3.625  1.9398 -1.5002  0.9570
  588MOL0     H81137   9.959   2.091   3.594 -1.5504  0.2981  0.7124
  588MOL0     H81138   9.916   2.373   3.635  1.0739 -1.3247 -1.8503
  588MOL0     H81139   9.811   2.277   3.754  1.1632 -1.1419  1.2634
  588MOL0     H81140   9.613   2.204   3.405 -2.0586  0.4566  1.5822
  588MOL0     H81141  10.099   2.004   4.226 -0.2069  0.5189 -0.1619
  588MOL0     H81142  10.367   2.001   4.471  0.1425 -2.6113  3.6831
  588MOL0     H81143  10.195   1.993   4.450  0.3979  2.0653 -0.9382
  588MOL0     H81144  10.291   1.844   4.469  0.1679 -0.0240  0.2824
  589MOL0     O81145   6.713   1.288   0.158  0.1076  0.3667 -0.0318
  589MOL0     C81146   6.623   1.227   0.105 -0.1877 -0.5857 -0.0622
  589MOL0     O81147   6.611   1.092   0.099  0.0577  0.6501  0.5478
  589MOL0     C81148   6.639   1.018   0.215 -0.1050 -0.4078 -0.8940
  589MOL0     C81149   6.687   0.895   0.209 -0.0827 -0.8503  0.0383
  589MOL0     C81150   6.694   0.810   0.318  0.0050 -0.1167 -0.5765
  589MOL0     C81151   6.658   0.863   0.446 -0.4990 -0.3951  1.3384
  589MOL0     O81152   6.680   0.776   0.549  0.2245  0.0345 -0.0131
  589MOL0     C81153   6.685   0.830   0.685 -0.3992  0.4844  0.0726
  589MOL0     C81154   6.818   0.900   0.719  0.8183  0.6359  0.8775
  589MOL0     C81155   6.832   0.938   0.863 -0.5329  0.4816 -0.1890
  589MOL0     C81156   6.762   1.072   0.899  0.7607 -0.5613  1.3884
  589MOL0     C81157   6.773   1.119   1.043  0.1588 -0.0074  0.1993
  589MOL0     C81158   6.915   1.156   1.092 -0.2767  1.4444  0.3869
  589MOL0     C81159   6.907   1.243   1.218  0.1873 -0.1659  0.5963
  589MOL0     C81160   6.860   1.384   1.195 -0.6128 -0.1423 -0.2707
  589MOL0     N81161   6.903   1.487   1.294  0.6258  0.1449 -0.3470
  589MOL0     C81162   7.019   1.566   1.287  0.0148 -0.7426  0.0202
  589MOL0     C81163   7.040   1.612   1.410  0.1213 -0.0435  0.5469
  589MOL0     C81164   7.173   1.682   1.445 -0.3489  0.4610  0.5652
  589MOL0     C81165   7.202   1.730   1.593  0.4973 -0.3479 -0.6379
  589MOL0     C81166   7.293   1.629   1.664 -0.8730 -0.0157 -0.6162
  589MOL0     C81167   7.231   1.487   1.673 -0.2737 -0.4899 -0.0792
  589MOL0     O81168   7.329   1.392   1.705 -0.0746  0.1283  0.7033
  589MOL0     C81169   7.289   1.259   1.717 -0.8889 -0.6321  0.0056
  589MOL0     C81170   7.389   1.169   1.745  0.1786  0.2883  0.3941
  589MOL0     C81171   7.369   1.036   1.757 -0.8600  0.4684 -0.8567
  589MOL0     C81172   7.500   0.949   1.760  0.0332  0.2364  0.5017
  589MOL0     C81173   7.235   0.986   1.762  0.6286 -0.5771  0.3425
  589MOL0     C81174   7.207   0.840   1.778  0.2032 -0.6757  0.2378
  589MOL0     O81175   7.076   0.820   1.788  0.0628 -0.0248  0.5692
  589MOL0     C81176   7.021   0.696   1.764 -0.1891 -0.1339 -0.7205
  589MOL0     C81177   6.915   0.659   1.843 -0.1110  0.1370 -0.3588
  589MOL0     C81178   6.844   0.543   1.815  0.4133  0.6096 -0.0290
  589MOL0     C81179   6.884   0.459   1.706  0.1774  0.6293 -0.0735
  589MOL0     O81180   6.811   0.346   1.675 -0.5196 -0.0229  0.1268
  589MOL0     C81181   6.880   0.237   1.622  0.5610  0.2008 -0.1059
  589MOL0     C81182   6.797   0.116   1.624 -0.8001  0.8175  0.1302
  589MOL0     C81183   6.875  -0.001   1.565  0.2416 -0.1187 -0.1927
  589MOL0     C81184   7.006  -0.031   1.651  0.6167 -0.2384  0.2434
  589MOL0     C81185   7.061  -0.167   1.602 -0.2170  0.2741  0.0332
  589MOL0     C81186   7.211  -0.190   1.629  0.9125  0.4120  0.1239
  589MOL0     C81187   7.251  -0.334   1.588  0.6698 -0.6496  0.5624
  589MOL0     C81188   7.183  -0.453   1.655 -0.3992  0.5331 -0.1501
  589MOL0    Cl81189   7.283  -0.594   1.611  0.0081 -0.4557 -0.3794
  589MOL0     C81190   6.994   0.499   1.632  0.3937  0.3982  0.1973
  589MOL0     C81191   7.061   0.617   1.656 -0.1972  1.1732 -0.1007
  589MOL0     O81192   7.289   0.744   1.809 -0.2006 -0.4692  0.8447
  589MOL0     C81193   7.128   1.081   1.750  0.5019  0.4744 -0.7935
  589MOL0     C81194   7.155   1.212   1.729 -0.1628 -0.4078 -0.3454
  589MOL0     N81195   6.946   1.570   1.492 -0.6762  0.3578  0.1575
  589MOL0     N81196   6.860   1.497   1.423 -0.0792 -0.6752  0.8943
  589MOL0     C81197   6.632   0.997   0.463 -0.0550 -0.0675  0.3655
  589MOL0     C81198   6.624   1.075   0.351  0.0655  0.2801  0.0342
  589MOL0     C81199   6.522   1.311   0.043 -0.0736 -0.3607  0.1146
  589MOL0     C81200   6.538   1.452   0.042  0.0734 -0.1834  0.1011
  589MOL0     C81201   6.439   1.535   0.003 -0.4077 -0.3078 -0.8111
  589MOL0     C81202   6.312   1.487  -0.032 -0.7147  0.3482  1.3482
  589MOL0     O81203   6.228   1.580  -0.080 -0.5342 -1.0672  0.4540
  589MOL0     C81204   6.089   1.541  -0.094 -0.0802 -0.0176  0.0796
  589MOL0     C81205   5.988   1.662  -0.091 -0.0515 -0.4181  0.1664
  589MOL0     C81206   5.972   1.723   0.053  0.2652  0.0250  0.1257
  589MOL0     C81207   5.890   1.857   0.041 -0.4403  0.5878 -0.9131
  589MOL0     C81208   5.958   1.979  -0.011 -0.3725 -0.2515 -0.4996
  589MOL0     C81209   6.020   2.083  -0.047  0.4322 -1.1972  0.2861
  589MOL0     C81210   6.289   1.347  -0.038  0.1894  0.2964  0.0481
  589MOL0     C81211   6.398   1.258  -0.006 -0.4697  0.1823  0.0602
  589MOL0     C81212   6.373   1.105  -0.038  0.9694 -1.0784  0.2778
  589MOL0     H81213   6.721   0.860   0.112  0.1345 -0.4686 -0.0280
  589MOL0     H81214   6.722   0.709   0.292  3.4468  1.3314 -3.3285
  589MOL0     H81215   6.680   0.740   0.747 -1.9883 -0.2156 -0.9974
  589MOL0     H81216   6.593   0.883   0.710 -0.0556  1.3791 -0.5321
  589MOL0     H81217   6.902   0.842   0.680 -2.1618 -3.8293  0.4598
  589MOL0     H81218   6.817   0.994   0.662  0.9885  0.4563  0.5783
  589MOL0     H81219   6.800   0.857   0.929 -0.3713 -0.4586 -1.2518
  589MOL0     H81220   6.939   0.951   0.885 -1.0646  3.5519  1.2619
  589MOL0     H81221   6.805   1.153   0.838 -0.5732  1.4944  3.0312
  589MOL0     H81222   6.657   1.056   0.872  1.0731  0.8535 -0.9193
  589MOL0     H81223   6.743   1.054   1.125 -1.1343  2.3279  1.6984
  589MOL0     H81224   6.710   1.208   1.055  0.3513 -0.1094  2.3316
  589MOL0     H81225   6.963   1.062   1.123  0.0851  1.0141 -1.3756
  589MOL0     H81226   6.969   1.203   1.009 -2.6543  0.3441 -1.9067
  589MOL0     H81227   7.014   1.250   1.241  1.2160 -0.2175 -3.4537
  589MOL0     H81228   6.867   1.197   1.310 -0.3973 -0.5045  0.1812
  589MOL0     H81229   6.886   1.416   1.094 -0.3017 -0.2752 -0.2347
  589MOL0     H81230   6.751   1.383   1.203 -0.6461  2.1617  0.3599
  589MOL0     H81231   7.087   1.587   1.205 -1.7064 -1.6632 -1.7232
  589MOL0     H81232   7.175   1.762   1.371 -4.4461 -1.8505 -2.5014
  589MOL0     H81233   7.245   1.609   1.408  2.3471  2.6024  1.2590
  589MOL0     H81234   7.239   1.833   1.587 -0.4255  0.0988  0.7519
  589MOL0     H81235   7.103   1.730   1.639  0.8650 -2.4754  0.2917
  589MOL0     H81236   7.393   1.628   1.620 -0.5307  1.8094  0.0234
  589MOL0     H81237   7.325   1.650   1.767 -1.1827 -0.9055 -0.3303
  589MOL0     H81238   7.153   1.496   1.749 -1.2606  0.7166 -1.1837
  589MOL0     H81239   7.182   1.452   1.582 -0.6399 -1.3186  0.4181
  589MOL0     H81240   7.489   1.211   1.747  0.2026  0.1847  2.2075
  589MOL0     H81241   7.504   0.859   1.822  2.1117  0.7220  1.1840
  589MOL0     H81242   7.586   1.008   1.794  0.0967  2.3012 -2.8483
  589MOL0     H81243   7.520   0.924   1.656  1.2467 -0.8309  0.9566
  589MOL0     H81244   6.876   0.733   1.912  0.5519  3.2134 -2.9959
  589MOL0     H81245   6.756   0.498   1.859  1.6862 -2.7360 -0.5483
  589MOL0     H81246   6.899   0.266   1.518  0.5264  2.8116  0.5601
  589MOL0     H81247   6.976   0.227   1.673  3.1307 -1.0737 -4.6243
  589MOL0     H81248   6.774   0.083   1.726  2.3075 -0.3997  0.5281
  589MOL0     H81249   6.702   0.138   1.573  0.4947  3.4824 -1.3045
  589MOL0     H81250   6.903   0.028   1.463 -1.1037 -0.0329 -0.5490
  589MOL0     H81251   6.817  -0.094   1.563  1.0351 -0.8302  3.1626
  589MOL0     H81252   6.984  -0.037   1.757  2.4370 -2.6596  0.5784
  589MOL0     H81253   7.078   0.050   1.632 -1.1541  1.4518  0.5105
  589MOL0     H81254   7.002  -0.246   1.649 -0.4056 -0.6057 -1.5945
  589MOL0     H81255   7.065  -0.180   1.493  2.1646 -3.0117  0.3735
  589MOL0     H81256   7.230  -0.175   1.735 -2.1253 -0.4234  0.8970
  589MOL0     H81257   7.274  -0.122   1.571  2.6690 -1.0925  0.1762
  589MOL0     H81258   7.359  -0.338   1.609  0.0746 -2.0003  4.1208
  589MOL0     H81259   7.228  -0.338   1.482  4.0201  0.6449 -0.3361
  589MOL0     H81260   7.078  -0.453   1.626 -0.0583  2.5773 -1.6654
  589MOL0     H81261   7.197  -0.439   1.762  0.8805 -0.4729 -0.1643
  589MOL0     H81262   7.042   0.431   1.563  0.5060  1.0914 -0.4220
  589MOL0     H81263   7.155   0.637   1.605 -0.6059  1.5822 -0.7045
  589MOL0     H81264   7.025   1.046   1.761  1.4366 -1.6955  2.6602
  589MOL0     H81265   7.067   1.274   1.720 -1.6183 -2.2531  0.5681
  589MOL0     H81266   6.611   1.040   0.561 -1.1335  3.6165 -1.3468
  589MOL0     H81267   6.597   1.180   0.358 -1.6098  0.2760 -3.6923
  589MOL0     H81268   6.632   1.497   0.073  0.2208 -0.2485 -0.2472
  589MOL0     H81269   6.443   1.644  -0.001 -0.1064 -0.3167 -0.7536
  589MOL0     H81270   6.083   1.486  -0.189 -0.3704  0.4412 -0.1697
  589MOL0     H81271   6.049   1.476  -0.016 -1.0907  1.2960  0.6777
  589MOL0     H81272   5.896   1.610  -0.121  0.3645 -0.4114 -1.1832
  589MOL0     H81273   6.011   1.729  -0.174  1.3595 -0.9818  0.0824
  589MOL0     H81274   5.910   1.663   0.120  1.1516  1.3130  2.1590
  589MOL0     H81275   6.070   1.735   0.101 -0.7652 -1.8081  2.9318
  589MOL0     H81276   5.852   1.881   0.140 -4.0774 -4.2848 -0.7472
  589MOL0     H81277   5.808   1.842  -0.029  2.4210 -2.1095 -4.0897
  589MOL0     H81278   6.076   2.166  -0.087  4.1928 -2.9193  1.5166
  589MOL0     H81279   6.196   1.306  -0.077  0.4449 -2.8383  2.2706
  589MOL0     H81280   6.446   1.069  -0.111  0.0719 -2.2600 -0.0722
  589MOL0     H81281   6.377   1.038   0.048 -1.0875 -2.8327 -0.8884
  589MOL0     H81282   6.272   1.091  -0.079  1.6729 -3.3937 -0.8093
  590MOL0     O81283   2.628   9.628   4.429  0.0091 -0.3211 -0.0202
  590MOL0     C81284   2.686   9.722   4.479 -0.1894 -0.2755  0.6318
  590MOL0     O81285   2.663   9.772   4.607 -0.2662  0.0962  0.4328
  590MOL0     C81286   2.536   9.742   4.661 -1.1097 -0.1707 -0.2080
  590MOL0     C81287   2.520   9.674   4.779 -0.9005  0.1463 -0.2293
  590MOL0     C81288   2.387   9.654   4.822  0.8852  0.0140 -0.6183
  590MOL0     C81289   2.273   9.694   4.750 -0.1404 -0.0356 -0.8859
  590MOL0     O81290   2.150   9.646   4.782 -0.2838  0.1295  0.0742
  590MOL0     C81291   2.100   9.696   4.906 -0.9742  0.3696  0.1331
  590MOL0     C81292   1.963   9.635   4.928  0.1811  0.3962 -0.4891
  590MOL0     C81293   1.904   9.650   5.070  0.4358  0.2112  0.5524
  590MOL0     C81294   1.751   9.612   5.082 -0.9559 -0.4259  0.3924
  590MOL0     C81295   1.707   9.572   5.221  0.6735  0.2551 -0.4439
  590MOL0     C81296   1.562   9.528   5.216 -0.4422  0.6068  0.5934
  590MOL0     C81297   1.502   9.461   5.336  0.2078  0.1173 -0.9961
  590MOL0     C81298   1.346   9.476   5.356  0.2259  0.4230 -0.7105
  590MOL0     N81299   1.270   9.382   5.269 -0.0744 -0.2338  0.2815
  590MOL0     C81300   1.280   9.245   5.248  0.1717  0.4703  1.4929
  590MOL0     C81301   1.193   9.218   5.146 -0.5077 -0.1570  0.2332
  590MOL0     C81302   1.168   9.083   5.091 -0.1514  0.3984  0.8149
  590MOL0     C81303   1.156   9.068   4.928 -0.1572 -0.1466 -0.8174
  590MOL0     C81304   1.290   9.101   4.855 -0.2613 -0.9708  1.2882
  590MOL0     C81305   1.336   9.253   4.863  0.4806 -0.1819 -0.1007
  590MOL0     O81306   1.426   9.276   4.751  0.8220  0.1162 -0.2586
  590MOL0     C81307   1.481   9.407   4.743 -0.0191  1.0117  0.8874
  590MOL0     C81308   1.427   9.518   4.804  0.3712  0.0567  0.2298
  590MOL0     C81309   1.487   9.644   4.795 -0.1026 -0.7567 -0.4344
  590MOL0     C81310   1.421   9.760   4.863  0.3413  0.5512  0.5097
  590MOL0     C81311   1.601   9.663   4.721 -0.7097  0.3116 -0.6323
  590MOL0     C81312   1.694   9.785   4.726  0.1246 -0.5681  0.1704
  590MOL0     O81313   1.812   9.779   4.660  0.0987  0.0575  0.2895
  590MOL0     C81314   1.879   9.889   4.630 -0.9049  0.0823  0.5971
  590MOL0     C81315   1.911   9.998   4.714 -1.1239 -0.7744 -0.3054
  590MOL0     C81316   1.997  10.101   4.663 -0.1915  0.2670 -0.7048
  590MOL0     C81317   2.051  10.104   4.535 -0.3581  0.2190  0.1573
  590MOL0     O81318   2.136  10.202   4.500 -0.0596  0.0220 -0.0782
  590MOL0     C81319   2.225  10.170   4.392 -0.0447 -0.8977 -0.3837
  590MOL0     C81320   2.339  10.264   4.427 -0.2143 -0.0399  0.5452
  590MOL0     C81321   2.434  10.208   4.534 -0.3766  0.6312 -0.7587
  590MOL0     C81322   2.560  10.296   4.538  0.5677  0.3044 -0.4071
  590MOL0     C81323   2.670  10.222   4.605  0.1982  0.2170 -0.0285
  590MOL0     C81324   2.798  10.303   4.625 -0.2021 -0.2088 -0.0157
  590MOL0     C81325   2.918  10.220   4.629  0.3895  1.4665 -0.7105
  590MOL0     C81326   3.039  10.306   4.658  0.3292  0.7547 -0.0464
  590MOL0    Cl81327   3.023  10.424   4.788  0.3508  0.4683 -0.0950
  590MOL0     C81328   2.010  10.000   4.450  0.1376  0.6331  0.4783
  590MOL0     C81329   1.929   9.895   4.495  0.6764  0.1512  0.7836
  590MOL0     O81330   1.651   9.896   4.777  0.5287  0.2474  1.0939
  590MOL0     C81331   1.659   9.549   4.650  0.4418 -0.1848  0.8818
  590MOL0     C81332   1.594   9.421   4.657  0.5007  0.7739 -0.5642
  590MOL0     N81333   1.135   9.340   5.108 -0.2965  0.6517 -0.3285
  590MOL0     N81334   1.181   9.436   5.180 -0.2089 -0.0713 -0.7125
  590MOL0     C81335   2.296   9.768   4.637  0.4523 -0.9586 -0.0420
  590MOL0     C81336   2.422   9.787   4.584  0.3188  0.0475  0.0518
  590MOL0     C81337   2.792   9.795   4.399 -0.1228 -0.2424 -0.3586
  590MOL0     C81338   2.770   9.820   4.265  0.1216 -0.1376 -0.1963
  590MOL0     C81339   2.848   9.921   4.186  0.6457  0.5876  0.5251
  590MOL0     C81340   2.950   9.995   4.256 -0.6587  0.0049  0.2296
  590MOL0     O81341   3.016  10.103   4.205 -0.2196 -0.1028 -0.0408
  590MOL0     C81342   3.135  10.059   4.138 -0.1465  0.4527  0.7797
  590MOL0     C81343   3.125  10.075   3.987 -0.3389 -0.8640  0.0172
  590MOL0     C81344   3.128  10.217   3.934  0.8831  0.2643  0.0709
  590MOL0     C81345   2.985  10.281   3.932 -0.2986  0.1358  0.0860
  590MOL0     C81346   2.944  10.347   3.801  1.5548  0.7136 -0.8023
  590MOL0     C81347   2.903  10.391   3.694 -0.3375  0.3619 -0.2077
  590MOL0     C81348   2.993   9.952   4.385 -0.3632 -0.6255  0.1861
  590MOL0     C81349   2.917   9.850   4.452  0.3559  1.3656  0.5547
  590MOL0     C81350   2.966   9.806   4.594 -0.1760 -0.3217  0.6839
  590MOL0     H81351   2.597   9.635   4.845  1.3001  3.1234 -0.8451
  590MOL0     H81352   2.370   9.596   4.913  1.5274 -0.6591 -0.9205
  590MOL0     H81353   2.101   9.804   4.916  0.2843  0.5178 -1.1551
  590MOL0     H81354   2.157   9.651   4.988  0.1788 -0.5979 -1.1441
  590MOL0     H81355   1.894   9.674   4.853 -0.6729 -0.3734 -0.1207
  590MOL0     H81356   1.967   9.529   4.900 -1.2398  0.1878  0.0034
  590MOL0     H81357   1.955   9.591   5.147 -0.1425  2.7283  3.0306
  590MOL0     H81358   1.919   9.754   5.100 -0.9268  1.1726 -1.7997
  590MOL0     H81359   1.699   9.704   5.053  2.8797  1.3999 -1.3305
  590MOL0     H81360   1.739   9.526   5.016 -0.0504 -0.3627  0.1390
  590MOL0     H81361   1.706   9.661   5.285  1.2111 -0.2065  0.2222
  590MOL0     H81362   1.780   9.504   5.266  1.9988  1.9854  0.1145
  590MOL0     H81363   1.506   9.620   5.193 -0.3981  0.8519  1.4361
  590MOL0     H81364   1.554   9.467   5.126  1.0370 -0.8203  1.3801
  590MOL0     H81365   1.551   9.496   5.428 -1.2842  0.5385 -0.3425
  590MOL0     H81366   1.536   9.357   5.323  1.8671  0.5587 -0.4418
  590MOL0     H81367   1.320   9.440   5.456 -1.6373 -0.6188 -1.5096
  590MOL0     H81368   1.322   9.582   5.343  0.2749  0.3013 -1.9736
  590MOL0     H81369   1.341   9.177   5.306 -1.9569  1.0964  4.7105
  590MOL0     H81370   1.068   9.059   5.126 -1.5406 -0.2025 -3.0863
  590MOL0     H81371   1.244   9.016   5.133  0.9523  0.8762 -0.3371
  590MOL0     H81372   1.113   8.971   4.904 -0.9539 -0.5203  1.7821
  590MOL0     H81373   1.076   9.134   4.891 -0.6539 -0.7534 -0.8335
  590MOL0     H81374   1.372   9.040   4.895  0.5513 -2.0690 -1.7991
  590MOL0     H81375   1.275   9.071   4.751 -0.0466  0.3702  0.8496
  590MOL0     H81376   1.244   9.312   4.853 -0.2507 -1.1434  0.7311
  590MOL0     H81377   1.389   9.283   4.954  0.0862  4.4715 -1.1587
  590MOL0     H81378   1.330   9.523   4.854 -0.1936 -0.0978 -0.8268
  590MOL0     H81379   1.380   9.821   4.782 -1.9811  1.4245  2.2150
  590MOL0     H81380   1.498   9.812   4.922  0.1695  0.5956  0.6973
  590MOL0     H81381   1.346   9.720   4.933  0.8403 -2.4535 -0.5352
  590MOL0     H81382   1.876  10.011   4.816 -1.8779  4.3775 -0.9797
  590MOL0     H81383   2.019  10.171   4.744  1.8082 -0.4312 -0.5993
  590MOL0     H81384   2.263  10.068   4.394  0.1214 -0.9107  3.8541
  590MOL0     H81385   2.186  10.208   4.297 -1.3301  2.0058  1.1836
  590MOL0     H81386   2.402  10.272   4.338  2.7838  0.4430  2.5507
  590MOL0     H81387   2.307  10.361   4.468  2.7971  1.3256 -0.0546
  590MOL0     H81388   2.458  10.104   4.512  1.0699  1.2274 -2.2407
  590MOL0     H81389   2.383  10.205   4.631  1.8918  0.2000  0.4906
  590MOL0     H81390   2.535  10.382   4.601  1.7055  0.6911 -0.4579
  590MOL0     H81391   2.600  10.313   4.438  1.8969 -0.7285 -0.0775
  590MOL0     H81392   2.645  10.192   4.708 -0.6353 -0.1448 -0.3314
  590MOL0     H81393   2.692  10.135   4.543  0.0501  1.5361 -1.9941
  590MOL0     H81394   2.785  10.360   4.717 -1.6530  2.2217 -1.6193
  590MOL0     H81395   2.794  10.381   4.548 -2.7571  0.7006  0.9314
  590MOL0     H81396   2.938  10.178   4.530  0.3216  2.8033 -1.3267
  590MOL0     H81397   2.912  10.146   4.709  0.2615 -0.5883 -2.5198
  590MOL0     H81398   3.068  10.352   4.563  2.4905  0.1095  0.2390
  590MOL0     H81399   3.129  10.248   4.678  1.1758  1.7735 -0.7466
  590MOL0     H81400   2.051   9.987   4.351  1.6230  1.1870  1.0082
  590MOL0     H81401   1.900   9.826   4.416 -2.2916  1.2376  0.7871
  590MOL0     H81402   1.742   9.558   4.581  3.4074 -1.8332  3.9487
  590MOL0     H81403   1.623   9.334   4.599 -1.7471 -1.2087  1.0611
  590MOL0     H81404   2.222   9.807   4.569 -2.3555 -1.0312  2.7572
  590MOL0     H81405   2.430   9.829   4.484 -1.9526 -1.0611 -0.6661
  590MOL0     H81406   2.683   9.773   4.218  0.3724 -2.1371  1.2466
  590MOL0     H81407   2.823   9.958   4.087  0.7423 -1.0487 -0.1464
  590MOL0     H81408   3.220  10.113   4.181  1.0336  0.9978 -2.0103
  590MOL0     H81409   3.161   9.954   4.153  1.4895  1.0491  2.6682
  590MOL0     H81410   3.046  10.013   3.943  0.4827 -1.4214 -0.7122
  590MOL0     H81411   3.208  10.020   3.942  0.3362  2.3943 -3.2248
  590MOL0     H81412   3.190  10.276   4.002 -2.6793  1.3618  2.6559
  590MOL0     H81413   3.178  10.227   3.837 -1.2767  0.8297 -1.0528
  590MOL0     H81414   2.992  10.360   4.007 -2.2052  2.3933 -1.9430
  590MOL0     H81415   2.907  10.207   3.953 -1.1299  0.6544 -1.0821
  590MOL0     H81416   2.868  10.413   3.595  0.3902  0.8623 -0.3683
  590MOL0     H81417   3.092   9.986   4.413  0.7127 -3.3252 -0.0476
  590MOL0     H81418   2.889   9.740   4.634  0.9279 -1.0200  1.7191
  590MOL0     H81419   3.063   9.759   4.579 -0.9300 -1.0547 -2.6156
  590MOL0     H81420   2.975   9.898   4.652  1.2004 -0.4111  0.6419
  591MOL0     O81421   4.764   9.793   6.043 -0.2643  0.8206 -0.0144
  591MOL0     C81422   4.689   9.882   6.089 -0.5867 -0.0884 -0.3501
  591MOL0     O81423   4.710  10.009   6.068 -0.2756 -0.4625  0.0497
  591MOL0     C81424   4.786  10.050   5.961  0.2689 -0.6968 -0.4878
  591MOL0     C81425   4.749  10.019   5.831 -1.1448  0.6495 -1.1473
  591MOL0     C81426   4.830  10.069   5.729 -0.0352 -0.0155 -0.3150
  591MOL0     C81427   4.936  10.166   5.762 -0.2023  0.5467 -0.4359
  591MOL0     O81428   4.998  10.226   5.660 -0.0351  0.0098  0.0725
  591MOL0     C81429   5.060  10.137   5.568  0.7774 -0.8395  0.6615
  591MOL0     C81430   5.192  10.209   5.523 -0.1759 -0.1198 -0.9842
  591MOL0     C81431   5.162  10.345   5.462  0.4662  0.8766 -0.2304
  591MOL0     C81432   5.291  10.425   5.459 -0.2774 -0.1248 -0.6590
  591MOL0     C81433   5.287  10.489   5.605 -0.7825 -0.1697  0.1173
  591MOL0     C81434   5.433  10.539   5.622 -0.3498  0.0754 -1.0229
  591MOL0     C81435   5.464  10.677   5.559  0.4454 -0.4269  0.5693
  591MOL0     C81436   5.600  10.739   5.598 -0.6359 -0.4446 -0.7222
  591MOL0     N81437   5.722  10.654   5.563  0.1913  0.1366 -0.1272
  591MOL0     C81438   5.797  10.662   5.451 -0.6125 -0.4443  0.3053
  591MOL0     C81439   5.907  10.591   5.479 -0.1372  0.0431 -0.2896
  591MOL0     C81440   6.027  10.571   5.391 -0.3858  0.4776  0.3607
  591MOL0     C81441   6.083  10.706   5.354  0.0275  0.4384  0.0558
  591MOL0     C81442   6.152  10.706   5.214  0.2981 -0.6891 -0.3745
  591MOL0     C81443   6.211  10.847   5.187 -0.0763  0.2828 -0.6771
  591MOL0     O81444   6.301  10.879   5.294 -0.1725 -0.0341  0.5686
  591MOL0     C81445   6.438  10.896   5.265  1.3855 -0.2970 -0.6549
  591MOL0     C81446   6.484  10.933   5.146 -0.0958  0.6002  0.6837
  591MOL0     C81447   6.619  10.938   5.120  0.7750 -0.4414 -0.4629
  591MOL0     C81448   6.656  10.977   4.976 -0.1459  0.3240 -0.6269
  591MOL0     C81449   6.715  10.924   5.225 -0.2075 -0.1701  0.6560
  591MOL0     C81450   6.862  10.928   5.200  0.5210 -0.2689 -0.5232
  591MOL0     O81451   6.941  10.836   5.266 -0.1097 -0.3351  1.0324
  591MOL0     C81452   7.078  10.843   5.253  0.4545 -0.0809  0.2614
  591MOL0     C81453   7.158  10.918   5.344  0.1365 -0.0523  0.8210
  591MOL0     C81454   7.298  10.921   5.340  1.2461 -0.0280 -0.1802
  591MOL0     C81455   7.365  10.834   5.259 -0.5334  0.0121 -0.0117
  591MOL0     O81456   7.500  10.815   5.242 -0.4773 -0.4026 -0.2311
  591MOL0     C81457   7.583  10.920   5.282 -0.1236 -0.4350  0.0336
  591MOL0     C81458   7.720  10.886   5.254 -0.7494 -0.2881 -0.7261
  591MOL0     C81459   7.768  10.931   5.109 -0.4566  0.6048 -0.3091
  591MOL0     C81460   7.919  10.926   5.125 -0.1656 -0.3528  0.2442
  591MOL0     C81461   7.993  10.936   4.987 -0.0106  0.8370  0.1549
  591MOL0     C81462   8.010  10.799   4.921 -0.2032  0.5183 -0.0569
  591MOL0     C81463   8.079  10.806   4.784  0.6027 -0.3684 -0.1821
  591MOL0     C81464   8.101  10.676   4.724 -0.1106  0.0081 -0.3767
  591MOL0    Cl81465   8.209  10.569   4.811 -0.6216 -0.0630 -0.3383
  591MOL0     C81466   7.287  10.754   5.170  0.0198 -0.3477 -0.1471
  591MOL0     C81467   7.146  10.758   5.163  0.0172 -0.7849 -0.5181
  591MOL0     O81468   6.905  11.011   5.120  0.1387  0.2742 -0.0035
  591MOL0     C81469   6.665  10.889   5.351 -1.2035 -0.6918  0.4422
  591MOL0     C81470   6.527  10.887   5.372 -0.2001 -0.6020  0.3195
  591MOL0     N81471   5.889  10.523   5.596  0.2775  0.3127 -0.2200
  591MOL0     N81472   5.789  10.572   5.656 -1.0104 -0.2378 -0.2282
  591MOL0     C81473   4.948  10.207   5.894  0.4828 -0.2719 -0.0543
  591MOL0     C81474   4.881  10.144   6.002 -0.3532  0.7592 -0.4830
  591MOL0     C81475   4.574   9.847   6.174  0.7562 -0.2499  0.2019
  591MOL0     C81476   4.542   9.710   6.174 -0.1563 -0.3255 -0.3127
  591MOL0     C81477   4.439   9.667   6.257 -0.0282 -0.1301 -0.7096
  591MOL0     C81478   4.367   9.752   6.347  0.7998 -0.3613 -0.0336
  591MOL0     O81479   4.251   9.726   6.415 -0.0377  0.2047 -0.3020
  591MOL0     C81480   4.232   9.584   6.455  0.5698  0.8862  0.6589
  591MOL0     C81481   4.338   9.537   6.554  0.2832 -0.0644 -0.0576
  591MOL0     C81482   4.340   9.630   6.667 -0.8773  0.3166 -1.0012
  591MOL0     C81483   4.408   9.583   6.802  0.2343  0.0058 -0.2800
  591MOL0     C81484   4.542   9.533   6.797 -0.0017 -0.2404 -0.2628
  591MOL0     C81485   4.653   9.482   6.815 -0.0399 -0.5457 -0.3711
  591MOL0     C81486   4.408   9.886   6.348 -0.3440  0.0134 -0.0763
  591MOL0     C81487   4.514   9.933   6.270 -0.4311  0.0747  0.7798
  591MOL0     C81488   4.544  10.087   6.287 -0.0523 -0.6139 -0.5412
  591MOL0     H81489   4.655   9.967   5.818 -0.9390 -0.7780  1.9972
  591MOL0     H81490   4.797  10.036   5.631 -3.4879 -2.3650  1.4432
  591MOL0     H81491   5.000  10.123   5.478  0.1676  0.1669  0.8873
  591MOL0     H81492   5.082  10.034   5.597  2.9144 -0.8482 -0.7952
  591MOL0     H81493   5.248  10.217   5.617  0.1110  0.6431 -1.2099
  591MOL0     H81494   5.252  10.155   5.449  0.1862  1.9855 -2.3270
  591MOL0     H81495   5.124  10.324   5.362 -0.2174 -2.1329  0.5613
  591MOL0     H81496   5.088  10.393   5.526 -0.0355 -1.9313  1.4498
  591MOL0     H81497   5.380  10.363   5.448  1.3574  1.7227  1.2769
  591MOL0     H81498   5.291  10.494   5.375  0.3016 -0.2653 -0.7823
  591MOL0     H81499   5.263  10.414   5.682  1.9739 -1.5406 -0.2273
  591MOL0     H81500   5.220  10.575   5.616 -0.2909  0.1615  0.5847
  591MOL0     H81501   5.442  10.543   5.730  1.8855 -2.2352 -1.0510
  591MOL0     H81502   5.511  10.475   5.582  2.2516  0.7551  2.5359
  591MOL0     H81503   5.381  10.744   5.583 -0.5440 -1.1325 -0.7272
  591MOL0     H81504   5.463  10.673   5.450  1.5672  0.7641  0.4880
  591MOL0     H81505   5.611  10.837   5.551 -1.7544  0.4973  0.9134
  591MOL0     H81506   5.597  10.756   5.706 -2.5885  1.2187 -0.9895
  591MOL0     H81507   5.780  10.711   5.356  2.0575  0.7559  0.3612
  591MOL0     H81508   5.994  10.507   5.308 -0.9092 -1.0577  1.6926
  591MOL0     H81509   6.100  10.513   5.447 -1.2506 -1.0583 -0.0403
  591MOL0     H81510   6.005  10.783   5.356  1.6657  2.1611  0.2123
  591MOL0     H81511   6.158  10.721   5.433 -1.3516 -1.5981  1.8545
  591MOL0     H81512   6.233  10.633   5.200  2.2018  1.6307 -2.2476
  591MOL0     H81513   6.078  10.673   5.140 -1.2473 -3.5333  2.1922
  591MOL0     H81514   6.240  10.864   5.083 -0.7666  1.2664 -0.7188
  591MOL0     H81515   6.135  10.923   5.208  0.7184  0.2962  2.6906
  591MOL0     H81516   6.414  10.948   5.064  0.4077  0.8823  0.2904
  591MOL0     H81517   6.668  11.084   4.962  0.7902  0.3970  0.5466
  591MOL0     H81518   6.580  10.934   4.910 -1.7358 -0.5184  1.6450
  591MOL0     H81519   6.751  10.929   4.948 -0.9795 -0.7279 -1.8036
  591MOL0     H81520   7.104  10.983   5.412 -2.0959 -1.4605  0.4987
  591MOL0     H81521   7.344  10.997   5.403 -1.9966  2.3375 -0.3683
  591MOL0     H81522   7.553  11.020   5.250 -1.6722 -1.2293 -1.1591
  591MOL0     H81523   7.568  10.929   5.390  3.4891 -2.0684  0.8014
  591MOL0     H81524   7.777  10.927   5.337 -1.3978  0.4223 -0.6170
  591MOL0     H81525   7.730  10.777   5.261  3.3591 -0.0041  0.0878
  591MOL0     H81526   7.741  11.032   5.076  1.6159  1.9033  1.6603
  591MOL0     H81527   7.742  10.866   5.026 -2.0127  0.7652  0.0268
  591MOL0     H81528   7.948  10.848   5.196 -3.2869 -1.0921  0.8575
  591MOL0     H81529   7.945  11.021   5.174 -0.2594 -0.5180  0.6179
  591MOL0     H81530   7.946  10.998   4.910  1.6098  1.0257 -0.7383
  591MOL0     H81531   8.091  10.984   4.999 -0.0323  0.8158  0.4307
  591MOL0     H81532   7.912  10.768   4.882  0.8787  0.4450 -3.0168
  591MOL0     H81533   8.041  10.717   4.986 -0.9327 -0.4794 -0.9212
  591MOL0     H81534   8.167  10.869   4.794 -1.3635  2.4587  0.3931
  591MOL0     H81535   8.015  10.859   4.713  1.4691 -0.9969 -1.4758
  591MOL0     H81536   8.127  10.678   4.618  1.2611  3.5580 -0.1057
  591MOL0     H81537   8.005  10.623   4.729  0.0239 -0.1361  1.8469
  591MOL0     H81538   7.323  10.686   5.094 -3.1691 -2.3805 -0.0371
  591MOL0     H81539   7.097  10.699   5.087  0.0163 -0.0042 -1.1419
  591MOL0     H81540   6.733  10.872   5.434 -1.6395  1.9145  1.4211
  591MOL0     H81541   6.481  10.864   5.468 -1.6689  1.9316  0.3246
  591MOL0     H81542   5.005  10.297   5.912 -1.3002  0.7471  0.7092
  591MOL0     H81543   4.897  10.175   6.105 -1.2381  2.7563 -0.8893
  591MOL0     H81544   4.596   9.646   6.105  0.2556 -0.5233  0.1822
  591MOL0     H81545   4.412   9.565   6.231 -1.9392  0.5449 -1.5957
  591MOL0     H81546   4.137   9.559   6.502  2.0907 -0.6901  3.1007
  591MOL0     H81547   4.234   9.512   6.373  0.1898 -1.0693  2.2820
  591MOL0     H81548   4.439   9.537   6.511  0.2960  2.3221 -0.1354
  591MOL0     H81549   4.321   9.433   6.584  1.1920 -0.4508 -0.8085
  591MOL0     H81550   4.393   9.717   6.629  1.8118 -0.6428  0.3200
  591MOL0     H81551   4.238   9.659   6.697 -1.0208 -3.1399  2.7695
  591MOL0     H81552   4.346   9.500   6.838  2.5073 -1.8153 -0.3170
  591MOL0     H81553   4.403   9.660   6.879  0.4680  2.3951 -2.4919
  591MOL0     H81554   4.748   9.433   6.806  0.9351  1.5387 -2.3264
  591MOL0     H81555   4.362   9.952   6.421  2.6302  1.2015  0.9082
  591MOL0     H81556   4.473  10.132   6.357 -2.7444  1.3827 -4.2433
  591MOL0     H81557   4.638  10.106   6.341 -0.8985  2.1042  0.1470
  591MOL0     H81558   4.529  10.149   6.198  2.0649  2.9650  1.3356
  592MOL0     O81559   7.154   6.174   1.705  0.3168  0.4519 -0.5204
  592MOL0     C81560   7.168   6.120   1.808  0.0931  0.6970 -0.5897
  592MOL0     O81561   7.085   6.132   1.920 -0.2145 -0.0743 -0.1162
  592MOL0     C81562   6.994   6.235   1.918 -0.2567 -0.2430 -0.0819
  592MOL0     C81563   7.023   6.372   1.891 -0.9829 -0.1060 -0.1598
  592MOL0     C81564   6.922   6.464   1.907 -0.5768 -0.0617  0.1112
  592MOL0     C81565   6.794   6.425   1.949  0.2389 -0.7262 -0.8102
  592MOL0     O81566   6.690   6.513   1.947  0.1458  0.2712 -0.1159
  592MOL0     C81567   6.573   6.479   1.865 -0.6335  0.3359 -0.5693
  592MOL0     C81568   6.452   6.428   1.942 -0.5847  0.0962 -0.1856
  592MOL0     C81569   6.396   6.521   2.053 -0.1505  0.8690  0.7329
  592MOL0     C81570   6.314   6.454   2.156 -0.2390  0.7147 -0.3428
  592MOL0     C81571   6.385   6.421   2.293 -0.6499 -0.2575 -0.1318
  592MOL0     C81572   6.492   6.318   2.288 -0.2631  0.2788  0.0536
  592MOL0     C81573   6.552   6.287   2.431  0.4391 -1.0681  0.8288
  592MOL0     C81574   6.673   6.191   2.416  0.2960 -0.9477 -0.1425
  592MOL0     N81575   6.633   6.058   2.360 -0.0472 -0.5141  0.4187
  592MOL0     C81576   6.547   5.971   2.415 -0.3456  0.5805  0.3560
  592MOL0     C81577   6.559   5.853   2.353  0.4655 -0.6394  0.8154
  592MOL0     C81578   6.480   5.732   2.368 -0.4321 -0.2045 -0.0760
  592MOL0     C81579   6.512   5.651   2.498  0.2573  0.7082 -0.1962
  592MOL0     C81580   6.477   5.499   2.486  0.2214  0.1624  0.0315
  592MOL0     C81581   6.552   5.418   2.384 -0.6039  0.7019  0.6489
  592MOL0     O81582   6.663   5.346   2.445 -0.4284  0.2333 -0.6214
  592MOL0     C81583   6.712   5.229   2.383  0.0275  0.0461 -0.7208
  592MOL0     C81584   6.767   5.127   2.466 -0.1254  0.3182 -0.6719
  592MOL0     C81585   6.784   4.998   2.417  0.6434  0.2161  0.8179
  592MOL0     C81586   6.818   4.896   2.520  0.1756  0.3874  0.6581
  592MOL0     C81587   6.768   4.971   2.279  0.0899 -0.8240  0.7587
  592MOL0     C81588   6.787   4.844   2.214  0.1724  0.7373  0.7405
  592MOL0     O81589   6.824   4.854   2.079 -0.0508 -0.3955 -0.2326
  592MOL0     C81590   6.864   4.748   2.002  0.8664 -0.6919  0.7129
  592MOL0     C81591   6.840   4.749   1.865 -0.4246 -0.4007  0.0096
  592MOL0     C81592   6.866   4.637   1.777  0.0798 -0.8258  0.9058
  592MOL0     C81593   6.918   4.520   1.826 -0.3565 -0.0197  0.3581
  592MOL0     O81594   6.942   4.408   1.748  0.4573 -0.2925 -0.6467
  592MOL0     C81595   7.050   4.323   1.792  0.5008  0.2415  0.3051
  592MOL0     C81596   7.054   4.203   1.703 -1.2686  0.5685 -0.4441
  592MOL0     C81597   6.913   4.130   1.703 -1.3240  0.2909 -0.3252
  592MOL0     C81598   6.855   4.138   1.570  0.2289  0.3472  0.6774
  592MOL0     C81599   6.705   4.084   1.549  0.3142  0.0339 -0.8351
  592MOL0     C81600   6.700   3.934   1.573 -0.1973  0.4502 -0.6916
  592MOL0     C81601   6.553   3.876   1.569 -0.0949 -0.5272 -0.6452
  592MOL0     C81602   6.488   3.888   1.437  0.9611  0.9649 -0.1690
  592MOL0    Cl81603   6.553   3.763   1.320 -0.1011 -0.2938 -0.1537
  592MOL0     C81604   6.961   4.529   1.960 -0.2860  0.1457 -0.1338
  592MOL0     C81605   6.941   4.638   2.047  1.6325  0.4587  1.2965
  592MOL0     O81606   6.760   4.736   2.271  0.0158  0.2834 -0.5439
  592MOL0     C81607   6.728   5.082   2.195  0.0919 -0.5574  0.3594
  592MOL0     C81608   6.704   5.205   2.246 -0.8093  0.5629 -0.6375
  592MOL0     N81609   6.651   5.870   2.248  0.3580 -0.6544 -0.7097
  592MOL0     N81610   6.694   5.997   2.259 -0.0799  0.5578 -0.0660
  592MOL0     C81611   6.765   6.297   1.978 -0.1625  0.1961  0.4647
  592MOL0     C81612   6.866   6.198   1.966 -0.2358  0.0795 -0.2160
  592MOL0     C81613   7.293   6.032   1.827 -0.8134 -0.7958 -0.3590
  592MOL0     C81614   7.296   5.961   1.951  0.0801  0.0764 -0.3889
  592MOL0     C81615   7.414   5.891   1.993  0.0792  0.4879 -0.2171
  592MOL0     C81616   7.525   5.884   1.910 -0.2225 -0.0037  0.6956
  592MOL0     O81617   7.647   5.827   1.945  0.2672 -0.3220  0.1639
  592MOL0     C81618   7.628   5.720   2.040 -0.1301  0.3135 -0.1661
  592MOL0     C81619   7.749   5.619   2.067 -0.2777  0.2294 -0.4562
  592MOL0     C81620   7.772   5.516   1.952  0.0616 -1.2973 -0.7641
  592MOL0     C81621   7.827   5.386   2.011  0.1301  1.0207 -0.0745
  592MOL0     C81622   7.869   5.288   1.910 -0.2394 -0.5349  0.1401
  592MOL0     C81623   7.904   5.202   1.831  0.3165  0.2294  0.4384
  592MOL0     C81624   7.526   5.959   1.789  0.7480  0.1183 -0.0397
  592MOL0     C81625   7.412   6.033   1.745 -0.3014 -0.3571  0.0803
  592MOL0     C81626   7.416   6.126   1.616 -0.2930 -0.5028 -0.0377
  592MOL0     H81627   7.120   6.396   1.848 -1.1343  0.8578  0.0134
  592MOL0     H81628   6.959   6.561   1.875 -1.8704 -0.2954 -2.3426
  592MOL0     H81629   6.592   6.398   1.794 -1.6711  1.6683 -2.4653
  592MOL0     H81630   6.547   6.563   1.799 -0.3893 -1.3700 -2.9988
  592MOL0     H81631   6.367   6.416   1.875 -2.5151  2.0710  1.7180
  592MOL0     H81632   6.475   6.331   1.986  0.1594  0.6880  0.7795
  592MOL0     H81633   6.480   6.563   2.108  2.8252 -1.1365 -1.8917
  592MOL0     H81634   6.339   6.604   2.008  0.2409  0.6046 -0.2842
  592MOL0     H81635   6.218   6.505   2.173 -1.0182 -0.0817 -2.1502
  592MOL0     H81636   6.275   6.360   2.117 -0.3646  1.2286 -1.4821
  592MOL0     H81637   6.309   6.388   2.365  0.3643  1.3918  1.8122
  592MOL0     H81638   6.404   6.518   2.340 -1.0772  0.6669 -1.8056
  592MOL0     H81639   6.456   6.222   2.250  0.2828  0.6761 -1.5511
  592MOL0     H81640   6.572   6.351   2.221  2.0992 -1.8911  1.6123
  592MOL0     H81641   6.468   6.244   2.485 -0.7467  2.6277  2.1870
  592MOL0     H81642   6.583   6.373   2.492  2.3376 -2.2193  1.5970
  592MOL0     H81643   6.750   6.241   2.357 -1.3472 -1.1722 -2.6307
  592MOL0     H81644   6.703   6.168   2.518 -2.0281 -2.3635  0.3008
  592MOL0     H81645   6.485   5.982   2.504  0.4089  0.9025  0.8515
  592MOL0     H81646   6.490   5.674   2.276  0.4570 -0.0319 -0.0992
  592MOL0     H81647   6.374   5.757   2.376 -0.2989  0.2774  0.2136
  592MOL0     H81648   6.614   5.668   2.533  0.0334 -2.1156  2.2638
  592MOL0     H81649   6.443   5.681   2.578  0.5137  1.4816 -0.2586
  592MOL0     H81650   6.511   5.451   2.578 -1.0844 -0.3147  0.2778
  592MOL0     H81651   6.370   5.480   2.477  0.2303  0.7595 -1.6606
  592MOL0     H81652   6.483   5.342   2.348 -0.0628  0.3386  0.3748
  592MOL0     H81653   6.585   5.477   2.298 -0.8803 -3.0258 -2.2517
  592MOL0     H81654   6.791   5.140   2.571  1.5496 -1.2084 -0.8115
  592MOL0     H81655   6.827   4.937   2.621  0.4736 -0.0711  0.8185
  592MOL0     H81656   6.918   4.857   2.497 -0.1699 -0.1214 -0.0403
  592MOL0     H81657   6.750   4.811   2.519 -1.3324  1.5572  0.8372
  592MOL0     H81658   6.797   4.831   1.808  0.2810  0.1188  0.2003
  592MOL0     H81659   6.849   4.645   1.670 -1.0471  0.1102  1.1404
  592MOL0     H81660   7.149   4.369   1.805  0.8277 -0.6886  1.2628
  592MOL0     H81661   7.023   4.286   1.891 -1.3051  2.8626  0.9080
  592MOL0     H81662   7.098   4.224   1.605  2.6322 -0.9674  0.7844
  592MOL0     H81663   7.132   4.143   1.752 -0.3344  3.2151  1.5452
  592MOL0     H81664   6.845   4.165   1.781 -0.1538 -1.3167  1.5104
  592MOL0     H81665   6.925   4.026   1.736  0.2846  0.7868  0.7547
  592MOL0     H81666   6.918   4.081   1.502 -0.8011 -0.0924  0.0710
  592MOL0     H81667   6.860   4.243   1.540  0.0956  0.3444  0.6453
  592MOL0     H81668   6.636   4.133   1.618 -2.5757  0.3882 -3.7165
  592MOL0     H81669   6.666   4.126   1.456  2.0353  1.7301 -0.8391
  592MOL0     H81670   6.740   3.912   1.672  0.4947 -2.8338 -1.5954
  592MOL0     H81671   6.764   3.878   1.505  0.8068 -1.2540  1.5306
  592MOL0     H81672   6.502   3.942   1.640  0.5416  0.1502 -0.8073
  592MOL0     H81673   6.545   3.771   1.601 -0.0353 -1.3473 -3.0517
  592MOL0     H81674   6.494   3.992   1.402  0.3133  1.5431  1.3537
  592MOL0     H81675   6.381   3.878   1.456  1.2240 -0.9156  0.4959
  592MOL0     H81676   7.009   4.445   2.010 -0.9835  0.1917  0.6365
  592MOL0     H81677   6.966   4.642   2.153  0.8269 -0.3274  1.5228
  592MOL0     H81678   6.721   5.080   2.087  0.5785  1.5437  0.2530
  592MOL0     H81679   6.679   5.291   2.185 -0.0173  2.0039  0.9751
  592MOL0     H81680   6.663   6.268   1.997 -0.4368  0.8164 -0.0238
  592MOL0     H81681   6.833   6.098   1.989 -0.7440 -0.0779 -1.5694
  592MOL0     H81682   7.214   5.955   2.021 -1.1168 -4.4780 -1.8407
  592MOL0     H81683   7.409   5.829   2.081  0.5627  0.6741 -0.0520
  592MOL0     H81684   7.604   5.773   2.133 -2.0004 -0.2288 -0.2954
  592MOL0     H81685   7.544   5.654   2.019  1.7309 -1.7987 -1.4267
  592MOL0     H81686   7.728   5.567   2.161 -1.9509  2.1589  0.3141
  592MOL0     H81687   7.842   5.675   2.079 -0.4199 -0.0252  2.8213
  592MOL0     H81688   7.681   5.492   1.896  0.6422 -1.3790 -1.6863
  592MOL0     H81689   7.848   5.563   1.889 -0.4290  2.2478  1.0330
  592MOL0     H81690   7.745   5.335   2.063  0.4149 -0.8206 -1.2973
  592MOL0     H81691   7.894   5.398   2.096 -1.3379 -2.2007  1.7208
  592MOL0     H81692   7.929   5.123   1.763  0.3212 -0.8865  1.7059
  592MOL0     H81693   7.605   5.942   1.716  0.5803  0.2687 -0.2554
  592MOL0     H81694   7.391   6.230   1.639  0.5237 -0.5607  1.2037
  592MOL0     H81695   7.500   6.107   1.549 -0.9099 -1.5016 -0.5464
  592MOL0     H81696   7.334   6.084   1.558  0.8568 -1.3321 -1.1100
  593MOL0     O81697   9.426   7.184   9.181 -0.4240 -0.0448  1.3037
  593MOL0     C81698   9.470   7.109   9.096 -0.8069  0.2229  0.6194
  593MOL0     O81699   9.462   6.972   9.098  0.1871  0.3530 -0.5587
  593MOL0     C81700   9.388   6.907   9.199 -0.0281  0.3432 -0.8560
  593MOL0     C81701   9.249   6.906   9.197  0.1426 -0.7893  0.6200
  593MOL0     C81702   9.169   6.834   9.294  0.6191  0.0838 -0.1608
  593MOL0     C81703   9.232   6.776   9.408 -0.2661 -0.3270 -0.6754
  593MOL0     O81704   9.156   6.720   9.519  0.2713 -0.0539  0.2676
  593MOL0     C81705   9.212   6.723   9.656  0.0062  0.5496  0.9538
  593MOL0     C81706   9.116   6.657   9.747 -0.3643  0.1350  0.4610
  593MOL0     C81707   9.170   6.639   9.886 -0.0505  0.3346 -0.2855
  593MOL0     C81708   9.055   6.587   9.973 -1.1958 -0.1703  0.5840
  593MOL0     C81709   9.100   6.551  10.122 -0.4165  0.3028 -0.0815
  593MOL0     C81710   9.193   6.422  10.117  0.3799 -0.7387  0.1962
  593MOL0     C81711   9.191   6.351  10.250  0.2193  0.1953 -0.6286
  593MOL0     C81712   9.053   6.304  10.290 -0.4312  0.6285 -0.0407
  593MOL0     N81713   9.043   6.223  10.412  0.1318 -1.0879 -0.4030
  593MOL0     C81714   9.073   6.087  10.419  1.0082  0.5506  0.0867
  593MOL0     C81715   9.050   6.043  10.546  0.7408 -0.7593  0.3285
  593MOL0     C81716   9.059   5.912  10.617  0.2459  0.0535  0.1475
  593MOL0     C81717   8.950   5.807  10.584 -1.0713 -0.2537 -0.2812
  593MOL0     C81718   8.928   5.707  10.695 -1.3927 -0.6014 -0.7021
  593MOL0     C81719   8.991   5.569  10.680  1.0662 -0.4335 -0.3510
  593MOL0     O81720   9.122   5.600  10.646  1.1845 -0.2657 -0.0989
  593MOL0     C81721   9.203   5.503  10.600 -0.2573  0.7989 -0.4925
  593MOL0     C81722   9.183   5.363  10.622  0.4237 -0.3859 -0.1569
  593MOL0     C81723   9.278   5.264  10.605 -0.5790  0.3907  0.1148
  593MOL0     C81724   9.262   5.124  10.639  0.3008 -0.6493  0.4818
  593MOL0     C81725   9.401   5.315  10.543  0.0402 -0.0916 -0.4832
  593MOL0     C81726   9.520   5.221  10.515 -0.1540 -0.0389 -0.2637
  593MOL0     O81727   9.600   5.277  10.418 -0.5267  0.2867  0.5458
  593MOL0     C81728   9.721   5.216  10.380  0.6496 -0.8511  0.5473
  593MOL0     C81729   9.768   5.088  10.407 -0.0112 -1.3704 -0.2579
  593MOL0     C81730   9.868   5.032  10.323  0.4277  0.2096  1.2582
  593MOL0     C81731   9.933   5.104  10.228 -0.5717  0.3017  0.1325
  593MOL0     O81732  10.053   5.084  10.165  0.1367  0.3185  0.3876
  593MOL0     C81733  10.099   4.952  10.148 -0.1722 -0.0858  1.1779
  593MOL0     C81734  10.097   4.926   9.998  0.3787  0.2941  0.3157
  593MOL0     C81735  10.072   4.786   9.968 -0.6243  1.0253  1.2514
  593MOL0     C81736  10.170   4.684  10.021 -0.1093  0.3566 -0.2371
  593MOL0     C81737  10.151   4.544   9.954 -0.3121 -0.6461  0.5125
  593MOL0     C81738  10.268   4.447   9.970 -0.2674  0.0553  0.0528
  593MOL0     C81739  10.228   4.301   9.907 -0.5102  0.1474  0.8015
  593MOL0     C81740  10.347   4.205   9.921  0.0928  0.1063  0.2639
  593MOL0    Cl81741  10.509   4.263   9.853  0.6850  0.5201 -0.2343
  593MOL0     C81742   9.893   5.239  10.207 -0.4817  0.3393 -0.3344
  593MOL0     C81743   9.784   5.295  10.281  0.6183  0.7052 -0.0499
  593MOL0     O81744   9.535   5.113  10.571  0.7772  0.2492 -0.6631
  593MOL0     C81745   9.406   5.450  10.501  0.7259 -0.7265 -0.4318
  593MOL0     C81746   9.313   5.542  10.531  0.4709  0.8519 -0.4684
  593MOL0     N81747   9.014   6.157  10.611  0.5196 -0.0458  0.0781
  593MOL0     N81748   9.004   6.264  10.536 -0.3886  0.0126  0.3592
  593MOL0     C81749   9.374   6.791   9.411 -0.2907 -0.2641  0.3457
  593MOL0     C81750   9.454   6.846   9.307  0.6418  0.2226 -0.1306
  593MOL0     C81751   9.548   7.157   8.984  0.4212 -0.6224  0.2626
  593MOL0     C81752   9.513   7.114   8.859 -0.0267  0.7394 -0.9344
  593MOL0     C81753   9.583   7.150   8.742 -0.2695 -0.2948 -0.0673
  593MOL0     C81754   9.679   7.248   8.744  0.2059 -0.1221  0.2422
  593MOL0     O81755   9.755   7.287   8.628  0.0522  0.8275 -0.1631
  593MOL0     C81756   9.679   7.329   8.517 -0.3799  0.6580  0.0040
  593MOL0     C81757   9.687   7.223   8.410  0.4621 -0.6605 -0.4015
  593MOL0     C81758   9.834   7.167   8.384  0.2360  0.6583  0.3801
  593MOL0     C81759   9.841   7.113   8.240  0.4105  0.2055 -0.6236
  593MOL0     C81760   9.848   7.225   8.141  0.1919 -0.2654 -0.1401
  593MOL0     C81761   9.869   7.309   8.053  0.5410  0.2494  0.4260
  593MOL0     C81762   9.714   7.297   8.872  0.2087  0.3260  1.3776
  593MOL0     C81763   9.649   7.254   8.990 -0.0662  0.1636 -0.8647
  593MOL0     C81764   9.694   7.306   9.128  0.1345 -0.0447 -0.1087
  593MOL0     H81765   9.182   6.946   9.122 -1.4884  1.3672  3.0160
  593MOL0     H81766   9.062   6.824   9.303  0.5893  1.6439  2.2482
  593MOL0     H81767   9.219   6.830   9.675  0.5851  0.8584 -0.8056
  593MOL0     H81768   9.310   6.675   9.646 -0.5827 -0.7690  1.2495
  593MOL0     H81769   9.024   6.714   9.761 -2.0476 -2.4589  0.7048
  593MOL0     H81770   9.092   6.558   9.706  1.5391 -0.0845 -0.2464
  593MOL0     H81771   9.255   6.570   9.885 -0.3844 -0.2643  2.8034
  593MOL0     H81772   9.210   6.734   9.922 -0.2082 -0.4866  2.2686
  593MOL0     H81773   8.981   6.668   9.976 -3.7564 -2.3174 -0.0172
  593MOL0     H81774   9.017   6.493   9.933 -0.6627 -0.9088  1.7660
  593MOL0     H81775   9.014   6.527  10.185  0.0407  0.3126  0.5645
  593MOL0     H81776   9.146   6.643  10.160 -0.9101  0.6968 -0.4301
  593MOL0     H81777   9.165   6.357  10.034 -1.2553 -2.4401  1.9479
  593MOL0     H81778   9.299   6.439  10.098  0.1682  0.0363 -0.3729
  593MOL0     H81779   9.239   6.410  10.329  0.1167 -0.4471 -0.0823
  593MOL0     H81780   9.249   6.259  10.247 -0.3877 -0.4928  3.3141
  593MOL0     H81781   8.974   6.378  10.302 -1.3704 -0.4172  0.3616
  593MOL0     H81782   9.016   6.236  10.213 -0.5055  1.1159 -0.4391
  593MOL0     H81783   9.099   6.021  10.337 -0.5620  0.2681 -0.2015
  593MOL0     H81784   9.046   5.939  10.722 -0.0277  1.0860 -0.1480
  593MOL0     H81785   9.159   5.873  10.595  1.3514  2.7438  0.1370
  593MOL0     H81786   8.859   5.866  10.582  0.0845  1.6211 -0.2108
  593MOL0     H81787   8.965   5.762  10.485 -2.7481  0.8314 -1.0701
  593MOL0     H81788   8.964   5.752  10.788 -0.4284 -1.2669 -0.7391
  593MOL0     H81789   8.820   5.694  10.702 -1.8619  2.3269 -1.0458
  593MOL0     H81790   8.996   5.511  10.772 -3.1682  2.2671  1.8967
  593MOL0     H81791   8.934   5.516  10.604 -0.8206  1.5304 -0.4169
  593MOL0     H81792   9.095   5.339  10.681  0.0361  0.3985 -0.4005
  593MOL0     H81793   9.156   5.116  10.666 -0.8029 -0.6052 -3.2922
  593MOL0     H81794   9.322   5.086  10.722 -0.5521 -4.7822 -0.5252
  593MOL0     H81795   9.275   5.054  10.556  1.1873 -1.0263  0.9246
  593MOL0     H81796   9.724   5.018  10.478  1.1116  2.2071  4.4783
  593MOL0     H81797   9.891   4.926  10.327  1.1018  0.3091  0.4329
  593MOL0     H81798  10.202   4.941  10.186  0.4869 -0.9659 -0.7822
  593MOL0     H81799  10.041   4.876  10.201 -1.1300  0.8926  1.5754
  593MOL0     H81800  10.019   4.982   9.946  1.7772  0.5462 -1.6228
  593MOL0     H81801  10.190   4.960   9.952  0.8365 -0.0712  0.9499
  593MOL0     H81802  10.077   4.765   9.860  1.6908  0.5216  1.4194
  593MOL0     H81803   9.976   4.769  10.017 -1.4608 -2.7200 -1.2215
  593MOL0     H81804  10.160   4.662  10.128  0.9759 -2.5976 -0.6601
  593MOL0     H81805  10.272   4.708   9.989 -0.7715  0.2756 -2.5842
  593MOL0     H81806  10.064   4.501  10.005 -0.0199 -1.9168 -0.0240
  593MOL0     H81807  10.113   4.566   9.854 -0.0336 -0.5431  0.4282
  593MOL0     H81808  10.289   4.434  10.076 -1.9624  1.5540  0.6235
  593MOL0     H81809  10.356   4.488   9.918  1.2820 -1.4507  1.3805
  593MOL0     H81810  10.191   4.300   9.805 -0.5646 -3.2099  0.7236
  593MOL0     H81811  10.140   4.257   9.956 -2.8377  0.3702 -2.8137
  593MOL0     H81812  10.320   4.110   9.874 -0.8175  1.8755 -3.1037
  593MOL0     H81813  10.366   4.189  10.028  4.0567  0.8552 -0.2124
  593MOL0     H81814   9.955   5.304  10.146  2.0030  1.9775  3.5720
  593MOL0     H81815   9.729   5.388  10.271 -3.8906 -1.2821  2.9584
  593MOL0     H81816   9.497   5.492  10.460  0.0424  0.9598 -0.3231
  593MOL0     H81817   9.330   5.643  10.495 -3.2219  1.1928 -1.6183
  593MOL0     H81818   9.429   6.740   9.490 -2.9558 -0.3030  2.3117
  593MOL0     H81819   9.562   6.855   9.307  0.4723  3.6244  0.4387
  593MOL0     H81820   9.432   7.043   8.854  1.0868 -0.8331  1.4670
  593MOL0     H81821   9.562   7.101   8.647 -1.0233  0.9424 -0.5586
  593MOL0     H81822   9.574   7.354   8.534 -0.2242  0.4232  1.3960
  593MOL0     H81823   9.721   7.427   8.492 -3.0108  2.0828  0.7708
  593MOL0     H81824   9.656   7.271   8.317  1.0288  0.1160 -0.2109
  593MOL0     H81825   9.625   7.140   8.443 -0.3246  0.4227  0.9755
  593MOL0     H81826   9.913   7.236   8.413  0.2273  0.1781  1.5976
  593MOL0     H81827   9.858   7.085   8.452  3.4911  3.2290  2.6134
  593MOL0     H81828   9.752   7.051   8.228  1.7418 -1.7366 -0.8541
  593MOL0     H81829   9.929   7.052   8.218  1.1868  0.7023  0.9446
  593MOL0     H81830   9.879   7.386   7.978 -0.9014 -0.0690 -0.1242
  593MOL0     H81831   9.794   7.370   8.883  2.4162 -1.8292  0.5103
  593MOL0     H81832   9.710   7.218   9.191 -2.5485  0.8963  2.1163
  593MOL0     H81833   9.793   7.351   9.129 -0.4866  1.5759  3.6587
  593MOL0     H81834   9.614   7.368   9.170 -1.9704 -1.3180 -1.9746
  594MOL0     O81835   4.745   5.393   6.797  0.5730  1.1544  0.1840
  594MOL0     C81836   4.628   5.351   6.812 -0.4798 -0.3360  0.5555
  594MOL0     O81837   4.537   5.333   6.707 -0.0251 -0.0626  0.0960
  594MOL0     C81838   4.569   5.388   6.577 -0.3542 -0.3457 -0.9113
  594MOL0     C81839   4.518   5.317   6.474 -0.0352  1.0820  0.2729
  594MOL0     C81840   4.524   5.348   6.339  0.6050 -0.3526  0.0317
  594MOL0     C81841   4.587   5.484   6.305 -0.1020  0.3205 -0.3095
  594MOL0     O81842   4.588   5.523   6.175  0.2807  0.2137  0.5817
  594MOL0     C81843   4.606   5.423   6.071 -0.1615  0.3381  0.4893
  594MOL0     C81844   4.482   5.396   5.997  0.1135 -0.1600  0.0745
  594MOL0     C81845   4.524   5.301   5.884 -0.0029  0.0104 -1.7921
  594MOL0     C81846   4.413   5.256   5.792 -0.1803 -0.4182  0.2167
  594MOL0     C81847   4.475   5.156   5.681  0.0939 -0.6990 -0.2864
  594MOL0     C81848   4.356   5.086   5.618 -1.1544 -0.5255 -1.7553
  594MOL0     C81849   4.398   4.980   5.510 -0.1079 -0.0310  0.1213
  594MOL0     C81850   4.305   4.971   5.393  0.9791 -0.2989  0.2343
  594MOL0     N81851   4.175   4.899   5.413  0.9229 -0.3930  0.3298
  594MOL0     C81852   4.089   4.921   5.521 -0.3117  0.0019  0.0332
  594MOL0     C81853   3.994   4.828   5.500 -0.6129 -0.0217 -0.4477
  594MOL0     C81854   3.886   4.807   5.599  0.3700 -0.5549 -0.6757
  594MOL0     C81855   3.911   4.709   5.715  0.0867  0.5815 -0.8575
  594MOL0     C81856   4.010   4.766   5.819 -0.7103  0.7707 -0.7778
  594MOL0     C81857   4.025   4.673   5.934 -0.3795  0.5523  0.3725
  594MOL0     O81858   4.096   4.556   5.886  0.3638  0.5019 -0.1633
  594MOL0     C81859   4.233   4.549   5.900  0.5281  0.6465  0.3714
  594MOL0     C81860   4.289   4.544   6.027 -0.4385 -0.8622 -0.4271
  594MOL0     C81861   4.430   4.503   6.046  0.4868 -0.4076 -0.4897
  594MOL0     C81862   4.472   4.499   6.190 -1.0377  0.5341 -0.0850
  594MOL0     C81863   4.501   4.468   5.928 -0.4772  0.4942 -0.2106
  594MOL0     C81864   4.643   4.433   5.928 -0.1327 -0.6338  0.4725
  594MOL0     O81865   4.706   4.420   6.048  1.1866 -0.4674 -0.5447
  594MOL0     C81866   4.831   4.376   6.041 -0.6466  0.4778  0.1187
  594MOL0     C81867   4.855   4.243   6.041  0.2505  0.6971 -0.1706
  594MOL0     C81868   4.989   4.199   6.035 -0.7891  0.1680 -0.2034
  594MOL0     C81869   5.095   4.292   6.017 -0.0778  1.0827 -1.0746
  594MOL0     O81870   5.228   4.266   6.023 -0.6642 -0.2267 -0.0747
  594MOL0     C81871   5.283   4.158   6.104 -0.7724  0.7835 -1.4279
  594MOL0     C81872   5.318   4.186   6.249 -0.1312 -0.8158  0.0877
  594MOL0     C81873   5.201   4.246   6.334 -1.0418  0.3863  0.8654
  594MOL0     C81874   5.105   4.146   6.384 -0.2067 -0.2357  0.5384
  594MOL0     C81875   4.998   4.204   6.477  0.1764  0.6671  0.1860
  594MOL0     C81876   4.889   4.294   6.409 -0.1234  1.0881 -0.3338
  594MOL0     C81877   4.797   4.356   6.513 -0.6227  0.3997 -0.5486
  594MOL0     C81878   4.665   4.403   6.447 -0.5618  0.0924  0.1086
  594MOL0    Cl81879   4.555   4.465   6.575  0.2840 -0.3555  0.0137
  594MOL0     C81880   5.066   4.428   6.013 -0.1248  0.2969 -0.8957
  594MOL0     C81881   4.932   4.468   6.016 -0.2317  0.5857 -0.4032
  594MOL0     O81882   4.704   4.431   5.826 -0.2031  0.0891 -0.2682
  594MOL0     C81883   4.439   4.473   5.801 -0.0167 -0.2783 -0.8851
  594MOL0     C81884   4.309   4.517   5.791 -0.5881 -0.9892 -0.0594
  594MOL0     N81885   4.017   4.759   5.377 -0.7268 -0.7498 -0.3555
  594MOL0     N81886   4.116   4.808   5.325 -0.0321 -0.4736 -0.0939
  594MOL0     C81887   4.620   5.567   6.407 -0.3404  0.4989 -0.8591
  594MOL0     C81888   4.608   5.521   6.539 -0.4048  0.6201 -0.3581
  594MOL0     C81889   4.564   5.325   6.943 -0.1509 -0.5352 -0.9261
  594MOL0     C81890   4.476   5.217   6.953 -0.2842  0.0487  0.0842
  594MOL0     C81891   4.411   5.178   7.064 -1.0507 -0.2330  0.4018
  594MOL0     C81892   4.418   5.251   7.183 -0.6296 -0.3133 -0.0815
  594MOL0     O81893   4.350   5.202   7.293 -0.5040 -0.2903 -0.1648
  594MOL0     C81894   4.309   5.290   7.398  0.0179 -0.4797 -0.1732
  594MOL0     C81895   4.218   5.413   7.354  0.7395 -0.6815  0.3371
  594MOL0     C81896   4.213   5.534   7.454  0.4050 -1.0544 -0.0745
  594MOL0     C81897   4.131   5.653   7.404 -0.3694  0.5547 -0.1192
  594MOL0     C81898   4.125   5.763   7.499 -0.5254  0.7077 -0.2672
  594MOL0     C81899   4.113   5.860   7.571  0.1442 -0.3830 -0.0648
  594MOL0     C81900   4.502   5.371   7.175  0.0480  0.3200 -0.1673
  594MOL0     C81901   4.580   5.406   7.056  0.3844 -0.0898 -0.2184
  594MOL0     C81902   4.672   5.524   7.058  0.5308 -0.1657 -0.0611
  594MOL0     H81903   4.459   5.228   6.489 -1.6839  2.1524  0.4611
  594MOL0     H81904   4.484   5.293   6.255 -5.9311 -0.1178  2.4744
  594MOL0     H81905   4.654   5.339   6.121 -1.2682 -1.0633 -0.7153
  594MOL0     H81906   4.681   5.457   5.998  3.1726 -3.8180  1.6085
  594MOL0     H81907   4.397   5.361   6.056 -0.5283 -0.1739 -0.8285
  594MOL0     H81908   4.429   5.480   5.950  0.8856 -0.8246 -2.1482
  594MOL0     H81909   4.583   5.365   5.818  0.8175  1.3462  0.1396
  594MOL0     H81910   4.595   5.223   5.913  1.5015  0.6969 -3.4318
  594MOL0     H81911   4.339   5.220   5.864  0.4487 -0.8967  0.6279
  594MOL0     H81912   4.380   5.345   5.737  1.6866  0.9875  1.2979
  594MOL0     H81913   4.546   5.087   5.726  1.1020 -0.1313 -0.9717
  594MOL0     H81914   4.544   5.202   5.610  2.7888 -1.3496  1.7548
  594MOL0     H81915   4.304   5.047   5.706  1.0557  4.5108  2.2943
  594MOL0     H81916   4.285   5.159   5.577  1.2649  0.8381 -3.8270
  594MOL0     H81917   4.408   4.881   5.556  3.3448 -0.0648 -0.4515
  594MOL0     H81918   4.500   5.001   5.478  1.2009 -2.4664  2.2962
  594MOL0     H81919   4.281   5.067   5.347  0.6153 -0.5772 -0.1686
  594MOL0     H81920   4.355   4.905   5.321  1.8604  0.8785 -0.2552
  594MOL0     H81921   4.092   4.971   5.618 -1.9415 -1.3404  0.8457
  594MOL0     H81922   3.787   4.781   5.561 -0.5941  0.8995  0.6920
  594MOL0     H81923   3.858   4.906   5.637 -2.5219 -1.2021 -0.9504
  594MOL0     H81924   3.813   4.707   5.763  0.8342 -1.6331  0.7426
  594MOL0     H81925   3.938   4.610   5.678  1.4794  0.7608 -0.3787
  594MOL0     H81926   4.110   4.780   5.778 -1.7068  0.9505 -3.3829
  594MOL0     H81927   3.966   4.862   5.847 -1.4431  0.8642 -2.1452
  594MOL0     H81928   4.082   4.703   6.022  1.5624 -2.4786  0.2682
  594MOL0     H81929   3.925   4.643   5.967 -0.7295 -1.1170 -1.9627
  594MOL0     H81930   4.236   4.565   6.119  1.7728  1.4009  0.4544
  594MOL0     H81931   4.384   4.498   6.256 -0.1963 -2.2459  1.1300
  594MOL0     H81932   4.533   4.587   6.213  0.8132 -0.9167  0.7907
  594MOL0     H81933   4.521   4.406   6.218 -1.8600 -0.8236 -2.7863
  594MOL0     H81934   4.768   4.178   6.052  0.3386  0.7466  0.9808
  594MOL0     H81935   5.005   4.092   6.045 -0.1308  0.3761  1.1776
  594MOL0     H81936   5.211   4.076   6.109 -0.0679  0.1027 -1.9785
  594MOL0     H81937   5.365   4.102   6.057 -1.1025 -1.4204  0.4233
  594MOL0     H81938   5.346   4.092   6.297 -3.2048 -1.7742  0.2208
  594MOL0     H81939   5.401   4.255   6.231 -0.2210 -0.8909 -0.6322
  594MOL0     H81940   5.142   4.313   6.270  3.0648  4.5220  0.9221
  594MOL0     H81941   5.254   4.306   6.409 -0.0970  3.8182 -2.2410
  594MOL0     H81942   5.169   4.075   6.437 -1.1352 -1.1681  0.4599
  594MOL0     H81943   5.056   4.100   6.298 -2.6216  3.9944 -0.6443
  594MOL0     H81944   4.955   4.117   6.526  0.7253 -2.5275 -4.3986
  594MOL0     H81945   5.049   4.271   6.548  1.8074 -0.5006  0.1779
  594MOL0     H81946   4.828   4.233   6.342  1.7095  0.2977 -1.3812
  594MOL0     H81947   4.926   4.380   6.351 -1.0768  2.4620  1.0284
  594MOL0     H81948   4.843   4.439   6.569 -1.0975  0.2284  0.1093
  594MOL0     H81949   4.756   4.274   6.571 -4.2792 -0.1795 -3.5725
  594MOL0     H81950   4.608   4.329   6.390 -0.0412 -0.7221  0.6170
  594MOL0     H81951   4.682   4.497   6.393 -0.5348  0.7665  1.2451
  594MOL0     H81952   5.152   4.492   5.998 -0.7603  0.9419 -1.8539
  594MOL0     H81953   4.908   4.573   5.998  0.7446  1.5197  2.9743
  594MOL0     H81954   4.490   4.454   5.707  1.4699  1.0987 -0.3976
  594MOL0     H81955   4.268   4.546   5.695  1.4610  0.7264 -0.4859
  594MOL0     H81956   4.656   5.663   6.372  2.6443 -0.5436 -0.9341
  594MOL0     H81957   4.639   5.577   6.626  1.2060 -1.2307  0.3256
  594MOL0     H81958   4.474   5.156   6.863  3.2431 -0.8911  0.5037
  594MOL0     H81959   4.354   5.085   7.064 -0.8260 -0.3868  1.4918
  594MOL0     H81960   4.251   5.240   7.476 -1.7196  1.4648 -0.1225
  594MOL0     H81961   4.396   5.340   7.441 -1.4754  1.9323  0.2813
  594MOL0     H81962   4.125   5.362   7.331  2.3439 -4.1643  0.9413
  594MOL0     H81963   4.267   5.450   7.263  2.4528 -2.1474  0.6053
  594MOL0     H81964   4.169   5.493   7.546 -0.2319 -0.7144 -0.2162
  594MOL0     H81965   4.315   5.562   7.481  0.0289  0.4695 -0.1481
  594MOL0     H81966   4.033   5.614   7.374  0.6467 -1.5374 -0.9102
  594MOL0     H81967   4.180   5.687   7.313 -2.4570  3.0523 -0.4195
  594MOL0     H81968   4.088   5.921   7.656 -1.1458 -0.1901 -0.5657
  594MOL0     H81969   4.521   5.437   7.258  0.0694 -2.0200  1.7919
  594MOL0     H81970   4.693   5.562   7.158 -1.3142  0.5844  0.0854
  594MOL0     H81971   4.769   5.506   7.011  1.3678 -0.5780  1.7713
  594MOL0     H81972   4.627   5.603   6.996  2.5046  2.5182  1.6967
  595MOL0     O81973   1.044   0.131   8.281 -0.0664 -0.6250 -0.5010
  595MOL0     C81974   1.092   0.224   8.209 -0.0138  0.0514  0.1125
  595MOL0     O81975   1.026   0.292   8.106  0.2133 -0.0218 -0.0181
  595MOL0     C81976   0.880   0.285   8.108 -0.1927  0.6364 -0.0402
  595MOL0     C81977   0.827   0.324   7.983 -0.3997 -0.1809 -0.3274
  595MOL0     C81978   0.691   0.333   7.965  1.1238  0.7610  0.0054
  595MOL0     C81979   0.601   0.295   8.067  0.0260 -0.9389 -0.0472
  595MOL0     O81980   0.468   0.304   8.048  0.8669  0.5432  0.4466
  595MOL0     C81981   0.413   0.225   7.942  0.4186  0.3613  0.0172
  595MOL0     C81982   0.343   0.318   7.836  0.2130  0.5705 -0.5887
  595MOL0     C81983   0.214   0.385   7.885  0.4457 -0.6300  0.6431
  595MOL0     C81984   0.177   0.528   7.843 -0.3553  0.4309 -0.3638
  595MOL0     C81985   0.043   0.569   7.901  0.7948 -0.0746 -0.1803
  595MOL0     C81986  -0.006   0.712   7.859 -0.0829 -0.1971 -0.5672
  595MOL0     C81987   0.054   0.824   7.948 -0.0548 -0.0965 -0.0462
  595MOL0     C81988   0.014   0.962   7.893  0.1595 -0.1444  0.9065
  595MOL0     N81989   0.072   1.073   7.971 -0.9886  0.8259 -0.7596
  595MOL0     C81990   0.118   1.193   7.918  0.6398  0.7985  0.3516
  595MOL0     C81991   0.104   1.282   8.016 -0.8587 -0.3274 -0.6688
  595MOL0     C81992   0.145   1.429   8.009 -0.1384  0.0752 -0.4674
  595MOL0     C81993   0.111   1.498   7.876 -0.5471  0.5939 -1.0655
  595MOL0     C81994  -0.036   1.554   7.862  0.5568  0.0232  0.0996
  595MOL0     C81995  -0.138   1.433   7.840 -0.5445 -0.4988 -0.4580
  595MOL0     O81996  -0.091   1.365   7.725  0.0125 -0.0982  0.5884
  595MOL0     C81997  -0.141   1.234   7.701 -0.6882  0.5236  0.8513
  595MOL0     C81998  -0.249   1.174   7.766 -0.7322 -0.4829 -0.7397
  595MOL0     C81999  -0.286   1.037   7.743  0.3902 -0.2509 -0.5359
  595MOL0     C82000  -0.413   0.999   7.819 -0.0050 -0.5421  0.4319
  595MOL0     C82001  -0.218   0.955   7.647 -0.0005 -0.2942 -0.4343
  595MOL0     C82002  -0.259   0.824   7.597 -0.0500  0.5589  0.0378
  595MOL0     O82003  -0.162   0.748   7.524  0.1412 -1.0411  0.3720
  595MOL0     C82004  -0.193   0.625   7.472  1.0071 -0.0133  0.1019
  595MOL0     C82005  -0.212   0.618   7.333 -0.3592  0.7355 -0.2299
  595MOL0     C82006  -0.230   0.497   7.265 -0.0616 -0.6675  0.0293
  595MOL0     C82007  -0.252   0.381   7.340  0.2958 -0.6234 -0.5458
  595MOL0     O82008  -0.274   0.256   7.283  0.5952 -0.3977 -0.1131
  595MOL0     C82009  -0.337   0.254   7.151 -0.1301  0.1700 -0.2864
  595MOL0     C82010  -0.359   0.111   7.106 -0.1118 -0.1943  0.9608
  595MOL0     C82011  -0.231   0.060   7.042 -0.0885  0.0043  0.0195
  595MOL0     C82012  -0.201  -0.080   7.042  0.3839  0.4063  0.4220
  595MOL0     C82013  -0.301  -0.148   6.941  0.2570 -0.6977  0.8598
  595MOL0     C82014  -0.283  -0.291   6.896 -0.7707 -0.0039 -0.9900
  595MOL0     C82015  -0.401  -0.340   6.812  0.1978 -0.3111  1.3126
  595MOL0     C82016  -0.395  -0.498   6.809  0.1540 -0.0904 -0.3839
  595MOL0    Cl82017  -0.444  -0.588   6.965 -0.0038 -0.1779 -0.2300
  595MOL0     C82018  -0.246   0.393   7.480  0.2321 -0.6031  0.3915
  595MOL0     C82019  -0.217   0.512   7.556 -0.3084  0.3208  0.5889
  595MOL0     O82020  -0.377   0.793   7.600 -0.5139  0.7155 -0.0461
  595MOL0     C82021  -0.121   1.021   7.575 -0.0148 -0.7083 -0.2235
  595MOL0     C82022  -0.080   1.152   7.605 -0.3440 -0.0490  0.3501
  595MOL0     N82023   0.030   1.214   8.114 -0.3379 -0.3004  0.0323
  595MOL0     N82024   0.017   1.091   8.085 -0.2265  0.0132  0.0631
  595MOL0     C82025   0.657   0.261   8.194 -0.7912 -0.2578  0.2424
  595MOL0     C82026   0.794   0.258   8.210 -0.7229  0.0890 -0.5587
  595MOL0     C82027   1.231   0.270   8.232  0.3743 -0.5544  1.3150
  595MOL0     C82028   1.266   0.398   8.174 -0.5569 -0.0788 -0.3745
  595MOL0     C82029   1.396   0.454   8.204  0.6968  0.2789  0.2594
  595MOL0     C82030   1.489   0.387   8.274  0.9984  0.8267 -0.2984
  595MOL0     O82031   1.611   0.438   8.293 -0.4627  0.5409  0.5992
  595MOL0     C82032   1.664   0.550   8.240 -0.3505 -1.1165  0.2789
  595MOL0     C82033   1.613   0.676   8.318 -0.1496  0.1011 -0.0294
  595MOL0     C82034   1.704   0.798   8.308 -0.3303  0.2698 -0.6793
  595MOL0     C82035   1.816   0.774   8.419 -0.6829 -0.0281 -1.0002
  595MOL0     C82036   1.901   0.887   8.415 -0.4833  0.6626  0.5462
  595MOL0     C82037   1.975   0.978   8.414  0.0758 -0.8438  0.2447
  595MOL0     C82038   1.454   0.257   8.321 -0.1977  0.3716 -0.1852
  595MOL0     C82039   1.326   0.198   8.296 -0.6225 -0.1992  1.3088
  595MOL0     C82040   1.301   0.063   8.362  0.2751 -0.4452 -0.3022
  595MOL0     H82041   0.890   0.359   7.901  1.1464 -1.9727  0.0394
  595MOL0     H82042   0.665   0.363   7.864 -0.9760 -2.5088 -0.5954
  595MOL0     H82043   0.348   0.148   7.984  0.3249 -0.6701 -1.9016
  595MOL0     H82044   0.490   0.164   7.893 -0.7296 -1.6227  0.5803
  595MOL0     H82045   0.412   0.403   7.824  1.4117  0.0835  2.0387
  595MOL0     H82046   0.342   0.267   7.739  0.9662 -0.6589  0.0197
  595MOL0     H82047   0.134   0.316   7.854 -0.6799  0.5765  0.7703
  595MOL0     H82048   0.214   0.391   7.994 -1.1656  8.2440  0.8711
  595MOL0     H82049   0.260   0.594   7.870 -0.2923 -0.8396  3.1078
  595MOL0     H82050   0.157   0.528   7.736 -0.8611  3.3104 -0.3486
  595MOL0     H82051   0.045   0.552   8.009  2.5251  0.5305 -0.0955
  595MOL0     H82052  -0.032   0.495   7.871 -0.5845  0.9359  0.6744
  595MOL0     H82053   0.022   0.730   7.755 -0.7521 -0.6143 -0.8283
  595MOL0     H82054  -0.115   0.715   7.865 -0.1404 -0.1317 -1.4710
  595MOL0     H82055   0.163   0.813   7.957  0.1477  0.8917 -1.1343
  595MOL0     H82056   0.011   0.810   8.047 -0.0503  0.2667  0.0098
  595MOL0     H82057   0.051   0.971   7.790 -1.5379 -1.9446  0.0617
  595MOL0     H82058  -0.095   0.970   7.896  0.2574  1.0568  1.6563
  595MOL0     H82059   0.153   1.198   7.816 -3.2840 -1.1490 -1.2781
  595MOL0     H82060   0.255   1.435   8.006 -0.1285  1.9000  1.3752
  595MOL0     H82061   0.097   1.495   8.081 -0.0223  0.2149 -0.5166
  595MOL0     H82062   0.172   1.589   7.874  0.2335  0.2294  1.9138
  595MOL0     H82063   0.139   1.440   7.787 -1.1165  0.2645 -1.0312
  595MOL0     H82064  -0.064   1.616   7.948 -0.9571 -1.3941  0.6933
  595MOL0     H82065  -0.043   1.623   7.777 -0.6028  1.1106  1.0243
  595MOL0     H82066  -0.140   1.369   7.928  5.7278 -0.8732 -0.1171
  595MOL0     H82067  -0.240   1.467   7.818 -0.5569  0.6347  1.1419
  595MOL0     H82068  -0.320   1.245   7.807  0.0958  0.0105 -0.1390
  595MOL0     H82069  -0.393   0.900   7.861 -2.3663 -0.0379  2.9767
  595MOL0     H82070  -0.498   1.005   7.750  1.7385  2.0880 -1.7173
  595MOL0     H82071  -0.423   1.060   7.909  2.3651  0.4829  0.0703
  595MOL0     H82072  -0.194   0.707   7.274  2.9329  1.0711  1.0338
  595MOL0     H82073  -0.239   0.492   7.157  2.1363 -1.3375 -0.1613
  595MOL0     H82074  -0.437   0.292   7.175 -0.6387 -1.7488  0.7917
  595MOL0     H82075  -0.281   0.309   7.075 -0.3498  0.6667 -0.0982
  595MOL0     H82076  -0.376   0.052   7.197 -1.3103 -1.6819 -0.1660
  595MOL0     H82077  -0.439   0.091   7.034  1.5055 -1.0130 -0.6902
  595MOL0     H82078  -0.145   0.115   7.081 -1.0328  1.5183  0.0261
  595MOL0     H82079  -0.231   0.096   6.939  4.5604  1.9586  0.4431
  595MOL0     H82080  -0.208  -0.110   7.148  0.0509  0.7254  0.4902
  595MOL0     H82081  -0.099  -0.093   7.005  0.3565  1.6109 -0.1133
  595MOL0     H82082  -0.406  -0.132   6.966  0.3702 -1.3215  1.8145
  595MOL0     H82083  -0.287  -0.100   6.844  0.8278  0.2747  1.4038
  595MOL0     H82084  -0.262  -0.349   6.987 -1.3082  0.9368 -0.2548
  595MOL0     H82085  -0.185  -0.294   6.847  0.1203  0.6711  0.6553
  595MOL0     H82086  -0.395  -0.305   6.709  2.9284 -2.9560  0.4293
  595MOL0     H82087  -0.502  -0.313   6.846  0.4231 -0.1753  1.8877
  595MOL0     H82088  -0.292  -0.521   6.780 -0.4468 -2.3775 -0.8975
  595MOL0     H82089  -0.454  -0.525   6.721 -0.4375 -0.1322  0.0180
  595MOL0     H82090  -0.278   0.310   7.542 -2.6451 -1.0082 -1.4812
  595MOL0     H82091  -0.231   0.500   7.663  0.6434  0.7845  0.7683
  595MOL0     H82092  -0.061   0.982   7.494 -1.1042  1.2294 -2.0573
  595MOL0     H82093   0.004   1.197   7.552 -0.4172 -0.5285 -0.1821
  595MOL0     H82094   0.588   0.237   8.275 -0.2013  1.8015  1.4179
  595MOL0     H82095   0.827   0.224   8.307  1.6898 -0.4413 -1.4861
  595MOL0     H82096   1.204   0.460   8.110  0.3244  0.0688 -1.0894
  595MOL0     H82097   1.410   0.557   8.175 -1.0374  0.0763 -1.5138
  595MOL0     H82098   1.772   0.547   8.253 -0.2152  0.9589 -0.0488
  595MOL0     H82099   1.653   0.555   8.132  1.6609 -3.0003 -0.0680
  595MOL0     H82100   1.619   0.641   8.421 -0.8218 -0.2794 -0.1129
  595MOL0     H82101   1.508   0.703   8.301  0.3070  2.8361  1.0266
  595MOL0     H82102   1.741   0.823   8.208 -0.7005 -0.4148 -0.9945
  595MOL0     H82103   1.641   0.885   8.329  2.1578  2.1757 -0.6559
  595MOL0     H82104   1.881   0.693   8.384  0.7348  0.6872 -0.1050
  595MOL0     H82105   1.792   0.753   8.524  0.3622 -0.2491 -0.7992
  595MOL0     H82106   2.050   1.054   8.418  0.0071 -0.6819 -1.1092
  595MOL0     H82107   1.521   0.199   8.384 -2.7508  0.3400  2.7516
  595MOL0     H82108   1.248  -0.005   8.295 -0.3328  1.5583 -1.9401
  595MOL0     H82109   1.400   0.023   8.386  0.7262  0.9283  0.2231
  595MOL0     H82110   1.250   0.065   8.459 -1.6865 -2.4915 -1.1974
  596MOL0     O82111   8.892  11.300   8.665 -0.0232  0.0883 -0.5544
  596MOL0     C82112   9.011  11.290   8.636 -0.2933 -0.4277  0.6213
  596MOL0     O82113   9.087  11.185   8.600 -0.3700  0.0094  0.0568
  596MOL0     C82114   9.027  11.063   8.598  0.4966 -0.2402 -0.2080
  596MOL0     C82115   9.053  10.977   8.495 -0.3234 -0.4145 -0.3116
  596MOL0     C82116   9.010  10.848   8.485  0.0335  0.0363 -1.3536
  596MOL0     C82117   8.930  10.800   8.595  0.2336  0.3010  0.2692
  596MOL0     O82118   8.858  10.684   8.598 -0.0389 -0.2259  0.4856
  596MOL0     C82119   8.896  10.572   8.515  0.0901  0.2184 -1.6087
  596MOL0     C82120   8.913  10.443   8.602 -0.6075 -0.9132 -0.1989
  596MOL0     C82121   8.917  10.316   8.514 -0.0074  0.2660  0.5779
  596MOL0     C82122   8.804  10.279   8.417  0.0145  0.2264  0.9021
  596MOL0     C82123   8.672  10.299   8.495  1.0720  0.3221  0.5794
  596MOL0     C82124   8.648  10.197   8.609 -0.2290 -1.3127  0.3662
  596MOL0     C82125   8.503  10.189   8.640  1.1822  0.8595 -0.1779
  596MOL0     C82126   8.465  10.110   8.763  0.2601  0.2601  0.3142
  596MOL0     N82127   8.320  10.113   8.775 -0.3131  0.2092 -0.7726
  596MOL0     C82128   8.229  10.079   8.677 -0.3601 -0.0765  0.2340
  596MOL0     C82129   8.119  10.155   8.703 -0.4050  0.5206 -0.0441
  596MOL0     C82130   8.005  10.171   8.615  0.5476  0.2483  0.9375
  596MOL0     C82131   7.912  10.046   8.649 -0.2291 -0.2778  0.6022
  596MOL0     C82132   7.791  10.042   8.550 -0.1449 -0.5988  0.4128
  596MOL0     C82133   7.828   9.985   8.415 -0.1500 -0.6735  0.3825
  596MOL0     O82134   7.750  10.055   8.313 -0.0944  0.2616  0.0193
  596MOL0     C82135   7.809  10.101   8.193 -0.1112  0.7706 -0.5538
  596MOL0     C82136   7.775  10.221   8.129 -0.1521 -0.1716 -0.2682
  596MOL0     C82137   7.833  10.260   8.010  1.0154  0.0567  0.0128
  596MOL0     C82138   7.805  10.400   7.971  0.4550 -0.0690 -0.0988
  596MOL0     C82139   7.923  10.177   7.939 -0.4090  0.1357 -0.4492
  596MOL0     C82140   7.980  10.206   7.811 -0.0376 -0.7569  0.9192
  596MOL0     O82141   8.080  10.117   7.779 -0.2764 -0.2380  0.5303
  596MOL0     C82142   8.142  10.129   7.661 -0.6212 -0.4197 -0.2647
  596MOL0     C82143   8.135  10.046   7.543  0.6411  1.2869 -1.0728
  596MOL0     C82144   8.233  10.057   7.440 -0.5919 -0.5726 -0.7177
  596MOL0     C82145   8.334  10.157   7.445 -0.1397 -0.1792  0.1261
  596MOL0     O82146   8.421  10.176   7.344 -0.3965  0.1916  1.7402
  596MOL0     C82147   8.414  10.096   7.220  0.1543 -0.5725 -0.5035
  596MOL0     C82148   8.297  10.137   7.125 -0.5060  0.5309  0.1274
  596MOL0     C82149   8.305  10.280   7.075 -0.2609  0.1817 -0.4316
  596MOL0     C82150   8.432  10.304   6.986 -0.0454 -0.1187  0.9638
  596MOL0     C82151   8.430  10.223   6.858 -0.4171 -0.3333  0.5313
  596MOL0     C82152   8.527  10.286   6.753 -0.4032 -0.2323  0.7320
  596MOL0     C82153   8.670  10.304   6.818 -0.4340  0.0316  0.3973
  596MOL0     C82154   8.742  10.172   6.827 -0.5506  0.5005 -0.1240
  596MOL0    Cl82155   8.907  10.193   6.856  0.5555 -0.1496 -0.0969
  596MOL0     C82156   8.333  10.240   7.560 -0.6420  0.7472 -0.7026
  596MOL0     C82157   8.238  10.226   7.662  0.1869  0.0389 -0.3309
  596MOL0     O82158   7.927  10.278   7.730  0.2923 -0.5923 -0.0278
  596MOL0     C82159   7.960  10.055   8.002  0.5965 -0.4102 -0.2909
  596MOL0     C82160   7.906  10.020   8.127 -0.0703  0.8572  0.7859
  596MOL0     N82161   8.139  10.213   8.826 -0.1987 -0.3719  0.3297
  596MOL0     N82162   8.259  10.182   8.870 -0.1917  0.3286 -1.2607
  596MOL0     C82163   8.911  10.880   8.713  0.0266  0.6631  0.2960
  596MOL0     C82164   8.948  11.011   8.710 -0.9817 -0.7274  0.2410
  596MOL0     C82165   9.099  11.406   8.664  0.7694  0.0303  0.0345
  596MOL0     C82166   9.219  11.373   8.715  0.8030  0.1821 -0.7003
  596MOL0     C82167   9.303  11.473   8.751 -1.1244  0.1677  0.5184
  596MOL0     C82168   9.273  11.607   8.731 -0.3376 -0.1571  0.2867
  596MOL0     O82169   9.359  11.715   8.735  0.2386 -0.0119  0.1944
  596MOL0     C82170   9.494  11.688   8.756  0.6089  0.5361  0.3384
  596MOL0     C82171   9.568  11.828   8.761 -0.1447 -0.2239  0.2440
  596MOL0     C82172   9.722  11.831   8.733 -0.2981 -0.0495  0.8951
  596MOL0     C82173   9.800  11.789   8.856  0.1308 -0.7820  0.3473
  596MOL0     C82174   9.793  11.647   8.874 -0.0049 -0.3691 -0.1456
  596MOL0     C82175   9.789  11.533   8.889  0.2221  0.4639 -0.0140
  596MOL0     C82176   9.151  11.637   8.674  0.4014  0.6868 -0.2479
  596MOL0     C82177   9.062  11.543   8.639  0.1280 -0.1004 -0.0706
  596MOL0     C82178   8.936  11.596   8.559 -0.1286 -0.3483  0.1040
  596MOL0     H82179   9.118  11.011   8.415 -2.1184 -0.7925 -2.0002
  596MOL0     H82180   9.021  10.787   8.396  2.9772 -1.2971 -0.2294
  596MOL0     H82181   8.990  10.595   8.464 -0.2074 -0.6529 -2.5764
  596MOL0     H82182   8.814  10.554   8.446 -2.1184 -2.5502  1.4031
  596MOL0     H82183   9.001  10.456   8.664 -0.3455  0.4060 -0.8072
  596MOL0     H82184   8.836  10.430   8.679  2.0304 -1.6175  2.5299
  596MOL0     H82185   9.003  10.319   8.446 -0.1302 -2.3797  0.2023
  596MOL0     H82186   8.917  10.231   8.582  0.5855 -1.5379 -1.5594
  596MOL0     H82187   8.819  10.355   8.341  0.8124  2.2214  2.9288
  596MOL0     H82188   8.815  10.179   8.375 -0.1014  0.0459  1.2898
  596MOL0     H82189   8.595  10.271   8.423  0.5272  0.5231  1.0632
  596MOL0     H82190   8.638  10.400   8.522 -1.2326  0.0462 -1.0153
  596MOL0     H82191   8.673  10.102   8.560  0.9743 -0.3844 -0.8950
  596MOL0     H82192   8.710  10.212   8.698 -0.7623 -0.8830  0.6710
  596MOL0     H82193   8.465  10.146   8.547  0.6555  0.0732  0.3912
  596MOL0     H82194   8.457  10.288   8.639 -2.0322 -0.5127  0.5313
  596MOL0     H82195   8.515  10.013   8.760  0.1129  0.1461 -3.2340
  596MOL0     H82196   8.507  10.163   8.848  2.4929  2.6537 -2.0787
  596MOL0     H82197   8.253  10.012   8.596  0.2776  2.2405 -1.5840
  596MOL0     H82198   8.028  10.162   8.508  2.3417 -1.9394  1.4401
  596MOL0     H82199   7.957  10.266   8.643 -1.8645 -1.2137  2.1564
  596MOL0     H82200   7.959   9.949   8.633  0.3507 -0.0235  0.7302
  596MOL0     H82201   7.885  10.059   8.754  1.3737  1.2052  0.8821
  596MOL0     H82202   7.706   9.993   8.597 -2.0311  0.0212 -2.1723
  596MOL0     H82203   7.775  10.150   8.543  2.5302 -0.0882  0.9954
  596MOL0     H82204   7.931  10.007   8.384 -0.4463 -0.1546 -0.2626
  596MOL0     H82205   7.805   9.879   8.410  0.0746 -0.6490 -2.4399
  596MOL0     H82206   7.704  10.282   8.184 -0.5531 -0.9858  0.1385
  596MOL0     H82207   7.895  10.460   7.955 -0.2180  0.6469 -1.3832
  596MOL0     H82208   7.735  10.441   8.045 -0.6500 -1.0866 -0.5329
  596MOL0     H82209   7.750  10.399   7.876 -0.7191 -0.1547  0.5586
  596MOL0     H82210   8.072   9.958   7.546  3.3775 -0.8557 -2.4628
  596MOL0     H82211   8.243   9.983   7.361 -0.3834 -0.0091 -1.2281
  596MOL0     H82212   8.511  10.106   7.171  0.3599 -1.6416 -0.3425
  596MOL0     H82213   8.413   9.989   7.243  0.3602 -0.4779 -0.0556
  596MOL0     H82214   8.308  10.065   7.043 -0.1081 -2.4043  2.5814
  596MOL0     H82215   8.203  10.132   7.179  0.5337 -0.1405  1.9685
  596MOL0     H82216   8.310  10.346   7.162  3.3554  1.8653 -1.6908
  596MOL0     H82217   8.209  10.304   7.029 -1.4021 -0.8233  1.2898
  596MOL0     H82218   8.519  10.277   7.047 -0.5295  0.4495  1.9382
  596MOL0     H82219   8.442  10.410   6.962  2.1821 -0.3149  0.8059
  596MOL0     H82220   8.470  10.124   6.882  0.9084  0.9988  4.6366
  596MOL0     H82221   8.327  10.223   6.823 -0.1058  3.1451 -0.7474
  596MOL0     H82222   8.471  10.376   6.727 -1.1492 -0.9985 -0.3891
  596MOL0     H82223   8.538  10.215   6.670 -0.8648  0.1501  0.3402
  596MOL0     H82224   8.662  10.345   6.919 -0.3989 -2.3265  1.4160
  596MOL0     H82225   8.735  10.372   6.762 -0.3397 -0.4596 -0.0912
  596MOL0     H82226   8.740  10.115   6.734  1.0100 -0.5629  0.4416
  596MOL0     H82227   8.703  10.106   6.905  4.0082 -0.5285  1.6075
  596MOL0     H82228   8.406  10.321   7.563 -0.7106  1.0100  4.9094
  596MOL0     H82229   8.244  10.300   7.740 -3.5656 -0.5604  0.7043
  596MOL0     H82230   8.029   9.988   7.952  0.5187 -0.5832 -0.1702
  596MOL0     H82231   7.945   9.929   8.174  0.0127  1.4794  1.9553
  596MOL0     H82232   8.848  10.835   8.788 -0.1555  3.0879  1.6859
  596MOL0     H82233   8.935  11.083   8.791  1.6901 -1.1244  1.1270
  596MOL0     H82234   9.249  11.272   8.739  2.4068  0.6966 -0.4472
  596MOL0     H82235   9.398  11.441   8.793 -1.0258 -1.1022 -0.5878
  596MOL0     H82236   9.504  11.644   8.855 -1.9890 -2.3732 -0.5423
  596MOL0     H82237   9.526  11.616   8.680  2.2729 -1.3327  2.6448
  596MOL0     H82238   9.541  11.874   8.857 -1.6081 -1.1370  0.3076
  596MOL0     H82239   9.508  11.900   8.704  2.1366  1.4073 -0.2269
  596MOL0     H82240   9.750  11.765   8.651 -0.9896 -1.4893  1.7849
  596MOL0     H82241   9.744  11.938   8.719  1.0421 -0.1142  2.2096
  596MOL0     H82242   9.759  11.828   8.950 -0.7665 -1.2851  0.1741
  596MOL0     H82243   9.906  11.814   8.846 -0.3005 -0.0075 -3.7502
  596MOL0     H82244   9.792  11.427   8.904  3.5221  0.3485 -0.7737
  596MOL0     H82245   9.132  11.740   8.647  1.2906  0.5984 -1.2815
  596MOL0     H82246   8.846  11.605   8.620  1.1221  1.0191  1.8561
  596MOL0     H82247   8.966  11.691   8.513  0.2230  0.5232  2.0161
  596MOL0     H82248   8.911  11.531   8.474 -1.5256  2.8608 -2.1371
  597MOL0     O82249   5.583   5.131   4.396 -0.1399  0.1295  0.1486
  597MOL0     C82250   5.666   5.210   4.442 -0.5874 -0.5972  0.1530
  597MOL0     O82251   5.656   5.301   4.544 -0.5696  0.1874 -0.6555
  597MOL0     C82252   5.562   5.296   4.648 -0.3160 -0.0814 -0.1952
  597MOL0     C82253   5.571   5.397   4.746  0.0294 -1.0238 -0.9539
  597MOL0     C82254   5.484   5.400   4.856 -0.1249  0.8231  0.2632
  597MOL0     C82255   5.382   5.305   4.868  0.2528 -1.2768 -0.1010
  597MOL0     O82256   5.289   5.301   4.974  0.9431  0.4997 -0.9380
  597MOL0     C82257   5.300   5.401   5.076  0.8257  0.5809 -0.9211
  597MOL0     C82258   5.167   5.392   5.158 -0.2174 -0.1652 -0.3328
  597MOL0     C82259   5.172   5.462   5.289  1.0317  0.1157  0.4226
  597MOL0     C82260   5.051   5.426   5.386 -1.6113 -0.3516  0.3706
  597MOL0     C82261   5.061   5.511   5.516  0.1479  0.2312  1.1292
  597MOL0     C82262   4.988   5.461   5.630  0.3554  0.4172 -0.8544
  597MOL0     C82263   5.072   5.378   5.737 -0.6082  0.9133 -0.7092
  597MOL0     C82264   5.016   5.355   5.871  0.3462  0.0864 -0.2516
  597MOL0     N82265   5.012   5.477   5.962  0.3290 -0.6983  0.1506
  597MOL0     C82266   5.116   5.522   6.041  0.1002  0.1505  0.1919
  597MOL0     C82267   5.080   5.640   6.095  0.4184 -0.2187 -0.1183
  597MOL0     C82268   5.141   5.727   6.190  0.4022  0.9859 -0.1444
  597MOL0     C82269   5.098   5.694   6.335  0.0142  0.3695  0.1456
  597MOL0     C82270   4.957   5.740   6.363  0.0003 -0.1164 -0.0341
  597MOL0     C82271   4.931   5.746   6.511 -0.1021 -1.4207  0.1299
  597MOL0     O82272   5.009   5.851   6.575  0.3717 -0.1481  0.4597
  597MOL0     C82273   4.990   5.862   6.711 -0.1619  0.0052  0.3336
  597MOL0     C82274   5.064   5.958   6.766 -0.4689 -0.0136 -0.2743
  597MOL0     C82275   5.081   5.974   6.900 -0.0848 -0.7618 -0.7279
  597MOL0     C82276   5.191   6.081   6.925  0.6876  0.4600  0.5150
  597MOL0     C82277   5.013   5.896   6.994  0.1105 -0.3326 -0.6750
  597MOL0     C82278   5.039   5.897   7.140 -0.1039 -0.7230 -0.3787
  597MOL0     O82279   4.943   5.820   7.206  0.7673 -0.2180  0.1430
  597MOL0     C82280   4.964   5.792   7.344  0.1756 -0.3127  0.2338
  597MOL0     C82281   5.019   5.673   7.386 -0.3075 -0.1798  0.3363
  597MOL0     C82282   5.058   5.658   7.516  0.0167 -0.0789 -0.4249
  597MOL0     C82283   5.016   5.754   7.618  0.0003  0.4549  0.0038
  597MOL0     O82284   5.017   5.716   7.748  0.3821  0.2059  0.9296
  597MOL0     C82285   5.063   5.820   7.835 -0.6616  0.5655 -0.2614
  597MOL0     C82286   5.114   5.761   7.973  0.3290 -0.9991  0.3879
  597MOL0     C82287   4.991   5.705   8.045 -0.3558 -0.2683  0.5631
  597MOL0     C82288   5.026   5.658   8.180  0.7273 -0.0566  0.1938
  597MOL0     C82289   4.901   5.624   8.263  0.3095 -1.2954  0.7168
  597MOL0     C82290   4.936   5.592   8.401  0.5594 -0.0729  0.7766
  597MOL0     C82291   4.804   5.532   8.468 -0.2216 -0.6004 -0.2754
  597MOL0     C82292   4.837   5.513   8.620  0.3847  0.5225 -0.6848
  597MOL0    Cl82293   4.972   5.394   8.648  0.0814  0.0482 -0.2375
  597MOL0     C82294   4.962   5.874   7.574  1.0748  0.8632 -0.0137
  597MOL0     C82295   4.924   5.886   7.438  0.7656  0.5284  0.2887
  597MOL0     O82296   5.122   5.967   7.197 -0.5913  0.2439 -0.3786
  597MOL0     C82297   4.909   5.817   6.941 -0.2398  0.0430  0.1629
  597MOL0     C82298   4.909   5.788   6.796  0.0773 -1.5342 -0.8892
  597MOL0     N82299   4.953   5.675   6.041 -0.5836  0.2232 -0.8813
  597MOL0     N82300   4.914   5.576   5.958 -0.4159  1.1148  0.3168
  597MOL0     C82301   5.367   5.211   4.767 -1.2897 -0.4880 -0.7207
  597MOL0     C82302   5.453   5.204   4.657 -1.1075 -0.2387 -0.2349
  597MOL0     C82303   5.795   5.227   4.366  0.1499  0.1405 -0.8933
  597MOL0     C82304   5.794   5.203   4.238 -0.0528 -0.5553  0.1619
  597MOL0     C82305   5.913   5.210   4.161 -0.0918  0.1398  0.3356
  597MOL0     C82306   6.036   5.231   4.220 -0.7695  0.1346  0.3086
  597MOL0     O82307   6.163   5.254   4.162  0.6255  0.2649  0.0303
  597MOL0     C82308   6.171   5.275   4.023  0.1162  0.3131 -0.6383
  597MOL0     C82309   6.184   5.144   3.952 -0.3592 -0.3178 -0.1937
  597MOL0     C82310   6.205   5.151   3.806 -0.2281  0.4775 -0.9120
  597MOL0     C82311   6.069   5.171   3.728 -0.0648 -0.5892 -1.0905
  597MOL0     C82312   6.004   5.045   3.709 -0.0959  0.8772 -0.4204
  597MOL0     C82313   5.931   4.949   3.691 -0.2837  0.5756 -0.3777
  597MOL0     C82314   6.038   5.255   4.356 -0.9170 -0.2541 -0.6008
  597MOL0     C82315   5.922   5.253   4.435  0.2988 -0.0620 -0.5070
  597MOL0     C82316   5.942   5.283   4.585  0.3946  0.3143 -0.0472
  597MOL0     H82317   5.647   5.473   4.759 -0.0065 -1.0182 -0.7659
  597MOL0     H82318   5.492   5.471   4.937 -2.3408  0.0568  1.2331
  597MOL0     H82319   5.302   5.503   5.037 -2.1513  0.2453 -2.1986
  597MOL0     H82320   5.379   5.385   5.150  0.1798 -1.0711 -0.5444
  597MOL0     H82321   5.078   5.415   5.098 -0.3614  1.1320  0.3600
  597MOL0     H82322   5.156   5.283   5.161 -0.2306 -0.2780 -2.5053
  597MOL0     H82323   5.256   5.419   5.344  0.2808 -1.1571  0.6051
  597MOL0     H82324   5.175   5.571   5.275 -2.5562  0.0985 -1.8285
  597MOL0     H82325   4.956   5.458   5.343 -0.2608  1.8103 -1.1739
  597MOL0     H82326   5.053   5.319   5.407  0.7432 -0.3467  0.4543
  597MOL0     H82327   5.047   5.618   5.499  2.1686  0.3408 -0.1968
  597MOL0     H82328   5.164   5.487   5.546 -0.1697 -4.5012 -0.7488
  597MOL0     H82329   4.936   5.542   5.682 -1.1661 -2.0491  1.7246
  597MOL0     H82330   4.905   5.394   5.607  1.2466 -1.5892  1.3348
  597MOL0     H82331   5.166   5.428   5.760 -0.1331 -0.8884  1.6009
  597MOL0     H82332   5.094   5.281   5.690  2.1283  1.5727 -0.9530
  597MOL0     H82333   4.913   5.317   5.874 -0.4428  2.1825  1.2080
  597MOL0     H82334   5.073   5.275   5.920  0.5442 -0.3343 -1.1440
  597MOL0     H82335   5.208   5.474   6.073  0.3629  1.8112  2.1412
  597MOL0     H82336   5.113   5.831   6.170 -3.0719 -0.0962 -1.6763
  597MOL0     H82337   5.250   5.723   6.178  0.4355 -1.5825  0.4729
  597MOL0     H82338   5.115   5.588   6.358  0.0557  0.3209 -0.1059
  597MOL0     H82339   5.172   5.749   6.394  0.5160 -1.6928  1.5482
  597MOL0     H82340   4.938   5.836   6.315 -1.6432 -1.2233 -1.7449
  597MOL0     H82341   4.898   5.657   6.322 -1.2434 -0.3053  1.9951
  597MOL0     H82342   4.827   5.778   6.521  1.1466  2.8550  1.3981
  597MOL0     H82343   4.953   5.652   6.561  3.9156 -1.3695 -1.2051
  597MOL0     H82344   5.120   6.022   6.700 -1.3264  1.7028  0.6069
  597MOL0     H82345   5.159   6.131   7.016 -0.7242 -0.5832  0.6270
  597MOL0     H82346   5.195   6.166   6.856  1.5905  1.9054  2.2643
  597MOL0     H82347   5.293   6.043   6.936  1.2532  2.1733  1.5511
  597MOL0     H82348   5.043   5.583   7.330  1.7002  1.9961 -2.6260
  597MOL0     H82349   5.104   5.570   7.560 -0.8682  0.9656  2.9279
  597MOL0     H82350   5.148   5.872   7.792  1.0297  1.3249  3.6085
  597MOL0     H82351   4.980   5.885   7.862 -0.6949  0.2769  0.3526
  597MOL0     H82352   5.182   5.676   7.962  1.5613  0.1153 -1.1803
  597MOL0     H82353   5.148   5.842   8.038 -1.3683  0.6602 -0.6567
  597MOL0     H82354   4.944   5.625   7.988  0.8090  0.3296 -1.3642
  597MOL0     H82355   4.912   5.780   8.057  0.0438  0.2792 -0.1308
  597MOL0     H82356   5.073   5.746   8.227  1.1368  0.6539 -1.4677
  597MOL0     H82357   5.090   5.569   8.180 -1.0030 -1.3777  1.7664
  597MOL0     H82358   4.837   5.712   8.277  0.8263 -0.9294  0.8362
  597MOL0     H82359   4.845   5.542   8.219 -1.4607  0.0146  0.4027
  597MOL0     H82360   4.970   5.684   8.450  1.3394 -0.0405  0.1979
  597MOL0     H82361   5.020   5.522   8.401  0.9238  0.3598  0.4250
  597MOL0     H82362   4.768   5.440   8.422  1.8804 -0.9382 -1.3620
  597MOL0     H82363   4.727   5.609   8.451  1.1400  1.2338  1.3475
  597MOL0     H82364   4.749   5.466   8.665  2.4983 -3.8303 -0.5416
  597MOL0     H82365   4.859   5.610   8.665 -0.5903 -0.2487  1.6250
  597MOL0     H82366   4.932   5.956   7.638 -0.7002  0.9695 -0.9273
  597MOL0     H82367   4.879   5.977   7.398  2.3174  1.1360 -0.1543
  597MOL0     H82368   4.839   5.760   7.002  0.3591 -0.8292  0.0464
  597MOL0     H82369   4.824   5.734   6.755  0.3924 -0.6453 -2.8370
  597MOL0     H82370   5.297   5.131   4.790  0.3715 -0.9513  3.7761
  597MOL0     H82371   5.445   5.125   4.583 -1.8316  0.2700 -0.7187
  597MOL0     H82372   5.703   5.185   4.181  0.6355  2.1030 -1.9314
  597MOL0     H82373   5.916   5.183   4.056 -0.3622  1.5524 -0.0585
  597MOL0     H82374   6.077   5.319   3.990 -1.2573 -2.7584 -1.1362
  597MOL0     H82375   6.260   5.336   4.004  0.7664 -0.0608  1.0325
  597MOL0     H82376   6.098   5.080   3.976 -0.2394 -0.5075 -0.2688
  597MOL0     H82377   6.270   5.093   3.996 -0.8017 -1.1081 -0.2127
  597MOL0     H82378   6.278   5.230   3.784 -0.7647  1.7284  1.4657
  597MOL0     H82379   6.254   5.061   3.769  2.2100  1.6110 -0.6090
  597MOL0     H82380   6.081   5.194   3.622  0.0141  0.2747 -0.8983
  597MOL0     H82381   6.004   5.241   3.780  1.1437  0.7003 -1.2485
  597MOL0     H82382   5.889   4.851   3.676 -0.0267  0.2639  0.8710
  597MOL0     H82383   6.138   5.278   4.393 -1.4076  1.4879 -0.2863
  597MOL0     H82384   5.859   5.247   4.647  1.1348  0.2243  0.8982
  597MOL0     H82385   6.026   5.228   4.626  0.0920  0.0736  0.2549
  597MOL0     H82386   5.948   5.392   4.596 -3.4000  0.7405 -0.4895
  598MOL0     O82387   0.794   1.002  10.779  0.0300  0.0440 -0.0019
  598MOL0     C82388   0.839   0.953  10.880  0.8101  0.9890  0.2930
  598MOL0     O82389   0.965   0.977  10.920 -0.1777 -0.4542 -0.7257
  598MOL0     C82390   1.034   1.073  10.846  0.2055  0.4467  0.0813
  598MOL0     C82391   1.030   1.212  10.871 -0.3986  0.3106 -0.2040
  598MOL0     C82392   1.127   1.296  10.803  0.1127 -0.5477 -0.0606
  598MOL0     C82393   1.218   1.224  10.713  1.3351 -0.3842 -0.3363
  598MOL0     O82394   1.311   1.293  10.644  0.0284  0.1903  0.2502
  598MOL0     C82395   1.367   1.413  10.696 -0.6916 -0.2790  0.2066
  598MOL0     C82396   1.499   1.452  10.614  0.5560 -0.0420  0.3071
  598MOL0     C82397   1.570   1.577  10.657 -0.3054 -1.2533  0.7415
  598MOL0     C82398   1.492   1.707  10.643 -0.6215  0.1319  0.6334
  598MOL0     C82399   1.443   1.729  10.501 -0.4674 -0.6632 -0.0395
  598MOL0     C82400   1.564   1.741  10.401 -0.4976  1.0081 -1.0284
  598MOL0     C82401   1.523   1.803  10.271 -0.2055 -0.2090  0.7161
  598MOL0     C82402   1.657   1.824  10.190  0.1013 -0.6795 -0.1887
  598MOL0     N82403   1.673   1.960  10.132 -0.5836  0.6632 -0.6511
  598MOL0     C82404   1.687   2.078  10.200 -0.2122 -0.1068  0.0974
  598MOL0     C82405   1.721   2.170  10.109  0.6400  0.8361 -0.9958
  598MOL0     C82406   1.733   2.316  10.145  0.0360 -0.4199 -0.1330
  598MOL0     C82407   1.660   2.418  10.060 -0.1621 -0.0698 -0.9682
  598MOL0     C82408   1.678   2.568  10.109  0.9749 -0.5078  0.4455
  598MOL0     C82409   1.824   2.620  10.116 -0.0440  0.2097 -0.0598
  598MOL0     O82410   1.905   2.586  10.007 -0.0255 -0.5220  0.1510
  598MOL0     C82411   2.008   2.660   9.964  0.0354  0.0667 -0.4611
  598MOL0     C82412   2.024   2.800   9.985 -0.2230  0.6913  0.1893
  598MOL0     C82413   2.140   2.871   9.944  0.1644  0.4399  0.7623
  598MOL0     C82414   2.143   3.013   9.975 -0.1713  0.2167 -0.7363
  598MOL0     C82415   2.243   2.797   9.878 -0.7902 -0.2600  0.3418
  598MOL0     C82416   2.378   2.865   9.837 -0.3096  0.3561  0.8212
  598MOL0     O82417   2.474   2.788   9.806 -0.5269  0.0042  0.0539
  598MOL0     C82418   2.590   2.832   9.748 -0.5730 -0.0113  0.9512
  598MOL0     C82419   2.584   2.919   9.636  0.0180  1.0442 -0.2208
  598MOL0     C82420   2.707   2.957   9.577  0.0623 -0.5387 -0.7592
  598MOL0     C82421   2.823   2.901   9.618  0.2111  0.0474 -0.8208
  598MOL0     O82422   2.948   2.918   9.559 -0.1201 -0.3155  0.2438
  598MOL0     C82423   2.943   3.012   9.442  0.0143  0.3365 -0.2460
  598MOL0     C82424   3.069   2.987   9.364  0.1569  0.0250  0.4449
  598MOL0     C82425   3.078   2.845   9.306  0.5988 -0.1890  0.3991
  598MOL0     C82426   3.196   2.838   9.211  0.3017 -0.1748  0.0710
  598MOL0     C82427   3.218   2.697   9.159  0.1398 -0.4417 -0.6214
  598MOL0     C82428   3.118   2.645   9.060  0.1492  0.5138  0.1612
  598MOL0     C82429   3.172   2.531   8.960  0.1434 -0.2947 -0.5947
  598MOL0     C82430   3.209   2.403   9.037  0.4292 -0.2089  0.1508
  598MOL0    Cl82431   3.330   2.314   8.941  0.3702 -0.5186  0.1178
  598MOL0     C82432   2.826   2.809   9.723  0.8790 -0.4751  0.4597
  598MOL0     C82433   2.717   2.781   9.792  0.7839  0.5012  0.4525
  598MOL0     O82434   2.393   2.985   9.861  0.3079  0.3896 -0.2628
  598MOL0     C82435   2.226   2.658   9.849  0.3051 -0.5037 -0.4892
  598MOL0     C82436   2.114   2.591   9.910 -0.4730 -0.7951 -0.8750
  598MOL0     N82437   1.708   2.113   9.984 -0.0294  0.0186 -0.4033
  598MOL0     N82438   1.689   1.987  10.006  0.2052  0.3268  0.3498
  598MOL0     C82439   1.207   1.086  10.684  0.1087 -0.1085 -0.2883
  598MOL0     C82440   1.108   1.015  10.749  0.5364 -0.4623 -0.1127
  598MOL0     C82441   0.769   0.833  10.933  0.7794  0.5961 -0.2683
  598MOL0     C82442   0.638   0.813  10.896  0.3823  0.2347  1.0433
  598MOL0     C82443   0.553   0.715  10.943  0.2236  0.6617 -0.8441
  598MOL0     C82444   0.602   0.621  11.036  0.0389  0.8441  1.0397
  598MOL0     O82445   0.505   0.538  11.093 -0.2301  0.1949 -0.1133
  598MOL0     C82446   0.539   0.465  11.210  0.3695  0.3442 -0.3020
  598MOL0     C82447   0.410   0.411  11.277  0.9979  0.2240  0.1912
  598MOL0     C82448   0.440   0.348  11.404  0.0332  0.6758 -0.7211
  598MOL0     C82449   0.419   0.440  11.528  0.0924  0.7220  0.3091
  598MOL0     C82450   0.453   0.379  11.662 -0.0028  0.0408 -0.0767
  598MOL0     C82451   0.473   0.358  11.783  0.2441 -0.5906 -0.2705
  598MOL0     C82452   0.739   0.628  11.068  0.3838 -0.9545  0.4592
  598MOL0     C82453   0.821   0.726  11.014  0.0333  0.7664 -0.5772
  598MOL0     C82454   0.970   0.713  11.035  0.4865 -0.6745  0.3336
  598MOL0     H82455   0.962   1.246  10.948 -0.2102  2.6224 -0.9800
  598MOL0     H82456   1.142   1.402  10.823 -0.7750 -0.6494  1.2555
  598MOL0     H82457   1.376   1.394  10.803 -1.6936 -2.8962 -0.1145
  598MOL0     H82458   1.285   1.484  10.679 -0.2235  0.0048 -1.0404
  598MOL0     H82459   1.569   1.368  10.625  0.8912  0.1680 -0.2393
  598MOL0     H82460   1.477   1.469  10.509  1.1008  2.0231  0.4799
  598MOL0     H82461   1.613   1.561  10.756  0.3653  0.8443  0.8315
  598MOL0     H82462   1.662   1.597  10.601 -0.0829  1.1142  1.8546
  598MOL0     H82463   1.404   1.698  10.708 -0.3364 -4.9294  0.7108
  598MOL0     H82464   1.556   1.792  10.666  2.6240 -1.8917 -0.3259
  598MOL0     H82465   1.393   1.826  10.488  0.7759  0.0116  0.0865
  598MOL0     H82466   1.380   1.646  10.468  1.3214 -0.0373 -6.4486
  598MOL0     H82467   1.637   1.795  10.462 -4.0331  4.3490  0.7159
  598MOL0     H82468   1.607   1.642  10.385  1.1863  1.4279  0.6135
  598MOL0     H82469   1.462   1.893  10.282  0.2782  0.0586  1.2662
  598MOL0     H82470   1.460   1.732  10.217  1.1164  1.3094 -3.1803
  598MOL0     H82471   1.745   1.813  10.254 -0.2274  2.2154  0.9200
  598MOL0     H82472   1.666   1.742  10.118  1.2050 -1.5957  0.9427
  598MOL0     H82473   1.677   2.092  10.307  1.2864  1.9474  0.0373
  598MOL0     H82474   1.841   2.334  10.140  0.1889  0.0263  2.8993
  598MOL0     H82475   1.699   2.333  10.248 -1.6191 -0.4447 -0.6488
  598MOL0     H82476   1.677   2.410   9.952  0.0320  0.8425 -1.0169
  598MOL0     H82477   1.553   2.394  10.065  0.5995 -3.7041  1.1109
  598MOL0     H82478   1.622   2.629  10.038 -0.3811 -1.8504  0.3126
  598MOL0     H82479   1.641   2.575  10.212 -0.8512  0.5900 -0.2444
  598MOL0     H82480   1.841   2.727  10.136  2.1625  0.4727 -2.6995
  598MOL0     H82481   1.860   2.566  10.204 -0.5982 -0.6554 -0.3590
  598MOL0     H82482   1.948   2.866  10.027  2.3273  3.9745  0.0366
  598MOL0     H82483   2.063   3.041  10.044 -0.3659 -2.5455  0.2939
  598MOL0     H82484   2.142   3.079   9.888  0.3471  0.9484 -0.1917
  598MOL0     H82485   2.233   3.014  10.036  0.6912 -0.6862 -1.9278
  598MOL0     H82486   2.491   2.962   9.601  0.2734  1.2692 -0.6241
  598MOL0     H82487   2.698   3.035   9.502 -0.8016 -0.6167 -0.7537
  598MOL0     H82488   2.864   2.997   9.367  0.7597 -0.3250 -0.9209
  598MOL0     H82489   2.922   3.112   9.480 -2.4553 -0.8223  1.8081
  598MOL0     H82490   3.062   3.047   9.273  0.0877  1.8806  1.6109
  598MOL0     H82491   3.159   3.020   9.417  1.9502  0.6401 -2.7563
  598MOL0     H82492   2.989   2.814   9.251 -0.5081  1.3567  1.2311
  598MOL0     H82493   3.095   2.776   9.389 -0.3393  2.5897  3.1161
  598MOL0     H82494   3.279   2.868   9.276 -0.0506 -0.8258  0.8533
  598MOL0     H82495   3.178   2.913   9.133  0.2275  0.6556  0.8682
  598MOL0     H82496   3.317   2.688   9.113  0.7572  0.0202  0.5542
  598MOL0     H82497   3.227   2.639   9.252 -0.2203  0.1181 -0.2296
  598MOL0     H82498   3.089   2.732   9.001 -0.1111  0.7366  0.6155
  598MOL0     H82499   3.023   2.618   9.107 -1.6335  1.3034 -2.7729
  598MOL0     H82500   3.261   2.555   8.902 -1.0106  0.0695 -2.2649
  598MOL0     H82501   3.087   2.498   8.900 -0.2582 -1.6797  0.6483
  598MOL0     H82502   3.123   2.336   9.040  1.0876 -1.3445 -2.8058
  598MOL0     H82503   3.248   2.412   9.139  1.4551 -2.5563  0.0369
  598MOL0     H82504   2.914   2.767   9.771 -0.3521 -1.3197  2.0664
  598MOL0     H82505   2.730   2.731   9.887  0.9135 -1.7108 -0.6697
  598MOL0     H82506   2.300   2.601   9.795  0.2673  1.3978 -2.6942
  598MOL0     H82507   2.114   2.483   9.910 -0.9587 -0.9894  3.7582
  598MOL0     H82508   1.267   1.028  10.615  1.8733  1.6327 -0.2944
  598MOL0     H82509   1.088   0.909  10.734 -2.5624 -0.1785  1.3505
  598MOL0     H82510   0.600   0.879  10.819  1.0663 -0.8516 -0.2539
  598MOL0     H82511   0.452   0.709  10.906 -1.9260  1.6398  4.0850
  598MOL0     H82512   0.606   0.381  11.193  0.4741 -0.8380  4.4265
  598MOL0     H82513   0.585   0.537  11.278  1.0395  2.0333 -2.4465
  598MOL0     H82514   0.367   0.352  11.196  0.2197  3.0106 -1.5784
  598MOL0     H82515   0.340   0.494  11.295 -1.7120 -1.9497  0.3995
  598MOL0     H82516   0.372   0.262  11.413 -3.2477  3.2847  3.0285
  598MOL0     H82517   0.540   0.303  11.397  0.7653  2.3349 -1.2029
  598MOL0     H82518   0.316   0.476  11.529  0.1777  0.9922  1.4164
  598MOL0     H82519   0.473   0.534  11.517  4.6867 -1.4016  2.0216
  598MOL0     H82520   0.500   0.317  11.878  0.5310  1.1841  0.4438
  598MOL0     H82521   0.772   0.547  11.132 -0.8951 -0.7218  1.4415
  598MOL0     H82522   1.000   0.777  11.119  0.1839 -0.3418  0.1937
  598MOL0     H82523   0.983   0.609  11.067 -1.2512 -0.8423  0.6026
  598MOL0     H82524   1.024   0.734  10.943  1.7177 -0.0178  1.1781
  599MOL0     O82525   9.436  10.845  10.160  0.2845  0.0463  1.2639
  599MOL0     C82526   9.416  10.966  10.171 -0.4921 -0.4830  0.2320
  599MOL0     O82527   9.488  11.051  10.237  0.1082 -0.3901  0.2661
  599MOL0     C82528   9.587  11.001  10.307  0.6488 -0.0860 -0.1039
  599MOL0     C82529   9.565  10.932  10.427  0.4024  0.3649  1.1620
  599MOL0     C82530   9.680  10.889  10.496 -0.0617  0.1122 -0.0343
  599MOL0     C82531   9.809  10.920  10.442 -0.0872  0.3377 -1.6130
  599MOL0     O82532   9.929  10.875  10.506 -0.5979 -0.5415  0.4519
  599MOL0     C82533   9.959  10.890  10.645 -0.0730 -0.9885  0.0462
  599MOL0     C82534  10.077  10.795  10.678  0.2960  0.6340  0.4642
  599MOL0     C82535  10.165  10.852  10.787 -0.2607  0.7540 -0.4402
  599MOL0     C82536  10.252  10.747  10.868 -0.5382  0.2804 -0.0643
  599MOL0     C82537  10.354  10.792  10.974  0.6852  0.0446  0.0707
  599MOL0     C82538  10.397  10.684  11.074 -1.5742  0.1126  0.1674
  599MOL0     C82539  10.504  10.749  11.169 -0.4548  0.0476 -0.7676
  599MOL0     C82540  10.559  10.652  11.270  0.7322  0.3711 -0.3612
  599MOL0     N82541  10.666  10.714  11.351 -0.8208 -0.2269  0.2264
  599MOL0     C82542  10.803  10.691  11.325  0.6053 -1.0905 -0.0828
  599MOL0     C82543  10.855  10.779  11.415 -0.2219 -0.6325  0.2380
  599MOL0     C82544  11.006  10.809  11.425 -0.1297  0.5096  0.0166
  599MOL0     C82545  11.048  10.953  11.428  0.6267  0.1291 -0.8502
  599MOL0     C82546  11.040  11.026  11.292 -0.0590 -0.2292  0.8113
  599MOL0     C82547  11.135  11.149  11.290 -0.0882 -0.5442  0.3118
  599MOL0     O82548  11.264  11.089  11.287 -0.2835 -0.6417  0.6620
  599MOL0     C82549  11.355  11.185  11.254 -0.8480  0.1489 -0.3669
  599MOL0     C82550  11.351  11.317  11.275  0.0431  0.4378  0.4377
  599MOL0     C82551  11.456  11.408  11.241 -0.5556 -1.1639  0.7245
  599MOL0     C82552  11.440  11.546  11.299  0.1352 -0.2044  0.6443
  599MOL0     C82553  11.573  11.357  11.170 -0.4891 -0.6930 -0.5358
  599MOL0     C82554  11.689  11.440  11.126 -0.1896 -1.6795  0.8862
  599MOL0     O82555  11.800  11.377  11.074 -0.2774  0.0542  0.1337
  599MOL0     C82556  11.915  11.442  11.029  0.6504  0.6264  0.2081
  599MOL0     C82557  11.996  11.376  10.945 -0.3125 -0.0574  0.3041
  599MOL0     C82558  12.115  11.435  10.904  0.2637 -1.0678  0.2491
  599MOL0     C82559  12.160  11.567  10.933 -0.4668  0.7209  0.5101
  599MOL0     O82560  12.273  11.603  10.876  0.4008  0.6071  0.4069
  599MOL0     C82561  12.352  11.711  10.934 -0.1369  0.5901  0.5055
  599MOL0     C82562  12.460  11.760  10.829 -0.2139 -0.5840 -0.7648
  599MOL0     C82563  12.555  11.870  10.892  0.9760  0.2115 -0.2912
  599MOL0     C82564  12.629  11.939  10.768 -0.1426  0.1821  0.1550
  599MOL0     C82565  12.745  12.031  10.818 -0.1401  0.7854  0.7023
  599MOL0     C82566  12.854  12.058  10.708  1.6247 -0.2047 -0.2094
  599MOL0     C82567  12.967  12.134  10.768  0.1726  0.3294 -0.6117
  599MOL0     C82568  12.925  12.286  10.795 -1.3737 -0.4763 -0.0642
  599MOL0    Cl82569  12.826  12.325  10.950 -0.5138 -0.0090 -0.2523
  599MOL0     C82570  12.076  11.633  11.023 -0.7076  0.4747 -0.1590
  599MOL0     C82571  11.959  11.566  11.064  0.1111 -0.0608  0.0642
  599MOL0     O82572  11.674  11.564  11.138  0.2969 -0.1185 -0.2187
  599MOL0     C82573  11.572  11.222  11.141  0.7942 -0.1848 -0.7068
  599MOL0     C82574  11.468  11.130  11.183  1.0370 -0.0562 -0.8925
  599MOL0     N82575  10.757  10.833  11.491 -0.8249  0.0685 -0.1841
  599MOL0     N82576  10.646  10.800  11.452 -0.7310 -0.4615 -0.2548
  599MOL0     C82577   9.826  10.989  10.332 -0.0805 -0.4807  0.3683
  599MOL0     C82578   9.717  11.032  10.263  0.1633 -0.2298 -0.0281
  599MOL0     C82579   9.307  11.030  10.101  0.6119  0.5166  0.6240
  599MOL0     C82580   9.248  11.138  10.177 -0.2057 -1.0377  0.6862
  599MOL0     C82581   9.138  11.201  10.140 -0.4162 -0.4308  1.0115
  599MOL0     C82582   9.077  11.161  10.011 -0.1549  0.3151 -0.7482
  599MOL0     O82583   8.950  11.208   9.984 -0.2185 -0.0459  0.2011
  599MOL0     C82584   8.860  11.143   9.892  0.1941 -0.2570  0.8064
  599MOL0     C82585   8.741  11.240   9.858  0.3665  0.3348 -0.1069
  599MOL0     C82586   8.662  11.195   9.739 -0.0525  0.4931  0.8354
  599MOL0     C82587   8.565  11.071   9.762 -0.3040  0.6589  0.6921
  599MOL0     C82588   8.499  11.031   9.637 -0.8871 -1.0357 -0.8271
  599MOL0     C82589   8.436  10.981   9.553 -0.5635 -0.5621 -0.0923
  599MOL0     C82590   9.138  11.054   9.940 -0.3531 -1.2308  0.3448
  599MOL0     C82591   9.246  10.982   9.989 -0.0126  0.0191  0.0032
  599MOL0     C82592   9.275  10.846   9.915  0.3019 -0.5035 -0.6669
  599MOL0     H82593   9.464  10.903  10.452  0.9061 -2.9243 -0.1280
  599MOL0     H82594   9.676  10.831  10.588  2.5648 -2.5416 -1.4468
  599MOL0     H82595   9.864  10.877  10.698 -1.5116  0.5856 -1.9778
  599MOL0     H82596   9.987  10.995  10.656  1.7698 -1.2547 -1.6045
  599MOL0     H82597  10.035  10.701  10.716  0.4350  0.5567  0.4246
  599MOL0     H82598  10.136  10.784  10.587  3.4216  2.6359  2.0561
  599MOL0     H82599  10.232  10.923  10.739  0.4989  1.1673  1.1423
  599MOL0     H82600  10.109  10.904  10.865  0.3813  0.1870  0.4284
  599MOL0     H82601  10.177  10.683  10.916 -1.4024 -1.2216 -3.1455
  599MOL0     H82602  10.312  10.691  10.797 -1.1503 -0.2551 -0.1688
  599MOL0     H82603  10.307  10.871  11.034 -0.8988  0.3276 -1.4572
  599MOL0     H82604  10.441  10.833  10.922 -1.2726 -0.0961 -3.6816
  599MOL0     H82605  10.311  10.638  11.123 -0.8866 -0.4735  0.8473
  599MOL0     H82606  10.449  10.603  11.022 -2.3910 -0.9977  1.0599
  599MOL0     H82607  10.464  10.840  11.214  3.8358  1.7056  0.2707
  599MOL0     H82608  10.593  10.777  11.111  3.0809 -2.6127  2.8039
  599MOL0     H82609  10.483  10.625  11.344 -0.4344  2.1754 -0.8245
  599MOL0     H82610  10.589  10.564  11.212  1.3687  0.5479 -0.3109
  599MOL0     H82611  10.849  10.625  11.252 -0.5209  1.9039 -3.8312
  599MOL0     H82612  11.053  10.746  11.349  1.7952  0.4707  1.1747
  599MOL0     H82613  11.026  10.768  11.524  0.9919 -0.9929 -0.7756
  599MOL0     H82614  10.981  11.011  11.491  0.1519 -0.3384 -0.9221
  599MOL0     H82615  11.153  10.949  11.460  0.9643 -0.6566 -1.9776
  599MOL0     H82616  11.061  10.955  11.212  1.1979 -2.6291  3.1228
  599MOL0     H82617  10.938  11.063  11.278  0.0351 -0.5537 -1.0143
  599MOL0     H82618  11.110  11.197  11.195 -1.7722 -0.2325  0.8745
  599MOL0     H82619  11.106  11.224  11.365  0.6783  3.4984 -3.0683
  599MOL0     H82620  11.266  11.363  11.324 -0.4828 -1.4108  1.3404
  599MOL0     H82621  11.366  11.540  11.379 -0.7418  0.7065 -0.0743
  599MOL0     H82622  11.399  11.610  11.220 -1.9251 -0.2065  1.6601
  599MOL0     H82623  11.534  11.598  11.321  0.9697  1.3311 -4.9582
  599MOL0     H82624  11.960  11.276  10.921 -0.3460  0.3362 -1.3882
  599MOL0     H82625  12.185  11.371  10.851  3.0802  0.6649  1.6523
  599MOL0     H82626  12.292  11.798  10.962  0.8040  1.9860 -1.5147
  599MOL0     H82627  12.413  11.677  11.018  2.8382 -0.2706 -1.7851
  599MOL0     H82628  12.525  11.677  10.801 -0.6788 -1.0379 -0.5100
  599MOL0     H82629  12.411  11.801  10.740 -2.0407 -0.1061  0.4054
  599MOL0     H82630  12.622  11.835  10.970 -2.2855  1.1088  3.2245
  599MOL0     H82631  12.493  11.931  10.958 -0.7053 -4.1511  2.6208
  599MOL0     H82632  12.563  11.998  10.704 -0.8347 -2.0522 -1.2838
  599MOL0     H82633  12.665  11.858  10.706  1.8612  1.4568 -0.4397
  599MOL0     H82634  12.717  12.133  10.845 -0.7942  0.8172 -0.0714
  599MOL0     H82635  12.789  11.981  10.905  0.3856  0.5553  0.3051
  599MOL0     H82636  12.809  12.118  10.628  0.3787  2.9952  2.6714
  599MOL0     H82637  12.879  11.964  10.657 -3.3894 -0.3250 -3.0702
  599MOL0     H82638  13.056  12.119  10.708  2.2580 -1.0083  2.5551
  599MOL0     H82639  13.005  12.089  10.860 -0.2748  1.7658  0.3159
  599MOL0     H82640  12.865  12.330  10.715 -2.4993  0.9831  1.5152
  599MOL0     H82641  13.019  12.342  10.805 -0.9429 -1.4710  1.8114
  599MOL0     H82642  12.102  11.724  11.076 -0.3844 -0.3415  1.1337
  599MOL0     H82643  11.914  11.623  11.144 -2.4105 -2.0649  0.1987
  599MOL0     H82644  11.661  11.172  11.104  1.3291  1.4469 -1.7027
  599MOL0     H82645  11.464  11.022  11.170  2.1995 -0.3445  0.7398
  599MOL0     H82646   9.930  11.016  10.319  0.2326 -0.9933  1.5916
  599MOL0     H82647   9.723  11.097  10.176 -0.7664  0.0057  0.0782
  599MOL0     H82648   9.291  11.156  10.274 -1.2495 -1.7853  1.3104
  599MOL0     H82649   9.095  11.286  10.191  0.9244  1.0050 -0.1234
  599MOL0     H82650   8.897  11.117   9.792 -4.6751  2.4061 -2.0975
  599MOL0     H82651   8.843  11.047   9.942  2.0689 -0.6840  0.7193
  599MOL0     H82652   8.779  11.341   9.845 -0.1199  0.2480 -2.7161
  599MOL0     H82653   8.670  11.240   9.941 -0.7196 -0.8108 -0.9746
  599MOL0     H82654   8.592  11.274   9.709 -4.1323 -1.9933  2.8832
  599MOL0     H82655   8.729  11.194   9.652 -0.2261 -4.3962  0.5249
  599MOL0     H82656   8.500  11.090   9.848 -0.9631 -1.4058  0.7027
  599MOL0     H82657   8.622  10.982   9.791  0.1519  0.8685  0.4601
  599MOL0     H82658   8.393  10.920   9.476  2.7105 -0.3070 -2.3546
  599MOL0     H82659   9.098  11.010   9.849 -1.4995 -2.3582  1.3506
  599MOL0     H82660   9.208  10.847   9.828  2.2740  1.2714 -2.2624
  599MOL0     H82661   9.377  10.836   9.878  0.6001 -2.5613  0.5800
  599MOL0     H82662   9.259  10.758   9.978  0.4843 -1.3620 -1.7937
  600MOL0     O82663  10.442   6.520  10.306  0.7602 -0.4372  0.4770
  600MOL0     C82664  10.479   6.633  10.285 -0.3732  0.1578  0.1566
  600MOL0     O82665  10.564   6.670  10.183  0.3495 -0.0725  0.4177
  600MOL0     C82666  10.609   6.567  10.104  0.4631  0.2408 -0.9857
  600MOL0     C82667  10.733   6.499  10.133  0.8532 -0.9091  0.0868
  600MOL0     C82668  10.772   6.387  10.064  0.4780 -0.4596 -0.0827
  600MOL0     C82669  10.684   6.331   9.973 -1.0815 -0.3337  0.1074
  600MOL0     O82670  10.730   6.214   9.918 -0.6012  1.0568  1.0209
  600MOL0     C82671  10.645   6.127   9.845 -0.1852  0.0319  0.7044
  600MOL0     C82672  10.715   6.000   9.816  0.1642 -0.4915  0.4415
  600MOL0     C82673  10.627   5.887   9.758  0.6856  0.7614  0.6117
  600MOL0     C82674  10.715   5.763   9.718 -0.0617  0.8602  0.3292
  600MOL0     C82675  10.631   5.674   9.627 -0.5685  0.3517 -0.8022
  600MOL0     C82676  10.688   5.541   9.585  0.5462  0.0336 -0.0576
  600MOL0     C82677  10.794   5.555   9.475 -0.4459  0.3783 -0.4214
  600MOL0     C82678  10.902   5.452   9.468 -0.1406  0.4545 -0.0559
  600MOL0     N82679  10.863   5.334   9.394 -0.0351 -0.8464 -0.6818
  600MOL0     C82680  10.770   5.256   9.450 -0.1990 -0.1629 -0.3101
  600MOL0     C82681  10.739   5.172   9.352 -0.1643 -0.2207  0.2045
  600MOL0     C82682  10.640   5.061   9.366 -0.8093  1.6534 -0.2897
  600MOL0     C82683  10.500   5.118   9.408 -0.2880 -0.1370 -0.1648
  600MOL0     C82684  10.395   5.006   9.433 -0.0391  0.6181  0.5047
  600MOL0     C82685  10.424   4.939   9.565  0.0834  0.8179 -0.5806
  600MOL0     O82686  10.459   5.027   9.689 -0.0293 -0.2310 -0.0532
  600MOL0     C82687  10.483   4.950   9.799 -0.4695 -0.4003  0.2353
  600MOL0     C82688  10.475   5.033   9.913 -0.6639 -0.1037  1.0807
  600MOL0     C82689  10.502   4.979  10.038  0.1269  0.5704  0.6595
  600MOL0     C82690  10.496   5.070  10.158  0.7462  1.0160  0.1768
  600MOL0     C82691  10.526   4.836  10.049 -0.5820  0.5029 -0.6065
  600MOL0     C82692  10.567   4.763  10.175 -0.6123  0.9943 -0.2082
  600MOL0     O82693  10.608   4.627  10.170  0.8124 -0.7809 -0.3164
  600MOL0     C82694  10.703   4.574  10.258  0.7557 -0.3161  0.0407
  600MOL0     C82695  10.813   4.647  10.318  0.1838  0.3814 -1.1025
  600MOL0     C82696  10.902   4.583  10.401  0.2055  1.0310 -0.4063
  600MOL0     C82697  10.885   4.453  10.423 -0.3466 -0.1386  0.3090
  600MOL0     O82698  10.975   4.381  10.495 -0.2480  0.3005  0.2974
  600MOL0     C82699  11.109   4.424  10.490  0.0616  0.0568 -1.2912
  600MOL0     C82700  11.190   4.292  10.509  0.5757  0.2637  0.0468
  600MOL0     C82701  11.134   4.197  10.622 -1.2649  0.6219  0.5125
  600MOL0     C82702  11.211   4.063  10.627  0.3180  0.2462  0.7080
  600MOL0     C82703  11.169   3.983  10.750 -0.6036 -0.1417 -0.4814
  600MOL0     C82704  11.256   3.858  10.778  0.2013  0.4940  0.0426
  600MOL0     C82705  11.410   3.887  10.815  0.0276  0.4807  0.3505
  600MOL0     C82706  11.502   3.765  10.842  0.3236  0.5173  1.4484
  600MOL0    Cl82707  11.421   3.668  10.975  0.0593 -0.2031 -0.3633
  600MOL0     C82708  10.788   4.380  10.360  0.1073  0.8431 -0.7599
  600MOL0     C82709  10.691   4.436  10.283 -0.9921  0.0272  0.2976
  600MOL0     O82710  10.572   4.830  10.283  0.1063  0.0851  0.7130
  600MOL0     C82711  10.539   4.764   9.929  0.0634  0.2609 -0.0841
  600MOL0     C82712  10.508   4.814   9.809 -0.0919  0.7643  0.5970
  600MOL0     N82713  10.816   5.202   9.240 -0.7252  0.4207 -0.0449
  600MOL0     N82714  10.862   5.318   9.260 -1.0787 -1.0191  0.2369
  600MOL0     C82715  10.565   6.392   9.953 -0.1032  0.4132  0.8807
  600MOL0     C82716  10.525   6.508  10.011 -0.0557  0.5974 -0.4879
  600MOL0     C82717  10.419   6.750  10.362 -0.0863  0.4364  0.1266
  600MOL0     C82718  10.473   6.878  10.350  0.2173  0.7460 -0.0300
  600MOL0     C82719  10.405   6.988  10.403 -0.1275 -0.0240  0.2306
  600MOL0     C82720  10.303   6.967  10.496 -0.2598 -0.1401 -0.0078
  600MOL0     O82721  10.259   7.074  10.568 -0.3399 -0.1118 -0.6434
  600MOL0     C82722  10.177   7.054  10.685 -0.3022  0.6655  0.1920
  600MOL0     C82723  10.205   7.158  10.792 -0.5802 -0.4551 -0.2694
  600MOL0     C82724  10.131   7.290  10.780 -0.2673 -0.6531 -0.0150
  600MOL0     C82725  10.168   7.377  10.908 -0.5407  0.9516  0.3107
  600MOL0     C82726  10.105   7.509  10.908  0.5746  0.5698 -1.0382
  600MOL0     C82727  10.056   7.621  10.899 -0.0481  0.4499 -0.4460
  600MOL0     C82728  10.241   6.845  10.494  0.3800  0.1291  0.9648
  600MOL0     C82729  10.284   6.736  10.424  0.0991 -0.1017 -0.0195
  600MOL0     C82730  10.195   6.615  10.413  0.1727  0.1796 -0.2271
  600MOL0     H82731  10.798   6.529  10.214 -1.0887 -0.0703  1.4307
  600MOL0     H82732  10.867   6.335  10.069 -0.3667 -2.6997 -3.5549
  600MOL0     H82733  10.612   6.163   9.748 -1.5740 -3.6369 -0.3365
  600MOL0     H82734  10.571   6.114   9.924 -0.1120  3.4236  1.4762
  600MOL0     H82735  10.789   6.026   9.740 -0.4364  0.5472  0.1927
  600MOL0     H82736  10.780   5.965   9.896  2.4723  2.4465 -0.0007
  600MOL0     H82737  10.565   5.850   9.839  1.5846  1.9296  1.8752
  600MOL0     H82738  10.553   5.916   9.683  0.3791 -1.1211  0.1291
  600MOL0     H82739  10.796   5.808   9.660 -0.8879  2.1190  0.1018
  600MOL0     H82740  10.761   5.707   9.800  2.7183 -0.6120 -2.0748
  600MOL0     H82741  10.591   5.727   9.541 -0.5987 -0.1508 -1.1061
  600MOL0     H82742  10.545   5.644   9.688 -2.7968 -0.7396 -4.2322
  600MOL0     H82743  10.741   5.501   9.672 -0.8979  0.0438  0.8565
  600MOL0     H82744  10.607   5.478   9.548  1.4840 -0.7459 -0.8185
  600MOL0     H82745  10.835   5.655   9.488 -0.7479  0.1387  3.7820
  600MOL0     H82746  10.745   5.559   9.378 -1.4061  3.4039  0.0857
  600MOL0     H82747  10.982   5.505   9.417 -0.7015  0.1817 -1.2394
  600MOL0     H82748  10.940   5.428   9.568 -0.3609 -0.7160 -0.2415
  600MOL0     H82749  10.722   5.247   9.547 -1.4085  2.9708 -0.5077
  600MOL0     H82750  10.668   4.998   9.451 -3.0217  1.9499  0.7103
  600MOL0     H82751  10.628   4.998   9.277 -1.9017 -1.1940  1.7485
  600MOL0     H82752  10.500   5.176   9.501  0.7511 -0.0801 -0.1813
  600MOL0     H82753  10.462   5.187   9.333 -3.3889 -0.2426  1.1713
  600MOL0     H82754  10.294   5.048   9.439  1.0128  3.6844 -1.2212
  600MOL0     H82755  10.406   4.925   9.361  3.6567 -0.9972  2.6156
  600MOL0     H82756  10.331   4.892   9.598 -0.2702 -0.8189 -3.5802
  600MOL0     H82757  10.499   4.861   9.550  1.2793  1.3640  2.0099
  600MOL0     H82758  10.449   5.137   9.895 -1.1386 -0.3247  0.4393
  600MOL0     H82759  10.595   5.076  10.205  1.2531  0.8654 -0.8424
  600MOL0     H82760  10.423   5.028  10.228  0.6723  0.1723 -0.3913
  600MOL0     H82761  10.475   5.172  10.125  0.5900  1.1499  0.6785
  600MOL0     H82762  10.833   4.752  10.300  0.5367  0.4937 -0.1508
  600MOL0     H82763  10.987   4.632  10.447 -1.6114  1.2043  3.1045
  600MOL0     H82764  11.125   4.474  10.394 -0.8469  2.7558 -0.1235
  600MOL0     H82765  11.127   4.484  10.580 -0.2203  0.1881 -1.3240
  600MOL0     H82766  11.178   4.233  10.417 -1.3170 -0.8564  0.9280
  600MOL0     H82767  11.291   4.324  10.535  1.7925 -1.3388 -2.3345
  600MOL0     H82768  11.027   4.181  10.603 -1.2660 -1.7360  2.0830
  600MOL0     H82769  11.150   4.234  10.724  1.4933 -1.1441  0.8272
  600MOL0     H82770  11.317   4.088  10.627  0.8355 -0.8305 -4.4347
  600MOL0     H82771  11.199   4.008  10.533  0.1543  1.3468  0.0683
  600MOL0     H82772  11.180   4.048  10.837  2.2160 -0.9544 -0.1508
  600MOL0     H82773  11.062   3.958  10.745 -1.2066  1.2337  2.9903
  600MOL0     H82774  11.262   3.796  10.688  0.6691  0.0187  0.3974
  600MOL0     H82775  11.205   3.802  10.857 -2.5113  0.8925 -1.3145
  600MOL0     H82776  11.410   3.940  10.911 -0.4287  2.9900 -0.9351
  600MOL0     H82777  11.457   3.946  10.736  1.5793 -0.6960  0.3463
  600MOL0     H82778  11.595   3.803  10.885 -0.0883  2.6286  0.5725
  600MOL0     H82779  11.522   3.704  10.753  0.6903  4.2076 -1.2248
  600MOL0     H82780  10.782   4.273  10.371  0.8055  0.7568 -1.1476
  600MOL0     H82781  10.614   4.369  10.248 -2.4975  0.9710  1.6325
  600MOL0     H82782  10.569   4.659   9.924 -1.0292 -0.0286 -1.3034
  600MOL0     H82783  10.509   4.746   9.724  5.3450 -0.5519  1.3246
  600MOL0     H82784  10.492   6.346   9.887 -1.9893  3.1840  0.8455
  600MOL0     H82785  10.426   6.549   9.994 -1.1558 -1.4674  0.5590
  600MOL0     H82786  10.568   6.889  10.298 -0.4056  1.1123 -1.1173
  600MOL0     H82787  10.430   7.093  10.396 -1.5791  0.2042 -3.7863
  600MOL0     H82788  10.072   7.052  10.657 -0.1087  0.8285 -0.5832
  600MOL0     H82789  10.208   6.959  10.729  1.7904  1.6384  0.9689
  600MOL0     H82790  10.314   7.164  10.798 -0.6763  0.0833  2.3609
  600MOL0     H82791  10.170   7.117  10.887  0.0216 -1.2719 -0.3869
  600MOL0     H82792  10.170   7.342  10.692  0.3125 -0.7136  0.2021
  600MOL0     H82793  10.023   7.272  10.775 -0.0254 -1.9038 -1.8248
  600MOL0     H82794  10.276   7.389  10.916 -0.3915 -0.2551  0.2273
  600MOL0     H82795  10.134   7.318  10.994 -0.1883  1.2167  0.6372
  600MOL0     H82796  10.000   7.712  10.892 -0.4103  0.3565  0.8940
  600MOL0     H82797  10.151   6.823  10.552 -0.9482 -1.1624 -1.4045
  600MOL0     H82798  10.215   6.561  10.320  0.4906 -1.8658  0.9714
  600MOL0     H82799  10.205   6.551  10.501  0.4473  0.3403 -0.1388
  600MOL0     H82800  10.091   6.645  10.393 -0.3818 -2.3940 -1.7574
  601MOL0     O82801   1.745   8.343   3.688  0.0527 -0.3219  0.1333
  601MOL0     C82802   1.684   8.233   3.691 -0.2481 -0.4633 -0.8002
  601MOL0     O82803   1.744   8.107   3.679 -0.3029  0.6124 -0.1249
  601MOL0     C82804   1.877   8.109   3.653 -0.2060 -0.5617  0.5093
  601MOL0     C82805   1.962   8.040   3.734 -0.6592 -0.0898 -0.9233
  601MOL0     C82806   2.104   8.062   3.717 -0.2220 -0.0698  0.3608
  601MOL0     C82807   2.163   8.133   3.620  0.2894  0.2134 -0.1915
  601MOL0     O82808   2.299   8.159   3.610  0.0625 -0.7693  0.5573
  601MOL0     C82809   2.364   8.051   3.549 -0.2884 -0.2756 -0.6659
  601MOL0     C82810   2.455   8.110   3.446 -0.3624 -0.1287  0.1816
  601MOL0     C82811   2.394   8.203   3.345 -0.4525  0.3729 -0.8349
  601MOL0     C82812   2.492   8.305   3.290 -0.8040 -0.4746 -0.1129
  601MOL0     C82813   2.437   8.396   3.170  0.3435  0.6519 -0.4447
  601MOL0     C82814   2.547   8.492   3.108 -0.1296 -0.6386 -0.3393
  601MOL0     C82815   2.498   8.564   2.976 -0.9808  1.1258  0.4496
  601MOL0     C82816   2.606   8.659   2.913 -1.1996 -0.1424 -0.0857
  601MOL0     N82817   2.575   8.797   2.950 -0.8130  0.1872 -0.3612
  601MOL0     C82818   2.626   8.866   3.056  0.4180 -0.2583 -0.0235
  601MOL0     C82819   2.595   8.999   3.028  0.2803  0.0603  0.4260
  601MOL0     C82820   2.623   9.121   3.129 -0.3081  0.6536  0.1501
  601MOL0     C82821   2.735   9.207   3.093 -0.8932 -0.8486  0.7008
  601MOL0     C82822   2.738   9.326   3.192  0.3004 -1.0096 -0.3394
  601MOL0     C82823   2.827   9.439   3.143  0.3424 -0.9455  0.0463
  601MOL0     O82824   2.768   9.493   3.023 -0.0290  0.0435 -0.3726
  601MOL0     C82825   2.795   9.626   2.984  0.0069 -0.1595  0.6719
  601MOL0     C82826   2.892   9.719   3.039  0.5604 -0.0543 -0.7413
  601MOL0     C82827   2.920   9.853   2.989  0.3934  0.6588 -0.3816
  601MOL0     C82828   3.022   9.945   3.048 -0.8201 -0.2493 -0.5136
  601MOL0     C82829   2.827   9.892   2.888 -0.2026 -0.3662  0.8952
  601MOL0     C82830   2.826  10.028   2.822  0.1556  0.0687 -0.3795
  601MOL0     O82831   2.767  10.029   2.694  0.0691  0.5429 -0.6812
  601MOL0     C82832   2.771  10.145   2.623  1.5382 -0.0669 -0.5695
  601MOL0     C82833   2.884  10.191   2.561  0.2999  0.8680  0.0654
  601MOL0     C82834   2.889  10.321   2.497  0.9541 -0.2720  0.1186
  601MOL0     C82835   2.774  10.400   2.488 -0.3818 -0.1511 -0.4077
  601MOL0     O82836   2.793  10.515   2.425  0.8285 -0.0040 -0.4966
  601MOL0     C82837   2.754  10.626   2.514 -0.4350  0.6686 -1.4195
  601MOL0     C82838   2.745  10.758   2.427 -0.2330  0.4603 -0.6446
  601MOL0     C82839   2.886  10.811   2.377  0.0457  0.1770 -0.2186
  601MOL0     C82840   2.875  10.960   2.352  0.3708  0.0184 -0.1895
  601MOL0     C82841   3.003  11.014   2.305 -0.1569 -0.3799  0.1875
  601MOL0     C82842   3.004  11.164   2.272  0.0160  0.0251 -0.0072
  601MOL0     C82843   3.142  11.201   2.214 -0.1322 -0.0938  0.9453
  601MOL0     C82844   3.149  11.354   2.188 -1.0402  0.6718 -1.0518
  601MOL0    Cl82845   3.302  11.403   2.111  0.0083  0.6068  0.3430
  601MOL0     C82846   2.652  10.346   2.532 -0.0492 -0.4661  0.0993
  601MOL0     C82847   2.648  10.217   2.603 -0.4102 -0.0728  1.1343
  601MOL0     O82848   2.881  10.119   2.880  0.0945  0.2463 -0.0325
  601MOL0     C82849   2.725   9.806   2.849  0.1614  0.4741  0.8302
  601MOL0     C82850   2.708   9.673   2.887  0.2076  0.3908  0.6276
  601MOL0     N82851   2.522   9.003   2.908  0.1014  0.5172 -0.1612
  601MOL0     N82852   2.495   8.877   2.866 -0.4192  0.5079  0.2048
  601MOL0     C82853   2.066   8.191   3.535 -0.4800  0.4258 -0.3553
  601MOL0     C82854   1.929   8.182   3.549  0.9300  0.5573 -0.0281
  601MOL0     C82855   1.537   8.230   3.713 -0.3079  0.2755 -0.5541
  601MOL0     C82856   1.474   8.339   3.675  0.3266  0.0229  0.2404
  601MOL0     C82857   1.332   8.341   3.680  0.7663 -0.0863  0.1266
  601MOL0     C82858   1.260   8.235   3.722 -0.1869 -0.3486  0.3104
  601MOL0     O82859   1.129   8.233   3.738 -0.0115 -0.3517 -0.0615
  601MOL0     C82860   1.064   8.364   3.739  0.9074 -0.1841 -0.0671
  601MOL0     C82861   0.926   8.342   3.795  0.0329  0.9115 -0.3382
  601MOL0     C82862   0.923   8.286   3.933 -0.2721 -0.6374  0.0607
  601MOL0     C82863   0.771   8.270   3.982  0.2063 -0.2709 -0.0450
  601MOL0     C82864   0.756   8.234   4.123  0.9683 -0.7430  0.1151
  601MOL0     C82865   0.747   8.213   4.245 -0.3787 -0.0211  0.1931
  601MOL0     C82866   1.328   8.124   3.761 -0.0500  0.3882  0.7146
  601MOL0     C82867   1.467   8.120   3.770  0.4840 -0.7774  0.5817
  601MOL0     C82868   1.529   7.994   3.828 -0.0753  0.1565 -0.5932
  601MOL0     H82869   1.924   7.982   3.817 -1.4232 -0.7198 -1.6874
  601MOL0     H82870   2.167   8.026   3.797  1.5128 -1.5574 -1.5509
  601MOL0     H82871   2.296   7.985   3.495  1.4577  0.2259 -3.7664
  601MOL0     H82872   2.424   8.007   3.629  1.2881  2.1477 -0.3958
  601MOL0     H82873   2.533   8.164   3.499 -2.0261  2.9795 -0.3172
  601MOL0     H82874   2.511   8.035   3.389  1.3830  2.2316 -1.3864
  601MOL0     H82875   2.338   8.143   3.272 -1.3169 -0.5397  0.5425
  601MOL0     H82876   2.311   8.264   3.381 -0.1133  0.9915 -1.0909
  601MOL0     H82877   2.525   8.370   3.372  1.8359  0.8867 -2.1218
  601MOL0     H82878   2.582   8.256   3.253  1.2620  1.8657  1.4963
  601MOL0     H82879   2.353   8.460   3.199  0.0518  0.5169 -0.9752
  601MOL0     H82880   2.407   8.320   3.097  1.7220 -2.8268  2.2836
  601MOL0     H82881   2.563   8.567   3.186 -0.0941  0.4421 -1.3629
  601MOL0     H82882   2.630   8.424   3.084 -0.0929 -0.7121 -0.0088
  601MOL0     H82883   2.402   8.615   2.985 -2.0341 -1.0830  3.0543
  601MOL0     H82884   2.482   8.480   2.908 -1.5396  0.4178  1.4328
  601MOL0     H82885   2.701   8.617   2.948 -1.1043 -0.5072 -0.7597
  601MOL0     H82886   2.596   8.637   2.807 -1.2947  1.8175 -0.5273
  601MOL0     H82887   2.676   8.822   3.142 -0.0578  1.3516  1.1237
  601MOL0     H82888   2.641   9.080   3.229 -0.5017 -0.6632 -0.3356
  601MOL0     H82889   2.535   9.185   3.138 -0.4128  0.5666 -0.2452
  601MOL0     H82890   2.827   9.152   3.110 -0.9271 -0.5546  1.9254
  601MOL0     H82891   2.726   9.237   2.988  1.5995 -3.5480 -0.4077
  601MOL0     H82892   2.638   9.364   3.218 -0.8527 -3.9551  0.0071
  601MOL0     H82893   2.770   9.297   3.293  0.3831  0.0391 -0.0582
  601MOL0     H82894   2.840   9.520   3.216  3.0734 -1.5973  0.4091
  601MOL0     H82895   2.931   9.407   3.128  1.2282  1.2412  0.9855
  601MOL0     H82896   2.953   9.684   3.122 -1.1707 -0.6496  0.3230
  601MOL0     H82897   3.097   9.900   3.114 -0.9905  2.6421  1.9153
  601MOL0     H82898   2.961   9.992   3.126  0.7259  0.8652  0.0962
  601MOL0     H82899   3.060  10.022   2.981 -3.5228  2.3295  0.6679
  601MOL0     H82900   2.973  10.128   2.557  0.0962  0.6435 -2.2234
  601MOL0     H82901   2.978  10.365   2.454 -1.5266  1.5137 -3.7817
  601MOL0     H82902   2.653  10.621   2.556 -0.5893  0.7815 -1.7719
  601MOL0     H82903   2.831  10.641   2.590 -0.7238 -1.7323 -0.5717
  601MOL0     H82904   2.677  10.733   2.345 -0.3686 -0.0794 -0.3719
  601MOL0     H82905   2.695  10.830   2.492 -0.0542 -0.7017  0.8619
  601MOL0     H82906   2.934  10.763   2.291  1.6923  0.0089  0.7517
  601MOL0     H82907   2.952  10.789   2.462 -2.0231 -2.4397  0.8651
  601MOL0     H82908   2.841  11.014   2.440  0.4255  2.9357 -1.8620
  601MOL0     H82909   2.803  10.983   2.273  0.8074 -0.7180 -0.8277
  601MOL0     H82910   3.082  10.999   2.378 -1.2436 -3.3009  0.9017
  601MOL0     H82911   3.032  10.965   2.211  0.5063 -0.5534  0.4778
  601MOL0     H82912   2.990  11.222   2.363 -2.6842  2.9111 -2.0344
  601MOL0     H82913   2.928  11.196   2.200  1.8019  0.2595 -1.8909
  601MOL0     H82914   3.153  11.153   2.116  0.2554  1.4486  0.1995
  601MOL0     H82915   3.219  11.164   2.283 -0.5157 -1.7281  0.5424
  601MOL0     H82916   3.135  11.407   2.282  0.6712 -2.9797  1.5160
  601MOL0     H82917   3.079  11.384   2.110 -0.8359  0.5079 -1.2990
  601MOL0     H82918   2.558  10.400   2.538  0.6937  0.7657  1.0740
  601MOL0     H82919   2.551  10.178   2.633 -0.9413 -0.5503 -1.0405
  601MOL0     H82920   2.655   9.828   2.769  1.6540 -1.8670 -1.2620
  601MOL0     H82921   2.637   9.601   2.848 -0.9296  0.2839  2.7708
  601MOL0     H82922   2.105   8.251   3.454 -2.7294  1.1093 -0.9805
  601MOL0     H82923   1.861   8.236   3.483 -1.2853 -0.9262  0.9089
  601MOL0     H82924   1.523   8.435   3.662  3.1056 -1.3827 -0.5080
  601MOL0     H82925   1.293   8.440   3.658  2.8822  0.7650 -0.0267
  601MOL0     H82926   1.121   8.431   3.804  0.1480  0.5518 -0.1441
  601MOL0     H82927   1.059   8.398   3.636  3.9398 -1.4009 -0.7184
  601MOL0     H82928   0.868   8.277   3.729 -1.5448 -0.5008  2.2730
  601MOL0     H82929   0.876   8.439   3.796 -2.3911 -0.2552 -0.0205
  601MOL0     H82930   0.962   8.184   3.928  2.2041  0.0991  2.3444
  601MOL0     H82931   0.989   8.347   3.995 -0.0093 -1.1338  0.2732
  601MOL0     H82932   0.719   8.202   3.914  1.1865 -1.7189  0.5869
  601MOL0     H82933   0.718   8.365   3.984  1.6812  0.6880  4.1704
  601MOL0     H82934   0.747   8.188   4.349  0.7661  2.6143  0.9082
  601MOL0     H82935   1.287   8.032   3.803  1.1706 -0.7256 -0.4799
  601MOL0     H82936   1.552   7.920   3.751 -2.4539 -1.2170 -0.0963
  601MOL0     H82937   1.613   8.017   3.894  1.3898  0.3647 -2.4353
  601MOL0     H82938   1.449   7.952   3.890  1.4466  1.6872  2.6733
  602MOL0     O82939   8.033   4.362   1.544 -0.0682  0.1285 -0.2174
  602MOL0     C82940   8.138   4.436   1.539 -0.5930 -0.0224  0.8793
  602MOL0     O82941   8.266   4.396   1.528  0.0704 -0.1138 -1.0246
  602MOL0     C82942   8.287   4.263   1.521 -0.9385 -0.3706  0.4044
  602MOL0     C82943   8.215   4.155   1.563  0.5509 -0.7794 -0.3817
  602MOL0     C82944   8.278   4.028   1.577 -0.1185  0.1483  0.1315
  602MOL0     C82945   8.404   4.006   1.539 -0.4770  0.4836 -0.0356
  602MOL0     O82946   8.452   3.881   1.563  0.1433  0.4517 -0.4151
  602MOL0     C82947   8.592   3.868   1.549 -0.5879  0.3157  0.1253
  602MOL0     C82948   8.654   3.751   1.627  0.3673  0.9246  0.2211
  602MOL0     C82949   8.633   3.607   1.561 -0.1938  0.0105 -0.6488
  602MOL0     C82950   8.705   3.514   1.644  0.4866 -0.5236 -0.0838
  602MOL0     C82951   8.689   3.367   1.597  0.0021 -0.7998  0.1953
  602MOL0     C82952   8.563   3.313   1.674 -0.0292  0.8905 -1.2934
  602MOL0     C82953   8.547   3.158   1.636 -0.0339 -0.5551  0.2830
  602MOL0     C82954   8.667   3.079   1.677 -0.3370 -0.7007  0.2357
  602MOL0     N82955   8.707   3.074   1.815  0.1801 -0.0354  0.0906
  602MOL0     C82956   8.786   3.175   1.874 -0.2655 -0.1302  0.3798
  602MOL0     C82957   8.781   3.154   2.006  0.2010  0.2047  0.2045
  602MOL0     C82958   8.868   3.203   2.115 -0.2978 -0.1266  0.6923
  602MOL0     C82959   8.793   3.265   2.234  0.1923  0.1199  0.1179
  602MOL0     C82960   8.885   3.303   2.348 -0.2376  0.1967 -0.2921
  602MOL0     C82961   8.833   3.258   2.484 -0.0543 -0.1351 -0.3432
  602MOL0     O82962   8.911   3.330   2.592  0.3807  0.3580  0.4701
  602MOL0     C82963   9.020   3.267   2.649 -0.7236 -0.5655  0.1169
  602MOL0     C82964   9.055   3.319   2.778  0.5488  0.3329 -0.4357
  602MOL0     C82965   9.177   3.265   2.835 -0.1813  0.3531  0.2200
  602MOL0     C82966   9.225   3.349   2.954 -0.9073 -0.4882 -0.0445
  602MOL0     C82967   9.237   3.150   2.785 -0.4642 -0.3888 -0.0469
  602MOL0     C82968   9.345   3.089   2.847  0.5987 -1.2779  0.1657
  602MOL0     O82969   9.442   3.040   2.767 -0.6238 -0.0923  0.7069
  602MOL0     C82970   9.550   2.966   2.802  0.3331  0.2652  0.1513
  602MOL0     C82971   9.644   3.022   2.890 -0.3491  0.5904  0.0248
  602MOL0     C82972   9.758   2.951   2.922  0.4052  0.2754  0.5967
  602MOL0     C82973   9.785   2.828   2.857  0.9800 -0.1184 -0.3416
  602MOL0     O82974   9.904   2.772   2.905  0.6928 -0.2073  0.7940
  602MOL0     C82975   9.917   2.629   2.909 -0.8720  0.0716  0.2206
  602MOL0     C82976  10.060   2.574   2.934 -0.4816 -0.1711  0.2531
  602MOL0     C82977  10.146   2.659   3.025  0.6917 -0.8212 -0.2071
  602MOL0     C82978  10.267   2.580   3.056 -0.1256  0.4313 -0.2256
  602MOL0     C82979  10.382   2.667   3.110 -0.3186 -0.3289  0.0394
  602MOL0     C82980  10.515   2.589   3.142  0.5604  0.8902  0.4473
  602MOL0     C82981  10.608   2.664   3.238 -0.1621  0.7346 -0.4311
  602MOL0     C82982  10.601   2.601   3.381  0.3406 -0.3305 -0.2401
  602MOL0    Cl82983  10.690   2.711   3.496  0.0117 -0.0444  0.3200
  602MOL0     C82984   9.686   2.780   2.770 -0.2761  0.2031 -0.6022
  602MOL0     C82985   9.569   2.851   2.739 -0.0944 -0.3519 -0.4450
  602MOL0     O82986   9.339   3.082   2.967 -0.2548  0.6264 -0.1161
  602MOL0     C82987   9.196   3.108   2.659 -0.8064 -0.1077 -0.3688
  602MOL0     C82988   9.087   3.163   2.589  0.2474 -0.0907 -0.1696
  602MOL0     N82989   8.698   3.041   2.026  0.3731  0.6458  0.6341
  602MOL0     N82990   8.653   2.997   1.915  0.0164 -0.4926  1.0499
  602MOL0     C82991   8.466   4.114   1.474 -0.8526  0.4115 -0.2356
  602MOL0     C82992   8.412   4.241   1.470 -0.0985 -0.0278  0.5936
  602MOL0     C82993   8.109   4.585   1.552 -0.4279 -0.4026 -0.3874
  602MOL0     C82994   7.979   4.628   1.573 -0.7031 -1.4978  0.7213
  602MOL0     C82995   7.947   4.763   1.567  0.2341 -0.2077 -0.1668
  602MOL0     C82996   8.043   4.864   1.547 -0.3285 -0.1915 -0.3654
  602MOL0     O82997   8.030   4.998   1.535  0.5702 -0.4106  0.0059
  602MOL0     C82998   7.920   5.050   1.453  0.8340 -0.0977 -0.7015
  602MOL0     C82999   7.937   5.194   1.412 -0.1379  0.3751 -0.1497
  602MOL0     C83000   8.051   5.205   1.308  0.0074  0.1398  0.4784
  602MOL0     C83001   8.074   5.349   1.290  0.0612 -0.2175 -0.1071
  602MOL0     C83002   8.198   5.358   1.211  0.4604 -0.4869 -0.2413
  602MOL0     C83003   8.300   5.368   1.148  0.3328  0.4335  0.0503
  602MOL0     C83004   8.168   4.817   1.536  0.3455 -0.1241 -0.1537
  602MOL0     C83005   8.200   4.688   1.539 -0.0810  0.9115 -1.4739
  602MOL0     C83006   8.348   4.654   1.527 -0.4848 -0.6780  0.1397
  602MOL0     H83007   8.122   4.160   1.618  0.5060  1.3439 -0.5638
  602MOL0     H83008   8.222   3.946   1.621  1.2701  0.2508  2.2224
  602MOL0     H83009   8.653   3.957   1.562 -0.2949  0.1254  0.0515
  602MOL0     H83010   8.599   3.842   1.443  0.2495 -2.4627  0.7753
  602MOL0     H83011   8.759   3.770   1.648  0.3780 -0.0176  1.0880
  602MOL0     H83012   8.610   3.738   1.726  1.3266 -3.8537  0.2828
  602MOL0     H83013   8.529   3.579   1.545  0.1577 -0.2821 -2.7469
  602MOL0     H83014   8.675   3.614   1.460 -0.1350 -3.8519 -1.0112
  602MOL0     H83015   8.809   3.546   1.633 -0.3105  3.0164  1.2836
  602MOL0     H83016   8.685   3.523   1.751 -1.0834 -0.4012 -0.3613
  602MOL0     H83017   8.784   3.319   1.624  0.9915  1.5793  1.1955
  602MOL0     H83018   8.674   3.366   1.489  0.5937  3.4362 -0.0777
  602MOL0     H83019   8.581   3.324   1.781  1.5035  0.6069 -1.4863
  602MOL0     H83020   8.473   3.366   1.643  0.5775  1.4457 -2.1769
  602MOL0     H83021   8.535   3.148   1.528 -3.7775 -2.1860  0.6792
  602MOL0     H83022   8.450   3.120   1.669 -0.9059  1.7673  0.5947
  602MOL0     H83023   8.639   2.976   1.650 -2.3053 -0.7161  2.1236
  602MOL0     H83024   8.752   3.106   1.614  2.6207  0.3777  4.2568
  602MOL0     H83025   8.851   3.252   1.836  0.7077 -1.2804 -0.3358
  602MOL0     H83026   8.922   3.284   2.067  1.4517 -1.7959 -0.2720
  602MOL0     H83027   8.941   3.127   2.145 -2.6414 -2.9159 -0.1411
  602MOL0     H83028   8.746   3.354   2.191  0.2217 -1.0517 -2.5544
  602MOL0     H83029   8.710   3.199   2.261 -3.2532  4.5307  1.6616
  602MOL0     H83030   8.980   3.256   2.320 -0.8917 -0.8128 -0.8885
  602MOL0     H83031   8.890   3.412   2.348  3.7207  0.1880  0.8840
  602MOL0     H83032   8.728   3.291   2.484  0.4616  1.9144 -3.1519
  602MOL0     H83033   8.845   3.150   2.494  3.2460  0.1955  0.3547
  602MOL0     H83034   9.013   3.416   2.805 -1.8418 -1.5010  3.2025
  602MOL0     H83035   9.334   3.356   2.966 -0.9380  2.4395 -0.5768
  602MOL0     H83036   9.186   3.314   3.049 -2.5622 -1.5584 -1.0827
  602MOL0     H83037   9.197   3.455   2.946  0.5341 -0.0540  0.2497
  602MOL0     H83038   9.623   3.119   2.933  1.6517  0.0638  2.4287
  602MOL0     H83039   9.820   3.002   2.995  0.1028  1.2679  0.1789
  602MOL0     H83040   9.854   2.592   2.991 -1.4212  1.2721  0.3566
  602MOL0     H83041   9.879   2.588   2.815 -1.0772  1.0083 -0.1176
  602MOL0     H83042  10.051   2.475   2.979  0.4189  0.3012  1.4994
  602MOL0     H83043  10.116   2.564   2.840  0.6146 -2.5957  1.0677
  602MOL0     H83044  10.099   2.694   3.117  1.3777 -0.7683  0.1263
  602MOL0     H83045  10.169   2.746   2.963  1.7736 -2.5246 -2.3605
  602MOL0     H83046  10.300   2.527   2.966  1.9093 -0.0433  0.7285
  602MOL0     H83047  10.240   2.500   3.126  1.2935  0.7638  0.7462
  602MOL0     H83048  10.409   2.745   3.038  2.9524  1.0927  2.5592
  602MOL0     H83049  10.346   2.727   3.194  0.7397 -1.5120  1.3747
  602MOL0     H83050  10.583   2.591   3.056  1.0523 -1.0710  0.7525
  602MOL0     H83051  10.504   2.485   3.171  1.3779  0.8048  0.4828
  602MOL0     H83052  10.579   2.769   3.233 -1.6330  0.5225  1.8423
  602MOL0     H83053  10.713   2.655   3.210  0.2452 -2.0472  1.5599
  602MOL0     H83054  10.635   2.497   3.380 -0.6304 -0.7273 -3.4570
  602MOL0     H83055  10.497   2.591   3.412 -0.6484  0.5331 -2.9772
  602MOL0     H83056   9.696   2.681   2.727  2.2326  0.0979  0.0189
  602MOL0     H83057   9.477   2.828   2.685 -1.0754  1.6295  0.2892
  602MOL0     H83058   9.258   3.024   2.629  0.5332  0.0820  1.6602
  602MOL0     H83059   9.057   3.121   2.494  0.5112  0.5329 -0.5324
  602MOL0     H83060   8.565   4.109   1.430 -0.1109 -0.3786  1.4528
  602MOL0     H83061   8.457   4.328   1.422 -3.2195  1.0424 -0.6943
  602MOL0     H83062   7.903   4.552   1.587  0.9569 -3.4271 -0.0868
  602MOL0     H83063   7.844   4.791   1.585  1.0972  3.0728  0.2731
  602MOL0     H83064   7.903   4.985   1.367 -0.5036  2.2707 -2.3140
  602MOL0     H83065   7.830   5.061   1.514  1.5445  1.7270  0.0781
  602MOL0     H83066   7.962   5.248   1.503 -1.3155  0.9298 -0.1337
  602MOL0     H83067   7.843   5.240   1.380  1.4712  1.7132 -3.4304
  602MOL0     H83068   8.140   5.151   1.342 -0.6962 -1.9891 -0.8499
  602MOL0     H83069   8.022   5.150   1.219 -1.0909 -0.1823  1.0158
  602MOL0     H83070   8.098   5.384   1.391  0.7303  0.4053 -0.4745
  602MOL0     H83071   7.991   5.398   1.239 -0.0445 -1.2156 -0.9299
  602MOL0     H83072   8.400   5.365   1.109  0.5606  0.0140  0.6580
  602MOL0     H83073   8.242   4.895   1.530 -0.5964  0.8342  0.4057
  602MOL0     H83074   8.381   4.590   1.609 -0.7083 -0.0899  0.6951
  602MOL0     H83075   8.362   4.608   1.429 -1.7032  2.0320 -1.4218
  602MOL0     H83076   8.406   4.746   1.520  0.5226 -1.4042 -1.8918
  603MOL0     O83077   9.394  11.109   8.584 -0.1385 -0.1664  0.5698
  603MOL0     C83078   9.429  11.018   8.513 -0.1863  0.2093 -0.1532
  603MOL0     O83079   9.464  11.033   8.379  0.9741  0.0549  0.3081
  603MOL0     C83080   9.515  11.153   8.334  0.3088 -0.3349  0.1730
  603MOL0     C83081   9.573  11.249   8.410 -0.1152  0.2978 -0.3449
  603MOL0     C83082   9.614  11.368   8.357  0.8673 -0.3215  1.2755
  603MOL0     C83083   9.604  11.399   8.217 -1.2695  0.0800 -0.0916
  603MOL0     O83084   9.653  11.519   8.177 -0.0194  0.9081 -0.1491
  603MOL0     C83085   9.653  11.549   8.035  0.7524 -0.3088  0.6857
  603MOL0     C83086   9.696  11.697   8.005 -0.1012 -0.1428 -0.3915
  603MOL0     C83087   9.847  11.708   7.999  0.1126  0.5136  0.0832
  603MOL0     C83088   9.911  11.646   7.873 -0.1828 -0.1814  1.0627
  603MOL0     C83089  10.059  11.652   7.868  0.0425 -0.0303  0.3157
  603MOL0     C83090  10.126  11.558   7.969  0.4255 -0.2477  0.6248
  603MOL0     C83091  10.278  11.546   7.953  0.3643  0.7511 -0.9593
  603MOL0     C83092  10.347  11.679   7.973  0.1104  0.4547  0.4034
  603MOL0     N83093  10.325  11.747   8.094 -0.3386  0.1810 -0.2805
  603MOL0     C83094  10.382  11.714   8.213 -0.2167 -0.3011  0.9850
  603MOL0     C83095  10.344  11.813   8.304 -0.5277 -0.0384  0.5978
  603MOL0     C83096  10.405  11.841   8.439  0.0191 -0.7208  0.6410
  603MOL0     C83097  10.476  11.982   8.430 -0.9738  0.7614 -0.0166
  603MOL0     C83098  10.568  12.002   8.547 -0.9965 -0.8781  0.2448
  603MOL0     C83099  10.664  11.883   8.574 -0.2510 -0.8270 -0.1619
  603MOL0     O83100  10.781  11.932   8.629 -0.2309  0.4611 -0.2827
  603MOL0     C83101  10.778  11.962   8.763 -0.2372 -0.8168 -0.2549
  603MOL0     C83102  10.878  12.062   8.792 -0.4345  1.7963 -0.0668
  603MOL0     C83103  10.914  12.081   8.930  0.2475  1.5876 -0.0386
  603MOL0     C83104  11.027  12.175   8.957 -0.3444 -0.3673  0.2209
  603MOL0     C83105  10.838  12.006   9.028 -0.0866  0.1591 -0.4570
  603MOL0     C83106  10.857  12.026   9.172  1.0296  0.3371  0.3740
  603MOL0     O83107  10.981  12.063   9.217 -0.6869 -0.1906 -0.0686
  603MOL0     C83108  11.006  12.122   9.347  0.3836  0.6675  0.2307
  603MOL0     C83109  11.145  12.165   9.365 -0.4233 -0.7598  0.7918
  603MOL0     C83110  11.188  12.229   9.486 -0.7053  0.6476  0.3541
  603MOL0     C83111  11.095  12.248   9.590  0.8985 -0.6492  1.0482
  603MOL0     O83112  11.125  12.317   9.702  0.1921 -0.3960  0.0650
  603MOL0     C83113  11.265  12.330   9.751  0.2832  0.4180 -0.3043
  603MOL0     C83114  11.257  12.384   9.890 -0.7827 -0.9018  0.3794
  603MOL0     C83115  11.193  12.277   9.976  1.1331  0.4954  0.3044
  603MOL0     C83116  11.228  12.295  10.126 -0.6590 -0.2870  0.4061
  603MOL0     C83117  11.135  12.194  10.204 -0.1058 -0.0426  0.7008
  603MOL0     C83118  11.087  12.231  10.344  0.1782 -0.0266  0.1591
  603MOL0     C83119  11.005  12.113  10.402 -0.0038 -1.1599 -0.2659
  603MOL0     C83120  10.915  12.166  10.520  0.4756 -0.4672  0.7072
  603MOL0    Cl83121  11.006  12.177  10.672  0.1043  0.2088 -0.1194
  603MOL0     C83122  10.961  12.209   9.569  0.6201  0.4036 -0.2892
  603MOL0     C83123  10.918  12.143   9.456 -0.7633 -0.1651 -0.5777
  603MOL0     O83124  10.771  11.977   9.245  0.2773  0.0798 -0.5267
  603MOL0     C83125  10.725  11.926   8.995  0.7100  0.6802 -0.0684
  603MOL0     C83126  10.698  11.904   8.863  0.6524  0.0658  0.6028
  603MOL0     N83127  10.262  11.900   8.232  0.2847 -0.4682 -0.3973
  603MOL0     N83128  10.239  11.850   8.111  0.6524 -0.8010 -0.7245
  603MOL0     C83129   9.568  11.293   8.135  0.1912  0.0954 -0.2780
  603MOL0     C83130   9.531  11.172   8.192  0.5036 -0.2227 -0.0601
  603MOL0     C83131   9.419  10.879   8.558  0.0571 -0.6575 -0.3495
  603MOL0     C83132   9.435  10.773   8.466  0.0096 -0.0407 -0.2715
  603MOL0     C83133   9.429  10.636   8.508  0.1509 -0.1718  0.0365
  603MOL0     C83134   9.393  10.600   8.639 -1.5452 -0.7493  0.3776
  603MOL0     O83135   9.369  10.471   8.674  0.0906  0.2401 -0.1892
  603MOL0     C83136   9.294  10.445   8.791 -0.2262 -0.0847  0.7078
  603MOL0     C83137   9.252  10.296   8.819  0.4970 -0.5903 -0.4245
  603MOL0     C83138   9.152  10.296   8.945 -0.6315 -0.2314  0.2909
  603MOL0     C83139   9.097  10.154   8.980 -0.0861  0.3355  0.7807
  603MOL0     C83140   9.213  10.083   9.055 -0.3628 -0.2580 -0.1755
  603MOL0     C83141   9.297  10.009   9.101 -0.0332 -0.5822 -0.5124
  603MOL0     C83142   9.389  10.704   8.728 -0.2880 -0.3984 -0.2393
  603MOL0     C83143   9.395  10.840   8.695 -0.7939  0.3918 -0.1896
  603MOL0     C83144   9.364  10.934   8.809 -0.4629 -0.9135  0.0715
  603MOL0     H83145   9.581  11.245   8.518  3.1712  1.9771 -0.4087
  603MOL0     H83146   9.636  11.448   8.427  0.0044 -0.8479  2.1831
  603MOL0     H83147   9.552  11.545   7.993  1.7549 -4.7846 -2.0077
  603MOL0     H83148   9.705  11.466   7.985  2.4433 -0.4673  2.5671
  603MOL0     H83149   9.659  11.730   7.907  2.8421  1.2939 -1.1251
  603MOL0     H83150   9.642  11.770   8.065 -0.0984 -1.1080  0.8114
  603MOL0     H83151   9.878  11.813   7.995  2.5334 -0.1603 -0.3926
  603MOL0     H83152   9.903  11.652   8.075  1.5484 -1.4424 -2.2410
  603MOL0     H83153   9.888  11.539   7.873  0.0041 -0.2870  3.4795
  603MOL0     H83154   9.868  11.712   7.797  2.6896  2.7620  1.7732
  603MOL0     H83155  10.084  11.754   7.898 -1.0331  0.9657 -1.9622
  603MOL0     H83156  10.093  11.644   7.764 -0.7991  1.9404 -0.1590
  603MOL0     H83157  10.098  11.582   8.072  0.4739  0.5335  0.4610
  603MOL0     H83158  10.097  11.455   7.947  1.4782 -0.1895 -1.1955
  603MOL0     H83159  10.302  11.495   7.859 -0.2161 -0.7085 -0.3479
  603MOL0     H83160  10.311  11.480   8.034 -0.9899 -1.6418 -2.2203
  603MOL0     H83161  10.454  11.663   7.956  0.2797  0.6449  1.2686
  603MOL0     H83162  10.308  11.748   7.897  1.0845  1.1815  0.5476
  603MOL0     H83163  10.455  11.635   8.230  0.0087  0.0320  1.6209
  603MOL0     H83164  10.469  11.756   8.465 -0.7541 -1.6706 -0.4237
  603MOL0     H83165  10.329  11.839   8.517  1.7220 -2.9305  2.3602
  603MOL0     H83166  10.543  11.992   8.344 -1.3953 -2.1516 -0.7950
  603MOL0     H83167  10.404  12.063   8.418 -1.4966  0.3385  0.1944
  603MOL0     H83168  10.624  12.092   8.518  2.7029 -3.0166  0.1986
  603MOL0     H83169  10.503  12.038   8.627  0.6492  2.0699  0.3879
  603MOL0     H83170  10.603  11.817   8.637 -2.2352 -0.8430 -1.9639
  603MOL0     H83171  10.695  11.826   8.487  0.8965  1.1043 -1.0836
  603MOL0     H83172  10.935  12.096   8.706  0.9978  1.3126  0.6590
  603MOL0     H83173  11.028  12.234   8.865 -1.4418 -3.9936 -2.3473
  603MOL0     H83174  11.118  12.119   8.979 -2.7023 -5.2264 -1.0766
  603MOL0     H83175  11.004  12.246   9.037 -0.7149  0.1620 -0.3484
  603MOL0     H83176  11.212  12.165   9.280  1.6777 -2.2981  2.3018
  603MOL0     H83177  11.285  12.275   9.503 -1.5005  2.5337  0.0291
  603MOL0     H83178  11.310  12.231   9.767 -1.1338 -0.7016 -2.6897
  603MOL0     H83179  11.326  12.386   9.680 -0.3677  0.5735 -0.7476
  603MOL0     H83180  11.360  12.394   9.926 -0.9922  0.0572  0.7423
  603MOL0     H83181  11.201  12.477   9.880 -1.4415 -1.3916 -0.6798
  603MOL0     H83182  11.218  12.172   9.957 -1.3860 -0.2776  0.8917
  603MOL0     H83183  11.085  12.276   9.959  1.2502 -2.5576 -0.8400
  603MOL0     H83184  11.205  12.399  10.153 -2.0724  0.5100 -3.1848
  603MOL0     H83185  11.334  12.269  10.137 -0.2054  0.5003 -1.6041
  603MOL0     H83186  11.047  12.168  10.145  0.9434 -0.7867 -0.6016
  603MOL0     H83187  11.192  12.101  10.213 -2.0911 -1.3016  0.6944
  603MOL0     H83188  11.024  12.315  10.311  2.7390  1.1311 -2.2421
  603MOL0     H83189  11.169  12.268  10.406 -0.6082  2.4336 -0.1278
  603MOL0     H83190  11.066  12.033  10.447 -1.8065 -1.0966  2.5904
  603MOL0     H83191  10.931  12.082  10.329 -2.9964  3.0977  0.5541
  603MOL0     H83192  10.836  12.090  10.527 -0.5960  0.6948  1.5221
  603MOL0     H83193  10.880  12.267  10.498  1.4185 -0.6851 -2.2586
  603MOL0     H83194  10.890  12.223   9.650 -0.6179 -2.7063 -0.6705
  603MOL0     H83195  10.814  12.113   9.450 -1.2739  1.6667 -1.6695
  603MOL0     H83196  10.662  11.877   9.068  2.3101 -0.8957  0.3125
  603MOL0     H83197  10.616  11.842   8.828  0.0940 -0.1590  2.2403
  603MOL0     H83198   9.566  11.294   8.027  0.6269  0.3359 -0.2896
  603MOL0     H83199   9.487  11.098   8.126 -0.0304 -0.9849  1.1066
  603MOL0     H83200   9.463  10.784   8.362  0.3653  0.4875 -0.1297
  603MOL0     H83201   9.426  10.554   8.437  0.4331 -1.4825  1.4773
  603MOL0     H83202   9.352  10.485   8.874 -0.8308  1.8016  0.2703
  603MOL0     H83203   9.195  10.484   8.765  0.4212 -0.8181 -3.5308
  603MOL0     H83204   9.340  10.238   8.848  1.0352 -1.0531 -2.7691
  603MOL0     H83205   9.207  10.244   8.733 -0.7605  1.3253 -0.9708
  603MOL0     H83206   9.213  10.328   9.031 -0.5971  0.1736  0.1179
  603MOL0     H83207   9.067  10.365   8.942 -0.7523 -0.1617  2.9484
  603MOL0     H83208   9.068  10.106   8.886  2.4242  0.5499 -0.1632
  603MOL0     H83209   9.010  10.166   9.045 -0.4484 -1.2399  0.6251
  603MOL0     H83210   9.386   9.961   9.136  0.8736  1.1989 -0.2277
  603MOL0     H83211   9.361  10.694   8.833  0.6950  3.6132  0.5846
  603MOL0     H83212   9.401  10.887   8.901 -0.7018  0.6066  0.9707
  603MOL0     H83213   9.416  11.030   8.804  0.3730 -1.3369  0.5134
  603MOL0     H83214   9.258  10.960   8.813 -0.5149 -1.0241 -0.4460
  604MOL0     O83215   5.961  11.024   9.455 -0.3802 -0.6314 -0.0410
  604MOL0     C83216   5.924  10.915   9.500  0.4746 -0.7792  0.0014
  604MOL0     O83217   5.804  10.899   9.567 -0.2683  0.3218 -0.0248
  604MOL0     C83218   5.721  11.008   9.565 -0.3811 -0.3279  0.2679
  604MOL0     C83219   5.620  10.993   9.466 -0.4973 -0.5701  0.1396
  604MOL0     C83220   5.536  11.099   9.442  0.3663 -0.6951  0.1456
  604MOL0     C83221   5.545  11.214   9.521  0.3568 -0.8635 -0.3311
  604MOL0     O83222   5.466  11.318   9.494 -0.1381  0.2802 -0.5926
  604MOL0     C83223   5.400  11.384   9.598 -0.3299 -0.6473 -0.1213
  604MOL0     C83224   5.309  11.295   9.690 -0.2317  0.8465  0.3222
  604MOL0     C83225   5.204  11.368   9.770  0.5471  0.4592  0.2824
  604MOL0     C83226   5.100  11.268   9.824  0.1222 -0.1944 -0.3702
  604MOL0     C83227   4.989  11.344   9.896 -0.1632 -0.1623  0.5613
  604MOL0     C83228   4.851  11.277   9.904 -1.1176  0.0032  0.7660
  604MOL0     C83229   4.851  11.131   9.952  0.3070  0.2756  0.0510
  604MOL0     C83230   4.714  11.078   9.942  0.0876  1.0116 -0.4437
  604MOL0     N83231   4.662  11.000  10.053  0.1692 -0.5146 -0.4293
  604MOL0     C83232   4.681  11.036  10.188  0.3834  0.1147  1.1737
  604MOL0     C83233   4.629  10.927  10.255  0.1576 -1.5550 -0.7044
  604MOL0     C83234   4.603  10.920  10.406 -0.3097 -0.2157  0.4067
  604MOL0     C83235   4.463  10.871  10.453 -0.4198 -0.5749 -0.2574
  604MOL0     C83236   4.353  10.940  10.385  0.0101 -0.7562  0.1331
  604MOL0     C83237   4.331  11.096  10.401 -0.2303 -0.6427  0.3291
  604MOL0     O83238   4.395  11.134  10.528  0.1108  0.3404 -1.1171
  604MOL0     C83239   4.391  11.264  10.580 -0.4431 -0.3786  0.1098
  604MOL0     C83240   4.350  11.376  10.503  0.3394  0.3486 -0.2620
  604MOL0     C83241   4.330  11.504  10.568 -0.4620  0.7512  0.2716
  604MOL0     C83242   4.287  11.622  10.483 -0.5110  0.2704 -0.1020
  604MOL0     C83243   4.346  11.509  10.707 -0.6845 -0.5609 -0.0295
  604MOL0     C83244   4.339  11.645  10.778  0.6985  0.6180  0.0648
  604MOL0     O83245   4.278  11.641  10.901 -0.6894  0.4555  0.3599
  604MOL0     C83246   4.252  11.753  10.977  0.3706  0.4356 -0.3741
  604MOL0     C83247   4.216  11.717  11.099 -0.3640  0.7242  0.4799
  604MOL0     C83248   4.187  11.816  11.202  1.0171  0.3768 -0.4599
  604MOL0     C83249   4.185  11.955  11.173  0.1025  0.2859  0.0730
  604MOL0     O83250   4.132  12.057  11.241 -0.3001  0.2969 -0.6160
  604MOL0     C83251   4.105  12.042  11.373  0.5598 -0.2694  0.0433
  604MOL0     C83252   4.229  12.027  11.468  0.6681 -0.6967 -0.1418
  604MOL0     C83253   4.195  12.079  11.604  0.6697 -0.3002  0.6713
  604MOL0     C83254   4.314  12.073  11.701 -0.6765 -0.4465 -0.0031
  604MOL0     C83255   4.434  12.168  11.674 -0.5306 -0.0020 -0.9480
  604MOL0     C83256   4.391  12.311  11.628  0.0802  0.2459 -0.4337
  604MOL0     C83257   4.323  12.395  11.740 -0.2870  0.9247 -0.9049
  604MOL0     C83258   4.319  12.541  11.694 -0.0765 -0.3784  0.2073
  604MOL0    Cl83259   4.484  12.599  11.750 -0.0175 -0.4258 -0.4232
  604MOL0     C83260   4.233  11.993  11.047  0.6357  0.2721  0.3293
  604MOL0     C83261   4.268  11.894  10.949  0.1882  0.0675  0.2033
  604MOL0     O83262   4.372  11.748  10.720 -0.0887  0.4438  0.2126
  604MOL0     C83263   4.385  11.398  10.782  0.9173  0.4115  0.5577
  604MOL0     C83264   4.406  11.278  10.716  0.6917 -0.3892 -1.0023
  604MOL0     N83265   4.595  10.829  10.162 -0.3248 -0.0530 -1.0135
  604MOL0     N83266   4.613  10.876  10.050  0.0108 -0.1625  0.3477
  604MOL0     C83267   5.648  11.227   9.612  0.2800  0.0653 -0.0018
  604MOL0     C83268   5.736  11.123   9.640 -0.1248  1.1079 -0.8160
  604MOL0     C83269   6.019  10.813   9.471  0.0383 -0.0577  0.8443
  604MOL0     C83270   6.097  10.817   9.353 -0.1083 -0.5890 -0.1678
  604MOL0     C83271   6.193  10.726   9.336 -0.6354 -0.0263 -0.8974
  604MOL0     C83272   6.216  10.613   9.418 -0.3521 -0.1083  0.2487
  604MOL0     O83273   6.328  10.540   9.387  0.1917  0.0127 -0.4176
  604MOL0     C83274   6.358  10.431   9.477  0.2257  0.0360  1.1499
  604MOL0     C83275   6.487  10.360   9.437  0.0101  0.3888 -0.2379
  604MOL0     C83276   6.476  10.306   9.300  0.1060 -0.2478 -0.2178
  604MOL0     C83277   6.598  10.233   9.240 -1.0706  0.0547 -0.4928
  604MOL0     C83278   6.580  10.090   9.250 -0.0603 -0.1710 -0.7500
  604MOL0     C83279   6.594   9.970   9.273  0.5491  0.0189 -0.5191
  604MOL0     C83280   6.129  10.603   9.524  0.4619  0.5694  1.4097
  604MOL0     C83281   6.045  10.704   9.563  0.4437  0.8423 -0.6164
  604MOL0     C83282   5.985  10.686   9.692  0.4729  0.2358 -0.9044
  604MOL0     H83283   5.629  10.907   9.400  1.5788 -2.0796  2.2459
  604MOL0     H83284   5.458  11.082   9.369 -1.6960  0.6656  1.9402
  604MOL0     H83285   5.334  11.459   9.553 -0.6806 -2.3094 -2.5713
  604MOL0     H83286   5.472  11.430   9.666 -0.0123 -1.8799  0.3869
  604MOL0     H83287   5.260  11.219   9.629 -1.4135  2.5151 -0.8828
  604MOL0     H83288   5.377  11.249   9.763 -1.2406  1.5399  1.7412
  604MOL0     H83289   5.253  11.418   9.854  3.7484  1.7990 -2.1534
  604MOL0     H83290   5.164  11.445   9.704  0.4749 -1.2088 -1.7221
  604MOL0     H83291   5.067  11.205   9.741  0.5158  0.4656 -1.0417
  604MOL0     H83292   5.159  11.199   9.885 -0.3320 -0.9440 -0.7718
  604MOL0     H83293   4.968  11.437   9.842  0.4711 -0.8194 -0.8777
  604MOL0     H83294   5.021  11.373   9.996 -0.4144  3.2117 -0.2211
  604MOL0     H83295   4.789  11.341   9.968 -1.5588  0.3265  0.0317
  604MOL0     H83296   4.801  11.269   9.807 -0.6762 -1.5413  0.6444
  604MOL0     H83297   4.889  11.129  10.054  0.7705 -5.0572  0.0349
  604MOL0     H83298   4.911  11.063   9.891  2.6638  1.8359  0.4975
  604MOL0     H83299   4.649  11.165   9.939  0.5872  1.4423  0.6760
  604MOL0     H83300   4.717  11.015   9.852  0.0098  0.7880 -0.2905
  604MOL0     H83301   4.724  11.131  10.218 -0.6128  1.2108 -0.7037
  604MOL0     H83302   4.618  11.022  10.443  0.2562  0.0954 -0.6624
  604MOL0     H83303   4.676  10.852  10.452  1.3497 -0.1824 -2.0092
  604MOL0     H83304   4.443  10.768  10.423  0.0744  0.3779 -4.4096
  604MOL0     H83305   4.461  10.887  10.561 -0.0029  0.9552 -0.4580
  604MOL0     H83306   4.358  10.921  10.277  2.3464 -0.5114  0.1680
  604MOL0     H83307   4.253  10.897  10.401 -0.4872 -0.0837 -0.9947
  604MOL0     H83308   4.392  11.153  10.330 -1.4255  0.8753  0.4673
  604MOL0     H83309   4.226  11.126  10.399 -0.3962 -1.1253  1.4286
  604MOL0     H83310   4.326  11.354  10.399 -1.0922 -0.7660  0.2775
  604MOL0     H83311   4.213  11.684  10.535 -1.3781 -1.0243  0.2721
  604MOL0     H83312   4.245  11.584  10.390  2.7421 -4.2835 -0.0199
  604MOL0     H83313   4.377  11.679  10.461 -0.6684  1.9727  3.0251
  604MOL0     H83314   4.187  11.620  11.138 -0.7723  0.9263  0.6917
  604MOL0     H83315   4.159  11.782  11.301 -1.2280 -1.4460 -1.6347
  604MOL0     H83316   4.055  12.136  11.399  0.8969  0.1157 -0.6713
  604MOL0     H83317   4.032  11.964  11.395  0.9825  0.2283  4.0296
  604MOL0     H83318   4.275  11.928  11.477  1.1819 -0.2782  2.4674
  604MOL0     H83319   4.312  12.079  11.419 -1.0709  1.4196 -0.9930
  604MOL0     H83320   4.106  12.028  11.642 -0.6844 -0.5790 -2.5472
  604MOL0     H83321   4.165  12.185  11.603  0.6790 -0.2911 -0.8106
  604MOL0     H83322   4.366  11.977  11.709 -0.1778 -0.1085  1.0804
  604MOL0     H83323   4.268  12.097  11.798 -0.0109  1.6083 -0.1372
  604MOL0     H83324   4.493  12.168  11.766  0.8477 -3.4161 -1.6931
  604MOL0     H83325   4.495  12.128  11.592  0.2586  0.5891 -0.6589
  604MOL0     H83326   4.330  12.300  11.538  0.3981 -1.5804 -0.4689
  604MOL0     H83327   4.480  12.362  11.591  1.1851 -1.8293 -0.8305
  604MOL0     H83328   4.371  12.392  11.838 -0.9143  0.4303 -0.6018
  604MOL0     H83329   4.219  12.359  11.749  0.4521 -1.1596 -0.0452
  604MOL0     H83330   4.246  12.607  11.742  0.7588 -0.5322  1.7422
  604MOL0     H83331   4.303  12.545  11.586  2.2591 -1.0121 -0.2052
  604MOL0     H83332   4.227  12.090  11.000  0.4585  0.6172  1.0409
  604MOL0     H83333   4.290  11.930  10.849  0.7631 -2.6558 -0.7526
  604MOL0     H83334   4.404  11.408  10.888  1.3306 -3.3955  0.9793
  604MOL0     H83335   4.433  11.187  10.769  0.2683 -0.6590 -1.2473
  604MOL0     H83336   5.675  11.316   9.669  1.6499  1.0050 -2.0284
  604MOL0     H83337   5.816  11.121   9.713  1.3825  0.3347 -2.4114
  604MOL0     H83338   6.080  10.898   9.283 -0.8261 -1.3352 -0.8847
  604MOL0     H83339   6.259  10.742   9.252  0.8610  0.3332  0.2925
  604MOL0     H83340   6.360  10.467   9.580 -2.6786  3.9465  0.1137
  604MOL0     H83341   6.282  10.353   9.464  0.8671 -0.1614 -2.6317
  604MOL0     H83342   6.515  10.274   9.498  2.5348 -0.1645 -2.0093
  604MOL0     H83343   6.578  10.420   9.450  0.0818 -0.1221  2.1577
  604MOL0     H83344   6.394  10.234   9.291  0.3999 -1.2442  3.5326
  604MOL0     H83345   6.462  10.391   9.233  1.1633 -0.9768 -1.4155
  604MOL0     H83346   6.694  10.268   9.279 -0.5872 -0.4806 -1.1703
  604MOL0     H83347   6.605  10.249   9.132  3.2760 -2.5457 -0.8218
  604MOL0     H83348   6.621   9.869   9.297  0.5305  0.1630  0.1330
  604MOL0     H83349   6.125  10.507   9.573 -0.3287 -0.1448 -0.0036
  604MOL0     H83350   6.057  10.640   9.760 -0.3350  1.8968  1.1726
  604MOL0     H83351   5.936  10.774   9.735 -3.9192 -1.6338 -1.5258
  604MOL0     H83352   5.909  10.609   9.678  1.7339 -0.9333 -1.5771
  605MOL0     O83353   4.732   1.019   7.298  0.5499  0.0249 -0.2533
  605MOL0     C83354   4.806   1.038   7.204  1.5098  0.9678  0.1429
  605MOL0     O83355   4.772   1.040   7.069 -0.4065 -0.6664  0.0810
  605MOL0     C83356   4.638   1.054   7.031  0.4233 -0.1356 -0.5381
  605MOL0     C83357   4.604   1.033   6.902  0.2435  0.4481 -0.6334
  605MOL0     C83358   4.471   1.026   6.859 -0.2470 -0.7062 -0.5893
  605MOL0     C83359   4.368   1.083   6.934  0.2172 -0.6515 -0.7038
  605MOL0     O83360   4.237   1.100   6.900  0.4626  0.8600  0.0723
  605MOL0     C83361   4.170   1.005   6.802  0.2530  0.1921  0.8352
  605MOL0     C83362   4.027   0.967   6.834  0.0767 -0.4887  0.8215
  605MOL0     C83363   3.927   1.084   6.839  0.1725  0.0897 -1.4553
  605MOL0     C83364   3.806   1.058   6.949 -0.0790  0.3028  0.7500
  605MOL0     C83365   3.842   1.114   7.087  0.0889 -0.8031  0.4104
  605MOL0     C83366   3.735   1.077   7.192  0.4791  0.0782  0.9657
  605MOL0     C83367   3.761   1.121   7.337  0.4316  0.1820 -0.5065
  605MOL0     C83368   3.772   1.272   7.343 -0.1622 -1.2282 -0.4156
  605MOL0     N83369   3.893   1.323   7.413  0.1783  0.0958  0.4167
  605MOL0     C83370   3.993   1.398   7.356 -0.6070 -0.5823 -0.7778
  605MOL0     C83371   4.065   1.445   7.455 -1.2416 -0.3035  0.4880
  605MOL0     C83372   4.175   1.547   7.445 -0.2639  0.0538  0.3000
  605MOL0     C83373   4.122   1.694   7.458 -0.4374  1.2606 -0.1129
  605MOL0     C83374   4.048   1.730   7.328  0.2615  0.6448  0.9335
  605MOL0     C83375   3.986   1.866   7.324  0.0279 -0.8530 -0.5819
  605MOL0     O83376   3.946   1.906   7.195 -0.0887 -0.8657 -0.8099
  605MOL0     C83377   3.886   2.031   7.179  0.2350 -0.7789 -0.5030
  605MOL0     C83378   3.843   2.122   7.272 -0.3802 -0.7156 -0.8322
  605MOL0     C83379   3.775   2.239   7.236 -0.8887 -0.7385  0.1265
  605MOL0     C83380   3.755   2.331   7.350  0.6939  0.1500  0.2508
  605MOL0     C83381   3.741   2.262   7.104  0.9401  0.0341  1.8048
  605MOL0     C83382   3.660   2.378   7.058 -0.0076  0.2929  0.5193
  605MOL0     O83383   3.624   2.377   6.922  0.1532 -1.0446 -0.3781
  605MOL0     C83384   3.528   2.473   6.895  0.0252  0.2065 -0.9123
  605MOL0     C83385   3.564   2.610   6.878  0.1077  0.7539 -0.1197
  605MOL0     C83386   3.467   2.702   6.839  1.3593 -0.1971 -0.1774
  605MOL0     C83387   3.335   2.662   6.811 -0.9748  0.2464 -0.4663
  605MOL0     O83388   3.249   2.754   6.765 -0.4694  0.3200  0.0111
  605MOL0     C83389   3.172   2.721   6.651 -0.0523  0.0633  0.9100
  605MOL0     C83390   3.092   2.840   6.612 -0.7540  0.3981  0.3771
  605MOL0     C83391   3.011   2.807   6.482 -0.4961  0.9419  0.3939
  605MOL0     C83392   2.903   2.904   6.450 -0.0372 -0.0545  0.6817
  605MOL0     C83393   2.943   3.054   6.483 -0.3937 -0.0342 -0.6851
  605MOL0     C83394   2.831   3.146   6.442  0.2100 -0.1121 -0.0796
  605MOL0     C83395   2.830   3.183   6.293  0.5927  0.7870  0.3882
  605MOL0     C83396   2.724   3.279   6.245 -0.1831 -0.3606  0.4123
  605MOL0    Cl83397   2.754   3.330   6.068  0.1522 -0.2463 -0.1796
  605MOL0     C83398   3.304   2.527   6.821  0.0147  0.6195 -0.2533
  605MOL0     C83399   3.399   2.432   6.869  0.1612  1.0848  0.2279
  605MOL0     O83400   3.628   2.460   7.142  0.0678  0.6408 -0.8735
  605MOL0     C83401   3.783   2.164   7.012 -0.0802 -0.2724 -0.6350
  605MOL0     C83402   3.849   2.046   7.044  0.2339 -0.6208  0.5706
  605MOL0     N83403   4.016   1.392   7.569 -0.0690  0.2499  0.1539
  605MOL0     N83404   3.904   1.330   7.548 -0.7752  0.3156 -0.0786
  605MOL0     C83405   4.404   1.133   7.063  0.5836 -0.1536 -0.0535
  605MOL0     C83406   4.530   1.103   7.114  0.4873  0.1661  0.4267
  605MOL0     C83407   4.948   1.057   7.241  0.5125  1.2729 -0.4988
  605MOL0     C83408   4.994   0.997   7.364  0.9201  0.1951 -0.3948
  605MOL0     C83409   5.130   0.982   7.403  0.1075 -0.3632 -0.6077
  605MOL0     C83410   5.221   1.046   7.322 -0.1639 -0.8327 -0.8528
  605MOL0     O83411   5.362   1.039   7.337 -0.1556  0.5789  0.4310
  605MOL0     C83412   5.422   0.945   7.437  0.8578 -1.1482  0.4448
  605MOL0     C83413   5.442   1.027   7.567 -0.5698  0.0478  0.2096
  605MOL0     C83414   5.373   0.957   7.686  0.2881  1.0103 -0.5855
  605MOL0     C83415   5.476   0.888   7.783 -0.0213 -0.5433  0.1956
  605MOL0     C83416   5.555   0.987   7.861  0.6467  0.3204 -0.3201
  605MOL0     C83417   5.615   1.069   7.932  0.8173 -0.6050  0.3174
  605MOL0     C83418   5.173   1.116   7.212  0.1160 -0.4176  0.2588
  605MOL0     C83419   5.039   1.129   7.167  0.4292  0.3385  0.0218
  605MOL0     C83420   5.006   1.217   7.051 -0.2486 -0.5388  0.1226
  605MOL0     H83421   4.687   1.003   6.838 -1.3228 -0.2170 -2.4475
  605MOL0     H83422   4.451   0.991   6.758  1.9441  1.0307 -1.6980
  605MOL0     H83423   4.218   0.907   6.792 -0.2343  0.1192 -1.3758
  605MOL0     H83424   4.177   1.048   6.701  2.2861  0.3523  0.9922
  605MOL0     H83425   3.988   0.886   6.772  0.5669 -2.9155  3.4797
  605MOL0     H83426   4.031   0.925   6.934 -0.6961  1.3292  1.6628
  605MOL0     H83427   3.973   1.181   6.859  1.3542 -0.8120  0.5361
  605MOL0     H83428   3.891   1.083   6.736  2.5583 -3.0749 -2.4322
  605MOL0     H83429   3.720   1.113   6.909 -0.0413 -0.1847 -0.0295
  605MOL0     H83430   3.755   0.962   6.959 -0.5701  0.4216 -0.4194
  605MOL0     H83431   3.859   1.221   7.077 -1.4300 -0.6199 -0.5091
  605MOL0     H83432   3.932   1.066   7.128  1.8321  1.8893 -0.0120
  605MOL0     H83433   3.637   1.122   7.171 -0.0561 -0.9095  1.2437
  605MOL0     H83434   3.723   0.969   7.177  0.3343  0.1957  0.1542
  605MOL0     H83435   3.858   1.085   7.371  0.8304  1.8218  0.2221
  605MOL0     H83436   3.691   1.076   7.407  3.7166 -2.2085  1.5349
  605MOL0     H83437   3.761   1.321   7.246  1.3042 -2.8341 -1.4486
  605MOL0     H83438   3.689   1.312   7.403  0.1790  2.8189 -2.2541
  605MOL0     H83439   3.999   1.423   7.250 -2.3186 -2.0687 -1.2667
  605MOL0     H83440   4.213   1.531   7.343  0.0359 -2.9984  0.7996
  605MOL0     H83441   4.257   1.532   7.516 -1.1587 -2.6001  0.8861
  605MOL0     H83442   4.061   1.685   7.548 -0.7664  1.6463 -0.2897
  605MOL0     H83443   4.199   1.770   7.476  0.3255  1.5361 -3.6695
  605MOL0     H83444   4.114   1.714   7.242 -2.0357 -1.1000 -0.6477
  605MOL0     H83445   3.962   1.665   7.310  1.5867 -0.6423 -1.2314
  605MOL0     H83446   3.904   1.875   7.396  1.5265 -1.4758  1.2861
  605MOL0     H83447   4.059   1.940   7.359 -0.5989 -0.4236 -0.1473
  605MOL0     H83448   3.865   2.103   7.377 -2.5937  3.6048  0.6672
  605MOL0     H83449   3.757   2.277   7.444 -3.6565  0.0664  0.4793
  605MOL0     H83450   3.653   2.368   7.364  1.7126  2.9307  1.0232
  605MOL0     H83451   3.820   2.418   7.334 -0.0904  0.2684 -3.2213
  605MOL0     H83452   3.666   2.641   6.896  0.7796 -1.9850  1.3677
  605MOL0     H83453   3.504   2.803   6.827  3.0482 -0.5869  1.4233
  605MOL0     H83454   3.243   2.703   6.570 -0.1220 -1.9538  1.2640
  605MOL0     H83455   3.109   2.632   6.653 -2.1244  1.4391  1.3413
  605MOL0     H83456   3.022   2.866   6.692 -1.9561  0.4624 -0.6541
  605MOL0     H83457   3.154   2.924   6.581 -1.3707  1.9544  3.0500
  605MOL0     H83458   2.974   2.704   6.482 -2.1769  1.4820 -1.0379
  605MOL0     H83459   3.087   2.808   6.404  1.3398  0.8298  2.1153
  605MOL0     H83460   2.820   2.891   6.520  0.9623 -1.2882  1.6723
  605MOL0     H83461   2.879   2.899   6.343  1.9059  0.4406  0.1774
  605MOL0     H83462   2.978   3.071   6.585  0.1704  2.1697 -1.2063
  605MOL0     H83463   3.032   3.060   6.420 -2.4338  0.8657 -3.6952
  605MOL0     H83464   2.841   3.248   6.479 -2.2724  1.6000 -3.5489
  605MOL0     H83465   2.738   3.107   6.484  1.6831 -2.5056  1.2504
  605MOL0     H83466   2.820   3.090   6.237 -1.3305  1.1413  0.0891
  605MOL0     H83467   2.925   3.228   6.262 -0.8118  3.4230 -0.3242
  605MOL0     H83468   2.736   3.369   6.305 -1.5758 -1.2412  2.0916
  605MOL0     H83469   2.629   3.232   6.273 -1.2376  0.9508 -0.7910
  605MOL0     H83470   3.200   2.497   6.815 -0.2046  1.4356 -0.5353
  605MOL0     H83471   3.368   2.330   6.889  1.1488  0.5467 -0.8316
  605MOL0     H83472   3.763   2.167   6.906  0.3213  1.3237 -0.6841
  605MOL0     H83473   3.880   1.963   6.982  2.4790 -0.8666  1.8830
  605MOL0     H83474   4.325   1.182   7.119  1.7965  0.7949  0.9045
  605MOL0     H83475   4.548   1.138   7.215  1.2136  0.6171  0.1495
  605MOL0     H83476   4.917   0.953   7.427 -2.3603  2.6607 -2.3441
  605MOL0     H83477   5.163   0.928   7.492  1.1199 -2.0463 -1.9405
  605MOL0     H83478   5.355   0.863   7.465 -1.0779  1.0785  2.7192
  605MOL0     H83479   5.513   0.904   7.392  0.3027 -1.9645  0.0291
  605MOL0     H83480   5.399   1.125   7.546  2.7800  1.3624 -1.2648
  605MOL0     H83481   5.548   1.044   7.585 -0.7157 -0.5370  1.8461
  605MOL0     H83482   5.319   1.032   7.744 -1.0715 -0.0142 -0.4721
  605MOL0     H83483   5.295   0.883   7.665  1.5509 -0.7288  0.5428
  605MOL0     H83484   5.543   0.819   7.730 -1.9887  0.5525 -4.1578
  605MOL0     H83485   5.404   0.831   7.842  0.2523 -1.3444 -0.2239
  605MOL0     H83486   5.678   1.140   7.982 -0.8580  1.1763  0.0512
  605MOL0     H83487   5.251   1.159   7.151 -1.2837  2.1392  0.0948
  605MOL0     H83488   4.909   1.268   7.064 -0.3300 -0.8419  0.7537
  605MOL0     H83489   5.082   1.296   7.043 -2.1781  1.7874  2.6361
  605MOL0     H83490   4.995   1.155   6.962 -1.7266 -1.5261  0.9379
  606MOL0     O83491   7.886  10.579   4.101 -0.0288  0.4266 -1.1829
  606MOL0     C83492   7.777  10.632   4.122 -0.6916  0.8919  0.0504
  606MOL0     O83493   7.686  10.662   4.024 -0.3067  0.0807  0.4734
  606MOL0     C83494   7.676  10.593   3.908  0.5458 -0.1817 -0.3698
  606MOL0     C83495   7.717  10.464   3.876 -0.8176  0.1861 -0.0381
  606MOL0     C83496   7.723  10.417   3.751  0.0430 -0.0666  0.7065
  606MOL0     C83497   7.670  10.488   3.642 -0.4074 -1.0556  0.2995
  606MOL0     O83498   7.672  10.441   3.517  0.5487  0.9864 -0.6270
  606MOL0     C83499   7.709  10.518   3.406 -0.3490 -0.2498  1.1860
  606MOL0     C83500   7.582  10.540   3.323  0.1774 -0.8602  0.2288
  606MOL0     C83501   7.612  10.643   3.209  0.1754  0.7623 -0.4416
  606MOL0     C83502   7.584  10.787   3.262 -0.1311 -0.7620 -0.3471
  606MOL0     C83503   7.630  10.888   3.167  0.0500 -0.3383 -0.1658
  606MOL0     C83504   7.609  11.030   3.225 -0.0359  1.0735 -0.5662
  606MOL0     C83505   7.699  11.133   3.162  0.4417  0.3259  1.0390
  606MOL0     C83506   7.665  11.279   3.211 -0.0416  0.1323 -0.3060
  606MOL0     N83507   7.766  11.381   3.180 -0.0340 -0.6315 -0.4980
  606MOL0     C83508   7.905  11.374   3.156 -0.8348  0.1666  0.0266
  606MOL0     C83509   7.946  11.501   3.146 -0.2038 -0.6583  0.1503
  606MOL0     C83510   8.099  11.529   3.094  1.6405  0.5686 -0.7726
  606MOL0     C83511   8.141  11.670   3.146 -0.6560  0.7797  0.8055
  606MOL0     C83512   8.293  11.677   3.148 -0.0446  0.2816  0.4072
  606MOL0     C83513   8.345  11.816   3.179  0.1372 -0.6635 -0.3008
  606MOL0     O83514   8.291  11.852   3.303  0.4186 -0.5392 -0.0896
  606MOL0     C83515   8.289  11.978   3.353  0.0792 -0.4623 -0.4434
  606MOL0     C83516   8.332  12.088   3.288  0.2984 -0.5189  0.2487
  606MOL0     C83517   8.340  12.215   3.348  0.0308  0.0697  0.0185
  606MOL0     C83518   8.380  12.335   3.274 -0.4686  0.4815  0.4975
  606MOL0     C83519   8.315  12.222   3.484 -0.0613  1.0213  0.6104
  606MOL0     C83520   8.299  12.351   3.552 -0.6441  0.7681 -1.1407
  606MOL0     O83521   8.218  12.448   3.496 -1.1332  0.8366 -0.3143
  606MOL0     C83522   8.221  12.572   3.558  0.3181  0.1697  0.3194
  606MOL0     C83523   8.274  12.671   3.482 -0.1220  0.2579 -0.6139
  606MOL0     C83524   8.261  12.805   3.523 -0.4076  0.1405 -0.0780
  606MOL0     C83525   8.198  12.831   3.649 -0.3145  0.3197  0.0255
  606MOL0     O83526   8.179  12.959   3.690 -0.8626  0.7008  0.2603
  606MOL0     C83527   8.157  12.986   3.829 -0.7062  0.7176 -0.6245
  606MOL0     C83528   8.163  13.138   3.843 -0.6419 -0.1027 -0.3540
  606MOL0     C83529   8.040  13.197   3.787 -0.3464  0.4759  0.1103
  606MOL0     C83530   8.052  13.352   3.802  0.0788 -0.2338  0.2837
  606MOL0     C83531   7.910  13.406   3.802 -0.0066  0.3696 -0.3658
  606MOL0     C83532   7.920  13.563   3.802 -0.4895  1.2527  0.3171
  606MOL0     C83533   7.783  13.627   3.821  0.6205 -0.2492  0.7449
  606MOL0     C83534   7.795  13.764   3.766  0.4746 -0.2989 -0.3231
  606MOL0    Cl83535   7.665  13.871   3.809  0.4104 -0.0431  0.2345
  606MOL0     C83536   8.154  12.723   3.727  0.1619 -0.2697  0.0241
  606MOL0     C83537   8.162  12.595   3.676 -0.4418 -0.1829 -0.6039
  606MOL0     O83538   8.350  12.359   3.666  0.3221  0.6958  0.6599
  606MOL0     C83539   8.269  12.110   3.553  0.3680 -0.1279  0.2888
  606MOL0     C83540   8.259  11.988   3.491 -0.8302 -0.2845 -0.5549
  606MOL0     N83541   7.830  11.577   3.160 -0.0356  0.2990  0.0392
  606MOL0     N83542   7.728  11.509   3.189 -0.2002  0.3531 -0.2006
  606MOL0     C83543   7.635  10.625   3.667  0.1783  0.0410  0.5719
  606MOL0     C83544   7.643  10.667   3.798  0.2921  0.5259  1.0415
  606MOL0     C83545   7.753  10.681   4.257 -0.6555 -0.5596 -0.1192
  606MOL0     C83546   7.635  10.752   4.280 -0.0579 -0.1804  0.3099
  606MOL0     C83547   7.611  10.811   4.402 -0.2418 -0.4595  0.3488
  606MOL0     C83548   7.697  10.807   4.516 -0.0979  0.0551  1.1593
  606MOL0     O83549   7.669  10.855   4.642  0.0296 -0.1136 -0.3128
  606MOL0     C83550   7.551  10.945   4.648 -0.3417 -0.4364  0.5467
  606MOL0     C83551   7.533  11.004   4.789  0.1453 -0.5279  0.2021
  606MOL0     C83552   7.395  11.073   4.816  0.3478 -1.0666 -0.3268
  606MOL0     C83553   7.389  11.199   4.722  0.2946 -0.9634 -1.4972
  606MOL0     C83554   7.314  11.169   4.603  0.9027  0.5870  0.5109
  606MOL0     C83555   7.245  11.144   4.504 -0.1204 -0.5435  0.0401
  606MOL0     C83556   7.810  10.731   4.493  0.0382 -0.0445  0.4669
  606MOL0     C83557   7.844  10.664   4.370  0.3302 -0.3231  0.1901
  606MOL0     C83558   7.967  10.574   4.359  0.4335 -0.8513 -0.9936
  606MOL0     H83559   7.763  10.395   3.946 -1.5661 -0.1789  0.1074
  606MOL0     H83560   7.753  10.318   3.721  2.0435  0.8503 -0.5014
  606MOL0     H83561   7.777  10.451   3.352 -0.0032 -2.3505  3.9836
  606MOL0     H83562   7.767  10.608   3.431 -0.2414  0.5503 -1.5402
  606MOL0     H83563   7.553  10.440   3.290  1.2064 -0.4611 -2.0631
  606MOL0     H83564   7.505  10.581   3.389  1.4237  0.9239  0.6518
  606MOL0     H83565   7.716  10.633   3.176  0.3664  2.9112 -0.6631
  606MOL0     H83566   7.550  10.604   3.128  1.3746 -1.4695 -0.3623
  606MOL0     H83567   7.478  10.797   3.287 -0.2948 -1.3179 -0.7790
  606MOL0     H83568   7.648  10.793   3.350  0.3567  1.5495 -0.8022
  606MOL0     H83569   7.586  10.878   3.067  1.5706 -0.6638 -0.8179
  606MOL0     H83570   7.737  10.877   3.148  0.1212  1.3905 -1.0047
  606MOL0     H83571   7.501  11.044   3.217 -0.8288 -0.5676  4.0416
  606MOL0     H83572   7.634  11.034   3.331 -0.5466  2.5754 -0.4765
  606MOL0     H83573   7.673  11.137   3.056 -0.3720  1.2530  1.2575
  606MOL0     H83574   7.805  11.109   3.163  0.3453 -0.5164 -1.9532
  606MOL0     H83575   7.562  11.301   3.182  0.6287  3.9476 -0.2205
  606MOL0     H83576   7.663  11.253   3.318  0.3861  0.2063 -0.2792
  606MOL0     H83577   7.964  11.283   3.150  0.5201  1.0253  0.0876
  606MOL0     H83578   8.116  11.506   2.989  1.2075 -1.2987 -0.4590
  606MOL0     H83579   8.153  11.449   3.144 -1.3145 -0.9499  0.2674
  606MOL0     H83580   8.101  11.758   3.094  0.4268  1.0230  0.3653
  606MOL0     H83581   8.110  11.679   3.251 -0.6254 -2.8866  1.2581
  606MOL0     H83582   8.319  11.610   3.230 -0.8711 -0.2714  0.2233
  606MOL0     H83583   8.339  11.658   3.050 -0.2603 -1.6747  0.6520
  606MOL0     H83584   8.453  11.814   3.192  0.5094  0.3097 -2.7696
  606MOL0     H83585   8.316  11.875   3.091 -1.0276 -0.8211 -0.0420
  606MOL0     H83586   8.373  12.081   3.188 -1.3881  2.7601 -0.8205
  606MOL0     H83587   8.448  12.311   3.192 -1.1600 -3.1480  0.8567
  606MOL0     H83588   8.426  12.414   3.334 -2.8123  1.3560  1.2577
  606MOL0     H83589   8.292  12.383   3.231 -1.6024 -0.7593  1.3648
  606MOL0     H83590   8.337  12.640   3.400  4.5529  1.3307  2.1695
  606MOL0     H83591   8.301  12.878   3.453 -0.7908  0.5807  0.1607
  606MOL0     H83592   8.054  12.977   3.867  0.0004  1.5700  1.6763
  606MOL0     H83593   8.218  12.917   3.888 -1.6856 -0.0892 -0.5191
  606MOL0     H83594   8.183  13.177   3.943  0.8813  1.6714 -1.2896
  606MOL0     H83595   8.247  13.167   3.779 -0.9575 -0.1295 -0.7823
  606MOL0     H83596   7.952  13.165   3.845 -1.4342  1.4292 -0.9545
  606MOL0     H83597   8.012  13.173   3.684  1.2609  0.1134 -0.2544
  606MOL0     H83598   8.107  13.405   3.723  0.8625  2.9806  2.7524
  606MOL0     H83599   8.097  13.380   3.897 -2.6412  2.9455  0.8216
  606MOL0     H83600   7.865  13.369   3.710  1.2154 -1.0743 -0.4208
  606MOL0     H83601   7.865  13.362   3.892 -0.2903  2.0582  0.3505
  606MOL0     H83602   7.965  13.609   3.713 -0.8945  4.3855  1.6368
  606MOL0     H83603   7.991  13.598   3.877 -0.3332  0.3201  0.6245
  606MOL0     H83604   7.755  13.628   3.926  3.7866  0.8211  1.6876
  606MOL0     H83605   7.712  13.565   3.764  1.0981 -0.7733  0.7152
  606MOL0     H83606   7.803  13.754   3.658  1.6847  3.7064 -0.7514
  606MOL0     H83607   7.888  13.807   3.803 -1.1305  1.7650  1.6650
  606MOL0     H83608   8.120  12.735   3.829  2.9174  1.3884  0.8574
  606MOL0     H83609   8.119  12.516   3.735 -1.9798  0.8540 -0.2827
  606MOL0     H83610   8.246  12.121   3.659 -1.3115 -2.2344  0.2177
  606MOL0     H83611   8.225  11.895   3.536  1.0712 -1.1645 -0.8181
  606MOL0     H83612   7.608  10.702   3.595  0.5797  1.2693  1.6966
  606MOL0     H83613   7.609  10.767   3.822 -1.5802 -0.1228  1.2701
  606MOL0     H83614   7.560  10.763   4.202 -0.1162 -1.2923  0.1903
  606MOL0     H83615   7.517  10.865   4.408  1.2736  2.8132 -2.4256
  606MOL0     H83616   7.567  11.020   4.570 -0.7668  1.4966  2.2085
  606MOL0     H83617   7.457  10.894   4.627 -2.4730  2.1200  2.9957
  606MOL0     H83618   7.610  11.077   4.813 -0.8487 -0.0544  2.1517
  606MOL0     H83619   7.536  10.922   4.862  2.1068 -0.6070  0.0909
  606MOL0     H83620   7.305  11.013   4.801  0.3633 -0.8576 -1.3268
  606MOL0     H83621   7.384  11.098   4.922  3.1918 -1.0468  0.0334
  606MOL0     H83622   7.487  11.247   4.712 -0.0847  0.6153  1.3718
  606MOL0     H83623   7.326  11.266   4.780  0.9592 -2.9956  1.8436
  606MOL0     H83624   7.185  11.116   4.420 -0.4673  1.1361 -0.3023
  606MOL0     H83625   7.882  10.714   4.572  2.3305 -1.7390 -1.8149
  606MOL0     H83626   8.003  10.540   4.457  2.1873 -0.6882 -1.5502
  606MOL0     H83627   7.941  10.478   4.315 -0.7934 -0.9301 -0.1664
  606MOL0     H83628   8.043  10.629   4.303 -1.2121  0.4911 -2.0028
  607MOL0     O83629   1.596   2.409   2.146 -0.6816 -0.8521 -0.3810
  607MOL0     C83630   1.518   2.336   2.197  0.0692  0.3004  0.0761
  607MOL0     O83631   1.467   2.361   2.323  0.8680  0.4362  0.6485
  607MOL0     C83632   1.484   2.474   2.391 -0.3669 -0.1780  0.3294
  607MOL0     C83633   1.370   2.540   2.449 -0.8632  0.6240  0.2206
  607MOL0     C83634   1.386   2.653   2.523 -0.0983  0.3584 -0.6282
  607MOL0     C83635   1.520   2.712   2.545 -0.2901  0.9980  0.9048
  607MOL0     O83636   1.546   2.828   2.609  0.1935 -0.2167  0.8748
  607MOL0     C83637   1.443   2.863   2.705  0.7251  0.0756 -0.2056
  607MOL0     C83638   1.492   2.949   2.828 -0.5301 -0.0248  0.7888
  607MOL0     C83639   1.575   3.063   2.778 -0.0372 -0.0306 -0.3089
  607MOL0     C83640   1.597   3.169   2.883  0.1912  0.7686  0.4569
  607MOL0     C83641   1.722   3.135   2.968  0.3498 -0.5466 -0.6749
  607MOL0     C83642   1.774   3.263   3.031  0.5908 -0.2687  0.2463
  607MOL0     C83643   1.891   3.228   3.127 -1.0228 -0.1826 -0.3623
  607MOL0     C83644   1.980   3.340   3.195 -0.2611 -0.0096 -0.2995
  607MOL0     N83645   1.905   3.457   3.241  0.2679  0.2791  0.2077
  607MOL0     C83646   1.829   3.450   3.352  0.2886 -0.1039  0.3211
  607MOL0     C83647   1.829   3.575   3.409  0.1957  0.3371  0.4979
  607MOL0     C83648   1.758   3.648   3.525 -0.1201 -0.3479  0.1254
  607MOL0     C83649   1.849   3.726   3.624 -0.5631 -0.9607  0.4989
  607MOL0     C83650   1.961   3.647   3.678 -1.2719  0.0451 -1.1926
  607MOL0     C83651   1.990   3.696   3.824  0.7583 -0.7480 -0.1374
  607MOL0     O83652   2.078   3.612   3.897  0.2723 -0.3662  0.4703
  607MOL0     C83653   2.107   3.630   4.029 -1.5848  0.2983  0.1571
  607MOL0     C83654   2.213   3.550   4.070 -0.3971  0.4740 -0.2438
  607MOL0     C83655   2.271   3.559   4.194  0.9223  0.0587  0.3461
  607MOL0     C83656   2.385   3.471   4.236  0.4229  1.2835  0.4143
  607MOL0     C83657   2.228   3.662   4.279 -0.3759 -0.2688  0.0959
  607MOL0     C83658   2.284   3.695   4.410 -0.2579  0.3704 -0.4929
  607MOL0     O83659   2.410   3.663   4.436  0.8022  0.1734 -0.0876
  607MOL0     C83660   2.452   3.714   4.556  0.2476  1.0909  0.3399
  607MOL0     C83661   2.493   3.843   4.577 -0.0454 -0.8747  0.1668
  607MOL0     C83662   2.541   3.879   4.704  1.5479 -0.3368  0.3614
  607MOL0     C83663   2.560   3.781   4.805  0.5200  0.5130  0.1083
  607MOL0     O83664   2.619   3.805   4.928  0.2001 -0.7734  0.3244
  607MOL0     C83665   2.634   3.938   4.967  1.1086  0.3475 -0.6225
  607MOL0     C83666   2.706   3.962   5.099 -0.6415  0.6267 -0.4252
  607MOL0     C83667   2.609   3.969   5.219  0.6715 -0.8023 -0.3564
  607MOL0     C83668   2.690   3.980   5.347 -0.2280  0.3243 -0.3783
  607MOL0     C83669   2.617   3.934   5.474 -0.1373 -0.5529  0.6615
  607MOL0     C83670   2.699   3.973   5.601  0.3192  0.1362 -0.0210
  607MOL0     C83671   2.733   4.130   5.611  0.6270  0.2517  0.5023
  607MOL0     C83672   2.756   4.180   5.744  0.7304  0.4696 -0.7749
  607MOL0    Cl83673   2.862   4.058   5.829 -0.2671  0.2032 -0.1613
  607MOL0     C83674   2.531   3.651   4.775  0.0274 -0.1764 -1.2231
  607MOL0     C83675   2.474   3.613   4.653  1.5729  0.5584 -0.3306
  607MOL0     O83676   2.210   3.759   4.480  0.6855  0.0003 -0.9877
  607MOL0     C83677   2.112   3.742   4.234 -0.5805  0.8148  0.2645
  607MOL0     C83678   2.059   3.732   4.107  0.3683  0.4205 -0.2049
  607MOL0     N83679   1.911   3.649   3.330  0.1463 -0.8660 -0.5803
  607MOL0     N83680   1.943   3.585   3.227  0.2026 -0.3432  0.3655
  607MOL0     C83681   1.633   2.650   2.483  0.3485 -1.0987  0.3508
  607MOL0     C83682   1.615   2.531   2.414  0.5235  0.3820  0.5301
  607MOL0     C83683   1.459   2.209   2.132 -0.3109 -0.0056  0.7325
  607MOL0     C83684   1.369   2.125   2.202 -0.7818  0.3137 -0.0191
  607MOL0     C83685   1.329   1.998   2.151 -1.1059 -0.6157  0.5268
  607MOL0     C83686   1.387   1.942   2.038  0.6315  0.3872  0.2970
  607MOL0     O83687   1.348   1.824   1.976 -0.1221 -1.1249  0.7850
  607MOL0     C83688   1.264   1.736   2.044 -0.4346  0.6243 -0.5040
  607MOL0     C83689   1.117   1.775   2.038 -0.1139 -0.3569 -0.1412
  607MOL0     C83690   1.037   1.736   2.162 -0.8405  0.6513 -0.0695
  607MOL0     C83691   0.883   1.763   2.164  0.4161 -0.2604  0.0503
  607MOL0     C83692   0.807   1.712   2.051  0.7496  0.4273 -0.3547
  607MOL0     C83693   0.754   1.649   1.971 -0.1482  0.9472 -0.1892
  607MOL0     C83694   1.469   2.031   1.969  0.4998  0.5845 -0.2260
  607MOL0     C83695   1.502   2.162   2.010 -0.9605 -0.1869  0.2099
  607MOL0     C83696   1.601   2.239   1.911 -0.0042  0.3601  0.1367
  607MOL0     H83697   1.267   2.509   2.431 -1.4095  1.0812  2.2394
  607MOL0     H83698   1.292   2.692   2.562  0.6676  0.7430  0.9433
  607MOL0     H83699   1.409   2.772   2.755  2.5491  0.0544  1.0880
  607MOL0     H83700   1.360   2.917   2.658 -0.5030  0.2278  2.0173
  607MOL0     H83701   1.409   2.979   2.893 -2.5477 -0.9930 -1.1791
  607MOL0     H83702   1.553   2.879   2.886 -1.7217  0.6767  3.0344
  607MOL0     H83703   1.672   3.027   2.741  0.6199  0.2481  1.0702
  607MOL0     H83704   1.505   3.106   2.706 -2.6655 -3.4172 -0.0471
  607MOL0     H83705   1.631   3.260   2.834  3.3175 -0.2261  0.5261
  607MOL0     H83706   1.508   3.195   2.941 -1.3592  1.1330 -1.9296
  607MOL0     H83707   1.806   3.097   2.909  0.9196 -1.8051  0.8865
  607MOL0     H83708   1.687   3.058   3.038 -0.3079  1.6043  1.4814
  607MOL0     H83709   1.812   3.323   2.948 -0.6985  0.2820  0.0201
  607MOL0     H83710   1.695   3.323   3.078  0.2651 -2.0404  2.0832
  607MOL0     H83711   1.960   3.150   3.094 -2.2026 -0.9689 -1.0333
  607MOL0     H83712   1.842   3.190   3.217 -1.7327  2.3403  0.4034
  607MOL0     H83713   2.032   3.296   3.280 -0.8223  1.3078  0.7767
  607MOL0     H83714   2.050   3.374   3.118  1.0452 -0.0718  0.8425
  607MOL0     H83715   1.796   3.351   3.384  3.9524 -1.6108 -0.0290
  607MOL0     H83716   1.694   3.579   3.582  0.7578  0.4388  2.1475
  607MOL0     H83717   1.689   3.724   3.488  0.1155  0.7598  1.8537
  607MOL0     H83718   1.898   3.812   3.578 -0.7306 -1.7688 -1.2827
  607MOL0     H83719   1.786   3.765   3.704  0.1252  2.1392 -0.3402
  607MOL0     H83720   1.938   3.541   3.687 -1.3775  0.1717  0.4503
  607MOL0     H83721   2.054   3.653   3.621  1.2201  1.4476  2.6162
  607MOL0     H83722   2.023   3.800   3.830 -0.7812 -0.2188 -0.3745
  607MOL0     H83723   1.891   3.681   3.868  0.1409 -0.8167 -1.5088
  607MOL0     H83724   2.255   3.474   4.005  0.8567 -1.6704  2.8108
  607MOL0     H83725   2.484   3.518   4.236  0.8767  0.3688  0.9838
  607MOL0     H83726   2.391   3.370   4.194  2.8963  0.1996  3.0138
  607MOL0     H83727   2.368   3.439   4.339  0.5699 -2.6655 -0.6185
  607MOL0     H83728   2.469   3.917   4.501 -0.2145 -0.0085  1.0420
  607MOL0     H83729   2.546   3.986   4.718 -0.4134 -0.3085  1.2929
  607MOL0     H83730   2.671   4.011   4.895  0.1501  3.1492  1.5595
  607MOL0     H83731   2.530   3.965   4.987  1.5174  1.6388 -0.1533
  607MOL0     H83732   2.793   3.897   5.108 -0.8527  0.4710  0.5299
  607MOL0     H83733   2.751   4.062   5.090  3.2740 -0.9658 -0.1602
  607MOL0     H83734   2.542   3.884   5.233 -1.3564  0.2737 -2.6999
  607MOL0     H83735   2.540   4.053   5.209 -0.7703 -1.9352 -0.3706
  607MOL0     H83736   2.733   4.079   5.364  2.1879 -0.7164  0.1602
  607MOL0     H83737   2.771   3.906   5.337  1.9036  2.4806  0.0762
  607MOL0     H83738   2.520   3.984   5.464  0.0025 -0.5900 -1.0671
  607MOL0     H83739   2.580   3.831   5.473  0.8782 -0.9449 -1.1754
  607MOL0     H83740   2.788   3.909   5.609 -0.8246 -2.1351 -3.4007
  607MOL0     H83741   2.634   3.955   5.687 -2.6903  0.9786 -1.9564
  607MOL0     H83742   2.646   4.181   5.568  1.5511  1.5552  0.1470
  607MOL0     H83743   2.828   4.151   5.561  1.4670 -0.6423  1.6612
  607MOL0     H83744   2.658   4.180   5.793 -1.2805  0.8128 -4.4794
  607MOL0     H83745   2.811   4.274   5.734 -1.4227  1.8709 -0.0384
  607MOL0     H83746   2.559   3.579   4.851 -0.4412  2.9144  2.1406
  607MOL0     H83747   2.447   3.511   4.630  1.1791  0.7129 -0.5620
  607MOL0     H83748   2.077   3.822   4.298 -2.3427  1.7881 -1.8054
  607MOL0     H83749   1.972   3.791   4.083  0.4115  1.0269  1.0496
  607MOL0     H83750   1.733   2.691   2.492 -0.2153  0.7838 -1.2213
  607MOL0     H83751   1.700   2.477   2.373  0.7252 -1.4124  3.0766
  607MOL0     H83752   1.317   2.152   2.293 -3.0126 -0.8389 -0.8767
  607MOL0     H83753   1.252   1.947   2.208 -1.4422 -1.2757 -0.4932
  607MOL0     H83754   1.274   1.637   1.998  1.8363  0.3364  0.4554
  607MOL0     H83755   1.295   1.726   2.149 -1.7314  1.8310  0.0329
  607MOL0     H83756   1.078   1.750   1.939 -1.1289 -2.8555  0.8128
  607MOL0     H83757   1.109   1.884   2.042 -0.1316 -0.3841  1.6198
  607MOL0     H83758   1.037   1.627   2.171 -0.5520  0.6410 -0.1771
  607MOL0     H83759   1.081   1.774   2.255 -1.8809  0.6864  0.4223
  607MOL0     H83760   0.870   1.871   2.173 -4.4542 -0.8041  2.2665
  607MOL0     H83761   0.846   1.733   2.262 -1.5281  0.2459 -0.4880
  607MOL0     H83762   0.699   1.584   1.905 -1.8722 -0.1146  2.1272
  607MOL0     H83763   1.496   1.999   1.869 -3.1044  1.1246 -1.5179
  607MOL0     H83764   1.610   2.199   1.809  1.3334  1.2120 -0.1103
  607MOL0     H83765   1.569   2.342   1.889  0.1835  0.2933 -0.4851
  607MOL0     H83766   1.701   2.231   1.954 -0.3477 -1.0803  0.7030
  608MOL0     O83767   4.638   4.402   8.159  0.3358 -0.0818  0.6526
  608MOL0     C83768   4.724   4.458   8.228 -1.0486  0.7648 -0.6011
  608MOL0     O83769   4.712   4.493   8.362  0.5975 -0.3410  0.5040
  608MOL0     C83770   4.599   4.455   8.426  0.0658 -0.1230 -0.6330
  608MOL0     C83771   4.521   4.549   8.494 -0.1186 -0.1081 -0.3705
  608MOL0     C83772   4.411   4.504   8.569  0.0334 -0.3802 -0.3656
  608MOL0     C83773   4.379   4.362   8.574  0.4615 -0.6197 -1.0475
  608MOL0     O83774   4.259   4.328   8.642 -1.4127  0.6141 -0.4828
  608MOL0     C83775   4.225   4.189   8.633 -0.4457 -0.2804  0.2376
  608MOL0     C83776   4.087   4.169   8.693 -0.9238  0.5787  0.9428
  608MOL0     C83777   3.975   4.265   8.651  0.2907 -0.7189  0.2399
  608MOL0     C83778   3.876   4.183   8.578  0.0106 -0.0366 -0.3254
  608MOL0     C83779   3.745   4.248   8.532 -0.2066  0.9612 -0.0447
  608MOL0     C83780   3.660   4.316   8.644 -0.7757 -0.2432 -0.4271
  608MOL0     C83781   3.555   4.216   8.691  0.0320  0.0423  0.3254
  608MOL0     C83782   3.463   4.284   8.799  0.1122  0.6105 -0.1125
  608MOL0     N83783   3.536   4.273   8.920  0.7712  1.1178  0.2867
  608MOL0     C83784   3.531   4.170   9.010 -0.0455 -0.2288 -0.4918
  608MOL0     C83785   3.622   4.211   9.101 -0.0762 -0.2355 -0.1430
  608MOL0     C83786   3.636   4.149   9.231 -0.1514  0.3644 -0.7885
  608MOL0     C83787   3.525   4.189   9.328 -0.3052 -0.0241 -1.1201
  608MOL0     C83788   3.533   4.103   9.458 -0.8810 -0.1062 -0.1733
  608MOL0     C83789   3.410   4.134   9.552  0.6722  0.0801 -0.4396
  608MOL0     O83790   3.360   4.268   9.547 -0.8799  0.0950 -0.3236
  608MOL0     C83791   3.227   4.292   9.567 -0.7854  0.3524 -0.2269
  608MOL0     C83792   3.137   4.205   9.628  0.4255 -0.4760 -0.3417
  608MOL0     C83793   3.001   4.240   9.648  0.2274 -0.8532 -0.5251
  608MOL0     C83794   2.908   4.146   9.726 -0.8375 -0.7987  0.1041
  608MOL0     C83795   2.956   4.362   9.595 -0.2020 -0.1341  0.1911
  608MOL0     C83796   2.814   4.411   9.610  0.1061  1.2522 -0.0316
  608MOL0     O83797   2.807   4.544   9.611 -0.3312  0.0604  0.7604
  608MOL0     C83798   2.684   4.605   9.582  0.0968  1.2401  0.1144
  608MOL0     C83799   2.676   4.681   9.474  1.1941 -0.3210  0.4755
  608MOL0     C83800   2.562   4.756   9.457  0.3553 -0.3123 -0.3499
  608MOL0     C83801   2.457   4.745   9.544  0.7249  0.0953 -0.0909
  608MOL0     O83802   2.347   4.825   9.517  0.5149 -0.4217 -0.2120
  608MOL0     C83803   2.319   4.884   9.389 -1.4307 -0.5748 -0.9880
  608MOL0     C83804   2.180   4.940   9.398  0.8485  0.0413  0.0031
  608MOL0     C83805   2.156   5.046   9.516 -0.8275  0.2931 -0.8266
  608MOL0     C83806   2.009   5.095   9.513  0.6202 -0.3679  0.2464
  608MOL0     C83807   1.964   5.197   9.624  0.8707 -0.9455 -0.0231
  608MOL0     C83808   1.811   5.219   9.616  0.0043 -0.4105 -0.0486
  608MOL0     C83809   1.758   5.312   9.726  1.3372 -0.1273 -0.1990
  608MOL0     C83810   1.615   5.363   9.684 -0.1260 -0.0598 -0.5845
  608MOL0    Cl83811   1.492   5.241   9.722  0.0543 -0.2972  0.5688
  608MOL0     C83812   2.461   4.661   9.661 -0.4137  0.2642  0.0070
  608MOL0     C83813   2.583   4.590   9.678 -0.3565 -0.2959  0.5354
  608MOL0     O83814   2.714   4.335   9.611 -0.0051 -0.1514  0.3787
  608MOL0     C83815   3.055   4.453   9.536 -0.0613 -0.4933  0.6009
  608MOL0     C83816   3.190   4.412   9.528  0.3187 -1.2475  0.2124
  608MOL0     N83817   3.688   4.322   9.058 -0.0519 -0.0812 -0.1558
  608MOL0     N83818   3.635   4.362   8.950 -0.7969  0.4592 -0.1882
  608MOL0     C83819   4.466   4.262   8.513 -0.0678 -0.4591  1.4702
  608MOL0     C83820   4.573   4.318   8.433 -0.0206  0.1513 -0.5104
  608MOL0     C83821   4.856   4.496   8.152 -1.1922  0.1013 -0.0705
  608MOL0     C83822   4.969   4.524   8.227  0.2406 -0.3502 -0.1866
  608MOL0     C83823   5.096   4.560   8.167  0.0397 -0.2219 -0.8104
  608MOL0     C83824   5.098   4.591   8.034  0.3460  1.4301  0.8473
  608MOL0     O83825   5.206   4.639   7.975 -0.0517  0.4818  0.4747
  608MOL0     C83826   5.201   4.734   7.869  0.0946  0.4098 -0.1403
  608MOL0     C83827   5.112   4.854   7.906 -0.3861 -0.3362 -0.1515
  608MOL0     C83828   5.099   4.938   7.775  0.6816 -0.4271  0.5541
  608MOL0     C83829   5.160   5.076   7.796 -0.5215  0.9822  0.5887
  608MOL0     C83830   5.170   5.174   7.689  0.3912 -0.0092  0.2159
  608MOL0     C83831   5.189   5.256   7.600  0.0839  0.1718 -0.7851
  608MOL0     C83832   4.983   4.559   7.954  0.5549 -0.1773 -0.1115
  608MOL0     C83833   4.869   4.498   8.006 -0.7625  0.0680 -0.4663
  608MOL0     C83834   4.759   4.451   7.915 -0.8004 -0.5306  0.0642
  608MOL0     H83835   4.548   4.654   8.501 -1.8000  0.4833 -1.9274
  608MOL0     H83836   4.342   4.573   8.616 -1.8436 -2.2408 -0.2138
  608MOL0     H83837   4.293   4.121   8.686 -0.8442 -1.0654 -0.2544
  608MOL0     H83838   4.225   4.168   8.526  5.0818  2.7226 -0.7541
  608MOL0     H83839   4.069   4.062   8.676  2.3419 -0.1735  1.4479
  608MOL0     H83840   4.095   4.181   8.802 -2.7010  0.4587  1.1216
  608MOL0     H83841   3.931   4.302   8.744  2.4095 -1.9655  1.8147
  608MOL0     H83842   4.013   4.351   8.594 -1.4424 -0.0227  0.0645
  608MOL0     H83843   3.909   4.139   8.484 -0.8045  2.2046 -1.7256
  608MOL0     H83844   3.865   4.097   8.645  1.4693  2.2423  3.1073
  608MOL0     H83845   3.683   4.175   8.480  3.8782 -5.1712  2.4601
  608MOL0     H83846   3.774   4.327   8.463  1.5877 -0.1648 -0.6590
  608MOL0     H83847   3.723   4.355   8.725  1.1579  0.2890 -2.0969
  608MOL0     H83848   3.624   4.405   8.591  0.5053 -0.7277 -2.2434
  608MOL0     H83849   3.600   4.125   8.731  0.5883  0.4992  0.7442
  608MOL0     H83850   3.495   4.193   8.602  1.3112  0.4632 -0.6756
  608MOL0     H83851   3.429   4.386   8.774 -1.3583  0.3372  0.6658
  608MOL0     H83852   3.374   4.220   8.802 -0.1799  1.0053 -0.2144
  608MOL0     H83853   3.466   4.083   9.004 -0.1315 -0.2938  1.0084
  608MOL0     H83854   3.718   4.194   9.288 -1.4889  0.7965  0.8906
  608MOL0     H83855   3.639   4.040   9.218 -2.7231  0.4766 -3.4058
  608MOL0     H83856   3.535   4.293   9.362  1.6809 -0.8290  1.0844
  608MOL0     H83857   3.432   4.177   9.273 -0.4710 -0.3588 -0.7687
  608MOL0     H83858   3.539   3.997   9.431 -2.0216  0.1875 -1.7141
  608MOL0     H83859   3.618   4.144   9.512 -0.1360 -2.0390  0.2172
  608MOL0     H83860   3.340   4.067   9.501  1.5279  1.0013 -2.9970
  608MOL0     H83861   3.433   4.106   9.655 -0.9709 -1.4965 -0.4376
  608MOL0     H83862   3.174   4.107   9.655  1.4212 -0.0120  0.0073
  608MOL0     H83863   2.869   4.197   9.814  1.7336 -1.4522  1.6963
  608MOL0     H83864   2.972   4.064   9.761  2.4537  1.2611 -0.6771
  608MOL0     H83865   2.822   4.114   9.665 -0.6525 -1.6106  0.2520
  608MOL0     H83866   2.769   4.693   9.420  1.7331  0.6109  1.5637
  608MOL0     H83867   2.566   4.830   9.378 -0.1220 -1.0597 -1.0838
  608MOL0     H83868   2.386   4.965   9.359  0.2335 -1.7484 -0.5376
  608MOL0     H83869   2.332   4.813   9.308  0.7603  0.9044 -2.0201
  608MOL0     H83870   2.161   4.989   9.302  1.8304  0.7291  0.1400
  608MOL0     H83871   2.108   4.858   9.408 -1.7200  1.8670 -2.0404
  608MOL0     H83872   2.221   5.133   9.510 -0.1860  0.2872  3.2339
  608MOL0     H83873   2.187   5.002   9.612 -0.5772 -1.1071 -1.5217
  608MOL0     H83874   1.949   5.005   9.501  1.6508 -0.9660 -0.6700
  608MOL0     H83875   2.006   5.154   9.421 -0.5476  1.7917  1.5981
  608MOL0     H83876   1.985   5.163   9.727 -1.3133  0.5314  0.9800
  608MOL0     H83877   2.010   5.295   9.612 -3.5032  1.1910 -1.6752
  608MOL0     H83878   1.752   5.128   9.631 -0.8275  0.0254 -0.6367
  608MOL0     H83879   1.781   5.259   9.519  2.1530  1.0909 -0.1487
  608MOL0     H83880   1.823   5.397   9.747  2.0498 -0.5467 -0.6623
  608MOL0     H83881   1.751   5.256   9.820  3.2235 -1.1062 -0.5994
  608MOL0     H83882   1.617   5.391   9.578  0.6319 -1.9150 -1.1013
  608MOL0     H83883   1.591   5.456   9.737  0.7823 -0.6036  0.8193
  608MOL0     H83884   2.382   4.670   9.735 -1.7174  2.6352 -1.5569
  608MOL0     H83885   2.587   4.527   9.767  1.6694 -0.7935  0.1386
  608MOL0     H83886   3.030   4.554   9.503  0.9516  0.5137  2.7109
  608MOL0     H83887   3.258   4.475   9.472 -2.2884  0.0094 -1.8013
  608MOL0     H83888   4.444   4.156   8.520 -0.8574 -0.4202 -0.0389
  608MOL0     H83889   4.644   4.245   8.396  0.1767 -1.8314  3.2827
  608MOL0     H83890   4.966   4.516   8.335 -0.7833  0.2794 -0.1562
  608MOL0     H83891   5.186   4.568   8.228  1.9014 -3.5296 -2.8290
  608MOL0     H83892   5.303   4.752   7.835  1.3461  0.0556  3.0356
  608MOL0     H83893   5.149   4.692   7.783  1.5285  2.1823 -1.9626
  608MOL0     H83894   5.137   4.918   7.991 -2.3055  0.9763 -0.4853
  608MOL0     H83895   5.011   4.817   7.924 -0.5907  0.3179  0.0740
  608MOL0     H83896   5.155   4.890   7.695  1.2964 -1.1329  1.3891
  608MOL0     H83897   4.997   4.952   7.740  1.7583 -0.0977 -2.7698
  608MOL0     H83898   5.262   5.046   7.822  0.5402  2.0416 -2.0628
  608MOL0     H83899   5.116   5.116   7.888 -0.6450  1.8660  0.1525
  608MOL0     H83900   5.216   5.323   7.521  2.4277  2.7687  2.0092
  608MOL0     H83901   4.982   4.578   7.847  0.1146  3.0474  0.3690
  608MOL0     H83902   4.665   4.507   7.915 -1.8571 -1.8840  4.8035
  608MOL0     H83903   4.808   4.443   7.817  2.5225 -1.4854  1.6668
  608MOL0     H83904   4.738   4.345   7.931 -2.2278 -0.1303  0.9899
  609MOL0     O83905   4.696   8.093   1.820 -0.4891  0.1056  0.3290
  609MOL0     C83906   4.698   8.007   1.725 -0.1357 -0.5127 -0.0792
  609MOL0     O83907   4.785   8.011   1.624  0.1396  0.0474  0.1266
  609MOL0     C83908   4.891   8.107   1.625 -0.0124  0.1477  0.5217
  609MOL0     C83909   4.972   8.120   1.733 -0.1286  0.6621  0.5803
  609MOL0     C83910   5.063   8.226   1.758  0.6468 -0.7866  0.1924
  609MOL0     C83911   5.083   8.325   1.660  0.2977 -0.2009  0.0255
  609MOL0     O83912   5.169   8.432   1.663 -0.2978  0.3841  0.3237
  609MOL0     C83913   5.194   8.472   1.791 -0.6547  0.9642 -0.0205
  609MOL0     C83914   5.260   8.601   1.797 -0.1231 -0.2453 -0.4634
  609MOL0     C83915   5.193   8.716   1.729 -0.0877  0.1812 -0.3010
  609MOL0     C83916   5.216   8.719   1.576 -0.0017 -0.7245 -0.1053
  609MOL0     C83917   5.136   8.842   1.509 -0.0905  1.1110  0.0841
  609MOL0     C83918   5.232   8.966   1.504  0.1778 -0.0209  0.4266
  609MOL0     C83919   5.160   9.079   1.427  0.5698  0.6534  0.0608
  609MOL0     C83920   5.224   9.215   1.454  0.1850 -0.1513  0.6672
  609MOL0     N83921   5.339   9.241   1.372  1.2363 -0.4700  0.3798
  609MOL0     C83922   5.458   9.186   1.393 -0.0166  0.5088  1.0986
  609MOL0     C83923   5.548   9.258   1.319 -0.9749  0.2255 -0.2756
  609MOL0     C83924   5.696   9.247   1.310  0.0417 -0.2154  0.4645
  609MOL0     C83925   5.757   9.198   1.182 -0.4960  0.0908  0.2711
  609MOL0     C83926   5.904   9.206   1.183  1.0040  0.3903 -0.1618
  609MOL0     C83927   5.961   9.128   1.061 -0.0893 -0.4680  0.5404
  609MOL0     O83928   5.914   9.197   0.948 -0.3426  0.3757  0.7420
  609MOL0     C83929   5.966   9.198   0.820  0.7130 -0.6799 -0.4514
  609MOL0     C83930   6.077   9.133   0.785  0.2596  1.4363 -0.5338
  609MOL0     C83931   6.152   9.153   0.664  0.6667  0.2513 -0.6109
  609MOL0     C83932   6.280   9.073   0.643 -0.1599  0.0243  0.0649
  609MOL0     C83933   6.097   9.241   0.566  0.5048 -0.9191  0.4569
  609MOL0     C83934   6.149   9.271   0.425 -0.7138 -0.7767  0.2445
  609MOL0     O83935   6.080   9.372   0.372  0.3510 -0.4598  1.4375
  609MOL0     C83936   6.107   9.416   0.246 -0.3657 -1.0639 -0.0876
  609MOL0     C83937   6.021   9.420   0.140 -0.2321  0.2148  0.5056
  609MOL0     C83938   6.045   9.478   0.019  0.9419 -0.2853  0.1224
  609MOL0     C83939   6.168   9.539   0.000 -0.2844 -0.2570 -0.1085
  609MOL0     O83940   6.198   9.582  -0.125  0.4632  0.0540  0.1481
  609MOL0     C83941   6.330   9.553  -0.175 -0.0128  0.1409 -0.0417
  609MOL0     C83942   6.316   9.456  -0.290 -0.1884 -0.1584 -0.3652
  609MOL0     C83943   6.436   9.454  -0.394  0.2098  0.2973 -1.2535
  609MOL0     C83944   6.406   9.356  -0.513 -0.3626 -0.1510 -0.2265
  609MOL0     C83945   6.405   9.216  -0.463  0.2500 -0.2804 -0.4750
  609MOL0     C83946   6.417   9.116  -0.586 -0.1993 -0.2101 -0.3660
  609MOL0     C83947   6.439   8.971  -0.534 -0.0790 -0.6103 -0.0676
  609MOL0     C83948   6.363   8.860  -0.602  0.1020 -0.7709 -0.3589
  609MOL0    Cl83949   6.223   8.817  -0.501 -0.2123 -0.4437 -0.2486
  609MOL0     C83950   6.267   9.536   0.101  0.5950  0.3396 -0.2402
  609MOL0     C83951   6.226   9.480   0.227 -0.3733  1.3579 -0.8209
  609MOL0     O83952   6.250   9.217   0.371 -0.1629  0.0821 -0.3956
  609MOL0     C83953   5.966   9.295   0.604 -0.2967  0.2592  0.0146
  609MOL0     C83954   5.896   9.274   0.727  0.1348 -0.3606 -0.1788
  609MOL0     N83955   5.478   9.367   1.264  0.4792  0.4418  0.2590
  609MOL0     N83956   5.358   9.360   1.303  0.6193  0.1527  0.1710
  609MOL0     C83957   5.009   8.302   1.540  0.4442  0.2090 -0.1012
  609MOL0     C83958   4.920   8.194   1.516 -0.4915  0.5275 -0.3348
  609MOL0     C83959   4.572   7.919   1.731 -0.0142  0.9913 -0.3672
  609MOL0     C83960   4.545   7.848   1.610  0.1322 -0.8796 -0.7426
  609MOL0     C83961   4.446   7.760   1.601  0.8892  0.1843  0.3103
  609MOL0     C83962   4.365   7.734   1.708  0.0993 -0.4061  0.1650
  609MOL0     O83963   4.252   7.652   1.709 -0.0101 -0.6630 -0.1567
  609MOL0     C83964   4.189   7.617   1.580  0.1917  0.4321 -0.1006
  609MOL0     C83965   4.207   7.468   1.554 -0.3141  0.4235 -0.3734
  609MOL0     C83966   4.101   7.367   1.615 -0.2598 -0.3988  0.3597
  609MOL0     C83967   4.121   7.215   1.567 -1.0227 -1.0286  0.2779
  609MOL0     C83968   4.105   7.197   1.424  1.2920 -0.8183 -0.0512
  609MOL0     C83969   4.094   7.184   1.302  0.1488  0.1622  0.8332
  609MOL0     C83970   4.393   7.794   1.827  1.0635 -0.4261 -0.9389
  609MOL0     C83971   4.485   7.894   1.844 -0.3247 -0.7120  0.5116
  609MOL0     C83972   4.490   7.955   1.979 -0.5380 -0.5451  0.1452
  609MOL0     H83973   4.970   8.047   1.813 -3.0279  1.1506  1.0456
  609MOL0     H83974   5.103   8.242   1.858  0.0718  0.6523  0.2169
  609MOL0     H83975   5.256   8.392   1.833 -0.7977  0.0006 -1.5935
  609MOL0     H83976   5.102   8.468   1.851  0.6926 -0.3222  2.1127
  609MOL0     H83977   5.267   8.631   1.902 -1.8774  2.9375 -1.1337
  609MOL0     H83978   5.363   8.598   1.759  0.2852 -3.9192  0.4658
  609MOL0     H83979   5.084   8.711   1.733 -0.1735  0.0094 -1.9924
  609MOL0     H83980   5.234   8.808   1.772 -0.3033  0.7235 -1.2383
  609MOL0     H83981   5.324   8.732   1.569 -0.0644  1.9727  2.2262
  609MOL0     H83982   5.179   8.629   1.526 -0.6307  1.1561 -3.3360
  609MOL0     H83983   5.050   8.874   1.569 -1.2155  1.3292 -1.5676
  609MOL0     H83984   5.100   8.818   1.408  2.0393  1.0656 -0.7218
  609MOL0     H83985   5.239   9.004   1.606 -0.3661  0.0323  0.4494
  609MOL0     H83986   5.328   8.939   1.459  1.0389  0.2361  2.0675
  609MOL0     H83987   5.061   9.091   1.472  0.7092  0.1707  0.5197
  609MOL0     H83988   5.163   9.056   1.320 -1.9799  0.4678 -0.0263
  609MOL0     H83989   5.153   9.298   1.444 -0.7831 -0.8143  1.8562
  609MOL0     H83990   5.236   9.216   1.562 -3.6231  0.4561  1.2380
  609MOL0     H83991   5.471   9.104   1.463 -2.6303 -1.7823 -0.8403
  609MOL0     H83992   5.734   9.204   1.404 -0.7920  3.6382  2.8040
  609MOL0     H83993   5.719   9.354   1.313 -0.0919 -0.0490 -2.3359
  609MOL0     H83994   5.734   9.094   1.160  0.0857 -0.5505  2.4157
  609MOL0     H83995   5.712   9.257   1.102  3.4635 -0.4913 -2.6865
  609MOL0     H83996   5.927   9.313   1.191 -0.6970  0.9515 -1.9785
  609MOL0     H83997   5.946   9.166   1.275  1.1731  2.4709  0.7196
  609MOL0     H83998   6.070   9.128   1.068 -0.1779 -1.2855  2.6553
  609MOL0     H83999   5.927   9.024   1.063  0.3918 -0.6315  2.5181
  609MOL0     H84000   6.119   9.062   0.855 -3.5755 -1.8161 -1.1947
  609MOL0     H84001   6.363   9.124   0.693  1.9895 -1.8669 -1.3527
  609MOL0     H84002   6.301   9.062   0.536 -0.2634 -0.6105  0.1029
  609MOL0     H84003   6.254   8.972   0.678 -3.9305  1.0026  0.5778
  609MOL0     H84004   5.929   9.365   0.161 -0.7326  1.0916  0.6511
  609MOL0     H84005   5.981   9.462  -0.067 -0.1893 -3.2024  1.3744
  609MOL0     H84006   6.372   9.646  -0.216 -1.8748  0.3995 -1.5224
  609MOL0     H84007   6.398   9.507  -0.103  3.5576  3.1626 -1.1564
  609MOL0     H84008   6.287   9.358  -0.250  1.3626  0.0367  1.4203
  609MOL0     H84009   6.221   9.487  -0.334  0.1532  2.5016  0.5840
  609MOL0     H84010   6.523   9.424  -0.335 -0.9026  2.3978  1.7225
  609MOL0     H84011   6.450   9.554  -0.436 -1.2964  1.1750  0.2034
  609MOL0     H84012   6.483   9.365  -0.590 -0.5430 -2.0070 -0.6730
  609MOL0     H84013   6.319   9.383  -0.573  1.2973  0.9009 -2.3179
  609MOL0     H84014   6.491   9.201  -0.398  0.8402 -0.8793 -1.3755
  609MOL0     H84015   6.316   9.194  -0.404  0.8284  1.5570  1.1976
  609MOL0     H84016   6.504   9.138  -0.649  1.2748  2.1498  2.2710
  609MOL0     H84017   6.330   9.103  -0.650  0.0767 -1.0207 -0.5912
  609MOL0     H84018   6.400   8.964  -0.432 -1.2657 -2.2695 -0.5815
  609MOL0     H84019   6.547   8.957  -0.524  0.0000  1.3648  3.8375
  609MOL0     H84020   6.429   8.777  -0.627  0.5954 -0.1168 -1.3269
  609MOL0     H84021   6.312   8.893  -0.693  2.8801  0.1043 -1.7024
  609MOL0     H84022   6.356   9.598   0.103  1.8832 -1.3639  2.5767
  609MOL0     H84023   6.286   9.469   0.317 -0.6461 -1.9708 -0.9240
  609MOL0     H84024   5.918   9.361   0.532  1.6005  0.7389 -0.8758
  609MOL0     H84025   5.797   9.312   0.750 -2.3294 -3.3373 -4.5054
  609MOL0     H84026   5.021   8.381   1.466  3.2139 -1.5474 -1.7128
  609MOL0     H84027   4.859   8.194   1.426 -0.8806  1.4166 -0.0837
  609MOL0     H84028   4.608   7.867   1.525  0.3955  1.8431 -0.0094
  609MOL0     H84029   4.444   7.700   1.510  0.6850  1.2616 -0.4183
  609MOL0     H84030   4.083   7.644   1.579  0.1852  0.3905 -0.5583
  609MOL0     H84031   4.231   7.679   1.501  1.8418 -0.5194 -0.0254
  609MOL0     H84032   4.312   7.441   1.571  0.0167  0.2385 -2.4517
  609MOL0     H84033   4.196   7.450   1.447  0.9184 -0.6969 -0.3390
  609MOL0     H84034   4.121   7.363   1.722  1.2200 -1.6820  0.0783
  609MOL0     H84035   3.998   7.394   1.588  0.3019 -0.6575 -2.3346
  609MOL0     H84036   4.054   7.146   1.620 -1.4421 -2.2126 -1.6790
  609MOL0     H84037   4.225   7.197   1.598 -0.8346 -0.8314 -0.2344
  609MOL0     H84038   4.094   7.177   1.196 -0.0931 -0.8455  0.8863
  609MOL0     H84039   4.322   7.776   1.907  0.0270  2.2145 -1.1566
  609MOL0     H84040   4.456   8.054   1.947 -1.0574 -1.8026 -3.6784
  609MOL0     H84041   4.428   7.915   2.060  3.0449 -2.0886  2.3579
  609MOL0     H84042   4.595   7.970   2.005  1.1237 -3.4469 -3.8650
  610MOL0     O84043   1.659   6.996   5.784  0.5130 -0.3796  0.4578
  610MOL0     C84044   1.547   6.952   5.808 -0.0066 -0.1811 -0.3192
  610MOL0     O84045   1.468   6.979   5.920  0.0910  0.0907 -0.4085
  610MOL0     C84046   1.546   7.035   6.017  0.2823 -0.6952  0.0007
  610MOL0     C84047   1.644   6.968   6.079  0.3052 -0.6259  0.5628
  610MOL0     C84048   1.740   7.034   6.148  0.7288  0.4707  1.1567
  610MOL0     C84049   1.729   7.173   6.176 -0.2080  0.2309  0.9959
  610MOL0     O84050   1.829   7.265   6.215 -0.6531 -0.5120  0.0990
  610MOL0     C84051   1.957   7.238   6.156  0.7122  1.0720 -0.7751
  610MOL0     C84052   2.065   7.306   6.238  0.0182 -0.7977  0.7452
  610MOL0     C84053   2.052   7.459   6.250 -0.2148  0.1643  0.3330
  610MOL0     C84054   2.052   7.533   6.118  1.5723 -0.6116  0.0727
  610MOL0     C84055   2.075   7.685   6.140  0.1382  0.3247  0.3120
  610MOL0     C84056   2.026   7.760   6.014 -0.0199 -0.4033  0.4516
  610MOL0     C84057   2.040   7.909   6.026 -0.2847 -0.4033  0.9560
  610MOL0     C84058   2.183   7.963   6.058  0.1252  0.2774  0.0318
  610MOL0     N84059   2.215   7.975   6.202 -0.1174  0.4180 -0.2885
  610MOL0     C84060   2.125   7.984   6.304  0.1560  0.7107 -0.5618
  610MOL0     C84061   2.202   7.996   6.414 -0.4068  1.4526  0.6522
  610MOL0     C84062   2.161   8.008   6.551 -0.5605 -1.0024 -0.0893
  610MOL0     C84063   2.162   7.886   6.626 -1.0139  0.0371  0.6043
  610MOL0     C84064   2.086   7.900   6.759 -0.4234 -0.0491  0.0317
  610MOL0     C84065   2.150   8.010   6.848 -0.2158  0.2345 -0.3190
  610MOL0     O84066   2.044   8.052   6.940 -0.0191 -0.2732 -0.0360
  610MOL0     C84067   2.042   8.186   6.973  0.4605  0.7968  0.0895
  610MOL0     C84068   2.005   8.206   7.097  0.1275  0.4497 -0.0134
  610MOL0     C84069   1.992   8.334   7.160  0.1140 -0.0984  0.6683
  610MOL0     C84070   1.976   8.330   7.312  0.4927 -0.2049 -0.4945
  610MOL0     C84071   2.023   8.446   7.084 -0.2136 -0.0722  0.0652
  610MOL0     C84072   2.032   8.592   7.126  0.1222  0.0668  0.0001
  610MOL0     O84073   2.007   8.616   7.260  0.5286 -0.6557 -0.0462
  610MOL0     C84074   1.971   8.740   7.306  0.1105  0.5861 -0.5678
  610MOL0     C84075   2.050   8.852   7.282 -0.2938  0.6420 -0.1432
  610MOL0     C84076   2.009   8.979   7.331 -0.2248 -0.5384 -0.5806
  610MOL0     C84077   1.900   8.991   7.416  0.2335  0.2598 -0.8173
  610MOL0     O84078   1.856   9.114   7.460  0.3986  0.5085  0.9263
  610MOL0     C84079   1.825   9.207   7.351  0.1049  0.2699 -0.6905
  610MOL0     C84080   1.687   9.271   7.351  0.4487  0.4981 -0.6631
  610MOL0     C84081   1.639   9.335   7.489 -0.5003 -0.1912  0.0890
  610MOL0     C84082   1.494   9.367   7.507 -0.1610 -0.2519  0.5730
  610MOL0     C84083   1.472   9.382   7.656 -0.9817  0.1406  0.2501
  610MOL0     C84084   1.329   9.377   7.702  1.3110  0.4250 -0.3453
  610MOL0     C84085   1.302   9.420   7.850 -0.2978  0.3953  0.5626
  610MOL0     C84086   1.407   9.361   7.947  0.5110  0.0307  0.7672
  610MOL0    Cl84087   1.406   9.178   7.945  0.4708  0.1056 -0.1975
  610MOL0     C84088   1.816   8.882   7.443 -0.4828  0.8643 -0.8234
  610MOL0     C84089   1.859   8.756   7.393 -0.5663 -0.5105 -0.3575
  610MOL0     O84090   2.044   8.684   7.045 -0.4013  0.0295  0.3433
  610MOL0     C84091   2.040   8.420   6.949 -0.3925  0.8235  0.7470
  610MOL0     C84092   2.069   8.292   6.890 -0.1714 -0.0635  0.0483
  610MOL0     N84093   2.340   7.995   6.378  0.8037  0.1335 -0.1523
  610MOL0     N84094   2.340   7.990   6.246  0.2118 -0.0078  0.1740
  610MOL0     C84095   1.624   7.248   6.120  0.5111  0.5633 -0.0840
  610MOL0     C84096   1.527   7.177   6.047 -0.0098  1.1316 -0.7171
  610MOL0     C84097   1.500   6.854   5.707 -0.1808 -0.5225  1.2419
  610MOL0     C84098   1.401   6.917   5.619  0.9044  0.0284 -1.1080
  610MOL0     C84099   1.359   6.848   5.508  0.6488 -0.3273  0.3061
  610MOL0     C84100   1.420   6.730   5.463  0.1564  0.1294 -0.4476
  610MOL0     O84101   1.375   6.679   5.344 -0.0063  0.2988  0.5307
  610MOL0     C84102   1.447   6.568   5.288  0.1659  0.3156 -0.3329
  610MOL0     C84103   1.403   6.541   5.138 -0.0435  0.2883 -0.6294
  610MOL0     C84104   1.481   6.418   5.091  0.2041  1.1867  0.6169
  610MOL0     C84105   1.491   6.382   4.943  0.0549  0.0744  0.4198
  610MOL0     C84106   1.365   6.393   4.876  0.0381 -0.5862  0.3086
  610MOL0     C84107   1.257   6.404   4.820 -0.0182  0.7723  0.2565
  610MOL0     C84108   1.517   6.676   5.544  0.0635  0.6171  0.2922
  610MOL0     C84109   1.560   6.730   5.661 -0.6464  0.0910 -0.3173
  610MOL0     C84110   1.672   6.648   5.737  0.1031 -0.2142 -1.3839
  610MOL0     H84111   1.630   6.864   6.050 -0.2780 -0.4865  0.3514
  610MOL0     H84112   1.827   6.976   6.177  1.6606 -0.6155 -3.0138
  610MOL0     H84113   1.956   7.262   6.049  0.5385  0.6881 -0.8627
  610MOL0     H84114   1.973   7.130   6.164 -1.7483  0.7828  2.4476
  610MOL0     H84115   2.058   7.271   6.341 -3.1902  0.6221  1.1456
  610MOL0     H84116   2.167   7.272   6.219 -0.2410 -2.5779  2.2794
  610MOL0     H84117   1.964   7.494   6.305  0.1922  0.5319  0.7696
  610MOL0     H84118   2.146   7.488   6.299 -0.0059 -0.4802  0.3217
  610MOL0     H84119   2.118   7.491   6.042  4.7694  4.8000 -0.6755
  610MOL0     H84120   1.952   7.521   6.077  0.2259  0.4145  2.8328
  610MOL0     H84121   2.178   7.698   6.174  0.4503 -0.7819 -0.1738
  610MOL0     H84122   2.014   7.714   6.226 -1.3560  1.9575 -1.1973
  610MOL0     H84123   2.076   7.731   5.921  0.7646  1.0685  0.3856
  610MOL0     H84124   1.919   7.738   6.005  0.6503 -3.6372 -1.2789
  610MOL0     H84125   1.962   7.948   6.093 -0.9164  2.3719 -1.1888
  610MOL0     H84126   2.005   7.952   5.931 -1.2311 -3.5928 -0.2502
  610MOL0     H84127   2.260   7.915   5.997  0.4567  2.1704 -1.1397
  610MOL0     H84128   2.181   8.061   6.009  2.9632 -0.5292 -1.9422
  610MOL0     H84129   2.017   7.972   6.295 -0.2177  2.1996  1.4376
  610MOL0     H84130   2.059   8.049   6.548 -0.7340 -1.3284  0.7854
  610MOL0     H84131   2.220   8.087   6.599  0.7791 -1.1408 -1.4468
  610MOL0     H84132   2.135   7.800   6.565  3.3879 -0.7418 -0.6100
  610MOL0     H84133   2.267   7.865   6.651 -0.7858 -0.6956 -0.8643
  610MOL0     H84134   1.980   7.920   6.744 -0.3723  0.5393  0.4107
  610MOL0     H84135   2.094   7.809   6.819 -1.0407  1.3201  2.3017
  610MOL0     H84136   2.239   7.974   6.900 -0.7098 -0.8299 -0.1795
  610MOL0     H84137   2.192   8.093   6.791 -2.2908 -0.2420 -2.7105
  610MOL0     H84138   1.994   8.117   7.158  0.3195 -0.0346 -0.6739
  610MOL0     H84139   2.052   8.391   7.361  0.2940 -2.0220  2.3336
  610MOL0     H84140   1.968   8.223   7.333 -0.1777 -0.9165 -3.8183
  610MOL0     H84141   1.884   8.377   7.347  1.2082 -0.5535  2.0976
  610MOL0     H84142   2.135   8.859   7.216  1.8661  2.1916  2.5924
  610MOL0     H84143   2.052   9.070   7.292  1.0163 -0.2855  1.2698
  610MOL0     H84144   1.895   9.291   7.357 -0.9049  1.0542  0.7840
  610MOL0     H84145   1.842   9.165   7.251  1.4413 -4.2103  1.1767
  610MOL0     H84146   1.679   9.354   7.279 -1.3856  1.7786  0.9074
  610MOL0     H84147   1.618   9.199   7.306  0.2224  1.6191 -2.2295
  610MOL0     H84148   1.708   9.414   7.519 -0.4745  1.1909 -3.1902
  610MOL0     H84149   1.660   9.253   7.559  2.2322 -0.0831 -0.5088
  610MOL0     H84150   1.434   9.291   7.456  4.5466 -2.5084 -2.1832
  610MOL0     H84151   1.467   9.461   7.458  0.3768  0.1626  1.0494
  610MOL0     H84152   1.528   9.302   7.705  1.3152  2.2351  1.1995
  610MOL0     H84153   1.519   9.474   7.691  0.0160  0.4081 -1.6384
  610MOL0     H84154   1.304   9.271   7.695  2.8481  0.0671 -0.7781
  610MOL0     H84155   1.263   9.436   7.639 -2.5409 -0.3849  2.5455
  610MOL0     H84156   1.199   9.403   7.883 -0.3668  1.8527  1.1782
  610MOL0     H84157   1.308   9.529   7.853 -3.7258  0.7127  0.4403
  610MOL0     H84158   1.390   9.401   8.047  1.1211  1.5363  0.2920
  610MOL0     H84159   1.502   9.401   7.911  0.0578 -0.3358 -0.9617
  610MOL0     H84160   1.727   8.881   7.503  0.2927 -0.4614  0.3680
  610MOL0     H84161   1.794   8.672   7.417 -1.3012  0.0915 -0.2128
  610MOL0     H84162   2.046   8.492   6.868 -1.0282 -1.7043 -1.7332
  610MOL0     H84163   2.084   8.272   6.785  1.6691 -0.8593  0.4203
  610MOL0     H84164   1.620   7.356   6.125  1.3831  0.5506  1.4108
  610MOL0     H84165   1.458   7.234   5.986  0.0031  1.9744  0.0379
  610MOL0     H84166   1.346   7.009   5.637 -2.9057 -2.3638  0.9874
  610MOL0     H84167   1.292   6.890   5.434 -1.6261 -1.5817  1.5580
  610MOL0     H84168   1.555   6.586   5.279  0.0143  0.5357 -2.2649
  610MOL0     H84169   1.445   6.476   5.347  1.0124  0.3210 -0.2848
  610MOL0     H84170   1.431   6.628   5.078  1.5128 -0.6231 -1.2657
  610MOL0     H84171   1.294   6.526   5.136 -0.4320  2.6743 -0.3206
  610MOL0     H84172   1.582   6.444   5.125 -0.5380  1.8860  2.3996
  610MOL0     H84173   1.453   6.331   5.152 -0.0084  0.0227 -1.0575
  610MOL0     H84174   1.555   6.297   4.919  2.0367  1.8087 -0.8059
  610MOL0     H84175   1.547   6.459   4.890 -2.6786  0.4812 -2.1554
  610MOL0     H84176   1.166   6.409   4.763 -0.0760 -2.2516 -0.1279
  610MOL0     H84177   1.565   6.586   5.507  0.3479  0.5404  0.8445
  610MOL0     H84178   1.668   6.547   5.695 -0.7940 -0.2836 -1.1522
  610MOL0     H84179   1.767   6.696   5.711  1.7961 -1.5604  1.6080
  610MOL0     H84180   1.663   6.638   5.846  1.1564 -0.5076 -1.3034
  611MOL0     O84181   6.326   0.794   0.741 -0.0040 -0.0430  0.5272
  611MOL0     C84182   6.234   0.870   0.770  0.2190 -0.5475  0.0293
  611MOL0     O84183   6.118   0.889   0.700  0.2241  0.4522  0.3252
  611MOL0     C84184   6.090   0.795   0.595 -0.7200  0.1328  0.1065
  611MOL0     C84185   6.170   0.806   0.481  0.5472  0.7497 -0.1593
  611MOL0     C84186   6.129   0.742   0.361 -0.1225 -0.0971  0.8594
  611MOL0     C84187   6.004   0.678   0.348 -1.3047 -0.0188  0.0148
  611MOL0     O84188   5.944   0.617   0.243 -0.0786 -0.3887  0.3691
  611MOL0     C84189   6.017   0.639   0.119  0.5195  0.2279  0.1892
  611MOL0     C84190   5.909   0.592   0.019 -0.0007  0.8518  0.1458
  611MOL0     C84191   5.935   0.584  -0.130 -0.0177  0.3059 -0.1663
  611MOL0     C84192   5.805   0.602  -0.207  1.5872  0.3254  0.7468
  611MOL0     C84193   5.816   0.568  -0.355  0.0999 -0.1502 -0.3808
  611MOL0     C84194   5.693   0.609  -0.433  0.1351  0.3100  0.3549
  611MOL0     C84195   5.727   0.630  -0.584 -0.0930 -0.4317 -1.0104
  611MOL0     C84196   5.751   0.484  -0.637 -0.0458  0.3694  0.1539
  611MOL0     N84197   5.802   0.492  -0.774 -1.2263 -0.4787  0.0444
  611MOL0     C84198   5.901   0.576  -0.827 -0.5641 -0.6246 -0.5933
  611MOL0     C84199   5.915   0.530  -0.957 -0.1924 -1.4144  0.3437
  611MOL0     C84200   5.996   0.607  -1.056 -0.4421 -0.3866 -0.6846
  611MOL0     C84201   6.146   0.577  -1.048  0.2687 -1.1465  0.4451
  611MOL0     C84202   6.195   0.674  -1.160 -0.1427  0.0703 -0.5935
  611MOL0     C84203   6.330   0.622  -1.210  1.5066 -0.7406 -0.5252
  611MOL0     O84204   6.396   0.740  -1.251 -0.9257  0.8440 -0.1518
  611MOL0     C84205   6.409   0.781  -1.382  0.7024  0.7775  0.1078
  611MOL0     C84206   6.315   0.737  -1.477 -0.6699  0.5545 -0.1960
  611MOL0     C84207   6.327   0.761  -1.610 -1.2826  0.5014 -0.0911
  611MOL0     C84208   6.213   0.718  -1.701  0.6106  0.2675  0.6069
  611MOL0     C84209   6.446   0.838  -1.655 -0.2410  0.5805  0.6132
  611MOL0     C84210   6.454   0.892  -1.795 -0.1047 -0.0839 -0.0058
  611MOL0     O84211   6.371   0.840  -1.893 -0.1418  0.0007 -0.4387
  611MOL0     C84212   6.364   0.895  -2.020 -0.7279  0.5330  0.7098
  611MOL0     C84213   6.354   0.799  -2.119  0.4298  0.3814  0.9348
  611MOL0     C84214   6.320   0.832  -2.248  0.3021 -0.3702  0.9911
  611MOL0     C84215   6.309   0.968  -2.294 -0.1575 -0.3434 -0.1530
  611MOL0     O84216   6.277   1.012  -2.423  0.2289  0.0971 -0.0864
  611MOL0     C84217   6.197   0.930  -2.497  0.2503  0.6631  0.1808
  611MOL0     C84218   6.183   0.998  -2.633 -0.1172  0.5873 -0.3322
  611MOL0     C84219   6.085   0.939  -2.734  0.7711  0.0283 -0.5385
  611MOL0     C84220   6.096   1.029  -2.859 -0.8816  0.1056  0.6501
  611MOL0     C84221   5.954   1.035  -2.923 -0.4644 -0.0261 -0.2815
  611MOL0     C84222   5.946   1.109  -3.059  0.0373  0.0748 -0.0658
  611MOL0     C84223   5.805   1.110  -3.109 -0.6904 -0.2526 -0.4081
  611MOL0     C84224   5.800   1.195  -3.236 -0.5251  0.1288  0.1298
  611MOL0    Cl84225   5.914   1.150  -3.365 -0.5738  0.0512 -0.1588
  611MOL0     C84226   6.327   1.064  -2.194  0.2779  0.0852  0.5907
  611MOL0     C84227   6.345   1.034  -2.053 -0.5113 -0.6038  0.8982
  611MOL0     O84228   6.530   0.990  -1.806  0.1529 -0.2925 -0.1635
  611MOL0     C84229   6.540   0.874  -1.554  0.0582 -0.1127  0.0758
  611MOL0     C84230   6.519   0.849  -1.421 -0.5413 -0.3326 -0.0952
  611MOL0     N84231   5.825   0.421  -0.976 -0.1206  0.0674 -0.4656
  611MOL0     N84232   5.775   0.397  -0.863 -0.1636 -0.1362  0.1618
  611MOL0     C84233   5.932   0.665   0.474 -0.3833  0.1909 -0.7017
  611MOL0     C84234   5.971   0.716   0.593 -0.4828 -0.4149 -0.2760
  611MOL0     C84235   6.255   0.973   0.882  0.5677  0.4480  0.8290
  611MOL0     C84236   6.180   1.095   0.882  0.3555  0.5025 -0.1875
  611MOL0     C84237   6.195   1.189   0.980 -0.2641 -0.3232 -0.2053
  611MOL0     C84238   6.289   1.169   1.072  0.1565 -1.5396 -0.1721
  611MOL0     O84239   6.311   1.283   1.148  0.2737 -0.1568 -1.0154
  611MOL0     C84240   6.376   1.287   1.280  0.2771 -0.0599 -0.0303
  611MOL0     C84241   6.356   1.423   1.354 -0.2754  0.5874  0.4523
  611MOL0     C84242   6.420   1.429   1.490 -1.1856  0.3937 -0.8858
  611MOL0     C84243   6.389   1.553   1.556 -0.1238 -0.3884 -0.4636
  611MOL0     C84244   6.483   1.584   1.662  0.4826  0.3397  0.1705
  611MOL0     C84245   6.566   1.586   1.752  0.2325  0.0567  0.3542
  611MOL0     C84246   6.363   1.052   1.085 -0.5422  0.0040 -0.1144
  611MOL0     C84247   6.351   0.946   0.990 -0.0618 -0.4069 -0.6678
  611MOL0     C84248   6.430   0.821   0.998 -0.0251 -0.3079 -0.0465
  611MOL0     H84249   6.267   0.851   0.499  1.0728 -0.6365  0.7364
  611MOL0     H84250   6.198   0.752   0.278  0.7035 -2.5452  1.1649
  611MOL0     H84251   6.111   0.583   0.122  1.5380  1.9070  1.3086
  611MOL0     H84252   6.043   0.741   0.088  0.5153 -0.0871 -0.8865
  611MOL0     H84253   5.874   0.495   0.056 -1.7881  1.2470 -0.4209
  611MOL0     H84254   5.825   0.662   0.028 -0.2321  0.5623  0.2507
  611MOL0     H84255   6.005   0.663  -0.158 -2.0103  1.3509 -2.5461
  611MOL0     H84256   5.982   0.489  -0.157  1.1798  0.8375  0.0045
  611MOL0     H84257   5.724   0.542  -0.165 -2.4153  3.0212 -2.4082
  611MOL0     H84258   5.776   0.707  -0.198  3.0721  0.6916  1.6713
  611MOL0     H84259   5.846   0.464  -0.369  5.1892  0.9883 -0.0481
  611MOL0     H84260   5.909   0.617  -0.388  1.2050 -0.8796  1.4965
  611MOL0     H84261   5.627   0.524  -0.415  0.3290  0.5750  2.6623
  611MOL0     H84262   5.638   0.697  -0.397  0.3591  2.6710 -4.3441
  611MOL0     H84263   5.820   0.687  -0.594 -1.1832  2.5344  3.0747
  611MOL0     H84264   5.651   0.682  -0.643 -0.1100  1.0915  0.2716
  611MOL0     H84265   5.827   0.424  -0.586 -0.1076  0.7030  0.6461
  611MOL0     H84266   5.660   0.424  -0.632  1.2533 -1.8344 -0.6848
  611MOL0     H84267   5.939   0.664  -0.776 -1.6812 -0.6775  0.3610
  611MOL0     H84268   5.989   0.713  -1.033  0.1694 -0.7023  1.1054
  611MOL0     H84269   5.954   0.601  -1.157  0.8146  0.9258 -1.3181
  611MOL0     H84270   6.181   0.600  -0.947 -0.9793  0.1146  0.6078
  611MOL0     H84271   6.165   0.471  -1.067  0.4568 -1.1192  0.4750
  611MOL0     H84272   6.127   0.702  -1.241  0.8551 -0.3690 -1.6334
  611MOL0     H84273   6.201   0.771  -1.109  0.7040  1.3189 -2.9039
  611MOL0     H84274   6.388   0.571  -1.132  0.8108  0.9843  1.2133
  611MOL0     H84275   6.315   0.543  -1.284 -0.6115 -1.3714  0.4835
  611MOL0     H84276   6.235   0.675  -1.437  2.3572 -3.8528 -0.2724
  611MOL0     H84277   6.171   0.799  -1.762 -0.6541 -1.9178 -1.6085
  611MOL0     H84278   6.125   0.686  -1.644 -0.9528  4.1369  0.6889
  611MOL0     H84279   6.238   0.633  -1.765 -1.1569  0.9465 -1.0852
  611MOL0     H84280   6.348   0.694  -2.092  3.1855 -0.7842 -2.2926
  611MOL0     H84281   6.304   0.748  -2.315 -1.1827 -0.4870  1.4556
  611MOL0     H84282   6.234   0.828  -2.510  0.6782  0.9772 -1.2508
  611MOL0     H84283   6.093   0.928  -2.462 -0.6870 -1.7121 -2.3280
  611MOL0     H84284   6.186   1.107  -2.626  2.2040  0.7155 -2.0971
  611MOL0     H84285   6.276   0.981  -2.688  0.5762 -0.2596  1.0315
  611MOL0     H84286   5.988   0.947  -2.682  1.0381 -2.2574  0.4638
  611MOL0     H84287   6.104   0.832  -2.746 -3.5793 -0.9921 -0.3476
  611MOL0     H84288   6.166   0.999  -2.938 -2.0988  1.9226 -1.1882
  611MOL0     H84289   6.125   1.130  -2.831  1.7733 -0.2806 -0.3855
  611MOL0     H84290   5.934   0.928  -2.936  0.1968  0.0016 -1.7548
  611MOL0     H84291   5.887   1.073  -2.845  1.0185  1.4559  0.3357
  611MOL0     H84292   6.020   1.067  -3.126  2.5043  1.3238  1.7095
  611MOL0     H84293   5.973   1.214  -3.043  3.6047 -1.1396  3.1070
  611MOL0     H84294   5.728   1.137  -3.036 -0.4993  1.6892 -0.8586
  611MOL0     H84295   5.784   1.007  -3.136  1.0153 -1.2318  1.6575
  611MOL0     H84296   5.813   1.299  -3.206 -0.2157  0.1820 -0.1823
  611MOL0     H84297   5.697   1.203  -3.271 -0.1561  4.7201 -0.4705
  611MOL0     H84298   6.325   1.164  -2.235 -1.9576 -0.2263 -0.2018
  611MOL0     H84299   6.363   1.104  -1.973 -2.5084  0.4145  0.5295
  611MOL0     H84300   6.631   0.922  -1.589  0.2732 -0.3745  0.2770
  611MOL0     H84301   6.587   0.894  -1.349 -1.7240  2.4370 -0.5616
  611MOL0     H84302   5.840   0.608   0.472  0.6245 -1.4868 -2.5578
  611MOL0     H84303   5.899   0.717   0.675  0.0962 -0.2793  0.2316
  611MOL0     H84304   6.110   1.114   0.802 -2.2137 -3.8129  0.6549
  611MOL0     H84305   6.140   1.283   0.983  1.1342  0.4996  1.7784
  611MOL0     H84306   6.325   1.216   1.344 -2.9465 -0.1810 -2.4965
  611MOL0     H84307   6.484   1.269   1.272  0.3673 -0.4103  1.6320
  611MOL0     H84308   6.248   1.439   1.356 -0.8303 -2.5286  1.9514
  611MOL0     H84309   6.403   1.496   1.287 -0.5485  1.3626  1.1040
  611MOL0     H84310   6.383   1.348   1.554 -0.4523  0.9725  0.3272
  611MOL0     H84311   6.529   1.423   1.476 -0.4844  5.3923  0.5492
  611MOL0     H84312   6.290   1.557   1.601  1.0480  0.8537  2.2473
  611MOL0     H84313   6.389   1.636   1.485 -1.5912  0.1537  0.1312
  611MOL0     H84314   6.634   1.592   1.835 -0.8300  0.0533  1.2415
  611MOL0     H84315   6.438   1.047   1.163  0.2176 -0.3692 -0.8463
  611MOL0     H84316   6.367   0.732   1.007  1.0009 -1.1852 -1.4184
  611MOL0     H84317   6.503   0.812   0.918  2.9143 -2.1674  2.6009
  611MOL0     H84318   6.484   0.812   1.093 -1.6083 -4.7290  0.6533
  612MOL0     O84319  10.345   7.148   4.024  0.5303 -0.4367 -0.7999
  612MOL0     C84320  10.444   7.130   4.094 -0.0044  0.0836  0.2958
  612MOL0     O84321  10.473   7.015   4.162 -0.4474 -0.1128 -0.1729
  612MOL0     C84322  10.419   6.900   4.111  0.5164 -0.7922 -0.5221
  612MOL0     C84323  10.395   6.857   3.983 -0.3593 -0.2954  0.3720
  612MOL0     C84324  10.334   6.728   3.957  0.5695  1.1131  0.6170
  612MOL0     C84325  10.283   6.645   4.066 -0.6995 -0.2188  0.2405
  612MOL0     O84326  10.195   6.550   4.040  0.5935 -0.0269 -0.2545
  612MOL0     C84327  10.160   6.475   4.159  0.5059  0.5010  0.9601
  612MOL0     C84328  10.033   6.387   4.135  0.0723  0.1792  1.1233
  612MOL0     C84329   9.907   6.478   4.113 -0.5704  0.1780 -0.3623
  612MOL0     C84330   9.863   6.529   4.248  0.2378 -0.6530  0.3154
  612MOL0     C84331   9.733   6.608   4.223 -0.5786 -0.2826 -0.0994
  612MOL0     C84332   9.756   6.753   4.184 -0.2865  0.3072  0.0823
  612MOL0     C84333   9.618   6.815   4.147 -0.2141 -0.8008  0.6564
  612MOL0     C84334   9.627   6.972   4.128  0.1825 -0.6434  1.1231
  612MOL0     N84335   9.707   6.999   4.009 -0.8117  0.2977  0.5365
  612MOL0     C84336   9.847   6.997   4.012 -0.2478 -0.7001 -0.2836
  612MOL0     C84337   9.882   7.026   3.885  0.9125 -0.6255  0.9728
  612MOL0     C84338  10.022   7.053   3.851 -0.2267  0.8490  0.4158
  612MOL0     C84339  10.068   7.199   3.873 -0.1717 -0.7454 -0.9999
  612MOL0     C84340  10.009   7.310   3.778  0.8782 -0.4534  0.4965
  612MOL0     C84341  10.099   7.429   3.787  0.0792  0.7856  0.6272
  612MOL0     O84342  10.080   7.520   3.681  0.7739 -0.2040  0.2935
  612MOL0     C84343  10.126   7.504   3.552  0.4597  0.6516  0.5930
  612MOL0     C84344  10.083   7.595   3.459  0.3602  0.3998 -0.0732
  612MOL0     C84345  10.126   7.587   3.323 -0.2135  0.0818 -0.6244
  612MOL0     C84346  10.056   7.674   3.226  0.3268  0.8341  0.1708
  612MOL0     C84347  10.221   7.482   3.291 -0.1267  0.5553  0.3365
  612MOL0     C84348  10.310   7.470   3.170  0.6759 -0.6606 -0.8053
  612MOL0     O84349  10.365   7.350   3.141 -0.3500  0.4367  0.1254
  612MOL0     C84350  10.430   7.341   3.018  0.0497  1.0166  0.4020
  612MOL0     C84351  10.538   7.420   2.976 -0.3308  0.8534 -1.0014
  612MOL0     C84352  10.588   7.416   2.846  1.0999  0.2354  0.8706
  612MOL0     C84353  10.552   7.306   2.759  0.2549 -0.5017 -0.2741
  612MOL0     O84354  10.578   7.281   2.623 -0.0763  0.1507 -0.1756
  612MOL0     C84355  10.693   7.334   2.561  0.8733  0.7311  0.3619
  612MOL0     C84356  10.822   7.265   2.580  0.2565  0.3600  0.2298
  612MOL0     C84357  10.808   7.114   2.580  0.1326 -0.3258  1.6426
  612MOL0     C84358  10.927   7.041   2.644  0.6407  0.8374  0.0627
  612MOL0     C84359  10.934   6.888   2.618  0.1631  0.3645  0.0719
  612MOL0     C84360  11.046   6.811   2.681 -0.4057 -0.4443  1.1450
  612MOL0     C84361  11.081   6.674   2.610  0.3775 -1.7130  0.0137
  612MOL0     C84362  11.207   6.613   2.676  1.0352 -0.7684 -0.0210
  612MOL0    Cl84363  11.163   6.579   2.851  0.3813  0.4159  0.0370
  612MOL0     C84364  10.446   7.231   2.806 -0.0110  0.1370 -0.1633
  612MOL0     C84365  10.377   7.245   2.927 -0.6436 -0.8176  0.0816
  612MOL0     O84366  10.309   7.568   3.099  0.4783 -0.6756 -0.0819
  612MOL0     C84367  10.254   7.389   3.396 -0.7448  0.1038 -0.8325
  612MOL0     C84368  10.220   7.402   3.517  1.3174  0.3058  0.3514
  612MOL0     N84369   9.769   7.050   3.809  0.2078  0.3517  0.4732
  612MOL0     N84370   9.666   7.022   3.879 -0.2018 -0.0889  0.4826
  612MOL0     C84371  10.334   6.681   4.189  0.0998  0.8568 -0.1005
  612MOL0     C84372  10.396   6.806   4.209 -0.9082 -0.1049 -1.0371
  612MOL0     C84373  10.534   7.252   4.126  0.2192  0.2881  0.1822
  612MOL0     C84374  10.587   7.243   4.259  0.0677  0.4377  0.2799
  612MOL0     C84375  10.654   7.343   4.319 -0.7801 -0.4559  0.6436
  612MOL0     C84376  10.673   7.462   4.245 -0.7114 -0.1762 -0.5567
  612MOL0     O84377  10.729   7.575   4.307 -0.1225  0.4135  0.1990
  612MOL0     C84378  10.792   7.684   4.237 -0.4088  0.6832 -0.5287
  612MOL0     C84379  10.941   7.640   4.219 -0.0159  0.6737 -0.2228
  612MOL0     C84380  11.023   7.731   4.123  0.4559  0.6994 -0.6703
  612MOL0     C84381  11.162   7.670   4.088 -0.3834  0.6222  0.5133
  612MOL0     C84382  11.211   7.728   3.962 -0.2292 -0.4693 -0.5690
  612MOL0     C84383  11.252   7.779   3.864  0.3481 -0.6448 -0.2360
  612MOL0     C84384  10.643   7.472   4.108  0.6864 -0.0468 -0.4923
  612MOL0     C84385  10.559   7.372   4.052 -0.5501  0.3302 -1.0490
  612MOL0     C84386  10.512   7.401   3.919  0.6400 -0.1139  0.6312
  612MOL0     H84387  10.429   6.915   3.898 -0.2205 -1.9078 -0.7035
  612MOL0     H84388  10.302   6.703   3.856 -0.0818 -4.6013  1.9092
  612MOL0     H84389  10.144   6.547   4.240 -0.1970  3.2471 -1.4401
  612MOL0     H84390  10.249   6.416   4.183  0.7254  1.7405  3.5515
  612MOL0     H84391  10.047   6.325   4.046  1.1603 -1.6160  2.4738
  612MOL0     H84392  10.013   6.323   4.222  2.9055  0.2585  1.9053
  612MOL0     H84393   9.930   6.557   4.041 -2.6205  1.6736  0.5350
  612MOL0     H84394   9.827   6.424   4.063 -1.1038  0.8666 -0.2621
  612MOL0     H84395   9.841   6.443   4.313 -1.4442 -0.3602  0.1824
  612MOL0     H84396   9.939   6.585   4.303  1.4607 -1.8439 -0.1149
  612MOL0     H84397   9.671   6.602   4.313 -0.4169 -2.0082 -0.0624
  612MOL0     H84398   9.673   6.560   4.146 -1.0413  2.1935 -1.3687
  612MOL0     H84399   9.806   6.803   4.267 -3.6644 -1.0317  3.1884
  612MOL0     H84400   9.824   6.748   4.098  0.7541 -0.8800  0.9319
  612MOL0     H84401   9.541   6.809   4.224 -1.0374  3.2846  0.3733
  612MOL0     H84402   9.580   6.773   4.053  1.2151  1.1671 -0.8935
  612MOL0     H84403   9.531   7.017   4.100  1.6437  2.2777  0.4456
  612MOL0     H84404   9.678   7.029   4.207  0.8386 -0.1731  0.3707
  612MOL0     H84405   9.909   6.996   4.101 -0.6172  1.3540  0.0508
  612MOL0     H84406  10.034   7.034   3.744 -0.3643 -1.8808  0.8054
  612MOL0     H84407  10.088   6.984   3.904  0.9371  1.8393  0.2939
  612MOL0     H84408  10.055   7.233   3.976  4.7602  0.1989 -0.4824
  612MOL0     H84409  10.171   7.190   3.838  0.8082  0.6490  1.3232
  612MOL0     H84410  10.003   7.273   3.675  0.3689 -4.6581  1.8424
  612MOL0     H84411   9.913   7.328   3.828  0.5507 -1.7688  0.3835
  612MOL0     H84412  10.068   7.476   3.880 -0.8042  1.7857 -0.1482
  612MOL0     H84413  10.205   7.403   3.787 -0.1343 -0.1426  0.2203
  612MOL0     H84414  10.011   7.669   3.493  1.7212  2.0553 -0.6591
  612MOL0     H84415  10.106   7.771   3.229 -3.1235  2.7770  2.7727
  612MOL0     H84416   9.954   7.698   3.260  0.1228  0.1294  0.0872
  612MOL0     H84417  10.063   7.630   3.126  1.1084  1.1786  0.0703
  612MOL0     H84418  10.589   7.489   3.041 -0.4604  1.4592 -1.5321
  612MOL0     H84419  10.665   7.484   2.810 -0.3689  1.6799  0.3107
  612MOL0     H84420  10.671   7.335   2.454  1.1597 -2.0581  0.2022
  612MOL0     H84421  10.695   7.436   2.602  0.1463 -0.2950  3.2012
  612MOL0     H84422  10.897   7.289   2.504  1.8524  0.6299  1.8229
  612MOL0     H84423  10.870   7.298   2.672  0.9995 -0.1478  0.0268
  612MOL0     H84424  10.792   7.092   2.474 -0.8915  0.4627  1.6151
  612MOL0     H84425  10.725   7.071   2.637 -0.8641  0.1167  0.5752
  612MOL0     H84426  10.916   7.048   2.753 -0.6483  0.3565 -0.0142
  612MOL0     H84427  11.024   7.083   2.618  1.5492 -1.3211 -0.1582
  612MOL0     H84428  10.835   6.849   2.644  0.3732 -1.2027 -1.3198
  612MOL0     H84429  10.946   6.866   2.512 -1.5420  0.1155 -0.0921
  612MOL0     H84430  11.023   6.790   2.786  1.1208 -0.8264  1.4165
  612MOL0     H84431  11.134   6.875   2.674 -0.7939 -0.0808 -2.9078
  612MOL0     H84432  11.103   6.693   2.505 -1.0820 -2.3942 -0.4492
  612MOL0     H84433  10.995   6.606   2.612 -1.9557  1.0193  0.8716
  612MOL0     H84434  11.281   6.694   2.673 -0.9854  1.2813  1.5885
  612MOL0     H84435  11.230   6.522   2.620 -1.8678 -2.8805  1.9297
  612MOL0     H84436  10.410   7.159   2.733 -0.2283 -1.1027  1.1026
  612MOL0     H84437  10.304   7.170   2.957 -0.8867 -1.3889 -1.8029
  612MOL0     H84438  10.316   7.304   3.367  0.2868  0.9592 -1.1988
  612MOL0     H84439  10.265   7.321   3.574  3.1140 -0.6880 -2.2834
  612MOL0     H84440  10.319   6.635   4.286  3.4238  1.3342  0.7421
  612MOL0     H84441  10.418   6.826   4.314 -1.6190 -0.4566 -0.8136
  612MOL0     H84442  10.573   7.157   4.324 -1.3373 -1.2597 -2.1277
  612MOL0     H84443  10.705   7.317   4.411 -3.1307 -2.9356  1.3780
  612MOL0     H84444  10.764   7.703   4.133  0.1498  1.4169 -0.5554
  612MOL0     H84445  10.785   7.781   4.287 -0.6224  0.4516 -0.1061
  612MOL0     H84446  10.934   7.541   4.173 -1.2539  1.1819 -1.1915
  612MOL0     H84447  10.980   7.626   4.320 -0.5299 -2.1402 -0.3262
  612MOL0     H84448  10.963   7.750   4.034 -0.8795 -2.0884 -0.4463
  612MOL0     H84449  11.031   7.824   4.181 -1.9207 -0.3827  1.6002
  612MOL0     H84450  11.144   7.563   4.082 -2.2001  0.9003  0.2801
  612MOL0     H84451  11.235   7.676   4.170  1.9426 -2.5940 -1.1524
  612MOL0     H84452  11.284   7.831   3.775  0.0847 -1.5899 -0.9033
  612MOL0     H84453  10.672   7.559   4.050 -1.8095  3.3688  2.9110
  612MOL0     H84454  10.572   7.347   3.845  1.9378 -1.1670  2.3764
  612MOL0     H84455  10.409   7.370   3.899  1.8381 -3.4510 -1.2406
  612MOL0     H84456  10.517   7.509   3.902 -1.0559 -0.1646 -0.3361
  613MOL0     O84457   6.952   0.948   5.405 -0.0079  0.7159  0.3868
  613MOL0     C84458   6.874   1.015   5.465 -0.0372 -0.1043 -0.1352
  613MOL0     O84459   6.787   0.970   5.555  0.4371  0.6751 -0.0654
  613MOL0     C84460   6.745   0.830   5.556 -0.2081 -0.1725  0.6049
  613MOL0     C84461   6.653   0.792   5.655 -0.6740  0.5432 -0.2596
  613MOL0     C84462   6.616   0.655   5.663  0.0776  0.1098  0.3942
  613MOL0     C84463   6.634   0.561   5.561 -0.6153 -0.3074 -0.1629
  613MOL0     O84464   6.574   0.440   5.549 -0.8269 -0.3232  0.3672
  613MOL0     C84465   6.593   0.344   5.449  0.8207 -0.1534 -0.7503
  613MOL0     C84466   6.733   0.283   5.471 -0.0887 -0.0258  0.1946
  613MOL0     C84467   6.735   0.132   5.437 -0.7558 -0.4606  0.5144
  613MOL0     C84468   6.689   0.101   5.300  0.0407  0.0213  0.0913
  613MOL0     C84469   6.769   0.179   5.197 -0.1765  0.1204  0.5207
  613MOL0     C84470   6.744   0.129   5.060 -0.0393 -0.8446  0.2978
  613MOL0     C84471   6.835   0.195   4.953 -0.3779  0.5039 -0.2017
  613MOL0     C84472   6.847   0.346   4.959  0.2186  0.0070  0.4334
  613MOL0     N84473   6.728   0.424   4.958 -0.8821 -0.3097  0.3760
  613MOL0     C84474   6.622   0.400   4.878  0.0826  0.3600  0.0529
  613MOL0     C84475   6.544   0.506   4.877 -0.6510 -0.8650  0.7267
  613MOL0     C84476   6.412   0.521   4.815 -0.7622  0.3279 -0.2518
  613MOL0     C84477   6.320   0.394   4.820  0.6377  0.2065 -0.1277
  613MOL0     C84478   6.257   0.363   4.955 -1.0635 -0.0837  0.1647
  613MOL0     C84479   6.178   0.231   4.975  0.0596 -0.4294 -0.1047
  613MOL0     O84480   6.058   0.233   4.906 -0.1861 -0.3191  0.0487
  613MOL0     C84481   5.969   0.127   4.899 -0.0212  0.6022 -1.1935
  613MOL0     C84482   5.999  -0.006   4.957 -0.2198 -0.1486  0.6274
  613MOL0     C84483   5.903  -0.110   4.954  0.0937 -0.2961  0.6071
  613MOL0     C84484   5.929  -0.220   5.047  0.1068 -0.3187  0.1996
  613MOL0     C84485   5.780  -0.083   4.875 -0.1512 -1.3152 -0.4343
  613MOL0     C84486   5.671  -0.173   4.860  0.6886  0.0538  0.3746
  613MOL0     O84487   5.557  -0.135   4.797 -0.1069  0.1503 -0.3264
  613MOL0     C84488   5.451  -0.212   4.804 -0.4994  0.3345 -0.0676
  613MOL0     C84489   5.420  -0.302   4.704  0.1756 -0.7437 -0.3874
  613MOL0     C84490   5.318  -0.397   4.710  0.8901 -0.1159  0.2756
  613MOL0     C84491   5.243  -0.408   4.825 -0.8525 -1.0623  0.2530
  613MOL0     O84492   5.133  -0.487   4.850  0.2407  0.4054 -0.2097
  613MOL0     C84493   5.141  -0.613   4.779  0.4461 -0.2453 -0.5435
  613MOL0     C84494   5.036  -0.710   4.827  0.3080  0.1769 -0.0884
  613MOL0     C84495   4.893  -0.678   4.778 -1.3708  0.2845  0.0524
  613MOL0     C84496   4.868  -0.692   4.618 -0.4400  0.1317  0.4520
  613MOL0     C84497   4.816  -0.569   4.550  0.6274  0.4203  0.8272
  613MOL0     C84498   4.796  -0.594   4.395  0.5864 -0.4081  0.3520
  613MOL0     C84499   4.775  -0.463   4.323 -0.5008  0.8351 -0.6487
  613MOL0     C84500   4.639  -0.397   4.349 -0.6156 -0.0902  0.2231
  613MOL0    Cl84501   4.522  -0.481   4.230 -0.0052  0.6094  0.0372
  613MOL0     C84502   5.296  -0.332   4.930  0.3698 -0.0091 -0.8539
  613MOL0     C84503   5.388  -0.224   4.925 -0.2127 -0.0023  0.4242
  613MOL0     O84504   5.682  -0.280   4.922  0.2092  0.1639  0.4301
  613MOL0     C84505   5.762   0.041   4.820  0.2279 -0.1156  0.2813
  613MOL0     C84506   5.853   0.143   4.835 -0.0914  0.7214  0.4501
  613MOL0     N84507   6.614   0.594   4.958  0.0797 -0.0708  0.0994
  613MOL0     N84508   6.730   0.554   4.998 -0.1969 -0.4786  0.3122
  613MOL0     C84509   6.731   0.598   5.468 -0.6659  0.0631 -0.9929
  613MOL0     C84510   6.783   0.728   5.464  0.1001  0.2991  0.2682
  613MOL0     C84511   6.897   1.161   5.468  0.8146  0.0183 -0.5166
  613MOL0     C84512   6.865   1.226   5.592  0.6582  0.0973 -0.3045
  613MOL0     C84513   6.900   1.355   5.613 -0.1036 -0.0641 -0.2892
  613MOL0     C84514   6.974   1.424   5.517  0.2122 -1.1929  0.9145
  613MOL0     O84515   6.999   1.562   5.522  0.0111 -0.7066  0.1091
  613MOL0     C84516   7.132   1.585   5.566 -0.1680 -0.2050 -0.8344
  613MOL0     C84517   7.148   1.736   5.600 -1.3517 -0.1200 -0.3387
  613MOL0     C84518   7.300   1.775   5.651  0.1474 -0.7359  0.1060
  613MOL0     C84519   7.404   1.823   5.554  0.7090 -0.2999  0.2089
  613MOL0     C84520   7.452   1.720   5.467 -0.6623 -0.0085 -0.4715
  613MOL0     C84521   7.500   1.632   5.391  0.0599 -0.1828  0.3702
  613MOL0     C84522   6.992   1.364   5.392 -0.1856  0.8857 -0.4068
  613MOL0     C84523   6.958   1.231   5.366 -0.7490  0.0705  0.1412
  613MOL0     C84524   6.978   1.183   5.228 -1.1813  0.4643  0.5059
  613MOL0     H84525   6.631   0.866   5.731  0.3269  0.2284  0.3605
  613MOL0     H84526   6.553   0.609   5.739 -0.8809  3.0776  1.5430
  613MOL0     H84527   6.581   0.384   5.348  1.7639  0.4871 -0.6325
  613MOL0     H84528   6.513   0.273   5.469  1.4544 -0.4538  0.8998
  613MOL0     H84529   6.804   0.341   5.411 -0.8860 -0.4138 -1.1635
  613MOL0     H84530   6.766   0.292   5.575  0.1681 -2.0538  0.3136
  613MOL0     H84531   6.837   0.094   5.448 -0.7048 -0.8904 -1.2043
  613MOL0     H84532   6.678   0.079   5.514  1.2426 -1.6491  1.2694
  613MOL0     H84533   6.714  -0.005   5.294 -2.7003 -0.6473 -0.7304
  613MOL0     H84534   6.587   0.137   5.288 -0.4653 -1.7494 -1.3487
  613MOL0     H84535   6.875   0.168   5.225 -0.1413 -0.8204  0.0465
  613MOL0     H84536   6.755   0.287   5.199  3.0807  0.7112 -1.1592
  613MOL0     H84537   6.760   0.021   5.053 -1.3506 -1.1251  1.3012
  613MOL0     H84538   6.638   0.145   5.038  0.1428  1.3162  0.7806
  613MOL0     H84539   6.778   0.170   4.863  0.3526  0.5787 -0.6902
  613MOL0     H84540   6.935   0.152   4.944  0.4420  2.1539  0.6137
  613MOL0     H84541   6.915   0.362   5.043  2.8171 -3.9395 -0.6386
  613MOL0     H84542   6.903   0.380   4.871  0.2323 -1.0194  0.0264
  613MOL0     H84543   6.597   0.303   4.836 -0.0717  0.7614 -0.8248
  613MOL0     H84544   6.429   0.546   4.710 -1.5518 -3.4317 -1.4412
  613MOL0     H84545   6.352   0.596   4.868 -1.7459 -1.1550  0.8410
  613MOL0     H84546   6.238   0.397   4.748  1.0252 -1.5127 -0.6975
  613MOL0     H84547   6.371   0.305   4.782 -0.7244  0.0585 -1.7526
  613MOL0     H84548   6.338   0.347   5.027 -0.0973  0.7479 -0.7162
  613MOL0     H84549   6.204   0.450   4.994 -3.8339 -1.6103  0.0513
  613MOL0     H84550   6.227   0.136   4.954  0.1113 -0.1401 -1.3843
  613MOL0     H84551   6.157   0.218   5.081  2.4783 -0.3583  0.4403
  613MOL0     H84552   6.087  -0.036   5.012 -0.0247 -4.1922 -1.5282
  613MOL0     H84553   5.917  -0.313   4.991  0.9000  1.0077 -2.3440
  613MOL0     H84554   5.865  -0.225   5.136  0.5214 -1.0583  0.4603
  613MOL0     H84555   6.029  -0.221   5.092 -0.1103 -0.7712  0.6868
  613MOL0     H84556   5.471  -0.289   4.610  3.5293 -0.8186  1.2859
  613MOL0     H84557   5.299  -0.460   4.623 -2.3191 -0.1638  0.9145
  613MOL0     H84558   5.133  -0.598   4.671  1.7963 -2.1952 -0.9643
  613MOL0     H84559   5.238  -0.663   4.786 -0.5280 -2.1312  0.2371
  613MOL0     H84560   5.052  -0.810   4.787  2.5926 -0.1447  1.4276
  613MOL0     H84561   5.039  -0.720   4.936 -2.3810 -0.2780  0.0163
  613MOL0     H84562   4.878  -0.571   4.793  2.6440  0.7888  1.7802
  613MOL0     H84563   4.821  -0.736   4.836  0.7890 -3.0625 -0.2738
  613MOL0     H84564   4.800  -0.776   4.598  2.0982 -1.8001 -0.7344
  613MOL0     H84565   4.957  -0.722   4.562 -2.1664 -2.0056 -1.3322
  613MOL0     H84566   4.721  -0.534   4.590  1.2752  0.7505  2.1114
  613MOL0     H84567   4.882  -0.482   4.561 -0.7474  1.4591  1.1523
  613MOL0     H84568   4.708  -0.656   4.380 -1.8852  2.4346  1.9375
  613MOL0     H84569   4.888  -0.643   4.362  1.0337  0.5558  0.1378
  613MOL0     H84570   4.791  -0.477   4.216  0.1064  0.2714 -0.4878
  613MOL0     H84571   4.847  -0.383   4.345 -2.2729  3.1763 -2.8054
  613MOL0     H84572   4.652  -0.297   4.305  0.9010 -0.2279  0.3129
  613MOL0     H84573   4.608  -0.383   4.452 -0.8911 -1.2709  0.3133
  613MOL0     H84574   5.242  -0.351   5.022  0.6970 -1.3810 -0.9237
  613MOL0     H84575   5.423  -0.153   4.999  0.5878 -0.9019  0.9272
  613MOL0     H84576   5.683   0.058   4.747  1.1960  0.2233 -0.7195
  613MOL0     H84577   5.832   0.236   4.783  2.7320  1.1056 -0.1661
  613MOL0     H84578   6.766   0.538   5.384  3.5705 -0.2866  0.7685
  613MOL0     H84579   6.853   0.743   5.382 -1.1942  2.1741 -0.5460
  613MOL0     H84580   6.819   1.187   5.682  0.2766  0.9878 -0.1078
  613MOL0     H84581   6.876   1.416   5.699 -2.7223 -2.1492  0.5881
  613MOL0     H84582   7.133   1.530   5.660 -1.4540 -1.5451 -1.5736
  613MOL0     H84583   7.204   1.549   5.492 -0.1508  1.5505 -1.7248
  613MOL0     H84584   7.070   1.760   5.672  0.1387  1.7708  0.7386
  613MOL0     H84585   7.123   1.779   5.502  1.4217 -2.1565 -2.1028
  613MOL0     H84586   7.281   1.864   5.712  0.6780 -0.3077 -0.3434
  613MOL0     H84587   7.343   1.695   5.712  0.4424 -0.9047 -0.3220
  613MOL0     H84588   7.493   1.870   5.596  0.6013  0.7906 -0.7493
  613MOL0     H84589   7.350   1.892   5.488  1.9662  0.5624  0.0496
  613MOL0     H84590   7.536   1.552   5.330 -0.6946 -0.6696  0.5421
  613MOL0     H84591   7.027   1.427   5.311  3.3687  0.1118  0.3760
  613MOL0     H84592   7.007   1.256   5.151  1.4616 -1.4530 -0.4813
  613MOL0     H84593   7.050   1.100   5.230  0.9203  2.1835  0.7267
  613MOL0     H84594   6.882   1.142   5.195  0.2102 -2.0852 -0.6584
  614MOL0     O84595   6.376   1.914   8.658  0.9094  0.4809  0.1044
  614MOL0     C84596   6.381   1.991   8.570  0.6216  0.1186  0.4496
  614MOL0     O84597   6.286   2.095   8.551 -0.1895  0.3645  0.4288
  614MOL0     C84598   6.205   2.140   8.650 -0.2047 -1.6208  0.5363
  614MOL0     C84599   6.241   2.129   8.787  0.7896 -0.0325  0.1095
  614MOL0     C84600   6.164   2.199   8.876 -0.5460 -0.0498 -0.3513
  614MOL0     C84601   6.050   2.268   8.849  0.2053 -0.7034  0.9169
  614MOL0     O84602   5.980   2.348   8.935 -0.8001  0.4236  0.0289
  614MOL0     C84603   6.004   2.320   9.075  0.2008  0.1595  0.2635
  614MOL0     C84604   5.940   2.193   9.128 -0.7695  0.0322 -0.0944
  614MOL0     C84605   5.795   2.179   9.087  0.7735  0.7415  0.2708
  614MOL0     C84606   5.696   2.122   9.187 -0.6480  0.0504  0.3642
  614MOL0     C84607   5.557   2.115   9.139 -0.8939 -0.1685  0.2381
  614MOL0     C84608   5.493   2.255   9.109 -0.7506 -0.9181  0.2030
  614MOL0     C84609   5.351   2.225   9.063 -0.4895  0.2827 -0.2395
  614MOL0     C84610   5.288   2.340   8.994  0.7193  1.0556 -0.1507
  614MOL0     N84611   5.227   2.432   9.086  0.0098 -0.5128 -0.3217
  614MOL0     C84612   5.291   2.519   9.173  0.3018 -0.0994  0.7064
  614MOL0     C84613   5.197   2.589   9.236  1.3063  0.1850  0.6904
  614MOL0     C84614   5.232   2.684   9.339 -0.6350 -0.4128  0.2857
  614MOL0     C84615   5.259   2.826   9.283  0.2848 -0.0262 -0.5361
  614MOL0     C84616   5.129   2.880   9.223  0.0130 -0.1233 -0.6522
  614MOL0     C84617   5.145   3.029   9.207 -0.2005 -0.3107  0.4064
  614MOL0     O84618   5.041   3.085   9.130  0.8790 -0.1773 -0.2336
  614MOL0     C84619   5.041   3.222   9.102 -0.9618 -0.2459  0.0562
  614MOL0     C84620   4.948   3.264   9.007  0.4410 -1.4945  1.7983
  614MOL0     C84621   4.929   3.402   8.973  0.2520  0.3632  0.2208
  614MOL0     C84622   4.819   3.413   8.873  0.0511 -0.7782  0.7883
  614MOL0     C84623   5.002   3.504   9.040  0.7100  0.7183  0.4138
  614MOL0     C84624   4.982   3.653   9.014  0.0524  0.9718  0.2136
  614MOL0     O84625   5.048   3.733   9.101 -0.2382 -0.5633 -0.0710
  614MOL0     C84626   5.061   3.867   9.089 -0.0608  0.6454  0.3132
  614MOL0     C84627   4.948   3.946   9.111  0.4908  0.5942  0.2303
  614MOL0     C84628   4.952   4.085   9.111  0.1097 -0.5323  1.1943
  614MOL0     C84629   5.071   4.145   9.071  1.0415 -0.1109  0.3322
  614MOL0     O84630   5.107   4.274   9.072  0.5563  0.5649 -0.1884
  614MOL0     C84631   5.040   4.376   9.146  0.1855  0.1256 -0.5167
  614MOL0     C84632   5.105   4.510   9.113  1.1892  0.1195 -0.0407
  614MOL0     C84633   5.257   4.503   9.134 -0.6045 -0.2090  0.0908
  614MOL0     C84634   5.297   4.500   9.278  0.7101 -0.0007 -0.2442
  614MOL0     C84635   5.420   4.579   9.322  0.2180  0.3546  0.0159
  614MOL0     C84636   5.548   4.525   9.253  0.5630  0.3745  1.1773
  614MOL0     C84637   5.677   4.611   9.294 -0.2917  0.3101 -0.0346
  614MOL0     C84638   5.802   4.536   9.238  0.8587 -0.7659 -0.0815
  614MOL0    Cl84639   5.840   4.380   9.339 -0.0229  0.2442 -0.5281
  614MOL0     C84640   5.180   4.065   9.040 -0.1635  0.6006  0.3906
  614MOL0     C84641   5.174   3.932   9.041  0.2932  1.2530  0.5597
  614MOL0     O84642   4.914   3.693   8.928 -0.6006  0.3224  0.6208
  614MOL0     C84643   5.091   3.455   9.139  1.3181  0.7782 -0.8476
  614MOL0     C84644   5.105   3.315   9.169 -0.5867 -0.1730  0.5579
  614MOL0     N84645   5.072   2.524   9.217  0.1306 -0.1173 -0.4242
  614MOL0     N84646   5.095   2.423   9.133 -0.2939  0.4182  0.0585
  614MOL0     C84647   6.014   2.270   8.716  0.3350 -1.0361  1.6116
  614MOL0     C84648   6.095   2.213   8.612  0.2488  0.5028  0.3782
  614MOL0     C84649   6.492   1.992   8.472 -0.3190 -0.5151 -0.8670
  614MOL0     C84650   6.499   2.101   8.388  0.4469 -0.4731  1.3632
  614MOL0     C84651   6.608   2.112   8.293  0.3560  0.9419  0.8624
  614MOL0     C84652   6.706   2.008   8.281  0.5475  1.0938 -0.5080
  614MOL0     O84653   6.818   1.996   8.202 -0.4908  0.0390  0.2373
  614MOL0     C84654   6.820   2.048   8.070 -1.1006 -0.1044 -0.3885
  614MOL0     C84655   6.710   1.995   7.979 -0.0701 -0.8503 -0.0896
  614MOL0     C84656   6.725   2.048   7.827  0.1289 -0.9994 -0.0759
  614MOL0     C84657   6.664   2.196   7.822  0.0917  0.6166 -0.3824
  614MOL0     C84658   6.521   2.198   7.854 -0.0561 -0.6050 -0.2896
  614MOL0     C84659   6.409   2.202   7.894  0.6316  0.7565 -0.2521
  614MOL0     C84660   6.685   1.897   8.367 -0.6471  0.3823 -0.0481
  614MOL0     C84661   6.592   1.892   8.469  0.3298  0.2498  0.1600
  614MOL0     C84662   6.612   1.779   8.560 -0.2662  0.3660 -0.1089
  614MOL0     H84663   6.334   2.088   8.826 -0.9819 -1.2299  3.4625
  614MOL0     H84664   6.211   2.197   8.974 -1.0037 -4.6336 -0.0337
  614MOL0     H84665   5.946   2.390   9.136 -1.5184 -1.9080  1.1378
  614MOL0     H84666   6.109   2.331   9.101  0.4074 -0.2317 -0.3756
  614MOL0     H84667   6.000   2.112   9.085 -0.9819  0.0373 -0.4012
  614MOL0     H84668   5.954   2.193   9.237 -2.4144  1.1283  0.1539
  614MOL0     H84669   5.757   2.278   9.062 -0.6929  0.0732 -0.2347
  614MOL0     H84670   5.791   2.107   9.005 -0.4975  1.1254 -0.0261
  614MOL0     H84671   5.726   2.018   9.207  1.6341  0.3798 -1.0316
  614MOL0     H84672   5.712   2.169   9.284  1.6446 -1.2641  0.7211
  614MOL0     H84673   5.493   2.070   9.216 -4.1374  1.9440 -1.0386
  614MOL0     H84674   5.555   2.041   9.058  2.3839 -1.3681  1.1180
  614MOL0     H84675   5.496   2.317   9.199 -1.5355  0.3325 -0.5983
  614MOL0     H84676   5.553   2.309   9.035  0.2270  0.8246  2.1678
  614MOL0     H84677   5.300   2.193   9.155  1.4437  1.2951  1.2775
  614MOL0     H84678   5.363   2.141   8.995  1.4439  0.3806 -0.0677
  614MOL0     H84679   5.365   2.392   8.936 -0.9116  2.0548 -1.5163
  614MOL0     H84680   5.209   2.315   8.923  1.9950  2.0236 -1.9775
  614MOL0     H84681   5.397   2.539   9.160 -0.4393  2.4690 -2.9758
  614MOL0     H84682   5.332   2.667   9.382  0.8689 -0.7202 -3.0028
  614MOL0     H84683   5.159   2.670   9.419 -2.0898  3.0883 -0.2427
  614MOL0     H84684   5.292   2.893   9.363 -3.1654  0.6256  0.4721
  614MOL0     H84685   5.351   2.821   9.223  0.7693 -1.3564  0.2717
  614MOL0     H84686   5.122   2.835   9.124  2.7783  0.9550 -1.4053
  614MOL0     H84687   5.040   2.853   9.281 -0.0037 -0.4433 -0.8238
  614MOL0     H84688   5.153   3.074   9.306 -0.7808 -0.1517  0.3848
  614MOL0     H84689   5.236   3.055   9.151 -0.2969  1.2328  0.9156
  614MOL0     H84690   4.884   3.184   8.973  0.8001 -1.0001 -0.1199
  614MOL0     H84691   4.772   3.511   8.868  2.8690  0.7012  1.0584
  614MOL0     H84692   4.735   3.346   8.896 -1.0174  1.3504  3.6326
  614MOL0     H84693   4.860   3.380   8.777  1.3007  0.3540  0.9091
  614MOL0     H84694   4.858   3.888   9.131  0.8351  0.0411  0.1876
  614MOL0     H84695   4.860   4.140   9.128  2.3554  3.1740  2.5671
  614MOL0     H84696   4.940   4.374   9.103  1.1595  1.3100 -3.0401
  614MOL0     H84697   5.036   4.360   9.254 -2.0331  1.7017 -0.3066
  614MOL0     H84698   5.093   4.552   9.013 -1.4613 -1.1888 -0.3650
  614MOL0     H84699   5.056   4.581   9.181 -3.4650 -1.4675 -1.3585
  614MOL0     H84700   5.297   4.593   9.086  0.6712  0.3396  2.0576
  614MOL0     H84701   5.296   4.415   9.082 -1.4913 -1.7243  1.8612
  614MOL0     H84702   5.320   4.397   9.307 -3.6286 -1.4666 -1.2055
  614MOL0     H84703   5.211   4.533   9.338 -0.4135 -0.9082 -1.3186
  614MOL0     H84704   5.414   4.687   9.307  1.4578  0.8842  2.7243
  614MOL0     H84705   5.434   4.575   9.430  1.6543  3.0468 -0.0011
  614MOL0     H84706   5.520   4.536   9.148 -0.0214 -1.0869  1.1520
  614MOL0     H84707   5.573   4.424   9.287 -3.6261 -0.7219  1.5416
  614MOL0     H84708   5.667   4.625   9.402 -0.7041  0.0841 -0.0426
  614MOL0     H84709   5.671   4.709   9.245 -0.5488  0.3017 -0.0219
  614MOL0     H84710   5.885   4.604   9.256 -0.4453  1.0522 -0.5957
  614MOL0     H84711   5.799   4.516   9.131 -0.2090  3.1547 -0.9454
  614MOL0     H84712   5.275   4.112   9.016  0.3433 -1.2954 -1.6931
  614MOL0     H84713   5.255   3.865   9.014  0.1994  2.0079 -1.8570
  614MOL0     H84714   5.142   3.532   9.196  1.3612  1.7483 -2.1522
  614MOL0     H84715   5.157   3.286   9.260 -2.2727 -0.3246  1.5140
  614MOL0     H84716   5.926   2.328   8.690  1.3871 -1.0806 -2.9556
  614MOL0     H84717   6.067   2.220   8.508  0.6012 -3.6229 -0.1468
  614MOL0     H84718   6.428   2.182   8.397 -0.1338 -1.0421  1.9889
  614MOL0     H84719   6.628   2.199   8.232 -2.3728  0.6118 -0.6920
  614MOL0     H84720   6.805   2.156   8.068  0.1306  0.0788 -1.1615
  614MOL0     H84721   6.913   2.027   8.015 -3.5839 -3.3785 -3.8593
  614MOL0     H84722   6.615   2.020   8.026  0.7340 -1.3998  1.9339
  614MOL0     H84723   6.718   1.886   7.981 -2.8008 -1.1132  1.2215
  614MOL0     H84724   6.830   2.054   7.800  0.8873  2.1111  2.9501
  614MOL0     H84725   6.672   1.975   7.764  1.8257 -3.6220  1.3431
  614MOL0     H84726   6.670   2.232   7.719  1.9652  1.2473 -0.0797
  614MOL0     H84727   6.716   2.266   7.888  0.2950  0.6400 -0.5669
  614MOL0     H84728   6.306   2.186   7.921  0.8590 -1.9990 -0.7473
  614MOL0     H84729   6.760   1.820   8.354 -0.8175  0.3075 -0.6634
  614MOL0     H84730   6.680   1.696   8.538 -0.3992 -0.3371  1.9878
  614MOL0     H84731   6.652   1.821   8.653  3.3000  0.0635 -1.3148
  614MOL0     H84732   6.517   1.736   8.590 -1.5925  2.8547 -0.4642
  615MOL0     O84733   6.885   4.915   4.444 -0.1341 -0.0649 -0.0857
  615MOL0     C84734   6.801   4.901   4.532  0.1871 -1.0687  0.2908
  615MOL0     O84735   6.728   4.786   4.550  0.4732  0.2246 -0.7207
  615MOL0     C84736   6.760   4.675   4.480 -1.0740 -0.3050  0.4832
  615MOL0     C84737   6.695   4.655   4.351 -0.0992 -0.3870  0.0565
  615MOL0     C84738   6.719   4.535   4.295 -0.6566  0.6440  0.5729
  615MOL0     C84739   6.799   4.429   4.353  0.2877  0.0508 -0.7325
  615MOL0     O84740   6.807   4.305   4.300 -0.1008 -0.0359 -0.3242
  615MOL0     C84741   6.750   4.274   4.169  0.0133 -0.9624  0.4652
  615MOL0     C84742   6.780   4.127   4.130  0.2983  0.0103 -0.3744
  615MOL0     C84743   6.936   4.100   4.132 -0.1135 -0.1212  0.4321
  615MOL0     C84744   6.956   3.964   4.070 -0.0341  0.2286  0.2393
  615MOL0     C84745   7.112   3.940   4.064 -0.6701  0.9621  0.0943
  615MOL0     C84746   7.156   3.803   4.000  0.4136  0.7167  0.2771
  615MOL0     C84747   7.266   3.725   4.079 -0.5418 -0.3751  0.3156
  615MOL0     C84748   7.398   3.802   4.060  0.0431 -0.6158  0.7099
  615MOL0     N84749   7.510   3.727   4.123 -0.5389  0.0338 -0.1179
  615MOL0     C84750   7.640   3.783   4.143 -0.8520  0.5281  0.3229
  615MOL0     C84751   7.689   3.700   4.237 -0.2578  0.5056 -1.0237
  615MOL0     C84752   7.835   3.696   4.283  0.6958  0.5370 -1.0644
  615MOL0     C84753   7.870   3.566   4.355  0.4670 -0.6808  0.3297
  615MOL0     C84754   7.826   3.567   4.495 -0.6290  0.7168 -0.4141
  615MOL0     C84755   7.869   3.428   4.550 -0.6399  0.2274  0.1465
  615MOL0     O84756   7.766   3.333   4.502  0.7552  0.5677  0.0710
  615MOL0     C84757   7.765   3.201   4.558  0.2719  0.2676  0.1053
  615MOL0     C84758   7.853   3.158   4.655 -0.5858 -0.0849 -0.4307
  615MOL0     C84759   7.857   3.020   4.697 -0.2656 -1.3115 -0.3292
  615MOL0     C84760   7.954   2.975   4.800  0.2349  0.0265  0.1582
  615MOL0     C84761   7.775   2.922   4.635  0.1187  0.2226  0.6009
  615MOL0     C84762   7.767   2.770   4.670  0.7374 -0.2710  0.2870
  615MOL0     O84763   7.883   2.713   4.659 -0.8608 -0.1597  1.0087
  615MOL0     C84764   7.894   2.581   4.694 -0.6563  0.4840 -0.5497
  615MOL0     C84765   7.891   2.471   4.607 -0.3565  0.6213  0.6871
  615MOL0     C84766   7.882   2.340   4.664 -0.7313  0.1932  0.2731
  615MOL0     C84767   7.899   2.316   4.797 -0.6940 -0.1200  0.5108
  615MOL0     O84768   7.895   2.193   4.841 -0.0123 -0.3635  0.2147
  615MOL0     C84769   8.026   2.137   4.822 -0.4970 -0.5910 -0.3723
  615MOL0     C84770   8.003   1.980   4.829  0.0161  0.3978  0.0081
  615MOL0     C84771   8.120   1.878   4.808 -0.7325  0.1406  0.4492
  615MOL0     C84772   8.224   1.882   4.913 -0.3978  0.2343  0.9627
  615MOL0     C84773   8.354   1.799   4.897  0.7181 -0.2349  0.2950
  615MOL0     C84774   8.320   1.651   4.901  0.7724 -0.5708 -0.7769
  615MOL0     C84775   8.435   1.566   4.850  0.6556 -0.0130  0.1022
  615MOL0     C84776   8.404   1.409   4.861  0.0986 -0.5156  0.3132
  615MOL0    Cl84777   8.245   1.374   4.779 -0.1405  0.2750  0.1190
  615MOL0     C84778   7.908   2.424   4.882 -1.6156  0.9395 -0.6124
  615MOL0     C84779   7.901   2.559   4.831 -0.0996 -0.1428 -0.4761
  615MOL0     O84780   7.661   2.715   4.698 -0.2928 -0.0724  0.0196
  615MOL0     C84781   7.681   2.968   4.546 -0.4204  0.8758 -0.4804
  615MOL0     C84782   7.678   3.100   4.502  0.1035 -0.3766 -0.3260
  615MOL0     N84783   7.586   3.624   4.292  0.1382 -0.3651 -0.6973
  615MOL0     N84784   7.482   3.640   4.225 -0.7188 -0.8466  0.8433
  615MOL0     C84785   6.853   4.453   4.477 -0.3668  0.0375  0.7395
  615MOL0     C84786   6.841   4.577   4.539 -0.0413 -1.3736 -0.0488
  615MOL0     C84787   6.778   5.020   4.624  0.0092 -0.1963 -0.6469
  615MOL0     C84788   6.798   5.147   4.572  0.8505 -0.0106 -1.2210
  615MOL0     C84789   6.747   5.252   4.644  0.0638 -0.1044 -0.2014
  615MOL0     C84790   6.696   5.240   4.773  0.2163 -0.1071 -0.4803
  615MOL0     O84791   6.663   5.367   4.831  0.2933  0.4128 -0.6146
  615MOL0     C84792   6.636   5.375   4.967  0.2284 -0.2457  0.1075
  615MOL0     C84793   6.616   5.519   5.023  0.3475  0.4226 -0.1468
  615MOL0     C84794   6.514   5.607   4.944 -0.3300 -0.3839  0.1619
  615MOL0     C84795   6.372   5.536   4.926  0.2716 -0.1391 -0.4694
  615MOL0     C84796   6.263   5.630   4.889 -0.4509  0.7489 -0.8088
  615MOL0     C84797   6.166   5.690   4.848 -0.3065 -0.0467 -0.1339
  615MOL0     C84798   6.673   5.114   4.822  0.4848 -0.0621 -0.4810
  615MOL0     C84799   6.717   5.002   4.752 -0.6426  0.5850 -0.3315
  615MOL0     C84800   6.680   4.869   4.816 -0.3094 -0.4270 -0.0493
  615MOL0     H84801   6.626   4.724   4.303 -1.5370 -2.0988 -0.4549
  615MOL0     H84802   6.683   4.528   4.193  0.5781  3.8929 -0.2085
  615MOL0     H84803   6.791   4.349   4.101 -1.4371  0.9074  1.5374
  615MOL0     H84804   6.643   4.299   4.175  0.5527  1.3032  2.5382
  615MOL0     H84805   6.732   4.064   4.205 -0.0257  0.6446 -0.0387
  615MOL0     H84806   6.734   4.109   4.032 -2.8581 -0.6506  1.1039
  615MOL0     H84807   7.000   4.175   4.085  0.9331  0.6275  2.8603
  615MOL0     H84808   6.960   4.108   4.238  2.0412 -1.2137  0.0626
  615MOL0     H84809   6.911   3.891   4.137 -0.3676  1.4693  1.4044
  615MOL0     H84810   6.922   3.955   3.966  0.3467 -0.1682  0.1462
  615MOL0     H84811   7.141   3.940   4.169 -1.1028 -0.7356  0.2525
  615MOL0     H84812   7.167   4.019   4.013  0.8965 -0.6661 -0.8808
  615MOL0     H84813   7.069   3.740   3.981  0.6143  0.7538 -0.9015
  615MOL0     H84814   7.192   3.821   3.898  0.9988 -0.8149  0.1919
  615MOL0     H84815   7.281   3.623   4.041 -0.7040  0.5742 -2.4830
  615MOL0     H84816   7.234   3.722   4.184 -2.8793 -1.2456 -0.3654
  615MOL0     H84817   7.427   3.824   3.957  4.5021  1.8089  2.1806
  615MOL0     H84818   7.392   3.894   4.119  1.6956  1.2727 -1.8699
  615MOL0     H84819   7.702   3.855   4.092  1.2173  0.2602  2.3433
  615MOL0     H84820   7.860   3.787   4.338  0.6906  0.6115 -1.1835
  615MOL0     H84821   7.901   3.702   4.196  2.6503  2.2216  0.4364
  615MOL0     H84822   7.837   3.481   4.295 -1.3182  0.3576 -0.2405
  615MOL0     H84823   7.978   3.565   4.372  0.3132  1.2450  1.8309
  615MOL0     H84824   7.871   3.655   4.542  1.1210 -0.5910  0.4759
  615MOL0     H84825   7.718   3.575   4.510 -0.6774  0.1086 -0.4357
  615MOL0     H84826   7.972   3.415   4.515  0.4131  2.1524  2.2553
  615MOL0     H84827   7.880   3.438   4.658 -0.5096 -0.2815  0.1797
  615MOL0     H84828   7.934   3.216   4.698 -0.4450 -1.7317  1.7121
  615MOL0     H84829   8.016   2.894   4.760  1.2082  0.4182  0.8553
  615MOL0     H84830   7.905   2.948   4.894  2.3176 -1.4924  0.8908
  615MOL0     H84831   8.020   3.056   4.833  0.6846 -1.3699  2.9177
  615MOL0     H84832   7.860   2.482   4.503 -0.3132 -1.2273  0.4403
  615MOL0     H84833   7.865   2.261   4.592 -3.0815  0.7495  0.1485
  615MOL0     H84834   8.065   2.161   4.723  0.4300 -1.7877 -0.3288
  615MOL0     H84835   8.107   2.163   4.891  1.6514 -0.2811 -2.8869
  615MOL0     H84836   7.956   1.959   4.926  0.2224 -2.1194 -0.3874
  615MOL0     H84837   7.924   1.964   4.755 -2.2675  0.8537  2.1913
  615MOL0     H84838   8.179   1.912   4.722 -0.3773 -0.5059  0.4317
  615MOL0     H84839   8.065   1.786   4.787 -1.4455  0.2431  1.7660
  615MOL0     H84840   8.174   1.865   5.009 -0.6265 -1.2786  0.5952
  615MOL0     H84841   8.257   1.987   4.921  2.6692 -0.3508 -1.8647
  615MOL0     H84842   8.413   1.819   4.808 -1.7087  0.5473 -1.2419
  615MOL0     H84843   8.422   1.810   4.982  0.0935  2.7603  0.5352
  615MOL0     H84844   8.238   1.632   4.831  1.9604 -2.1020 -1.8142
  615MOL0     H84845   8.285   1.621   5.000 -0.4579 -1.6287 -1.4891
  615MOL0     H84846   8.530   1.592   4.898 -0.7092 -1.6249  4.0713
  615MOL0     H84847   8.456   1.600   4.748  1.1061 -1.8258 -0.4632
  615MOL0     H84848   8.399   1.396   4.970 -2.1676 -0.4487  0.2564
  615MOL0     H84849   8.482   1.343   4.823  3.3737  3.1491 -0.0211
  615MOL0     H84850   7.900   2.398   4.987  1.5646 -1.3408 -0.7701
  615MOL0     H84851   7.903   2.645   4.897 -1.8553  1.7427 -2.7194
  615MOL0     H84852   7.619   2.889   4.503 -0.9601  1.3238 -0.5441
  615MOL0     H84853   7.601   3.133   4.434 -0.6366 -2.0699 -0.3525
  615MOL0     H84854   6.911   4.371   4.518  1.5032  1.0504  0.2193
  615MOL0     H84855   6.880   4.596   4.638  1.0131 -0.6276 -0.5855
  615MOL0     H84856   6.834   5.165   4.471  0.9271 -1.7225 -1.5313
  615MOL0     H84857   6.743   5.350   4.596  0.1165 -0.9949 -2.1332
  615MOL0     H84858   6.546   5.313   4.972  0.2656 -0.4277 -1.1101
  615MOL0     H84859   6.718   5.337   5.029 -0.7777 -1.0072  0.9938
  615MOL0     H84860   6.715   5.565   5.035  0.8052 -0.9652  2.0123
  615MOL0     H84861   6.578   5.514   5.126 -1.1634  1.5916 -0.6134
  615MOL0     H84862   6.496   5.698   5.003 -1.1899 -2.0772  2.6459
  615MOL0     H84863   6.558   5.640   4.849  0.5944  0.1884  0.7644
  615MOL0     H84864   6.357   5.482   5.019 -2.6845 -0.4861 -1.0459
  615MOL0     H84865   6.384   5.467   4.842  1.8357  1.6340 -1.7901
  615MOL0     H84866   6.077   5.731   4.805 -0.7122 -0.1956  0.5462
  615MOL0     H84867   6.619   5.123   4.915  1.9636  2.1319  0.2660
  615MOL0     H84868   6.652   4.877   4.922  3.5676  0.1930  1.0979
  615MOL0     H84869   6.596   4.827   4.760 -0.6503 -1.1481  0.9693
  615MOL0     H84870   6.762   4.796   4.815  0.0147 -0.0930  0.7479
  616MOL0     O84871  10.191   4.388   4.938 -0.4603 -0.8996  0.4379
  616MOL0     C84872  10.100   4.430   5.008  0.0377 -0.8699  0.0628
  616MOL0     O84873  10.050   4.373   5.125 -0.5538  0.4215  0.6164
  616MOL0     C84874  10.081   4.238   5.142 -0.0031  0.2104 -0.8438
  616MOL0     C84875  10.212   4.193   5.147  0.2483  0.1287  0.1443
  616MOL0     C84876  10.245   4.052   5.184 -0.5735 -0.0126 -0.3169
  616MOL0     C84877  10.145   3.961   5.202  0.7729 -0.1167 -0.6790
  616MOL0     O84878  10.187   3.830   5.216  0.1850 -0.6317 -0.5430
  616MOL0     C84879  10.089   3.746   5.284  0.6452  0.9020 -0.0559
  616MOL0     C84880  10.162   3.616   5.314  0.2409  0.0646 -0.3853
  616MOL0     C84881  10.074   3.527   5.393  0.3974  0.3968  1.2077
  616MOL0     C84882  10.144   3.408   5.449 -0.6041 -0.0158  0.0046
  616MOL0     C84883  10.235   3.442   5.559 -0.1180  0.3169 -0.1502
  616MOL0     C84884  10.302   3.314   5.610  0.3806 -0.6125 -0.2903
  616MOL0     C84885  10.385   3.340   5.735  0.3903  0.4525 -0.6444
  616MOL0     C84886  10.294   3.351   5.860  0.2591  0.1783  0.9985
  616MOL0     N84887  10.362   3.419   5.965 -0.4338  0.9701  0.5374
  616MOL0     C84888  10.463   3.365   6.045  0.3182 -0.1849  0.1779
  616MOL0     C84889  10.452   3.445   6.156 -0.6325 -0.4644  0.3603
  616MOL0     C84890  10.545   3.454   6.275 -0.5953  0.4572 -0.2140
  616MOL0     C84891  10.670   3.371   6.258  0.4485  0.1654 -0.0732
  616MOL0     C84892  10.775   3.412   6.367 -0.8255 -0.7514 -0.0845
  616MOL0     C84893  10.890   3.310   6.383 -0.2065 -0.6792  0.1140
  616MOL0     O84894  10.990   3.370   6.476  0.2780  0.7263  0.7297
  616MOL0     C84895  10.983   3.349   6.608 -0.7968 -0.4487 -1.0266
  616MOL0     C84896  11.027   3.457   6.692  0.5788 -0.5020  0.4169
  616MOL0     C84897  11.052   3.443   6.824  1.1043  0.0323  0.4512
  616MOL0     C84898  11.089   3.564   6.898  0.7307 -0.0906  0.1133
  616MOL0     C84899  11.053   3.311   6.886 -0.4733 -0.8823 -0.6990
  616MOL0     C84900  11.111   3.281   7.020  0.9349  0.7642  0.1823
  616MOL0     O84901  11.147   3.153   7.035  0.5616 -0.5944 -0.7612
  616MOL0     C84902  11.204   3.099   7.146 -0.5012  0.7805 -0.4717
  616MOL0     C84903  11.283   3.162   7.231 -0.0022  0.1076  0.3081
  616MOL0     C84904  11.338   3.097   7.337  0.0640 -0.5972  0.0001
  616MOL0     C84905  11.311   2.955   7.366 -0.5134 -0.7991  0.9664
  616MOL0     O84906  11.394   2.899   7.463 -0.8443  0.0709 -1.0140
  616MOL0     C84907  11.350   2.780   7.526  0.5698  1.1797  0.2157
  616MOL0     C84908  11.361   2.800   7.680  0.1257  0.3740 -0.1009
  616MOL0     C84909  11.267   2.898   7.761  0.7748  0.3136 -0.2173
  616MOL0     C84910  11.294   2.882   7.913  0.7259  0.9279  0.7447
  616MOL0     C84911  11.246   3.006   7.997 -0.1311  0.7222  0.2134
  616MOL0     C84912  11.106   3.047   7.957  0.6606 -0.1411  0.4602
  616MOL0     C84913  11.046   3.164   8.029  0.8163 -0.1644  0.1099
  616MOL0     C84914  10.904   3.212   7.992 -0.0483  0.4423 -0.7224
  616MOL0    Cl84915  10.792   3.084   7.989  0.3224  0.6157 -0.1115
  616MOL0     C84916  11.238   2.886   7.269 -0.4447 -0.7273  0.0223
  616MOL0     C84917  11.180   2.965   7.162 -0.2798  0.6366 -0.2376
  616MOL0     O84918  11.124   3.369   7.108 -0.3839 -0.4031  0.7843
  616MOL0     C84919  11.015   3.203   6.794 -0.0106  0.0219 -0.3212
  616MOL0     C84920  10.974   3.229   6.665  0.0340 -0.0862  1.0986
  616MOL0     N84921  10.363   3.549   6.128 -0.2856  1.2096 -1.1702
  616MOL0     N84922  10.316   3.536   6.009  0.3269  0.2285 -0.4598
  616MOL0     C84923  10.006   4.009   5.193 -0.7784  0.7996 -0.2355
  616MOL0     C84924   9.982   4.142   5.154 -0.0239  0.4720 -0.0516
  616MOL0     C84925  10.037   4.571   4.976 -0.5894  0.5564  0.0486
  616MOL0     C84926   9.924   4.606   5.044 -0.1196 -0.9051 -0.4373
  616MOL0     C84927   9.860   4.735   5.040  0.5928 -0.4910 -0.5582
  616MOL0     C84928   9.923   4.834   4.969  0.6203 -0.1798  0.1819
  616MOL0     O84929   9.857   4.953   4.957  0.1479 -0.3761  0.4207
  616MOL0     C84930   9.885   5.054   4.855  0.4736 -0.3499 -0.5106
  616MOL0     C84931   9.779   5.159   4.853 -0.4277  0.0942  0.0373
  616MOL0     C84932   9.734   5.209   4.994  0.7533 -0.9013  0.3017
  616MOL0     C84933   9.827   5.324   5.046 -0.3580  0.1485 -0.6505
  616MOL0     C84934   9.970   5.324   5.031  0.2574 -0.3447 -0.2860
  616MOL0     C84935  10.086   5.341   5.025 -0.1171 -0.0089  0.1265
  616MOL0     C84936  10.041   4.799   4.892 -0.3227  0.1481 -0.5946
  616MOL0     C84937  10.098   4.670   4.901  0.3211 -0.3631 -0.1170
  616MOL0     C84938  10.233   4.649   4.826  0.4035 -0.7493 -0.0787
  616MOL0     H84939  10.291   4.254   5.106 -0.5727 -0.1762 -2.0438
  616MOL0     H84940  10.346   4.027   5.217 -1.1081 -0.9911  0.6265
  616MOL0     H84941  10.010   3.713   5.217 -0.2026 -0.0505  1.3647
  616MOL0     H84942  10.050   3.779   5.381  0.8017 -1.6127  0.9237
  616MOL0     H84943  10.189   3.577   5.215 -1.3612  1.3095 -1.3613
  616MOL0     H84944  10.251   3.637   5.375 -1.8845  0.1683  2.9103
  616MOL0     H84945  10.029   3.590   5.471 -0.7721  0.9611  0.1051
  616MOL0     H84946   9.991   3.498   5.328  1.6051 -4.4843  1.4906
  616MOL0     H84947  10.071   3.337   5.489 -2.7767  2.2667  0.3721
  616MOL0     H84948  10.203   3.351   5.377  1.9268  1.1082  1.0659
  616MOL0     H84949  10.190   3.508   5.634 -0.3186 -1.4519  1.3758
  616MOL0     H84950  10.324   3.492   5.518 -0.0803  0.1140 -0.3188
  616MOL0     H84951  10.222   3.241   5.626  0.2823 -0.2480  1.0095
  616MOL0     H84952  10.363   3.285   5.524  1.4750  0.8287 -0.0541
  616MOL0     H84953  10.433   3.437   5.720 -2.9071  2.2214 -0.6759
  616MOL0     H84954  10.456   3.258   5.752  0.3086  0.3930 -0.5879
  616MOL0     H84955  10.205   3.408   5.832  1.3174  1.0723 -0.6123
  616MOL0     H84956  10.266   3.251   5.896  2.1057 -0.3276  1.1075
  616MOL0     H84957  10.532   3.285   6.021 -0.0752 -0.6273  0.4989
  616MOL0     H84958  10.495   3.411   6.362  1.6307 -1.1360  0.3611
  616MOL0     H84959  10.571   3.556   6.305  1.7104 -0.0214 -0.4396
  616MOL0     H84960  10.642   3.265   6.263 -1.3704  0.6750  2.1589
  616MOL0     H84961  10.715   3.377   6.158  0.3243 -3.8613 -0.5515
  616MOL0     H84962  10.806   3.514   6.342 -2.2573 -0.0524  0.8758
  616MOL0     H84963  10.735   3.417   6.468  0.6341  1.5320  0.4488
  616MOL0     H84964  10.836   3.222   6.420  0.6141 -1.9072 -1.5007
  616MOL0     H84965  10.945   3.288   6.291  1.1141  2.2496  0.1002
  616MOL0     H84966  11.048   3.552   6.643 -0.4110  1.1564  3.0228
  616MOL0     H84967  11.047   3.654   6.852  3.3464  1.4918  0.6147
  616MOL0     H84968  11.197   3.577   6.910  0.9605 -0.9998 -0.8043
  616MOL0     H84969  11.036   3.547   6.993 -0.0618 -3.6282 -0.8128
  616MOL0     H84970  11.304   3.269   7.235 -1.3825  0.3762  0.7682
  616MOL0     H84971  11.391   3.146   7.419 -0.2402  0.6526 -0.5244
  616MOL0     H84972  11.246   2.762   7.495  1.0112  0.2331 -0.7639
  616MOL0     H84973  11.413   2.697   7.496 -1.3883 -0.2572 -0.1581
  616MOL0     H84974  11.351   2.705   7.733  3.2133  0.4999  0.9002
  616MOL0     H84975  11.462   2.836   7.701  0.1168 -0.2751  1.2011
  616MOL0     H84976  11.162   2.868   7.754  1.3335 -2.0421  0.8119
  616MOL0     H84977  11.284   3.001   7.726 -0.7378  0.7014  0.1169
  616MOL0     H84978  11.402   2.868   7.925  1.3975  0.9938 -3.5688
  616MOL0     H84979  11.247   2.793   7.956  1.2922  0.0424 -0.4206
  616MOL0     H84980  11.256   2.990   8.105  0.9255  3.1724  0.5560
  616MOL0     H84981  11.322   3.082   7.974 -0.3795  0.1521 -2.9523
  616MOL0     H84982  11.043   2.958   7.963  2.3077 -1.5005 -0.9138
  616MOL0     H84983  11.112   3.081   7.853 -1.8184  3.0599  1.2361
  616MOL0     H84984  11.107   3.253   8.013 -0.5156  1.0654  1.4623
  616MOL0     H84985  11.055   3.146   8.137 -0.1141 -1.2408  0.0280
  616MOL0     H84986  10.897   3.262   7.895  2.3288  0.5213 -0.9148
  616MOL0     H84987  10.864   3.284   8.064 -0.5067 -1.1104  0.6336
  616MOL0     H84988  11.205   2.782   7.268 -1.9220 -0.2846 -1.3193
  616MOL0     H84989  11.127   2.904   7.089  0.7905 -1.0125  0.3061
  616MOL0     H84990  11.017   3.102   6.831 -1.8940 -0.1005 -0.4383
  616MOL0     H84991  10.949   3.152   6.592  2.9554  0.1432 -0.2765
  616MOL0     H84992   9.921   3.945   5.216 -0.5964  0.7981  0.4537
  616MOL0     H84993   9.879   4.167   5.129 -0.4198 -0.2478  0.8063
  616MOL0     H84994   9.876   4.524   5.097 -0.2858 -0.7866 -0.4066
  616MOL0     H84995   9.768   4.751   5.094 -0.0728  2.4855 -2.3474
  616MOL0     H84996   9.971   5.107   4.898 -0.8661  0.4909  1.2726
  616MOL0     H84997   9.898   5.007   4.757 -1.1555  1.3968 -1.6450
  616MOL0     H84998   9.687   5.111   4.818 -0.4135  0.7799 -0.9532
  616MOL0     H84999   9.803   5.241   4.785 -1.7195 -0.7995 -1.5668
  616MOL0     H85000   9.635   5.254   4.978  0.9903  0.1771  1.7143
  616MOL0     H85001   9.724   5.134   5.072  0.2791 -2.8858 -1.5696
  616MOL0     H85002   9.808   5.340   5.152  1.1732  0.0623 -0.3302
  616MOL0     H85003   9.778   5.407   4.994 -2.0183 -0.7651 -0.6183
  616MOL0     H85004  10.192   5.350   5.018 -0.1665  1.6070  0.8259
  616MOL0     H85005  10.099   4.865   4.828  0.2536  0.9837  0.7501
  616MOL0     H85006  10.310   4.648   4.904  1.8770  1.9564 -1.3485
  616MOL0     H85007  10.228   4.552   4.776  3.3133 -1.8936  1.5798
  616MOL0     H85008  10.261   4.725   4.753  2.3311 -1.1190  0.2062
  617MOL0     O85009   5.257   9.621   8.707 -0.0494 -0.3460 -0.1716
  617MOL0     C85010   5.169   9.594   8.620  1.3433  0.9154 -1.0930
  617MOL0     O85011   5.067   9.675   8.588  0.1738 -0.0627 -0.0296
  617MOL0     C85012   5.074   9.801   8.646 -1.3586  0.5361 -1.1415
  617MOL0     C85013   5.195   9.879   8.652 -0.2813  0.1320  0.1117
  617MOL0     C85014   5.208  10.003   8.719 -0.1811 -0.5245 -0.8280
  617MOL0     C85015   5.101  10.057   8.781  0.7392 -0.0889 -1.3098
  617MOL0     O85016   5.125  10.164   8.860  0.1992  0.2806 -0.7184
  617MOL0     C85017   5.161  10.292   8.816 -0.2445  0.9247  0.4736
  617MOL0     C85018   5.049  10.339   8.725 -0.6776 -0.0343  0.5591
  617MOL0     C85019   5.057  10.491   8.686  0.1601  0.7996  0.7558
  617MOL0     C85020   5.054  10.585   8.807 -0.2403 -0.1114  0.5707
  617MOL0     C85021   5.039  10.738   8.770  0.0267 -0.0798  0.3528
  617MOL0     C85022   5.048  10.807   8.898  0.9844 -0.0564 -0.2424
  617MOL0     C85023   4.985  10.948   8.909  0.1991  0.2709  0.1300
  617MOL0     C85024   5.031  11.041   8.798 -0.9990 -0.0111  0.1223
  617MOL0     N85025   4.970  11.170   8.800 -0.3930 -1.1219  0.5471
  617MOL0     C85026   4.851  11.207   8.751  0.1858 -0.1474  0.1472
  617MOL0     C85027   4.847  11.342   8.773  0.1462  0.4097 -0.5453
  617MOL0     C85028   4.738  11.434   8.743 -0.6547 -0.2319  0.8520
  617MOL0     C85029   4.607  11.374   8.806  0.6070  1.0569 -0.2265
  617MOL0     C85030   4.617  11.359   8.961  0.8685  0.3341 -0.4885
  617MOL0     C85031   4.498  11.284   9.015 -0.2280  0.6884 -0.2398
  617MOL0     O85032   4.501  11.153   8.969 -0.4002  0.3009 -0.3753
  617MOL0     C85033   4.562  11.048   9.032 -0.0720 -0.9549 -0.3686
  617MOL0     C85034   4.533  10.923   8.993  1.2210  0.3060  0.1775
  617MOL0     C85035   4.603  10.813   9.042 -0.2475  0.0790 -0.2635
  617MOL0     C85036   4.592  10.672   8.986  0.3545  0.8792  0.1866
  617MOL0     C85037   4.701  10.847   9.143  0.5758  0.0148 -0.0684
  617MOL0     C85038   4.785  10.730   9.204  0.8528  0.3819 -0.0233
  617MOL0     O85039   4.716  10.631   9.271  0.9607  0.1447 -0.2689
  617MOL0     C85040   4.787  10.516   9.322  0.0571 -0.3204 -0.8097
  617MOL0     C85041   4.909  10.462   9.283  0.7041  0.0186 -0.3329
  617MOL0     C85042   4.953  10.350   9.354  0.4593 -0.9430 -0.8421
  617MOL0     C85043   4.885  10.301   9.469 -0.3821 -0.2787  0.1934
  617MOL0     O85044   4.958  10.199   9.533  0.5228 -0.1261  0.0989
  617MOL0     C85045   4.882  10.128   9.633 -0.8739 -0.2572  0.3178
  617MOL0     C85046   4.841   9.988   9.574  0.6519  1.0869 -0.5940
  617MOL0     C85047   4.857   9.877   9.693 -0.0497  0.1249 -0.6907
  617MOL0     C85048   4.755   9.899   9.809  0.0846  0.0121  0.8713
  617MOL0     C85049   4.611   9.845   9.770 -0.1321 -0.8362  0.6623
  617MOL0     C85050   4.595   9.689   9.782  0.3559  0.5875  0.2834
  617MOL0     C85051   4.457   9.642   9.744 -0.0371  0.4412  0.6741
  617MOL0     C85052   4.433   9.501   9.807  0.2895 -0.0802 -0.0329
  617MOL0    Cl85053   4.255   9.480   9.773 -0.4750 -0.0395 -0.2726
  617MOL0     C85054   4.753  10.354   9.500 -0.3444 -0.3600  0.2372
  617MOL0     C85055   4.709  10.455   9.421 -0.3246 -0.0167 -1.0579
  617MOL0     O85056   4.902  10.759   9.219  0.9304  0.8598  0.7206
  617MOL0     C85057   4.732  10.978   9.173  0.8761  0.3261  0.5492
  617MOL0     C85058   4.652  11.082   9.137  0.7887  0.9590 -0.6504
  617MOL0     N85059   4.970  11.386   8.836 -0.1815 -0.5752  0.5024
  617MOL0     N85060   5.037  11.281   8.843  0.0748 -0.1500  0.2299
  617MOL0     C85061   4.974   9.998   8.774 -0.5255 -0.1693  0.2145
  617MOL0     C85062   4.963   9.870   8.701 -0.3523  0.3233 -0.4491
  617MOL0     C85063   5.180   9.470   8.543 -1.1355 -0.6456 -0.7018
  617MOL0     C85064   5.279   9.381   8.585  1.5105 -0.0944  0.4875
  617MOL0     C85065   5.295   9.266   8.513 -0.4767  0.7194  0.6823
  617MOL0     C85066   5.213   9.225   8.408  0.4519  0.7119  0.7308
  617MOL0     O85067   5.241   9.105   8.345 -0.4948 -0.5635  0.2666
  617MOL0     C85068   5.169   9.070   8.228 -0.1161  0.2247 -0.0500
  617MOL0     C85069   5.188   8.926   8.192 -0.4851 -1.2422 -0.1216
  617MOL0     C85070   5.102   8.888   8.066 -0.3898 -0.3006  0.2326
  617MOL0     C85071   5.097   8.740   8.061 -0.0839  0.0693  0.4826
  617MOL0     C85072   5.219   8.672   8.013 -0.4730  0.1064 -0.1932
  617MOL0     C85073   5.324   8.631   7.960  0.2533 -0.1077  0.0245
  617MOL0     C85074   5.102   9.313   8.373 -0.2268  1.1137  0.1674
  617MOL0     C85075   5.087   9.427   8.439 -0.7368 -0.1706  0.1698
  617MOL0     C85076   4.978   9.524   8.374 -0.5355 -0.5378  0.0002
  617MOL0     H85077   5.281   9.835   8.604 -0.8042 -1.0514  0.2332
  617MOL0     H85078   5.310  10.039   8.733  0.1489 -1.5937 -0.3152
  617MOL0     H85079   5.256  10.281   8.762  0.6432  1.8722  1.7912
  617MOL0     H85080   5.191  10.346   8.906  2.4403  0.4466 -0.0423
  617MOL0     H85081   5.057  10.284   8.631 -0.5132  1.9425 -0.6357
  617MOL0     H85082   4.950  10.326   8.769 -1.7621 -0.4879 -1.8796
  617MOL0     H85083   5.144  10.512   8.623 -1.1031 -0.0581 -1.3491
  617MOL0     H85084   4.980  10.530   8.620  1.3413 -0.6393 -1.5967
  617MOL0     H85085   4.973  10.565   8.878 -2.9610  0.1663 -2.2240
  617MOL0     H85086   5.152  10.576   8.855 -0.1087  1.0643  0.5513
  617MOL0     H85087   4.942  10.766   8.728  0.4936  2.8384  0.9743
  617MOL0     H85088   5.110  10.767   8.692  0.5269  2.4453  1.6504
  617MOL0     H85089   5.008  10.751   8.983 -2.3644  2.5119  0.0981
  617MOL0     H85090   5.156  10.822   8.910  0.6304  0.9078  2.6946
  617MOL0     H85091   5.021  10.994   9.001  1.6526  1.1028 -0.8254
  617MOL0     H85092   4.878  10.929   8.915  0.7127 -2.6912  4.5601
  617MOL0     H85093   5.137  11.058   8.818 -0.5772 -0.3161 -1.7162
  617MOL0     H85094   5.018  11.001   8.697  1.6406 -0.5211 -0.0731
  617MOL0     H85095   4.777  11.140   8.708 -1.6657  1.0571  1.3183
  617MOL0     H85096   4.716  11.449   8.636 -0.7505 -0.5199  0.8299
  617MOL0     H85097   4.760  11.532   8.786  0.0086 -0.0428  0.1158
  617MOL0     H85098   4.518  11.432   8.782  0.4052 -0.0970 -2.4276
  617MOL0     H85099   4.598  11.275   8.762 -0.1960  1.4423 -0.9599
  617MOL0     H85100   4.704  11.303   8.995 -0.3749 -0.8193  0.8791
  617MOL0     H85101   4.629  11.459   9.004 -3.4569 -0.0168  2.1206
  617MOL0     H85102   4.486  11.276   9.123 -0.9684  0.4778 -0.3260
  617MOL0     H85103   4.414  11.342   8.974  0.9822  1.0246 -2.4331
  617MOL0     H85104   4.459  10.915   8.915  1.0042  0.5041  0.3597
  617MOL0     H85105   4.688  10.634   8.950  1.5841  1.6568  2.4186
  617MOL0     H85106   4.519  10.667   8.904 -2.1884  0.1509  2.3447
  617MOL0     H85107   4.564  10.599   9.062 -1.7112  1.1760 -0.2218
  617MOL0     H85108   4.956  10.497   9.192 -2.3611  1.0056 -1.6602
  617MOL0     H85109   5.048  10.307   9.322  1.1014 -1.8060  1.9986
  617MOL0     H85110   4.949  10.107   9.717 -2.7130 -1.6821  1.5100
  617MOL0     H85111   4.806  10.192   9.678 -0.1709  0.4833  0.4727
  617MOL0     H85112   4.734   9.988   9.550 -0.4893 -2.8403  3.1085
  617MOL0     H85113   4.910   9.984   9.489  2.7286  1.9617  0.9721
  617MOL0     H85114   4.959   9.884   9.731 -0.2904 -0.1113  0.0309
  617MOL0     H85115   4.856   9.779   9.644 -0.2771 -0.0960 -0.2555
  617MOL0     H85116   4.757  10.004   9.840 -1.8023  0.1306  0.7278
  617MOL0     H85117   4.802   9.842   9.889  1.0670 -0.1259  0.2070
  617MOL0     H85118   4.539   9.887   9.840  1.2516 -2.1483  3.0191
  617MOL0     H85119   4.584   9.882   9.671 -0.5371 -0.1567  1.0220
  617MOL0     H85120   4.614   9.662   9.886  1.8512  4.0492  1.0492
  617MOL0     H85121   4.665   9.634   9.718 -1.1355  0.9782 -1.7791
  617MOL0     H85122   4.439   9.640   9.636 -1.7997  0.0823  0.9426
  617MOL0     H85123   4.381   9.709   9.786  0.6627  1.7139 -0.0598
  617MOL0     H85124   4.466   9.499   9.912  5.3174 -1.2437 -1.3694
  617MOL0     H85125   4.485   9.417   9.760  0.5132  0.2055 -0.2944
  617MOL0     H85126   4.687  10.321   9.580 -1.8188  5.0640  1.6791
  617MOL0     H85127   4.611  10.495   9.443 -1.4143 -2.8801 -0.2510
  617MOL0     H85128   4.810  10.994   9.247  1.8131  0.5584 -0.4704
  617MOL0     H85129   4.669  11.181   9.177 -0.5686 -0.0139  2.7756
  617MOL0     H85130   4.886  10.026   8.831 -0.5481 -0.6743  0.4345
  617MOL0     H85131   4.866   9.822   8.690 -2.3684  3.7192  0.8283
  617MOL0     H85132   5.347   9.391   8.669  1.4828  2.4541  0.2847
  617MOL0     H85133   5.374   9.199   8.545 -1.1530 -0.6154 -0.3542
  617MOL0     H85134   5.062   9.081   8.249 -0.4200 -0.8102 -1.0126
  617MOL0     H85135   5.197   9.140   8.149  3.2074  0.4710  1.1513
  617MOL0     H85136   5.134   8.875   8.272 -1.6003 -1.5357 -1.0442
  617MOL0     H85137   5.293   8.896   8.182  0.8542  3.0694 -1.1306
  617MOL0     H85138   5.002   8.931   8.075 -1.1189 -0.7283 -3.7875
  617MOL0     H85139   5.145   8.941   7.980 -1.6634 -0.2620 -0.4034
  617MOL0     H85140   5.017   8.709   7.992 -0.7919  0.3564  1.1551
  617MOL0     H85141   5.064   8.698   8.156 -2.3648  0.6506  0.0172
  617MOL0     H85142   5.411   8.586   7.919  1.9603  3.0768 -0.2042
  617MOL0     H85143   5.033   9.302   8.289  0.3913 -1.0317 -0.1052
  617MOL0     H85144   5.008   9.628   8.363  0.3955 -0.9542 -1.7820
  617MOL0     H85145   4.960   9.497   8.269  0.3991  1.3272 -0.6874
  617MOL0     H85146   4.886   9.517   8.432 -1.3604 -0.3616 -1.2444
  618MOL0     O85147   7.351   3.055   9.048  0.1969  0.0570  0.1427
  618MOL0     C85148   7.369   2.942   8.996 -0.9337 -0.2089 -0.9946
  618MOL0     O85149   7.286   2.870   8.927  0.7488 -0.3512 -0.7254
  618MOL0     C85150   7.153   2.902   8.915  0.7757 -0.3482 -0.3355
  618MOL0     C85151   7.077   2.908   9.036  0.1338  0.1544 -0.7664
  618MOL0     C85152   6.940   2.924   9.020  0.0581 -0.8135 -0.0380
  618MOL0     C85153   6.883   2.939   8.892 -0.8866  0.7247 -0.5961
  618MOL0     O85154   6.748   2.955   8.887  0.0582  0.0461  0.4259
  618MOL0     C85155   6.657   2.845   8.891  0.1887  0.1810  0.2006
  618MOL0     C85156   6.527   2.859   8.816  0.8763  0.6933  0.7870
  618MOL0     C85157   6.571   2.871   8.664  0.1926  1.0908 -0.4269
  618MOL0     C85158   6.447   2.880   8.570  0.6319  0.5842  0.1173
  618MOL0     C85159   6.378   3.018   8.571  0.3103  0.2253  0.2578
  618MOL0     C85160   6.256   3.029   8.471 -0.5949  0.4627 -0.0264
  618MOL0     C85161   6.210   3.178   8.457  0.5852  0.5156  0.6241
  618MOL0     C85162   6.074   3.192   8.389 -0.2447  0.6541 -0.0440
  618MOL0     N85163   5.973   3.112   8.447  0.1270 -0.0358  0.7702
  618MOL0     C85164   5.942   3.127   8.577  0.1965  0.3872 -0.3808
  618MOL0     C85165   5.857   3.026   8.605  0.3660  1.0221  0.8488
  618MOL0     C85166   5.772   3.010   8.733 -0.6346 -0.2664  0.3235
  618MOL0     C85167   5.831   3.068   8.865  0.0001  0.4088  0.7529
  618MOL0     C85168   5.729   3.074   8.974 -0.3665 -1.3221  0.7745
  618MOL0     C85169   5.798   3.131   9.100  0.4342 -0.7058 -0.8919
  618MOL0     O85170   5.863   3.259   9.068  0.5274 -0.7166  0.4722
  618MOL0     C85171   5.797   3.384   9.055  0.2371 -0.7269  1.1518
  618MOL0     C85172   5.656   3.407   9.067 -0.1987  0.9376  0.6868
  618MOL0     C85173   5.591   3.540   9.038 -0.4097  1.5281  0.7481
  618MOL0     C85174   5.438   3.537   9.056  0.0862  0.6019  0.1970
  618MOL0     C85175   5.678   3.647   9.016 -0.5376  0.3256  0.1018
  618MOL0     C85176   5.627   3.784   8.987  0.2200 -0.1775  0.6675
  618MOL0     O85177   5.712   3.885   8.952 -0.6108 -0.2816 -0.5125
  618MOL0     C85178   5.658   4.012   8.930 -0.2578 -0.5488  0.0517
  618MOL0     C85179   5.580   4.079   9.030  0.4698  0.5918 -0.4865
  618MOL0     C85180   5.555   4.210   9.024  0.0081 -0.4369 -0.1829
  618MOL0     C85181   5.594   4.286   8.905  0.1816  0.0534  0.0392
  618MOL0     O85182   5.571   4.420   8.921 -0.6325  0.4173  0.4598
  618MOL0     C85183   5.628   4.499   8.815  0.0633 -0.3419  0.0551
  618MOL0     C85184   5.603   4.644   8.852 -0.5559  0.1234  0.4920
  618MOL0     C85185   5.459   4.686   8.850  0.3344 -0.1135  0.2962
  618MOL0     C85186   5.453   4.831   8.924 -0.6232 -0.1700  0.9559
  618MOL0     C85187   5.309   4.865   8.946 -0.8045 -0.3388  0.4841
  618MOL0     C85188   5.293   5.005   8.985  0.1824 -0.0479 -0.0328
  618MOL0     C85189   5.162   5.021   9.053 -0.0460 -0.0103 -0.0898
  618MOL0     C85190   5.168   4.989   9.199  0.7357  0.1429 -0.4422
  618MOL0    Cl85191   5.014   5.026   9.293  0.1737  0.0130  0.2573
  618MOL0     C85192   5.669   4.218   8.802  0.3008  0.3997  0.5260
  618MOL0     C85193   5.696   4.076   8.812 -0.9905 -0.5194  0.0199
  618MOL0     O85194   5.501   3.790   8.987 -0.0710 -1.1748 -0.4425
  618MOL0     C85195   5.822   3.633   9.024  0.2602  0.1188  0.0510
  618MOL0     C85196   5.874   3.501   9.037 -0.0449  0.3368  0.5515
  618MOL0     N85197   5.844   2.951   8.491  0.3426  0.1892  0.7020
  618MOL0     N85198   5.915   3.001   8.388 -0.1792 -0.8124  0.2456
  618MOL0     C85199   6.959   2.935   8.778 -1.1225 -1.2242  0.7561
  618MOL0     C85200   7.094   2.913   8.792 -0.5626  0.1948 -0.8122
  618MOL0     C85201   7.503   2.884   9.031  0.0853  0.4256 -0.8505
  618MOL0     C85202   7.617   2.919   8.954 -0.0332  0.2176 -0.2452
  618MOL0     C85203   7.743   2.845   8.979 -0.0966 -0.3746  0.2265
  618MOL0     C85204   7.748   2.737   9.069  0.4512  0.0636  0.8566
  618MOL0     O85205   7.856   2.658   9.099 -0.0156  0.0318  0.6323
  618MOL0     C85206   7.957   2.665   9.004 -0.2876  0.4575  0.4270
  618MOL0     C85207   8.083   2.596   9.060  1.0326  0.0862 -0.3969
  618MOL0     C85208   8.218   2.632   9.000  0.2957 -0.1727  0.1159
  618MOL0     C85209   8.229   2.586   8.853 -0.0492  0.0101 -0.3480
  618MOL0     C85210   8.229   2.440   8.837 -0.2263  0.0178  0.7227
  618MOL0     C85211   8.262   2.319   8.840  0.1773  1.1280 -0.1540
  618MOL0     C85212   7.631   2.708   9.138 -0.3726  0.2232 -0.7651
  618MOL0     C85213   7.509   2.771   9.119 -0.1243 -0.2665 -0.1997
  618MOL0     C85214   7.385   2.722   9.191  0.3068  0.0166 -0.3865
  618MOL0     H85215   7.127   2.900   9.132 -0.0896 -1.9549 -0.7801
  618MOL0     H85216   6.868   2.926   9.102  1.6986 -0.5939  1.4601
  618MOL0     H85217   6.632   2.832   8.997  2.5315  1.6917  1.0258
  618MOL0     H85218   6.709   2.755   8.857  0.2053 -0.9409  2.9627
  618MOL0     H85219   6.463   2.773   8.838 -2.2564  1.5039 -3.7530
  618MOL0     H85220   6.470   2.943   8.856  0.1474  0.6852 -0.2100
  618MOL0     H85221   6.637   2.958   8.660  1.2896  0.2771 -0.4426
  618MOL0     H85222   6.648   2.798   8.638  2.3582  4.1447 -3.4261
  618MOL0     H85223   6.485   2.862   8.469  0.1730  0.1599  0.0186
  618MOL0     H85224   6.378   2.799   8.594  2.9220 -2.5136 -2.7625
  618MOL0     H85225   6.447   3.099   8.545  0.0317  0.7978  1.2314
  618MOL0     H85226   6.352   3.051   8.672 -0.3597  1.7865 -0.3906
  618MOL0     H85227   6.297   2.988   8.378 -0.6673 -1.5335  0.7719
  618MOL0     H85228   6.171   2.974   8.512  0.8356 -0.1642  2.2406
  618MOL0     H85229   6.283   3.234   8.397 -0.7289 -1.4050 -3.0743
  618MOL0     H85230   6.209   3.225   8.556  0.5664 -0.3302  1.0324
  618MOL0     H85231   6.045   3.297   8.398 -1.5150  0.5053 -1.8140
  618MOL0     H85232   6.091   3.167   8.284  0.0050 -1.9112  0.5433
  618MOL0     H85233   5.983   3.201   8.646  2.2458 -2.3405  1.5394
  618MOL0     H85234   5.741   2.905   8.730 -0.6715 -0.2524  0.1698
  618MOL0     H85235   5.677   3.059   8.711  0.4260  1.2830 -1.0298
  618MOL0     H85236   5.906   2.996   8.900  0.8326  1.2187  0.6655
  618MOL0     H85237   5.897   3.153   8.850  1.4336 -0.8524 -0.3793
  618MOL0     H85238   5.642   3.134   8.945  0.6403  0.4848  1.3123
  618MOL0     H85239   5.685   2.979   9.005 -0.4670 -0.6312  2.9159
  618MOL0     H85240   5.723   3.152   9.177  1.1395  0.0460 -0.3908
  618MOL0     H85241   5.864   3.057   9.146  1.0256 -0.1337 -0.7958
  618MOL0     H85242   5.594   3.323   9.095  1.7465 -0.2336  1.6959
  618MOL0     H85243   5.399   3.443   9.098 -2.8505  1.8046  0.4281
  618MOL0     H85244   5.391   3.540   8.957  1.1246 -0.6426 -0.3728
  618MOL0     H85245   5.404   3.623   9.113 -1.3675  1.7982 -2.2890
  618MOL0     H85246   5.569   4.029   9.125  1.5202 -0.8753 -1.0979
  618MOL0     H85247   5.518   4.273   9.105 -0.7257  1.9947 -2.2627
  618MOL0     H85248   5.736   4.484   8.813  0.2066  0.6448 -0.2796
  618MOL0     H85249   5.585   4.482   8.717 -2.4910  0.6900  0.9120
  618MOL0     H85250   5.653   4.666   8.947  3.2061  3.1137 -1.9034
  618MOL0     H85251   5.656   4.703   8.777 -1.8316  0.2791 -0.3011
  618MOL0     H85252   5.395   4.618   8.907 -2.7711  1.1020 -1.5138
  618MOL0     H85253   5.425   4.699   8.748 -0.1637 -0.3690  0.4304
  618MOL0     H85254   5.511   4.903   8.866  0.0851 -1.7877 -0.4162
  618MOL0     H85255   5.498   4.819   9.023 -2.2327  0.5257  1.8140
  618MOL0     H85256   5.262   4.867   8.847 -0.6127  3.3823  0.3485
  618MOL0     H85257   5.261   4.797   9.017 -2.2803 -0.1460 -0.2823
  618MOL0     H85258   5.300   5.070   8.897  1.4001 -1.1758 -0.7984
  618MOL0     H85259   5.374   5.027   9.055  1.3035 -1.6661 -0.7579
  618MOL0     H85260   5.089   4.957   9.002  0.8141 -1.0215 -0.0688
  618MOL0     H85261   5.122   5.123   9.049 -0.1355 -0.0833 -2.6117
  618MOL0     H85262   5.252   5.040   9.248  3.0406 -2.5405 -1.3883
  618MOL0     H85263   5.181   4.881   9.205 -3.2715 -0.4096  1.2383
  618MOL0     H85264   5.717   4.279   8.726 -0.8362  1.7616  0.8629
  618MOL0     H85265   5.762   4.034   8.736 -0.9470  2.1530 -1.5824
  618MOL0     H85266   5.888   3.718   9.015  1.5838 -0.6089  2.2705
  618MOL0     H85267   5.981   3.497   9.021 -0.2632 -0.4325 -0.9504
  618MOL0     H85268   6.916   2.928   8.679 -0.9526 -1.3805  0.6925
  618MOL0     H85269   7.156   2.901   8.703 -2.9835  1.3218 -2.7621
  618MOL0     H85270   7.611   2.998   8.881 -5.0351 -0.0141 -0.3727
  618MOL0     H85271   7.834   2.874   8.927 -0.2512  1.0747  0.7409
  618MOL0     H85272   7.921   2.611   8.916 -1.1103  0.8300  0.5278
  618MOL0     H85273   7.994   2.763   8.971  2.6066 -0.4488  0.7460
  618MOL0     H85274   8.067   2.489   9.045 -0.1717  0.2384 -0.2593
  618MOL0     H85275   8.079   2.626   9.165  0.2558  0.5444 -0.5541
  618MOL0     H85276   8.213   2.741   9.001  0.5493 -0.1169 -1.4953
  618MOL0     H85277   8.306   2.606   9.059  0.4914 -1.6443 -0.7671
  618MOL0     H85278   8.313   2.639   8.809 -1.2558  0.7131 -1.9069
  618MOL0     H85279   8.158   2.640   8.791  0.0375  1.2781  0.6137
  618MOL0     H85280   8.279   2.213   8.839 -1.1558  0.8924  0.2281
  618MOL0     H85281   7.641   2.626   9.209 -1.7483 -0.3246 -1.1715
  618MOL0     H85282   7.323   2.802   9.231 -0.6233 -0.5046 -0.7570
  618MOL0     H85283   7.315   2.665   9.129  0.4385 -1.3407  0.6604
  618MOL0     H85284   7.415   2.660   9.276 -0.9062 -1.8277 -1.2309
  619MOL0     O85285   7.954   0.130   5.971 -0.2523 -0.4244 -0.3998
  619MOL0     C85286   7.864   0.153   6.052 -0.5592 -1.0622 -0.6432
  619MOL0     O85287   7.768   0.069   6.085 -0.0131  0.6735 -0.6707
  619MOL0     C85288   7.775  -0.062   6.040  0.7469  0.4909 -0.3224
  619MOL0     C85289   7.753  -0.156   6.143 -1.3715  0.0993  0.6785
  619MOL0     C85290   7.760  -0.295   6.105 -0.9839 -0.2456  0.3089
  619MOL0     C85291   7.788  -0.333   5.972 -0.4101  0.0800  0.7270
  619MOL0     O85292   7.784  -0.462   5.916  0.2183 -0.5899 -0.9372
  619MOL0     C85293   7.786  -0.571   5.999  0.4550  0.5258  0.4769
  619MOL0     C85294   7.788  -0.702   5.914  0.5059  0.3993 -0.2784
  619MOL0     C85295   7.659  -0.714   5.834  0.6895 -0.5486  0.3810
  619MOL0     C85296   7.668  -0.808   5.719 -0.7559 -0.1461  0.2557
  619MOL0     C85297   7.535  -0.813   5.630 -0.8190  0.1645 -0.1666
  619MOL0     C85298   7.429  -0.879   5.713  0.3558  0.4285  0.0266
  619MOL0     C85299   7.312  -0.930   5.627  0.3494 -0.3859  0.0133
  619MOL0     C85300   7.207  -0.999   5.723 -0.4642  0.4182  0.9235
  619MOL0     N85301   7.107  -1.091   5.653  0.2916  0.4335 -0.3629
  619MOL0     C85302   7.017  -1.077   5.552 -0.0401 -0.7932  0.4388
  619MOL0     C85303   6.984  -1.211   5.519 -0.5313 -0.7876 -0.7825
  619MOL0     C85304   6.873  -1.240   5.427  0.3301  0.6897  0.1986
  619MOL0     C85305   6.911  -1.349   5.333  0.2763  0.5342 -0.1051
  619MOL0     C85306   6.889  -1.483   5.399  0.4671 -0.3619  0.3980
  619MOL0     C85307   6.985  -1.586   5.339 -0.1918  0.9415  0.6706
  619MOL0     O85308   6.982  -1.590   5.194  0.5051  0.0939 -0.7143
  619MOL0     C85309   7.079  -1.659   5.134  0.2936  0.6571 -0.7868
  619MOL0     C85310   7.104  -1.639   5.001 -0.9140  0.2712 -0.0775
  619MOL0     C85311   7.212  -1.701   4.933  0.6756  1.5411 -0.4965
  619MOL0     C85312   7.219  -1.655   4.786 -0.2207  0.3582  0.4417
  619MOL0     C85313   7.294  -1.796   5.002 -0.0493  0.5361 -0.3484
  619MOL0     C85314   7.419  -1.849   4.933 -1.2107 -0.1775 -0.0381
  619MOL0     O85315   7.490  -1.756   4.861 -0.1866 -0.0394 -0.1651
  619MOL0     C85316   7.599  -1.804   4.787  0.2579  0.6707 -0.5783
  619MOL0     C85317   7.723  -1.743   4.797  0.6307  0.2585 -0.0416
  619MOL0     C85318   7.832  -1.789   4.721 -0.2216 -0.4374 -0.3493
  619MOL0     C85319   7.827  -1.905   4.643 -0.1987  0.0081  0.5679
  619MOL0     O85320   7.935  -1.928   4.563 -0.0340  0.1025 -0.6296
  619MOL0     C85321   7.950  -2.055   4.507 -0.3177 -0.2133 -0.3248
  619MOL0     C85322   8.095  -2.083   4.478 -0.6330 -0.2983 -0.5390
  619MOL0     C85323   8.148  -1.985   4.369 -0.0667  0.0112  0.6916
  619MOL0     C85324   8.302  -2.002   4.345  0.8638 -0.1680  0.4410
  619MOL0     C85325   8.345  -1.910   4.223  0.2146  0.0653 -0.5885
  619MOL0     C85326   8.485  -1.944   4.179 -0.0951  0.0840  0.4088
  619MOL0     C85327   8.529  -1.839   4.088  0.4511 -0.7955  0.4228
  619MOL0     C85328   8.671  -1.876   4.026  0.5194  0.3564 -1.1707
  619MOL0    Cl85329   8.717  -1.758   3.907 -0.3857  0.0089  0.1504
  619MOL0     C85330   7.711  -1.979   4.654  0.7302 -0.0526 -0.2147
  619MOL0     C85331   7.598  -1.929   4.717  1.1081  0.4111  0.0725
  619MOL0     O85332   7.456  -1.965   4.958 -0.4466 -0.1380  0.1453
  619MOL0     C85333   7.262  -1.819   5.126 -0.0269 -0.3192 -0.0297
  619MOL0     C85334   7.151  -1.763   5.188 -0.0731  0.0350 -0.3622
  619MOL0     N85335   7.052  -1.286   5.610 -0.9349 -0.7179 -0.3298
  619MOL0     N85336   7.126  -1.223   5.687  0.1079 -0.2083 -0.8157
  619MOL0     C85337   7.812  -0.245   5.876  0.0780 -0.0754  0.0189
  619MOL0     C85338   7.803  -0.105   5.905 -0.7959 -0.1114  0.0670
  619MOL0     C85339   7.845   0.285   6.106  0.1818  0.0817 -0.5707
  619MOL0     C85340   7.743   0.316   6.198  0.2043 -0.6572 -0.5348
  619MOL0     C85341   7.733   0.440   6.257  0.2373 -1.8265  0.2205
  619MOL0     C85342   7.809   0.556   6.223  0.6518 -0.4190  0.4895
  619MOL0     O85343   7.791   0.690   6.257 -0.2025  0.2195  0.2909
  619MOL0     C85344   7.729   0.732   6.383  0.2254 -0.7367  0.1400
  619MOL0     C85345   7.845   0.744   6.493  0.1018  0.1329 -0.6413
  619MOL0     C85346   7.906   0.608   6.514  0.6630  0.2126 -0.6489
  619MOL0     C85347   7.977   0.597   6.646  0.4076 -0.0107  0.2318
  619MOL0     C85348   7.995   0.456   6.667  1.0839  0.3345 -0.3135
  619MOL0     C85349   8.012   0.333   6.683 -0.1894  0.0549 -1.0319
  619MOL0     C85350   7.914   0.527   6.138  0.6773  0.1601  0.1576
  619MOL0     C85351   7.940   0.393   6.082 -0.8253 -0.2520 -0.6920
  619MOL0     C85352   8.074   0.384   6.016  0.3637 -0.5585  0.3291
  619MOL0     H85353   7.723  -0.119   6.240 -1.0522 -0.3676  0.9554
  619MOL0     H85354   7.742  -0.371   6.180 -0.4774 -2.3001 -1.5375
  619MOL0     H85355   7.700  -0.589   6.063  1.8539 -3.2977  1.5485
  619MOL0     H85356   7.874  -0.584   6.063  3.9094 -0.6578 -3.9721
  619MOL0     H85357   7.881  -0.709   5.856  0.8100 -0.5356  0.2899
  619MOL0     H85358   7.789  -0.791   5.979 -3.3844 -0.7567 -1.5171
  619MOL0     H85359   7.588  -0.769   5.897 -0.6371  1.3611  0.6170
  619MOL0     H85360   7.623  -0.615   5.807 -1.5003 -1.2271  0.6063
  619MOL0     H85361   7.751  -0.777   5.655 -0.6008  0.7126  0.8491
  619MOL0     H85362   7.694  -0.904   5.764  2.8411  1.9110  3.2010
  619MOL0     H85363   7.569  -0.882   5.552 -0.5552 -1.4471  1.3033
  619MOL0     H85364   7.512  -0.712   5.595  1.1756  1.0707  1.0247
  619MOL0     H85365   7.470  -0.965   5.765 -4.1423 -0.9542  1.7283
  619MOL0     H85366   7.402  -0.813   5.796 -1.6206 -2.0412  1.4776
  619MOL0     H85367   7.344  -1.011   5.561  1.0779  0.7307 -1.0472
  619MOL0     H85368   7.261  -0.854   5.566  2.1285  1.0407  0.2123
  619MOL0     H85369   7.263  -1.050   5.802  1.7042  2.3356  0.7287
  619MOL0     H85370   7.141  -0.922   5.763 -0.6257 -0.0325  1.5314
  619MOL0     H85371   6.967  -0.989   5.513  1.9109  1.0468  1.8381
  619MOL0     H85372   6.848  -1.151   5.368  2.8302  0.3728 -1.4944
  619MOL0     H85373   6.790  -1.283   5.483 -0.0904 -0.0139 -0.9377
  619MOL0     H85374   6.850  -1.357   5.242 -3.2462 -0.7523  2.1627
  619MOL0     H85375   7.018  -1.341   5.312  0.0581 -0.6277 -1.8849
  619MOL0     H85376   6.901  -1.482   5.507  1.5098  2.4602  0.3423
  619MOL0     H85377   6.786  -1.515   5.381  1.7498 -4.4917 -0.6779
  619MOL0     H85378   7.083  -1.570   5.386  1.4021 -1.2127 -1.6314
  619MOL0     H85379   6.943  -1.684   5.363 -0.7260  0.4560 -1.9626
  619MOL0     H85380   7.039  -1.568   4.951 -0.3961 -0.1220 -1.3469
  619MOL0     H85381   7.276  -1.561   4.787  2.7271 -1.3141  0.0011
  619MOL0     H85382   7.121  -1.652   4.738  0.9482  1.5096 -2.0294
  619MOL0     H85383   7.272  -1.728   4.724 -0.9977  0.2895 -0.1486
  619MOL0     H85384   7.736  -1.651   4.853 -0.7915 -0.8431  2.2944
  619MOL0     H85385   7.928  -1.738   4.719  0.1746 -1.1364 -2.8156
  619MOL0     H85386   7.908  -2.130   4.575  1.0535 -1.3396 -0.6593
  619MOL0     H85387   7.899  -2.065   4.411 -0.5236 -0.2099 -0.2156
  619MOL0     H85388   8.153  -2.068   4.569 -2.2434 -0.9774  0.6649
  619MOL0     H85389   8.104  -2.188   4.448 -0.3579 -1.5069  3.2173
  619MOL0     H85390   8.122  -1.881   4.387  0.1688  0.3142 -0.6347
  619MOL0     H85391   8.096  -2.006   4.275  2.8062  0.7937 -1.2131
  619MOL0     H85392   8.329  -2.101   4.307 -0.2720  0.2035 -1.4773
  619MOL0     H85393   8.360  -1.992   4.437 -0.1808 -3.4531  1.5980
  619MOL0     H85394   8.273  -1.912   4.141 -1.8248 -3.9404  1.0451
  619MOL0     H85395   8.342  -1.805   4.254  1.6511 -0.3450  1.1374
  619MOL0     H85396   8.506  -2.038   4.126  2.5970  0.3935  0.8083
  619MOL0     H85397   8.550  -1.949   4.266 -0.0118 -3.4561  0.2940
  619MOL0     H85398   8.530  -1.741   4.138 -0.5404  0.2736 -1.5385
  619MOL0     H85399   8.463  -1.844   4.001 -2.8931  0.2305  2.7054
  619MOL0     H85400   8.666  -1.978   3.985 -1.7308  0.1448 -0.4546
  619MOL0     H85401   8.742  -1.884   4.109 -0.9887 -3.1755 -0.0144
  619MOL0     H85402   7.695  -2.074   4.605  5.9316 -2.2957  1.7046
  619MOL0     H85403   7.499  -1.973   4.712  0.5449  1.4324  1.5483
  619MOL0     H85404   7.321  -1.887   5.186  0.8324  0.2569 -0.1962
  619MOL0     H85405   7.126  -1.791   5.290  0.5812 -0.5678 -0.3581
  619MOL0     H85406   7.831  -0.283   5.776 -2.5430 -2.8827  0.4599
  619MOL0     H85407   7.820  -0.025   5.834 -1.7271 -0.6224 -0.7522
  619MOL0     H85408   7.668   0.240   6.220  1.3075 -1.8299 -0.7372
  619MOL0     H85409   7.652   0.459   6.327 -1.1936 -0.4696 -1.6961
  619MOL0     H85410   7.673   0.826   6.383  1.4982  0.2649  4.8299
  619MOL0     H85411   7.653   0.658   6.411 -2.0614  0.9503 -1.2871
  619MOL0     H85412   7.808   0.785   6.588  1.0613  0.3731 -0.3655
  619MOL0     H85413   7.919   0.818   6.465 -0.5510  0.9126 -0.3499
  619MOL0     H85414   7.834   0.526   6.514  0.8246 -0.1191  2.9732
  619MOL0     H85415   7.977   0.587   6.433 -0.6599 -1.9683 -1.3266
  619MOL0     H85416   7.925   0.630   6.737  2.7294  0.6017  1.4458
  619MOL0     H85417   8.068   0.655   6.627 -1.6351  2.5657 -2.4608
  619MOL0     H85418   8.034   0.230   6.703  2.0544  0.4963 -0.9058
  619MOL0     H85419   7.965   0.620   6.115 -1.3188  1.0973 -0.7591
  619MOL0     H85420   8.060   0.347   5.914 -0.3982 -0.2846  0.3229
  619MOL0     H85421   8.129   0.479   6.020  2.5701 -1.4619 -3.5043
  619MOL0     H85422   8.130   0.305   6.066 -2.3152 -0.4015  4.0347
  620MOL0     O85423  11.293   8.531   9.653 -0.2418 -0.6107 -0.0693
  620MOL0     C85424  11.192   8.595   9.679  0.1958  1.3493 -0.3315
  620MOL0     O85425  11.088   8.632   9.589 -0.6064  0.6306  0.2143
  620MOL0     C85426  11.104   8.601   9.455 -0.2472 -0.7075 -0.0585
  620MOL0     C85427  10.995   8.576   9.374 -0.2984 -1.0196  0.1802
  620MOL0     C85428  11.000   8.570   9.239  1.2464  0.6352 -1.0289
  620MOL0     C85429  11.116   8.594   9.172 -0.1216  0.1439 -1.2880
  620MOL0     O85430  11.106   8.558   9.042 -0.6516 -0.4416 -0.4945
  620MOL0     C85431  11.188   8.634   8.958 -0.0428 -0.0606 -0.2205
  620MOL0     C85432  11.141   8.589   8.819 -0.5725  0.2666 -0.2446
  620MOL0     C85433  11.009   8.660   8.784 -0.8925  0.0629 -0.1541
  620MOL0     C85434  10.952   8.571   8.673 -0.1371 -1.0345  0.2605
  620MOL0     C85435  10.843   8.636   8.597 -0.4608  0.1406  0.3367
  620MOL0     C85436  10.890   8.768   8.525 -0.0158 -0.3221  0.9770
  620MOL0     C85437  10.796   8.803   8.413  0.1217  0.9130 -0.7537
  620MOL0     C85438  10.835   8.923   8.325  0.0814  0.5573 -1.0531
  620MOL0     N85439  10.779   9.041   8.396 -0.6982  0.0013  0.6596
  620MOL0     C85440  10.850   9.119   8.481  0.8048  0.1789 -1.7082
  620MOL0     C85441  10.780   9.237   8.493 -0.1157 -0.0305  0.9063
  620MOL0     C85442  10.806   9.365   8.565  0.2854 -0.2258  0.4115
  620MOL0     C85443  10.684   9.391   8.663  0.6712  0.3871  0.5020
  620MOL0     C85444  10.673   9.295   8.784  0.4346 -0.7200  0.8861
  620MOL0     C85445  10.553   9.207   8.754  0.9575  0.8130  0.2168
  620MOL0     O85446  10.570   9.105   8.859 -0.0010 -0.6444 -0.2113
  620MOL0     C85447  10.541   8.974   8.834 -0.3360  0.4255  0.3021
  620MOL0     C85448  10.493   8.923   8.713  0.1655 -0.1529  0.0814
  620MOL0     C85449  10.465   8.790   8.686 -0.6785  0.4958  0.9588
  620MOL0     C85450  10.417   8.745   8.547 -0.1947 -0.0421 -0.4606
  620MOL0     C85451  10.489   8.698   8.790  0.7541 -0.4647 -0.1366
  620MOL0     C85452  10.477   8.540   8.778 -0.7220 -0.3841 -0.1418
  620MOL0     O85453  10.527   8.490   8.661 -0.4702  0.3319  0.2470
  620MOL0     C85454  10.518   8.360   8.627 -0.6628  0.2828 -0.6069
  620MOL0     C85455  10.404   8.298   8.577  0.5388  0.2445 -0.0280
  620MOL0     C85456  10.399   8.158   8.543  0.1082  1.2302 -0.3716
  620MOL0     C85457  10.513   8.078   8.558 -0.3360  0.5462 -0.1974
  620MOL0     O85458  10.524   7.944   8.524 -0.0238 -0.9429  0.0230
  620MOL0     C85459  10.417   7.894   8.440  0.4498 -0.3966  0.5103
  620MOL0     C85460  10.433   7.745   8.417  0.2877  0.1623  0.8140
  620MOL0     C85461  10.555   7.730   8.326 -0.7276  0.2516  0.0713
  620MOL0     C85462  10.572   7.582   8.280 -0.1919 -0.6341 -0.4995
  620MOL0     C85463  10.611   7.499   8.406  0.1173  0.4858 -0.8209
  620MOL0     C85464  10.659   7.365   8.355  0.0801 -0.3463 -0.8619
  620MOL0     C85465  10.540   7.271   8.313 -0.4542 -0.4600  0.0308
  620MOL0     C85466  10.555   7.127   8.360 -0.4286 -0.4051  0.6439
  620MOL0    Cl85467  10.719   7.054   8.322  0.0652  0.1489  0.1354
  620MOL0     C85468  10.631   8.147   8.606 -0.1203  0.0005  0.0883
  620MOL0     C85469  10.629   8.284   8.643 -0.8585  0.1283 -0.3350
  620MOL0     O85470  10.443   8.469   8.869  0.4566  0.3558 -0.3666
  620MOL0     C85471  10.532   8.743   8.915  0.6085 -0.1801  0.8466
  620MOL0     C85472  10.552   8.882   8.942  0.0964  0.8102  0.2757
  620MOL0     N85473  10.663   9.215   8.420  0.0590  0.3496  0.5787
  620MOL0     N85474  10.661   9.098   8.366 -0.6305 -0.1976  0.4307
  620MOL0     C85475  11.226   8.626   9.248  0.4290 -0.7175  0.4242
  620MOL0     C85476  11.227   8.624   9.387 -0.2321  0.8411  0.3891
  620MOL0     C85477  11.174   8.640   9.823  0.2705 -0.2261  0.0820
  620MOL0     C85478  11.054   8.694   9.871 -0.5598 -0.2197 -0.4791
  620MOL0     C85479  11.041   8.752   9.995  0.0840 -1.1690  0.7965
  620MOL0     C85480  11.145   8.747  10.088 -0.0239  0.0913 -1.4381
  620MOL0     O85481  11.132   8.792  10.221 -0.1314 -0.4746 -0.2835
  620MOL0     C85482  11.097   8.933  10.247  0.8494  0.4874 -0.0395
  620MOL0     C85483  11.118   8.964  10.396 -0.8511 -0.0187 -0.7416
  620MOL0     C85484  11.266   8.939  10.431 -0.6630  0.0649  0.3552
  620MOL0     C85485  11.281   8.900  10.577  0.1987 -0.1121 -0.6289
  620MOL0     C85486  11.295   9.012  10.673  0.2914  0.7357  0.2662
  620MOL0     C85487  11.283   9.096  10.751  0.2563  0.1612 -0.5708
  620MOL0     C85488  11.261   8.681  10.058 -0.2038 -0.1006  0.4142
  620MOL0     C85489  11.279   8.633   9.924 -0.3387  0.0258 -0.9725
  620MOL0     C85490  11.413   8.584   9.889 -0.0794 -0.1834 -0.1664
  620MOL0     H85491  10.896   8.572   9.418 -0.6239 -0.5863 -0.4982
  620MOL0     H85492  10.915   8.535   9.182  1.1825  0.6773 -0.9605
  620MOL0     H85493  11.296   8.618   8.968  0.1210 -0.7076 -2.5413
  620MOL0     H85494  11.161   8.740   8.966 -0.8592 -0.1672 -1.4075
  620MOL0     H85495  11.216   8.637   8.756  0.4966  3.1027  2.8610
  620MOL0     H85496  11.137   8.481   8.809 -0.0566  0.3007 -0.8512
  620MOL0     H85497  10.943   8.656   8.872 -2.9027  1.7022 -1.5063
  620MOL0     H85498  11.034   8.761   8.752 -0.6959 -0.2666 -1.0632
  620MOL0     H85499  11.036   8.548   8.606  0.7091 -0.8305  1.2235
  620MOL0     H85500  10.905   8.479   8.710 -0.3480 -0.8146  0.5334
  620MOL0     H85501  10.766   8.671   8.667  2.2674  1.8372  2.7188
  620MOL0     H85502  10.797   8.573   8.521  1.8398  0.0012 -1.0136
  620MOL0     H85503  10.898   8.860   8.583 -1.1363  0.3761  0.0799
  620MOL0     H85504  10.988   8.745   8.481  1.1051  1.0785  2.6543
  620MOL0     H85505  10.695   8.820   8.452  0.6638 -1.5563  2.0961
  620MOL0     H85506  10.784   8.717   8.346  0.2928  0.7250 -0.5457
  620MOL0     H85507  10.940   8.946   8.305  1.1971 -0.6593  2.6226
  620MOL0     H85508  10.779   8.920   8.230 -0.9030 -2.6220 -0.4961
  620MOL0     H85509  10.943   9.090   8.530  0.5861 -0.9907 -1.9807
  620MOL0     H85510  10.818   9.445   8.492  2.8644 -1.0175 -0.1571
  620MOL0     H85511  10.894   9.361   8.631  1.2634  1.0954 -0.7377
  620MOL0     H85512  10.720   9.484   8.709 -0.9187  1.0293  0.5105
  620MOL0     H85513  10.593   9.407   8.604  0.4159 -2.2774  0.0461
  620MOL0     H85514  10.760   9.229   8.777  0.5191 -0.4624 -1.8361
  620MOL0     H85515  10.655   9.347   8.878  0.3428 -1.1437  1.1037
  620MOL0     H85516  10.460   9.263   8.768  1.0424  0.7519  1.1585
  620MOL0     H85517  10.565   9.174   8.651 -0.1757  0.9002  0.0544
  620MOL0     H85518  10.477   8.988   8.627 -0.5849 -0.7196 -0.2156
  620MOL0     H85519  10.488   8.783   8.472 -0.2375  0.0131 -0.4731
  620MOL0     H85520  10.320   8.791   8.527 -0.6319  0.6835  2.7592
  620MOL0     H85521  10.397   8.639   8.534  0.6707 -0.0951 -1.5076
  620MOL0     H85522  10.306   8.343   8.568 -0.9734 -2.4374  1.8034
  620MOL0     H85523  10.313   8.113   8.495  0.4935 -0.7474  0.7054
  620MOL0     H85524  10.320   7.906   8.488  0.7597  4.4444  0.4507
  620MOL0     H85525  10.423   7.954   8.349  1.6078  0.4700  1.1299
  620MOL0     H85526  10.449   7.691   8.510 -1.2490 -1.6676  0.0813
  620MOL0     H85527  10.339   7.704   8.378  3.1054 -2.3074 -4.4413
  620MOL0     H85528  10.645   7.768   8.376 -1.0797  1.2563 -0.0414
  620MOL0     H85529  10.545   7.801   8.243  0.6329  0.6297  0.2037
  620MOL0     H85530  10.640   7.579   8.195  1.0171 -0.0080  0.4109
  620MOL0     H85531  10.474   7.545   8.248 -1.5164  3.3217 -1.6191
  620MOL0     H85532  10.682   7.553   8.468  1.1123  2.1001 -3.2205
  620MOL0     H85533  10.525   7.487   8.473  0.2798  0.3676 -0.6350
  620MOL0     H85534  10.700   7.307   8.439 -2.6744  1.0056  1.6128
  620MOL0     H85535  10.735   7.382   8.279  0.5369 -0.4906 -0.4438
  620MOL0     H85536  10.523   7.276   8.205 -0.9273  1.7808  0.1675
  620MOL0     H85537  10.446   7.313   8.349 -0.5178  0.4079 -1.0878
  620MOL0     H85538  10.475   7.062   8.326 -0.7491  0.7898 -0.9911
  620MOL0     H85539  10.553   7.120   8.469  0.5179 -3.0665  0.5660
  620MOL0     H85540  10.720   8.089   8.629 -1.4199 -2.0506  0.2388
  620MOL0     H85541  10.715   8.336   8.686 -0.7934 -0.2522 -0.0024
  620MOL0     H85542  10.542   8.660   8.985 -0.2281 -2.3865 -1.4575
  620MOL0     H85543  10.580   8.916   9.041  0.2890  0.5955  0.2969
  620MOL0     H85544  11.321   8.640   9.199  0.1229  1.6366  0.3936
  620MOL0     H85545  11.319   8.647   9.440  1.0126  0.6910 -1.6049
  620MOL0     H85546  10.972   8.708   9.801 -1.2189 -2.0862 -0.1509
  620MOL0     H85547  10.950   8.811  10.004  0.4009 -0.6443  0.5958
  620MOL0     H85548  11.154   9.002  10.184  5.2436 -0.5955  2.2577
  620MOL0     H85549  10.990   8.946  10.231  0.6111 -2.6158 -1.6645
  620MOL0     H85550  11.054   8.897  10.454 -1.3944 -0.0306 -1.3484
  620MOL0     H85551  11.093   9.069  10.414 -0.8074  0.0128 -0.8648
  620MOL0     H85552  11.298   8.852  10.372  0.0766  1.1673 -0.9125
  620MOL0     H85553  11.334   9.021  10.405  0.2203 -1.7348 -3.9371
  620MOL0     H85554  11.368   8.835  10.588  0.9652  0.7831 -1.1572
  620MOL0     H85555  11.196   8.840  10.610 -0.0310  0.1460 -0.7463
  620MOL0     H85556  11.277   9.165  10.833 -2.4063 -1.3686  0.6321
  620MOL0     H85557  11.347   8.665  10.123  0.0433 -5.6972 -0.7981
  620MOL0     H85558  11.477   8.586   9.978 -0.2362  1.2985 -0.0748
  620MOL0     H85559  11.402   8.477   9.869  1.0736 -0.0847 -1.4882
  620MOL0     H85560  11.470   8.630   9.807  2.8918  1.1549  2.4358
  621MOL0     O85561   1.323   5.452   4.215  0.2051 -0.3288  0.7306
  621MOL0     C85562   1.257   5.551   4.229  0.3684  1.0256  0.1817
  621MOL0     O85563   1.160   5.555   4.319  0.6971 -0.2594 -0.3271
  621MOL0     C85564   1.117   5.435   4.374  0.0068  0.2595  0.4680
  621MOL0     C85565   1.156   5.392   4.498 -0.1003  0.2902 -1.3433
  621MOL0     C85566   1.110   5.267   4.549  1.0121 -0.0180  0.2142
  621MOL0     C85567   0.999   5.202   4.490 -0.1190  0.4344 -0.2052
  621MOL0     O85568   0.946   5.086   4.555  0.2337 -0.9399  0.0672
  621MOL0     C85569   0.920   4.969   4.474 -0.9757  0.5298 -0.3673
  621MOL0     C85570   1.037   4.917   4.395  0.3835  0.2955 -0.2912
  621MOL0     C85571   1.158   4.889   4.477 -0.5305  0.0808 -0.5474
  621MOL0     C85572   1.256   4.806   4.397 -0.4192  0.1614  0.1427
  621MOL0     C85573   1.399   4.815   4.468 -0.1857 -0.1014 -0.7865
  621MOL0     C85574   1.505   4.742   4.392  0.7716 -0.2439 -0.3764
  621MOL0     C85575   1.633   4.744   4.471  0.4616  0.0631  0.9895
  621MOL0     C85576   1.698   4.611   4.469  0.9279 -0.3503  0.8808
  621MOL0     N85577   1.772   4.596   4.343 -0.1151 -0.2933 -0.0258
  621MOL0     C85578   1.884   4.662   4.293 -0.6126  0.1402  0.1859
  621MOL0     C85579   1.890   4.627   4.164 -0.2628  0.2550 -0.6285
  621MOL0     C85580   2.001   4.672   4.064  0.6257 -0.4265 -0.2142
  621MOL0     C85581   1.933   4.708   3.940  0.1454  0.5858  0.0801
  621MOL0     C85582   1.930   4.588   3.842 -0.8758  0.1141 -0.1418
  621MOL0     C85583   1.826   4.614   3.728 -0.1598 -0.1016 -0.1928
  621MOL0     O85584   1.871   4.701   3.624 -0.1734 -0.3366 -0.0853
  621MOL0     C85585   1.771   4.767   3.558  0.1257  0.1111 -0.2920
  621MOL0     C85586   1.664   4.707   3.497  0.2276 -1.1047 -0.3738
  621MOL0     C85587   1.548   4.780   3.457 -0.6077 -0.5773  0.1421
  621MOL0     C85588   1.419   4.710   3.407 -0.1056  0.7591  0.3481
  621MOL0     C85589   1.559   4.927   3.448 -0.7171  0.4435 -0.4030
  621MOL0     C85590   1.461   5.023   3.404  0.6003  0.3105  0.1046
  621MOL0     O85591   1.508   5.144   3.375 -0.2997  0.8668 -0.4547
  621MOL0     C85592   1.465   5.265   3.435 -0.2401  0.3359  0.6572
  621MOL0     C85593   1.504   5.384   3.369 -0.9371  0.7109  1.3194
  621MOL0     C85594   1.477   5.500   3.437 -0.0055  2.0138 -0.8111
  621MOL0     C85595   1.411   5.503   3.563  0.2596 -0.4870  0.1629
  621MOL0     O85596   1.389   5.629   3.621 -0.9465 -0.0838 -0.0473
  621MOL0     C85597   1.255   5.661   3.660  0.3720  0.1299  0.0250
  621MOL0     C85598   1.224   5.809   3.649 -0.5417 -0.0628 -0.4317
  621MOL0     C85599   1.080   5.842   3.687 -0.1053  0.2167  0.2929
  621MOL0     C85600   1.046   5.998   3.675 -0.0814  0.4385 -0.4155
  621MOL0     C85601   0.900   6.023   3.692  0.2151  0.3913  0.5221
  621MOL0     C85602   0.877   6.134   3.799  0.0246  0.0986  0.8533
  621MOL0     C85603   0.912   6.101   3.944 -0.5229  0.3950  0.3758
  621MOL0     C85604   0.825   6.139   4.060 -0.2377 -0.9316 -0.5822
  621MOL0    Cl85605   0.808   6.317   4.056 -0.4003  0.0348  0.2792
  621MOL0     C85606   1.360   5.390   3.615  1.4916  0.4694  0.4863
  621MOL0     C85607   1.394   5.269   3.560  0.1234 -0.2951  0.0321
  621MOL0     O85608   1.341   4.991   3.419 -0.0981  0.1209 -0.3650
  621MOL0     C85609   1.683   4.979   3.499 -0.5526  0.5478  0.3532
  621MOL0     C85610   1.782   4.902   3.553  0.5855 -0.9155 -0.0585
  621MOL0     N85611   1.767   4.561   4.126  0.2437  0.6602 -0.1598
  621MOL0     N85612   1.701   4.550   4.240  0.7875  0.3951 -0.1402
  621MOL0     C85613   0.956   5.241   4.361  0.3899  0.0375 -0.1595
  621MOL0     C85614   1.008   5.370   4.314 -0.1318  0.2024 -0.2255
  621MOL0     C85615   1.286   5.673   4.146  0.3701  0.4436  0.0947
  621MOL0     C85616   1.209   5.791   4.169  0.4274  0.3576 -0.3583
  621MOL0     C85617   1.230   5.905   4.097 -0.4670  0.3257  0.2600
  621MOL0     C85618   1.333   5.903   3.994  0.6732  0.6615  0.0011
  621MOL0     O85619   1.356   6.024   3.930  0.0793 -0.0159  0.1337
  621MOL0     C85620   1.489   6.042   3.868  0.1226 -1.3130 -0.0261
  621MOL0     C85621   1.502   6.187   3.808  1.3387 -0.3182 -0.6664
  621MOL0     C85622   1.449   6.192   3.665  0.1163 -0.5695 -0.5501
  621MOL0     C85623   1.564   6.157   3.569  0.7128 -0.3746 -0.1533
  621MOL0     C85624   1.590   6.018   3.554 -0.3238  0.3235  0.1693
  621MOL0     C85625   1.622   5.908   3.515  0.8128 -0.7834 -0.7238
  621MOL0     C85626   1.396   5.791   3.962  0.5752 -0.4970 -0.3142
  621MOL0     C85627   1.375   5.672   4.036  0.6885  0.2203 -0.0293
  621MOL0     C85628   1.444   5.547   3.990  0.0990  0.3510 -0.0401
  621MOL0     H85629   1.221   5.453   4.560  1.9863  0.4482 -3.5376
  621MOL0     H85630   1.154   5.242   4.645  0.2911  0.9292  0.8047
  621MOL0     H85631   0.831   4.974   4.411 -0.8809  0.6569 -0.4913
  621MOL0     H85632   0.909   4.885   4.543  0.7691  0.7172  0.1972
  621MOL0     H85633   1.000   4.819   4.364  1.9148 -0.5609  0.4871
  621MOL0     H85634   1.050   4.978   4.304 -2.0664 -0.2571 -1.0897
  621MOL0     H85635   1.202   4.983   4.513  1.0191  0.0201 -2.1498
  621MOL0     H85636   1.130   4.816   4.554  0.5401 -0.5706 -0.7467
  621MOL0     H85637   1.205   4.709   4.399 -1.5277  0.6409  4.5116
  621MOL0     H85638   1.267   4.841   4.294  2.8671  2.4405  1.1016
  621MOL0     H85639   1.398   4.789   4.574  1.4530 -0.0467 -0.7251
  621MOL0     H85640   1.433   4.919   4.466  3.1347 -0.9264 -5.4685
  621MOL0     H85641   1.458   4.643   4.385 -1.5554  0.6690  1.0562
  621MOL0     H85642   1.510   4.781   4.290  0.3183 -0.7334 -0.5880
  621MOL0     H85643   1.605   4.760   4.576 -0.0468  0.5165  0.7902
  621MOL0     H85644   1.698   4.822   4.431  2.5108 -1.4566  1.2023
  621MOL0     H85645   1.760   4.597   4.558 -2.2972 -0.3043  3.3333
  621MOL0     H85646   1.622   4.533   4.467  0.5275 -0.0452 -2.8996
  621MOL0     H85647   1.957   4.718   4.351  0.8879  1.2475 -2.5560
  621MOL0     H85648   2.075   4.593   4.056  1.8975  0.7262 -0.0829
  621MOL0     H85649   2.051   4.761   4.102  0.6424 -0.8061  0.6834
  621MOL0     H85650   1.833   4.750   3.958  0.0656  0.4963 -0.1423
  621MOL0     H85651   1.981   4.795   3.893 -1.0420 -0.1333 -2.7052
  621MOL0     H85652   2.028   4.572   3.796 -0.1394  4.5008 -0.5276
  621MOL0     H85653   1.904   4.505   3.908  0.4507 -0.1439  0.0898
  621MOL0     H85654   1.796   4.511   3.707 -0.9971  0.1061 -0.0415
  621MOL0     H85655   1.738   4.656   3.778  0.2978  0.9017 -0.1973
  621MOL0     H85656   1.659   4.601   3.518 -0.3853 -1.1590 -0.7516
  621MOL0     H85657   1.447   4.625   3.343 -1.9552  1.2251 -1.1489
  621MOL0     H85658   1.366   4.769   3.332  3.8658  1.3339 -2.3293
  621MOL0     H85659   1.360   4.679   3.494  1.6726 -1.8136  0.7756
  621MOL0     H85660   1.548   5.384   3.270  1.9746 -3.1326  2.3521
  621MOL0     H85661   1.517   5.588   3.388  1.8059  0.1202 -2.9881
  621MOL0     H85662   1.181   5.605   3.602 -0.1797 -1.2526  1.9419
  621MOL0     H85663   1.223   5.634   3.761 -1.1893  0.9649 -0.2124
  621MOL0     H85664   1.297   5.873   3.698  0.2392  0.5613 -2.2954
  621MOL0     H85665   1.223   5.833   3.542 -0.9863  1.3234 -0.1364
  621MOL0     H85666   1.067   5.813   3.791  0.0420 -0.8836  0.0134
  621MOL0     H85667   1.012   5.789   3.620  1.2077 -0.5233 -0.4950
  621MOL0     H85668   1.070   6.030   3.574 -0.8552 -1.2072 -1.1555
  621MOL0     H85669   1.108   6.047   3.751 -0.5990  0.3917  0.0429
  621MOL0     H85670   0.860   6.043   3.592  0.2640  0.0557  0.4328
  621MOL0     H85671   0.841   5.937   3.724  1.6340 -0.8485 -0.0843
  621MOL0     H85672   0.770   6.152   3.785  0.5512  1.5567 -1.9539
  621MOL0     H85673   0.921   6.228   3.765 -2.7060  1.2212  0.1344
  621MOL0     H85674   1.011   6.145   3.957  0.1994  0.3809 -3.5876
  621MOL0     H85675   0.930   5.994   3.954  1.2146  0.7103  0.8895
  621MOL0     H85676   0.868   6.109   4.156 -3.6655 -1.6242  0.8952
  621MOL0     H85677   0.730   6.084   4.060 -0.6929 -0.1654  0.1023
  621MOL0     H85678   1.286   5.404   3.694 -0.6152  3.3806 -1.7484
  621MOL0     H85679   1.365   5.180   3.616  1.4054  0.8093  2.5989
  621MOL0     H85680   1.720   5.080   3.508  0.4863  0.0819  1.7006
  621MOL0     H85681   1.866   4.951   3.602  0.0235  1.0237 -0.9424
  621MOL0     H85682   0.878   5.192   4.302 -0.4388  3.2573 -2.0154
  621MOL0     H85683   0.969   5.413   4.222  1.8537  0.7215 -0.8689
  621MOL0     H85684   1.133   5.800   4.246 -0.2984  0.5732 -1.0833
  621MOL0     H85685   1.171   5.995   4.109 -4.3373 -2.1779  2.0199
  621MOL0     H85686   1.562   6.027   3.948 -1.5320 -1.6844  1.4780
  621MOL0     H85687   1.520   5.968   3.794 -2.1139  0.7452 -3.2981
  621MOL0     H85688   1.607   6.218   3.808  0.9639  1.0258 -1.5893
  621MOL0     H85689   1.444   6.253   3.872  1.2276  0.0733 -1.1672
  621MOL0     H85690   1.368   6.120   3.653 -0.0905 -0.3847 -0.2835
  621MOL0     H85691   1.413   6.290   3.633  0.4498  0.3166  1.6212
  621MOL0     H85692   1.653   6.205   3.610  1.2779 -0.5871 -1.1131
  621MOL0     H85693   1.524   6.205   3.479  0.3158  3.2519  1.7685
  621MOL0     H85694   1.640   5.816   3.463  2.2214 -1.9755  1.7134
  621MOL0     H85695   1.464   5.788   3.877  0.9106  2.9345 -0.3133
  621MOL0     H85696   1.506   5.557   3.901  1.8263 -1.3156  0.9168
  621MOL0     H85697   1.516   5.519   4.067 -0.3143  1.3139  0.7216
  621MOL0     H85698   1.375   5.464   3.975  0.3791 -0.0784  0.9614
  622MOL0     O85699   1.732   2.639   5.541 -0.1549  0.1765  0.7446
  622MOL0     C85700   1.758   2.729   5.465 -0.2153  0.0014 -0.1917
  622MOL0     O85701   1.869   2.804   5.466  0.0103 -0.2347 -0.3661
  622MOL0     C85702   1.991   2.767   5.529  0.9125  0.0604  0.0418
  622MOL0     C85703   2.091   2.866   5.510  0.0697 -0.4300 -0.4264
  622MOL0     C85704   2.217   2.847   5.566  0.5386  0.3451 -0.8781
  622MOL0     C85705   2.241   2.726   5.636 -0.4482  0.1093  1.3248
  622MOL0     O85706   2.369   2.724   5.678  0.0888  0.3286 -0.0315
  622MOL0     C85707   2.411   2.612   5.755  0.1647 -0.3115  0.6487
  622MOL0     C85708   2.379   2.646   5.899  0.1274 -0.3958  0.1461
  622MOL0     C85709   2.398   2.510   5.981  0.6017 -0.6691  0.3446
  622MOL0     C85710   2.340   2.550   6.118  0.2106 -0.0919 -0.0501
  622MOL0     C85711   2.363   2.446   6.239 -0.0678  0.3853 -0.1221
  622MOL0     C85712   2.279   2.319   6.215  0.0771 -0.8898 -0.0230
  622MOL0     C85713   2.133   2.341   6.179  0.1510  0.8397  0.0358
  622MOL0     C85714   2.056   2.209   6.176 -0.0401 -0.5103 -0.0304
  622MOL0     N85715   2.091   2.119   6.282 -0.4967 -0.6477  0.1717
  622MOL0     C85716   2.048   2.150   6.409 -0.6223  0.2344  0.4296
  622MOL0     C85717   2.060   2.036   6.481  0.0988  0.1710  0.0734
  622MOL0     C85718   2.023   2.020   6.626 -0.0440 -1.0628  0.2268
  622MOL0     C85719   2.141   1.987   6.720 -0.3028  0.1292  0.2881
  622MOL0     C85720   2.099   1.983   6.866  0.1964 -0.2574 -0.7843
  622MOL0     C85721   2.216   1.984   6.963  0.9136 -0.3182 -0.1072
  622MOL0     O85722   2.324   2.080   6.926  0.2708 -0.3421 -0.4370
  622MOL0     C85723   2.435   2.071   7.005  0.5700 -0.7359 -0.6094
  622MOL0     C85724   2.551   2.003   6.985 -1.0149 -1.3050  1.0967
  622MOL0     C85725   2.646   1.988   7.086 -0.3449 -0.4811 -0.1843
  622MOL0     C85726   2.765   1.905   7.042  0.2493 -0.8702 -0.5792
  622MOL0     C85727   2.631   2.050   7.212  0.1591  0.5556  0.6617
  622MOL0     C85728   2.740   2.043   7.320  0.6484 -0.1466  0.3371
  622MOL0     O85729   2.715   2.098   7.436  0.3748  0.0721 -0.4815
  622MOL0     C85730   2.807   2.103   7.538 -0.4255  0.2474  0.3274
  622MOL0     C85731   2.936   2.157   7.514  0.2699 -0.5398  0.6020
  622MOL0     C85732   3.027   2.166   7.619 -0.4638 -0.7858  0.2291
  622MOL0     C85733   2.987   2.140   7.748 -0.5701  0.9200 -0.4812
  622MOL0     O85734   3.076   2.150   7.856  0.1650 -0.0291  0.1757
  622MOL0     C85735   3.112   2.281   7.889  1.0006 -0.4709  0.7415
  622MOL0     C85736   3.180   2.289   8.023 -0.5221  0.0454  0.3524
  622MOL0     C85737   3.294   2.185   8.026 -0.8873  0.2712  0.3932
  622MOL0     C85738   3.272   2.071   8.118  0.2294  0.1655  0.0547
  622MOL0     C85739   3.387   1.976   8.111 -0.6086  0.1361 -0.5529
  622MOL0     C85740   3.367   1.841   8.191 -0.2607 -0.0195  0.2336
  622MOL0     C85741   3.495   1.770   8.209  0.4413 -0.1789  0.1977
  622MOL0     C85742   3.567   1.803   8.340 -0.6904  0.0857 -0.3126
  622MOL0    Cl85743   3.469   1.720   8.460 -0.7702  0.3473  0.4144
  622MOL0     C85744   2.859   2.083   7.775 -0.6126  0.3204 -1.0160
  622MOL0     C85745   2.770   2.057   7.664 -0.2377 -0.2015 -0.0569
  622MOL0     O85746   2.854   2.006   7.292 -0.3487  0.1217  0.1186
  622MOL0     C85747   2.520   2.136   7.222  0.7581  0.1547 -0.5934
  622MOL0     C85748   2.425   2.142   7.125  0.4900 -1.2592 -0.3244
  622MOL0     N85749   2.125   1.943   6.394 -0.5777  1.2758 -0.8164
  622MOL0     N85750   2.141   1.989   6.276 -0.5613  0.2748 -0.2149
  622MOL0     C85751   2.148   2.634   5.662  0.8695 -0.3623 -0.0029
  622MOL0     C85752   2.022   2.655   5.606  0.2615 -0.1988  0.5525
  622MOL0     C85753   1.644   2.783   5.387  0.0454  0.2580 -0.4968
  622MOL0     C85754   1.664   2.900   5.315  0.1877 -0.0195 -0.0462
  622MOL0     C85755   1.564   2.967   5.259  0.2084 -1.0443  0.9711
  622MOL0     C85756   1.436   2.919   5.254  1.0977 -0.7771  0.4059
  622MOL0     O85757   1.357   3.009   5.185  0.4052  0.1675  0.3531
  622MOL0     C85758   1.238   2.952   5.121 -0.4963 -0.9011 -0.0819
  622MOL0     C85759   1.102   2.968   5.198  0.2853  0.2720 -0.0832
  622MOL0     C85760   1.063   3.113   5.224  0.2814  0.4064  0.5655
  622MOL0     C85761   1.062   3.199   5.096  0.2279  0.0906  0.0362
  622MOL0     C85762   0.994   3.322   5.140  0.1860  0.3806 -0.5869
  622MOL0     C85763   0.935   3.422   5.178  0.1745  0.8072  0.0716
  622MOL0     C85764   1.414   2.794   5.310 -1.4031  1.0549  0.9033
  622MOL0     C85765   1.516   2.717   5.365 -0.8336  0.3950 -0.5699
  622MOL0     C85766   1.483   2.581   5.427  0.2748  0.3566  0.6402
  622MOL0     H85767   2.086   2.953   5.445  1.7204  0.0993  0.0828
  622MOL0     H85768   2.293   2.923   5.557  0.2193  1.0398  1.5481
  622MOL0     H85769   2.520   2.603   5.745 -0.0065 -2.5540  0.1519
  622MOL0     H85770   2.362   2.519   5.724 -0.7270 -0.0122  1.1268
  622MOL0     H85771   2.451   2.721   5.933 -3.4190  3.2915  0.3440
  622MOL0     H85772   2.276   2.683   5.911 -0.1675 -1.1947  0.1676
  622MOL0     H85773   2.343   2.422   5.947  0.1821 -0.0974 -0.4899
  622MOL0     H85774   2.499   2.472   5.997  1.4417  1.1194 -0.4267
  622MOL0     H85775   2.387   2.643   6.154  2.3739 -1.2193  0.1930
  622MOL0     H85776   2.233   2.572   6.111  0.5195  1.4469 -0.3987
  622MOL0     H85777   2.338   2.492   6.335 -0.4480 -1.3293  0.6373
  622MOL0     H85778   2.469   2.419   6.237 -0.1913 -0.0796 -0.9206
  622MOL0     H85779   2.326   2.269   6.129  0.1171 -2.1224  0.7062
  622MOL0     H85780   2.293   2.273   6.313  1.5148  2.1676  1.3738
  622MOL0     H85781   2.111   2.386   6.082  2.6301  1.0384 -0.4860
  622MOL0     H85782   2.076   2.401   6.251 -2.5367 -3.0768  1.5603
  622MOL0     H85783   1.955   2.252   6.177  2.0399  5.0458  0.2763
  622MOL0     H85784   2.102   2.162   6.088  1.6496 -0.4157  0.7726
  622MOL0     H85785   1.999   2.241   6.442  0.5961  1.2382 -0.4333
  622MOL0     H85786   1.967   1.928   6.609 -1.4716  0.0997 -1.8073
  622MOL0     H85787   1.959   2.099   6.664 -0.3982 -1.4897  0.5209
  622MOL0     H85788   2.180   1.889   6.689  2.6380  2.1389 -3.2329
  622MOL0     H85789   2.223   2.055   6.693 -2.1928  0.3925 -6.8774
  622MOL0     H85790   2.034   2.067   6.893  1.3188 -0.8093  4.6947
  622MOL0     H85791   2.041   1.892   6.885 -2.1182  1.5331  1.3240
  622MOL0     H85792   2.180   1.995   7.066  2.7645 -1.7072  0.7401
  622MOL0     H85793   2.267   1.888   6.962  0.8576 -0.3677  1.1262
  622MOL0     H85794   2.562   1.949   6.891  3.0903  0.6453  0.2501
  622MOL0     H85795   2.780   1.823   7.113 -2.2852 -0.6357  0.3388
  622MOL0     H85796   2.859   1.960   7.038 -1.4075  2.4098  0.9494
  622MOL0     H85797   2.750   1.860   6.943  3.4497  1.9218 -2.5357
  622MOL0     H85798   2.955   2.185   7.411 -2.2293  6.1535  1.4211
  622MOL0     H85799   3.124   2.203   7.589 -2.6070  2.0598 -4.4125
  622MOL0     H85800   3.173   2.323   7.809 -0.3639 -0.6216 -0.3970
  622MOL0     H85801   3.021   2.339   7.905  2.7265  2.5492  0.2690
  622MOL0     H85802   3.222   2.390   8.031 -4.1111  1.6035  1.2965
  622MOL0     H85803   3.113   2.273   8.107 -1.9694  1.8779 -0.3878
  622MOL0     H85804   3.386   2.234   8.060 -0.4717  0.0841 -0.4349
  622MOL0     H85805   3.321   2.153   7.925  1.0929  2.5148  0.1058
  622MOL0     H85806   3.174   2.026   8.102  0.4643 -0.6265  0.7548
  622MOL0     H85807   3.253   2.090   8.224 -1.5379 -1.3924  0.0657
  622MOL0     H85808   3.416   1.963   8.006  2.7817  1.2294  0.1248
  622MOL0     H85809   3.474   2.026   8.156  1.3159 -1.3844 -2.3665
  622MOL0     H85810   3.308   1.767   8.136  0.5578 -1.1618  0.8491
  622MOL0     H85811   3.319   1.861   8.287  1.1670  1.3643  0.7045
  622MOL0     H85812   3.565   1.783   8.126  0.7671 -2.2213  0.1025
  622MOL0     H85813   3.457   1.668   8.202  0.2409 -0.0029 -2.0695
  622MOL0     H85814   3.563   1.911   8.356 -1.1984 -0.2490  2.1454
  622MOL0     H85815   3.669   1.765   8.336 -0.6053  0.2855  0.0150
  622MOL0     H85816   2.826   2.064   7.877  1.8695  0.9534  0.0002
  622MOL0     H85817   2.671   2.013   7.669 -0.5427 -0.0833 -3.2483
  622MOL0     H85818   2.519   2.206   7.304  0.0155 -2.4326  1.7719
  622MOL0     H85819   2.337   2.202   7.143  0.5376 -1.2132 -0.2426
  622MOL0     H85820   2.155   2.533   5.700  2.3201  0.1391  1.1224
  622MOL0     H85821   1.942   2.587   5.632  0.2907 -0.5078 -0.1477
  622MOL0     H85822   1.766   2.934   5.298  0.3735 -0.4001  0.2847
  622MOL0     H85823   1.580   3.052   5.193 -1.1895 -2.4354 -1.2612
  622MOL0     H85824   1.227   3.009   5.029  1.2347 -2.8234 -1.5727
  622MOL0     H85825   1.256   2.848   5.091 -1.5308 -2.6577  4.5078
  622MOL0     H85826   1.111   2.913   5.293 -3.5340  0.3302  0.4616
  622MOL0     H85827   1.029   2.915   5.135  1.3880 -1.9171  0.3590
  622MOL0     H85828   0.962   3.107   5.265  0.4058 -2.9904  0.6881
  622MOL0     H85829   1.110   3.161   5.309 -1.5632  1.7587  0.8821
  622MOL0     H85830   1.009   3.148   5.016  0.6621  0.6684 -0.6298
  622MOL0     H85831   1.166   3.216   5.066  0.6725 -1.0362  0.8907
  622MOL0     H85832   0.920   3.517   5.227 -0.1166 -0.1893  2.0395
  622MOL0     H85833   1.314   2.754   5.296 -0.6777 -1.1287  1.6864
  622MOL0     H85834   1.483   2.591   5.536 -1.8049  1.8484  0.5439
  622MOL0     H85835   1.379   2.554   5.407 -0.2746  0.4143  3.1811
  622MOL0     H85836   1.549   2.499   5.394 -0.5120 -1.2819  2.8563
  623MOL0     O85837   7.689   2.293   6.283 -0.3278  1.0316  0.2213
  623MOL0     C85838   7.715   2.268   6.402  0.4872  0.1673 -0.2675
  623MOL0     O85839   7.766   2.344   6.494 -0.2776  1.0074 -0.3064
  623MOL0     C85840   7.785   2.481   6.487  0.7912  0.4678  0.2536
  623MOL0     C85841   7.845   2.542   6.603 -0.3107  0.5101  0.2774
  623MOL0     C85842   7.872   2.681   6.610 -0.0123  0.0334 -0.2054
  623MOL0     C85843   7.838   2.761   6.503 -0.4317  0.4163 -0.7493
  623MOL0     O85844   7.848   2.897   6.513 -0.3735  1.0524  0.0206
  623MOL0     C85845   7.971   2.948   6.563 -0.5687  0.6052 -0.1526
  623MOL0     C85846   8.084   2.905   6.465  0.2028  0.8783  0.7444
  623MOL0     C85847   8.211   2.844   6.536  0.2773 -0.3910  0.1783
  623MOL0     C85848   8.180   2.709   6.605 -0.0956  0.1740  0.0313
  623MOL0     C85849   8.325   2.643   6.641 -0.0657 -1.0881  0.0779
  623MOL0     C85850   8.382   2.562   6.513  0.2304 -0.5939  0.9151
  623MOL0     C85851   8.529   2.527   6.509  1.1937 -0.6098  0.2178
  623MOL0     C85852   8.563   2.448   6.385  0.5635  0.6181  0.0999
  623MOL0     N85853   8.705   2.408   6.372  0.2359 -0.0231  0.3275
  623MOL0     C85854   8.802   2.393   6.476  0.3280 -0.1429 -0.2160
  623MOL0     C85855   8.908   2.342   6.415  0.3670  0.3130 -1.1113
  623MOL0     C85856   9.032   2.288   6.496  0.0875  0.6397  0.2609
  623MOL0     C85857   8.996   2.190   6.599  0.5652 -0.8778 -0.3301
  623MOL0     C85858   9.120   2.116   6.634  0.8103  0.3408  0.2152
  623MOL0     C85859   9.219   2.196   6.732 -0.2509 -0.0045  0.0587
  623MOL0     O85860   9.283   2.306   6.667 -0.9077 -0.0980 -0.5353
  623MOL0     C85861   9.392   2.282   6.587 -0.2919 -0.2115  0.0899
  623MOL0     C85862   9.446   2.400   6.534 -0.2312 -0.4305  0.2318
  623MOL0     C85863   9.562   2.405   6.453  0.3890 -0.0677 -0.6860
  623MOL0     C85864   9.610   2.543   6.424 -0.2408 -0.8910  0.1124
  623MOL0     C85865   9.615   2.282   6.403 -0.4280  0.3083  0.0446
  623MOL0     C85866   9.736   2.277   6.306  0.8045 -0.3658  0.0314
  623MOL0     O85867   9.794   2.158   6.266  0.2420  0.9133 -0.1285
  623MOL0     C85868   9.905   2.152   6.176  1.0252 -0.0575 -1.1064
  623MOL0     C85869   9.996   2.248   6.173 -1.3898 -0.8156  0.6701
  623MOL0     C85870  10.109   2.236   6.095  0.6401  0.7225  0.0425
  623MOL0     C85871  10.125   2.118   6.009 -0.3666  0.9856 -0.1048
  623MOL0     O85872  10.237   2.116   5.924 -0.2325  0.8682 -0.3657
  623MOL0     C85873  10.249   1.993   5.840 -0.0930  0.0698 -0.3754
  623MOL0     C85874  10.345   2.017   5.722 -0.4043  0.9240 -1.2040
  623MOL0     C85875  10.477   2.069   5.755 -0.0984  0.0965 -0.0732
  623MOL0     C85876  10.561   1.979   5.843  0.1217  0.5120 -0.1564
  623MOL0     C85877  10.706   2.030   5.865  0.8734 -0.8666 -1.2224
  623MOL0     C85878  10.793   1.951   5.956 -0.3846  0.2324  0.7348
  623MOL0     C85879  10.853   1.836   5.876  0.2447  0.3127  0.2198
  623MOL0     C85880  10.982   1.780   5.934  0.3255 -0.7434 -0.9861
  623MOL0    Cl85881  10.972   1.709   6.108  0.0257  0.5898  0.7480
  623MOL0     C85882  10.019   2.021   6.015  0.1064  1.1560 -0.8855
  623MOL0     C85883   9.911   2.034   6.099 -0.2353  0.7892  0.3878
  623MOL0     O85884   9.767   2.390   6.267  0.1574 -0.4599 -0.5659
  623MOL0     C85885   9.550   2.166   6.443 -0.2488  1.5897 -0.2889
  623MOL0     C85886   9.448   2.164   6.536  0.3002  0.4697  0.3227
  623MOL0     N85887   8.891   2.346   6.279 -0.0423 -0.4390 -0.3179
  623MOL0     N85888   8.773   2.391   6.251 -0.8690  0.5004  0.0040
  623MOL0     C85889   7.762   2.708   6.405  0.1706  0.5941  0.6629
  623MOL0     C85890   7.754   2.574   6.383  0.0348 -0.1375  0.9081
  623MOL0     C85891   7.656   2.141   6.450 -0.0998 -0.7313 -0.1520
  623MOL0     C85892   7.526   2.096   6.409 -0.9610 -0.3421  0.0024
  623MOL0     C85893   7.466   1.984   6.452  0.0598 -0.7577  0.8803
  623MOL0     C85894   7.519   1.914   6.552  0.8318  0.2534 -0.0415
  623MOL0     O85895   7.452   1.795   6.586 -0.6378  0.8020  0.6423
  623MOL0     C85896   7.503   1.720   6.700  0.2270  0.0339 -0.5702
  623MOL0     C85897   7.423   1.589   6.710 -0.0386  0.0535 -0.5385
  623MOL0     C85898   7.463   1.506   6.830  0.0272 -1.2182  0.0655
  623MOL0     C85899   7.367   1.390   6.860  0.4197 -1.2429  0.2191
  623MOL0     C85900   7.239   1.415   6.918  0.6708 -1.0376  0.3837
  623MOL0     C85901   7.142   1.464   6.973  0.3672  0.1600  0.6243
  623MOL0     C85902   7.641   1.954   6.611 -0.1925  0.1239  0.1651
  623MOL0     C85903   7.704   2.074   6.565  0.7312  0.1970 -0.7537
  623MOL0     C85904   7.844   2.090   6.623  1.0598 -1.0975  0.4522
  623MOL0     H85905   7.888   2.472   6.674 -0.7104  0.1370  0.1569
  623MOL0     H85906   7.893   2.715   6.711  3.5473 -1.2310 -0.3728
  623MOL0     H85907   7.981   2.898   6.660  0.1002 -0.4282 -0.7309
  623MOL0     H85908   7.957   3.056   6.557 -2.1722  0.4519 -6.4343
  623MOL0     H85909   8.047   2.827   6.398  1.0170 -0.3399  1.6768
  623MOL0     H85910   8.105   2.984   6.392 -1.1344 -1.8629 -2.9070
  623MOL0     H85911   8.281   2.821   6.455 -0.1293 -0.8237 -0.0506
  623MOL0     H85912   8.261   2.915   6.603  0.6357  1.8920 -2.3278
  623MOL0     H85913   8.114   2.707   6.692 -0.5893 -1.2908 -0.3434
  623MOL0     H85914   8.122   2.648   6.536 -1.5418 -0.1678  1.4949
  623MOL0     H85915   8.316   2.572   6.724  2.5859 -1.8792 -0.2239
  623MOL0     H85916   8.383   2.729   6.676  0.6222 -0.9634 -1.3065
  623MOL0     H85917   8.318   2.474   6.494  3.2158 -2.9478  1.0260
  623MOL0     H85918   8.375   2.624   6.423  1.9761 -0.6930  0.6865
  623MOL0     H85919   8.555   2.471   6.599 -2.3113  1.2232  2.6167
  623MOL0     H85920   8.584   2.622   6.508 -0.5384  0.4375 -0.8331
  623MOL0     H85921   8.508   2.355   6.367  0.4412  0.8399 -0.7321
  623MOL0     H85922   8.552   2.513   6.297 -2.0369 -0.5444 -0.5450
  623MOL0     H85923   8.783   2.410   6.582 -0.7229  1.4725 -0.6189
  623MOL0     H85924   9.078   2.375   6.543 -1.9307  1.8720  0.1023
  623MOL0     H85925   9.101   2.245   6.422  0.9067 -1.9138  2.3674
  623MOL0     H85926   8.946   2.242   6.682 -0.2439  0.4762 -1.6252
  623MOL0     H85927   8.923   2.120   6.557  0.5811 -0.1683 -1.5702
  623MOL0     H85928   9.087   2.027   6.689 -2.3307  1.0317 -0.3545
  623MOL0     H85929   9.163   2.095   6.537  0.5091  3.1535 -0.6325
  623MOL0     H85930   9.160   2.225   6.819  1.1666  2.0638  0.3947
  623MOL0     H85931   9.296   2.126   6.767 -0.1596  1.3393  2.7741
  623MOL0     H85932   9.402   2.493   6.567  2.7430  1.8301 -1.7200
  623MOL0     H85933   9.595   2.560   6.318  0.4135  1.3559  0.3317
  623MOL0     H85934   9.718   2.551   6.443 -0.2613  1.4547 -0.5095
  623MOL0     H85935   9.560   2.619   6.485 -0.1355 -1.0441  0.3970
  623MOL0     H85936   9.996   2.344   6.223 -0.9208 -1.1875  1.4032
  623MOL0     H85937  10.189   2.310   6.101 -0.3508  1.7265  1.7218
  623MOL0     H85938  10.291   1.914   5.903  1.8717  1.6850  0.4535
  623MOL0     H85939  10.154   1.949   5.808 -0.0800  1.2602 -2.1762
  623MOL0     H85940  10.356   1.921   5.671  1.1529  1.2755 -1.5696
  623MOL0     H85941  10.298   2.087   5.652 -0.6998 -2.1477 -4.3568
  623MOL0     H85942  10.467   2.165   5.806 -0.9964 -0.7596  1.4417
  623MOL0     H85943  10.531   2.079   5.661 -2.4030 -2.5387 -1.8397
  623MOL0     H85944  10.566   1.878   5.802 -2.4536 -0.2365  1.1890
  623MOL0     H85945  10.519   1.972   5.944 -1.5667 -1.4420 -0.9364
  623MOL0     H85946  10.754   2.029   5.767  2.4235 -3.2673 -0.5126
  623MOL0     H85947  10.705   2.133   5.902 -1.4176 -0.1701 -2.9617
  623MOL0     H85948  10.743   1.913   6.046  2.9122 -5.2048  0.6871
  623MOL0     H85949  10.875   2.014   5.993 -1.1910  1.9493 -0.2889
  623MOL0     H85950  10.876   1.871   5.775  0.2418 -1.4054 -0.4193
  623MOL0     H85951  10.782   1.753   5.874  2.1667 -1.4296  0.6479
  623MOL0     H85952  11.052   1.864   5.926 -0.3406 -0.1469 -0.7774
  623MOL0     H85953  11.011   1.704   5.861  1.8304  0.5793 -1.8373
  623MOL0     H85954  10.012   1.937   5.947  0.6631 -0.8865  1.4851
  623MOL0     H85955   9.824   1.969   6.112  1.0579 -1.9633 -3.1038
  623MOL0     H85956   9.586   2.068   6.411  1.7949  0.8775  3.6058
  623MOL0     H85957   9.400   2.068   6.551  1.2740 -0.0104  0.4568
  623MOL0     H85958   7.724   2.776   6.330 -0.9568  0.0868  0.7600
  623MOL0     H85959   7.725   2.536   6.286  3.1694 -3.7257  1.1404
  623MOL0     H85960   7.470   2.160   6.342 -2.9096 -1.1269  0.7884
  623MOL0     H85961   7.367   1.966   6.410 -0.6659 -1.9829  2.9944
  623MOL0     H85962   7.603   1.680   6.679  0.3604  0.5597 -0.9375
  623MOL0     H85963   7.485   1.777   6.791 -2.9922  2.6645 -2.6106
  623MOL0     H85964   7.422   1.534   6.616  3.9174 -0.1604 -0.6177
  623MOL0     H85965   7.323   1.629   6.730  0.8108  0.9902  2.4438
  623MOL0     H85966   7.560   1.463   6.804 -0.1546 -3.0529  2.1257
  623MOL0     H85967   7.477   1.564   6.922  0.8477  1.3221 -1.5591
  623MOL0     H85968   7.417   1.321   6.928 -2.5949 -1.8834  1.9550
  623MOL0     H85969   7.357   1.329   6.770  1.8499  0.1602 -0.9482
  623MOL0     H85970   7.049   1.503   7.009  0.3657  2.0064 -1.2003
  623MOL0     H85971   7.685   1.906   6.698  1.8809  3.3349  1.0475
  623MOL0     H85972   7.860   2.185   6.676 -1.5400 -0.2292 -0.1494
  623MOL0     H85973   7.876   2.020   6.701 -0.2597  1.3087  3.3666
  623MOL0     H85974   7.923   2.097   6.548 -0.5188  4.1087 -1.1696
  624MOL0     O85975   5.633   5.329   9.963  0.6757  0.6850 -0.6806
  624MOL0     C85976   5.526   5.382   9.987 -0.1384  0.9985 -0.6569
  624MOL0     O85977   5.467   5.383  10.111 -0.1226  0.1846 -0.0937
  624MOL0     C85978   5.513   5.309  10.216 -0.9482  0.7777  0.6088
  624MOL0     C85979   5.552   5.362  10.341  0.8191 -0.2032 -0.3576
  624MOL0     C85980   5.587   5.266  10.440 -1.8973  0.8761 -0.1105
  624MOL0     C85981   5.597   5.125  10.412 -0.3835 -0.4351 -0.6537
  624MOL0     O85982   5.646   5.029  10.493 -0.2226  0.1953 -0.0598
  624MOL0     C85983   5.746   5.067  10.582 -0.2090  0.0812 -0.9999
  624MOL0     C85984   5.835   4.954  10.635  0.8263 -0.3668  0.9722
  624MOL0     C85985   5.970   5.010  10.684 -0.7982 -0.3257 -0.8280
  624MOL0     C85986   6.062   4.898  10.749  0.7226  0.3653 -0.0151
  624MOL0     C85987   6.193   4.946  10.805  0.3561 -0.2207 -1.0211
  624MOL0     C85988   6.288   4.992  10.698 -0.5955  0.1743 -0.4513
  624MOL0     C85989   6.419   5.012  10.763 -0.0884 -0.2856  0.2995
  624MOL0     C85990   6.518   5.093  10.684 -0.2190 -0.6309 -0.1271
  624MOL0     N85991   6.601   5.011  10.594  0.5350  0.1301 -0.8049
  624MOL0     C85992   6.587   4.997  10.459  0.0998  1.2892  0.6068
  624MOL0     C85993   6.687   4.912  10.419 -0.7552 -0.0195 -0.3984
  624MOL0     C85994   6.723   4.869  10.284  0.5714 -0.5858 -0.0571
  624MOL0     C85995   6.716   4.720  10.280 -0.3155 -0.2118  0.0751
  624MOL0     C85996   6.724   4.670  10.138  1.1206 -0.6649  0.1458
  624MOL0     C85997   6.746   4.521  10.121  0.2547 -0.1983 -0.8077
  624MOL0     O85998   6.631   4.445  10.154  0.2620 -0.6553  0.0499
  624MOL0     C85999   6.636   4.312  10.163  0.6547 -0.4011 -0.3027
  624MOL0     C86000   6.742   4.231  10.121 -0.7401  0.3747  0.3155
  624MOL0     C86001   6.731   4.088  10.135  0.1621  0.1241  0.4165
  624MOL0     C86002   6.845   4.013  10.074 -0.6662  0.4846 -0.3525
  624MOL0     C86003   6.618   4.025  10.208  0.0657  0.0574 -0.1532
  624MOL0     C86004   6.607   3.881  10.252 -0.4178 -0.2568  0.1113
  624MOL0     O86005   6.532   3.850  10.359  0.3127  1.1047 -0.0457
  624MOL0     C86006   6.500   3.715  10.400  0.4129 -0.4991  0.2317
  624MOL0     C86007   6.610   3.626  10.414  0.0615  0.0225  0.1858
  624MOL0     C86008   6.582   3.495  10.460 -0.4022 -0.3168 -0.4796
  624MOL0     C86009   6.451   3.456  10.497 -0.2599 -0.7012 -0.8470
  624MOL0     O86010   6.436   3.330  10.544 -0.0738  0.8801 -1.1608
  624MOL0     C86011   6.320   3.295  10.619 -0.3153 -0.0024  0.7897
  624MOL0     C86012   6.275   3.156  10.586 -0.5480 -0.1810  0.4028
  624MOL0     C86013   6.132   3.129  10.633  0.1796 -0.3111 -0.4351
  624MOL0     C86014   6.086   2.991  10.588 -1.0736 -0.1252 -0.8593
  624MOL0     C86015   5.936   2.972  10.597 -1.5026  0.5110 -0.4796
  624MOL0     C86016   5.875   3.016  10.462  0.2759 -0.0909 -1.2084
  624MOL0     C86017   5.726   3.025  10.477 -0.2211  0.1613 -0.4191
  624MOL0     C86018   5.650   2.904  10.543  0.0553  0.2221  0.0880
  624MOL0    Cl86019   5.719   2.745  10.497  0.0588 -0.1205  0.0228
  624MOL0     C86020   6.351   3.551  10.482 -0.5177  0.1700  0.1131
  624MOL0     C86021   6.374   3.681  10.441 -0.1840  0.9245 -0.2853
  624MOL0     O86022   6.675   3.802  10.190  0.5700 -0.4310 -0.0026
  624MOL0     C86023   6.517   4.119  10.249  0.0669 -0.3229 -0.2864
  624MOL0     C86024   6.515   4.248  10.210  0.1393 -0.7521  0.5210
  624MOL0     N86025   6.758   4.883  10.535 -0.0408  0.3824 -0.3665
  624MOL0     N86026   6.700   4.934  10.640 -0.8002 -0.3656 -0.4940
  624MOL0     C86027   5.538   5.076  10.300 -0.6989  0.0725  0.7969
  624MOL0     C86028   5.498   5.173  10.196 -1.0531  0.7913 -0.3811
  624MOL0     C86029   5.441   5.433   9.877 -0.2565  0.0922 -0.1491
  624MOL0     C86030   5.308   5.474   9.916 -0.4047 -0.4576  0.7065
  624MOL0     C86031   5.219   5.533   9.827 -0.1277  0.1480  0.9554
  624MOL0     C86032   5.272   5.580   9.701  0.1554  0.9796 -0.4624
  624MOL0     O86033   5.210   5.658   9.605 -0.1616 -0.1157 -1.2017
  624MOL0     C86034   5.075   5.701   9.639  0.0116 -1.6297 -0.6677
  624MOL0     C86035   5.010   5.753   9.508 -0.3467 -0.3405  0.0752
  624MOL0     C86036   4.871   5.791   9.541  0.8143  0.7780  0.5216
  624MOL0     C86037   4.794   5.864   9.421  0.3290 -0.5350 -0.5814
  624MOL0     C86038   4.731   5.785   9.320  0.5808  1.1235  0.1082
  624MOL0     C86039   4.690   5.717   9.228  1.2277  0.2051 -0.0740
  624MOL0     C86040   5.402   5.534   9.666  0.5486  0.7022  0.4551
  624MOL0     C86041   5.486   5.450   9.746  0.9663 -1.1162 -0.6040
  624MOL0     C86042   5.619   5.425   9.683  0.3305  0.7058  0.4534
  624MOL0     H86043   5.560   5.465  10.372  0.4720 -0.8697  2.1722
  624MOL0     H86044   5.618   5.304  10.537  0.7028 -2.0638  0.3726
  624MOL0     H86045   5.698   5.122  10.664 -1.1851  0.8220 -2.0323
  624MOL0     H86046   5.804   5.142  10.527  0.0495  2.7761  2.5750
  624MOL0     H86047   5.783   4.909  10.721  0.8925  1.0485  1.7917
  624MOL0     H86048   5.853   4.884  10.554  5.5733  2.9251 -1.2509
  624MOL0     H86049   6.031   5.064  10.612  0.6944 -2.7551 -1.4873
  624MOL0     H86050   5.943   5.085  10.759 -0.4899 -0.1494 -0.8947
  624MOL0     H86051   6.006   4.862  10.835  1.6154 -4.5388 -1.1708
  624MOL0     H86052   6.087   4.815  10.681  3.1159 -0.5176  1.8217
  624MOL0     H86053   6.238   4.865  10.864  0.4297 -0.5981 -1.5774
  624MOL0     H86054   6.180   5.032  10.871  3.1638 -0.3373 -0.1794
  624MOL0     H86055   6.298   4.913  10.623 -2.6732 -1.2790  0.7007
  624MOL0     H86056   6.261   5.088  10.653  0.5492  1.8359  2.1479
  624MOL0     H86057   6.460   4.914  10.788  1.5275  0.5845  1.2354
  624MOL0     H86058   6.403   5.067  10.856  1.8735  0.3007  0.3364
  624MOL0     H86059   6.463   5.171  10.631  0.6109 -0.2512 -0.4416
  624MOL0     H86060   6.570   5.154  10.758 -0.5242  1.7221 -1.7572
  624MOL0     H86061   6.518   5.039  10.386  2.2529 -1.0240 -3.0544
  624MOL0     H86062   6.822   4.911  10.261  0.1276  1.3268  1.3221
  624MOL0     H86063   6.655   4.910  10.209 -0.0303 -1.6777 -0.1303
  624MOL0     H86064   6.785   4.671  10.348 -1.0757 -0.9358  0.3460
  624MOL0     H86065   6.616   4.690  10.314 -1.2047  1.7384 -0.6223
  624MOL0     H86066   6.629   4.694  10.089  2.0081  0.0156 -1.2923
  624MOL0     H86067   6.806   4.725  10.090  0.3702  2.4337  2.0990
  624MOL0     H86068   6.785   4.503  10.020  1.2389 -0.7583 -0.3496
  624MOL0     H86069   6.831   4.493  10.184 -1.0377 -0.9413  0.6541
  624MOL0     H86070   6.822   4.266  10.056 -0.7208 -0.0239  0.1215
  624MOL0     H86071   6.821   3.942   9.995 -1.3264  0.0151  0.2537
  624MOL0     H86072   6.891   3.954  10.153 -0.9401  0.6478 -0.0656
  624MOL0     H86073   6.923   4.072  10.026 -0.5058 -1.5818 -2.8056
  624MOL0     H86074   6.708   3.669  10.394 -1.2450  2.4968 -1.3314
  624MOL0     H86075   6.659   3.420  10.474 -1.9693 -2.1704 -1.3735
  624MOL0     H86076   6.352   3.303  10.723  1.6270  2.7910  0.1133
  624MOL0     H86077   6.239   3.367  10.607  2.1782  2.7502 -0.7021
  624MOL0     H86078   6.276   3.144  10.478  4.6753 -0.7909  0.2650
  624MOL0     H86079   6.341   3.078  10.624 -0.1105 -1.1067 -2.0906
  624MOL0     H86080   6.067   3.202  10.584  2.2492  0.0651 -2.8422
  624MOL0     H86081   6.122   3.144  10.741  2.5533 -0.1157 -0.1787
  624MOL0     H86082   6.127   2.913  10.652  1.3602 -0.5208 -2.7273
  624MOL0     H86083   6.116   2.960  10.487  3.1753  2.2727 -0.5848
  624MOL0     H86084   5.922   2.866  10.617  2.2387  0.1027  0.7734
  624MOL0     H86085   5.902   3.037  10.678 -1.4921  0.4398 -0.4189
  624MOL0     H86086   5.911   2.944  10.388  2.2336 -0.1465 -0.2609
  624MOL0     H86087   5.918   3.114  10.440 -1.9442  2.0857  3.0157
  624MOL0     H86088   5.676   3.058  10.386 -2.5851  1.8340  1.3383
  624MOL0     H86089   5.708   3.107  10.547  1.1014 -0.1072  0.2663
  624MOL0     H86090   5.547   2.904  10.508 -0.5388 -2.8604  1.4958
  624MOL0     H86091   5.655   2.906  10.652  0.8351  1.9352  0.0667
  624MOL0     H86092   6.249   3.528  10.511  0.2423 -1.1218  1.9950
  624MOL0     H86093   6.288   3.743  10.416  0.1847  1.2123 -0.8384
  624MOL0     H86094   6.440   4.094  10.321  1.1881 -1.7405  0.4540
  624MOL0     H86095   6.429   4.307  10.241 -0.6681 -2.0153  0.7312
  624MOL0     H86096   5.541   4.968  10.285  1.0685 -0.0846  2.0236
  624MOL0     H86097   5.453   5.141  10.102  0.4879  1.1038 -1.2444
  624MOL0     H86098   5.257   5.442  10.006 -0.4966  2.7247  1.9168
  624MOL0     H86099   5.122   5.550   9.872 -1.1459  0.4195 -1.2695
  624MOL0     H86100   5.019   5.618   9.684 -0.6676 -1.1059 -0.5343
  624MOL0     H86101   5.079   5.783   9.711  0.5125 -0.7940 -1.6284
  624MOL0     H86102   5.011   5.673   9.433  1.7747 -0.7979  0.5221
  624MOL0     H86103   5.071   5.831   9.461  0.7412 -1.0015  0.3467
  624MOL0     H86104   4.822   5.696   9.564  1.9059 -0.2206 -1.0666
  624MOL0     H86105   4.856   5.856   9.627 -2.3114  2.4934 -1.1328
  624MOL0     H86106   4.857   5.941   9.376 -0.1747  0.4873  0.4159
  624MOL0     H86107   4.715   5.916   9.477  2.7308  0.1259  2.4245
  624MOL0     H86108   4.656   5.665   9.141  1.0112 -3.4002  1.9698
  624MOL0     H86109   5.432   5.561   9.566  0.4967 -3.5274 -0.9195
  624MOL0     H86110   5.672   5.345   9.735  1.0132  0.2508 -0.8952
  624MOL0     H86111   5.608   5.397   9.578  0.9805 -0.4557  0.6703
  624MOL0     H86112   5.694   5.501   9.661  0.9420 -0.3490 -1.3258
  625MOL0     O86113   6.905   5.264   3.932  0.1342 -0.0091 -0.5291
  625MOL0     C86114   6.920   5.354   4.013  0.5297 -0.1263 -0.1958
  625MOL0     O86115   7.040   5.360   4.085  0.3830  0.1029  0.4243
  625MOL0     C86116   7.122   5.252   4.099  0.5723  0.5913  0.2578
  625MOL0     C86117   7.252   5.250   4.039 -0.0431  0.1719  0.0435
  625MOL0     C86118   7.327   5.132   4.047  0.3627 -0.2562  0.0787
  625MOL0     C86119   7.284   5.016   4.115  0.3121  0.0495  0.1083
  625MOL0     O86120   7.351   4.896   4.139 -0.1292  0.1440  0.0055
  625MOL0     C86121   7.496   4.897   4.136 -0.6602 -0.0240  1.0109
  625MOL0     C86122   7.539   4.754   4.187 -0.4220  0.1687  0.3270
  625MOL0     C86123   7.552   4.734   4.340 -0.1384 -0.5379 -0.1209
  625MOL0     C86124   7.435   4.803   4.420  0.1649  0.4528 -0.4775
  625MOL0     C86125   7.309   4.706   4.406 -0.2538  0.2321  0.4983
  625MOL0     C86126   7.188   4.760   4.479 -0.6031 -0.2141  0.3148
  625MOL0     C86127   7.218   4.761   4.633 -0.9352  0.1040 -0.4446
  625MOL0     C86128   7.097   4.836   4.702 -0.0894 -0.9527 -0.1855
  625MOL0     N86129   7.110   4.834   4.851 -0.7833 -1.2864 -1.1758
  625MOL0     C86130   7.024   4.898   4.936  0.5940  0.6267  0.2105
  625MOL0     C86131   7.062   4.862   5.064 -0.2680 -0.2762  0.3198
  625MOL0     C86132   7.033   4.922   5.201  0.9769  0.4447 -0.2967
  625MOL0     C86133   6.878   4.901   5.228 -0.6948  0.1935  0.2873
  625MOL0     C86134   6.847   4.971   5.365  0.3031 -0.1200  1.0455
  625MOL0     C86135   6.704   4.979   5.412 -0.3728 -0.6625  0.1850
  625MOL0     O86136   6.625   5.011   5.301 -0.2518 -0.5762  0.3842
  625MOL0     C86137   6.503   5.061   5.341  0.0876  0.2325  0.8619
  625MOL0     C86138   6.427   4.992   5.432 -0.2554  0.7561  0.4447
  625MOL0     C86139   6.320   5.060   5.492 -0.0365 -0.2489 -0.1070
  625MOL0     C86140   6.249   4.984   5.600  0.0341  0.2195  0.5850
  625MOL0     C86141   6.284   5.199   5.450  0.6969 -0.5837  0.0123
  625MOL0     C86142   6.178   5.291   5.505 -0.4476 -0.1945  0.5003
  625MOL0     O86143   6.135   5.270   5.636  0.4318 -0.2798 -0.1288
  625MOL0     C86144   6.070   5.378   5.688  0.1344 -0.1408 -1.2013
  625MOL0     C86145   6.083   5.509   5.658  0.5609  0.1908  0.1917
  625MOL0     C86146   6.002   5.604   5.721 -0.0580 -0.2362 -0.4248
  625MOL0     C86147   5.911   5.566   5.824  0.2152 -0.1096 -0.0640
  625MOL0     O86148   5.829   5.652   5.890 -0.0649  0.5741  0.1660
  625MOL0     C86149   5.804   5.786   5.846 -0.9302  0.4837  0.1343
  625MOL0     C86150   5.671   5.845   5.883  0.4355  0.5284  0.2868
  625MOL0     C86151   5.639   5.830   6.030 -0.1487 -0.3242  0.0521
  625MOL0     C86152   5.507   5.896   6.064 -0.8017  0.0895  0.4253
  625MOL0     C86153   5.474   5.880   6.220  0.0487 -0.6623 -0.3221
  625MOL0     C86154   5.583   5.944   6.307 -0.3031 -0.5960  0.3971
  625MOL0     C86155   5.541   5.990   6.451 -0.0566 -0.7931  0.0828
  625MOL0     C86156   5.424   6.078   6.462  0.7584 -0.1525 -0.2162
  625MOL0    Cl86157   5.434   6.233   6.363  0.5825  0.2723 -0.0337
  625MOL0     C86158   5.899   5.435   5.860  0.2425  0.1266  0.6617
  625MOL0     C86159   5.981   5.341   5.798  0.7084  0.0479  0.1574
  625MOL0     O86160   6.119   5.355   5.419  0.1495  0.3087 -0.2370
  625MOL0     C86161   6.371   5.261   5.358 -0.7439 -0.8191 -0.5403
  625MOL0     C86162   6.467   5.184   5.290 -0.0934 -0.0852 -0.0328
  625MOL0     N86163   7.170   4.775   5.051 -0.5229  0.4426 -0.1503
  625MOL0     N86164   7.202   4.767   4.927 -0.7024 -0.4420  1.4411
  625MOL0     C86165   7.154   5.017   4.178 -0.2135 -0.4436  0.6152
  625MOL0     C86166   7.083   5.147   4.189 -0.1199  0.7364  0.4714
  625MOL0     C86167   6.819   5.464   4.022  0.4172  0.4751 -0.1232
  625MOL0     C86168   6.840   5.554   4.130 -0.0105  0.4909  0.4324
  625MOL0     C86169   6.754   5.663   4.155  0.0677 -0.8179  0.2108
  625MOL0     C86170   6.644   5.684   4.071 -0.3845  0.5268 -0.3649
  625MOL0     O86171   6.576   5.802   4.067 -0.7882 -0.0352  0.1117
  625MOL0     C86172   6.600   5.904   4.159 -0.0355 -0.0131 -0.6191
  625MOL0     C86173   6.501   6.022   4.132 -0.1656 -0.8424 -0.0763
  625MOL0     C86174   6.488   6.114   4.253 -0.6139 -0.6271 -1.2104
  625MOL0     C86175   6.612   6.205   4.285  0.3175  1.2213  0.0652
  625MOL0     C86176   6.657   6.286   4.175 -1.1051  1.0610  0.7949
  625MOL0     C86177   6.688   6.367   4.085  0.4051  0.2208 -0.4043
  625MOL0     C86178   6.615   5.590   3.975  0.1078  0.5596  0.1655
  625MOL0     C86179   6.704   5.484   3.941 -0.4557 -0.1210  0.3509
  625MOL0     C86180   6.674   5.396   3.826  0.1641  0.1282  1.8603
  625MOL0     H86181   7.285   5.347   4.003 -0.6633  0.4987  0.3424
  625MOL0     H86182   7.426   5.140   4.002 -1.6492  1.0115 -4.7675
  625MOL0     H86183   7.545   4.977   4.194  2.5716 -0.2906 -1.0905
  625MOL0     H86184   7.536   4.921   4.037  0.8888 -2.1664  1.0394
  625MOL0     H86185   7.476   4.677   4.139  1.2127 -2.6504  2.4206
  625MOL0     H86186   7.640   4.732   4.153 -0.0183  1.7550  0.4400
  625MOL0     H86187   7.559   4.626   4.351  0.8488 -1.1319 -4.7907
  625MOL0     H86188   7.640   4.781   4.385 -0.7899  1.1295 -0.5211
  625MOL0     H86189   7.468   4.804   4.524 -1.3499 -1.1496  0.0771
  625MOL0     H86190   7.420   4.905   4.383  1.3657  0.5494 -0.7253
  625MOL0     H86191   7.331   4.603   4.437 -2.3746 -1.2763 -2.4767
  625MOL0     H86192   7.273   4.691   4.304  0.6790  0.7894  0.0821
  625MOL0     H86193   7.172   4.865   4.456 -1.4852  0.4958  3.6487
  625MOL0     H86194   7.096   4.703   4.464  0.9548 -2.1414 -3.2490
  625MOL0     H86195   7.310   4.817   4.654 -1.1359  0.2031  0.1938
  625MOL0     H86196   7.245   4.659   4.663  4.3208  1.2594 -0.2303
  625MOL0     H86197   7.086   4.940   4.669  0.8114 -1.2198 -1.3593
  625MOL0     H86198   7.006   4.780   4.679 -0.8353 -0.3136  1.1269
  625MOL0     H86199   6.954   4.973   4.902  0.2197  1.7797  3.2194
  625MOL0     H86200   7.055   5.029   5.201  0.1847  0.6178 -1.2018
  625MOL0     H86201   7.085   4.874   5.285  1.4520  2.6886  0.7549
  625MOL0     H86202   6.815   4.937   5.146 -1.0540  2.2304  1.3800
  625MOL0     H86203   6.857   4.795   5.246  4.8283 -0.8243  2.6225
  625MOL0     H86204   6.910   4.915   5.435 -0.4904 -1.7207  0.5338
  625MOL0     H86205   6.874   5.077   5.358 -2.6231  0.6142 -2.9309
  625MOL0     H86206   6.682   4.875   5.441  0.8026 -0.7225  0.9577
  625MOL0     H86207   6.709   5.050   5.495 -1.2527 -0.5264  0.1222
  625MOL0     H86208   6.455   4.889   5.452 -3.1532  0.5045  4.5982
  625MOL0     H86209   6.150   5.020   5.628  0.6960  1.1535  1.8769
  625MOL0     H86210   6.313   4.981   5.689  0.5748 -0.4013  0.1874
  625MOL0     H86211   6.241   4.878   5.578 -0.3779  0.5858 -1.2151
  625MOL0     H86212   6.151   5.542   5.580  2.1541 -0.4572  1.2649
  625MOL0     H86213   6.015   5.709   5.698  0.1303 -0.2407 -0.3415
  625MOL0     H86214   5.892   5.845   5.873 -0.0190 -0.5985 -0.3968
  625MOL0     H86215   5.798   5.791   5.737  0.3670 -0.2781 -0.0011
  625MOL0     H86216   5.677   5.950   5.853 -2.8710  0.5062 -0.8760
  625MOL0     H86217   5.587   5.802   5.829 -0.5743  0.2198  2.0054
  625MOL0     H86218   5.724   5.871   6.086 -0.6905  0.4666  0.3137
  625MOL0     H86219   5.628   5.724   6.055  0.7167 -0.6523 -0.9080
  625MOL0     H86220   5.431   5.859   5.994  1.3516  0.5201 -2.3022
  625MOL0     H86221   5.509   6.003   6.042  1.1562  0.3712  1.7467
  625MOL0     H86222   5.383   5.933   6.249 -0.3876 -0.7995 -1.3946
  625MOL0     H86223   5.464   5.776   6.251 -1.8019 -0.0770  1.2565
  625MOL0     H86224   5.624   6.038   6.268  0.4624 -0.4405  1.5505
  625MOL0     H86225   5.652   5.860   6.311 -0.7333 -0.9406  0.7903
  625MOL0     H86226   5.620   6.041   6.507 -1.4451 -0.0442  1.4017
  625MOL0     H86227   5.525   5.898   6.509  1.9390 -2.3827 -1.7086
  625MOL0     H86228   5.402   6.095   6.568  2.0702  2.4499 -0.2698
  625MOL0     H86229   5.341   6.023   6.417 -0.3363  0.7083  0.6781
  625MOL0     H86230   5.814   5.416   5.924 -0.5136  2.5494  0.5028
  625MOL0     H86231   5.967   5.237   5.826  0.4868  0.2422  0.7941
  625MOL0     H86232   6.368   5.361   5.316  1.1733 -0.6109 -0.2683
  625MOL0     H86233   6.530   5.214   5.206 -1.7193  0.6448 -1.0396
  625MOL0     H86234   7.107   4.932   4.226 -0.4305 -0.5640  0.1987
  625MOL0     H86235   6.982   5.138   4.230  0.6266  2.0268  2.7644
  625MOL0     H86236   6.924   5.534   4.196  1.1043 -0.7836 -1.2851
  625MOL0     H86237   6.786   5.727   4.236 -0.6767 -2.0676  1.5354
  625MOL0     H86238   6.583   5.871   4.262 -2.5174  1.8222 -0.3435
  625MOL0     H86239   6.703   5.941   4.158 -0.5302  1.4453  0.0448
  625MOL0     H86240   6.405   5.978   4.105 -0.0389  0.1237 -2.3499
  625MOL0     H86241   6.534   6.070   4.039  0.7808 -0.0925  0.6166
  625MOL0     H86242   6.405   6.183   4.230  2.3284  2.6535 -2.9520
  625MOL0     H86243   6.455   6.056   4.340  0.9657 -0.4807 -0.4899
  625MOL0     H86244   6.685   6.129   4.314 -0.1604 -0.1972 -2.2329
  625MOL0     H86245   6.585   6.282   4.358 -2.8069  1.5734 -1.3070
  625MOL0     H86246   6.724   6.437   4.012 -1.0189  2.0953  0.5967
  625MOL0     H86247   6.529   5.606   3.911  0.0081  1.0540  0.4215
  625MOL0     H86248   6.565   5.387   3.816 -0.1770  2.0117  3.3181
  625MOL0     H86249   6.706   5.438   3.731 -0.5111 -2.2547  0.4985
  625MOL0     H86250   6.704   5.291   3.836 -0.6092 -0.7201 -2.6973
  626MOL0     O86251  10.401   6.119   8.225 -0.8745 -0.1345  0.1608
  626MOL0     C86252  10.340   6.095   8.119  0.7069  0.0602  0.5737
  626MOL0     O86253  10.280   5.972   8.093  0.0779  0.5901  0.4789
  626MOL0     C86254  10.293   5.871   8.181 -0.0283 -0.5169  0.1393
  626MOL0     C86255  10.191   5.837   8.269  0.9150  0.4451 -0.2273
  626MOL0     C86256  10.218   5.730   8.361  0.4379 -0.1885  0.2228
  626MOL0     C86257  10.340   5.660   8.350 -0.7084 -0.6432  0.0611
  626MOL0     O86258  10.367   5.547   8.418  0.2078 -0.2294 -0.1303
  626MOL0     C86259  10.307   5.529   8.541  0.0487  0.6436  0.4738
  626MOL0     C86260  10.385   5.435   8.628 -0.2887 -0.4854  0.1510
  626MOL0     C86261  10.365   5.290   8.591  0.1466  1.2435  0.5062
  626MOL0     C86262  10.221   5.230   8.636  0.0685 -0.7988  0.5950
  626MOL0     C86263  10.224   5.081   8.673  0.1370 -0.0203 -0.1950
  626MOL0     C86264  10.313   5.001   8.577 -0.1799  0.8785 -0.2277
  626MOL0     C86265  10.274   4.855   8.573 -0.1634  0.5079 -0.3942
  626MOL0     C86266  10.169   4.829   8.464 -0.6551  1.4924  0.4124
  626MOL0     N86267  10.134   4.681   8.451  0.6309 -0.2018 -0.2690
  626MOL0     C86268  10.197   4.590   8.370  0.0816 -0.2850  0.0874
  626MOL0     C86269  10.155   4.477   8.412  0.2837 -0.6138 -0.6129
  626MOL0     C86270  10.183   4.345   8.345  0.4334  0.6366  0.1685
  626MOL0     C86271  10.294   4.261   8.428  0.7449  0.8163  0.1375
  626MOL0     C86272  10.236   4.184   8.549  0.9613  0.6261 -0.2999
  626MOL0     C86273  10.162   4.048   8.499  0.6335 -0.9824  0.1085
  626MOL0     O86274  10.037   4.070   8.428  0.7238 -0.9177  0.2774
  626MOL0     C86275   9.924   4.011   8.482 -0.5165 -0.7074 -0.6082
  626MOL0     C86276   9.889   3.878   8.443  0.7091 -0.3868 -0.7571
  626MOL0     C86277   9.792   3.802   8.520 -0.3208 -0.1995 -0.1147
  626MOL0     C86278   9.792   3.661   8.484  0.0119 -0.1175 -0.5997
  626MOL0     C86279   9.712   3.862   8.620  0.7243 -0.3415 -0.9308
  626MOL0     C86280   9.603   3.789   8.678  0.3374  0.6021  0.7710
  626MOL0     O86281   9.586   3.809   8.810  0.3108 -0.5429  0.6859
  626MOL0     C86282   9.484   3.751   8.875  0.2615  0.4049 -0.2786
  626MOL0     C86283   9.469   3.793   9.004 -0.6339  0.0437 -0.6297
  626MOL0     C86284   9.380   3.741   9.097 -0.5090 -0.4325  0.1571
  626MOL0     C86285   9.296   3.632   9.055 -0.2576 -0.4764  1.1962
  626MOL0     O86286   9.215   3.558   9.141 -0.7685  0.1854  0.3919
  626MOL0     C86287   9.160   3.622   9.256  0.5101 -0.4176 -0.3358
  626MOL0     C86288   9.115   3.524   9.351 -0.1406  0.6930  0.1706
  626MOL0     C86289   9.057   3.592   9.481  0.4143  0.7403 -0.4793
  626MOL0     C86290   9.011   3.491   9.590  0.0256  0.6797  0.1081
  626MOL0     C86291   8.889   3.406   9.551 -0.1553 -0.4010  0.6839
  626MOL0     C86292   8.949   3.263   9.525  0.3980 -0.2065  0.5901
  626MOL0     C86293   8.870   3.191   9.415 -0.8090 -0.2453  0.9217
  626MOL0     C86294   8.723   3.176   9.442  0.1661 -0.0169  1.5380
  626MOL0    Cl86295   8.640   3.110   9.296 -0.2752  0.2862 -0.1533
  626MOL0     C86296   9.310   3.590   8.924  0.2923 -0.1073 -0.5151
  626MOL0     C86297   9.393   3.649   8.837  0.9955 -0.2827  0.5149
  626MOL0     O86298   9.521   3.737   8.600  0.1857  0.3314  0.4898
  626MOL0     C86299   9.748   3.990   8.655  1.5199  0.3818 -0.0227
  626MOL0     C86300   9.852   4.061   8.590  0.4525 -0.6973  0.3183
  626MOL0     N86301  10.040   4.495   8.488 -0.4629 -0.0898 -0.2684
  626MOL0     N86302  10.039   4.618   8.520  0.5582 -0.4438 -1.2426
  626MOL0     C86303  10.432   5.691   8.261  0.0164 -0.5402  0.3772
  626MOL0     C86304  10.410   5.794   8.174  0.2911 -0.6424 -0.9833
  626MOL0     C86305  10.344   6.202   8.008 -0.7154  0.1665 -0.1270
  626MOL0     C86306  10.280   6.166   7.884  0.4910 -0.3647  0.2783
  626MOL0     C86307  10.260   6.259   7.784  0.0715 -1.5094 -0.6522
  626MOL0     C86308  10.306   6.397   7.798  0.2266  0.1928  0.0879
  626MOL0     O86309  10.285   6.481   7.695  0.0902 -0.3134  0.1651
  626MOL0     C86310  10.308   6.618   7.720  0.8323 -0.2299  0.7744
  626MOL0     C86311  10.282   6.722   7.605 -0.3771  0.1009  0.4902
  626MOL0     C86312  10.279   6.870   7.642 -0.2998  0.4086 -0.4217
  626MOL0     C86313  10.225   6.957   7.524  1.0580 -0.9325  0.2997
  626MOL0     C86314  10.315   7.067   7.495  0.4644  0.6108  0.6585
  626MOL0     C86315  10.389   7.159   7.478 -0.4789  0.2227  0.5186
  626MOL0     C86316  10.377   6.424   7.920  0.0031  0.0092 -0.1771
  626MOL0     C86317  10.394   6.334   8.019 -0.8864 -0.2029 -1.1540
  626MOL0     C86318  10.457   6.393   8.147 -0.0510 -0.4332  0.4499
  626MOL0     H86319  10.106   5.905   8.273  1.3418  0.9661  0.0180
  626MOL0     H86320  10.152   5.711   8.445 -2.1907  2.4237 -1.0854
  626MOL0     H86321  10.204   5.497   8.522  0.5646  0.4726 -2.4676
  626MOL0     H86322  10.316   5.622   8.598  2.6718  0.0658  1.1451
  626MOL0     H86323  10.490   5.464   8.631 -0.1156 -1.1410  0.7164
  626MOL0     H86324  10.358   5.437   8.734  3.2248 -0.1938  1.1450
  626MOL0     H86325  10.384   5.274   8.485  0.3887  1.5890  0.4964
  626MOL0     H86326  10.434   5.221   8.642 -0.2607  0.6505  0.2662
  626MOL0     H86327  10.196   5.288   8.726  5.0829 -1.1059  2.5293
  626MOL0     H86328  10.150   5.247   8.554  0.0331 -3.1881  0.0544
  626MOL0     H86329  10.123   5.041   8.684  0.7817 -1.5630  0.4372
  626MOL0     H86330  10.263   5.072   8.775 -0.1831 -2.3492 -0.2104
  626MOL0     H86331  10.312   5.032   8.472 -0.6190 -0.7049 -0.7135
  626MOL0     H86332  10.419   5.004   8.606 -0.0552 -2.1765 -0.1236
  626MOL0     H86333  10.246   4.819   8.672  0.5750 -2.8978 -1.2969
  626MOL0     H86334  10.370   4.809   8.546 -1.1635  0.4411 -4.6410
  626MOL0     H86335  10.076   4.883   8.483 -1.0724  0.5670  1.1203
  626MOL0     H86336  10.215   4.864   8.371 -1.5907 -0.2169 -0.7464
  626MOL0     H86337  10.272   4.620   8.297 -1.9395  0.7419 -1.6662
  626MOL0     H86338  10.216   4.353   8.240 -1.4728 -1.5178 -0.6797
  626MOL0     H86339  10.094   4.282   8.346 -0.4180  1.7888 -0.1704
  626MOL0     H86340  10.339   4.185   8.363 -0.4888 -2.1872  2.5304
  626MOL0     H86341  10.367   4.339   8.447  0.9759  0.8539 -0.8538
  626MOL0     H86342  10.315   4.153   8.618  0.1449 -1.3542 -0.1665
  626MOL0     H86343  10.159   4.246   8.597 -2.3701 -2.5032 -1.1330
  626MOL0     H86344  10.229   3.978   8.448 -0.5798 -1.0473 -1.4700
  626MOL0     H86345  10.150   3.995   8.594  1.1642 -0.9048  0.2171
  626MOL0     H86346   9.945   3.835   8.361  0.5565 -3.3340  0.5522
  626MOL0     H86347   9.823   3.646   8.381  2.2274 -0.6187  0.0787
  626MOL0     H86348   9.689   3.625   8.488 -0.8839  2.1755 -1.2616
  626MOL0     H86349   9.858   3.600   8.548 -1.5833 -0.3753  0.8860
  626MOL0     H86350   9.539   3.866   9.041  0.3473 -1.2610  0.1864
  626MOL0     H86351   9.365   3.787   9.194  0.0087 -0.3289  0.1900
  626MOL0     H86352   9.237   3.680   9.307  2.4530 -3.9472  1.0742
  626MOL0     H86353   9.079   3.688   9.223 -0.7454 -0.6317  2.0968
  626MOL0     H86354   9.046   3.463   9.293  1.0271  1.7297 -2.4740
  626MOL0     H86355   9.202   3.468   9.387  0.4797  0.7530 -1.1891
  626MOL0     H86356   8.963   3.639   9.452  0.5690  1.0644 -0.4588
  626MOL0     H86357   9.134   3.664   9.512  0.0675  1.7791 -1.9167
  626MOL0     H86358   8.992   3.535   9.688  0.8788  0.9969  0.1390
  626MOL0     H86359   9.095   3.427   9.617 -0.8411  0.2508  1.9567
  626MOL0     H86360   8.801   3.403   9.617 -3.0875  2.7600 -2.6541
  626MOL0     H86361   8.830   3.441   9.467 -0.2136 -2.1040 -0.0342
  626MOL0     H86362   8.944   3.207   9.619  1.0284 -1.2262  0.0327
  626MOL0     H86363   9.048   3.260   9.479  0.6416  0.4006  1.0648
  626MOL0     H86364   8.925   3.099   9.392 -0.9503 -0.5769  1.8743
  626MOL0     H86365   8.868   3.258   9.328 -0.6633 -1.1366  0.2158
  626MOL0     H86366   8.670   3.270   9.458  1.4256  1.1114 -0.5680
  626MOL0     H86367   8.708   3.124   9.538 -0.1168  0.3196  1.6769
  626MOL0     H86368   9.256   3.503   8.888 -1.5727  1.2669 -1.1414
  626MOL0     H86369   9.391   3.600   8.739  0.6500  0.3317  0.2125
  626MOL0     H86370   9.688   4.023   8.739  3.5853  2.2117  0.8536
  626MOL0     H86371   9.868   4.163   8.625  1.9951 -0.5400 -0.7317
  626MOL0     H86372  10.529   5.642   8.257  0.9502  1.2343  0.1776
  626MOL0     H86373  10.491   5.819   8.106  0.5876  1.4317  0.0403
  626MOL0     H86374  10.231   6.071   7.867  1.2789 -0.9969  1.4022
  626MOL0     H86375  10.208   6.236   7.692 -2.2325  0.3424  0.0794
  626MOL0     H86376  10.243   6.638   7.806 -1.1077 -3.6328  0.2780
  626MOL0     H86377  10.416   6.635   7.729  0.6839  0.6522  1.0216
  626MOL0     H86378  10.188   6.684   7.564  0.7132 -0.3034 -1.8303
  626MOL0     H86379  10.356   6.705   7.526 -0.0751 -1.1405  1.0100
  626MOL0     H86380  10.208   6.885   7.724 -2.2625 -0.2890 -1.8938
  626MOL0     H86381  10.381   6.901   7.666 -0.1857 -0.2228 -0.0777
  626MOL0     H86382  10.130   7.005   7.551  0.1461 -0.7208 -2.9276
  626MOL0     H86383  10.209   6.890   7.439 -0.4881  0.7409 -0.8038
  626MOL0     H86384  10.451   7.241   7.450  1.0681 -0.4773  1.7548
  626MOL0     H86385  10.415   6.522   7.948 -0.4067 -0.7308  3.3875
  626MOL0     H86386  10.539   6.325   8.173  1.0112  0.9704  0.9079
  626MOL0     H86387  10.489   6.498   8.141 -1.0900 -0.0823  0.8088
  626MOL0     H86388  10.376   6.381   8.220  0.5582  0.5482  1.3177
  627MOL0     O86389   2.641   0.057   9.603 -0.3543  0.2101  0.2242
  627MOL0     C86390   2.544   0.001   9.659  0.5098 -0.7324 -0.3281
  627MOL0     O86391   2.526  -0.135   9.650 -0.0603  0.1125 -0.0193
  627MOL0     C86392   2.622  -0.211   9.576  0.9761  0.0465 -0.3401
  627MOL0     C86393   2.735  -0.264   9.640  0.4134  0.1145  0.5226
  627MOL0     C86394   2.824  -0.338   9.555  0.4304 -0.0120 -0.2541
  627MOL0     C86395   2.799  -0.349   9.420 -0.9645 -1.3443 -0.1196
  627MOL0     O86396   2.883  -0.413   9.336  0.1585 -0.1628 -0.4005
  627MOL0     C86397   2.864  -0.554   9.349  0.4948  0.3289  0.1714
  627MOL0     C86398   2.756  -0.590   9.249 -0.0961 -0.0715 -0.7434
  627MOL0     C86399   2.755  -0.739   9.200  0.4842 -0.1251  0.0534
  627MOL0     C86400   2.856  -0.750   9.085 -0.8607 -0.4493  0.0011
  627MOL0     C86401   2.931  -0.883   9.101  0.9791 -0.4223  0.3488
  627MOL0     C86402   2.855  -1.004   9.048 -0.5039  0.1409  0.4915
  627MOL0     C86403   2.883  -1.120   9.138  0.0626  1.0270 -0.1763
  627MOL0     C86404   2.802  -1.244   9.101  0.1160  0.7676  0.0209
  627MOL0     N86405   2.835  -1.358   9.189 -0.0985 -0.3255 -0.0715
  627MOL0     C86406   2.814  -1.491   9.152 -0.2139 -0.5696 -0.3252
  627MOL0     C86407   2.823  -1.558   9.273 -0.9082  0.2220  0.5689
  627MOL0     C86408   2.848  -1.712   9.296  0.1669  0.3954  0.3850
  627MOL0     C86409   2.771  -1.803   9.198 -0.4821  0.3118 -0.3276
  627MOL0     C86410   2.832  -1.946   9.235 -0.3441  0.6098  0.1223
  627MOL0     C86411   2.747  -2.068   9.175 -0.2505 -0.2021 -0.1741
  627MOL0     O86412   2.795  -2.194   9.225  0.0883 -0.7265  0.0401
  627MOL0     C86413   2.700  -2.293   9.240 -1.1837  0.7473 -0.0392
  627MOL0     C86414   2.565  -2.294   9.192  0.3282 -0.4629  0.0697
  627MOL0     C86415   2.471  -2.400   9.218 -0.6240 -1.0197 -0.1700
  627MOL0     C86416   2.327  -2.386   9.169  0.5816 -1.2053 -0.0767
  627MOL0     C86417   2.521  -2.511   9.295 -0.3510 -0.2974  0.6950
  627MOL0     C86418   2.450  -2.641   9.317 -0.3173 -0.7727 -0.5445
  627MOL0     O86419   2.495  -2.717   9.419  0.1531  0.4196  0.1640
  627MOL0     C86420   2.438  -2.838   9.440 -0.1640 -0.1398 -0.7180
  627MOL0     C86421   2.392  -2.877   9.563  0.3357  0.2146 -1.2151
  627MOL0     C86422   2.353  -3.011   9.581  1.0611  0.4569  0.5195
  627MOL0     C86423   2.350  -3.107   9.472 -0.1150  0.3742  0.6787
  627MOL0     O86424   2.321  -3.234   9.482 -0.2950  0.2572 -0.5436
  627MOL0     C86425   2.303  -3.286   9.614  0.0510 -0.3486 -0.3515
  627MOL0     C86426   2.283  -3.440   9.583  0.1278 -0.2336  0.4579
  627MOL0     C86427   2.250  -3.523   9.704  0.2106 -0.3150 -0.1388
  627MOL0     C86428   2.339  -3.639   9.714 -0.0357 -0.2041  0.1810
  627MOL0     C86429   2.280  -3.747   9.810 -0.3390  0.0488  0.4867
  627MOL0     C86430   2.373  -3.864   9.833 -0.6341  0.0243  0.1515
  627MOL0     C86431   2.390  -3.953   9.710  0.8823  0.0271 -0.3992
  627MOL0     C86432   2.489  -4.063   9.743  0.3063  0.0703  0.9957
  627MOL0    Cl86433   2.506  -4.187   9.626  0.0755 -0.1257 -0.2217
  627MOL0     C86434   2.399  -3.062   9.358  0.0427  0.7587  0.8639
  627MOL0     C86435   2.444  -2.932   9.339 -0.0656  0.2824  1.2057
  627MOL0     O86436   2.347  -2.657   9.254  0.1785  0.6237 -0.7881
  627MOL0     C86437   2.657  -2.513   9.348 -0.3439 -0.8286  0.5297
  627MOL0     C86438   2.751  -2.400   9.316 -0.0560  0.4372 -0.6726
  627MOL0     N86439   2.860  -1.468   9.368 -0.7084 -0.1632  0.3437
  627MOL0     N86440   2.856  -1.348   9.324 -1.0938 -0.2123 -0.2884
  627MOL0     C86441   2.693  -0.288   9.361  0.1551 -0.7228 -0.9159
  627MOL0     C86442   2.598  -0.229   9.439  0.5694  1.1500 -0.0193
  627MOL0     C86443   2.446   0.086   9.739 -0.3018  0.1382  0.1674
  627MOL0     C86444   2.326   0.026   9.780 -0.4419 -0.0405  0.2341
  627MOL0     C86445   2.241   0.104   9.855  0.7736 -0.2448 -0.2817
  627MOL0     C86446   2.259   0.237   9.900 -0.7036 -0.7456  0.5106
  627MOL0     O86447   2.159   0.307   9.961  0.5096  0.3995  0.2979
  627MOL0     C86448   2.167   0.445   9.985 -1.2523 -0.5871  0.3672
  627MOL0     C86449   2.139   0.540   9.860 -0.3934  0.5380 -0.1268
  627MOL0     C86450   2.103   0.686   9.896  0.3357 -0.9563 -0.7717
  627MOL0     C86451   2.218   0.788   9.891  0.4516 -0.2561 -0.0404
  627MOL0     C86452   2.335   0.753   9.978  0.0897  0.5261  0.0540
  627MOL0     C86453   2.440   0.714  10.025  0.7085 -0.3280 -0.1886
  627MOL0     C86454   2.378   0.297   9.850  0.1325 -0.2148  0.5002
  627MOL0     C86455   2.473   0.228   9.773  0.2156 -0.0456  0.5195
  627MOL0     C86456   2.589   0.308   9.722  0.3136  0.3246 -0.7013
  627MOL0     H86457   2.770  -0.249   9.742  3.4303  0.1647 -0.4500
  627MOL0     H86458   2.905  -0.388   9.608 -1.4850 -0.4845  2.4385
  627MOL0     H86459   2.839  -0.590   9.449 -2.3177  0.9226 -0.2422
  627MOL0     H86460   2.965  -0.592   9.326  0.7329  1.4631 -0.7676
  627MOL0     H86461   2.660  -0.566   9.295  0.2146 -0.2026 -0.0154
  627MOL0     H86462   2.777  -0.526   9.162 -1.3820 -1.2890 -2.0045
  627MOL0     H86463   2.780  -0.811   9.279 -1.9002 -0.4902  0.5476
  627MOL0     H86464   2.657  -0.781   9.173  1.0753 -2.8181  1.7255
  627MOL0     H86465   2.824  -0.742   8.981  2.4359 -0.8151 -1.1643
  627MOL0     H86466   2.922  -0.662   9.085  0.0299 -1.0058 -3.1801
  627MOL0     H86467   2.944  -0.898   9.209  0.7600 -1.7014  0.2160
  627MOL0     H86468   3.023  -0.868   9.044  0.6661  1.4016  0.2628
  627MOL0     H86469   2.746  -0.996   9.047 -0.4629  1.0076 -1.4394
  627MOL0     H86470   2.889  -1.020   8.945 -0.4347  0.3040  0.4897
  627MOL0     H86471   2.870  -1.092   9.243 -3.0354 -1.5337  0.3066
  627MOL0     H86472   2.990  -1.137   9.121  1.4337  5.2783  2.6055
  627MOL0     H86473   2.696  -1.227   9.123 -1.7824 -1.2985 -5.7298
  627MOL0     H86474   2.809  -1.262   8.994  0.2841 -1.0413  0.3166
  627MOL0     H86475   2.814  -1.536   9.053 -0.2259 -0.6562 -0.2856
  627MOL0     H86476   2.809  -1.736   9.395 -1.9594 -0.6600 -0.6592
  627MOL0     H86477   2.957  -1.723   9.286  0.2919  1.2542  0.7425
  627MOL0     H86478   2.664  -1.799   9.220 -0.2684  0.8127  0.6975
  627MOL0     H86479   2.792  -1.765   9.098 -1.2962  2.8067  0.3648
  627MOL0     H86480   2.933  -1.965   9.198 -0.8754 -2.8212  0.0861
  627MOL0     H86481   2.825  -1.963   9.343  1.4670  2.5182  0.6021
  627MOL0     H86482   2.649  -2.050   9.220 -0.6611 -2.1403 -0.2130
  627MOL0     H86483   2.748  -2.075   9.066 -2.2757 -0.5071 -0.1955
  627MOL0     H86484   2.539  -2.210   9.128  4.7305 -0.7517 -2.5285
  627MOL0     H86485   2.272  -2.386   9.263 -0.5037 -0.0017 -0.6809
  627MOL0     H86486   2.301  -2.466   9.099  0.4603 -1.8136  0.6618
  627MOL0     H86487   2.305  -2.292   9.117 -3.2576 -2.4385 -0.9618
  627MOL0     H86488   2.395  -2.811   9.649  0.3167 -0.2452 -0.8599
  627MOL0     H86489   2.322  -3.033   9.683  0.9897  3.2887  1.2117
  627MOL0     H86490   2.396  -3.266   9.669  0.0490 -0.7180 -0.2121
  627MOL0     H86491   2.216  -3.235   9.657  0.4777  2.4760 -2.5180
  627MOL0     H86492   2.204  -3.441   9.509  1.7065 -0.4954 -1.2960
  627MOL0     H86493   2.370  -3.484   9.533  0.8827 -0.7505  2.1449
  627MOL0     H86494   2.149  -3.562   9.693  0.0482 -0.2230  0.9437
  627MOL0     H86495   2.250  -3.459   9.793 -1.5315  1.4859 -1.3482
  627MOL0     H86496   2.433  -3.608   9.760  0.2881 -0.4409 -0.3015
  627MOL0     H86497   2.363  -3.682   9.616  1.3831  0.7389  0.0780
  627MOL0     H86498   2.242  -3.701   9.901 -2.4635  2.2779 -1.3712
  627MOL0     H86499   2.193  -3.790   9.759 -0.3085 -1.1841  1.4341
  627MOL0     H86500   2.331  -3.925   9.913  1.1217 -1.2763  0.1393
  627MOL0     H86501   2.476  -3.830   9.849 -0.3428 -1.0911  0.7207
  627MOL0     H86502   2.420  -3.904   9.617  0.1451 -1.0772 -1.2449
  627MOL0     H86503   2.291  -3.997   9.693 -0.5834  2.9539 -0.2204
  627MOL0     H86504   2.468  -4.119   9.834  0.5842 -1.3877  0.1995
  627MOL0     H86505   2.587  -4.022   9.769  0.2295 -0.5917  2.4164
  627MOL0     H86506   2.422  -3.137   9.283 -1.1840  0.1616  1.0618
  627MOL0     H86507   2.507  -2.914   9.253  0.9015  0.2613  1.8863
  627MOL0     H86508   2.695  -2.595   9.408 -0.6458 -0.5131  1.1507
  627MOL0     H86509   2.851  -2.412   9.356 -0.6258 -0.3821  0.6054
  627MOL0     H86510   2.687  -0.284   9.253  1.7827 -1.5042 -1.0616
  627MOL0     H86511   2.507  -0.194   9.392 -1.3520 -2.4872  0.5840
  627MOL0     H86512   2.315  -0.080   9.760 -0.1387 -0.1924  0.8704
  627MOL0     H86513   2.144   0.055   9.862 -0.5814  2.0998 -1.4730
  627MOL0     H86514   2.089   0.464  10.060  0.4075 -2.0139  2.5628
  627MOL0     H86515   2.264   0.470  10.029  0.1173 -0.9179 -2.3000
  627MOL0     H86516   2.065   0.496   9.792 -0.0984 -1.6354  0.8651
  627MOL0     H86517   2.227   0.544   9.796 -1.9357 -0.4908 -2.4355
  627MOL0     H86518   2.027   0.715   9.823 -0.6936 -1.6291  0.0017
  627MOL0     H86519   2.057   0.690   9.996  1.9978 -2.0520  0.0968
  627MOL0     H86520   2.173   0.885   9.914  1.5429  0.7768 -1.9958
  627MOL0     H86521   2.261   0.800   9.791  1.2311 -0.5271  0.2525
  627MOL0     H86522   2.538   0.676  10.048  0.9441  1.3008  1.8720
  627MOL0     H86523   2.411   0.396   9.880  2.2788 -0.7013 -0.1076
  627MOL0     H86524   2.572   0.416   9.730 -2.6943 -0.0316 -1.2194
  627MOL0     H86525   2.681   0.273   9.772 -0.5602 -2.3897 -0.8139
  627MOL0     H86526   2.603   0.290   9.615 -0.0984 -0.8083 -0.5805
  628MOL0     O86527   9.780   1.267   6.107 -0.7976 -0.6288 -0.2547
  628MOL0     C86528   9.890   1.319   6.082 -0.2534  0.1996  0.3513
  628MOL0     O86529   9.919   1.454   6.102 -0.2821  0.0465  0.4355
  628MOL0     C86530   9.830   1.551   6.132  0.1934 -0.7578  0.6617
  628MOL0     C86531   9.872   1.661   6.207  0.4853  0.6595  1.4062
  628MOL0     C86532   9.781   1.762   6.242  0.3856  0.8005 -1.0131
  628MOL0     C86533   9.645   1.765   6.193 -0.8933  0.6323  0.0905
  628MOL0     O86534   9.560   1.871   6.216  0.0874  0.0436  0.3446
  628MOL0     C86535   9.518   1.933   6.097  0.0294  0.5781  1.0669
  628MOL0     C86536   9.432   2.058   6.107 -0.6135  0.7688  0.8768
  628MOL0     C86537   9.309   2.049   6.186  0.2258  0.1819 -0.6409
  628MOL0     C86538   9.201   1.982   6.100 -0.3772 -1.1649  0.3112
  628MOL0     C86539   9.061   2.016   6.150  0.4073  0.2624 -0.5198
  628MOL0     C86540   8.954   1.908   6.111 -0.8984  0.5731 -0.0530
  628MOL0     C86541   8.820   1.959   6.139 -0.4873  0.2932 -0.3256
  628MOL0     C86542   8.806   2.011   6.282  0.0722 -0.1428 -0.5530
  628MOL0     N86543   8.677   2.039   6.339  0.9047 -0.1634  0.1042
  628MOL0     C86544   8.557   2.031   6.267 -0.0668  0.2293 -0.8475
  628MOL0     C86545   8.460   2.047   6.363  0.4226  0.6483 -0.0638
  628MOL0     C86546   8.317   2.050   6.352 -0.0318 -0.6055  0.9267
  628MOL0     C86547   8.289   2.197   6.336  0.2654  0.2530 -0.0583
  628MOL0     C86548   8.140   2.227   6.342 -0.2400  0.9142 -0.2082
  628MOL0     C86549   8.073   2.218   6.205 -0.5985 -0.4736 -0.4153
  628MOL0     O86550   8.122   2.312   6.108 -0.6932  0.4083  0.8179
  628MOL0     C86551   8.064   2.439   6.120 -0.9877  0.0809 -0.4385
  628MOL0     C86552   7.931   2.458   6.087 -0.4373  0.3687  0.3579
  628MOL0     C86553   7.881   2.584   6.069 -0.1155 -0.7120 -1.1832
  628MOL0     C86554   7.747   2.581   5.987 -0.4063 -0.7314  0.0452
  628MOL0     C86555   7.960   2.701   6.110 -0.6483 -0.0279 -0.4477
  628MOL0     C86556   7.919   2.841   6.077  0.0650  1.1732 -0.4262
  628MOL0     O86557   7.967   2.941   6.166 -0.8266  0.1761  0.9505
  628MOL0     C86558   7.952   3.074   6.131  0.1739 -0.5866  0.2459
  628MOL0     C86559   7.847   3.142   6.200  0.2010 -0.9160  0.8726
  628MOL0     C86560   7.819   3.272   6.159 -0.0450  0.2762  0.8559
  628MOL0     C86561   7.896   3.342   6.062  0.4635  0.4803 -0.8201
  628MOL0     O86562   7.879   3.482   6.059  0.2701  0.2299  0.1143
  628MOL0     C86563   7.819   3.527   5.935  0.3100 -0.3260  1.0702
  628MOL0     C86564   7.734   3.651   5.961  0.2692 -0.1701 -0.4483
  628MOL0     C86565   7.649   3.695   5.847  0.0684  0.3044 -0.5282
  628MOL0     C86566   7.674   3.843   5.808 -0.4178 -0.6415  0.6790
  628MOL0     C86567   7.626   3.855   5.665 -0.4432  0.8526 -0.3128
  628MOL0     C86568   7.741   3.812   5.573  0.0765  0.6503  0.8604
  628MOL0     C86569   7.857   3.913   5.569 -0.8031 -0.3369  0.1961
  628MOL0     C86570   7.827   4.061   5.553  0.4763 -0.3149  0.3693
  628MOL0    Cl86571   7.792   4.102   5.386  0.2365 -0.2381  0.1397
  628MOL0     C86572   8.015   3.281   6.019 -0.3027 -0.5402  0.6759
  628MOL0     C86573   8.033   3.150   6.042 -0.6969 -0.5193 -0.8519
  628MOL0     O86574   7.846   2.859   5.989 -0.0187  0.7276 -0.2375
  628MOL0     C86575   8.089   2.671   6.166  0.1256  0.1853  0.3213
  628MOL0     C86576   8.145   2.547   6.162  0.1688  0.6162  0.4585
  628MOL0     N86577   8.517   2.074   6.487 -0.3164 -0.6479  0.2634
  628MOL0     N86578   8.651   2.057   6.473  0.3652  0.6826 -0.3640
  628MOL0     C86579   9.608   1.657   6.116 -1.0168 -0.3658  0.8899
  628MOL0     C86580   9.685   1.542   6.101 -0.1328  0.1104 -0.2898
  628MOL0     C86581  10.015   1.240   6.046  0.5084  0.8238 -0.0137
  628MOL0     C86582  10.128   1.305   6.020 -0.9507 -0.6087  0.1492
  628MOL0     C86583  10.244   1.251   5.960 -0.0974  0.0508 -0.0793
  628MOL0     C86584  10.249   1.120   5.910 -0.6569  0.4241 -0.7531
  628MOL0     O86585  10.370   1.080   5.858  0.5617  0.3900 -0.2870
  628MOL0     C86586  10.368   0.961   5.777  0.5841  0.9433 -0.1854
  628MOL0     C86587  10.498   0.937   5.708  0.0000  0.9162 -0.5781
  628MOL0     C86588  10.610   0.916   5.813  0.1165  0.8972  0.2858
  628MOL0     C86589  10.723   0.811   5.766  0.4420  0.4948  0.0409
  628MOL0     C86590  10.665   0.679   5.734  0.3239  0.1108 -0.4838
  628MOL0     C86591  10.622   0.566   5.706 -0.1997 -0.1273  0.1348
  628MOL0     C86592  10.129   1.048   5.935 -0.2738 -0.3083 -0.0847
  628MOL0     C86593  10.014   1.109   5.991 -0.3725  0.2354 -0.4274
  628MOL0     C86594   9.903   0.999   6.004  0.6680 -0.3914 -0.8703
  628MOL0     H86595   9.976   1.662   6.237 -0.2358  0.3860  4.1653
  628MOL0     H86596   9.825   1.833   6.311 -2.7623  0.2042  1.9144
  628MOL0     H86597   9.462   1.866   6.031  1.1882  0.9343 -0.3247
  628MOL0     H86598   9.606   1.956   6.037 -1.5507 -1.1854 -2.1769
  628MOL0     H86599   9.505   2.130   6.145 -0.4053  0.9478  0.1496
  628MOL0     H86600   9.395   2.096   6.011 -2.3677 -2.9712 -0.1363
  628MOL0     H86601   9.338   1.985   6.270 -0.0659  2.5317  1.3709
  628MOL0     H86602   9.280   2.150   6.217  1.1565  0.3208 -0.2043
  628MOL0     H86603   9.200   2.039   6.007  1.5685 -1.7038 -0.0902
  628MOL0     H86604   9.215   1.874   6.083 -1.6977 -1.9018  3.2224
  628MOL0     H86605   9.021   2.110   6.110  2.1235  2.7824  3.1160
  628MOL0     H86606   9.067   2.022   6.259 -3.6863  0.7196 -0.1601
  628MOL0     H86607   8.963   1.882   6.005  1.9680  3.7201 -0.7677
  628MOL0     H86608   8.984   1.816   6.161  1.5732  2.0089  1.3383
  628MOL0     H86609   8.746   1.879   6.126 -0.0594 -0.1965  0.1916
  628MOL0     H86610   8.803   2.043   6.071  0.7123  2.0481  1.4239
  628MOL0     H86611   8.852   1.936   6.348 -1.9343  0.5156  1.6989
  628MOL0     H86612   8.879   2.092   6.293  5.8142 -4.8844  2.4434
  628MOL0     H86613   8.543   2.012   6.161 -0.5070 -2.2241 -0.4186
  628MOL0     H86614   8.289   2.009   6.450  1.9612 -3.2846  0.5146
  628MOL0     H86615   8.280   1.993   6.267  0.7041 -0.2274  0.3426
  628MOL0     H86616   8.331   2.254   6.419 -2.1948  1.4941  0.4311
  628MOL0     H86617   8.331   2.235   6.242 -1.6769 -1.1808 -1.5861
  628MOL0     H86618   8.101   2.156   6.415  1.5901  0.0690 -0.0072
  628MOL0     H86619   8.118   2.329   6.374 -1.5104  0.2063  1.2811
  628MOL0     H86620   8.098   2.123   6.156  2.3269  1.2554 -2.6385
  628MOL0     H86621   7.964   2.222   6.215 -0.6843 -2.0254 -0.5568
  628MOL0     H86622   7.873   2.369   6.065 -0.3392  0.5433 -0.6391
  628MOL0     H86623   7.747   2.508   5.905 -0.8375  1.9103 -2.4754
  628MOL0     H86624   7.695   2.670   5.951  0.1904 -0.1626  0.5818
  628MOL0     H86625   7.664   2.546   6.050 -2.2115  1.3655 -1.0267
  628MOL0     H86626   7.790   3.091   6.277 -1.5079 -0.6489 -0.1582
  628MOL0     H86627   7.736   3.323   6.207 -1.8351 -1.5771 -0.1144
  628MOL0     H86628   7.904   3.534   5.866  0.7741  0.3367  1.6879
  628MOL0     H86629   7.748   3.450   5.904 -2.4386  2.0387  1.1028
  628MOL0     H86630   7.672   3.629   6.049 -0.2373 -2.7636 -1.3477
  628MOL0     H86631   7.799   3.733   5.992  0.9939 -0.9777  0.2400
  628MOL0     H86632   7.545   3.674   5.873  0.5436 -1.7714 -0.0444
  628MOL0     H86633   7.655   3.635   5.756 -1.8361  3.3437 -2.8353
  628MOL0     H86634   7.780   3.872   5.812  0.1483 -1.9486 -2.2767
  628MOL0     H86635   7.617   3.908   5.876  0.4106  0.8247  0.0179
  628MOL0     H86636   7.529   3.807   5.651 -1.4636  2.2047  1.7121
  628MOL0     H86637   7.596   3.955   5.634 -0.6096  0.2932 -2.0625
  628MOL0     H86638   7.704   3.802   5.470  2.0333 -2.7431  0.3457
  628MOL0     H86639   7.769   3.712   5.607 -1.3773  0.8723  2.8731
  628MOL0     H86640   7.932   3.891   5.492 -0.7313  0.8811 -0.1061
  628MOL0     H86641   7.909   3.902   5.665  0.4414  0.9020 -0.2991
  628MOL0     H86642   7.916   4.123   5.569 -0.1893  0.7179  0.0956
  628MOL0     H86643   7.749   4.087   5.625 -1.2439 -0.7433 -1.2718
  628MOL0     H86644   8.087   3.331   5.956 -2.3969  0.5492 -1.0037
  628MOL0     H86645   8.123   3.103   6.001  0.0680 -1.3496  1.5702
  628MOL0     H86646   8.147   2.758   6.195 -3.9990  2.5689  2.2939
  628MOL0     H86647   8.246   2.542   6.202  0.3191  1.2476  0.1723
  628MOL0     H86648   9.519   1.664   6.054  0.9159 -2.4674 -2.3883
  628MOL0     H86649   9.644   1.449   6.065  2.2490 -1.3891  0.6724
  628MOL0     H86650  10.138   1.403   6.065  1.8288 -1.0436  0.7137
  628MOL0     H86651  10.324   1.323   5.947  1.5413 -2.1908 -4.2770
  628MOL0     H86652  10.352   0.872   5.838  0.7646  1.1405  0.1515
  628MOL0     H86653  10.284   0.969   5.707 -0.1306  0.4777  0.6103
  628MOL0     H86654  10.517   1.028   5.650 -0.8153  1.3745 -0.1422
  628MOL0     H86655  10.489   0.853   5.638  3.5741  2.6256 -3.4405
  628MOL0     H86656  10.648   1.017   5.832  2.1279  0.0728  0.9019
  628MOL0     H86657  10.575   0.862   5.901  0.3699 -1.7009 -1.1025
  628MOL0     H86658  10.790   0.792   5.850  0.2956  0.4067  0.1386
  628MOL0     H86659  10.781   0.851   5.683  1.5549  0.5038  0.8010
  628MOL0     H86660  10.603   0.463   5.683  0.4752 -0.8450  2.5414
  628MOL0     H86661  10.124   0.952   5.884  0.8465  0.4074 -1.6289
  628MOL0     H86662   9.949   0.903   6.028  1.8056  0.0964 -1.0259
  628MOL0     H86663   9.832   1.032   6.080  1.4107 -0.1372 -0.2648
  628MOL0     H86664   9.847   0.982   5.912  0.8621  0.1873 -1.1012
  629MOL0     O86665   2.259   4.821   5.884  0.4919  0.4658  0.2271
  629MOL0     C86666   2.297   4.728   5.814  0.9334 -0.1470 -0.6271
  629MOL0     O86667   2.235   4.682   5.701  0.8989  0.2158  0.0572
  629MOL0     C86668   2.130   4.745   5.653 -0.5898 -0.1489  1.4176
  629MOL0     C86669   2.007   4.678   5.647  0.8760 -0.0431 -0.4477
  629MOL0     C86670   1.890   4.744   5.597 -0.1402  0.4512  0.5708
  629MOL0     C86671   1.892   4.878   5.571  0.3823 -0.2421 -0.9696
  629MOL0     O86672   1.768   4.934   5.557 -0.5552  0.1403  0.1455
  629MOL0     C86673   1.758   5.063   5.515  1.0976  0.4610 -0.7752
  629MOL0     C86674   1.771   5.086   5.369 -0.2758  0.3286 -0.4576
  629MOL0     C86675   1.739   5.226   5.332  0.1454 -0.3772 -0.0507
  629MOL0     C86676   1.756   5.234   5.185 -0.2017 -0.0296  0.8851
  629MOL0     C86677   1.693   5.363   5.137 -0.3098  0.0987  0.2072
  629MOL0     C86678   1.697   5.369   4.981  0.8896  0.0276  0.4864
  629MOL0     C86679   1.624   5.486   4.913  0.4287  0.0893  0.5736
  629MOL0     C86680   1.719   5.544   4.802 -0.0710 -0.1939  0.0371
  629MOL0     N86681   1.649   5.656   4.735  0.2327 -0.5258 -0.4361
  629MOL0     C86682   1.561   5.658   4.631 -0.6050 -0.0888  0.1486
  629MOL0     C86683   1.485   5.775   4.641  0.4204 -0.1292 -0.8560
  629MOL0     C86684   1.382   5.842   4.547  0.2850  0.6181  0.0511
  629MOL0     C86685   1.252   5.776   4.587 -0.6916 -0.3819  0.2619
  629MOL0     C86686   1.199   5.814   4.721 -0.2756 -0.6931  0.7751
  629MOL0     C86687   1.062   5.758   4.739  0.2056  0.4462 -0.6089
  629MOL0     O86688   1.012   5.789   4.872  0.3396 -0.2253  0.3133
  629MOL0     C86689   0.898   5.727   4.919  0.4607 -0.5002  0.2913
  629MOL0     C86690   0.807   5.646   4.847  0.2350  0.5887 -0.3868
  629MOL0     C86691   0.692   5.591   4.914  1.4091 -0.3282 -0.0233
  629MOL0     C86692   0.601   5.510   4.837  0.5306 -0.7659 -0.3117
  629MOL0     C86693   0.676   5.603   5.056  1.3503 -0.0095  0.0931
  629MOL0     C86694   0.567   5.547   5.124  0.5343  0.6284  0.0177
  629MOL0     O86695   0.441   5.584   5.084 -0.1645 -0.0811 -1.0155
  629MOL0     C86696   0.351   5.576   5.189 -0.1485  0.8275  0.1579
  629MOL0     C86697   0.369   5.648   5.310 -0.6529  0.5842  0.6611
  629MOL0     C86698   0.265   5.665   5.395  0.3648  0.3994 -0.7746
  629MOL0     C86699   0.139   5.602   5.369 -0.4317  0.0571 -0.9695
  629MOL0     O86700   0.052   5.617   5.468 -0.7576  0.2718  0.0449
  629MOL0     C86701   0.022   5.487   5.522  1.0653 -0.3851 -0.3789
  629MOL0     C86702  -0.126   5.482   5.563 -0.6336 -0.4678 -0.2289
  629MOL0     C86703  -0.175   5.584   5.670 -0.3159  0.2185  0.7384
  629MOL0     C86704  -0.183   5.522   5.803  0.4192 -0.6916  0.6091
  629MOL0     C86705  -0.219   5.627   5.914  0.4504 -0.5459  1.9467
  629MOL0     C86706  -0.160   5.586   6.047  0.1063 -0.4489 -0.4009
  629MOL0     C86707  -0.200   5.449   6.097  0.1574 -0.0031  1.0111
  629MOL0     C86708  -0.156   5.424   6.239 -0.4388  0.0477  0.0247
  629MOL0    Cl86709  -0.239   5.274   6.286  0.0639 -0.4417  0.0405
  629MOL0     C86710   0.115   5.541   5.248 -0.4680  0.6658  0.2616
  629MOL0     C86711   0.224   5.536   5.162  0.1818 -0.3850  0.1950
  629MOL0     O86712   0.594   5.474   5.224 -0.6879 -0.2224 -0.4868
  629MOL0     C86713   0.761   5.698   5.122  1.4074  0.1939 -0.0223
  629MOL0     C86714   0.878   5.749   5.060 -0.4673  0.1733 -0.3408
  629MOL0     N86715   1.547   5.845   4.742  0.1994  0.2986 -0.0019
  629MOL0     N86716   1.634   5.772   4.807  1.3835 -0.2751 -0.0634
  629MOL0     C86717   2.019   4.948   5.582  1.0773  0.6209  0.6092
  629MOL0     C86718   2.135   4.877   5.611 -1.3151 -0.2378 -0.4179
  629MOL0     C86719   2.412   4.658   5.877 -0.0705  0.0260  0.7675
  629MOL0     C86720   2.425   4.525   5.872  0.0475  0.6911 -0.3862
  629MOL0     C86721   2.528   4.455   5.935 -0.5147  0.5368  0.2072
  629MOL0     C86722   2.631   4.521   5.984 -1.0871  0.3831 -0.0545
  629MOL0     O86723   2.741   4.447   6.022  0.1562  0.3518 -1.0584
  629MOL0     C86724   2.747   4.386   6.150 -0.2613  0.1159  0.0699
  629MOL0     C86725   2.826   4.255   6.148  0.8641 -0.1770 -0.0527
  629MOL0     C86726   2.891   4.236   6.285 -0.6090  0.1590 -0.0704
  629MOL0     C86727   2.807   4.244   6.417 -0.5560 -0.0543  0.4657
  629MOL0     C86728   2.703   4.149   6.420  0.1493  0.1831 -0.5503
  629MOL0     C86729   2.617   4.072   6.414  0.1693  0.0944  1.1916
  629MOL0     C86730   2.629   4.656   5.999  0.5876  0.1332  0.3019
  629MOL0     C86731   2.523   4.728   5.947  0.0128 -0.0114  0.2044
  629MOL0     C86732   2.523   4.882   5.953  0.4599  1.0637 -0.2928
  629MOL0     H86733   2.002   4.574   5.675  1.8658  0.4746  1.8757
  629MOL0     H86734   1.803   4.683   5.579  0.9544 -1.1073  0.3531
  629MOL0     H86735   1.817   5.131   5.578 -1.1371  0.9081  0.9924
  629MOL0     H86736   1.661   5.095   5.555  2.0296  0.9112  1.2709
  629MOL0     H86737   1.871   5.056   5.338 -0.8549 -1.0854 -1.0909
  629MOL0     H86738   1.698   5.022   5.318 -0.0773  0.0845 -0.4402
  629MOL0     H86739   1.641   5.246   5.375  1.2073 -1.8110  3.3822
  629MOL0     H86740   1.805   5.297   5.383  1.5359 -1.9856  0.4918
  629MOL0     H86741   1.864   5.236   5.163 -0.1362  0.2566  1.2305
  629MOL0     H86742   1.710   5.149   5.134 -0.3460  1.1840 -1.1166
  629MOL0     H86743   1.759   5.445   5.168  0.6555 -0.0051 -1.4232
  629MOL0     H86744   1.590   5.374   5.172 -0.9429  0.8910 -1.7770
  629MOL0     H86745   1.799   5.359   4.945  1.2350  0.2854  1.3797
  629MOL0     H86746   1.647   5.281   4.940  0.7164  0.8487 -1.1436
  629MOL0     H86747   1.611   5.562   4.991  1.0462 -0.0786  0.8450
  629MOL0     H86748   1.532   5.460   4.861  0.5536  1.6532 -0.5042
  629MOL0     H86749   1.818   5.572   4.838 -0.4747  0.5856  0.5794
  629MOL0     H86750   1.738   5.468   4.725  3.8968 -0.5644  1.1843
  629MOL0     H86751   1.550   5.575   4.562 -0.0508  0.8621 -1.1214
  629MOL0     H86752   1.396   5.809   4.444 -1.0442  0.7926 -0.1989
  629MOL0     H86753   1.394   5.950   4.551  2.7775  0.5848 -3.1025
  629MOL0     H86754   1.179   5.804   4.510 -0.6261 -1.6994 -0.3006
  629MOL0     H86755   1.268   5.668   4.582  2.5127  0.0696 -1.9685
  629MOL0     H86756   1.273   5.782   4.795  2.4440  2.4842 -0.2856
  629MOL0     H86757   1.176   5.921   4.724 -2.3945 -1.1083  0.7126
  629MOL0     H86758   0.987   5.786   4.664  2.6068 -0.7935 -3.7202
  629MOL0     H86759   1.078   5.650   4.737 -0.0040  0.2945  2.1713
  629MOL0     H86760   0.844   5.621   4.748  0.1049  1.6248 -0.7101
  629MOL0     H86761   0.646   5.485   4.741 -0.0441  0.7191 -0.9909
  629MOL0     H86762   0.510   5.567   4.821 -0.1017 -1.9049 -0.8643
  629MOL0     H86763   0.584   5.418   4.895  0.2725 -0.7894 -0.4237
  629MOL0     H86764   0.466   5.693   5.331  0.8636 -0.8335 -2.5482
  629MOL0     H86765   0.283   5.717   5.488 -0.9514 -1.2337  0.4741
  629MOL0     H86766   0.023   5.404   5.450  0.0811  0.7619 -1.7809
  629MOL0     H86767   0.086   5.474   5.610 -2.1092 -3.3247  1.7321
  629MOL0     H86768  -0.189   5.497   5.475 -0.3366  0.7454 -0.2478
  629MOL0     H86769  -0.136   5.380   5.602  0.4517 -1.3270 -2.0419
  629MOL0     H86770  -0.276   5.612   5.641 -0.0787 -0.3260 -0.6878
  629MOL0     H86771  -0.118   5.678   5.669 -0.8469  0.5657 -1.0038
  629MOL0     H86772  -0.081   5.483   5.817  0.8652  0.1534 -0.1611
  629MOL0     H86773  -0.256   5.441   5.800  0.2136 -0.5299 -2.4047
  629MOL0     H86774  -0.172   5.721   5.884  0.3931 -1.0706  0.1179
  629MOL0     H86775  -0.327   5.645   5.924  0.2945 -0.1517 -0.0745
  629MOL0     H86776  -0.210   5.652   6.118 -0.1246 -1.1979  0.1405
  629MOL0     H86777  -0.051   5.588   6.044  0.0784  0.6213 -1.3045
  629MOL0     H86778  -0.149   5.375   6.036  2.4366 -0.1242  2.9207
  629MOL0     H86779  -0.309   5.439   6.088 -0.1742  2.2778  1.7701
  629MOL0     H86780  -0.183   5.509   6.302 -0.4657 -0.4050  0.6404
  629MOL0     H86781  -0.047   5.417   6.243 -0.4225  0.0536 -0.3373
  629MOL0     H86782   0.025   5.486   5.223  2.7019 -3.9787 -2.5179
  629MOL0     H86783   0.216   5.495   5.062 -1.2952  1.0937 -0.3456
  629MOL0     H86784   0.729   5.723   5.222 -2.8180  2.2090 -1.6109
  629MOL0     H86785   0.951   5.810   5.112  0.7786 -1.2958 -0.2947
  629MOL0     H86786   2.021   5.052   5.552 -1.3834  0.0970 -1.7357
  629MOL0     H86787   2.228   4.932   5.612 -1.3315 -0.2206  0.0455
  629MOL0     H86788   2.342   4.475   5.823  0.7487 -0.4972 -0.3923
  629MOL0     H86789   2.528   4.347   5.918 -3.3899  0.5311 -0.1416
  629MOL0     H86790   2.796   4.464   6.208  2.2181 -0.2954 -1.3511
  629MOL0     H86791   2.646   4.367   6.189 -0.6093 -3.8546 -2.2518
  629MOL0     H86792   2.889   4.260   6.058 -3.1851 -0.7045 -3.1932
  629MOL0     H86793   2.757   4.172   6.134 -0.8308  1.5205 -2.6655
  629MOL0     H86794   2.937   4.137   6.285 -2.9735 -1.0667  1.8047
  629MOL0     H86795   2.970   4.309   6.299 -3.2924  2.8598  2.4442
  629MOL0     H86796   2.758   4.342   6.423  0.2225  0.3960 -0.1847
  629MOL0     H86797   2.866   4.222   6.507  1.1906 -3.1189 -1.2775
  629MOL0     H86798   2.531   4.010   6.400 -1.0658  2.0521 -0.3276
  629MOL0     H86799   2.715   4.700   6.050 -0.6754  0.3568  2.3648
  629MOL0     H86800   2.452   4.912   6.030  0.4630 -0.2412  0.2327
  629MOL0     H86801   2.617   4.912   5.999 -0.2143  3.1803 -0.1811
  629MOL0     H86802   2.511   4.920   5.851  0.2962 -0.5073 -0.8781
  630MOL0     O86803   6.764   7.143   0.412  0.3420 -0.6222  0.2400
  630MOL0     C86804   6.854   7.122   0.493 -0.4607  0.9156 -0.4021
  630MOL0     O86805   6.844   7.084   0.614  0.3109 -0.2308 -0.1339
  630MOL0     C86806   6.722   7.123   0.662 -0.0243  0.0589 -0.4657
  630MOL0     C86807   6.617   7.031   0.676 -0.0955  0.4363 -0.4593
  630MOL0     C86808   6.478   7.061   0.710  0.2711 -1.1394  0.1026
  630MOL0     C86809   6.442   7.197   0.713  0.3805  0.6351 -0.9284
  630MOL0     O86810   6.308   7.225   0.741 -0.1270 -0.0308  0.0580
  630MOL0     C86811   6.274   7.367   0.766  0.9394 -0.2838 -0.3676
  630MOL0     C86812   6.125   7.358   0.806 -0.4061  0.1207  1.0635
  630MOL0     C86813   6.019   7.321   0.699 -0.7443  0.2745  0.0496
  630MOL0     C86814   5.897   7.264   0.767 -0.1527  0.7403 -0.7518
  630MOL0     C86815   5.797   7.367   0.800  1.3226 -1.0950 -0.3895
  630MOL0     C86816   5.707   7.431   0.686 -0.2263 -0.2883 -0.0201
  630MOL0     C86817   5.579   7.510   0.744 -1.1705  0.3306 -0.0525
  630MOL0     C86818   5.607   7.642   0.824  1.1377  0.1697  0.2756
  630MOL0     N86819   5.474   7.712   0.841  0.1142  0.4606 -0.2553
  630MOL0     C86820   5.385   7.756   0.753  0.1249 -0.1927 -0.4336
  630MOL0     C86821   5.278   7.805   0.821 -0.3835  0.2366  0.3593
  630MOL0     C86822   5.154   7.860   0.764  0.5246  0.3058 -0.5369
  630MOL0     C86823   5.181   7.967   0.658 -1.1113 -0.3732 -0.4799
  630MOL0     C86824   5.264   8.081   0.718  0.1932 -1.0427 -0.1726
  630MOL0     C86825   5.328   8.170   0.599 -0.1887 -0.1559  0.1830
  630MOL0     O86826   5.406   8.079   0.519  0.0800 -0.5009  0.4147
  630MOL0     C86827   5.529   8.032   0.557  0.2741  0.0814  0.4929
  630MOL0     C86828   5.592   7.968   0.454  0.2739  0.2055 -0.1084
  630MOL0     C86829   5.717   7.912   0.469 -0.9001 -1.1761 -0.1202
  630MOL0     C86830   5.790   7.837   0.352  0.6295 -0.0840  0.7393
  630MOL0     C86831   5.785   7.935   0.588 -0.0569 -0.0273  0.6553
  630MOL0     C86832   5.899   7.861   0.633 -0.1992  0.1867  0.2003
  630MOL0     O86833   5.993   7.927   0.706  0.0384  0.0909  0.5112
  630MOL0     C86834   6.080   7.853   0.783 -0.8143 -0.6641 -0.0410
  630MOL0     C86835   6.059   7.852   0.920 -0.5134 -0.2428  1.0130
  630MOL0     C86836   6.142   7.779   1.008 -0.6647 -0.0137  0.9192
  630MOL0     C86837   6.246   7.705   0.950  0.1801  0.5925  0.2840
  630MOL0     O86838   6.335   7.620   1.015 -1.0852  0.5189 -0.1694
  630MOL0     C86839   6.302   7.592   1.146  0.6400 -0.2324 -0.5206
  630MOL0     C86840   6.381   7.468   1.181 -0.2763  0.4552 -1.2290
  630MOL0     C86841   6.535   7.485   1.197  0.4978 -0.3536  0.4159
  630MOL0     C86842   6.589   7.371   1.278 -0.0931  1.1718  0.5555
  630MOL0     C86843   6.740   7.393   1.309 -0.1382 -0.7510 -0.3668
  630MOL0     C86844   6.808   7.259   1.346 -0.3580 -0.3346 -0.3505
  630MOL0     C86845   6.946   7.280   1.396  0.2372 -0.0868 -0.5983
  630MOL0     C86846   7.023   7.140   1.432  0.9771 -0.1283  0.1267
  630MOL0    Cl86847   6.941   7.075   1.584 -0.1232 -0.1909 -0.4105
  630MOL0     C86848   6.257   7.697   0.816 -0.3263 -0.1347 -0.0934
  630MOL0     C86849   6.174   7.767   0.726  0.9859  0.4058 -0.4414
  630MOL0     O86850   5.902   7.743   0.605 -0.7354  0.2799  0.4902
  630MOL0     C86851   5.732   8.024   0.686  0.2578  0.5969 -0.9640
  630MOL0     C86852   5.599   8.071   0.668 -0.3043  0.7187  0.2179
  630MOL0     N86853   5.301   7.785   0.958  0.4317 -1.3057  0.0313
  630MOL0     N86854   5.423   7.740   0.967 -0.1044  0.1209  0.0069
  630MOL0     C86855   6.544   7.297   0.719  0.7985 -0.5528  0.4663
  630MOL0     C86856   6.675   7.259   0.685  0.1317  0.3895 -0.7396
  630MOL0     C86857   6.991   7.146   0.436  0.4431 -0.4397  0.1358
  630MOL0     C86858   7.102   7.096   0.515  0.0825  1.4263  0.4708
  630MOL0     C86859   7.232   7.105   0.464 -0.2797 -0.2162 -0.2614
  630MOL0     C86860   7.268   7.165   0.339  0.5934  0.8479  0.1337
  630MOL0     O86861   7.389   7.167   0.282 -0.9030 -0.3967  0.1623
  630MOL0     C86862   7.506   7.146   0.354  0.5049  0.0702  0.0483
  630MOL0     C86863   7.639   7.173   0.277  0.0233 -0.1008  0.3548
  630MOL0     C86864   7.645   7.111   0.143  0.0890  0.3858  0.8174
  630MOL0     C86865   7.629   6.956   0.138 -0.1381 -0.5016 -1.0616
  630MOL0     C86866   7.733   6.880   0.205 -0.8813 -0.4840  0.7817
  630MOL0     C86867   7.821   6.811   0.246  0.3768  0.5328 -1.0164
  630MOL0     C86868   7.152   7.223   0.278 -0.8184  0.5182 -0.3032
  630MOL0     C86869   7.018   7.214   0.317  0.0842 -0.3159  1.0672
  630MOL0     C86870   6.923   7.276   0.215  0.9399  0.2182 -0.5990
  630MOL0     H86871   6.651   6.929   0.661 -2.7425 -0.9464  2.1568
  630MOL0     H86872   6.410   6.979   0.727 -0.9517 -0.6383 -2.0512
  630MOL0     H86873   6.297   7.432   0.681  1.0421 -1.1630 -1.0336
  630MOL0     H86874   6.332   7.406   0.850 -0.2066 -0.3454  0.4612
  630MOL0     H86875   6.127   7.290   0.891  1.1939  1.4107  2.1339
  630MOL0     H86876   6.095   7.455   0.846  0.6696 -0.2187  2.7833
  630MOL0     H86877   5.990   7.407   0.637  3.4189  1.9346  0.0853
  630MOL0     H86878   6.059   7.254   0.623 -1.5091  2.2077 -2.1878
  630MOL0     H86879   5.849   7.202   0.690 -1.4680 -1.1228  1.4271
  630MOL0     H86880   5.921   7.192   0.847 -1.7171 -1.2703 -1.9799
  630MOL0     H86881   5.843   7.441   0.867  1.0097  1.1013 -2.4619
  630MOL0     H86882   5.721   7.321   0.863  1.5691 -1.4403 -0.3387
  630MOL0     H86883   5.759   7.495   0.615  1.8641 -0.6247  1.1404
  630MOL0     H86884   5.668   7.354   0.619 -0.8331  0.5028 -0.6030
  630MOL0     H86885   5.520   7.447   0.811  1.2499 -0.4749  1.4777
  630MOL0     H86886   5.508   7.537   0.666 -3.1318 -4.8387 -0.4131
  630MOL0     H86887   5.635   7.603   0.923 -0.8282 -0.7866  0.4926
  630MOL0     H86888   5.680   7.705   0.772  0.9463 -1.3038 -1.8915
  630MOL0     H86889   5.408   7.758   0.647  1.3601  5.1988 -0.3507
  630MOL0     H86890   5.098   7.911   0.844 -0.9211  0.8676 -1.8606
  630MOL0     H86891   5.096   7.781   0.717 -2.6654  2.7854 -1.0641
  630MOL0     H86892   5.228   7.907   0.580  1.8127  1.0512  0.0475
  630MOL0     H86893   5.095   8.008   0.604 -0.1467  2.0485 -0.3219
  630MOL0     H86894   5.193   8.151   0.764  0.9469 -1.2565  1.3871
  630MOL0     H86895   5.343   8.058   0.790  0.3069  0.6368  0.2763
  630MOL0     H86896   5.243   8.205   0.540 -1.1999  0.7280  2.0726
  630MOL0     H86897   5.385   8.257   0.632  2.6643  0.4271 -5.0836
  630MOL0     H86898   5.535   7.954   0.362 -1.0793  1.4087  0.5042
  630MOL0     H86899   5.759   7.890   0.261 -0.0310  0.1197  1.0728
  630MOL0     H86900   5.766   7.731   0.349  2.7436 -0.5823  0.2273
  630MOL0     H86901   5.898   7.850   0.341  0.5981 -1.2272 -1.3963
  630MOL0     H86902   5.973   7.907   0.955 -0.0890  1.1769 -0.0981
  630MOL0     H86903   6.123   7.777   1.115 -2.0384 -3.2976  0.7277
  630MOL0     H86904   6.325   7.672   1.217  1.8558 -0.4712 -0.6138
  630MOL0     H86905   6.193   7.586   1.153  0.7561 -1.8301  0.6785
  630MOL0     H86906   6.347   7.434   1.279 -1.2034  1.3783 -1.2092
  630MOL0     H86907   6.359   7.399   1.099 -3.3588  0.6675 -0.7089
  630MOL0     H86908   6.577   7.573   1.246  3.6848 -2.2981  1.4636
  630MOL0     H86909   6.564   7.490   1.091 -1.2155  0.7598 -0.0512
  630MOL0     H86910   6.577   7.273   1.231 -1.6279  1.0659  1.1305
  630MOL0     H86911   6.531   7.361   1.370  2.2784  1.0847  2.1282
  630MOL0     H86912   6.805   7.441   1.235 -1.6058 -0.8464 -1.7651
  630MOL0     H86913   6.751   7.452   1.401  1.3975  1.7403 -2.0317
  630MOL0     H86914   6.805   7.184   1.267 -2.1346 -0.5520 -0.1153
  630MOL0     H86915   6.744   7.199   1.411  1.1758 -5.6226 -3.1433
  630MOL0     H86916   6.940   7.352   1.478  0.9606 -0.4443 -0.2169
  630MOL0     H86917   7.006   7.308   1.309 -0.8998  0.8291 -1.0971
  630MOL0     H86918   7.131   7.150   1.444  1.4021 -0.8078 -2.6174
  630MOL0     H86919   7.007   7.070   1.350 -3.9211 -0.8206  1.3642
  630MOL0     H86920   6.336   7.630   0.782  0.8486  0.9886  0.3249
  630MOL0     H86921   6.173   7.756   0.618 -1.0902  0.9577 -0.5142
  630MOL0     H86922   5.786   8.039   0.779  0.1665 -1.2525 -0.5801
  630MOL0     H86923   5.550   8.125   0.748 -1.4427 -1.8135  1.3731
  630MOL0     H86924   6.513   7.400   0.734 -0.2160 -0.6189 -1.0332
  630MOL0     H86925   6.739   7.346   0.691 -0.7386  0.9865  0.2132
  630MOL0     H86926   7.096   7.028   0.599 -0.4491  1.4376  0.4464
  630MOL0     H86927   7.315   7.063   0.521 -1.9393 -0.0570  2.4556
  630MOL0     H86928   7.512   7.207   0.445 -1.5881 -1.2200  1.1364
  630MOL0     H86929   7.502   7.041   0.385 -3.0684 -0.2870 -1.1185
  630MOL0     H86930   7.718   7.133   0.341  0.7939  2.6094  1.2562
  630MOL0     H86931   7.651   7.282   0.275 -1.1864  0.0534 -1.5617
  630MOL0     H86932   7.568   7.153   0.078  1.6825  0.4900 -1.0908
  630MOL0     H86933   7.738   7.141   0.094  0.2689 -2.5992 -0.8766
  630MOL0     H86934   7.616   6.930   0.032 -0.9565 -1.5028 -0.7332
  630MOL0     H86935   7.534   6.928   0.184  0.9673  1.6603  2.9980
  630MOL0     H86936   7.900   6.754   0.290  0.5019  3.0203  2.3102
  630MOL0     H86937   7.171   7.280   0.188 -0.9501 -0.3629 -0.9061
  630MOL0     H86938   6.824   7.298   0.256  1.3113 -1.8002  1.6023
  630MOL0     H86939   6.963   7.369   0.174  1.1979  0.7153  0.7344
  630MOL0     H86940   6.930   7.197   0.139  3.5815 -0.7676  0.5436
  631MOL0     O86941   4.321   4.572   7.625  0.9891  1.0944 -0.6914
  631MOL0     C86942   4.298   4.494   7.722  0.4278 -0.7705 -0.2636
  631MOL0     O86943   4.232   4.529   7.836 -0.4559 -0.1224 -0.0161
  631MOL0     C86944   4.137   4.628   7.826 -0.0605 -1.2795  0.9154
  631MOL0     C86945   4.004   4.592   7.801 -0.6287 -0.4432  1.0665
  631MOL0     C86946   3.912   4.686   7.772 -0.3425  0.5496 -0.5231
  631MOL0     C86947   3.941   4.817   7.759 -0.1860 -0.2802  1.2202
  631MOL0     O86948   3.846   4.911   7.747  1.3542  0.1209 -0.0365
  631MOL0     C86949   3.714   4.896   7.810  0.2534  0.4873 -0.1094
  631MOL0     C86950   3.733   4.933   7.958 -0.0046  0.5815 -0.2316
  631MOL0     C86951   3.754   5.081   7.981 -0.4359  0.0444 -0.1469
  631MOL0     C86952   3.630   5.142   8.045  1.0682 -0.3785 -0.0834
  631MOL0     C86953   3.516   5.166   7.953 -0.5841 -0.1584 -1.1096
  631MOL0     C86954   3.411   5.264   8.017  0.0128  0.3656  0.2658
  631MOL0     C86955   3.310   5.188   8.115 -0.3974 -0.3934 -0.4949
  631MOL0     C86956   3.203   5.091   8.053 -0.0202  0.0773  0.5814
  631MOL0     N86957   3.144   5.140   7.931  0.5282  0.1292  0.5407
  631MOL0     C86958   3.027   5.216   7.921 -0.1710 -0.0692 -0.8067
  631MOL0     C86959   3.008   5.236   7.789  0.8143  0.7124  0.0933
  631MOL0     C86960   2.891   5.323   7.728  0.5967  0.1676  0.0374
  631MOL0     C86961   2.756   5.258   7.752  0.2801  0.1002  0.1940
  631MOL0     C86962   2.728   5.143   7.647 -0.9433 -1.2205 -0.6350
  631MOL0     C86963   2.599   5.065   7.687 -0.1423  0.5532  0.2461
  631MOL0     O86964   2.478   5.138   7.656 -0.2408  0.0209 -0.0919
  631MOL0     C86965   2.447   5.149   7.528  0.5653  0.2607 -0.7182
  631MOL0     C86966   2.356   5.059   7.471 -0.2254 -0.5437 -0.5134
  631MOL0     C86967   2.304   5.073   7.341 -0.3057 -0.3873  0.1053
  631MOL0     C86968   2.216   4.960   7.294  0.2704 -0.6692 -0.0799
  631MOL0     C86969   2.360   5.180   7.263  0.6750 -0.3138  0.9502
  631MOL0     C86970   2.315   5.202   7.123 -0.1677 -0.3707 -0.1819
  631MOL0     O86971   2.290   5.100   7.039 -0.4017  0.0907 -0.0663
  631MOL0     C86972   2.249   5.136   6.912  1.3531 -0.6985  0.2941
  631MOL0     C86973   2.345   5.176   6.819 -0.4073 -0.4478 -0.1727
  631MOL0     C86974   2.316   5.199   6.686 -1.0796  1.0811 -0.8576
  631MOL0     C86975   2.190   5.169   6.638  0.1181  0.3195 -0.6896
  631MOL0     O86976   2.158   5.200   6.505 -0.1525 -0.2997  0.0914
  631MOL0     C86977   2.030   5.237   6.462  0.2987  1.3984  0.0141
  631MOL0     C86978   2.035   5.325   6.340 -0.0071  0.1183  0.1358
  631MOL0     C86979   1.897   5.376   6.292 -0.2809 -0.7362  0.7937
  631MOL0     C86980   1.889   5.482   6.180 -0.3055  0.3105  0.0311
  631MOL0     C86981   1.747   5.515   6.131 -0.8743 -0.5533 -0.0152
  631MOL0     C86982   1.759   5.591   6.000 -0.7143 -0.1879 -0.3187
  631MOL0     C86983   1.631   5.656   5.947  0.2660 -0.4695  0.0775
  631MOL0     C86984   1.669   5.777   5.864  0.0365 -1.0894 -0.3174
  631MOL0    Cl86985   1.528   5.813   5.764 -0.6076  0.0391  0.1858
  631MOL0     C86986   2.095   5.099   6.723 -0.2348 -0.8101  0.1506
  631MOL0     C86987   2.125   5.091   6.868 -0.1740 -0.2265 -0.0840
  631MOL0     O86988   2.302   5.321   7.095  0.3318 -0.1830 -0.2738
  631MOL0     C86989   2.443   5.272   7.329 -0.4341 -0.3238  0.9309
  631MOL0     C86990   2.485   5.265   7.461  0.3381 -0.2319 -0.1438
  631MOL0     N86991   3.106   5.179   7.720  0.3728 -0.5630 -0.6629
  631MOL0     N86992   3.186   5.125   7.803 -0.5772 -0.4728 -0.5249
  631MOL0     C86993   4.072   4.857   7.792 -0.2376  0.6620  0.2257
  631MOL0     C86994   4.173   4.760   7.825  0.4705  0.1901  0.5254
  631MOL0     C86995   4.344   4.352   7.729 -0.8220 -0.8548 -0.0636
  631MOL0     C86996   4.275   4.259   7.798  0.3051  0.8447 -0.4697
  631MOL0     C86997   4.323   4.122   7.816 -0.2823 -0.3557  0.0065
  631MOL0     C86998   4.441   4.081   7.753  0.7491 -0.0762  1.0370
  631MOL0     O86999   4.493   3.954   7.729  0.1405  0.5609 -0.9023
  631MOL0     C87000   4.403   3.838   7.733 -0.2338  0.6793  0.0779
  631MOL0     C87001   4.379   3.782   7.879  0.1872 -0.2098 -0.3401
  631MOL0     C87002   4.299   3.656   7.873 -0.4750  0.2843  0.2757
  631MOL0     C87003   4.289   3.596   8.006  0.2755  0.3761 -0.2033
  631MOL0     C87004   4.183   3.494   8.001  0.0498  0.1391  0.4412
  631MOL0     C87005   4.098   3.410   7.998 -0.8332 -0.4134  0.2060
  631MOL0     C87006   4.513   4.180   7.686 -0.6496 -0.7634  0.5922
  631MOL0     C87007   4.467   4.312   7.674 -0.8609  0.2295  0.6171
  631MOL0     C87008   4.546   4.410   7.596 -0.5942  0.4650  0.6157
  631MOL0     H87009   3.975   4.487   7.807 -1.3331 -0.4307 -1.2933
  631MOL0     H87010   3.810   4.660   7.746  0.4203 -0.9698 -2.1717
  631MOL0     H87011   3.673   4.796   7.795 -2.5654  1.9228 -3.4060
  631MOL0     H87012   3.641   4.964   7.765  1.6280  2.8172  1.0437
  631MOL0     H87013   3.651   4.886   8.014  0.8415 -1.6718 -0.7912
  631MOL0     H87014   3.820   4.880   7.998 -0.5383  1.3921  2.2160
  631MOL0     H87015   3.846   5.088   8.041 -0.0214  1.2198 -0.8625
  631MOL0     H87016   3.786   5.125   7.886  0.3897  0.3101  0.2375
  631MOL0     H87017   3.598   5.072   8.122  2.2779  0.3620  1.1305
  631MOL0     H87018   3.651   5.235   8.099 -1.9735  0.5650 -0.3499
  631MOL0     H87019   3.457   5.078   7.924 -1.0714  0.1158 -0.9676
  631MOL0     H87020   3.557   5.220   7.867  1.8008 -1.6064 -0.9487
  631MOL0     H87021   3.461   5.340   8.077 -0.3999 -0.1909  1.3452
  631MOL0     H87022   3.352   5.316   7.941  1.4556 -0.0932 -1.2533
  631MOL0     H87023   3.250   5.269   8.159 -1.2894 -0.2049 -1.9859
  631MOL0     H87024   3.356   5.130   8.195 -0.1741  2.0354  1.2578
  631MOL0     H87025   3.244   4.990   8.044 -0.2782 -0.1330  1.6479
  631MOL0     H87026   3.132   5.079   8.135  0.5492  0.2236  1.1093
  631MOL0     H87027   2.978   5.249   8.012  3.0938  1.2161  0.6459
  631MOL0     H87028   2.902   5.346   7.621 -4.1841  2.5385 -0.2078
  631MOL0     H87029   2.896   5.422   7.775 -0.7862 -0.6595  2.0479
  631MOL0     H87030   2.766   5.215   7.852  0.2045  2.4649  1.2820
  631MOL0     H87031   2.677   5.333   7.765  0.9575  0.7772  0.4350
  631MOL0     H87032   2.718   5.183   7.546 -0.4281 -0.0159 -0.2301
  631MOL0     H87033   2.812   5.073   7.638  1.5814  1.7703 -2.2513
  631MOL0     H87034   2.589   4.969   7.635 -2.5792  0.6480  0.4056
  631MOL0     H87035   2.610   5.043   7.793  0.1641  0.3332  0.1713
  631MOL0     H87036   2.324   4.976   7.534 -1.9568  0.1347 -0.4433
  631MOL0     H87037   2.128   4.999   7.242 -0.3894  1.8465  2.6702
  631MOL0     H87038   2.178   4.893   7.372  0.0561  0.3475  0.7035
  631MOL0     H87039   2.276   4.896   7.229  2.8423  0.7289  0.7977
  631MOL0     H87040   2.450   5.170   6.844 -0.7872 -2.9927  1.1169
  631MOL0     H87041   2.394   5.236   6.621 -0.5772  1.6357  0.0380
  631MOL0     H87042   1.981   5.146   6.426  0.7864  0.5746  1.3849
  631MOL0     H87043   1.974   5.281   6.544  1.1649 -0.7437  1.8459
  631MOL0     H87044   2.081   5.421   6.365  0.7556  0.7169 -3.1748
  631MOL0     H87045   2.089   5.281   6.256 -1.6151 -1.9134  0.0812
  631MOL0     H87046   1.847   5.427   6.374  0.2201  2.8794 -0.9406
  631MOL0     H87047   1.839   5.289   6.257 -1.1805 -0.8763  2.5410
  631MOL0     H87048   1.930   5.428   6.093 -0.5026 -4.7235  2.7010
  631MOL0     H87049   1.939   5.572   6.217 -1.7677  0.8481  0.7795
  631MOL0     H87050   1.693   5.421   6.112 -0.6262 -0.3931 -1.6673
  631MOL0     H87051   1.701   5.580   6.206  0.0784  0.6549 -0.4644
  631MOL0     H87052   1.788   5.517   5.925 -3.1864 -1.3780 -0.1894
  631MOL0     H87053   1.833   5.671   6.007 -0.6902 -0.3211  1.3403
  631MOL0     H87054   1.570   5.677   6.036  1.5602 -0.5284  0.9970
  631MOL0     H87055   1.578   5.586   5.882  1.9588 -1.0965 -0.6848
  631MOL0     H87056   1.752   5.760   5.796  1.1494  0.4034  0.6020
  631MOL0     H87057   1.692   5.861   5.931 -2.2541 -0.8418  0.2565
  631MOL0     H87058   1.996   5.070   6.691  0.9877 -3.4132 -1.6226
  631MOL0     H87059   2.047   5.052   6.933  0.5381  0.5850  1.3237
  631MOL0     H87060   2.485   5.353   7.270 -1.0278 -1.3964 -1.0629
  631MOL0     H87061   2.548   5.345   7.498  0.7175  1.0163 -3.1923
  631MOL0     H87062   4.104   4.960   7.786 -0.2368  0.9397  3.2028
  631MOL0     H87063   4.275   4.790   7.845  0.8428 -0.5848 -0.1582
  631MOL0     H87064   4.178   4.290   7.836 -0.0479  0.5718 -1.1353
  631MOL0     H87065   4.257   4.055   7.870  0.5569  0.6831  2.4495
  631MOL0     H87066   4.303   3.847   7.688 -0.4209 -1.9683 -0.2192
  631MOL0     H87067   4.453   3.756   7.681  2.3939  0.6476  2.4169
  631MOL0     H87068   4.327   3.853   7.945 -1.6158 -0.1669 -1.7190
  631MOL0     H87069   4.477   3.763   7.924  0.4657  2.5871  0.4667
  631MOL0     H87070   4.195   3.677   7.847  0.0237 -0.7861 -3.0404
  631MOL0     H87071   4.343   3.584   7.804  0.1234  0.3645  0.5642
  631MOL0     H87072   4.267   3.673   8.081 -1.6525 -0.4805  0.1791
  631MOL0     H87073   4.383   3.553   8.041  1.4080  2.4023 -0.5995
  631MOL0     H87074   4.026   3.331   7.992 -1.6148  0.3054 -0.2045
  631MOL0     H87075   4.605   4.150   7.637 -0.5502 -0.7057  0.7417
  631MOL0     H87076   4.649   4.375   7.590 -0.7657  0.0069  0.2356
  631MOL0     H87077   4.514   4.422   7.492  0.8952  2.4603  0.3257
  631MOL0     H87078   4.546   4.513   7.632  1.4096  2.1364 -3.4298
  632MOL0     O87079   4.248   8.738   4.580  0.6124  0.1925 -0.3129
  632MOL0     C87080   4.338   8.689   4.637  0.0302 -0.0209  0.3509
  632MOL0     O87081   4.356   8.553   4.643  0.0590  0.6382 -0.4766
  632MOL0     C87082   4.259   8.469   4.595  0.0901 -0.0831  0.6712
  632MOL0     C87083   4.210   8.378   4.687 -0.1534 -0.0134  0.0951
  632MOL0     C87084   4.124   8.280   4.639 -0.1705 -0.1632  0.5526
  632MOL0     C87085   4.096   8.252   4.503 -0.3632 -0.8909  0.2722
  632MOL0     O87086   4.016   8.148   4.468  0.1862 -0.2289  0.4262
  632MOL0     C87087   3.954   8.133   4.336 -0.4168 -0.3495  0.3125
  632MOL0     C87088   3.829   8.219   4.336  0.3838  0.2332 -0.0875
  632MOL0     C87089   3.740   8.168   4.221  0.2077 -1.3976  0.0019
  632MOL0     C87090   3.648   8.269   4.158 -0.2865 -0.1304  1.0514
  632MOL0     C87091   3.539   8.228   4.052  0.4764  0.6496 -0.6925
  632MOL0     C87092   3.465   8.349   4.009  0.8914  0.2364 -0.0710
  632MOL0     C87093   3.345   8.294   3.927 -0.4523 -0.1020  0.1120
  632MOL0     C87094   3.263   8.401   3.852  0.5787 -0.3266 -0.0221
  632MOL0     N87095   3.259   8.524   3.924  0.1854 -0.3487  0.0784
  632MOL0     C87096   3.298   8.643   3.874  0.2928 -0.5403  0.0342
  632MOL0     C87097   3.260   8.737   3.970 -1.4663 -0.1237  0.7303
  632MOL0     C87098   3.283   8.884   3.967  0.0095 -0.0592  0.3723
  632MOL0     C87099   3.435   8.920   3.978 -0.3969 -0.5249 -0.4894
  632MOL0     C87100   3.531   8.876   3.861  0.2541  0.4303 -0.0082
  632MOL0     C87101   3.665   8.954   3.856 -0.3318 -0.2002  0.1580
  632MOL0     O87102   3.711   8.957   3.992  0.6205  0.1803 -0.2829
  632MOL0     C87103   3.841   9.007   4.016  0.3415  0.8013 -0.0970
  632MOL0     C87104   3.945   9.016   3.913  0.3677  0.9936 -0.3937
  632MOL0     C87105   4.079   9.040   3.950  0.5786  0.9026  0.7137
  632MOL0     C87106   4.193   9.025   3.849  0.3835  0.5066 -0.0495
  632MOL0     C87107   4.100   9.074   4.093 -0.5991  0.0303  0.6757
  632MOL0     C87108   4.232   9.107   4.136 -0.7106  0.4114  0.0377
  632MOL0     O87109   4.324   9.009   4.133 -0.9068  0.4770 -0.3621
  632MOL0     C87110   4.456   9.044   4.149  0.4426 -0.4728  0.2884
  632MOL0     C87111   4.512   9.065   4.268 -0.1168 -0.1741 -0.3059
  632MOL0     C87112   4.642   9.116   4.280 -0.2814 -0.4280  0.1248
  632MOL0     C87113   4.729   9.111   4.173  0.3928  0.5915  0.2610
  632MOL0     O87114   4.859   9.144   4.185  0.3345  0.5294 -0.3565
  632MOL0     C87115   4.944   9.123   4.076 -0.0298  1.1264  0.3666
  632MOL0     C87116   4.968   9.247   3.992  0.0191  0.1976 -0.3656
  632MOL0     C87117   5.060   9.348   4.055 -0.3601 -0.0726  0.6864
  632MOL0     C87118   5.206   9.303   4.068 -0.3681 -0.1279  0.1223
  632MOL0     C87119   5.292   9.422   4.092  0.2619 -0.4449 -0.8831
  632MOL0     C87120   5.435   9.380   4.112 -0.2593  0.3035  0.2480
  632MOL0     C87121   5.515   9.497   4.166  0.3116 -0.2151  0.7792
  632MOL0     C87122   5.667   9.485   4.170  0.3755 -0.6863  0.1325
  632MOL0    Cl87123   5.745   9.367   4.281 -0.6353  0.0616  0.0637
  632MOL0     C87124   4.675   9.076   4.047 -0.3171  0.0186  0.8167
  632MOL0     C87125   4.537   9.046   4.035 -0.1012  0.6184  0.3352
  632MOL0     O87126   4.253   9.223   4.166  0.2605  0.4006  0.3696
  632MOL0     C87127   3.996   9.084   4.188 -0.0115 -0.2523  0.9657
  632MOL0     C87128   3.868   9.055   4.146  0.3182 -0.1953  0.2813
  632MOL0     N87129   3.202   8.662   4.068 -0.2740  0.1060 -0.1739
  632MOL0     N87130   3.205   8.541   4.043  0.4768  0.1817  0.8150
  632MOL0     C87131   4.141   8.356   4.414 -0.5345  0.1777 -0.6402
  632MOL0     C87132   4.214   8.470   4.459  0.4260  0.1188  0.0023
  632MOL0     C87133   4.425   8.774   4.729  0.8300 -0.1517 -0.1989
  632MOL0     C87134   4.508   8.701   4.809 -0.1808 -0.1342 -0.9005
  632MOL0     C87135   4.585   8.761   4.911 -0.7620  0.0867  0.7106
  632MOL0     C87136   4.578   8.907   4.929  0.0277  0.2786  0.0464
  632MOL0     O87137   4.665   8.954   5.020 -0.7233 -0.6473  0.2519
  632MOL0     C87138   4.696   9.090   5.032 -0.5281 -0.3133 -0.7913
  632MOL0     C87139   4.770   9.126   5.162  0.1805 -0.5722 -0.7649
  632MOL0     C87140   4.785   9.280   5.179  1.1268 -0.6122 -0.6136
  632MOL0     C87141   4.823   9.311   5.316 -0.1784  0.6930 -0.1302
  632MOL0     C87142   4.816   9.455   5.334  0.7597 -0.8988  0.5402
  632MOL0     C87143   4.818   9.578   5.322 -0.2029 -0.4486 -0.5943
  632MOL0     C87144   4.493   8.975   4.847  0.1820 -0.7848  0.6602
  632MOL0     C87145   4.411   8.915   4.750  0.0827 -0.2168  0.0408
  632MOL0     C87146   4.322   9.004   4.669 -0.1644  0.5855  0.0858
  632MOL0     H87147   4.228   8.393   4.793 -3.8875 -1.0378  1.0310
  632MOL0     H87148   4.092   8.216   4.721 -0.2046 -0.2449  0.4755
  632MOL0     H87149   3.931   8.031   4.302 -3.2494  0.7648 -1.5334
  632MOL0     H87150   4.016   8.190   4.267  2.2973  0.2713  3.0509
  632MOL0     H87151   3.773   8.214   4.430  0.1903  4.4593  0.2144
  632MOL0     H87152   3.848   8.324   4.312  2.4074 -0.5684 -2.3864
  632MOL0     H87153   3.804   8.144   4.136  1.9213  0.0843  0.8087
  632MOL0     H87154   3.686   8.074   4.239  2.5150 -2.8676 -0.4533
  632MOL0     H87155   3.593   8.326   4.233  0.7589  2.6321 -0.1088
  632MOL0     H87156   3.722   8.339   4.117 -0.5408 -0.9394 -0.8993
  632MOL0     H87157   3.472   8.160   4.104 -0.2654  1.8286 -0.0719
  632MOL0     H87158   3.593   8.165   3.980 -0.1158 -1.0712  0.3102
  632MOL0     H87159   3.426   8.408   4.092 -3.0849 -2.3934  0.1872
  632MOL0     H87160   3.524   8.420   3.950 -0.7107  4.5209  2.9489
  632MOL0     H87161   3.271   8.263   4.001 -1.4185 -0.3980 -0.9455
  632MOL0     H87162   3.362   8.211   3.858  0.4562 -0.3540  0.6250
  632MOL0     H87163   3.296   8.412   3.749  0.3407 -2.9994 -0.4418
  632MOL0     H87164   3.166   8.355   3.833  0.9299 -1.3248  0.5098
  632MOL0     H87165   3.339   8.673   3.779  0.8365 -0.3446  0.3225
  632MOL0     H87166   3.227   8.942   4.041  3.6144 -1.5097  4.7508
  632MOL0     H87167   3.241   8.919   3.873  0.3451  1.0511  0.6150
  632MOL0     H87168   3.447   9.025   4.003 -1.4545 -0.4555 -0.2266
  632MOL0     H87169   3.481   8.863   4.060  0.6836 -1.3768 -1.6474
  632MOL0     H87170   3.558   8.770   3.864 -0.5110  0.2532  0.8733
  632MOL0     H87171   3.476   8.897   3.768  0.2243  0.8746  0.1074
  632MOL0     H87172   3.737   8.907   3.789  2.6958  6.6345 -2.2720
  632MOL0     H87173   3.640   9.054   3.820  0.1024 -0.4111 -0.7525
  632MOL0     H87174   3.914   8.978   3.816 -2.8158 -2.9072  1.7843
  632MOL0     H87175   4.242   8.928   3.862  1.3253  0.9398 -0.2180
  632MOL0     H87176   4.269   9.103   3.860 -0.4154  1.0166  2.8675
  632MOL0     H87177   4.148   9.028   3.750  1.5390  0.0540 -0.6075
  632MOL0     H87178   4.455   9.075   4.360 -0.2491 -1.3784 -0.2453
  632MOL0     H87179   4.685   9.147   4.375 -0.5183  0.4886 -0.0533
  632MOL0     H87180   5.046   9.094   4.104  1.3606  2.4018 -2.7787
  632MOL0     H87181   4.919   9.054   3.995  2.3786  0.8206 -0.2189
  632MOL0     H87182   5.000   9.226   3.890 -0.0555 -2.7942  0.1402
  632MOL0     H87183   4.876   9.305   3.983  0.7518  1.2775 -1.1044
  632MOL0     H87184   5.021   9.371   4.154 -1.3255  0.6507  0.1549
  632MOL0     H87185   5.058   9.438   3.993 -0.4525  0.6932  1.7717
  632MOL0     H87186   5.241   9.262   3.973 -2.8959 -0.0082 -0.9494
  632MOL0     H87187   5.221   9.230   4.148 -0.8810 -0.8603 -0.4339
  632MOL0     H87188   5.293   9.494   4.010  0.1781  4.1662  2.7463
  632MOL0     H87189   5.253   9.484   4.174  0.0995  0.2553 -1.4769
  632MOL0     H87190   5.489   9.362   4.019  0.5593 -1.4816  1.0067
  632MOL0     H87191   5.438   9.291   4.176 -0.1091  0.4037  0.3803
  632MOL0     H87192   5.475   9.538   4.260 -2.0252  1.3018 -0.7750
  632MOL0     H87193   5.494   9.571   4.088  1.1603 -0.1507  0.6054
  632MOL0     H87194   5.698   9.586   4.197 -1.4391 -0.2030  0.5599
  632MOL0     H87195   5.706   9.461   4.071  1.0131 -1.4799  0.5557
  632MOL0     H87196   4.730   9.072   3.953  0.9160  1.6496  1.4203
  632MOL0     H87197   4.499   9.019   3.938  0.6997  0.2228  0.1256
  632MOL0     H87198   4.006   9.119   4.290 -2.0372 -1.2100  1.5229
  632MOL0     H87199   3.792   9.051   4.223 -1.7417 -2.9264 -1.6805
  632MOL0     H87200   4.104   8.371   4.313  2.0324  2.0567 -1.4196
  632MOL0     H87201   4.243   8.548   4.390 -2.0913  0.3358 -0.9169
  632MOL0     H87202   4.526   8.594   4.807  0.0377 -0.1257  0.0369
  632MOL0     H87203   4.643   8.689   4.968 -1.2237 -2.4725 -1.7923
  632MOL0     H87204   4.768   9.102   4.951  2.3566 -4.2164  0.8694
  632MOL0     H87205   4.611   9.159   5.024 -0.4377  0.2107  1.8037
  632MOL0     H87206   4.868   9.078   5.161 -1.4206 -4.1835 -0.3447
  632MOL0     H87207   4.701   9.085   5.236 -1.9810 -0.2909 -2.5129
  632MOL0     H87208   4.856   9.331   5.113  1.7645  0.5592  0.9317
  632MOL0     H87209   4.688   9.330   5.164  1.2129  0.7175  2.4784
  632MOL0     H87210   4.923   9.281   5.349  0.7559  0.1334 -3.1103
  632MOL0     H87211   4.758   9.253   5.382 -0.4411 -0.6294 -1.4964
  632MOL0     H87212   4.833   9.684   5.335  1.1380 -0.8465  1.5203
  632MOL0     H87213   4.482   9.082   4.863  2.9869  0.1540 -2.4821
  632MOL0     H87214   4.362   9.020   4.568  1.7758 -0.0715  0.6955
  632MOL0     H87215   4.227   8.955   4.648  0.6245 -0.2558 -1.7273
  632MOL0     H87216   4.314   9.101   4.718 -0.2908  0.3121  0.6098
  633MOL0     O87217   3.574   1.737   0.323  0.3688 -0.6286  0.0878
  633MOL0     C87218   3.512   1.839   0.344  0.8053 -0.1078  0.6454
  633MOL0     O87219   3.428   1.856   0.446  0.5705 -0.7850  0.5100
  633MOL0     C87220   3.397   1.752   0.531  0.1573  0.2966 -0.2884
  633MOL0     C87221   3.414   1.775   0.668 -0.9299 -0.1710  0.3353
  633MOL0     C87222   3.360   1.682   0.758 -0.8158 -0.4500  0.4573
  633MOL0     C87223   3.279   1.578   0.714  0.6721  0.0683  0.0381
  633MOL0     O87224   3.215   1.508   0.817  0.2702  0.1008 -0.0118
  633MOL0     C87225   3.097   1.441   0.784  0.7258  0.2459  0.4415
  633MOL0     C87226   2.974   1.534   0.783 -0.8872  1.3692  0.5017
  633MOL0     C87227   2.937   1.612   0.918 -0.7132 -0.9702 -0.3037
  633MOL0     C87228   2.886   1.524   1.030 -0.0160  0.2169  0.1938
  633MOL0     C87229   2.833   1.596   1.153  0.1286 -0.3323 -0.4521
  633MOL0     C87230   2.701   1.673   1.121  0.2169 -0.2986  0.3508
  633MOL0     C87231   2.607   1.686   1.238  0.4439 -0.3919 -0.1712
  633MOL0     C87232   2.679   1.689   1.372 -0.0924 -0.5632 -0.0197
  633MOL0     N87233   2.577   1.719   1.479  0.0794  0.1858 -0.2131
  633MOL0     C87234   2.528   1.627   1.577  0.0777  0.3814 -0.6370
  633MOL0     C87235   2.448   1.708   1.661 -1.0762  0.1774 -0.1635
  633MOL0     C87236   2.391   1.653   1.791 -0.1330  0.5262  0.0010
  633MOL0     C87237   2.283   1.745   1.850  0.2119 -0.1562 -0.1200
  633MOL0     C87238   2.335   1.893   1.879  0.0864  0.0338  0.1558
  633MOL0     C87239   2.294   1.938   2.021 -0.8525  1.4185  1.0892
  633MOL0     O87240   2.352   1.841   2.112 -0.8324 -0.0584 -0.1475
  633MOL0     C87241   2.335   1.883   2.245 -0.9209 -0.1086  1.2913
  633MOL0     C87242   2.286   2.006   2.284 -1.5577  0.4800 -0.7337
  633MOL0     C87243   2.284   2.025   2.421 -0.8929  0.1696 -0.2553
  633MOL0     C87244   2.234   2.160   2.473 -0.0294  0.1084 -0.0172
  633MOL0     C87245   2.339   1.936   2.507  0.1730  0.3986  0.3184
  633MOL0     C87246   2.330   1.933   2.655 -0.0241  0.1634 -0.4463
  633MOL0     O87247   2.395   2.034   2.718  0.4107 -0.5407 -0.2971
  633MOL0     C87248   2.427   2.028   2.855 -0.8826 -0.2407  0.6212
  633MOL0     C87249   2.426   1.911   2.937  0.1096 -0.0887  0.7764
  633MOL0     C87250   2.491   1.920   3.060 -0.3004 -0.6031  0.0056
  633MOL0     C87251   2.548   2.042   3.106 -0.4695 -0.1067 -0.1968
  633MOL0     O87252   2.621   2.063   3.222  0.2225  0.2345 -0.0106
  633MOL0     C87253   2.758   2.088   3.195 -0.5064  0.1111 -0.2995
  633MOL0     C87254   2.840   2.074   3.322  0.5650 -0.5697 -0.0103
  633MOL0     C87255   2.863   1.926   3.339  0.5856 -0.0646  0.8338
  633MOL0     C87256   2.939   1.898   3.461 -0.4078 -0.0579 -0.0293
  633MOL0     C87257   2.941   1.760   3.526  0.0433 -0.5306  0.3817
  633MOL0     C87258   2.811   1.688   3.531 -0.0868 -1.0560 -0.2112
  633MOL0     C87259   2.815   1.564   3.618 -0.4311  0.3105  0.8562
  633MOL0     C87260   2.680   1.500   3.619  0.5060 -0.0228  0.6017
  633MOL0    Cl87261   2.655   1.423   3.460  0.2263 -0.0806 -0.0498
  633MOL0     C87262   2.541   2.152   3.023 -0.5075 -0.1701  0.6518
  633MOL0     C87263   2.487   2.139   2.897  1.5059 -0.4916 -0.2095
  633MOL0     O87264   2.262   1.846   2.710 -0.7304 -0.0098 -0.2595
  633MOL0     C87265   2.388   1.813   2.470 -0.0241 -0.4299  0.3177
  633MOL0     C87266   2.377   1.791   2.328  0.3195  0.4038 -0.0343
  633MOL0     N87267   2.443   1.832   1.607  0.8471 -0.6858  0.6059
  633MOL0     N87268   2.523   1.840   1.507  0.9468 -0.1893 -1.0004
  633MOL0     C87269   3.270   1.545   0.573  0.5489  0.7292  0.5594
  633MOL0     C87270   3.328   1.635   0.481 -0.1392  0.3326 -0.0920
  633MOL0     C87271   3.543   1.960   0.255  0.9271 -0.4756 -0.0410
  633MOL0     C87272   3.610   1.950   0.132  0.1763  0.4061  0.5405
  633MOL0     C87273   3.628   2.051   0.032 -0.4430 -0.2111 -0.3329
  633MOL0     C87274   3.585   2.179   0.069  0.8207  0.6213 -0.2515
  633MOL0     O87275   3.604   2.292  -0.005 -0.2550  0.5395 -0.1277
  633MOL0     C87276   3.687   2.292  -0.117 -0.2551 -0.2977  0.5825
  633MOL0     C87277   3.833   2.287  -0.082  0.0964  0.4009 -0.3746
  633MOL0     C87278   3.929   2.266  -0.214 -0.5090 -0.2671 -1.2401
  633MOL0     C87279   4.076   2.310  -0.174  0.2569  0.2780 -0.1109
  633MOL0     C87280   4.161   2.321  -0.297 -0.0206  0.2792 -0.2586
  633MOL0     C87281   4.228   2.323  -0.403  1.1734 -0.5873 -0.2282
  633MOL0     C87282   3.504   2.199   0.182 -0.0671  0.3498  0.1428
  633MOL0     C87283   3.486   2.092   0.276 -0.4817 -0.9371 -0.9520
  633MOL0     C87284   3.425   2.138   0.402 -0.2420  0.1336 -0.0875
  633MOL0     H87285   3.474   1.853   0.714  2.0204 -3.5743  2.9187
  633MOL0     H87286   3.369   1.691   0.866 -0.2879 -2.3318  0.6021
  633MOL0     H87287   3.076   1.363   0.857  0.2288 -1.2121 -1.1968
  633MOL0     H87288   3.123   1.381   0.696  3.5582 -0.1331  1.4346
  633MOL0     H87289   3.021   1.612   0.722 -2.1289  2.5373  0.9869
  633MOL0     H87290   2.883   1.498   0.735 -0.2413 -0.7420  0.7769
  633MOL0     H87291   3.024   1.661   0.963  0.3203  0.0815 -3.2308
  633MOL0     H87292   2.862   1.688   0.896 -2.9868 -2.4469  1.8081
  633MOL0     H87293   2.800   1.467   0.995 -0.0025  0.5870 -0.4502
  633MOL0     H87294   2.966   1.452   1.050  1.7349  2.2608  0.9176
  633MOL0     H87295   2.905   1.666   1.196  0.8359 -0.9136 -0.6664
  633MOL0     H87296   2.814   1.515   1.224  1.9064 -0.3683  0.0268
  633MOL0     H87297   2.734   1.768   1.077  1.6648  0.1311  2.2034
  633MOL0     H87298   2.640   1.626   1.044  0.8249  2.6775 -2.1414
  633MOL0     H87299   2.543   1.599   1.229  1.3507 -0.8983 -2.3577
  633MOL0     H87300   2.553   1.780   1.223  0.9334  0.3674  2.3161
  633MOL0     H87301   2.727   1.597   1.408  2.5558  1.6049  2.5252
  633MOL0     H87302   2.761   1.761   1.366  1.3496 -2.2555 -3.1220
  633MOL0     H87303   2.556   1.525   1.601  0.9009  0.6897 -0.2250
  633MOL0     H87304   2.466   1.642   1.869 -1.6042  0.8419  1.5015
  633MOL0     H87305   2.355   1.558   1.750 -1.4671  1.9452 -2.3904
  633MOL0     H87306   2.209   1.758   1.770 -0.9825 -4.5030  0.0316
  633MOL0     H87307   2.231   1.693   1.930 -1.4801  0.1853 -0.9535
  633MOL0     H87308   2.443   1.894   1.865  0.0748 -0.2888  0.0129
  633MOL0     H87309   2.288   1.964   1.811 -3.5908 -0.4566  1.9019
  633MOL0     H87310   2.349   2.031   2.033  1.5376  0.0530  1.4949
  633MOL0     H87311   2.189   1.951   2.045 -0.7745 -0.3636  2.6773
  633MOL0     H87312   2.243   2.084   2.222  4.1185  3.0034 -2.1504
  633MOL0     H87313   2.194   2.148   2.574  1.7136 -1.3291  0.5469
  633MOL0     H87314   2.145   2.191   2.417 -0.6267 -3.7300 -1.4957
  633MOL0     H87315   2.308   2.239   2.484  0.4052 -0.5241  1.8440
  633MOL0     H87316   2.377   1.820   2.904 -2.3534  1.3060  0.2491
  633MOL0     H87317   2.489   1.833   3.124 -1.8606 -2.2921 -2.1803
  633MOL0     H87318   2.794   2.023   3.114 -1.5119 -0.0933 -0.6110
  633MOL0     H87319   2.771   2.187   3.152 -2.0238 -0.3383 -1.9779
  633MOL0     H87320   2.933   2.131   3.318 -0.0974  0.6694  1.1758
  633MOL0     H87321   2.775   2.117   3.399  2.8536  0.9892  1.1842
  633MOL0     H87322   2.934   1.885   3.266  0.3620 -1.4978  1.3866
  633MOL0     H87323   2.777   1.859   3.338  0.3148  0.2399  2.0190
  633MOL0     H87324   2.909   1.963   3.543  3.6558  1.9282  0.1393
  633MOL0     H87325   3.043   1.927   3.444 -1.4312  2.3308 -3.1439
  633MOL0     H87326   3.014   1.698   3.474 -0.2810 -1.4975  1.0443
  633MOL0     H87327   2.979   1.783   3.626  0.0543  0.7834  0.1015
  633MOL0     H87328   2.800   1.652   3.429  2.0574 -1.6188 -0.2965
  633MOL0     H87329   2.727   1.748   3.566  0.3397 -1.6809  2.0640
  633MOL0     H87330   2.825   1.586   3.725  1.8296 -2.8788  1.4375
  633MOL0     H87331   2.889   1.489   3.590  0.7054  1.8727 -0.5375
  633MOL0     H87332   2.595   1.563   3.645 -0.3864 -1.9877  2.8536
  633MOL0     H87333   2.676   1.428   3.702 -2.2989 -0.1023  0.4768
  633MOL0     H87334   2.588   2.248   3.041 -0.0789 -0.4670  1.1613
  633MOL0     H87335   2.490   2.219   2.824  1.2203 -0.1407  0.1650
  633MOL0     H87336   2.415   1.731   2.535  2.4284 -0.2336 -0.3496
  633MOL0     H87337   2.428   1.703   2.289  0.5777 -0.1899  1.5853
  633MOL0     H87338   3.219   1.456   0.538  3.3672 -0.9180  0.3076
  633MOL0     H87339   3.329   1.602   0.378 -1.9212  0.3915 -0.1560
  633MOL0     H87340   3.658   1.865   0.085  0.0419  0.8522 -0.4198
  633MOL0     H87341   3.684   2.013  -0.053  0.2568 -2.1882  0.9364
  633MOL0     H87342   3.660   2.198  -0.165 -1.5353 -0.7159  2.0225
  633MOL0     H87343   3.660   2.369  -0.190  1.7331 -0.1332 -0.0295
  633MOL0     H87344   3.840   2.191  -0.029  0.4641 -0.9633 -2.7562
  633MOL0     H87345   3.867   2.369  -0.018 -1.8430  1.2691 -0.3818
  633MOL0     H87346   3.928   2.161  -0.246  0.7748 -0.8759  0.5418
  633MOL0     H87347   3.890   2.329  -0.294  1.1822 -0.0461 -1.9276
  633MOL0     H87348   4.130   2.251  -0.100 -0.8291 -0.4895  0.0835
  633MOL0     H87349   4.075   2.411  -0.132 -1.5845  0.4396 -0.4502
  633MOL0     H87350   4.270   2.343  -0.499 -2.2479 -1.5526 -2.0965
  633MOL0     H87351   3.461   2.298   0.193 -2.7001 -0.8486  1.7232
  633MOL0     H87352   3.488   2.095   0.479 -0.6807 -1.9146 -0.8065
  633MOL0     H87353   3.421   2.247   0.416 -1.8972  0.3484 -1.7070
  633MOL0     H87354   3.323   2.098   0.405  0.3146 -1.3102  0.3420
  634MOL0     O87355   6.325   7.107   6.808 -0.1439 -0.2108 -0.5582
  634MOL0     C87356   6.433   7.115   6.856 -0.7002  0.0458 -0.3965
  634MOL0     O87357   6.467   7.064   6.977  0.4418 -0.0381 -0.5569
  634MOL0     C87358   6.363   7.009   7.050  1.0110 -0.2395  0.3547
  634MOL0     C87359   6.291   7.092   7.140  0.1014  0.4182  0.3466
  634MOL0     C87360   6.200   7.046   7.227 -0.4464 -0.2163 -0.7019
  634MOL0     C87361   6.167   6.908   7.228  0.1269 -0.6439 -0.1657
  634MOL0     O87362   6.079   6.857   7.311 -0.0046 -0.0789  0.0793
  634MOL0     C87363   5.955   6.928   7.317 -0.7664 -0.0291  0.3995
  634MOL0     C87364   5.845   6.831   7.344  0.0417 -0.4117  0.6168
  634MOL0     C87365   5.760   6.818   7.226  0.4172 -0.0349 -0.0143
  634MOL0     C87366   5.662   6.929   7.201 -0.5011 -1.0932  0.6041
  634MOL0     C87367   5.590   6.917   7.066  0.4546  0.3666 -0.7516
  634MOL0     C87368   5.550   7.056   7.016 -0.2634  0.5881 -0.0326
  634MOL0     C87369   5.457   7.136   7.114  0.0019 -0.0746 -0.1504
  634MOL0     C87370   5.363   7.245   7.055 -0.3435  0.6897 -0.5615
  634MOL0     N87371   5.408   7.373   7.027 -0.0888  0.0905  0.2137
  634MOL0     C87372   5.503   7.394   6.925  0.3789  0.2781 -0.4132
  634MOL0     C87373   5.533   7.524   6.930 -0.4540 -0.0094 -0.6289
  634MOL0     C87374   5.638   7.596   6.849  0.0150 -0.8595 -0.4472
  634MOL0     C87375   5.573   7.677   6.735 -0.4873  0.6320 -0.0019
  634MOL0     C87376   5.567   7.611   6.590 -0.1744 -0.5834  0.3068
  634MOL0     C87377   5.504   7.714   6.491  0.4654  0.4722 -0.7476
  634MOL0     O87378   5.368   7.744   6.512 -0.8201  0.0396 -0.8083
  634MOL0     C87379   5.316   7.824   6.412  0.0826 -0.7471  0.1068
  634MOL0     C87380   5.376   7.939   6.361 -0.0528 -0.0366 -0.1456
  634MOL0     C87381   5.310   8.026   6.279 -0.7558 -0.9933 -0.2887
  634MOL0     C87382   5.372   8.154   6.242  0.3716  0.2906  0.2859
  634MOL0     C87383   5.176   8.008   6.249 -0.7288  0.1638 -0.1096
  634MOL0     C87384   5.099   8.089   6.154  0.2804  0.2852  0.4358
  634MOL0     O87385   4.971   8.102   6.182  0.8028 -0.1592 -0.5771
  634MOL0     C87386   4.884   8.164   6.094  0.1150 -0.8855  0.4112
  634MOL0     C87387   4.772   8.230   6.142  0.1966  0.5335 -0.0251
  634MOL0     C87388   4.674   8.283   6.067 -0.1041  0.0659  0.5307
  634MOL0     C87389   4.678   8.283   5.926 -0.0450 -0.7606  0.9295
  634MOL0     O87390   4.589   8.346   5.840 -0.8809  0.3256 -0.3712
  634MOL0     C87391   4.489   8.444   5.892 -0.1702  1.0505  0.0333
  634MOL0     C87392   4.377   8.452   5.784  0.2867 -0.2344 -0.2513
  634MOL0     C87393   4.272   8.342   5.784 -0.1563  0.3718 -1.5462
  634MOL0     C87394   4.153   8.376   5.700 -0.0053 -0.7848  0.5746
  634MOL0     C87395   4.177   8.409   5.553  1.0012  0.4213  0.1970
  634MOL0     C87396   4.194   8.290   5.462 -0.2494 -0.5984  0.1403
  634MOL0     C87397   4.240   8.339   5.322 -0.1057 -0.5664  0.4750
  634MOL0     C87398   4.252   8.236   5.216 -0.0447 -0.8179  0.0210
  634MOL0    Cl87399   4.337   8.321   5.088 -0.6280  0.1052  0.3094
  634MOL0     C87400   4.778   8.204   5.868 -0.4525  0.8189 -0.5174
  634MOL0     C87401   4.876   8.135   5.951  0.7804  0.0746  0.7026
  634MOL0     O87402   5.154   8.123   6.048  0.1453 -0.3274 -0.0143
  634MOL0     C87403   5.105   7.906   6.318 -0.5032  0.2861  0.1410
  634MOL0     C87404   5.176   7.817   6.399  0.3464  0.0145  0.4344
  634MOL0     N87405   5.454   7.578   7.035  0.4452  1.1525 -1.2925
  634MOL0     N87406   5.390   7.487   7.103 -0.1662  0.9360  0.4794
  634MOL0     C87407   6.229   6.823   7.127 -0.0175 -0.6619  0.1733
  634MOL0     C87408   6.328   6.878   7.044  1.2720  0.7592  0.0785
  634MOL0     C87409   6.524   7.207   6.785  0.1234  0.0475  0.3801
  634MOL0     C87410   6.657   7.224   6.839  0.5475 -0.0101  0.3065
  634MOL0     C87411   6.743   7.320   6.787 -0.7179 -0.1778 -0.2515
  634MOL0     C87412   6.710   7.397   6.677  0.5134  0.2229 -0.2452
  634MOL0     O87413   6.796   7.490   6.626 -0.0465 -0.2209  0.7085
  634MOL0     C87414   6.744   7.623   6.599  0.0286 -0.0094 -0.4298
  634MOL0     C87415   6.789   7.733   6.698  0.6694  0.5133  0.1707
  634MOL0     C87416   6.938   7.751   6.709 -1.1824  0.8333 -0.8513
  634MOL0     C87417   7.012   7.693   6.837 -0.2309 -0.7882  0.3507
  634MOL0     C87418   7.157   7.663   6.818 -0.4304 -0.5429  0.5505
  634MOL0     C87419   7.277   7.622   6.818  0.2081 -0.2802 -0.7409
  634MOL0     C87420   6.586   7.371   6.617  0.3043  0.6779  0.3344
  634MOL0     C87421   6.503   7.271   6.660  0.6726 -0.7802 -0.4205
  634MOL0     C87422   6.376   7.266   6.583 -0.3138  0.2136  0.3309
  634MOL0     H87423   6.314   7.199   7.141  3.4035 -0.1052 -2.1282
  634MOL0     H87424   6.151   7.113   7.296  1.4079  0.6423 -0.1570
  634MOL0     H87425   5.927   6.980   7.225 -1.6876  2.1471  1.8174
  634MOL0     H87426   5.958   7.004   7.395 -0.7855 -1.3851  1.7615
  634MOL0     H87427   5.898   6.738   7.369 -3.2418 -1.7506  3.2705
  634MOL0     H87428   5.805   6.885   7.430  1.7312  0.5070  0.8718
  634MOL0     H87429   5.829   6.799   7.144 -0.7935 -0.3505 -0.9946
  634MOL0     H87430   5.699   6.730   7.251  3.7182 -2.0603  1.5404
  634MOL0     H87431   5.588   6.927   7.282  0.7517 -0.0747  1.8215
  634MOL0     H87432   5.725   7.018   7.211 -1.6638  0.4556 -3.7710
  634MOL0     H87433   5.503   6.851   7.077 -0.0092  1.2025  1.0023
  634MOL0     H87434   5.657   6.878   6.989 -0.0863  0.1055 -1.1012
  634MOL0     H87435   5.636   7.112   6.978  0.8915 -2.1717 -1.8544
  634MOL0     H87436   5.494   7.029   6.926  1.8835 -1.2489 -0.9139
  634MOL0     H87437   5.526   7.201   7.169  2.8914  1.9292 -5.4810
  634MOL0     H87438   5.404   7.070   7.183  0.4487  0.1140  0.3833
  634MOL0     H87439   5.314   7.213   6.963  0.8053 -0.9888 -0.6335
  634MOL0     H87440   5.288   7.257   7.133 -0.6440  0.1550 -0.7635
  634MOL0     H87441   5.540   7.314   6.862  0.4557  0.1844 -0.2525
  634MOL0     H87442   5.718   7.525   6.827  0.6576 -0.2145 -0.2171
  634MOL0     H87443   5.682   7.672   6.915 -0.8881  0.5681 -1.4334
  634MOL0     H87444   5.473   7.709   6.765 -1.1458  1.7395 -2.9365
  634MOL0     H87445   5.626   7.772   6.722 -1.4673  1.4109  1.3882
  634MOL0     H87446   5.673   7.603   6.564  0.3539  3.3657  0.5315
  634MOL0     H87447   5.520   7.513   6.590  0.1867 -0.8205 -2.4050
  634MOL0     H87448   5.552   7.811   6.507 -0.3437  0.8150 -0.3363
  634MOL0     H87449   5.513   7.674   6.389 -1.3896  1.6500 -1.4225
  634MOL0     H87450   5.479   7.965   6.383 -0.8504  3.0346  0.4546
  634MOL0     H87451   5.393   8.155   6.134  2.5069  1.3630  0.6518
  634MOL0     H87452   5.458   8.173   6.307 -0.6088  0.3480  1.5975
  634MOL0     H87453   5.307   8.237   6.268  0.1613  0.5312 -0.9556
  634MOL0     H87454   4.767   8.238   6.251 -0.0267 -0.1804  0.0261
  634MOL0     H87455   4.586   8.324   6.116 -0.6196 -1.5998  1.0696
  634MOL0     H87456   4.444   8.400   5.981 -0.1340 -2.7347 -1.6117
  634MOL0     H87457   4.520   8.548   5.903 -3.5509  2.5700 -2.7395
  634MOL0     H87458   4.325   8.548   5.797  0.4384 -0.3023  1.0332
  634MOL0     H87459   4.427   8.465   5.688 -0.7146 -0.5900 -0.8344
  634MOL0     H87460   4.233   8.323   5.884 -0.3093 -0.2139 -1.7093
  634MOL0     H87461   4.308   8.242   5.757  1.8882  1.0958 -1.6379
  634MOL0     H87462   4.090   8.454   5.743  1.9333  0.9528  0.3626
  634MOL0     H87463   4.090   8.287   5.711 -0.6001 -0.6614 -1.4327
  634MOL0     H87464   4.097   8.472   5.514  2.2413  1.0434 -1.4975
  634MOL0     H87465   4.264   8.475   5.544 -0.9478  2.7940 -3.1450
  634MOL0     H87466   4.100   8.234   5.453 -1.1781  0.8264  0.6132
  634MOL0     H87467   4.271   8.218   5.491 -0.0303 -1.4024 -2.2080
  634MOL0     H87468   4.336   8.388   5.339  1.3856 -4.0540  3.2201
  634MOL0     H87469   4.170   8.415   5.284 -1.0961 -0.8133  1.7340
  634MOL0     H87470   4.156   8.188   5.195 -0.5845 -0.0762  0.7594
  634MOL0     H87471   4.317   8.160   5.260 -1.2571 -2.0263 -0.2188
  634MOL0     H87472   4.774   8.192   5.761  1.4851  1.8418 -0.7473
  634MOL0     H87473   4.943   8.056   5.918  1.5219  0.3412  1.5131
  634MOL0     H87474   5.002   7.879   6.298 -0.2412  0.1288 -1.0601
  634MOL0     H87475   5.110   7.747   6.449 -2.6550  2.6605  0.5046
  634MOL0     H87476   6.210   6.716   7.129  3.3160 -1.3755  1.7549
  634MOL0     H87477   6.388   6.818   6.976 -0.5939 -2.2177  0.9060
  634MOL0     H87478   6.696   7.166   6.922  1.5482 -0.4416 -0.4430
  634MOL0     H87479   6.847   7.322   6.818 -0.8424 -0.7226  0.2212
  634MOL0     H87480   6.788   7.657   6.505 -3.5629  1.2781 -1.8325
  634MOL0     H87481   6.636   7.632   6.589 -0.0381  0.0308  0.2705
  634MOL0     H87482   6.742   7.704   6.793  0.6989  2.7647  0.9321
  634MOL0     H87483   6.739   7.824   6.663 -0.8995 -0.6578 -0.7876
  634MOL0     H87484   6.988   7.719   6.617 -0.1640  1.3459 -0.4899
  634MOL0     H87485   6.959   7.858   6.695  0.8138  0.4035 -1.5755
  634MOL0     H87486   6.962   7.605   6.878  1.3719 -1.8409  0.1421
  634MOL0     H87487   7.006   7.767   6.917 -0.1603  1.1209 -1.3434
  634MOL0     H87488   7.377   7.589   6.803 -0.6042 -3.1992 -0.3819
  634MOL0     H87489   6.560   7.441   6.538 -0.2159 -1.1548 -1.2029
  634MOL0     H87490   6.289   7.293   6.644  0.5780  5.6798 -0.3473
  634MOL0     H87491   6.380   7.332   6.496  1.8293  2.6108  2.1105
  634MOL0     H87492   6.355   7.163   6.550  0.2735  0.4386 -0.7865
  635MOL0     O87493   3.045  10.402   4.279 -0.1580 -0.3602 -0.8800
  635MOL0     C87494   3.067  10.493   4.365  0.6019  0.3647  0.2619
  635MOL0     O87495   3.185  10.533   4.415 -0.3644  0.0942  1.0185
  635MOL0     C87496   3.315  10.478   4.382  0.1807 -0.4395  0.3518
  635MOL0     C87497   3.352  10.385   4.286  0.5055  0.3104 -1.3424
  635MOL0     C87498   3.488  10.356   4.255  0.5114  0.0182 -0.1124
  635MOL0     C87499   3.591  10.410   4.333  0.3436 -0.3915 -0.5762
  635MOL0     O87500   3.720  10.367   4.306 -0.0041  0.1756  0.3631
  635MOL0     C87501   3.763  10.267   4.389  0.9549  0.2290  1.3253
  635MOL0     C87502   3.851  10.321   4.497 -0.0040  0.5706  0.5405
  635MOL0     C87503   3.970  10.385   4.446 -1.1174 -0.4474  0.0334
  635MOL0     C87504   4.081  10.393   4.545  0.5300  0.6218 -0.0781
  635MOL0     C87505   4.204  10.449   4.479  0.0526 -0.4815 -0.1786
  635MOL0     C87506   4.317  10.463   4.581  0.1936 -0.8079  0.0089
  635MOL0     C87507   4.443  10.521   4.508 -0.1981 -0.4940  0.3921
  635MOL0     C87508   4.459  10.664   4.468  0.6367 -0.3504  0.6453
  635MOL0     N87509   4.436  10.758   4.573 -0.5388  0.3254 -0.5785
  635MOL0     C87510   4.320  10.817   4.607  1.0270 -0.0946 -0.5841
  635MOL0     C87511   4.354  10.889   4.719  0.2177  0.0972 -0.0699
  635MOL0     C87512   4.282  10.991   4.791  0.5532  0.2322 -0.6180
  635MOL0     C87513   4.261  11.112   4.686 -0.3568 -0.1868 -0.4442
  635MOL0     C87514   4.389  11.195   4.669  0.0840  0.8929 -0.3420
  635MOL0     C87515   4.370  11.326   4.590  0.9855 -0.4725  0.3261
  635MOL0     O87516   4.380  11.319   4.449 -0.4123  0.4734  0.4725
  635MOL0     C87517   4.377  11.427   4.370  0.9788 -0.4627 -0.0946
  635MOL0     C87518   4.419  11.404   4.247 -0.6163 -0.5794 -0.4084
  635MOL0     C87519   4.423  11.503   4.155 -0.5208  0.7720 -0.4733
  635MOL0     C87520   4.501  11.460   4.026  0.1670  0.4094  0.4418
  635MOL0     C87521   4.372  11.630   4.187 -0.3637 -0.9012 -0.4290
  635MOL0     C87522   4.362  11.744   4.089 -0.0591  0.4608 -0.5409
  635MOL0     O87523   4.389  11.852   4.142  0.0360 -0.0863  0.1812
  635MOL0     C87524   4.368  11.962   4.064 -0.4314  0.7307 -1.0683
  635MOL0     C87525   4.476  12.052   4.072 -0.2055  0.3931 -0.2015
  635MOL0     C87526   4.482  12.161   3.990  0.7892 -0.5554  0.0127
  635MOL0     C87527   4.372  12.195   3.907 -0.3287  0.1442 -0.2692
  635MOL0     O87528   4.388  12.307   3.828 -0.2431  0.5756  0.2857
  635MOL0     C87529   4.459  12.294   3.711  1.1824  0.1744 -0.6059
  635MOL0     C87530   4.479  12.435   3.643  0.6339  0.9214 -0.1031
  635MOL0     C87531   4.344  12.503   3.611  0.1438 -0.7900  0.3985
  635MOL0     C87532   4.375  12.634   3.543 -1.0982 -0.5181  0.8374
  635MOL0     C87533   4.250  12.693   3.486 -0.2820  0.0390  0.5103
  635MOL0     C87534   4.277  12.845   3.451  0.1564  0.2541 -0.8855
  635MOL0     C87535   4.150  12.897   3.381  0.3675 -1.2172  0.3577
  635MOL0     C87536   4.173  13.049   3.341 -0.4773  0.9711 -0.1271
  635MOL0    Cl87537   4.161  13.152   3.479  0.1478 -0.4355  0.4099
  635MOL0     C87538   4.261  12.120   3.907 -0.1426  0.5738 -0.3635
  635MOL0     C87539   4.257  12.005   3.985  1.3710 -0.0490  0.3867
  635MOL0     O87540   4.332  11.724   3.973 -0.0528 -0.1488 -0.0900
  635MOL0     C87541   4.338  11.657   4.315  0.1283 -0.2596  0.4537
  635MOL0     C87542   4.336  11.558   4.404  1.3165  0.3011 -0.7870
  635MOL0     N87543   4.481  10.853   4.759  0.6729  0.7495  0.1515
  635MOL0     N87544   4.530  10.770   4.670  0.6902  0.6112  0.2983
  635MOL0     C87545   3.561  10.503   4.438  0.0647  0.2307 -0.1360
  635MOL0     C87546   3.420  10.531   4.460 -0.1247  0.1777 -0.0992
  635MOL0     C87547   2.950  10.562   4.416  0.8088  0.7023  0.0368
  635MOL0     C87548   2.971  10.645   4.536 -0.4422  0.0501  0.0292
  635MOL0     C87549   2.861  10.714   4.593  0.9973 -0.1872 -1.1795
  635MOL0     C87550   2.738  10.716   4.526 -0.2657  0.4729  0.2122
  635MOL0     O87551   2.631  10.783   4.573 -0.0867 -1.0547 -0.0121
  635MOL0     C87552   2.628  10.843   4.697  0.3031 -0.0190 -0.0384
  635MOL0     C87553   2.506  10.933   4.715  0.2861  0.3900  0.5180
  635MOL0     C87554   2.477  11.015   4.585 -0.3387 -0.3467 -0.8271
  635MOL0     C87555   2.585  11.097   4.523 -0.1184  0.3082  0.2643
  635MOL0     C87556   2.629  11.192   4.628  0.2731  0.4506  0.3589
  635MOL0     C87557   2.652  11.277   4.699 -0.6548 -0.1310  0.1653
  635MOL0     C87558   2.717  10.639   4.415 -0.2060  0.2510  0.4863
  635MOL0     C87559   2.819  10.569   4.358 -0.9368  0.8469 -0.3213
  635MOL0     C87560   2.795  10.521   4.219 -0.3556 -0.1640  0.3896
  635MOL0     H87561   3.271  10.336   4.233  0.5190  0.1907 -1.2528
  635MOL0     H87562   3.517  10.285   4.178 -0.1167 -0.4122  0.0392
  635MOL0     H87563   3.819  10.198   4.325 -1.9639  1.2413 -2.7349
  635MOL0     H87564   3.681  10.211   4.435  0.8662 -0.8853 -0.1124
  635MOL0     H87565   3.797  10.399   4.552 -1.6121  0.4138 -0.7311
  635MOL0     H87566   3.870  10.243   4.572 -2.1938 -1.4596 -0.8450
  635MOL0     H87567   4.011  10.323   4.365 -0.2441 -2.0458  1.6318
  635MOL0     H87568   3.958  10.487   4.407 -1.5099 -0.5703 -0.1652
  635MOL0     H87569   4.049  10.453   4.631 -0.2941  0.1693 -0.0564
  635MOL0     H87570   4.096  10.292   4.583 -0.6168 -0.0093 -1.2188
  635MOL0     H87571   4.176  10.544   4.433  0.4969 -1.0313 -1.6260
  635MOL0     H87572   4.235  10.387   4.395  1.9281  2.3307 -1.6971
  635MOL0     H87573   4.289  10.529   4.664 -0.2796  0.3471 -1.0381
  635MOL0     H87574   4.328  10.364   4.626 -1.9662 -1.5869 -1.0323
  635MOL0     H87575   4.459  10.459   4.420  1.5724  1.1454 -0.5239
  635MOL0     H87576   4.529  10.513   4.575 -1.1624  2.0897  2.1192
  635MOL0     H87577   4.563  10.679   4.436  1.3769 -3.0364  1.5264
  635MOL0     H87578   4.391  10.702   4.392  0.1493 -0.5457  0.9833
  635MOL0     H87579   4.223  10.838   4.563  0.3214  2.0872  1.7836
  635MOL0     H87580   4.328  11.010   4.888 -0.5453  1.4942 -0.3149
  635MOL0     H87581   4.177  10.961   4.794 -0.0738  2.3297  0.0835
  635MOL0     H87582   4.230  11.070   4.590  2.0759 -2.1686 -0.4664
  635MOL0     H87583   4.187  11.179   4.732  0.8875 -0.9805  3.0078
  635MOL0     H87584   4.426  11.213   4.770 -2.1711  1.1256  0.5139
  635MOL0     H87585   4.467  11.135   4.621 -0.5011 -0.0177 -0.1889
  635MOL0     H87586   4.277  11.377   4.617  1.6053 -0.2976  2.3556
  635MOL0     H87587   4.459  11.380   4.625 -0.1780  1.3079  0.6915
  635MOL0     H87588   4.450  11.301   4.230 -2.8534 -1.8071  2.1870
  635MOL0     H87589   4.468  11.361   3.993  0.9016 -0.4462  2.1878
  635MOL0     H87590   4.608  11.456   4.047  0.2880  0.6985 -0.0855
  635MOL0     H87591   4.489  11.530   3.942  0.3896  0.2031  0.2371
  635MOL0     H87592   4.562  12.031   4.134 -0.4865 -4.6290 -1.0842
  635MOL0     H87593   4.569  12.225   4.001 -0.4680  1.0410  1.1541
  635MOL0     H87594   4.558  12.247   3.723 -0.2174 -3.0315 -0.6278
  635MOL0     H87595   4.408  12.227   3.641 -1.7667 -0.5780  2.0407
  635MOL0     H87596   4.539  12.497   3.710  2.5233 -1.2897  0.3910
  635MOL0     H87597   4.536  12.425   3.550  3.0086  1.3753  1.2325
  635MOL0     H87598   4.282  12.538   3.695  0.6341  0.4144  0.2818
  635MOL0     H87599   4.282  12.437   3.551 -0.5385 -0.6818  0.9617
  635MOL0     H87600   4.447  12.625   3.461 -2.7230  2.7656 -1.1187
  635MOL0     H87601   4.405  12.704   3.622  0.3605 -2.9167  2.5640
  635MOL0     H87602   4.211  12.631   3.405  0.3673 -1.6817  1.4600
  635MOL0     H87603   4.171  12.681   3.560 -1.3367 -2.3726 -0.8896
  635MOL0     H87604   4.358  12.866   3.381 -0.8088 -0.1810 -2.1753
  635MOL0     H87605   4.295  12.889   3.550  0.0209 -3.1900  0.7996
  635MOL0     H87606   4.060  12.908   3.442  0.9929 -0.6394  1.1967
  635MOL0     H87607   4.128  12.848   3.286 -1.8719  2.3412 -1.1401
  635MOL0     H87608   4.106  13.088   3.264 -0.5917  1.4969  0.2338
  635MOL0     H87609   4.274  13.045   3.299 -1.2054  0.1372 -1.9281
  635MOL0     H87610   4.177  12.145   3.843 -2.6027  2.3147  3.2319
  635MOL0     H87611   4.172  11.937   3.977  3.0589 -2.0187 -2.8827
  635MOL0     H87612   4.294  11.754   4.339  1.8876  1.3924 -2.4522
  635MOL0     H87613   4.301  11.575   4.505  0.9431  1.8493 -1.1542
  635MOL0     H87614   3.636  10.542   4.506  0.0029 -1.3932  0.9170
  635MOL0     H87615   3.412  10.598   4.545  1.5540  0.9164 -0.4983
  635MOL0     H87616   3.063  10.661   4.592 -1.2729 -0.5449  1.6139
  635MOL0     H87617   2.876  10.762   4.690  0.3395 -1.0966 -0.6047
  635MOL0     H87618   2.629  10.764   4.773  0.3116  0.6314  0.6464
  635MOL0     H87619   2.716  10.908   4.707  0.8976  0.9866 -6.9843
  635MOL0     H87620   2.523  11.002   4.798  3.7233  1.6574 -1.0687
  635MOL0     H87621   2.425  10.863   4.736  1.6152 -1.7921 -1.2303
  635MOL0     H87622   2.437  10.947   4.509  1.0632 -2.3204  0.1080
  635MOL0     H87623   2.399  11.090   4.602  1.2317  1.3358 -0.7556
  635MOL0     H87624   2.539  11.145   4.436  0.7704  0.8620  0.0856
  635MOL0     H87625   2.670  11.038   4.488 -0.4231 -0.1334  0.2698
  635MOL0     H87626   2.681  11.353   4.769  0.9909 -1.6851  1.2900
  635MOL0     H87627   2.616  10.639   4.375  0.4232  1.4654 -1.2659
  635MOL0     H87628   2.787  10.412   4.220  1.6206 -0.3672  2.8284
  635MOL0     H87629   2.701  10.558   4.177 -0.4275 -2.1048 -1.3399
  635MOL0     H87630   2.872  10.562   4.153  1.6773 -0.1241  2.6496
  636MOL0     O87631   0.417   3.162   7.086  0.1819  0.1395  0.7572
  636MOL0     C87632   0.305   3.130   7.132  0.0133 -0.3676 -0.5248
  636MOL0     O87633   0.281   3.107   7.268  0.2774  0.3661 -0.9282
  636MOL0     C87634   0.383   3.137   7.355 -0.7380  0.3377 -1.0609
  636MOL0     C87635   0.370   3.232   7.449  0.9438 -0.1016 -0.5589
  636MOL0     C87636   0.455   3.261   7.556  0.2015 -0.4307 -0.2777
  636MOL0     C87637   0.577   3.188   7.561 -0.1069 -0.1535 -0.7559
  636MOL0     O87638   0.654   3.219   7.667 -0.1292 -0.5195 -0.5671
  636MOL0     C87639   0.777   3.148   7.699  0.5349 -0.3947  0.3061
  636MOL0     C87640   0.775   3.016   7.779  0.1207  0.0133  1.0004
  636MOL0     C87641   0.926   2.969   7.788  0.1459 -0.5281 -0.7662
  636MOL0     C87642   0.947   2.817   7.801 -0.5955 -0.1395 -0.1492
  636MOL0     C87643   1.093   2.781   7.808  0.5193  0.2904  0.0954
  636MOL0     C87644   1.109   2.633   7.770 -0.0208 -0.5439 -0.0978
  636MOL0     C87645   1.229   2.604   7.683  0.1123 -0.1640  0.7705
  636MOL0     C87646   1.243   2.455   7.635  0.1081 -0.2615 -0.1738
  636MOL0     N87647   1.370   2.430   7.572  0.1871 -0.1412  0.1521
  636MOL0     C87648   1.497   2.403   7.631  0.4027  0.7034 -0.3310
  636MOL0     C87649   1.577   2.352   7.525 -1.0220  0.4659  0.7721
  636MOL0     C87650   1.726   2.330   7.519  0.1339  0.6269 -1.1653
  636MOL0     C87651   1.788   2.392   7.405 -0.5756 -0.5502  0.7631
  636MOL0     C87652   1.936   2.367   7.388 -0.1213 -0.8881  0.7907
  636MOL0     C87653   1.980   2.239   7.321  0.3182 -0.3599 -0.7347
  636MOL0     O87654   2.093   2.274   7.233  0.1333 -0.0495 -0.2919
  636MOL0     C87655   2.062   2.322   7.106 -1.0591  0.1798 -0.0997
  636MOL0     C87656   1.937   2.291   7.040 -1.0055 -0.1382  0.6309
  636MOL0     C87657   1.914   2.324   6.900  0.0377  0.6563 -0.7394
  636MOL0     C87658   1.781   2.288   6.845  0.3990 -0.1277 -0.2910
  636MOL0     C87659   2.014   2.402   6.838  0.1731  0.3097  0.2226
  636MOL0     C87660   1.998   2.455   6.707  0.0713  0.2055 -0.1305
  636MOL0     O87661   1.992   2.586   6.700 -0.1955  0.5342  0.2084
  636MOL0     C87662   1.993   2.660   6.575 -0.6846  0.0496  0.3012
  636MOL0     C87663   2.081   2.636   6.463 -0.2892  0.4359 -0.1451
  636MOL0     C87664   2.080   2.715   6.349  0.4953 -0.8220  0.4031
  636MOL0     C87665   1.994   2.822   6.337 -0.8229 -0.4069  0.4704
  636MOL0     O87666   2.005   2.907   6.228 -0.3717  0.4418 -0.8043
  636MOL0     C87667   1.878   2.932   6.168  0.5692 -0.7492  0.5210
  636MOL0     C87668   1.899   2.914   6.021  0.4545  0.1559  0.8637
  636MOL0     C87669   1.761   2.903   5.947 -0.3880 -0.4576  0.0848
  636MOL0     C87670   1.679   3.036   5.947  0.8547 -0.6420  0.2401
  636MOL0     C87671   1.625   3.091   5.813  0.7809 -0.3050  0.7631
  636MOL0     C87672   1.733   3.169   5.729  0.2907  0.0311  0.1216
  636MOL0     C87673   1.816   3.276   5.804 -0.9168  0.4469  0.2780
  636MOL0     C87674   1.724   3.380   5.865  0.2441  0.0538 -0.0217
  636MOL0    Cl87675   1.828   3.493   5.955 -0.0083  0.2188 -0.1110
  636MOL0     C87676   1.913   2.854   6.449 -0.1376 -0.0275 -0.3466
  636MOL0     C87677   1.902   2.770   6.562 -0.0150 -0.1820  0.3435
  636MOL0     O87678   2.007   2.378   6.614 -0.6323 -0.3804  1.0490
  636MOL0     C87679   2.135   2.436   6.902 -0.2043 -0.7329 -0.3380
  636MOL0     C87680   2.161   2.399   7.038  0.0354  0.9287  1.1406
  636MOL0     N87681   1.500   2.336   7.414 -0.2744 -0.2679 -0.0941
  636MOL0     N87682   1.385   2.390   7.442  0.6611  0.3053  0.2729
  636MOL0     C87683   0.599   3.089   7.463 -0.0252  0.3813 -0.2049
  636MOL0     C87684   0.508   3.077   7.350 -0.9033 -0.3153  0.3942
  636MOL0     C87685   0.193   3.124   7.042 -0.4020 -0.6910 -0.0749
  636MOL0     C87686   0.075   3.202   7.060 -0.3360  0.0821 -0.2498
  636MOL0     C87687  -0.029   3.216   6.964 -0.2003 -0.2772  0.0291
  636MOL0     C87688  -0.030   3.155   6.845 -0.6724  0.1113 -0.0149
  636MOL0     O87689  -0.120   3.176   6.746 -0.0622  0.5410 -0.0688
  636MOL0     C87690  -0.172   3.311   6.734  0.0343  0.6540 -0.0882
  636MOL0     C87691  -0.060   3.396   6.669  0.6633 -1.1796 -1.0522
  636MOL0     C87692  -0.114   3.536   6.673  0.8991 -0.5835 -0.4020
  636MOL0     C87693  -0.079   3.614   6.797  0.0279 -0.5709  0.4289
  636MOL0     C87694   0.059   3.662   6.802  0.7634 -0.0842 -0.5395
  636MOL0     C87695   0.172   3.701   6.816 -0.2277  0.3774  0.3133
  636MOL0     C87696   0.082   3.074   6.819 -0.8856 -0.1575 -0.0334
  636MOL0     C87697   0.188   3.058   6.914 -0.3605  0.3889  0.2881
  636MOL0     C87698   0.298   2.965   6.865 -0.2773  0.1668  0.9626
  636MOL0     H87699   0.275   3.285   7.446 -1.1571 -3.4464  1.2337
  636MOL0     H87700   0.424   3.341   7.623  0.0132  1.2043 -2.2169
  636MOL0     H87701   0.844   3.215   7.754 -0.8205  1.6286 -0.3902
  636MOL0     H87702   0.814   3.116   7.601 -1.5501 -0.5259 -0.4850
  636MOL0     H87703   0.715   3.018   7.870 -1.7574 -0.7617 -0.1684
  636MOL0     H87704   0.711   2.949   7.720 -0.4572  1.9535 -0.6780
  636MOL0     H87705   0.981   3.017   7.706 -2.2387  0.8156 -1.6620
  636MOL0     H87706   0.971   3.010   7.879  1.5286 -1.4393 -1.0038
  636MOL0     H87707   0.893   2.785   7.890  0.7042  0.7431  1.0074
  636MOL0     H87708   0.913   2.780   7.704  2.4152  1.9667 -2.1751
  636MOL0     H87709   1.134   2.809   7.905 -0.9151 -1.9272  1.4213
  636MOL0     H87710   1.147   2.829   7.726  0.0677  1.4119  0.4447
  636MOL0     H87711   1.129   2.560   7.849  2.1674 -1.3858 -1.3448
  636MOL0     H87712   1.016   2.598   7.724  0.5003 -1.7231 -0.2874
  636MOL0     H87713   1.318   2.621   7.745  2.2297  1.4604 -2.3886
  636MOL0     H87714   1.240   2.672   7.598 -0.4032 -0.1576  0.7046
  636MOL0     H87715   1.222   2.395   7.724  1.8991 -1.8056 -0.7447
  636MOL0     H87716   1.168   2.427   7.560 -2.4141 -0.1271  2.1720
  636MOL0     H87717   1.513   2.424   7.736  0.7191 -2.6455  0.4014
  636MOL0     H87718   1.745   2.222   7.516  4.1561  0.8897  3.0413
  636MOL0     H87719   1.769   2.370   7.612  0.0264 -0.1096 -0.7953
  636MOL0     H87720   1.739   2.355   7.314  0.0578  0.8935 -0.2003
  636MOL0     H87721   1.767   2.499   7.408 -2.2160 -0.8288  0.2247
  636MOL0     H87722   1.967   2.453   7.328 -3.5888 -0.4175 -0.5218
  636MOL0     H87723   1.987   2.363   7.485  0.8370  0.4571  0.3891
  636MOL0     H87724   2.011   2.185   7.411 -1.6030  2.0308  1.5332
  636MOL0     H87725   1.895   2.184   7.280 -2.7847 -0.3325  4.7468
  636MOL0     H87726   1.869   2.220   7.086  0.3324 -2.3618 -0.6683
  636MOL0     H87727   1.799   2.209   6.772 -1.8002 -0.2526 -0.7462
  636MOL0     H87728   1.737   2.377   6.799  1.7283  2.0745  2.3910
  636MOL0     H87729   1.709   2.253   6.918 -0.8950 -1.4287 -2.1163
  636MOL0     H87730   2.150   2.554   6.475  1.8396  2.4039  2.3563
  636MOL0     H87731   2.152   2.707   6.268 -1.6388 -2.4551 -1.4713
  636MOL0     H87732   1.791   2.871   6.197 -0.7823  2.0563  2.9325
  636MOL0     H87733   1.862   3.036   6.197  1.4159  0.3838 -2.6958
  636MOL0     H87734   1.955   2.998   5.979 -2.7903  1.6684 -0.8135
  636MOL0     H87735   1.956   2.822   6.006  2.1476  0.3807  4.7273
  636MOL0     H87736   1.699   2.822   5.987  1.9099 -2.0892  0.5035
  636MOL0     H87737   1.785   2.885   5.842 -0.1339 -1.4516  0.3033
  636MOL0     H87738   1.744   3.117   5.982  0.5344 -1.5960  3.2942
  636MOL0     H87739   1.599   3.029   6.022  0.4162 -1.2049 -0.2721
  636MOL0     H87740   1.575   3.010   5.761 -1.5426  1.1839  0.5187
  636MOL0     H87741   1.536   3.153   5.825  0.3901 -0.9028  0.9794
  636MOL0     H87742   1.675   3.217   5.650 -1.3890 -2.4460 -0.2890
  636MOL0     H87743   1.803   3.102   5.678  0.7498  1.5448 -1.2813
  636MOL0     H87744   1.876   3.317   5.722 -0.8759 -1.6144 -0.7886
  636MOL0     H87745   1.879   3.243   5.887 -0.7810  2.7136  1.1345
  636MOL0     H87746   1.659   3.330   5.938 -0.1914 -2.8762 -2.2010
  636MOL0     H87747   1.662   3.438   5.796 -0.8723  0.9645  1.6613
  636MOL0     H87748   1.842   2.935   6.438 -0.4999 -0.3290 -0.2486
  636MOL0     H87749   1.831   2.785   6.642  1.0908  0.9184  1.1517
  636MOL0     H87750   2.210   2.498   6.854 -2.5143  1.2992 -1.6247
  636MOL0     H87751   2.241   2.441   7.099 -0.2526  0.1098  2.1184
  636MOL0     H87752   0.686   3.024   7.460  0.1814  0.6947 -1.4363
  636MOL0     H87753   0.538   3.006   7.273 -0.6447  0.9021 -0.6548
  636MOL0     H87754   0.065   3.259   7.152  0.4682  0.1990 -0.2325
  636MOL0     H87755  -0.106   3.285   6.997 -0.5898  0.6466 -2.5646
  636MOL0     H87756  -0.260   3.301   6.671  0.5899 -1.9927 -0.6019
  636MOL0     H87757  -0.205   3.351   6.830 -0.5784  0.5038 -0.2309
  636MOL0     H87758  -0.046   3.357   6.567  0.3305  2.7508 -2.8024
  636MOL0     H87759   0.035   3.382   6.722  0.6171  1.8285  0.0459
  636MOL0     H87760  -0.066   3.590   6.592  2.0611 -0.4458  0.3569
  636MOL0     H87761  -0.220   3.549   6.650  0.2474 -0.3784  2.3939
  636MOL0     H87762  -0.105   3.547   6.880  0.0905 -0.5871  0.4355
  636MOL0     H87763  -0.147   3.700   6.799 -1.0909 -1.3601 -1.4724
  636MOL0     H87764   0.260   3.750   6.851  0.4058 -1.0483  0.8196
  636MOL0     H87765   0.102   3.016   6.729  1.4127 -0.8849  0.8509
  636MOL0     H87766   0.351   3.015   6.783 -0.2797 -3.0197 -1.1443
  636MOL0     H87767   0.372   2.938   6.941  1.3537  1.5747 -0.0304
  636MOL0     H87768   0.264   2.868   6.829  2.7586 -0.2700 -1.1282
  637MOL0     O87769  10.323   4.733   3.737 -0.4324 -0.5557  0.2570
  637MOL0     C87770  10.261   4.836   3.773 -0.4002 -0.1386 -0.7792
  637MOL0     O87771  10.134   4.838   3.826 -0.6468  0.3359 -0.9342
  637MOL0     C87772  10.055   4.730   3.819  0.3917 -1.0455  0.3662
  637MOL0     C87773   9.961   4.725   3.723 -0.1891 -0.2944 -0.5835
  637MOL0     C87774   9.872   4.617   3.708 -0.8152  0.5853  0.2537
  637MOL0     C87775   9.875   4.510   3.807 -0.1956 -0.2198  1.4704
  637MOL0     O87776   9.800   4.398   3.798 -0.6088  0.4656 -0.9533
  637MOL0     C87777   9.712   4.375   3.695  0.0718  0.3085 -0.6127
  637MOL0     C87778   9.621   4.269   3.757  0.6995  0.6302 -0.8336
  637MOL0     C87779   9.541   4.308   3.893 -0.6970  0.6556 -0.2532
  637MOL0     C87780   9.451   4.194   3.942  0.6152  0.6893 -0.5128
  637MOL0     C87781   9.511   4.085   4.023 -0.0805 -0.7156 -0.7839
  637MOL0     C87782   9.565   4.147   4.151 -0.2502 -0.5681  0.5586
  637MOL0     C87783   9.609   4.048   4.255  0.0869  0.8164 -0.7630
  637MOL0     C87784   9.591   4.108   4.405 -0.5406  0.0872  1.0566
  637MOL0     N87785   9.623   4.003   4.500  1.1236 -0.1681  0.4833
  637MOL0     C87786   9.746   3.949   4.528 -0.9010 -0.3132  0.4196
  637MOL0     C87787   9.711   3.847   4.613  0.5211 -0.4195  0.1455
  637MOL0     C87788   9.798   3.728   4.641  0.5420  0.1918 -0.2808
  637MOL0     C87789   9.939   3.751   4.678  0.0350 -0.1513  0.8009
  637MOL0     C87790   9.937   3.862   4.788 -0.6485  1.0832  1.0360
  637MOL0     C87791  10.063   3.963   4.772 -0.7396  0.0327 -0.3384
  637MOL0     O87792  10.044   4.033   4.660  0.4870  0.2155  0.5255
  637MOL0     C87793  10.121   4.146   4.626 -0.3636  0.4364  1.3470
  637MOL0     C87794  10.241   4.180   4.686 -0.0002 -0.0057  0.4612
  637MOL0     C87795  10.309   4.294   4.650 -0.3569  0.2262 -0.4521
  637MOL0     C87796  10.434   4.311   4.717 -1.0574  0.4505 -0.7277
  637MOL0     C87797  10.265   4.384   4.549  0.0187 -0.0554 -0.4613
  637MOL0     C87798  10.326   4.515   4.515  0.2839 -0.5074 -1.3344
  637MOL0     O87799  10.278   4.581   4.416  0.0850  0.6604 -0.5614
  637MOL0     C87800  10.305   4.710   4.387 -0.0201 -0.1731 -0.0553
  637MOL0     C87801  10.369   4.749   4.268  0.0945  0.0012 -0.0008
  637MOL0     C87802  10.386   4.883   4.232 -0.3862  0.0747 -0.3938
  637MOL0     C87803  10.366   4.986   4.320  0.0514 -0.1118  0.7665
  637MOL0     O87804  10.397   5.117   4.294  0.0808  0.3661 -0.2738
  637MOL0     C87805  10.438   5.166   4.165  0.3611  0.3705 -0.1975
  637MOL0     C87806  10.484   5.310   4.200 -0.3852  0.9559  0.2793
  637MOL0     C87807  10.606   5.298   4.295  0.3988  0.4283 -0.6298
  637MOL0     C87808  10.665   5.437   4.329  0.5337  0.3731 -0.5036
  637MOL0     C87809  10.775   5.433   4.430 -0.4365  0.5998 -0.1071
  637MOL0     C87810  10.740   5.376   4.571 -0.1242 -0.8640 -0.1225
  637MOL0     C87811  10.870   5.407   4.664  0.7166  0.9307 -0.3548
  637MOL0     C87812  10.851   5.361   4.805  0.0788  1.0382  0.1550
  637MOL0    Cl87813  10.768   5.479   4.896 -0.5434 -0.5421  0.3008
  637MOL0     C87814  10.303   4.957   4.443  0.8307  0.5426 -0.8246
  637MOL0     C87815  10.271   4.817   4.477  0.0110 -0.6175  0.3977
  637MOL0     O87816  10.427   4.550   4.583  0.7148 -0.2978  0.2632
  637MOL0     C87817  10.143   4.350   4.486  0.1745 -0.4975  0.0416
  637MOL0     C87818  10.078   4.225   4.519  0.1727  0.3508  0.7596
  637MOL0     N87819   9.575   3.839   4.634 -0.4887  0.6374 -0.2126
  637MOL0     N87820   9.519   3.930   4.565 -0.9094 -0.5917 -0.3150
  637MOL0     C87821   9.975   4.521   3.905  0.2203  1.1080 -0.1047
  637MOL0     C87822  10.063   4.626   3.911 -0.0195 -0.6240 -0.4225
  637MOL0     C87823  10.326   4.967   3.773 -0.3750  0.0658  0.4618
  637MOL0     C87824  10.242   5.077   3.762  0.4057 -0.6359 -0.7823
  637MOL0     C87825  10.287   5.208   3.747  0.0688 -0.5596  0.4080
  637MOL0     C87826  10.425   5.239   3.732 -0.3280  1.1655 -0.4883
  637MOL0     O87827  10.471   5.363   3.718 -0.4225 -0.6505  0.0581
  637MOL0     C87828  10.610   5.400   3.716 -0.6783 -0.8044 -0.9532
  637MOL0     C87829  10.649   5.551   3.683 -0.0890 -0.5729 -0.5630
  637MOL0     C87830  10.568   5.616   3.578  0.0528  0.3042  0.3279
  637MOL0     C87831  10.629   5.755   3.551 -0.2805 -0.5269 -0.0515
  637MOL0     C87832  10.631   5.840   3.670  0.6497  0.0036 -0.1518
  637MOL0     C87833  10.627   5.914   3.766 -0.4300 -0.6952 -0.0514
  637MOL0     C87834  10.505   5.126   3.754 -0.1248  0.3180 -0.1007
  637MOL0     C87835  10.462   4.995   3.785  1.1351 -0.3302  1.6338
  637MOL0     C87836  10.556   4.892   3.819  0.7143  0.3214  0.4918
  637MOL0     H87837   9.962   4.810   3.655  2.9195  2.5746  2.6864
  637MOL0     H87838   9.804   4.607   3.623  0.4743 -2.3701 -0.5555
  637MOL0     H87839   9.748   4.352   3.595  0.8513  3.2412 -1.1060
  637MOL0     H87840   9.652   4.465   3.676 -3.6738 -1.8874 -0.1579
  637MOL0     H87841   9.541   4.255   3.683 -1.3159 -1.4676  1.5550
  637MOL0     H87842   9.675   4.174   3.762  4.0000  2.3717 -0.3642
  637MOL0     H87843   9.602   4.345   3.976 -1.8025  4.3555 -0.9106
  637MOL0     H87844   9.479   4.391   3.860 -1.5288  0.2410  0.2314
  637MOL0     H87845   9.363   4.238   3.990  0.8260 -0.3529  0.8995
  637MOL0     H87846   9.419   4.143   3.851 -1.4738  1.1008 -0.0583
  637MOL0     H87847   9.578   4.016   3.972  0.8231  0.5111 -1.3177
  637MOL0     H87848   9.426   4.022   4.050 -0.8727  0.7828  0.3622
  637MOL0     H87849   9.651   4.212   4.132  1.1834 -1.9231  2.0350
  637MOL0     H87850   9.484   4.206   4.196 -0.9378 -1.7587  0.9221
  637MOL0     H87851   9.711   4.012   4.238  0.5907  2.7912 -2.3420
  637MOL0     H87852   9.551   3.957   4.238  0.6320  0.2722  0.1789
  637MOL0     H87853   9.658   4.194   4.412 -1.2160  1.1449 -3.0749
  637MOL0     H87854   9.488   4.146   4.402 -0.5308  0.1749  1.7111
  637MOL0     H87855   9.837   3.970   4.472 -2.7437  0.8561 -2.3783
  637MOL0     H87856   9.802   3.658   4.557  0.6548  2.4627 -2.2670
  637MOL0     H87857   9.753   3.677   4.727  0.2604 -0.1313 -0.6169
  637MOL0     H87858   9.977   3.656   4.716 -1.7397  0.2320  3.9637
  637MOL0     H87859   9.986   3.789   4.588  1.0025  1.2543  1.8477
  637MOL0     H87860   9.850   3.927   4.800 -0.3815  1.6171  0.0948
  637MOL0     H87861   9.938   3.812   4.885 -1.0160  0.2082  0.6014
  637MOL0     H87862  10.076   4.035   4.853 -0.8849  1.5454 -1.6216
  637MOL0     H87863  10.156   3.906   4.783  0.8043  2.3607 -0.6061
  637MOL0     H87864  10.269   4.129   4.778  2.3942 -2.0777 -1.2625
  637MOL0     H87865  10.434   4.405   4.773 -2.0334  1.3005 -2.0601
  637MOL0     H87866  10.515   4.314   4.643  2.7943  2.1903  3.1353
  637MOL0     H87867  10.445   4.231   4.790  0.2631 -0.8752 -2.3013
  637MOL0     H87868  10.403   4.677   4.195 -2.2831  0.2642 -1.4746
  637MOL0     H87869  10.437   4.890   4.136 -0.1813 -0.1860 -0.3054
  637MOL0     H87870  10.522   5.102   4.137 -2.4916 -2.9587 -2.0233
  637MOL0     H87871  10.368   5.160   4.081  2.4980 -1.9797 -1.9695
  637MOL0     H87872  10.507   5.373   4.114 -1.6258 -0.6331 -1.2793
  637MOL0     H87873  10.400   5.359   4.249  1.1349  0.6160  3.5165
  637MOL0     H87874  10.676   5.220   4.265 -2.4591 -2.5163 -0.2770
  637MOL0     H87875  10.578   5.253   4.390  1.9463 -0.2214 -0.4695
  637MOL0     H87876  10.587   5.507   4.359 -0.9607 -2.6038  3.3259
  637MOL0     H87877  10.705   5.463   4.230 -2.7147 -1.5720 -2.5144
  637MOL0     H87878  10.852   5.369   4.385  0.6079 -0.4588  2.9277
  637MOL0     H87879  10.830   5.528   4.428 -0.1612  0.4337 -1.5844
  637MOL0     H87880  10.726   5.268   4.557  1.5453 -1.3404  1.4587
  637MOL0     H87881  10.645   5.415   4.609  0.9511  0.3513  1.4531
  637MOL0     H87882  10.890   5.514   4.669  0.0183  1.0259  0.5417
  637MOL0     H87883  10.958   5.353   4.627  1.8355  1.6417  1.1927
  637MOL0     H87884  10.947   5.333   4.848  0.0201  2.4762  1.3216
  637MOL0     H87885  10.789   5.271   4.806  0.2890  0.8662  2.1233
  637MOL0     H87886  10.279   5.035   4.515 -1.0081  1.4636 -2.3377
  637MOL0     H87887  10.221   4.785   4.568  1.8720 -0.6051  1.4812
  637MOL0     H87888  10.112   4.410   4.401  0.4591  2.0952  1.6412
  637MOL0     H87889   9.984   4.201   4.470 -0.8544 -2.1973  3.7000
  637MOL0     H87890   9.982   4.441   3.978 -2.3060  0.7291 -0.1891
  637MOL0     H87891  10.143   4.626   3.983 -1.0064  0.1738  0.7176
  637MOL0     H87892  10.134   5.067   3.753  0.0584  1.4827  0.3469
  637MOL0     H87893  10.217   5.290   3.738 -1.9433 -2.1165  1.1481
  637MOL0     H87894  10.665   5.363   3.803  2.0756  0.1764 -2.1615
  637MOL0     H87895  10.652   5.342   3.633 -1.2448 -4.2646  0.9815
  637MOL0     H87896  10.754   5.541   3.653 -1.3932 -4.2064 -5.0506
  637MOL0     H87897  10.623   5.608   3.772  1.1977 -0.5014 -0.2113
  637MOL0     H87898  10.575   5.558   3.485  2.1674  0.6362  0.2163
  637MOL0     H87899  10.462   5.608   3.603 -0.4378  0.4943 -1.4852
  637MOL0     H87900  10.561   5.799   3.477  0.9652  2.3123  0.3649
  637MOL0     H87901  10.730   5.748   3.510 -0.9917 -0.6517 -1.8894
  637MOL0     H87902  10.624   5.974   3.855  2.0392  0.3435 -0.5910
  637MOL0     H87903  10.612   5.146   3.755 -0.0430 -0.1101  0.3975
  637MOL0     H87904  10.564   4.831   3.729  0.5511  1.5839 -0.4031
  637MOL0     H87905  10.655   4.930   3.848  1.3052  0.6762 -1.8141
  637MOL0     H87906  10.517   4.831   3.900 -0.3043  0.1278 -0.1275
  638MOL0     O87907   1.263   0.893   1.100 -0.3736  0.7226 -0.2812
  638MOL0     C87908   1.269   0.786   1.162 -0.4303 -0.3125 -0.6693
  638MOL0     O87909   1.349   0.764   1.275  0.8294  0.3981  0.0559
  638MOL0     C87910   1.401   0.876   1.336 -0.2944  1.5805 -0.4622
  638MOL0     C87911   1.341   0.916   1.459 -1.0305 -0.9035  0.7025
  638MOL0     C87912   1.386   1.032   1.516  0.3730 -0.9370 -0.2360
  638MOL0     C87913   1.490   1.100   1.457 -0.7708 -0.8225 -0.4918
  638MOL0     O87914   1.554   1.211   1.506 -0.0367  0.7581 -0.0971
  638MOL0     C87915   1.576   1.255   1.635 -0.1696 -0.1824 -0.8842
  638MOL0     C87916   1.666   1.381   1.632 -0.3255  0.0164  0.1568
  638MOL0     C87917   1.637   1.487   1.739  1.1822 -0.1600 -0.2011
  638MOL0     C87918   1.657   1.450   1.884  0.3668 -0.3684  0.0714
  638MOL0     C87919   1.590   1.548   1.975  0.1042 -0.0735 -0.1814
  638MOL0     C87920   1.670   1.578   2.103  0.5744 -0.8172 -0.4434
  638MOL0     C87921   1.608   1.689   2.182  0.7116 -0.3808  0.5017
  638MOL0     C87922   1.679   1.768   2.294  0.5839  0.4073 -1.2329
  638MOL0     N87923   1.778   1.695   2.363  0.0823  0.2548  0.1612
  638MOL0     C87924   1.900   1.669   2.304 -0.4209 -0.8711  0.2197
  638MOL0     C87925   1.942   1.565   2.380 -0.1759  0.2167  1.5462
  638MOL0     C87926   2.075   1.486   2.359  0.5187 -0.1466 -0.6425
  638MOL0     C87927   2.069   1.328   2.331  0.9836 -0.0518  0.5147
  638MOL0     C87928   1.991   1.305   2.199  1.2356 -0.8530 -0.5220
  638MOL0     C87929   1.978   1.161   2.153 -0.2140 -0.1949 -0.0678
  638MOL0     O87930   1.906   1.146   2.023 -0.3262 -0.2343 -0.7603
  638MOL0     C87931   1.916   1.030   1.949  0.3761  0.0662 -0.0801
  638MOL0     C87932   1.947   0.901   1.999  0.1659 -0.7920  0.7508
  638MOL0     C87933   1.931   0.796   1.919 -0.3867  0.1122  0.1492
  638MOL0     C87934   1.969   0.663   1.974  0.9965  0.9035  0.5339
  638MOL0     C87935   1.871   0.801   1.795 -0.9922  0.1638 -0.7341
  638MOL0     C87936   1.859   0.688   1.695  0.5415 -0.1605  0.2255
  638MOL0     O87937   1.741   0.687   1.620  0.2913 -0.3645 -0.0450
  638MOL0     C87938   1.739   0.649   1.486  0.0006 -0.0201  0.0783
  638MOL0     C87939   1.857   0.625   1.412  0.4190 -0.4988  0.3980
  638MOL0     C87940   1.842   0.568   1.286 -0.2737 -0.2310  1.0138
  638MOL0     C87941   1.717   0.542   1.231 -0.5778  0.0436 -0.3940
  638MOL0     O87942   1.732   0.478   1.109  0.5667  0.0004 -0.5809
  638MOL0     C87943   1.617   0.476   1.021 -0.4361 -1.3479 -0.1446
  638MOL0     C87944   1.561   0.618   0.985  0.0611  0.5168 -0.6738
  638MOL0     C87945   1.676   0.692   0.925  0.3412  0.3055 -1.2373
  638MOL0     C87946   1.629   0.831   0.883  0.3922 -0.2967  0.6755
  638MOL0     C87947   1.544   0.826   0.751  0.4201 -0.3579  0.8659
  638MOL0     C87948   1.499   0.973   0.708  0.3306  0.6306  0.4214
  638MOL0     C87949   1.422   0.968   0.577 -0.5223  0.3280 -0.0095
  638MOL0     C87950   1.502   0.907   0.462 -0.4974  0.3625  0.1171
  638MOL0    Cl87951   1.659   0.992   0.440  0.4611  0.4577 -0.2096
  638MOL0     C87952   1.601   0.570   1.297 -0.1994 -0.5567  0.7883
  638MOL0     C87953   1.616   0.619   1.427  0.3398 -0.0165 -0.4437
  638MOL0     O87954   1.954   0.608   1.684  0.1945 -0.1088 -0.2188
  638MOL0     C87955   1.823   0.927   1.751  0.6465  0.3350 -0.0033
  638MOL0     C87956   1.857   1.044   1.822 -0.1516  0.7929  0.3325
  638MOL0     N87957   1.845   1.543   2.481  0.2846 -0.6248 -0.1378
  638MOL0     N87958   1.752   1.628   2.474 -0.1002 -0.0662 -0.6336
  638MOL0     C87959   1.549   1.055   1.341 -0.0915  0.5309 -0.3890
  638MOL0     C87960   1.507   0.939   1.270 -0.3360  0.2317 -0.7101
  638MOL0     C87961   1.195   0.687   1.102  0.8326  0.6030 -0.9740
  638MOL0     C87962   1.190   0.559   1.169  0.4072 -0.5523 -0.4275
  638MOL0     C87963   1.105   0.448   1.137 -0.9702 -0.2366  1.1321
  638MOL0     C87964   1.039   0.464   1.019 -0.1917 -0.2945  0.2353
  638MOL0     O87965   0.947   0.371   0.968 -0.0358  0.3936  0.7560
  638MOL0     C87966   0.942   0.232   1.012 -0.1970  0.1966  0.8404
  638MOL0     C87967   0.909   0.153   0.890  0.0517 -0.5845  0.1238
  638MOL0     C87968   0.914   0.005   0.937  0.4051 -0.2603 -0.0228
  638MOL0     C87969   1.042  -0.069   0.922  0.2509 -0.2426  0.3971
  638MOL0     C87970   1.094  -0.086   0.785  0.0226  0.3913  0.3565
  638MOL0     C87971   1.153  -0.080   0.678 -0.0466  0.2215  0.9665
  638MOL0     C87972   1.052   0.574   0.943 -0.8901 -1.0648  0.7977
  638MOL0     C87973   1.124   0.691   0.976 -0.6666  0.1724  0.0281
  638MOL0     C87974   1.110   0.806   0.881 -0.4526  0.3943  0.1423
  638MOL0     H87975   1.267   0.852   1.506 -1.0789 -0.3558  1.3823
  638MOL0     H87976   1.359   1.077   1.611  3.6356  0.4237  0.1866
  638MOL0     H87977   1.624   1.179   1.696 -2.0070 -0.7998 -0.1369
  638MOL0     H87978   1.478   1.276   1.680  0.4659  0.9637  0.0231
  638MOL0     H87979   1.774   1.365   1.623 -0.3737  0.8301 -3.2368
  638MOL0     H87980   1.640   1.429   1.538 -1.3044 -1.4480 -0.3514
  638MOL0     H87981   1.705   1.570   1.716  0.7042  0.2253 -0.2417
  638MOL0     H87982   1.537   1.521   1.713  1.5388  2.5379  1.5220
  638MOL0     H87983   1.603   1.357   1.902 -2.1653  0.6082 -1.9149
  638MOL0     H87984   1.761   1.446   1.916  0.1324  0.7595  1.0862
  638MOL0     H87985   1.496   1.509   2.014  0.7662  0.5055  2.1032
  638MOL0     H87986   1.565   1.642   1.923  0.5192  0.0464 -0.1718
  638MOL0     H87987   1.676   1.487   2.163  1.1821 -0.2038  0.4463
  638MOL0     H87988   1.777   1.594   2.085  1.2112 -3.6633  0.3056
  638MOL0     H87989   1.512   1.650   2.217 -1.4971 -0.5000 -4.7151
  638MOL0     H87990   1.594   1.765   2.105  0.6596 -0.5440  0.3496
  638MOL0     H87991   1.737   1.844   2.239  2.5503  1.9414  2.5711
  638MOL0     H87992   1.603   1.806   2.362  1.0353 -0.8502  0.0225
  638MOL0     H87993   1.951   1.711   2.218  1.3438 -4.2179 -0.5559
  638MOL0     H87994   2.129   1.497   2.453  0.1875 -0.0720 -0.4624
  638MOL0     H87995   2.135   1.527   2.277 -0.5352  0.2236 -1.2485
  638MOL0     H87996   2.167   1.281   2.319 -0.1161 -2.0216 -1.5053
  638MOL0     H87997   2.012   1.286   2.414  2.8051  1.5224  2.6495
  638MOL0     H87998   1.890   1.340   2.223  3.2831  4.0693  2.4701
  638MOL0     H87999   2.024   1.373   2.120  1.1955 -1.3909 -1.0088
  638MOL0     H88000   2.075   1.110   2.147 -0.3580 -0.3942 -0.9939
  638MOL0     H88001   1.911   1.119   2.229 -1.0051 -0.7265 -1.0248
  638MOL0     H88002   1.965   0.888   2.106 -0.9767  2.5170  1.4473
  638MOL0     H88003   2.056   0.622   1.922  0.1202 -0.0776 -0.2132
  638MOL0     H88004   1.894   0.587   1.950  0.2712  1.1489  1.9563
  638MOL0     H88005   2.004   0.672   2.077  1.6701  1.7414  0.2412
  638MOL0     H88006   1.962   0.638   1.435  0.4999 -1.6996  0.7887
  638MOL0     H88007   1.925   0.549   1.219  0.5625  0.9385  1.6804
  638MOL0     H88008   1.632   0.422   0.927 -0.3323  1.5376 -1.9090
  638MOL0     H88009   1.534   0.425   1.071 -0.8657 -1.2462 -0.7458
  638MOL0     H88010   1.471   0.605   0.925  0.2200  0.5170 -0.9119
  638MOL0     H88011   1.526   0.673   1.073  1.0391  1.2329 -0.7149
  638MOL0     H88012   1.738   0.647   0.846  3.3527  0.7704  0.6787
  638MOL0     H88013   1.746   0.710   1.007 -0.0064  1.1964 -1.1273
  638MOL0     H88014   1.714   0.895   0.862 -2.6856  3.0519 -3.1377
  638MOL0     H88015   1.564   0.877   0.958 -2.0499 -0.1381 -1.3926
  638MOL0     H88016   1.606   0.787   0.671 -2.7710 -0.1498 -1.9369
  638MOL0     H88017   1.450   0.771   0.764 -1.2692  2.7291  3.2635
  638MOL0     H88018   1.588   1.035   0.691  2.1339 -1.5964  1.3084
  638MOL0     H88019   1.440   1.018   0.788  1.7891  1.4271  1.1046
  638MOL0     H88020   1.388   1.069   0.554 -2.8629 -0.2889  0.4769
  638MOL0     H88021   1.326   0.922   0.602 -0.4805  0.4970  0.4862
  638MOL0     H88022   1.444   0.911   0.369  1.1297 -0.3969 -0.9812
  638MOL0     H88023   1.534   0.804   0.480  2.8069  1.1499 -0.5595
  638MOL0     H88024   1.500   0.549   1.264  0.7466  0.1224 -2.9366
  638MOL0     H88025   1.520   0.641   1.473  0.1119 -1.5395 -0.1312
  638MOL0     H88026   1.765   0.931   1.659  0.4442  0.6385  0.1395
  638MOL0     H88027   1.821   1.141   1.791 -2.7186  0.1204  0.9759
  638MOL0     H88028   1.634   1.113   1.306 -0.3450  0.1094 -1.7647
  638MOL0     H88029   1.547   0.908   1.174  1.4534  0.7175 -0.1699
  638MOL0     H88030   1.256   0.536   1.252  3.1519 -0.9360 -2.5592
  638MOL0     H88031   1.102   0.358   1.197  0.1734 -1.7974 -1.0122
  638MOL0     H88032   1.038   0.199   1.053 -0.6097  0.3762  2.0154
  638MOL0     H88033   0.864   0.216   1.087  0.2664  0.9412  1.5109
  638MOL0     H88034   0.981   0.181   0.812 -1.8691 -0.2411 -1.6184
  638MOL0     H88035   0.809   0.186   0.861  0.3542 -1.2575 -1.8568
  638MOL0     H88036   0.896   0.001   1.045  1.0809  0.0416  0.1020
  638MOL0     H88037   0.834  -0.049   0.885  0.7596 -1.7282  0.8771
  638MOL0     H88038   1.033  -0.166   0.971 -3.2464  1.2361  3.1134
  638MOL0     H88039   1.119  -0.013   0.977  0.0130  0.4677  0.0239
  638MOL0     H88040   1.218  -0.080   0.593  1.0622  5.9441  1.4541
  638MOL0     H88041   0.984   0.586   0.860 -0.5718 -0.4117  0.6252
  638MOL0     H88042   1.202   0.858   0.853 -0.6891  1.0139  0.4920
  638MOL0     H88043   1.055   0.774   0.792  3.2173 -1.2820 -1.7453
  638MOL0     H88044   1.042   0.882   0.922 -1.7024 -0.7246  0.2129
  639MOL0     O88045   8.596  10.857   0.093  0.6572 -0.1831 -0.7292
  639MOL0     C88046   8.612  10.833   0.210  0.6020  0.5826  0.0720
  639MOL0     O88047   8.509  10.817   0.295  0.0505  0.3904 -0.2870
  639MOL0     C88048   8.385  10.868   0.266  0.0917  0.0153  0.1109
  639MOL0     C88049   8.363  10.986   0.193  0.3558  0.0468 -0.1676
  639MOL0     C88050   8.235  11.024   0.155  0.6131 -0.3002  0.1430
  639MOL0     C88051   8.122  10.948   0.207  0.1615 -0.4854 -0.6128
  639MOL0     O88052   8.001  10.999   0.178 -0.5170  0.5472  0.4619
  639MOL0     C88053   7.886  10.930   0.224  0.3835  0.3037 -0.5153
  639MOL0     C88054   7.765  10.999   0.159 -0.0839  1.1430 -1.0265
  639MOL0     C88055   7.623  10.943   0.188  1.4191  0.8854 -0.1086
  639MOL0     C88056   7.606  10.795   0.153 -0.3851  0.8956  0.3277
  639MOL0     C88057   7.460  10.753   0.144  0.0485 -0.4113 -0.4082
  639MOL0     C88058   7.379  10.771   0.284  0.4657  0.3367  0.3924
  639MOL0     C88059   7.228  10.769   0.253 -0.1307 -0.7632 -0.2419
  639MOL0     C88060   7.129  10.780   0.382 -0.3146  0.1292  0.0539
  639MOL0     N88061   7.166  10.695   0.497  0.0932  0.4831 -0.1973
  639MOL0     C88062   7.122  10.571   0.523 -1.0449  0.2694 -1.7286
  639MOL0     C88063   7.134  10.553   0.667 -0.4295 -0.2335 -0.2781
  639MOL0     C88064   7.110  10.424   0.745  0.8971 -0.8821 -0.1280
  639MOL0     C88065   7.043  10.453   0.884 -1.1366  0.9426  0.9073
  639MOL0     C88066   6.894  10.510   0.881 -0.1816 -1.1304 -0.2682
  639MOL0     C88067   6.841  10.540   1.026  0.1713 -0.0121 -0.2866
  639MOL0     O88068   6.808  10.421   1.095  0.1673 -0.7812  0.9172
  639MOL0     C88069   6.687  10.357   1.076  0.0719  0.2418  0.2576
  639MOL0     C88070   6.666  10.228   1.127 -0.2166 -0.9900  0.9536
  639MOL0     C88071   6.550  10.153   1.092 -0.6820  0.3489 -0.2677
  639MOL0     C88072   6.550  10.007   1.126  0.0691  0.8555  0.2196
  639MOL0     C88073   6.445  10.214   1.016 -0.4413 -0.5972 -0.5024
  639MOL0     C88074   6.311  10.148   0.999 -0.1286  0.5756 -0.2934
  639MOL0     O88075   6.250  10.173   0.883 -0.0207 -0.0991  0.0757
  639MOL0     C88076   6.184  10.066   0.823 -0.4959 -0.6605  0.0584
  639MOL0     C88077   6.093  10.093   0.715 -0.6056 -0.1993 -0.3398
  639MOL0     C88078   6.028   9.984   0.641 -1.3734 -1.0150 -0.3921
  639MOL0     C88079   6.059   9.851   0.678 -0.3257 -1.1044  0.2136
  639MOL0     O88080   5.989   9.739   0.640 -0.9867 -0.3925 -0.2780
  639MOL0     C88081   5.896   9.749   0.529  0.4067 -0.4286 -0.4399
  639MOL0     C88082   5.762   9.741   0.583  0.2240 -0.0706  0.2412
  639MOL0     C88083   5.661   9.734   0.464 -0.8907 -0.2174  0.3240
  639MOL0     C88084   5.652   9.876   0.401  0.5533 -0.3439 -0.2657
  639MOL0     C88085   5.567   9.873   0.271 -0.3991 -0.1698 -0.7100
  639MOL0     C88086   5.424   9.821   0.285  0.3719  0.4922 -0.4927
  639MOL0     C88087   5.352   9.913   0.383 -0.0314  0.5352 -0.3966
  639MOL0     C88088   5.203   9.881   0.379 -0.2427 -1.6284 -0.3557
  639MOL0    Cl88089   5.156   9.953   0.223  0.1655  0.1189 -0.0993
  639MOL0     C88090   6.141   9.830   0.785 -0.4241 -0.5451  0.0247
  639MOL0     C88091   6.208   9.932   0.852  0.1023  0.6995 -0.0758
  639MOL0     O88092   6.263  10.078   1.086  0.4891  0.5277 -0.8986
  639MOL0     C88093   6.463  10.347   0.976  0.4882  0.8755 -1.0130
  639MOL0     C88094   6.580  10.417   1.001 -1.0601  0.0658  0.7344
  639MOL0     N88095   7.204  10.658   0.714 -0.2994 -0.2173  0.0819
  639MOL0     N88096   7.214  10.742   0.618 -0.5588 -0.3177 -0.0069
  639MOL0     C88097   8.149  10.833   0.281  0.8527 -1.3025  0.4426
  639MOL0     C88098   8.279  10.791   0.310 -0.2109 -0.7942 -0.5468
  639MOL0     C88099   8.752  10.800   0.246  0.8211  0.7172 -0.0666
  639MOL0     C88100   8.848  10.787   0.141  0.3923  0.1575  0.2436
  639MOL0     C88101   8.982  10.769   0.182 -0.4282 -0.8332  0.0765
  639MOL0     C88102   9.023  10.746   0.313  0.8871 -0.1245 -0.6246
  639MOL0     O88103   9.140  10.707   0.372  0.1899  0.1016  0.4720
  639MOL0     C88104   9.244  10.694   0.281  0.1506  0.6663 -0.9855
  639MOL0     C88105   9.359  10.633   0.363 -0.9494 -0.3783  0.4274
  639MOL0     C88106   9.410  10.720   0.481  0.0831  0.0625 -0.9770
  639MOL0     C88107   9.538  10.672   0.545  0.4181  0.2367 -0.0904
  639MOL0     C88108   9.575  10.771   0.658 -0.0102 -0.0719 -0.2005
  639MOL0     C88109   9.580  10.841   0.757 -1.0665 -0.3355 -0.3122
  639MOL0     C88110   8.922  10.752   0.407  0.0150  0.4930  0.2724
  639MOL0     C88111   8.788  10.779   0.374  0.3097  0.4527 -0.4299
  639MOL0     C88112   8.697  10.779   0.496  0.4711 -0.2512  0.4531
  639MOL0     H88113   8.444  11.048   0.158  1.8860 -2.6002 -1.6694
  639MOL0     H88114   8.223  11.111   0.090  1.3276  1.2937  2.0400
  639MOL0     H88115   7.882  10.944   0.332  0.9187  1.8941 -0.6737
  639MOL0     H88116   7.881  10.821   0.214  1.1292 -0.0150  1.9130
  639MOL0     H88117   7.759  11.106   0.184 -0.0544  1.3722 -1.9638
  639MOL0     H88118   7.779  10.986   0.051 -0.9020  1.9937 -1.2533
  639MOL0     H88119   7.589  10.964   0.290 -1.5996  0.7417 -1.0086
  639MOL0     H88120   7.550  10.982   0.118  2.7732 -2.5647 -3.8513
  639MOL0     H88121   7.653  10.774   0.057  1.0489 -0.1235  1.2223
  639MOL0     H88122   7.661  10.741   0.230  0.7343  3.8268  1.7333
  639MOL0     H88123   7.452  10.649   0.111 -1.3799 -0.7179  0.8180
  639MOL0     H88124   7.410  10.814   0.068  0.5330  1.1041  0.4557
  639MOL0     H88125   7.426  10.703   0.356  0.4542  1.3266  1.3648
  639MOL0     H88126   7.408  10.869   0.323  0.1061  0.0086  1.5133
  639MOL0     H88127   7.210  10.674   0.202  0.1981 -1.1356  0.3325
  639MOL0     H88128   7.198  10.844   0.179  0.1395 -0.5303 -0.1174
  639MOL0     H88129   7.131  10.884   0.413 -2.2809  1.0027 -2.4474
  639MOL0     H88130   7.024  10.760   0.358 -0.5946 -1.2441  2.1081
  639MOL0     H88131   7.085  10.494   0.456  1.7781 -0.3415 -2.7564
  639MOL0     H88132   7.210  10.382   0.760  3.0748  3.5234 -0.8398
  639MOL0     H88133   7.046  10.362   0.682  0.8637  0.0704 -1.0505
  639MOL0     H88134   7.064  10.364   0.945  0.7133  0.7574  0.0726
  639MOL0     H88135   7.109  10.523   0.937 -1.5866  0.9145  1.5117
  639MOL0     H88136   6.896  10.602   0.822  2.1272 -0.0335  1.3583
  639MOL0     H88137   6.820  10.447   0.831 -4.4795  2.9886  0.2745
  639MOL0     H88138   6.920  10.600   1.072  0.1580  0.5301 -0.9438
  639MOL0     H88139   6.761  10.614   1.026  1.1271  1.0605  0.2718
  639MOL0     H88140   6.750  10.189   1.183  1.1382  1.6442  0.9423
  639MOL0     H88141   6.520   9.953   1.035 -1.7701 -0.0599  1.2978
  639MOL0     H88142   6.467   9.971   1.188  0.1219 -1.7707 -1.0833
  639MOL0     H88143   6.647   9.964   1.152  0.3336  0.2598 -1.5802
  639MOL0     H88144   6.066  10.194   0.687 -0.1487 -0.4549 -1.7509
  639MOL0     H88145   5.949  10.010   0.572 -1.1772  2.9336  0.5792
  639MOL0     H88146   5.917   9.832   0.462 -2.5176  1.5240  0.8656
  639MOL0     H88147   5.916   9.652   0.480 -1.1769 -1.1398  0.2576
  639MOL0     H88148   5.763   9.647   0.639 -0.4723 -0.1904  0.0609
  639MOL0     H88149   5.742   9.832   0.642 -0.6098  2.7708 -3.9984
  639MOL0     H88150   5.563   9.714   0.509  0.2275  0.1605  3.0540
  639MOL0     H88151   5.689   9.660   0.388  0.1590  0.0979  0.3902
  639MOL0     H88152   5.752   9.903   0.367 -0.1219 -0.0259 -2.1456
  639MOL0     H88153   5.624   9.954   0.472  1.9641 -2.0949  2.4000
  639MOL0     H88154   5.570   9.975   0.234 -2.4071  0.2853  0.2571
  639MOL0     H88155   5.612   9.803   0.200 -2.8821 -3.0227  0.3394
  639MOL0     H88156   5.405   9.720   0.320 -1.1892  1.1693  0.7449
  639MOL0     H88157   5.379   9.847   0.188 -2.6458  1.3586  1.0407
  639MOL0     H88158   5.380  10.018   0.373  0.5883  0.2698 -1.6782
  639MOL0     H88159   5.392   9.893   0.483 -1.8346  1.0699  0.4685
  639MOL0     H88160   5.148   9.919   0.465  1.9557 -0.7847  0.7734
  639MOL0     H88161   5.191   9.773   0.375 -0.7352 -1.7017  2.0391
  639MOL0     H88162   6.162   9.728   0.812  1.2807 -0.4179 -0.7057
  639MOL0     H88163   6.281   9.905   0.928  2.0315  1.8578 -1.4195
  639MOL0     H88164   6.392  10.400   0.914 -1.7246 -1.2685 -0.4708
  639MOL0     H88165   6.589  10.522   0.974  2.3776 -0.2182  0.3585
  639MOL0     H88166   8.069  10.769   0.318  0.0834  0.6097  2.2968
  639MOL0     H88167   8.301  10.702   0.369  0.7081 -0.6226 -0.6179
  639MOL0     H88168   8.833  10.801   0.035  1.1400 -2.8162 -0.3663
  639MOL0     H88169   9.061  10.764   0.107 -1.1263  1.1761 -0.8491
  639MOL0     H88170   9.203  10.636   0.198 -1.1750  2.1102 -1.3869
  639MOL0     H88171   9.265  10.789   0.232  0.5274  0.4580 -1.2268
  639MOL0     H88172   9.451  10.638   0.303 -1.2178  0.9704  0.1038
  639MOL0     H88173   9.336  10.529   0.390  0.7584 -0.4068  1.9620
  639MOL0     H88174   9.429  10.821   0.444  1.2370  0.8247  1.4703
  639MOL0     H88175   9.335  10.737   0.559 -0.1309  1.7005 -1.4929
  639MOL0     H88176   9.620  10.658   0.475 -0.5413  0.6586 -1.3311
  639MOL0     H88177   9.521  10.569   0.580  1.3544  0.1768  0.2086
  639MOL0     H88178   9.576  10.901   0.846 -3.7239 -0.9020  0.0243
  639MOL0     H88179   8.954  10.731   0.508 -1.1031  0.0337  0.5435
  639MOL0     H88180   8.628  10.694   0.505  1.1876 -0.7410  1.5951
  639MOL0     H88181   8.748  10.753   0.589  1.3637 -2.5916 -0.6084
  639MOL0     H88182   8.645  10.874   0.508  1.2342  0.1302  0.8135
  640MOL0     O88183   3.449   4.787   7.476 -0.2536 -0.3467  0.0988
  640MOL0     C88184   3.421   4.794   7.356 -0.1631  0.2787  0.9934
  640MOL0     O88185   3.469   4.705   7.252 -0.6069  0.7536 -0.1254
  640MOL0     C88186   3.597   4.649   7.268 -0.1940  0.1601 -0.0214
  640MOL0     C88187   3.632   4.539   7.191  0.1641 -0.6955 -0.0203
  640MOL0     C88188   3.770   4.490   7.179  0.3122  0.2550  0.2093
  640MOL0     C88189   3.864   4.537   7.273  0.9971 -0.4174 -0.1986
  640MOL0     O88190   3.980   4.463   7.275  0.5305  0.0113 -0.2526
  640MOL0     C88191   4.088   4.519   7.347 -0.2347 -0.0353  0.0982
  640MOL0     C88192   4.221   4.446   7.312 -1.0856 -0.0053 -0.0779
  640MOL0     C88193   4.224   4.308   7.379  1.0486  0.4898  0.5599
  640MOL0     C88194   4.333   4.216   7.323  0.3179  0.1974 -0.2555
  640MOL0     C88195   4.331   4.075   7.388 -0.1806  0.5030  0.1199
  640MOL0     C88196   4.436   3.978   7.326  0.1988 -0.2440 -0.0016
  640MOL0     C88197   4.403   3.895   7.205  0.8752 -0.7440  0.6431
  640MOL0     C88198   4.436   3.745   7.200 -0.8525 -0.0335 -0.4544
  640MOL0     N88199   4.369   3.678   7.314  0.0277 -0.5267 -0.6778
  640MOL0     C88200   4.269   3.597   7.300  0.0222  0.5417 -0.3849
  640MOL0     C88201   4.247   3.544   7.419  0.7163 -0.8039 -0.0373
  640MOL0     C88202   4.148   3.431   7.454 -0.6144 -0.1050 -0.1613
  640MOL0     C88203   4.006   3.478   7.473 -0.1826 -0.0486  0.0330
  640MOL0     C88204   3.990   3.532   7.617  0.0511  0.0984  0.3317
  640MOL0     C88205   3.857   3.590   7.647  0.2158  0.0404  1.1272
  640MOL0     O88206   3.842   3.620   7.784  0.0208 -0.6170 -0.3004
  640MOL0     C88207   3.713   3.643   7.817 -0.5454 -0.5423 -0.2537
  640MOL0     C88208   3.687   3.639   7.954  0.6544  0.0984 -0.0273
  640MOL0     C88209   3.553   3.660   7.999 -0.3932 -0.7435  0.1577
  640MOL0     C88210   3.535   3.645   8.157  1.1820  0.1506 -0.0666
  640MOL0     C88211   3.447   3.700   7.910  1.0829  0.1724 -0.3560
  640MOL0     C88212   3.298   3.716   7.954 -0.6393  0.7703  0.3565
  640MOL0     O88213   3.217   3.771   7.862 -0.7120 -0.2100 -0.5397
  640MOL0     C88214   3.085   3.761   7.882  0.5109  0.4908  0.2738
  640MOL0     C88215   3.021   3.888   7.868  0.0912  0.4857  0.8479
  640MOL0     C88216   2.888   3.903   7.901 -0.3459  0.4494 -0.2390
  640MOL0     C88217   2.806   3.795   7.922 -0.1086 -0.4308 -0.0189
  640MOL0     O88218   2.666   3.794   7.927 -0.3837  0.9325 -0.0577
  640MOL0     C88219   2.602   3.911   7.977  0.1982 -0.7653 -1.0595
  640MOL0     C88220   2.503   3.868   8.091 -0.5075  0.5959  1.0107
  640MOL0     C88221   2.551   3.748   8.165  0.5679 -0.2732 -0.4517
  640MOL0     C88222   2.453   3.713   8.285  0.0960 -0.7315 -0.2212
  640MOL0     C88223   2.506   3.582   8.360 -0.2983 -0.2031 -0.3479
  640MOL0     C88224   2.434   3.562   8.493 -0.3112  0.1818 -0.3397
  640MOL0     C88225   2.492   3.445   8.570  1.1496 -0.3316 -0.2116
  640MOL0     C88226   2.477   3.439   8.718 -0.6646 -0.4686  0.9505
  640MOL0    Cl88227   2.306   3.431   8.754 -0.3701 -0.4621 -0.1117
  640MOL0     C88228   2.864   3.665   7.926  0.8962  0.6429  0.1924
  640MOL0     C88229   3.004   3.649   7.916  0.8160 -0.1551  0.0648
  640MOL0     O88230   3.264   3.671   8.065  0.0691  0.0886  0.4294
  640MOL0     C88231   3.481   3.705   7.771  0.2180  0.8831 -0.1011
  640MOL0     C88232   3.613   3.681   7.725 -0.4441 -1.1865 -0.8471
  640MOL0     N88233   4.332   3.602   7.510  0.6233  0.1651  0.1834
  640MOL0     N88234   4.403   3.687   7.441  0.7841  1.0881 -0.1746
  640MOL0     C88235   3.826   4.643   7.360  0.4854 -0.0773 -0.4619
  640MOL0     C88236   3.695   4.698   7.360 -0.8316  0.8621 -0.7669
  640MOL0     C88237   3.324   4.897   7.320 -0.0210 -0.4055  0.0019
  640MOL0     C88238   3.271   4.878   7.196 -0.4595  0.2132 -0.4847
  640MOL0     C88239   3.167   4.961   7.159  0.3024 -0.0831  0.1831
  640MOL0     C88240   3.117   5.062   7.235 -0.9563  0.0137 -0.1228
  640MOL0     O88241   2.989   5.121   7.189 -0.2963  0.1801  0.1708
  640MOL0     C88242   2.886   5.144   7.292  0.2868 -0.2561 -0.5400
  640MOL0     C88243   2.861   5.294   7.279  1.2271 -0.3547 -0.1736
  640MOL0     C88244   2.755   5.319   7.163  0.4882  0.1963  0.6079
  640MOL0     C88245   2.749   5.469   7.140  0.2190  0.4417  0.5495
  640MOL0     C88246   2.658   5.521   7.038  0.5320 -0.6447 -0.1653
  640MOL0     C88247   2.571   5.554   6.959 -1.3168  0.0928 -0.8929
  640MOL0     C88248   3.178   5.087   7.358  0.0195 -0.2829  0.3865
  640MOL0     C88249   3.287   5.013   7.402 -0.6763  0.7230 -0.2308
  640MOL0     C88250   3.349   5.041   7.542  0.3068  0.8830  0.1091
  640MOL0     H88251   3.554   4.493   7.131  0.8127 -1.6092 -0.1969
  640MOL0     H88252   3.787   4.406   7.113  4.4798  0.1840  1.1379
  640MOL0     H88253   4.077   4.526   7.455  1.1843  2.0565  0.1594
  640MOL0     H88254   4.103   4.622   7.313 -0.3289 -0.6067 -1.7743
  640MOL0     H88255   4.236   4.420   7.207  2.4782 -1.2042  0.5580
  640MOL0     H88256   4.308   4.506   7.342  0.2447 -1.7667 -0.2037
  640MOL0     H88257   4.238   4.313   7.487 -1.5209  0.0264  0.9763
  640MOL0     H88258   4.128   4.263   7.350  1.9176 -2.0695  1.3531
  640MOL0     H88259   4.315   4.201   7.217 -0.3525  2.5214 -0.5336
  640MOL0     H88260   4.425   4.275   7.339  0.2289  0.1945  0.3022
  640MOL0     H88261   4.233   4.030   7.369  0.0858 -0.9428  1.9673
  640MOL0     H88262   4.341   4.090   7.496  1.8903  0.6447 -0.0603
  640MOL0     H88263   4.525   4.036   7.299  0.6475 -0.8546  0.1553
  640MOL0     H88264   4.456   3.907   7.407 -2.4089 -0.7112  0.3144
  640MOL0     H88265   4.447   3.936   7.113 -0.5958 -0.6057 -0.0179
  640MOL0     H88266   4.297   3.894   7.180  1.1997 -5.6678 -1.8630
  640MOL0     H88267   4.401   3.695   7.109 -2.1245 -1.4260  0.7352
  640MOL0     H88268   4.543   3.731   7.212 -1.0619 -0.5656  1.0205
  640MOL0     H88269   4.229   3.572   7.203  0.2747  2.4664 -1.0401
  640MOL0     H88270   4.181   3.371   7.539  0.1008  2.1191  1.2089
  640MOL0     H88271   4.142   3.357   7.373  2.4915 -0.1786 -0.4337
  640MOL0     H88272   3.960   3.553   7.409  2.1555  0.0161 -1.7115
  640MOL0     H88273   3.947   3.388   7.454 -0.7905 -0.1501  2.1385
  640MOL0     H88274   4.011   3.449   7.686  0.1256 -0.1597  0.0046
  640MOL0     H88275   4.061   3.612   7.638  0.6202 -0.3063 -0.0107
  640MOL0     H88276   3.850   3.689   7.600  0.6077 -0.9259 -1.1099
  640MOL0     H88277   3.773   3.529   7.613  0.2975  1.3363 -1.7290
  640MOL0     H88278   3.757   3.596   8.024 -1.3969 -0.0267  2.1030
  640MOL0     H88279   3.487   3.548   8.171 -2.3207  0.9030 -4.5572
  640MOL0     H88280   3.487   3.738   8.187  1.3469  0.8861 -1.9507
  640MOL0     H88281   3.629   3.649   8.212 -0.2567  0.1710  2.5367
  640MOL0     H88282   3.064   3.986   7.851 -1.4421  1.3364  1.6962
  640MOL0     H88283   2.860   4.008   7.890 -0.3868  0.4826  0.1679
  640MOL0     H88284   2.668   3.980   8.030  0.4614  0.1154 -2.5046
  640MOL0     H88285   2.548   3.968   7.901  1.6535  0.1429 -1.4496
  640MOL0     H88286   2.479   3.956   8.151 -1.3675  0.8449  0.3302
  640MOL0     H88287   2.417   3.841   8.029 -0.7867  0.4337  1.4607
  640MOL0     H88288   2.653   3.754   8.204  0.3141 -1.8343  0.5294
  640MOL0     H88289   2.548   3.655   8.108  0.2400 -1.4730  1.4149
  640MOL0     H88290   2.346   3.715   8.263 -0.2982  1.9495  1.4533
  640MOL0     H88291   2.473   3.790   8.360 -2.6007 -1.2926  1.2120
  640MOL0     H88292   2.481   3.495   8.299 -0.8611 -2.7167  3.1687
  640MOL0     H88293   2.614   3.586   8.376 -0.5411 -0.6570  1.5690
  640MOL0     H88294   2.328   3.545   8.473 -0.0833  0.8291 -2.2413
  640MOL0     H88295   2.445   3.648   8.560  2.4130  0.5605 -1.1810
  640MOL0     H88296   2.601   3.445   8.560  1.2438  0.1684  0.7019
  640MOL0     H88297   2.457   3.353   8.523 -0.2557  1.1419 -2.2133
  640MOL0     H88298   2.524   3.527   8.764 -2.4969  1.4821 -0.6915
  640MOL0     H88299   2.513   3.343   8.756  0.7193  0.4974  2.2383
  640MOL0     H88300   2.805   3.583   7.965  0.4561  2.1762  2.9954
  640MOL0     H88301   3.055   3.558   7.947  1.5576 -0.9824 -3.2061
  640MOL0     H88302   3.417   3.740   7.690 -2.6574  0.5725  1.8832
  640MOL0     H88303   3.635   3.680   7.619  2.7480 -0.9812 -0.2897
  640MOL0     H88304   3.903   4.677   7.428  1.3679  2.4206 -2.5433
  640MOL0     H88305   3.673   4.784   7.423  0.4456 -0.8346  2.2213
  640MOL0     H88306   3.281   4.795   7.127 -2.3642 -0.1203 -0.4299
  640MOL0     H88307   3.132   4.953   7.056 -0.9668  5.1657 -0.0990
  640MOL0     H88308   2.796   5.089   7.263  1.2902 -1.9649 -0.5609
  640MOL0     H88309   2.920   5.115   7.392 -1.4980  0.9309  0.4572
  640MOL0     H88310   2.954   5.342   7.249  2.1051 -2.9381 -1.9615
  640MOL0     H88311   2.815   5.338   7.368 -1.0655  1.7161 -2.2230
  640MOL0     H88312   2.791   5.268   7.073 -3.1827 -0.4247 -0.6515
  640MOL0     H88313   2.657   5.274   7.178 -1.8080  4.1022 -1.1266
  640MOL0     H88314   2.846   5.516   7.120 -0.6114  1.6185 -0.9844
  640MOL0     H88315   2.713   5.510   7.235  3.8051  0.4057  2.0738
  640MOL0     H88316   2.506   5.609   6.894  1.1875  2.5540 -1.4890
  640MOL0     H88317   3.139   5.158   7.429  2.6509  1.0854  0.5902
  640MOL0     H88318   3.328   5.141   7.580  4.4382  2.4518 -1.2184
  640MOL0     H88319   3.317   4.964   7.614  0.7916  0.0272 -0.5696
  640MOL0     H88320   3.455   5.034   7.518  0.1858 -0.4604 -0.1121
  641MOL0     O88321   1.225   9.865   1.845 -0.7047  0.0539  0.2578
  641MOL0     C88322   1.331   9.894   1.786  0.1778 -0.2814 -0.6573
  641MOL0     O88323   1.448   9.820   1.784 -0.0811 -0.6899 -0.6402
  641MOL0     C88324   1.437   9.693   1.843 -0.5298 -0.3077  0.5197
  641MOL0     C88325   1.487   9.658   1.970  0.6069 -0.2044  0.6006
  641MOL0     C88326   1.475   9.534   2.026  0.9004 -0.5342  0.1004
  641MOL0     C88327   1.417   9.434   1.954  0.2788 -0.1930 -0.0228
  641MOL0     O88328   1.414   9.309   2.008 -0.8881 -0.7730  0.0939
  641MOL0     C88329   1.515   9.225   1.957  0.2304 -0.6570  0.4240
  641MOL0     C88330   1.461   9.078   1.948 -0.6463 -0.3615 -0.5303
  641MOL0     C88331   1.368   9.069   1.835 -0.0070  0.1654  0.1250
  641MOL0     C88332   1.334   8.921   1.816  0.8385 -0.4383  0.1155
  641MOL0     C88333   1.201   8.873   1.869 -0.0515 -0.2082  0.2554
  641MOL0     C88334   1.082   8.947   1.825 -0.8788 -1.6710  0.1331
  641MOL0     C88335   0.965   8.850   1.811 -0.1081  0.8101  0.4474
  641MOL0     C88336   0.837   8.915   1.762 -0.0927 -0.3209  0.0865
  641MOL0     N88337   0.726   8.915   1.865  0.3920 -0.4776 -0.0821
  641MOL0     C88338   0.725   9.004   1.962 -0.0784 -0.0567 -0.5835
  641MOL0     C88339   0.612   8.988   2.029  1.0189  0.2532 -0.2049
  641MOL0     C88340   0.564   9.086   2.141 -0.0577 -0.4311 -0.3298
  641MOL0     C88341   0.586   9.003   2.266 -0.6499  0.2368 -0.7855
  641MOL0     C88342   0.528   9.087   2.387 -0.3175  0.0978 -0.1597
  641MOL0     C88343   0.538   9.011   2.526  0.2475 -0.0440  0.0230
  641MOL0     O88344   0.454   8.893   2.515  0.0011  0.7658 -0.4801
  641MOL0     C88345   0.414   8.840   2.638 -0.3872  0.5063  0.9756
  641MOL0     C88346   0.457   8.880   2.765  1.0252  0.0387 -0.5247
  641MOL0     C88347   0.417   8.804   2.882  1.0291 -0.7235  0.2080
  641MOL0     C88348   0.453   8.864   3.014 -0.3349  0.1363 -0.3998
  641MOL0     C88349   0.324   8.701   2.871 -0.4062  0.8481  0.8801
  641MOL0     C88350   0.300   8.591   2.977 -0.2002  0.2330 -0.4191
  641MOL0     O88351   0.165   8.562   3.002  0.9977 -0.4042  0.1897
  641MOL0     C88352   0.122   8.518   3.130 -0.7756  0.1371  0.2199
  641MOL0     C88353   0.105   8.384   3.152  0.6700 -0.3282 -0.4392
  641MOL0     C88354   0.073   8.353   3.279 -0.4715 -0.3708 -0.1521
  641MOL0     C88355   0.043   8.450   3.384 -0.5628  0.2045  0.0395
  641MOL0     O88356  -0.001   8.403   3.507  0.0157 -0.0254  0.0427
  641MOL0     C88357   0.041   8.459   3.631 -0.3574  0.7988  0.2101
  641MOL0     C88358  -0.053   8.421   3.753  0.4321  0.2173 -0.4654
  641MOL0     C88359  -0.030   8.274   3.797 -0.3465 -0.1516 -0.6267
  641MOL0     C88360  -0.120   8.236   3.908  0.5943 -0.2875 -0.0933
  641MOL0     C88361  -0.060   8.120   3.999 -0.1558  0.0702 -0.1612
  641MOL0     C88362  -0.170   8.071   4.101 -0.3274 -0.3355  0.2894
  641MOL0     C88363  -0.117   7.978   4.216 -0.1221 -0.1501  0.4789
  641MOL0     C88364  -0.212   7.926   4.316  0.3898  0.1068  0.6994
  641MOL0    Cl88365  -0.150   7.774   4.378 -0.1482  0.0020 -0.1653
  641MOL0     C88366   0.060   8.584   3.356 -1.3539 -0.1206 -0.2897
  641MOL0     C88367   0.105   8.620   3.227  0.9463 -0.9509  0.1041
  641MOL0     O88368   0.405   8.554   3.038 -0.1429  0.0608  0.3888
  641MOL0     C88369   0.271   8.668   2.742 -0.5324 -0.5175 -0.4467
  641MOL0     C88370   0.326   8.737   2.627 -0.1014  0.3378 -0.3571
  641MOL0     N88371   0.539   8.895   1.957 -0.1201 -0.8948 -0.0508
  641MOL0     N88372   0.601   8.861   1.852 -0.1427  0.0249 -0.7823
  641MOL0     C88373   1.365   9.460   1.822  0.4711  0.0215  0.7234
  641MOL0     C88374   1.381   9.586   1.771  0.1235 -0.4389  0.9061
  641MOL0     C88375   1.350  10.037   1.742 -0.1246 -0.2119 -0.0657
  641MOL0     C88376   1.487  10.069   1.718  0.4067  0.0708 -0.6247
  641MOL0     C88377   1.524  10.202   1.692 -0.0269  0.1212  0.5686
  641MOL0     C88378   1.423  10.299   1.681  1.1375  0.8016 -0.3646
  641MOL0     O88379   1.475  10.427   1.661 -0.0620  0.2286 -0.3750
  641MOL0     C88380   1.386  10.537   1.646  0.2242 -0.8892 -0.4252
  641MOL0     C88381   1.454  10.667   1.665 -0.3684 -0.2837  1.3540
  641MOL0     C88382   1.529  10.686   1.806  0.1628  0.2702  0.7890
  641MOL0     C88383   1.631  10.798   1.780  0.4627  0.1450 -1.0563
  641MOL0     C88384   1.755  10.753   1.710 -0.1924 -0.3793  0.0188
  641MOL0     C88385   1.853  10.724   1.648 -0.5854 -0.5738 -0.1209
  641MOL0     C88386   1.281  10.262   1.701  0.9650 -0.5977 -0.7105
  641MOL0     C88387   1.243  10.137   1.738 -0.0305  0.3847 -0.7542
  641MOL0     C88388   1.093  10.118   1.757  1.0300  1.1348  0.7262
  641MOL0     H88389   1.543   9.731   2.026  0.2195  0.5895 -0.0316
  641MOL0     H88390   1.521   9.513   2.122 -1.7622  0.4723  1.7048
  641MOL0     H88391   1.608   9.217   2.016 -1.8766 -4.0853  3.7940
  641MOL0     H88392   1.546   9.259   1.858  1.9342 -4.6293 -0.6110
  641MOL0     H88393   1.542   9.017   1.906 -1.0964 -2.4911  1.5329
  641MOL0     H88394   1.414   9.037   2.038  2.0269 -3.2201 -0.2687
  641MOL0     H88395   1.282   9.132   1.857 -0.6667 -0.2811 -1.0465
  641MOL0     H88396   1.429   9.110   1.754  2.8394 -2.3201  0.8438
  641MOL0     H88397   1.356   8.895   1.712  2.7412  0.7676  0.1604
  641MOL0     H88398   1.405   8.865   1.878  0.2372 -1.4288 -0.0716
  641MOL0     H88399   1.211   8.865   1.977 -0.8016  0.4712  0.3812
  641MOL0     H88400   1.212   8.776   1.818  1.8317  0.6574 -1.0872
  641MOL0     H88401   1.070   9.029   1.896  0.6759 -0.8827 -0.4671
  641MOL0     H88402   1.100   8.992   1.727  0.2644 -0.8132  0.7127
  641MOL0     H88403   0.938   8.788   1.897 -0.2737 -2.0851 -1.5795
  641MOL0     H88404   0.983   8.772   1.738 -0.6657 -1.0811  2.2299
  641MOL0     H88405   0.847   9.016   1.723  0.0002 -0.0055  0.8954
  641MOL0     H88406   0.801   8.858   1.676 -4.0566  2.5581 -0.4630
  641MOL0     H88407   0.799   9.078   1.990  0.1806 -0.6801  0.4661
  641MOL0     H88408   0.462   9.120   2.122  1.6056  4.5753 -1.8325
  641MOL0     H88409   0.632   9.172   2.140  0.4363 -0.8261 -1.4998
  641MOL0     H88410   0.529   8.909   2.269 -1.4127  0.7081  0.3279
  641MOL0     H88411   0.692   8.980   2.279 -0.3648  1.9680  0.1797
  641MOL0     H88412   0.573   9.185   2.401  0.8113 -0.5140  0.6826
  641MOL0     H88413   0.422   9.102   2.364 -0.7701 -1.2413  0.8892
  641MOL0     H88414   0.643   8.986   2.541  0.9737  2.4836 -0.3376
  641MOL0     H88415   0.506   9.087   2.598 -1.2189  1.7242 -2.3326
  641MOL0     H88416   0.516   8.971   2.773  0.2109  0.5453 -0.1684
  641MOL0     H88417   0.544   8.926   3.018  0.9467 -1.5217 -1.9605
  641MOL0     H88418   0.476   8.779   3.078  0.9561  1.1824  0.5988
  641MOL0     H88419   0.363   8.920   3.040 -1.3548 -0.4418 -2.4863
  641MOL0     H88420   0.115   8.312   3.071 -1.4419 -0.6568 -0.4670
  641MOL0     H88421   0.051   8.248   3.299 -0.2448 -0.4028 -0.0651
  641MOL0     H88422   0.143   8.422   3.643 -1.4005 -3.3014 -1.6027
  641MOL0     H88423   0.038   8.568   3.637  0.0228  0.7249  2.5996
  641MOL0     H88424  -0.007   8.466   3.841  0.0080  1.1503 -0.7087
  641MOL0     H88425  -0.159   8.438   3.734 -0.2209 -1.0731  1.6482
  641MOL0     H88426   0.072   8.256   3.833 -0.1526  2.3043  0.2055
  641MOL0     H88427  -0.052   8.217   3.706 -3.5731  0.4676 -0.3602
  641MOL0     H88428  -0.218   8.215   3.865  0.0936  1.2653  0.2271
  641MOL0     H88429  -0.145   8.321   3.971  0.5333  1.5886 -2.4808
  641MOL0     H88430  -0.034   8.036   3.934 -0.7036 -0.8984  0.8235
  641MOL0     H88431   0.035   8.140   4.050 -0.4641 -0.1406  0.5163
  641MOL0     H88432  -0.251   8.021   4.047  0.7587 -2.2977  0.3916
  641MOL0     H88433  -0.215   8.154   4.157  2.4825  0.7102  1.1884
  641MOL0     H88434  -0.030   8.008   4.276 -0.4804 -1.6121  1.7771
  641MOL0     H88435  -0.084   7.895   4.152 -2.7694 -0.8261 -0.0979
  641MOL0     H88436  -0.299   7.897   4.257 -2.8033  4.2137  2.9264
  641MOL0     H88437  -0.238   7.998   4.393  0.9150  0.8330  0.2033
  641MOL0     H88438   0.023   8.658   3.427  0.3808 -1.1767  1.8541
  641MOL0     H88439   0.107   8.724   3.198  0.0425 -0.6070  1.1625
  641MOL0     H88440   0.203   8.590   2.711  1.0771 -1.3187 -2.1492
  641MOL0     H88441   0.292   8.717   2.526  0.1218 -3.6032  0.1899
  641MOL0     H88442   1.328   9.376   1.764  0.0827  1.5351 -1.3326
  641MOL0     H88443   1.360   9.620   1.670  0.4088 -2.8837 -0.0663
  641MOL0     H88444   1.565   9.995   1.699 -0.0294 -0.6178  0.2197
  641MOL0     H88445   1.630  10.227   1.693 -0.3171  1.6428  3.0310
  641MOL0     H88446   1.355  10.542   1.541  4.0852 -1.5510 -1.7664
  641MOL0     H88447   1.306  10.529   1.721  0.4175  2.4498  0.2779
  641MOL0     H88448   1.385  10.749   1.646 -2.0169 -1.8246  0.3296
  641MOL0     H88449   1.531  10.667   1.588 -1.2268 -1.1259  0.4661
  641MOL0     H88450   1.453  10.712   1.880 -1.7881  1.4838 -1.4847
  641MOL0     H88451   1.579  10.598   1.846 -1.7744 -0.4752  1.6744
  641MOL0     H88452   1.655  10.834   1.881 -2.0903 -2.7061  0.7747
  641MOL0     H88453   1.584  10.880   1.725 -2.5642 -0.7931 -0.0922
  641MOL0     H88454   1.940  10.702   1.589 -1.9094 -0.0785 -2.3556
  641MOL0     H88455   1.196  10.329   1.705 -0.1383 -2.0293  1.8111
  641MOL0     H88456   1.029  10.206   1.748 -1.8867 -0.8338  0.9904
  641MOL0     H88457   1.045  10.044   1.692 -0.6095  1.6145  1.3419
  641MOL0     H88458   1.094  10.082   1.860  0.0525  0.2186  0.4299
  642MOL0     O88459   7.738   7.193   1.870 -0.0559  0.4580 -0.5711
  642MOL0     C88460   7.691   7.102   1.810 -0.3418  0.1670 -0.5035
  642MOL0     O88461   7.558   7.091   1.777  0.5906 -0.4304 -0.1481
  642MOL0     C88462   7.474   7.206   1.801 -0.5719  1.0247 -0.7586
  642MOL0     C88463   7.502   7.329   1.765 -1.1102 -0.0243  0.5144
  642MOL0     C88464   7.424   7.437   1.799 -0.0033  0.4339  0.2544
  642MOL0     C88465   7.291   7.410   1.848 -1.5837  0.1986 -0.4058
  642MOL0     O88466   7.195   7.500   1.859 -0.0166  0.2942  0.0157
  642MOL0     C88467   7.125   7.510   1.731  0.1048 -0.3589  0.8950
  642MOL0     C88468   6.975   7.464   1.756 -1.0194 -0.2885 -0.0429
  642MOL0     C88469   6.922   7.550   1.872 -0.1350  0.0708  0.1240
  642MOL0     C88470   6.772   7.516   1.878 -0.9511 -0.8796 -0.4568
  642MOL0     C88471   6.695   7.602   1.982  0.1218  0.0685 -0.6913
  642MOL0     C88472   6.765   7.634   2.112 -0.6183  0.8164  0.0049
  642MOL0     C88473   6.663   7.676   2.210  0.0148  0.1260 -0.4544
  642MOL0     C88474   6.731   7.755   2.318  0.1685 -1.1624  0.3343
  642MOL0     N88475   6.634   7.835   2.395 -0.1684  0.4888 -0.4706
  642MOL0     C88476   6.626   7.832   2.531  0.3729 -0.1166 -0.1915
  642MOL0     C88477   6.538   7.923   2.571 -0.2109  0.3410 -0.4666
  642MOL0     C88478   6.491   7.954   2.706  0.2966  0.1650 -0.6437
  642MOL0     C88479   6.603   8.008   2.784 -0.0668  0.5682  0.9636
  642MOL0     C88480   6.545   8.065   2.906  0.4427 -0.7183 -0.5790
  642MOL0     C88481   6.480   7.964   3.010 -0.0773  0.4355 -0.2700
  642MOL0     O88482   6.347   7.911   2.959 -0.3051 -0.5590  0.0233
  642MOL0     C88483   6.230   7.973   2.999 -0.4277 -0.1594  0.7742
  642MOL0     C88484   6.232   8.099   3.060 -0.1639  0.1887 -0.3501
  642MOL0     C88485   6.116   8.155   3.116  0.1605  0.5055 -0.6790
  642MOL0     C88486   6.129   8.290   3.193 -0.3328 -0.7302  0.1581
  642MOL0     C88487   5.988   8.088   3.091 -0.0913  0.6115  0.3953
  642MOL0     C88488   5.862   8.143   3.136 -0.1564  0.8413 -1.0198
  642MOL0     O88489   5.762   8.118   3.054  0.6954 -0.0521  0.0734
  642MOL0     C88490   5.646   8.200   3.048  0.4656 -0.3200 -0.6620
  642MOL0     C88491   5.517   8.144   3.027  0.5212  0.6150  0.6276
  642MOL0     C88492   5.403   8.218   3.000  0.9288  0.1866  0.2841
  642MOL0     C88493   5.422   8.353   2.978  0.7156 -0.2370 -0.2117
  642MOL0     O88494   5.311   8.422   2.935 -0.0160 -0.3828 -0.4343
  642MOL0     C88495   5.326   8.499   2.812 -0.1280 -0.4949 -0.3004
  642MOL0     C88496   5.350   8.411   2.693 -0.1764 -0.2554 -0.3422
  642MOL0     C88497   5.230   8.329   2.673 -0.0076 -0.2610 -0.1433
  642MOL0     C88498   5.257   8.202   2.609 -1.1196  1.2488 -0.5910
  642MOL0     C88499   5.309   8.080   2.700 -0.9342 -0.7458 -0.2261
  642MOL0     C88500   5.331   7.952   2.627 -0.7515 -0.5316  0.2375
  642MOL0     C88501   5.359   7.832   2.710  0.4078 -0.9785 -0.2749
  642MOL0     C88502   5.336   7.700   2.634 -0.6803 -0.0624 -1.0312
  642MOL0    Cl88503   5.462   7.686   2.501 -0.1695 -0.1568  0.0291
  642MOL0     C88504   5.540   8.417   3.015  0.2214 -0.4291  0.1547
  642MOL0     C88505   5.653   8.344   3.050  0.1258  0.0267  0.1306
  642MOL0     O88506   5.856   8.200   3.240  0.5491 -0.2142 -0.1296
  642MOL0     C88507   5.984   7.964   3.027 -0.5958  0.5389  0.2252
  642MOL0     C88508   6.106   7.911   2.983 -0.0548 -0.6930  0.4771
  642MOL0     N88509   6.485   7.976   2.454 -0.5190 -0.2186  0.5843
  642MOL0     N88510   6.537   7.922   2.348  0.0533  0.7231  0.3125
  642MOL0     C88511   7.262   7.280   1.883 -0.1787 -0.0260 -0.8241
  642MOL0     C88512   7.351   7.173   1.867 -0.9792  0.3062  0.0221
  642MOL0     C88513   7.787   6.986   1.791  0.6424  0.2689  0.2227
  642MOL0     C88514   7.895   6.975   1.874  0.0249 -0.3609 -0.8618
  642MOL0     C88515   7.984   6.870   1.868  0.6834 -0.1948  0.1416
  642MOL0     C88516   7.951   6.765   1.787  0.1192  0.5019 -0.1308
  642MOL0     O88517   8.038   6.659   1.789  0.4007 -0.4618  1.0304
  642MOL0     C88518   8.011   6.555   1.882 -0.0650 -0.1725  0.2106
  642MOL0     C88519   8.135   6.473   1.908 -0.1841  0.0337  0.2574
  642MOL0     C88520   8.106   6.336   1.978 -0.2695 -0.4366  0.2453
  642MOL0     C88521   8.016   6.359   2.102 -0.2868 -0.3315 -0.4257
  642MOL0     C88522   8.006   6.235   2.177 -0.9058  1.1128  1.1244
  642MOL0     C88523   8.006   6.152   2.258 -0.0718  0.2880  0.4494
  642MOL0     C88524   7.840   6.763   1.704 -0.5186  0.0120 -0.4463
  642MOL0     C88525   7.768   6.874   1.700  1.2442 -0.1757  1.2048
  642MOL0     C88526   7.659   6.871   1.583 -0.3944  0.7044 -0.3261
  642MOL0     H88527   7.588   7.354   1.704 -1.1300 -0.8710  0.1282
  642MOL0     H88528   7.463   7.537   1.783  1.6287 -0.2204 -0.0487
  642MOL0     H88529   7.165   7.448   1.650 -1.2037  0.8901 -0.7871
  642MOL0     H88530   7.112   7.612   1.694  0.7770 -0.7574 -0.5071
  642MOL0     H88531   6.921   7.490   1.664 -0.3209  1.6169  0.0319
  642MOL0     H88532   6.972   7.357   1.776 -0.5558 -0.9781 -3.1926
  642MOL0     H88533   6.965   7.517   1.967  2.2147 -2.0743 -1.5612
  642MOL0     H88534   6.952   7.655   1.870  1.3246 -0.1531  3.4580
  642MOL0     H88535   6.731   7.529   1.778 -2.1639  1.1832  0.2406
  642MOL0     H88536   6.767   7.411   1.908  3.7767 -0.6179  2.1623
  642MOL0     H88537   6.608   7.544   2.016  0.5101  1.4975  3.2714
  642MOL0     H88538   6.654   7.691   1.933  1.1359 -0.6358 -2.9757
  642MOL0     H88539   6.816   7.545   2.148 -4.5475 -1.5546  0.2399
  642MOL0     H88540   6.843   7.710   2.098  0.4481 -0.2309  0.1062
  642MOL0     H88541   6.620   7.589   2.261 -1.2590  0.8374 -0.2591
  642MOL0     H88542   6.575   7.731   2.173 -0.1376 -0.6344 -1.2581
  642MOL0     H88543   6.795   7.685   2.373  1.7292 -1.0532 -1.2164
  642MOL0     H88544   6.807   7.820   2.273 -0.2702 -0.2401  0.9147
  642MOL0     H88545   6.678   7.766   2.600 -1.5619 -2.5839 -0.9878
  642MOL0     H88546   6.451   7.863   2.752 -3.0805  1.6440 -0.4014
  642MOL0     H88547   6.408   8.024   2.697  0.1177  0.3057  1.5502
  642MOL0     H88548   6.677   7.930   2.805 -0.0329  0.4358  0.3561
  642MOL0     H88549   6.661   8.082   2.729 -1.2255  0.2721 -0.7262
  642MOL0     H88550   6.618   8.111   2.974 -1.9694  2.5634  0.0174
  642MOL0     H88551   6.488   8.153   2.874 -1.5596 -1.3734  0.9485
  642MOL0     H88552   6.549   7.882   3.034 -0.8002  0.3045  1.5673
  642MOL0     H88553   6.459   8.019   3.103  1.6921 -2.1714  1.8210
  642MOL0     H88554   6.313   8.172   3.051 -0.5412  0.5671 -0.7573
  642MOL0     H88555   6.232   8.326   3.200 -0.6568  0.3802 -0.5443
  642MOL0     H88556   6.079   8.279   3.290 -1.3780 -0.8632 -0.3844
  642MOL0     H88557   6.077   8.364   3.132  1.9046  1.3912  0.6504
  642MOL0     H88558   5.496   8.038   3.038 -2.5479  1.2436  2.1962
  642MOL0     H88559   5.301   8.184   2.985  0.3987  1.2537  1.2354
  642MOL0     H88560   5.231   8.552   2.797 -1.6248 -1.1363  4.8287
  642MOL0     H88561   5.411   8.568   2.810  0.9077 -1.7365 -0.0792
  642MOL0     H88562   5.369   8.473   2.606 -0.5350 -0.1548 -0.3512
  642MOL0     H88563   5.438   8.348   2.712 -0.0415 -0.4333 -1.5321
  642MOL0     H88564   5.161   8.384   2.608  0.0305  0.4883  0.4352
  642MOL0     H88565   5.172   8.308   2.764 -1.6946  2.3491 -0.5086
  642MOL0     H88566   5.335   8.218   2.534  1.0310  2.2853  1.7389
  642MOL0     H88567   5.162   8.173   2.562  0.1500  1.0501 -3.2600
  642MOL0     H88568   5.405   8.098   2.750 -1.4478 -1.4035  1.0451
  642MOL0     H88569   5.236   8.057   2.778  2.0466  1.2044  3.5075
  642MOL0     H88570   5.420   7.970   2.566 -0.9144 -0.8428 -0.0919
  642MOL0     H88571   5.245   7.934   2.562 -1.8304  4.0214  0.0100
  642MOL0     H88572   5.284   7.845   2.789 -0.1308  0.6671 -1.0194
  642MOL0     H88573   5.457   7.854   2.752 -0.4513  2.3220  0.2687
  642MOL0     H88574   5.233   7.681   2.602 -1.0335 -3.1934  1.5120
  642MOL0     H88575   5.350   7.622   2.709 -2.0712 -2.1388 -2.7990
  642MOL0     H88576   5.552   8.522   2.990 -1.8630 -0.5602 -1.6903
  642MOL0     H88577   5.747   8.398   3.058  1.0538 -1.4097 -0.5935
  642MOL0     H88578   5.896   7.906   2.999 -0.7643  1.5964 -1.5800
  642MOL0     H88579   6.093   7.812   2.940 -0.4730 -0.8167  0.8823
  642MOL0     H88580   7.170   7.268   1.940  0.6813 -3.4049  0.0992
  642MOL0     H88581   7.335   7.070   1.898 -0.1364  0.8656  2.5682
  642MOL0     H88582   7.906   7.058   1.944 -3.4006  0.7927 -1.5130
  642MOL0     H88583   8.073   6.891   1.925 -0.7300  0.0141  2.3979
  642MOL0     H88584   7.985   6.603   1.977 -0.3297  3.1935 -1.3979
  642MOL0     H88585   7.931   6.491   1.844 -2.1010  0.0970  3.6187
  642MOL0     H88586   8.209   6.522   1.972  0.2398 -2.2161  1.5948
  642MOL0     H88587   8.188   6.454   1.814  1.9120 -0.5923  1.5016
  642MOL0     H88588   8.070   6.263   1.904 -0.8131  0.2624 -0.1969
  642MOL0     H88589   8.202   6.304   2.019 -0.7753  0.0291  1.8294
  642MOL0     H88590   7.914   6.386   2.074 -0.5047  1.0216  1.4692
  642MOL0     H88591   8.051   6.440   2.166 -2.1842  0.7021 -0.6287
  642MOL0     H88592   7.978   6.078   2.330  0.9904  0.1189  0.7045
  642MOL0     H88593   7.811   6.682   1.638 -0.1369  0.6703 -1.4343
  642MOL0     H88594   7.692   6.814   1.496 -1.8631  0.9834 -1.1004
  642MOL0     H88595   7.562   6.831   1.616  0.0718  2.3703  3.7365
  642MOL0     H88596   7.646   6.977   1.561  1.7033  1.1009  0.1727
  643MOL0     O88597   7.540   4.194   5.812  0.1966 -0.0063 -0.3051
  643MOL0     C88598   7.536   4.290   5.886 -0.5243 -0.0919  0.1701
  643MOL0     O88599   7.643   4.340   5.958  0.5683 -0.0135 -0.2558
  643MOL0     C88600   7.762   4.280   5.953 -1.2298  1.1374  0.4724
  643MOL0     C88601   7.809   4.189   6.048  0.1977  0.5985 -0.2026
  643MOL0     C88602   7.931   4.119   6.030  0.1957 -0.4902  0.0756
  643MOL0     C88603   7.995   4.148   5.911 -0.7633  1.1781 -1.1355
  643MOL0     O88604   8.113   4.085   5.884  0.1953  0.3742  0.4270
  643MOL0     C88605   8.226   4.125   5.957  0.7486  0.4132  0.5928
  643MOL0     C88606   8.316   4.006   5.949 -0.3779 -0.0602  0.2926
  643MOL0     C88607   8.265   3.884   6.022 -1.3865 -0.3173 -0.2982
  643MOL0     C88608   8.383   3.784   6.021 -0.3207 -0.4171  0.3189
  643MOL0     C88609   8.333   3.647   6.066 -0.6880 -0.2227 -0.4798
  643MOL0     C88610   8.451   3.552   6.113 -0.5037 -0.3817  0.6207
  643MOL0     C88611   8.537   3.513   5.987 -0.2359 -0.7336 -0.1825
  643MOL0     C88612   8.623   3.393   6.013 -0.3075 -0.3713  0.2350
  643MOL0     N88613   8.554   3.260   6.014  0.1080  0.5917 -0.0991
  643MOL0     C88614   8.528   3.195   6.130 -0.1410 -1.2284  0.0758
  643MOL0     C88615   8.486   3.073   6.091  0.5624 -0.4626  0.1227
  643MOL0     C88616   8.438   2.960   6.172  0.6660  0.2164  0.5512
  643MOL0     C88617   8.555   2.877   6.230 -0.0704  0.9092 -0.2375
  643MOL0     C88618   8.655   2.830   6.129 -0.4359  0.3024 -0.5473
  643MOL0     C88619   8.608   2.750   6.003 -0.3937 -0.3209 -0.3153
  643MOL0     O88620   8.526   2.637   6.031  0.6491 -0.4109 -0.0452
  643MOL0     C88621   8.552   2.513   5.973 -0.2100  0.4494 -0.6519
  643MOL0     C88622   8.677   2.463   5.942  0.4210 -0.3182 -0.2293
  643MOL0     C88623   8.697   2.339   5.872  1.5767 -0.0925  0.4639
  643MOL0     C88624   8.834   2.296   5.838 -0.7142  0.0013  0.3177
  643MOL0     C88625   8.585   2.262   5.827 -1.1368  0.2709 -0.1943
  643MOL0     C88626   8.589   2.139   5.737 -0.8180  0.3450  0.3826
  643MOL0     O88627   8.707   2.112   5.687 -0.2394  0.1575 -0.0921
  643MOL0     C88628   8.726   1.996   5.620 -0.0090 -0.6668 -0.4908
  643MOL0     C88629   8.687   1.874   5.678  0.1677 -0.1286 -0.0016
  643MOL0     C88630   8.682   1.756   5.597 -0.4688  0.2899  0.1949
  643MOL0     C88631   8.725   1.754   5.462 -0.2430 -0.3382 -0.0997
  643MOL0     O88632   8.701   1.641   5.382 -0.7502 -0.7338  0.0440
  643MOL0     C88633   8.588   1.657   5.294 -0.6806 -0.4457  0.3258
  643MOL0     C88634   8.554   1.529   5.206  0.7786 -0.1044  0.3754
  643MOL0     C88635   8.591   1.398   5.280  0.5226  0.1303  0.4406
  643MOL0     C88636   8.537   1.266   5.218 -0.4073 -0.4672  0.2538
  643MOL0     C88637   8.631   1.146   5.258 -0.3779 -0.2748  0.0626
  643MOL0     C88638   8.757   1.141   5.176 -1.0569  0.3078 -0.4622
  643MOL0     C88639   8.857   1.058   5.252 -0.1358 -0.4094  0.9541
  643MOL0     C88640   8.816   0.911   5.262  0.2496 -0.4997 -0.9514
  643MOL0    Cl88641   8.969   0.822   5.258  0.3894  0.7219 -0.3345
  643MOL0     C88642   8.770   1.881   5.413  0.2371 -0.6273  1.0081
  643MOL0     C88643   8.776   1.998   5.491  0.7689 -0.2771  0.2419
  643MOL0     O88644   8.482   2.079   5.722  0.1693  0.7291  0.2541
  643MOL0     C88645   8.458   2.308   5.867  0.2529 -0.1089 -0.6296
  643MOL0     C88646   8.443   2.432   5.934  0.1964  0.3013 -0.9780
  643MOL0     N88647   8.496   3.067   5.950  0.3457 -0.8588 -0.4836
  643MOL0     N88648   8.530   3.182   5.905 -0.2540  0.3850  0.6266
  643MOL0     C88649   7.952   4.246   5.822 -0.3319  0.1294  0.2726
  643MOL0     C88650   7.831   4.317   5.841 -0.0867  1.1409  0.3803
  643MOL0     C88651   7.411   4.354   5.909 -0.1698 -1.3041  0.3366
  643MOL0     C88652   7.398   4.437   6.020  0.6481  0.5835 -0.1032
  643MOL0     C88653   7.286   4.524   6.026 -0.6689 -0.8072 -0.4022
  643MOL0     C88654   7.181   4.526   5.941 -1.1266  1.1511 -0.4419
  643MOL0     O88655   7.070   4.600   5.957 -0.2764 -0.0013 -0.1698
  643MOL0     C88656   7.056   4.708   6.057  0.9265  0.1281 -0.3732
  643MOL0     C88657   7.111   4.845   6.003 -0.0496 -0.6226 -0.8667
  643MOL0     C88658   7.128   4.949   6.117 -0.9909 -0.2239  0.1936
  643MOL0     C88659   7.186   5.076   6.077 -0.2306  0.1815  0.2902
  643MOL0     C88660   7.329   5.072   6.048  0.0333 -0.5192  0.0400
  643MOL0     C88661   7.443   5.040   6.050 -0.0130 -0.0593 -1.7933
  643MOL0     C88662   7.193   4.440   5.834  0.6465  0.2695  0.6946
  643MOL0     C88663   7.306   4.359   5.811  0.2989  0.1760 -0.5642
  643MOL0     C88664   7.286   4.265   5.700 -0.3647  0.5016 -0.3741
  643MOL0     H88665   7.750   4.185   6.138  1.0972  3.5540  0.6236
  643MOL0     H88666   7.971   4.047   6.101 -0.9316 -1.8669 -0.6274
  643MOL0     H88667   8.210   4.171   6.055 -2.0038  2.2241 -0.5943
  643MOL0     H88668   8.274   4.205   5.899 -2.3804  0.4818 -2.1821
  643MOL0     H88669   8.305   3.980   5.843  0.6034  1.4325 -0.1960
  643MOL0     H88670   8.424   4.019   5.961 -0.4623  1.1085 -0.1507
  643MOL0     H88671   8.232   3.915   6.121  1.6897  0.2332  0.6594
  643MOL0     H88672   8.176   3.854   5.965 -1.2006  0.6489 -1.1388
  643MOL0     H88673   8.423   3.772   5.920 -0.1333  1.1979  0.1697
  643MOL0     H88674   8.460   3.822   6.089  0.9347 -1.9594 -0.2003
  643MOL0     H88675   8.276   3.602   5.984  1.1111 -0.2588 -1.7877
  643MOL0     H88676   8.267   3.669   6.150 -0.4086 -2.7595  0.4867
  643MOL0     H88677   8.525   3.593   6.182  0.4043 -0.2639 -0.3957
  643MOL0     H88678   8.417   3.455   6.150 -0.3513 -0.9571 -0.6746
  643MOL0     H88679   8.584   3.599   5.940 -1.2832 -1.1674 -2.1348
  643MOL0     H88680   8.473   3.485   5.903  4.5091 -1.0523 -4.1629
  643MOL0     H88681   8.700   3.384   5.936 -0.0680 -2.6464  0.6696
  643MOL0     H88682   8.681   3.405   6.105  0.8580 -1.7774 -0.2718
  643MOL0     H88683   8.532   3.238   6.230 -5.2446 -1.2493  0.5457
  643MOL0     H88684   8.369   2.898   6.116 -1.6909  1.1325  2.2854
  643MOL0     H88685   8.372   2.989   6.255  0.2153  0.1998  0.2012
  643MOL0     H88686   8.615   2.939   6.297  0.6591 -0.1719  0.1473
  643MOL0     H88687   8.504   2.797   6.284  2.0715 -0.2924  0.1425
  643MOL0     H88688   8.707   2.912   6.078 -1.4294  0.6817 -0.9931
  643MOL0     H88689   8.716   2.760   6.186 -0.9671  0.4886  0.2627
  643MOL0     H88690   8.556   2.820   5.937  0.8636  0.4250 -0.5388
  643MOL0     H88691   8.689   2.711   5.941  0.7596 -0.6063  1.3129
  643MOL0     H88692   8.773   2.505   5.973  1.7743 -1.5865 -2.4201
  643MOL0     H88693   8.911   2.366   5.872  0.7010 -1.7853  0.9258
  643MOL0     H88694   8.857   2.285   5.732 -1.4123 -3.2250  0.4113
  643MOL0     H88695   8.854   2.202   5.890  3.5833  1.8976  2.6121
  643MOL0     H88696   8.661   1.859   5.782 -1.1611 -0.4452 -0.3659
  643MOL0     H88697   8.648   1.663   5.641  0.0972 -0.2408 -0.4715
  643MOL0     H88698   8.504   1.685   5.359 -0.3641  2.5723 -0.4168
  643MOL0     H88699   8.619   1.739   5.229  0.4801  0.6325  2.1687
  643MOL0     H88700   8.448   1.527   5.180 -0.1138  2.5914  3.1368
  643MOL0     H88701   8.617   1.541   5.117 -0.4184  1.4274 -0.3129
  643MOL0     H88702   8.549   1.422   5.378 -2.5359  2.5214 -1.2658
  643MOL0     H88703   8.700   1.394   5.282  0.5347 -0.2163 -0.3474
  643MOL0     H88704   8.542   1.275   5.109 -1.8661 -2.8285 -0.0612
  643MOL0     H88705   8.433   1.245   5.243 -1.0144 -1.3346 -2.5831
  643MOL0     H88706   8.656   1.161   5.364 -0.3586 -1.2004  0.2030
  643MOL0     H88707   8.575   1.053   5.252 -1.6854  0.5959 -2.6706
  643MOL0     H88708   8.808   1.236   5.159  0.7690 -0.7714 -1.3413
  643MOL0     H88709   8.737   1.099   5.077 -6.4394 -0.2340  0.5575
  643MOL0     H88710   8.875   1.109   5.348 -2.7563 -1.8219  2.3201
  643MOL0     H88711   8.952   1.063   5.198 -0.4531 -3.9876 -0.1662
  643MOL0     H88712   8.743   0.890   5.184 -4.5016  0.4166  2.7723
  643MOL0     H88713   8.772   0.891   5.360  0.2620  3.0612 -0.0921
  643MOL0     H88714   8.804   1.895   5.310 -1.5758 -0.4243  0.4101
  643MOL0     H88715   8.815   2.094   5.458  1.4026 -0.8291 -0.6700
  643MOL0     H88716   8.368   2.262   5.828  0.0712 -2.2624  2.0420
  643MOL0     H88717   8.345   2.476   5.949  1.4459  2.5856  1.2188
  643MOL0     H88718   8.019   4.255   5.737  1.6589 -1.7992  1.5357
  643MOL0     H88719   7.794   4.392   5.772  1.2567  1.2539 -0.2378
  643MOL0     H88720   7.465   4.461   6.102  0.6072  1.5409 -0.3376
  643MOL0     H88721   7.295   4.589   6.113  1.3200 -1.3788 -0.1320
  643MOL0     H88722   6.948   4.722   6.068  1.0211  0.8039 -0.2371
  643MOL0     H88723   7.100   4.677   6.152 -0.3427 -0.2324  0.1177
  643MOL0     H88724   7.061   4.878   5.912  0.3735 -0.9075 -1.2086
  643MOL0     H88725   7.209   4.815   5.965 -1.0597 -3.2376 -1.5885
  643MOL0     H88726   7.023   4.963   6.144 -1.5148  0.4928 -1.9862
  643MOL0     H88727   7.196   4.905   6.189  0.2398 -0.0528 -0.8369
  643MOL0     H88728   7.170   5.148   6.158 -0.7335  1.8451 -1.2327
  643MOL0     H88729   7.131   5.099   5.986 -2.2612  1.6217  1.7867
  643MOL0     H88730   7.542   5.001   6.065  0.5376  1.9286  0.4221
  643MOL0     H88731   7.112   4.459   5.764 -0.9955  0.3797  2.5431
  643MOL0     H88732   7.311   4.163   5.730 -1.4489  0.0433 -0.9807
  643MOL0     H88733   7.177   4.251   5.703 -0.2931 -0.0372 -0.2326
  643MOL0     H88734   7.332   4.287   5.604  3.2000 -4.2028 -0.0980
  644MOL0     O88735   8.849  10.987  10.543 -0.2385 -0.2241 -0.0827
  644MOL0     C88736   8.879  11.088  10.468 -0.4713  0.7388 -0.6641
  644MOL0     O88737   8.799  11.136  10.367  0.1415 -0.5947  0.1229
  644MOL0     C88738   8.668  11.086  10.358 -0.5051  1.2102 -0.7055
  644MOL0     C88739   8.567  11.119  10.450 -0.3226 -0.2058 -0.2230
  644MOL0     C88740   8.431  11.069  10.434 -0.8038  0.6016  0.1343
  644MOL0     C88741   8.405  10.997  10.315  1.5094  0.6172 -0.8253
  644MOL0     O88742   8.272  10.957  10.295  0.7753 -0.0406  0.4457
  644MOL0     C88743   8.206  11.018  10.182 -0.4438  0.3086  1.3371
  644MOL0     C88744   8.058  10.995  10.177  0.5919 -0.2984  0.5450
  644MOL0     C88745   7.990  10.952  10.314 -0.8746  0.2474  0.3145
  644MOL0     C88746   7.833  10.982  10.304 -0.4136 -0.5529  0.2438
  644MOL0     C88747   7.761  10.931  10.434  0.7602 -0.8588 -0.2156
  644MOL0     C88748   7.606  10.958  10.421 -0.4358  0.6658  0.0459
  644MOL0     C88749   7.517  10.908  10.536  0.1218 -0.1615 -0.1333
  644MOL0     C88750   7.526  10.992  10.670 -0.8017  0.4644  0.4709
  644MOL0     N88751   7.664  11.005  10.726 -0.0558  0.5112 -0.1504
  644MOL0     C88752   7.747  10.902  10.757  0.5827  0.0709 -0.3951
  644MOL0     C88753   7.865  10.956  10.797 -0.7018 -1.2073  0.6944
  644MOL0     C88754   7.973  10.881  10.867  0.6776 -0.8959 -0.5306
  644MOL0     C88755   8.112  10.927  10.823 -0.1450 -0.4908  0.3683
  644MOL0     C88756   8.232  10.873  10.912  0.6513  0.3998 -0.6622
  644MOL0     C88757   8.369  10.901  10.857 -0.3498  0.0535  0.3373
  644MOL0     O88758   8.414  11.031  10.894  0.1966  0.5216  0.2158
  644MOL0     C88759   8.531  11.033  10.964  0.6313 -0.8635 -0.2915
  644MOL0     C88760   8.518  11.066  11.098  0.0113 -0.1307 -0.1079
  644MOL0     C88761   8.629  11.061  11.175 -0.3481  0.0954 -0.2762
  644MOL0     C88762   8.604  11.117  11.313  0.1789  0.3570  0.2529
  644MOL0     C88763   8.755  11.021  11.126 -0.0946  0.1519  0.4072
  644MOL0     C88764   8.882  11.001  11.209 -0.2062  0.0204  0.3369
  644MOL0     O88765   8.999  10.965  11.146 -0.2014 -0.1382  0.2520
  644MOL0     C88766   9.081  10.882  11.224  0.1568 -0.7490 -0.1265
  644MOL0     C88767   9.214  10.915  11.256 -0.2870 -0.7636  0.3499
  644MOL0     C88768   9.301  10.832  11.334  0.1350 -0.2441 -0.3723
  644MOL0     C88769   9.257  10.705  11.373  0.1017  0.2096 -0.6164
  644MOL0     O88770   9.323  10.609  11.443 -0.1063  0.3017 -0.2287
  644MOL0     C88771   9.456  10.577  11.415 -0.0070  0.3270 -1.0704
  644MOL0     C88772   9.463  10.485  11.283 -0.0276 -0.9109  0.3207
  644MOL0     C88773   9.595  10.413  11.253  0.1684 -0.7143 -0.6921
  644MOL0     C88774   9.587  10.315  11.144  0.5878  0.5176 -0.0652
  644MOL0     C88775   9.728  10.262  11.130  0.2969 -0.5246  0.2811
  644MOL0     C88776   9.747  10.189  10.986  0.4593 -0.6761  0.5278
  644MOL0     C88777   9.706  10.041  10.983 -0.4972  0.0468 -0.1342
  644MOL0     C88778   9.704   9.974  10.847  0.3463 -0.9754  0.2938
  644MOL0    Cl88779   9.650   9.800  10.849  0.4920 -0.0640 -0.3132
  644MOL0     C88780   9.119  10.677  11.356  0.7229  0.4258 -0.9709
  644MOL0     C88781   9.033  10.762  11.287 -0.3946  0.7132  0.6770
  644MOL0     O88782   8.865  11.005  11.329 -0.2621  0.8132  0.3759
  644MOL0     C88783   8.770  10.992  10.982  0.5785  0.0084 -0.2287
  644MOL0     C88784   8.651  10.995  10.908 -0.4517 -0.2640 -0.1211
  644MOL0     N88785   7.857  11.094  10.785  0.7036 -0.0382  0.2892
  644MOL0     N88786   7.734  11.122  10.745  0.2565  0.2899 -0.0604
  644MOL0     C88787   8.502  10.967  10.224 -0.1462  1.0729 -0.1024
  644MOL0     C88788   8.635  11.009  10.248 -0.3312 -0.4546 -0.3813
  644MOL0     C88789   9.013  11.138  10.475  0.2002 -0.0831 -0.2813
  644MOL0     C88790   9.121  11.052  10.500 -0.2560 -0.5002  0.0546
  644MOL0     C88791   9.250  11.094  10.537 -0.2481  0.3302 -0.0409
  644MOL0     C88792   9.281  11.230  10.541  0.2520 -0.3764 -0.3199
  644MOL0     O88793   9.408  11.268  10.572  0.6151 -0.1388 -0.0187
  644MOL0     C88794   9.424  11.410  10.602 -0.5371  0.1268 -0.1154
  644MOL0     C88795   9.577  11.428  10.655  0.0735  0.3735 -0.3991
  644MOL0     C88796   9.685  11.398  10.547  0.7520  0.4779 -0.6026
  644MOL0     C88797   9.823  11.418  10.615 -0.1587  0.0596 -0.4291
  644MOL0     C88798   9.864  11.321  10.719  0.2757  0.8434  0.3159
  644MOL0     C88799   9.883  11.244  10.812  0.2286  0.5105 -0.0666
  644MOL0     C88800   9.182  11.321  10.496  0.2580 -0.9721  0.2666
  644MOL0     C88801   9.046  11.278  10.476 -0.9105 -0.1689  0.1144
  644MOL0     C88802   8.937  11.374  10.447 -0.9978 -0.4549  0.0093
  644MOL0     H88803   8.590  11.170  10.543 -2.6566 -0.3413  0.4951
  644MOL0     H88804   8.354  11.093  10.506 -1.5300  0.8142 -0.7065
  644MOL0     H88805   8.242  10.975  10.088 -2.1639  0.2185  0.6899
  644MOL0     H88806   8.222  11.126  10.180  0.2344  0.1993 -0.0220
  644MOL0     H88807   8.002  11.082  10.140  3.4326  1.1796 -0.5253
  644MOL0     H88808   8.044  10.914  10.105 -2.4784  2.4380 -2.2787
  644MOL0     H88809   8.004  10.844  10.328 -0.2153  0.6645  3.6507
  644MOL0     H88810   8.032  11.000  10.402 -2.3883  1.9694  0.1591
  644MOL0     H88811   7.812  11.089  10.299 -2.5280 -0.9199 -0.0633
  644MOL0     H88812   7.785  10.930  10.220  0.7049  1.2616 -1.6031
  644MOL0     H88813   7.802  10.996  10.512 -0.4390 -1.3687  0.8770
  644MOL0     H88814   7.791  10.829  10.458  0.3051 -0.1857  4.1610
  644MOL0     H88815   7.588  11.065  10.411 -0.4195  0.9054  2.1567
  644MOL0     H88816   7.585  10.899  10.331  2.2113  2.3224 -1.8062
  644MOL0     H88817   7.550  10.804  10.544 -0.2881 -0.6182 -3.0952
  644MOL0     H88818   7.411  10.911  10.512  0.6451  0.7691 -2.6088
  644MOL0     H88819   7.477  11.087  10.645 -0.6055 -0.6394 -5.4045
  644MOL0     H88820   7.468  10.942  10.748  0.0187 -0.1584  0.6967
  644MOL0     H88821   7.717  10.799  10.772 -0.4878  0.4689  0.3169
  644MOL0     H88822   7.962  10.773  10.851 -1.9741 -1.1705  2.1035
  644MOL0     H88823   7.956  10.901  10.974 -0.3521  5.0191 -1.4542
  644MOL0     H88824   8.131  10.892  10.721  0.2765  1.4874 -0.2658
  644MOL0     H88825   8.116  11.036  10.830  1.9272 -0.3918 -1.2529
  644MOL0     H88826   8.226  10.923  11.009  0.6064  1.1605 -1.0486
  644MOL0     H88827   8.225  10.767  10.938  1.4740 -0.0143 -2.0088
  644MOL0     H88828   8.432  10.826  10.905  0.6309  0.3656 -0.4225
  644MOL0     H88829   8.374  10.880  10.750 -1.3291  2.3890 -0.2295
  644MOL0     H88830   8.419  11.096  11.131  1.2286  0.6908  3.2878
  644MOL0     H88831   8.609  11.030  11.379  0.9410  1.5393  1.8299
  644MOL0     H88832   8.507  11.164  11.330  0.5146  1.1907 -0.0782
  644MOL0     H88833   8.682  11.190  11.338  1.2588 -0.6392 -0.1507
  644MOL0     H88834   9.262  11.002  11.213  0.7881 -3.1798 -3.9594
  644MOL0     H88835   9.402  10.863  11.358 -1.0873  0.8993  4.5193
  644MOL0     H88836   9.514  10.669  11.398 -1.9328  1.7516 -0.2636
  644MOL0     H88837   9.504  10.526  11.498  0.5258  0.2780 -1.3988
  644MOL0     H88838   9.395  10.402  11.302 -1.4777 -0.0177 -0.7329
  644MOL0     H88839   9.436  10.549  11.198  0.6883  2.9106  2.7409
  644MOL0     H88840   9.635  10.372  11.346  0.5916 -0.5029 -0.7786
  644MOL0     H88841   9.668  10.486  11.217  0.4323 -0.3417  0.5630
  644MOL0     H88842   9.561  10.352  11.044  0.1555 -0.8647 -0.4836
  644MOL0     H88843   9.529  10.229  11.179  3.1925 -1.3975 -0.1610
  644MOL0     H88844   9.791  10.351  11.126 -1.0426  0.4233 -2.5391
  644MOL0     H88845   9.760  10.206  11.218  0.8846  0.3433  0.6294
  644MOL0     H88846   9.852  10.202  10.958  0.5107 -1.7024  0.1705
  644MOL0     H88847   9.689  10.250  10.917 -1.6049 -1.0836  1.8138
  644MOL0     H88848   9.610  10.033  11.036  0.0150 -1.7446  0.6135
  644MOL0     H88849   9.773   9.979  11.043  0.7840 -0.4055 -1.9692
  644MOL0     H88850   9.801   9.987  10.799 -0.2503  2.8993 -0.2015
  644MOL0     H88851   9.628  10.029  10.791  2.8780  1.0413 -1.4394
  644MOL0     H88852   9.077  10.587  11.401 -0.0195  2.2130  2.2395
  644MOL0     H88853   8.930  10.733  11.274  0.2073 -0.3574 -2.4473
  644MOL0     H88854   8.866  10.961  10.942  1.2424 -0.8384  1.8615
  644MOL0     H88855   8.665  10.947  10.812  4.0549  0.0783  0.1231
  644MOL0     H88856   8.482  10.899  10.142 -1.0171 -1.5095  2.1116
  644MOL0     H88857   8.720  10.976  10.189 -0.5758 -2.6980  0.4401
  644MOL0     H88858   9.095  10.947  10.507  0.1072 -0.5377  1.0156
  644MOL0     H88859   9.310  11.007  10.562 -1.1786 -0.9253 -1.9855
  644MOL0     H88860   9.408  11.474  10.514  0.4703  1.3122  0.5325
  644MOL0     H88861   9.351  11.438  10.678 -1.2282 -4.2641  1.0798
  644MOL0     H88862   9.592  11.353  10.734  3.0509  0.3215 -0.8790
  644MOL0     H88863   9.594  11.525  10.703  0.7527  0.6162 -1.1146
  644MOL0     H88864   9.693  11.298  10.502  1.7567  0.3353 -0.1524
  644MOL0     H88865   9.673  11.473  10.469  2.9300  2.1263  0.5454
  644MOL0     H88866   9.830  11.522  10.648  0.2070 -0.5705  1.6155
  644MOL0     H88867   9.905  11.405  10.543 -0.2332  0.8928 -0.6667
  644MOL0     H88868   9.891  11.182  10.900 -0.7969  0.3488 -0.0686
  644MOL0     H88869   9.202  11.427  10.481 -0.1295 -0.7268  1.4196
  644MOL0     H88870   8.895  11.357  10.347  0.1497 -4.1087 -0.0212
  644MOL0     H88871   8.862  11.376  10.526 -0.9288 -0.0070  0.0630
  644MOL0     H88872   8.977  11.475  10.437 -0.5438 -0.6478 -0.1866
  645MOL0     O88873   1.903   5.928   2.581  0.7637  0.0810 -0.1103
  645MOL0     C88874   1.942   5.939   2.465  0.8620 -0.6727 -0.0411
  645MOL0     O88875   1.870   5.968   2.355  1.1493 -0.2843  0.4069
  645MOL0     C88876   1.728   5.989   2.383  0.0104 -0.2777 -0.2170
  645MOL0     C88877   1.659   5.901   2.456 -0.3540 -0.1083 -0.2037
  645MOL0     C88878   1.515   5.903   2.469 -0.6705 -0.1266 -0.4131
  645MOL0     C88879   1.445   6.003   2.396  0.5044  0.8829 -0.1783
  645MOL0     O88880   1.309   6.008   2.411 -0.2519  0.1875  0.0114
  645MOL0     C88881   1.240   6.028   2.290 -0.1457 -0.4572  0.6441
  645MOL0     C88882   1.093   5.960   2.296 -0.3236 -0.3131  0.7000
  645MOL0     C88883   1.020   5.983   2.166 -0.0372 -0.3654 -0.3405
  645MOL0     C88884   0.874   5.931   2.171  0.2782 -0.7370 -0.4473
  645MOL0     C88885   0.812   5.989   2.308  0.0873 -0.9540  0.0593
  645MOL0     C88886   0.651   5.985   2.299 -0.6172 -0.5696 -0.3094
  645MOL0     C88887   0.571   5.963   2.432  1.0766 -1.0620 -0.1433
  645MOL0     C88888   0.563   6.081   2.537 -0.1607 -0.0502  0.0358
  645MOL0     N88889   0.680   6.072   2.633 -0.6769 -1.1804 -0.0394
  645MOL0     C88890   0.758   5.972   2.690 -0.9522 -0.8904 -0.3711
  645MOL0     C88891   0.869   6.034   2.740  0.0058  0.5914  0.2290
  645MOL0     C88892   0.977   5.970   2.814  0.1430  0.0278  1.2616
  645MOL0     C88893   1.083   5.910   2.721 -0.7338 -0.4157 -0.4949
  645MOL0     C88894   1.153   5.810   2.814 -0.5101  0.1900  0.7169
  645MOL0     C88895   1.083   5.668   2.809  0.2688  0.1848 -0.2139
  645MOL0     O88896   1.085   5.609   2.683  0.4843 -0.0627  0.3045
  645MOL0     C88897   1.197   5.611   2.599  0.1449  0.1765  0.1496
  645MOL0     C88898   1.171   5.615   2.462 -0.7115 -0.6464  0.1443
  645MOL0     C88899   1.273   5.585   2.372  0.3187  0.1877  0.3222
  645MOL0     C88900   1.238   5.588   2.225 -0.3013 -0.7254 -0.8426
  645MOL0     C88901   1.403   5.556   2.417 -0.4175 -0.1893  0.4461
  645MOL0     C88902   1.522   5.538   2.335  0.7446  0.2668 -0.0143
  645MOL0     O88903   1.517   5.515   2.204  0.0223 -0.0377  0.6951
  645MOL0     C88904   1.623   5.568   2.130  1.0573  0.1559  0.3752
  645MOL0     C88905   1.706   5.676   2.143  0.2704 -0.0407 -0.3251
  645MOL0     C88906   1.808   5.705   2.054  0.8847  0.2648 -0.1914
  645MOL0     C88907   1.814   5.624   1.938 -0.3814 -0.3350  0.2961
  645MOL0     O88908   1.907   5.670   1.854  0.0169  0.5971 -0.3998
  645MOL0     C88909   2.003   5.571   1.811  0.7021 -0.1531  0.0844
  645MOL0     C88910   2.106   5.514   1.909  0.2452  0.3918 -0.1799
  645MOL0     C88911   2.165   5.612   2.009  0.0230  0.5924  0.7029
  645MOL0     C88912   2.250   5.535   2.104  0.7314  0.3980 -0.0301
  645MOL0     C88913   2.318   5.625   2.215 -0.3558 -0.3662  0.6407
  645MOL0     C88914   2.434   5.558   2.277 -0.3208  0.6479 -0.1788
  645MOL0     C88915   2.541   5.504   2.176  0.7430  0.3924 -0.6461
  645MOL0     C88916   2.564   5.609   2.075 -0.5155  0.3843 -0.6167
  645MOL0    Cl88917   2.671   5.552   1.949 -0.2560  0.0292 -0.0684
  645MOL0     C88918   1.735   5.514   1.914  0.1782 -0.0911 -0.1687
  645MOL0     C88919   1.634   5.489   2.011  0.2449 -0.3332  0.3307
  645MOL0     O88920   1.631   5.560   2.394  0.7447 -0.4641 -0.1817
  645MOL0     C88921   1.425   5.562   2.558  0.2683 -0.0348  0.5797
  645MOL0     C88922   1.320   5.594   2.644 -0.8037  0.5847 -0.2686
  645MOL0     N88923   0.867   6.166   2.707  0.0268 -0.0925  0.2037
  645MOL0     N88924   0.749   6.191   2.666 -0.3731  0.7489 -0.3506
  645MOL0     C88925   1.520   6.101   2.322 -0.1821  0.3798  0.2842
  645MOL0     C88926   1.667   6.090   2.314 -0.2742  1.0513 -0.3324
  645MOL0     C88927   2.087   5.927   2.435 -0.5204  1.1482  0.4265
  645MOL0     C88928   2.136   5.974   2.312  0.4391  0.4219  0.3733
  645MOL0     C88929   2.273   5.968   2.275  0.2589  0.0990  0.3135
  645MOL0     C88930   2.359   5.908   2.359  0.6845  0.4228 -0.8476
  645MOL0     O88931   2.492   5.883   2.319 -0.0669 -0.8283  0.7641
  645MOL0     C88932   2.602   5.936   2.396 -0.4479 -0.7959 -0.1359
  645MOL0     C88933   2.741   5.884   2.358  0.3198  0.3867  0.1259
  645MOL0     C88934   2.851   5.970   2.421 -0.7230 -0.3326  0.5924
  645MOL0     C88935   2.993   5.921   2.388 -0.1418 -0.0577  0.3118
  645MOL0     C88936   3.084   5.954   2.500  0.1968  0.0360  0.5196
  645MOL0     C88937   3.163   6.005   2.585  0.3502  0.0123  0.3047
  645MOL0     C88938   2.315   5.867   2.488 -0.2782 -0.0607  0.1757
  645MOL0     C88939   2.185   5.870   2.529  0.1839 -0.5410  0.3068
  645MOL0     C88940   2.154   5.804   2.646  0.1926 -0.6371 -0.3111
  645MOL0     H88941   1.699   5.818   2.512 -0.9680 -0.5222 -0.3723
  645MOL0     H88942   1.449   5.839   2.526  0.2620 -2.0017 -1.3449
  645MOL0     H88943   1.295   5.985   2.206  0.4081  1.5119 -0.0405
  645MOL0     H88944   1.225   6.136   2.284  1.1901 -0.2366  0.9731
  645MOL0     H88945   1.093   5.853   2.321  1.2845 -0.2887  0.8956
  645MOL0     H88946   1.050   6.021   2.376 -1.1043 -0.1649  0.1720
  645MOL0     H88947   1.021   6.091   2.150  0.0707 -0.8129 -4.2379
  645MOL0     H88948   1.071   5.942   2.079  0.2587  1.5007 -1.0859
  645MOL0     H88949   0.821   5.979   2.088 -0.8922  3.7895  2.5488
  645MOL0     H88950   0.858   5.823   2.174 -1.4917 -0.5682 -2.1571
  645MOL0     H88951   0.848   6.091   2.321  1.2318 -1.4816  1.3028
  645MOL0     H88952   0.848   5.933   2.394  1.8205  0.1778  0.1096
  645MOL0     H88953   0.625   6.084   2.259  4.4740  1.4724  0.6379
  645MOL0     H88954   0.618   5.906   2.230 -0.9700 -1.6731  1.0766
  645MOL0     H88955   0.610   5.873   2.479  3.3423 -0.8348 -1.4228
  645MOL0     H88956   0.469   5.945   2.396  0.4973 -1.0299  1.4415
  645MOL0     H88957   0.565   6.182   2.495  1.8994 -0.2813 -0.5593
  645MOL0     H88958   0.475   6.075   2.602  1.0045  0.6364  1.7388
  645MOL0     H88959   0.751   5.863   2.691  1.5534 -1.1247  0.7584
  645MOL0     H88960   0.942   5.888   2.878 -1.7636  0.4930  0.8855
  645MOL0     H88961   1.016   6.042   2.885 -1.3104 -0.3598  2.5070
  645MOL0     H88962   1.032   5.859   2.639  1.3573 -0.5455 -1.8001
  645MOL0     H88963   1.152   5.990   2.690 -0.4315 -0.6936 -0.5522
  645MOL0     H88964   1.257   5.809   2.782 -0.7780  3.8386 -0.7507
  645MOL0     H88965   1.170   5.839   2.918  2.1182  3.7305 -0.5168
  645MOL0     H88966   1.146   5.602   2.870 -0.7284 -0.0355  0.6091
  645MOL0     H88967   0.980   5.677   2.843 -0.1706 -0.9305 -1.1716
  645MOL0     H88968   1.070   5.641   2.434 -0.6378  0.9301  1.1844
  645MOL0     H88969   1.317   5.648   2.178  0.6981  1.0373  2.7798
  645MOL0     H88970   1.142   5.641   2.222  1.1141  1.9877 -0.6534
  645MOL0     H88971   1.234   5.493   2.171 -0.1205  0.0168 -2.2178
  645MOL0     H88972   1.697   5.738   2.231  0.9355  0.1954 -0.4174
  645MOL0     H88973   1.865   5.794   2.077  0.4355  0.1218  1.6006
  645MOL0     H88974   1.942   5.489   1.771 -2.8158  3.6527 -3.2302
  645MOL0     H88975   2.060   5.608   1.725 -0.1260  0.0581 -0.3802
  645MOL0     H88976   2.052   5.435   1.962  0.7483  1.7446  2.5382
  645MOL0     H88977   2.184   5.456   1.858  0.7016 -1.0231  1.9692
  645MOL0     H88978   2.089   5.658   2.072 -0.4214  0.1601  0.4881
  645MOL0     H88979   2.215   5.691   1.951  1.7036 -0.3654  0.7829
  645MOL0     H88980   2.325   5.484   2.043  0.8431 -2.4877  2.2991
  645MOL0     H88981   2.183   5.466   2.156  0.8179  1.7253  1.9570
  645MOL0     H88982   2.336   5.726   2.177  0.3329 -0.2850  1.1607
  645MOL0     H88983   2.243   5.632   2.294 -1.7357 -3.1140 -0.3169
  645MOL0     H88984   2.391   5.486   2.347 -1.3830 -0.4682 -1.9103
  645MOL0     H88985   2.483   5.632   2.341  1.3862  0.2357 -0.9721
  645MOL0     H88986   2.507   5.409   2.133 -1.4798  1.8440 -2.3109
  645MOL0     H88987   2.622   5.497   2.249 -0.3780 -0.2409  0.5832
  645MOL0     H88988   2.594   5.696   2.133 -2.2021  0.5804  0.0097
  645MOL0     H88989   2.477   5.648   2.021 -0.7369  3.0305  1.4446
  645MOL0     H88990   1.729   5.452   1.824 -0.8526 -0.5488  0.1945
  645MOL0     H88991   1.564   5.407   1.994 -2.0426  1.5597  0.0261
  645MOL0     H88992   1.520   5.539   2.607 -0.6791 -2.2241  1.5008
  645MOL0     H88993   1.334   5.589   2.751 -1.1953  0.4146 -0.2223
  645MOL0     H88994   1.457   6.184   2.292 -1.2608  0.1524  1.7844
  645MOL0     H88995   1.733   6.155   2.257  0.6264 -0.8201 -1.5517
  645MOL0     H88996   2.074   6.012   2.232  0.3292 -2.3271 -0.9846
  645MOL0     H88997   2.310   6.029   2.194  2.4749  0.2015  1.3445
  645MOL0     H88998   2.601   6.044   2.379  0.7307 -0.6938  0.3175
  645MOL0     H88999   2.602   5.922   2.505  3.5308  1.1320  0.2780
  645MOL0     H89000   2.745   5.883   2.249 -1.2937 -1.0288  0.0396
  645MOL0     H89001   2.755   5.784   2.400 -0.3089 -0.6480 -1.9943
  645MOL0     H89002   2.840   6.077   2.398  0.9089 -0.2072  0.3135
  645MOL0     H89003   2.839   5.953   2.529  4.7205 -1.5361  1.2899
  645MOL0     H89004   3.020   5.968   2.292  3.3313 -0.0248  1.1516
  645MOL0     H89005   3.003   5.815   2.362  0.0535  0.0047  0.1246
  645MOL0     H89006   3.231   6.056   2.651  1.0239  1.4160 -1.3903
  645MOL0     H89007   2.392   5.829   2.554  1.1021  3.8491  1.0994
  645MOL0     H89008   2.238   5.750   2.692  0.0201 -1.8827 -1.4120
  645MOL0     H89009   2.126   5.883   2.716  1.5915 -0.5532  0.1967
  645MOL0     H89010   2.079   5.725   2.636 -1.8242  0.5211  3.5838
  646MOL0     O89011   0.814   1.167  11.148 -0.2631 -0.0823  0.1520
  646MOL0     C89012   0.839   1.092  11.248  0.8826  0.8836  0.1310
  646MOL0     O89013   0.948   1.027  11.258  0.0530 -0.0574 -0.0592
  646MOL0     C89014   1.059   1.100  11.239 -1.0761 -0.0258 -0.2063
  646MOL0     C89015   1.159   1.052  11.164 -0.0397 -0.6647  0.8357
  646MOL0     C89016   1.284   1.115  11.135 -0.5925  0.4063 -0.2043
  646MOL0     C89017   1.309   1.240  11.192 -0.3099 -0.2788  0.3633
  646MOL0     O89018   1.429   1.303  11.166 -0.1838 -0.5283  0.4247
  646MOL0     C89019   1.480   1.385  11.267 -0.2408  0.8997  0.7198
  646MOL0     C89020   1.530   1.295  11.377 -0.6738 -0.0288  0.3518
  646MOL0     C89021   1.614   1.370  11.480 -0.4007  0.6896  0.7924
  646MOL0     C89022   1.756   1.421  11.430  0.2605 -0.0886 -0.1326
  646MOL0     C89023   1.837   1.461  11.547  0.1116  0.0015 -0.4126
  646MOL0     C89024   1.784   1.572  11.633 -0.4022  0.0053  0.0640
  646MOL0     C89025   1.738   1.700  11.554 -0.7106  0.7443  0.1554
  646MOL0     C89026   1.863   1.754  11.479  0.0426 -0.2270 -0.1101
  646MOL0     N89027   1.971   1.786  11.571  0.2909  0.1001  0.2686
  646MOL0     C89028   2.086   1.704  11.588 -0.1125 -0.7180  0.0568
  646MOL0     C89029   2.164   1.777  11.673  0.5703 -0.4103 -0.0494
  646MOL0     C89030   2.296   1.757  11.721 -0.0375  0.3681 -0.0403
  646MOL0     C89031   2.394   1.795  11.618  0.7680 -0.8865 -0.2308
  646MOL0     C89032   2.418   1.944  11.585  0.2643  0.5845  0.2889
  646MOL0     C89033   2.466   2.042  11.692 -0.4562 -0.1718 -0.3617
  646MOL0     O89034   2.605   2.007  11.714  0.6862 -0.1603 -1.2106
  646MOL0     C89035   2.688   2.095  11.768  0.2774 -0.5021 -0.6966
  646MOL0     C89036   2.651   2.212  11.824 -0.5568 -0.0649 -0.1521
  646MOL0     C89037   2.744   2.305  11.885 -0.1479 -0.5442 -0.1523
  646MOL0     C89038   2.688   2.421  11.959 -0.0313 -0.4206  0.0109
  646MOL0     C89039   2.885   2.264  11.874 -0.0562  0.1164 -0.6893
  646MOL0     C89040   2.984   2.367  11.920  0.3683  0.0892  0.4454
  646MOL0     O89041   2.962   2.490  11.874 -0.2517  0.5115  0.0041
  646MOL0     C89042   3.073   2.568  11.851  1.0460  0.5172  1.0275
  646MOL0     C89043   3.074   2.704  11.896 -0.2518  0.8081  0.5259
  646MOL0     C89044   3.172   2.792  11.862 -0.6079 -0.1792 -0.4117
  646MOL0     C89045   3.283   2.746  11.790  0.5438  0.1617 -0.7498
  646MOL0     O89046   3.395   2.816  11.764  0.5457 -1.0785 -0.1374
  646MOL0     C89047   3.367   2.959  11.725  0.1034  0.0199 -1.0900
  646MOL0     C89048   3.497   3.032  11.712 -0.2675 -0.0890 -0.1652
  646MOL0     C89049   3.572   2.974  11.588 -0.0367  0.8280  0.0032
  646MOL0     C89050   3.527   3.031  11.454 -0.6980 -0.2186 -1.0781
  646MOL0     C89051   3.618   2.990  11.343 -0.0139 -1.0102 -0.1363
  646MOL0     C89052   3.572   3.032  11.211  0.0644  1.0274  0.1267
  646MOL0     C89053   3.610   3.180  11.186  0.0596  0.0805 -0.4874
  646MOL0     C89054   3.520   3.237  11.078  0.2578  0.2360  0.5479
  646MOL0    Cl89055   3.600   3.390  11.034 -0.0083  0.0461  0.5785
  646MOL0     C89056   3.293   2.606  11.757  0.2060  0.5287 -0.0962
  646MOL0     C89057   3.189   2.521  11.782  0.0231  0.5857 -0.4895
  646MOL0     O89058   3.079   2.330  11.986  0.7368 -1.0961  0.9702
  646MOL0     C89059   2.922   2.136  11.825  0.8416  0.8905 -0.3908
  646MOL0     C89060   2.823   2.052  11.774 -0.2649  0.2230  0.5358
  646MOL0     N89061   2.094   1.888  11.715  0.4276  1.0357 -0.3158
  646MOL0     N89062   1.979   1.891  11.662  0.1861  0.3944  1.1003
  646MOL0     C89063   1.210   1.291  11.279  0.8695 -0.6781 -0.1763
  646MOL0     C89064   1.086   1.226  11.301 -0.0863  0.3694 -0.1254
  646MOL0     C89065   0.714   1.038  11.310  0.0965 -0.1629  0.6609
  646MOL0     C89066   0.612   0.988  11.226  0.8058  0.1024  0.2379
  646MOL0     C89067   0.507   0.924  11.287  0.8226 -0.0341  0.4478
  646MOL0     C89068   0.492   0.910  11.425  0.1991 -0.2401  0.6278
  646MOL0     O89069   0.390   0.838  11.469 -0.0224  0.4495  0.1662
  646MOL0     C89070   0.266   0.909  11.489  0.5828  0.8675 -1.0829
  646MOL0     C89071   0.180   0.837  11.603  0.1723  0.1387 -0.3978
  646MOL0     C89072   0.250   0.823  11.742  0.1119  0.5046 -1.3928
  646MOL0     C89073   0.176   0.720  11.828  0.5024 -1.0045  0.2257
  646MOL0     C89074   0.050   0.779  11.888  0.0672 -0.0491 -0.3801
  646MOL0     C89075  -0.049   0.816  11.953  0.4034 -0.0203 -0.0989
  646MOL0     C89076   0.596   0.947  11.508 -0.5015 -0.4549  0.1844
  646MOL0     C89077   0.712   1.004  11.446  0.6380  0.0696 -0.0365
  646MOL0     C89078   0.823   1.030  11.537 -0.8754  0.2385 -0.5508
  646MOL0     H89079   1.147   0.952  11.123 -2.3793  0.0420 -0.3576
  646MOL0     H89080   1.362   1.074  11.072 -1.5597  1.4050 -2.1451
  646MOL0     H89081   1.422   1.469  11.308 -1.6524  0.1783  0.2847
  646MOL0     H89082   1.568   1.436  11.227  0.6633 -1.2841 -0.2299
  646MOL0     H89083   1.437   1.258  11.421 -1.1395 -0.0808 -0.6442
  646MOL0     H89084   1.590   1.215  11.332 -0.9827 -0.0634 -0.0037
  646MOL0     H89085   1.569   1.465  11.512 -0.4636  0.2759  1.9986
  646MOL0     H89086   1.629   1.315  11.573  1.1767 -1.2439 -0.5346
  646MOL0     H89087   1.818   1.354  11.370  2.8823  1.5004  0.6471
  646MOL0     H89088   1.738   1.505  11.362  2.1415 -1.3535 -2.3394
  646MOL0     H89089   1.942   1.467  11.518  0.6138  0.8852  1.4709
  646MOL0     H89090   1.841   1.378  11.618  0.6613 -1.1306 -1.7200
  646MOL0     H89091   1.692   1.535  11.680 -1.5449  2.1251 -0.3471
  646MOL0     H89092   1.859   1.597  11.708 -0.7481 -0.9870  0.7678
  646MOL0     H89093   1.693   1.771  11.624 -0.3026  1.6146 -0.4476
  646MOL0     H89094   1.660   1.677  11.482 -1.2271  0.6996  0.7186
  646MOL0     H89095   1.900   1.675  11.412 -2.8702 -1.4424 -0.4296
  646MOL0     H89096   1.828   1.826  11.405 -0.9670 -0.3453  0.2375
  646MOL0     H89097   2.108   1.601  11.559 -1.0215 -1.0570  0.5335
  646MOL0     H89098   2.313   1.650  11.733 -0.6272 -0.1171 -2.8857
  646MOL0     H89099   2.305   1.816  11.813  2.4101 -1.3988  0.9584
  646MOL0     H89100   2.493   1.757  11.644  0.3120 -0.5530  2.2327
  646MOL0     H89101   2.372   1.743  11.524  0.7384 -3.0297  0.9120
  646MOL0     H89102   2.498   1.953  11.511 -0.3935  0.5954 -0.4317
  646MOL0     H89103   2.328   1.986  11.540  0.9975  0.7310 -1.0876
  646MOL0     H89104   2.452   2.137  11.640 -0.9356 -0.9270 -1.6431
  646MOL0     H89105   2.407   2.041  11.785 -2.4827  3.8704 -1.3911
  646MOL0     H89106   2.547   2.244  11.822 -0.1346  1.3719  0.0335
  646MOL0     H89107   2.770   2.477  12.006 -0.4282  0.1657  0.0205
  646MOL0     H89108   2.623   2.391  12.042 -0.2314  1.6790  0.6813
  646MOL0     H89109   2.640   2.494  11.892  2.6569  1.2259 -0.2708
  646MOL0     H89110   2.985   2.733  11.951 -0.3128 -0.8023  1.3285
  646MOL0     H89111   3.174   2.887  11.913 -1.4236 -1.2780  1.8154
  646MOL0     H89112   3.313   2.965  11.630 -1.6285  0.0145 -0.1452
  646MOL0     H89113   3.305   3.013  11.798  1.5735  1.6924 -1.0123
  646MOL0     H89114   3.487   3.141  11.703 -0.0712  0.3232  3.1697
  646MOL0     H89115   3.554   3.025  11.806  2.1615  1.1447 -1.4363
  646MOL0     H89116   3.587   2.865  11.582  2.3013  1.1069 -0.2038
  646MOL0     H89117   3.673   3.013  11.604 -0.4217  0.6454  3.5801
  646MOL0     H89118   3.526   3.140  11.463  4.2872 -0.0822  0.5559
  646MOL0     H89119   3.431   2.986  11.426 -0.9618  0.3855 -1.1591
  646MOL0     H89120   3.717   3.037  11.348  0.3940 -0.8746 -4.8996
  646MOL0     H89121   3.631   2.882  11.348 -2.5706 -1.5108 -2.3165
  646MOL0     H89122   3.466   3.006  11.211 -0.1157  1.2851 -3.2058
  646MOL0     H89123   3.637   2.971  11.148  0.5727  0.5976  1.0508
  646MOL0     H89124   3.714   3.169  11.151  0.5212 -3.5985  1.5132
  646MOL0     H89125   3.606   3.238  11.278  0.0975 -2.2562  1.0642
  646MOL0     H89126   3.422   3.257  11.123 -0.7502 -0.9053 -1.0198
  646MOL0     H89127   3.499   3.166  10.997  0.8797 -0.8048  1.2760
  646MOL0     H89128   3.378   2.566  11.704 -2.6254 -2.5489 -2.8240
  646MOL0     H89129   3.195   2.416  11.756  0.0868  0.6022 -0.5401
  646MOL0     H89130   3.023   2.094  11.824  1.1170  1.4844  1.0479
  646MOL0     H89131   2.847   1.958  11.725  1.4638  0.9028  0.0167
  646MOL0     H89132   1.220   1.389  11.325  0.3797 -0.0130 -1.4380
  646MOL0     H89133   1.015   1.257  11.377 -0.3953  0.6630 -0.5326
  646MOL0     H89134   0.609   0.994  11.118 -0.5083 -2.1869  0.0738
  646MOL0     H89135   0.423   0.890  11.227  0.6241  1.1521  0.0190
  646MOL0     H89136   0.281   1.013  11.520 -0.3936  0.9555 -0.8809
  646MOL0     H89137   0.198   0.902  11.404  1.9752  0.7025 -2.2312
  646MOL0     H89138   0.142   0.741  11.568 -1.4683  0.1739  1.1473
  646MOL0     H89139   0.091   0.898  11.620  0.7053  0.9767 -0.5572
  646MOL0     H89140   0.354   0.789  11.734  0.5011  1.1298  0.4615
  646MOL0     H89141   0.244   0.914  11.802 -0.3833 -1.0060  1.0011
  646MOL0     H89142   0.242   0.706  11.914  3.1961  2.2223 -1.0687
  646MOL0     H89143   0.158   0.623  11.780 -1.6436 -0.4026 -0.2905
  646MOL0     H89144  -0.137   0.830  12.013  0.6503 -0.6352  0.4183
  646MOL0     H89145   0.589   0.913  11.611  1.9861  0.6053  0.7758
  646MOL0     H89146   0.853   0.939  11.588  1.3908  1.1500 -0.1663
  646MOL0     H89147   0.912   1.082  11.502 -0.9357 -0.1286 -1.2741
  646MOL0     H89148   0.780   1.093  11.616 -4.1086 -1.1900 -0.9909
  647MOL0     O89149   3.157   2.372   9.478 -0.7815  0.4917 -0.1543
  647MOL0     C89150   3.115   2.300   9.574  0.4038  0.5516 -0.1417
  647MOL0     O89151   2.982   2.305   9.623 -0.3516 -0.2517  0.2498
  647MOL0     C89152   2.883   2.379   9.558  0.6119  0.1632  0.2185
  647MOL0     C89153   2.749   2.360   9.602  1.1443 -1.0966 -0.3405
  647MOL0     C89154   2.636   2.439   9.560 -0.3649 -0.7127 -0.5103
  647MOL0     C89155   2.652   2.541   9.473  0.2626 -0.8034 -0.0453
  647MOL0     O89156   2.554   2.614   9.408  0.3462 -0.1666 -0.6620
  647MOL0     C89157   2.424   2.558   9.393  0.3017  0.7556  0.8722
  647MOL0     C89158   2.323   2.671   9.346 -0.6919 -0.2098  0.9049
  647MOL0     C89159   2.264   2.738   9.461  0.1616  0.0660 -0.4522
  647MOL0     C89160   2.199   2.871   9.418 -0.2025  0.7478 -0.3543
  647MOL0     C89161   2.160   2.952   9.545  1.1537 -0.1731  0.3163
  647MOL0     C89162   2.129   3.097   9.494 -0.1296  0.5159 -0.1492
  647MOL0     C89163   2.081   3.192   9.606 -0.1769 -0.4044 -0.9548
  647MOL0     C89164   1.934   3.166   9.633  0.2035 -0.1716  0.0818
  647MOL0     N89165   1.895   3.249   9.739 -0.2646  0.3472 -0.4149
  647MOL0     C89166   1.866   3.374   9.720 -1.7340 -0.8349 -0.0350
  647MOL0     C89167   1.832   3.421   9.846  0.3953  0.3769  0.2165
  647MOL0     C89168   1.792   3.551   9.906  0.0475  0.5088 -0.3838
  647MOL0     C89169   1.663   3.601   9.836  0.9132  0.2710  0.2130
  647MOL0     C89170   1.668   3.757   9.828 -0.7612  1.2926 -0.6077
  647MOL0     C89171   1.529   3.823   9.815  1.1685  0.6800  0.6602
  647MOL0     O89172   1.472   3.770   9.695 -0.3873 -0.4875 -0.3630
  647MOL0     C89173   1.340   3.799   9.666  0.7969 -0.2466  0.8608
  647MOL0     C89174   1.265   3.733   9.565  1.2182 -0.1442 -0.1780
  647MOL0     C89175   1.135   3.774   9.522  0.4361  1.3989  0.2844
  647MOL0     C89176   1.044   3.680   9.438 -0.2847  0.0613 -0.1465
  647MOL0     C89177   1.076   3.886   9.580 -0.3208 -1.0849 -0.3525
  647MOL0     C89178   0.943   3.931   9.534 -0.5947  0.3810  0.4301
  647MOL0     O89179   0.946   4.040   9.454 -0.5434 -0.4408  0.0704
  647MOL0     C89180   0.840   4.088   9.383  0.0169  1.1897  0.8383
  647MOL0     C89181   0.727   4.025   9.334 -0.2927 -0.2498 -0.2501
  647MOL0     C89182   0.625   4.094   9.269  0.2774 -0.4338  0.6725
  647MOL0     C89183   0.634   4.238   9.250 -0.0335  0.2528  0.6804
  647MOL0     O89184   0.527   4.301   9.188  0.3227  0.6491 -0.1647
  647MOL0     C89185   0.518   4.440   9.210  0.0903 -0.1595  0.2213
  647MOL0     C89186   0.403   4.493   9.135 -0.2747 -0.5538  0.2318
  647MOL0     C89187   0.378   4.645   9.153 -0.3411  0.0003 -0.3047
  647MOL0     C89188   0.466   4.734   9.068  0.6905  1.4572  1.5470
  647MOL0     C89189   0.442   4.876   9.101  0.5631  0.4387  0.5229
  647MOL0     C89190   0.542   4.974   9.038 -0.3788 -0.6018 -0.3080
  647MOL0     C89191   0.563   4.959   8.884  0.2714 -0.3796  0.0378
  647MOL0     C89192   0.684   5.042   8.843  0.5495  0.2431  0.4321
  647MOL0    Cl89193   0.664   5.212   8.885 -0.1841 -0.1256  0.1425
  647MOL0     C89194   0.749   4.301   9.293  0.6025  0.6423 -0.1400
  647MOL0     C89195   0.852   4.228   9.360 -0.3697 -0.9791 -0.0003
  647MOL0     O89196   0.841   3.876   9.580  0.5300  0.2084  0.2473
  647MOL0     C89197   1.147   3.958   9.685 -0.1026  0.2914 -0.5307
  647MOL0     C89198   1.269   3.911   9.731  0.0709  0.9869  1.1363
  647MOL0     N89199   1.822   3.307   9.928 -0.4901 -0.2083 -0.5420
  647MOL0     N89200   1.868   3.206   9.867  1.0902 -0.0099  0.2357
  647MOL0     C89201   2.778   2.558   9.425 -0.5985 -0.4492  0.1648
  647MOL0     C89202   2.891   2.484   9.465 -0.4668  0.1210 -0.3581
  647MOL0     C89203   3.212   2.208   9.646 -0.0901 -0.7998 -0.6973
  647MOL0     C89204   3.351   2.246   9.659 -0.2428 -0.1633 -0.4801
  647MOL0     C89205   3.445   2.165   9.732 -0.0843 -0.7382 -0.2522
  647MOL0     C89206   3.393   2.042   9.786  0.1251  0.7471  0.1645
  647MOL0     O89207   3.476   1.970   9.867  0.0783 -0.1477 -0.0461
  647MOL0     C89208   3.440   1.982  10.005 -0.4182  0.4607  0.3090
  647MOL0     C89209   3.526   1.899  10.098  0.0080 -0.1273 -0.4563
  647MOL0     C89210   3.499   1.744  10.099 -0.3648  0.5531 -0.2987
  647MOL0     C89211   3.534   1.673   9.975  0.1829  0.5816  0.9428
  647MOL0     C89212   3.540   1.519   9.988 -0.7358 -0.7708  0.2683
  647MOL0     C89213   3.521   1.400  10.000  0.2892  0.8502 -0.0585
  647MOL0     C89214   3.262   2.001   9.762 -0.5149  1.0596 -0.6601
  647MOL0     C89215   3.172   2.084   9.697  0.4828  0.6906  0.9108
  647MOL0     C89216   3.018   2.036   9.690  0.2590  0.2141 -1.1492
  647MOL0     H89217   2.730   2.292   9.684 -2.5721  0.5931  0.4186
  647MOL0     H89218   2.541   2.414   9.605  1.2255 -3.5816  1.5681
  647MOL0     H89219   2.381   2.528   9.489  0.5545  0.4698  0.8983
  647MOL0     H89220   2.418   2.468   9.331  0.0438  0.5618  1.1738
  647MOL0     H89221   2.363   2.745   9.276  0.7390 -0.8338  1.0404
  647MOL0     H89222   2.250   2.619   9.283  0.1296  0.6176 -0.8037
  647MOL0     H89223   2.193   2.669   9.508  0.5309 -0.9724 -1.3823
  647MOL0     H89224   2.336   2.771   9.536 -0.1969  1.5746 -0.7342
  647MOL0     H89225   2.262   2.928   9.349 -1.8529  0.8144 -1.9092
  647MOL0     H89226   2.107   2.855   9.360 -2.0207  0.5770  2.3902
  647MOL0     H89227   2.238   2.958   9.621  1.5383  1.5234 -0.1632
  647MOL0     H89228   2.071   2.910   9.593 -0.3448  2.6964  0.2275
  647MOL0     H89229   2.218   3.144   9.451 -1.8523  1.2585 -3.1030
  647MOL0     H89230   2.071   3.089   9.402  1.1972  0.0637 -0.9749
  647MOL0     H89231   2.095   3.298   9.583  1.5706 -0.3944  0.0107
  647MOL0     H89232   2.137   3.172   9.698 -3.9128  2.9426  2.4866
  647MOL0     H89233   1.872   3.201   9.550 -2.2613 -1.1487  1.4018
  647MOL0     H89234   1.919   3.059   9.648 -0.7479  0.2415  2.5760
  647MOL0     H89235   1.887   3.442   9.638 -1.8552  0.9520  1.3496
  647MOL0     H89236   1.881   3.615   9.914  0.2963  0.3256 -1.5140
  647MOL0     H89237   1.760   3.544  10.010  1.8092  5.1928  0.7183
  647MOL0     H89238   1.659   3.559   9.736 -2.3806  0.5397  0.1316
  647MOL0     H89239   1.578   3.563   9.893  0.4380 -1.0803 -1.3482
  647MOL0     H89240   1.706   3.785   9.926 -0.1558  0.2625 -0.5292
  647MOL0     H89241   1.736   3.793   9.750 -0.3042 -3.2451 -2.6846
  647MOL0     H89242   1.479   3.797   9.909  1.8595  1.5582  1.2897
  647MOL0     H89243   1.550   3.929   9.803  1.3343  0.6463  0.6518
  647MOL0     H89244   1.318   3.652   9.515  0.7835 -0.7978  0.3939
  647MOL0     H89245   1.090   3.583   9.420 -1.3210 -0.8155  1.6233
  647MOL0     H89246   1.027   3.717   9.336 -0.5670  0.5134  0.0598
  647MOL0     H89247   0.946   3.678   9.487 -1.4113  2.2300 -2.0618
  647MOL0     H89248   0.698   3.927   9.370  0.7231 -0.7710 -0.8093
  647MOL0     H89249   0.537   4.040   9.235 -1.1454  1.6295  0.9578
  647MOL0     H89250   0.502   4.465   9.316  1.0495  0.5794  0.2044
  647MOL0     H89251   0.609   4.484   9.168  0.8017 -0.8347  1.0081
  647MOL0     H89252   0.411   4.475   9.028 -1.8808  2.7163 -0.5910
  647MOL0     H89253   0.313   4.442   9.172 -1.7742  1.4477 -0.4499
  647MOL0     H89254   0.384   4.663   9.261 -0.9871  0.0559 -0.2718
  647MOL0     H89255   0.276   4.672   9.123 -1.6055 -1.8089  1.9745
  647MOL0     H89256   0.427   4.713   8.968  2.0833 -1.1286  1.4578
  647MOL0     H89257   0.568   4.696   9.062 -0.1058 -0.6043 -0.0038
  647MOL0     H89258   0.336   4.897   9.086  0.2603 -0.4184  1.4041
  647MOL0     H89259   0.452   4.885   9.209 -2.9569  0.0949  0.9833
  647MOL0     H89260   0.634   4.966   9.097 -2.2947 -3.2588  2.6623
  647MOL0     H89261   0.495   5.070   9.058 -0.2220 -0.6021  0.0693
  647MOL0     H89262   0.473   4.999   8.834  0.9467  0.2419 -0.7165
  647MOL0     H89263   0.589   4.859   8.851  1.3136 -0.4609  1.0603
  647MOL0     H89264   0.699   5.031   8.735 -0.7959 -0.7256  0.3124
  647MOL0     H89265   0.773   5.005   8.893  1.1690  0.1090 -0.7283
  647MOL0     H89266   0.755   4.409   9.303 -0.4180  0.5773  1.8536
  647MOL0     H89267   0.941   4.282   9.391  0.9643 -2.3617 -1.3155
  647MOL0     H89268   1.108   4.053   9.722 -0.7426 -0.0667 -0.2708
  647MOL0     H89269   1.319   3.992   9.784  1.2377  1.1652 -0.1922
  647MOL0     H89270   2.780   2.643   9.357 -1.6753 -1.3387 -1.0430
  647MOL0     H89271   2.986   2.508   9.419 -0.0678 -0.5062  0.1252
  647MOL0     H89272   3.385   2.338   9.613 -1.0705  1.3436  1.7925
  647MOL0     H89273   3.553   2.180   9.738 -0.0342 -0.3535 -1.7636
  647MOL0     H89274   3.447   2.086  10.039  0.9630 -0.0574  1.7486
  647MOL0     H89275   3.338   1.945  10.016 -0.0842  0.1368  3.2765
  647MOL0     H89276   3.510   1.940  10.198 -1.7326  2.1501 -1.5813
  647MOL0     H89277   3.629   1.896  10.061 -0.9034  1.3245 -3.3823
  647MOL0     H89278   3.541   1.703  10.191  2.2286  2.0903 -0.6839
  647MOL0     H89279   3.393   1.738  10.124  0.0260  1.4271  1.8260
  647MOL0     H89280   3.636   1.696   9.944 -0.5345  0.7113 -1.5831
  647MOL0     H89281   3.462   1.690   9.895  1.6505  1.1933 -0.2976
  647MOL0     H89282   3.514   1.294   9.990  1.5846  0.8453 -1.3914
  647MOL0     H89283   3.245   1.895   9.778 -0.2394  0.8018 -1.9283
  647MOL0     H89284   3.019   1.930   9.716 -1.9618  0.8299  1.9774
  647MOL0     H89285   2.955   2.084   9.765 -2.4113 -3.9794 -0.3673
  647MOL0     H89286   2.973   2.045   9.591  2.4077 -0.0526 -2.2156
  648MOL0     O89287   7.152   0.917   7.927 -0.0765  0.2414 -0.6587
  648MOL0     C89288   7.198   0.997   7.851  0.0840  0.3657 -0.2029
  648MOL0     O89289   7.262   1.108   7.890 -0.1725 -0.3654  0.2888
  648MOL0     C89290   7.299   1.114   8.025  1.1753 -0.1002  0.7156
  648MOL0     C89291   7.422   1.072   8.061  0.3995  0.0227 -0.2928
  648MOL0     C89292   7.458   1.072   8.196 -0.0474  0.3722 -0.4708
  648MOL0     C89293   7.369   1.097   8.300 -0.8738 -0.5455  0.3920
  648MOL0     O89294   7.398   1.086   8.434  0.7596 -0.3142 -0.2957
  648MOL0     C89295   7.521   1.113   8.494  0.5603  0.7954  0.0114
  648MOL0     C89296   7.502   1.174   8.637  0.0504  0.7301 -0.3232
  648MOL0     C89297   7.451   1.313   8.642 -0.3858  0.3856  0.8498
  648MOL0     C89298   7.557   1.408   8.573  0.3136  0.6491 -0.3379
  648MOL0     C89299   7.491   1.551   8.556  0.0019  0.5561  0.0172
  648MOL0     C89300   7.496   1.621   8.701  0.3509 -0.0399 -0.0582
  648MOL0     C89301   7.458   1.773   8.671  0.4072 -0.8329  0.4540
  648MOL0     C89302   7.589   1.842   8.641  0.8333 -1.1258 -0.1449
  648MOL0     N89303   7.563   1.984   8.616  0.6615  0.2072  0.7077
  648MOL0     C89304   7.596   2.047   8.505  0.2156 -0.0879  0.0973
  648MOL0     C89305   7.566   2.178   8.522 -0.6989  0.7994  0.4177
  648MOL0     C89306   7.585   2.281   8.413 -0.2087 -0.4271  0.1471
  648MOL0     C89307   7.455   2.359   8.394  0.0859 -0.3888 -0.1236
  648MOL0     C89308   7.343   2.267   8.351 -0.4862 -0.0287 -1.0800
  648MOL0     C89309   7.254   2.340   8.256 -0.4873  0.9895  0.0392
  648MOL0     O89310   7.146   2.256   8.223  0.6140  0.2236  0.3924
  648MOL0     C89311   7.029   2.284   8.281  0.7596  0.0129  0.4361
  648MOL0     C89312   6.984   2.213   8.387  0.0745 -0.8907  0.3407
  648MOL0     C89313   6.865   2.246   8.447 -0.2894 -1.1765  0.4097
  648MOL0     C89314   6.821   2.174   8.567  0.4116 -0.6778 -0.2073
  648MOL0     C89315   6.802   2.375   8.416  0.0319 -0.4022  0.0965
  648MOL0     C89316   6.695   2.442   8.492  0.6419 -0.1379 -0.5542
  648MOL0     O89317   6.740   2.531   8.594  0.5596  0.2584  0.2830
  648MOL0     C89318   6.869   2.557   8.618 -0.7299  0.1573 -0.5027
  648MOL0     C89319   6.950   2.624   8.525 -0.2311 -0.0016 -0.5093
  648MOL0     C89320   7.087   2.648   8.549  0.0960 -0.2910  0.6843
  648MOL0     C89321   7.146   2.598   8.661 -0.3689  0.0467 -0.0401
  648MOL0     O89322   7.279   2.628   8.669  0.5527  0.4674  0.3840
  648MOL0     C89323   7.341   2.561   8.777 -0.0191  0.0515  0.0974
  648MOL0     C89324   7.488   2.568   8.749  0.8051 -0.6250 -0.8087
  648MOL0     C89325   7.555   2.471   8.859  0.1085  0.7900  0.5754
  648MOL0     C89326   7.705   2.468   8.809 -0.0531 -0.4947  0.5111
  648MOL0     C89327   7.805   2.375   8.889 -0.2031  0.3896 -0.1758
  648MOL0     C89328   7.751   2.233   8.928  0.3276 -0.5010 -0.4038
  648MOL0     C89329   7.870   2.138   8.986  0.8394 -0.5715 -0.5588
  648MOL0     C89330   7.812   1.992   9.014 -0.8965 -0.0267  0.0735
  648MOL0    Cl89331   7.693   2.021   9.153 -0.1041  0.1209  0.5082
  648MOL0     C89332   7.065   2.530   8.763 -0.1109 -0.1291 -0.4106
  648MOL0     C89333   6.932   2.507   8.734  0.9804 -0.8980  0.2759
  648MOL0     O89334   6.582   2.421   8.451 -0.1600 -0.0511  0.3818
  648MOL0     C89335   6.848   2.435   8.301  1.0710 -0.2569  0.6302
  648MOL0     C89336   6.960   2.392   8.238 -0.2950 -0.2881 -0.4007
  648MOL0     N89337   7.513   2.187   8.651 -0.0772  0.2737 -0.1943
  648MOL0     N89338   7.512   2.065   8.712 -0.2248 -0.5208  1.2241
  648MOL0     C89339   7.241   1.135   8.264  0.1682 -0.3417 -0.1120
  648MOL0     C89340   7.202   1.145   8.125  0.5059 -0.1269  0.1625
  648MOL0     C89341   7.165   1.001   7.710  0.1210 -0.3216 -0.1542
  648MOL0     C89342   7.255   1.062   7.623  0.7303  0.5873  0.7634
  648MOL0     C89343   7.225   1.071   7.491 -0.1100  0.4956 -0.3235
  648MOL0     C89344   7.108   1.020   7.439 -1.1729  0.4865  0.1402
  648MOL0     O89345   7.084   1.041   7.309  0.3794  0.1960  0.1879
  648MOL0     C89346   7.022   0.942   7.232  0.0509 -0.1616  1.6360
  648MOL0     C89347   7.009   1.009   7.094  0.1976 -0.4305  0.2552
  648MOL0     C89348   7.142   1.005   7.018 -0.1996 -0.3565 -0.0817
  648MOL0     C89349   7.140   1.031   6.867  0.1242  1.0954  0.0329
  648MOL0     C89350   7.281   1.031   6.820  0.0568 -0.0201  0.3529
  648MOL0     C89351   7.393   1.041   6.781  0.5494 -0.1528  0.8984
  648MOL0     C89352   7.013   0.959   7.526  0.8796  0.4673  0.1102
  648MOL0     C89353   7.043   0.943   7.666 -0.5938  0.0344 -0.1641
  648MOL0     C89354   6.935   0.887   7.752  0.5667 -0.1210  0.4669
  648MOL0     H89355   7.492   1.046   7.982 -0.5078  1.5441 -1.6539
  648MOL0     H89356   7.560   1.053   8.227 -0.6114  1.6694  2.5411
  648MOL0     H89357   7.591   1.175   8.437  3.1171 -1.5958  0.3598
  648MOL0     H89358   7.567   1.015   8.504  0.1999  0.6474  0.2233
  648MOL0     H89359   7.429   1.114   8.693 -0.4412  3.1694  1.8234
  648MOL0     H89360   7.597   1.173   8.690  0.1080  1.7764 -0.3935
  648MOL0     H89361   7.358   1.308   8.585 -0.0159 -3.0293  0.3535
  648MOL0     H89362   7.420   1.341   8.743  0.8194 -1.5829  1.8119
  648MOL0     H89363   7.647   1.422   8.635  1.8987 -0.0153 -2.3651
  648MOL0     H89364   7.592   1.370   8.476  0.1890 -0.9485  0.2100
  648MOL0     H89365   7.388   1.533   8.524  0.1996 -3.3792  1.0747
  648MOL0     H89366   7.536   1.610   8.475 -0.7134  2.8404  1.2038
  648MOL0     H89367   7.416   1.577   8.760 -2.2605  4.0434 -0.1400
  648MOL0     H89368   7.597   1.621   8.744  0.7577  0.6225 -0.9732
  648MOL0     H89369   7.408   1.830   8.750 -2.6647 -0.9571 -1.2540
  648MOL0     H89370   7.390   1.776   8.585 -0.0676 -1.6005  0.7922
  648MOL0     H89371   7.652   1.828   8.730  0.1992  0.1677  0.5497
  648MOL0     H89372   7.629   1.792   8.553  1.0321 -4.8402  1.8800
  648MOL0     H89373   7.640   2.004   8.416  2.8515 -1.8430  2.0883
  648MOL0     H89374   7.613   2.233   8.319 -0.3813  0.8795 -0.5965
  648MOL0     H89375   7.662   2.350   8.448 -0.6122 -0.2769  0.7707
  648MOL0     H89376   7.418   2.406   8.486  0.0839  0.4354 -0.5352
  648MOL0     H89377   7.462   2.432   8.312  1.5356 -1.8038 -1.3085
  648MOL0     H89378   7.404   2.202   8.289  1.8360  0.2508  0.7720
  648MOL0     H89379   7.285   2.208   8.423 -0.8080 -0.7163 -1.8808
  648MOL0     H89380   7.216   2.421   8.319  1.6959 -1.3885  4.9558
  648MOL0     H89381   7.308   2.379   8.169  0.7034 -1.2441 -0.3107
  648MOL0     H89382   7.057   2.137   8.414 -0.8425 -2.6823 -1.8938
  648MOL0     H89383   6.839   2.069   8.543  0.3174 -0.1867 -2.6698
  648MOL0     H89384   6.715   2.186   8.593  0.7631 -2.9418  2.9528
  648MOL0     H89385   6.883   2.206   8.651 -1.9039  2.4384  0.4825
  648MOL0     H89386   6.912   2.662   8.431  1.1321 -2.2870 -2.0763
  648MOL0     H89387   7.145   2.701   8.474  2.4137 -0.7483  2.0521
  648MOL0     H89388   7.307   2.603   8.872 -0.6527 -0.8165  0.2676
  648MOL0     H89389   7.320   2.454   8.785 -2.3232  0.4849  0.5495
  648MOL0     H89390   7.519   2.535   8.649 -0.2400 -0.4267 -1.2068
  648MOL0     H89391   7.525   2.671   8.760  0.0555 -0.1345 -2.4959
  648MOL0     H89392   7.520   2.368   8.845  2.1897  0.3593 -2.4722
  648MOL0     H89393   7.536   2.498   8.963  2.7588  0.8703  1.1010
  648MOL0     H89394   7.741   2.570   8.827  0.1364 -0.3748 -0.4898
  648MOL0     H89395   7.710   2.437   8.704 -0.0900  3.3246 -0.7835
  648MOL0     H89396   7.896   2.368   8.829 -0.5378  0.2108 -0.6627
  648MOL0     H89397   7.829   2.423   8.985  1.1797  1.8043 -1.1839
  648MOL0     H89398   7.710   2.183   8.840  2.7271  0.5278 -2.2470
  648MOL0     H89399   7.678   2.250   9.008  2.3646 -1.5438  1.8167
  648MOL0     H89400   7.917   2.175   9.077 -0.0920  0.1595 -0.3694
  648MOL0     H89401   7.946   2.127   8.908  1.2498 -2.0055 -0.0006
  648MOL0     H89402   7.891   1.937   9.067 -3.4913  0.7942  5.4758
  648MOL0     H89403   7.773   1.943   8.924 -0.6512  2.7736 -1.6705
  648MOL0     H89404   7.111   2.494   8.854  1.5982  0.0672 -1.1604
  648MOL0     H89405   6.865   2.453   8.800 -2.5711  1.6069 -0.9677
  648MOL0     H89406   6.797   2.525   8.267  1.1439  0.2427  1.7810
  648MOL0     H89407   6.979   2.443   8.144  0.1085 -2.9998 -1.8762
  648MOL0     H89408   7.169   1.155   8.342  0.3595 -2.2818  0.6213
  648MOL0     H89409   7.105   1.179   8.087  1.2663  1.3909 -0.5364
  648MOL0     H89410   7.343   1.116   7.659  1.0363  0.4421  0.2464
  648MOL0     H89411   7.297   1.119   7.425  0.0964 -2.7473 -2.7269
  648MOL0     H89412   7.085   0.855   7.215 -1.3852 -0.6095 -2.5306
  648MOL0     H89413   6.925   0.913   7.273 -2.0275 -0.0398 -2.6170
  648MOL0     H89414   6.979   1.112   7.118 -3.5105 -1.9425  3.3402
  648MOL0     H89415   6.944   0.968   7.016  1.6469 -0.0003 -1.2237
  648MOL0     H89416   7.197   1.081   7.073 -1.5877 -1.4211  3.0125
  648MOL0     H89417   7.170   0.901   7.038 -2.2517 -0.5867  2.1236
  648MOL0     H89418   7.094   1.127   6.844  0.6516  0.8123 -2.4699
  648MOL0     H89419   7.090   0.950   6.812  2.3414  0.8794 -1.7856
  648MOL0     H89420   7.491   1.042   6.738 -0.5953 -3.3258 -2.3049
  648MOL0     H89421   6.916   0.929   7.487  1.1628  1.0252 -1.0784
  648MOL0     H89422   6.852   0.846   7.693  0.3678 -3.5568  2.7812
  648MOL0     H89423   6.978   0.799   7.801 -0.4641  1.7576  5.3033
  648MOL0     H89424   6.900   0.963   7.823  0.7396 -1.0721  1.6151
  649MOL0     O89425   4.803   0.022  10.226  0.6771  0.0181  0.4822
  649MOL0     C89426   4.918  -0.007  10.206  0.0872 -0.0110 -0.3886
  649MOL0     O89427   4.981  -0.119  10.243  0.1738 -0.0518  0.3244
  649MOL0     C89428   4.928  -0.213  10.328 -0.7058 -0.2025  0.1274
  649MOL0     C89429   4.992  -0.340  10.326 -0.7535 -0.1977 -0.0529
  649MOL0     C89430   4.967  -0.439  10.420 -0.2123 -0.2100  0.2294
  649MOL0     C89431   4.863  -0.410  10.514 -0.4566  0.5828  0.2263
  649MOL0     O89432   4.827  -0.513  10.592  0.5663  0.3784 -0.3046
  649MOL0     C89433   4.763  -0.488  10.717  0.6102 -0.6779 -0.0302
  649MOL0     C89434   4.754  -0.607  10.812 -0.3670  0.2503 -0.0451
  649MOL0     C89435   4.703  -0.536  10.948  0.5112 -0.0719  0.0116
  649MOL0     C89436   4.652  -0.622  11.066  0.2401  0.1922 -0.0733
  649MOL0     C89437   4.599  -0.545  11.188 -0.0507 -0.2258  0.2389
  649MOL0     C89438   4.578  -0.630  11.310  0.0986  1.1228  0.0489
  649MOL0     C89439   4.510  -0.551  11.429  0.2402  0.0362  0.8616
  649MOL0     C89440   4.375  -0.484  11.399 -1.5243 -0.1006  0.2447
  649MOL0     N89441   4.394  -0.366  11.309  0.2371  0.0165 -0.1416
  649MOL0     C89442   4.461  -0.251  11.338 -0.2684 -0.3715  0.9132
  649MOL0     C89443   4.464  -0.175  11.226  0.9227 -0.4298  0.1963
  649MOL0     C89444   4.558  -0.061  11.185 -0.5186  1.1661 -0.4305
  649MOL0     C89445   4.697  -0.119  11.141  0.8283  0.0613  0.3220
  649MOL0     C89446   4.701  -0.159  11.002  0.2514 -0.1981 -0.0292
  649MOL0     C89447   4.703  -0.045  10.900  1.2464  0.8045  0.5810
  649MOL0     O89448   4.822   0.021  10.898 -0.2498  0.0216 -1.2848
  649MOL0     C89449   4.850   0.107  10.799  0.9858 -0.5410  0.5885
  649MOL0     C89450   4.769   0.147  10.693  1.0455  0.4326  0.4144
  649MOL0     C89451   4.804   0.228  10.581 -0.3593 -0.1779  0.8201
  649MOL0     C89452   4.695   0.247  10.479  1.0491  0.6258 -1.4356
  649MOL0     C89453   4.931   0.293  10.587  0.3098 -0.4155 -0.3593
  649MOL0     C89454   4.970   0.407  10.500  0.8593  0.4034 -0.4280
  649MOL0     O89455   5.098   0.432  10.484 -0.2808  0.4762  0.5977
  649MOL0     C89456   5.124   0.546  10.406 -0.7703 -0.8006 -0.2734
  649MOL0     C89457   5.182   0.526  10.273  0.4908  0.6499 -0.7615
  649MOL0     C89458   5.227   0.636  10.199  0.4360 -0.0339 -0.6497
  649MOL0     C89459   5.207   0.763  10.252 -0.3278 -0.8037  0.4217
  649MOL0     O89460   5.226   0.885  10.185  0.1441 -0.4045  0.4583
  649MOL0     C89461   5.261   0.884  10.050  0.7001  0.3568  0.1930
  649MOL0     C89462   5.212   1.006   9.972  0.2369  0.7629  0.3601
  649MOL0     C89463   5.054   1.013   9.962  0.4735 -0.1794  0.4854
  649MOL0     C89464   5.006   1.153   9.934 -0.3994 -0.2885  0.3826
  649MOL0     C89465   4.866   1.154   9.862  0.6808  0.3757  0.4348
  649MOL0     C89466   4.882   1.120   9.709  0.3622  0.0119  0.0126
  649MOL0     C89467   4.948   1.243   9.638 -0.4789 -0.4606  0.1377
  649MOL0     C89468   5.050   1.197   9.532 -0.4017 -0.5184 -0.7748
  649MOL0    Cl89469   4.986   1.127   9.385  0.0560 -0.0414 -0.0877
  649MOL0     C89470   5.172   0.782  10.391  0.3587 -0.9271  0.3620
  649MOL0     C89471   5.123   0.670  10.461 -0.1073 -0.1266  0.0993
  649MOL0     O89472   4.875   0.478  10.457  0.2069 -0.4639 -1.2433
  649MOL0     C89473   5.023   0.245  10.683 -0.5599 -0.6825  0.6285
  649MOL0     C89474   4.977   0.168  10.792 -0.4820 -0.1484  0.0214
  649MOL0     N89475   4.364  -0.232  11.142  0.7137  0.2505 -0.4683
  649MOL0     N89476   4.323  -0.337  11.200  0.3175 -0.1657 -0.2635
  649MOL0     C89477   4.793  -0.288  10.518 -0.1472  0.2746 -1.3866
  649MOL0     C89478   4.832  -0.181  10.432  1.1047 -0.2901  0.4197
  649MOL0     C89479   5.008   0.082  10.127 -0.6582 -0.3435  0.4988
  649MOL0     C89480   5.144   0.050  10.097  0.2546  0.0531  0.8645
  649MOL0     C89481   5.224   0.121  10.006  0.5861  0.5610 -0.2569
  649MOL0     C89482   5.180   0.248   9.959 -0.3751  0.0344 -0.7893
  649MOL0     O89483   5.258   0.326   9.870  0.0016 -0.7515  0.5436
  649MOL0     C89484   5.396   0.297   9.887  0.1387 -0.5856  0.4224
  649MOL0     C89485   5.478   0.403   9.809  0.3041  0.4604 -0.8661
  649MOL0     C89486   5.433   0.406   9.665  0.0841 -0.8474 -0.4391
  649MOL0     C89487   5.432   0.269   9.583  0.0829 -0.1766 -0.7979
  649MOL0     C89488   5.554   0.190   9.590  0.0709 -0.0993  0.5816
  649MOL0     C89489   5.638   0.099   9.590  0.2283 -1.4180  0.3384
  649MOL0     C89490   5.053   0.285   9.989  0.5077 -0.9681 -0.3718
  649MOL0     C89491   4.965   0.209  10.064  0.7867  0.2077  0.2251
  649MOL0     C89492   4.827   0.265  10.069 -0.0866  0.1327 -0.1204
  649MOL0     H89493   5.062  -0.359  10.245 -0.3507  0.4426  0.1326
  649MOL0     H89494   5.017  -0.535  10.419 -2.7338 -1.6645  1.6523
  649MOL0     H89495   4.663  -0.448  10.698  0.2857 -3.0683 -5.5964
  649MOL0     H89496   4.815  -0.407  10.767 -1.4929  0.0482  1.1154
  649MOL0     H89497   4.697  -0.689  10.766 -0.5841  0.6046 -0.4143
  649MOL0     H89498   4.849  -0.654  10.838 -0.6998  1.4182  3.8221
  649MOL0     H89499   4.785  -0.474  10.984 -0.5860  1.8384 -0.6694
  649MOL0     H89500   4.623  -0.465  10.927  1.4672  1.8184  2.3029
  649MOL0     H89501   4.567  -0.688  11.042 -0.5511  1.4005 -0.7369
  649MOL0     H89502   4.728  -0.689  11.108 -3.1156 -1.5549  3.9822
  649MOL0     H89503   4.506  -0.504  11.146  1.3551  1.2783 -1.5933
  649MOL0     H89504   4.672  -0.469  11.219 -0.1465  0.0452 -0.1913
  649MOL0     H89505   4.516  -0.716  11.280  1.0517  0.9054 -1.4221
  649MOL0     H89506   4.676  -0.665  11.344 -1.5759 -1.8430  2.3626
  649MOL0     H89507   4.587  -0.488  11.474 -1.2865  1.7871  1.1514
  649MOL0     H89508   4.483  -0.635  11.494  0.3731 -1.3057 -0.7385
  649MOL0     H89509   4.319  -0.567  11.355  3.0317 -4.0446  1.0848
  649MOL0     H89510   4.343  -0.458  11.500  1.6405 -0.9666  1.5943
  649MOL0     H89511   4.513  -0.233  11.432  0.0892  0.4367  0.5661
  649MOL0     H89512   4.579   0.009  11.266 -0.8301  5.7394 -3.9294
  649MOL0     H89513   4.507   0.003  11.113  1.0814 -0.3998 -3.1124
  649MOL0     H89514   4.769  -0.040  11.168  0.4431  1.0714 -1.4289
  649MOL0     H89515   4.719  -0.205  11.204  0.7865 -2.5252 -2.9164
  649MOL0     H89516   4.793  -0.217  10.988  0.5379  0.1999  0.1874
  649MOL0     H89517   4.616  -0.229  10.998  1.3071 -1.5441  0.4439
  649MOL0     H89518   4.681  -0.093  10.804  0.1176  1.1048  0.6805
  649MOL0     H89519   4.625   0.025  10.928 -1.6992 -1.8125 -0.5451
  649MOL0     H89520   4.667   0.111  10.685  1.0208  0.8811 -2.5641
  649MOL0     H89521   4.650   0.346  10.493 -0.7501 -0.1983 -1.0759
  649MOL0     H89522   4.620   0.169  10.497  0.4965  1.3843 -0.3148
  649MOL0     H89523   4.728   0.237  10.376 -0.4554  1.7741 -2.0762
  649MOL0     H89524   5.201   0.423  10.245  0.5888  0.6951 -0.8612
  649MOL0     H89525   5.263   0.619  10.098  1.0525  0.8524 -0.5865
  649MOL0     H89526   5.370   0.874  10.044  0.8940  1.9129  0.4897
  649MOL0     H89527   5.209   0.799  10.005  1.6154  1.0439 -2.3546
  649MOL0     H89528   5.236   1.100  10.022 -1.2052  1.3244  0.0364
  649MOL0     H89529   5.260   1.005   9.873 -1.0812 -0.0228 -0.2954
  649MOL0     H89530   5.014   0.964  10.051  0.6265 -1.4744 -0.1326
  649MOL0     H89531   5.027   0.954   9.874  2.0923 -0.9058  0.4286
  649MOL0     H89532   5.081   1.202   9.872  2.7432 -0.8912  3.3968
  649MOL0     H89533   4.996   1.209  10.027 -1.5590  1.9905 -1.0290
  649MOL0     H89534   4.804   1.077   9.909 -1.4537 -0.8736 -3.8727
  649MOL0     H89535   4.817   1.249   9.883  0.7949  0.6124 -0.3276
  649MOL0     H89536   4.786   1.101   9.661  0.1216 -0.3892  0.6390
  649MOL0     H89537   4.950   1.035   9.695  1.2840  0.8348 -0.7207
  649MOL0     H89538   5.000   1.314   9.702  1.0311 -0.8130 -0.6545
  649MOL0     H89539   4.873   1.305   9.588  1.3633  2.4738  0.7586
  649MOL0     H89540   5.121   1.126   9.576  0.9757  0.7828 -0.8093
  649MOL0     H89541   5.101   1.290   9.507 -1.4927  0.4137  0.3285
  649MOL0     H89542   5.176   0.881  10.434  5.8604 -1.7404  2.5915
  649MOL0     H89543   5.085   0.674  10.563 -1.3367 -3.8608 -0.0640
  649MOL0     H89544   5.123   0.283  10.696 -1.2575  2.7012 -2.2609
  649MOL0     H89545   5.044   0.152  10.875 -0.7664  0.8917  0.4585
  649MOL0     H89546   4.710  -0.266  10.583 -1.6981  1.1446 -3.5256
  649MOL0     H89547   4.789  -0.087  10.466  1.3856 -0.5000  1.3865
  649MOL0     H89548   5.192  -0.042  10.129  0.0714  0.0735  1.2036
  649MOL0     H89549   5.317   0.073   9.977 -0.1941 -0.6616 -0.7662
  649MOL0     H89550   5.427   0.310   9.991  3.4663 -0.4514 -0.4559
  649MOL0     H89551   5.428   0.196   9.859 -0.5695 -0.1131 -2.4644
  649MOL0     H89552   5.582   0.368   9.814  0.6826  1.6851  0.9308
  649MOL0     H89553   5.475   0.501   9.858 -0.4604  0.0352 -0.0289
  649MOL0     H89554   5.332   0.443   9.644  0.3442 -0.3332 -0.8238
  649MOL0     H89555   5.509   0.472   9.620  0.1546  0.8250  1.9496
  649MOL0     H89556   5.417   0.306   9.481  0.2178  1.0190 -0.3974
  649MOL0     H89557   5.347   0.211   9.621 -0.9362  1.3036 -0.7529
  649MOL0     H89558   5.713   0.024   9.574  3.6453  1.8613 -0.6230
  649MOL0     H89559   5.028   0.384   9.952 -1.9784  0.1130  3.5169
  649MOL0     H89560   4.809   0.289  10.174  2.7263  3.9258 -0.2892
  649MOL0     H89561   4.835   0.350  10.001 -0.0127 -1.6727 -2.5349
  649MOL0     H89562   4.751   0.200  10.024  0.0723  0.2632 -0.5837
  650MOL0     O89563   9.206   4.276   3.326 -0.4159  0.0395 -0.1965
  650MOL0     C89564   9.320   4.251   3.287 -0.1620  0.1855  0.3916
  650MOL0     O89565   9.359   4.275   3.163  0.2706 -0.1875 -0.6326
  650MOL0     C89566   9.297   4.384   3.095  0.2177  0.0493 -0.4432
  650MOL0     C89567   9.154   4.408   3.089  0.7277  0.2405  0.9045
  650MOL0     C89568   9.098   4.513   3.018 -0.1253  0.0907  0.1658
  650MOL0     C89569   9.195   4.607   2.957  1.2576  0.8720  0.1319
  650MOL0     O89570   9.137   4.710   2.895 -0.5318 -0.0255 -0.3944
  650MOL0     C89571   9.073   4.802   2.985 -0.4910  0.8952  1.0662
  650MOL0     C89572   9.064   4.937   2.912  0.2118 -0.1214 -1.0877
  650MOL0     C89573   8.973   4.904   2.794  0.1258 -0.8819  0.0817
  650MOL0     C89574   8.914   5.040   2.744 -0.1025  0.5763 -0.1962
  650MOL0     C89575   8.824   5.032   2.626 -0.3070  0.9677  0.0440
  650MOL0     C89576   8.731   5.157   2.604  0.1036  0.4229 -0.1002
  650MOL0     C89577   8.618   5.142   2.504  0.6735 -0.3454  0.8114
  650MOL0     C89578   8.664   5.144   2.354 -0.8446 -0.1197 -0.4889
  650MOL0     N89579   8.715   5.272   2.308 -0.1665  0.0218  0.0116
  650MOL0     C89580   8.639   5.382   2.282 -0.1349  1.0348 -0.5055
  650MOL0     C89581   8.714   5.444   2.189  0.3951  0.0406 -0.2741
  650MOL0     C89582   8.674   5.572   2.123 -0.0532 -0.0873 -0.2283
  650MOL0     C89583   8.578   5.540   2.007  0.2180 -0.2295 -0.7055
  650MOL0     C89584   8.624   5.453   1.891  0.7821 -1.2244 -0.5741
  650MOL0     C89585   8.540   5.485   1.768 -0.3491  0.4899  0.5218
  650MOL0     O89586   8.399   5.448   1.779  0.3485 -0.1935 -0.0408
  650MOL0     C89587   8.300   5.498   1.696 -0.0689  0.0181 -0.1147
  650MOL0     C89588   8.310   5.571   1.581  0.3558 -0.2539  1.0125
  650MOL0     C89589   8.198   5.623   1.513  0.3031  0.1562 -0.3748
  650MOL0     C89590   8.219   5.726   1.405  0.2898  1.2505  0.4964
  650MOL0     C89591   8.068   5.590   1.560  0.1088  0.9001 -0.3138
  650MOL0     C89592   7.947   5.625   1.486  0.3096  0.3462  0.1496
  650MOL0     O89593   7.828   5.609   1.556 -0.2854  0.2044 -0.0499
  650MOL0     C89594   7.714   5.674   1.528  0.2647  0.3829 -0.5620
  650MOL0     C89595   7.694   5.793   1.456 -0.6616  0.5724  0.2855
  650MOL0     C89596   7.570   5.844   1.434 -0.0828 -1.4119  0.7094
  650MOL0     C89597   7.457   5.780   1.485 -1.0283 -0.3736  0.4491
  650MOL0     O89598   7.339   5.838   1.464  0.4244 -0.7721 -0.5263
  650MOL0     C89599   7.220   5.793   1.535 -0.0579 -0.1959 -0.1428
  650MOL0     C89600   7.115   5.883   1.463  0.0160 -0.1641  0.4189
  650MOL0     C89601   6.977   5.828   1.487  0.8391  0.3868  0.7135
  650MOL0     C89602   6.930   5.825   1.632 -0.1273  0.8601 -0.1038
  650MOL0     C89603   6.776   5.791   1.637 -0.4400  0.4658  0.0799
  650MOL0     C89604   6.736   5.756   1.781  0.0859  1.2928 -0.3291
  650MOL0     C89605   6.593   5.722   1.802  0.4327  0.1579  0.0663
  650MOL0     C89606   6.566   5.700   1.954  0.1081  0.0031 -0.5361
  650MOL0    Cl89607   6.681   5.581   2.019 -0.1574 -0.1422  0.1147
  650MOL0     C89608   7.478   5.676   1.584 -0.4330  0.3262 -0.7118
  650MOL0     C89609   7.607   5.613   1.608 -0.6085 -0.3539  1.2668
  650MOL0     O89610   7.960   5.685   1.378 -0.1022 -0.4904 -0.6629
  650MOL0     C89611   8.057   5.505   1.670  0.4317 -0.1157 -0.7506
  650MOL0     C89612   8.173   5.470   1.738  0.5413  0.9799  0.2029
  650MOL0     N89613   8.829   5.376   2.162  0.1536 -0.3499  0.2474
  650MOL0     N89614   8.830   5.269   2.231 -0.3978 -0.3574  0.2789
  650MOL0     C89615   9.332   4.589   2.967  0.0916 -0.1528 -0.4125
  650MOL0     C89616   9.380   4.481   3.036 -0.8614 -0.7468 -0.1498
  650MOL0     C89617   9.409   4.160   3.372  0.3653 -0.1454  1.3599
  650MOL0     C89618   9.526   4.104   3.310  0.3194  0.2115  0.3212
  650MOL0     C89619   9.598   4.011   3.382 -0.0183 -0.6772  0.3392
  650MOL0     C89620   9.562   3.986   3.519  0.3253 -0.6543  0.6228
  650MOL0     O89621   9.626   3.889   3.596  0.5945 -0.0238 -0.0174
  650MOL0     C89622   9.737   3.816   3.541  0.7747 -0.8768  1.0878
  650MOL0     C89623   9.795   3.709   3.627  0.1517  0.4746  0.3466
  650MOL0     C89624   9.835   3.777   3.765 -0.3247 -1.2379 -0.1042
  650MOL0     C89625   9.726   3.754   3.871 -0.2839 -0.1388 -0.1442
  650MOL0     C89626   9.791   3.749   3.999  0.4900  0.9498 -0.4391
  650MOL0     C89627   9.854   3.744   4.101 -0.1305 -0.4222  0.4100
  650MOL0     C89628   9.447   4.044   3.576 -0.2803  0.6004  0.4457
  650MOL0     C89629   9.372   4.129   3.501  0.4241 -0.2255  0.0431
  650MOL0     C89630   9.248   4.182   3.576 -0.1278  0.5204 -0.0340
  650MOL0     H89631   9.082   4.346   3.141 -1.2280  0.1530 -1.7516
  650MOL0     H89632   8.990   4.524   3.009 -0.2570 -1.7011 -1.0662
  650MOL0     H89633   9.145   4.819   3.065 -1.5200  0.8419  2.0287
  650MOL0     H89634   8.983   4.756   3.027 -1.1791 -1.9076 -2.9174
  650MOL0     H89635   9.007   5.004   2.977  1.0408 -0.9951  0.6090
  650MOL0     H89636   9.161   4.980   2.884  0.1815 -0.3574 -1.5653
  650MOL0     H89637   9.043   4.864   2.720  0.9043 -1.6359  1.1974
  650MOL0     H89638   8.894   4.835   2.824  0.1021 -1.6843 -1.7255
  650MOL0     H89639   8.866   5.086   2.832 -0.6081  3.8301 -2.0288
  650MOL0     H89640   8.997   5.103   2.712  1.2366 -1.2807 -0.5223
  650MOL0     H89641   8.756   4.948   2.646  0.9151  0.2266  1.2781
  650MOL0     H89642   8.887   5.008   2.540  1.4200  2.9173  0.6828
  650MOL0     H89643   8.677   5.177   2.696 -1.4125  0.8776 -1.0525
  650MOL0     H89644   8.799   5.235   2.566 -1.5564  1.5905 -0.7806
  650MOL0     H89645   8.560   5.233   2.522 -0.9177 -0.8630 -1.3343
  650MOL0     H89646   8.563   5.052   2.534  2.0104 -1.3687  0.3101
  650MOL0     H89647   8.740   5.066   2.341 -0.1645  0.5515 -0.6528
  650MOL0     H89648   8.584   5.110   2.288 -1.3423 -1.7293  0.8571
  650MOL0     H89649   8.541   5.392   2.327  1.1185 -0.8171  3.0438
  650MOL0     H89650   8.754   5.633   2.082  0.4764  0.9968  2.2190
  650MOL0     H89651   8.627   5.645   2.191  2.7029  0.4342  1.2440
  650MOL0     H89652   8.484   5.497   2.045  1.7743 -0.9101  2.7923
  650MOL0     H89653   8.555   5.636   1.960 -1.3268 -0.1673  0.1097
  650MOL0     H89654   8.730   5.467   1.866  0.9528 -3.4626 -1.3165
  650MOL0     H89655   8.619   5.350   1.927  2.3919 -0.6639  1.4252
  650MOL0     H89656   8.547   5.589   1.734 -0.2213  0.1449 -0.5642
  650MOL0     H89657   8.583   5.423   1.688 -2.5439 -1.3005  0.6049
  650MOL0     H89658   8.408   5.581   1.536 -0.1507 -1.2557 -0.3944
  650MOL0     H89659   8.174   5.822   1.432 -0.7160  0.1218  3.1990
  650MOL0     H89660   8.186   5.689   1.307  6.7300  1.9231 -2.4700
  650MOL0     H89661   8.323   5.751   1.382  0.0975  1.6443  0.0638
  650MOL0     H89662   7.780   5.849   1.421  0.4202 -0.2772  1.4788
  650MOL0     H89663   7.539   5.941   1.397 -1.4144 -1.0281  2.6736
  650MOL0     H89664   7.197   5.687   1.529 -2.3072  0.2057  0.2889
  650MOL0     H89665   7.231   5.822   1.640 -1.9127  1.8489 -0.4385
  650MOL0     H89666   7.124   5.989   1.487 -1.7223 -0.2828  1.8829
  650MOL0     H89667   7.121   5.867   1.355 -0.3745  1.0441  0.2029
  650MOL0     H89668   6.977   5.724   1.453  3.1640  0.1040  1.4006
  650MOL0     H89669   6.906   5.885   1.426  2.6661  0.2738 -1.6942
  650MOL0     H89670   6.947   5.921   1.682  3.3827  0.4687 -0.3313
  650MOL0     H89671   6.976   5.738   1.679 -1.8214 -1.9312 -3.1756
  650MOL0     H89672   6.720   5.879   1.603  1.6069  0.6947 -3.0492
  650MOL0     H89673   6.753   5.709   1.569 -0.6297 -0.8449  1.6595
  650MOL0     H89674   6.762   5.834   1.853 -2.0413  0.3051  1.6366
  650MOL0     H89675   6.795   5.667   1.804  0.0631  1.7994  1.9155
  650MOL0     H89676   6.592   5.623   1.754  1.5168  1.0716 -1.9925
  650MOL0     H89677   6.529   5.794   1.750  1.3170 -1.5282 -3.7806
  650MOL0     H89678   6.464   5.671   1.980  0.4549  1.0432  2.4606
  650MOL0     H89679   6.582   5.803   1.989 -0.8010  2.9632 -7.2862
  650MOL0     H89680   7.401   5.654   1.656 -0.0229  2.1641  0.3606
  650MOL0     H89681   7.623   5.532   1.679  1.6002  0.0740  1.3394
  650MOL0     H89682   7.959   5.483   1.711  0.6187  1.9753  1.0140
  650MOL0     H89683   8.161   5.408   1.827 -3.5125  0.2148 -0.7029
  650MOL0     H89684   9.393   4.666   2.921 -1.8515  2.1876  0.6890
  650MOL0     H89685   9.488   4.485   3.051 -0.9849  2.9376  0.7990
  650MOL0     H89686   9.556   4.131   3.209 -1.7219  4.4908  0.6616
  650MOL0     H89687   9.679   3.953   3.339 -0.5341 -1.0107 -0.1972
  650MOL0     H89688   9.692   3.765   3.455  0.1415  0.5371  0.5623
  650MOL0     H89689   9.821   3.884   3.520  0.7524 -0.6032  1.8601
  650MOL0     H89690   9.879   3.658   3.580 -1.6955 -0.8277 -1.7368
  650MOL0     H89691   9.717   3.634   3.638  1.2393 -0.9788 -1.2334
  650MOL0     H89692   9.925   3.724   3.797 -0.1892 -0.3707  0.9908
  650MOL0     H89693   9.849   3.884   3.753 -2.7761 -1.0762 -2.4847
  650MOL0     H89694   9.669   3.661   3.856 -0.4078 -0.1440  0.3461
  650MOL0     H89695   9.648   3.829   3.856 -1.4087 -1.6051 -2.1696
  650MOL0     H89696   9.924   3.750   4.181 -0.6494 -0.0349  0.8420
  650MOL0     H89697   9.434   4.014   3.680 -2.3715 -2.3479 -0.5435
  650MOL0     H89698   9.250   4.155   3.682 -0.6182  1.2247  0.1612
  650MOL0     H89699   9.233   4.290   3.566  0.9978  0.6671 -0.2919
  650MOL0     H89700   9.162   4.140   3.523  2.0865 -0.7919 -2.9080
  651MOL0     O89701   6.820  11.438  10.077  0.4539  0.4950  0.0372
  651MOL0     C89702   6.731  11.506  10.133 -0.2285 -0.5173  0.4971
  651MOL0     O89703   6.646  11.593  10.067  0.6922  0.1650  0.0153
  651MOL0     C89704   6.640  11.577   9.929  0.2900  0.2246 -0.0369
  651MOL0     C89705   6.741  11.629   9.841  0.5510  0.6309  0.1033
  651MOL0     C89706   6.737  11.609   9.703 -0.3906 -0.6011  0.2844
  651MOL0     C89707   6.625  11.556   9.644 -0.6046 -0.0403  0.1030
  651MOL0     O89708   6.591  11.567   9.504 -1.5722 -0.5436 -0.4235
  651MOL0     C89709   6.681  11.610   9.406 -1.0953  0.3559 -0.9925
  651MOL0     C89710   6.607  11.573   9.272 -0.5845 -0.4855  0.5730
  651MOL0     C89711   6.591  11.425   9.255 -0.8312 -0.2233 -0.2231
  651MOL0     C89712   6.627  11.399   9.115 -0.1721  0.1518 -0.2784
  651MOL0     C89713   6.613  11.254   9.098 -0.6026  0.1427  0.1723
  651MOL0     C89714   6.690  11.201   8.977  0.5256 -0.4478  0.0355
  651MOL0     C89715   6.642  11.057   8.956  0.0262  0.2135 -0.3480
  651MOL0     C89716   6.736  10.963   8.888  0.1781 -0.5392 -0.0882
  651MOL0     N89717   6.758  11.021   8.756  0.2071  0.5597 -0.1845
  651MOL0     C89718   6.877  11.074   8.714  0.4508 -0.2172 -0.0223
  651MOL0     C89719   6.863  11.101   8.581  0.1583 -0.5333 -0.1756
  651MOL0     C89720   6.980  11.156   8.503  0.0795 -0.8180 -0.0744
  651MOL0     C89721   6.991  11.307   8.522 -0.4379 -0.7372 -0.3073
  651MOL0     C89722   7.087  11.371   8.428  0.1949  0.3263 -0.6374
  651MOL0     C89723   7.149  11.516   8.458 -0.1487  0.2409  0.5366
  651MOL0     O89724   7.070  11.634   8.447 -0.3878 -0.2484 -0.5984
  651MOL0     C89725   6.969  11.662   8.533  0.0224  0.0264 -1.0542
  651MOL0     C89726   6.934  11.600   8.650 -0.9477 -0.9922 -0.2339
  651MOL0     C89727   6.823  11.626   8.725  1.0164  1.0860  0.0940
  651MOL0     C89728   6.809  11.567   8.860 -0.6604  0.7134  0.5372
  651MOL0     C89729   6.721  11.711   8.665 -0.9410 -0.5145 -0.1529
  651MOL0     C89730   6.588  11.745   8.723  0.3873 -0.3697 -0.1406
  651MOL0     O89731   6.535  11.865   8.693  0.1376 -0.2869  0.5503
  651MOL0     C89732   6.402  11.890   8.727 -0.5447  0.6579  0.2562
  651MOL0     C89733   6.301  11.846   8.649 -0.3079 -0.0070 -0.2572
  651MOL0     C89734   6.168  11.883   8.666 -0.1003 -0.8501 -0.7820
  651MOL0     C89735   6.133  11.969   8.765  0.0381 -0.0169 -0.5886
  651MOL0     O89736   5.995  11.996   8.777 -0.7490 -0.2771  0.8791
  651MOL0     C89737   5.975  12.138   8.782 -0.5719 -0.7367 -0.3461
  651MOL0     C89738   5.841  12.193   8.728 -0.3546  0.0230 -0.0435
  651MOL0     C89739   5.829  12.169   8.572  0.0898 -0.0248 -0.7672
  651MOL0     C89740   5.772  12.034   8.538 -0.2730  0.0657 -0.0833
  651MOL0     C89741   5.823  11.985   8.409  0.1132 -1.0435  0.2931
  651MOL0     C89742   5.767  11.854   8.361 -0.1268 -0.4853  0.3087
  651MOL0     C89743   5.826  11.729   8.431 -0.1587  0.0386 -0.5339
  651MOL0     C89744   5.751  11.605   8.387 -0.1317  0.4256 -0.3182
  651MOL0    Cl89745   5.802  11.569   8.215  0.7025  0.2183 -0.4340
  651MOL0     C89746   6.233  12.012   8.849 -0.3477 -0.2927 -1.1777
  651MOL0     C89747   6.371  11.980   8.828 -0.1397 -0.1667 -0.0821
  651MOL0     O89748   6.531  11.663   8.796  0.1224  0.0609 -0.3891
  651MOL0     C89749   6.758  11.775   8.544 -0.1878 -0.1133 -0.4193
  651MOL0     C89750   6.880  11.754   8.481 -0.0977  0.9762  0.1666
  651MOL0     N89751   6.733  11.060   8.551  0.5299 -0.2500  0.3474
  651MOL0     N89752   6.676  11.005   8.650 -0.2706  0.0796  0.2956
  651MOL0     C89753   6.525  11.510   9.726 -1.0905  0.1662 -0.3949
  651MOL0     C89754   6.534  11.510   9.868  1.0608 -0.2340 -0.5287
  651MOL0     C89755   6.740  11.515  10.281  0.0910  0.1980 -0.5989
  651MOL0     C89756   6.821  11.623  10.322  0.9097 -0.4485  0.1297
  651MOL0     C89757   6.840  11.652  10.457 -0.4452 -0.3705  0.6035
  651MOL0     C89758   6.785  11.569  10.553  0.0235  0.6183  0.2059
  651MOL0     O89759   6.816  11.588  10.688  0.0440  0.5778  0.0856
  651MOL0     C89760   6.826  11.458  10.757  0.0804 -0.3264  0.2572
  651MOL0     C89761   6.892  11.481  10.888 -0.2812 -0.8793 -0.3656
  651MOL0     C89762   6.934  11.340  10.949  0.1997  0.4852  0.1316
  651MOL0     C89763   7.023  11.370  11.072 -0.0475 -0.1985  0.1994
  651MOL0     C89764   6.937  11.407  11.183  0.1398  0.1379 -0.2223
  651MOL0     C89765   6.862  11.451  11.262 -0.1428  0.2484  0.6449
  651MOL0     C89766   6.701  11.458  10.507 -0.2983  0.0931  0.2241
  651MOL0     C89767   6.677  11.426  10.375 -1.1658 -0.5098  0.0713
  651MOL0     C89768   6.583  11.317  10.332 -0.2220 -0.1599  1.1235
  651MOL0     H89769   6.826  11.675   9.890 -0.8266  1.8059  1.4707
  651MOL0     H89770   6.820  11.644   9.643 -0.6286 -0.3306  0.1118
  651MOL0     H89771   6.775  11.556   9.427  0.7039  3.5911 -0.1358
  651MOL0     H89772   6.706  11.715   9.420  1.4338 -0.3572  0.6217
  651MOL0     H89773   6.507  11.616   9.275 -1.4409 -2.2963  4.7433
  651MOL0     H89774   6.674  11.614   9.195  2.1142  0.8133  3.3886
  651MOL0     H89775   6.650  11.375   9.333  0.9008  3.8892  1.4208
  651MOL0     H89776   6.492  11.388   9.282 -0.8913  1.3212  1.9337
  651MOL0     H89777   6.563  11.456   9.047 -1.8425 -1.0438  0.2165
  651MOL0     H89778   6.732  11.422   9.098 -0.3019 -0.2003 -1.6809
  651MOL0     H89779   6.510  11.225   9.075  0.2446 -0.6910 -2.9778
  651MOL0     H89780   6.642  11.193   9.184 -0.4213  0.7363  0.5381
  651MOL0     H89781   6.667  11.257   8.886 -1.6072  0.4222  1.0428
  651MOL0     H89782   6.799  11.196   8.985  0.4406 -1.8722  0.5348
  651MOL0     H89783   6.556  11.055   8.889  0.3495 -3.0438 -0.8269
  651MOL0     H89784   6.610  11.001   9.044 -1.3740 -0.7003 -1.4029
  651MOL0     H89785   6.827  10.952   8.949  0.8760  0.3824 -0.9217
  651MOL0     H89786   6.688  10.866   8.879 -2.5085  0.8895 -2.8920
  651MOL0     H89787   6.968  11.085   8.771 -0.0432  1.7597  0.4336
  651MOL0     H89788   6.970  11.128   8.398  0.5642  2.0827 -0.9709
  651MOL0     H89789   7.065  11.102   8.545  1.1409  0.1522 -0.9187
  651MOL0     H89790   6.895  11.357   8.504  0.4852  0.9068 -0.8485
  651MOL0     H89791   7.026  11.325   8.624 -0.4882 -3.3327  0.2236
  651MOL0     H89792   7.173  11.306   8.408 -1.3669 -1.8057 -0.6564
  651MOL0     H89793   7.042  11.383   8.329 -2.0711 -1.2503  0.1347
  651MOL0     H89794   7.190  11.509   8.559  0.7100 -2.3527  0.0794
  651MOL0     H89795   7.240  11.519   8.398  0.6336  3.0548  1.7221
  651MOL0     H89796   7.000  11.525   8.692 -1.0051 -0.3793  0.9906
  651MOL0     H89797   6.770  11.643   8.928  1.4123  1.4741  0.9584
  651MOL0     H89798   6.910  11.543   8.896 -0.2169  1.4313 -0.1772
  651MOL0     H89799   6.748  11.477   8.870 -0.1522 -0.4041 -3.9873
  651MOL0     H89800   6.318  11.776   8.567  1.7855  0.3975 -0.2262
  651MOL0     H89801   6.103  11.839   8.591 -3.6114  1.7536  0.4323
  651MOL0     H89802   5.990  12.170   8.885 -1.0361  0.9586 -0.7692
  651MOL0     H89803   6.046  12.182   8.711  1.9221 -1.4867  1.5456
  651MOL0     H89804   5.753  12.159   8.783 -0.3988  1.7547  1.0329
  651MOL0     H89805   5.840  12.302   8.739 -1.4909 -0.1490  2.1387
  651MOL0     H89806   5.934  12.177   8.542  1.0663 -1.2547  2.0160
  651MOL0     H89807   5.775  12.248   8.519  0.1890 -1.7947 -3.7438
  651MOL0     H89808   5.663  12.041   8.544 -0.2738  0.0479 -0.0761
  651MOL0     H89809   5.813  11.961   8.608  0.2352 -1.7622 -2.1593
  651MOL0     H89810   5.796  12.058   8.332  1.7988 -1.1279 -0.4180
  651MOL0     H89811   5.932  11.988   8.409  0.1007 -0.4443  0.3225
  651MOL0     H89812   5.761  11.857   8.252 -1.3003  3.8725  0.2917
  651MOL0     H89813   5.660  11.854   8.384 -0.2907 -1.8754 -0.3285
  651MOL0     H89814   5.791  11.756   8.532 -1.6414 -3.0901 -0.1134
  651MOL0     H89815   5.934  11.723   8.417 -0.0773 -1.2050  0.5102
  651MOL0     H89816   5.642  11.611   8.390 -0.1946 -0.2883 -1.0769
  651MOL0     H89817   5.789  11.524   8.450  0.2355  0.1442 -0.8981
  651MOL0     H89818   6.212  12.085   8.926 -4.1645 -0.4256 -1.9196
  651MOL0     H89819   6.449  12.031   8.884 -0.4527 -0.3865  0.5581
  651MOL0     H89820   6.683  11.837   8.495  0.0417  0.7415  0.2848
  651MOL0     H89821   6.905  11.798   8.385 -1.0897  1.4209  0.1071
  651MOL0     H89822   6.438  11.475   9.670 -0.9359  1.8014 -1.7473
  651MOL0     H89823   6.445  11.475   9.920  0.6651 -0.3956 -1.3031
  651MOL0     H89824   6.875  11.689  10.255  1.9165 -1.9292 -0.5680
  651MOL0     H89825   6.900  11.734  10.494  1.1184  0.2301 -2.8953
  651MOL0     H89826   6.724  11.424  10.776 -0.2953  0.1700 -0.8449
  651MOL0     H89827   6.874  11.384  10.693  1.9363  2.4541 -1.7595
  651MOL0     H89828   6.825  11.538  10.952 -0.2114 -0.3737 -0.7371
  651MOL0     H89829   6.985  11.537  10.872 -1.4232  1.1770  0.0065
  651MOL0     H89830   6.853  11.269  10.972  0.2719  0.8679  1.6353
  651MOL0     H89831   6.988  11.289  10.869 -1.3515  2.2039 -2.1428
  651MOL0     H89832   7.101  11.443  11.050 -0.0039 -1.1600 -3.3733
  651MOL0     H89833   7.082  11.280  11.091  0.5559  0.0783 -0.3472
  651MOL0     H89834   6.796  11.492  11.335 -0.9449 -0.1007  0.1265
  651MOL0     H89835   6.645  11.394  10.574  2.0054 -2.4587 -0.1436
  651MOL0     H89836   6.605  11.282  10.230  1.8348 -1.4358  1.9542
  651MOL0     H89837   6.583  11.232  10.400 -3.6970  0.7858  2.5141
  651MOL0     H89838   6.484  11.363  10.344  0.8115  2.4715  0.3830
  652MOL0     O89839   9.814   9.242   4.696  0.0780  0.5338  0.5729
  652MOL0     C89840   9.839   9.184   4.593  0.6427  0.2358  1.0469
  652MOL0     O89841   9.850   9.048   4.571 -0.6235 -0.0414 -0.3120
  652MOL0     C89842   9.871   8.957   4.674  0.8554  0.0251  0.7754
  652MOL0     C89843   9.955   8.854   4.653 -0.2103  0.7008  0.3393
  652MOL0     C89844   9.975   8.753   4.753  0.6344  0.3330  0.2253
  652MOL0     C89845   9.893   8.769   4.876  0.3666 -0.4734  0.0543
  652MOL0     O89846   9.890   8.677   4.971 -0.7710 -0.2002  0.6257
  652MOL0     C89847   9.847   8.696   5.102  0.0541 -1.2942 -0.6410
  652MOL0     C89848   9.946   8.627   5.201  0.3314  0.0889 -0.1573
  652MOL0     C89849  10.060   8.727   5.213 -0.8461  0.2739 -0.1799
  652MOL0     C89850  10.162   8.701   5.323  0.2140 -0.1525 -0.3260
  652MOL0     C89851  10.111   8.725   5.462  0.8150  0.1401  0.2844
  652MOL0     C89852  10.216   8.688   5.564 -0.3857 -0.1487  0.6298
  652MOL0     C89853  10.250   8.541   5.581  0.4756 -0.4081 -0.5303
  652MOL0     C89854  10.358   8.512   5.690 -0.3956 -0.1579 -0.3763
  652MOL0     N89855  10.335   8.586   5.821 -0.3971  0.5604  0.3047
  652MOL0     C89856  10.300   8.516   5.938 -0.0204 -0.1465  0.3106
  652MOL0     C89857  10.348   8.593   6.036  0.6494  0.8557  0.4950
  652MOL0     C89858  10.312   8.576   6.187  0.1339 -0.0949 -0.0254
  652MOL0     C89859  10.442   8.570   6.270 -0.6433 -0.0485  0.0500
  652MOL0     C89860  10.412   8.517   6.420 -0.1768  0.1282  0.2657
  652MOL0     C89861  10.522   8.524   6.516 -0.4176 -0.7242  0.2448
  652MOL0     O89862  10.495   8.446   6.629 -0.1794 -0.3470 -0.9732
  652MOL0     C89863  10.602   8.421   6.715  1.0726  0.3870 -0.0784
  652MOL0     C89864  10.588   8.305   6.799 -0.8605 -0.6849 -0.1287
  652MOL0     C89865  10.682   8.279   6.898 -1.1465 -0.0571 -0.2957
  652MOL0     C89866  10.649   8.162   6.990  0.2750  0.3124  0.2825
  652MOL0     C89867  10.783   8.374   6.918  0.7492 -0.6174  1.3899
  652MOL0     C89868  10.889   8.373   7.020 -0.1986 -0.6001  0.1732
  652MOL0     O89869  10.917   8.485   7.087  0.3904  0.1305  0.7977
  652MOL0     C89870  11.008   8.496   7.188  0.4768 -0.8016 -0.1734
  652MOL0     C89871  11.042   8.623   7.231 -0.3384  0.0478 -0.7343
  652MOL0     C89872  11.149   8.644   7.321  0.4673  0.2549  0.3733
  652MOL0     C89873  11.228   8.531   7.366 -0.0611 -0.3289 -0.3112
  652MOL0     O89874  11.326   8.564   7.450  0.0435 -1.4843  0.6222
  652MOL0     C89875  11.416   8.462   7.482 -0.0493 -0.1129 -1.0852
  652MOL0     C89876  11.528   8.528   7.564 -0.2877  0.4725  0.2706
  652MOL0     C89877  11.486   8.519   7.708  0.3734 -0.4072 -0.0179
  652MOL0     C89878  11.570   8.608   7.791 -0.9262 -1.0075  0.9776
  652MOL0     C89879  11.547   8.598   7.942  0.1169  0.3883  0.3706
  652MOL0     C89880  11.636   8.686   8.028 -0.1626  0.3574 -0.8613
  652MOL0     C89881  11.620   8.669   8.185  0.7392 -0.0449 -0.2705
  652MOL0     C89882  11.707   8.763   8.270  0.8375  0.0616  0.0538
  652MOL0    Cl89883  11.729   8.922   8.225  0.3093  0.1968 -0.0665
  652MOL0     C89884  11.190   8.405   7.330 -1.0153  0.8397 -0.7502
  652MOL0     C89885  11.079   8.389   7.246  1.2966 -0.1360  0.0238
  652MOL0     O89886  10.928   8.260   7.041 -0.0267 -0.1316  0.3587
  652MOL0     C89887  10.810   8.472   6.820  0.0850 -0.0722  0.9434
  652MOL0     C89888  10.710   8.506   6.719 -0.2868 -0.2863  0.2255
  652MOL0     N89889  10.388   8.715   5.981  0.1862  0.1778  0.5261
  652MOL0     N89890  10.379   8.710   5.856 -0.3356 -0.5056 -0.4653
  652MOL0     C89891   9.806   8.880   4.895  0.0140 -0.2726  0.8327
  652MOL0     C89892   9.792   8.970   4.793 -0.6268 -0.2005  0.8138
  652MOL0     C89893   9.888   9.277   4.494  0.1310  0.8047 -0.3801
  652MOL0     C89894   9.991   9.367   4.532 -0.1923  0.0946 -0.5332
  652MOL0     C89895  10.063   9.439   4.438  0.2483 -0.7098 -0.2413
  652MOL0     C89896  10.036   9.415   4.306 -0.3489 -0.2910  0.7086
  652MOL0     O89897  10.105   9.466   4.201 -1.2262 -0.7671 -0.0320
  652MOL0     C89898  10.241   9.415   4.200  0.8254 -0.9014 -0.0235
  652MOL0     C89899  10.290   9.441   4.054  0.6505  0.0457 -0.3551
  652MOL0     C89900  10.190   9.374   3.950 -0.5219 -1.0014 -0.7393
  652MOL0     C89901  10.226   9.420   3.804  0.6704  0.5888 -0.2961
  652MOL0     C89902  10.368   9.386   3.770 -0.8284 -1.1566 -0.4850
  652MOL0     C89903  10.480   9.348   3.746  0.8169  0.4415 -0.6000
  652MOL0     C89904   9.929   9.336   4.264 -0.4268 -0.5302  0.1175
  652MOL0     C89905   9.851   9.265   4.356  0.5184 -0.2471 -0.8942
  652MOL0     C89906   9.735   9.187   4.301  1.0809 -0.0545  0.0975
  652MOL0     H89907  10.023   8.853   4.568  2.3844  1.2616  2.2834
  652MOL0     H89908  10.033   8.663   4.740  1.6713  0.8559  1.0858
  652MOL0     H89909   9.749   8.649   5.113 -1.2465  1.8890  3.9931
  652MOL0     H89910   9.841   8.802   5.128 -2.2355 -1.3588 -0.6578
  652MOL0     H89911   9.901   8.612   5.300 -0.0645  1.0199 -0.1852
  652MOL0     H89912   9.982   8.531   5.163  0.0426 -0.9216  1.9341
  652MOL0     H89913  10.111   8.732   5.117 -1.2985 -1.6109 -0.5590
  652MOL0     H89914  10.022   8.830   5.222 -0.5342  0.4275 -0.6135
  652MOL0     H89915  10.194   8.597   5.327 -2.0642 -0.8758  0.5429
  652MOL0     H89916  10.245   8.769   5.301 -2.0691  3.5867  1.6994
  652MOL0     H89917  10.016   8.675   5.483  0.4832  0.3012 -0.7597
  652MOL0     H89918  10.100   8.832   5.482 -0.8812 -0.2161  1.5813
  652MOL0     H89919  10.310   8.737   5.540  0.4041 -1.2509  1.3669
  652MOL0     H89920  10.179   8.724   5.661  0.8038  1.7483  0.4372
  652MOL0     H89921  10.288   8.494   5.490 -1.8199 -2.4431 -0.5675
  652MOL0     H89922  10.161   8.487   5.616 -0.7507  1.3411 -0.8111
  652MOL0     H89923  10.340   8.405   5.704  0.1824 -0.3283 -0.9200
  652MOL0     H89924  10.459   8.523   5.651 -0.3279  1.1281  0.1188
  652MOL0     H89925  10.248   8.421   5.946  1.9347 -1.1366  2.2199
  652MOL0     H89926  10.247   8.489   6.185  0.0133 -0.0568 -3.5582
  652MOL0     H89927  10.253   8.660   6.225  0.8052 -0.2630  1.4640
  652MOL0     H89928  10.519   8.513   6.217  1.2130  3.0058 -0.8251
  652MOL0     H89929  10.482   8.670   6.289 -0.4849 -0.3032  1.1398
  652MOL0     H89930  10.320   8.570   6.448 -1.4994 -1.9591  0.0871
  652MOL0     H89931  10.374   8.416   6.405  1.7898 -0.2818 -2.7989
  652MOL0     H89932  10.614   8.478   6.478  1.6429  1.7018  2.0107
  652MOL0     H89933  10.531   8.632   6.523 -1.0099 -0.6850  0.4161
  652MOL0     H89934  10.502   8.240   6.784 -0.7333 -0.8942  0.0362
  652MOL0     H89935  10.554   8.112   6.968  0.0572 -1.0338  3.6704
  652MOL0     H89936  10.630   8.178   7.097 -1.4779  1.6721 -0.1853
  652MOL0     H89937  10.726   8.084   6.981  0.1478  0.1905  0.2311
  652MOL0     H89938  10.993   8.715   7.198  0.4471  0.2915 -1.2546
  652MOL0     H89939  11.171   8.744   7.358  0.4139 -0.2264  1.7569
  652MOL0     H89940  11.372   8.388   7.549  2.2337  0.1020  0.7585
  652MOL0     H89941  11.461   8.413   7.395  1.7006  0.8868 -0.7835
  652MOL0     H89942  11.620   8.472   7.543 -1.5481 -0.4006 -3.6172
  652MOL0     H89943  11.545   8.632   7.535 -3.6405  2.4942  4.4104
  652MOL0     H89944  11.496   8.417   7.747  1.4635 -1.5616 -3.0415
  652MOL0     H89945  11.381   8.546   7.725  0.0389 -0.5898 -1.6751
  652MOL0     H89946  11.560   8.715   7.768 -3.4344 -1.1991  0.9248
  652MOL0     H89947  11.674   8.583   7.766 -0.7506  0.8777 -0.4167
  652MOL0     H89948  11.449   8.643   7.965 -0.3952  1.8253 -3.6989
  652MOL0     H89949  11.560   8.499   7.985  0.7943  0.4148  0.2251
  652MOL0     H89950  11.622   8.790   7.997  0.2149  0.0370 -2.1709
  652MOL0     H89951  11.740   8.667   7.998 -0.5271 -1.0603 -1.3096
  652MOL0     H89952  11.639   8.566   8.216  1.1565  0.9396  3.0630
  652MOL0     H89953  11.519   8.696   8.217  0.1040 -0.2926 -1.9654
  652MOL0     H89954  11.803   8.712   8.268  2.5131  3.0081 -0.0151
  652MOL0     H89955  11.656   8.762   8.367  2.5067 -0.3081  0.9482
  652MOL0     H89956  11.234   8.314   7.368  1.4015  2.8535  1.6264
  652MOL0     H89957  11.041   8.289   7.232 -5.1240  2.1363 -2.8264
  652MOL0     H89958  10.892   8.542   6.828 -1.3036  1.5672  1.5174
  652MOL0     H89959  10.720   8.600   6.665  0.3622 -0.7739 -0.5160
  652MOL0     H89960   9.735   8.899   4.974 -0.7204 -1.9196  0.6094
  652MOL0     H89961   9.722   9.053   4.803  0.7501  0.9475  1.3307
  652MOL0     H89962  10.018   9.372   4.637  0.5087 -1.2998 -0.6309
  652MOL0     H89963  10.144   9.509   4.453 -0.8549  1.0868 -2.1760
  652MOL0     H89964  10.315   9.458   4.269  0.7413 -1.4626  0.4202
  652MOL0     H89965  10.235   9.307   4.215 -1.1812 -0.5925  1.9282
  652MOL0     H89966  10.387   9.396   4.032 -0.0654 -1.6391 -0.1976
  652MOL0     H89967  10.299   9.548   4.032  0.7390  0.1531  0.1716
  652MOL0     H89968  10.186   9.266   3.968  0.1805 -0.6978  1.6604
  652MOL0     H89969  10.088   9.405   3.977 -0.9955 -2.6404 -0.5572
  652MOL0     H89970  10.209   9.527   3.788  1.0478  0.5713 -0.8642
  652MOL0     H89971  10.163   9.362   3.735  0.1210 -0.2254  0.8544
  652MOL0     H89972  10.578   9.309   3.734  0.9166 -0.6074  2.5574
  652MOL0     H89973   9.912   9.332   4.156 -1.7137  2.4066  0.1158
  652MOL0     H89974   9.702   9.243   4.212 -1.9690  1.2919  1.8937
  652MOL0     H89975   9.774   9.089   4.274  1.8627  0.0740  0.7165
  652MOL0     H89976   9.643   9.173   4.359  1.0058 -0.0633 -0.0212
  653MOL0     O89977   1.308   9.787  11.185 -0.5350  0.5391 -0.0514
  653MOL0     C89978   1.412   9.800  11.247  0.2308  0.4693 -0.3641
  653MOL0     O89979   1.427   9.788  11.380 -0.3790 -0.5298 -0.4996
  653MOL0     C89980   1.515   9.871  11.435 -0.7735  0.4326 -0.5198
  653MOL0     C89981   1.622   9.819  11.509  0.7625  0.2056  0.5359
  653MOL0     C89982   1.716   9.910  11.552  0.0960 -0.0196 -0.0041
  653MOL0     C89983   1.699  10.050  11.532 -0.9609  0.1179  0.0766
  653MOL0     O89984   1.792  10.151  11.579  0.5011 -0.4152 -0.2591
  653MOL0     C89985   1.920  10.113  11.618 -0.5681  0.0681 -1.5131
  653MOL0     C89986   2.010  10.231  11.645  0.7912  0.2564 -1.5848
  653MOL0     C89987   1.954  10.346  11.729  0.5716  0.1868  0.8450
  653MOL0     C89988   2.032  10.478  11.732 -0.2413  0.0106 -0.1072
  653MOL0     C89989   2.167  10.459  11.794 -0.1296 -0.2855 -0.0577
  653MOL0     C89990   2.248  10.589  11.829  0.0800  0.3502 -0.4012
  653MOL0     C89991   2.288  10.668  11.711  0.0682  0.2124  0.2469
  653MOL0     C89992   2.368  10.794  11.745  0.0806  0.0198  0.4550
  653MOL0     N89993   2.513  10.769  11.738 -0.3016 -0.1939  0.4832
  653MOL0     C89994   2.602  10.870  11.719 -0.2432  0.4867 -0.0232
  653MOL0     C89995   2.724  10.817  11.738  0.1693  0.3085 -0.8594
  653MOL0     C89996   2.853  10.883  11.701 -0.3177 -0.3710  0.9125
  653MOL0     C89997   2.862  11.007  11.782  0.7934 -0.0870 -0.2512
  653MOL0     C89998   2.908  10.975  11.924  0.6416 -0.3099 -1.1592
  653MOL0     C89999   2.918  11.102  12.005 -0.5717 -0.6089  0.0315
  653MOL0     O90000   2.785  11.139  12.033 -0.1017 -0.0814  0.0374
  653MOL0     C90001   2.745  11.135  12.159  0.1716  0.5405  0.1942
  653MOL0     C90002   2.613  11.182  12.160 -0.6938 -0.0386 -1.0402
  653MOL0     C90003   2.547  11.201  12.287 -0.8949 -0.1844  0.4464
  653MOL0     C90004   2.407  11.228  12.275 -0.5668 -0.2785 -0.4498
  653MOL0     C90005   2.619  11.178  12.410 -0.0828  0.5328  0.1750
  653MOL0     C90006   2.560  11.193  12.540 -0.6111  0.0587  0.5033
  653MOL0     O90007   2.647  11.200  12.646  0.0875  0.4629  0.4010
  653MOL0     C90008   2.599  11.174  12.777 -0.0423  0.9042  0.3180
  653MOL0     C90009   2.631  11.057  12.854 -0.9164 -1.0260 -0.3876
  653MOL0     C90010   2.587  11.039  12.983  0.6145 -0.0352  0.4584
  653MOL0     C90011   2.511  11.139  13.047  0.1894  0.2943 -0.4367
  653MOL0     O90012   2.462  11.129  13.174 -0.5886 -0.0217  0.0021
  653MOL0     C90013   2.430  11.009  13.240  0.0464  0.1316 -0.1059
  653MOL0     C90014   2.270  10.989  13.239 -0.5272 -0.9037 -0.5093
  653MOL0     C90015   2.230  10.893  13.356 -0.8173 -0.2366 -0.9034
  653MOL0     C90016   2.258  10.744  13.322 -0.2253  0.4595  0.5269
  653MOL0     C90017   2.206  10.630  13.414 -0.6903 -0.1881  0.6392
  653MOL0     C90018   2.070  10.658  13.473  0.4344 -0.0009  0.2152
  653MOL0     C90019   2.033  10.549  13.575  0.1444 -0.9557  0.7189
  653MOL0     C90020   1.885  10.524  13.590 -0.4312 -0.3326  0.6207
  653MOL0    Cl90021   1.802  10.686  13.611 -0.1522  0.3710 -0.1332
  653MOL0     C90022   2.491  11.260  12.983 -0.7812  1.2440  0.3186
  653MOL0     C90023   2.533  11.276  12.848  0.4156 -0.3278 -0.7912
  653MOL0     O90024   2.440  11.203  12.554 -0.1422 -0.3982  0.3911
  653MOL0     C90025   2.752  11.128  12.398 -0.1525 -0.0370  1.0406
  653MOL0     C90026   2.815  11.106  12.275  0.9221 -0.0394  0.2547
  653MOL0     N90027   2.709  10.679  11.770  0.1404 -0.6512  0.4793
  653MOL0     N90028   2.579  10.649  11.759  0.1641  0.6893  0.4651
  653MOL0     C90029   1.585  10.100  11.473  0.1964  1.0622  0.2279
  653MOL0     C90030   1.494  10.009  11.415  0.3338  0.2579  0.1959
  653MOL0     C90031   1.533   9.812  11.156  0.7131 -0.0200 -0.1574
  653MOL0     C90032   1.629   9.711  11.143  0.5732 -0.1162 -0.2370
  653MOL0     C90033   1.730   9.710  11.045 -0.3297  1.4079 -0.3415
  653MOL0     C90034   1.754   9.820  10.971 -0.0777 -0.6770  0.3999
  653MOL0     O90035   1.865   9.802  10.890 -0.1193 -0.7487 -0.3330
  653MOL0     C90036   1.903   9.910  10.801 -0.2840 -0.6633  0.5584
  653MOL0     C90037   2.011   9.867  10.699  0.6748 -0.0123 -0.2537
  653MOL0     C90038   2.104   9.970  10.624  0.3071  0.3207  0.0468
  653MOL0     C90039   2.214  10.023  10.719  0.3851 -0.1205  0.1211
  653MOL0     C90040   2.160  10.130  10.809  0.0745 -0.9909  0.5032
  653MOL0     C90041   2.115  10.228  10.866  0.6202  0.5853 -0.3595
  653MOL0     C90042   1.663   9.923  10.976  0.8992  0.6798  0.2046
  653MOL0     C90043   1.551   9.924  11.061  0.1391 -0.4294  0.1564
  653MOL0     C90044   1.455  10.037  11.049 -0.4459  0.2929 -0.7596
  653MOL0     H90045   1.621   9.712  11.528 -0.3505  0.2221  0.6472
  653MOL0     H90046   1.795   9.865  11.611 -0.1997 -1.6543 -0.8008
  653MOL0     H90047   1.962  10.050  11.538 -0.5644 -2.2017  0.1540
  653MOL0     H90048   1.916  10.049  11.707 -0.8894  1.9822 -0.1011
  653MOL0     H90049   2.102  10.197  11.693  1.3491  0.2588 -2.6397
  653MOL0     H90050   2.032  10.272  11.546 -1.3619  2.3839 -1.2711
  653MOL0     H90051   1.867  10.369  11.666  0.2201  0.4492  1.4223
  653MOL0     H90052   1.915  10.318  11.827 -0.5891  0.9736  0.6237
  653MOL0     H90053   2.043  10.519  11.631  2.1561 -1.4317 -0.5133
  653MOL0     H90054   1.965  10.540  11.791  0.6317  0.8284  0.0585
  653MOL0     H90055   2.225  10.395  11.727  0.6577  0.4088 -0.0564
  653MOL0     H90056   2.144  10.402  11.884 -0.8354  0.5174  0.2855
  653MOL0     H90057   2.193  10.650  11.901 -0.2064 -2.5119  2.0129
  653MOL0     H90058   2.338  10.554  11.881  1.8935  4.1470 -0.5953
  653MOL0     H90059   2.195  10.702  11.664  0.4268  2.5800  1.1381
  653MOL0     H90060   2.347  10.607  11.641 -0.2721  0.5011 -0.2957
  653MOL0     H90061   2.321  10.873  11.685 -0.6863 -3.0870 -3.4488
  653MOL0     H90062   2.352  10.831  11.847  1.3390  1.5547  0.1312
  653MOL0     H90063   2.572  10.965  11.676 -0.5347 -0.6153 -2.3961
  653MOL0     H90064   2.851  10.914  11.597  2.2782 -0.9080  0.6162
  653MOL0     H90065   2.951  10.837  11.721  1.3363  3.1818  1.8447
  653MOL0     H90066   2.928  11.072  11.724  3.3737 -2.4553 -0.2089
  653MOL0     H90067   2.764  11.054  11.785  1.8415  2.3467 -1.5262
  653MOL0     H90068   2.828  10.911  11.964 -0.0168  0.9570 -0.3989
  653MOL0     H90069   3.000  10.917  11.923 -0.6476 -2.6011  0.9014
  653MOL0     H90070   2.972  11.092  12.099 -0.7703 -0.0291  0.2087
  653MOL0     H90071   2.967  11.184  11.951  1.5400 -1.3065  0.7823
  653MOL0     H90072   2.572  11.202  12.062  0.4188  0.1643 -1.4823
  653MOL0     H90073   2.381  11.262  12.174  0.9535 -0.4259 -0.9096
  653MOL0     H90074   2.366  11.305  12.340 -2.5748  0.8200 -2.8352
  653MOL0     H90075   2.352  11.135  12.295 -0.3768 -1.3915 -4.2538
  653MOL0     H90076   2.695  10.985  12.803  0.0789  1.0287 -2.1466
  653MOL0     H90077   2.605  10.949  13.039 -2.1524  0.8863  3.0837
  653MOL0     H90078   2.478  10.919  13.201  0.9108  0.3510  0.4312
  653MOL0     H90079   2.455  11.023  13.345  1.4748 -2.0928 -0.0899
  653MOL0     H90080   2.222  11.086  13.252 -1.0076 -1.1006 -0.7774
  653MOL0     H90081   2.233  10.944  13.145  0.8998 -1.5991 -0.7692
  653MOL0     H90082   2.123  10.908  13.374 -0.1805  0.1659  3.7582
  653MOL0     H90083   2.273  10.915  13.454 -0.5677 -2.2273 -0.5227
  653MOL0     H90084   2.366  10.735  13.311  0.1905  3.3140  1.2761
  653MOL0     H90085   2.228  10.723  13.219 -0.1168  2.5963 -0.0050
  653MOL0     H90086   2.213  10.540  13.352 -1.3429 -0.0016  0.2862
  653MOL0     H90087   2.270  10.629  13.503  0.2132 -3.6217  0.1095
  653MOL0     H90088   1.985  10.655  13.404  0.6898 -0.8175 -0.0721
  653MOL0     H90089   2.065  10.755  13.524  0.4241  0.1678 -0.1047
  653MOL0     H90090   2.085  10.581  13.666  0.8944  0.2286 -0.0916
  653MOL0     H90091   2.082  10.460  13.533 -0.9489 -1.3491  0.2521
  653MOL0     H90092   1.871  10.450  13.670  1.6310 -2.1864 -0.6064
  653MOL0     H90093   1.845  10.473  13.502 -0.8538 -1.3625  1.3764
  653MOL0     H90094   2.446  11.341  13.040 -0.4263  1.3670  0.4249
  653MOL0     H90095   2.500  11.371  12.806 -1.5489 -0.1931  0.9102
  653MOL0     H90096   2.813  11.112  12.487 -1.0283  0.3883  1.7359
  653MOL0     H90097   2.917  11.068  12.276  0.6866 -1.0111 -2.4276
  653MOL0     H90098   1.564  10.205  11.455 -3.4360  0.3515 -0.4159
  653MOL0     H90099   1.403  10.047  11.368 -0.0537 -0.6381  0.1934
  653MOL0     H90100   1.626   9.628  11.213  0.1861 -2.4023 -2.7992
  653MOL0     H90101   1.799   9.626  11.042  1.4667  2.8415 -1.0107
  653MOL0     H90102   1.818   9.930  10.735 -1.1440 -1.8842  1.2544
  653MOL0     H90103   1.930   9.996  10.862 -1.5140 -0.9807  1.5862
  653MOL0     H90104   1.960   9.803  10.627 -1.2514 -3.3524  3.6919
  653MOL0     H90105   2.078   9.792  10.742  1.9584  1.1760 -0.0985
  653MOL0     H90106   2.153   9.916  10.543 -1.8589 -1.6521 -0.0369
  653MOL0     H90107   2.066  10.047  10.557  0.1432 -2.2914 -3.1124
  653MOL0     H90108   2.295  10.065  10.660  0.7873  0.5763  1.1426
  653MOL0     H90109   2.258   9.942  10.778  2.9182  1.5690  0.7220
  653MOL0     H90110   2.069  10.311  10.915 -1.4734 -1.3094  1.0555
  653MOL0     H90111   1.674  10.006  10.907  0.4324  0.4186 -0.1884
  653MOL0     H90112   1.473  10.107  11.132 -1.6798 -1.4728  1.0899
  653MOL0     H90113   1.473  10.096  10.959 -2.3537  0.5325 -1.0337
  653MOL0     H90114   1.347  10.019  11.057 -0.2682 -0.5876 -0.2477
  654MOL0     O90115   1.693   9.339  11.468 -0.0364 -0.0902  0.1989
  654MOL0     C90116   1.689   9.378  11.356  0.6100 -0.2544 -0.6138
  654MOL0     O90117   1.784   9.450  11.296 -0.5686 -0.0523 -0.7875
  654MOL0     C90118   1.885   9.517  11.373 -0.3941  1.4163  0.0403
  654MOL0     C90119   2.006   9.544  11.302  0.2548 -0.2339 -0.9470
  654MOL0     C90120   2.118   9.614  11.360  0.8767  0.5003  0.0157
  654MOL0     C90121   2.106   9.650  11.502 -0.0634  0.4535  0.0327
  654MOL0     O90122   2.199   9.743  11.551  0.1034 -0.1368 -0.4846
  654MOL0     C90123   2.165   9.832  11.655  0.5831  0.8023 -0.0220
  654MOL0     C90124   2.293   9.906  11.706 -0.4528 -0.1686  0.7936
  654MOL0     C90125   2.338  10.001  11.590 -0.4216  0.5022  0.5342
  654MOL0     C90126   2.466  10.078  11.627 -1.1760  0.5393  1.4654
  654MOL0     C90127   2.498  10.157  11.500 -0.3345 -0.1564 -0.0101
  654MOL0     C90128   2.616  10.251  11.508  0.2837 -0.2708 -0.7440
  654MOL0     C90129   2.639  10.327  11.382  0.7939 -0.4063  0.7332
  654MOL0     C90130   2.760  10.411  11.360  0.4681  0.3881 -0.3109
  654MOL0     N90131   2.726  10.539  11.305  0.6497  0.5243  0.2694
  654MOL0     C90132   2.676  10.643  11.377  0.8437 -0.6383  0.8858
  654MOL0     C90133   2.646  10.743  11.288 -0.4887 -0.0719  0.0885
  654MOL0     C90134   2.593  10.880  11.329  0.2928 -0.0274 -0.2740
  654MOL0     C90135   2.443  10.882  11.313 -0.4016  0.6201  0.3122
  654MOL0     C90136   2.391  11.029  11.301  0.0850  0.9145 -0.0251
  654MOL0     C90137   2.260  11.043  11.231  0.4935 -0.5512 -0.9486
  654MOL0     O90138   2.233  11.185  11.223  0.0030  0.4277  0.5183
  654MOL0     C90139   2.114  11.233  11.166  0.5978  0.1395 -0.2537
  654MOL0     C90140   2.011  11.160  11.103 -0.1175  0.1739  0.0151
  654MOL0     C90141   1.910  11.217  11.027  0.4553 -0.5576 -0.3126
  654MOL0     C90142   1.829  11.112  10.949 -0.1892  0.2788  0.5687
  654MOL0     C90143   1.888  11.361  11.042 -0.6781  0.2338  0.1785
  654MOL0     C90144   1.780  11.434  10.976  0.2201 -0.6582  0.5905
  654MOL0     O90145   1.687  11.362  10.908  0.7104  0.5188  0.0486
  654MOL0     C90146   1.591  11.412  10.820  0.3103 -0.3616  0.0148
  654MOL0     C90147   1.458  11.362  10.825 -0.2874  0.4394  0.7636
  654MOL0     C90148   1.367  11.403  10.730 -0.8880 -0.0743  0.6725
  654MOL0     C90149   1.391  11.514  10.646 -0.0493  0.2473 -0.2168
  654MOL0     O90150   1.314  11.575  10.539 -0.6301  0.0793 -0.8057
  654MOL0     C90151   1.183  11.521  10.515  0.0751  0.8299  0.1681
  654MOL0     C90152   1.081  11.633  10.488  0.4501  0.6665 -0.7317
  654MOL0     C90153   1.125  11.711  10.362 -0.2981 -0.0468 -0.3086
  654MOL0     C90154   1.048  11.848  10.342 -0.9144  0.1729  0.2809
  654MOL0     C90155   1.078  11.895  10.197 -0.1589 -0.8642 -0.8055
  654MOL0     C90156   1.052  12.047  10.182 -0.9115 -0.3385  0.2649
  654MOL0     C90157   1.043  12.090  10.033  0.4622  0.3043  0.0407
  654MOL0     C90158   1.042  12.240  10.016  1.0076  0.1429 -0.4387
  654MOL0    Cl90159   1.204  12.301  10.007 -0.1936  0.2949 -0.0895
  654MOL0     C90160   1.518  11.577  10.658  0.2294  0.4009 -0.0437
  654MOL0     C90161   1.614  11.524  10.733 -0.8868 -0.0145 -0.2128
  654MOL0     O90162   1.777  11.556  10.981 -0.2030  0.7097 -0.8227
  654MOL0     C90163   1.985  11.437  11.107  0.3267 -0.4420 -0.1720
  654MOL0     C90164   2.095  11.374  11.165  0.0819  0.2908 -0.9114
  654MOL0     N90165   2.676  10.694  11.165 -0.0060 -0.9543  0.0888
  654MOL0     N90166   2.723  10.575  11.175  0.2212 -0.0073 -0.2080
  654MOL0     C90167   1.989   9.609  11.574  0.0440  0.1338  0.6761
  654MOL0     C90168   1.877   9.560  11.503  0.0965  0.0843 -0.5192
  654MOL0     C90169   1.577   9.341  11.266 -0.5358  0.5763 -0.6528
  654MOL0     C90170   1.615   9.290  11.140 -0.1612 -0.1164  0.8404
  654MOL0     C90171   1.513   9.240  11.057  0.3338  0.2050  0.3999
  654MOL0     C90172   1.379   9.243  11.089  0.4740  0.3753 -0.0335
  654MOL0     O90173   1.296   9.197  10.986  0.6445 -1.0033 -0.2962
  654MOL0     C90174   1.162   9.171  11.024  0.6904  0.2795 -0.3267
  654MOL0     C90175   1.105   9.059  10.935  0.0870  0.1863 -0.2553
  654MOL0     C90176   1.129   8.903  10.955 -0.5247 -1.2803 -0.1397
  654MOL0     C90177   1.279   8.870  10.939  0.7085  1.0071  0.2634
  654MOL0     C90178   1.291   8.739  10.995 -0.8379  0.7387 -0.7264
  654MOL0     C90179   1.298   8.629  11.039  0.3204 -0.2998 -0.8389
  654MOL0     C90180   1.343   9.300  11.205  0.9923  0.1052 -0.3617
  654MOL0     C90181   1.434   9.353  11.299  0.1421 -0.2210 -0.5574
  654MOL0     C90182   1.387   9.418  11.431 -0.0063 -0.5652 -0.4118
  654MOL0     H90183   2.019   9.526  11.196 -0.9750 -1.9338 -0.8465
  654MOL0     H90184   2.214   9.627  11.313  2.2393 -4.2282  0.9480
  654MOL0     H90185   2.137   9.772  11.741  1.0931  0.6193  0.0201
  654MOL0     H90186   2.090   9.906  11.627  0.4670  0.9214  0.5909
  654MOL0     H90187   2.274   9.952  11.803 -0.4120 -0.8210  1.1171
  654MOL0     H90188   2.380   9.840  11.713 -1.2576 -1.4995 -0.9090
  654MOL0     H90189   2.351   9.935  11.503 -2.3271  0.8940 -0.0980
  654MOL0     H90190   2.260  10.077  11.576  1.0848  2.2606  1.1849
  654MOL0     H90191   2.459  10.151  11.708  2.1255  1.9094  0.6938
  654MOL0     H90192   2.557  10.021  11.644  1.5815  4.0486 -0.1739
  654MOL0     H90193   2.407  10.209  11.467 -2.1178 -2.6960  0.5896
  654MOL0     H90194   2.515  10.084  11.420 -1.6079 -0.6845  0.1701
  654MOL0     H90195   2.613  10.324  11.589 -0.1908  1.2363 -2.0834
  654MOL0     H90196   2.708  10.193  11.525 -0.2076 -0.8889 -0.1221
  654MOL0     H90197   2.551  10.390  11.370 -0.0015 -1.7261 -0.5773
  654MOL0     H90198   2.636  10.258  11.297  0.3057  0.2855  0.1874
  654MOL0     H90199   2.815  10.414  11.454 -0.8822 -2.1326  0.6539
  654MOL0     H90200   2.823  10.363  11.285  1.4387  2.3972 -0.8573
  654MOL0     H90201   2.668  10.650  11.485  3.7125 -2.4941  1.3271
  654MOL0     H90202   2.639  10.959  11.268  3.5962  0.3198  2.3307
  654MOL0     H90203   2.634  10.902  11.428  1.3738 -0.6871 -0.5591
  654MOL0     H90204   2.426  10.828  11.219  0.6687 -2.2241  1.6259
  654MOL0     H90205   2.396  10.826  11.394  0.0695  0.5270  0.5242
  654MOL0     H90206   2.371  11.055  11.406 -0.2911 -1.4805  0.5645
  654MOL0     H90207   2.462  11.097  11.254  1.3445  0.3927  1.0453
  654MOL0     H90208   2.252  10.980  11.142  1.3111 -0.6146 -0.9878
  654MOL0     H90209   2.183  11.005  11.299 -1.4623  0.6542 -2.3925
  654MOL0     H90210   2.012  11.052  11.108 -4.9803 -0.1652 -0.9825
  654MOL0     H90211   1.819  11.022  11.010  1.6985 -0.4780 -0.1403
  654MOL0     H90212   1.883  11.080  10.859  1.0573 -1.1333  1.7586
  654MOL0     H90213   1.725  11.145  10.939 -0.5682 -0.6101  1.4308
  654MOL0     H90214   1.441  11.292  10.905 -2.6193  1.1260  0.9498
  654MOL0     H90215   1.271  11.351  10.731  0.0187 -1.8998 -0.4728
  654MOL0     H90216   1.198  11.449  10.434  0.5149  1.7544 -0.5914
  654MOL0     H90217   1.143  11.465  10.599  0.1227  0.9208  0.2507
  654MOL0     H90218   0.984  11.592  10.456  1.4716 -0.8226 -2.1184
  654MOL0     H90219   1.068  11.699  10.574 -0.9320 -0.7822  0.2355
  654MOL0     H90220   1.098  11.649  10.276  2.6393 -1.2699 -0.4620
  654MOL0     H90221   1.234  11.717  10.366 -0.0864 -2.5308  4.5425
  654MOL0     H90222   1.098  11.926  10.400  1.5923 -1.1656  0.0500
  654MOL0     H90223   0.941  11.841  10.365 -1.0265 -4.1681 -0.7476
  654MOL0     H90224   1.184  11.876  10.175 -0.7942 -1.5951 -3.7758
  654MOL0     H90225   1.020  11.843  10.120 -0.3525 -0.7646 -0.7281
  654MOL0     H90226   1.134  12.095  10.235 -0.0256  0.2371 -1.5364
  654MOL0     H90227   0.962  12.077  10.236 -0.3185  0.9168  0.5889
  654MOL0     H90228   0.955  12.044   9.986  0.1877  3.0083 -2.3325
  654MOL0     H90229   1.135  12.058   9.984  0.6044  2.0147 -0.8737
  654MOL0     H90230   0.997  12.293  10.100  1.3818 -0.1131 -0.0673
  654MOL0     H90231   0.986  12.254   9.923  0.2868 -0.8222 -0.1654
  654MOL0     H90232   1.546  11.663  10.598 -0.5694 -1.3425 -3.1576
  654MOL0     H90233   1.702  11.588  10.725  0.5799 -1.9193  0.1047
  654MOL0     H90234   1.985  11.546  11.102  0.2963 -0.4854 -2.6469
  654MOL0     H90235   2.172  11.443  11.199 -0.1107  0.8316 -1.5634
  654MOL0     H90236   1.980   9.635  11.679  2.0752  0.7941  0.7258
  654MOL0     H90237   1.778   9.559  11.548 -0.7008  0.2955 -2.1970
  654MOL0     H90238   1.716   9.281  11.101 -0.2698  3.1153 -0.4895
  654MOL0     H90239   1.539   9.206  10.957 -2.5647 -3.3194  0.6191
  654MOL0     H90240   1.137   9.151  11.129  0.5159 -1.2046 -0.6216
  654MOL0     H90241   1.089   9.249  11.000 -1.7641 -1.4247  1.0743
  654MOL0     H90242   1.138   9.083  10.834  3.6500  0.5330  0.8775
  654MOL0     H90243   0.996   9.063  10.944 -0.0299 -0.8275 -1.0006
  654MOL0     H90244   1.084   8.875  11.051 -1.1099  3.4373  1.1790
  654MOL0     H90245   1.078   8.832  10.888 -1.1885  0.3839 -1.4761
  654MOL0     H90246   1.337   8.933  11.007  3.7335 -1.1956 -0.0786
  654MOL0     H90247   1.304   8.884  10.834 -0.6658 -0.1450 -0.2592
  654MOL0     H90248   1.317   8.532  11.082  0.4846 -0.1294 -0.5240
  654MOL0     H90249   1.236   9.310  11.225  0.8263 -0.6008 -0.8537
  654MOL0     H90250   1.455   9.386  11.510  0.5664 -1.2425 -1.1515
  654MOL0     H90251   1.389   9.527  11.430  0.1087 -0.5450  0.9864
  654MOL0     H90252   1.289   9.377  11.457 -0.2688 -2.6695 -3.9980
  655MOL0     O90253   7.539  10.497  10.782  0.8774 -0.7090 -0.4292
  655MOL0     C90254   7.462  10.399  10.800  0.8505 -0.3870 -0.1810
  655MOL0     O90255   7.325  10.418  10.818 -0.4341 -0.6489 -0.2814
  655MOL0     C90256   7.280  10.541  10.804  0.3860  0.1818 -0.3054
  655MOL0     C90257   7.274  10.603  10.678 -0.0677 -0.1411 -0.0242
  655MOL0     C90258   7.211  10.729  10.668 -0.1817 -0.6527 -0.5618
  655MOL0     C90259   7.156  10.775  10.786  0.2913 -0.2930  0.6176
  655MOL0     O90260   7.101  10.902  10.798 -0.1586 -0.2762  0.6005
  655MOL0     C90261   7.058  10.978  10.681  0.1357 -0.5419  0.0627
  655MOL0     C90262   6.974  10.882  10.586  0.7052  0.4439  0.5102
  655MOL0     C90263   6.888  10.962  10.477 -0.3013  0.9898 -0.7823
  655MOL0     C90264   6.953  10.998  10.350 -0.2377 -0.4632 -0.0958
  655MOL0     C90265   7.064  11.108  10.368 -0.1731  0.5673 -0.1478
  655MOL0     C90266   6.995  11.233  10.436 -0.3582 -0.1971  0.4071
  655MOL0     C90267   7.071  11.364  10.396 -0.8209  0.5414 -0.1711
  655MOL0     C90268   7.209  11.363  10.464 -0.8982 -0.1630 -0.4573
  655MOL0     N90269   7.274  11.490  10.439  0.3705 -0.5111 -0.5560
  655MOL0     C90270   7.350  11.516  10.322  0.4976 -0.7088  0.6495
  655MOL0     C90271   7.405  11.641  10.344 -0.1428 -0.3607  0.9352
  655MOL0     C90272   7.488  11.711  10.238  0.3439 -0.1165 -0.3138
  655MOL0     C90273   7.449  11.858  10.222  0.5682 -0.5737 -1.0483
  655MOL0     C90274   7.307  11.876  10.167  0.0667 -1.1482 -0.5431
  655MOL0     C90275   7.282  12.025  10.138 -0.2016 -0.8515 -0.4162
  655MOL0     O90276   7.360  12.075  10.024 -0.1591  0.0323 -0.8670
  655MOL0     C90277   7.377  12.214  10.007 -0.1389  0.7820  0.4035
  655MOL0     C90278   7.476  12.246   9.916  0.5857  0.6623 -0.5369
  655MOL0     C90279   7.505  12.379   9.870 -0.1895 -1.3450  0.0876
  655MOL0     C90280   7.632  12.405   9.793  0.1081  0.0160 -0.1581
  655MOL0     C90281   7.414  12.480   9.902 -0.4570 -0.3820  0.5909
  655MOL0     C90282   7.431  12.628   9.882 -0.6693  0.3065 -0.0967
  655MOL0     O90283   7.507  12.660   9.777 -0.3392 -0.5599  0.1509
  655MOL0     C90284   7.500  12.794   9.737  0.2457 -1.0416  0.7730
  655MOL0     C90285   7.489  12.822   9.596 -0.3127  0.2075 -0.1951
  655MOL0     C90286   7.495  12.946   9.547 -0.1490 -0.0626  0.6970
  655MOL0     C90287   7.506  13.047   9.636  0.1473  0.1187  0.0135
  655MOL0     O90288   7.493  13.171   9.585  0.0656 -0.4997  0.4425
  655MOL0     C90289   7.451  13.286   9.659 -0.2591  0.7854  1.0005
  655MOL0     C90290   7.462  13.407   9.571  0.1703  0.3853 -0.0677
  655MOL0     C90291   7.583  13.400   9.471  0.0125 -0.0222 -0.9445
  655MOL0     C90292   7.717  13.411   9.543 -0.0299 -0.3098  0.4184
  655MOL0     C90293   7.835  13.410   9.447 -0.4285 -0.4931  0.5156
  655MOL0     C90294   7.979  13.395   9.510  0.7425  0.4248  0.5562
  655MOL0     C90295   8.090  13.377   9.394  0.0905 -0.4989 -0.0883
  655MOL0     C90296   8.223  13.345   9.468 -1.0636 -0.5001  0.6317
  655MOL0    Cl90297   8.259  13.438   9.621  0.1908  0.5692  0.2419
  655MOL0     C90298   7.527  13.023   9.773  0.2468  1.1908  0.0462
  655MOL0     C90299   7.529  12.894   9.829  0.0214  0.6271 -0.8228
  655MOL0     O90300   7.372  12.704   9.957  0.1788 -0.3670 -0.2683
  655MOL0     C90301   7.314  12.446   9.998 -0.3409 -0.6344 -0.4360
  655MOL0     C90302   7.292  12.314  10.051 -0.6955 -0.6805 -0.0184
  655MOL0     N90303   7.354  11.694  10.463 -0.7276  0.3453 -0.5080
  655MOL0     N90304   7.279  11.598  10.519  0.6473  1.1017  0.6068
  655MOL0     C90305   7.150  10.711  10.908  0.1433  0.5503 -0.0957
  655MOL0     C90306   7.225  10.590  10.920  0.6069 -0.3683  1.0387
  655MOL0     C90307   7.501  10.264  10.804  1.4065  0.3991 -0.5568
  655MOL0     C90308   7.450  10.185  10.913 -0.4342 -0.6061  0.4626
  655MOL0     C90309   7.472  10.052  10.924 -0.1747  0.4675 -0.6246
  655MOL0     C90310   7.550   9.986  10.823  0.4555  0.0570 -0.1928
  655MOL0     O90311   7.581   9.855  10.816 -0.0691  0.3185  1.1640
  655MOL0     C90312   7.536   9.766  10.917 -0.6205 -0.6182  0.4169
  655MOL0     C90313   7.585   9.630  10.871 -0.0294 -0.5931 -0.5342
  655MOL0     C90314   7.550   9.527  10.980 -1.1795  0.3137  0.8354
  655MOL0     C90315   7.521   9.393  10.912  0.5426  0.1306  0.3245
  655MOL0     C90316   7.647   9.340  10.848  0.2069 -1.3510 -0.4263
  655MOL0     C90317   7.750   9.303  10.788  0.0929 -0.9412 -0.0698
  655MOL0     C90318   7.602  10.053  10.714 -1.2653  0.0981  0.2650
  655MOL0     C90319   7.579  10.195  10.706 -0.3555 -0.2651 -0.4800
  655MOL0     C90320   7.627  10.268  10.584 -0.6064 -0.5784  0.6090
  655MOL0     H90321   7.321  10.563  10.588  1.6193  1.6563 -0.0059
  655MOL0     H90322   7.229  10.780  10.574  2.0652 -1.6268 -0.7482
  655MOL0     H90323   7.145  11.027  10.635 -1.2774  4.4778  2.0033
  655MOL0     H90324   6.996  11.067  10.698 -1.5321 -1.5392 -0.5879
  655MOL0     H90325   7.021  10.817  10.512 -3.4040  0.6956 -2.7085
  655MOL0     H90326   6.904  10.825  10.648 -1.3723  0.9314 -1.2568
  655MOL0     H90327   6.796  10.908  10.454 -0.3352  1.0777 -0.8520
  655MOL0     H90328   6.844  11.049  10.527 -0.5719  1.4802 -1.8489
  655MOL0     H90329   6.994  10.910  10.299 -0.0118  0.0612 -0.8401
  655MOL0     H90330   6.881  11.039  10.278  0.7493  1.2115 -0.1933
  655MOL0     H90331   7.110  11.122  10.270  1.3615 -3.9994 -0.3003
  655MOL0     H90332   7.137  11.072  10.441 -0.5088 -4.7770 -2.0246
  655MOL0     H90333   6.897  11.241  10.389  1.2041  0.9835 -2.9060
  655MOL0     H90334   6.991  11.222  10.545  0.5979 -0.4222  0.4297
  655MOL0     H90335   7.014  11.453  10.423  2.3365  1.5549  4.2347
  655MOL0     H90336   7.089  11.362  10.288  1.3986 -1.6931  0.1440
  655MOL0     H90337   7.195  11.347  10.571 -1.1262  2.2805 -0.0549
  655MOL0     H90338   7.261  11.290  10.401  1.6319  1.5016 -0.4437
  655MOL0     H90339   7.355  11.463  10.227  5.9019  3.4531 -1.9488
  655MOL0     H90340   7.494  11.661  10.141  0.4335  0.8335 -0.8019
  655MOL0     H90341   7.591  11.713  10.276 -0.1005  1.3489  0.8798
  655MOL0     H90342   7.443  11.908  10.319 -0.5740  0.2004 -1.4955
  655MOL0     H90343   7.532  11.898  10.162  0.8932 -2.8257 -2.2083
  655MOL0     H90344   7.310  11.817  10.075  3.1201 -0.7817 -0.7629
  655MOL0     H90345   7.228  11.839  10.234  0.3311 -0.1790  0.3203
  655MOL0     H90346   7.180  12.041  10.103 -0.2333  4.1087  1.2297
  655MOL0     H90347   7.299  12.081  10.230 -0.1913 -2.1344  0.3859
  655MOL0     H90348   7.539  12.163   9.885 -0.8449 -0.7606  0.2129
  655MOL0     H90349   7.702  12.470   9.847  1.2775 -0.2173 -1.3196
  655MOL0     H90350   7.603  12.455   9.700  0.3670  0.9870  0.2672
  655MOL0     H90351   7.687  12.311   9.778 -1.6366 -0.8800 -1.2469
  655MOL0     H90352   7.477  12.742   9.523  1.7754 -1.0328  0.7307
  655MOL0     H90353   7.493  12.960   9.439 -2.7870  1.2978  0.8397
  655MOL0     H90354   7.352  13.260   9.699 -0.6305  1.8453  0.7939
  655MOL0     H90355   7.521  13.300   9.742  0.1935  2.1123  0.4262
  655MOL0     H90356   7.374  13.429   9.509  0.5821  3.8205  0.3407
  655MOL0     H90357   7.484  13.482   9.648  0.9164 -1.1378  1.2605
  655MOL0     H90358   7.577  13.488   9.406 -0.5593  0.9478  0.3532
  655MOL0     H90359   7.588  13.307   9.415  2.4194  0.1135 -1.0858
  655MOL0     H90360   7.716  13.323   9.608 -1.6615 -1.0952 -0.6120
  655MOL0     H90361   7.713  13.499   9.608 -2.2209 -0.4636  0.5818
  655MOL0     H90362   7.826  13.329   9.374 -1.0497  1.7714 -2.0732
  655MOL0     H90363   7.828  13.501   9.386  3.0259 -0.8064 -0.5478
  655MOL0     H90364   7.974  13.306   9.574  1.0733  0.8115  1.1314
  655MOL0     H90365   7.993  13.487   9.569 -0.7060 -0.1039  1.7921
  655MOL0     H90366   8.095  13.472   9.342  1.3580 -0.6424 -0.2584
  655MOL0     H90367   8.067  13.309   9.312 -0.6776 -2.4284  1.6251
  655MOL0     H90368   8.300  13.377   9.398  1.8571 -4.0743  1.9030
  655MOL0     H90369   8.232  13.237   9.481 -0.9357 -0.4564  0.9199
  655MOL0     H90370   7.549  13.109   9.837  0.1450 -0.4995  2.4866
  655MOL0     H90371   7.555  12.869   9.931  0.9269 -0.2285 -1.2459
  655MOL0     H90372   7.260  12.531  10.038  1.0588 -0.2975  0.8070
  655MOL0     H90373   7.202  12.303  10.110 -1.4562 -0.1950 -1.0568
  655MOL0     H90374   7.095  10.761  10.987  1.5731 -0.7480  1.8313
  655MOL0     H90375   7.222  10.523  11.006  1.7716 -0.7492  0.8063
  655MOL0     H90376   7.407  10.232  11.001  0.9404 -0.8522  1.3090
  655MOL0     H90377   7.438   9.995  11.009  2.4532 -1.4670 -0.7789
  655MOL0     H90378   7.577   9.795  11.014 -0.1158 -1.2992  0.4131
  655MOL0     H90379   7.429   9.750  10.934 -1.0237  0.4692 -0.8908
  655MOL0     H90380   7.690   9.623  10.839  0.1133  3.6676 -1.5172
  655MOL0     H90381   7.533   9.600  10.780  0.2424 -1.2074 -0.4965
  655MOL0     H90382   7.630   9.520  11.054  0.2926 -0.9445 -0.8213
  655MOL0     H90383   7.452   9.551  11.025 -0.9373 -0.5595  1.8726
  655MOL0     H90384   7.442   9.394  10.837  0.8891 -2.2385 -0.1390
  655MOL0     H90385   7.474   9.328  10.986 -1.2460  0.4457 -0.4800
  655MOL0     H90386   7.829   9.264  10.727  1.9158  3.5808 -1.0060
  655MOL0     H90387   7.650  10.007  10.628 -1.7118  1.7167 -0.8994
  655MOL0     H90388   7.641  10.203  10.497  0.3934  2.4906 -1.7398
  655MOL0     H90389   7.580  10.362  10.553  0.6646 -0.2200 -0.3604
  655MOL0     H90390   7.727  10.297  10.618 -0.2206  1.6199 -1.9638
  656MOL0     O90391   2.681   7.723   2.688  0.1138  0.4727  0.3022
  656MOL0     C90392   2.704   7.843   2.691 -0.4466  0.1905 -0.1930
  656MOL0     O90393   2.669   7.939   2.599 -0.1147  0.0701 -0.0483
  656MOL0     C90394   2.598   7.914   2.484 -0.1793  0.7303 -0.6421
  656MOL0     C90395   2.630   7.971   2.364  1.0460 -0.2420  0.1899
  656MOL0     C90396   2.561   7.933   2.247 -0.0290 -0.0472 -0.4556
  656MOL0     C90397   2.442   7.856   2.254  0.1042 -0.0518  0.4174
  656MOL0     O90398   2.361   7.834   2.151  1.0557  0.3060  0.5530
  656MOL0     C90399   2.314   7.948   2.077 -0.2595 -0.2059  0.9471
  656MOL0     C90400   2.319   7.919   1.926  1.2333 -0.0294 -0.2905
  656MOL0     C90401   2.216   7.812   1.910 -0.3462 -0.2823 -0.4830
  656MOL0     C90402   2.177   7.773   1.767  0.4556  0.2832  0.1471
  656MOL0     C90403   2.071   7.854   1.697  0.0613 -0.0195 -0.2589
  656MOL0     C90404   2.033   7.810   1.552  0.1040 -0.3268  0.1645
  656MOL0     C90405   2.138   7.812   1.444 -0.4553 -0.4142  1.2264
  656MOL0     C90406   2.093   7.760   1.308 -0.4552  0.4042  0.3775
  656MOL0     N90407   2.029   7.864   1.230 -0.0703 -0.0996 -0.7319
  656MOL0     C90408   1.897   7.896   1.246  0.1202  1.0389  1.4450
  656MOL0     C90409   1.882   7.997   1.162 -0.3809  0.6191  0.6987
  656MOL0     C90410   1.759   8.064   1.142 -1.0616 -0.1570 -0.0395
  656MOL0     C90411   1.747   8.177   1.241  0.0945 -0.9677  0.4909
  656MOL0     C90412   1.844   8.293   1.202 -0.8249 -0.1675  0.0979
  656MOL0     C90413   1.831   8.408   1.295  0.1542  0.7748 -0.7277
  656MOL0     O90414   1.724   8.486   1.232  0.1793 -0.3977 -0.3421
  656MOL0     C90415   1.698   8.607   1.292  0.5173 -0.4912 -0.8226
  656MOL0     C90416   1.724   8.656   1.423 -0.5343  1.3577  0.3466
  656MOL0     C90417   1.676   8.785   1.460  0.4166  0.2540 -0.7820
  656MOL0     C90418   1.695   8.824   1.600  0.1284 -0.2166 -1.2806
  656MOL0     C90419   1.606   8.868   1.370 -0.2987  0.3806  0.4344
  656MOL0     C90420   1.517   8.987   1.404 -1.2100  0.0652  0.0269
  656MOL0     O90421   1.420   9.026   1.312 -0.6472  0.0642  0.2384
  656MOL0     C90422   1.356   9.148   1.354 -1.2547 -0.6537  0.7889
  656MOL0     C90423   1.285   9.151   1.474 -0.2542  0.3682 -0.3882
  656MOL0     C90424   1.216   9.275   1.509 -0.5148  0.4572  0.2345
  656MOL0     C90425   1.219   9.386   1.426 -1.2068  0.2263  0.0515
  656MOL0     O90426   1.133   9.488   1.460 -0.6837  0.1766  0.8382
  656MOL0     C90427   1.137   9.617   1.411 -0.1387 -0.7417  0.8647
  656MOL0     C90428   1.091   9.722   1.501 -0.0380  0.2363 -0.8320
  656MOL0     C90429   0.971   9.697   1.597 -1.1968  0.2966 -0.4088
  656MOL0     C90430   0.983   9.595   1.709  0.6038 -0.0828  0.4845
  656MOL0     C90431   0.856   9.588   1.803  1.2251  0.0517 -0.1570
  656MOL0     C90432   0.853   9.459   1.883 -0.8858 -0.5597  0.2706
  656MOL0     C90433   0.737   9.425   1.977  0.1848 -0.0732 -0.5446
  656MOL0     C90434   0.716   9.544   2.081  0.6860  0.8904 -0.1985
  656MOL0    Cl90435   0.621   9.506   2.223  0.3248 -0.2835 -0.1157
  656MOL0     C90436   1.304   9.381   1.310 -1.2627 -0.6108 -0.0411
  656MOL0     C90437   1.379   9.266   1.281 -0.0816  0.1366  0.1222
  656MOL0     O90438   1.550   9.053   1.507  0.4412  0.3834 -0.1761
  656MOL0     C90439   1.580   8.809   1.252 -0.5603  0.4324  0.8585
  656MOL0     C90440   1.627   8.684   1.213  0.3795 -0.1030  0.3700
  656MOL0     N90441   1.993   8.031   1.094 -0.4266 -0.1076 -0.0945
  656MOL0     N90442   2.085   7.955   1.143  0.3415  0.6489  1.1735
  656MOL0     C90443   2.405   7.806   2.378 -0.3274  0.0472 -0.5831
  656MOL0     C90444   2.481   7.829   2.490 -0.9409  0.1047 -0.2606
  656MOL0     C90445   2.790   7.882   2.810  0.5007 -0.2252  0.0285
  656MOL0     C90446   2.884   7.987   2.795 -0.3473  0.0946 -0.5743
  656MOL0     C90447   2.968   8.027   2.901 -0.5064 -0.6813  0.2580
  656MOL0     C90448   2.953   7.968   3.031 -0.4711  0.2682  0.1531
  656MOL0     O90449   3.044   8.016   3.140  0.2680  0.5249  0.5082
  656MOL0     C90450   3.047   7.950   3.266  0.9282 -0.4051 -0.9511
  656MOL0     C90451   3.159   8.018   3.348 -0.3035  0.0018  0.3734
  656MOL0     C90452   3.136   8.004   3.494 -0.9763  0.3250  0.7930
  656MOL0     C90453   3.216   8.096   3.583 -0.5595  0.3661 -0.8046
  656MOL0     C90454   3.365   8.091   3.579  0.6243  0.1510  0.6027
  656MOL0     C90455   3.486   8.079   3.574  0.0256  0.4007  0.0478
  656MOL0     C90456   2.858   7.873   3.041 -0.0225 -0.2040  0.1414
  656MOL0     C90457   2.771   7.832   2.938 -0.5612  0.9877 -0.5613
  656MOL0     C90458   2.665   7.727   2.979 -0.0213 -0.8917  0.3435
  656MOL0     H90459   2.710   8.044   2.370 -0.8419  1.8821  4.6456
  656MOL0     H90460   2.599   7.973   2.154 -1.2645 -0.6967 -1.2610
  656MOL0     H90461   2.390   8.027   2.087  0.3201 -0.0928 -3.0568
  656MOL0     H90462   2.210   7.968   2.104 -0.4651 -1.0863  0.8146
  656MOL0     H90463   2.269   8.002   1.876  0.2429 -1.1342 -1.1930
  656MOL0     H90464   2.417   7.892   1.885  0.0053 -2.8550 -1.6179
  656MOL0     H90465   2.253   7.718   1.951 -2.9413 -1.2426 -0.1464
  656MOL0     H90466   2.123   7.842   1.959 -0.9004 -0.0017 -1.6772
  656MOL0     H90467   2.269   7.792   1.710  1.2524 -1.5331  0.7339
  656MOL0     H90468   2.139   7.671   1.764 -1.4974  0.8748  2.0073
  656MOL0     H90469   2.106   7.958   1.692  2.8105 -0.8776 -0.7214
  656MOL0     H90470   1.986   7.833   1.762  0.7900  0.2563  0.8218
  656MOL0     H90471   1.998   7.707   1.557  3.9259 -1.9950 -2.5383
  656MOL0     H90472   1.959   7.882   1.517  1.3804  0.3303 -1.3496
  656MOL0     H90473   2.226   7.751   1.467  1.6509  2.1150  0.3859
  656MOL0     H90474   2.188   7.906   1.417  2.0833 -1.9047  0.3537
  656MOL0     H90475   2.180   7.740   1.245  0.6351  2.7497  0.9996
  656MOL0     H90476   2.031   7.671   1.323 -1.4811  1.1156  0.4573
  656MOL0     H90477   1.823   7.845   1.307 -0.9719  1.0120  0.1257
  656MOL0     H90478   1.676   7.994   1.157 -0.0972 -1.1708  0.7610
  656MOL0     H90479   1.744   8.099   1.039  0.2175 -0.1412 -0.2382
  656MOL0     H90480   1.645   8.209   1.261 -0.2593 -2.1781  0.6922
  656MOL0     H90481   1.774   8.125   1.334 -1.2154 -2.8044 -0.1041
  656MOL0     H90482   1.947   8.261   1.182 -1.0953 -2.4533  1.8402
  656MOL0     H90483   1.805   8.318   1.103  0.9226 -0.9888 -0.8559
  656MOL0     H90484   1.798   8.381   1.396 -0.7266 -1.3960 -1.5426
  656MOL0     H90485   1.928   8.459   1.284  2.0169 -2.5029 -0.8971
  656MOL0     H90486   1.780   8.583   1.481 -5.7069 -4.5741 -1.0351
  656MOL0     H90487   1.733   8.926   1.616  1.0734 -0.8498  0.8314
  656MOL0     H90488   1.755   8.747   1.649 -0.3283  0.3751  0.2696
  656MOL0     H90489   1.601   8.833   1.654  0.2438  1.2296 -1.2649
  656MOL0     H90490   1.282   9.061   1.534  2.8332  1.3727  1.5113
  656MOL0     H90491   1.160   9.270   1.601 -1.4106  0.3256 -0.3017
  656MOL0     H90492   1.237   9.634   1.370  0.3871 -0.6559  2.1309
  656MOL0     H90493   1.070   9.618   1.325  1.7108  3.3569 -0.8152
  656MOL0     H90494   1.175   9.747   1.567 -1.4607  1.5445  0.5558
  656MOL0     H90495   1.076   9.814   1.445  0.5310  0.9711  0.1911
  656MOL0     H90496   0.881   9.676   1.539 -0.5728  0.8624 -1.6012
  656MOL0     H90497   0.963   9.801   1.629 -0.1149  1.4403 -3.4823
  656MOL0     H90498   1.068   9.602   1.777  1.2351 -2.2606 -0.0202
  656MOL0     H90499   0.999   9.493   1.673 -0.2997  0.1998 -0.8164
  656MOL0     H90500   0.862   9.669   1.876 -0.2045  0.2306 -0.2047
  656MOL0     H90501   0.761   9.604   1.751 -0.9910 -2.1616  2.8449
  656MOL0     H90502   0.946   9.457   1.940  2.2377 -0.3320 -4.2726
  656MOL0     H90503   0.865   9.370   1.822 -2.2522 -0.8210  0.3372
  656MOL0     H90504   0.768   9.333   2.028  1.8881  0.3836 -0.6880
  656MOL0     H90505   0.648   9.411   1.915 -0.8202  2.0278  0.3287
  656MOL0     H90506   0.678   9.625   2.019  0.8983  2.0761  1.1809
  656MOL0     H90507   0.815   9.581   2.106  0.2430  0.9801  1.5474
  656MOL0     H90508   1.333   9.463   1.245  0.7216 -2.7142 -1.9786
  656MOL0     H90509   1.448   9.267   1.197  1.2287  2.2440  1.1365
  656MOL0     H90510   1.542   8.867   1.168  1.0501  1.5292  0.8495
  656MOL0     H90511   1.601   8.648   1.114 -1.8837  0.4227  0.7206
  656MOL0     H90512   2.310   7.755   2.389 -1.2560  1.4508 -1.6770
  656MOL0     H90513   2.464   7.776   2.583 -1.2441 -0.5182 -0.6673
  656MOL0     H90514   2.908   8.028   2.698  1.0862 -0.6222 -0.5608
  656MOL0     H90515   3.047   8.098   2.882 -1.0288  0.1272  1.0648
  656MOL0     H90516   2.944   7.966   3.299  0.9995  3.3808 -2.1183
  656MOL0     H90517   3.072   7.845   3.251  0.4635 -0.7261  0.3978
  656MOL0     H90518   3.152   8.125   3.328  3.2445  0.2645 -0.0845
  656MOL0     H90519   3.253   7.971   3.319 -0.9462 -1.5123  0.6061
  656MOL0     H90520   3.031   8.022   3.517 -0.7884 -0.5203  2.4295
  656MOL0     H90521   3.164   7.902   3.522  1.2079 -0.6061 -3.7535
  656MOL0     H90522   3.179   8.075   3.684 -0.5078  1.2380 -0.5984
  656MOL0     H90523   3.185   8.199   3.565  0.5819  1.1938  1.4771
  656MOL0     H90524   3.593   8.076   3.566 -0.0351 -2.0250 -0.6249
  656MOL0     H90525   2.842   7.836   3.142 -1.4151 -0.9103 -0.3085
  656MOL0     H90526   2.571   7.743   2.925  0.9199 -0.7399 -1.3188
  656MOL0     H90527   2.686   7.625   2.945 -0.3184 -0.6434 -0.6221
  656MOL0     H90528   2.654   7.729   3.088  1.1347  1.3081  0.4774
  657MOL0     O90529   3.379   1.370   9.193  0.6540 -0.3967 -0.5288
  657MOL0     C90530   3.502   1.393   9.159 -0.3117 -0.2221  0.0425
  657MOL0     O90531   3.595   1.306   9.179 -0.3988  0.1288 -0.2593
  657MOL0     C90532   3.557   1.184   9.225 -0.3665 -0.0147  0.4742
  657MOL0     C90533   3.475   1.156   9.329  0.1634  0.3543  0.1056
  657MOL0     C90534   3.447   1.028   9.379 -0.1813 -0.8144  0.1225
  657MOL0     C90535   3.504   0.922   9.312 -0.7378 -0.1781  0.2256
  657MOL0     O90536   3.488   0.802   9.361 -0.4301  0.4764 -0.1429
  657MOL0     C90537   3.533   0.690   9.286  0.0715 -0.3414 -0.4248
  657MOL0     C90538   3.481   0.571   9.386  1.1264 -0.6368 -0.0344
  657MOL0     C90539   3.481   0.431   9.335  0.6994  0.2210 -0.1752
  657MOL0     C90540   3.495   0.315   9.435  0.2749  0.6066 -0.7941
  657MOL0     C90541   3.561   0.187   9.375 -0.0956  0.4652 -0.2861
  657MOL0     C90542   3.466   0.111   9.271  0.5142  0.1219 -0.0268
  657MOL0     C90543   3.540   0.001   9.189  0.1527 -0.3561 -0.9988
  657MOL0     C90544   3.467  -0.138   9.210  0.4518 -0.2300 -0.0426
  657MOL0     N90545   3.524  -0.240   9.118 -0.0283 -0.4780 -0.1148
  657MOL0     C90546   3.484  -0.263   8.989  0.2579 -1.3963 -0.2301
  657MOL0     C90547   3.549  -0.368   8.944  0.1356  0.5767 -0.1215
  657MOL0     C90548   3.530  -0.451   8.812 -0.3081  0.1906  0.2135
  657MOL0     C90549   3.626  -0.411   8.693  0.1548 -1.3455 -0.2457
  657MOL0     C90550   3.770  -0.430   8.724  0.0369 -0.0776  0.6675
  657MOL0     C90551   3.858  -0.394   8.598 -0.5115  0.1864 -0.2505
  657MOL0     O90552   3.874  -0.505   8.503  0.2398 -0.1063 -0.1813
  657MOL0     C90553   3.960  -0.611   8.529  0.4184  0.2298  0.1031
  657MOL0     C90554   4.002  -0.672   8.413  0.9560  1.1882 -0.5221
  657MOL0     C90555   4.061  -0.796   8.408 -0.2933  1.2380 -0.0073
  657MOL0     C90556   4.075  -0.880   8.278  0.9896  0.1104 -0.6719
  657MOL0     C90557   4.104  -0.850   8.531  0.2137 -0.6363  0.3557
  657MOL0     C90558   4.190  -0.976   8.548  0.3877 -0.0536  0.0712
  657MOL0     O90559   4.226  -1.016   8.674 -0.3364  0.7052 -0.0305
  657MOL0     C90560   4.285  -1.140   8.687 -0.4211  0.8987  0.3589
  657MOL0     C90561   4.252  -1.251   8.616  0.1550  1.1493  0.7945
  657MOL0     C90562   4.307  -1.381   8.635  0.1393 -0.0601  1.0911
  657MOL0     C90563   4.395  -1.403   8.743 -0.1003 -0.3543 -0.3277
  657MOL0     O90564   4.447  -1.526   8.773 -0.6407 -0.9034 -0.0150
  657MOL0     C90565   4.396  -1.638   8.702 -0.0436  0.1576  0.4408
  657MOL0     C90566   4.467  -1.753   8.753 -0.0101  0.3711  0.4755
  657MOL0     C90567   4.391  -1.882   8.730 -0.2291  0.2065  0.4516
  657MOL0     C90568   4.370  -1.921   8.585  0.4498  0.0913 -0.2126
  657MOL0     C90569   4.358  -2.069   8.576 -0.6784 -0.7523  0.1083
  657MOL0     C90570   4.361  -2.100   8.426  0.0689  0.2266  0.6119
  657MOL0     C90571   4.396  -2.251   8.389 -0.3603 -0.0460 -0.4144
  657MOL0     C90572   4.272  -2.334   8.367  0.3282 -0.0476 -0.0723
  657MOL0    Cl90573   4.300  -2.484   8.276 -0.4450 -0.3889 -0.1211
  657MOL0     C90574   4.424  -1.289   8.821  0.0167  0.1848 -0.1998
  657MOL0     C90575   4.372  -1.157   8.791  0.7546  1.3178 -0.6521
  657MOL0     O90576   4.228  -1.030   8.445 -0.1108 -0.1493  0.5520
  657MOL0     C90577   4.077  -0.776   8.650 -0.1157  1.6126  0.3506
  657MOL0     C90578   3.995  -0.665   8.651  0.6151 -0.1960 -0.2655
  657MOL0     N90579   3.630  -0.400   9.047 -0.0720  0.2326 -0.4074
  657MOL0     N90580   3.613  -0.328   9.152  0.0886  0.7316  0.4341
  657MOL0     C90581   3.595   0.948   9.204 -0.4222 -0.7562 -0.4534
  657MOL0     C90582   3.614   1.072   9.162  0.7253  1.4247  0.8684
  657MOL0     C90583   3.538   1.526   9.104 -0.1882  0.0221  0.0745
  657MOL0     C90584   3.438   1.596   9.026  0.4613  0.7642 -0.0962
  657MOL0     C90585   3.460   1.716   8.958 -0.1227  0.0597 -0.8183
  657MOL0     C90586   3.588   1.783   8.971 -0.2493 -0.0313  0.7506
  657MOL0     O90587   3.618   1.898   8.899  0.2555  0.6550 -0.1020
  657MOL0     C90588   3.661   1.867   8.763  0.1324  0.4472 -0.3043
  657MOL0     C90589   3.725   1.977   8.689 -0.2374 -0.1692  0.1442
  657MOL0     C90590   3.620   2.069   8.649  0.1774 -0.0855 -0.1671
  657MOL0     C90591   3.647   2.207   8.578 -0.1375  0.3938 -0.4110
  657MOL0     C90592   3.525   2.248   8.498  0.0260 -0.3420  0.4442
  657MOL0     C90593   3.437   2.272   8.424  0.9112 -0.1896 -0.2376
  657MOL0     C90594   3.685   1.716   9.042 -0.0861  0.0706 -0.7901
  657MOL0     C90595   3.668   1.591   9.113 -0.2059 -0.2641  0.6508
  657MOL0     C90596   3.782   1.544   9.204  0.0498  0.3989  0.8178
  657MOL0     H90597   3.437   1.244   9.380  1.4508  0.7093  0.4921
  657MOL0     H90598   3.396   1.013   9.474 -1.3504  0.0052 -0.3467
  657MOL0     H90599   3.640   0.691   9.268  0.3224  0.4096  0.9954
  657MOL0     H90600   3.474   0.687   9.194 -0.0473  0.7135 -0.3877
  657MOL0     H90601   3.548   0.590   9.471  3.2521 -0.7090 -1.5955
  657MOL0     H90602   3.378   0.594   9.414  1.7730  0.1064  1.8928
  657MOL0     H90603   3.390   0.411   9.277  0.6644  0.8918 -0.3616
  657MOL0     H90604   3.575   0.429   9.278  0.4440  2.5623 -0.7658
  657MOL0     H90605   3.544   0.359   9.522 -0.4049  3.1266 -1.5946
  657MOL0     H90606   3.391   0.301   9.468 -0.5613  2.8410 -2.2634
  657MOL0     H90607   3.587   0.116   9.454 -0.4324  1.6185  0.9058
  657MOL0     H90608   3.657   0.222   9.335  1.1868 -0.4453  1.7764
  657MOL0     H90609   3.388   0.074   9.338 -1.5301  3.2049 -0.5120
  657MOL0     H90610   3.413   0.177   9.203 -0.4162  0.4524  0.9825
  657MOL0     H90611   3.640   0.001   9.235 -0.3286 -0.4067  0.0856
  657MOL0     H90612   3.549   0.022   9.082  1.0921 -0.1391 -0.8939
  657MOL0     H90613   3.465  -0.166   9.315  3.2948  0.9066  0.3882
  657MOL0     H90614   3.360  -0.129   9.185  0.4916 -1.2811 -0.6773
  657MOL0     H90615   3.418  -0.198   8.932 -0.0579 -1.8403 -0.3751
  657MOL0     H90616   3.425  -0.465   8.786 -0.6468  2.0731  0.4355
  657MOL0     H90617   3.557  -0.552   8.843 -2.8348  0.4473  3.7971
  657MOL0     H90618   3.604  -0.471   8.604 -1.1598 -0.3141 -0.6443
  657MOL0     H90619   3.608  -0.305   8.670  0.0565 -1.0032  1.2949
  657MOL0     H90620   3.802  -0.375   8.813 -1.9337  2.2748  0.0228
  657MOL0     H90621   3.787  -0.534   8.755  1.0003 -0.3725 -0.7316
  657MOL0     H90622   3.815  -0.309   8.544  1.6738 -0.1046 -2.6335
  657MOL0     H90623   3.958  -0.366   8.634 -2.2384  1.8092  3.9347
  657MOL0     H90624   3.969  -0.628   8.320  1.8574  0.9954 -0.9506
  657MOL0     H90625   4.024  -0.815   8.206  0.5462  2.2752  1.4434
  657MOL0     H90626   4.022  -0.975   8.286  0.0121  0.7036  0.1656
  657MOL0     H90627   4.174  -0.910   8.244  0.5450 -2.8083  0.2970
  657MOL0     H90628   4.177  -1.248   8.537 -0.6527  0.5530  1.5230
  657MOL0     H90629   4.286  -1.460   8.564 -0.4945  1.9201 -1.0154
  657MOL0     H90630   4.288  -1.646   8.714 -0.0770  1.0930  0.8093
  657MOL0     H90631   4.416  -1.635   8.595 -1.7489 -1.7267  0.0040
  657MOL0     H90632   4.564  -1.765   8.704  1.6141 -0.3862  3.5916
  657MOL0     H90633   4.480  -1.740   8.861 -2.1571  1.8252  0.6085
  657MOL0     H90634   4.293  -1.880   8.779 -1.2119 -1.1588 -1.3355
  657MOL0     H90635   4.448  -1.962   8.778 -1.3410 -2.4291 -2.2885
  657MOL0     H90636   4.456  -1.890   8.525  2.0547  1.3477  2.5114
  657MOL0     H90637   4.284  -1.877   8.534 -0.3115  0.4252  1.2857
  657MOL0     H90638   4.438  -2.119   8.631 -1.4329 -1.5607  0.5048
  657MOL0     H90639   4.262  -2.100   8.620  0.0707  0.4090  2.7156
  657MOL0     H90640   4.447  -2.047   8.382  1.2032 -1.4922  0.6723
  657MOL0     H90641   4.279  -2.078   8.357  0.9949 -0.1212 -0.6389
  657MOL0     H90642   4.461  -2.291   8.468  2.9614  0.0320 -2.8672
  657MOL0     H90643   4.463  -2.251   8.302  1.0818 -1.1786  0.6361
  657MOL0     H90644   4.192  -2.281   8.314  0.1807 -0.5018 -0.3135
  657MOL0     H90645   4.230  -2.354   8.465 -2.9981 -1.7320 -1.6852
  657MOL0     H90646   4.491  -1.290   8.906  0.5978 -2.4626 -0.6133
  657MOL0     H90647   4.390  -1.073   8.857  0.7222  0.1346  0.9098
  657MOL0     H90648   4.106  -0.812   8.749 -1.1767  5.1877  2.1406
  657MOL0     H90649   3.970  -0.629   8.750  0.0237 -0.6632 -0.2393
  657MOL0     H90650   3.622   0.859   9.147  2.1412 -0.1461 -0.3184
  657MOL0     H90651   3.681   1.079   9.077  2.0807  2.1150  1.9429
  657MOL0     H90652   3.335   1.561   9.019  0.9101 -0.2412 -3.5113
  657MOL0     H90653   3.375   1.764   8.910  0.2150  1.5271 -0.0077
  657MOL0     H90654   3.736   1.787   8.767 -1.8362 -1.4486  1.0613
  657MOL0     H90655   3.585   1.824   8.698  0.9033  0.2160 -1.0747
  657MOL0     H90656   3.776   1.936   8.601  0.8959 -1.0711  1.1818
  657MOL0     H90657   3.811   2.021   8.742 -1.3742  2.6495 -0.1913
  657MOL0     H90658   3.554   2.016   8.580  0.4803 -1.8568  0.8522
  657MOL0     H90659   3.556   2.092   8.735  3.0293  1.9435  1.5625
  657MOL0     H90660   3.732   2.211   8.509 -0.7220  2.1397 -1.0854
  657MOL0     H90661   3.665   2.282   8.656 -1.1302 -0.2035  0.4259
  657MOL0     H90662   3.355   2.307   8.364  1.2414 -1.0428 -1.2170
  657MOL0     H90663   3.780   1.767   9.029  2.2811 -3.9532 -1.1416
  657MOL0     H90664   3.860   1.620   9.214  0.2250  0.4662 -0.8042
  657MOL0     H90665   3.741   1.522   9.302 -2.8396 -0.0494 -0.4045
  657MOL0     H90666   3.835   1.463   9.153 -0.1657 -0.0563  1.3110
  658MOL0     O90667   4.428   8.641   9.532  1.3224  0.3782 -0.6174
  658MOL0     C90668   4.419   8.711   9.431  0.4442  0.4660  0.1567
  658MOL0     O90669   4.522   8.786   9.379 -0.5506  0.5069  0.5445
  658MOL0     C90670   4.643   8.804   9.439  0.2885 -0.6938 -0.1195
  658MOL0     C90671   4.656   8.793   9.580  0.0544 -0.1743  0.3386
  658MOL0     C90672   4.780   8.806   9.644  0.4290  0.2152  1.1036
  658MOL0     C90673   4.894   8.833   9.569 -0.2421  0.1807 -0.1407
  658MOL0     O90674   5.020   8.845   9.626  0.1279 -0.4310  0.9474
  658MOL0     C90675   5.062   8.789   9.750  0.3013  0.0606 -0.5339
  658MOL0     C90676   5.209   8.811   9.779 -1.2294  0.6768 -0.7017
  658MOL0     C90677   5.239   8.832   9.930  0.5005 -0.2582 -0.5015
  658MOL0     C90678   5.205   8.702  10.005  0.3215  0.2999  0.5619
  658MOL0     C90679   5.163   8.721  10.150 -0.4961 -0.2331  0.4029
  658MOL0     C90680   5.276   8.715  10.252 -0.5400 -0.0136 -0.3450
  658MOL0     C90681   5.249   8.664  10.399 -0.3922 -0.0462  0.0012
  658MOL0     C90682   5.344   8.714  10.513 -0.0098  0.4690  0.1221
  658MOL0     N90683   5.481   8.684  10.468 -0.2547  0.2258  0.8127
  658MOL0     C90684   5.535   8.552  10.472 -0.5720 -0.8907 -0.5533
  658MOL0     C90685   5.665   8.578  10.453  0.6078  0.3511 -0.0021
  658MOL0     C90686   5.760   8.473  10.450  0.0153  0.9709  0.2570
  658MOL0     C90687   5.869   8.486  10.339 -0.3277 -0.2356  0.0632
  658MOL0     C90688   5.974   8.379  10.361  0.8154 -0.2975  0.3349
  658MOL0     C90689   5.926   8.238  10.306  0.1423 -0.6949  0.4303
  658MOL0     O90690   5.899   8.243  10.160  0.5454  0.4792  0.0856
  658MOL0     C90691   5.981   8.186  10.073 -0.3045  0.0773 -0.3523
  658MOL0     C90692   6.086   8.242  10.001 -0.0262 -0.2702 -0.7166
  658MOL0     C90693   6.159   8.171   9.898  0.3546 -0.4519  0.1637
  658MOL0     C90694   6.273   8.251   9.833  0.0298  0.5779  0.4450
  658MOL0     C90695   6.120   8.038   9.865 -0.1337 -0.3626 -0.0414
  658MOL0     C90696   6.191   7.960   9.751  0.1958  0.0623  0.0538
  658MOL0     O90697   6.288   8.019   9.678  0.8139 -0.4830  0.7022
  658MOL0     C90698   6.319   7.950   9.561  0.1619  0.9906 -0.4051
  658MOL0     C90699   6.225   7.921   9.465 -0.0140  0.8332 -0.1371
  658MOL0     C90700   6.254   7.855   9.349 -0.3827 -0.3244  0.9403
  658MOL0     C90701   6.378   7.802   9.335  0.1306 -0.6601 -0.4515
  658MOL0     O90702   6.425   7.728   9.224 -0.5715 -0.1683  0.8356
  658MOL0     C90703   6.321   7.697   9.125 -1.0382 -0.5247 -0.1596
  658MOL0     C90704   6.309   7.825   9.038  1.1896  0.0136 -0.9400
  658MOL0     C90705   6.226   7.792   8.919  0.4337  0.4398  1.3251
  658MOL0     C90706   6.289   7.691   8.814 -0.2345 -0.9325 -0.4317
  658MOL0     C90707   6.438   7.698   8.793 -0.3186 -0.2061  0.9713
  658MOL0     C90708   6.465   7.828   8.719  0.2618 -0.4815  0.5645
  658MOL0     C90709   6.608   7.837   8.662 -0.3558 -0.3136 -0.5115
  658MOL0     C90710   6.611   7.788   8.516 -0.4881  0.1789  0.7293
  658MOL0    Cl90711   6.779   7.803   8.460  0.1204  0.0424  0.0284
  658MOL0     C90712   6.475   7.810   9.442 -0.2117 -0.1519 -0.2813
  658MOL0     C90713   6.436   7.882   9.557  0.1341  0.8450  0.2884
  658MOL0     O90714   6.150   7.842   9.734  0.5006  0.3267 -0.6850
  658MOL0     C90715   6.009   7.983   9.933 -0.3358 -0.7246 -0.5003
  658MOL0     C90716   5.941   8.061  10.030  0.1116 -0.4317  1.0974
  658MOL0     N90717   5.690   8.712  10.452  0.3426 -0.3460  0.9214
  658MOL0     N90718   5.577   8.775  10.466  0.1748  0.6406  1.2444
  658MOL0     C90719   4.878   8.848   9.431 -0.3732  0.0391 -0.7341
  658MOL0     C90720   4.757   8.829   9.360 -0.3823 -1.4437  0.0093
  658MOL0     C90721   4.290   8.715   9.361  1.2965  0.5800  0.5010
  658MOL0     C90722   4.273   8.827   9.271  0.1394  0.1873  0.4449
  658MOL0     C90723   4.151   8.844   9.198  0.1549 -0.0546  0.0690
  658MOL0     C90724   4.040   8.753   9.227 -0.1985 -0.1625 -0.7926
  658MOL0     O90725   3.927   8.744   9.148 -0.9291 -0.2412 -0.3824
  658MOL0     C90726   3.907   8.616   9.075 -0.2312  0.1457  0.1396
  658MOL0     C90727   4.034   8.566   8.997 -0.9153 -0.7171 -0.3727
  658MOL0     C90728   4.027   8.427   8.929 -0.7876 -0.6463  0.9260
  658MOL0     C90729   4.058   8.301   9.017  0.1610  0.3746  0.0228
  658MOL0     C90730   3.979   8.295   9.142  0.5962 -0.3758  0.3612
  658MOL0     C90731   3.903   8.289   9.235  0.1487 -1.1540 -0.0131
  658MOL0     C90732   4.059   8.650   9.317 -0.4667 -0.3391  0.4193
  658MOL0     C90733   4.184   8.629   9.374 -0.3234  0.7277 -0.7593
  658MOL0     C90734   4.184   8.506   9.463 -0.2065 -0.0567  0.4875
  658MOL0     H90735   4.574   8.780   9.651  0.0266  0.6477  0.4610
  658MOL0     H90736   4.784   8.806   9.753 -1.3606  1.4812  1.2070
  658MOL0     H90737   5.033   8.683   9.750 -2.5212  0.7377  0.4712
  658MOL0     H90738   5.019   8.841   9.836  3.0048  0.8983  0.3952
  658MOL0     H90739   5.272   8.729   9.743  1.4920  1.1270  2.5132
  658MOL0     H90740   5.239   8.906   9.735 -1.5644  0.4867 -1.3393
  658MOL0     H90741   5.345   8.856   9.945  1.0222 -2.7007  0.1465
  658MOL0     H90742   5.169   8.902   9.975 -0.8749 -3.3828  2.6846
  658MOL0     H90743   5.119   8.656   9.955  1.1527  0.7811 -1.4200
  658MOL0     H90744   5.289   8.632  10.005 -0.4899 -0.8846  4.2606
  658MOL0     H90745   5.092   8.639  10.162 -0.4904 -0.8975 -2.9315
  658MOL0     H90746   5.110   8.815  10.162 -1.3085 -0.2081 -2.5462
  658MOL0     H90747   5.358   8.653  10.213 -1.3605 -1.0689 -0.4395
  658MOL0     H90748   5.317   8.817  10.258 -2.1748  0.5862  1.6428
  658MOL0     H90749   5.243   8.555  10.402  0.0506 -0.1334 -1.5063
  658MOL0     H90750   5.147   8.697  10.423  0.1445  0.4375  1.7409
  658MOL0     H90751   5.331   8.823  10.517 -1.9297  0.4131 -2.0153
  658MOL0     H90752   5.314   8.679  10.612  1.2048 -0.9353  0.0342
  658MOL0     H90753   5.496   8.451  10.478 -3.4428 -0.1605 -3.9122
  658MOL0     H90754   5.711   8.375  10.442 -0.6193  0.6945  4.9385
  658MOL0     H90755   5.817   8.477  10.543  0.0601  3.4782  0.1980
  658MOL0     H90756   5.834   8.489  10.236  0.9631 -0.0063 -0.3871
  658MOL0     H90757   5.923   8.580  10.350  0.1953  0.2032 -4.5701
  658MOL0     H90758   6.067   8.403  10.309 -0.4286  0.8808 -1.4724
  658MOL0     H90759   5.994   8.366  10.468 -2.7041  0.1920  1.1806
  658MOL0     H90760   6.003   8.163  10.323 -0.3390 -2.0621 -2.6525
  658MOL0     H90761   5.834   8.212  10.360 -1.4089  2.3063 -0.5144
  658MOL0     H90762   6.102   8.346  10.029 -0.1444 -0.3904 -0.1780
  658MOL0     H90763   6.371   8.202   9.821 -0.2670 -0.2832  1.3796
  658MOL0     H90764   6.288   8.338   9.897  2.5999  1.1448 -0.7608
  658MOL0     H90765   6.248   8.291   9.735  1.4098  3.3325  1.1240
  658MOL0     H90766   6.125   7.963   9.463 -0.6075 -0.5705 -1.2762
  658MOL0     H90767   6.180   7.835   9.273  1.5419 -1.7530 -0.6784
  658MOL0     H90768   6.361   7.608   9.077 -2.1319 -1.6677  0.9697
  658MOL0     H90769   6.233   7.657   9.175 -1.5217  1.1338  0.4112
  658MOL0     H90770   6.262   7.911   9.087  1.2788  0.4814 -1.6701
  658MOL0     H90771   6.404   7.874   9.012  0.8251  0.3583 -1.6569
  658MOL0     H90772   6.207   7.887   8.869  2.5805  1.0623  1.6283
  658MOL0     H90773   6.136   7.740   8.954  0.0970 -0.8986 -1.2373
  658MOL0     H90774   6.239   7.692   8.716  2.4804 -0.0467 -1.8982
  658MOL0     H90775   6.265   7.598   8.867 -0.6387 -0.7187 -0.2341
  658MOL0     H90776   6.490   7.691   8.889 -0.9443 -2.5743  1.2054
  658MOL0     H90777   6.474   7.615   8.732  2.9954  2.5622 -1.1902
  658MOL0     H90778   6.466   7.919   8.780  3.9614  1.2016 -1.6209
  658MOL0     H90779   6.398   7.832   8.633  1.6440 -0.2793 -0.5507
  658MOL0     H90780   6.682   7.783   8.722 -1.9392 -3.3058 -1.0661
  658MOL0     H90781   6.647   7.939   8.661 -1.1513  0.0373  1.2883
  658MOL0     H90782   6.542   7.849   8.456 -1.1466  2.8493  3.9220
  658MOL0     H90783   6.593   7.681   8.512 -0.0455  0.1223  0.1129
  658MOL0     H90784   6.566   7.753   9.429 -2.0137 -2.7767 -2.4980
  658MOL0     H90785   6.512   7.881   9.634 -0.1579  0.1690  0.5711
  658MOL0     H90786   5.973   7.887   9.899 -2.0309 -0.2547 -0.1381
  658MOL0     H90787   5.851   8.008  10.061 -2.0752  2.2560 -0.1884
  658MOL0     H90788   4.964   8.889   9.379  0.2179  0.0789  0.2518
  658MOL0     H90789   4.738   8.835   9.253 -1.2509  1.7653  0.2311
  658MOL0     H90790   4.358   8.894   9.262  1.6303 -1.7877 -0.9477
  658MOL0     H90791   4.129   8.918   9.121  0.0462 -2.8078 -2.7481
  658MOL0     H90792   3.866   8.544   9.147  1.2948 -2.6289 -1.6251
  658MOL0     H90793   3.832   8.640   8.999 -0.7972 -1.1067  0.2711
  658MOL0     H90794   4.120   8.580   9.063 -0.4361 -2.3186 -0.6073
  658MOL0     H90795   4.027   8.647   8.923 -0.3703  1.1479  1.5060
  658MOL0     H90796   3.932   8.412   8.876  0.6953 -1.0344 -1.8171
  658MOL0     H90797   4.100   8.425   8.847  0.1279  3.1085  1.4519
  658MOL0     H90798   4.166   8.296   9.038  0.0899  1.1231  0.6272
  658MOL0     H90799   4.039   8.215   8.953 -0.0736  2.3070 -2.6647
  658MOL0     H90800   3.847   8.273   9.325  0.3836  0.7567  0.5089
  658MOL0     H90801   3.985   8.574   9.343 -0.7152 -0.3282 -0.2438
  658MOL0     H90802   4.278   8.450   9.472 -0.2769 -0.1906  0.3877
  658MOL0     H90803   4.144   8.540   9.559 -0.4294 -0.6868  0.6161
  658MOL0     H90804   4.103   8.440   9.434  0.3630 -0.5936  0.0832
  659MOL0     O90805   7.970   8.192   0.104  0.2705 -0.3077 -0.1180
  659MOL0     C90806   8.008   8.110   0.024 -0.0712 -0.2803 -1.0945
  659MOL0     O90807   8.106   8.137  -0.064 -0.1611 -0.3280  0.2822
  659MOL0     C90808   8.161   8.267  -0.070 -0.3144  0.5652 -0.1472
  659MOL0     C90809   8.299   8.275  -0.099  0.8024  0.8400 -0.6421
  659MOL0     C90810   8.356   8.398  -0.128  0.0625  0.0896  0.1427
  659MOL0     C90811   8.285   8.519  -0.129 -0.0181 -0.3563 -1.0489
  659MOL0     O90812   8.347   8.641  -0.154 -0.1139  0.0910 -0.6558
  659MOL0     C90813   8.283   8.739  -0.244 -0.9435 -0.3417  0.4541
  659MOL0     C90814   8.387   8.829  -0.305  0.3520 -0.7300  0.1428
  659MOL0     C90815   8.452   8.918  -0.189  0.1726  0.4136  0.2044
  659MOL0     C90816   8.507   9.053  -0.241  0.2554  0.0525  0.0260
  659MOL0     C90817   8.412   9.180  -0.234  0.2602  0.3231 -0.1439
  659MOL0     C90818   8.485   9.312  -0.222  0.0424 -1.0861  0.3583
  659MOL0     C90819   8.417   9.436  -0.171 -0.0754  0.7161 -0.1610
  659MOL0     C90820   8.283   9.467  -0.229  0.1193 -0.4575  0.2284
  659MOL0     N90821   8.294   9.524  -0.365  0.3887 -0.2380 -0.1295
  659MOL0     C90822   8.287   9.662  -0.393  0.5794  0.0720  0.7036
  659MOL0     C90823   8.266   9.670  -0.523 -0.6835  0.3049  0.0811
  659MOL0     C90824   8.248   9.794  -0.592 -0.2208 -0.0635  0.3088
  659MOL0     C90825   8.099   9.837  -0.584 -0.0207  0.2830  0.6242
  659MOL0     C90826   8.064   9.964  -0.668  0.7166 -1.0331  0.2857
  659MOL0     C90827   7.919   9.965  -0.719  0.3350  0.7537 -0.1336
  659MOL0     O90828   7.851  10.009  -0.604 -0.6669  0.2141  0.3643
  659MOL0     C90829   7.822  10.136  -0.580 -0.6803  0.2919 -0.3363
  659MOL0     C90830   7.899  10.246  -0.637  0.2695 -0.1381 -0.5643
  659MOL0     C90831   7.877  10.378  -0.604 -0.6719 -0.2623 -1.0861
  659MOL0     C90832   7.941  10.485  -0.681  0.0946 -0.4280  0.8231
  659MOL0     C90833   7.777  10.416  -0.506  0.8536  0.5626  0.9570
  659MOL0     C90834   7.746  10.555  -0.468  0.7313 -0.4813 -0.5176
  659MOL0     O90835   7.617  10.593  -0.447 -0.0431  0.0589  0.2482
  659MOL0     C90836   7.589  10.723  -0.432  0.1859  1.1594  0.6231
  659MOL0     C90837   7.498  10.768  -0.521  0.8419  0.7265 -0.2157
  659MOL0     C90838   7.432  10.892  -0.500 -0.0843  0.3980  0.0348
  659MOL0     C90839   7.476  10.982  -0.402  0.1750 -0.2132 -0.6053
  659MOL0     O90840   7.406  11.098  -0.392 -0.4058 -0.5760  0.5183
  659MOL0     C90841   7.498  11.212  -0.380  0.1225  0.1895  0.2061
  659MOL0     C90842   7.433  11.349  -0.427 -0.0053 -0.6846  0.6754
  659MOL0     C90843   7.521  11.471  -0.375 -0.4109 -0.6798  0.3864
  659MOL0     C90844   7.446  11.607  -0.400 -0.6354  0.9511 -1.0143
  659MOL0     C90845   7.529  11.708  -0.324 -0.1986  0.2236 -0.7306
  659MOL0     C90846   7.467  11.843  -0.342  0.8407 -0.7993  0.2048
  659MOL0     C90847   7.525  11.971  -0.274  0.2263  0.6557  0.4155
  659MOL0     C90848   7.429  12.091  -0.291  0.0137 -0.4068  0.4464
  659MOL0    Cl90849   7.494  12.250  -0.225  0.2095 -0.0798 -0.2105
  659MOL0     C90850   7.582  10.938  -0.314  0.3600 -0.1409  0.5922
  659MOL0     C90851   7.629  10.806  -0.326  1.0120 -0.2167  0.1474
  659MOL0     O90852   7.836  10.636  -0.462  0.2500  0.1498  0.0402
  659MOL0     C90853   7.699  10.307  -0.440 -0.8381  0.6067  0.8341
  659MOL0     C90854   7.729  10.173  -0.480  0.3519  0.1541  0.0068
  659MOL0     N90855   8.281   9.550  -0.580 -0.5128  0.1807  0.1197
  659MOL0     N90856   8.286   9.460  -0.482  0.4727  0.2620 -0.3620
  659MOL0     C90857   8.154   8.513  -0.087  1.1666 -0.3407  0.1472
  659MOL0     C90858   8.088   8.393  -0.052 -0.4789 -0.6229 -1.1040
  659MOL0     C90859   7.968   7.969   0.022  0.1750  0.8883  0.5205
  659MOL0     C90860   8.037   7.879  -0.062 -0.6637 -0.1433 -0.0037
  659MOL0     C90861   8.006   7.740  -0.071 -0.4549 -0.2201  0.3298
  659MOL0     C90862   7.896   7.680   0.007  0.0738 -0.0390  0.1206
  659MOL0     O90863   7.866   7.551  -0.016 -0.6824  0.1585 -0.4902
  659MOL0     C90864   7.805   7.476   0.090  0.0386  0.1453  0.4544
  659MOL0     C90865   7.893   7.461   0.210 -0.1574  0.2464 -0.7225
  659MOL0     C90866   8.038   7.410   0.178  0.1535 -1.1622  0.2384
  659MOL0     C90867   8.094   7.355   0.304  0.0988  0.4310  0.6612
  659MOL0     C90868   8.095   7.454   0.408  0.5452  0.8045 -0.1884
  659MOL0     C90869   8.105   7.542   0.492 -1.5518  0.4046  0.9682
  659MOL0     C90870   7.825   7.779   0.084 -0.4909  1.0810 -0.7798
  659MOL0     C90871   7.856   7.917   0.094  0.0950  1.1861  0.3506
  659MOL0     C90872   7.775   7.999   0.196  0.2910  0.0658 -0.3262
  659MOL0     H90873   8.352   8.181  -0.102  2.3519  1.7025 -1.4925
  659MOL0     H90874   8.462   8.392  -0.153  0.2235 -4.2942  0.9737
  659MOL0     H90875   8.206   8.802  -0.199 -2.6241 -1.0660 -1.2407
  659MOL0     H90876   8.235   8.679  -0.322  0.1346  1.1146 -1.4055
  659MOL0     H90877   8.461   8.765  -0.355  0.2614 -0.4401 -0.3654
  659MOL0     H90878   8.346   8.888  -0.388 -0.3160 -2.3608 -0.7249
  659MOL0     H90879   8.391   8.929  -0.099 -0.2413 -3.7758  0.6154
  659MOL0     H90880   8.539   8.862  -0.155  2.4689  2.9820 -0.9915
  659MOL0     H90881   8.599   9.084  -0.191 -0.0522  1.2252 -0.1020
  659MOL0     H90882   8.525   9.046  -0.349  1.2216 -1.4425  0.2412
  659MOL0     H90883   8.349   9.171  -0.146  1.0728 -1.9965  0.2650
  659MOL0     H90884   8.349   9.182  -0.323  1.2259  2.4143 -0.8662
  659MOL0     H90885   8.572   9.304  -0.157  0.6801 -1.6418 -0.5360
  659MOL0     H90886   8.515   9.331  -0.326 -2.7177 -1.5181 -0.6224
  659MOL0     H90887   8.492   9.514  -0.182  0.4552  0.1284 -0.8069
  659MOL0     H90888   8.412   9.417  -0.063  0.5384 -1.3376 -0.4640
  659MOL0     H90889   8.223   9.376  -0.234 -1.6677  0.6858 -0.2874
  659MOL0     H90890   8.235   9.549  -0.174 -0.4601 -0.2834 -0.5212
  659MOL0     H90891   8.284   9.739  -0.317  0.9728 -1.7297  2.6446
  659MOL0     H90892   8.272   9.770  -0.696 -3.5296 -0.6569 -0.4371
  659MOL0     H90893   8.327   9.861  -0.557  1.1015 -0.0015 -2.5675
  659MOL0     H90894   8.046   9.757  -0.636  0.1509 -0.5431  1.6852
  659MOL0     H90895   8.062   9.842  -0.481 -1.7473 -3.0480  0.3086
  659MOL0     H90896   8.093  10.052  -0.609 -0.9386 -1.0179  1.1529
  659MOL0     H90897   8.127   9.948  -0.755 -1.9636 -2.6809 -1.4867
  659MOL0     H90898   7.913  10.029  -0.808  0.9907  1.5264  0.3605
  659MOL0     H90899   7.890   9.865  -0.751  0.0263  0.3684  1.2711
  659MOL0     H90900   7.950  10.226  -0.731 -0.7982  0.0295 -1.1956
  659MOL0     H90901   8.023  10.443  -0.740  0.0966  1.9049 -0.9971
  659MOL0     H90902   7.988  10.565  -0.623  0.0731  0.5339 -0.4415
  659MOL0     H90903   7.864  10.527  -0.746  2.6635 -2.1286 -3.7755
  659MOL0     H90904   7.468  10.708  -0.606  1.4892 -0.8371  0.6055
  659MOL0     H90905   7.359  10.931  -0.571  1.5582  0.6790 -1.5866
  659MOL0     H90906   7.517  11.222  -0.272  1.3210  1.0616 -0.0627
  659MOL0     H90907   7.590  11.195  -0.435 -0.5929  1.4627 -1.4770
  659MOL0     H90908   7.428  11.336  -0.535 -0.8959 -0.5925  0.6990
  659MOL0     H90909   7.331  11.368  -0.392 -0.6394 -1.7336 -0.5072
  659MOL0     H90910   7.616  11.481  -0.429  0.2300  3.0596  1.8985
  659MOL0     H90911   7.557  11.453  -0.274 -1.1545  0.2817  0.8267
  659MOL0     H90912   7.343  11.594  -0.368 -0.2770 -2.1991 -0.7574
  659MOL0     H90913   7.451  11.630  -0.507 -0.3798 -2.0157 -1.7381
  659MOL0     H90914   7.512  11.682  -0.219 -0.7284  0.0001 -0.8668
  659MOL0     H90915   7.635  11.696  -0.348 -0.8589 -4.7124 -2.4025
  659MOL0     H90916   7.362  11.827  -0.314  0.2403  0.2962 -1.2982
  659MOL0     H90917   7.482  11.878  -0.444  1.1647 -3.8614 -0.9049
  659MOL0     H90918   7.623  11.990  -0.319 -0.6339  0.6519 -1.5439
  659MOL0     H90919   7.524  11.954  -0.166 -3.6310  2.1975  0.7821
  659MOL0     H90920   7.339  12.054  -0.242  0.9326 -3.8662 -0.1731
  659MOL0     H90921   7.420  12.104  -0.399  0.6056 -0.7530  0.3502
  659MOL0     H90922   7.615  10.999  -0.230 -0.0362  1.7204 -0.5246
  659MOL0     H90923   7.702  10.776  -0.252  2.2984  0.5402 -0.7677
  659MOL0     H90924   7.643  10.318  -0.348  0.7374  0.2323  1.8800
  659MOL0     H90925   7.700  10.086  -0.422 -0.0330  0.7841  0.7898
  659MOL0     H90926   8.092   8.602  -0.083 -1.2818 -1.9450  0.7752
  659MOL0     H90927   7.986   8.406  -0.019 -0.4974  1.6811 -1.9089
  659MOL0     H90928   8.109   7.909  -0.138 -3.3307  0.8064 -2.3379
  659MOL0     H90929   8.047   7.675  -0.148  2.3754 -0.1079  1.5897
  659MOL0     H90930   7.715   7.534   0.110  1.0071  2.0461 -0.4167
  659MOL0     H90931   7.782   7.376   0.052 -0.4678  0.9326 -1.4282
  659MOL0     H90932   7.841   7.407   0.289 -0.6957  1.1359 -0.4534
  659MOL0     H90933   7.909   7.559   0.254 -1.8424  0.3848 -0.3386
  659MOL0     H90934   8.038   7.330   0.103  4.1503 -2.3045  1.1940
  659MOL0     H90935   8.089   7.495   0.133 -0.3445 -0.3255  1.2225
  659MOL0     H90936   8.194   7.324   0.274 -2.0025 -2.6507 -4.4331
  659MOL0     H90937   8.041   7.267   0.343 -1.1268  1.7102  2.0510
  659MOL0     H90938   8.133   7.621   0.559 -0.5089  0.4360  0.5205
  659MOL0     H90939   7.737   7.746   0.138  0.4429 -1.7243 -0.7956
  659MOL0     H90940   7.732   8.088   0.150 -1.3225  0.4005  1.6782
  659MOL0     H90941   7.688   7.950   0.242 -0.0106  0.9151  0.0323
  659MOL0     H90942   7.839   8.020   0.282  0.5857 -3.1617  0.3872
  660MOL0     O90943   7.553   8.047   5.405  0.0485  0.0841  0.0952
  660MOL0     C90944   7.429   8.043   5.436  1.1384  0.7238  0.6045
  660MOL0     O90945   7.334   7.988   5.352  0.4860  0.1983 -0.0082
  660MOL0     C90946   7.364   7.902   5.248  0.7332 -0.0640 -0.2272
  660MOL0     C90947   7.392   7.775   5.280  0.0125  0.2069 -0.0162
  660MOL0     C90948   7.415   7.684   5.180 -0.1602 -0.1403  0.3077
  660MOL0     C90949   7.421   7.724   5.044  0.3667 -0.1846  0.1054
  660MOL0     O90950   7.449   7.623   4.956  0.0514  0.1542  0.3531
  660MOL0     C90951   7.485   7.660   4.816 -0.3615 -0.0704  0.4538
  660MOL0     C90952   7.510   7.543   4.717  0.5066  0.2166  0.1263
  660MOL0     C90953   7.607   7.441   4.780 -0.0206 -0.4047 -0.2420
  660MOL0     C90954   7.689   7.358   4.672 -0.8513  0.0961 -0.1269
  660MOL0     C90955   7.735   7.224   4.739 -0.3511 -0.5549 -0.3643
  660MOL0     C90956   7.836   7.234   4.851 -0.5175  0.5654 -0.7180
  660MOL0     C90957   7.864   7.094   4.914 -0.1504 -0.7080  0.6985
  660MOL0     C90958   7.762   7.080   5.024 -0.0708 -0.2237 -0.5593
  660MOL0     N90959   7.766   6.938   5.062  0.6267 -0.0040  0.1944
  660MOL0     C90960   7.652   6.854   5.049  0.7466 -0.8524  1.5857
  660MOL0     C90961   7.697   6.728   5.060 -0.0266  0.4196 -0.0230
  660MOL0     C90962   7.617   6.599   5.075 -0.1782  0.3417  0.4330
  660MOL0     C90963   7.519   6.600   5.195  0.0206 -0.3351  0.1303
  660MOL0     C90964   7.471   6.449   5.214 -0.6885  0.4748  0.0417
  660MOL0     C90965   7.398   6.447   5.343  0.7124  0.2474  0.2838
  660MOL0     O90966   7.384   6.308   5.369 -0.5443  0.0400 -0.7492
  660MOL0     C90967   7.309   6.271   5.478  0.1372  0.6697 -0.3808
  660MOL0     C90968   7.303   6.125   5.500 -0.1697  0.1198 -0.6811
  660MOL0     C90969   7.240   6.074   5.612  1.1962  0.2761 -0.0208
  660MOL0     C90970   7.226   5.923   5.621  0.2522  0.0154 -0.4419
  660MOL0     C90971   7.186   6.172   5.711  0.4226  0.1419  0.3996
  660MOL0     C90972   7.118   6.132   5.838 -0.1883  0.9023 -0.3896
  660MOL0     O90973   7.074   6.000   5.847 -0.1064 -0.2098 -0.0360
  660MOL0     C90974   6.984   5.958   5.936  1.7363  0.0875  0.6572
  660MOL0     C90975   6.954   5.995   6.071  0.0997  0.2851 -0.9637
  660MOL0     C90976   6.846   5.944   6.144  0.2169  0.2792 -0.2697
  660MOL0     C90977   6.748   5.865   6.083 -0.2360 -0.6023  1.0110
  660MOL0     O90978   6.644   5.813   6.147  0.4393 -0.4457 -0.0079
  660MOL0     C90979   6.612   5.836   6.286  0.2216 -0.3650  0.7706
  660MOL0     C90980   6.461   5.796   6.323 -0.0911  0.9914 -0.7831
  660MOL0     C90981   6.353   5.846   6.231 -0.3152 -0.7564  0.2740
  660MOL0     C90982   6.229   5.754   6.247 -0.0606  1.1342 -0.3148
  660MOL0     C90983   6.116   5.794   6.159  0.1043  0.2275  0.5125
  660MOL0     C90984   6.005   5.710   6.186 -0.1786 -0.1032 -0.1707
  660MOL0     C90985   6.031   5.550   6.177 -0.5154  0.2217 -0.4173
  660MOL0     C90986   5.898   5.506   6.234  0.1612 -0.9711  0.1448
  660MOL0    Cl90987   5.883   5.332   6.243 -0.2009  0.0319  0.2936
  660MOL0     C90988   6.767   5.842   5.938  0.2464  0.1863  0.5956
  660MOL0     C90989   6.882   5.880   5.878  0.0374 -0.0672  0.2648
  660MOL0     O90990   7.110   6.213   5.929 -0.3375 -0.1175 -0.4749
  660MOL0     C90991   7.205   6.311   5.687  0.2116  0.6052 -0.5993
  660MOL0     C90992   7.264   6.364   5.575  0.9121  0.6594 -0.2396
  660MOL0     N90993   7.838   6.736   5.085  0.4404 -0.1427 -0.0544
  660MOL0     N90994   7.869   6.863   5.093 -0.5575  1.1047  1.3322
  660MOL0     C90995   7.393   7.856   5.015  0.8003 -0.1386  0.3357
  660MOL0     C90996   7.362   7.947   5.121 -0.1499  0.6124  0.3638
  660MOL0     C90997   7.376   8.117   5.547 -0.0230  0.4171 -0.6599
  660MOL0     C90998   7.458   8.218   5.594  0.8783  0.7373  0.1709
  660MOL0     C90999   7.422   8.295   5.695  0.6370 -0.6489  0.9927
  660MOL0     C91000   7.303   8.281   5.768  0.1996  0.6648 -0.6785
  660MOL0     O91001   7.285   8.369   5.873  0.3467 -0.1292 -0.2816
  660MOL0     C91002   7.207   8.318   5.986 -0.7274  0.7734  0.0097
  660MOL0     C91003   7.192   8.419   6.092  0.9938  0.1213  0.1151
  660MOL0     C91004   7.151   8.571   6.043 -0.6529  0.0313  0.8917
  660MOL0     C91005   7.044   8.574   5.932 -0.3884 -0.3967  0.3025
  660MOL0     C91006   7.011   8.712   5.892 -0.1506 -0.1535  1.0231
  660MOL0     C91007   6.986   8.819   5.832  0.6536  0.8461 -0.0585
  660MOL0     C91008   7.205   8.188   5.715 -0.0291  0.3791  0.1840
  660MOL0     C91009   7.243   8.107   5.605  0.1873  0.0727 -1.2640
  660MOL0     C91010   7.145   7.997   5.566 -0.0637  0.1965 -0.2884
  660MOL0     H91011   7.389   7.752   5.386 -2.0096  2.5580  0.5207
  660MOL0     H91012   7.432   7.579   5.204 -0.7893 -0.4424 -0.5351
  660MOL0     H91013   7.574   7.722   4.831 -1.5852  1.1770  3.0554
  660MOL0     H91014   7.410   7.717   4.761 -0.0486 -0.8724 -0.8461
  660MOL0     H91015   7.419   7.499   4.677  1.8142 -2.1568 -0.4245
  660MOL0     H91016   7.565   7.589   4.634  0.2482 -2.6115 -1.7507
  660MOL0     H91017   7.677   7.491   4.848 -1.4593  1.8740 -0.3466
  660MOL0     H91018   7.554   7.369   4.844  2.1853 -2.9666 -1.1115
  660MOL0     H91019   7.628   7.332   4.586 -1.4631  2.6267 -0.5453
  660MOL0     H91020   7.774   7.415   4.632 -0.7248 -1.7123 -2.6735
  660MOL0     H91021   7.756   7.150   4.661 -0.9532  1.1409 -2.2473
  660MOL0     H91022   7.645   7.181   4.783 -0.6830  0.1968 -0.2926
  660MOL0     H91023   7.931   7.276   4.818  0.0283 -0.1006 -0.0165
  660MOL0     H91024   7.796   7.299   4.931  1.8867  0.9228  0.2902
  660MOL0     H91025   7.965   7.071   4.949  0.3498 -1.7447 -1.2793
  660MOL0     H91026   7.838   7.025   4.834 -5.3864  1.6674 -0.0878
  660MOL0     H91027   7.779   7.130   5.119 -2.1484 -1.8503  0.7605
  660MOL0     H91028   7.670   7.116   4.978  1.8611  3.3702 -2.0205
  660MOL0     H91029   7.550   6.885   5.030  0.2519 -2.9832  0.4737
  660MOL0     H91030   7.689   6.521   5.098 -0.7194  0.2174  1.8086
  660MOL0     H91031   7.574   6.587   4.975  1.0418  0.1822 -0.0845
  660MOL0     H91032   7.583   6.634   5.277  0.9486  2.4982 -1.6478
  660MOL0     H91033   7.441   6.673   5.172  0.2129 -0.5742 -1.4134
  660MOL0     H91034   7.413   6.406   5.132  1.5490  1.4514 -2.1674
  660MOL0     H91035   7.555   6.382   5.230 -0.7890  0.7132  1.8240
  660MOL0     H91036   7.458   6.489   5.425  0.1284  1.3194  0.1816
  660MOL0     H91037   7.301   6.496   5.335 -1.6360 -4.1842 -1.0226
  660MOL0     H91038   7.347   6.061   5.424 -1.2552 -0.2850 -0.9954
  660MOL0     H91039   7.280   5.889   5.710 -0.1574  0.7145  0.0769
  660MOL0     H91040   7.270   5.871   5.534 -4.0419 -0.0094 -2.8706
  660MOL0     H91041   7.122   5.892   5.626  0.9277 -2.4306 -0.2292
  660MOL0     H91042   7.020   6.060   6.127  0.5371 -0.9500  0.0063
  660MOL0     H91043   6.835   5.962   6.250 -2.5360  1.3887 -0.6601
  660MOL0     H91044   6.675   5.763   6.337  1.1514 -0.0053  0.1718
  660MOL0     H91045   6.633   5.938   6.322  0.1466 -0.6746  1.7177
  660MOL0     H91046   6.454   5.687   6.324 -1.9826  1.0625  1.4007
  660MOL0     H91047   6.441   5.828   6.426  1.1761 -3.4256  1.0901
  660MOL0     H91048   6.392   5.831   6.130  2.7053  0.6711  1.1026
  660MOL0     H91049   6.315   5.947   6.247  0.0792  0.0979 -3.3166
  660MOL0     H91050   6.204   5.756   6.354  0.8794  1.3922 -0.0943
  660MOL0     H91051   6.269   5.655   6.223  1.9838  2.4274 -2.7319
  660MOL0     H91052   6.082   5.896   6.180 -2.5583 -0.9794  2.6574
  660MOL0     H91053   6.150   5.796   6.055 -2.9543  1.4256 -0.5801
  660MOL0     H91054   5.932   5.741   6.110 -0.6834  4.4574  1.8613
  660MOL0     H91055   5.947   5.750   6.269 -0.5701  2.0112 -1.3892
  660MOL0     H91056   6.117   5.502   6.223 -0.9261 -0.5909 -0.4817
  660MOL0     H91057   6.037   5.529   6.070 -0.1967  2.9031 -1.0054
  660MOL0     H91058   5.811   5.545   6.180 -1.8735 -1.8895  2.5598
  660MOL0     H91059   5.879   5.547   6.334 -3.6927 -1.0970 -0.3899
  660MOL0     H91060   6.690   5.790   5.882 -1.1089  2.6398 -0.0058
  660MOL0     H91061   6.880   5.859   5.772 -1.2180 -0.8178  0.4177
  660MOL0     H91062   7.174   6.385   5.760  0.8190  2.4336 -2.1158
  660MOL0     H91063   7.274   6.470   5.557  4.7995  0.6817  1.0858
  660MOL0     H91064   7.393   7.905   4.918  1.1953  1.8032  1.2573
  660MOL0     H91065   7.348   8.054   5.108 -2.8364  0.3918  0.9325
  660MOL0     H91066   7.530   8.258   5.523 -1.6506  0.1727 -2.9196
  660MOL0     H91067   7.482   8.375   5.737 -2.5474  2.6369 -0.1881
  660MOL0     H91068   7.109   8.287   5.946 -0.5263  2.4711 -2.0031
  660MOL0     H91069   7.258   8.229   6.024 -2.2768 -0.7313 -1.2707
  660MOL0     H91070   7.290   8.421   6.141  2.0560 -0.7332 -1.8644
  660MOL0     H91071   7.123   8.380   6.168  1.6339  1.3989  1.4022
  660MOL0     H91072   7.114   8.627   6.130  0.0982  2.7897 -0.4542
  660MOL0     H91073   7.244   8.624   6.020 -1.6623  2.6086  2.3352
  660MOL0     H91074   6.954   8.539   5.984 -1.4062  3.1237  1.2047
  660MOL0     H91075   7.073   8.506   5.852  1.3112  0.2588  0.3245
  660MOL0     H91076   6.969   8.917   5.792  0.8525  1.1609  0.6001
  660MOL0     H91077   7.115   8.169   5.771  1.1946  2.0956  2.9636
  660MOL0     H91078   7.102   8.047   5.478 -0.7939  1.8318  0.9568
  660MOL0     H91079   7.195   7.903   5.543  3.8211  1.1271  3.1858
  660MOL0     H91080   7.068   7.979   5.642  1.2267 -1.6251  0.6627
  661MOL0     O91081   2.433   9.974   4.029  1.1611 -0.4161  0.9849
  661MOL0     C91082   2.327  10.043   4.005 -0.7730  0.4239 -0.5121
  661MOL0     O91083   2.193  10.011   4.042  0.0332 -0.3810 -0.6714
  661MOL0     C91084   2.182   9.891   4.110  0.9962  0.3883  0.2071
  661MOL0     C91085   2.272   9.845   4.206  1.1395 -0.6628  0.2305
  661MOL0     C91086   2.254   9.717   4.266 -0.0998 -0.1927  0.5740
  661MOL0     C91087   2.151   9.627   4.227  0.5020  0.9110 -0.5893
  661MOL0     O91088   2.121   9.501   4.285 -0.1992 -0.0964 -0.2874
  661MOL0     C91089   2.226   9.436   4.355  0.3337 -0.1385 -0.4604
  661MOL0     C91090   2.183   9.288   4.386  0.6032 -0.3358 -0.9286
  661MOL0     C91091   2.071   9.277   4.496 -0.2831 -0.4411 -0.5742
  661MOL0     C91092   2.130   9.275   4.638 -0.0914  0.1812  0.1196
  661MOL0     C91093   2.031   9.214   4.742 -0.7056  0.3413 -0.1522
  661MOL0     C91094   1.889   9.279   4.744 -0.6384  0.2497  0.3762
  661MOL0     C91095   1.822   9.253   4.879  0.5282 -0.3145 -0.3554
  661MOL0     C91096   1.770   9.108   4.892  0.0721 -0.2762 -0.4395
  661MOL0     N91097   1.796   9.040   5.022  0.0580  0.1417 -0.6489
  661MOL0     C91098   1.924   9.004   5.053  0.5839  0.3858  0.8111
  661MOL0     C91099   1.916   8.943   5.173 -0.5379 -1.2051  0.4243
  661MOL0     C91100   2.019   8.867   5.249 -0.1726  0.9944 -0.9080
  661MOL0     C91101   2.081   8.753   5.173  0.3526  0.5967  0.5460
  661MOL0     C91102   2.235   8.724   5.188  1.0053 -0.4835 -0.2990
  661MOL0     C91103   2.270   8.653   5.320 -0.2561 -0.6373 -0.1214
  661MOL0     O91104   2.225   8.518   5.308 -0.4195  0.4755  0.3417
  661MOL0     C91105   2.247   8.419   5.406  0.5131  0.4303 -0.0534
  661MOL0     C91106   2.273   8.446   5.538  0.5544 -0.8497  0.2614
  661MOL0     C91107   2.295   8.343   5.631  0.9159  0.2199  0.2967
  661MOL0     C91108   2.316   8.380   5.773 -0.4377 -0.1771 -0.4279
  661MOL0     C91109   2.279   8.203   5.596  0.1470 -1.2756 -0.3755
  661MOL0     C91110   2.302   8.097   5.694  0.3932 -0.1125  0.1530
  661MOL0     O91111   2.376   7.992   5.631  0.8125 -0.0426  0.2499
  661MOL0     C91112   2.410   7.892   5.720  0.1195  0.4514 -0.5326
  661MOL0     C91113   2.494   7.922   5.829  0.3043  0.0150 -0.8398
  661MOL0     C91114   2.529   7.823   5.923  0.1645  0.6207 -0.3930
  661MOL0     C91115   2.476   7.691   5.910 -0.0486  0.3820 -0.0958
  661MOL0     O91116   2.500   7.596   6.005 -0.6564 -0.0490 -0.3305
  661MOL0     C91117   2.514   7.639   6.138  0.4016 -0.3838 -0.7781
  661MOL0     C91118   2.453   7.528   6.227  0.0685  0.4539 -0.1773
  661MOL0     C91119   2.532   7.397   6.227  0.0580 -0.0435 -0.6559
  661MOL0     C91120   2.667   7.426   6.290  0.8026  0.3431 -0.6610
  661MOL0     C91121   2.731   7.299   6.332  0.3949 -0.6448  0.3658
  661MOL0     C91122   2.872   7.331   6.375 -0.6961 -0.2730 -0.0616
  661MOL0     C91123   2.969   7.212   6.392  0.1327  0.3188  0.6116
  661MOL0     C91124   2.930   7.120   6.506 -0.7764  0.1040 -0.9959
  661MOL0    Cl91125   2.888   7.219   6.642 -0.0800 -0.0079 -0.0497
  661MOL0     C91126   2.386   7.667   5.801 -0.0856 -0.1756  1.1805
  661MOL0     C91127   2.354   7.767   5.705  0.6978  0.1819  0.2704
  661MOL0     O91128   2.252   8.101   5.809 -0.6527 -0.6455  0.0996
  661MOL0     C91129   2.248   8.178   5.454 -0.1724  0.6902  0.2560
  661MOL0     C91130   2.237   8.287   5.368  0.1886 -0.4751  0.3782
  661MOL0     N91131   1.783   8.949   5.211 -0.6113 -0.1669  0.0833
  661MOL0     N91132   1.712   8.993   5.120  0.1735  0.4088 -0.2836
  661MOL0     C91133   2.059   9.676   4.130 -0.8173  0.0618  0.4036
  661MOL0     C91134   2.081   9.812   4.080  0.5346  1.5543  0.3018
  661MOL0     C91135   2.351  10.181   3.939  0.3340  0.5211 -0.3371
  661MOL0     C91136   2.243  10.243   3.877  0.3215  0.0171  0.0187
  661MOL0     C91137   2.254  10.376   3.829  0.5082  0.1738  0.1969
  661MOL0     C91138   2.373  10.451   3.839  0.3270  0.0593  0.3214
  661MOL0     O91139   2.371  10.574   3.785 -0.0458  0.1520 -0.7023
  661MOL0     C91140   2.459  10.667   3.831 -0.5883 -0.0547  0.1679
  661MOL0     C91141   2.440  10.716   3.971 -1.0776  0.5589  0.0490
  661MOL0     C91142   2.544  10.825   4.001  0.0837 -0.3130 -0.7355
  661MOL0     C91143   2.548  10.862   4.144  0.4338  0.3475 -0.2380
  661MOL0     C91144   2.642  10.971   4.164 -1.0471  0.3189  0.0607
  661MOL0     C91145   2.724  11.053   4.190 -0.4142 -0.8377  0.4547
  661MOL0     C91146   2.487  10.382   3.887 -0.2838 -0.0496  0.9833
  661MOL0     C91147   2.472  10.256   3.948 -0.7710 -0.1799  0.0225
  661MOL0     C91148   2.589  10.224   4.036 -0.1032  0.1434 -0.3805
  661MOL0     H91149   2.361   9.892   4.245  1.7336 -0.1121 -1.6781
  661MOL0     H91150   2.324   9.676   4.338 -0.0242 -1.2716 -0.0846
  661MOL0     H91151   2.236   9.482   4.453 -0.1495 -2.8017  0.9375
  661MOL0     H91152   2.324   9.449   4.308 -0.4452  0.6624 -1.9537
  661MOL0     H91153   2.135   9.253   4.294 -2.4612 -1.1981  0.8617
  661MOL0     H91154   2.273   9.228   4.407  2.1405  1.6164 -1.5948
  661MOL0     H91155   2.009   9.367   4.496  1.6271  1.0263  2.3083
  661MOL0     H91156   2.002   9.193   4.482  1.2472 -1.6424 -1.0534
  661MOL0     H91157   2.220   9.212   4.635  0.4098  0.7448  2.1380
  661MOL0     H91158   2.173   9.370   4.670 -0.2478  0.7960 -1.4005
  661MOL0     H91159   2.076   9.209   4.841  2.1090 -3.3139 -1.3587
  661MOL0     H91160   2.014   9.111   4.707  3.2911  0.0763 -1.9210
  661MOL0     H91161   1.909   9.385   4.728 -0.4806  0.6080  2.6675
  661MOL0     H91162   1.838   9.229   4.661  0.9035 -0.1404 -0.3751
  661MOL0     H91163   1.735   9.320   4.881  0.0487 -0.8257 -1.9429
  661MOL0     H91164   1.891   9.277   4.960  1.2586 -1.0113 -0.7594
  661MOL0     H91165   1.663   9.106   4.866 -0.6319 -0.8295  2.1747
  661MOL0     H91166   1.812   9.043   4.815 -0.8011 -0.7200 -0.5625
  661MOL0     H91167   2.016   9.009   4.996  2.2520  1.2512  3.4050
  661MOL0     H91168   1.971   8.826   5.338 -1.8927  2.5838 -1.0372
  661MOL0     H91169   2.099   8.938   5.272 -0.1415  0.5772  0.3592
  661MOL0     H91170   2.037   8.656   5.197 -1.2363  0.3990 -2.5721
  661MOL0     H91171   2.056   8.766   5.067  3.0327  1.0698 -0.0981
  661MOL0     H91172   2.258   8.658   5.104  0.4252 -0.1868 -0.6981
  661MOL0     H91173   2.274   8.827   5.187  0.0747 -0.1219 -0.4404
  661MOL0     H91174   2.376   8.659   5.347 -0.3913 -1.3753  0.5967
  661MOL0     H91175   2.223   8.694   5.409 -0.9737 -2.4160  0.3549
  661MOL0     H91176   2.272   8.550   5.568  2.2578 -0.2638 -1.4325
  661MOL0     H91177   2.398   8.335   5.830  0.3112  0.8642 -0.6620
  661MOL0     H91178   2.224   8.361   5.829 -1.6290 -0.1846 -2.2774
  661MOL0     H91179   2.325   8.488   5.763  0.1410 -0.1821  0.0203
  661MOL0     H91180   2.536   8.016   5.864 -2.6980  0.1263  3.2821
  661MOL0     H91181   2.588   7.847   6.011 -1.8509 -1.5231  1.6893
  661MOL0     H91182   2.615   7.670   6.166  1.8453 -3.9163 -1.5506
  661MOL0     H91183   2.446   7.721   6.163  2.4147  1.0928  0.1464
  661MOL0     H91184   2.449   7.566   6.329  2.0601  1.1466 -0.2928
  661MOL0     H91185   2.352   7.522   6.186 -1.2533  1.3321  2.7010
  661MOL0     H91186   2.557   7.365   6.125  1.5129  0.5347 -0.4976
  661MOL0     H91187   2.474   7.323   6.283 -3.2178  0.9753 -2.4435
  661MOL0     H91188   2.660   7.478   6.385  0.0436 -3.8562  1.8237
  661MOL0     H91189   2.734   7.464   6.212  0.7795 -0.8324 -1.2727
  661MOL0     H91190   2.672   7.247   6.408  0.5924  0.2660  1.1560
  661MOL0     H91191   2.720   7.223   6.254 -2.1819  0.3855 -0.3657
  661MOL0     H91192   2.864   7.394   6.464  2.8513 -0.3289  0.4287
  661MOL0     H91193   2.915   7.405   6.307 -4.9028  0.4108 -2.3040
  661MOL0     H91194   3.070   7.249   6.415  0.3171  0.3153 -0.1631
  661MOL0     H91195   2.978   7.149   6.303  3.1336 -1.0080  1.7230
  661MOL0     H91196   3.007   7.045   6.526  0.1080  1.2574  0.1616
  661MOL0     H91197   2.842   7.061   6.478 -0.3971 -1.1119  0.2827
  661MOL0     H91198   2.334   7.571   5.795  0.4063 -0.3537 -1.4120
  661MOL0     H91199   2.279   7.752   5.627 -0.9166 -1.8302  2.0879
  661MOL0     H91200   2.236   8.075   5.422  0.8072  0.7233 -0.2411
  661MOL0     H91201   2.221   8.265   5.263 -2.8519 -1.1180  0.8847
  661MOL0     H91202   1.983   9.606   4.096 -1.2478  0.1900  1.0794
  661MOL0     H91203   2.005   9.842   4.009 -0.9037  0.8452  1.4740
  661MOL0     H91204   2.144  10.201   3.871  0.7124 -0.6880 -3.0982
  661MOL0     H91205   2.163  10.429   3.799  0.6965  2.9466  3.8408
  661MOL0     H91206   2.562  10.631   3.829  0.2417  1.9954  1.9127
  661MOL0     H91207   2.460  10.753   3.764 -1.7008 -0.8307 -0.9105
  661MOL0     H91208   2.468  10.628   4.030  1.2937  1.5609  0.5639
  661MOL0     H91209   2.336  10.748   3.984 -1.2911  0.1535 -0.6520
  661MOL0     H91210   2.643  10.784   3.979  1.2377  0.7016  2.1269
  661MOL0     H91211   2.535  10.915   3.939 -0.7356  1.6848  2.1157
  661MOL0     H91212   2.573  10.777   4.208  0.9034  0.7062  0.0627
  661MOL0     H91213   2.449  10.895   4.179  1.5569  0.3537  3.2498
  661MOL0     H91214   2.787  11.135   4.219 -0.8248 -0.3395 -0.0547
  661MOL0     H91215   2.581  10.434   3.897 -1.9072  3.2011  0.6404
  661MOL0     H91216   2.667  10.165   3.986 -0.7092 -0.7886 -0.2480
  661MOL0     H91217   2.637  10.314   4.077 -2.5193  1.7605 -0.8648
  661MOL0     H91218   2.569  10.156   4.119  0.1479  0.1647 -0.2986
  662MOL0     O91219   7.595   1.515   3.265  0.3677 -0.4296  0.0993
  662MOL0     C91220   7.533   1.426   3.205 -0.0452  0.3320  0.6294
  662MOL0     O91221   7.426   1.440   3.126  0.1696 -0.1436 -0.2775
  662MOL0     C91222   7.343   1.553   3.130 -0.8724 -0.0616 -0.2383
  662MOL0     C91223   7.247   1.572   3.225 -0.1331 -0.4220 -0.3746
  662MOL0     C91224   7.161   1.687   3.222 -0.6769 -0.0239 -1.3004
  662MOL0     C91225   7.170   1.771   3.105 -0.2445  0.5381 -0.4837
  662MOL0     O91226   7.085   1.877   3.103 -0.6751 -0.1155 -0.8356
  662MOL0     C91227   7.119   1.986   3.016  0.1443 -0.0223 -0.5692
  662MOL0     C91228   7.029   2.098   3.044 -0.2996  0.0771 -0.7155
  662MOL0     C91229   7.066   2.215   2.956 -0.3463 -0.0757 -0.9787
  662MOL0     C91230   7.184   2.294   3.016 -0.8401 -0.7049  0.6515
  662MOL0     C91231   7.202   2.425   2.938  0.3843 -1.0018 -0.5217
  662MOL0     C91232   7.325   2.502   2.952 -0.1956  0.5386 -0.7104
  662MOL0     C91233   7.457   2.428   2.910  0.0705  0.3987  0.5340
  662MOL0     C91234   7.579   2.480   2.978  1.0142  0.4145  0.2884
  662MOL0     N91235   7.695   2.405   2.937 -0.6290 -0.5239 -0.0366
  662MOL0     C91236   7.741   2.384   2.809  0.4506  0.4399 -1.1594
  662MOL0     C91237   7.860   2.326   2.814 -0.0052  0.2702 -0.6271
  662MOL0     C91238   7.949   2.298   2.690  0.7000 -0.1739 -1.3347
  662MOL0     C91239   7.945   2.151   2.648  0.9686  0.1170  0.2892
  662MOL0     C91240   7.819   2.105   2.573  0.9667 -0.4578 -0.9059
  662MOL0     C91241   7.827   1.967   2.519 -0.1811  0.2594  0.7132
  662MOL0     O91242   7.881   1.962   2.386  0.0297 -0.5656 -0.6426
  662MOL0     C91243   7.786   1.972   2.285 -0.0135 -0.5464 -1.2643
  662MOL0     C91244   7.690   1.871   2.253  0.1454 -0.4745  0.3147
  662MOL0     C91245   7.588   1.897   2.153 -1.0415  0.2780 -0.3289
  662MOL0     C91246   7.476   1.792   2.149 -0.6700 -0.2380  0.1542
  662MOL0     C91247   7.605   2.012   2.074  0.6931  0.4547 -0.3223
  662MOL0     C91248   7.502   2.053   1.969  0.0043 -1.3194 -0.0488
  662MOL0     O91249   7.524   2.175   1.912  0.2155 -0.5482  0.1736
  662MOL0     C91250   7.451   2.226   1.801 -0.0659 -0.1766 -0.7333
  662MOL0     C91251   7.347   2.158   1.735  0.6176 -0.7733 -0.1106
  662MOL0     C91252   7.290   2.207   1.618 -0.3213  0.2335  0.0187
  662MOL0     C91253   7.331   2.329   1.566  0.0596  0.7857 -0.2955
  662MOL0     O91254   7.265   2.371   1.447  0.2030  0.2029 -0.3125
  662MOL0     C91255   7.278   2.514   1.416  0.6259 -0.2613 -0.9390
  662MOL0     C91256   7.201   2.562   1.293  0.0850  0.7083  0.0956
  662MOL0     C91257   7.051   2.594   1.315  0.4517  0.0354 -0.4856
  662MOL0     C91258   6.977   2.457   1.338  0.5519 -0.3376  0.1534
  662MOL0     C91259   6.830   2.476   1.354 -0.4810 -0.6075 -1.0524
  662MOL0     C91260   6.756   2.381   1.273  0.8465  0.1306 -0.1761
  662MOL0     C91261   6.757   2.409   1.124 -0.2934 -0.6375 -0.5190
  662MOL0     C91262   6.723   2.551   1.082  0.7096  0.5026 -0.0157
  662MOL0    Cl91263   6.674   2.566   0.913 -0.0585  0.3752 -0.3148
  662MOL0     C91264   7.429   2.403   1.641  0.2563 -0.3816  0.3158
  662MOL0     C91265   7.493   2.351   1.756  0.5771  0.6066  0.1095
  662MOL0     O91266   7.395   1.999   1.963 -0.7417 -0.2436  0.7832
  662MOL0     C91267   7.716   2.101   2.098 -0.8859  0.2866 -0.3595
  662MOL0     C91268   7.808   2.075   2.202 -0.1340 -0.8860  0.6149
  662MOL0     N91269   7.901   2.323   2.945 -0.9578  0.7985  0.0180
  662MOL0     N91270   7.800   2.367   3.015  0.0959 -1.0119  0.0380
  662MOL0     C91271   7.276   1.751   3.014  1.3056  0.0041  0.5262
  662MOL0     C91272   7.364   1.643   3.031  0.1544  0.3026 -0.2154
  662MOL0     C91273   7.595   1.293   3.205 -0.5083  0.0424  0.9638
  662MOL0     C91274   7.652   1.245   3.331  0.6312  0.1870  0.0215
  662MOL0     C91275   7.720   1.120   3.343  0.5536 -0.6492  0.7301
  662MOL0     C91276   7.719   1.032   3.229 -0.9891  0.6945  0.8215
  662MOL0     O91277   7.775   0.911   3.240  0.1172  0.7789 -0.4559
  662MOL0     C91278   7.715   0.816   3.333 -0.0168  0.0535 -0.2978
  662MOL0     C91279   7.797   0.807   3.468  0.6201 -0.7695 -0.8015
  662MOL0     C91280   7.926   0.724   3.474 -0.1046  0.1395 -0.4064
  662MOL0     C91281   7.903   0.572   3.446  0.4800  0.3004  0.9534
  662MOL0     C91282   7.943   0.536   3.308  1.0419 -0.0475 -0.4891
  662MOL0     C91283   7.971   0.519   3.187 -0.3593  0.6626  0.2202
  662MOL0     C91284   7.665   1.079   3.115  0.0017 -0.2084 -0.1571
  662MOL0     C91285   7.599   1.202   3.096 -0.8840 -0.3077  0.3482
  662MOL0     C91286   7.541   1.215   2.963 -0.3108 -0.4821 -0.6229
  662MOL0     H91287   7.264   1.494   3.299  3.4948  1.7463  1.3032
  662MOL0     H91288   7.085   1.706   3.297  2.1589  0.9490  1.5475
  662MOL0     H91289   7.119   1.950   2.912  1.0862 -4.0270  0.6510
  662MOL0     H91290   7.224   2.010   3.037 -0.4426  0.9065  1.6116
  662MOL0     H91291   6.931   2.055   3.022 -0.7245 -0.1309  1.3616
  662MOL0     H91292   7.038   2.120   3.150 -0.3586  0.3782 -0.7727
  662MOL0     H91293   7.078   2.191   2.851  1.9081 -0.5802 -0.6552
  662MOL0     H91294   6.985   2.287   2.967  0.9188  1.3479 -0.5258
  662MOL0     H91295   7.159   2.324   3.118  1.1173  1.6050  0.5482
  662MOL0     H91296   7.273   2.232   3.028  0.2758  0.9092  0.9908
  662MOL0     H91297   7.121   2.497   2.955  0.5969 -1.0639  0.8470
  662MOL0     H91298   7.197   2.395   2.833 -0.4511 -4.0379  0.3053
  662MOL0     H91299   7.318   2.599   2.903  1.3949  2.9023  3.2897
  662MOL0     H91300   7.333   2.523   3.059 -2.7892  5.1953 -1.1546
  662MOL0     H91301   7.455   2.411   2.802  0.8555 -1.2363  0.7558
  662MOL0     H91302   7.457   2.324   2.943  2.5387  0.1560  0.0024
  662MOL0     H91303   7.598   2.584   2.947  0.4722  0.2881 -0.5041
  662MOL0     H91304   7.561   2.490   3.085 -1.0447  2.5753 -0.1614
  662MOL0     H91305   7.677   2.402   2.723 -3.6984 -2.3580  1.0160
  662MOL0     H91306   8.048   2.332   2.722 -0.7999  0.6471  3.0547
  662MOL0     H91307   7.923   2.365   2.606  0.2661 -0.5230 -1.4808
  662MOL0     H91308   8.028   2.133   2.579  2.2314  0.2912  1.6978
  662MOL0     H91309   7.968   2.100   2.742  4.6448  2.5235  0.9086
  662MOL0     H91310   7.738   2.113   2.647  0.2638 -0.5239 -1.6527
  662MOL0     H91311   7.803   2.172   2.488 -0.0785 -0.1629 -0.4925
  662MOL0     H91312   7.894   1.907   2.582  0.9602  0.2178 -0.4843
  662MOL0     H91313   7.731   1.917   2.532  1.8607 -3.4779  3.6584
  662MOL0     H91314   7.673   1.793   2.327 -0.9431 -1.6048 -1.0585
  662MOL0     H91315   7.396   1.833   2.211  0.3205  0.4343  1.0303
  662MOL0     H91316   7.500   1.697   2.198 -1.2714 -1.6907 -2.2039
  662MOL0     H91317   7.451   1.771   2.045 -4.0451  1.0331  0.5770
  662MOL0     H91318   7.323   2.054   1.755  2.7274 -1.0314  1.5608
  662MOL0     H91319   7.228   2.147   1.553 -0.3472  0.4089 -0.1191
  662MOL0     H91320   7.245   2.563   1.508 -0.4136 -1.3226 -0.7112
  662MOL0     H91321   7.385   2.530   1.399  0.5179  0.7165 -0.7620
  662MOL0     H91322   7.251   2.657   1.273  0.6079  0.8411  1.8542
  662MOL0     H91323   7.210   2.494   1.208  0.4564 -0.3255  0.9331
  662MOL0     H91324   7.003   2.641   1.229  0.5039  0.9149 -0.0558
  662MOL0     H91325   7.036   2.651   1.408  1.2313 -3.5849  2.0569
  662MOL0     H91326   7.014   2.396   1.421 -3.1801 -2.2528  0.6215
  662MOL0     H91327   7.002   2.393   1.252 -1.7127 -1.1621  0.0297
  662MOL0     H91328   6.810   2.472   1.462 -0.1009  2.8236 -0.7334
  662MOL0     H91329   6.800   2.578   1.331 -0.5206 -0.5143 -0.5949
  662MOL0     H91330   6.654   2.368   1.309  0.8041  0.6755 -0.0789
  662MOL0     H91331   6.807   2.284   1.272 -0.1595 -0.4774  2.0466
  662MOL0     H91332   6.687   2.333   1.087 -1.7420  0.1867  0.3878
  662MOL0     H91333   6.854   2.377   1.085 -1.5962 -3.8071 -1.5223
  662MOL0     H91334   6.805   2.623   1.094  1.8365 -1.0138  1.9612
  662MOL0     H91335   6.640   2.581   1.146 -0.2475 -3.7725  1.0072
  662MOL0     H91336   7.467   2.496   1.600 -1.3600  1.0427  1.8716
  662MOL0     H91337   7.571   2.411   1.802  0.2691  0.9522  0.1810
  662MOL0     H91338   7.734   2.190   2.038  0.2117  0.3405  0.0347
  662MOL0     H91339   7.885   2.150   2.219  1.2358 -1.6785 -1.6195
  662MOL0     H91340   7.288   1.799   2.918  4.6523 -0.9455  0.3378
  662MOL0     H91341   7.444   1.623   2.961 -1.8336  0.0676 -2.5241
  662MOL0     H91342   7.642   1.302   3.422 -2.1819 -0.9632  0.5314
  662MOL0     H91343   7.752   1.097   3.444  1.5597 -1.3421  0.2692
  662MOL0     H91344   7.609   0.835   3.352 -1.0774 -1.7860 -3.6475
  662MOL0     H91345   7.715   0.711   3.304  3.1664  0.0816 -0.7190
  662MOL0     H91346   7.735   0.762   3.546  0.1479  3.3835  1.5169
  662MOL0     H91347   7.830   0.907   3.498 -3.0853  0.0704  0.9170
  662MOL0     H91348   8.004   0.759   3.406  2.2476  1.0022  2.4919
  662MOL0     H91349   7.976   0.743   3.570 -0.3405 -0.7850 -0.0865
  662MOL0     H91350   7.794   0.557   3.448  0.2770  1.5732  3.0591
  662MOL0     H91351   7.949   0.509   3.523  2.8078  3.3820  2.3085
  662MOL0     H91352   7.989   0.496   3.084 -2.1599  0.7568 -0.1648
  662MOL0     H91353   7.653   1.005   3.035 -1.4304  0.5249 -0.6616
  662MOL0     H91354   7.464   1.138   2.952  2.1838 -2.8311 -3.3230
  662MOL0     H91355   7.511   1.315   2.933  2.0786 -0.2956 -2.7721
  662MOL0     H91356   7.626   1.192   2.898 -1.3768 -2.6129 -1.3617
  663MOL0     O91357   5.566  11.516   9.161  0.2463  0.4786 -0.3488
  663MOL0     C91358   5.461  11.575   9.162  0.7022 -0.0568 -0.6324
  663MOL0     O91359   5.336  11.518   9.161 -0.3249  0.1035 -0.4565
  663MOL0     C91360   5.331  11.383   9.138  0.1709  0.8224 -0.2105
  663MOL0     C91361   5.278  11.300   9.235 -0.1023 -0.1728 -0.0538
  663MOL0     C91362   5.260  11.166   9.205 -0.4576  0.5583  0.0432
  663MOL0     C91363   5.316  11.098   9.094 -0.1740 -0.5031 -0.6373
  663MOL0     O91364   5.307  10.968   9.079 -0.9342 -0.2282 -0.4084
  663MOL0     C91365   5.280  10.887   9.196  0.2949 -0.7115  0.0550
  663MOL0     C91366   5.306  10.740   9.148 -0.0943 -0.9417  0.3906
  663MOL0     C91367   5.259  10.645   9.249  0.3316  1.2717 -0.1487
  663MOL0     C91368   5.346  10.648   9.375 -0.5841 -0.1244 -0.7681
  663MOL0     C91369   5.251  10.651   9.498 -1.2082  0.5556 -0.3022
  663MOL0     C91370   5.308  10.598   9.638 -0.0434  0.8734  0.1664
  663MOL0     C91371   5.439  10.651   9.674 -0.5414 -0.3646 -0.5325
  663MOL0     C91372   5.447  10.806   9.674 -0.9722 -0.3966  0.2509
  663MOL0     N91373   5.344  10.848   9.763 -1.4319  0.0635 -0.3570
  663MOL0     C91374   5.351  10.861   9.904 -0.3536 -0.0423  0.0795
  663MOL0     C91375   5.234  10.912   9.947  0.5855 -0.3438  0.9809
  663MOL0     C91376   5.179  10.939  10.075 -0.3313  0.0879  0.3190
  663MOL0     C91377   5.066  10.848  10.116 -0.3473 -1.3821 -0.2816
  663MOL0     C91378   5.117  10.706  10.131 -0.5207 -0.6495  0.2900
  663MOL0     C91379   5.065  10.637  10.256  0.6715  0.4401  0.0236
  663MOL0     O91380   4.926  10.618  10.239  0.1879 -0.2937  0.5415
  663MOL0     C91381   4.835  10.609  10.343  0.4444 -0.8760 -0.0033
  663MOL0     C91382   4.716  10.538  10.324 -0.0095 -0.3197  0.5465
  663MOL0     C91383   4.618  10.506  10.424 -0.5230 -0.2202 -0.9410
  663MOL0     C91384   4.497  10.427  10.371 -0.1198 -0.2861  0.0639
  663MOL0     C91385   4.647  10.536  10.561 -0.8564  0.3730  0.0792
  663MOL0     C91386   4.560  10.504  10.679  0.2606 -0.0005  0.1085
  663MOL0     O91387   4.495  10.383  10.672 -0.2997  0.0070  0.4454
  663MOL0     C91388   4.444  10.340  10.784  0.9877 -0.0727  0.4750
  663MOL0     C91389   4.329  10.398  10.851 -0.1507 -0.3348 -0.4789
  663MOL0     C91390   4.281  10.343  10.962  0.4022  0.1197 -0.1594
  663MOL0     C91391   4.330  10.226  11.018  0.4024 -0.7216 -0.3173
  663MOL0     O91392   4.259  10.169  11.130 -0.1998 -0.7740  1.0423
  663MOL0     C91393   4.282  10.030  11.147  0.5712 -0.9578 -0.0096
  663MOL0     C91394   4.229   9.964  11.277 -0.2616 -0.3735  0.3624
  663MOL0     C91395   4.292  10.046  11.386 -0.3830  0.1581 -0.1405
  663MOL0     C91396   4.268   9.997  11.529 -1.7846  0.2404 -0.2452
  663MOL0     C91397   4.361  10.071  11.638  0.7251  0.7500 -0.2067
  663MOL0     C91398   4.508  10.047  11.615 -0.1360  0.5748  0.5325
  663MOL0     C91399   4.523   9.890  11.608  0.2143 -0.7409  0.3076
  663MOL0     C91400   4.673   9.842  11.611 -0.6683 -0.7192 -0.2946
  663MOL0    Cl91401   4.769   9.886  11.767 -0.4087 -0.2813  0.0538
  663MOL0     C91402   4.440  10.168  10.946 -0.3622  0.3956 -0.3956
  663MOL0     C91403   4.494  10.230  10.841  0.1929 -0.2930  0.5646
  663MOL0     O91404   4.562  10.578  10.773  0.5768 -0.8455 -0.6108
  663MOL0     C91405   4.770  10.607  10.584 -0.4017 -0.0822  0.1178
  663MOL0     C91406   4.865  10.644  10.479 -0.1273 -0.5103 -0.5728
  663MOL0     N91407   5.169  10.946   9.829 -0.5784  0.4428  0.2413
  663MOL0     N91408   5.228  10.899   9.720 -0.4609  0.1380 -0.0216
  663MOL0     C91409   5.371  11.189   9.004  0.1796 -0.5982 -0.4723
  663MOL0     C91410   5.385  11.330   9.024  1.4397 -0.1240  0.8476
  663MOL0     C91411   5.461  11.724   9.180 -0.3651  0.0297  0.5733
  663MOL0     C91412   5.330  11.775   9.197  0.2636  0.1799  0.2931
  663MOL0     C91413   5.325  11.910   9.219  0.0610  0.3870 -0.0427
  663MOL0     C91414   5.437  11.998   9.212 -0.7791 -0.4408  1.3268
  663MOL0     O91415   5.436  12.132   9.227 -0.5495  0.0586  0.7416
  663MOL0     C91416   5.326  12.196   9.166 -0.4996  0.1328 -0.5010
  663MOL0     C91417   5.383  12.316   9.101 -0.1105 -0.3917  1.1854
  663MOL0     C91418   5.281  12.422   9.049 -0.1928 -0.8250  0.6345
  663MOL0     C91419   5.209  12.504   9.152 -0.3226  0.5863  0.1463
  663MOL0     C91420   5.293  12.603   9.212 -0.5280  0.2922 -0.8478
  663MOL0     C91421   5.353  12.698   9.259  0.0500 -0.2066 -0.5104
  663MOL0     C91422   5.563  11.943   9.195  0.5154 -0.6222 -0.6092
  663MOL0     C91423   5.579  11.807   9.175  0.1022  0.5780  0.1825
  663MOL0     C91424   5.724  11.749   9.184 -0.3091 -0.5450 -0.2495
  663MOL0     H91425   5.239  11.340   9.328  0.1354 -1.3978  0.5900
  663MOL0     H91426   5.211  11.123   9.292 -0.2846 -0.3866 -0.3149
  663MOL0     H91427   5.172  10.889   9.215  0.2789  0.0862 -0.0825
  663MOL0     H91428   5.343  10.907   9.283  1.6327  0.2607 -1.1013
  663MOL0     H91429   5.243  10.723   9.061 -2.4201  2.0082  1.3531
  663MOL0     H91430   5.414  10.734   9.132 -0.2039  1.0530 -1.5808
  663MOL0     H91431   5.153  10.659   9.273 -0.5000 -0.4045 -2.5225
  663MOL0     H91432   5.255  10.549   9.197 -1.1860  2.5503 -2.5753
  663MOL0     H91433   5.409  10.558   9.382 -1.2498 -0.5339  0.2373
  663MOL0     H91434   5.423  10.725   9.380  1.1363 -1.8096  0.4330
  663MOL0     H91435   5.157  10.598   9.484 -0.6221 -0.3770 -0.8803
  663MOL0     H91436   5.215  10.754   9.506 -0.7538  0.9272 -2.3076
  663MOL0     H91437   5.234  10.615   9.717 -1.2634  0.1707 -0.7933
  663MOL0     H91438   5.314  10.490   9.627 -0.2180  0.8236  0.5783
  663MOL0     H91439   5.517  10.611   9.608 -0.2621 -1.9669  0.7229
  663MOL0     H91440   5.463  10.605   9.770 -0.8331 -2.3989 -1.3937
  663MOL0     H91441   5.547  10.832   9.710  0.3770  1.1693 -3.9561
  663MOL0     H91442   5.432  10.853   9.576  0.1146 -0.3800  0.0728
  663MOL0     H91443   5.435  10.832   9.966  0.7250  5.1930  1.5435
  663MOL0     H91444   5.141  11.042  10.076  3.0665  1.4699  0.2866
  663MOL0     H91445   5.259  10.943  10.150  0.6331 -1.2069 -0.6172
  663MOL0     H91446   5.026  10.888  10.209  1.7617 -1.2746  0.6407
  663MOL0     H91447   4.983  10.845  10.045 -0.4636  0.3951 -0.2732
  663MOL0     H91448   5.070  10.653  10.047 -0.7133 -0.6574  0.4034
  663MOL0     H91449   5.226  10.697  10.130 -0.2597  0.5126  3.9796
  663MOL0     H91450   5.106  10.537  10.270  0.3942  0.4657  1.1429
  663MOL0     H91451   5.085  10.698  10.345  0.4966  1.3113 -0.5251
  663MOL0     H91452   4.697  10.488  10.230  0.3604 -0.0060  0.2989
  663MOL0     H91453   4.419  10.445  10.445 -1.1343 -0.1217 -1.0105
  663MOL0     H91454   4.520  10.320  10.363  0.3043 -0.2353  0.5932
  663MOL0     H91455   4.481  10.452  10.265  4.1477 -2.9731 -1.5090
  663MOL0     H91456   4.280  10.485  10.808 -1.3088  0.4486  2.1971
  663MOL0     H91457   4.202  10.391  11.020 -1.5654 -2.3076 -0.6200
  663MOL0     H91458   4.252   9.980  11.055  2.5214 -0.8291 -0.7595
  663MOL0     H91459   4.390  10.015  11.159  0.2707 -2.8512  0.6825
  663MOL0     H91460   4.120   9.973  11.282 -0.4161 -0.0056 -2.1784
  663MOL0     H91461   4.258   9.858  11.280 -0.6495 -0.5752 -1.6004
  663MOL0     H91462   4.265  10.152  11.388  3.0748  1.1672  1.4829
  663MOL0     H91463   4.400  10.044  11.367 -0.4675 -1.1301 -0.6093
  663MOL0     H91464   4.269   9.889  11.540  0.4943 -0.3266 -4.3412
  663MOL0     H91465   4.167  10.030  11.554 -1.7279  0.4071 -0.2292
  663MOL0     H91466   4.332  10.176  11.638 -0.0562  0.5516  0.6839
  663MOL0     H91467   4.340  10.030  11.738  0.1604  1.7764  0.1124
  663MOL0     H91468   4.565  10.087  11.699  0.9076 -0.2002  0.2045
  663MOL0     H91469   4.537  10.102  11.525 -0.7220 -1.1724 -0.7775
  663MOL0     H91470   4.483   9.846  11.516  0.1975  0.0357 -0.0574
  663MOL0     H91471   4.479   9.842  11.696 -1.4544  1.3040  0.6549
  663MOL0     H91472   4.735   9.895  11.538 -0.9013  0.1681  0.1430
  663MOL0     H91473   4.673   9.734  11.592 -0.0044 -0.4500 -2.0048
  663MOL0     H91474   4.490  10.075  10.970  0.5177  0.4970 -1.7780
  663MOL0     H91475   4.580  10.189  10.789  1.0980  0.4476  1.4264
  663MOL0     H91476   4.788  10.641  10.685 -0.4183 -1.2006  0.5080
  663MOL0     H91477   4.942  10.717  10.501 -3.4292  2.5261  2.1969
  663MOL0     H91478   5.401  11.158   8.905 -1.2643  1.5877 -1.6847
  663MOL0     H91479   5.443  11.386   8.952  1.1057 -1.9952 -0.9672
  663MOL0     H91480   5.236  11.722   9.208  1.5302 -1.9619  1.6709
  663MOL0     H91481   5.227  11.958   9.223  0.5215  1.3126  0.5020
  663MOL0     H91482   5.278  12.141   9.085  0.7789  2.7713 -3.2593
  663MOL0     H91483   5.252  12.209   9.245  0.3459 -2.4982  0.8483
  663MOL0     H91484   5.454  12.288   9.023 -1.3876  3.8849 -1.9015
  663MOL0     H91485   5.449  12.361   9.176  2.2264 -0.7217 -0.5651
  663MOL0     H91486   5.341  12.474   8.974  1.5970  1.4109  3.3964
  663MOL0     H91487   5.208  12.362   8.995  1.1005 -1.4082 -0.5471
  663MOL0     H91488   5.178  12.426   9.222  3.2195 -3.3714 -2.2430
  663MOL0     H91489   5.125  12.562   9.113 -0.6092 -0.3591 -0.6755
  663MOL0     H91490   5.408  12.771   9.315 -0.6383 -0.8587  1.0781
  663MOL0     H91491   5.644  12.014   9.205 -2.4324  2.7908  1.9069
  663MOL0     H91492   5.802  11.822   9.161 -0.5159 -0.1423  0.3063
  663MOL0     H91493   5.737  11.712   9.286 -3.3609  0.7736  0.7350
  663MOL0     H91494   5.736  11.660   9.121  1.0872 -1.3736  1.1027
  664MOL0     O91495   5.543   7.962  10.621 -0.9621  0.4947 -0.3824
  664MOL0     C91496   5.639   8.044  10.621 -1.2009 -1.0595  0.3383
  664MOL0     O91497   5.761   8.027  10.554  0.1909 -0.4505 -0.0232
  664MOL0     C91498   5.762   7.926  10.455 -0.5587  0.1991 -0.3470
  664MOL0     C91499   5.893   7.905  10.419  0.2869  0.3173 -0.7546
  664MOL0     C91500   5.925   7.816  10.318 -0.3273 -0.5245 -0.4863
  664MOL0     C91501   5.828   7.739  10.255 -0.4621 -0.2607 -0.8128
  664MOL0     O91502   5.845   7.646  10.150  0.1109  0.0589 -0.3919
  664MOL0     C91503   5.974   7.612  10.126 -0.0310  0.3210 -0.3389
  664MOL0     C91504   5.965   7.506  10.016  0.2709  0.0514  0.1003
  664MOL0     C91505   5.932   7.368  10.076  0.7687 -0.6163 -0.6946
  664MOL0     C91506   5.939   7.252   9.981  0.1819  0.0593  0.8464
  664MOL0     C91507   5.825   7.146  10.020  0.4537 -0.1763  0.1846
  664MOL0     C91508   5.868   7.057  10.138 -0.4866  0.0333 -0.5846
  664MOL0     C91509   5.974   6.959  10.089 -0.0832 -0.2683  0.8346
  664MOL0     C91510   6.069   6.922  10.201  0.0919  0.0921 -0.4232
  664MOL0     N91511   6.002   6.853  10.306  0.2096  0.5128 -0.6826
  664MOL0     C91512   5.992   6.887  10.439 -0.1463 -0.1679 -0.1087
  664MOL0     C91513   5.923   6.786  10.487  0.1655 -0.1653  0.5532
  664MOL0     C91514   5.860   6.767  10.628 -0.5987  1.1525  0.7898
  664MOL0     C91515   5.970   6.751  10.722  0.3406  1.5225  0.3767
  664MOL0     C91516   6.057   6.622  10.708 -0.4671 -0.0097  0.0012
  664MOL0     C91517   6.144   6.593  10.841  0.1059 -0.0307 -0.1710
  664MOL0     O91518   6.173   6.446  10.853 -0.1026 -0.8459 -0.1970
  664MOL0     C91519   6.277   6.393  10.778 -0.5718  0.6030  0.6656
  664MOL0     C91520   6.264   6.258  10.733  0.9188 -0.0251  0.1991
  664MOL0     C91521   6.348   6.205  10.631 -1.1005  0.1532 -0.3645
  664MOL0     C91522   6.313   6.070  10.585 -0.3390 -0.5320  0.0127
  664MOL0     C91523   6.458   6.283  10.583  0.0159 -0.2138 -0.2709
  664MOL0     C91524   6.564   6.245  10.478  0.4515 -0.6917  0.1548
  664MOL0     O91525   6.612   6.352  10.402  0.3412 -0.1507 -0.7235
  664MOL0     C91526   6.740   6.337  10.349 -0.9330 -0.1478  0.3533
  664MOL0     C91527   6.855   6.317  10.431  0.3245 -0.3210  0.3784
  664MOL0     C91528   6.987   6.334  10.380 -0.6642  0.0577  0.4196
  664MOL0     C91529   7.001   6.368  10.245 -0.2853  0.6306 -0.4586
  664MOL0     O91530   7.130   6.385  10.194  1.4704  0.4623  0.8524
  664MOL0     C91531   7.218   6.497  10.242  0.7942  0.7000  0.3840
  664MOL0     C91532   7.335   6.452  10.338 -0.9408  0.8792 -0.3916
  664MOL0     C91533   7.439   6.365  10.261  0.4169  0.0676 -0.1723
  664MOL0     C91534   7.532   6.445  10.167  0.8201  0.5396 -0.2755
  664MOL0     C91535   7.625   6.357  10.088 -0.2165  0.3165  0.5971
  664MOL0     C91536   7.687   6.425   9.975 -0.1452  0.2176 -0.3682
  664MOL0     C91537   7.781   6.342   9.893 -0.0199  0.4750  0.3276
  664MOL0     C91538   7.819   6.404   9.747 -0.3143 -0.1667 -0.5868
  664MOL0    Cl91539   7.879   6.575   9.753 -0.4573 -0.0778  0.1592
  664MOL0     C91540   6.890   6.380  10.162  0.6717  0.0061 -0.3422
  664MOL0     C91541   6.758   6.365  10.215 -0.5546  0.7281  1.3985
  664MOL0     O91542   6.609   6.133  10.476  0.2021  0.2039 -0.0065
  664MOL0     C91543   6.474   6.402  10.649 -0.6983  0.0170 -0.8335
  664MOL0     C91544   6.390   6.461  10.746  0.3096  0.0537 -0.1365
  664MOL0     N91545   5.896   6.691  10.388 -0.0384  0.6889  0.5524
  664MOL0     N91546   5.951   6.732  10.277  0.6714  0.1381  0.1462
  664MOL0     C91547   5.697   7.774  10.281 -0.5862 -0.0262  0.0668
  664MOL0     C91548   5.660   7.860  10.386  0.3216 -0.7290  0.1632
  664MOL0     C91549   5.611   8.177  10.693 -0.1847 -0.2176 -0.1464
  664MOL0     C91550   5.723   8.235  10.764 -0.2034  0.1033  0.2406
  664MOL0     C91551   5.705   8.361  10.824  0.1433 -0.0150 -0.5828
  664MOL0     C91552   5.589   8.425  10.826 -0.4131  0.3125  0.5304
  664MOL0     O91553   5.571   8.542  10.892 -0.8946  0.3361 -0.9463
  664MOL0     C91554   5.639   8.654  10.829  0.3990  0.9488  0.0494
  664MOL0     C91555   5.581   8.778  10.876 -0.6463  0.0756 -0.3173
  664MOL0     C91556   5.596   8.810  11.025  0.7378 -0.0564 -0.3207
  664MOL0     C91557   5.506   8.726  11.117  0.0733 -0.1127 -0.3086
  664MOL0     C91558   5.527   8.763  11.260 -0.0569 -0.0897  0.4327
  664MOL0     C91559   5.553   8.775  11.383  0.5586 -0.7407  0.2269
  664MOL0     C91560   5.489   8.375  10.749  1.7658 -0.2309  0.1776
  664MOL0     C91561   5.486   8.253  10.689 -1.0039 -0.2371  0.1583
  664MOL0     C91562   5.364   8.206  10.619 -0.3064 -0.2344  0.5777
  664MOL0     H91563   5.971   7.959  10.471  1.6818 -1.4306 -0.9372
  664MOL0     H91564   6.032   7.796  10.308  0.5130  1.1144  3.4189
  664MOL0     H91565   6.007   7.567  10.220  1.4345 -0.0286 -0.9813
  664MOL0     H91566   6.041   7.691  10.091  1.6969 -2.4268 -3.9316
  664MOL0     H91567   5.899   7.545   9.939 -0.3535  0.1604  0.6773
  664MOL0     H91568   6.058   7.494   9.960 -0.5064 -1.1038 -0.9747
  664MOL0     H91569   6.002   7.340  10.155 -1.3651 -2.4904  0.6494
  664MOL0     H91570   5.834   7.378  10.125  0.1072 -0.9223 -1.9069
  664MOL0     H91571   5.937   7.287   9.878  1.4753  0.1977  0.8543
  664MOL0     H91572   6.032   7.197   9.996 -0.8894 -1.5556  2.0186
  664MOL0     H91573   5.820   7.089   9.927 -2.6273  1.3552 -0.7285
  664MOL0     H91574   5.732   7.203  10.034 -1.2514 -1.7262 -3.4064
  664MOL0     H91575   5.899   7.131  10.211  2.1317  1.8498 -3.3169
  664MOL0     H91576   5.786   6.993  10.173 -1.9482  1.5733 -1.0604
  664MOL0     H91577   6.040   6.996  10.010 -0.0537  0.9505  1.4067
  664MOL0     H91578   5.920   6.869  10.057 -0.3879 -0.9599  3.1193
  664MOL0     H91579   6.140   6.846  10.166  0.1524 -0.3535  0.6329
  664MOL0     H91580   6.118   7.013  10.234 -3.7653  1.0221  3.5869
  664MOL0     H91581   6.010   6.980  10.493  0.7802 -0.9467  0.9811
  664MOL0     H91582   5.787   6.687  10.637  0.5033 -0.3155 -2.1448
  664MOL0     H91583   5.798   6.855  10.650 -0.7934  1.3960 -0.6266
  664MOL0     H91584   6.044   6.832  10.719  0.5320  1.3988  1.5874
  664MOL0     H91585   5.931   6.749  10.824  1.5831 -1.2422  0.9003
  664MOL0     H91586   6.000   6.533  10.680  0.6271 -0.2924 -1.4082
  664MOL0     H91587   6.120   6.640  10.621 -1.3568  1.4950 -0.3805
  664MOL0     H91588   6.229   6.661  10.847  0.4786 -0.5256  0.1772
  664MOL0     H91589   6.078   6.630  10.921 -1.7759 -0.1787 -1.5778
  664MOL0     H91590   6.176   6.200  10.758 -1.6013  2.7098 -1.6370
  664MOL0     H91591   6.205   6.058  10.575 -0.1359 -0.6887 -3.2369
  664MOL0     H91592   6.354   6.006  10.664  0.1732  1.7588  1.6872
  664MOL0     H91593   6.359   6.068  10.485 -3.4782  3.0791 -1.7580
  664MOL0     H91594   6.836   6.294  10.536 -2.7449 -0.4953 -0.1249
  664MOL0     H91595   7.077   6.317  10.438 -2.0905 -2.8583  1.9963
  664MOL0     H91596   7.266   6.548  10.158 -2.6610  1.2124 -1.4474
  664MOL0     H91597   7.161   6.570  10.299  0.2086  0.6924 -0.1813
  664MOL0     H91598   7.392   6.540  10.369  2.2047  0.1513 -3.3814
  664MOL0     H91599   7.290   6.404  10.425 -0.3031  0.2940 -0.3797
  664MOL0     H91600   7.383   6.288  10.206  0.7204 -0.3261  0.0623
  664MOL0     H91601   7.512   6.310  10.321  1.4200  0.6561 -0.8261
  664MOL0     H91602   7.585   6.514  10.234 -2.6468  2.2056  0.9574
  664MOL0     H91603   7.473   6.514  10.105  1.3908  1.4173  0.1346
  664MOL0     H91604   7.692   6.312  10.161  1.1014 -1.6918 -1.7105
  664MOL0     H91605   7.562   6.279  10.044 -2.8528  2.5206  0.1752
  664MOL0     H91606   7.750   6.510  10.005  1.4027 -0.7167 -0.8501
  664MOL0     H91607   7.599   6.466   9.924 -2.6432 -2.1760  1.7074
  664MOL0     H91608   7.736   6.247   9.864  2.3580 -0.2791 -1.1847
  664MOL0     H91609   7.877   6.328   9.944  2.2875  0.6325 -3.5154
  664MOL0     H91610   7.725   6.406   9.690 -2.4001  1.5827  2.5578
  664MOL0     H91611   7.897   6.344   9.700  0.6269  0.4458  0.1593
  664MOL0     H91612   6.904   6.405  10.057 -1.4316  1.9460 -0.2423
  664MOL0     H91613   6.666   6.373  10.158 -0.2356  1.6924  0.9964
  664MOL0     H91614   6.568   6.452  10.629  0.5192 -0.3998  2.9816
  664MOL0     H91615   6.405   6.566  10.773 -1.6815  0.6444 -1.1308
  664MOL0     H91616   5.612   7.737  10.225 -1.0301 -1.6458  1.7032
  664MOL0     H91617   5.554   7.881  10.399 -0.0044 -0.8644 -1.9949
  664MOL0     H91618   5.813   8.175  10.779 -2.1042 -2.8988  0.3820
  664MOL0     H91619   5.784   8.400  10.888 -1.5520  1.1142  0.9246
  664MOL0     H91620   5.744   8.646  10.857  0.5392 -0.4316 -0.7550
  664MOL0     H91621   5.634   8.644  10.720 -2.4895  0.7485  0.1212
  664MOL0     H91622   5.474   8.774  10.851  0.2317 -0.6955 -4.9145
  664MOL0     H91623   5.619   8.855  10.808 -1.0704 -0.2519 -0.9433
  664MOL0     H91624   5.701   8.807  11.057  0.0995  4.1755  2.9102
  664MOL0     H91625   5.567   8.914  11.036 -0.0750 -0.0815 -1.9818
  664MOL0     H91626   5.528   8.621  11.094 -1.4602 -0.8861  1.4291
  664MOL0     H91627   5.403   8.747  11.088 -0.5501 -1.1173  1.0627
  664MOL0     H91628   5.580   8.780  11.486 -1.0012  2.1713  0.5949
  664MOL0     H91629   5.402   8.440  10.747  1.7016 -0.3381 -1.2317
  664MOL0     H91630   5.376   8.115  10.559  1.8348 -2.0161  3.4319
  664MOL0     H91631   5.287   8.182  10.693 -2.4700  1.4248 -1.0229
  664MOL0     H91632   5.323   8.295  10.571 -1.1845  1.5269  4.2786
  665MOL0     O91633   7.953  10.569  10.147 -0.1570  0.2496 -0.4346
  665MOL0     C91634   8.070  10.600  10.136 -0.0179  0.4942  0.1570
  665MOL0     O91635   8.129  10.648  10.026  0.7804 -0.4126 -0.3263
  665MOL0     C91636   8.073  10.668   9.902  0.7008  0.4761  0.2516
  665MOL0     C91637   7.962  10.597   9.852  0.3825 -0.6752 -0.4340
  665MOL0     C91638   7.933  10.618   9.713  0.0704 -0.3709  0.4041
  665MOL0     C91639   8.025  10.690   9.633 -0.0239 -0.4604  0.2508
  665MOL0     O91640   8.006  10.700   9.499  0.2854  0.4044 -0.8229
  665MOL0     C91641   7.987  10.829   9.447 -0.2375  1.3597 -0.1181
  665MOL0     C91642   7.836  10.866   9.492  0.8825 -0.4439  0.8061
  665MOL0     C91643   7.781  11.007   9.447 -0.3302 -0.3038 -0.5212
  665MOL0     C91644   7.860  11.128   9.508 -0.0127 -0.1015 -0.4530
  665MOL0     C91645   7.846  11.150   9.659 -0.3277  0.2949  0.1175
  665MOL0     C91646   7.700  11.191   9.691 -0.0441 -0.8652  0.2408
  665MOL0     C91647   7.669  11.247   9.835  0.0514  0.6543  0.2458
  665MOL0     C91648   7.679  11.148   9.952 -0.3345 -0.0207  1.3799
  665MOL0     N91649   7.651  11.222  10.079 -1.6186 -1.3675  0.2978
  665MOL0     C91650   7.752  11.298  10.140  0.0999 -0.2004 -0.2220
  665MOL0     C91651   7.687  11.344  10.251 -1.0346 -0.1772  1.0620
  665MOL0     C91652   7.746  11.435  10.358 -0.1958 -0.5207 -0.1971
  665MOL0     C91653   7.678  11.430  10.500  0.0169  0.2255  0.2115
  665MOL0     C91654   7.740  11.533  10.591  0.1769 -0.2103  0.5429
  665MOL0     C91655   7.889  11.552  10.593 -0.2152  0.2183 -0.1320
  665MOL0     O91656   7.918  11.679  10.653  0.5706  0.0310  0.7036
  665MOL0     C91657   8.043  11.707  10.685  0.2653 -0.4520  0.3327
  665MOL0     C91658   8.142  11.700  10.593  0.0724  0.0703 -0.0552
  665MOL0     C91659   8.272  11.745  10.617  0.1399 -0.1015 -0.3156
  665MOL0     C91660   8.372  11.753  10.503  0.1803 -0.9363 -0.5160
  665MOL0     C91661   8.302  11.773  10.753 -0.1252  0.7693 -0.2639
  665MOL0     C91662   8.438  11.797  10.798 -1.3654 -0.2014  1.0813
  665MOL0     O91663   8.460  11.823  10.931  0.0878  0.2969 -0.0300
  665MOL0     C91664   8.568  11.890  10.977 -0.4806 -0.5963  0.6876
  665MOL0     C91665   8.642  11.982  10.902 -0.0180 -1.0251  0.4559
  665MOL0     C91666   8.745  12.057  10.965 -0.2849  0.2261 -0.7070
  665MOL0     C91667   8.785  12.026  11.096  0.1941 -1.0620  0.8593
  665MOL0     O91668   8.891  12.087  11.154 -0.5962 -0.1779 -0.6946
  665MOL0     C91669   8.891  12.221  11.183  0.6074  0.1481 -0.2741
  665MOL0     C91670   8.770  12.267  11.266  0.0693 -0.8362  0.2117
  665MOL0     C91671   8.739  12.207  11.396  0.0212  0.2424  0.0023
  665MOL0     C91672   8.610  12.263  11.454 -0.0885  0.8418  0.7057
  665MOL0     C91673   8.555  12.208  11.587 -0.0462  0.8153  0.4396
  665MOL0     C91674   8.558  12.061  11.592  0.1343 -0.1472  0.7345
  665MOL0     C91675   8.512  12.000  11.718  0.6593  0.1921  0.3554
  665MOL0     C91676   8.510  11.855  11.719 -0.4074  0.9230 -0.4601
  665MOL0    Cl91677   8.430  11.790  11.861  0.0981  0.5671 -0.1438
  665MOL0     C91678   8.713  11.928  11.161  0.1998  0.2097  0.3549
  665MOL0     C91679   8.602  11.865  11.109 -0.6093 -0.6162  0.2415
  665MOL0     O91680   8.532  11.810  10.713  0.1612  0.1699  0.2316
  665MOL0     C91681   8.205  11.764  10.852  0.5257  0.8559  0.2196
  665MOL0     C91682   8.068  11.742  10.819  0.5718 -0.4290 -0.9708
  665MOL0     N91683   7.549  11.314  10.243  0.4581  0.6002  0.4167
  665MOL0     N91684   7.536  11.233  10.143  1.3177 -0.1319 -0.6532
  665MOL0     C91685   8.125  10.771   9.693 -0.6254 -0.4588  0.4299
  665MOL0     C91686   8.150  10.758   9.830  0.1635 -0.0133 -0.6515
  665MOL0     C91687   8.162  10.597  10.255  0.3898 -0.0755  0.4934
  665MOL0     C91688   8.300  10.625  10.224 -0.7585  0.1313  0.6308
  665MOL0     C91689   8.403  10.613  10.316  0.0728  0.0645  0.0698
  665MOL0     C91690   8.362  10.600  10.451 -0.9179  0.7909  0.2663
  665MOL0     O91691   8.452  10.602  10.554 -0.2832  0.1269  0.9367
  665MOL0     C91692   8.580  10.663  10.528 -0.0029  0.0889 -0.4843
  665MOL0     C91693   8.676  10.679  10.640 -0.2213  0.0559  0.1328
  665MOL0     C91694   8.706  10.534  10.693  0.5067  0.0057 -0.1202
  665MOL0     C91695   8.802  10.542  10.809  0.1131  0.3980 -0.7319
  665MOL0     C91696   8.864  10.407  10.817  0.4668  0.5108  0.1364
  665MOL0     C91697   8.897  10.292  10.815 -0.3572 -0.4930  0.4838
  665MOL0     C91698   8.225  10.566  10.481 -0.8066 -0.1620 -0.7175
  665MOL0     C91699   8.124  10.567  10.386 -0.6155 -0.4333  0.6650
  665MOL0     C91700   7.990  10.539  10.443  0.5866 -0.2028  0.4950
  665MOL0     H91701   7.897  10.534   9.912 -0.3025 -0.2131 -0.6688
  665MOL0     H91702   7.844  10.576   9.668  0.1382  0.6985 -0.7857
  665MOL0     H91703   7.993  10.816   9.338 -1.0576 -1.0932  0.0854
  665MOL0     H91704   8.062  10.898   9.487 -0.6940  0.1144  3.1992
  665MOL0     H91705   7.767  10.788   9.459  0.0436  0.5397  0.1780
  665MOL0     H91706   7.831  10.859   9.601 -2.9356  0.6430  0.8497
  665MOL0     H91707   7.781  11.024   9.339 -0.0552  4.0970  0.0038
  665MOL0     H91708   7.674  11.003   9.467 -0.2253 -2.4569 -0.0907
  665MOL0     H91709   7.965  11.119   9.477  0.8767  1.6943  1.8157
  665MOL0     H91710   7.824  11.211   9.447  1.0833 -0.1775 -1.2445
  665MOL0     H91711   7.916  11.233   9.674  2.4975 -2.0804  0.8535
  665MOL0     H91712   7.882  11.064   9.716  2.1897  0.7732 -0.6393
  665MOL0     H91713   7.673  11.270   9.620  0.6912  0.6259  1.5483
  665MOL0     H91714   7.631  11.109   9.672  0.0563 -0.6241 -1.3371
  665MOL0     H91715   7.566  11.284   9.835  0.4291  1.7808 -1.2085
  665MOL0     H91716   7.730  11.337   9.849  0.8247  0.1112  0.3968
  665MOL0     H91717   7.607  11.065   9.952  0.8314 -1.0654  2.2859
  665MOL0     H91718   7.781  11.108   9.951 -1.5929 -3.5642  1.7616
  665MOL0     H91719   7.854  11.326  10.119 -0.8584  2.7006 -1.4118
  665MOL0     H91720   7.725  11.536  10.322  0.3553 -0.4109 -0.2172
  665MOL0     H91721   7.854  11.416  10.361  0.0933  0.6494 -2.0229
  665MOL0     H91722   7.570  11.445  10.505  0.0379  0.4084  0.1313
  665MOL0     H91723   7.700  11.331  10.541 -0.5211  0.0179  0.0017
  665MOL0     H91724   7.691  11.627  10.568  4.3344  2.4529  1.4230
  665MOL0     H91725   7.706  11.509  10.692 -2.5960  0.4989 -0.1521
  665MOL0     H91726   7.928  11.463  10.644 -0.5145 -0.4924 -1.1199
  665MOL0     H91727   7.917  11.556  10.487 -0.9064  0.4828 -0.3038
  665MOL0     H91728   8.111  11.673  10.493  2.0516 -2.0966 -0.1664
  665MOL0     H91729   8.455  11.682  10.496 -0.9375 -2.4373  0.5853
  665MOL0     H91730   8.418  11.852  10.501  1.7119 -1.6023 -3.4461
  665MOL0     H91731   8.317  11.744  10.409 -0.7373  0.7406 -0.1961
  665MOL0     H91732   8.616  12.005  10.799  0.7408  0.4068  0.5495
  665MOL0     H91733   8.799  12.139  10.921  0.5517  2.0421  3.3008
  665MOL0     H91734   8.977  12.256  11.241  0.1376  2.0702 -0.6852
  665MOL0     H91735   8.886  12.277  11.090 -2.5525  1.0915  0.3425
  665MOL0     H91736   8.778  12.376  11.270  4.4987 -0.9764  0.0215
  665MOL0     H91737   8.684  12.245  11.201  2.6095 -1.4904 -3.2361
  665MOL0     H91738   8.817  12.237  11.467 -3.6625  3.5379  3.1031
  665MOL0     H91739   8.735  12.098  11.390 -0.5608  0.0767  2.4352
  665MOL0     H91740   8.530  12.252  11.381  3.1911  1.4775 -3.3671
  665MOL0     H91741   8.617  12.371  11.464  3.5012  0.7965  0.1436
  665MOL0     H91742   8.624  12.254  11.658  0.4307  0.6616  0.0799
  665MOL0     H91743   8.456  12.245  11.616  0.0445  1.2157  0.2437
  665MOL0     H91744   8.663  12.033  11.583  0.4409  0.8652  1.1038
  665MOL0     H91745   8.519  12.017  11.500  1.2677  3.3882 -1.6285
  665MOL0     H91746   8.409  12.033  11.733  0.3449 -0.7244  0.3010
  665MOL0     H91747   8.570  12.027  11.807  0.4724  1.0741  0.2169
  665MOL0     H91748   8.612  11.814  11.719  0.0827  1.8839  2.5009
  665MOL0     H91749   8.450  11.815  11.637 -2.1357 -0.5838  1.4475
  665MOL0     H91750   8.723  11.896  11.265  0.5746 -2.4168 -0.4117
  665MOL0     H91751   8.550  11.797  11.177  1.3605 -2.3345  0.1339
  665MOL0     H91752   8.244  11.781  10.952  4.6631  1.1809 -1.2767
  665MOL0     H91753   7.997  11.740  10.901  1.6779 -1.0304  0.0009
  665MOL0     H91754   8.193  10.829   9.631  1.1640  0.1527  2.8226
  665MOL0     H91755   8.237  10.802   9.877  2.4949 -3.2892 -1.5524
  665MOL0     H91756   8.339  10.646  10.125 -4.1281 -1.9301 -1.2864
  665MOL0     H91757   8.503  10.627  10.278 -0.3600  1.2008 -0.7178
  665MOL0     H91758   8.637  10.605  10.455  3.1763 -0.2885  2.0391
  665MOL0     H91759   8.559  10.759  10.479 -3.6191 -0.8837 -1.1188
  665MOL0     H91760   8.646  10.744  10.723  1.8515  1.5636 -0.2151
  665MOL0     H91761   8.760  10.728  10.590 -2.7700  2.1598 -2.5139
  665MOL0     H91762   8.607  10.493  10.715  1.5630 -1.8244  1.6180
  665MOL0     H91763   8.758  10.476  10.616 -1.6775 -0.8125 -1.0374
  665MOL0     H91764   8.738  10.574  10.892  0.2288 -2.0068  0.3900
  665MOL0     H91765   8.878  10.619  10.799  0.2436  0.2081 -1.1871
  665MOL0     H91766   8.931  10.190  10.813  0.0531 -0.3448 -0.2458
  665MOL0     H91767   8.207  10.528  10.580  1.8750 -0.3159 -0.2191
  665MOL0     H91768   7.926  10.627  10.449 -0.8979 -1.3560  2.8686
  665MOL0     H91769   7.936  10.466  10.381 -2.8182  0.3634  2.5297
  665MOL0     H91770   7.991  10.505  10.547 -1.2483  3.7525  1.9769
  666MOL0     O91771   9.139   9.241   8.781 -0.4753  0.8517 -0.2660
  666MOL0     C91772   9.039   9.179   8.783  0.1865 -0.8338 -1.0365
  666MOL0     O91773   9.003   9.084   8.882 -0.8563  0.3037  0.3153
  666MOL0     C91774   9.057   9.066   9.011  0.1147 -0.0424  0.4256
  666MOL0     C91775   8.971   8.992   9.086 -0.2798 -0.8144  0.1567
  666MOL0     C91776   9.002   8.963   9.221 -0.4573 -0.2991  0.7933
  666MOL0     C91777   9.114   9.017   9.286 -0.4321  0.4922  0.1058
  666MOL0     O91778   9.142   8.994   9.416 -0.3541 -0.2169  0.6670
  666MOL0     C91779   9.049   8.991   9.522  0.2651 -0.6162  0.2040
  666MOL0     C91780   9.119   8.999   9.652  0.0277 -0.1977  0.8604
  666MOL0     C91781   9.071   8.909   9.771  0.2321  0.8391 -0.3915
  666MOL0     C91782   8.944   8.948   9.835 -0.6174  0.2528  0.0887
  666MOL0     C91783   8.899   8.838   9.938  0.7392 -0.5002 -0.1612
  666MOL0     C91784   8.884   8.698   9.881  0.1989  0.8475 -0.1630
  666MOL0     C91785   8.793   8.621   9.979  0.2848  0.0227  0.1236
  666MOL0     C91786   8.750   8.499   9.908 -0.1538 -0.4916  0.1530
  666MOL0     N91787   8.870   8.409   9.891  0.1595 -0.6325  0.2352
  666MOL0     C91788   8.954   8.382   9.795 -0.5374 -0.3591  0.3254
  666MOL0     C91789   9.061   8.305   9.837 -0.0558 -0.6967  0.8937
  666MOL0     C91790   9.173   8.259   9.748  0.4893  0.7227  0.6314
  666MOL0     C91791   9.313   8.258   9.813  0.4476 -0.1577 -0.2028
  666MOL0     C91792   9.348   8.389   9.897  0.2710  0.4886 -0.4006
  666MOL0     C91793   9.324   8.527   9.827  0.0633  0.5053  0.4141
  666MOL0     O91794   9.376   8.643   9.888  0.0929 -0.5080 -0.4166
  666MOL0     C91795   9.345   8.669  10.019 -0.5939 -0.0430 -0.5217
  666MOL0     C91796   9.225   8.629  10.085 -0.3164 -0.0277  0.8623
  666MOL0     C91797   9.212   8.635  10.220 -1.1051  0.2084  0.2267
  666MOL0     C91798   9.071   8.601  10.273 -0.6340  0.3556  0.3472
  666MOL0     C91799   9.321   8.674  10.304 -0.3771  1.4334 -0.1333
  666MOL0     C91800   9.323   8.694  10.453 -0.5309 -1.1692  0.1894
  666MOL0     O91801   9.435   8.769  10.495 -0.3407 -0.4999  0.0979
  666MOL0     C91802   9.487   8.774  10.622  0.6809 -0.4620 -0.1687
  666MOL0     C91803   9.532   8.898  10.662  0.7948 -0.8447 -0.9574
  666MOL0     C91804   9.567   8.922  10.798 -0.4251 -0.2468  0.3649
  666MOL0     C91805   9.580   8.814  10.883  0.0344 -0.1629 -0.5609
  666MOL0     O91806   9.624   8.826  11.014 -0.3218 -0.1725 -0.2057
  666MOL0     C91807   9.591   8.952  11.079 -0.1041  0.3420  0.0664
  666MOL0     C91808   9.622   8.966  11.233 -0.4107 -0.0469  0.4215
  666MOL0     C91809   9.668   8.845  11.309 -0.5478 -0.2793  0.7470
  666MOL0     C91810   9.741   8.887  11.436 -0.3086  1.0776  0.4662
  666MOL0     C91811   9.759   8.759  11.519  0.1179  0.8116 -0.0472
  666MOL0     C91812   9.847   8.794  11.638 -0.2417  0.0823 -0.2385
  666MOL0     C91813   9.888   8.660  11.705  1.4666 -0.4853  1.3167
  666MOL0     C91814   9.890   8.652  11.857 -0.0390 -0.5994  0.4628
  666MOL0    Cl91815  10.024   8.732  11.937 -0.1086  0.5558  0.0899
  666MOL0     C91816   9.544   8.691  10.836 -0.4978  0.4480 -0.8841
  666MOL0     C91817   9.480   8.674  10.710 -0.8578  0.5169 -1.4917
  666MOL0     O91818   9.237   8.650  10.522 -0.1495  1.0007 -0.4367
  666MOL0     C91819   9.435   8.720  10.233 -0.3197 -0.2475 -0.7589
  666MOL0     C91820   9.458   8.721  10.093  0.1208  0.3381 -0.8051
  666MOL0     N91821   9.029   8.278   9.968 -0.0140  0.4721 -0.0342
  666MOL0     N91822   8.912   8.333   9.999 -0.0081  0.1228  0.4546
  666MOL0     C91823   9.205   9.079   9.203 -1.1458  0.3574 -0.3030
  666MOL0     C91824   9.171   9.112   9.064  0.9474  0.5934 -0.3732
  666MOL0     C91825   8.934   9.202   8.673 -0.7358  0.0040  0.5239
  666MOL0     C91826   8.818   9.130   8.680  0.1797 -0.7968 -0.2886
  666MOL0     C91827   8.714   9.140   8.582 -0.2198 -0.2861 -0.2170
  666MOL0     C91828   8.726   9.229   8.479  0.4734  1.1081 -0.0656
  666MOL0     O91829   8.636   9.250   8.385 -0.1033 -0.4639 -0.7928
  666MOL0     C91830   8.497   9.242   8.411 -0.1728  0.0166 -1.1640
  666MOL0     C91831   8.419   9.338   8.315 -0.0111  0.5308  0.5699
  666MOL0     C91832   8.444   9.480   8.346  0.4426 -0.1620 -0.0106
  666MOL0     C91833   8.318   9.568   8.311  0.0249 -0.2894 -0.1116
  666MOL0     C91834   8.312   9.613   8.171 -0.2573  0.5680  0.4824
  666MOL0     C91835   8.315   9.666   8.061 -0.9118  0.1047 -0.5318
  666MOL0     C91836   8.849   9.297   8.467 -0.0336 -0.9643 -0.9439
  666MOL0     C91837   8.952   9.289   8.558 -0.6177 -0.7026 -0.0865
  666MOL0     C91838   9.062   9.399   8.546 -1.0060 -0.3177  0.4516
  666MOL0     H91839   8.890   8.942   9.033  0.3065 -3.0525  1.2560
  666MOL0     H91840   8.943   8.889   9.273  0.1078 -2.6993 -1.7562
  666MOL0     H91841   9.001   8.894   9.529 -0.3683 -0.3725 -0.5941
  666MOL0     H91842   8.977   9.074   9.519  3.3291  2.2934  0.2404
  666MOL0     H91843   9.224   8.970   9.636 -0.4711 -1.4938 -0.2450
  666MOL0     H91844   9.111   9.097   9.700 -0.9266 -0.5178  1.3796
  666MOL0     H91845   9.072   8.808   9.728 -0.2150  0.6066  0.1392
  666MOL0     H91846   9.150   8.910   9.846  0.9238 -0.9510 -1.0314
  666MOL0     H91847   8.939   9.050   9.876 -0.3453  0.5073 -0.5013
  666MOL0     H91848   8.870   8.937   9.756 -0.5072 -1.9018  0.2319
  666MOL0     H91849   8.805   8.873   9.981  1.6410 -0.2107  1.6694
  666MOL0     H91850   8.963   8.832  10.026  0.0910 -0.3952  0.3258
  666MOL0     H91851   8.828   8.702   9.787 -1.0078 -2.3400  0.2930
  666MOL0     H91852   8.981   8.660   9.850 -0.7582 -1.6283 -0.3025
  666MOL0     H91853   8.701   8.674  10.004 -0.9148 -0.6265 -2.5325
  666MOL0     H91854   8.841   8.603  10.076  1.0495  1.8852  0.1290
  666MOL0     H91855   8.667   8.465   9.970 -1.3791  1.2928 -0.4265
  666MOL0     H91856   8.711   8.522   9.808  0.9988  0.5001 -0.0942
  666MOL0     H91857   8.940   8.412   9.692 -0.7769  1.0957  0.7673
  666MOL0     H91858   9.185   8.331   9.666  0.3806  1.2313  1.0558
  666MOL0     H91859   9.150   8.160   9.709 -0.4076  0.2198  2.3576
  666MOL0     H91860   9.311   8.173   9.882 -0.0907  0.7400  0.9281
  666MOL0     H91861   9.389   8.241   9.736  0.2963 -2.2671  0.0724
  666MOL0     H91862   9.288   8.387   9.988  1.5069 -2.3125  0.4726
  666MOL0     H91863   9.453   8.376   9.924  0.3402  0.1117 -0.8291
  666MOL0     H91864   9.376   8.515   9.731  0.5279  2.2614  0.4062
  666MOL0     H91865   9.222   8.548   9.795  0.0745  0.8359  0.6018
  666MOL0     H91866   9.149   8.586  10.020 -0.6756 -0.0210  1.2748
  666MOL0     H91867   9.037   8.625  10.374  1.1731  0.2931  1.0100
  666MOL0     H91868   9.051   8.495  10.256 -0.3156  0.4132 -0.4403
  666MOL0     H91869   9.000   8.658  10.212 -1.3803 -1.3334 -0.4465
  666MOL0     H91870   9.542   8.976  10.587  2.8735  0.3660  0.4851
  666MOL0     H91871   9.588   9.023  10.831  0.1132 -0.8591  1.9949
  666MOL0     H91872   9.657   9.027  11.035 -1.2106  1.5053  0.3401
  666MOL0     H91873   9.490   8.989  11.056  0.2431  0.9228 -0.5535
  666MOL0     H91874   9.685   9.055  11.239 -1.0284  0.4364 -0.1442
  666MOL0     H91875   9.528   8.989  11.284 -0.4520  0.9354 -0.0713
  666MOL0     H91876   9.727   8.791  11.235  2.5951  3.5484  0.1361
  666MOL0     H91877   9.582   8.784  11.339  0.8479 -3.8358 -1.8313
  666MOL0     H91878   9.678   8.956  11.493 -4.5591 -2.6175  0.7886
  666MOL0     H91879   9.839   8.931  11.414  0.6945 -1.1274  0.2069
  666MOL0     H91880   9.665   8.719  11.558  0.8734  0.0944  1.0839
  666MOL0     H91881   9.813   8.690  11.454 -3.8942 -0.4587 -2.4354
  666MOL0     H91882   9.795   8.871  11.696 -2.7259  0.8379 -3.1858
  666MOL0     H91883   9.945   8.841  11.619  1.1951 -2.2748  0.8627
  666MOL0     H91884   9.983   8.629  11.662  1.2658  0.7354 -0.0942
  666MOL0     H91885   9.809   8.591  11.675  2.2644 -1.0555  0.5080
  666MOL0     H91886   9.896   8.547  11.886 -0.4119 -0.4367  1.1429
  666MOL0     H91887   9.795   8.692  11.892  0.8912  1.3913  0.9232
  666MOL0     H91888   9.558   8.604  10.899  0.8647  1.3933  0.1772
  666MOL0     H91889   9.446   8.574  10.684 -0.4311  0.2487 -1.0416
  666MOL0     H91890   9.527   8.747  10.284 -1.4858  4.0744 -0.5445
  666MOL0     H91891   9.548   8.766  10.053  0.4499  0.4141  0.0087
  666MOL0     H91892   9.299   9.121   9.235 -1.7550  0.8173  0.9201
  666MOL0     H91893   9.239   9.167   8.999  1.3641 -0.4447 -0.8411
  666MOL0     H91894   8.794   9.069   8.767 -1.3652  1.4980  0.9718
  666MOL0     H91895   8.631   9.069   8.584  0.2855 -0.8846 -0.2938
  666MOL0     H91896   8.462   9.139   8.400 -1.0010  0.3709 -2.1066
  666MOL0     H91897   8.477   9.269   8.515 -2.1097 -4.0422 -0.3143
  666MOL0     H91898   8.316   9.303   8.325  0.7986 -1.3981  4.2821
  666MOL0     H91899   8.457   9.326   8.213  0.6512 -0.6101  0.9307
  666MOL0     H91900   8.467   9.495   8.452  0.4285  0.0624 -0.0394
  666MOL0     H91901   8.527   9.529   8.294 -1.4844  1.1516 -2.0381
  666MOL0     H91902   8.300   9.653   8.377 -2.3825 -0.5520 -0.3462
  666MOL0     H91903   8.225   9.511   8.319 -0.8176  1.3516  4.3331
  666MOL0     H91904   8.328   9.700   7.960  0.7449 -3.6731 -1.7889
  666MOL0     H91905   8.845   9.370   8.386 -1.8604  1.1743  0.9075
  666MOL0     H91906   9.063   9.439   8.444  3.3082 -1.5600 -0.2104
  666MOL0     H91907   9.045   9.477   8.621 -0.5884 -1.5562  1.8841
  666MOL0     H91908   9.162   9.357   8.557 -0.9195 -0.5286 -0.9689
  667MOL0     O91909  11.173   5.891  10.485 -0.0012 -0.0856 -0.0610
  667MOL0     C91910  11.235   5.913  10.589  0.0470 -1.4043  0.5064
  667MOL0     O91911  11.282   6.033  10.628  0.3147  0.0428  0.1470
  667MOL0     C91912  11.301   6.123  10.524 -0.2601  0.0682  0.1999
  667MOL0     C91913  11.262   6.253  10.546 -0.3780 -0.1053  0.5464
  667MOL0     C91914  11.272   6.354  10.458 -0.4137  0.3867 -0.0448
  667MOL0     C91915  11.328   6.325  10.329  0.2769 -0.4758 -0.7003
  667MOL0     O91916  11.328   6.410  10.214 -0.0822 -0.1685 -0.2112
  667MOL0     C91917  11.261   6.530  10.225  0.7290 -1.2327 -0.9601
  667MOL0     C91918  11.289   6.625  10.102 -0.3136  0.1226 -0.2688
  667MOL0     C91919  11.426   6.696  10.113  1.4136 -0.2136 -0.2673
  667MOL0     C91920  11.445   6.785   9.991 -0.1648 -0.0503 -0.0196
  667MOL0     C91921  11.588   6.840   9.992  0.6235 -0.1119  0.1789
  667MOL0     C91922  11.617   6.940   9.883  0.3198  0.5150 -0.3696
  667MOL0     C91923  11.756   7.003   9.883  0.4649  0.3137  0.7083
  667MOL0     C91924  11.858   6.888   9.880  0.1960 -0.5819  0.0882
  667MOL0     N91925  11.985   6.956   9.849 -0.7547  0.0141 -0.7835
  667MOL0     C91926  12.009   7.009   9.734  0.5532 -1.3099 -0.3850
  667MOL0     C91927  12.128   7.062   9.749 -0.5952  0.5176  1.6122
  667MOL0     C91928  12.215   7.124   9.642 -0.8024 -0.5556 -0.1859
  667MOL0     C91929  12.268   7.042   9.528  0.1566 -0.1752 -0.0830
  667MOL0     C91930  12.342   6.914   9.573 -0.3066 -0.2886  0.2298
  667MOL0     C91931  12.393   6.843   9.443 -0.2319 -0.5621 -0.3467
  667MOL0     O91932  12.510   6.903   9.396  0.9482  0.5183  0.4863
  667MOL0     C91933  12.551   6.869   9.265  0.0541  0.3456 -0.1617
  667MOL0     C91934  12.479   6.801   9.164 -0.2081 -0.1500  0.5278
  667MOL0     C91935  12.535   6.777   9.032 -0.4144 -0.3774 -0.1293
  667MOL0     C91936  12.450   6.703   8.929 -0.1788  0.7324 -0.2763
  667MOL0     C91937  12.667   6.806   9.006  0.6006 -0.0523  0.0716
  667MOL0     C91938  12.742   6.762   8.883  0.9142  0.3937  0.5150
  667MOL0     O91939  12.864   6.813   8.870 -0.4032  0.4910 -0.9027
  667MOL0     C91940  12.942   6.777   8.764  1.6796 -0.0936 -0.1106
  667MOL0     C91941  12.957   6.872   8.661  0.5011  0.1840  0.4544
  667MOL0     C91942  13.029   6.851   8.548 -0.0203 -0.1734  0.8922
  667MOL0     C91943  13.084   6.719   8.528 -0.0559 -0.8887  0.7537
  667MOL0     O91944  13.132   6.668   8.405  1.1934  1.0757  0.3860
  667MOL0     C91945  13.158   6.765   8.302  0.3501 -0.4071  0.2505
  667MOL0     C91946  13.224   6.693   8.180  0.1863 -0.9281  0.4336
  667MOL0     C91947  13.227   6.776   8.050  0.4932  0.1604 -0.7550
  667MOL0     C91948  13.286   6.712   7.927 -0.8190 -0.9232  0.3557
  667MOL0     C91949  13.208   6.758   7.795 -0.3976  0.1168  0.0408
  667MOL0     C91950  13.212   6.909   7.755 -0.0375 -0.3178 -0.3341
  667MOL0     C91951  13.142   6.925   7.619  0.2840  0.1577 -0.1664
  667MOL0     C91952  13.139   7.067   7.564  0.1758 -0.1961  0.2456
  667MOL0    Cl91953  13.305   7.128   7.546 -0.1760  0.0759  0.1995
  667MOL0     C91954  13.074   6.625   8.633  0.2433 -1.2395 -0.1883
  667MOL0     C91955  13.013   6.659   8.756  0.2249 -0.7709 -0.0082
  667MOL0     O91956  12.689   6.671   8.813  0.4277  0.1752  0.3104
  667MOL0     C91957  12.736   6.875   9.105  0.5071  0.1176 -0.1518
  667MOL0     C91958  12.684   6.904   9.230  0.3108 -0.7749 -0.2475
  667MOL0     N91959  12.177   7.023   9.872  0.0082 -0.6812 -0.2331
  667MOL0     N91960  12.082   6.971   9.940  0.4723 -0.0627 -0.0011
  667MOL0     C91961  11.373   6.193  10.303 -0.4708 -0.4262  0.5127
  667MOL0     C91962  11.372   6.093  10.398  0.3703 -0.3695 -0.1367
  667MOL0     C91963  11.263   5.799  10.688  0.2950 -0.2335 -0.7285
  667MOL0     C91964  11.302   5.832  10.824  0.1077  0.2413 -0.3448
  667MOL0     C91965  11.358   5.737  10.920  1.0463  0.3711  1.0806
  667MOL0     C91966  11.343   5.597  10.883  0.2624  0.1093  0.3142
  667MOL0     O91967  11.396   5.493  10.963  0.1061 -0.1227 -0.3371
  667MOL0     C91968  11.518   5.509  11.016 -0.8782 -0.0029  0.2652
  667MOL0     C91969  11.559   5.381  11.089 -0.5519 -0.5154 -0.6295
  667MOL0     C91970  11.686   5.398  11.171 -1.4710 -0.1589 -1.0792
  667MOL0     C91971  11.667   5.487  11.293 -1.0783  0.0147  0.4297
  667MOL0     C91972  11.790   5.469  11.366 -0.3846 -0.3140 -0.1175
  667MOL0     C91973  11.892   5.442  11.435  0.2075 -0.0965  0.3614
  667MOL0     C91974  11.291   5.568  10.759 -0.7515  0.3114  0.7612
  667MOL0     C91975  11.260   5.662  10.653 -0.8313  0.2586 -0.9886
  667MOL0     C91976  11.258   5.603  10.515 -0.4202  0.7405 -0.0902
  667MOL0     H91977  11.211   6.289  10.635 -1.3036 -2.8408  1.2174
  667MOL0     H91978  11.226   6.447  10.488 -1.8846 -0.2640 -0.2069
  667MOL0     H91979  11.300   6.581  10.313  2.9582  0.6570 -2.8960
  667MOL0     H91980  11.152   6.514  10.228  0.4959  0.3793  0.4099
  667MOL0     H91981  11.283   6.562  10.013 -1.1830 -1.6728  0.9952
  667MOL0     H91982  11.209   6.698  10.088  0.5586  0.9460 -1.1425
  667MOL0     H91983  11.409   6.760  10.200 -5.1539  1.7080 -2.3275
  667MOL0     H91984  11.515   6.636  10.131  0.1760 -2.3879 -0.9596
  667MOL0     H91985  11.442   6.719   9.904 -1.5717  0.2082 -0.1995
  667MOL0     H91986  11.363   6.858   9.993 -2.0129 -2.0228 -0.2488
  667MOL0     H91987  11.664   6.761   9.987  2.2529  1.4629 -1.9962
  667MOL0     H91988  11.602   6.900  10.083  2.0898  1.4406 -1.0021
  667MOL0     H91989  11.605   6.905   9.781 -0.1860 -0.7813  0.1113
  667MOL0     H91990  11.549   7.024   9.898 -2.3478 -1.7888  1.6829
  667MOL0     H91991  11.770   7.061   9.975  2.7638  1.0776 -0.0652
  667MOL0     H91992  11.768   7.061   9.792 -0.4289  0.9117  0.9638
  667MOL0     H91993  11.852   6.841   9.978  0.2745 -0.4759  0.1451
  667MOL0     H91994  11.825   6.815   9.806 -1.1844  0.4294 -0.3505
  667MOL0     H91995  11.953   7.004   9.641 -0.1052 -1.0141 -0.0101
  667MOL0     H91996  12.311   7.146   9.691 -1.2370  0.8021  0.0919
  667MOL0     H91997  12.166   7.213   9.600 -0.0149 -0.8118 -1.7281
  667MOL0     H91998  12.182   7.015   9.466 -0.2226 -0.8339  0.7027
  667MOL0     H91999  12.334   7.102   9.465 -1.5504  2.7785  0.7324
  667MOL0     H92000  12.434   6.937   9.628  0.8248  0.0882 -1.7130
  667MOL0     H92001  12.277   6.842   9.623 -0.8401 -0.3222 -0.4999
  667MOL0     H92002  12.413   6.745   9.487  0.2572 -0.7450 -0.9708
  667MOL0     H92003  12.309   6.842   9.372 -2.3236 -0.0668  1.9873
  667MOL0     H92004  12.373   6.790   9.187 -1.2588  3.2415 -1.8779
  667MOL0     H92005  12.482   6.599   8.922 -0.9524  0.1332  3.1583
  667MOL0     H92006  12.447   6.742   8.827  1.0500  0.5202 -0.4104
  667MOL0     H92007  12.352   6.698   8.977  0.4819 -0.5430  1.0147
  667MOL0     H92008  12.920   6.974   8.670 -0.7500 -0.0038 -1.9235
  667MOL0     H92009  13.027   6.926   8.470 -0.0429 -2.5260 -1.5026
  667MOL0     H92010  13.066   6.806   8.258  0.6369 -0.8101 -0.7714
  667MOL0     H92011  13.218   6.843   8.350 -1.8601 -1.2002  4.8250
  667MOL0     H92012  13.327   6.668   8.206  1.5947  0.3133 -3.2626
  667MOL0     H92013  13.178   6.598   8.151 -2.0130  0.7958 -2.2829
  667MOL0     H92014  13.276   6.872   8.069  1.8147 -0.3011 -1.7498
  667MOL0     H92015  13.127   6.806   8.018  0.8287  0.8611 -1.1757
  667MOL0     H92016  13.275   6.603   7.934  1.1197 -1.0748  1.4740
  667MOL0     H92017  13.389   6.749   7.926 -1.5138  1.1865  1.5094
  667MOL0     H92018  13.258   6.711   7.710 -0.3899  1.5003 -0.7430
  667MOL0     H92019  13.104   6.724   7.801  0.2993 -1.8966  2.5178
  667MOL0     H92020  13.310   6.957   7.757 -0.4198  0.4626 -0.2210
  667MOL0     H92021  13.151   6.949   7.837  2.8451  0.3448  1.6193
  667MOL0     H92022  13.038   6.901   7.640 -0.1855  2.0659 -0.1306
  667MOL0     H92023  13.177   6.850   7.547 -1.5695 -1.2680  0.3499
  667MOL0     H92024  13.088   7.136   7.632 -2.0374 -1.5253  0.0359
  667MOL0     H92025  13.083   7.072   7.470  0.6346  6.0908 -0.1640
  667MOL0     H92026  13.118   6.527   8.639  0.9465 -0.8645  3.2734
  667MOL0     H92027  13.022   6.585   8.835  0.1428 -1.5182 -0.6918
  667MOL0     H92028  12.842   6.899   9.097  0.4408  0.1902 -0.9335
  667MOL0     H92029  12.746   6.942   9.310  1.3398 -0.3662 -1.2235
  667MOL0     H92030  11.398   6.159  10.203 -1.4450 -0.8511  0.3999
  667MOL0     H92031  11.386   5.988  10.375 -2.0859 -1.1575  1.6121
  667MOL0     H92032  11.278   5.929  10.866 -2.3878  0.6068 -2.3531
  667MOL0     H92033  11.395   5.757  11.020  4.5107 -0.3635  0.0781
  667MOL0     H92034  11.593   5.540  10.942 -3.0494  0.6034 -1.8107
  667MOL0     H92035  11.504   5.581  11.098 -0.5480 -0.6274  0.8801
  667MOL0     H92036  11.558   5.290  11.027 -2.3786 -1.5701  0.8234
  667MOL0     H92037  11.485   5.374  11.169  0.3273 -1.1016  0.1555
  667MOL0     H92038  11.724   5.302  11.205  2.7419  1.6877  0.0917
  667MOL0     H92039  11.765   5.438  11.105 -1.9690 -0.9994 -2.2134
  667MOL0     H92040  11.581   5.456  11.354 -1.4067 -2.4825 -1.1466
  667MOL0     H92041  11.649   5.590  11.262 -3.7871 -0.0098  1.6204
  667MOL0     H92042  11.960   5.441  11.518  1.1345 -0.3147 -0.3929
  667MOL0     H92043  11.296   5.463  10.733 -0.5301  0.6052 -0.4174
  667MOL0     H92044  11.322   5.515  10.506 -3.2603 -2.1650  4.1783
  667MOL0     H92045  11.152   5.584  10.495 -0.6889 -0.0992  1.8716
  667MOL0     H92046  11.306   5.668  10.442  0.8083 -0.3419 -0.2802
  668MOL0     O92047   1.195  10.437   4.894  0.2166  0.1578  0.6271
  668MOL0     C92048   1.216  10.360   4.797  0.2399 -0.1484  0.2728
  668MOL0     O92049   1.273  10.397   4.676  0.7076 -0.2452 -0.5831
  668MOL0     C92050   1.314  10.530   4.657  0.0876 -0.7626 -1.3675
  668MOL0     C92051   1.414  10.578   4.746 -0.1464 -0.6648 -0.3233
  668MOL0     C92052   1.455  10.708   4.743 -1.1612 -0.3020  0.6402
  668MOL0     C92053   1.414  10.797   4.645  0.7616  0.5354  0.3673
  668MOL0     O92054   1.460  10.938   4.636 -0.1699  1.2318 -0.8232
  668MOL0     C92055   1.426  11.016   4.750  1.3185 -0.0077  0.1449
  668MOL0     C92056   1.285  11.076   4.728 -0.7675  0.3254 -1.0876
  668MOL0     C92057   1.266  11.175   4.614  0.7737 -0.2482 -0.5739
  668MOL0     C92058   1.377  11.287   4.582  0.8977 -0.1537 -0.2842
  668MOL0     C92059   1.356  11.369   4.452 -0.5493  0.5853  0.4050
  668MOL0     C92060   1.451  11.495   4.439  0.1140  0.0524 -0.2509
  668MOL0     C92061   1.485  11.532   4.293 -0.2226 -0.0226 -0.3687
  668MOL0     C92062   1.357  11.587   4.226  0.5130 -0.2102  0.5091
  668MOL0     N92063   1.400  11.618   4.086 -0.4025  0.2583 -0.2355
  668MOL0     C92064   1.479  11.723   4.051  1.2600  0.4958 -0.0525
  668MOL0     C92065   1.511  11.698   3.927 -0.4340  0.0995 -0.6657
  668MOL0     C92066   1.596  11.787   3.839  0.1950  0.3859  0.6076
  668MOL0     C92067   1.506  11.904   3.783  0.6530 -0.2154  0.1835
  668MOL0     C92068   1.451  11.904   3.643  0.2964  0.7644 -0.3388
  668MOL0     C92069   1.362  11.771   3.635 -0.0542 -0.6799 -0.3345
  668MOL0     O92070   1.280  11.769   3.520  0.3309  0.4313  0.2492
  668MOL0     C92071   1.173  11.685   3.541  0.6789 -0.4299  0.2423
  668MOL0     C92072   1.050  11.738   3.565 -0.7867  0.8241  0.7828
  668MOL0     C92073   0.935  11.659   3.587  0.4807 -0.8082  0.2585
  668MOL0     C92074   0.804  11.741   3.599 -0.0720  0.1368 -0.0691
  668MOL0     C92075   0.952  11.517   3.580  1.3439 -0.5070 -0.1588
  668MOL0     C92076   0.843  11.426   3.615 -0.1233 -0.1595  0.2041
  668MOL0     O92077   0.883  11.300   3.627  0.0557  0.5743  0.5264
  668MOL0     C92078   0.786  11.201   3.633 -0.0831  0.2332 -0.5324
  668MOL0     C92079   0.681  11.189   3.534 -0.6537 -0.5762 -0.7225
  668MOL0     C92080   0.582  11.091   3.555 -0.7338 -0.6343  0.5155
  668MOL0     C92081   0.598  10.984   3.646  0.1851 -0.8467 -0.8994
  668MOL0     O92082   0.496  10.894   3.656 -0.7834  0.3505 -0.5068
  668MOL0     C92083   0.478  10.816   3.774 -0.0097 -0.5602 -1.1498
  668MOL0     C92084   0.340  10.753   3.770 -0.3040 -0.9789 -1.1789
  668MOL0     C92085   0.332  10.635   3.670 -0.2014 -0.5551 -0.0860
  668MOL0     C92086   0.188  10.605   3.638 -0.6576  0.6041 -0.0003
  668MOL0     C92087   0.129  10.517   3.743 -0.1760  0.4270  0.0636
  668MOL0     C92088   0.002  10.459   3.688 -1.3822  0.1280  0.1870
  668MOL0     C92089  -0.009  10.321   3.759  0.5212  0.9915 -0.2464
  668MOL0     C92090  -0.127  10.233   3.709 -0.3151  0.1219  0.5182
  668MOL0    Cl92091  -0.103  10.071   3.794  0.2104 -0.0533 -0.3924
  668MOL0     C92092   0.719  10.980   3.725  0.5044  0.3747  0.0156
  668MOL0     C92093   0.805  11.092   3.722  0.8132 -0.2408 -0.1539
  668MOL0     O92094   0.730  11.466   3.627 -0.3282 -0.0107  0.7478
  668MOL0     C92095   1.079  11.468   3.555  0.1156  1.0136 -0.1869
  668MOL0     C92096   1.189  11.550   3.529 -0.4132 -0.1139  0.5588
  668MOL0     N92097   1.440  11.582   3.886  0.2333 -0.7495 -0.4528
  668MOL0     N92098   1.375  11.532   3.989 -0.2670 -0.0269  0.0620
  668MOL0     C92099   1.322  10.750   4.549 -0.3119 -0.5880  0.0327
  668MOL0     C92100   1.266  10.622   4.555 -0.4198  0.4258 -0.0777
  668MOL0     C92101   1.169  10.222   4.819 -0.6709  0.7014 -1.5355
  668MOL0     C92102   1.181  10.135   4.711  0.6339  0.3808 -0.7343
  668MOL0     C92103   1.136   9.999   4.730  0.6189 -0.6433  0.6788
  668MOL0     C92104   1.113   9.941   4.862 -0.4751 -1.0705 -0.5656
  668MOL0     O92105   1.103   9.810   4.890  0.3269 -0.3099 -0.4436
  668MOL0     C92106   1.057   9.729   4.780  0.4170 -0.2495  0.1784
  668MOL0     C92107   1.028   9.585   4.818  0.6691  0.2629  1.3813
  668MOL0     C92108   0.930   9.582   4.931  0.4232 -0.4623  0.5443
  668MOL0     C92109   0.838   9.460   4.937  0.0127  0.1980  0.5955
  668MOL0     C92110   0.742   9.442   4.833 -0.5465 -0.1190 -0.2402
  668MOL0     C92111   0.669   9.427   4.748  0.0269  0.5705 -0.1043
  668MOL0     C92112   1.096  10.034   4.969 -0.2034 -0.1738  0.1397
  668MOL0     C92113   1.116  10.174   4.952 -0.2314 -0.3608  0.3189
  668MOL0     C92114   1.096  10.261   5.075  0.0959  0.0344  0.1201
  668MOL0     H92115   1.456  10.512   4.821  0.5472 -0.2775 -0.3632
  668MOL0     H92116   1.525  10.730   4.823 -2.1399  0.8547  1.2065
  668MOL0     H92117   1.483  11.107   4.771  1.7513 -0.3432  0.4298
  668MOL0     H92118   1.434  10.954   4.839  1.2458 -2.1489 -1.2704
  668MOL0     H92119   1.213  10.995   4.714  0.0731 -0.5541 -0.4898
  668MOL0     H92120   1.251  11.111   4.826  0.0593 -2.0418  0.1384
  668MOL0     H92121   1.248  11.119   4.522  1.0988 -0.6424 -0.4046
  668MOL0     H92122   1.179  11.229   4.650  3.2498  4.1038 -0.4731
  668MOL0     H92123   1.393  11.343   4.674  3.1165  1.2677 -1.4362
  668MOL0     H92124   1.475  11.238   4.572  1.5702  1.0780  0.0861
  668MOL0     H92125   1.254  11.406   4.444 -0.4785  0.5234 -1.0652
  668MOL0     H92126   1.386  11.296   4.376 -2.0139 -0.7827  1.0984
  668MOL0     H92127   1.419  11.584   4.494  4.4911  2.3578 -0.9843
  668MOL0     H92128   1.547  11.480   4.489  0.1811  0.5813 -0.2147
  668MOL0     H92129   1.504  11.447   4.228 -0.4122 -2.1615  2.1814
  668MOL0     H92130   1.573  11.596   4.296  0.1434 -0.5442  1.1141
  668MOL0     H92131   1.263  11.532   4.234 -0.4268  1.2922  0.3854
  668MOL0     H92132   1.312  11.674   4.276  2.1686  1.6773 -1.0767
  668MOL0     H92133   1.512  11.808   4.110  0.9059  1.3947 -1.1172
  668MOL0     H92134   1.637  11.718   3.765 -1.6117 -0.6462  0.5003
  668MOL0     H92135   1.671  11.828   3.906  0.8720 -0.7727  0.5901
  668MOL0     H92136   1.426  11.922   3.855  0.9304  2.5437 -0.0873
  668MOL0     H92137   1.571  11.992   3.792 -3.3645  2.8598  2.2801
  668MOL0     H92138   1.386  11.991   3.631 -3.4073 -1.5791  1.1845
  668MOL0     H92139   1.535  11.896   3.573 -0.1205  0.6922 -0.8321
  668MOL0     H92140   1.430  11.686   3.625  1.5479  0.2630  1.7872
  668MOL0     H92141   1.307  11.745   3.726  1.2695 -1.1161  0.3650
  668MOL0     H92142   1.034  11.846   3.567  0.1526  1.0577 -1.6173
  668MOL0     H92143   0.747  11.731   3.692 -0.4877  1.2679 -0.1902
  668MOL0     H92144   0.740  11.705   3.518 -0.8828 -1.9105  1.3915
  668MOL0     H92145   0.826  11.848   3.594  0.0599  0.2633  2.0173
  668MOL0     H92146   0.676  11.271   3.462 -0.9118 -0.0268 -0.0853
  668MOL0     H92147   0.495  11.101   3.490 -1.5373 -0.2825  1.6021
  668MOL0     H92148   0.556  10.739   3.781  1.4322  0.8999 -0.5660
  668MOL0     H92149   0.490  10.884   3.858 -0.3291 -0.5256 -1.1306
  668MOL0     H92150   0.298  10.731   3.869 -0.0408  2.3281 -0.2329
  668MOL0     H92151   0.270  10.832   3.741 -2.1926 -2.2325 -0.2881
  668MOL0     H92152   0.369  10.560   3.740  0.6452  2.2602  2.7064
  668MOL0     H92153   0.393  10.639   3.579 -0.1639  1.6070 -0.0207
  668MOL0     H92154   0.187  10.557   3.540 -0.7487 -0.9423  0.7137
  668MOL0     H92155   0.127  10.695   3.636  1.5681  2.1714 -1.6126
  668MOL0     H92156   0.201  10.438   3.761 -0.7349 -0.7215 -2.3842
  668MOL0     H92157   0.104  10.563   3.840  1.4041 -1.2545  1.3479
  668MOL0     H92158   0.015  10.440   3.581  2.6106 -0.7377  0.6744
  668MOL0     H92159  -0.087  10.518   3.711 -0.3878  2.1549 -0.8765
  668MOL0     H92160  -0.039  10.346   3.861  1.2254  2.5758 -0.3944
  668MOL0     H92161   0.079  10.256   3.751  0.6115  1.0075  0.5081
  668MOL0     H92162  -0.105  10.211   3.604 -0.5654 -2.8126  0.9899
  668MOL0     H92163  -0.227  10.273   3.722  0.3410  0.9920  4.0790
  668MOL0     H92164   0.721  10.904   3.803 -1.4507  0.4793  0.2071
  668MOL0     H92165   0.895  11.080   3.782  1.5932  0.9075 -1.0401
  668MOL0     H92166   1.097  11.361   3.560  0.8680  1.1063 -0.6770
  668MOL0     H92167   1.287  11.506   3.515 -1.9833 -4.2125  1.0879
  668MOL0     H92168   1.295  10.803   4.458  0.1946  2.0885  1.3260
  668MOL0     H92169   1.191  10.575   4.493  0.8166 -0.3743 -1.0310
  668MOL0     H92170   1.207  10.171   4.612 -0.6842  2.1297 -0.4939
  668MOL0     H92171   1.150   9.947   4.636  2.3150 -1.4288  1.3166
  668MOL0     H92172   0.978   9.777   4.722  1.7010  1.4402 -0.2687
  668MOL0     H92173   1.135   9.734   4.703  1.6293  1.4004  1.4499
  668MOL0     H92174   1.123   9.535   4.835  0.7598 -1.9356 -3.7156
  668MOL0     H92175   0.990   9.525   4.735  0.1080  0.9190  1.1544
  668MOL0     H92176   1.007   9.572   5.008  2.7292  0.2927 -1.5267
  668MOL0     H92177   0.879   9.678   4.934  0.4412 -0.4141 -0.5281
  668MOL0     H92178   0.764   9.474   5.016  0.5275 -0.6278  1.2423
  668MOL0     H92179   0.888   9.369   4.970 -0.2676  0.0526  0.6300
  668MOL0     H92180   0.595   9.390   4.680  1.1705 -0.9870 -0.5620
  668MOL0     H92181   1.071  10.005   5.070  1.6111  0.1927  0.7301
  668MOL0     H92182   1.194  10.304   5.100  0.5706  1.0213 -3.0268
  668MOL0     H92183   1.023  10.341   5.063 -0.1516 -0.3454 -0.9388
  668MOL0     H92184   1.061  10.196   5.156 -1.1901 -2.3580 -2.2190
  669MOL0     O92185   0.262   0.505   9.929  0.0477 -0.4247  0.3772
  669MOL0     C92186   0.170   0.459   9.864 -0.3515 -0.8296 -0.4067
  669MOL0     O92187   0.095   0.522   9.778 -0.4701 -0.6022 -0.0202
  669MOL0     C92188   0.112   0.656   9.749 -0.1996  0.6915  0.9696
  669MOL0     C92189   0.080   0.746   9.843  1.3612  0.9206 -0.0336
  669MOL0     C92190   0.091   0.882   9.808 -0.1437 -0.6443  0.6926
  669MOL0     C92191   0.124   0.929   9.680 -0.7185  0.0230  0.6630
  669MOL0     O92192   0.116   1.066   9.655 -0.3812  0.1657  0.2366
  669MOL0     C92193   0.152   1.127   9.526 -0.7103  0.2517  0.7833
  669MOL0     C92194   0.018   1.198   9.484  0.1212  0.9780 -1.0144
  669MOL0     C92195   0.007   1.335   9.560  0.3655 -0.9675 -0.5575
  669MOL0     C92196  -0.058   1.334   9.696 -0.2276  0.3601 -0.0674
  669MOL0     C92197  -0.192   1.266   9.699  0.9027 -0.0728  0.8481
  669MOL0     C92198  -0.297   1.321   9.605  0.4305 -0.4737  1.0811
  669MOL0     C92199  -0.448   1.279   9.629  0.0681 -0.4092  0.0556
  669MOL0     C92200  -0.460   1.129   9.582  0.5207  0.3498  0.5252
  669MOL0     N92201  -0.415   1.117   9.445 -0.6054  1.0508 -1.1441
  669MOL0     C92202  -0.314   1.027   9.404 -0.0513  0.5555  0.2819
  669MOL0     C92203  -0.303   1.033   9.260 -0.6457 -0.6237 -0.6811
  669MOL0     C92204  -0.230   0.935   9.170 -0.0340  0.0510 -0.2588
  669MOL0     C92205  -0.082   0.977   9.160 -0.1523 -0.8741  0.1948
  669MOL0     C92206  -0.014   0.913   9.055 -0.3370  0.9316 -0.8454
  669MOL0     C92207   0.023   0.764   9.092 -0.1148 -0.2306 -0.0772
  669MOL0     O92208   0.083   0.758   9.221 -0.1110 -0.3717 -0.3615
  669MOL0     C92209   0.117   0.638   9.243 -0.5428  0.3023 -0.0275
  669MOL0     C92210   0.039   0.550   9.320 -0.3147 -0.3633  0.5328
  669MOL0     C92211   0.082   0.424   9.363  0.9197 -0.1302 -0.2939
  669MOL0     C92212  -0.007   0.347   9.455  0.5081 -0.3378  0.5440
  669MOL0     C92213   0.209   0.380   9.305  0.1181 -0.3670 -0.1593
  669MOL0     C92214   0.265   0.255   9.345  0.9093 -0.8101 -1.0927
  669MOL0     O92215   0.187   0.149   9.387 -0.8629 -0.4130  0.3493
  669MOL0     C92216   0.241   0.030   9.437 -0.4892 -0.3417 -0.2531
  669MOL0     C92217   0.333   0.031   9.550  0.3584 -0.0147  0.1254
  669MOL0     C92218   0.348  -0.089   9.631  0.1244 -1.6485  0.1605
  669MOL0     C92219   0.288  -0.209   9.602  0.4801 -0.4692 -0.2177
  669MOL0     O92220   0.313  -0.318   9.693 -0.0613 -0.3107  0.3046
  669MOL0     C92221   0.262  -0.451   9.644  0.3865 -0.3442  0.0192
  669MOL0     C92222   0.323  -0.568   9.712 -0.1210 -0.4969  1.1378
  669MOL0     C92223   0.297  -0.564   9.867 -0.9257 -0.3705 -0.4531
  669MOL0     C92224   0.356  -0.687   9.932  1.1610 -0.3689 -0.3069
  669MOL0     C92225   0.301  -0.725  10.066 -0.3995 -0.9270  0.1334
  669MOL0     C92226   0.361  -0.859  10.103  0.1880  0.5912 -0.4089
  669MOL0     C92227   0.321  -0.894  10.244  0.0646  0.9593 -0.8789
  669MOL0     C92228   0.370  -1.033  10.281 -0.0625  0.5892 -0.5130
  669MOL0    Cl92229   0.302  -1.162  10.180  0.2945 -0.5566 -0.1922
  669MOL0     C92230   0.223  -0.214   9.480  0.4390 -0.5657 -0.0033
  669MOL0     C92231   0.194  -0.094   9.405 -0.2736  0.9457  0.5346
  669MOL0     O92232   0.382   0.258   9.361  0.0318 -0.1630 -0.4985
  669MOL0     C92233   0.284   0.470   9.240  0.6835  0.4408 -0.4062
  669MOL0     C92234   0.240   0.596   9.196 -1.0005  0.2919  0.9225
  669MOL0     N92235  -0.387   1.136   9.230 -0.4410  0.2210  0.7116
  669MOL0     N92236  -0.453   1.188   9.337 -0.5485 -0.2602  0.1517
  669MOL0     C92237   0.163   0.823   9.589  0.3514  0.7332  0.2637
  669MOL0     C92238   0.158   0.687   9.629 -0.2377 -0.5564 -0.1080
  669MOL0     C92239   0.128   0.319   9.897 -0.6676  0.0681  0.4720
  669MOL0     C92240   0.197   0.206   9.849 -1.1005 -0.6122  0.2398
  669MOL0     C92241   0.152   0.074   9.878 -0.3451  0.5445 -0.0229
  669MOL0     C92242   0.035   0.050   9.939 -0.2476 -0.7321  0.0332
  669MOL0     O92243  -0.017  -0.075   9.955 -0.0722 -0.1893 -0.9830
  669MOL0     C92244  -0.106  -0.111   9.857  0.6616  0.2622  0.3310
  669MOL0     C92245  -0.249  -0.106   9.909 -0.5762 -0.4878 -0.7347
  669MOL0     C92246  -0.354  -0.110   9.800 -0.2702  0.1926  0.3426
  669MOL0     C92247  -0.485  -0.053   9.841  0.1315 -0.1332  0.5016
  669MOL0     C92248  -0.528  -0.122   9.961  0.1610 -0.2813 -0.7131
  669MOL0     C92249  -0.572  -0.185  10.056 -0.3099  0.7920  0.3428
  669MOL0     C92250  -0.038   0.165   9.980  0.3199  0.5872 -0.1519
  669MOL0     C92251   0.008   0.298   9.967 -0.2959  0.6930  0.1764
  669MOL0     C92252  -0.072   0.404  10.029 -0.4541 -0.6650 -0.4098
  669MOL0     H92253   0.056   0.711   9.943  2.1827 -1.9837 -0.7839
  669MOL0     H92254   0.085   0.961   9.883  2.9580  1.1239 -0.6998
  669MOL0     H92255   0.194   1.059   9.452 -0.6296  1.4540 -0.3093
  669MOL0     H92256   0.230   1.203   9.539 -1.5605  1.2362  0.3555
  669MOL0     H92257   0.014   1.228   9.379 -1.0845 -1.7504 -1.8264
  669MOL0     H92258  -0.063   1.129   9.511  1.5862 -0.0022  1.1555
  669MOL0     H92259   0.105   1.384   9.563 -0.5699  1.0773 -1.1866
  669MOL0     H92260  -0.052   1.393   9.488  1.9541  0.9487 -0.4184
  669MOL0     H92261   0.014   1.288   9.765 -0.1801  0.7887  0.1754
  669MOL0     H92262  -0.052   1.439   9.728  2.7856 -0.2869  1.9812
  669MOL0     H92263  -0.237   1.270   9.799 -1.7529 -5.0025  0.1657
  669MOL0     H92264  -0.186   1.158   9.685 -0.6544 -0.5742  3.3829
  669MOL0     H92265  -0.296   1.428   9.629  0.7322 -0.2628  0.1453
  669MOL0     H92266  -0.263   1.312   9.502 -0.7362  2.5752  0.3092
  669MOL0     H92267  -0.523   1.342   9.580 -0.4954  3.9976  5.6058
  669MOL0     H92268  -0.484   1.280   9.732 -0.6206  0.6276 -0.1756
  669MOL0     H92269  -0.413   1.058   9.651  1.2948 -0.9943 -1.3065
  669MOL0     H92270  -0.566   1.106   9.596  0.1723  0.3955 -1.6563
  669MOL0     H92271  -0.274   0.950   9.469  0.4362  0.9629  0.4712
  669MOL0     H92272  -0.267   0.919   9.068  2.6276 -1.7777 -1.0522
  669MOL0     H92273  -0.233   0.834   9.214 -0.0872  0.2353  0.1680
  669MOL0     H92274  -0.076   1.083   9.133  1.0789 -1.2466 -1.0726
  669MOL0     H92275  -0.045   0.963   9.262 -1.2869 -0.4668  0.6844
  669MOL0     H92276  -0.085   0.904   8.971 -2.0907  0.9231  0.5723
  669MOL0     H92277   0.069   0.974   9.020 -0.3431 -0.1569 -2.9154
  669MOL0     H92278  -0.068   0.703   9.095  0.6993 -1.4485  0.9577
  669MOL0     H92279   0.089   0.726   9.014  0.6465 -0.6361  0.7409
  669MOL0     H92280  -0.050   0.590   9.367  0.7640 -1.2000  3.4866
  669MOL0     H92281  -0.096   0.407   9.475  0.1083 -0.5975 -0.4201
  669MOL0     H92282   0.040   0.318   9.550 -2.9889 -2.8382  1.7181
  669MOL0     H92283  -0.055   0.263   9.403 -1.0743  0.1545  1.1757
  669MOL0     H92284   0.379   0.126   9.576  1.5891 -0.5917  0.1398
  669MOL0     H92285   0.401  -0.089   9.726 -1.5333 -0.2087  1.1294
  669MOL0     H92286   0.155  -0.454   9.666  0.2427 -0.6945 -0.7091
  669MOL0     H92287   0.276  -0.463   9.537 -2.4402  0.4232 -0.5175
  669MOL0     H92288   0.293  -0.660   9.661  1.7511  1.0243 -3.2151
  669MOL0     H92289   0.431  -0.555   9.697 -0.2887 -0.7151 -0.4838
  669MOL0     H92290   0.192  -0.550   9.893 -0.5969  2.4826 -0.3356
  669MOL0     H92291   0.350  -0.474   9.898 -3.3436  0.5876  1.1691
  669MOL0     H92292   0.465  -0.684   9.932  1.2406  0.1011  3.1397
  669MOL0     H92293   0.344  -0.774   9.866 -2.3111  0.0966 -0.4861
  669MOL0     H92294   0.322  -0.649  10.142 -0.9046 -0.8957  0.2441
  669MOL0     H92295   0.194  -0.743  10.053 -0.3101 -1.4671  0.1415
  669MOL0     H92296   0.469  -0.854  10.087  0.2223 -1.8758 -1.4253
  669MOL0     H92297   0.327  -0.941  10.039  1.5097  0.4079 -0.9130
  669MOL0     H92298   0.213  -0.896  10.260  0.3300 -0.8066  1.0357
  669MOL0     H92299   0.365  -0.812  10.302  3.0263  0.1347 -1.7896
  669MOL0     H92300   0.345  -1.046  10.386 -1.5697  2.0833 -0.6484
  669MOL0     H92301   0.479  -1.028  10.269 -0.1794  0.2038 -1.9114
  669MOL0     H92302   0.164  -0.302   9.456  3.3807 -3.7094  3.1345
  669MOL0     H92303   0.120  -0.097   9.325  0.1872  2.5483  0.0205
  669MOL0     H92304   0.381   0.433   9.208 -0.0786  0.5784 -3.1916
  669MOL0     H92305   0.300   0.651   9.125  0.6542 -0.1738  1.8988
  669MOL0     H92306   0.180   0.849   9.485 -2.5994 -1.8688 -1.0310
  669MOL0     H92307   0.195   0.605   9.569 -1.0404 -1.6796  0.8914
  669MOL0     H92308   0.296   0.219   9.807 -1.1659  2.3457  0.8203
  669MOL0     H92309   0.206  -0.016   9.851 -1.1248 -0.0332  0.3054
  669MOL0     H92310  -0.110  -0.043   9.771 -1.9649  2.0829  1.7321
  669MOL0     H92311  -0.085  -0.214   9.828  0.3120  0.2100  0.2520
  669MOL0     H92312  -0.263  -0.016   9.969  1.1076 -4.0693  6.0008
  669MOL0     H92313  -0.266  -0.194   9.972 -1.1903  0.2154  0.0930
  669MOL0     H92314  -0.311  -0.061   9.712  1.1268 -2.2987 -0.4590
  669MOL0     H92315  -0.363  -0.215   9.770  1.1999  0.8246 -2.7016
  669MOL0     H92316  -0.556  -0.055   9.758  2.6577  1.1890 -1.8439
  669MOL0     H92317  -0.475   0.056   9.853  1.2298 -0.1703  0.0619
  669MOL0     H92318  -0.627  -0.238  10.132 -0.7726  0.7701  0.0025
  669MOL0     H92319  -0.134   0.138  10.022  0.7341  0.2350  0.6024
  669MOL0     H92320  -0.170   0.362  10.053 -0.4900 -1.5702 -2.0237
  669MOL0     H92321  -0.025   0.442  10.121 -3.2285  4.7420 -0.8340
  669MOL0     H92322  -0.084   0.496   9.970  4.2515 -1.6443 -3.4649
  670MOL0     O92323   7.651   1.708   2.663 -0.4791 -1.3085  0.0211
  670MOL0     C92324   7.711   1.722   2.774  0.7113 -0.0529 -0.1822
  670MOL0     O92325   7.825   1.652   2.812  0.1652 -0.3791 -0.5933
  670MOL0     C92326   7.870   1.545   2.738 -0.6036 -0.6116  0.4095
  670MOL0     C92327   7.827   1.412   2.757 -0.1532  0.4626 -0.5483
  670MOL0     C92328   7.883   1.305   2.691 -0.9109  1.4318  0.0682
  670MOL0     C92329   7.963   1.328   2.582  0.2153  1.0488  0.3505
  670MOL0     O92330   8.022   1.220   2.525 -0.4421 -0.7604 -0.0193
  670MOL0     C92331   8.053   1.212   2.382  0.2302 -0.0502 -0.1146
  670MOL0     C92332   7.994   1.082   2.327 -0.9656 -0.2224  0.2009
  670MOL0     C92333   8.066   0.966   2.396  0.0580  0.1066 -0.1389
  670MOL0     C92334   7.991   0.844   2.337  0.3378  0.0701 -0.4454
  670MOL0     C92335   8.045   0.716   2.388 -0.7850  0.4928  1.1282
  670MOL0     C92336   7.953   0.607   2.325  0.1710  0.4810 -0.1975
  670MOL0     C92337   7.985   0.473   2.383 -0.4683  0.0228 -0.0025
  670MOL0     C92338   7.879   0.369   2.336  0.4075  0.3489  0.6141
  670MOL0     N92339   7.909   0.235   2.393 -1.1845 -0.0595 -0.1524
  670MOL0     C92340   7.905   0.191   2.526  0.0018  0.3649 -0.1464
  670MOL0     C92341   7.971   0.073   2.533  0.7308  0.0147 -0.4514
  670MOL0     C92342   7.999   0.000   2.666 -0.4861 -0.5858 -0.6294
  670MOL0     C92343   7.966  -0.148   2.655  0.3985  0.0473 -0.1174
  670MOL0     C92344   7.999  -0.227   2.784  0.4493 -0.1238  1.0043
  670MOL0     C92345   7.995  -0.372   2.747  0.8409  0.6748 -0.0497
  670MOL0     O92346   8.011  -0.444   2.870  0.2007  0.3353  0.5301
  670MOL0     C92347   8.008  -0.582   2.864 -0.6818 -0.5320 -0.6569
  670MOL0     C92348   7.992  -0.643   2.986 -0.5839 -0.5134 -0.7492
  670MOL0     C92349   8.016  -0.782   3.010 -0.4348  0.3769  0.1944
  670MOL0     C92350   8.009  -0.833   3.153 -1.1744 -0.3753 -0.1558
  670MOL0     C92351   8.035  -0.863   2.894  0.0436 -0.5700 -0.3007
  670MOL0     C92352   8.055  -1.012   2.899 -0.9433 -0.9065  0.2384
  670MOL0     O92353   8.104  -1.060   2.777 -0.0160  0.2191  0.4702
  670MOL0     C92354   8.108  -1.197   2.754 -0.0336 -0.4107 -0.0293
  670MOL0     C92355   8.036  -1.256   2.650  0.5099 -0.0643 -0.1139
  670MOL0     C92356   8.064  -1.388   2.608  0.2475 -0.0404 -0.4104
  670MOL0     C92357   8.160  -1.460   2.677  0.4763 -0.0858 -0.9198
  670MOL0     O92358   8.197  -1.586   2.651  0.7635  0.2689 -0.6508
  670MOL0     C92359   8.157  -1.639   2.525 -0.4330  0.0476  1.3442
  670MOL0     C92360   8.225  -1.771   2.500  0.1091 -0.5957 -0.3421
  670MOL0     C92361   8.375  -1.772   2.517 -0.8057  0.4736 -0.0783
  670MOL0     C92362   8.431  -1.885   2.436  0.7898 -0.2552 -0.8789
  670MOL0     C92363   8.575  -1.914   2.465 -1.2243 -0.4074  0.0676
  670MOL0     C92364   8.620  -2.033   2.385  0.1575  0.3521  0.0253
  670MOL0     C92365   8.771  -2.053   2.393 -1.1057 -0.0760  0.9629
  670MOL0     C92366   8.827  -2.140   2.271 -0.8540 -0.1655 -0.3835
  670MOL0    Cl92367   8.762  -2.309   2.293 -0.2912 -0.0777 -0.0908
  670MOL0     C92368   8.216  -1.403   2.790 -1.3330 -0.2844  0.4844
  670MOL0     C92369   8.199  -1.263   2.822 -1.1609  0.5487  0.2425
  670MOL0     O92370   8.014  -1.085   2.995 -0.4168  0.3683  0.4327
  670MOL0     C92371   8.035  -0.801   2.766  0.0484 -0.0973  0.1986
  670MOL0     C92372   8.022  -0.664   2.752  0.3983  1.3883 -0.1612
  670MOL0     N92373   7.987   0.035   2.404 -0.0814 -0.3656  0.2629
  670MOL0     N92374   7.962   0.132   2.319 -0.0662 -0.0324 -0.0006
  670MOL0     C92375   7.983   1.460   2.541 -0.4922  0.8141 -0.2132
  670MOL0     C92376   7.939   1.564   2.621  0.0914 -0.0402  0.7865
  670MOL0     C92377   7.669   1.830   2.872  0.3204  0.7989 -0.3962
  670MOL0     C92378   7.748   1.836   2.993  0.5104  1.1494 -0.2241
  670MOL0     C92379   7.731   1.940   3.078  0.5045  0.0528 -0.1991
  670MOL0     C92380   7.626   2.030   3.065  0.3260 -0.6465 -0.3658
  670MOL0     O92381   7.585   2.132   3.144  0.2724  0.2449  0.5931
  670MOL0     C92382   7.647   2.165   3.266 -0.5660 -0.4729  0.7359
  670MOL0     C92383   7.584   2.075   3.375 -0.7219  0.7176  0.0347
  670MOL0     C92384   7.435   2.090   3.388 -0.1537 -0.1138  0.2054
  670MOL0     C92385   7.397   2.012   3.510 -0.3364  0.1278 -0.1594
  670MOL0     C92386   7.252   2.022   3.534  0.1730 -0.7029 -0.5286
  670MOL0     C92387   7.140   2.013   3.576 -0.4375  0.4735  1.2253
  670MOL0     C92388   7.550   2.019   2.950  0.5789 -0.3370 -0.9889
  670MOL0     C92389   7.567   1.923   2.853 -0.3691 -0.3124 -0.1236
  670MOL0     C92390   7.479   1.933   2.733 -0.3543 -0.9597  0.3179
  670MOL0     H92391   7.773   1.391   2.849  1.4035 -2.1784 -0.1173
  670MOL0     H92392   7.855   1.202   2.712  2.9021  0.4911  1.2855
  670MOL0     H92393   8.162   1.217   2.377  0.3069 -2.0562 -1.9010
  670MOL0     H92394   8.001   1.287   2.322 -3.1963 -4.6882 -3.6564
  670MOL0     H92395   7.885   1.077   2.335 -1.1049 -0.8838 -1.5446
  670MOL0     H92396   8.024   1.078   2.222 -0.3689  1.0717  0.3072
  670MOL0     H92397   8.163   0.966   2.346 -0.3381  0.5541 -0.9239
  670MOL0     H92398   8.082   0.974   2.504  3.7427 -1.5536 -0.4154
  670MOL0     H92399   7.885   0.836   2.364 -0.4784  2.7865 -2.4506
  670MOL0     H92400   7.996   0.852   2.228  0.3849  0.2837 -0.4272
  670MOL0     H92401   8.057   0.715   2.496  1.9225 -0.0599  0.9138
  670MOL0     H92402   8.146   0.706   2.345 -0.3721  4.5133  0.8395
  670MOL0     H92403   7.852   0.641   2.346 -0.2052 -0.9462  0.4598
  670MOL0     H92404   7.961   0.601   2.216  0.1491  1.2422 -0.2451
  670MOL0     H92405   7.977   0.475   2.492  1.2470 -0.1330  0.1498
  670MOL0     H92406   8.086   0.436   2.364 -0.9141 -0.8180 -0.7870
  670MOL0     H92407   7.774   0.389   2.358 -0.2519 -3.3200  1.5678
  670MOL0     H92408   7.881   0.353   2.228  1.4595  0.8855  0.5396
  670MOL0     H92409   7.875   0.248   2.613 -2.6187 -2.7007  1.1290
  670MOL0     H92410   7.936   0.049   2.740 -1.3979 -1.1793 -0.9892
  670MOL0     H92411   8.105   0.007   2.690 -0.4446  0.8735 -1.1055
  670MOL0     H92412   7.864  -0.163   2.621  0.5836 -2.3727  0.1680
  670MOL0     H92413   8.022  -0.195   2.573  1.2656 -1.5239  1.3035
  670MOL0     H92414   8.102  -0.215   2.819 -0.1737 -0.0728  2.9477
  670MOL0     H92415   7.933  -0.198   2.866  1.7489  1.3592  1.5902
  670MOL0     H92416   7.897  -0.397   2.706  0.0994  1.7982  0.9708
  670MOL0     H92417   8.072  -0.392   2.672  0.9257  1.1339 -0.0886
  670MOL0     H92418   7.990  -0.578   3.073  1.0548 -0.4410 -0.7292
  670MOL0     H92419   8.114  -0.854   3.179  0.1261  0.4787 -4.0919
  670MOL0     H92420   7.952  -0.926   3.160 -0.9052 -0.4133  4.0556
  670MOL0     H92421   7.959  -0.760   3.218 -0.9057  0.8460 -1.2764
  670MOL0     H92422   7.962  -1.196   2.597 -0.6990 -2.9128 -1.8902
  670MOL0     H92423   8.004  -1.431   2.528  1.3661 -2.2354 -0.1379
  670MOL0     H92424   8.052  -1.672   2.528 -0.3160 -0.3261  1.3281
  670MOL0     H92425   8.170  -1.565   2.446  0.5432  0.0628  1.5179
  670MOL0     H92426   8.191  -1.836   2.582 -2.5747 -0.5165 -1.2963
  670MOL0     H92427   8.196  -1.810   2.402 -0.5558 -1.4730  0.1780
  670MOL0     H92428   8.405  -1.781   2.622 -1.7304  1.3244  0.2812
  670MOL0     H92429   8.422  -1.685   2.471 -0.5244  0.1757 -0.3570
  670MOL0     H92430   8.421  -1.854   2.331  2.3718  1.0466 -0.6738
  670MOL0     H92431   8.383  -1.983   2.450  1.6950 -0.6302 -0.3566
  670MOL0     H92432   8.634  -1.829   2.430 -1.6237  0.9184  2.3771
  670MOL0     H92433   8.581  -1.926   2.574 -2.2701 -0.0632  0.1792
  670MOL0     H92434   8.586  -2.034   2.281 -2.1396  1.0518  0.6943
  670MOL0     H92435   8.567  -2.116   2.434 -0.4441  1.9365  2.2218
  670MOL0     H92436   8.789  -2.110   2.485 -1.5878 -0.0971  1.0453
  670MOL0     H92437   8.817  -1.953   2.396 -2.2045  0.5439 -1.2980
  670MOL0     H92438   8.934  -2.146   2.293 -0.9417 -0.5466 -0.0472
  670MOL0     H92439   8.802  -2.099   2.173  0.8439  0.9936 -0.3742
  670MOL0     H92440   8.276  -1.473   2.848 -1.9728 -0.4389  0.9723
  670MOL0     H92441   8.264  -1.212   2.892 -0.6511  0.1238  0.0796
  670MOL0     H92442   8.012  -0.848   2.672 -0.3141  1.3130 -0.4539
  670MOL0     H92443   8.016  -0.622   2.652  2.8878  0.0413 -0.9717
  670MOL0     H92444   8.046   1.479   2.456 -1.3699  2.2436 -0.5874
  670MOL0     H92445   7.942   1.666   2.583 -4.1667 -0.2295 -0.6168
  670MOL0     H92446   7.818   1.759   3.023  0.4941  0.5499 -1.6714
  670MOL0     H92447   7.803   1.949   3.159  0.5524 -2.9571  0.2011
  670MOL0     H92448   7.755   2.145   3.264 -0.5941 -0.6326 -0.6206
  670MOL0     H92449   7.629   2.271   3.285 -2.0083 -0.8125  1.3415
  670MOL0     H92450   7.634   2.077   3.473  1.4063 -0.3720 -0.9548
  670MOL0     H92451   7.595   1.969   3.352 -1.5218  0.3830  1.1226
  670MOL0     H92452   7.403   2.193   3.407 -0.1163 -0.0177 -0.2601
  670MOL0     H92453   7.399   2.053   3.292  0.5948  1.3509 -0.6732
  670MOL0     H92454   7.454   2.048   3.596 -0.4777 -3.3032  1.5263
  670MOL0     H92455   7.427   1.911   3.479  1.3917  1.0773 -1.8154
  670MOL0     H92456   7.046   2.029   3.625 -0.5692  0.1302  1.0912
  670MOL0     H92457   7.489   2.108   2.936  1.6435  0.4169 -0.9938
  670MOL0     H92458   7.443   1.837   2.698  2.5429 -1.9047 -0.3752
  670MOL0     H92459   7.391   1.993   2.758  0.2233  0.5561 -1.1070
  670MOL0     H92460   7.528   1.977   2.646 -0.1647 -0.0520  0.8627
  671MOL0     O92461   4.929   3.054   8.774 -0.3779 -0.3842  0.2251
  671MOL0     C92462   4.981   2.949   8.801  0.7454 -0.6881 -0.5632
  671MOL0     O92463   5.113   2.917   8.773 -0.4803  0.6953 -0.7350
  671MOL0     C92464   5.199   3.009   8.735 -0.4631  0.8768 -0.0393
  671MOL0     C92465   5.225   3.123   8.806 -0.8685  0.4695  0.3341
  671MOL0     C92466   5.344   3.187   8.783 -0.3781  0.3204  0.4375
  671MOL0     C92467   5.424   3.153   8.672  0.8445  0.5838 -0.1174
  671MOL0     O92468   5.532   3.242   8.638 -0.8429  0.6594  0.4404
  671MOL0     C92469   5.588   3.332   8.726  0.1694 -0.2496 -0.2120
  671MOL0     C92470   5.715   3.403   8.683 -0.1407 -0.2392  0.8137
  671MOL0     C92471   5.701   3.515   8.588 -0.3212  0.2904 -0.7046
  671MOL0     C92472   5.583   3.515   8.483 -0.0541  0.8103  0.0882
  671MOL0     C92473   5.598   3.634   8.390  0.3746  0.4771  0.0891
  671MOL0     C92474   5.471   3.639   8.297  0.0103  0.3954 -0.1087
  671MOL0     C92475   5.473   3.756   8.192  0.1383  0.0332  0.5085
  671MOL0     C92476   5.592   3.738   8.099  0.4311  0.1422  0.1921
  671MOL0     N92477   5.595   3.843   7.991 -0.4019 -0.1547 -0.7876
  671MOL0     C92478   5.505   3.869   7.899  0.0257  0.5457 -0.3805
  671MOL0     C92479   5.563   3.970   7.830 -0.2118 -0.4857 -0.6521
  671MOL0     C92480   5.511   4.030   7.696  0.4263  0.7164  0.0123
  671MOL0     C92481   5.411   3.935   7.631  1.4817 -0.1924  0.8720
  671MOL0     C92482   5.351   3.992   7.501 -0.0171  0.0295 -1.4164
  671MOL0     C92483   5.283   3.894   7.423  0.6352  0.3389  0.9259
  671MOL0     O92484   5.393   3.810   7.362  0.7201 -0.3046  0.7119
  671MOL0     C92485   5.338   3.707   7.287 -0.7644 -0.4081  0.6318
  671MOL0     C92486   5.256   3.614   7.343  0.4168 -0.7360 -0.5463
  671MOL0     C92487   5.211   3.505   7.273 -0.0682 -0.3104  0.0881
  671MOL0     C92488   5.129   3.402   7.350  0.2359  0.0079 -0.4776
  671MOL0     C92489   5.225   3.497   7.136  0.7309 -0.1591  0.8668
  671MOL0     C92490   5.165   3.396   7.053 -0.6588  0.4363  0.3223
  671MOL0     O92491   5.206   3.273   7.082 -0.5430 -0.2206  0.6699
  671MOL0     C92492   5.148   3.171   7.011  0.1065  0.5103  0.7660
  671MOL0     C92493   5.015   3.133   7.048  0.6098 -0.5482  0.1035
  671MOL0     C92494   4.940   3.042   6.969 -0.3502 -0.3280  0.2311
  671MOL0     C92495   5.005   2.976   6.869 -0.8410  0.0503  0.1429
  671MOL0     O92496   4.946   2.869   6.797 -0.0194 -0.3525 -0.5657
  671MOL0     C92497   4.819   2.817   6.840 -0.1354 -0.4766 -0.1179
  671MOL0     C92498   4.715   2.905   6.769 -0.0330 -0.6343 -0.2521
  671MOL0     C92499   4.577   2.922   6.838  0.3415  1.0910  0.2194
  671MOL0     C92500   4.499   3.034   6.780 -0.6540  0.2102  0.2493
  671MOL0     C92501   4.374   3.061   6.861  0.0939 -1.2362  0.9951
  671MOL0     C92502   4.337   3.208   6.856 -0.2080  0.1955  0.4920
  671MOL0     C92503   4.201   3.241   6.913  0.6811  1.2243  0.1049
  671MOL0     C92504   4.203   3.325   7.042 -0.4456  0.5245  0.6491
  671MOL0    Cl92505   4.225   3.203   7.163 -0.0628  0.0295 -0.1251
  671MOL0     C92506   5.137   3.008   6.838  0.8261  0.1635  0.2599
  671MOL0     C92507   5.201   3.108   6.899  0.3655  1.1778 -0.4589
  671MOL0     O92508   5.069   3.418   6.982  0.4391  0.3864 -0.2983
  671MOL0     C92509   5.306   3.592   7.074 -0.3749 -0.5003 -0.4060
  671MOL0     C92510   5.370   3.690   7.147 -0.4943 -0.1999 -0.8903
  671MOL0     N92511   5.679   4.011   7.893  0.4612 -1.5617 -0.1978
  671MOL0     N92512   5.702   3.925   7.982 -0.0011  0.1340  0.2963
  671MOL0     C92513   5.388   3.042   8.591  0.0010 -1.1206  0.3181
  671MOL0     C92514   5.273   2.978   8.629 -0.9845  0.2264  0.2271
  671MOL0     C92515   4.895   2.853   8.874  0.7422  0.5242  0.3969
  671MOL0     C92516   4.757   2.897   8.898 -1.1233  0.4480  0.3653
  671MOL0     C92517   4.663   2.809   8.950 -0.6144  0.1524  0.4010
  671MOL0     C92518   4.700   2.684   8.996 -0.0378 -0.7481 -0.5098
  671MOL0     O92519   4.607   2.590   9.036 -0.3076 -0.2728  0.0451
  671MOL0     C92520   4.500   2.625   9.124  1.0483 -0.4784  1.0176
  671MOL0     C92521   4.357   2.568   9.087  0.3079  0.3727  0.6571
  671MOL0     C92522   4.350   2.415   9.094 -0.3507 -0.1403  0.2321
  671MOL0     C92523   4.209   2.356   9.059 -0.1611  0.0638 -0.3115
  671MOL0     C92524   4.098   2.383   9.152 -0.4803 -0.1385 -0.4210
  671MOL0     C92525   4.022   2.423   9.228  0.4273  0.4306  0.3283
  671MOL0     C92526   4.835   2.643   8.980  0.2075 -0.9775 -0.9908
  671MOL0     C92527   4.926   2.721   8.912 -0.7090  0.1660  0.3169
  671MOL0     C92528   5.058   2.656   8.866  0.4082 -0.2677 -0.7750
  671MOL0     H92529   5.158   3.160   8.882  0.9388  0.3288  2.0620
  671MOL0     H92530   5.368   3.279   8.836  3.5762 -0.4128  0.2366
  671MOL0     H92531   5.613   3.277   8.817 -0.0071  2.6495  1.7114
  671MOL0     H92532   5.515   3.410   8.749 -1.2378 -1.8561  0.9847
  671MOL0     H92533   5.773   3.432   8.771  0.7228  0.7130 -0.0426
  671MOL0     H92534   5.784   3.332   8.637 -0.0412  0.2417  0.2048
  671MOL0     H92535   5.695   3.611   8.639 -0.7224 -0.2500  0.2942
  671MOL0     H92536   5.791   3.537   8.530 -0.3718  2.5701 -0.0017
  671MOL0     H92537   5.589   3.419   8.430  0.4483 -0.0822  1.6574
  671MOL0     H92538   5.488   3.511   8.536  0.0938  1.2076  0.3894
  671MOL0     H92539   5.691   3.604   8.339  0.1400 -2.1898  1.0777
  671MOL0     H92540   5.622   3.731   8.435  4.4923  0.1996 -1.0460
  671MOL0     H92541   5.466   3.543   8.244  0.9448 -0.5344  1.4321
  671MOL0     H92542   5.385   3.644   8.365  1.5782  1.1723  1.9117
  671MOL0     H92543   5.457   3.853   8.239 -2.4658 -0.2574  0.3350
  671MOL0     H92544   5.381   3.740   8.136 -0.5260 -0.2842  1.6632
  671MOL0     H92545   5.679   3.719   8.163 -0.6606 -0.8249  1.4503
  671MOL0     H92546   5.575   3.644   8.046 -1.3613  1.1131 -1.0542
  671MOL0     H92547   5.411   3.817   7.885  0.4627 -1.0088  1.8993
  671MOL0     H92548   5.592   4.030   7.622 -0.3617 -2.5437 -1.0350
  671MOL0     H92549   5.471   4.128   7.721 -0.8802  0.0264  0.7280
  671MOL0     H92550   5.460   3.841   7.605 -0.2470 -1.6946  2.6582
  671MOL0     H92551   5.321   3.914   7.690  0.7794 -0.2081 -0.1602
  671MOL0     H92552   5.286   4.076   7.525 -1.0587 -0.2914 -2.9725
  671MOL0     H92553   5.424   4.050   7.444  1.0865 -2.5391 -2.7742
  671MOL0     H92554   5.202   3.849   7.481 -0.1777 -0.3724 -0.7016
  671MOL0     H92555   5.233   3.941   7.338 -0.9915 -3.9254 -0.7416
  671MOL0     H92556   5.264   3.605   7.451  0.7154 -2.5758 -0.6967
  671MOL0     H92557   5.027   3.419   7.315  0.8376  0.1468 -2.2403
  671MOL0     H92558   5.137   3.404   7.459 -1.5355  0.4182 -0.3264
  671MOL0     H92559   5.162   3.302   7.320  0.1727  0.2426 -1.3537
  671MOL0     H92560   4.973   3.195   7.126 -0.9657 -1.9146  0.4019
  671MOL0     H92561   4.836   3.032   6.997 -0.8219  1.2694 -0.7861
  671MOL0     H92562   4.817   2.710   6.819 -2.3773 -0.7290  1.0170
  671MOL0     H92563   4.802   2.809   6.948 -1.8011  1.8023 -0.1268
  671MOL0     H92564   4.753   3.007   6.760 -0.4845 -0.2522  1.6559
  671MOL0     H92565   4.701   2.869   6.667  1.3729  1.9208 -1.4464
  671MOL0     H92566   4.597   2.927   6.946 -2.9193  2.3293  0.8832
  671MOL0     H92567   4.529   2.830   6.802  1.9743  0.9103 -1.6673
  671MOL0     H92568   4.480   2.998   6.678  2.3123 -3.9461  0.9043
  671MOL0     H92569   4.565   3.122   6.781 -0.4252  0.0384  0.1774
  671MOL0     H92570   4.289   3.011   6.813  1.3147 -0.0247 -2.7877
  671MOL0     H92571   4.379   3.023   6.963 -2.3433 -1.2080  1.2011
  671MOL0     H92572   4.343   3.250   6.755 -0.7027  0.2866  0.4972
  671MOL0     H92573   4.414   3.261   6.913  1.0246 -2.2696  1.2214
  671MOL0     H92574   4.130   3.158   6.916  1.5792  0.3886 -0.9780
  671MOL0     H92575   4.137   3.303   6.850  0.6868  2.2307  1.0634
  671MOL0     H92576   4.114   3.386   7.058 -1.4143 -0.7870  0.4670
  671MOL0     H92577   4.280   3.402   7.049 -0.2614  0.1881  3.4268
  671MOL0     H92578   5.189   2.963   6.755  0.3353 -3.1125  1.5816
  671MOL0     H92579   5.303   3.135   6.874  1.1433 -1.5094 -0.5586
  671MOL0     H92580   5.351   3.592   6.976  1.3151 -0.2829  0.3349
  671MOL0     H92581   5.443   3.756   7.100  1.9425 -0.2042  2.4378
  671MOL0     H92582   5.454   3.009   8.511  1.6743 -0.4876  1.3907
  671MOL0     H92583   5.257   2.890   8.568  1.1129  0.1838 -0.3176
  671MOL0     H92584   4.714   2.991   8.865 -2.9761 -0.9110 -1.3336
  671MOL0     H92585   4.558   2.831   8.938 -0.4433  0.3514 -0.9706
  671MOL0     H92586   4.520   2.594   9.227 -1.1143 -3.1415  0.7455
  671MOL0     H92587   4.493   2.733   9.134  1.4291 -0.5535  2.3670
  671MOL0     H92588   4.328   2.608   8.990  1.2354 -0.5782 -0.0359
  671MOL0     H92589   4.277   2.597   9.155 -1.5292 -1.0118 -0.8111
  671MOL0     H92590   4.415   2.387   9.011  1.0538  1.3040  0.7693
  671MOL0     H92591   4.390   2.362   9.181  2.4973 -0.5728 -1.2165
  671MOL0     H92592   4.233   2.249   9.066  0.8105  0.2125 -1.1207
  671MOL0     H92593   4.171   2.372   8.958 -2.0591 -1.0275  0.1855
  671MOL0     H92594   3.941   2.466   9.283 -1.7544  0.9822 -3.0034
  671MOL0     H92595   4.861   2.542   9.010  0.0580 -0.4658  0.9840
  671MOL0     H92596   5.048   2.548   8.851  3.2880 -0.7168  0.0134
  671MOL0     H92597   5.089   2.677   8.764  2.6425 -0.8994 -0.2879
  671MOL0     H92598   5.141   2.675   8.935  0.1105 -2.4162  0.2579
  672MOL0     O92599   2.384   6.936   1.209 -0.3283 -0.1737  0.7673
  672MOL0     C92600   2.502   6.965   1.241 -0.9100  0.0586 -0.5605
  672MOL0     O92601   2.531   7.069   1.325 -0.3500 -0.3351  0.3932
  672MOL0     C92602   2.450   7.112   1.420  0.1000 -1.0530 -0.8803
  672MOL0     C92603   2.426   7.032   1.527  0.6576  0.4074  0.3472
  672MOL0     C92604   2.372   7.079   1.649  0.3675 -0.1362 -0.3278
  672MOL0     C92605   2.331   7.217   1.659  0.0730 -0.1529  0.0141
  672MOL0     O92606   2.274   7.281   1.765 -0.3854 -0.6070  0.1510
  672MOL0     C92607   2.370   7.282   1.885  0.1351  0.7709  0.2730
  672MOL0     C92608   2.345   7.412   1.953  0.7185 -0.7199  0.2352
  672MOL0     C92609   2.442   7.455   2.061 -0.0600 -0.2135 -0.4509
  672MOL0     C92610   2.583   7.473   1.998 -0.3779  0.4463 -0.1953
  672MOL0     C92611   2.684   7.553   2.094 -0.0574 -0.9349 -0.6018
  672MOL0     C92612   2.713   7.477   2.224 -0.4596 -0.1993 -0.4273
  672MOL0     C92613   2.836   7.533   2.303  0.7990  0.6658  0.5701
  672MOL0     C92614   2.779   7.642   2.375  0.1456 -0.3491 -0.2443
  672MOL0     N92615   2.893   7.684   2.461  0.0083  0.5334 -0.4685
  672MOL0     C92616   2.952   7.616   2.570  0.8139  0.3285  0.0817
  672MOL0     C92617   3.040   7.704   2.617  0.6732 -0.4228  0.8157
  672MOL0     C92618   3.146   7.656   2.724  0.1862 -0.2393 -0.3722
  672MOL0     C92619   3.080   7.667   2.865  0.9984 -0.3020  0.1278
  672MOL0     C92620   3.191   7.643   2.973  0.5988  0.5527  0.1280
  672MOL0     C92621   3.211   7.492   2.987 -0.3409  1.0604 -0.7559
  672MOL0     O92622   3.310   7.450   3.088 -0.0477  1.2442 -0.3083
  672MOL0     C92623   3.269   7.484   3.212 -0.8235  0.3004 -0.5480
  672MOL0     C92624   3.195   7.391   3.279  0.6351  0.7190  0.4356
  672MOL0     C92625   3.162   7.410   3.417 -0.0843 -0.3007 -0.8640
  672MOL0     C92626   3.084   7.295   3.475 -0.6785 -0.3501 -0.9620
  672MOL0     C92627   3.202   7.524   3.487  0.5088 -0.1961 -0.4802
  672MOL0     C92628   3.158   7.557   3.628 -0.3777 -0.8219  0.1019
  672MOL0     O92629   3.165   7.460   3.724 -0.2761 -0.4331  0.4031
  672MOL0     C92630   3.120   7.495   3.850 -1.2027  0.6517  0.0920
  672MOL0     C92631   3.191   7.445   3.958 -0.2840 -0.1324  0.1403
  672MOL0     C92632   3.151   7.467   4.085 -0.3677  0.7353  0.7185
  672MOL0     C92633   3.043   7.545   4.113  0.4718 -0.4957 -0.6386
  672MOL0     O92634   2.997   7.587   4.242  1.2995 -0.1175 -0.3603
  672MOL0     C92635   3.035   7.512   4.365 -0.6197 -0.4558  0.7857
  672MOL0     C92636   3.005   7.366   4.366  0.0435 -0.0169 -1.1331
  672MOL0     C92637   2.857   7.342   4.394  0.1918 -0.1224 -0.1087
  672MOL0     C92638   2.795   7.396   4.520  0.0887  0.7404 -0.9116
  672MOL0     C92639   2.672   7.307   4.561  0.0142 -0.7994 -0.2451
  672MOL0     C92640   2.604   7.394   4.678 -0.5559  0.3702 -0.2082
  672MOL0     C92641   2.690   7.385   4.818 -0.2078 -0.2074  0.6089
  672MOL0     C92642   2.753   7.514   4.859 -0.0923 -0.0475  0.3655
  672MOL0    Cl92643   2.625   7.615   4.941 -0.1071 -0.1783 -0.2276
  672MOL0     C92644   2.973   7.605   4.008 -0.6057  0.2749  0.2599
  672MOL0     C92645   3.006   7.567   3.874 -0.9310  0.6340 -0.0812
  672MOL0     O92646   3.151   7.674   3.644  0.0132 -0.6941 -0.8848
  672MOL0     C92647   3.276   7.617   3.416 -0.2145  0.0418  0.5280
  672MOL0     C92648   3.314   7.596   3.280  0.0493  0.5075  0.0374
  672MOL0     N92649   3.055   7.806   2.526  0.5033 -0.3260 -0.3548
  672MOL0     N92650   2.964   7.800   2.441 -0.2850  0.5662  0.7853
  672MOL0     C92651   2.350   7.297   1.549  0.1731  0.5127 -0.6835
  672MOL0     C92652   2.418   7.245   1.431  0.6027  0.7647 -0.5702
  672MOL0     C92653   2.620   6.918   1.151  0.7419 -0.6581 -0.1847
  672MOL0     C92654   2.709   7.013   1.097 -0.2911  0.5741  0.4147
  672MOL0     C92655   2.810   6.976   1.012 -0.1530 -0.1143 -0.3574
  672MOL0     C92656   2.823   6.835   0.983  0.3055 -0.3423 -0.4737
  672MOL0     O92657   2.918   6.796   0.891  0.0679 -0.2135  0.4997
  672MOL0     C92658   2.953   6.661   0.848 -0.2388  0.1526  0.5553
  672MOL0     C92659   3.084   6.672   0.763  0.1768  0.2540 -0.4751
  672MOL0     C92660   3.058   6.757   0.631  0.6167  1.1283 -0.4659
  672MOL0     C92661   2.973   6.665   0.543 -0.4992 -0.8541 -0.5582
  672MOL0     C92662   2.968   6.754   0.421 -0.5136  0.5054 -0.4907
  672MOL0     C92663   2.948   6.841   0.336  0.6166  1.1287 -0.3381
  672MOL0     C92664   2.749   6.737   1.046 -0.7737 -0.1000  0.6589
  672MOL0     C92665   2.637   6.782   1.126  0.7121 -0.6007 -1.3531
  672MOL0     C92666   2.549   6.676   1.179  0.2264 -0.5912  0.7784
  672MOL0     H92667   2.468   6.932   1.514  1.5820  0.8777 -0.4100
  672MOL0     H92668   2.352   7.014   1.733 -1.4211 -1.4567 -1.7100
  672MOL0     H92669   2.471   7.276   1.844 -0.0802  2.2798 -0.5807
  672MOL0     H92670   2.352   7.197   1.952 -1.0648  0.2078 -0.7124
  672MOL0     H92671   2.329   7.488   1.876  0.1381 -1.5511 -0.4826
  672MOL0     H92672   2.256   7.407   2.016  1.5858  0.7805  1.6553
  672MOL0     H92673   2.405   7.545   2.111  1.9751 -0.8048  2.3706
  672MOL0     H92674   2.447   7.377   2.138 -3.1487 -0.6304 -0.5399
  672MOL0     H92675   2.630   7.374   1.991  0.0100  0.5304  1.0591
  672MOL0     H92676   2.579   7.521   1.900  1.4019 -0.7026 -0.8661
  672MOL0     H92677   2.654   7.655   2.121  0.9256 -0.8617  0.2613
  672MOL0     H92678   2.775   7.555   2.032  0.4620  0.6664  0.1596
  672MOL0     H92679   2.620   7.484   2.281  0.4900  0.3987  1.1000
  672MOL0     H92680   2.749   7.377   2.198  0.3984 -1.3910  4.3096
  672MOL0     H92681   2.917   7.561   2.236  0.0081  1.1347 -0.2109
  672MOL0     H92682   2.877   7.444   2.352  3.3367 -0.4644 -3.1673
  672MOL0     H92683   2.768   7.723   2.303 -1.5103  1.9926  2.4067
  672MOL0     H92684   2.682   7.625   2.424  0.5607  1.5629  1.3876
  672MOL0     H92685   2.926   7.516   2.602  3.4989 -0.8326 -1.1121
  672MOL0     H92686   3.234   7.721   2.718 -0.4413  0.6643  0.0981
  672MOL0     H92687   3.182   7.559   2.689 -1.7454 -0.9051 -0.6092
  672MOL0     H92688   3.048   7.771   2.872 -0.1781 -0.6978  0.9725
  672MOL0     H92689   2.989   7.609   2.877  0.4752  0.0283 -1.8816
  672MOL0     H92690   3.282   7.696   2.943 -1.5648  2.3959 -3.8897
  672MOL0     H92691   3.158   7.676   3.072 -3.7585 -1.2858 -0.4848
  672MOL0     H92692   3.117   7.440   3.009  0.1577 -0.1161 -1.3430
  672MOL0     H92693   3.236   7.446   2.891  0.1977  2.3575 -1.2596
  672MOL0     H92694   3.156   7.299   3.237 -1.5163  1.6614  0.2087
  672MOL0     H92695   3.127   7.270   3.572  0.6377  0.3559 -1.3506
  672MOL0     H92696   3.077   7.206   3.412 -0.3417 -0.4976 -0.7928
  672MOL0     H92697   2.979   7.324   3.487 -0.6211  0.0422 -1.4127
  672MOL0     H92698   3.274   7.384   3.924 -0.3012 -0.1123  0.0614
  672MOL0     H92699   3.208   7.423   4.165  0.2969  2.3934  1.1946
  672MOL0     H92700   3.141   7.533   4.381 -0.7684 -1.0154  2.9196
  672MOL0     H92701   2.974   7.565   4.438 -3.2837  0.0179 -1.6395
  672MOL0     H92702   3.042   7.312   4.278  3.4402 -2.1206  1.3568
  672MOL0     H92703   3.059   7.328   4.453 -0.7168  2.9533  0.7793
  672MOL0     H92704   2.844   7.234   4.394  1.5124 -0.3211  1.3479
  672MOL0     H92705   2.793   7.362   4.308  1.0840 -0.2969 -0.8345
  672MOL0     H92706   2.770   7.502   4.504  1.4217  1.2470  0.0768
  672MOL0     H92707   2.865   7.404   4.604 -2.2975  2.2992  1.0913
  672MOL0     H92708   2.602   7.290   4.479  0.6748 -0.8482 -0.8059
  672MOL0     H92709   2.703   7.207   4.594 -1.0560 -0.7826  0.8697
  672MOL0     H92710   2.507   7.350   4.704  0.1121 -2.8283 -2.6303
  672MOL0     H92711   2.570   7.496   4.659 -0.6686  0.4207  0.2511
  672MOL0     H92712   2.780   7.326   4.796 -0.4074  0.1926 -1.4406
  672MOL0     H92713   2.629   7.351   4.903 -3.0061  1.8920 -0.4007
  672MOL0     H92714   2.799   7.562   4.772  0.9438 -0.9268  0.4171
  672MOL0     H92715   2.837   7.484   4.921 -0.3614 -3.0848 -0.6050
  672MOL0     H92716   2.887   7.669   4.026 -0.3596  0.3208  1.3264
  672MOL0     H92717   2.947   7.613   3.794  1.1641 -1.0018 -2.7277
  672MOL0     H92718   3.297   7.710   3.468  1.9233 -1.3793  2.3956
  672MOL0     H92719   3.372   7.670   3.227  2.4072 -1.9201 -1.0239
  672MOL0     H92720   2.331   7.404   1.550 -0.1544  0.4970  2.1835
  672MOL0     H92721   2.448   7.308   1.348  1.0049 -0.2655 -1.2301
  672MOL0     H92722   2.689   7.118   1.116 -2.4586  0.4662 -0.9334
  672MOL0     H92723   2.864   7.049   0.952  1.2952 -0.2384  0.7497
  672MOL0     H92724   2.959   6.586   0.928  2.0565  0.2282  0.4939
  672MOL0     H92725   2.866   6.622   0.794  0.8490 -0.2807 -0.9286
  672MOL0     H92726   3.130   6.577   0.733  1.7967  0.5176  0.9933
  672MOL0     H92727   3.172   6.703   0.820  1.9395 -0.9273 -2.4221
  672MOL0     H92728   3.001   6.848   0.648  0.0639  0.4987  1.2199
  672MOL0     H92729   3.155   6.773   0.582  0.0003 -1.2407 -2.7467
  672MOL0     H92730   2.875   6.637   0.582 -0.4813 -2.0223 -1.3056
  672MOL0     H92731   3.025   6.571   0.524  4.0966  1.2904 -0.1193
  672MOL0     H92732   2.922   6.897   0.249 -0.6595 -0.5630 -1.0991
  672MOL0     H92733   2.749   6.631   1.025  0.1352  0.2431 -1.3034
  672MOL0     H92734   2.475   6.651   1.103  1.0255  0.6437 -0.4471
  672MOL0     H92735   2.617   6.591   1.194  2.1123  0.7127 -0.0425
  672MOL0     H92736   2.503   6.707   1.273 -3.0794  0.8526 -1.1490
  673MOL0     O92737  11.382   2.181   6.432 -0.1500  0.7163 -0.0845
  673MOL0     C92738  11.255   2.178   6.430  0.2752 -1.1736  0.3998
  673MOL0     O92739  11.180   2.106   6.336 -1.5048  0.1937 -0.1431
  673MOL0     C92740  11.245   2.052   6.228  0.8685  0.2543  0.3223
  673MOL0     C92741  11.296   1.918   6.211  0.4679  0.3017  0.3544
  673MOL0     C92742  11.354   1.885   6.089  0.3124  0.7630  0.4153
  673MOL0     C92743  11.355   1.972   5.983  0.0731  0.4142  0.3838
  673MOL0     O92744  11.403   1.936   5.861 -0.7192 -0.1486  0.0686
  673MOL0     C92745  11.499   2.024   5.797 -0.4469  0.2360  0.3226
  673MOL0     C92746  11.430   2.123   5.702  0.0032 -0.0804  0.1588
  673MOL0     C92747  11.458   2.115   5.554 -0.3433 -0.1887 -0.3115
  673MOL0     C92748  11.363   2.206   5.479  0.2696 -0.0532  0.1591
  673MOL0     C92749  11.358   2.181   5.326 -0.3331  0.6247 -1.2954
  673MOL0     C92750  11.492   2.156   5.258  0.1794  0.2983 -0.8800
  673MOL0     C92751  11.462   2.143   5.113  0.1448 -0.3052  0.3944
  673MOL0     C92752  11.372   2.027   5.070  0.4419 -1.0487 -0.1684
  673MOL0     N92753  11.429   1.899   5.117  0.0635  0.2824  0.4238
  673MOL0     C92754  11.507   1.812   5.053  0.0184 -0.6126 -0.8229
  673MOL0     C92755  11.530   1.728   5.152 -0.9140 -1.0390 -0.4842
  673MOL0     C92756  11.618   1.605   5.134  0.7602 -0.1502  0.3698
  673MOL0     C92757  11.756   1.651   5.100 -0.1105  0.1757  0.5225
  673MOL0     C92758  11.864   1.543   5.137  0.4923 -0.0005  0.2237
  673MOL0     C92759  11.853   1.428   5.041 -0.3072  0.2107  0.1214
  673MOL0     O92760  11.893   1.475   4.909 -0.1083  0.0069 -0.2092
  673MOL0     C92761  12.026   1.455   4.876 -0.4222  0.1011 -1.1742
  673MOL0     C92762  12.104   1.350   4.915  0.7751 -0.2836  0.2340
  673MOL0     C92763  12.239   1.332   4.870  0.6263 -0.2970 -0.2828
  673MOL0     C92764  12.313   1.220   4.915 -0.0541 -0.1265 -0.2004
  673MOL0     C92765  12.297   1.436   4.785  0.3584  0.6452 -0.2636
  673MOL0     C92766  12.435   1.425   4.732 -1.2475  0.2714 -0.5554
  673MOL0     O92767  12.515   1.535   4.739 -0.1248  0.9193  0.6754
  673MOL0     C92768  12.657   1.527   4.748  1.1467  0.2275  0.3013
  673MOL0     C92769  12.733   1.418   4.798 -0.2522  0.4091  1.1372
  673MOL0     C92770  12.870   1.432   4.784 -0.1879  0.7004  0.1291
  673MOL0     C92771  12.936   1.540   4.727 -0.1680 -0.2727 -0.5753
  673MOL0     O92772  13.074   1.545   4.732  0.3421  0.2213 -0.1398
  673MOL0     C92773  13.149   1.667   4.766  0.1869  0.2111  1.1515
  673MOL0     C92774  13.297   1.616   4.782 -0.3735 -0.3412  0.0377
  673MOL0     C92775  13.406   1.724   4.764 -0.0654 -0.0268 -0.8498
  673MOL0     C92776  13.542   1.652   4.751 -0.0520 -0.0378 -0.6700
  673MOL0     C92777  13.572   1.584   4.616 -0.0228  0.1386  0.1741
  673MOL0     C92778  13.723   1.536   4.612 -0.0666 -0.6600 -0.9338
  673MOL0     C92779  13.764   1.506   4.473  0.0199  0.8477  0.3929
  673MOL0     C92780  13.701   1.385   4.418  0.1968 -0.2783  0.8229
  673MOL0    Cl92781  13.764   1.221   4.475 -0.3764  0.5209  0.3070
  673MOL0     C92782  12.860   1.646   4.690  0.3938  0.2810 -0.6681
  673MOL0     C92783  12.720   1.639   4.706 -0.7810 -0.1415  0.5552
  673MOL0     O92784  12.474   1.313   4.698  0.1876  0.5410 -0.2493
  673MOL0     C92785  12.214   1.542   4.755 -0.3877  0.4347  0.1202
  673MOL0     C92786  12.081   1.546   4.788 -0.0865  0.5631 -0.2360
  673MOL0     N92787  11.470   1.758   5.269 -0.1700 -0.0912 -0.5243
  673MOL0     N92788  11.411   1.867   5.251  0.0559 -0.0201  0.5897
  673MOL0     C92789  11.296   2.098   5.999 -0.3242  1.0297  0.8122
  673MOL0     C92790  11.241   2.133   6.121  0.6139  0.4457 -0.0203
  673MOL0     C92791  11.173   2.249   6.523  0.1933 -0.8837  0.1014
  673MOL0     C92792  11.040   2.198   6.558 -0.3146  1.4644 -0.4503
  673MOL0     C92793  10.960   2.274   6.652  0.5976 -0.3212 -0.6124
  673MOL0     C92794  11.005   2.379   6.725 -0.4215 -0.4043  0.1668
  673MOL0     O92795  10.933   2.434   6.823  0.8817  0.5706 -0.1206
  673MOL0     C92796  11.001   2.514   6.913 -0.5397 -0.5839 -1.4296
  673MOL0     C92797  10.910   2.523   7.045  0.0727 -0.5227  0.2105
  673MOL0     C92798  10.978   2.592   7.173  0.0231  0.1467  1.0496
  673MOL0     C92799  11.091   2.520   7.234  0.4467  0.3858 -0.0810
  673MOL0     C92800  11.057   2.385   7.281  0.4505 -0.2409  0.0155
  673MOL0     C92801  11.038   2.263   7.312  0.5919 -0.4276 -0.4837
  673MOL0     C92802  11.136   2.418   6.680 -1.0085 -1.0709  0.0908
  673MOL0     C92803  11.220   2.364   6.584  0.3920  0.1346  1.1328
  673MOL0     C92804  11.355   2.439   6.561 -0.1384  0.3990  0.1698
  673MOL0     H92805  11.287   1.844   6.291 -1.7779 -2.4949 -2.2382
  673MOL0     H92806  11.383   1.780   6.086 -3.4011 -0.4005 -0.5310
  673MOL0     H92807  11.566   1.966   5.733 -0.7241  1.2690 -0.9313
  673MOL0     H92808  11.562   2.070   5.874 -0.7113 -0.6240  1.0844
  673MOL0     H92809  11.327   2.094   5.723  0.3823 -0.8834  0.9384
  673MOL0     H92810  11.457   2.224   5.736  0.6820  0.5210 -1.9896
  673MOL0     H92811  11.554   2.156   5.521 -1.4244  1.6528 -1.3750
  673MOL0     H92812  11.444   2.010   5.525 -0.3312 -0.6282  1.1948
  673MOL0     H92813  11.262   2.202   5.521  0.4874 -1.7789  0.6137
  673MOL0     H92814  11.393   2.311   5.484  1.5994 -0.4222  0.4928
  673MOL0     H92815  11.311   2.264   5.274 -2.4089  1.2657  1.4098
  673MOL0     H92816  11.290   2.097   5.309 -0.0210  0.3795 -1.3600
  673MOL0     H92817  11.559   2.241   5.276  2.4200 -1.6040  0.2174
  673MOL0     H92818  11.547   2.070   5.296 -0.8412  0.6106  1.4459
  673MOL0     H92819  11.554   2.137   5.053 -0.9556  1.7516 -1.6493
  673MOL0     H92820  11.413   2.233   5.074 -2.6810 -2.2836 -0.9327
  673MOL0     H92821  11.270   2.050   5.105  0.2842 -0.4098 -1.0173
  673MOL0     H92822  11.369   2.023   4.961  2.6989  2.2701 -0.5141
  673MOL0     H92823  11.528   1.812   4.947 -0.7204  3.3018 -1.1190
  673MOL0     H92824  11.574   1.536   5.062 -1.2887  0.8500  0.6103
  673MOL0     H92825  11.631   1.546   5.226  0.7152 -2.0741 -0.7931
  673MOL0     H92826  11.762   1.673   4.993  2.0673  1.6791  0.8902
  673MOL0     H92827  11.769   1.745   5.154  1.2119  0.3609 -0.0659
  673MOL0     H92828  11.966   1.583   5.130 -0.2879  1.8537 -1.8362
  673MOL0     H92829  11.854   1.511   5.241 -1.1613 -2.0907 -0.5175
  673MOL0     H92830  11.924   1.352   5.077 -0.0892  0.3784  0.0463
  673MOL0     H92831  11.750   1.392   5.040 -1.0437  2.1866  0.7361
  673MOL0     H92832  12.057   1.267   4.968 -1.6735  2.2654  2.3444
  673MOL0     H92833  12.274   1.177   5.008 -5.8902  0.2315 -2.0646
  673MOL0     H92834  12.420   1.245   4.913 -0.0308  0.2215  2.4413
  673MOL0     H92835  12.289   1.142   4.841 -3.4904  2.2363 -1.8703
  673MOL0     H92836  12.695   1.332   4.851  0.7138 -0.3604  0.6189
  673MOL0     H92837  12.930   1.343   4.800 -1.1622 -0.4411 -2.1598
  673MOL0     H92838  13.136   1.740   4.685 -0.6992 -1.9285 -0.7401
  673MOL0     H92839  13.118   1.709   4.863 -1.8397 -1.7097  1.4171
  673MOL0     H92840  13.307   1.556   4.873 -1.3477 -2.0203 -0.9153
  673MOL0     H92841  13.324   1.544   4.704  2.9720  2.8933 -2.0944
  673MOL0     H92842  13.413   1.803   4.840  1.3720  0.1050 -1.0790
  673MOL0     H92843  13.380   1.780   4.674  0.3388  3.3204  0.9417
  673MOL0     H92844  13.561   1.578   4.829  0.9781 -1.0196 -1.8302
  673MOL0     H92845  13.620   1.727   4.769 -0.2250 -0.4444  2.2741
  673MOL0     H92846  13.511   1.495   4.595  1.8325 -0.7659 -1.7674
  673MOL0     H92847  13.547   1.650   4.533  2.9743 -0.7766 -1.6244
  673MOL0     H92848  13.729   1.450   4.679 -1.2415  0.4774  0.7199
  673MOL0     H92849  13.791   1.614   4.647 -2.3373  0.8564  0.3807
  673MOL0     H92850  13.872   1.495   4.486  0.0889  1.8184  0.7368
  673MOL0     H92851  13.752   1.596   4.413  1.9640  1.6443  1.1241
  673MOL0     H92852  13.723   1.384   4.311  0.1428  0.5800  0.7975
  673MOL0     H92853  13.592   1.397   4.422  0.3403  2.6876 -1.0860
  673MOL0     H92854  12.905   1.737   4.651 -2.1174  2.0904  0.3602
  673MOL0     H92855  12.661   1.716   4.657 -1.7670 -2.3945 -2.0359
  673MOL0     H92856  12.258   1.615   4.688 -0.2750  0.4924  0.2555
  673MOL0     H92857  12.010   1.625   4.766 -1.3447 -0.8457 -1.4446
  673MOL0     H92858  11.293   2.162   5.912  1.3691 -0.1022 -0.1400
  673MOL0     H92859  11.189   2.228   6.133  0.6839  0.4275  0.4207
  673MOL0     H92860  11.006   2.098   6.531  0.3114 -0.0996  3.7768
  673MOL0     H92861  10.862   2.245   6.686  1.5972 -2.0593  0.9837
  673MOL0     H92862  11.086   2.452   6.941 -1.5960 -1.7350 -0.6659
  673MOL0     H92863  11.029   2.612   6.874 -3.0735  1.8310  2.1316
  673MOL0     H92864  10.863   2.427   7.068 -2.5727  0.5851 -0.1714
  673MOL0     H92865  10.824   2.588   7.023  1.6637  1.9373  0.8049
  673MOL0     H92866  11.026   2.687   7.146  0.6289  0.0366  1.6969
  673MOL0     H92867  10.904   2.639   7.239 -0.6728  2.9791 -1.5321
  673MOL0     H92868  11.117   2.574   7.325  0.3385 -0.9498  0.7684
  673MOL0     H92869  11.184   2.510   7.178  0.8445  2.8494  0.0348
  673MOL0     H92870  11.006   2.165   7.340  0.7402 -0.3992 -0.2149
  673MOL0     H92871  11.165   2.512   6.725 -0.6674 -2.0816  2.1128
  673MOL0     H92872  11.433   2.376   6.603  2.6064  2.2911 -1.7226
  673MOL0     H92873  11.365   2.452   6.453  1.1929 -0.0047  0.2281
  673MOL0     H92874  11.354   2.532   6.620  0.4783  0.7492 -0.3514
  674MOL0     O92875   1.285   7.253   2.526 -0.0772 -0.4276  0.1195
  674MOL0     C92876   1.300   7.166   2.612  0.2961 -0.1536  0.2633
  674MOL0     O92877   1.398   7.165   2.711  0.0699 -0.1215  0.7213
  674MOL0     C92878   1.477   7.280   2.711  0.0200 -0.1387 -0.4089
  674MOL0     C92879   1.457   7.361   2.823  0.1335 -0.8170 -0.3622
  674MOL0     C92880   1.524   7.488   2.833  0.3338  0.5372 -0.2338
  674MOL0     C92881   1.611   7.526   2.732  0.5994  0.8453  0.1028
  674MOL0     O92882   1.669   7.647   2.727  0.5146  0.1848  0.1976
  674MOL0     C92883   1.679   7.725   2.850  0.6129 -0.3465 -0.7782
  674MOL0     C92884   1.780   7.660   2.951 -0.4370  0.2702  0.6508
  674MOL0     C92885   1.805   7.750   3.075  0.4784  0.2823  0.7924
  674MOL0     C92886   1.899   7.873   3.062 -0.5384  1.2358 -0.3542
  674MOL0     C92887   1.881   7.970   3.178 -0.1743 -0.3108 -0.1359
  674MOL0     C92888   1.974   8.087   3.181 -0.0508 -0.2908 -0.3063
  674MOL0     C92889   1.955   8.190   3.059  0.1048 -0.4868 -0.0659
  674MOL0     C92890   2.044   8.311   3.089 -0.4455  0.9265 -0.0280
  674MOL0     N92891   2.050   8.401   2.971 -0.7000 -0.0827 -0.5890
  674MOL0     C92892   2.154   8.394   2.886 -0.9646  0.0115  0.1242
  674MOL0     C92893   2.143   8.494   2.798 -0.3073  0.4735  0.5928
  674MOL0     C92894   2.242   8.538   2.691 -0.8470 -0.8966  0.6784
  674MOL0     C92895   2.255   8.686   2.696 -0.3176 -0.7049 -0.5982
  674MOL0     C92896   2.332   8.752   2.572  1.2205  0.8421  0.6247
  674MOL0     C92897   2.327   8.903   2.592 -0.1867 -0.5542  0.5188
  674MOL0     O92898   2.191   8.958   2.554 -0.1117  1.1237  0.0602
  674MOL0     C92899   2.171   8.994   2.425 -0.2131 -0.8772 -0.1670
  674MOL0     C92900   2.259   8.988   2.315  0.4366  0.1317 -0.2961
  674MOL0     C92901   2.230   9.047   2.192  0.0853 -0.2699  0.0550
  674MOL0     C92902   2.332   9.066   2.086  0.3505 -0.7251  0.0522
  674MOL0     C92903   2.098   9.102   2.172 -0.5337  0.3604 -0.4841
  674MOL0     C92904   2.047   9.178   2.042 -0.4170 -0.4803  1.0115
  674MOL0     O92905   1.926   9.235   2.050  0.9862  0.5148  0.6523
  674MOL0     C92906   1.866   9.279   1.934  0.2451 -0.4823 -0.4581
  674MOL0     C92907   1.825   9.207   1.821  0.2868 -0.3956 -0.1366
  674MOL0     C92908   1.765   9.272   1.708 -0.4525 -0.1280 -0.2476
  674MOL0     C92909   1.740   9.410   1.705  0.0380 -0.2616  0.9243
  674MOL0     O92910   1.674   9.488   1.608  0.3581  0.0652  0.3225
  674MOL0     C92911   1.622   9.418   1.487 -0.0666 -0.3339  0.3755
  674MOL0     C92912   1.726   9.364   1.385  0.1509 -0.0922  0.4436
  674MOL0     C92913   1.819   9.470   1.319  0.4786  0.5631  0.3170
  674MOL0     C92914   1.933   9.405   1.229  0.5812  0.4238  0.3247
  674MOL0     C92915   2.022   9.497   1.152  0.5170 -0.8777 -0.4028
  674MOL0     C92916   2.120   9.425   1.053 -0.8678  0.7971 -0.4884
  674MOL0     C92917   2.212   9.530   0.996  1.0648  0.5382  0.1211
  674MOL0     C92918   2.332   9.467   0.936 -0.7872 -0.5050 -0.5013
  674MOL0    Cl92919   2.453   9.594   0.901 -0.1579  0.4405  0.3944
  674MOL0     C92920   1.779   9.483   1.821 -0.2250  0.7766  0.3076
  674MOL0     C92921   1.841   9.417   1.931  0.1033 -1.1251  1.0764
  674MOL0     O92922   2.114   9.185   1.940 -0.4563 -0.5440 -0.0272
  674MOL0     C92923   2.018   9.112   2.279  0.3765 -0.1764 -0.2188
  674MOL0     C92924   2.050   9.056   2.406  0.5580 -0.3451  0.2558
  674MOL0     N92925   2.021   8.558   2.840 -0.3557 -0.9456  0.6952
  674MOL0     N92926   1.971   8.505   2.942 -0.1957 -0.6143  0.2888
  674MOL0     C92927   1.630   7.442   2.622  0.5326 -0.5551  0.5034
  674MOL0     C92928   1.560   7.321   2.612 -0.3767  1.1165 -0.0169
  674MOL0     C92929   1.214   7.048   2.607 -0.0253  0.6649 -0.3733
  674MOL0     C92930   1.225   6.953   2.717  0.1943 -0.0027  0.6569
  674MOL0     C92931   1.133   6.854   2.736  0.4653  0.3862  0.5172
  674MOL0     C92932   1.043   6.818   2.632  0.2871 -0.9907 -0.4739
  674MOL0     O92933   0.964   6.708   2.659 -0.2205 -0.0374 -1.1033
  674MOL0     C92934   0.869   6.658   2.562  1.2575 -0.1397  0.3540
  674MOL0     C92935   0.796   6.521   2.607  0.2620 -0.0063 -0.3015
  674MOL0     C92936   0.677   6.498   2.518  0.0910  0.6953 -0.3552
  674MOL0     C92937   0.712   6.462   2.371  0.3926 -0.0557  0.1521
  674MOL0     C92938   0.749   6.582   2.296  0.4935 -0.7195  0.5595
  674MOL0     C92939   0.757   6.688   2.231 -0.2813  0.2667  0.2761
  674MOL0     C92940   1.048   6.895   2.510 -0.2856  0.5085 -0.5381
  674MOL0     C92941   1.119   7.013   2.499 -0.2297  0.0084 -0.7137
  674MOL0     C92942   1.105   7.093   2.367 -0.1746  0.8362  0.7300
  674MOL0     H92943   1.391   7.333   2.904 -0.3294 -1.5892 -0.9914
  674MOL0     H92944   1.494   7.546   2.919  1.6330  3.1586 -1.4218
  674MOL0     H92945   1.588   7.749   2.905 -0.2154 -0.9160 -1.8569
  674MOL0     H92946   1.720   7.818   2.811 -0.3566 -0.2835 -1.7070
  674MOL0     H92947   1.755   7.560   2.987 -1.6633 -1.2853 -3.8642
  674MOL0     H92948   1.877   7.651   2.901 -1.8119  1.8157 -2.5338
  674MOL0     H92949   1.708   7.786   3.110  1.1515  0.7393  2.2978
  674MOL0     H92950   1.840   7.685   3.156 -0.2475  0.1238  0.9883
  674MOL0     H92951   2.004   7.840   3.057 -0.0411  2.6224  0.3562
  674MOL0     H92952   1.869   7.927   2.971  1.9315  4.7863  0.7164
  674MOL0     H92953   1.888   7.912   3.270  0.7367 -0.3886 -0.2406
  674MOL0     H92954   1.781   8.015   3.176 -0.5992 -0.8469  3.2747
  674MOL0     H92955   1.964   8.127   3.282 -1.5456 -0.2167 -0.4532
  674MOL0     H92956   2.078   8.058   3.167 -0.0896 -0.6798  0.2016
  674MOL0     H92957   1.850   8.215   3.043  0.0927 -0.7297 -0.3612
  674MOL0     H92958   1.990   8.141   2.968  0.3991  0.3611 -0.4257
  674MOL0     H92959   2.001   8.365   3.174 -0.3404 -1.4771  1.6423
  674MOL0     H92960   2.143   8.273   3.115 -1.8824 -2.5480  0.9263
  674MOL0     H92961   2.237   8.324   2.887 -1.5028 -0.7117 -1.5346
  674MOL0     H92962   2.214   8.504   2.591 -0.4590 -1.6664  0.8288
  674MOL0     H92963   2.336   8.484   2.698 -0.3392 -0.5697 -2.2788
  674MOL0     H92964   2.152   8.722   2.698 -0.3588 -0.6546 -2.3178
  674MOL0     H92965   2.310   8.702   2.789 -1.7761 -1.0760  0.3646
  674MOL0     H92966   2.438   8.725   2.581  1.5049  1.3023 -1.0023
  674MOL0     H92967   2.291   8.723   2.475 -0.5831  1.5055  1.1560
  674MOL0     H92968   2.353   8.942   2.690  0.0811  1.2049 -0.2151
  674MOL0     H92969   2.408   8.941   2.528  0.7249 -1.7626  0.9202
  674MOL0     H92970   2.356   8.941   2.328 -0.4608 -1.5591  0.6464
  674MOL0     H92971   2.297   9.035   1.987 -2.6957  1.5024  0.2807
  674MOL0     H92972   2.418   9.001   2.104  0.3692 -0.2975  1.6377
  674MOL0     H92973   2.347   9.171   2.061 -4.3433 -0.5408 -3.4375
  674MOL0     H92974   1.845   9.100   1.817  1.0321 -0.3683  1.8255
  674MOL0     H92975   1.726   9.202   1.636 -0.2454  0.1118 -0.5974
  674MOL0     H92976   1.560   9.333   1.517  0.5785 -1.1669 -0.5621
  674MOL0     H92977   1.552   9.496   1.458  1.0197  0.9190  1.0417
  674MOL0     H92978   1.796   9.299   1.439  1.1768 -2.0738 -3.0038
  674MOL0     H92979   1.676   9.312   1.303  1.8269 -1.2847  0.1118
  674MOL0     H92980   1.886   9.526   1.384  0.8449  2.4746 -1.5718
  674MOL0     H92981   1.755   9.545   1.270 -0.9954  0.6880  2.3176
  674MOL0     H92982   1.888   9.345   1.151  1.4892 -2.9922  2.2357
  674MOL0     H92983   1.993   9.334   1.287  1.5243  0.1940 -0.8980
  674MOL0     H92984   1.956   9.556   1.088 -0.4058  0.1163  1.3907
  674MOL0     H92985   2.073   9.571   1.214 -1.0873 -0.1431  0.0711
  674MOL0     H92986   2.063   9.379   0.972 -0.3546 -0.2461 -0.2726
  674MOL0     H92987   2.176   9.348   1.108 -2.1350  0.3479  0.2248
  674MOL0     H92988   2.239   9.607   1.070  1.1062 -0.5418  1.2620
  674MOL0     H92989   2.166   9.584   0.913  1.8499 -1.3012 -1.5890
  674MOL0     H92990   2.311   9.404   0.850 -1.5414  1.0774 -1.5306
  674MOL0     H92991   2.392   9.397   0.995  2.0911  1.7027 -0.5885
  674MOL0     H92992   1.768   9.591   1.823  1.9711  1.0656 -0.7087
  674MOL0     H92993   1.863   9.476   2.020  0.1356 -2.4272  1.9701
  674MOL0     H92994   1.918   9.154   2.271  0.3788 -0.1031  0.1080
  674MOL0     H92995   1.979   9.063   2.488  0.2744  1.8328 -0.1123
  674MOL0     H92996   1.695   7.471   2.540  0.4993 -0.1679  0.6112
  674MOL0     H92997   1.570   7.247   2.532  1.9833  0.9677  0.3372
  674MOL0     H92998   1.301   6.963   2.794  1.8217 -3.5571 -0.2626
  674MOL0     H92999   1.150   6.778   2.812  0.4829 -1.1900 -0.9818
  674MOL0     H93000   0.792   6.735   2.551  1.0676  0.0405  2.4936
  674MOL0     H93001   0.923   6.635   2.469  1.2213 -0.8659  0.5109
  674MOL0     H93002   0.763   6.536   2.711  0.3567  1.4079 -0.4648
  674MOL0     H93003   0.860   6.432   2.604  0.3728 -0.0954  2.1923
  674MOL0     H93004   0.621   6.411   2.555  0.3954 -1.3947 -4.3022
  674MOL0     H93005   0.608   6.582   2.518 -3.8131 -2.2266 -1.0517
  674MOL0     H93006   0.631   6.412   2.316 -2.0520  2.9684  0.7048
  674MOL0     H93007   0.805   6.406   2.362  2.9127  3.5514  1.4658
  674MOL0     H93008   0.762   6.787   2.190 -4.5878  0.0818 -1.2254
  674MOL0     H93009   0.989   6.856   2.427  2.9265 -0.5469 -2.5374
  674MOL0     H93010   1.110   7.203   2.369  2.4973  0.8435 -1.2668
  674MOL0     H93011   1.195   7.063   2.313 -0.9437  1.9255 -1.2947
  674MOL0     H93012   1.018   7.056   2.311  1.2616 -2.0624  0.2585
  675MOL0     O93013   8.482   7.831   8.927  0.2266 -0.5881  0.1821
  675MOL0     C93014   8.554   7.735   8.943  0.1607  0.0390 -0.4101
  675MOL0     O93015   8.679   7.744   8.998  0.0066  0.6167  0.1576
  675MOL0     C93016   8.739   7.866   9.021  0.9671  1.3183  0.2279
  675MOL0     C93017   8.869   7.888   8.965  0.0247 -0.0824  0.4210
  675MOL0     C93018   8.943   8.009   8.984  0.8700  0.0798  0.1350
  675MOL0     C93019   8.881   8.112   9.053  0.1844  0.3056 -0.1048
  675MOL0     O93020   8.954   8.219   9.075  0.0218  0.0970 -0.0997
  675MOL0     C93021   8.897   8.348   9.075  0.5200 -0.0274 -0.7021
  675MOL0     C93022   8.943   8.428   8.946 -0.2656 -0.0499 -0.2195
  675MOL0     C93023   8.906   8.574   8.978  0.3559 -0.3534  0.6088
  675MOL0     C93024   8.761   8.607   9.007 -0.2634 -0.3967  0.3749
  675MOL0     C93025   8.674   8.615   8.885 -0.6009  0.5992  0.6295
  675MOL0     C93026   8.531   8.654   8.916 -0.0522  1.3650  0.0436
  675MOL0     C93027   8.453   8.650   8.784 -0.0972 -0.2701  0.1749
  675MOL0     C93028   8.510   8.753   8.674  0.5431 -0.3874  0.9248
  675MOL0     N93029   8.401   8.841   8.615  0.0517 -0.0221  0.6029
  675MOL0     C93030   8.308   8.916   8.686 -0.6055 -0.0960 -0.6827
  675MOL0     C93031   8.216   8.954   8.596 -0.4670  0.4651 -0.6652
  675MOL0     C93032   8.109   9.048   8.625 -0.2670 -0.2691  0.6967
  675MOL0     C93033   8.070   9.116   8.497 -0.8306 -0.5592 -0.0298
  675MOL0     C93034   7.937   9.201   8.506 -0.2298 -0.4188 -1.1193
  675MOL0     C93035   7.880   9.242   8.372 -0.4726  0.0393  0.1954
  675MOL0     O93036   7.990   9.313   8.312  0.1636 -0.6450 -0.5058
  675MOL0     C93037   7.963   9.382   8.201 -0.6578 -0.2511  0.2360
  675MOL0     C93038   8.051   9.378   8.086 -0.1687  0.6025  0.1422
  675MOL0     C93039   8.030   9.456   7.968 -0.1010  0.2862  0.3361
  675MOL0     C93040   8.127   9.435   7.853  0.2842  0.3413  0.5011
  675MOL0     C93041   7.930   9.558   7.971 -0.4501  0.8585  0.6111
  675MOL0     C93042   7.898   9.657   7.857 -0.2223  0.0915 -0.0727
  675MOL0     O93043   7.771   9.693   7.843  0.7599 -0.3653  0.9666
  675MOL0     C93044   7.733   9.787   7.748 -0.6694  0.2173 -0.7403
  675MOL0     C93045   7.807   9.896   7.688  0.8573 -0.3528 -0.2230
  675MOL0     C93046   7.743   9.982   7.598 -0.5717 -0.1496 -0.5020
  675MOL0     C93047   7.605   9.962   7.557 -1.0851 -1.3007  0.7034
  675MOL0     O93048   7.552  10.040   7.456  0.0194 -0.2683 -0.9370
  675MOL0     C93049   7.640  10.104   7.365  0.2860 -0.7281  0.7296
  675MOL0     C93050   7.574  10.187   7.256 -0.0781 -1.0601  0.0457
  675MOL0     C93051   7.671  10.245   7.152 -0.1991  0.3924 -0.8525
  675MOL0     C93052   7.802  10.318   7.201 -0.1969  0.5465  0.5519
  675MOL0     C93053   7.903  10.312   7.087  0.1453 -0.3357  0.2906
  675MOL0     C93054   7.850  10.394   6.964 -0.4083  0.1951  0.0414
  675MOL0     C93055   7.965  10.467   6.896  0.1432  0.2455  0.8840
  675MOL0     C93056   8.034  10.390   6.781  0.2837 -0.3563  1.5304
  675MOL0    Cl93057   8.176  10.480   6.730 -0.3472  0.2607 -0.0333
  675MOL0     C93058   7.535   9.871   7.620  0.3698  1.4074 -0.3472
  675MOL0     C93059   7.595   9.781   7.719 -0.4497 -0.7415 -0.6603
  675MOL0     O93060   7.999   9.712   7.806  0.0275  0.1422  0.4659
  675MOL0     C93061   7.845   9.559   8.084  0.0545 -0.6065  0.3462
  675MOL0     C93062   7.857   9.479   8.195 -1.6514  0.6966 -0.6215
  675MOL0     N93063   8.254   8.903   8.477 -0.4436 -0.3697  0.3589
  675MOL0     N93064   8.361   8.839   8.483 -0.6802 -0.4725 -0.2783
  675MOL0     C93065   8.749   8.089   9.113 -0.3265  0.3728  1.1326
  675MOL0     C93066   8.679   7.973   9.092 -0.5002  1.2189  0.0417
  675MOL0     C93067   8.509   7.596   8.907  0.3187 -0.7438  0.5321
  675MOL0     C93068   8.608   7.503   8.886 -0.5043 -0.2503 -0.7534
  675MOL0     C93069   8.582   7.371   8.857 -0.4321  0.3818  1.4973
  675MOL0     C93070   8.448   7.327   8.847 -0.5593  0.3524 -1.0567
  675MOL0     O93071   8.399   7.201   8.831  0.1004 -0.2358 -0.5061
  675MOL0     C93072   8.487   7.085   8.835 -0.3974 -0.0065 -0.2690
  675MOL0     C93073   8.407   6.978   8.766 -0.8395  0.4040 -0.1181
  675MOL0     C93074   8.481   6.847   8.762 -0.4307 -0.4005 -0.1765
  675MOL0     C93075   8.523   6.780   8.901  0.0602  0.1984  0.8750
  675MOL0     C93076   8.404   6.756   8.980  0.0036 -0.1154 -0.3390
  675MOL0     C93077   8.301   6.725   9.043 -0.7946 -0.2723 -0.0582
  675MOL0     C93078   8.346   7.422   8.854 -0.0451 -0.4278 -0.7258
  675MOL0     C93079   8.384   7.554   8.882  0.1474  0.9695 -0.5153
  675MOL0     C93080   8.262   7.643   8.895  0.1270  0.0908  0.1893
  675MOL0     H93081   8.932   7.811   8.922  0.9443  0.9636 -0.1648
  675MOL0     H93082   9.043   8.024   8.947  2.1914  2.6481  4.0679
  675MOL0     H93083   8.933   8.403   9.163  0.5086  2.0616 -1.9400
  675MOL0     H93084   8.789   8.344   9.092  0.6543 -0.1700  0.1717
  675MOL0     H93085   9.048   8.407   8.924  0.0748 -1.1143  2.0692
  675MOL0     H93086   8.884   8.384   8.864 -2.5671 -0.5015  1.5564
  675MOL0     H93087   8.955   8.610   9.069 -2.5525  0.2847  2.0232
  675MOL0     H93088   8.928   8.631   8.887  2.9004 -0.4340  1.0781
  675MOL0     H93089   8.717   8.536   9.078  0.4672  1.4093  2.7672
  675MOL0     H93090   8.747   8.701   9.061  1.4276  1.8705 -2.7772
  675MOL0     H93091   8.684   8.516   8.840 -2.3013 -0.8036  3.0995
  675MOL0     H93092   8.721   8.692   8.823  1.4927 -0.4882  0.7584
  675MOL0     H93093   8.491   8.572   8.977 -0.2750  0.8996 -0.7013
  675MOL0     H93094   8.526   8.752   8.964 -0.8933  0.6055  1.5840
  675MOL0     H93095   8.351   8.686   8.805  0.8544  2.5663  0.3421
  675MOL0     H93096   8.455   8.544   8.755 -1.9378  0.0087 -1.1481
  675MOL0     H93097   8.581   8.824   8.717 -0.6944  0.8030  1.0993
  675MOL0     H93098   8.555   8.694   8.593 -2.6689 -3.1370  0.9443
  675MOL0     H93099   8.304   8.925   8.794 -2.4575 -0.6608 -0.6754
  675MOL0     H93100   8.150   9.126   8.691 -1.3112  1.5965 -0.7439
  675MOL0     H93101   8.025   8.999   8.675 -1.0330  0.1339 -0.1733
  675MOL0     H93102   8.159   9.172   8.466 -1.4478 -0.2636 -1.3464
  675MOL0     H93103   8.047   9.035   8.427  1.1833  0.0119 -1.4360
  675MOL0     H93104   7.865   9.158   8.577 -1.1086 -0.0995 -1.7980
  675MOL0     H93105   7.965   9.295   8.554 -1.2997 -0.7848  0.3392
  675MOL0     H93106   7.846   9.156   8.312  2.1683 -1.1100  0.2291
  675MOL0     H93107   7.794   9.308   8.388  0.1731  1.5570 -2.1155
  675MOL0     H93108   8.128   9.303   8.072 -2.3148 -1.4584 -1.4136
  675MOL0     H93109   8.054   9.442   7.772 -2.9459  4.0989  3.2659
  675MOL0     H93110   8.173   9.338   7.873 -1.9871 -0.8166  0.4505
  675MOL0     H93111   8.209   9.507   7.855 -2.4073  3.8520  4.1962
  675MOL0     H93112   7.914   9.910   7.700  0.7161 -0.1140  0.8547
  675MOL0     H93113   7.811  10.041   7.538 -0.4194 -1.0543 -1.2564
  675MOL0     H93114   7.707  10.171   7.420  1.5294  0.1111 -1.6528
  675MOL0     H93115   7.710  10.033   7.321  2.4313  1.1536  0.8804
  675MOL0     H93116   7.499  10.125   7.206 -1.4163 -0.0153  0.7015
  675MOL0     H93117   7.514  10.264   7.305 -0.7889 -1.8418  0.4353
  675MOL0     H93118   7.614  10.316   7.091 -1.9007  1.4447  1.7981
  675MOL0     H93119   7.702  10.170   7.079 -1.0152  1.0173 -1.8710
  675MOL0     H93120   7.854  10.280   7.289 -1.8093 -1.9360  0.5188
  675MOL0     H93121   7.782  10.423   7.227  0.0063  1.0055 -1.0034
  675MOL0     H93122   7.998  10.356   7.120  1.3117 -2.9841  0.7619
  675MOL0     H93123   7.922  10.209   7.055  0.7640 -0.6642  1.6385
  675MOL0     H93124   7.802  10.487   6.997  0.1565  1.1645 -1.7143
  675MOL0     H93125   7.796  10.328   6.896 -0.1684 -0.4596  0.4830
  675MOL0     H93126   8.043  10.490   6.969  0.3721  0.6910  0.4968
  675MOL0     H93127   7.917  10.561   6.867  0.1147  1.4040  4.2687
  675MOL0     H93128   7.979  10.381   6.687  0.8968  2.6774  0.7886
  675MOL0     H93129   8.056  10.286   6.808  1.8672 -0.7948 -1.0636
  675MOL0     H93130   7.430   9.855   7.594  0.3169 -3.4913  1.8731
  675MOL0     H93131   7.529   9.717   7.776 -0.7491 -1.4085 -1.7212
  675MOL0     H93132   7.771   9.638   8.093  1.2056  0.5842 -0.4090
  675MOL0     H93133   7.783   9.479   8.274 -1.3679 -3.7123 -0.1281
  675MOL0     H93134   8.685   8.160   9.164  0.3439  1.1946  0.8428
  675MOL0     H93135   8.583   7.963   9.142 -1.3418  1.1484 -1.5299
  675MOL0     H93136   8.712   7.527   8.903 -0.6101  0.1918 -0.7161
  675MOL0     H93137   8.663   7.300   8.848 -0.4770  0.2061  2.3588
  675MOL0     H93138   8.579   7.110   8.782  0.4099  0.7355  1.4080
  675MOL0     H93139   8.515   7.061   8.938 -1.1825 -2.9667 -0.6583
  675MOL0     H93140   8.389   7.009   8.663  0.4656  0.9432 -0.2140
  675MOL0     H93141   8.311   6.960   8.814 -0.1160 -0.6985  0.9812
  675MOL0     H93142   8.423   6.779   8.699 -2.0448 -1.1410  1.9614
  675MOL0     H93143   8.573   6.853   8.704 -0.3918 -0.4241 -0.1171
  675MOL0     H93144   8.591   6.843   8.958  1.8517  0.9271 -1.8574
  675MOL0     H93145   8.579   6.687   8.883 -0.1662  0.2607 -0.2422
  675MOL0     H93146   8.212   6.702   9.097  0.2071  0.4733  2.0284
  675MOL0     H93147   8.241   7.394   8.848  0.0561 -0.7762 -0.8734
  675MOL0     H93148   8.221   7.680   8.800  2.0178 -0.8277 -1.0529
  675MOL0     H93149   8.194   7.572   8.942  1.9197 -1.5865  0.4028
  675MOL0     H93150   8.267   7.723   8.970 -1.6952  2.5932 -2.1537
  676MOL0     O93151   5.600   6.113   2.648  0.8732 -0.0011 -0.0974
  676MOL0     C93152   5.607   6.028   2.559  0.0665  0.0398  0.1496
  676MOL0     O93153   5.634   5.893   2.574  0.5103 -0.7183 -0.4084
  676MOL0     C93154   5.610   5.828   2.702 -0.3668 -0.5834  0.2070
  676MOL0     C93155   5.685   5.720   2.742 -0.4751 -0.8891 -0.6438
  676MOL0     C93156   5.662   5.649   2.856 -0.3260 -0.8060  0.6632
  676MOL0     C93157   5.564   5.692   2.939  0.5970  0.1222 -0.0058
  676MOL0     O93158   5.538   5.607   3.047  0.3848  0.0672  0.2990
  676MOL0     C93159   5.464   5.663   3.161  0.0038 -1.2298 -0.5910
  676MOL0     C93160   5.495   5.592   3.288  0.7400 -0.8407 -0.5242
  676MOL0     C93161   5.455   5.665   3.417 -0.4296 -0.2387 -0.4758
  676MOL0     C93162   5.389   5.568   3.512  0.3749  0.1315  0.7612
  676MOL0     C93163   5.353   5.624   3.654 -0.1149  0.4533  0.7327
  676MOL0     C93164   5.269   5.742   3.651  0.3729 -0.9555 -0.0611
  676MOL0     C93165   5.180   5.751   3.779  0.4838  0.5740  0.0050
  676MOL0     C93166   5.253   5.824   3.897  0.6263  0.1945  0.4095
  676MOL0     N93167   5.254   5.962   3.878 -0.1996  0.5732  0.2968
  676MOL0     C93168   5.351   6.035   3.821  0.8244 -0.3193 -0.2252
  676MOL0     C93169   5.296   6.163   3.825  0.8777 -0.4778  0.8634
  676MOL0     C93170   5.351   6.279   3.746 -0.1179 -0.3083 -0.1318
  676MOL0     C93171   5.266   6.314   3.615  0.7510  0.3308 -0.1293
  676MOL0     C93172   5.310   6.244   3.493 -0.8339  0.3625  0.5093
  676MOL0     C93173   5.197   6.235   3.390 -0.1005  0.9069  0.3952
  676MOL0     O93174   5.244   6.175   3.267  0.3532 -0.0096  0.0667
  676MOL0     C93175   5.140   6.139   3.182 -0.8210 -0.0412  0.1139
  676MOL0     C93176   5.000   6.129   3.208 -0.0032 -0.0182 -0.0262
  676MOL0     C93177   4.909   6.107   3.115  0.1641 -0.1649  0.6525
  676MOL0     C93178   4.769   6.111   3.149  0.5725  0.2528 -0.0725
  676MOL0     C93179   4.945   6.082   2.979 -0.3807 -0.2862 -0.1941
  676MOL0     C93180   4.847   6.054   2.872  0.5712 -0.6652 -0.8146
  676MOL0     O93181   4.887   5.980   2.771 -0.2721 -0.0130  1.2386
  676MOL0     C93182   4.806   5.890   2.718  0.3353  0.4075 -0.4458
  676MOL0     C93183   4.810   5.883   2.578 -0.2674 -0.2356 -0.2231
  676MOL0     C93184   4.738   5.777   2.513  0.6482  0.1794 -0.4178
  676MOL0     C93185   4.658   5.678   2.582 -0.3616  0.0894  0.3037
  676MOL0     O93186   4.591   5.570   2.533  0.2436 -0.2074  0.3266
  676MOL0     C93187   4.668   5.481   2.451  0.1533 -0.3733 -0.0315
  676MOL0     C93188   4.584   5.351   2.441  0.7143  0.5754  0.2020
  676MOL0     C93189   4.480   5.383   2.340  0.7265 -0.9000 -0.6022
  676MOL0     C93190   4.399   5.254   2.328 -0.6344  0.4734  0.5863
  676MOL0     C93191   4.299   5.263   2.211 -0.3146  0.1765  0.1035
  676MOL0     C93192   4.230   5.121   2.174 -0.0418 -0.5719 -0.0747
  676MOL0     C93193   4.135   5.070   2.286  0.5172  0.4217  0.0315
  676MOL0     C93194   3.999   5.154   2.286 -0.1364  0.2204 -0.1865
  676MOL0    Cl93195   3.933   5.107   2.439  0.4743 -0.4449  0.4229
  676MOL0     C93196   4.663   5.692   2.727  0.0432  0.0551 -0.4908
  676MOL0     C93197   4.729   5.797   2.785 -0.4099  0.7959 -0.6342
  676MOL0     O93198   4.738   6.113   2.865  0.5916 -0.6970  0.3101
  676MOL0     C93199   5.081   6.085   2.949  0.2340  0.2498  0.1403
  676MOL0     C93200   5.173   6.127   3.046  1.5873  0.5483 -0.5236
  676MOL0     N93201   5.171   6.158   3.889  0.6825 -0.2318  0.4288
  676MOL0     N93202   5.143   6.038   3.914 -0.4405 -0.1984  0.1954
  676MOL0     C93203   5.484   5.799   2.904  0.0668  0.5144 -0.7039
  676MOL0     C93204   5.505   5.870   2.784 -0.3437 -0.2036  0.2659
  676MOL0     C93205   5.565   6.077   2.423  0.0426 -0.2260 -0.7428
  676MOL0     C93206   5.564   5.976   2.315 -0.4704 -0.3039 -0.1484
  676MOL0     C93207   5.547   6.007   2.181 -0.7434  0.5307 -0.6374
  676MOL0     C93208   5.503   6.137   2.155  0.4628  0.0914 -0.7368
  676MOL0     O93209   5.472   6.170   2.027  0.1012 -0.6140 -0.6614
  676MOL0     C93210   5.330   6.166   1.996 -0.4940  0.8866 -0.0169
  676MOL0     C93211   5.293   6.250   1.869 -0.0589  0.1931 -0.0830
  676MOL0     C93212   5.388   6.234   1.753  0.2713 -0.3726 -0.3363
  676MOL0     C93213   5.367   6.104   1.675  0.1788 -0.1199 -0.2218
  676MOL0     C93214   5.477   6.087   1.579 -1.0794 -0.2649 -0.1183
  676MOL0     C93215   5.555   6.054   1.498 -0.6812  0.1891  1.1478
  676MOL0     C93216   5.488   6.232   2.255  0.4734 -0.2008 -0.3838
  676MOL0     C93217   5.525   6.207   2.388  0.6379  0.4331  1.1883
  676MOL0     C93218   5.518   6.328   2.480  0.8396 -0.3648 -0.4504
  676MOL0     H93219   5.767   5.688   2.678  0.5037  0.1997  0.0165
  676MOL0     H93220   5.715   5.559   2.886  0.3189 -1.1359 -1.3202
  676MOL0     H93221   5.356   5.681   3.151  0.0272 -1.9954 -2.5282
  676MOL0     H93222   5.500   5.767   3.165 -0.0550 -1.2475  1.4676
  676MOL0     H93223   5.439   5.499   3.283  0.7622 -0.7875 -3.1139
  676MOL0     H93224   5.601   5.564   3.290  1.0742  0.3790  0.3463
  676MOL0     H93225   5.546   5.711   3.455  0.9113 -2.6519 -0.5878
  676MOL0     H93226   5.385   5.748   3.400  0.4604  0.5502 -0.3465
  676MOL0     H93227   5.291   5.547   3.468  0.5008  3.6335 -1.6038
  676MOL0     H93228   5.452   5.479   3.514  0.7619  0.1517 -3.2808
  676MOL0     H93229   5.442   5.662   3.706  0.8904  2.1925 -1.9760
  676MOL0     H93230   5.310   5.540   3.708 -2.6100  0.4044 -1.1183
  676MOL0     H93231   5.328   5.833   3.641  0.8953 -1.3341 -0.4959
  676MOL0     H93232   5.198   5.747   3.567  1.4520  4.9378 -1.0559
  676MOL0     H93233   5.148   5.655   3.820 -2.8452  0.7956 -1.7654
  676MOL0     H93234   5.089   5.804   3.750 -0.8838 -2.7975 -2.5227
  676MOL0     H93235   5.191   5.805   3.985  0.1469  1.8736  0.4738
  676MOL0     H93236   5.352   5.778   3.906  0.2757 -0.9103 -1.1292
  676MOL0     H93237   5.443   5.997   3.779  1.0504 -1.2508  1.0187
  676MOL0     H93238   5.454   6.260   3.712  1.6526  3.8730  2.1504
  676MOL0     H93239   5.351   6.363   3.816  1.1977  0.7333 -1.2998
  676MOL0     H93240   5.160   6.315   3.644  0.9420  0.5161  0.5800
  676MOL0     H93241   5.292   6.417   3.589  1.1092  0.2107 -0.2412
  676MOL0     H93242   5.394   6.295   3.445  1.0312 -1.1556  2.0023
  676MOL0     H93243   5.349   6.143   3.508 -1.5083  0.1854  1.1214
  676MOL0     H93244   5.119   6.171   3.433 -0.5208  1.6910  0.8227
  676MOL0     H93245   5.164   6.336   3.364  0.9482  1.3391  0.6938
  676MOL0     H93246   4.971   6.136   3.313  0.6724 -0.0735  0.1654
  676MOL0     H93247   4.701   6.165   3.081 -6.0118 -4.6566  1.5464
  676MOL0     H93248   4.755   6.153   3.249  0.7545  2.6883 -1.0040
  676MOL0     H93249   4.734   6.008   3.156  1.1710  0.1579  2.3259
  676MOL0     H93250   4.878   5.945   2.521  0.9490  0.2222  1.6324
  676MOL0     H93251   4.756   5.769   2.407  0.0215 -3.4729 -0.3594
  676MOL0     H93252   4.691   5.526   2.355 -0.1199  0.6729  0.3807
  676MOL0     H93253   4.760   5.461   2.506 -0.1639  1.5385  1.2908
  676MOL0     H93254   4.648   5.268   2.408 -0.9851 -1.4662  1.7635
  676MOL0     H93255   4.544   5.323   2.539  0.7081  0.6905  0.2318
  676MOL0     H93256   4.530   5.414   2.248  4.9686 -0.7741  1.5409
  676MOL0     H93257   4.420   5.462   2.387  1.3501 -0.5586 -0.3821
  676MOL0     H93258   4.356   5.217   2.421  1.7439 -0.8511  1.2597
  676MOL0     H93259   4.471   5.172   2.313  0.2283  1.0487  1.4804
  676MOL0     H93260   4.228   5.341   2.239  2.6716  2.7051  1.2631
  676MOL0     H93261   4.354   5.294   2.121 -0.1293 -0.8544 -0.1455
  676MOL0     H93262   4.299   5.041   2.146  1.0052  1.3782 -3.5290
  676MOL0     H93263   4.171   5.139   2.084  2.3870  1.4435 -1.3523
  676MOL0     H93264   4.180   5.063   2.385  0.8760  0.7173 -0.1098
  676MOL0     H93265   4.107   4.967   2.261  1.7903  0.2704 -0.8558
  676MOL0     H93266   3.938   5.135   2.198 -0.5779  2.9641 -0.5414
  676MOL0     H93267   4.017   5.261   2.282 -0.1134  0.2219 -0.0405
  676MOL0     H93268   4.617   5.604   2.772 -3.4948  0.6311 -2.5976
  676MOL0     H93269   4.729   5.805   2.894 -0.9934  2.7794 -0.7507
  676MOL0     H93270   5.113   6.077   2.846  1.6145  1.1265  0.4738
  676MOL0     H93271   5.274   6.142   3.008  1.1400  2.5408 -1.0447
  676MOL0     H93272   5.399   5.832   2.963 -0.3158 -0.5213 -0.6636
  676MOL0     H93273   5.428   5.946   2.774 -1.7694 -1.2209  2.6070
  676MOL0     H93274   5.575   5.871   2.338 -0.4239 -0.2498  0.0791
  676MOL0     H93275   5.558   5.925   2.111  1.9972 -2.9540  3.3792
  676MOL0     H93276   5.300   6.061   1.989 -0.5227  0.7722  1.5073
  676MOL0     H93277   5.272   6.209   2.079 -2.4123  0.4152 -1.0570
  676MOL0     H93278   5.297   6.357   1.893 -1.7273  0.1096  0.6813
  676MOL0     H93279   5.190   6.224   1.846 -0.1681  1.8979 -1.7475
  676MOL0     H93280   5.371   6.323   1.693  1.5060  0.3721  0.3551
  676MOL0     H93281   5.490   6.249   1.791 -0.5476  1.2402  1.4081
  676MOL0     H93282   5.274   6.117   1.618  1.9729  1.6057 -3.0425
  676MOL0     H93283   5.346   6.021   1.742  0.3268 -1.1379 -1.4035
  676MOL0     H93284   5.631   6.040   1.424  0.4574  3.3246  1.5856
  676MOL0     H93285   5.461   6.334   2.233 -0.0196  0.8671  4.1145
  676MOL0     H93286   5.613   6.338   2.533 -0.0214 -0.6107  1.2148
  676MOL0     H93287   5.518   6.413   2.412 -1.8352 -0.6181 -0.8584
  676MOL0     H93288   5.435   6.327   2.551 -0.0244 -2.1034 -1.4267
  677MOL0     O93289  10.548   8.509   3.287  0.2778 -0.3154  0.0702
  677MOL0     C93290  10.566   8.391   3.273  0.6632 -1.4251  0.2802
  677MOL0     O93291  10.565   8.335   3.146 -0.1385 -0.3577 -0.2208
  677MOL0     C93292  10.536   8.418   3.037 -0.8311  0.6193 -0.0581
  677MOL0     C93293  10.631   8.480   2.954 -0.5255  0.6233 -0.1329
  677MOL0     C93294  10.597   8.554   2.835  0.4501  0.5444  0.7077
  677MOL0     C93295  10.464   8.564   2.801 -0.5932  0.5951  0.0070
  677MOL0     O93296  10.438   8.616   2.680  0.6824 -0.1773 -0.1055
  677MOL0     C93297  10.352   8.737   2.700 -0.8119 -0.2521 -0.3925
  677MOL0     C93298  10.385   8.842   2.583  0.2794 -0.0534  0.6130
  677MOL0     C93299  10.539   8.867   2.558  0.1938  0.6713  1.1164
  677MOL0     C93300  10.623   8.926   2.667  0.1716 -0.3460  0.3728
  677MOL0     C93301  10.767   8.945   2.616 -0.6570 -0.4774 -0.0980
  677MOL0     C93302  10.868   8.943   2.727 -0.3993 -0.4366  0.3885
  677MOL0     C93303  10.859   9.074   2.823  0.3714  0.1763  0.3108
  677MOL0     C93304  10.872   9.206   2.745 -0.7618  0.3666 -0.4397
  677MOL0     N93305  10.899   9.317   2.829 -0.3286  1.3170  0.0651
  677MOL0     C93306  10.897   9.322   2.967 -0.1710  0.1791 -0.8646
  677MOL0     C93307  10.903   9.452   3.002  0.7489 -0.2427  0.2765
  677MOL0     C93308  10.913   9.508   3.148 -0.1272  0.0806  0.8886
  677MOL0     C93309  11.046   9.571   3.187 -0.5357  0.0492  0.1291
  677MOL0     C93310  11.066   9.709   3.124  0.7546  0.4947 -0.6972
  677MOL0     C93311  11.203   9.776   3.128 -0.1594  0.1056 -0.1172
  677MOL0     O93312  11.200   9.878   3.223  0.0689 -0.4691 -0.0490
  677MOL0     C93313  11.292   9.978   3.218 -0.1946 -0.1696 -0.4091
  677MOL0     C93314  11.402   9.976   3.136 -0.0955 -0.7233 -0.4658
  677MOL0     C93315  11.479  10.093   3.117 -0.0026  1.3550  0.2264
  677MOL0     C93316  11.604  10.089   3.027 -0.4490  0.2218  0.1958
  677MOL0     C93317  11.447  10.214   3.187  0.4179 -0.4793  0.0704
  677MOL0     C93318  11.524  10.340   3.190 -0.5232 -0.0009 -0.4704
  677MOL0     O93319  11.597  10.391   3.080  0.4215 -0.1622  0.0307
  677MOL0     C93320  11.709  10.460   3.114  0.1599 -0.6562 -0.5319
  677MOL0     C93321  11.716  10.581   3.191 -0.0481  0.3907 -0.0282
  677MOL0     C93322  11.830  10.642   3.226  0.7741 -0.0077  0.4806
  677MOL0     C93323  11.948  10.577   3.205 -0.4533 -0.1664 -0.0818
  677MOL0     O93324  12.068  10.627   3.255  0.5093 -0.0986 -0.0453
  677MOL0     C93325  12.068  10.757   3.315 -0.1731 -0.0825  0.1858
  677MOL0     C93326  12.201  10.790   3.368  0.1383  0.3774  0.2668
  677MOL0     C93327  12.325  10.762   3.287  1.2997  0.0486  0.5154
  677MOL0     C93328  12.441  10.848   3.336  0.6573  0.9574 -1.1649
  677MOL0     C93329  12.565  10.838   3.244 -0.5516  0.9894  0.2048
  677MOL0     C93330  12.678  10.924   3.302  0.7971  0.1510  0.3083
  677MOL0     C93331  12.655  11.081   3.295 -0.1695 -0.8855  0.7768
  677MOL0     C93332  12.786  11.155   3.300  0.4370  0.1831  0.9857
  677MOL0    Cl93333  12.871  11.149   3.462 -0.3087 -0.0264 -0.5304
  677MOL0     C93334  11.948  10.457   3.138 -0.1046  0.2595  0.6267
  677MOL0     C93335  11.837  10.409   3.079 -0.5731  0.4769  0.1853
  677MOL0     O93336  11.526  10.397   3.300  1.1512  0.0701  0.0889
  677MOL0     C93337  11.332  10.200   3.274  0.2572 -0.8773 -0.2608
  677MOL0     C93338  11.254  10.090   3.281 -0.5694 -1.1014  0.5038
  677MOL0     N93339  10.890   9.529   2.889 -0.9709  0.8246  0.3517
  677MOL0     N93340  10.895   9.446   2.789  0.5182 -0.3206 -0.4944
  677MOL0     C93341  10.358   8.512   2.885  0.1916 -0.0031 -0.3088
  677MOL0     C93342  10.401   8.435   2.999  0.3007  0.5517  0.4437
  677MOL0     C93343  10.571   8.308   3.400 -0.1744  0.7215 -0.1100
  677MOL0     C93344  10.514   8.348   3.515  0.2506 -0.5559 -0.8527
  677MOL0     C93345  10.506   8.268   3.631 -0.5351  0.5301 -0.4799
  677MOL0     C93346  10.569   8.136   3.629 -0.1034  0.2934 -1.6568
  677MOL0     O93347  10.561   8.068   3.754 -0.2722 -0.3178  0.5392
  677MOL0     C93348  10.619   7.943   3.766  0.1442  0.2616 -0.7036
  677MOL0     C93349  10.544   7.832   3.702 -0.2032  0.5109  0.0883
  677MOL0     C93350  10.406   7.817   3.741  0.7292 -0.3735  0.3279
  677MOL0     C93351  10.312   7.915   3.654  0.3787 -0.2114 -0.4094
  677MOL0     C93352  10.337   7.925   3.505  0.4385 -0.4816  0.6540
  677MOL0     C93353  10.366   7.933   3.381 -0.5474  0.5765 -0.4549
  677MOL0     C93354  10.629   8.095   3.514  0.0955  0.5081  0.8676
  677MOL0     C93355  10.635   8.180   3.398 -0.9459  1.1619  0.7962
  677MOL0     C93356  10.723   8.131   3.289  0.1129  0.5625 -0.7023
  677MOL0     H93357  10.735   8.473   2.987 -1.3922 -1.2824  2.5515
  677MOL0     H93358  10.675   8.598   2.775  1.0366  0.6764  1.5412
  677MOL0     H93359  10.373   8.777   2.799 -3.2249  1.7134 -0.5833
  677MOL0     H93360  10.245   8.718   2.696 -1.1587  1.7237 -1.2857
  677MOL0     H93361  10.345   8.795   2.493 -2.3557 -0.5823  1.9514
  677MOL0     H93362  10.334   8.937   2.601 -2.7817 -1.6970  1.3253
  677MOL0     H93363  10.579   8.770   2.527 -0.0339  1.0145 -0.3188
  677MOL0     H93364  10.552   8.934   2.472 -0.9149  0.9667  1.1673
  677MOL0     H93365  10.592   9.021   2.711 -2.4236 -1.7249  1.7515
  677MOL0     H93366  10.627   8.856   2.750  0.8036 -0.6910  0.0592
  677MOL0     H93367  10.774   9.039   2.560  0.7072 -0.9340 -0.7409
  677MOL0     H93368  10.795   8.863   2.550  1.3950  0.1864 -0.1223
  677MOL0     H93369  10.848   8.854   2.787 -0.7107 -1.0695 -0.6334
  677MOL0     H93370  10.968   8.925   2.687 -0.2296 -2.0122  1.4281
  677MOL0     H93371  10.939   9.068   2.897  0.1568  0.3179  0.5538
  677MOL0     H93372  10.761   9.059   2.870  0.6763 -1.1052  0.5756
  677MOL0     H93373  10.957   9.199   2.676 -0.0079  1.0242  0.4055
  677MOL0     H93374  10.779   9.211   2.687 -0.6765  2.7026 -0.4456
  677MOL0     H93375  10.902   9.236   3.034  4.2534 -1.5665 -3.0088
  677MOL0     H93376  10.874   9.436   3.221  0.4005 -1.4222 -0.2466
  677MOL0     H93377  10.836   9.584   3.165 -0.5874 -0.4636  1.2783
  677MOL0     H93378  11.042   9.579   3.296 -1.8137  2.3784 -0.0246
  677MOL0     H93379  11.127   9.515   3.138 -1.8359  0.4399 -2.7202
  677MOL0     H93380  11.035   9.695   3.020 -0.9842  0.4269 -0.1899
  677MOL0     H93381  11.005   9.777   3.184 -0.5359 -0.9383 -0.3312
  677MOL0     H93382  11.285   9.707   3.148  2.2853  1.8390 -3.2203
  677MOL0     H93383  11.212   9.819   3.027 -1.1836  0.7835  0.0682
  677MOL0     H93384  11.426   9.885   3.082  1.4484 -2.6768  3.1276
  677MOL0     H93385  11.610  10.173   2.958 -2.2435  0.4309  0.2559
  677MOL0     H93386  11.616   9.994   2.975 -0.5861  0.0662  0.4481
  677MOL0     H93387  11.691  10.109   3.091 -0.0091 -2.1456  0.4339
  677MOL0     H93388  11.622  10.624   3.224 -1.1883  0.7416 -3.3014
  677MOL0     H93389  11.836  10.735   3.281 -0.8312  0.1257  0.4516
  677MOL0     H93390  12.051  10.827   3.233  0.4159 -0.8293 -0.5962
  677MOL0     H93391  11.991  10.780   3.390 -0.4454 -0.9187  0.1723
  677MOL0     H93392  12.194  10.897   3.393 -1.0147  0.3346  0.1879
  677MOL0     H93393  12.211  10.726   3.456 -2.2808 -0.7924 -0.2373
  677MOL0     H93394  12.304  10.789   3.183  0.1956  1.1384  1.0022
  677MOL0     H93395  12.347  10.656   3.304 -0.3739 -0.2871  0.7226
  677MOL0     H93396  12.474  10.820   3.436 -1.6679 -0.3990 -0.7017
  677MOL0     H93397  12.411  10.952   3.348  1.6837  1.0804  0.8128
  677MOL0     H93398  12.599  10.734   3.239  0.4366  1.2454  1.1704
  677MOL0     H93399  12.547  10.864   3.139 -0.6035  0.5546  0.1052
  677MOL0     H93400  12.772  10.902   3.250 -0.2453  2.1909 -2.7096
  677MOL0     H93401  12.693  10.888   3.404  0.9037  0.7725  0.5138
  677MOL0     H93402  12.587  11.101   3.378  2.1471 -1.4236  2.9263
  677MOL0     H93403  12.598  11.101   3.204 -2.3936 -0.2093  2.2360
  677MOL0     H93404  12.770  11.257   3.262 -0.6540 -0.3357  0.0067
  677MOL0     H93405  12.853  11.117   3.223 -1.8631  0.6646 -1.3799
  677MOL0     H93406  12.042  10.403   3.134 -0.6111 -0.9550  3.1049
  677MOL0     H93407  11.848  10.313   3.029  1.5107  1.7090 -1.9132
  677MOL0     H93408  11.304  10.281   3.340  0.4448 -0.9494 -0.0928
  677MOL0     H93409  11.165  10.099   3.342  0.8465 -0.9724  2.6739
  677MOL0     H93410  10.255   8.509   2.851  0.5146 -1.3352 -1.2195
  677MOL0     H93411  10.323   8.411   3.071  1.1454  0.0316  1.2099
  677MOL0     H93412  10.450   8.435   3.522 -1.2166 -1.6655 -0.0034
  677MOL0     H93413  10.456   8.303   3.721 -1.3205 -0.4843 -0.5068
  677MOL0     H93414  10.719   7.942   3.722  0.2581  0.7541 -0.4693
  677MOL0     H93415  10.635   7.915   3.871 -2.4744  0.1100 -0.2982
  677MOL0     H93416  10.605   7.745   3.728  1.7094  2.1216  1.3113
  677MOL0     H93417  10.553   7.848   3.594 -2.7437  1.2855 -0.0790
  677MOL0     H93418  10.378   7.711   3.732 -0.1492 -0.1116 -0.1452
  677MOL0     H93419  10.393   7.844   3.846  2.9082 -0.0245  0.5479
  677MOL0     H93420  10.327   8.018   3.687  0.1826  0.5428 -2.5211
  677MOL0     H93421  10.211   7.881   3.676 -0.6865  2.1177 -1.3360
  677MOL0     H93422  10.377   7.942   3.275  0.3628 -0.5832 -0.4774
  677MOL0     H93423  10.687   8.004   3.504 -1.3542 -0.2700 -1.1186
  677MOL0     H93424  10.774   8.217   3.245  2.2007  1.2348  2.6426
  677MOL0     H93425  10.800   8.064   3.326 -0.0087 -0.5105 -2.3344
  677MOL0     H93426  10.663   8.073   3.219  0.5507  1.4004 -1.7971
  678MOL0     O93427   5.877   4.449   2.985 -0.4095 -0.3984  0.0488
  678MOL0     C93428   5.981   4.409   3.038 -0.6110 -0.1332  0.1577
  678MOL0     O93429   6.005   4.315   3.127  0.7798 -0.0157 -0.6193
  678MOL0     C93430   5.905   4.237   3.182 -0.5752  0.6663 -0.1888
  678MOL0     C93431   5.779   4.283   3.215 -0.0862 -0.4865  0.7364
  678MOL0     C93432   5.665   4.200   3.260 -0.1270  0.2191  0.8649
  678MOL0     C93433   5.689   4.058   3.276  0.8529  0.0092  0.1763
  678MOL0     O93434   5.589   3.978   3.335 -0.6154  0.2518  0.4490
  678MOL0     C93435   5.588   3.841   3.302  0.1525  0.1784 -0.1836
  678MOL0     C93436   5.461   3.776   3.370  0.0625 -0.6913 -0.4176
  678MOL0     C93437   5.322   3.826   3.313 -0.6541  0.2123 -0.2833
  678MOL0     C93438   5.213   3.765   3.395 -0.3387  0.6527  0.2172
  678MOL0     C93439   5.064   3.804   3.343  0.6928 -0.0533  0.0260
  678MOL0     C93440   4.961   3.739   3.426 -0.2356 -0.5092 -0.9864
  678MOL0     C93441   4.826   3.794   3.390  0.3393  0.0164 -0.3999
  678MOL0     C93442   4.740   3.728   3.275 -0.9646  0.1219 -0.2031
  678MOL0     N93443   4.631   3.815   3.235  0.9862 -0.5479  0.2330
  678MOL0     C93444   4.513   3.852   3.300  1.0971 -0.2447  0.4039
  678MOL0     C93445   4.432   3.908   3.204 -0.5514 -1.4070  0.5294
  678MOL0     C93446   4.295   3.977   3.222  0.2159  0.9428  0.1634
  678MOL0     C93447   4.238   4.038   3.087  0.4581 -0.0955  0.7792
  678MOL0     C93448   4.090   4.089   3.116  1.0707  0.2696  0.2787
  678MOL0     C93449   3.992   3.971   3.154  0.2514 -0.2330  0.4582
  678MOL0     O93450   3.853   4.018   3.174 -0.3967 -0.5669 -0.4937
  678MOL0     C93451   3.831   4.117   3.261  0.3536  0.1843 -0.3038
  678MOL0     C93452   3.843   4.107   3.402 -1.2393 -0.1264  0.3253
  678MOL0     C93453   3.813   4.217   3.482  0.8393  0.6135 -0.1404
  678MOL0     C93454   3.822   4.195   3.630 -0.7049 -0.1108  0.8481
  678MOL0     C93455   3.773   4.339   3.435 -0.5038  0.3922  0.3896
  678MOL0     C93456   3.728   4.468   3.508 -0.2730 -1.0910 -0.1407
  678MOL0     O93457   3.762   4.492   3.641  0.7522  0.2638 -0.1171
  678MOL0     C93458   3.735   4.617   3.687  0.3412  0.8845 -0.8474
  678MOL0     C93459   3.805   4.726   3.651 -0.0265 -0.0210 -0.8000
  678MOL0     C93460   3.769   4.848   3.693 -0.4228  0.0308  0.3261
  678MOL0     C93461   3.664   4.874   3.784 -0.3151  0.8495  0.2774
  678MOL0     O93462   3.625   4.992   3.832 -0.3282  0.0288  0.0792
  678MOL0     C93463   3.656   5.111   3.762 -1.9083  0.3609 -0.9503
  678MOL0     C93464   3.622   5.234   3.858  0.1730 -0.7005 -0.2840
  678MOL0     C93465   3.581   5.357   3.789 -0.4310 -0.3844 -0.0262
  678MOL0     C93466   3.432   5.344   3.747  0.1490  0.3660 -0.4339
  678MOL0     C93467   3.387   5.467   3.657 -0.5196  0.5931  0.6118
  678MOL0     C93468   3.248   5.446   3.604  0.8489  0.2695 -1.2724
  678MOL0     C93469   3.218   5.543   3.481 -0.3230 -0.4634 -0.3473
  678MOL0     C93470   3.087   5.614   3.491  0.2039  0.5429 -0.1723
  678MOL0    Cl93471   3.058   5.718   3.344 -0.1231  0.0184 -0.1657
  678MOL0     C93472   3.596   4.759   3.831  0.0266 -0.0934  0.3905
  678MOL0     C93473   3.630   4.631   3.782 -0.4629  0.9629 -0.0311
  678MOL0     O93474   3.640   4.539   3.457  0.5050 -0.5033 -0.4938
  678MOL0     C93475   3.762   4.348   3.295  0.2283 -0.6949 -0.2865
  678MOL0     C93476   3.794   4.241   3.204  1.1156  0.1062 -0.4178
  678MOL0     N93477   4.506   3.913   3.092  0.5369 -0.9224  0.9515
  678MOL0     N93478   4.626   3.867   3.110  0.1891  0.2874 -0.0741
  678MOL0     C93479   5.811   4.011   3.237 -0.4779  0.5612  1.2269
  678MOL0     C93480   5.918   4.097   3.189 -0.5140  0.3583 -0.2683
  678MOL0     C93481   6.104   4.480   3.001 -0.8349 -0.2591 -0.0796
  678MOL0     C93482   6.189   4.537   3.102 -0.5773 -0.3046 -0.6607
  678MOL0     C93483   6.315   4.585   3.072  0.1706 -0.0672 -0.5429
  678MOL0     C93484   6.348   4.599   2.942 -0.9345  0.4677  1.6345
  678MOL0     O93485   6.459   4.645   2.887 -0.5092 -0.3990 -0.0161
  678MOL0     C93486   6.515   4.748   2.960 -0.4306  0.6414 -0.1802
  678MOL0     C93487   6.612   4.824   2.869  1.1021  0.5161 -0.2317
  678MOL0     C93488   6.688   4.921   2.964  0.2101  0.4212  0.5310
  678MOL0     C93489   6.798   4.835   3.030  0.4271 -0.1710 -0.5249
  678MOL0     C93490   6.926   4.914   3.049 -0.0988 -0.2183 -0.0768
  678MOL0     C93491   7.034   4.969   3.082 -0.0592  1.1187 -0.9576
  678MOL0     C93492   6.261   4.543   2.845  0.6303  1.2310 -0.1952
  678MOL0     C93493   6.143   4.474   2.873 -0.1565 -0.1002  0.4262
  678MOL0     C93494   6.066   4.411   2.756 -0.9831  0.7267  0.0299
  678MOL0     H93495   5.754   4.388   3.205  0.6080 -0.3402  0.5089
  678MOL0     H93496   5.569   4.242   3.290  0.3751 -1.0521  4.8953
  678MOL0     H93497   5.680   3.793   3.337  0.8207  3.0217  2.3269
  678MOL0     H93498   5.573   3.830   3.194  0.3672  3.9643 -0.7068
  678MOL0     H93499   5.475   3.668   3.359 -1.3091 -0.8474 -0.8948
  678MOL0     H93500   5.466   3.806   3.475  0.6732 -0.8039 -0.4133
  678MOL0     H93501   5.307   3.934   3.313 -0.3262  0.2583 -0.5090
  678MOL0     H93502   5.319   3.798   3.207 -0.4606  3.6039 -1.3197
  678MOL0     H93503   5.219   3.657   3.410 -0.6466  0.7589  1.1763
  678MOL0     H93504   5.227   3.804   3.496  1.3421  0.4066  0.1019
  678MOL0     H93505   5.052   3.770   3.239 -1.4156  2.0592 -0.5117
  678MOL0     H93506   5.051   3.912   3.330  0.9584 -0.1001 -0.6991
  678MOL0     H93507   4.956   3.630   3.426  0.2145 -0.5599  0.6221
  678MOL0     H93508   4.978   3.767   3.531 -1.8516 -0.6407 -0.6584
  678MOL0     H93509   4.835   3.902   3.378  2.0059 -0.2361 -1.9653
  678MOL0     H93510   4.780   3.792   3.489  0.9275  1.9216 -0.0551
  678MOL0     H93511   4.804   3.710   3.188  0.2508  0.2642  0.6339
  678MOL0     H93512   4.708   3.630   3.311  3.1068 -1.5649 -0.6051
  678MOL0     H93513   4.481   3.845   3.403  0.9234 -1.6139  0.2694
  678MOL0     H93514   4.306   4.053   3.300  2.3344  0.8997 -0.0404
  678MOL0     H93515   4.236   3.896   3.265 -0.7371  0.4932 -1.8577
  678MOL0     H93516   4.290   4.132   3.067 -0.9828  1.7976  4.8255
  678MOL0     H93517   4.241   3.966   3.005 -1.1910 -0.3687  0.9374
  678MOL0     H93518   4.091   4.159   3.200 -0.9679  2.5098 -1.3920
  678MOL0     H93519   4.068   4.147   3.026  0.8162 -2.6005 -1.6388
  678MOL0     H93520   3.991   3.899   3.072  0.4070  1.3755 -1.0241
  678MOL0     H93521   4.033   3.928   3.246 -0.0157 -2.0089 -0.2180
  678MOL0     H93522   3.875   4.016   3.450 -2.2499 -0.4772  0.3645
  678MOL0     H93523   3.888   4.268   3.678 -1.5932 -0.1316  2.1676
  678MOL0     H93524   3.856   4.096   3.663 -1.5153 -0.2731  1.2242
  678MOL0     H93525   3.720   4.212   3.665 -1.5864 -0.8174 -1.2268
  678MOL0     H93526   3.893   4.714   3.588  1.1874  0.8195  0.6808
  678MOL0     H93527   3.833   4.922   3.646 -1.8507  2.4370  1.9613
  678MOL0     H93528   3.763   5.112   3.744 -1.3678  0.6423  1.8567
  678MOL0     H93529   3.616   5.134   3.663 -1.9480  0.6155 -0.8770
  678MOL0     H93530   3.539   5.204   3.922  1.0046 -1.0857  0.6461
  678MOL0     H93531   3.705   5.249   3.928 -0.6549 -3.5783  1.5290
  678MOL0     H93532   3.651   5.373   3.706  1.1853  0.9658  1.5284
  678MOL0     H93533   3.591   5.442   3.857  2.6922  2.3485 -3.4760
  678MOL0     H93534   3.363   5.346   3.831 -1.4517  1.0549 -1.6936
  678MOL0     H93535   3.427   5.244   3.704  0.2019 -0.8915  2.2855
  678MOL0     H93536   3.395   5.560   3.713  0.0626  1.7122 -1.2586
  678MOL0     H93537   3.451   5.479   3.569  0.9208 -3.8774  0.8072
  678MOL0     H93538   3.177   5.469   3.683  0.7357 -0.3782 -1.1808
  678MOL0     H93539   3.236   5.341   3.577 -0.9428  0.1763 -0.2279
  678MOL0     H93540   3.227   5.485   3.388  2.9278  0.5768 -0.8045
  678MOL0     H93541   3.288   5.626   3.494 -1.1486 -0.2452  4.0190
  678MOL0     H93542   3.102   5.673   3.582 -4.3277  0.1300  1.0554
  678MOL0     H93543   3.002   5.547   3.504 -0.5833  1.2325 -1.5389
  678MOL0     H93544   3.526   4.777   3.912 -0.5864 -0.9528  0.0659
  678MOL0     H93545   3.585   4.545   3.829  1.2937  0.0768  0.1259
  678MOL0     H93546   3.715   4.431   3.244 -2.3120 -1.0053  1.3549
  678MOL0     H93547   3.793   4.243   3.095  3.3413  2.3852 -0.4876
  678MOL0     H93548   5.828   3.904   3.234 -0.2457  0.5242 -3.4651
  678MOL0     H93549   6.014   4.051   3.165  0.8236  1.1042  3.0541
  678MOL0     H93550   6.152   4.545   3.204  0.3076  3.3921 -0.4867
  678MOL0     H93551   6.382   4.615   3.153  1.0219 -1.2216 -0.7965
  678MOL0     H93552   6.440   4.817   2.999  2.8713  2.4924  3.6663
  678MOL0     H93553   6.573   4.711   3.045  0.8419  2.7597 -0.0396
  678MOL0     H93554   6.551   4.884   2.801  2.6606  0.2488 -1.9535
  678MOL0     H93555   6.668   4.757   2.802 -1.2774 -1.0835 -0.7636
  678MOL0     H93556   6.735   5.005   2.913 -0.6671  1.0735  0.7552
  678MOL0     H93557   6.630   4.966   3.046  1.5578 -1.7849  2.8594
  678MOL0     H93558   6.817   4.736   2.988 -1.9106 -0.6631 -0.5335
  678MOL0     H93559   6.762   4.813   3.132 -1.4124  3.7990 -0.1267
  678MOL0     H93560   7.129   5.013   3.105 -0.7373  2.2582 -0.2265
  678MOL0     H93561   6.290   4.556   2.741  2.6251  0.4137  0.2088
  678MOL0     H93562   5.971   4.459   2.732 -1.1755  0.3019 -0.0556
  678MOL0     H93563   6.122   4.410   2.662 -1.8562 -1.5246 -0.5302
  678MOL0     H93564   6.030   4.311   2.779 -0.4109  1.0468  2.6588
  679MOL0     O93565   4.710   9.476   1.750 -0.3715 -0.4575  0.7677
  679MOL0     C93566   4.762   9.519   1.650 -0.8463 -0.2235 -0.0617
  679MOL0     O93567   4.821   9.643   1.637 -0.2114 -0.1549  0.2589
  679MOL0     C93568   4.810   9.733   1.741 -0.2002 -0.1177 -0.6250
  679MOL0     C93569   4.799   9.871   1.704 -0.0061 -0.7689 -0.0854
  679MOL0     C93570   4.800   9.970   1.808  0.2993  0.7008  0.3089
  679MOL0     C93571   4.810   9.925   1.947  0.2727  0.3733  0.0299
  679MOL0     O93572   4.813  10.006   2.053  0.1460 -0.2011  0.0858
  679MOL0     C93573   4.750  10.134   2.045 -0.4956 -0.9141  0.7313
  679MOL0     C93574   4.793  10.201   2.175  0.1225 -0.9549 -0.0540
  679MOL0     C93575   4.764  10.134   2.310  0.0089  1.1905  0.7778
  679MOL0     C93576   4.790  10.241   2.415 -0.5372 -0.2992  0.1376
  679MOL0     C93577   4.946  10.274   2.430  0.0918 -0.6775  0.5011
  679MOL0     C93578   4.975  10.334   2.573 -0.5768 -0.5890 -0.0073
  679MOL0     C93579   5.117  10.374   2.622 -0.7087 -0.0703  0.2969
  679MOL0     C93580   5.231  10.277   2.600 -0.2215 -0.3541  0.0136
  679MOL0     N93581   5.360  10.297   2.664  0.5585 -0.7953 -0.2477
  679MOL0     C93582   5.457  10.368   2.600  0.6944 -0.1307  0.8069
  679MOL0     C93583   5.548  10.393   2.694  0.5566 -0.0555 -1.1573
  679MOL0     C93584   5.679  10.466   2.679  1.3945  0.2965 -0.1340
  679MOL0     C93585   5.794  10.413   2.762  0.2477  0.0188 -0.2988
  679MOL0     C93586   5.919  10.484   2.721  0.0607 -0.1343  0.6066
  679MOL0     C93587   6.035  10.447   2.821  0.6504 -0.0421 -0.0504
  679MOL0     O93588   5.995  10.514   2.942  0.6043 -0.2023  0.4318
  679MOL0     C93589   6.026  10.443   3.054  0.5908  0.1120 -0.1318
  679MOL0     C93590   5.970  10.315   3.077  0.3025 -0.4365 -1.0240
  679MOL0     C93591   5.976  10.250   3.199  1.3719  0.2123  0.4867
  679MOL0     C93592   5.885  10.132   3.208 -0.3010 -0.5344  0.1168
  679MOL0     C93593   6.042  10.314   3.307 -0.2050  0.5457 -0.5960
  679MOL0     C93594   6.059  10.256   3.438  0.2528  0.4132  0.5445
  679MOL0     O93595   6.153  10.316   3.506  0.0679  0.3013 -0.6017
  679MOL0     C93596   6.145  10.311   3.641  0.1476  1.2772 -0.1802
  679MOL0     C93597   6.264  10.278   3.711  0.0869 -0.2707  0.4576
  679MOL0     C93598   6.256  10.270   3.846 -0.5010  1.7984 -0.2759
  679MOL0     C93599   6.135  10.282   3.920  0.5828  1.0801 -0.2828
  679MOL0     O93600   6.138  10.273   4.056 -0.2720  0.6699 -0.1556
  679MOL0     C93601   6.251  10.326   4.130 -0.7553  0.0477  0.3506
  679MOL0     C93602   6.229  10.329   4.278  0.3104 -0.1425 -1.0040
  679MOL0     C93603   6.212  10.189   4.340  0.1595 -0.5151 -0.3548
  679MOL0     C93604   6.119  10.195   4.455 -0.0444 -0.6697  0.3615
  679MOL0     C93605   6.186  10.258   4.571  0.1830 -0.1027  0.0858
  679MOL0     C93606   6.311  10.191   4.639 -0.5581 -0.5714 -0.1953
  679MOL0     C93607   6.282  10.042   4.691  0.1721 -0.6429  0.3337
  679MOL0     C93608   6.411   9.963   4.668 -0.4137  0.4490 -0.4188
  679MOL0    Cl93609   6.551  10.038   4.752 -0.2217  0.3255 -0.0590
  679MOL0     C93610   6.019  10.306   3.850  0.0010 -0.7202  0.2552
  679MOL0     C93611   6.016  10.322   3.708 -0.5395  0.5450 -0.5716
  679MOL0     O93612   5.999  10.155   3.468 -0.5599  0.3103 -0.1497
  679MOL0     C93613   6.098  10.443   3.281 -0.8421 -0.8829  0.6838
  679MOL0     C93614   6.097  10.502   3.153  0.6024 -0.4937  0.3426
  679MOL0     N93615   5.503  10.342   2.817 -0.3354  0.2802  0.4576
  679MOL0     N93616   5.387  10.292   2.795  0.2742 -0.2266 -0.5543
  679MOL0     C93617   4.842   9.788   1.983 -0.4849 -0.1780  0.4656
  679MOL0     C93618   4.833   9.704   1.875 -0.2911  0.5845  0.0603
  679MOL0     C93619   4.798   9.422   1.544  0.4480 -0.1472 -0.4224
  679MOL0     C93620   4.876   9.473   1.435 -0.3095 -0.5240 -0.3115
  679MOL0     C93621   4.931   9.397   1.334 -0.1343  0.8053 -0.0330
  679MOL0     C93622   4.893   9.265   1.329 -0.5916 -0.1287 -0.2892
  679MOL0     O93623   4.924   9.184   1.225  0.0502  0.0689 -0.6723
  679MOL0     C93624   4.973   9.236   1.106 -0.0247  0.0318 -0.0672
  679MOL0     C93625   4.931   9.129   0.995 -0.1272  0.0927 -0.5995
  679MOL0     C93626   4.991   8.988   1.003  0.3267 -0.8225 -0.0415
  679MOL0     C93627   4.957   8.907   0.868  1.3461 -0.7092 -0.5915
  679MOL0     C93628   4.816   8.879   0.853  0.2594 -0.6345  0.4436
  679MOL0     C93629   4.698   8.872   0.817  0.2110  0.1522  0.2535
  679MOL0     C93630   4.812   9.209   1.426 -0.4421  0.1051  0.1157
  679MOL0     C93631   4.781   9.278   1.546  0.3718 -0.4239 -0.7540
  679MOL0     C93632   4.730   9.199   1.664 -0.1024  0.2866 -0.0275
  679MOL0     H93633   4.786   9.885   1.597  1.7181 -2.1289 -0.5169
  679MOL0     H93634   4.791  10.073   1.776  0.0422  0.0339 -1.9095
  679MOL0     H93635   4.641  10.125   2.038 -0.3832 -2.8148  1.1337
  679MOL0     H93636   4.785  10.192   1.959 -1.6205  0.7430  1.3210
  679MOL0     H93637   4.901  10.218   2.170 -0.4979  4.2403 -1.5973
  679MOL0     H93638   4.754  10.304   2.179  1.7328 -0.3233 -0.0172
  679MOL0     H93639   4.658  10.108   2.312  0.6896 -2.1497  3.9395
  679MOL0     H93640   4.827  10.044   2.320 -1.8451  0.0585  3.1507
  679MOL0     H93641   4.737  10.336   2.404  1.6370  0.9790 -0.0092
  679MOL0     H93642   4.752  10.199   2.509  4.3850 -0.8961  2.1982
  679MOL0     H93643   4.985  10.341   2.353  0.1139  0.8448  1.7685
  679MOL0     H93644   4.998  10.179   2.415 -1.6339 -1.2956 -2.2487
  679MOL0     H93645   4.940  10.437   2.584  2.7312  0.4242  3.0382
  679MOL0     H93646   4.934  10.271   2.652  1.6252 -1.0534  0.8247
  679MOL0     H93647   5.105  10.389   2.730  0.4249  2.9971  0.1028
  679MOL0     H93648   5.141  10.469   2.572 -1.7203  1.9251  3.3176
  679MOL0     H93649   5.186  10.187   2.641  0.2378 -0.6093 -0.0342
  679MOL0     H93650   5.251  10.277   2.492  1.6579  0.0852  0.3188
  679MOL0     H93651   5.458  10.389   2.494 -0.9349  0.6540  0.9117
  679MOL0     H93652   5.661  10.572   2.698 -1.1433 -0.3337  1.5421
  679MOL0     H93653   5.702  10.447   2.574 -0.4725 -1.2761 -0.3200
  679MOL0     H93654   5.770  10.404   2.868 -1.3266  0.8362 -0.5561
  679MOL0     H93655   5.797  10.307   2.735  0.8432  0.1732 -0.8611
  679MOL0     H93656   5.947  10.447   2.622  1.6400  0.6069  0.7439
  679MOL0     H93657   5.912  10.593   2.712  4.2936  0.4351  1.6910
  679MOL0     H93658   6.042  10.338   2.835 -0.3623 -0.1249 -0.0630
  679MOL0     H93659   6.128  10.479   2.773  0.4178  1.6975  0.5879
  679MOL0     H93660   5.908  10.271   3.001  0.5583 -2.9296  0.1181
  679MOL0     H93661   5.807  10.147   3.283  0.0347  1.6850  0.0903
  679MOL0     H93662   5.944  10.046   3.241 -0.2827  0.6083  3.3570
  679MOL0     H93663   5.835  10.112   3.113  0.3146 -0.2900 -0.2669
  679MOL0     H93664   6.354  10.271   3.652 -0.8580 -0.9342 -0.9528
  679MOL0     H93665   6.352  10.244   3.891 -2.4713 -3.6222  1.6441
  679MOL0     H93666   6.348  10.280   4.109 -1.2997 -1.1841  0.4463
  679MOL0     H93667   6.261  10.431   4.102 -4.1361  0.8198  1.6234
  679MOL0     H93668   6.324  10.361   4.320 -0.5817 -0.3384  1.3345
  679MOL0     H93669   6.146  10.397   4.300  0.5086  0.1644 -1.1967
  679MOL0     H93670   6.313  10.158   4.370  0.1389 -2.9921 -2.4633
  679MOL0     H93671   6.175  10.123   4.261  1.8284 -2.1359  0.1251
  679MOL0     H93672   6.083  10.097   4.487  1.2148 -0.7191  1.7299
  679MOL0     H93673   6.029  10.246   4.417  0.7067  0.1037 -0.4249
  679MOL0     H93674   6.224  10.360   4.558  0.6005 -0.1978  0.5454
  679MOL0     H93675   6.099  10.279   4.633  1.4696  0.0128  1.9275
  679MOL0     H93676   6.344  10.254   4.722 -1.4505 -2.9661  2.1362
  679MOL0     H93677   6.400  10.194   4.576 -0.5184 -1.6981 -0.2199
  679MOL0     H93678   6.210   9.999   4.621 -1.5907  1.3612  0.8286
  679MOL0     H93679   6.256  10.045   4.797 -2.8195  2.0602 -0.3167
  679MOL0     H93680   6.427   9.962   4.559 -0.9580  2.4784 -0.5601
  679MOL0     H93681   6.382   9.865   4.706  1.1256  0.6561  1.4074
  679MOL0     H93682   5.927  10.313   3.907 -0.7734 -3.6778 -0.4495
  679MOL0     H93683   5.929  10.336   3.645  0.8172  1.6795 -2.2947
  679MOL0     H93684   6.155  10.502   3.353  1.4126 -1.8238 -0.2318
  679MOL0     H93685   6.135  10.603   3.137 -2.9266  0.7399 -1.2101
  679MOL0     H93686   4.866   9.754   2.083 -4.3088  3.2532  2.8772
  679MOL0     H93687   4.841   9.597   1.893  1.1265  0.3316 -1.7467
  679MOL0     H93688   4.902   9.579   1.436 -0.4869 -0.4737  1.0009
  679MOL0     H93689   4.995   9.443   1.260 -0.7614 -2.1208 -2.5735
  679MOL0     H93690   4.923   9.328   1.074 -1.3966 -1.4119 -2.4395
  679MOL0     H93691   5.082   9.232   1.119 -0.2049  0.6752  1.9114
  679MOL0     H93692   4.964   9.188   0.909  1.8905  0.7366  0.5759
  679MOL0     H93693   4.822   9.115   1.002  0.1199 -2.0735 -0.5620
  679MOL0     H93694   5.099   8.995   1.022  0.5253 -0.4025 -1.2253
  679MOL0     H93695   4.945   8.941   1.090 -1.4109  4.4556  2.3297
  679MOL0     H93696   5.002   8.808   0.873 -1.5652 -2.0630  2.5061
  679MOL0     H93697   4.997   8.956   0.779 -2.3157  2.6049 -0.7241
  679MOL0     H93698   4.595   8.870   0.788  0.6952 -0.7806 -1.5315
  679MOL0     H93699   4.783   9.105   1.412 -1.0098  0.3850 -0.8539
  679MOL0     H93700   4.766   9.231   1.762 -1.2977 -0.2221  0.6088
  679MOL0     H93701   4.621   9.204   1.662 -0.0214  2.6088 -0.7644
  679MOL0     H93702   4.752   9.092   1.661 -2.1670 -0.3158  2.4577
  680MOL0     O93703   5.711   5.468   7.531  0.5643  0.1359 -0.1481
  680MOL0     C93704   5.756   5.574   7.589  0.0848 -0.8387  0.8012
  680MOL0     O93705   5.733   5.600   7.718 -1.0192  0.2146  0.3919
  680MOL0     C93706   5.619   5.567   7.789 -0.5876  0.2526 -0.6803
  680MOL0     C93707   5.623   5.593   7.930  0.4166  0.3807  0.1225
  680MOL0     C93708   5.507   5.560   8.007 -0.1733 -0.0115  0.1446
  680MOL0     C93709   5.403   5.481   7.959 -0.5188 -0.6239 -0.0237
  680MOL0     O93710   5.309   5.446   8.050 -0.2128 -0.0771  0.3120
  680MOL0     C93711   5.254   5.314   8.023  0.5248  0.3790  0.5102
  680MOL0     C93712   5.164   5.252   8.134  0.1998 -0.3108 -0.8134
  680MOL0     C93713   5.254   5.226   8.258  0.7894 -1.1524 -0.1061
  680MOL0     C93714   5.311   5.088   8.259  0.2010  0.5515  0.1566
  680MOL0     C93715   5.404   5.056   8.372 -0.7677 -0.9390 -0.4496
  680MOL0     C93716   5.523   5.159   8.393 -0.2870  0.1654  0.6811
  680MOL0     C93717   5.613   5.137   8.511 -0.1071 -0.0764  0.2234
  680MOL0     C93718   5.536   5.154   8.640 -0.3749 -0.0461 -0.7704
  680MOL0     N93719   5.606   5.167   8.773  1.0589 -0.6852 -0.8847
  680MOL0     C93720   5.697   5.084   8.831 -1.7895 -0.4298  1.9497
  680MOL0     C93721   5.723   5.137   8.950 -0.2612  0.4104  1.6015
  680MOL0     C93722   5.809   5.069   9.044 -1.0756  0.5383  0.4866
  680MOL0     C93723   5.770   5.092   9.187 -0.3984  0.2915 -0.7302
  680MOL0     C93724   5.658   4.995   9.242 -0.4097  0.0486  0.7277
  680MOL0     C93725   5.587   5.045   9.368 -0.0930 -0.3599  0.2087
  680MOL0     O93726   5.478   4.953   9.405 -0.2018 -0.2043 -0.0057
  680MOL0     C93727   5.379   4.992   9.494 -0.4067  0.4362  0.6705
  680MOL0     C93728   5.279   4.894   9.523 -1.1232  0.1813 -0.3834
  680MOL0     C93729   5.175   4.913   9.614  0.4052 -0.1658  0.2145
  680MOL0     C93730   5.078   4.795   9.616 -0.6146  0.1944  0.3218
  680MOL0     C93731   5.176   5.032   9.691 -1.0067 -0.9347 -0.8151
  680MOL0     C93732   5.088   5.054   9.810  0.1064 -0.2835 -0.9527
  680MOL0     O93733   5.118   5.167   9.883 -0.0917  0.7613 -0.9555
  680MOL0     C93734   5.041   5.203   9.992  0.6303 -0.0874  0.2044
  680MOL0     C93735   4.941   5.294   9.978 -0.0845  0.8905  0.2196
  680MOL0     C93736   4.861   5.316  10.095  0.2121 -0.5973  0.5859
  680MOL0     C93737   4.880   5.251  10.215 -0.9481 -0.6853 -0.7226
  680MOL0     O93738   4.790   5.245  10.318 -0.8436  0.0397 -0.0489
  680MOL0     C93739   4.709   5.365  10.337  1.3005 -0.3124  0.0826
  680MOL0     C93740   4.697   5.368  10.486  0.3468 -0.4073 -0.5550
  680MOL0     C93741   4.622   5.264  10.568  0.3323 -0.9655  0.0631
  680MOL0     C93742   4.522   5.170  10.480  0.0890 -1.1663  0.4056
  680MOL0     C93743   4.421   5.100  10.564  0.7576 -0.1667 -0.5227
  680MOL0     C93744   4.483   4.989  10.643 -0.7168  0.1448  0.2846
  680MOL0     C93745   4.394   4.904  10.740 -0.0593  0.7623 -0.7005
  680MOL0     C93746   4.293   4.819  10.670 -0.1612  0.1093 -0.4265
  680MOL0    Cl93747   4.361   4.745  10.514  0.2814  0.0520 -0.2662
  680MOL0     C93748   4.998   5.171  10.225 -0.4699 -0.5098  0.0721
  680MOL0     C93749   5.073   5.142  10.117 -0.6137 -0.4065  0.3413
  680MOL0     O93750   5.002   4.978   9.830  0.3738  0.1978  0.5613
  680MOL0     C93751   5.274   5.130   9.665  0.1341 -0.4814  0.0741
  680MOL0     C93752   5.373   5.112   9.563 -0.0428 -0.4059 -0.8418
  680MOL0     N93753   5.645   5.251   8.963 -0.9522  0.7468 -0.1698
  680MOL0     N93754   5.573   5.265   8.858 -0.8545 -0.5485  1.0043
  680MOL0     C93755   5.405   5.453   7.821 -0.2952  0.0963 -0.3371
  680MOL0     C93756   5.506   5.507   7.738 -0.3022  0.0883  0.9488
  680MOL0     C93757   5.840   5.675   7.508  0.6732 -0.2688 -0.5965
  680MOL0     C93758   5.857   5.808   7.565  0.0014  0.0730  0.5124
  680MOL0     C93759   5.920   5.908   7.489  0.8582  0.5071  0.0673
  680MOL0     C93760   5.965   5.871   7.359  0.1294  0.4432 -0.4019
  680MOL0     O93761   6.021   5.978   7.292 -0.0907  0.0544  0.0570
  680MOL0     C93762   6.042   5.969   7.149 -0.4081 -0.7563  0.6744
  680MOL0     C93763   6.182   5.918   7.128  1.3101  0.0188 -0.6474
  680MOL0     C93764   6.284   6.017   7.190 -0.3028  0.4634  0.4504
  680MOL0     C93765   6.438   5.994   7.174  1.4877  0.3950 -0.5756
  680MOL0     C93766   6.530   6.081   7.246  0.5464  0.8140 -0.9210
  680MOL0     C93767   6.613   6.156   7.296  0.3996  0.2239 -0.8704
  680MOL0     C93768   5.954   5.736   7.310  0.3512  0.0694  0.4680
  680MOL0     C93769   5.904   5.640   7.386  0.1698  1.1901 -0.8571
  680MOL0     C93770   5.909   5.496   7.332  0.2761  0.2410  0.2174
  680MOL0     H93771   5.705   5.640   7.984 -0.0139 -0.6771  1.7866
  680MOL0     H93772   5.506   5.577   8.114  0.6140  3.1165 -0.2647
  680MOL0     H93773   5.330   5.243   7.990  1.5577  1.4186  0.5893
  680MOL0     H93774   5.176   5.325   7.947 -0.7089  0.2950  1.7163
  680MOL0     H93775   5.089   5.330   8.153  1.0661 -0.3032  3.7558
  680MOL0     H93776   5.114   5.162   8.097  0.1135  0.9623 -4.2266
  680MOL0     H93777   5.340   5.293   8.247  1.6128 -2.5087 -2.9143
  680MOL0     H93778   5.209   5.254   8.354  1.3554  2.1274 -0.6805
  680MOL0     H93779   5.227   5.018   8.259  0.3382  0.1699 -3.6383
  680MOL0     H93780   5.369   5.055   8.172  2.4410  0.1211  1.7334
  680MOL0     H93781   5.446   4.955   8.363 -1.4713 -1.1601 -1.4560
  680MOL0     H93782   5.349   5.066   8.465  2.1536  0.6328  1.2662
  680MOL0     H93783   5.588   5.150   8.306 -3.0075  1.7268 -1.6905
  680MOL0     H93784   5.480   5.260   8.395  0.4669  0.5452 -1.0015
  680MOL0     H93785   5.698   5.206   8.504  1.4791 -2.1050 -4.0951
  680MOL0     H93786   5.651   5.035   8.511  0.0444 -0.0271 -0.3989
  680MOL0     H93787   5.481   5.248   8.629 -1.8574 -0.6998  0.5913
  680MOL0     H93788   5.465   5.071   8.650 -0.1312 -0.1142  0.5734
  680MOL0     H93789   5.743   4.990   8.801 -0.1570  1.1019 -0.7221
  680MOL0     H93790   5.906   5.113   9.019 -0.6780 -0.7308 -0.2885
  680MOL0     H93791   5.826   4.968   9.006 -1.3132  0.3908  0.7710
  680MOL0     H93792   5.858   5.087   9.253  1.1651  1.3351 -2.6201
  680MOL0     H93793   5.731   5.193   9.201  0.3132  0.5363 -0.4716
  680MOL0     H93794   5.579   4.985   9.166 -2.1806  1.2794  2.3007
  680MOL0     H93795   5.708   4.903   9.270 -0.1278  0.8795  3.1538
  680MOL0     H93796   5.656   5.031   9.451 -0.8369 -4.7535  0.3133
  680MOL0     H93797   5.548   5.146   9.348 -0.5232 -1.0295 -2.8799
  680MOL0     H93798   5.281   4.803   9.463  2.9787  1.4986 -2.6190
  680MOL0     H93799   5.063   4.739   9.523 -0.6663  2.1538 -0.9186
  680MOL0     H93800   4.979   4.838   9.629 -0.5234  0.9412 -1.1886
  680MOL0     H93801   5.104   4.731   9.700  3.6649 -0.0084 -0.9123
  680MOL0     H93802   4.912   5.348   9.889 -3.6205 -0.7477  0.1855
  680MOL0     H93803   4.784   5.391  10.079  1.0222  0.0711 -0.3706
  680MOL0     H93804   4.751   5.459  10.300 -0.6656  1.1504  1.3668
  680MOL0     H93805   4.619   5.341  10.279  1.5939  0.1063 -0.5693
  680MOL0     H93806   4.796   5.372  10.531  0.0935  2.2437 -0.0916
  680MOL0     H93807   4.655   5.466  10.509  1.6716  0.6354 -2.3568
  680MOL0     H93808   4.563   5.313  10.646 -3.4928  0.5722 -3.4316
  680MOL0     H93809   4.700   5.206  10.619  0.4946  1.0552  2.3123
  680MOL0     H93810   4.566   5.106  10.403  0.5114 -0.0327 -0.3150
  680MOL0     H93811   4.465   5.245  10.424  0.4383 -1.5291 -0.4592
  680MOL0     H93812   4.381   5.176  10.631  1.3681  0.0541 -0.4029
  680MOL0     H93813   4.341   5.060  10.501 -1.7240 -0.2661  2.4602
  680MOL0     H93814   4.570   5.032  10.694  0.0298 -1.4969  0.4582
  680MOL0     H93815   4.529   4.922  10.571 -0.6816  0.2973  0.1654
  680MOL0     H93816   4.343   4.970  10.811  2.3817 -0.7982  2.7725
  680MOL0     H93817   4.459   4.836  10.797  0.2634  1.3702 -0.3312
  680MOL0     H93818   4.204   4.877  10.642  0.5600  0.5299 -1.9517
  680MOL0     H93819   4.256   4.739  10.735 -1.4230  0.1217 -1.0838
  680MOL0     H93820   5.011   5.115  10.317 -0.9267 -3.9335 -1.8015
  680MOL0     H93821   5.160   5.076  10.123  1.7837  2.3400 -1.5459
  680MOL0     H93822   5.277   5.224   9.718  2.0599  0.4717 -1.5859
  680MOL0     H93823   5.453   5.184   9.548 -0.8577  1.2074  1.8080
  680MOL0     H93824   5.335   5.382   7.778 -0.3145 -0.8347  1.1765
  680MOL0     H93825   5.494   5.478   7.634  1.7576 -1.0095  0.9554
  680MOL0     H93826   5.809   5.834   7.659 -0.7205 -0.5361  0.3276
  680MOL0     H93827   5.947   6.011   7.513  3.6545 -0.0347 -0.3391
  680MOL0     H93828   5.972   5.902   7.098 -0.3976 -0.8136  0.7342
  680MOL0     H93829   6.028   6.068   7.105 -2.2643 -0.8549  0.9740
  680MOL0     H93830   6.189   5.921   7.019 -0.8357 -0.7150 -0.8356
  680MOL0     H93831   6.190   5.811   7.151 -1.1344 -0.3274 -1.1503
  680MOL0     H93832   6.278   6.109   7.130  0.8484 -0.4455 -1.1188
  680MOL0     H93833   6.264   6.044   7.294  3.0008  1.4837  0.9132
  680MOL0     H93834   6.451   5.996   7.066 -0.1534 -1.0673 -0.8292
  680MOL0     H93835   6.447   5.890   7.205 -3.0789  0.3649  1.4290
  680MOL0     H93836   6.686   6.229   7.325 -0.4293  1.4103 -1.7021
  680MOL0     H93837   6.001   5.703   7.218  1.0251 -2.7054  1.7040
  680MOL0     H93838   5.951   5.492   7.231 -2.2247 -3.7296 -0.8737
  680MOL0     H93839   5.957   5.428   7.402 -0.3294  0.7655  1.1582
  680MOL0     H93840   5.807   5.460   7.314  0.9009 -1.3160 -0.3700
  681MOL0     O93841   0.104   8.270   7.944  0.3801  0.1533  0.2086
  681MOL0     C93842   0.220   8.293   7.922  0.1590  0.1019  0.2622
  681MOL0     O93843   0.280   8.264   7.806  0.0080  0.3027  0.4546
  681MOL0     C93844   0.219   8.193   7.699  0.1223  0.0434 -0.0942
  681MOL0     C93845   0.117   8.101   7.709  0.2759  0.5292 -0.3670
  681MOL0     C93846   0.049   8.039   7.607  0.5663  0.5696 -0.0047
  681MOL0     C93847   0.090   8.064   7.470  0.8937  0.6160  0.3322
  681MOL0     O93848   0.029   8.014   7.351  0.3962  0.0547  0.2765
  681MOL0     C93849  -0.068   7.906   7.383 -0.1399 -0.7098 -0.0501
  681MOL0     C93850  -0.119   7.855   7.253 -0.4579  0.2972  0.1574
  681MOL0     C93851  -0.225   7.740   7.259  0.7174 -0.7417  0.1920
  681MOL0     C93852  -0.186   7.610   7.333  0.3761  0.6237 -0.8711
  681MOL0     C93853  -0.291   7.500   7.318 -0.2999  0.2558  0.3084
  681MOL0     C93854  -0.299   7.422   7.191  0.0474 -0.3865 -0.6034
  681MOL0     C93855  -0.431   7.356   7.159 -0.0482 -0.6177 -0.1641
  681MOL0     C93856  -0.542   7.460   7.099  0.6206  0.5745  0.7725
  681MOL0     N93857  -0.683   7.402   7.124 -0.5057  0.4784 -0.0421
  681MOL0     C93858  -0.748   7.296   7.076  0.2890 -0.0588 -0.4593
  681MOL0     C93859  -0.854   7.273   7.157  0.1779 -0.0651 -0.6506
  681MOL0     C93860  -0.964   7.173   7.130  0.7004 -0.5589 -0.1548
  681MOL0     C93861  -0.921   7.036   7.172  0.1965 -1.0335 -0.0739
  681MOL0     C93862  -1.044   6.941   7.153 -0.2410  0.5562 -0.3417
  681MOL0     C93863  -1.022   6.803   7.228  0.5627 -0.4223 -0.4368
  681MOL0     O93864  -1.144   6.720   7.216  0.3627 -0.4304 -0.0412
  681MOL0     C93865  -1.136   6.655   7.102  0.8578  0.7971  0.8458
  681MOL0     C93866  -1.039   6.558   7.090  0.0743 -0.5673 -0.3380
  681MOL0     C93867  -1.026   6.483   6.972  0.1111 -0.2409 -0.6717
  681MOL0     C93868  -0.945   6.356   6.980 -0.6638 -0.2516  0.5492
  681MOL0     C93869  -1.085   6.527   6.848  0.4729  0.1405  0.0369
  681MOL0     C93870  -1.064   6.462   6.719  0.0330 -0.4327 -0.4032
  681MOL0     O93871  -1.065   6.322   6.710 -0.2257 -0.5262 -0.8396
  681MOL0     C93872  -1.038   6.259   6.587  0.6819  0.3264  0.1252
  681MOL0     C93873  -0.917   6.264   6.521 -0.4260  0.7560 -0.3736
  681MOL0     C93874  -0.890   6.195   6.400  0.4299 -0.9225 -0.2103
  681MOL0     C93875  -0.995   6.112   6.347 -0.3838 -0.6450  0.1103
  681MOL0     O93876  -0.979   6.032   6.233  0.4878 -0.2636 -0.0347
  681MOL0     C93877  -1.063   6.060   6.123 -1.0009  0.1166  0.0026
  681MOL0     C93878  -1.133   5.939   6.060  0.9416  0.2348 -0.7127
  681MOL0     C93879  -1.034   5.843   5.987 -0.2313  0.2603 -0.0210
  681MOL0     C93880  -0.939   5.767   6.076  0.4164 -0.0642 -0.6511
  681MOL0     C93881  -0.883   5.659   5.979  0.1525 -0.0406  0.0345
  681MOL0     C93882  -0.781   5.717   5.886 -0.6152 -0.3635 -0.0743
  681MOL0     C93883  -0.740   5.595   5.787  0.0150 -0.7818 -0.4826
  681MOL0     C93884  -0.590   5.587   5.766 -0.7202  0.0965 -0.0633
  681MOL0    Cl93885  -0.538   5.730   5.674 -0.0717  0.1920 -0.2839
  681MOL0     C93886  -1.115   6.104   6.409 -0.0244  0.2202  0.2298
  681MOL0     C93887  -1.136   6.178   6.534  0.1480 -0.8903  0.3827
  681MOL0     O93888  -1.038   6.540   6.630 -0.1111  0.1043 -0.1405
  681MOL0     C93889  -1.180   6.632   6.862 -1.0353  0.0730 -0.1996
  681MOL0     C93890  -1.202   6.687   6.984  0.1287  0.8859 -0.3219
  681MOL0     N93891  -0.847   7.366   7.262  0.2330  0.0048  0.5593
  681MOL0     N93892  -0.750   7.444   7.239 -0.0735  0.3747 -0.8353
  681MOL0     C93893   0.206   8.144   7.453  1.0815  0.2063  0.0806
  681MOL0     C93894   0.265   8.215   7.560  0.2129 -0.1873 -0.7879
  681MOL0     C93895   0.297   8.380   8.004  0.1185 -0.2122 -0.4829
  681MOL0     C93896   0.406   8.454   7.948 -1.4433 -0.4093  0.4864
  681MOL0     C93897   0.500   8.532   8.024 -0.6053 -0.1550  0.4735
  681MOL0     C93898   0.481   8.545   8.162  0.5187  0.6325 -1.1108
  681MOL0     O93899   0.546   8.619   8.249 -0.1524  0.4669  0.9637
  681MOL0     C93900   0.622   8.727   8.196 -0.4166  0.2688  0.1929
  681MOL0     C93901   0.670   8.811   8.307  0.2379  0.2222 -0.6836
  681MOL0     C93902   0.582   8.941   8.327 -0.1848  1.2126  0.1745
  681MOL0     C93903   0.618   9.004   8.471  0.9048 -0.7704 -0.1456
  681MOL0     C93904   0.761   9.012   8.505  0.1791 -0.2641 -0.3297
  681MOL0     C93905   0.876   9.007   8.534 -0.7075 -0.2247  0.8276
  681MOL0     C93906   0.379   8.457   8.216  1.1409  0.2191 -0.1974
  681MOL0     C93907   0.284   8.381   8.142  0.1955 -0.1385 -0.1711
  681MOL0     C93908   0.194   8.292   8.218 -0.6964 -0.3674 -0.3178
  681MOL0     H93909   0.089   8.078   7.812 -0.2783  0.0910 -0.6091
  681MOL0     H93910  -0.022   7.961   7.631  1.1981  0.6171  2.2651
  681MOL0     H93911  -0.148   7.938   7.450 -0.4871 -0.4016 -0.6050
  681MOL0     H93912  -0.013   7.820   7.421  2.5463  0.8632 -0.1291
  681MOL0     H93913  -0.170   7.933   7.196 -1.1896  0.0083  0.4098
  681MOL0     H93914  -0.041   7.811   7.189 -0.9820 -1.1646  0.4760
  681MOL0     H93915  -0.322   7.784   7.287  1.0575  0.0177  0.2053
  681MOL0     H93916  -0.239   7.714   7.154  0.5007 -1.0965  0.3086
  681MOL0     H93917  -0.083   7.579   7.310  1.0149 -0.4319  2.7321
  681MOL0     H93918  -0.200   7.641   7.437 -0.8472 -1.5092 -0.3292
  681MOL0     H93919  -0.388   7.547   7.337  0.2544  0.4653  2.9459
  681MOL0     H93920  -0.285   7.423   7.395  0.0339 -1.8892 -1.7560
  681MOL0     H93921  -0.272   7.492   7.111  2.8615  1.5349  1.7946
  681MOL0     H93922  -0.223   7.345   7.198  0.1859 -0.0982  2.1563
  681MOL0     H93923  -0.459   7.305   7.252  0.3927 -2.0875 -0.8121
  681MOL0     H93924  -0.404   7.280   7.085 -2.2341 -0.8748 -0.7834
  681MOL0     H93925  -0.542   7.557   7.151  2.0604  0.4032  1.1304
  681MOL0     H93926  -0.530   7.473   6.991 -2.1291 -2.4464 -0.0370
  681MOL0     H93927  -0.739   7.241   6.982 -2.2474  1.1615 -1.5184
  681MOL0     H93928  -0.985   7.164   7.023 -0.9665  0.0226  0.0939
  681MOL0     H93929  -1.055   7.202   7.183  0.9194  0.0448 -0.1028
  681MOL0     H93930  -0.827   7.013   7.121  2.5227  3.7545  1.4418
  681MOL0     H93931  -0.888   7.053   7.275  0.6812  1.3811 -0.5646
  681MOL0     H93932  -1.136   6.993   7.184 -1.0207 -0.5167 -0.7938
  681MOL0     H93933  -1.059   6.919   7.047 -0.8122 -0.6020 -0.0374
  681MOL0     H93934  -0.940   6.758   7.172 -2.3973 -4.2987 -2.1669
  681MOL0     H93935  -1.009   6.814   7.336 -0.8312 -0.6846 -0.2261
  681MOL0     H93936  -0.989   6.530   7.182 -1.7238 -0.3038  0.7714
  681MOL0     H93937  -0.940   6.336   7.088  0.7409 -0.2542  0.5027
  681MOL0     H93938  -0.840   6.370   6.954  0.4017  0.0069  4.3335
  681MOL0     H93939  -0.986   6.263   6.940 -1.4265 -1.0388  2.9899
  681MOL0     H93940  -0.835   6.314   6.571  1.8984 -2.5686 -0.5598
  681MOL0     H93941  -0.795   6.187   6.348  0.1019 -0.1624 -0.9612
  681MOL0     H93942  -1.149   6.113   6.164 -0.2135  0.7070  0.9421
  681MOL0     H93943  -1.010   6.118   6.047  0.7554 -0.7329  0.5031
  681MOL0     H93944  -1.188   5.882   6.135  0.0046 -1.9567 -2.9106
  681MOL0     H93945  -1.206   5.988   5.994  2.1259  1.6807 -1.0176
  681MOL0     H93946  -0.969   5.898   5.918 -1.1009  1.2645 -0.0651
  681MOL0     H93947  -1.099   5.773   5.933  0.7994 -0.5124 -0.3047
  681MOL0     H93948  -0.995   5.709   6.150 -0.4458  0.7762 -0.6105
  681MOL0     H93949  -0.860   5.823   6.126  0.4302 -1.6496  1.2026
  681MOL0     H93950  -0.833   5.588   6.046  0.7863 -0.2996 -0.7031
  681MOL0     H93951  -0.961   5.615   5.917 -0.4190  3.7802 -2.2570
  681MOL0     H93952  -0.693   5.749   5.942  0.7627 -2.1511 -1.1337
  681MOL0     H93953  -0.820   5.804   5.833 -3.2455 -1.7196 -0.5436
  681MOL0     H93954  -0.802   5.614   5.698 -2.3346 -1.0502  0.9988
  681MOL0     H93955  -0.767   5.501   5.836  3.5553 -0.9971  1.3863
  681MOL0     H93956  -0.567   5.504   5.698 -3.9783  1.0362 -2.5629
  681MOL0     H93957  -0.535   5.594   5.861  1.5287 -1.1232 -1.2056
  681MOL0     H93958  -1.189   6.035   6.369 -0.6144  1.3735 -0.7222
  681MOL0     H93959  -1.228   6.165   6.589  0.8923  1.2986  2.3358
  681MOL0     H93960  -1.230   6.682   6.780 -0.1533 -2.1068 -2.2082
  681MOL0     H93961  -1.287   6.755   6.990  0.7402  1.8591 -1.8767
  681MOL0     H93962   0.241   8.154   7.351 -3.9267  2.0345 -1.8124
  681MOL0     H93963   0.350   8.280   7.539  0.5524  0.2361  1.5277
  681MOL0     H93964   0.406   8.454   7.839 -0.1872 -3.5228  0.3808
  681MOL0     H93965   0.590   8.575   7.981  2.0968 -2.6834  3.0855
  681MOL0     H93966   0.710   8.693   8.141  1.3277  0.2897  2.8073
  681MOL0     H93967   0.555   8.790   8.137 -4.1034 -0.2956  3.3832
  681MOL0     H93968   0.773   8.842   8.290  0.1214  1.3700  0.4851
  681MOL0     H93969   0.672   8.769   8.408 -2.1455 -1.0323 -1.0861
  681MOL0     H93970   0.603   9.013   8.247  4.2054  0.6075  0.5332
  681MOL0     H93971   0.475   8.924   8.309 -0.0523  0.5347  0.0004
  681MOL0     H93972   0.558   8.954   8.548 -1.8824  2.6738  0.1762
  681MOL0     H93973   0.577   9.105   8.475  0.7645 -0.8503  0.4872
  681MOL0     H93974   0.983   9.013   8.537 -0.5654 -2.1791  0.9072
  681MOL0     H93975   0.357   8.470   8.321  4.0432  1.7271  0.3455
  681MOL0     H93976   0.223   8.295   8.323 -2.6968  0.3899  0.2560
  681MOL0     H93977   0.092   8.323   8.195  0.5579  2.6937 -2.4700
  681MOL0     H93978   0.205   8.189   8.182 -2.0567 -1.3594  1.9062
  682MOL0     O93979   0.458  10.841   4.849  0.0598  0.3129 -0.3811
  682MOL0     C93980   0.477  10.812   4.726  0.0912  0.3520 -0.3073
  682MOL0     O93981   0.496  10.908   4.619  0.4713 -0.1090 -0.0027
  682MOL0     C93982   0.473  11.044   4.641 -0.9861 -0.4973 -0.3488
  682MOL0     C93983   0.427  11.108   4.756  0.2061  0.2943 -0.2059
  682MOL0     C93984   0.412  11.246   4.765  0.2029  0.2167  0.5314
  682MOL0     C93985   0.430  11.331   4.658 -0.5446  0.5926 -0.3021
  682MOL0     O93986   0.419  11.463   4.672  0.6353  0.3839 -0.2669
  682MOL0     C93987   0.444  11.515   4.810  0.5594  0.7800 -0.2356
  682MOL0     C93988   0.450  11.670   4.798 -0.0682 -0.0966 -0.8892
  682MOL0     C93989   0.411  11.727   4.933 -0.2605 -0.7239  0.0330
  682MOL0     C93990   0.439  11.879   4.935  0.3821  0.1341  0.3371
  682MOL0     C93991   0.412  11.929   5.080 -0.1754  0.1792 -0.9185
  682MOL0     C93992   0.265  11.926   5.125  0.0014  0.2902 -0.4924
  682MOL0     C93993   0.255  11.949   5.275  0.4663 -0.4765 -0.3555
  682MOL0     C93994   0.108  11.955   5.327 -0.1748 -0.4290  0.1646
  682MOL0     N93995   0.040  12.071   5.264  0.0857  0.4982  0.2589
  682MOL0     C93996   0.048  12.207   5.296  0.0859 -0.2526  0.3180
  682MOL0     C93997  -0.048  12.271   5.222 -1.5003 -1.1589 -0.3279
  682MOL0     C93998  -0.063  12.423   5.261  0.4132 -0.6548 -0.6857
  682MOL0     C93999  -0.109  12.508   5.135  0.5293  0.4786 -0.7346
  682MOL0     C94000  -0.250  12.567   5.167 -0.0538  1.0030  0.6661
  682MOL0     C94001  -0.301  12.644   5.046 -0.8853  0.6644  0.2799
  682MOL0     O94002  -0.218  12.749   5.003 -0.6666  1.4951 -0.7153
  682MOL0     C94003  -0.268  12.872   5.004  0.1748  0.0620 -0.2984
  682MOL0     C94004  -0.288  12.948   5.119 -0.5891 -0.2801  0.4934
  682MOL0     C94005  -0.344  13.072   5.123  0.7178  0.8484  0.3872
  682MOL0     C94006  -0.332  13.141   5.254  0.3769 -0.3852  0.0878
  682MOL0     C94007  -0.399  13.123   5.003 -0.4413 -0.7513 -1.0377
  682MOL0     C94008  -0.482  13.244   4.996 -1.6858  0.1202  1.2770
  682MOL0     O94009  -0.589  13.233   4.926 -0.2177  0.8546 -0.2869
  682MOL0     C94010  -0.674  13.335   4.884  0.2693  0.0237  0.4101
  682MOL0     C94011  -0.708  13.460   4.942 -0.4453 -0.4154 -0.9697
  682MOL0     C94012  -0.781  13.559   4.876  0.1766  0.4358 -0.1170
  682MOL0     C94013  -0.818  13.538   4.738  0.3491 -0.5057 -0.4020
  682MOL0     O94014  -0.872  13.633   4.648  0.3916 -0.2319 -0.3152
  682MOL0     C94015  -0.853  13.769   4.683 -0.1022  0.0626  0.4817
  682MOL0     C94016  -0.916  13.869   4.586 -0.7852  0.2650 -0.1331
  682MOL0     C94017  -1.065  13.853   4.559 -0.6395  0.6418  0.0185
  682MOL0     C94018  -1.102  13.981   4.469  1.1086  0.4357  0.1461
  682MOL0     C94019  -1.252  13.991   4.439 -0.1214  1.0968  0.6567
  682MOL0     C94020  -1.289  14.117   4.368  0.0598  0.4189  0.4698
  682MOL0     C94021  -1.290  14.244   4.456 -0.1643 -0.2709  0.3010
  682MOL0     C94022  -1.395  14.251   4.557 -0.3006 -0.2252 -0.5715
  682MOL0    Cl94023  -1.393  14.395   4.658 -0.2232  0.1586  0.0916
  682MOL0     C94024  -0.794  13.407   4.680  0.0772  1.0857  0.2801
  682MOL0     C94025  -0.723  13.307   4.756 -0.1780 -0.1168  1.0166
  682MOL0     O94026  -0.446  13.341   5.057 -0.0754 -0.1286  0.1564
  682MOL0     C94027  -0.380  13.047   4.883 -0.1284 -0.3170  1.0996
  682MOL0     C94028  -0.296  12.938   4.880 -0.1006 -0.2658 -0.7146
  682MOL0     N94029  -0.100  12.183   5.141 -0.1266 -0.2638  0.1973
  682MOL0     N94030  -0.047  12.068   5.162  0.9816  0.1555  0.7737
  682MOL0     C94031   0.475  11.264   4.541 -0.0974  0.2360  0.2703
  682MOL0     C94032   0.494  11.132   4.535  0.4874  0.0961 -1.1484
  682MOL0     C94033   0.457  10.675   4.684 -1.1698  1.0175  0.4768
  682MOL0     C94034   0.443  10.660   4.545  0.2340 -0.4301 -0.3883
  682MOL0     C94035   0.468  10.537   4.485 -0.9291 -0.2614 -0.1506
  682MOL0     C94036   0.505  10.416   4.556 -0.9575 -0.8906 -0.8862
  682MOL0     O94037   0.525  10.304   4.479 -0.5246  0.2336  0.3050
  682MOL0     C94038   0.576  10.186   4.534 -0.4413  0.5020  0.6870
  682MOL0     C94039   0.727  10.198   4.569 -0.1125  0.2044  0.0180
  682MOL0     C94040   0.810  10.278   4.468  0.0846  0.1443 -0.2781
  682MOL0     C94041   0.963  10.261   4.490 -0.7195 -0.7926 -0.1294
  682MOL0     C94042   1.050  10.333   4.394  0.5472 -0.0672 -0.9614
  682MOL0     C94043   1.113  10.389   4.304  0.2735  0.5021  0.4897
  682MOL0     C94044   0.504  10.436   4.699  0.1772  0.2459  0.7916
  682MOL0     C94045   0.485  10.562   4.764  0.0554  0.0523  1.1096
  682MOL0     C94046   0.517  10.571   4.912  0.4643 -0.1022  0.9692
  682MOL0     H94047   0.380  11.045   4.831  2.9481 -1.6556  0.0178
  682MOL0     H94048   0.377  11.283   4.861 -0.9489  1.8918 -0.4767
  682MOL0     H94049   0.538  11.474   4.847 -0.7561 -2.6821 -0.2884
  682MOL0     H94050   0.360  11.490   4.876  0.2729 -0.8320 -1.1519
  682MOL0     H94051   0.553  11.697   4.773  1.1636 -0.5674  2.9874
  682MOL0     H94052   0.386  11.704   4.716 -1.2135 -0.3123 -0.1036
  682MOL0     H94053   0.304  11.712   4.953 -0.5270  2.4475  1.4359
  682MOL0     H94054   0.465  11.679   5.015  2.1920 -0.1752 -1.1606
  682MOL0     H94055   0.541  11.903   4.904 -0.1938  1.8781 -0.3924
  682MOL0     H94056   0.375  11.944   4.874  1.2817  0.7689  0.0495
  682MOL0     H94057   0.443  12.029   5.112 -0.8702  0.1580 -0.1542
  682MOL0     H94058   0.472  11.858   5.139 -0.8403 -1.1579 -1.8084
  682MOL0     H94059   0.202  12.002   5.077 -1.3670 -0.7169 -0.3566
  682MOL0     H94060   0.215  11.833   5.095  1.9214 -0.6563 -0.8570
  682MOL0     H94061   0.291  12.050   5.298  1.9194 -1.0540  0.0399
  682MOL0     H94062   0.304  11.879   5.343 -1.0150  0.6128  1.9625
  682MOL0     H94063   0.055  11.861   5.308  2.5907 -2.3947  1.5218
  682MOL0     H94064   0.114  11.978   5.434 -0.5988 -0.0108  0.0984
  682MOL0     H94065   0.104  12.265   5.369 -1.8440  1.7856  0.2690
  682MOL0     H94066   0.028  12.473   5.297  1.1215 -2.4937  0.2169
  682MOL0     H94067  -0.143  12.415   5.335 -1.4890  0.3179 -2.5337
  682MOL0     H94068  -0.028  12.579   5.116  0.4006  0.9495  0.4166
  682MOL0     H94069  -0.129  12.435   5.056  0.4638  0.0853 -0.3595
  682MOL0     H94070  -0.319  12.484   5.185 -1.2630  1.9127  0.4038
  682MOL0     H94071  -0.253  12.631   5.256 -2.2064 -0.1351  1.4903
  682MOL0     H94072  -0.306  12.570   4.966  2.9269  1.5047 -0.9598
  682MOL0     H94073  -0.399  12.682   5.075 -1.7844 -0.2449 -1.4124
  682MOL0     H94074  -0.263  12.894   5.210  0.7220  0.0847  0.3678
  682MOL0     H94075  -0.292  13.242   5.238  2.0816 -1.1011 -0.3379
  682MOL0     H94076  -0.271  13.089   5.328 -0.5872 -0.8372  0.5847
  682MOL0     H94077  -0.427  13.155   5.307 -0.1807 -3.5157  0.1006
  682MOL0     H94078  -0.672  13.485   5.041 -1.8286 -2.1146  0.0346
  682MOL0     H94079  -0.817  13.647   4.927 -0.5114  0.1086 -0.0326
  682MOL0     H94080  -0.901  13.785   4.780  2.0377 -3.4211  2.3360
  682MOL0     H94081  -0.747  13.792   4.698 -0.3820  2.2845 -0.5542
  682MOL0     H94082  -0.890  13.968   4.624 -1.2649  1.9307 -3.7224
  682MOL0     H94083  -0.868  13.878   4.489  2.1208  1.2772  1.2771
  682MOL0     H94084  -1.137  13.831   4.638  0.6073 -0.9906  0.7486
  682MOL0     H94085  -1.073  13.766   4.494  0.0158  2.1694 -2.2388
  682MOL0     H94086  -1.052  13.974   4.372  1.1473  1.7274  0.0506
  682MOL0     H94087  -1.060  14.076   4.506 -2.0205  2.0365 -0.1042
  682MOL0     H94088  -1.275  13.909   4.371 -1.4259 -0.8895  3.3169
  682MOL0     H94089  -1.311  13.983   4.531 -2.8682  2.2359 -0.8832
  682MOL0     H94090  -1.386  14.121   4.317  1.2163  1.8623 -1.8442
  682MOL0     H94091  -1.222  14.122   4.281 -0.4353  1.2920  0.1153
  682MOL0     H94092  -1.287  14.330   4.389  1.9456 -1.6204 -1.4728
  682MOL0     H94093  -1.194  14.236   4.508 -1.3291 -1.7522  2.4278
  682MOL0     H94094  -1.386  14.161   4.619  0.6249  0.4832  0.3600
  682MOL0     H94095  -1.494  14.244   4.510  0.1176  0.6639 -1.5987
  682MOL0     H94096  -0.815  13.393   4.574 -2.2317  1.0649  0.6920
  682MOL0     H94097  -0.688  13.217   4.705 -1.0881  0.1618 -0.1246
  682MOL0     H94098  -0.426  13.080   4.791 -0.7171 -0.3787  1.3698
  682MOL0     H94099  -0.288  12.880   4.788  1.0636 -0.3984 -0.5377
  682MOL0     H94100   0.470  11.319   4.447 -2.0886  0.6827  0.5786
  682MOL0     H94101   0.524  11.097   4.437  0.6170 -3.3309 -0.0348
  682MOL0     H94102   0.410  10.746   4.488 -3.7340  0.0592  2.2120
  682MOL0     H94103   0.460  10.512   4.379  3.0713 -2.4912 -0.1357
  682MOL0     H94104   0.511  10.151   4.616  0.3704 -2.4389  0.1828
  682MOL0     H94105   0.571  10.120   4.447 -0.3765  0.0893  0.9938
  682MOL0     H94106   0.765  10.096   4.584  0.0377  0.2864  0.2001
  682MOL0     H94107   0.730  10.243   4.669  0.6599  0.3465 -0.0591
  682MOL0     H94108   0.776  10.237   4.372  1.9155  2.1123 -1.8724
  682MOL0     H94109   0.793  10.386   4.469  2.4468  0.6539  3.3238
  682MOL0     H94110   0.985  10.154   4.482 -0.0845 -0.9352  2.3893
  682MOL0     H94111   0.981  10.282   4.596 -0.1653  0.6640 -0.4964
  682MOL0     H94112   1.163  10.425   4.217 -0.7839  0.3855 -0.1801
  682MOL0     H94113   0.533  10.352   4.761 -0.8556 -0.4538  0.3462
  682MOL0     H94114   0.436  10.599   4.979  1.4872 -1.0984  2.6858
  682MOL0     H94115   0.553  10.473   4.947  0.2029 -0.9983 -1.1162
  682MOL0     H94116   0.606  10.631   4.935  0.5538 -0.0563  0.5204
  683MOL0     O94117   9.973   5.956  11.089 -0.2426  0.0017 -0.0131
  683MOL0     C94118  10.028   5.878  11.163  0.0543  0.0408 -0.4062
  683MOL0     O94119  10.163   5.881  11.196  0.7709  1.0328 -0.0518
  683MOL0     C94120  10.242   5.936  11.104  0.2511 -0.0632 -0.7338
  683MOL0     C94121  10.312   5.859  11.011  0.5400 -1.2966  0.8798
  683MOL0     C94122  10.403   5.912  10.926 -0.1375  0.1605 -0.9445
  683MOL0     C94123  10.432   6.045  10.924  0.3612 -0.4391 -0.0974
  683MOL0     O94124  10.512   6.101  10.837 -0.5091 -0.7315  0.7743
  683MOL0     C94125  10.434   6.177  10.738  0.4999  1.5081  0.3996
  683MOL0     C94126  10.420   6.324  10.771  0.1581  0.1640  0.5151
  683MOL0     C94127  10.543   6.404  10.717 -0.4210  0.3147 -0.6001
  683MOL0     C94128  10.555   6.548  10.767  0.1619  0.4024  0.1223
  683MOL0     C94129  10.681   6.620  10.716  0.3745 -0.7607  1.3028
  683MOL0     C94130  10.702   6.624  10.564 -0.1273  0.5774 -0.7173
  683MOL0     C94131  10.847   6.655  10.524  0.8058 -0.3305  0.8409
  683MOL0     C94132  10.956   6.564  10.594  0.2870 -0.4477  0.5568
  683MOL0     N94133  10.932   6.425  10.567 -0.9351 -0.0425  0.0898
  683MOL0     C94134  10.922   6.364  10.445 -1.4074  0.7378 -0.0692
  683MOL0     C94135  10.906   6.232  10.474  0.4093 -0.2236  1.1462
  683MOL0     C94136  10.875   6.133  10.367  0.3578 -0.3430 -0.3523
  683MOL0     C94137  11.000   6.083  10.295  0.6511  0.0250  0.5082
  683MOL0     C94138  10.981   5.944  10.252 -0.1862  0.8768 -0.8033
  683MOL0     C94139  11.106   5.885  10.176  0.4219  0.1984 -0.5691
  683MOL0     O94140  11.115   5.944  10.048 -1.1372 -0.5406  0.1490
  683MOL0     C94141  11.235   5.939   9.983 -0.2240  0.1132  0.0932
  683MOL0     C94142  11.301   6.048   9.923  0.5682  0.2315  0.8824
  683MOL0     C94143  11.430   6.043   9.867  0.0038  0.4954 -0.4409
  683MOL0     C94144  11.481   6.174   9.833 -0.0941 -0.4017  0.5156
  683MOL0     C94145  11.490   5.919   9.841 -0.4161 -0.0782  0.8539
  683MOL0     C94146  11.622   5.907   9.784  0.5307 -0.1262 -0.9508
  683MOL0     O94147  11.663   5.998   9.694  0.6207 -0.1979  0.5821
  683MOL0     C94148  11.778   5.985   9.636  0.6400 -0.4834 -0.3237
  683MOL0     C94149  11.891   6.012   9.710  1.0586 -0.0085  0.0732
  683MOL0     C94150  12.016   5.993   9.651 -0.6780  0.2065 -0.1253
  683MOL0     C94151  12.026   5.980   9.504  1.0326 -0.5115 -1.0896
  683MOL0     O94152  12.137   5.970   9.425 -0.4909 -0.3471  0.3337
  683MOL0     C94153  12.269   5.966   9.478  0.0282 -0.5288 -0.0241
  683MOL0     C94154  12.356   5.996   9.359 -0.7506  0.3930 -0.1584
  683MOL0     C94155  12.510   5.998   9.397  0.2797 -0.3710 -0.5074
  683MOL0     C94156  12.603   6.030   9.278  0.8310 -0.7291  0.5611
  683MOL0     C94157  12.750   6.046   9.316  0.8019  0.1705  0.0770
  683MOL0     C94158  12.844   6.055   9.190  0.3381 -0.7496 -0.3265
  683MOL0     C94159  12.986   6.069   9.232 -0.1814  0.3082  0.1252
  683MOL0     C94160  13.087   6.117   9.123  0.2091  0.0609  0.4781
  683MOL0    Cl94161  13.097   6.300   9.111 -0.1878  0.3643 -0.2107
  683MOL0     C94162  11.902   5.970   9.434 -0.2098  0.4049 -0.3003
  683MOL0     C94163  11.777   5.972   9.500  0.3263  0.2522  0.3149
  683MOL0     O94164  11.695   5.815   9.830  0.6610  0.4585  0.4392
  683MOL0     C94165  11.419   5.805   9.887 -0.1910 -0.1610 -0.2633
  683MOL0     C94166  11.294   5.813   9.952 -0.5385 -0.8563 -1.0720
  683MOL0     N94167  10.897   6.212  10.605  0.6408 -0.6384 -0.3674
  683MOL0     N94168  10.910   6.325  10.662  0.7281  0.1062 -0.2263
  683MOL0     C94169  10.371   6.119  11.023  0.3924 -0.3230  0.1239
  683MOL0     C94170  10.277   6.071  11.110 -0.4202 -0.0137  0.0991
  683MOL0     C94171   9.928   5.796  11.241 -0.2675  0.6382 -0.1538
  683MOL0     C94172   9.785   5.802  11.224  0.2767 -0.1290  0.1166
  683MOL0     C94173   9.704   5.727  11.296 -0.4751  0.7687 -1.0292
  683MOL0     C94174   9.747   5.637  11.400 -0.2116 -0.2740  0.7551
  683MOL0     O94175   9.658   5.561  11.473 -0.1035  0.3401  0.0787
  683MOL0     C94176   9.673   5.421  11.507 -0.4941  0.1178  1.1861
  683MOL0     C94177   9.561   5.376  11.601 -0.0193 -0.2934  0.1890
  683MOL0     C94178   9.562   5.470  11.730 -0.0772  0.6396 -0.0801
  683MOL0     C94179   9.503   5.396  11.845  0.2015 -0.4480 -0.4494
  683MOL0     C94180   9.367   5.331  11.811 -0.5782 -0.0636  0.1334
  683MOL0     C94181   9.256   5.279  11.806 -0.0755  0.4524 -0.3569
  683MOL0     C94182   9.889   5.618  11.410 -0.3399  0.3531  0.8749
  683MOL0     C94183   9.977   5.700  11.335  0.0722 -0.4385 -0.3951
  683MOL0     C94184  10.123   5.651  11.356  1.2475 -0.2652 -0.1373
  683MOL0     H94185  10.300   5.753  10.991 -2.7266 -0.6862 -1.2986
  683MOL0     H94186  10.462   5.847  10.863 -0.0748 -0.1581 -0.5606
  683MOL0     H94187  10.334   6.134  10.727  1.4494 -0.8382  0.4324
  683MOL0     H94188  10.484   6.178  10.641  1.5142  0.0327  0.8756
  683MOL0     H94189  10.334   6.369  10.721 -1.5470  0.6317  3.6211
  683MOL0     H94190  10.410   6.334  10.879  1.7591 -2.5901  1.0301
  683MOL0     H94191  10.634   6.347  10.739 -0.2426  0.4087 -1.0821
  683MOL0     H94192  10.545   6.395  10.608  0.2552 -0.0204 -0.5661
  683MOL0     H94193  10.460   6.592  10.736 -0.9087 -1.2039  0.9898
  683MOL0     H94194  10.565   6.556  10.875 -1.1451  3.0622  0.1387
  683MOL0     H94195  10.766   6.569  10.763  1.4815 -3.2565 -2.8452
  683MOL0     H94196  10.683   6.725  10.744 -1.4857 -0.3812  0.2040
  683MOL0     H94197  10.684   6.525  10.520 -0.0106 -1.1541  2.8089
  683MOL0     H94198  10.632   6.696  10.520 -0.4231  0.4329 -0.4859
  683MOL0     H94199  10.868   6.760  10.546  0.4281 -0.1108  0.1711
  683MOL0     H94200  10.855   6.643  10.416 -0.7395 -0.1444  0.6874
  683MOL0     H94201  11.055   6.584  10.554  1.4469 -1.4127  2.7425
  683MOL0     H94202  10.966   6.582  10.702  2.7780 -0.4473  0.3880
  683MOL0     H94203  10.926   6.415  10.350 -1.5463  1.2991  0.2232
  683MOL0     H94204  10.804   6.179  10.298  0.8448 -1.3011 -1.5366
  683MOL0     H94205  10.829   6.051  10.423 -3.3928  1.7745 -0.0347
  683MOL0     H94206  11.022   6.144  10.207 -0.2411  0.5981  0.6659
  683MOL0     H94207  11.090   6.091  10.358  0.3108 -0.0055  1.0044
  683MOL0     H94208  10.965   5.885  10.343 -2.9004 -1.6686 -2.7208
  683MOL0     H94209  10.886   5.935  10.198 -1.6905  0.0828  1.7581
  683MOL0     H94210  11.200   5.907  10.227  0.5716  2.1626 -1.5973
  683MOL0     H94211  11.092   5.777  10.167  1.0796 -0.1561  1.9133
  683MOL0     H94212  11.243   6.139   9.915  0.9253  0.3377 -1.0776
  683MOL0     H94213  11.470   6.249   9.913 -0.4637  0.2087 -0.0936
  683MOL0     H94214  11.440   6.215   9.740 -1.7484 -1.0302  0.9368
  683MOL0     H94215  11.588   6.177   9.810 -0.0414 -0.0113  0.7963
  683MOL0     H94216  11.888   6.038   9.816 -0.8546 -1.6523  0.4923
  683MOL0     H94217  12.099   6.003   9.721 -0.4292  1.4536 -0.5656
  683MOL0     H94218  12.285   6.049   9.547 -0.3801 -1.0638  0.7236
  683MOL0     H94219  12.288   5.866   9.519  0.3688 -0.0274  1.0831
  683MOL0     H94220  12.350   5.921   9.279 -1.1651 -0.4057  0.6037
  683MOL0     H94221  12.330   6.099   9.335  0.9374  0.8161 -0.2713
  683MOL0     H94222  12.549   5.905   9.440 -1.6645 -0.6082  0.9038
  683MOL0     H94223  12.525   6.078   9.470 -1.9365  0.0532 -0.4365
  683MOL0     H94224  12.578   6.119   9.219 -1.0732  1.5478  4.3822
  683MOL0     H94225  12.599   5.941   9.216 -3.0770 -1.5081  1.6423
  683MOL0     H94226  12.774   6.130   9.382  5.6294 -1.6096  0.9848
  683MOL0     H94227  12.793   5.955   9.359  2.9058 -0.3335 -2.7458
  683MOL0     H94228  12.819   6.143   9.130 -0.9022 -2.6323 -2.7480
  683MOL0     H94229  12.837   5.967   9.126  0.2267 -0.2461 -1.0287
  683MOL0     H94230  13.018   5.969   9.261  4.0220  1.5361  0.4389
  683MOL0     H94231  13.007   6.136   9.316  0.4607  0.7105 -0.3439
  683MOL0     H94232  13.062   6.074   9.026  0.8899  1.9181 -0.5715
  683MOL0     H94233  13.181   6.087   9.170  0.0444 -0.5852  0.3971
  683MOL0     H94234  11.907   5.937   9.331 -1.7669 -2.8527  0.5182
  683MOL0     H94235  11.690   5.967   9.435 -0.1237 -0.3812  0.9681
  683MOL0     H94236  11.463   5.708   9.870 -1.5657 -0.3064 -3.8629
  683MOL0     H94237  11.249   5.721   9.988  0.9182 -0.7125  1.3603
  683MOL0     H94238  10.386   6.226  11.033 -0.0420 -0.3165  0.8348
  683MOL0     H94239  10.224   6.126  11.188  2.0811 -0.5665  2.3216
  683MOL0     H94240   9.743   5.855  11.139 -1.7576 -1.2462  0.3577
  683MOL0     H94241   9.596   5.735  11.283 -0.7982  1.3315  1.6113
  683MOL0     H94242   9.666   5.352  11.422  2.1847 -0.6453  1.4845
  683MOL0     H94243   9.763   5.398  11.565  0.2083  0.9048  0.4363
  683MOL0     H94244   9.578   5.270  11.620  1.3898 -0.8304 -3.2573
  683MOL0     H94245   9.463   5.390  11.553  0.4333  2.1310 -0.1556
  683MOL0     H94246   9.668   5.490  11.747  0.0873  0.6766 -1.0877
  683MOL0     H94247   9.501   5.558  11.707 -4.6668 -2.7087 -2.3319
  683MOL0     H94248   9.483   5.472  11.922  0.8479  0.2486 -0.9560
  683MOL0     H94249   9.567   5.314  11.879  1.4168 -0.8950 -3.5295
  683MOL0     H94250   9.159   5.233  11.812  0.9549 -1.6489  1.9916
  683MOL0     H94251   9.933   5.556  11.487  2.2088  1.1927  0.1850
  683MOL0     H94252  10.163   5.623  11.258  1.0886  1.7546 -0.8357
  683MOL0     H94253  10.177   5.734  11.403  0.1397 -1.5274  3.6978
  683MOL0     H94254  10.138   5.570  11.428  0.1775 -0.0602  0.3320
  684MOL0     O94255  10.909  11.496   2.347 -0.0425 -0.4583 -0.1073
  684MOL0     C94256  10.858  11.387   2.364 -0.6469 -1.1637  0.1426
  684MOL0     O94257  10.785  11.317   2.274  0.6654 -0.3838 -0.1543
  684MOL0     C94258  10.725  11.388   2.170  1.1020 -0.7856  0.2658
  684MOL0     C94259  10.735  11.347   2.035 -0.0147 -0.5263  0.0186
  684MOL0     C94260  10.680  11.422   1.939  0.7362  0.2250  0.9830
  684MOL0     C94261  10.597  11.533   1.962  0.0364 -0.4056  0.0652
  684MOL0     O94262  10.533  11.611   1.864  0.6535 -0.8067 -0.8724
  684MOL0     C94263  10.633  11.679   1.790  0.1065  0.8150 -0.0817
  684MOL0     C94264  10.571  11.783   1.704  0.4802  0.3245 -0.5532
  684MOL0     C94265  10.668  11.870   1.616 -0.0625  0.2883  0.5548
  684MOL0     C94266  10.603  11.962   1.517  0.0535 -0.0568  0.1409
  684MOL0     C94267  10.525  12.076   1.591  0.3091  0.6367  0.0312
  684MOL0     C94268  10.581  12.148   1.703 -0.4394 -0.0027  0.2347
  684MOL0     C94269  10.485  12.265   1.730  0.4070  0.1628 -0.5053
  684MOL0     C94270  10.562  12.354   1.825  0.2504 -0.0098  0.5976
  684MOL0     N94271  10.469  12.450   1.891  0.2407 -0.5639  0.2260
  684MOL0     C94272  10.369  12.418   1.975  0.1309  0.1275 -0.5590
  684MOL0     C94273  10.290  12.519   1.986 -0.5594 -0.0709 -0.2316
  684MOL0     C94274  10.163  12.524   2.062  0.4234 -0.4358 -0.1961
  684MOL0     C94275  10.047  12.426   2.010 -0.0556 -0.5918 -0.2294
  684MOL0     C94276   9.972  12.474   1.888  0.9576 -1.0255  0.4750
  684MOL0     C94277   9.834  12.408   1.856 -0.4414  0.2718  0.8973
  684MOL0     O94278   9.853  12.273   1.890 -0.4212  0.4064  0.2430
  684MOL0     C94279   9.747  12.188   1.906  0.5034  0.1925  0.9010
  684MOL0     C94280   9.619  12.192   1.847  0.2448 -0.4354 -0.2718
  684MOL0     C94281   9.521  12.106   1.886 -0.1741  0.0056  0.8051
  684MOL0     C94282   9.400  12.102   1.810  0.1953 -0.5086 -0.3129
  684MOL0     C94283   9.534  12.028   2.000 -0.2498  0.5919 -0.5411
  684MOL0     C94284   9.439  11.933   2.051 -0.0077 -0.5626 -0.3179
  684MOL0     O94285   9.487  11.811   2.093 -0.6311 -0.2278 -0.4814
  684MOL0     C94286   9.407  11.746   2.182 -0.7610  0.2087  0.5675
  684MOL0     C94287   9.466  11.704   2.296 -0.7069  0.3978  0.4095
  684MOL0     C94288   9.400  11.630   2.394  0.2628 -0.8317 -0.2702
  684MOL0     C94289   9.267  11.595   2.367  0.2551 -0.0443  0.6598
  684MOL0     O94290   9.185  11.524   2.449 -0.5822  0.2167  0.6989
  684MOL0     C94291   9.247  11.449   2.562  0.2955  0.5792 -0.1724
  684MOL0     C94292   9.145  11.373   2.651 -0.7075  1.3612 -0.1651
  684MOL0     C94293   9.051  11.285   2.558  0.5906  0.3927  0.2367
  684MOL0     C94294   8.949  11.202   2.652 -0.6782 -0.1300  0.7040
  684MOL0     C94295   8.858  11.104   2.563  1.0089 -0.0810 -0.7631
  684MOL0     C94296   8.926  11.031   2.449  1.1768  0.2045 -0.3699
  684MOL0     C94297   8.836  10.921   2.391  0.3609 -1.2016  0.3425
  684MOL0     C94298   8.716  10.967   2.309  0.3237 -0.2043  0.1388
  684MOL0    Cl94299   8.770  11.056   2.161  0.2657 -0.0949  0.2500
  684MOL0     C94300   9.207  11.628   2.248  0.0931  0.0020  0.0974
  684MOL0     C94301   9.277  11.698   2.151 -0.0230 -0.0381 -0.0501
  684MOL0     O94302   9.329  11.980   2.066  0.4897 -0.5875  0.0922
  684MOL0     C94303   9.666  12.013   2.053  0.0501  0.1076  0.7977
  684MOL0     C94304   9.769  12.101   2.007 -0.9040 -0.3486  1.1067
  684MOL0     N94305  10.343  12.622   1.911 -0.5382 -0.5474 -0.0713
  684MOL0     N94306  10.455  12.579   1.860  0.6393 -0.1973  0.6069
  684MOL0     C94307  10.585  11.585   2.089  0.1143 -0.3915  1.0053
  684MOL0     C94308  10.653  11.515   2.186 -0.9309  0.1546 -0.0420
  684MOL0     C94309  10.907  11.303   2.478 -0.8510 -0.0352  0.0308
  684MOL0     C94310  11.042  11.245   2.482  0.3229 -0.6279  0.7748
  684MOL0     C94311  11.076  11.153   2.582  0.1511  0.8081 -0.0065
  684MOL0     C94312  10.987  11.108   2.679  0.2799  0.5271 -0.6373
  684MOL0     O94313  11.019  10.994   2.755 -0.3666  0.5146  0.1774
  684MOL0     C94314  10.935  10.950   2.856 -0.5007 -0.4758 -0.2620
  684MOL0     C94315  10.900  10.798   2.846  0.1002  0.8104  0.7559
  684MOL0     C94316  10.860  10.730   2.713  0.9148  0.0925  0.0840
  684MOL0     C94317  10.814  10.584   2.747 -0.4295  0.7611 -0.0332
  684MOL0     C94318  10.747  10.517   2.640 -0.2315 -0.6668 -0.7589
  684MOL0     C94319  10.692  10.484   2.536  0.2741 -0.2899  0.3590
  684MOL0     C94320  10.853  11.170   2.682  0.5549  1.2923  0.0811
  684MOL0     C94321  10.825  11.277   2.591  0.0347  0.2580 -0.6310
  684MOL0     C94322  10.691  11.353   2.598  0.3240 -0.6566 -0.7186
  684MOL0     H94323  10.783  11.250   2.022 -0.0776 -0.3594 -1.6861
  684MOL0     H94324  10.693  11.391   1.836 -0.7617 -1.1559  1.1615
  684MOL0     H94325  10.666  11.601   1.721 -3.4084 -0.7622 -0.1850
  684MOL0     H94326  10.707  11.725   1.856  1.7735 -0.3995 -1.0332
  684MOL0     H94327  10.501  11.739   1.632  1.8511 -1.3722 -0.9111
  684MOL0     H94328  10.516  11.833   1.785 -0.4172 -2.5000  0.7209
  684MOL0     H94329  10.741  11.922   1.679 -1.1645  1.4131  0.9367
  684MOL0     H94330  10.731  11.806   1.554  0.1115  1.9223 -1.0566
  684MOL0     H94331  10.682  12.007   1.457 -0.5473  0.0616 -0.5861
  684MOL0     H94332  10.525  11.915   1.456 -1.1843 -0.2707  1.8059
  684MOL0     H94333  10.435  12.024   1.627  2.1945 -3.9511 -1.1491
  684MOL0     H94334  10.489  12.130   1.503 -1.1634  1.1930  0.9229
  684MOL0     H94335  10.595  12.082   1.789  1.3911 -0.8300 -0.6387
  684MOL0     H94336  10.679  12.181   1.669 -0.5590 -1.0570 -1.2571
  684MOL0     H94337  10.386  12.243   1.770 -0.4393  2.4668 -1.1795
  684MOL0     H94338  10.467  12.329   1.643  1.4608  2.1303  0.6489
  684MOL0     H94339  10.615  12.300   1.904  1.2795 -0.0273 -0.0825
  684MOL0     H94340  10.630  12.404   1.756 -1.8552 -0.2938 -1.8089
  684MOL0     H94341  10.339  12.324   2.021 -1.4873  1.3285  1.0039
  684MOL0     H94342  10.140  12.631   2.062  0.9522 -0.3180  0.1087
  684MOL0     H94343  10.188  12.494   2.164  1.2480 -3.1827 -1.1032
  684MOL0     H94344  10.103  12.337   1.981  1.2475  0.4531 -1.0342
  684MOL0     H94345   9.978  12.405   2.093  0.6952 -0.5971  0.4089
  684MOL0     H94346   9.961  12.582   1.895  0.5097 -1.0050 -0.4839
  684MOL0     H94347  10.034  12.453   1.801  0.5897  1.2626 -0.3958
  684MOL0     H94348   9.752  12.449   1.916 -1.4531  1.3206 -1.1197
  684MOL0     H94349   9.809  12.427   1.752  0.3632  0.4508  0.7306
  684MOL0     H94350   9.597  12.247   1.757 -0.6504 -2.1853 -1.1815
  684MOL0     H94351   9.393  12.189   1.743 -0.0155 -0.4255 -0.1840
  684MOL0     H94352   9.317  12.113   1.880  0.9715 -2.2664  0.9502
  684MOL0     H94353   9.389  12.009   1.754 -0.3743 -0.5298 -0.1655
  684MOL0     H94354   9.566  11.736   2.325 -0.4237 -1.7684  2.1095
  684MOL0     H94355   9.450  11.596   2.485 -0.8564 -0.1105  0.6453
  684MOL0     H94356   9.308  11.373   2.511 -1.1838  0.7093 -2.2481
  684MOL0     H94357   9.300  11.523   2.623 -0.7561  0.0924  1.3955
  684MOL0     H94358   9.213  11.308   2.708 -0.2746 -0.0161 -2.1323
  684MOL0     H94359   9.087  11.437   2.717 -0.4372  0.2398  1.2258
  684MOL0     H94360   9.101  11.207   2.502  1.4221  0.1311  1.3077
  684MOL0     H94361   9.002  11.355   2.490  0.4237 -0.5094 -0.5896
  684MOL0     H94362   8.894  11.278   2.708  1.4959  2.6224 -0.6641
  684MOL0     H94363   9.015  11.145   2.719  0.5126  0.8199  0.3847
  684MOL0     H94364   8.814  11.033   2.635  2.8580  0.7458  1.3030
  684MOL0     H94365   8.769  11.159   2.531  0.1007  0.5137  2.3779
  684MOL0     H94366   9.019  10.989   2.489 -0.5454 -2.0979  1.4769
  684MOL0     H94367   8.946  11.099   2.366  1.1315 -0.9790 -1.3859
  684MOL0     H94368   8.795  10.847   2.460 -1.2521 -0.9738 -0.3192
  684MOL0     H94369   8.895  10.860   2.321  0.2142 -0.9820  0.0224
  684MOL0     H94370   8.627  11.015   2.351 -0.0335  2.1414 -2.8892
  684MOL0     H94371   8.662  10.879   2.273 -1.1208  0.7661 -0.1517
  684MOL0     H94372   9.106  11.588   2.238 -0.7639  1.5692  2.0001
  684MOL0     H94373   9.235  11.723   2.054 -0.4059  1.6586  0.5202
  684MOL0     H94374   9.682  11.954   2.142 -2.6558 -0.1267  1.2163
  684MOL0     H94375   9.871  12.097   2.045 -1.3655 -1.4071  2.3667
  684MOL0     H94376  10.523  11.669   2.116  0.0486  0.4573 -1.5204
  684MOL0     H94377  10.658  11.567   2.281  0.8787  3.3212 -1.6660
  684MOL0     H94378  11.107  11.263   2.396  0.6072 -1.9256  0.6995
  684MOL0     H94379  11.178  11.117   2.583  0.0815  0.6111  0.8918
  684MOL0     H94380  10.993  10.958   2.948 -0.2400 -0.4849 -0.4246
  684MOL0     H94381  10.847  11.012   2.876  0.1378  0.4573 -0.3065
  684MOL0     H94382  10.834  10.765   2.927 -0.5041 -0.8622 -0.3501
  684MOL0     H94383  10.995  10.751   2.870 -1.8448 -2.6281  2.5399
  684MOL0     H94384  10.776  10.784   2.668 -0.1491 -1.8020 -0.3519
  684MOL0     H94385  10.934  10.733   2.632  0.5200 -4.5239 -0.7517
  684MOL0     H94386  10.748  10.593   2.834  1.0993 -2.8076  1.6991
  684MOL0     H94387  10.888  10.512   2.784 -2.0091 -1.7661 -1.4861
  684MOL0     H94388  10.648  10.458   2.442  2.2379  2.3592 -1.4414
  684MOL0     H94389  10.775  11.141   2.752 -2.2493 -1.5326 -3.8231
  684MOL0     H94390  10.718  11.454   2.563  1.8015 -0.6754  0.2748
  684MOL0     H94391  10.601  11.337   2.538 -0.5810  0.5124  0.2797
  684MOL0     H94392  10.668  11.356   2.705 -2.0444  1.9090 -1.1861
  685MOL0     O94393   2.280   1.257   6.155  0.2152 -0.3914 -0.1294
  685MOL0     C94394   2.318   1.236   6.267 -1.2875  0.2097 -0.2721
  685MOL0     O94395   2.307   1.109   6.318  0.1596  0.0833  0.7566
  685MOL0     C94396   2.285   0.999   6.238 -0.3070 -0.1152  0.8405
  685MOL0     C94397   2.181   0.994   6.146 -0.3879  0.0871  0.3528
  685MOL0     C94398   2.165   0.880   6.073 -0.3593 -0.1704  0.7282
  685MOL0     C94399   2.247   0.768   6.090  0.7587 -0.6568 -0.0503
  685MOL0     O94400   2.207   0.656   6.037 -0.1352  0.7672  0.4038
  685MOL0     C94401   2.231   0.530   6.101 -0.0690  1.4170 -0.1475
  685MOL0     C94402   2.184   0.421   6.000 -0.5871  0.1079  0.2066
  685MOL0     C94403   2.270   0.405   5.868  0.5076  0.2866 -0.0467
  685MOL0     C94404   2.211   0.335   5.746  0.9277  0.2418 -0.3299
  685MOL0     C94405   2.313   0.338   5.625  0.3888 -0.4750  0.4368
  685MOL0     C94406   2.260   0.266   5.503 -0.2206  0.0899  0.0355
  685MOL0     C94407   2.330   0.307   5.377 -1.2777 -0.2867  1.0063
  685MOL0     C94408   2.281   0.447   5.334  0.2300 -0.1353 -0.2422
  685MOL0     N94409   2.318   0.478   5.192  0.2041 -0.9738 -0.5110
  685MOL0     C94410   2.371   0.602   5.155 -0.3122  0.5915 -0.4947
  685MOL0     C94411   2.413   0.581   5.028  0.3864 -0.2699  0.3077
  685MOL0     C94412   2.480   0.681   4.937 -0.0954 -0.3580  0.5931
  685MOL0     C94413   2.619   0.725   5.000  0.3941  0.2155 -0.7114
  685MOL0     C94414   2.710   0.795   4.897 -0.9846  0.4902 -0.1614
  685MOL0     C94415   2.738   0.708   4.776 -0.2971  0.2440  0.1413
  685MOL0     O94416   2.831   0.766   4.685 -0.7451  1.0837  0.5520
  685MOL0     C94417   2.797   0.867   4.601 -0.7669  0.0558 -0.0143
  685MOL0     C94418   2.674   0.933   4.608  0.4652  0.4629  0.4846
  685MOL0     C94419   2.647   1.037   4.527  0.8296  0.1808  0.5123
  685MOL0     C94420   2.512   1.091   4.526  0.2197  0.2162  0.1253
  685MOL0     C94421   2.747   1.085   4.433 -0.3765  1.0122 -0.3140
  685MOL0     C94422   2.733   1.197   4.347 -0.4485 -0.8601  0.5080
  685MOL0     O94423   2.780   1.320   4.393 -0.1684  0.3129 -0.3432
  685MOL0     C94424   2.771   1.430   4.306 -0.6523  0.2349 -0.2213
  685MOL0     C94425   2.876   1.457   4.217 -0.0091 -0.9434 -1.0322
  685MOL0     C94426   2.865   1.563   4.126 -0.5468  1.5271  0.0213
  685MOL0     C94427   2.757   1.647   4.135 -0.5366  1.2582 -0.6015
  685MOL0     O94428   2.750   1.744   4.042  0.8732 -0.5739 -0.5770
  685MOL0     C94429   2.639   1.838   4.027  0.8224  1.0383 -0.1323
  685MOL0     C94430   2.648   1.901   3.890 -0.8087  1.0396  0.2614
  685MOL0     C94431   2.523   1.962   3.831  0.8747 -0.0145  0.0982
  685MOL0     C94432   2.558   2.047   3.703 -0.1900  0.5275  0.3088
  685MOL0     C94433   2.427   2.090   3.645  1.4711 -0.6235  0.4268
  685MOL0     C94434   2.444   2.201   3.534 -0.6509  0.4608 -0.6995
  685MOL0     C94435   2.319   2.214   3.459  0.2038 -0.0678 -0.2639
  685MOL0     C94436   2.320   2.318   3.341  0.2177  0.1336 -0.1997
  685MOL0    Cl94437   2.154   2.392   3.291  0.0102  0.0561  0.1026
  685MOL0     C94438   2.656   1.624   4.235 -0.3651  0.2686  0.1517
  685MOL0     C94439   2.663   1.513   4.317 -0.2570 -0.4834  0.0706
  685MOL0     O94440   2.699   1.174   4.236  0.5626 -0.6048  0.4828
  685MOL0     C94441   2.877   1.023   4.437  1.2611 -0.8113 -0.9575
  685MOL0     C94442   2.904   0.918   4.524 -0.6869  0.1326 -0.2346
  685MOL0     N94443   2.385   0.451   4.988  0.3703 -0.3952  0.1557
  685MOL0     N94444   2.328   0.384   5.085 -0.1628 -0.2331  0.3504
  685MOL0     C94445   2.365   0.776   6.173 -0.4007  0.1594  0.5443
  685MOL0     C94446   2.382   0.896   6.242  0.0113 -0.3239 -1.0007
  685MOL0     C94447   2.375   1.351   6.358 -0.1873  0.1960  0.1758
  685MOL0     C94448   2.317   1.482   6.348 -0.3542 -0.5885 -0.1737
  685MOL0     C94449   2.368   1.587   6.438  0.4880 -0.0336  0.9465
  685MOL0     C94450   2.459   1.564   6.543 -0.6552  0.8949 -0.9823
  685MOL0     O94451   2.498   1.647   6.646 -0.2103 -0.4906 -0.1649
  685MOL0     C94452   2.458   1.791   6.639  0.6168  0.1808  0.3238
  685MOL0     C94453   2.572   1.864   6.568 -0.3069 -0.6952  0.3187
  685MOL0     C94454   2.555   2.017   6.555  0.1055  0.8563 -0.1596
  685MOL0     C94455   2.451   2.067   6.452  0.2510 -0.7402  0.9572
  685MOL0     C94456   2.507   2.101   6.321  0.3587  0.1311 -0.0045
  685MOL0     C94457   2.540   2.135   6.211  0.1739 -0.7298  0.4998
  685MOL0     C94458   2.526   1.441   6.535 -0.5427  0.0477 -0.4953
  685MOL0     C94459   2.474   1.329   6.456 -0.1627 -1.0121 -0.0727
  685MOL0     C94460   2.530   1.195   6.505 -0.3365  0.0124  0.3051
  685MOL0     H94461   2.099   1.064   6.146  0.3062  1.0717 -2.9716
  685MOL0     H94462   2.065   0.867   6.033 -0.3866 -1.3408  1.1192
  685MOL0     H94463   2.183   0.528   6.199  0.7245  1.4433  0.2558
  685MOL0     H94464   2.334   0.506   6.131 -0.6063  0.5289  1.0574
  685MOL0     H94465   2.179   0.330   6.060  1.7203  0.6360  1.3170
  685MOL0     H94466   2.085   0.447   5.960  1.5314  1.1645 -5.4079
  685MOL0     H94467   2.317   0.499   5.837  0.4854  0.3376  0.0745
  685MOL0     H94468   2.355   0.339   5.885  0.0433  0.1058  1.7468
  685MOL0     H94469   2.186   0.231   5.768 -2.2387  1.0819  0.5548
  685MOL0     H94470   2.111   0.374   5.727  0.4526 -0.7391  0.0850
  685MOL0     H94471   2.409   0.295   5.657 -0.7967 -2.0917  2.0298
  685MOL0     H94472   2.337   0.441   5.598  2.2841 -1.3932 -1.6308
  685MOL0     H94473   2.284   0.161   5.520  1.6923  0.4580 -0.1732
  685MOL0     H94474   2.153   0.285   5.488 -0.2263  1.2713  1.3629
  685MOL0     H94475   2.309   0.241   5.292 -2.5518 -1.1373  1.9410
  685MOL0     H94476   2.438   0.299   5.394 -0.1796  1.3707 -3.5944
  685MOL0     H94477   2.174   0.472   5.339 -0.1872 -0.2287 -4.4118
  685MOL0     H94478   2.336   0.529   5.381 -2.4568  2.2199 -0.8739
  685MOL0     H94479   2.383   0.686   5.224  0.8775  0.5317 -0.6061
  685MOL0     H94480   2.416   0.770   4.929  1.4297  0.8865  1.6186
  685MOL0     H94481   2.485   0.642   4.835 -4.0260 -1.0370  0.4966
  685MOL0     H94482   2.600   0.798   5.079 -1.1425  0.8861 -1.6393
  685MOL0     H94483   2.673   0.639   5.040 -0.3927 -0.7893 -1.7503
  685MOL0     H94484   2.674   0.893   4.864 -2.5024 -0.0796 -0.2892
  685MOL0     H94485   2.801   0.826   4.949 -0.0435 -0.5589 -1.1231
  685MOL0     H94486   2.773   0.610   4.810 -0.7458 -0.5259 -1.4837
  685MOL0     H94487   2.652   0.682   4.714 -2.1336 -0.6214  2.8690
  685MOL0     H94488   2.590   0.892   4.663 -0.0899 -1.9073 -1.9529
  685MOL0     H94489   2.517   1.200   4.526  0.8006  0.2007 -1.2201
  685MOL0     H94490   2.445   1.057   4.606 -1.7888  0.0443 -1.5316
  685MOL0     H94491   2.458   1.074   4.433  2.3754  0.5076 -1.2419
  685MOL0     H94492   2.961   1.390   4.222 -0.8733 -2.3421 -3.3604
  685MOL0     H94493   2.935   1.556   4.043  1.0590  0.4795  1.3722
  685MOL0     H94494   2.546   1.781   4.029  1.3088  0.1284 -1.7364
  685MOL0     H94495   2.649   1.910   4.109  4.8380 -0.5152  1.0176
  685MOL0     H94496   2.724   1.977   3.906  2.1038 -1.2944 -1.3316
  685MOL0     H94497   2.667   1.829   3.809 -2.1467  1.9115 -0.8856
  685MOL0     H94498   2.487   2.034   3.904  3.6178 -0.0032  1.5803
  685MOL0     H94499   2.440   1.890   3.822  0.0116  1.1760 -2.7657
  685MOL0     H94500   2.619   1.987   3.635 -0.5292  0.3588  0.1448
  685MOL0     H94501   2.614   2.137   3.727  1.1085 -0.6692  1.9731
  685MOL0     H94502   2.364   2.013   3.600 -2.3610  3.1748 -1.4885
  685MOL0     H94503   2.367   2.143   3.719 -0.9329 -2.3281 -0.1942
  685MOL0     H94504   2.523   2.168   3.466 -0.4056  0.1930 -0.2928
  685MOL0     H94505   2.472   2.301   3.568  2.5078  1.4658 -5.2939
  685MOL0     H94506   2.232   2.225   3.525  0.3134 -1.8893  0.2387
  685MOL0     H94507   2.293   2.117   3.415  1.5575 -0.8002  0.4997
  685MOL0     H94508   2.361   2.266   3.254 -0.7271 -0.0714 -0.5321
  685MOL0     H94509   2.381   2.407   3.362 -0.6635  1.3100 -2.3752
  685MOL0     H94510   2.570   1.690   4.240 -1.1882 -0.7407 -0.4615
  685MOL0     H94511   2.596   1.494   4.401  0.4877 -0.5413  0.6669
  685MOL0     H94512   2.954   1.063   4.372 -0.3465  0.3975 -2.2409
  685MOL0     H94513   3.003   0.874   4.524 -0.4521  0.6349  0.8612
  685MOL0     H94514   2.434   0.695   6.193 -0.4106 -0.2222 -0.8584
  685MOL0     H94515   2.468   0.914   6.306  0.7812 -1.8698 -1.5623
  685MOL0     H94516   2.235   1.494   6.278  0.2372  1.7835 -0.5350
  685MOL0     H94517   2.338   1.685   6.403 -1.1068 -0.1102  1.9600
  685MOL0     H94518   2.374   1.806   6.571 -0.2946  1.1766  1.6247
  685MOL0     H94519   2.426   1.842   6.730  0.9180 -1.0441  1.1490
  685MOL0     H94520   2.591   1.816   6.471  0.4928 -1.7641  0.9871
  685MOL0     H94521   2.656   1.843   6.634  2.0324 -1.2991 -2.6315
  685MOL0     H94522   2.528   2.046   6.657  1.3068  1.6166 -0.0288
  685MOL0     H94523   2.650   2.070   6.544  0.0016  1.5230  1.7412
  685MOL0     H94524   2.406   2.163   6.479  1.3293  0.3486 -0.9022
  685MOL0     H94525   2.376   1.987   6.448  2.0589 -2.4764 -2.0616
  685MOL0     H94526   2.561   2.160   6.109 -1.7206  1.5546  0.5763
  685MOL0     H94527   2.615   1.426   6.595 -1.0135 -0.7487  0.0076
  685MOL0     H94528   2.513   1.113   6.434  3.2208 -1.1088  0.5558
  685MOL0     H94529   2.638   1.193   6.520  0.0555 -1.8121 -2.0821
  685MOL0     H94530   2.487   1.154   6.597  2.2914 -2.9150  0.3955
  686MOL0     O94531   9.514   9.651   3.512  0.0696 -0.6168  0.9055
  686MOL0     C94532   9.430   9.640   3.426  0.2938 -0.3197 -0.3827
  686MOL0     O94533   9.413   9.539   3.340 -0.5783  0.4283  0.4318
  686MOL0     C94534   9.499   9.430   3.341  0.6696  0.1926 -0.4911
  686MOL0     C94535   9.479   9.345   3.443  0.4268  1.2834 -0.2304
  686MOL0     C94536   9.570   9.231   3.453  0.2324  0.3475  0.7568
  686MOL0     C94537   9.658   9.200   3.357  0.2345 -0.5535  0.3869
  686MOL0     O94538   9.706   9.074   3.350 -0.6141  0.0446 -0.6467
  686MOL0     C94539   9.688   9.031   3.216  0.2087  0.3930  0.1333
  686MOL0     C94540   9.671   8.883   3.216  0.8579  0.1559 -0.0985
  686MOL0     C94541   9.789   8.811   3.285 -0.4837 -0.6212  0.2290
  686MOL0     C94542   9.763   8.659   3.308  0.0435 -0.5580  0.0578
  686MOL0     C94543   9.871   8.588   3.398  0.9857  0.1718 -0.2653
  686MOL0     C94544   9.885   8.637   3.552 -0.4795 -0.1243  0.1024
  686MOL0     C94545   9.985   8.553   3.638  0.1845 -0.3571  0.2043
  686MOL0     C94546   9.947   8.403   3.668  0.0178  0.6697 -0.0876
  686MOL0     N94547  10.006   8.349   3.783 -0.1200  0.4159  0.0747
  686MOL0     C94548  10.132   8.306   3.782 -0.2387 -0.1712 -0.0013
  686MOL0     C94549  10.145   8.247   3.904  0.0205  0.4720 -0.2606
  686MOL0     C94550  10.275   8.200   3.961 -0.6520 -0.3001 -0.8689
  686MOL0     C94551  10.277   8.090   4.070 -0.1365  0.3288  0.1191
  686MOL0     C94552  10.418   8.051   4.122  0.7628  0.1317  0.1393
  686MOL0     C94553  10.420   7.924   4.214 -0.5777  0.0331  0.1270
  686MOL0     O94554  10.381   7.813   4.134  0.0556 -0.1122 -0.5631
  686MOL0     C94555  10.361   7.698   4.206  0.2895 -0.1525 -0.0193
  686MOL0     C94556  10.403   7.670   4.336  1.1808 -0.6321  0.6760
  686MOL0     C94557  10.380   7.538   4.374 -0.1451  0.2329 -0.9823
  686MOL0     C94558  10.424   7.504   4.519 -0.0993 -0.8186 -0.6908
  686MOL0     C94559  10.294   7.440   4.305 -0.3107 -0.1753 -0.2805
  686MOL0     C94560  10.236   7.308   4.337 -0.7236  0.1899 -0.0152
  686MOL0     O94561  10.123   7.274   4.282  0.5177  0.2816  0.4880
  686MOL0     C94562  10.079   7.141   4.324 -0.6537 -0.0910 -0.1958
  686MOL0     C94563  10.108   7.023   4.256  0.3542 -0.3669 -0.2085
  686MOL0     C94564  10.066   6.899   4.319  0.2831 -0.2141  0.0400
  686MOL0     C94565   9.995   6.898   4.439  0.1838 -0.7895  0.2768
  686MOL0     O94566   9.954   6.776   4.483  0.5337 -0.1263 -0.1833
  686MOL0     C94567   9.912   6.764   4.617  0.2863 -0.6663  0.0680
  686MOL0     C94568   9.857   6.621   4.631  0.0490  0.8380 -0.1212
  686MOL0     C94569   9.961   6.514   4.675  0.7837 -0.7527 -0.0401
  686MOL0     C94570   9.902   6.384   4.725  0.7715 -0.8309 -1.5941
  686MOL0     C94571  10.005   6.273   4.718  0.6985  0.2500  1.0090
  686MOL0     C94572   9.936   6.135   4.739 -0.3251 -0.1414 -0.5926
  686MOL0     C94573  10.038   6.014   4.749  0.3128  0.2602  1.1301
  686MOL0     C94574  10.022   5.935   4.883  0.3586  0.6799 -0.0737
  686MOL0    Cl94575  10.097   5.775   4.868 -0.5070  0.0479 -0.0855
  686MOL0     C94576   9.966   7.023   4.499 -0.1059  0.3651 -0.1252
  686MOL0     C94577  10.003   7.143   4.440 -0.0865  0.5602 -0.2698
  686MOL0     O94578  10.299   7.243   4.425  0.1879  0.1479  0.2521
  686MOL0     C94579  10.247   7.492   4.184  0.0444 -0.2966 -0.1526
  686MOL0     C94580  10.292   7.613   4.129  0.3646  0.8883  0.0303
  686MOL0     N94581  10.028   8.276   3.979 -0.2506  0.3160  0.5160
  686MOL0     N94582   9.943   8.334   3.906  0.7645 -0.1018  1.0469
  686MOL0     C94583   9.681   9.297   3.254  0.0658 -0.7841  0.1152
  686MOL0     C94584   9.597   9.410   3.249  0.3009 -0.2751 -0.7096
  686MOL0     C94585   9.320   9.752   3.412 -0.4077 -0.8424 -0.6684
  686MOL0     C94586   9.199   9.720   3.337  0.0182  0.5448 -0.4782
  686MOL0     C94587   9.101   9.814   3.327 -0.7625  0.2363 -1.0873
  686MOL0     C94588   9.118   9.935   3.391  0.0233 -0.1742 -0.0381
  686MOL0     O94589   9.020  10.036   3.390 -0.1748 -0.1306 -0.1648
  686MOL0     C94590   8.976  10.082   3.261 -0.4998 -0.1983 -0.4194
  686MOL0     C94591   9.110  10.108   3.168 -0.8002 -0.3039  0.5597
  686MOL0     C94592   9.154  10.251   3.184 -0.0310  0.2138 -0.2317
  686MOL0     C94593   9.279  10.271   3.100 -0.1066  0.1800 -0.1965
  686MOL0     C94594   9.222  10.295   2.964  0.8704 -1.0178  0.3732
  686MOL0     C94595   9.160  10.318   2.859  0.1203 -0.1944 -0.7803
  686MOL0     C94596   9.234   9.966   3.462  0.1726  0.4157  0.0730
  686MOL0     C94597   9.332   9.869   3.481  0.9542 -0.4605 -0.2727
  686MOL0     C94598   9.448   9.907   3.568  0.3497 -0.1510  0.6315
  686MOL0     H94599   9.400   9.346   3.518  0.5578 -0.2092 -0.0285
  686MOL0     H94600   9.541   9.159   3.530  0.1126  0.2600  0.6318
  686MOL0     H94601   9.774   9.070   3.160  0.3888  2.0539  1.4537
  686MOL0     H94602   9.598   9.067   3.165  1.2539 -0.6223 -2.6318
  686MOL0     H94603   9.588   8.855   3.282  1.0297 -0.8234 -0.2890
  686MOL0     H94604   9.647   8.835   3.121  0.9381 -1.6630  0.7700
  686MOL0     H94605   9.865   8.825   3.207 -0.7578 -0.3689  0.0070
  686MOL0     H94606   9.816   8.870   3.373 -1.1686  1.2563 -0.7634
  686MOL0     H94607   9.666   8.644   3.358  0.7282 -0.5073  1.4685
  686MOL0     H94608   9.740   8.606   3.215 -4.8032  0.5889  0.3010
  686MOL0     H94609   9.968   8.587   3.347  2.2844 -2.3489  2.0093
  686MOL0     H94610   9.837   8.483   3.398 -2.2611  1.1103  0.1345
  686MOL0     H94611   9.916   8.742   3.547 -0.7427 -0.0915 -2.0674
  686MOL0     H94612   9.786   8.635   3.598 -0.2026  1.0261  0.7815
  686MOL0     H94613   9.983   8.604   3.735  2.7387  2.3371 -1.0181
  686MOL0     H94614  10.088   8.552   3.601 -0.5349  0.0923 -1.9649
  686MOL0     H94615   9.839   8.387   3.683 -0.3367  3.9519  1.7228
  686MOL0     H94616   9.973   8.328   3.593 -1.0380 -2.1227  2.1113
  686MOL0     H94617  10.211   8.321   3.708 -1.8016  1.3105 -1.4540
  686MOL0     H94618  10.321   8.277   4.023 -0.6647 -0.2827 -0.8809
  686MOL0     H94619  10.357   8.182   3.891  0.2314 -1.8224  0.4954
  686MOL0     H94620  10.223   8.125   4.159  2.4154 -1.2995  2.4512
  686MOL0     H94621  10.219   8.004   4.035  1.9222 -0.5219 -1.4142
  686MOL0     H94622  10.482   8.037   4.035  1.3392 -2.4560  0.9100
  686MOL0     H94623  10.449   8.141   4.176 -0.5069 -0.1693  1.4269
  686MOL0     H94624  10.523   7.918   4.251 -0.3152  1.9041 -0.1905
  686MOL0     H94625  10.354   7.934   4.301 -1.9332  2.8569 -1.1019
  686MOL0     H94626  10.453   7.741   4.401  2.4431  0.4762 -1.4069
  686MOL0     H94627  10.338   7.539   4.576 -1.2874 -2.9297 -1.0422
  686MOL0     H94628  10.517   7.559   4.532 -0.5212  0.4024 -2.4575
  686MOL0     H94629  10.440   7.399   4.548 -0.6176 -0.5472  0.6432
  686MOL0     H94630  10.165   7.011   4.165 -1.5072  2.3712 -1.8527
  686MOL0     H94631  10.094   6.799   4.287 -0.1548 -0.7561  1.2770
  686MOL0     H94632   9.997   6.787   4.682  1.1675  2.3270 -1.9561
  686MOL0     H94633   9.837   6.835   4.653 -0.7929 -1.8791  0.2964
  686MOL0     H94634   9.773   6.621   4.701  0.4786  1.2948  0.4078
  686MOL0     H94635   9.817   6.589   4.534  0.2235 -1.3350  0.4864
  686MOL0     H94636  10.025   6.546   4.758 -0.0471 -1.2518  0.8198
  686MOL0     H94637  10.023   6.486   4.589 -0.5095 -1.9129 -0.6371
  686MOL0     H94638   9.813   6.348   4.671  1.3585 -3.0579 -1.1617
  686MOL0     H94639   9.865   6.401   4.826 -1.1744 -0.4981 -2.2969
  686MOL0     H94640  10.055   6.277   4.621 -0.0208 -0.5980  0.5800
  686MOL0     H94641  10.086   6.273   4.791  1.0726 -1.1116  0.6246
  686MOL0     H94642   9.857   6.113   4.666 -1.5219  0.1397  0.5794
  686MOL0     H94643   9.887   6.133   4.837  0.0910  3.1924 -0.2103
  686MOL0     H94644  10.142   6.042   4.731  0.8518 -1.8385  0.6222
  686MOL0     H94645  10.018   5.943   4.668 -0.3715  2.3678 -0.6409
  686MOL0     H94646   9.921   5.931   4.926  0.5041 -0.9973  0.1752
  686MOL0     H94647  10.065   5.989   4.968 -0.3420 -0.9269  1.3777
  686MOL0     H94648   9.923   7.022   4.599  2.9373  1.1045  1.3349
  686MOL0     H94649  10.006   7.241   4.487  1.5392  1.4251 -2.0059
  686MOL0     H94650  10.168   7.446   4.124 -1.3394  0.9457  0.6493
  686MOL0     H94651  10.259   7.643   4.030  0.3438 -3.9224 -1.7202
  686MOL0     H94652   9.762   9.279   3.184  2.2216  1.0109  1.9885
  686MOL0     H94653   9.626   9.484   3.175 -0.4602  0.5756 -0.1775
  686MOL0     H94654   9.201   9.635   3.269  3.1469  1.0212 -1.1380
  686MOL0     H94655   9.009   9.791   3.274  0.5834 -1.1697 -2.9521
  686MOL0     H94656   8.914   9.999   3.225 -0.4554 -0.3251 -0.2058
  686MOL0     H94657   8.912  10.169   3.275  0.4144 -0.0716  5.0012
  686MOL0     H94658   9.079  10.083   3.065  0.3589  0.3954  0.0236
  686MOL0     H94659   9.192  10.040   3.194 -0.2918 -2.1708 -4.6807
  686MOL0     H94660   9.080  10.329   3.165  0.3486  0.6994  0.2307
  686MOL0     H94661   9.178  10.263   3.290  0.9657 -1.4719 -0.2441
  686MOL0     H94662   9.343  10.183   3.104  0.4696  0.4961 -1.5961
  686MOL0     H94663   9.322  10.360   3.147 -0.8014  1.7941 -2.3965
  686MOL0     H94664   9.106  10.332   2.767  0.7725  0.3857 -1.0864
  686MOL0     H94665   9.233  10.063   3.510 -1.8042  0.0555  0.8321
  686MOL0     H94666   9.539   9.919   3.509 -0.4693  2.1759 -0.2509
  686MOL0     H94667   9.435  10.006   3.612 -1.2870 -0.4500  0.9165
  686MOL0     H94668   9.457   9.835   3.650 -0.8971 -1.8782 -0.6482
  687MOL0     O94669   0.496  10.668   7.253  0.4503  0.1432 -0.1986
  687MOL0     C94670   0.584  10.700   7.321 -1.2165 -0.5802 -0.4414
  687MOL0     O94671   0.696  10.782   7.291 -0.2710  0.2121 -0.2364
  687MOL0     C94672   0.712  10.825   7.162  0.0029  1.0489  0.4681
  687MOL0     C94673   0.677  10.958   7.133  0.2430  0.5508 -0.0928
  687MOL0     C94674   0.698  11.009   7.004 -0.8889 -0.6276  0.3932
  687MOL0     C94675   0.750  10.940   6.901  0.3878  0.8303  1.1374
  687MOL0     O94676   0.777  11.005   6.783  0.2259 -0.3409  0.7095
  687MOL0     C94677   0.806  10.915   6.675 -0.3605 -0.9443 -0.5075
  687MOL0     C94678   0.829  11.003   6.557  0.3043  0.3935  0.3579
  687MOL0     C94679   0.699  11.070   6.505  0.1623  0.7067  0.4557
  687MOL0     C94680   0.706  11.145   6.376 -0.2435 -1.0054  0.1035
  687MOL0     C94681   0.598  11.255   6.360  0.5165 -0.0032 -0.2797
  687MOL0     C94682   0.455  11.210   6.330 -0.0219  0.0090 -0.2202
  687MOL0     C94683   0.443  11.130   6.202  0.2527 -0.4944  0.1196
  687MOL0     C94684   0.441  10.975   6.222 -0.5829 -0.7627 -0.7123
  687MOL0     N94685   0.322  10.921   6.289  0.0914  0.2086  0.5466
  687MOL0     C94686   0.327  10.825   6.381  0.3824  0.1903  0.2502
  687MOL0     C94687   0.191  10.782   6.384 -0.0665  0.9467 -0.4472
  687MOL0     C94688   0.121  10.679   6.475 -1.2509  1.0611 -0.1746
  687MOL0     C94689   0.159  10.710   6.623 -0.7167  0.2841  0.8709
  687MOL0     C94690   0.101  10.605   6.702  0.1976 -0.0478  0.1379
  687MOL0     C94691   0.130  10.622   6.851  0.7471 -0.4963 -0.4397
  687MOL0     O94692   0.059  10.739   6.899  0.6418  0.1941 -0.0591
  687MOL0     C94693   0.050  10.765   7.036 -0.4447  0.7926 -0.5237
  687MOL0     C94694  -0.061  10.827   7.083  1.2357 -0.2819 -1.1413
  687MOL0     C94695  -0.076  10.861   7.218  0.3515 -1.0488 -1.2783
  687MOL0     C94696  -0.201  10.936   7.247  0.5668  0.1621 -0.5951
  687MOL0     C94697   0.027  10.844   7.309 -0.7109 -0.1196  1.3746
  687MOL0     C94698   0.033  10.904   7.448 -0.1897 -0.4306 -0.9241
  687MOL0     O94699  -0.053  11.012   7.479 -0.0715 -0.2325  1.3899
  687MOL0     C94700  -0.030  11.081   7.596  0.2894  0.2856 -0.2959
  687MOL0     C94701  -0.105  11.042   7.708  0.7678 -0.4022 -0.2668
  687MOL0     C94702  -0.093  11.117   7.824 -0.6711 -1.4654 -0.8042
  687MOL0     C94703  -0.011  11.240   7.826 -0.2241  0.1818  0.1804
  687MOL0     O94704  -0.011  11.307   7.942  0.1018 -0.4996  0.4997
  687MOL0     C94705   0.069  11.427   7.967 -0.0652 -0.6844  0.3859
  687MOL0     C94706   0.046  11.465   8.117 -1.3493 -0.0572  1.1746
  687MOL0     C94707   0.141  11.578   8.172 -0.2710  0.2490  0.4907
  687MOL0     C94708   0.098  11.616   8.319 -0.1349 -0.4130  0.3247
  687MOL0     C94709   0.208  11.700   8.399 -0.3115 -0.4767 -0.3207
  687MOL0     C94710   0.217  11.848   8.362  0.0720  0.2314  0.5276
  687MOL0     C94711   0.084  11.929   8.365 -0.3215  0.1299 -0.2813
  687MOL0     C94712   0.106  12.078   8.372 -0.4641  0.3857  0.1539
  687MOL0    Cl94713   0.251  12.141   8.276  0.3996  0.1017  0.0599
  687MOL0     C94714   0.058  11.281   7.708  0.1719 -0.0645  0.5300
  687MOL0     C94715   0.054  11.196   7.598  0.1683  0.3627 -0.0014
  687MOL0     O94716   0.134  10.874   7.515  0.5790  0.4563  0.5657
  687MOL0     C94717   0.141  10.765   7.258  0.3147 -0.0624 -0.5960
  687MOL0     C94718   0.151  10.722   7.127  0.0833  0.9028 -0.2584
  687MOL0     N94719   0.121  10.864   6.304  0.8351  0.1516 -0.0638
  687MOL0     N94720   0.195  10.951   6.254  0.6631  0.0026  0.8761
  687MOL0     C94721   0.796  10.809   6.934  0.0867 -0.8773  1.0402
  687MOL0     C94722   0.783  10.757   7.060  0.2739 -0.4444 -0.1744
  687MOL0     C94723   0.586  10.642   7.453 -0.2257 -0.3496 -0.1048
  687MOL0     C94724   0.629  10.508   7.464  0.7146  0.1615  0.2799
  687MOL0     C94725   0.635  10.448   7.589  0.5542 -0.0116 -0.2266
  687MOL0     C94726   0.597  10.522   7.703  0.7030 -0.9591 -0.1435
  687MOL0     O94727   0.624  10.458   7.817  0.0978 -0.2404 -0.5706
  687MOL0     C94728   0.601  10.533   7.939 -0.3305  0.8746  0.6624
  687MOL0     C94729   0.470  10.506   8.000  0.5018 -0.6955  0.2222
  687MOL0     C94730   0.445  10.586   8.132 -0.6054  0.3424 -0.3156
  687MOL0     C94731   0.409  10.744   8.115 -0.1964  0.3446 -0.9180
  687MOL0     C94732   0.330  10.768   8.003  0.6168  0.0929 -0.3615
  687MOL0     C94733   0.264  10.779   7.903  0.2960 -0.5642  0.0665
  687MOL0     C94734   0.554  10.657   7.689 -0.8256  0.4121  0.8178
  687MOL0     C94735   0.547  10.714   7.567 -1.0730 -0.0564 -0.1625
  687MOL0     C94736   0.496  10.851   7.567  0.1302 -0.8209  0.5416
  687MOL0     H94737   0.620  11.016   7.205  1.3390 -0.9593  2.1050
  687MOL0     H94738   0.660  11.106   6.972  2.6698  0.0950 -2.3152
  687MOL0     H94739   0.721  10.848   6.657 -1.4069  0.2187 -0.0655
  687MOL0     H94740   0.901  10.862   6.684 -0.4873 -1.3354 -1.3793
  687MOL0     H94741   0.908  11.077   6.571  1.0870 -0.5020  0.7809
  687MOL0     H94742   0.870  10.940   6.477  0.0085  3.5859 -2.5469
  687MOL0     H94743   0.631  10.986   6.488 -0.2250  1.4588 -2.0764
  687MOL0     H94744   0.660  11.137   6.582  0.1467 -0.4823  1.5260
  687MOL0     H94745   0.796  11.208   6.379 -0.8424 -0.1659  1.5659
  687MOL0     H94746   0.716  11.075   6.293  0.9091 -3.1363  1.9282
  687MOL0     H94747   0.638  11.315   6.278  0.6358  0.7294  0.2982
  687MOL0     H94748   0.595  11.307   6.457  1.8600 -1.2613  0.4647
  687MOL0     H94749   0.405  11.166   6.417  0.3763  1.9375  1.0633
  687MOL0     H94750   0.401  11.303   6.309 -2.2909 -1.4630 -1.3013
  687MOL0     H94751   0.524  11.164   6.136 -0.0283 -1.7970 -0.9346
  687MOL0     H94752   0.347  11.158   6.160 -0.2060 -0.1905  1.3385
  687MOL0     H94753   0.445  10.935   6.121  1.1015 -0.7902 -0.6512
  687MOL0     H94754   0.532  10.944   6.275 -0.3386  1.9292  0.5938
  687MOL0     H94755   0.411  10.779   6.431  0.6664  1.2678  0.7975
  687MOL0     H94756   0.151  10.581   6.438 -0.1417 -0.2055  3.6755
  687MOL0     H94757   0.013  10.690   6.465 -1.4149  1.0380  1.3486
  687MOL0     H94758   0.268  10.701   6.622 -0.5650 -1.2047 -4.5906
  687MOL0     H94759   0.125  10.804   6.666 -1.0113 -0.9763  3.5846
  687MOL0     H94760  -0.008  10.602   6.694  0.0659 -4.9381  0.9487
  687MOL0     H94761   0.145  10.509   6.675 -0.0630 -0.1332  0.0163
  687MOL0     H94762   0.081  10.539   6.904  0.1656 -0.4080 -0.8314
  687MOL0     H94763   0.233  10.629   6.886  0.2388  4.5961  0.7157
  687MOL0     H94764  -0.130  10.859   7.006  0.6209  1.8401  0.2045
  687MOL0     H94765  -0.284  10.904   7.183  2.0883 -2.1287 -1.5486
  687MOL0     H94766  -0.191  11.043   7.225 -0.2151  0.5237  0.6677
  687MOL0     H94767  -0.237  10.918   7.349 -1.0264 -0.5603 -1.2450
  687MOL0     H94768  -0.177  10.961   7.708 -1.8126  1.7322 -1.0799
  687MOL0     H94769  -0.150  11.080   7.908 -0.4974  0.2798  0.1188
  687MOL0     H94770   0.174  11.396   7.966  1.0140  2.5511  0.8662
  687MOL0     H94771   0.056  11.506   7.893  0.8128 -0.9953 -0.1211
  687MOL0     H94772  -0.060  11.488   8.131 -1.6382 -0.0997 -0.6735
  687MOL0     H94773   0.061  11.370   8.169 -0.9220  0.8154  2.6988
  687MOL0     H94774   0.149  11.670   8.113  1.1140  0.5396  1.0999
  687MOL0     H94775   0.238  11.529   8.171 -1.0167 -1.2850  0.6610
  687MOL0     H94776   0.096  11.522   8.374  0.0137 -0.7563 -0.2518
  687MOL0     H94777   0.001  11.667   8.314 -0.6519 -1.5000 -1.3111
  687MOL0     H94778   0.192  11.688   8.507  3.1250  2.2214  0.6650
  687MOL0     H94779   0.303  11.648   8.384 -0.0704 -0.3295  0.6252
  687MOL0     H94780   0.260  11.859   8.262 -0.3476 -1.7890  0.0837
  687MOL0     H94781   0.292  11.896   8.425  2.8654 -0.6411 -1.9321
  687MOL0     H94782   0.035  11.903   8.459 -1.2518  1.1308 -0.4726
  687MOL0     H94783   0.021  11.891   8.283 -2.4958  0.3958  1.1759
  687MOL0     H94784   0.135  12.099   8.476  0.6671  1.1813 -0.2949
  687MOL0     H94785   0.010  12.122   8.344  0.1810  1.9074  0.2391
  687MOL0     H94786   0.108  11.377   7.707  2.8635 -1.3234  2.1250
  687MOL0     H94787   0.116  11.210   7.510  0.0167  0.4821 -0.0901
  687MOL0     H94788   0.227  10.741   7.320 -0.5631 -2.0778 -0.0783
  687MOL0     H94789   0.237  10.660   7.106  0.8575 -0.6267  5.6294
  687MOL0     H94790   0.856  10.749   6.866 -2.4169  0.7787 -3.0793
  687MOL0     H94791   0.822  10.660   7.087  0.9859 -0.0228  0.3760
  687MOL0     H94792   0.668  10.439   7.390 -1.5281 -0.6945 -0.1859
  687MOL0     H94793   0.668  10.346   7.602 -0.1876 -0.1372  0.8415
  687MOL0     H94794   0.671  10.496   8.015 -2.6017 -2.7651  1.2361
  687MOL0     H94795   0.624  10.640   7.935 -0.8242  1.1482  3.1066
  687MOL0     H94796   0.462  10.399   8.021 -2.8261 -0.8895 -1.3934
  687MOL0     H94797   0.389  10.511   7.926  2.0833  2.0269 -1.5240
  687MOL0     H94798   0.362  10.541   8.186  0.2930  0.0300  0.8450
  687MOL0     H94799   0.539  10.571   8.186  1.3191  1.4937 -3.1403
  687MOL0     H94800   0.502  10.799   8.097 -0.0558  0.4347  0.0578
  687MOL0     H94801   0.362  10.782   8.206 -3.0219 -0.4488 -1.9253
  687MOL0     H94802   0.191  10.792   7.826 -0.8204  1.7688  1.4041
  687MOL0     H94803   0.514  10.716   7.771 -3.8031 -0.1177 -0.1267
  687MOL0     H94804   0.553  10.918   7.633 -3.1054  2.0421  0.7138
  687MOL0     H94805   0.517  10.897   7.470  0.2200 -2.0935 -0.0610
  687MOL0     H94806   0.392  10.861   7.599  0.3506  0.1813  0.9994
  688MOL0     O94807   3.818   8.644   1.763 -0.1732 -0.1706 -0.2044
  688MOL0     C94808   3.716   8.685   1.708 -1.0781  0.2555  0.5074
  688MOL0     O94809   3.665   8.811   1.717  0.1240  0.0542 -1.0541
  688MOL0     C94810   3.725   8.895   1.807 -0.2720 -0.0908  0.4812
  688MOL0     C94811   3.716   8.878   1.947 -0.2918 -0.1954  1.1099
  688MOL0     C94812   3.793   8.952   2.038 -0.0959  0.7819 -0.3023
  688MOL0     C94813   3.887   9.046   1.983 -0.8419  0.3993  0.8831
  688MOL0     O94814   3.958   9.125   2.071  0.4124 -0.0539 -0.5649
  688MOL0     C94815   4.099   9.094   2.078  0.3402  0.1221  0.6227
  688MOL0     C94816   4.178   9.170   2.188 -0.4921  0.1868  0.8510
  688MOL0     C94817   4.313   9.094   2.212 -0.1447 -0.7850 -0.4520
  688MOL0     C94818   4.405   9.082   2.088  0.0627 -1.4923 -0.4854
  688MOL0     C94819   4.536   8.998   2.105  0.6468  0.6950 -0.6013
  688MOL0     C94820   4.608   9.023   2.241  0.7417  0.7693  0.6120
  688MOL0     C94821   4.660   9.166   2.257  0.3218  0.7235  0.2921
  688MOL0     C94822   4.775   9.194   2.146  0.4044  0.3998  0.5519
  688MOL0     N94823   4.841   9.322   2.196  0.4048  1.2883 -0.2128
  688MOL0     C94824   4.910   9.325   2.315  0.1215  0.0240  0.4605
  688MOL0     C94825   4.960   9.459   2.318 -0.4864  0.5301 -0.1955
  688MOL0     C94826   5.040   9.517   2.440  0.2435  0.8348 -0.4617
  688MOL0     C94827   5.041   9.417   2.560  0.3912  0.4467  0.4014
  688MOL0     C94828   5.105   9.480   2.677 -0.1870 -0.0332  0.2272
  688MOL0     C94829   5.077   9.402   2.801  0.1613 -0.2736  0.6158
  688MOL0     O94830   4.947   9.412   2.850  0.2046  0.2768  0.6865
  688MOL0     C94831   4.918   9.530   2.911  0.0599  0.4896 -0.2213
  688MOL0     C94832   4.971   9.556   3.041 -0.4691 -0.4559  0.5166
  688MOL0     C94833   4.912   9.657   3.122  0.1951  0.3469 -0.0437
  688MOL0     C94834   4.955   9.672   3.263  0.1011 -0.9435 -0.2270
  688MOL0     C94835   4.793   9.728   3.068  0.0900  0.7818 -1.1923
  688MOL0     C94836   4.708   9.823   3.148 -0.0086  1.4947 -0.6980
  688MOL0     O94837   4.584   9.841   3.093  0.1386  0.1847 -0.6199
  688MOL0     C94838   4.506   9.953   3.136 -0.2736  0.1052 -0.0601
  688MOL0     C94839   4.363   9.932   3.158 -0.0329 -0.2292  0.4070
  688MOL0     C94840   4.286  10.046   3.185  0.8027  0.4605  0.7697
  688MOL0     C94841   4.344  10.170   3.212  0.0183 -0.6344  0.1635
  688MOL0     O94842   4.244  10.266   3.221 -0.2027  0.1768 -0.1568
  688MOL0     C94843   4.287  10.404   3.209  0.3236 -0.3504 -0.3410
  688MOL0     C94844   4.158  10.487   3.199 -0.2437  0.3958 -0.1634
  688MOL0     C94845   4.173  10.645   3.194  0.3315 -0.1040  0.7119
  688MOL0     C94846   4.249  10.702   3.316 -0.2525  0.0061  0.2115
  688MOL0     C94847   4.383  10.767   3.283  0.0450 -0.4413 -0.0142
  688MOL0     C94848   4.380  10.902   3.206  0.1571 -0.2807  0.0902
  688MOL0     C94849   4.519  10.968   3.185 -0.6259 -0.0258 -0.8110
  688MOL0     C94850   4.514  11.119   3.195  0.4766  0.3892  0.3721
  688MOL0    Cl94851   4.466  11.197   3.352  0.1797  0.1800  0.3567
  688MOL0     C94852   4.487  10.188   3.201  0.5004  0.4952 -0.5804
  688MOL0     C94853   4.566  10.078   3.165  0.5239  0.1891  0.6563
  688MOL0     O94854   4.743   9.860   3.264  0.4391  0.2262  0.7983
  688MOL0     C94855   4.743   9.690   2.941  0.0135  0.3186 -0.2679
  688MOL0     C94856   4.816   9.599   2.858 -0.2340  0.7141 -0.1321
  688MOL0     N94857   4.912   9.532   2.205 -0.4253 -0.7734 -0.4986
  688MOL0     N94858   4.843   9.442   2.141  1.1514 -0.5290 -0.7732
  688MOL0     C94859   3.891   9.074   1.850  0.5596  0.0027 -0.5452
  688MOL0     C94860   3.803   9.007   1.766 -0.0437 -0.2060 -1.3050
  688MOL0     C94861   3.641   8.596   1.631 -0.1269  0.2843 -0.8458
  688MOL0     C94862   3.547   8.660   1.548  0.5325 -0.9444  0.0690
  688MOL0     C94863   3.460   8.577   1.467  0.4490 -0.4630  0.5666
  688MOL0     C94864   3.487   8.440   1.461 -0.0400 -0.2495  0.9730
  688MOL0     O94865   3.432   8.359   1.371 -0.9948 -0.3038  0.4774
  688MOL0     C94866   3.520   8.342   1.260  0.3060  0.0961  0.4216
  688MOL0     C94867   3.451   8.274   1.133  1.1260 -0.5684 -0.0711
  688MOL0     C94868   3.465   8.126   1.154 -0.5864  0.4491 -0.4357
  688MOL0     C94869   3.432   8.055   1.023  0.4173  0.1008  0.2397
  688MOL0     C94870   3.398   7.908   1.039  0.4807  0.1227 -1.0514
  688MOL0     C94871   3.379   7.791   1.010  0.2868 -0.5683 -0.5553
  688MOL0     C94872   3.589   8.379   1.534 -0.1340  0.5902 -0.0493
  688MOL0     C94873   3.662   8.455   1.622 -0.4925  0.3776 -0.0088
  688MOL0     C94874   3.759   8.373   1.702  0.9413  0.9472  0.0139
  688MOL0     H94875   3.647   8.801   1.980  2.8556 -4.1001 -0.6795
  688MOL0     H94876   3.773   8.938   2.144 -0.3257  1.0767 -0.3041
  688MOL0     H94877   4.142   9.121   1.981 -2.3731  1.6373 -0.2775
  688MOL0     H94878   4.104   8.986   2.093 -3.4179 -0.3963 -0.8165
  688MOL0     H94879   4.192   9.269   2.144  2.1849 -0.6974 -0.5255
  688MOL0     H94880   4.119   9.174   2.279 -1.1084  0.5146  0.4397
  688MOL0     H94881   4.361   9.146   2.296  0.2262  1.4369 -1.9527
  688MOL0     H94882   4.300   8.993   2.252  3.4583 -1.4815 -0.7075
  688MOL0     H94883   4.346   9.041   2.006 -1.6968  1.1473 -0.6436
  688MOL0     H94884   4.444   9.177   2.052  0.9472 -1.6008  0.1584
  688MOL0     H94885   4.605   9.017   2.022  1.8888  1.6695  0.5976
  688MOL0     H94886   4.527   8.889   2.115  1.3644  0.6943  0.1865
  688MOL0     H94887   4.536   9.000   2.319 -2.0367  1.7777 -1.4739
  688MOL0     H94888   4.693   8.954   2.239 -0.5915 -1.0851 -3.7035
  688MOL0     H94889   4.693   9.174   2.361  1.4587  1.7412 -0.1222
  688MOL0     H94890   4.583   9.245   2.252  1.6924  2.0902  0.0273
  688MOL0     H94891   4.838   9.105   2.141  1.4632  1.1417  0.3816
  688MOL0     H94892   4.735   9.205   2.045 -0.7404  0.6458  1.0156
  688MOL0     H94893   4.933   9.252   2.392  4.2551  0.5317 -0.0761
  688MOL0     H94894   4.981   9.599   2.483  1.2744  2.5492 -2.1325
  688MOL0     H94895   5.130   9.567   2.403  0.7810  0.4485  0.3049
  688MOL0     H94896   4.942   9.387   2.594  2.6638 -1.5249  6.7544
  688MOL0     H94897   5.094   9.323   2.540  2.5785  1.7432 -0.2600
  688MOL0     H94898   5.211   9.483   2.652 -0.8863 -0.0430 -3.2599
  688MOL0     H94899   5.077   9.584   2.695  2.3063  1.0799 -1.6501
  688MOL0     H94900   5.082   9.295   2.781 -2.2569 -0.5251  1.1144
  688MOL0     H94901   5.142   9.437   2.882 -0.2335 -2.5435  1.9957
  688MOL0     H94902   5.047   9.489   3.080  0.2014 -0.5016 -0.7955
  688MOL0     H94903   4.968   9.779   3.286 -0.4881 -0.8423 -0.3616
  688MOL0     H94904   5.056   9.630   3.270 -0.7286 -3.0675 -0.3848
  688MOL0     H94905   4.883   9.624   3.330 -0.4172 -0.0909 -0.1476
  688MOL0     H94906   4.312   9.838   3.134 -2.3625  1.6431 -2.8793
  688MOL0     H94907   4.179  10.026   3.183  0.7235  0.5428  2.4319
  688MOL0     H94908   4.349  10.448   3.288  1.0766  0.7530 -1.5137
  688MOL0     H94909   4.345  10.422   3.118  1.8322  3.0406  1.0918
  688MOL0     H94910   4.106  10.451   3.110 -0.3706 -1.3517  0.5889
  688MOL0     H94911   4.100  10.465   3.289  0.5570 -1.2689 -0.0242
  688MOL0     H94912   4.073  10.687   3.196 -0.4699 -1.6554 -1.8060
  688MOL0     H94913   4.227  10.676   3.104  3.0689  0.4209  2.3980
  688MOL0     H94914   4.269  10.632   3.397 -0.0001  0.9634  0.9984
  688MOL0     H94915   4.190  10.792   3.337  1.7304  1.2139  0.9467
  688MOL0     H94916   4.442  10.790   3.373  0.0461 -0.7722  0.0702
  688MOL0     H94917   4.446  10.702   3.221  2.6152  1.1992  0.7328
  688MOL0     H94918   4.318  10.975   3.259  1.1866  0.5777  0.1519
  688MOL0     H94919   4.337  10.884   3.107  0.0545 -0.7115  0.2135
  688MOL0     H94920   4.570  10.933   3.094 -0.0975 -3.4143  0.6091
  688MOL0     H94921   4.575  10.947   3.276 -1.1145  0.8185 -0.3060
  688MOL0     H94922   4.451  11.152   3.113 -0.1608 -3.5507 -0.9294
  688MOL0     H94923   4.614  11.158   3.171 -1.0611  2.8870 -2.6132
  688MOL0     H94924   4.536  10.282   3.222 -2.3625  2.2088 -1.0950
  688MOL0     H94925   4.668  10.098   3.133  0.8490 -0.1839  1.4239
  688MOL0     H94926   4.655   9.731   2.891 -1.2968 -0.3880  1.3507
  688MOL0     H94927   4.782   9.553   2.766  2.1918 -1.2091 -0.1834
  688MOL0     H94928   3.965   9.140   1.806  0.7505 -0.3932 -0.8275
  688MOL0     H94929   3.801   9.028   1.659 -0.0200 -1.2298 -1.5116
  688MOL0     H94930   3.536   8.768   1.538  0.7738 -1.1103 -2.6702
  688MOL0     H94931   3.380   8.622   1.410  1.5879  0.5950 -0.2633
  688MOL0     H94932   3.571   8.435   1.236 -1.7543  1.8241  2.3363
  688MOL0     H94933   3.599   8.271   1.285 -2.2061 -3.2921 -0.4791
  688MOL0     H94934   3.491   8.313   1.039 -2.0475  0.9104 -0.9705
  688MOL0     H94935   3.348   8.312   1.128  0.7697 -1.0518  2.4052
  688MOL0     H94936   3.561   8.094   1.195 -1.7550 -1.2438  1.1614
  688MOL0     H94937   3.398   8.100   1.237  0.8525  1.4136  1.0865
  688MOL0     H94938   3.508   8.059   0.945 -0.8246  0.6969 -0.9753
  688MOL0     H94939   3.338   8.100   0.992 -0.7454 -3.0828 -1.3114
  688MOL0     H94940   3.359   7.690   0.980 -1.4815  0.0562 -1.6557
  688MOL0     H94941   3.593   8.270   1.529 -3.2916 -0.0152  4.6552
  688MOL0     H94942   3.866   8.392   1.686  1.1323 -0.9902 -1.4039
  688MOL0     H94943   3.736   8.395   1.806 -0.0391 -0.7474  0.2059
  688MOL0     H94944   3.739   8.266   1.688 -1.6656  1.2104  1.1206
  689MOL0     O94945  10.636   4.371   4.311 -0.1297 -0.0689  0.1636
  689MOL0     C94946  10.536   4.374   4.243  0.5764 -0.2992 -0.2386
  689MOL0     O94947  10.509   4.470   4.148 -0.3482  0.6614  0.1938
  689MOL0     C94948  10.619   4.533   4.093 -0.7750  0.2403  0.3023
  689MOL0     C94949  10.653   4.513   3.961 -0.2111  0.4760 -0.2671
  689MOL0     C94950  10.744   4.587   3.895 -0.0808  0.0278  0.5024
  689MOL0     C94951  10.816   4.692   3.960 -0.1139 -0.1725 -0.1996
  689MOL0     O94952  10.912   4.763   3.891 -0.0524 -0.3237  0.2262
  689MOL0     C94953  10.989   4.693   3.780 -0.1126  0.3362  0.7638
  689MOL0     C94954  11.135   4.748   3.760 -0.1873  0.1015  0.4804
  689MOL0     C94955  11.215   4.725   3.888 -0.1498  0.1452 -0.8174
  689MOL0     C94956  11.352   4.791   3.874  0.2346  0.5965  1.0579
  689MOL0     C94957  11.430   4.756   4.003 -1.2105 -0.1698 -0.8224
  689MOL0     C94958  11.546   4.846   4.017 -0.0712  0.3315  0.1353
  689MOL0     C94959  11.638   4.824   4.137  0.7935  0.0700  1.4374
  689MOL0     C94960  11.767   4.905   4.153 -0.1718 -0.4210  0.8044
  689MOL0     N94961  11.734   5.047   4.132 -0.2668 -1.3354 -0.1388
  689MOL0     C94962  11.653   5.129   4.211 -0.1019  0.4828  0.2473
  689MOL0     C94963  11.662   5.259   4.172 -0.1679  0.9689  0.9202
  689MOL0     C94964  11.633   5.387   4.258 -0.7579  0.0859 -0.7704
  689MOL0     C94965  11.489   5.430   4.261  0.5983  0.1778  0.0938
  689MOL0     C94966  11.400   5.321   4.340 -0.0905 -0.0836  0.1659
  689MOL0     C94967  11.280   5.382   4.415 -0.2433 -0.1282 -0.3512
  689MOL0     O94968  11.211   5.285   4.497  0.5604  1.0819 -0.0049
  689MOL0     C94969  11.274   5.275   4.621 -0.5991 -0.4263  0.2024
  689MOL0     C94970  11.272   5.376   4.723  0.3580 -0.7794 -0.0900
  689MOL0     C94971  11.323   5.364   4.856  0.1694 -0.6380 -1.4167
  689MOL0     C94972  11.310   5.484   4.949  0.1282 -0.0709 -0.1756
  689MOL0     C94973  11.393   5.245   4.886  0.5325  0.3000 -0.1017
  689MOL0     C94974  11.450   5.209   5.020  0.6403 -0.7702 -0.0857
  689MOL0     O94975  11.547   5.105   5.023 -0.0595  0.6028 -0.2845
  689MOL0     C94976  11.632   5.110   5.135 -0.1175  0.2136  0.6521
  689MOL0     C94977  11.599   5.041   5.245  0.1452 -1.0482 -0.1496
  689MOL0     C94978  11.683   5.046   5.357 -0.7937 -1.0245  0.2385
  689MOL0     C94979  11.804   5.121   5.351 -0.3655  0.5115 -0.1257
  689MOL0     O94980  11.878   5.131   5.459 -0.2053  0.5123 -0.2937
  689MOL0     C94981  11.831   5.212   5.565  0.3842 -0.6633  0.8589
  689MOL0     C94982  11.796   5.120   5.686 -1.0510  0.1857 -0.5780
  689MOL0     C94983  11.759   5.202   5.818  0.3530  0.6664  0.0290
  689MOL0     C94984  11.748   5.110   5.934  0.4266  0.0106 -0.1295
  689MOL0     C94985  11.676   5.192   6.050 -0.3123 -0.6451 -0.9091
  689MOL0     C94986  11.647   5.134   6.192  0.4126  0.0862  0.1571
  689MOL0     C94987  11.764   5.040   6.230 -0.9770 -0.0739  0.3205
  689MOL0     C94988  11.755   4.972   6.373  0.8195  0.5790 -0.1392
  689MOL0    Cl94989  11.728   5.109   6.504  0.3193  0.1875  0.2696
  689MOL0     C94990  11.838   5.188   5.238  0.5446 -0.5026 -0.3372
  689MOL0     C94991  11.745   5.191   5.135 -0.2542 -0.2771 -0.5498
  689MOL0     O94992  11.397   5.262   5.124 -0.1336  0.0516  0.2462
  689MOL0     C94993  11.389   5.143   4.790  0.0156  0.1495  0.5988
  689MOL0     C94994  11.329   5.156   4.661 -0.0336 -0.3386  0.5097
  689MOL0     N94995  11.752   5.253   4.065 -0.6105  0.3029 -0.1632
  689MOL0     N94996  11.783   5.130   4.039 -0.2006  0.0805 -0.5976
  689MOL0     C94997  10.780   4.715   4.093 -0.2975 -0.5285  0.6050
  689MOL0     C94998  10.678   4.644   4.160 -0.5766  0.4286 -0.4649
  689MOL0     C94999  10.439   4.252   4.252 -0.6286 -0.7100 -0.8273
  689MOL0     C95000  10.465   4.153   4.346  0.6268 -0.1075  0.2175
  689MOL0     C95001  10.386   4.041   4.366  0.7285  0.3887 -0.9279
  689MOL0     C95002  10.273   4.020   4.290 -1.0821 -1.6989  0.4739
  689MOL0     O95003  10.181   3.918   4.303 -0.5555  0.0939 -0.3714
  689MOL0     C95004  10.214   3.801   4.384 -0.1336  0.3110 -0.1147
  689MOL0     C95005  10.157   3.669   4.331  0.0856  0.0983 -0.3863
  689MOL0     C95006  10.206   3.657   4.184 -0.5648 -0.1559 -0.0304
  689MOL0     C95007  10.191   3.527   4.119 -1.0527 -0.7673 -0.7538
  689MOL0     C95008  10.057   3.474   4.091 -1.1196  0.3556 -0.6963
  689MOL0     C95009   9.947   3.433   4.050  0.4243  0.0107 -0.8528
  689MOL0     C95010  10.240   4.121   4.189  0.5430  0.3790  0.1373
  689MOL0     C95011  10.315   4.235   4.172 -0.2103 -0.6865  0.0048
  689MOL0     C95012  10.267   4.325   4.062  0.4667  0.7637  0.0602
  689MOL0     H95013  10.594   4.438   3.909 -1.0301  0.5610  0.5211
  689MOL0     H95014  10.758   4.568   3.789 -0.0941  2.5159 -0.0159
  689MOL0     H95015  10.934   4.690   3.685  1.4015  0.4517 -0.1590
  689MOL0     H95016  11.023   4.594   3.811 -1.2311 -0.1259  0.5630
  689MOL0     H95017  11.176   4.702   3.670 -0.1426  1.2464 -0.1044
  689MOL0     H95018  11.147   4.854   3.736  7.1126 -0.0249  1.2312
  689MOL0     H95019  11.166   4.771   3.974  0.7513 -0.3172 -0.0400
  689MOL0     H95020  11.240   4.619   3.892 -0.9891 -0.0920 -1.5275
  689MOL0     H95021  11.400   4.748   3.786 -0.8147  0.5059  0.5147
  689MOL0     H95022  11.356   4.898   3.851  5.3117 -0.2529 -4.3952
  689MOL0     H95023  11.461   4.651   4.012  1.1865  0.6499  2.0885
  689MOL0     H95024  11.364   4.781   4.087 -0.0600  4.2719 -0.9919
  689MOL0     H95025  11.600   4.841   3.922 -0.8302  1.0736 -0.3626
  689MOL0     H95026  11.517   4.951   4.029  2.0611  0.9066  0.6320
  689MOL0     H95027  11.660   4.717   4.146 -2.7360 -0.8267  0.9479
  689MOL0     H95028  11.565   4.847   4.216  0.2501  3.1841  0.1558
  689MOL0     H95029  11.810   4.888   4.252 -1.3837 -1.0215  1.2522
  689MOL0     H95030  11.841   4.880   4.077  0.0719  1.8633  0.2146
  689MOL0     H95031  11.579   5.106   4.286 -3.5408  1.2552 -2.6391
  689MOL0     H95032  11.701   5.467   4.229  0.5392  0.4154  2.6231
  689MOL0     H95033  11.656   5.358   4.361 -1.1644 -0.3859 -0.8079
  689MOL0     H95034  11.491   5.525   4.317 -1.2469  1.2557 -1.5501
  689MOL0     H95035  11.454   5.447   4.159  2.5819  0.4842 -0.5752
  689MOL0     H95036  11.348   5.247   4.278 -2.1149 -0.1590  1.8383
  689MOL0     H95037  11.454   5.266   4.417  1.5634 -0.9052 -1.4936
  689MOL0     H95038  11.321   5.463   4.475  0.9369 -2.3419  2.0690
  689MOL0     H95039  11.211   5.419   4.339  0.9670  0.3264 -1.2608
  689MOL0     H95040  11.207   5.459   4.695 -1.1090 -2.3355 -1.4661
  689MOL0     H95041  11.212   5.475   4.998  0.6633  0.2080  0.9884
  689MOL0     H95042  11.300   5.572   4.885 -0.2036 -0.0263 -0.0679
  689MOL0     H95043  11.388   5.488   5.025 -0.5491  0.2466  0.5236
  689MOL0     H95044  11.505   4.988   5.249  0.8727 -2.3897 -0.0612
  689MOL0     H95045  11.653   4.995   5.448 -0.3875  0.1472  1.0623
  689MOL0     H95046  11.925   5.260   5.594  2.3565 -3.7573 -0.0253
  689MOL0     H95047  11.751   5.282   5.540  1.2020  0.8610  2.2487
  689MOL0     H95048  11.722   5.050   5.647  1.3238 -1.7615 -1.8975
  689MOL0     H95049  11.879   5.054   5.714 -2.4365 -1.0270  0.8634
  689MOL0     H95050  11.662   5.252   5.813 -0.4407 -0.3585  2.9756
  689MOL0     H95051  11.837   5.277   5.839  1.4571  0.4410 -2.8886
  689MOL0     H95052  11.844   5.067   5.966  1.4047  1.5950 -0.8429
  689MOL0     H95053  11.674   5.034   5.908  1.5647 -0.2428 -2.8802
  689MOL0     H95054  11.742   5.279   6.062 -0.3515 -0.2763 -3.0141
  689MOL0     H95055  11.586   5.235   6.007  2.1547  0.7061 -5.2658
  689MOL0     H95056  11.562   5.068   6.173 -1.0309  2.0188 -0.4195
  689MOL0     H95057  11.617   5.205   6.269 -0.9982 -2.0813  1.7181
  689MOL0     H95058  11.846   5.110   6.247 -1.7186  0.7423  0.5836
  689MOL0     H95059  11.791   4.973   6.148 -1.2573 -0.4410  0.5265
  689MOL0     H95060  11.845   4.918   6.404  1.3028  2.0815  1.2063
  689MOL0     H95061  11.681   4.892   6.377  1.8496 -0.4486  4.4891
  689MOL0     H95062  11.933   5.239   5.233 -0.6466  1.7758 -1.3302
  689MOL0     H95063  11.768   5.255   5.051 -0.2607 -0.1472 -0.4536
  689MOL0     H95064  11.434   5.048   4.817  0.6620 -0.4986 -2.3238
  689MOL0     H95065  11.320   5.073   4.591  1.8986 -1.3701  1.3880
  689MOL0     H95066  10.820   4.785   4.165 -3.3843 -0.3210  2.3205
  689MOL0     H95067  10.639   4.667   4.258 -0.1276 -1.1689  0.1220
  689MOL0     H95068  10.543   4.167   4.420 -0.2577 -0.1018  1.1721
  689MOL0     H95069  10.413   3.977   4.449  0.6346  0.8340 -0.5500
  689MOL0     H95070  10.319   3.780   4.406 -0.0875 -0.4091 -0.9272
  689MOL0     H95071  10.185   3.838   4.482 -0.6478 -0.1236 -0.0971
  689MOL0     H95072  10.048   3.670   4.327 -0.0146 -1.1657  1.1987
  689MOL0     H95073  10.189   3.590   4.399 -1.4355  0.6872  1.0856
  689MOL0     H95074  10.174   3.745   4.127  1.2943  1.2822  1.0404
  689MOL0     H95075  10.315   3.656   4.187 -0.5186 -1.3845 -1.1381
  689MOL0     H95076  10.237   3.448   4.179 -0.3281 -0.8243 -1.3622
  689MOL0     H95077  10.250   3.535   4.027 -1.7137  0.9766 -1.0654
  689MOL0     H95078   9.846   3.420   4.018  0.4905  2.1176 -2.0409
  689MOL0     H95079  10.146   4.096   4.141  0.5965 -1.9522  1.0888
  689MOL0     H95080  10.184   4.276   4.009 -0.3711 -0.3795  2.2963
  689MOL0     H95081  10.221   4.413   4.107 -0.6683  0.5403 -0.6222
  689MOL0     H95082  10.334   4.363   3.984 -1.0762  0.4129 -1.4910
  690MOL0     O95083   3.269   1.512   5.994 -0.7916 -0.3325  0.2157
  690MOL0     C95084   3.329   1.582   6.074 -0.3449  0.1288 -0.0271
  690MOL0     O95085   3.458   1.555   6.101 -0.3000  0.0366 -0.5342
  690MOL0     C95086   3.512   1.432   6.065 -0.5847  0.0694  0.7858
  690MOL0     C95087   3.636   1.423   5.984  0.4723  0.5648  0.3607
  690MOL0     C95088   3.685   1.298   5.948  0.0469 -0.0384  0.7262
  690MOL0     C95089   3.628   1.178   5.994  1.0101  0.0407 -0.0365
  690MOL0     O95090   3.683   1.056   5.971  0.3607 -0.1112  0.5977
  690MOL0     C95091   3.663   1.016   5.842  0.5997 -0.4791 -0.7134
  690MOL0     C95092   3.628   0.865   5.865  1.3113  0.6260  0.0006
  690MOL0     C95093   3.740   0.768   5.816 -0.4286 -0.7791 -0.0032
  690MOL0     C95094   3.724   0.752   5.667  0.3076 -0.3307 -0.3208
  690MOL0     C95095   3.830   0.685   5.589  0.3516 -0.2919  0.6376
  690MOL0     C95096   3.833   0.535   5.604  0.1253 -0.5095 -0.5437
  690MOL0     C95097   3.934   0.471   5.500  0.5665  0.4072 -0.5363
  690MOL0     C95098   4.082   0.506   5.542  0.8676  0.2556 -0.1980
  690MOL0     N95099   4.167   0.477   5.429 -0.1068 -0.0466 -0.2364
  690MOL0     C95100   4.182   0.349   5.388 -0.3364  0.0869  0.1354
  690MOL0     C95101   4.229   0.362   5.264 -0.0264  0.0546  0.9321
  690MOL0     C95102   4.276   0.234   5.182  0.8750 -0.5402 -0.0184
  690MOL0     C95103   4.428   0.208   5.186 -0.1230  0.3489  0.0918
  690MOL0     C95104   4.503   0.323   5.115 -0.0328 -0.1514 -0.7518
  690MOL0     C95105   4.656   0.323   5.125  0.5464  0.3644  0.6042
  690MOL0     O95106   4.675   0.351   5.258  1.0356  0.1871 -1.3042
  690MOL0     C95107   4.799   0.376   5.314 -0.2481  0.1333 -0.4610
  690MOL0     C95108   4.812   0.401   5.450 -1.0917  0.3960  0.4583
  690MOL0     C95109   4.935   0.407   5.521 -0.2130  0.0780  0.2252
  690MOL0     C95110   4.926   0.415   5.674  1.1375  0.2358 -0.3094
  690MOL0     C95111   5.049   0.416   5.446 -0.4468 -0.9341 -0.7406
  690MOL0     C95112   5.185   0.431   5.508 -0.3934  0.1604 -0.6404
  690MOL0     O95113   5.285   0.472   5.429  0.3208  0.5374 -0.5892
  690MOL0     C95114   5.403   0.483   5.486 -0.2301  0.4329  0.9802
  690MOL0     C95115   5.467   0.365   5.518 -0.8713  0.2254 -0.6860
  690MOL0     C95116   5.602   0.362   5.557  0.6538 -0.1287 -0.4441
  690MOL0     C95117   5.676   0.478   5.569  0.1528  0.0846 -0.1159
  690MOL0     O95118   5.810   0.470   5.612 -0.0154 -0.3138 -0.1913
  690MOL0     C95119   5.899   0.542   5.530 -1.1956  0.0351  0.3967
  690MOL0     C95120   5.899   0.507   5.380 -0.5891 -0.4589  0.9822
  690MOL0     C95121   5.932   0.353   5.377  1.3200  0.4130  0.6320
  690MOL0     C95122   5.854   0.286   5.256 -0.7128 -0.8048 -0.0049
  690MOL0     C95123   5.884   0.145   5.230  0.0220  0.0067 -0.1102
  690MOL0     C95124   5.852   0.041   5.343  0.3092  0.3538 -0.4449
  690MOL0     C95125   5.712   0.028   5.405  0.0671 -0.1788  0.9133
  690MOL0     C95126   5.600   0.049   5.298  0.5353  0.4704  0.1621
  690MOL0    Cl95127   5.594  -0.098   5.203 -0.0765  0.2974  0.1141
  690MOL0     C95128   5.608   0.601   5.528  0.9567  0.6807 -1.3098
  690MOL0     C95129   5.474   0.605   5.499  0.8470 -0.6430 -0.0618
  690MOL0     O95130   5.201   0.382   5.623 -0.3379  0.0029 -0.6941
  690MOL0     C95131   5.040   0.416   5.313  0.2924  0.0041  0.2439
  690MOL0     C95132   4.923   0.382   5.245  1.0488  0.0767  0.0981
  690MOL0     N95133   4.234   0.498   5.227 -0.4492  0.0134 -0.5146
  690MOL0     N95134   4.196   0.563   5.333  0.0269  0.7628  0.5029
  690MOL0     C95135   3.507   1.183   6.064 -0.5370 -0.2336 -0.7906
  690MOL0     C95136   3.455   1.305   6.098  0.1501 -0.2031  0.3885
  690MOL0     C95137   3.250   1.676   6.151  0.3107 -0.3776  0.4075
  690MOL0     C95138   3.110   1.673   6.137  0.0399  0.5981  0.7974
  690MOL0     C95139   3.028   1.774   6.189 -0.4240  0.3486  0.7749
  690MOL0     C95140   3.085   1.877   6.263 -0.0928 -0.7745  0.3945
  690MOL0     O95141   3.018   1.971   6.331 -0.8550 -0.6805  0.0965
  690MOL0     C95142   2.895   2.024   6.287 -0.5065 -0.0930  0.6390
  690MOL0     C95143   2.885   2.170   6.338  0.6239  0.2130 -0.0073
  690MOL0     C95144   2.957   2.273   6.255 -0.6107  1.1884 -0.0605
  690MOL0     C95145   3.027   2.383   6.332  0.3245 -0.0647  0.4078
  690MOL0     C95146   3.168   2.346   6.360  0.1717  1.1102 -0.7249
  690MOL0     C95147   3.279   2.322   6.381 -0.1868 -0.1811 -0.4731
  690MOL0     C95148   3.223   1.876   6.286  0.3588  1.0412  0.1306
  690MOL0     C95149   3.305   1.772   6.240  0.7488 -0.5380  0.4540
  690MOL0     C95150   3.444   1.781   6.295  0.2092 -0.2961  0.2316
  690MOL0     H95151   3.679   1.516   5.947 -1.1026  1.0044 -0.4371
  690MOL0     H95152   3.773   1.293   5.884  1.4050 -1.7830  2.6284
  690MOL0     H95153   3.752   1.030   5.781  0.8819 -1.4620 -0.5395
  690MOL0     H95154   3.582   1.072   5.794  1.0106 -0.4094 -1.3329
  690MOL0     H95155   3.599   0.847   5.969  0.2147  2.2479  0.0076
  690MOL0     H95156   3.541   0.837   5.805  1.1803 -0.7162  0.7753
  690MOL0     H95157   3.842   0.807   5.819  0.0105 -1.9276  0.6007
  690MOL0     H95158   3.740   0.674   5.871  1.8375 -0.1711  1.1680
  690MOL0     H95159   3.630   0.705   5.639  0.9680 -1.4623 -0.6806
  690MOL0     H95160   3.713   0.853   5.625  1.3002 -0.3965 -0.7725
  690MOL0     H95161   3.929   0.729   5.606 -1.0242  2.5691  2.1540
  690MOL0     H95162   3.806   0.706   5.484  0.6813  2.8349  1.0670
  690MOL0     H95163   3.874   0.518   5.704 -1.8062  3.4123  1.1426
  690MOL0     H95164   3.735   0.489   5.588 -0.7935  2.1019 -3.3149
  690MOL0     H95165   3.917   0.501   5.396 -0.6788  1.1666 -0.1297
  690MOL0     H95166   3.925   0.362   5.503 -0.4674  0.4665  3.6988
  690MOL0     H95167   4.076   0.612   5.567 -2.4468  0.3872 -1.1575
  690MOL0     H95168   4.100   0.449   5.634 -3.1711 -0.6430  0.1937
  690MOL0     H95169   4.162   0.262   5.450  4.8309  0.1565  2.4368
  690MOL0     H95170   4.249   0.253   5.077 -5.1811 -1.2065  1.0337
  690MOL0     H95171   4.221   0.147   5.219  0.0013 -1.2387 -2.7212
  690MOL0     H95172   4.455   0.209   5.292 -0.9023 -2.6187  0.3993
  690MOL0     H95173   4.447   0.109   5.144 -0.8953  1.1033 -2.2227
  690MOL0     H95174   4.487   0.313   5.008 -0.1840 -1.2567 -0.6459
  690MOL0     H95175   4.460   0.416   5.153  0.8970 -1.7719  5.6101
  690MOL0     H95176   4.705   0.229   5.098  1.3198  0.8848  0.1420
  690MOL0     H95177   4.694   0.401   5.058 -0.9249  0.7379  0.1785
  690MOL0     H95178   4.724   0.413   5.512 -0.8679  0.8071  0.6951
  690MOL0     H95179   4.974   0.509   5.702 -2.1705  1.7193  0.7672
  690MOL0     H95180   4.968   0.330   5.729 -2.2950 -1.9434 -0.7480
  690MOL0     H95181   4.821   0.421   5.703  0.0426  0.0623 -3.6915
  690MOL0     H95182   5.413   0.272   5.501 -0.0761 -0.4004  0.0765
  690MOL0     H95183   5.643   0.265   5.581  2.6632  0.6463 -0.5568
  690MOL0     H95184   5.880   0.650   5.536 -0.1334  0.2549 -0.0160
  690MOL0     H95185   6.001   0.522   5.564 -1.4010 -2.8825 -0.4325
  690MOL0     H95186   5.809   0.543   5.330  0.8872  0.0620 -1.4649
  690MOL0     H95187   5.980   0.569   5.340 -1.0607 -0.3821  0.1244
  690MOL0     H95188   5.891   0.304   5.466 -0.0463 -0.5066 -0.4550
  690MOL0     H95189   6.040   0.335   5.366  0.6413 -2.7739 -2.8584
  690MOL0     H95190   5.879   0.337   5.162  0.8922 -3.9786 -1.4470
  690MOL0     H95191   5.746   0.301   5.266 -1.0659 -0.0651 -3.4275
  690MOL0     H95192   5.821   0.114   5.145  1.5495  0.2701 -1.3877
  690MOL0     H95193   5.991   0.136   5.207  0.7373  4.8720  0.2124
  690MOL0     H95194   5.916   0.055   5.430 -0.2559 -1.8300  0.3875
  690MOL0     H95195   5.880  -0.058   5.305  1.0423 -0.3802  1.8501
  690MOL0     H95196   5.696   0.108   5.477  3.0649  1.7785 -0.3967
  690MOL0     H95197   5.716  -0.071   5.452  0.4359 -0.8802 -0.5492
  690MOL0     H95198   5.607   0.143   5.243  1.2907  1.7860  2.4048
  690MOL0     H95199   5.511   0.066   5.359  0.4981 -1.8926  0.9010
  690MOL0     H95200   5.666   0.693   5.534  0.8373  0.6740  2.3356
  690MOL0     H95201   5.414   0.695   5.491 -0.8334 -1.6870  0.2884
  690MOL0     H95202   5.132   0.416   5.255  0.3522  1.7667  0.3081
  690MOL0     H95203   4.920   0.361   5.139  0.4040 -0.7068  0.2659
  690MOL0     H95204   3.454   1.091   6.091 -1.3803 -0.2200 -2.2605
  690MOL0     H95205   3.357   1.300   6.146 -0.8104  0.3807 -1.3892
  690MOL0     H95206   3.061   1.593   6.083  0.6637  0.3997  0.5161
  690MOL0     H95207   2.919   1.771   6.186 -0.4159  0.6605 -1.6607
  690MOL0     H95208   2.874   2.020   6.179  1.5184  2.8971 -0.0077
  690MOL0     H95209   2.826   1.969   6.351  1.2880 -0.5085  2.2994
  690MOL0     H95210   2.915   2.173   6.443 -0.3976 -1.7466  0.3760
  690MOL0     H95211   2.781   2.203   6.336  0.7967  0.8992  1.2585
  690MOL0     H95212   3.025   2.218   6.189  0.1637  1.7158  0.2823
  690MOL0     H95213   2.879   2.322   6.195 -0.1899  0.9804 -0.7926
  690MOL0     H95214   2.966   2.416   6.416  0.5018 -2.7390  1.7102
  690MOL0     H95215   3.037   2.468   6.265  3.3594  0.0353  0.8232
  690MOL0     H95216   3.380   2.291   6.403 -0.0333  0.3343 -0.4295
  690MOL0     H95217   3.261   1.947   6.358  0.8328  1.2591 -0.3191
  690MOL0     H95218   3.479   1.686   6.336  2.3519  1.9702  4.2438
  690MOL0     H95219   3.517   1.818   6.223 -0.5552  1.6908  0.3933
  690MOL0     H95220   3.449   1.848   6.381  0.2369 -0.4240  0.3287
  691MOL0     O95221   3.608   0.249   6.884  0.1745 -0.4864  0.1673
  691MOL0     C95222   3.645   0.352   6.836 -0.3198 -0.7974  0.5084
  691MOL0     O95223   3.749   0.359   6.750  0.6629  0.3893 -0.0278
  691MOL0     C95224   3.814   0.243   6.709  1.3205 -0.3835 -0.1527
  691MOL0     C95225   3.945   0.236   6.734 -0.2579 -0.2664  0.0163
  691MOL0     C95226   4.020   0.128   6.681  0.3141  0.7084  0.7324
  691MOL0     C95227   3.961   0.021   6.615 -0.5346  0.3064  0.4709
  691MOL0     O95228   4.049  -0.085   6.587 -0.0166 -0.2310 -0.7725
  691MOL0     C95229   3.992  -0.192   6.511 -0.3014  0.4418 -0.2348
  691MOL0     C95230   3.967  -0.165   6.364 -0.1902 -0.4306 -0.4243
  691MOL0     C95231   3.943  -0.292   6.289  0.1245  0.6317 -0.1046
  691MOL0     C95232   3.936  -0.260   6.140 -0.4273 -0.3291 -0.3539
  691MOL0     C95233   3.869  -0.375   6.063  0.5456  0.9209 -0.9055
  691MOL0     C95234   3.833  -0.334   5.919  0.4867 -0.9605  0.9295
  691MOL0     C95235   3.946  -0.334   5.822 -0.5350  0.1579  0.0709
  691MOL0     C95236   3.880  -0.334   5.686  0.2524 -0.8063  0.2367
  691MOL0     N95237   3.992  -0.315   5.590  1.3251 -0.4857 -0.2929
  691MOL0     C95238   3.992  -0.376   5.469  0.0177 -0.4240 -0.9353
  691MOL0     C95239   4.104  -0.327   5.408 -0.0329  0.0371  0.4102
  691MOL0     C95240   4.164  -0.354   5.274  0.7399  0.0440 -0.3140
  691MOL0     C95241   4.063  -0.328   5.168 -0.4189 -0.9006  1.3310
  691MOL0     C95242   4.116  -0.304   5.029 -0.5741 -1.0167  0.3386
  691MOL0     C95243   4.180  -0.159   5.008 -0.2061  0.0738  0.2601
  691MOL0     O95244   4.206  -0.138   4.869  0.2531 -0.1951  0.7459
  691MOL0     C95245   4.140  -0.023   4.823 -0.7030 -0.4990 -0.3653
  691MOL0     C95246   4.210   0.098   4.841  0.0960 -0.2001 -0.1035
  691MOL0     C95247   4.159   0.224   4.805 -1.0788 -1.0913 -0.4403
  691MOL0     C95248   4.241   0.350   4.826 -0.6655  1.3026  0.2737
  691MOL0     C95249   4.020   0.224   4.764 -0.5705  0.7016 -0.0207
  691MOL0     C95250   3.945   0.352   4.743  0.1530  0.5678 -0.4651
  691MOL0     O95251   3.809   0.336   4.729  0.7612  0.0460  0.3204
  691MOL0     C95252   3.722   0.443   4.708  0.1214  0.1698 -0.5355
  691MOL0     C95253   3.609   0.444   4.791  0.2617  0.4602  0.4657
  691MOL0     C95254   3.516   0.544   4.778  0.1851  0.6894 -0.7784
  691MOL0     C95255   3.540   0.644   4.686 -0.0554 -0.2816 -0.7042
  691MOL0     O95256   3.455   0.756   4.694 -0.3620  0.4158 -0.0420
  691MOL0     C95257   3.502   0.887   4.653  0.0751 -0.4305  0.1592
  691MOL0     C95258   3.451   0.993   4.748  0.5849  0.2429 -0.4056
  691MOL0     C95259   3.295   0.989   4.752 -0.1889  0.6073 -0.4004
  691MOL0     C95260   3.240   1.105   4.830  0.4197  1.0082  1.2609
  691MOL0     C95261   3.082   1.108   4.831  0.0956 -0.4916  0.1474
  691MOL0     C95262   3.045   1.241   4.905 -0.3123 -0.9443 -0.0706
  691MOL0     C95263   3.019   1.357   4.809 -0.6143  0.7204  0.5464
  691MOL0     C95264   2.877   1.361   4.752  0.1669 -0.0287  0.6987
  691MOL0    Cl95265   2.747   1.363   4.875  0.0685  0.0425  0.4715
  691MOL0     C95266   3.642   0.633   4.587  0.8866  0.8685 -0.0273
  691MOL0     C95267   3.745   0.534   4.603  1.5940 -0.9821  0.8567
  691MOL0     O95268   4.006   0.451   4.728  0.8367  0.3698 -0.1647
  691MOL0     C95269   3.963   0.107   4.728  0.1378  0.5281 -0.4868
  691MOL0     C95270   4.011  -0.018   4.772 -0.6358 -0.6093 -0.5095
  691MOL0     N95271   4.172  -0.250   5.504  0.6769 -0.2850  0.5828
  691MOL0     N95272   4.102  -0.236   5.609 -0.0564  0.3505  0.8463
  691MOL0     C95273   3.820   0.016   6.611 -0.1931 -0.1671 -0.0888
  691MOL0     C95274   3.747   0.133   6.646  0.4403  0.7126 -0.7449
  691MOL0     C95275   3.584   0.491   6.864  0.0337  0.1562  0.0420
  691MOL0     C95276   3.630   0.600   6.789 -0.4955  0.2827 -0.4437
  691MOL0     C95277   3.576   0.729   6.815  0.3025 -0.2476  0.0955
  691MOL0     C95278   3.487   0.748   6.917  0.7693 -0.3925  0.4671
  691MOL0     O95279   3.454   0.879   6.950 -0.2302 -0.3674  0.1422
  691MOL0     C95280   3.355   0.908   7.045 -1.3964  0.2375 -0.7807
  691MOL0     C95281   3.351   1.058   7.055  0.5429 -0.9560  0.0414
  691MOL0     C95282   3.282   1.130   6.937  0.2880  0.2514  0.3073
  691MOL0     C95283   3.131   1.107   6.940  0.0537  0.7486  0.6706
  691MOL0     C95284   3.067   1.158   6.818 -0.0380 -0.3627 -0.5814
  691MOL0     C95285   3.009   1.200   6.720 -0.6885  0.3367  0.9240
  691MOL0     C95286   3.440   0.638   6.983 -0.0066 -0.0024  0.7891
  691MOL0     C95287   3.483   0.508   6.958  0.1361  0.2967 -0.1342
  691MOL0     C95288   3.438   0.401   7.053 -0.2219  0.1842  0.2728
  691MOL0     H95289   3.996   0.307   6.798 -1.8022  0.6205  0.3157
  691MOL0     H95290   4.127   0.116   6.700  0.3638  0.7083  0.4603
  691MOL0     H95291   3.897  -0.231   6.548  0.3306 -1.2237 -0.2816
  691MOL0     H95292   4.069  -0.269   6.521  0.3904  0.9223 -1.5340
  691MOL0     H95293   3.883  -0.096   6.346  1.1301  0.8481 -1.9756
  691MOL0     H95294   4.058  -0.120   6.323  1.0477 -2.6681 -0.2620
  691MOL0     H95295   4.020  -0.366   6.314  0.3851  1.1105  0.5388
  691MOL0     H95296   3.842  -0.315   6.322  0.2747  0.0282 -0.0555
  691MOL0     H95297   3.872  -0.174   6.120  3.6285  3.1778  0.3835
  691MOL0     H95298   4.030  -0.228   6.094  0.2562  0.0978  1.2867
  691MOL0     H95299   3.769  -0.390   6.104 -0.7904  1.7771 -3.5786
  691MOL0     H95300   3.943  -0.456   6.063  0.3533  0.3973 -6.1890
  691MOL0     H95301   3.756  -0.403   5.883 -2.1889  1.0999  2.2982
  691MOL0     H95302   3.782  -0.238   5.913  0.4869 -0.8149  2.5575
  691MOL0     H95303   4.012  -0.420   5.831 -0.3583  0.0274 -2.0040
  691MOL0     H95304   4.010  -0.245   5.829  1.8244 -1.0338 -3.6733
  691MOL0     H95305   3.836  -0.433   5.673 -0.1628 -0.9496  2.3338
  691MOL0     H95306   3.804  -0.258   5.668  1.3773  0.1372 -0.7040
  691MOL0     H95307   3.929  -0.456   5.430  0.7556 -1.0219 -0.9200
  691MOL0     H95308   4.208  -0.454   5.269  1.7182  0.5231 -2.3809
  691MOL0     H95309   4.252  -0.292   5.252 -0.4425  1.8449 -0.2581
  691MOL0     H95310   3.989  -0.409   5.166 -2.4437  0.8729  0.7785
  691MOL0     H95311   4.007  -0.235   5.181 -0.6082 -0.5882 -1.3095
  691MOL0     H95312   4.195  -0.377   5.009 -0.1699 -0.8652  1.3140
  691MOL0     H95313   4.033  -0.306   4.958 -1.2750  3.9813  0.6939
  691MOL0     H95314   4.109  -0.086   5.048  1.6038  0.7513  2.4264
  691MOL0     H95315   4.274  -0.151   5.062 -0.4422  1.3310  0.5024
  691MOL0     H95316   4.309   0.083   4.883  0.5992 -1.1183 -1.5512
  691MOL0     H95317   4.212   0.411   4.912  0.2014  2.4706 -0.2224
  691MOL0     H95318   4.252   0.406   4.732 -0.4522  1.6139  0.4798
  691MOL0     H95319   4.340   0.311   4.853 -0.1444  1.5722 -1.1196
  691MOL0     H95320   3.597   0.368   4.868  5.5754  0.1177  1.3709
  691MOL0     H95321   3.429   0.539   4.843  1.0406 -3.0950  0.3528
  691MOL0     H95322   3.610   0.880   4.667  0.2348  1.5639  0.2357
  691MOL0     H95323   3.468   0.910   4.551  0.2265 -0.9667 -0.0162
  691MOL0     H95324   3.499   0.977   4.844  0.9199 -0.6838 -0.7198
  691MOL0     H95325   3.489   1.092   4.719 -0.2803  0.5137 -0.6423
  691MOL0     H95326   3.263   0.892   4.791  3.7491 -0.9707 -0.5949
  691MOL0     H95327   3.249   0.991   4.652  0.7858  1.0723 -0.8600
  691MOL0     H95328   3.274   1.192   4.773  0.5534 -0.6361 -1.3084
  691MOL0     H95329   3.290   1.097   4.927  2.4563 -5.6790  0.1443
  691MOL0     H95330   3.034   1.109   4.733 -0.0358  0.1148  0.2178
  691MOL0     H95331   3.047   1.012   4.870  1.0945 -0.6438  0.7053
  691MOL0     H95332   3.120   1.268   4.980 -1.1462 -3.1531  1.6966
  691MOL0     H95333   2.954   1.240   4.966 -0.6792  0.9014 -0.5224
  691MOL0     H95334   3.095   1.343   4.732 -1.8796  0.5373 -0.6971
  691MOL0     H95335   3.032   1.453   4.859 -0.2240  1.6813 -1.3212
  691MOL0     H95336   2.859   1.274   4.688 -1.4605  0.8878 -0.1406
  691MOL0     H95337   2.862   1.448   4.687  0.4939 -0.6457 -0.2329
  691MOL0     H95338   3.653   0.707   4.509  1.2912  0.8040 -0.0368
  691MOL0     H95339   3.823   0.537   4.528 -0.7592  0.4631 -1.7345
  691MOL0     H95340   3.861   0.098   4.693  0.7134  1.3850 -2.5592
  691MOL0     H95341   3.949  -0.106   4.762  0.0991 -1.0881 -0.9557
  691MOL0     H95342   3.762  -0.059   6.558 -0.9719  1.4140 -1.5442
  691MOL0     H95343   3.639   0.132   6.637  0.2636 -3.7217 -0.6026
  691MOL0     H95344   3.706   0.591   6.713 -1.1386 -2.1754 -0.8796
  691MOL0     H95345   3.608   0.823   6.772  1.8970  0.2715  2.2715
  691MOL0     H95346   3.264   0.855   7.017 -1.4351  0.0420 -0.3049
  691MOL0     H95347   3.378   0.858   7.140 -2.1988 -1.0931 -1.2511
  691MOL0     H95348   3.451   1.104   7.058  1.3596 -2.6866  0.4090
  691MOL0     H95349   3.297   1.073   7.149  5.2924 -3.2255  3.5463
  691MOL0     H95350   3.305   1.236   6.953 -0.7830  0.2838  1.8873
  691MOL0     H95351   3.334   1.104   6.845  0.6484  2.2921 -0.1331
  691MOL0     H95352   3.098   1.154   7.033  0.2817  1.0882  0.5783
  691MOL0     H95353   3.100   1.002   6.936  2.1461  0.0638  1.3776
  691MOL0     H95354   2.960   1.234   6.631  0.3591 -0.7877 -0.1148
  691MOL0     H95355   3.376   0.641   7.070 -0.0239 -5.0111  1.2512
  691MOL0     H95356   3.363   0.437   7.124  2.1803 -1.5293  3.9870
  691MOL0     H95357   3.390   0.311   7.014  0.4804 -0.9295  1.8570
  691MOL0     H95358   3.519   0.359   7.113  0.2237 -1.5760 -1.4535
  692MOL0     O95359   3.642   0.897   6.506  0.0171  0.0404  0.2811
  692MOL0     C95360   3.561   0.924   6.417  0.0483  0.6183  0.2415
  692MOL0     O95361   3.563   0.874   6.298 -0.0169  0.7611  0.2484
  692MOL0     C95362   3.649   0.761   6.281 -0.0000 -0.2866  0.9382
  692MOL0     C95363   3.617   0.644   6.344 -1.1725 -0.1429  0.4032
  692MOL0     C95364   3.681   0.525   6.316 -0.3731  0.2273  0.3876
  692MOL0     C95365   3.797   0.529   6.240 -0.1972 -0.5151 -0.0584
  692MOL0     O95366   3.875   0.416   6.228  0.6877  0.3525  0.1810
  692MOL0     C95367   3.937   0.376   6.348 -1.0002  0.4534  0.3486
  692MOL0     C95368   3.987   0.232   6.336  0.1057  0.2475 -0.2021
  692MOL0     C95369   4.102   0.207   6.233  1.6620 -0.5315 -0.7932
  692MOL0     C95370   4.034   0.165   6.103 -0.1263  0.8658  0.7091
  692MOL0     C95371   4.141   0.111   6.000 -0.2579 -0.1253  0.7327
  692MOL0     C95372   4.139   0.190   5.863 -0.3016  0.8734 -1.1479
  692MOL0     C95373   4.002   0.186   5.803 -0.1130  0.5552  0.4890
  692MOL0     C95374   3.958   0.056   5.739  0.9860  0.0906 -0.7786
  692MOL0     N95375   3.885   0.072   5.613 -0.7687 -0.1388 -0.4259
  692MOL0     C95376   3.934   0.023   5.500 -0.5644  0.6305 -0.6984
  692MOL0     C95377   3.843   0.048   5.416  0.3050 -1.1163  0.5571
  692MOL0     C95378   3.864   0.022   5.266 -0.8776  0.4067 -0.3051
  692MOL0     C95379   3.893   0.144   5.181  0.7674 -0.4870  0.6978
  692MOL0     C95380   3.778   0.241   5.177  0.2118  0.5545  0.3347
  692MOL0     C95381   3.825   0.367   5.106  0.6810 -0.0335 -0.0946
  692MOL0     O95382   3.716   0.463   5.102 -0.5625 -0.4637 -0.4910
  692MOL0     C95383   3.753   0.590   5.074 -0.0576 -0.9203  0.3031
  692MOL0     C95384   3.874   0.619   5.006 -0.6329  0.2668 -0.9407
  692MOL0     C95385   3.925   0.743   4.970  0.6271 -0.7619 -0.5696
  692MOL0     C95386   4.071   0.752   4.918 -0.3784  0.5698  0.2765
  692MOL0     C95387   3.841   0.854   5.005 -0.2430  0.5612 -0.5193
  692MOL0     C95388   3.885   0.998   4.976  0.2945 -0.3783 -0.2865
  692MOL0     O95389   3.872   1.088   5.076 -0.4441  0.3388  0.0320
  692MOL0     C95390   3.884   1.226   5.061 -0.0742 -0.7747  0.2185
  692MOL0     C95391   3.794   1.282   4.976  0.4035 -0.3609  0.9407
  692MOL0     C95392   3.809   1.419   4.938 -0.7358  0.4365 -0.3130
  692MOL0     C95393   3.913   1.498   4.996 -0.0633  0.4853  0.5011
  692MOL0     O95394   3.931   1.631   4.983 -0.1303  0.1103 -0.2461
  692MOL0     C95395   3.866   1.695   4.879  0.1786 -0.4589  0.2985
  692MOL0     C95396   3.936   1.826   4.838  0.5781  0.5381 -0.4612
  692MOL0     C95397   3.834   1.925   4.780  0.0465  0.7606  0.1324
  692MOL0     C95398   3.895   2.063   4.750 -0.8804  0.3434 -0.4897
  692MOL0     C95399   3.794   2.150   4.675  0.1217 -0.0478  0.8482
  692MOL0     C95400   3.841   2.292   4.665 -0.1257 -0.3436  0.2585
  692MOL0     C95401   3.726   2.390   4.657 -0.3785  0.1592 -0.7127
  692MOL0     C95402   3.688   2.407   4.507  0.2561 -0.2927 -0.8453
  692MOL0    Cl95403   3.531   2.470   4.475  0.1782 -0.2330 -0.3541
  692MOL0     C95404   3.993   1.434   5.093  1.2071  0.2527  0.1784
  692MOL0     C95405   3.987   1.294   5.116  0.2328  0.8587 -0.2935
  692MOL0     O95406   3.928   1.020   4.863  0.4049 -0.7796  0.0236
  692MOL0     C95407   3.718   0.833   5.068 -0.1934 -1.2595  0.0330
  692MOL0     C95408   3.671   0.704   5.092 -0.4284  0.4550  1.1020
  692MOL0     N95409   3.735   0.112   5.472  0.6312  0.9605  0.2346
  692MOL0     N95410   3.770   0.139   5.595  0.2880 -0.4221  0.5200
  692MOL0     C95411   3.836   0.647   6.169  0.2943 -0.6277  0.9391
  692MOL0     C95412   3.756   0.755   6.183  0.0402  1.0809 -0.3939
  692MOL0     C95413   3.466   1.037   6.445 -0.1020 -0.3762 -0.3295
  692MOL0     C95414   3.353   1.055   6.356  0.2335  0.1963  0.1116
  692MOL0     C95415   3.258   1.145   6.381 -0.1237  0.1220 -0.7195
  692MOL0     C95416   3.280   1.238   6.489  0.1935  0.3310  0.1494
  692MOL0     O95417   3.186   1.333   6.509  0.1184  0.1322 -0.0884
  692MOL0     C95418   3.223   1.463   6.463 -0.3568 -0.3956 -0.7313
  692MOL0     C95419   3.185   1.560   6.581  0.2700  0.2488 -0.4634
  692MOL0     C95420   3.022   1.560   6.598  0.1368  0.5969  0.1996
  692MOL0     C95421   2.962   1.646   6.706 -0.6667  0.4459 -0.0711
  692MOL0     C95422   2.994   1.791   6.679  1.3472  0.6855  0.9561
  692MOL0     C95423   3.020   1.911   6.659 -0.6330 -0.3270 -0.1939
  692MOL0     C95424   3.389   1.227   6.570 -0.5816  0.4606  0.4647
  692MOL0     C95425   3.481   1.118   6.564 -0.4914  0.4785 -0.5188
  692MOL0     C95426   3.607   1.113   6.661 -0.1126  1.0742  0.5588
  692MOL0     H95427   3.550   0.647   6.430  2.6502 -2.1311  3.7966
  692MOL0     H95428   3.647   0.431   6.357 -1.2353 -0.6953 -2.2970
  692MOL0     H95429   3.861   0.370   6.426 -0.4831  1.2640  0.9230
  692MOL0     H95430   4.015   0.448   6.372  3.6043 -3.1165 -2.2676
  692MOL0     H95431   4.029   0.212   6.435 -1.3511  1.6149  0.7476
  692MOL0     H95432   3.899   0.169   6.321  1.0899 -1.4049  0.6143
  692MOL0     H95433   4.160   0.300   6.231 -0.3941  0.8299 -2.1903
  692MOL0     H95434   4.159   0.122   6.269  0.5128 -0.0474  2.5433
  692MOL0     H95435   3.955   0.093   6.128  0.6609  0.6288  2.7261
  692MOL0     H95436   3.986   0.261   6.082  1.8439  2.4006  2.7024
  692MOL0     H95437   4.136   0.004   5.978 -3.1287  0.0188  0.2975
  692MOL0     H95438   4.235   0.124   6.054 -0.5801 -0.5064  1.3986
  692MOL0     H95439   4.162   0.295   5.882  1.1379  0.4979 -0.6799
  692MOL0     H95440   4.212   0.155   5.790  0.5234 -1.3052  0.6106
  692MOL0     H95441   4.005   0.259   5.722 -0.4567  0.1530  0.1121
  692MOL0     H95442   3.925   0.217   5.875 -2.2883  0.8084 -1.7971
  692MOL0     H95443   4.042  -0.011   5.720  1.0777  0.8444 -3.3768
  692MOL0     H95444   3.895  -0.013   5.796  1.6557 -0.4333 -0.6652
  692MOL0     H95445   4.035  -0.012   5.478 -1.1553 -0.6795 -1.4225
  692MOL0     H95446   3.772  -0.023   5.228 -0.5469  0.6681 -1.4302
  692MOL0     H95447   3.954  -0.040   5.259 -0.4150  0.7924  1.6298
  692MOL0     H95448   3.978   0.198   5.225  1.4824 -0.9527 -0.0731
  692MOL0     H95449   3.927   0.107   5.084 -0.9954 -4.2005  1.3521
  692MOL0     H95450   3.693   0.199   5.122  0.6868  1.4167 -1.1130
  692MOL0     H95451   3.743   0.267   5.277 -0.0378  0.1514  0.3518
  692MOL0     H95452   3.909   0.416   5.156  0.3453 -0.6158  1.0843
  692MOL0     H95453   3.864   0.337   5.009  0.6679 -4.2718  1.0090
  692MOL0     H95454   3.943   0.543   4.972 -0.1004 -0.5126  1.6413
  692MOL0     H95455   4.089   0.699   4.825 -3.2463  3.3370 -2.0741
  692MOL0     H95456   4.145   0.715   4.990 -1.0668 -1.5098 -0.0393
  692MOL0     H95457   4.112   0.853   4.910 -0.4554  0.6793  1.0900
  692MOL0     H95458   3.715   1.225   4.928  0.0367  0.9672 -0.1034
  692MOL0     H95459   3.747   1.457   4.858 -1.6005  0.2656  0.2679
  692MOL0     H95460   3.872   1.632   4.790  0.2797 -2.1054  1.4361
  692MOL0     H95461   3.761   1.709   4.907  0.7194  3.2996  0.9673
  692MOL0     H95462   3.982   1.878   4.923  0.0263  2.5006 -1.3070
  692MOL0     H95463   4.018   1.803   4.769  0.9334 -2.9651  0.9021
  692MOL0     H95464   3.750   1.939   4.849 -0.0851 -0.6827  0.2891
  692MOL0     H95465   3.792   1.890   4.685 -0.4506 -0.3247  0.7403
  692MOL0     H95466   3.990   2.057   4.696  1.0196 -1.5315  2.7366
  692MOL0     H95467   3.925   2.117   4.840 -0.7170  1.4547 -1.1981
  692MOL0     H95468   3.778   2.103   4.578 -2.9505 -3.1000  2.6220
  692MOL0     H95469   3.698   2.147   4.728 -1.7430  1.0817 -2.1798
  692MOL0     H95470   3.912   2.305   4.583  1.7237  1.1451  1.9647
  692MOL0     H95471   3.896   2.307   4.759  0.5577 -0.8027 -0.0591
  692MOL0     H95472   3.757   2.485   4.703  1.6672 -1.2061  0.9375
  692MOL0     H95473   3.641   2.359   4.719 -0.7787  1.0857 -0.7772
  692MOL0     H95474   3.690   2.310   4.457  1.2443  0.5869 -2.6158
  692MOL0     H95475   3.763   2.474   4.462  1.7779 -3.3097 -3.1188
  692MOL0     H95476   4.062   1.495   5.151  0.1075 -0.2439  2.0763
  692MOL0     H95477   4.049   1.239   5.186  2.4341 -0.7796 -3.2863
  692MOL0     H95478   3.654   0.916   5.096  1.3151 -0.1566  0.3552
  692MOL0     H95479   3.569   0.687   5.126 -0.7136  0.6906  0.3862
  692MOL0     H95480   3.918   0.651   6.099  0.0447 -0.2998  0.6614
  692MOL0     H95481   3.771   0.839   6.115 -1.4863  0.1039 -2.0380
  692MOL0     H95482   3.343   0.999   6.264 -2.2910  1.1373 -0.2631
  692MOL0     H95483   3.167   1.134   6.322 -0.1203 -1.4758 -0.4744
  692MOL0     H95484   3.330   1.471   6.443 -0.4809  2.0151 -0.8003
  692MOL0     H95485   3.166   1.484   6.372 -2.1349 -0.5316  0.2976
  692MOL0     H95486   3.228   1.658   6.558  0.4663  0.0863 -0.8049
  692MOL0     H95487   3.217   1.528   6.680 -1.8098 -0.6126 -0.0331
  692MOL0     H95488   2.981   1.594   6.502 -2.1520  1.5395  1.4408
  692MOL0     H95489   2.979   1.459   6.603  1.8056 -0.3163 -1.9391
  692MOL0     H95490   3.008   1.623   6.802 -1.1035  0.9539  0.2631
  692MOL0     H95491   2.855   1.624   6.713 -0.8777  1.1157 -0.9849
  692MOL0     H95492   3.031   2.015   6.633 -1.8094  0.1573  1.1570
  692MOL0     H95493   3.398   1.311   6.638  2.2360 -0.1093  0.8850
  692MOL0     H95494   3.606   1.199   6.728 -2.1802  3.1055 -1.8987
  692MOL0     H95495   3.595   1.024   6.724  2.3793  0.6407  0.5248
  692MOL0     H95496   3.700   1.106   6.604  1.2040 -2.0932  2.7805
  693MOL0     O95497   1.282   3.452   5.994  0.2297  0.1072  0.2342
  693MOL0     C95498   1.354   3.503   6.078 -0.4361 -0.3963 -0.7783
  693MOL0     O95499   1.411   3.625   6.069 -0.9152 -0.4172  0.6245
  693MOL0     C95500   1.417   3.692   5.943 -0.0798  0.3416 -0.1880
  693MOL0     C95501   1.445   3.634   5.821 -0.0857 -0.0390  0.1580
  693MOL0     C95502   1.477   3.709   5.707  0.2828 -0.4692 -0.3175
  693MOL0     C95503   1.467   3.846   5.711  1.1106  0.2929  0.2395
  693MOL0     O95504   1.509   3.927   5.608 -0.5749  0.0169  0.1580
  693MOL0     C95505   1.478   3.883   5.479  0.3573  0.7773  1.1777
  693MOL0     C95506   1.461   4.008   5.389 -0.4411 -0.3095 -0.2601
  693MOL0     C95507   1.316   4.060   5.392  0.5509  0.0347 -0.1668
  693MOL0     C95508   1.297   4.146   5.506  0.0038 -0.4417 -0.0706
  693MOL0     C95509   1.156   4.202   5.512  0.4348 -0.2788 -0.0509
  693MOL0     C95510   1.119   4.269   5.654 -0.4394  0.4520 -0.8375
  693MOL0     C95511   1.142   4.181   5.785 -0.2870 -0.6659  0.3949
  693MOL0     C95512   1.070   4.043   5.776  0.5249 -0.7857  0.4191
  693MOL0     N95513   0.926   4.051   5.809 -0.1022 -0.4829 -0.4019
  693MOL0     C95514   0.876   4.060   5.935  0.2673 -0.6270  0.1875
  693MOL0     C95515   0.741   4.085   5.935  0.0265  0.1526 -0.9712
  693MOL0     C95516   0.643   4.114   6.042  0.3285 -0.4433  0.3308
  693MOL0     C95517   0.673   4.250   6.111  1.3370  0.1011  0.6681
  693MOL0     C95518   0.794   4.253   6.198 -0.4481  1.2134  1.2071
  693MOL0     C95519   0.801   4.374   6.284 -0.7140  0.0816 -0.5245
  693MOL0     O95520   0.785   4.492   6.205  0.1421  0.9327 -0.4600
  693MOL0     C95521   0.829   4.604   6.252 -0.0369  0.5995  0.2542
  693MOL0     C95522   0.858   4.693   6.153  0.9176 -0.3218  0.1766
  693MOL0     C95523   0.938   4.811   6.176  0.6711  0.4924  0.1507
  693MOL0     C95524   0.975   4.885   6.058 -0.5567 -0.7195 -0.1023
  693MOL0     C95525   0.975   4.839   6.313  0.7160  0.1849 -0.0903
  693MOL0     C95526   1.055   4.960   6.360  0.6526 -0.1312  1.6905
  693MOL0     O95527   1.101   4.946   6.490 -0.4563 -0.9002  0.6542
  693MOL0     C95528   1.157   5.042   6.567  0.0562  0.5140 -0.0423
  693MOL0     C95529   1.126   5.023   6.705 -0.1690 -0.3353 -0.4651
  693MOL0     C95530   1.160   5.124   6.796 -0.3520 -0.9641 -0.1696
  693MOL0     C95531   1.234   5.227   6.751 -0.6298  0.0139 -0.8564
  693MOL0     O95532   1.279   5.313   6.847  0.2913  0.1379  0.2325
  693MOL0     C95533   1.407   5.273   6.900  0.4147 -0.3311 -0.0231
  693MOL0     C95534   1.434   5.356   7.027  0.3130  0.8621 -0.8032
  693MOL0     C95535   1.471   5.505   7.001 -0.4810  0.2047 -0.2554
  693MOL0     C95536   1.540   5.579   7.118 -0.6491 -0.6884 -0.1311
  693MOL0     C95537   1.564   5.726   7.092  0.8987  0.6642 -0.5154
  693MOL0     C95538   1.444   5.813   7.047  0.1952 -0.0194  0.1132
  693MOL0     C95539   1.329   5.839   7.153  0.3919  0.5377 -0.4060
  693MOL0     C95540   1.191   5.837   7.096  0.6190  0.8424  0.2156
  693MOL0    Cl95541   1.058   5.875   7.208 -0.2626 -0.2851 -0.1314
  693MOL0     C95542   1.285   5.235   6.624  0.3195  0.0995  0.1792
  693MOL0     C95543   1.239   5.146   6.524 -1.1840  0.7643 -0.3414
  693MOL0     O95544   1.066   5.060   6.281 -0.3973 -0.1107  0.5398
  693MOL0     C95545   0.951   4.743   6.418  0.1343 -0.2763 -0.1795
  693MOL0     C95546   0.877   4.625   6.385 -0.2229 -0.5283  0.4837
  693MOL0     N95547   0.711   4.087   5.804  0.3491  0.1832  0.0963
  693MOL0     N95548   0.816   4.064   5.728  0.2955 -0.9767 -1.1285
  693MOL0     C95549   1.428   3.903   5.829  0.5976  0.6217  0.2114
  693MOL0     C95550   1.417   3.832   5.947 -0.6606  0.2724  0.2931
  693MOL0     C95551   1.403   3.426   6.195 -0.4850 -0.4654 -0.3075
  693MOL0     C95552   1.505   3.487   6.278 -0.7722  0.1708  1.2887
  693MOL0     C95553   1.548   3.427   6.396 -0.2542 -0.7740 -0.2570
  693MOL0     C95554   1.512   3.302   6.425 -0.0815  0.6063 -0.3960
  693MOL0     O95555   1.564   3.238   6.534  0.0308 -0.0132 -0.3978
  693MOL0     C95556   1.490   3.126   6.585 -0.3621  0.3694  0.3410
  693MOL0     C95557   1.545   3.087   6.725  0.7932 -0.7375  0.7790
  693MOL0     C95558   1.702   3.065   6.719  0.4106  0.7495  1.1225
  693MOL0     C95559   1.751   2.997   6.847 -0.0664  0.2597  0.6415
  693MOL0     C95560   1.903   2.975   6.828 -0.2292  0.7171 -0.1733
  693MOL0     C95561   2.022   2.961   6.826  0.0965  0.5858  0.5854
  693MOL0     C95562   1.414   3.244   6.340  0.1757  0.7753 -0.1970
  693MOL0     C95563   1.358   3.305   6.229  0.4621  1.1584  0.2757
  693MOL0     C95564   1.263   3.215   6.149 -0.0182 -0.6648  0.7937
  693MOL0     H95565   1.456   3.526   5.818 -1.5821 -0.2497  1.1759
  693MOL0     H95566   1.521   3.662   5.620  0.7587 -0.2284 -0.2112
  693MOL0     H95567   1.385   3.827   5.465  0.1161  1.3035  0.6444
  693MOL0     H95568   1.558   3.832   5.424 -0.9174  2.9817 -3.2467
  693MOL0     H95569   1.541   4.076   5.420 -0.8149 -1.2755  3.3532
  693MOL0     H95570   1.484   3.983   5.285 -2.5320 -1.6223 -0.4793
  693MOL0     H95571   1.288   4.115   5.302  0.3278 -1.9969 -1.3967
  693MOL0     H95572   1.248   3.978   5.415 -0.2011  1.3445  2.6467
  693MOL0     H95573   1.315   4.088   5.597  1.8131  2.3282  1.4365
  693MOL0     H95574   1.372   4.225   5.511 -1.9251  1.5066 -0.2316
  693MOL0     H95575   1.079   4.126   5.496 -1.2252  1.2159  0.5265
  693MOL0     H95576   1.144   4.279   5.436 -0.3253 -1.7288 -1.4741
  693MOL0     H95577   1.179   4.358   5.678  3.1778 -1.7305 -1.0083
  693MOL0     H95578   1.015   4.301   5.641  0.0117  2.7496  0.5164
  693MOL0     H95579   1.125   4.230   5.881  0.2643 -0.5354  0.4262
  693MOL0     H95580   1.247   4.150   5.790  0.0668  0.6291  2.6621
  693MOL0     H95581   1.084   3.987   5.683 -0.9681 -0.7045  0.1103
  693MOL0     H95582   1.115   3.971   5.844 -2.3092 -2.1972  0.9395
  693MOL0     H95583   0.938   4.045   6.022 -2.0785 -0.5504  1.9630
  693MOL0     H95584   0.642   4.034   6.116  1.1046 -0.7361  0.0316
  693MOL0     H95585   0.555   4.130   5.979  1.4870  2.6745 -0.6847
  693MOL0     H95586   0.691   4.322   6.031 -0.1176 -2.6498 -2.3351
  693MOL0     H95587   0.583   4.278   6.168  3.2153  0.2174  3.8404
  693MOL0     H95588   0.801   4.164   6.262 -1.3918 -0.3706 -0.7721
  693MOL0     H95589   0.887   4.247   6.142  0.0531 -0.8987  2.1515
  693MOL0     H95590   0.724   4.356   6.359 -0.4640  0.0443 -0.2737
  693MOL0     H95591   0.897   4.376   6.337 -0.9919  2.7829  0.0001
  693MOL0     H95592   0.834   4.656   6.054 -1.0748 -1.2244  0.9519
  693MOL0     H95593   1.084   4.879   6.051 -0.3630  1.8345 -0.4488
  693MOL0     H95594   0.954   4.990   6.083  0.0529 -0.5502 -0.2605
  693MOL0     H95595   0.924   4.838   5.974 -0.3657 -1.0150 -0.0563
  693MOL0     H95596   1.058   4.941   6.727  1.7733 -1.7185  0.6802
  693MOL0     H95597   1.141   5.110   6.902  0.6581  2.0949  0.5403
  693MOL0     H95598   1.411   5.169   6.932  3.3644  0.1546  1.5392
  693MOL0     H95599   1.487   5.289   6.827  0.0424  0.8005 -0.2043
  693MOL0     H95600   1.344   5.352   7.088 -1.5684 -2.1663 -3.4443
  693MOL0     H95601   1.518   5.303   7.075  0.9340 -0.0387 -2.7544
  693MOL0     H95602   1.381   5.555   6.967 -1.6921 -0.6262  1.5503
  693MOL0     H95603   1.549   5.511   6.924  1.8775 -1.3870  1.8157
  693MOL0     H95604   1.622   5.525   7.167 -0.7279  0.9852  2.0120
  693MOL0     H95605   1.459   5.583   7.191 -0.8160  3.2379 -0.3179
  693MOL0     H95606   1.600   5.775   7.184  0.6668 -1.0539  0.5266
  693MOL0     H95607   1.646   5.729   7.021  0.9383  0.7901 -0.4659
  693MOL0     H95608   1.389   5.768   6.964 -0.3717 -0.7971  0.8919
  693MOL0     H95609   1.501   5.902   7.019 -1.3596  1.7706  2.2793
  693MOL0     H95610   1.342   5.934   7.206 -1.4052  1.2757 -1.2010
  693MOL0     H95611   1.344   5.764   7.231  2.2370  0.0410 -1.1816
  693MOL0     H95612   1.173   5.736   7.058  0.3886  0.7839  0.4775
  693MOL0     H95613   1.179   5.899   7.006 -1.0128 -0.1106 -0.2677
  693MOL0     H95614   1.363   5.307   6.604 -1.7245  3.0758  2.0566
  693MOL0     H95615   1.277   5.153   6.423 -2.2150 -1.3225 -0.9356
  693MOL0     H95616   0.982   4.738   6.522 -1.3708 -0.0164  0.3086
  693MOL0     H95617   0.864   4.548   6.461  2.4259 -1.8943 -0.3147
  693MOL0     H95618   1.411   4.010   5.828 -1.2911  0.3731  0.6492
  693MOL0     H95619   1.385   3.878   6.040 -1.1057  0.1638  0.1965
  693MOL0     H95620   1.537   3.587   6.251 -1.3353 -0.2411 -1.1525
  693MOL0     H95621   1.618   3.481   6.458 -2.1369  0.6603  0.6961
  693MOL0     H95622   1.383   3.148   6.592 -0.2370  0.7777  1.0397
  693MOL0     H95623   1.505   3.032   6.531 -0.3292 -1.9580  3.9967
  693MOL0     H95624   1.494   2.993   6.748 -1.9340  0.3297 -0.4836
  693MOL0     H95625   1.517   3.157   6.804 -1.5545 -1.0068  0.2355
  693MOL0     H95626   1.729   3.016   6.624  1.8295  2.7468  0.4375
  693MOL0     H95627   1.757   3.159   6.709  1.5550 -0.0954 -1.8144
  693MOL0     H95628   1.717   2.897   6.874  1.2436  0.0600  1.6884
  693MOL0     H95629   1.734   3.061   6.934  1.1296  0.8452  0.4768
  693MOL0     H95630   2.128   2.962   6.819  0.1608 -2.0660 -0.0353
  693MOL0     H95631   1.374   3.146   6.364  0.3543  0.4791 -1.0566
  693MOL0     H95632   1.311   3.204   6.052  1.8081  2.5758  1.1818
  693MOL0     H95633   1.246   3.118   6.196 -0.9099 -1.6247 -1.3816
  693MOL0     H95634   1.172   3.269   6.123  0.3048 -0.2560  0.4861
  694MOL0     O95635   0.025   8.891   6.231 -0.3188  0.2894 -0.3432
  694MOL0     C95636  -0.089   8.873   6.255 -0.4757 -0.6173 -0.3037
  694MOL0     O95637  -0.156   8.927   6.365  0.4963 -0.8435  0.7217
  694MOL0     C95638  -0.087   9.024   6.436  0.4095 -0.2971  0.3823
  694MOL0     C95639  -0.038   9.139   6.367 -0.4225  0.3855 -0.3762
  694MOL0     C95640   0.034   9.236   6.441 -0.2880  0.5198  0.8048
  694MOL0     C95641   0.049   9.221   6.580  0.5849  0.2338 -0.1843
  694MOL0     O95642   0.098   9.317   6.666 -0.2071 -0.2045  0.3933
  694MOL0     C95643   0.135   9.434   6.616 -0.5052  0.4966 -0.3324
  694MOL0     C95644   0.291   9.421   6.600  0.3078  0.1769  0.8497
  694MOL0     C95645   0.375   9.360   6.712  0.4425  0.1096  0.3073
  694MOL0     C95646   0.522   9.375   6.690 -0.4709  0.2749 -0.1896
  694MOL0     C95647   0.590   9.314   6.814  0.6616 -0.6386 -0.1964
  694MOL0     C95648   0.730   9.369   6.803  0.7969 -0.1988 -0.2631
  694MOL0     C95649   0.838   9.304   6.893 -0.2324 -0.2563 -0.2055
  694MOL0     C95650   0.978   9.367   6.863 -0.2806 -0.2991  0.0936
  694MOL0     N95651   0.974   9.511   6.854 -0.5178 -0.3148  0.2254
  694MOL0     C95652   0.969   9.616   6.942  0.6827 -0.1347  0.3319
  694MOL0     C95653   0.975   9.728   6.867 -0.3435  0.0362 -0.0042
  694MOL0     C95654   0.990   9.868   6.925 -0.3695 -0.3398  0.0611
  694MOL0     C95655   1.106   9.904   7.033  0.0599 -0.7933  1.2790
  694MOL0     C95656   1.249   9.840   7.022  0.9316 -0.6383 -0.0873
  694MOL0     C95657   1.312   9.887   6.887  0.2629  0.1293 -0.0458
  694MOL0     O95658   1.423   9.810   6.851 -1.1994  0.4055 -0.2558
  694MOL0     C95659   1.408   9.671   6.846 -0.0432 -1.1933 -0.4975
  694MOL0     C95660   1.432   9.603   6.969 -0.1341 -0.4167 -0.2639
  694MOL0     C95661   1.416   9.472   6.976 -0.6940  0.2720  0.2923
  694MOL0     C95662   1.437   9.401   7.107 -0.1365  0.3918 -0.9625
  694MOL0     C95663   1.385   9.399   6.856 -0.1903  0.4722  0.6351
  694MOL0     C95664   1.363   9.255   6.856 -0.0358 -0.0996  0.1289
  694MOL0     O95665   1.395   9.183   6.968 -0.6942  1.3454  0.2887
  694MOL0     C95666   1.420   9.048   6.960  0.3577  0.1582  0.0304
  694MOL0     C95667   1.543   9.004   6.998 -0.8096  0.1590 -0.3455
  694MOL0     C95668   1.567   8.872   7.017 -0.4738  0.0477 -0.2016
  694MOL0     C95669   1.481   8.782   6.965  0.3511 -0.8320 -0.4697
  694MOL0     O95670   1.493   8.646   6.980  0.2133 -0.9597  0.1366
  694MOL0     C95671   1.627   8.593   6.953 -0.4368  0.1948  0.2385
  694MOL0     C95672   1.627   8.440   6.952  0.6959 -0.8622 -0.3350
  694MOL0     C95673   1.574   8.375   7.083  0.8941  0.3589 -0.0232
  694MOL0     C95674   1.593   8.219   7.086  0.5560 -0.9121  1.2734
  694MOL0     C95675   1.547   8.149   7.217  0.8787 -0.4728 -0.0127
  694MOL0     C95676   1.551   7.996   7.221 -0.6246  0.2005  0.7327
  694MOL0     C95677   1.698   7.949   7.247  1.5660 -0.7770  0.1462
  694MOL0     C95678   1.704   7.796   7.239  0.3841  0.0562  0.4719
  694MOL0    Cl95679   1.626   7.713   7.378  0.9331 -0.1926 -0.3355
  694MOL0     C95680   1.364   8.827   6.905 -0.1820  0.1825 -0.4068
  694MOL0     C95681   1.333   8.963   6.895  0.3795 -0.0448 -0.2134
  694MOL0     O95682   1.346   9.210   6.743 -0.0862  0.7914 -0.4126
  694MOL0     C95683   1.350   9.468   6.737  0.9813  1.1489  0.1024
  694MOL0     C95684   1.358   9.605   6.741 -0.6215  0.5400 -0.0975
  694MOL0     N95685   0.993   9.695   6.737  0.0710 -1.0641  0.7289
  694MOL0     N95686   0.985   9.570   6.729  0.1225 -0.0213  0.0654
  694MOL0     C95687  -0.003   9.113   6.634 -0.8249  0.4998  0.0780
  694MOL0     C95688  -0.064   9.005   6.569 -0.1748 -0.1294 -0.2583
  694MOL0     C95689  -0.164   8.766   6.175  0.4435  0.0998  0.1132
  694MOL0     C95690  -0.308   8.757   6.192 -0.3382  0.5300  0.3041
  694MOL0     C95691  -0.387   8.678   6.108 -0.0091  0.2168  0.5115
  694MOL0     C95692  -0.327   8.588   6.019 -0.9806 -0.5388 -0.1045
  694MOL0     O95693  -0.404   8.528   5.919 -0.1077 -0.6686 -0.5479
  694MOL0     C95694  -0.519   8.456   5.974 -0.6874  0.4247 -0.2540
  694MOL0     C95695  -0.563   8.349   5.883 -1.0511  0.3963  0.1005
  694MOL0     C95696  -0.617   8.391   5.749 -1.4647  0.0318  0.0447
  694MOL0     C95697  -0.655   8.273   5.662  0.5868  0.1220  0.3800
  694MOL0     C95698  -0.674   8.321   5.522  0.4938  0.1503  0.6819
  694MOL0     C95699  -0.677   8.374   5.413 -0.1847  1.0422  0.5988
  694MOL0     C95700  -0.184   8.584   6.008 -0.2582  0.5683  0.3304
  694MOL0     C95701  -0.101   8.673   6.077  0.1413  0.2859 -0.1998
  694MOL0     C95702   0.045   8.657   6.061  0.4543 -0.4591 -0.0890
  694MOL0     H95703  -0.061   9.159   6.263 -0.7607 -2.5234 -0.9466
  694MOL0     H95704   0.084   9.314   6.385 -0.2976  3.6912  4.6684
  694MOL0     H95705   0.124   9.498   6.704  2.3884  1.3733 -0.5218
  694MOL0     H95706   0.077   9.475   6.533 -1.2775 -1.7337 -0.9530
  694MOL0     H95707   0.317   9.368   6.508  0.3184 -1.3456  1.6914
  694MOL0     H95708   0.327   9.520   6.569 -1.3681  0.1763 -1.3908
  694MOL0     H95709   0.352   9.411   6.806  1.4184 -0.7999  1.0672
  694MOL0     H95710   0.344   9.256   6.730 -2.0035  0.9121  1.2097
  694MOL0     H95711   0.553   9.323   6.599  0.3899  1.7494 -0.7773
  694MOL0     H95712   0.557   9.478   6.674  1.6224 -0.5557 -1.2755
  694MOL0     H95713   0.581   9.205   6.804  0.2064 -0.4375 -2.7884
  694MOL0     H95714   0.548   9.347   6.909 -1.6214  2.5751 -2.1427
  694MOL0     H95715   0.769   9.347   6.703  2.2815 -0.7648  0.4006
  694MOL0     H95716   0.726   9.475   6.829 -1.1968 -0.4827  0.7781
  694MOL0     H95717   0.839   9.194   6.896  1.6520 -0.2527  1.4403
  694MOL0     H95718   0.824   9.322   7.000 -1.5528  1.2246 -0.5966
  694MOL0     H95719   1.049   9.336   6.940 -2.6384  0.3390  2.6838
  694MOL0     H95720   1.014   9.324   6.769  0.0889 -0.0169  0.1048
  694MOL0     H95721   0.979   9.600   7.049 -0.0933  0.8796  0.5670
  694MOL0     H95722   0.894   9.882   6.975  0.1716 -0.6961  1.2431
  694MOL0     H95723   0.998   9.936   6.840  1.8239 -0.7397 -0.1189
  694MOL0     H95724   1.118  10.012   7.039 -1.4600  0.1626 -5.1776
  694MOL0     H95725   1.066   9.873   7.130  2.0028  1.3980  2.8718
  694MOL0     H95726   1.311   9.880   7.103 -0.5998  1.4703  0.1232
  694MOL0     H95727   1.233   9.732   7.027 -0.6048 -0.4193  0.3539
  694MOL0     H95728   1.243   9.870   6.804 -0.4034 -0.3512  0.5886
  694MOL0     H95729   1.339   9.993   6.891 -1.5231  0.5966  2.2626
  694MOL0     H95730   1.445   9.669   7.055  0.0223  1.2753 -1.5327
  694MOL0     H95731   1.452   9.474   7.187 -1.9716 -0.7786  0.5476
  694MOL0     H95732   1.524   9.335   7.115 -0.4549  0.0018 -0.6261
  694MOL0     H95733   1.340   9.353   7.125 -0.2821  0.6835 -0.9581
  694MOL0     H95734   1.612   9.075   7.044  1.5061 -1.6298 -0.9082
  694MOL0     H95735   1.657   8.836   7.066  0.6546 -0.4166 -2.4918
  694MOL0     H95736   1.669   8.635   6.861  2.0030 -2.0744  0.1649
  694MOL0     H95737   1.693   8.620   7.036 -3.9201  3.1815  2.3024
  694MOL0     H95738   1.552   8.412   6.877 -2.7559 -0.6010  2.7612
  694MOL0     H95739   1.727   8.408   6.924  1.3434  1.1247 -0.4306
  694MOL0     H95740   1.468   8.397   7.095  0.1526 -2.5470 -0.5402
  694MOL0     H95741   1.629   8.415   7.169  0.7568 -0.7739  0.6086
  694MOL0     H95742   1.699   8.204   7.067  0.4715  0.2068 -0.2515
  694MOL0     H95743   1.541   8.172   7.002 -0.0298  1.4277  0.2331
  694MOL0     H95744   1.609   8.195   7.295 -1.7288  2.5417  0.5103
  694MOL0     H95745   1.450   8.195   7.238  1.1410 -0.9066  2.4569
  694MOL0     H95746   1.511   7.951   7.130  0.1619 -1.9911  1.3911
  694MOL0     H95747   1.482   7.965   7.300 -0.7331 -1.4867  0.0163
  694MOL0     H95748   1.722   7.985   7.348 -0.6725  0.6468  0.2497
  694MOL0     H95749   1.768   7.997   7.179  2.6781 -1.8039  0.5332
  694MOL0     H95750   1.811   7.772   7.231  0.4796  0.8709 -1.4570
  694MOL0     H95751   1.668   7.768   7.140  0.0546  2.3263 -0.1194
  694MOL0     H95752   1.291   8.755   6.870  0.8991 -1.6475  0.9152
  694MOL0     H95753   1.238   8.994   6.853  0.1266  0.1022  0.4628
  694MOL0     H95754   1.313   9.412   6.652 -0.0496  1.3786  0.3871
  694MOL0     H95755   1.333   9.672   6.660 -4.2185  0.6430  0.9269
  694MOL0     H95756   0.007   9.100   6.741  1.0571  1.2191  0.0194
  694MOL0     H95757  -0.092   8.912   6.618 -1.2769 -0.2153 -1.0217
  694MOL0     H95758  -0.351   8.815   6.272 -0.5135  0.8067  0.0104
  694MOL0     H95759  -0.494   8.693   6.114  0.1156  2.5658 -1.4801
  694MOL0     H95760  -0.494   8.404   6.067  0.0026  1.6937  0.2938
  694MOL0     H95761  -0.605   8.521   5.993  0.3840  1.8057  0.1100
  694MOL0     H95762  -0.636   8.282   5.930 -0.8781  0.9951  1.2626
  694MOL0     H95763  -0.475   8.293   5.850 -3.0108 -0.1753 -5.0206
  694MOL0     H95764  -0.709   8.448   5.769 -1.6385 -0.2785  0.1427
  694MOL0     H95765  -0.540   8.448   5.697 -3.1555 -0.2240 -2.9508
  694MOL0     H95766  -0.745   8.233   5.710 -0.3211  0.1395 -1.2297
  694MOL0     H95767  -0.578   8.195   5.671 -0.4687 -0.8946  0.8219
  694MOL0     H95768  -0.678   8.421   5.317 -0.6857 -1.1701 -0.5562
  694MOL0     H95769  -0.142   8.503   5.949 -1.7439 -2.2076  2.8238
  694MOL0     H95770   0.099   8.618   6.147  0.8828  0.2592 -0.0294
  694MOL0     H95771   0.069   8.595   5.974  3.1888 -0.5387  0.6453
  694MOL0     H95772   0.089   8.753   6.032 -2.9369  1.1458 -0.3486
  695MOL0     O95773   0.642   0.412   0.638 -0.5250 -0.0251  0.7756
  695MOL0     C95774   0.723   0.500   0.678  0.1502  0.4557  1.1178
  695MOL0     O95775   0.841   0.523   0.622  0.5501 -0.4820  0.1290
  695MOL0     C95776   0.898   0.420   0.551  0.0278  0.1582  0.4735
  695MOL0     C95777   0.998   0.352   0.619  1.3014  0.1765 -0.2194
  695MOL0     C95778   1.064   0.259   0.545  0.4428  0.3054  0.0446
  695MOL0     C95779   1.030   0.229   0.414 -0.0986 -0.5106  0.9358
  695MOL0     O95780   1.119   0.148   0.347 -0.0038  0.3412 -0.4318
  695MOL0     C95781   1.093   0.102   0.213  0.2620  0.2835  0.1954
  695MOL0     C95782   1.221   0.030   0.158  0.2668 -0.5163  0.3241
  695MOL0     C95783   1.238  -0.104   0.229 -0.3570  0.3748 -0.4627
  695MOL0     C95784   1.142  -0.216   0.186  0.5142 -0.7331  1.9606
  695MOL0     C95785   1.133  -0.328   0.286 -0.2230  1.3271 -0.6394
  695MOL0     C95786   1.070  -0.460   0.237 -0.6837 -0.9201  0.3819
  695MOL0     C95787   1.053  -0.551   0.366  0.2291 -0.6815  0.2472
  695MOL0     C95788   0.991  -0.682   0.324  0.1222  0.3550 -0.4878
  695MOL0     N95789   0.981  -0.786   0.428 -0.1776 -0.3012 -1.4467
  695MOL0     C95790   1.087  -0.871   0.449 -0.0324  0.7635  0.3101
  695MOL0     C95791   1.041  -0.950   0.545  0.3625 -0.0785 -0.5170
  695MOL0     C95792   1.119  -1.065   0.604  0.4702 -0.5383 -0.0689
  695MOL0     C95793   1.092  -1.069   0.758  0.0993 -0.1064  0.4988
  695MOL0     C95794   1.223  -1.142   0.804  0.5886 -0.7189  0.1658
  695MOL0     C95795   1.217  -1.185   0.946 -0.3434 -0.5163  0.1402
  695MOL0     O95796   1.096  -1.261   0.948  0.8878 -0.1792  0.2745
  695MOL0     C95797   1.104  -1.396   0.947 -0.6673 -0.3363  0.3458
  695MOL0     C95798   1.101  -1.480   0.834  1.1466  0.3413 -0.2778
  695MOL0     C95799   1.123  -1.622   0.844  0.0001 -0.4857  0.3470
  695MOL0     C95800   1.130  -1.699   0.715  0.1406  0.2303  0.7444
  695MOL0     C95801   1.142  -1.684   0.974 -0.4417 -0.4565 -0.9801
  695MOL0     C95802   1.146  -1.826   0.999  0.1707 -0.7712 -0.7897
  695MOL0     O95803   1.110  -1.912   0.898 -0.6429  0.3529 -0.1418
  695MOL0     C95804   1.119  -2.045   0.911  0.0531 -0.3872  0.4023
  695MOL0     C95805   1.084  -2.126   1.015  0.1483 -0.6699 -0.8031
  695MOL0     C95806   1.097  -2.261   1.020 -0.1946 -0.2002  0.0618
  695MOL0     C95807   1.151  -2.324   0.913  0.7028 -0.6808  0.0970
  695MOL0     O95808   1.148  -2.467   0.912 -0.5017  0.0210  0.7844
  695MOL0     C95809   1.271  -2.541   0.907  0.4816 -0.1443  0.0556
  695MOL0     C95810   1.239  -2.646   0.809 -0.0916 -0.2014 -0.5741
  695MOL0     C95811   1.334  -2.763   0.799 -0.2729 -1.1635 -0.2549
  695MOL0     C95812   1.301  -2.858   0.921  0.2880  0.6805  0.4517
  695MOL0     C95813   1.370  -3.000   0.881 -0.7967  0.0690 -0.3282
  695MOL0     C95814   1.345  -3.102   0.992 -0.9998 -0.5621  1.1293
  695MOL0     C95815   1.449  -3.217   0.994 -1.5157 -1.1001  0.7969
  695MOL0     C95816   1.372  -3.352   0.989  0.1451 -1.4847  0.2299
  695MOL0    Cl95817   1.272  -3.373   1.129  0.0232  0.1936 -0.3085
  695MOL0     C95818   1.193  -2.255   0.795  0.0417 -0.6578 -0.7335
  695MOL0     C95819   1.179  -2.112   0.800 -0.5146  0.2380  0.0214
  695MOL0     O95820   1.191  -1.868   1.106  0.3167 -0.5603 -0.6861
  695MOL0     C95821   1.156  -1.591   1.084  0.9674 -0.9587 -0.1511
  695MOL0     C95822   1.129  -1.447   1.067  0.1307  0.1805 -0.7391
  695MOL0     N95823   0.913  -0.917   0.582  0.6210  0.2023 -0.3877
  695MOL0     N95824   0.872  -0.814   0.507  0.6439 -0.4106 -0.8556
  695MOL0     C95825   0.927   0.287   0.357 -0.0162 -0.2278 -0.1539
  695MOL0     C95826   0.854   0.383   0.423 -0.2418 -0.1294 -0.9435
  695MOL0     C95827   0.674   0.600   0.767  0.6919 -0.7137  0.2812
  695MOL0     C95828   0.734   0.729   0.751 -0.0449 -0.1554  0.0012
  695MOL0     C95829   0.701   0.831   0.843  0.0182  1.0479  1.0796
  695MOL0     C95830   0.616   0.808   0.950  0.6026 -0.4134 -0.2570
  695MOL0     O95831   0.598   0.904   1.047 -0.1718 -0.3216 -0.4160
  695MOL0     C95832   0.472   0.971   1.038  0.4361  0.3243  0.2352
  695MOL0     C95833   0.473   1.094   0.954 -0.6396 -0.7159 -0.2964
  695MOL0     C95834   0.567   1.206   1.007 -0.2979 -0.1343 -0.5436
  695MOL0     C95835   0.539   1.353   0.988 -0.8905  0.6100 -0.8407
  695MOL0     C95836   0.658   1.437   1.032  0.1373 -0.5177  0.0070
  695MOL0     C95837   0.749   1.502   1.084  0.5112 -0.4301  0.1379
  695MOL0     C95838   0.553   0.680   0.968 -0.4265  0.4728  0.1646
  695MOL0     C95839   0.583   0.577   0.876 -0.2024  0.0653  0.5361
  695MOL0     C95840   0.528   0.443   0.898 -0.2726  0.3271 -0.3274
  695MOL0     H95841   1.022   0.366   0.724  2.4476  4.6269 -0.8878
  695MOL0     H95842   1.147   0.206   0.590 -1.2234 -1.7845  0.8426
  695MOL0     H95843   1.085   0.191   0.150 -0.4497 -1.4558 -2.3051
  695MOL0     H95844   1.004   0.040   0.205  1.2959 -1.0536 -1.8167
  695MOL0     H95845   1.214   0.007   0.051  0.1792 -0.0304  0.2259
  695MOL0     H95846   1.311   0.091   0.167  0.5259 -0.6891 -0.9567
  695MOL0     H95847   1.343  -0.134   0.225  0.1393  1.2953  3.1608
  695MOL0     H95848   1.217  -0.097   0.336  0.0889 -2.4136 -0.1110
  695MOL0     H95849   1.047  -0.167   0.165  1.8219  1.9589  1.8930
  695MOL0     H95850   1.184  -0.261   0.096 -1.2786 -2.6275  1.9843
  695MOL0     H95851   1.077  -0.286   0.370  1.5780  3.1208 -0.2777
  695MOL0     H95852   1.228  -0.353   0.332 -0.0339  3.2955  0.1358
  695MOL0     H95853   0.979  -0.440   0.179  0.7563  3.9864 -0.6395
  695MOL0     H95854   1.139  -0.508   0.167 -1.0222 -1.5175  0.4431
  695MOL0     H95855   0.987  -0.503   0.439 -1.3084 -0.1094 -1.4318
  695MOL0     H95856   1.148  -0.559   0.419  1.0367 -1.8664 -1.3069
  695MOL0     H95857   0.889  -0.658   0.293  0.4361  2.2154 -0.2170
  695MOL0     H95858   1.046  -0.734   0.245 -0.7732 -1.3795 -0.0356
  695MOL0     H95859   1.178  -0.885   0.390 -0.0925  0.6123  0.2528
  695MOL0     H95860   1.224  -1.048   0.577  0.5469 -0.4758  0.2563
  695MOL0     H95861   1.084  -1.160   0.564 -1.0821 -0.5405  1.2281
  695MOL0     H95862   1.091  -0.969   0.803 -1.4780  0.3427 -0.4442
  695MOL0     H95863   0.997  -1.121   0.770  0.2603 -1.0899 -1.9102
  695MOL0     H95864   1.239  -1.227   0.737  2.6022  0.2061 -0.6049
  695MOL0     H95865   1.307  -1.072   0.797  0.9490 -1.2064 -0.5160
  695MOL0     H95866   1.299  -1.252   0.972 -0.8829 -1.4088 -0.4079
  695MOL0     H95867   1.213  -1.108   1.024 -0.6948 -1.0270  0.6389
  695MOL0     H95868   1.077  -1.446   0.734  0.2484 -0.4918 -0.3577
  695MOL0     H95869   1.131  -1.627   0.633  0.1491  0.1129  0.6412
  695MOL0     H95870   1.041  -1.762   0.705  0.5201 -0.1105 -0.7573
  695MOL0     H95871   1.216  -1.766   0.708  1.5133  1.9919  0.0964
  695MOL0     H95872   1.039  -2.085   1.105  0.9386 -2.8744  0.6787
  695MOL0     H95873   1.058  -2.318   1.103 -1.8698  1.4202  0.4560
  695MOL0     H95874   1.357  -2.489   0.866  3.0127 -4.1405 -0.2790
  695MOL0     H95875   1.292  -2.582   1.006 -1.7634  0.4625  0.8480
  695MOL0     H95876   1.145  -2.684   0.848 -0.4113 -0.8498 -1.9251
  695MOL0     H95877   1.201  -2.601   0.717 -1.3327 -0.5109 -0.2330
  695MOL0     H95878   1.440  -2.738   0.804 -0.5702  0.0501  0.6373
  695MOL0     H95879   1.308  -2.812   0.705 -2.2099  0.8866 -0.8812
  695MOL0     H95880   1.195  -2.878   0.938  1.0923 -2.1739  2.9550
  695MOL0     H95881   1.348  -2.812   1.009  0.7145  3.6425 -1.2092
  695MOL0     H95882   1.340  -3.029   0.780  0.8846 -2.1793 -0.2469
  695MOL0     H95883   1.479  -2.995   0.888 -0.7049 -1.4777 -0.4288
  695MOL0     H95884   1.244  -3.140   0.975 -0.0848 -2.2604 -0.9986
  695MOL0     H95885   1.350  -3.044   1.085  1.1149  0.2313  0.5774
  695MOL0     H95886   1.505  -3.217   1.088 -2.5225 -1.9147  1.4279
  695MOL0     H95887   1.518  -3.205   0.910 -1.3104  1.2711  1.2337
  695MOL0     H95888   1.442  -3.435   0.976  1.6380 -0.4162  1.0836
  695MOL0     H95889   1.305  -3.350   0.902  0.7263  1.4334 -0.2454
  695MOL0     H95890   1.225  -2.309   0.706  3.0071  1.2268 -0.9461
  695MOL0     H95891   1.198  -2.050   0.713 -2.6047 -0.2834 -0.8494
  695MOL0     H95892   1.188  -1.625   1.182 -0.4102  1.2934  1.1712
  695MOL0     H95893   1.170  -1.390   1.150  3.7989  0.1481 -2.3380
  695MOL0     H95894   0.906   0.271   0.252 -0.6129  0.4728 -0.1559
  695MOL0     H95895   0.783   0.446   0.369  1.1088  1.6577 -0.7510
  695MOL0     H95896   0.808   0.748   0.674  0.7616 -2.9953 -0.0282
  695MOL0     H95897   0.754   0.924   0.829 -1.1466  1.5008 -0.6622
  695MOL0     H95898   0.401   0.901   0.991 -1.7470  1.5775  1.4804
  695MOL0     H95899   0.442   0.988   1.142  2.3241  2.0688  0.5419
  695MOL0     H95900   0.371   1.132   0.962  0.3806  2.2586  0.0222
  695MOL0     H95901   0.491   1.086   0.846 -0.7284 -2.1868 -0.2157
  695MOL0     H95902   0.572   1.195   1.116  0.3072  0.1377 -0.5358
  695MOL0     H95903   0.655   1.180   0.947 -1.7463 -2.1675 -1.9106
  695MOL0     H95904   0.455   1.381   1.052 -0.1291 -0.8697  0.8906
  695MOL0     H95905   0.519   1.385   0.885 -0.2641 -2.5384 -2.0313
  695MOL0     H95906   0.826   1.562   1.128 -0.8702  0.1834  1.8248
  695MOL0     H95907   0.487   0.666   1.053 -1.0608 -0.6172 -0.4804
  695MOL0     H95908   0.608   0.370   0.884 -1.4463 -0.5688 -3.0040
  695MOL0     H95909   0.469   0.445   0.990  0.2598  2.4398  0.0320
  695MOL0     H95910   0.475   0.419   0.806  2.2856  1.4641 -2.2381
  696MOL0     O95911   9.266   3.272   5.395  0.1604  0.1274  0.1487
  696MOL0     C95912   9.143   3.261   5.382 -0.3036  0.0016  0.3306
  696MOL0     O95913   9.070   3.312   5.279  0.8748 -0.5245  0.3332
  696MOL0     C95914   9.134   3.416   5.208 -0.4441  0.6176  0.4685
  696MOL0     C95915   9.202   3.388   5.094  0.0560 -0.1178  0.5728
  696MOL0     C95916   9.287   3.482   5.034 -0.6868  0.3877  0.9158
  696MOL0     C95917   9.289   3.608   5.092 -0.7831 -0.0387  0.4600
  696MOL0     O95918   9.380   3.693   5.029  0.2981  0.1321  0.4847
  696MOL0     C95919   9.344   3.835   5.025 -0.1362 -0.7811 -0.7240
  696MOL0     C95920   9.339   3.888   4.885 -0.0836  0.4733  0.5157
  696MOL0     C95921   9.256   3.796   4.787  0.3052  0.2649 -0.7607
  696MOL0     C95922   9.183   3.876   4.684 -0.0615 -0.4510 -0.9864
  696MOL0     C95923   9.074   3.796   4.614  0.1715  0.2860 -0.3976
  696MOL0     C95924   9.021   3.883   4.508 -0.1400 -0.7933  0.7169
  696MOL0     C95925   9.066   3.841   4.370  0.8408  0.5896  0.0174
  696MOL0     C95926   8.984   3.912   4.266  0.2551  0.3559  0.3353
  696MOL0     N95927   8.860   3.844   4.254  0.8931  0.5686 -0.2313
  696MOL0     C95928   8.743   3.906   4.298  0.2119 -0.9876  0.7490
  696MOL0     C95929   8.640   3.865   4.213  0.5368 -0.4821 -0.7754
  696MOL0     C95930   8.505   3.911   4.196  0.2460  0.2442  0.5063
  696MOL0     C95931   8.420   3.904   4.325 -0.8066 -0.2925  0.0063
  696MOL0     C95932   8.272   3.922   4.295  0.4565 -0.5192  0.5980
  696MOL0     C95933   8.191   3.915   4.423 -0.6243  0.5588 -0.4382
  696MOL0     O95934   8.192   3.779   4.461 -0.2036 -0.1981 -0.1225
  696MOL0     C95935   8.136   3.740   4.586  0.3369 -0.0882  0.2306
  696MOL0     C95936   8.176   3.621   4.644 -0.3395  0.0197 -0.8551
  696MOL0     C95937   8.123   3.577   4.760  0.1114 -0.7152  0.4713
  696MOL0     C95938   8.196   3.463   4.834 -0.5005  0.1227  0.0338
  696MOL0     C95939   8.016   3.646   4.822  0.1492  0.3430 -0.7894
  696MOL0     C95940   7.948   3.589   4.942 -0.6925  0.0636  0.2763
  696MOL0     O95941   7.900   3.672   5.040 -0.2637  0.3572 -0.7456
  696MOL0     C95942   7.843   3.606   5.143 -0.1510 -0.4559 -0.6022
  696MOL0     C95943   7.729   3.669   5.196 -0.0251 -0.5576  0.1872
  696MOL0     C95944   7.652   3.613   5.302 -0.5645  1.0252 -0.4387
  696MOL0     C95945   7.691   3.490   5.361  0.8447 -0.3848 -1.0086
  696MOL0     O95946   7.619   3.428   5.462 -0.0943  0.4735  0.6415
  696MOL0     C95947   7.473   3.419   5.461 -0.9831  0.3087 -0.3102
  696MOL0     C95948   7.422   3.457   5.592 -0.9290  0.1999  0.4889
  696MOL0     C95949   7.458   3.357   5.701  0.5081  0.4026  1.1434
  696MOL0     C95950   7.402   3.410   5.837 -0.8512  0.6920  0.0445
  696MOL0     C95951   7.478   3.328   5.950  0.2725 -0.3161 -0.9454
  696MOL0     C95952   7.389   3.217   5.995 -0.6299  0.2190 -0.6445
  696MOL0     C95953   7.455   3.112   6.089 -0.0695  0.0211 -0.2963
  696MOL0     C95954   7.341   3.009   6.116 -0.1233 -0.0442  0.3988
  696MOL0    Cl95955   7.400   2.897   6.240  0.1844 -0.2651  0.5142
  696MOL0     C95956   7.804   3.425   5.307 -0.2941  0.2022  0.8889
  696MOL0     C95957   7.887   3.487   5.209  1.3743 -0.0046 -0.5874
  696MOL0     O95958   7.907   3.477   4.918 -0.3275  0.0928 -0.3245
  696MOL0     C95959   7.980   3.771   4.766 -0.6284  0.7370 -0.0842
  696MOL0     C95960   8.041   3.819   4.651  0.6083  0.0799  0.2590
  696MOL0     N95961   8.707   3.779   4.120 -0.1174  0.9767 -1.2715
  696MOL0     N95962   8.830   3.764   4.157  0.2922  0.4096  0.8106
  696MOL0     C95963   9.226   3.633   5.210  0.1642 -0.3735  0.8145
  696MOL0     C95964   9.136   3.543   5.258 -0.2283  0.2792 -0.4399
  696MOL0     C95965   9.069   3.205   5.497  0.6874  0.9526 -0.3568
  696MOL0     C95966   9.147   3.128   5.594  0.0702 -0.2763  1.1235
  696MOL0     C95967   9.085   3.086   5.713 -0.5915 -0.7082  0.5508
  696MOL0     C95968   8.957   3.113   5.748 -0.4877 -0.5668 -0.0563
  696MOL0     O95969   8.892   3.092   5.867 -0.1513 -0.0169 -0.1697
  696MOL0     C95970   8.949   3.015   5.970 -0.4444 -0.1262  0.0138
  696MOL0     C95971   8.982   2.867   5.949 -0.3498 -0.0575 -0.7298
  696MOL0     C95972   9.061   2.808   6.067 -1.2004 -0.4030  0.5194
  696MOL0     C95973   9.070   2.653   6.074 -0.1483 -0.1267  0.0503
  696MOL0     C95974   9.161   2.608   6.184 -0.2406 -0.7360  0.1834
  696MOL0     C95975   9.224   2.562   6.281  0.5122 -0.0182  0.0040
  696MOL0     C95976   8.879   3.184   5.661 -0.6072 -0.2026 -0.2191
  696MOL0     C95977   8.928   3.229   5.536 -0.2034  0.0820 -0.5036
  696MOL0     C95978   8.833   3.294   5.439  0.5529 -0.3333  0.1964
  696MOL0     H95979   9.203   3.295   5.038 -1.0509  0.5525 -0.6003
  696MOL0     H95980   9.344   3.445   4.949 -1.5862 -0.1765  0.5413
  696MOL0     H95981   9.417   3.885   5.089 -1.5042 -1.3407  1.3727
  696MOL0     H95982   9.248   3.854   5.074 -0.0979 -0.7494 -0.6626
  696MOL0     H95983   9.297   3.989   4.884  0.1961  0.6107 -1.3732
  696MOL0     H95984   9.438   3.886   4.839 -2.0260  0.7529 -4.3398
  696MOL0     H95985   9.322   3.719   4.744  0.2031 -1.3897  1.7987
  696MOL0     H95986   9.172   3.747   4.837 -0.1476 -0.5610 -2.2349
  696MOL0     H95987   9.138   3.960   4.738  2.0389  1.4086 -1.9215
  696MOL0     H95988   9.256   3.929   4.622 -0.9744  5.2766  2.0939
  696MOL0     H95989   8.998   3.765   4.687 -2.6423  0.7397 -2.9490
  696MOL0     H95990   9.118   3.703   4.578 -1.0459 -0.7949  0.8308
  696MOL0     H95991   8.913   3.869   4.517 -1.1064  4.7336  1.2246
  696MOL0     H95992   9.037   3.990   4.521  0.2806 -0.2462 -3.2157
  696MOL0     H95993   9.050   3.732   4.366 -1.9191  0.8498  1.4284
  696MOL0     H95994   9.174   3.847   4.358  1.1342 -2.7489  0.0400
  696MOL0     H95995   8.960   4.015   4.297  2.5404  0.5274  1.8101
  696MOL0     H95996   9.031   3.924   4.169 -2.6094  2.4868 -0.9405
  696MOL0     H95997   8.748   3.985   4.372  4.8591  3.5207 -3.6040
  696MOL0     H95998   8.457   3.842   4.126 -0.3288 -0.7045  1.7913
  696MOL0     H95999   8.507   4.008   4.146 -1.2747 -0.7533 -1.6869
  696MOL0     H96000   8.430   3.806   4.373 -0.4414 -1.5348 -2.4164
  696MOL0     H96001   8.446   3.990   4.386 -4.7627  0.8965  0.2886
  696MOL0     H96002   8.257   4.019   4.246 -1.9799 -1.5176 -0.7320
  696MOL0     H96003   8.251   3.848   4.218 -4.7728 -0.1712  1.3882
  696MOL0     H96004   8.224   3.995   4.490 -1.7076  0.4215  0.2729
  696MOL0     H96005   8.086   3.930   4.397 -0.3507 -0.9554 -2.7297
  696MOL0     H96006   8.243   3.556   4.589 -1.2642 -0.4802 -1.4184
  696MOL0     H96007   8.129   3.378   4.852  0.5993 -0.6230  0.7187
  696MOL0     H96008   8.217   3.498   4.935  2.4971 -2.1358  0.3267
  696MOL0     H96009   8.291   3.440   4.785  0.0233  0.5900  0.8150
  696MOL0     H96010   7.703   3.757   5.137  3.0171 -0.3377 -0.9703
  696MOL0     H96011   7.564   3.667   5.334 -1.1843 -0.2202  0.0612
  696MOL0     H96012   7.436   3.494   5.390  0.5640  2.0579  0.6546
  696MOL0     H96013   7.440   3.320   5.429 -1.3405  0.0945  0.6869
  696MOL0     H96014   7.441   3.559   5.625  0.4283 -1.0026  3.8807
  696MOL0     H96015   7.314   3.456   5.578 -0.9350  0.3409  0.5275
  696MOL0     H96016   7.566   3.363   5.711  0.4117  3.4878  1.3388
  696MOL0     H96017   7.421   3.255   5.683 -1.6020  0.6588  3.4224
  696MOL0     H96018   7.294   3.394   5.836 -0.6421 -0.7992 -0.6764
  696MOL0     H96019   7.409   3.520   5.841 -0.9727  0.6959  0.1672
  696MOL0     H96020   7.570   3.286   5.909  0.5965  1.5466 -2.2574
  696MOL0     H96021   7.505   3.386   6.039  1.3831 -2.9061  0.5018
  696MOL0     H96022   7.332   3.176   5.911 -0.4862  2.6198 -2.0234
  696MOL0     H96023   7.312   3.274   6.049 -0.5122  1.8818 -2.1355
  696MOL0     H96024   7.494   3.158   6.180 -1.4442 -1.3842  1.0735
  696MOL0     H96025   7.542   3.060   6.048  0.9910 -1.4167  3.3983
  696MOL0     H96026   7.313   2.955   6.025 -0.3284  2.2524 -0.9586
  696MOL0     H96027   7.263   3.061   6.173  4.1033  2.3990  4.7215
  696MOL0     H96028   7.838   3.331   5.348  0.3370 -0.3424 -0.7892
  696MOL0     H96029   7.977   3.435   5.177  0.2709 -0.4124 -3.2625
  696MOL0     H96030   7.910   3.833   4.821 -2.5036 -1.2506 -0.0727
  696MOL0     H96031   8.019   3.913   4.601  0.7439 -2.1995 -4.6657
  696MOL0     H96032   9.232   3.733   5.254  0.0927  0.4840 -1.0293
  696MOL0     H96033   9.078   3.563   5.347 -0.9324 -2.2190 -0.2508
  696MOL0     H96034   9.251   3.107   5.573  1.5759  4.0786  3.0324
  696MOL0     H96035   9.145   3.036   5.789  1.3173  1.5763  0.6764
  696MOL0     H96036   9.037   3.074   5.998  0.5916 -1.9337  0.7462
  696MOL0     H96037   8.886   3.016   6.058 -1.3028  2.3535 -0.5250
  696MOL0     H96038   9.051   2.861   5.864  0.6867 -2.2439  0.1851
  696MOL0     H96039   8.895   2.803   5.929  0.0028 -1.0319  0.7276
  696MOL0     H96040   9.158   2.858   6.069 -2.7730  3.1300 -1.3168
  696MOL0     H96041   9.011   2.846   6.156 -1.7194  1.3051 -0.4539
  696MOL0     H96042   9.102   2.608   5.979  1.2476 -1.7497  1.2340
  696MOL0     H96043   8.975   2.601   6.088  0.3650 -0.9764  0.5019
  696MOL0     H96044   9.270   2.514   6.365 -1.2107  0.5331  1.3454
  696MOL0     H96045   8.779   3.213   5.692  0.1088 -0.1762  2.2502
  696MOL0     H96046   8.742   3.330   5.488 -0.1254  0.8775 -1.8397
  696MOL0     H96047   8.890   3.380   5.401  0.4396 -0.5152 -0.3880
  696MOL0     H96048   8.809   3.229   5.355  0.0119 -1.3893  1.1425
  697MOL0     O96049   3.986   1.472   4.309  0.1687 -0.3298  0.3207
  697MOL0     C96050   4.058   1.429   4.400  0.2960 -0.2584  1.0854
  697MOL0     O96051   4.123   1.509   4.494  0.1069  1.0813  1.4697
  697MOL0     C96052   4.109   1.642   4.504  0.8284 -0.0403 -0.4217
  697MOL0     C96053   3.977   1.706   4.486 -0.8817 -0.0775 -0.1621
  697MOL0     C96054   3.976   1.847   4.460 -0.0144  0.9545  0.0631
  697MOL0     C96055   4.093   1.910   4.471 -0.2893 -0.4406 -0.2334
  697MOL0     O96056   4.095   2.038   4.426  0.3720 -0.1176 -0.6123
  697MOL0     C96057   4.173   2.052   4.304  0.1622 -0.6038  0.6868
  697MOL0     C96058   4.172   2.209   4.272  0.6898 -0.1095 -0.3568
  697MOL0     C96059   4.048   2.248   4.183  0.1079 -0.2773  0.3249
  697MOL0     C96060   4.017   2.398   4.186  0.9767 -0.2189  0.7825
  697MOL0     C96061   3.897   2.421   4.089  0.3501 -1.1122 -0.3894
  697MOL0     C96062   3.866   2.575   4.080  0.2693 -0.4798  0.0498
  697MOL0     C96063   3.760   2.597   3.966 -0.3941  0.4051 -0.0773
  697MOL0     C96064   3.741   2.741   3.933  0.7944 -0.8537  0.2171
  697MOL0     N96065   3.860   2.781   3.872  0.4066 -0.0181  0.0832
  697MOL0     C96066   3.938   2.714   3.780  0.0102 -0.0287  1.0209
  697MOL0     C96067   4.020   2.810   3.733 -0.4359 -0.2023 -0.0243
  697MOL0     C96068   4.122   2.798   3.638 -0.7174  0.5170  0.1685
  697MOL0     C96069   4.059   2.771   3.492  0.0088  0.6898 -0.9164
  697MOL0     C96070   4.161   2.727   3.388 -0.1540 -0.6155  0.3198
  697MOL0     C96071   4.098   2.677   3.252  0.1324  0.0630 -0.6996
  697MOL0     O96072   4.018   2.563   3.276 -0.0884  0.1458 -0.4482
  697MOL0     C96073   3.962   2.498   3.165 -0.9426  0.1544  0.0302
  697MOL0     C96074   3.988   2.545   3.036  0.4298 -0.0783 -0.4472
  697MOL0     C96075   3.934   2.469   2.925 -0.5123 -0.7229 -0.2702
  697MOL0     C96076   3.962   2.544   2.795  0.9189 -0.1881  0.5019
  697MOL0     C96077   3.849   2.357   2.935  0.6650  0.3717 -0.2107
  697MOL0     C96078   3.787   2.283   2.822  0.2126 -0.0671  0.3298
  697MOL0     O96079   3.732   2.164   2.866 -0.1866  0.2965 -0.1657
  697MOL0     C96080   3.617   2.134   2.804  0.0627  0.2817 -0.6876
  697MOL0     C96081   3.523   2.226   2.773 -0.1432 -0.2415  0.1173
  697MOL0     C96082   3.406   2.191   2.714  0.9219  0.5608  0.6659
  697MOL0     C96083   3.383   2.054   2.684 -0.9018  0.4265 -0.3729
  697MOL0     O96084   3.275   2.000   2.620  0.0361  0.5030  0.1707
  697MOL0     C96085   3.142   2.066   2.637 -0.9512 -0.1367  0.3121
  697MOL0     C96086   3.121   2.173   2.527 -0.4989 -0.1742 -0.1338
  697MOL0     C96087   3.113   2.108   2.391 -0.5013  0.3239 -0.5468
  697MOL0     C96088   3.065   2.218   2.301  0.0425 -0.0873 -0.3741
  697MOL0     C96089   3.094   2.183   2.156  0.7215 -0.4887 -0.1623
  697MOL0     C96090   2.988   2.235   2.059 -0.2787 -0.2286 -0.2095
  697MOL0     C96091   3.018   2.206   1.916  0.2499  0.6270 -0.0641
  697MOL0     C96092   2.892   2.229   1.835 -0.6898  0.0463 -0.0196
  697MOL0    Cl96093   2.824   2.402   1.844  0.2641 -0.4777 -0.0769
  697MOL0     C96094   3.480   1.964   2.712 -0.5263  0.3028  0.3784
  697MOL0     C96095   3.592   1.997   2.777 -1.0760 -0.3095 -0.1186
  697MOL0     O96096   3.793   2.314   2.708  0.5582 -1.5175  0.0117
  697MOL0     C96097   3.821   2.321   3.073 -0.4373 -0.9217  0.2195
  697MOL0     C96098   3.884   2.384   3.183  0.7592  0.2874 -0.0123
  697MOL0     N96099   3.987   2.932   3.793  0.0724  0.2474  0.2704
  697MOL0     N96100   3.896   2.913   3.883 -1.0887 -0.1158  0.8013
  697MOL0     C96101   4.208   1.850   4.513 -0.7189 -0.4419 -0.1816
  697MOL0     C96102   4.222   1.718   4.534  0.4405  0.1311  0.0334
  697MOL0     C96103   4.090   1.286   4.409  0.1370  0.1421 -1.5720
  697MOL0     C96104   4.079   1.209   4.295 -0.4493  0.6884 -0.1635
  697MOL0     C96105   4.135   1.078   4.297 -0.2473  1.2506 -0.2902
  697MOL0     C96106   4.182   1.019   4.412  0.4640  0.6636 -0.6063
  697MOL0     O96107   4.236   0.896   4.396  0.0165  0.3633  0.4565
  697MOL0     C96108   4.210   0.803   4.496 -0.2687 -0.9871  0.4148
  697MOL0     C96109   4.333   0.728   4.534  0.3533  0.1806 -1.3012
  697MOL0     C96110   4.407   0.671   4.417 -0.0315  0.2921  0.2688
  697MOL0     C96111   4.466   0.529   4.456 -0.5290 -0.8394 -0.1284
  697MOL0     C96112   4.549   0.528   4.577  0.5441 -0.0638  0.2277
  697MOL0     C96113   4.612   0.521   4.678  0.1741  0.0256 -0.2210
  697MOL0     C96114   4.190   1.092   4.527 -0.1590 -0.1479 -0.0158
  697MOL0     C96115   4.146   1.225   4.529  0.3291 -0.7204 -0.4839
  697MOL0     C96116   4.154   1.299   4.665  0.5159  0.1465  1.0540
  697MOL0     H96117   3.893   1.640   4.465  1.0137 -2.3550 -1.0656
  697MOL0     H96118   3.887   1.904   4.435 -0.5327 -0.2676 -0.9813
  697MOL0     H96119   4.111   2.000   4.230 -1.7310  0.4084  1.4907
  697MOL0     H96120   4.273   2.008   4.313  0.0663 -0.7315  1.1243
  697MOL0     H96121   4.175   2.272   4.361  1.5921  1.5376 -1.5031
  697MOL0     H96122   4.257   2.235   4.208  1.1416  1.9068  0.9977
  697MOL0     H96123   4.061   2.235   4.075 -3.7059  1.9835 -0.5932
  697MOL0     H96124   3.957   2.192   4.206  1.0854 -2.4276 -0.6908
  697MOL0     H96125   3.993   2.418   4.290 -0.6958  0.2929  0.3317
  697MOL0     H96126   4.103   2.464   4.168 -0.5277  1.3819 -0.9507
  697MOL0     H96127   3.802   2.375   4.119 -0.4588  1.0811  0.7153
  697MOL0     H96128   3.926   2.388   3.989  1.0852 -1.7995  0.0430
  697MOL0     H96129   3.831   2.620   4.173 -0.2618 -1.2196  0.2159
  697MOL0     H96130   3.961   2.619   4.047 -0.8794  1.2373 -1.1191
  697MOL0     H96131   3.664   2.568   4.010 -1.8675  3.5116 -0.9768
  697MOL0     H96132   3.772   2.533   3.878  1.5123  0.3298  0.2062
  697MOL0     H96133   3.646   2.750   3.878 -1.6299 -0.5504  4.0998
  697MOL0     H96134   3.732   2.804   4.022  3.6770 -0.5006  0.3357
  697MOL0     H96135   3.933   2.610   3.747  1.5873 -0.3742  1.8200
  697MOL0     H96136   4.186   2.715   3.667  2.0841  1.9986 -1.3620
  697MOL0     H96137   4.180   2.890   3.628 -2.1942  1.5260  0.4979
  697MOL0     H96138   3.979   2.697   3.498 -1.1177  1.9523  0.1415
  697MOL0     H96139   4.008   2.859   3.451 -2.5585 -0.6105 -0.7272
  697MOL0     H96140   4.232   2.810   3.385  2.3256 -2.5148  1.8784
  697MOL0     H96141   4.224   2.646   3.425  0.7175  0.7612  2.0189
  697MOL0     H96142   4.030   2.749   3.206  1.2365 -0.6007 -3.5838
  697MOL0     H96143   4.182   2.640   3.192  1.0525 -1.6933  1.5110
  697MOL0     H96144   4.065   2.619   3.017  1.1365 -0.7907 -0.3851
  697MOL0     H96145   3.862   2.573   2.762  1.0090 -2.5007 -2.3252
  697MOL0     H96146   4.013   2.476   2.725 -0.0414 -0.4759  0.0657
  697MOL0     H96147   4.022   2.634   2.806  2.7282 -1.4384  1.4528
  697MOL0     H96148   3.536   2.332   2.797  1.3889 -0.9481  2.8298
  697MOL0     H96149   3.330   2.267   2.698 -0.4074 -0.9720 -0.5339
  697MOL0     H96150   3.057   1.997   2.632 -2.1797  1.0562  3.0491
  697MOL0     H96151   3.138   2.122   2.730  0.3906  0.6057 -0.0599
  697MOL0     H96152   3.015   2.201   2.533 -0.5499 -0.5487  1.0554
  697MOL0     H96153   3.180   2.265   2.530  0.9481 -1.0834  2.3052
  697MOL0     H96154   3.041   2.026   2.398  3.4268 -3.3230  3.6904
  697MOL0     H96155   3.212   2.072   2.361  1.0695  1.3616  2.8537
  697MOL0     H96156   3.112   2.315   2.320 -0.8094  0.9356 -3.0444
  697MOL0     H96157   2.957   2.226   2.318  0.3209  0.0098  1.5192
  697MOL0     H96158   3.198   2.219   2.155  1.5652 -2.6812  1.1215
  697MOL0     H96159   3.087   2.074   2.156  0.6403 -0.5654  3.1698
  697MOL0     H96160   2.963   2.341   2.068 -1.7666 -0.1632 -3.5235
  697MOL0     H96161   2.901   2.190   2.106 -0.5237  0.4025 -0.0489
  697MOL0     H96162   3.048   2.102   1.923 -1.8956  0.0361  5.5779
  697MOL0     H96163   3.093   2.274   1.876  1.6077 -1.6550 -1.6108
  697MOL0     H96164   2.815   2.159   1.870 -0.1427  0.7902  2.9578
  697MOL0     H96165   2.899   2.201   1.730  0.4374 -1.2884  0.3742
  697MOL0     H96166   3.469   1.859   2.685 -0.7140  0.9987 -2.5036
  697MOL0     H96167   3.679   1.936   2.801  1.0367  1.3110 -3.0358
  697MOL0     H96168   3.762   2.234   3.101 -0.3803 -0.7827  0.7786
  697MOL0     H96169   3.857   2.350   3.282 -0.5702  0.6786 -0.2215
  697MOL0     H96170   4.287   1.925   4.516  0.3256 -1.4350 -1.4843
  697MOL0     H96171   4.312   1.667   4.568 -0.6592 -0.1024  2.8410
  697MOL0     H96172   4.018   1.252   4.216 -0.3726  3.7898  1.2899
  697MOL0     H96173   4.133   1.004   4.219  0.8098  0.8954 -0.0008
  697MOL0     H96174   4.184   0.858   4.587  0.4095 -0.0306  0.0430
  697MOL0     H96175   4.130   0.734   4.467 -0.6287 -1.1837  1.7938
  697MOL0     H96176   4.304   0.643   4.596 -0.4728  1.2716 -0.1450
  697MOL0     H96177   4.397   0.789   4.599 -2.5872  0.5137  1.5001
  697MOL0     H96178   4.339   0.666   4.331 -2.2948 -1.8837  2.0325
  697MOL0     H96179   4.492   0.729   4.381  1.0301 -0.7588  0.9954
  697MOL0     H96180   4.529   0.511   4.369  0.8446  1.8404  0.1971
  697MOL0     H96181   4.399   0.443   4.468  0.1642 -1.0648  2.7280
  697MOL0     H96182   4.676   0.508   4.763 -1.0596 -2.6239  0.4057
  697MOL0     H96183   4.235   1.055   4.619 -0.6979  1.5775  0.9878
  697MOL0     H96184   4.246   1.360   4.670 -0.7031  2.4230 -1.6979
  697MOL0     H96185   4.071   1.366   4.688 -0.4505 -0.0780 -1.4713
  697MOL0     H96186   4.146   1.221   4.741  0.4502 -1.1062 -0.2020
  698MOL0     O96187   0.979   5.073   2.468 -0.5409 -0.2089  0.8294
  698MOL0     C96188   1.035   4.987   2.401 -0.1771 -0.3196 -0.2409
  698MOL0     O96189   0.978   4.870   2.377 -0.7450  0.7641  0.3285
  698MOL0     C96190   0.877   4.812   2.453 -0.1589  0.3513 -1.1800
  698MOL0     C96191   0.840   4.838   2.583 -1.0091  0.4740 -0.0408
  698MOL0     C96192   0.744   4.767   2.653  0.1510 -0.3952 -0.2403
  698MOL0     C96193   0.664   4.667   2.594  0.1420 -0.1315 -0.7219
  698MOL0     O96194   0.559   4.620   2.668 -0.5459 -0.1554  0.2324
  698MOL0     C96195   0.464   4.556   2.580  0.1082  0.3370 -1.0925
  698MOL0     C96196   0.345   4.506   2.666 -0.8096  0.7782  0.0577
  698MOL0     C96197   0.267   4.622   2.724  0.4125  0.2029 -0.8413
  698MOL0     C96198   0.170   4.563   2.834  0.3477 -0.1891 -0.4798
  698MOL0     C96199   0.105   4.662   2.930 -0.6063  0.2496 -0.8681
  698MOL0     C96200   0.211   4.753   2.992  0.2980 -0.3119 -0.5563
  698MOL0     C96201   0.161   4.804   3.125  2.0959 -0.1312 -0.0783
  698MOL0     C96202   0.099   4.947   3.102  0.1336  0.0626 -0.7847
  698MOL0     N96203   0.179   5.055   3.173  0.1787 -0.1484 -0.3155
  698MOL0     C96204   0.307   5.096   3.141 -0.6238 -0.9837 -0.4962
  698MOL0     C96205   0.358   5.151   3.250  0.4525 -0.5514 -0.4600
  698MOL0     C96206   0.496   5.200   3.281  0.0457  0.4385  0.9977
  698MOL0     C96207   0.504   5.353   3.286 -0.8433 -0.5636 -0.2289
  698MOL0     C96208   0.473   5.410   3.146  0.2477 -0.2755 -0.6286
  698MOL0     C96209   0.333   5.468   3.141  0.5299  0.3129 -0.2082
  698MOL0     O96210   0.328   5.588   3.207  0.1727 -0.1619 -1.3884
  698MOL0     C96211   0.204   5.642   3.232 -0.0070  0.4152  0.3681
  698MOL0     C96212   0.178   5.765   3.175 -0.0020 -0.5552  0.1010
  698MOL0     C96213   0.067   5.843   3.213 -1.4262  0.1304  0.1748
  698MOL0     C96214   0.053   5.984   3.145  0.7326 -0.8373  0.0141
  698MOL0     C96215  -0.015   5.800   3.316 -0.0005 -0.5006 -0.1707
  698MOL0     C96216  -0.124   5.881   3.374 -0.0963 -0.1180 -0.5621
  698MOL0     O96217  -0.214   5.939   3.288 -0.3794 -1.3468  0.3090
  698MOL0     C96218  -0.314   6.009   3.348 -0.6657 -0.0479  0.1742
  698MOL0     C96219  -0.435   5.934   3.362 -0.3492  0.1655 -0.0823
  698MOL0     C96220  -0.538   5.999   3.424 -0.5077 -0.6245  0.2047
  698MOL0     C96221  -0.525   6.137   3.470 -0.2730  0.1103  0.1172
  698MOL0     O96222  -0.647   6.190   3.513 -0.0060  0.0898 -0.6184
  698MOL0     C96223  -0.669   6.329   3.474  0.4119  0.3154 -0.8078
  698MOL0     C96224  -0.809   6.363   3.509  0.1256 -0.3621 -0.0035
  698MOL0     C96225  -0.844   6.488   3.426  0.5387 -0.3285 -0.4934
  698MOL0     C96226  -0.972   6.547   3.479  0.2445  0.0294 -0.3976
  698MOL0     C96227  -1.016   6.684   3.421 -0.1186 -0.5804  0.6170
  698MOL0     C96228  -1.161   6.720   3.461  0.4543  0.4224 -0.0193
  698MOL0     C96229  -1.220   6.839   3.387  0.0291  0.5754 -0.5704
  698MOL0     C96230  -1.172   6.972   3.450  0.2310  0.0329 -0.5704
  698MOL0    Cl96231  -1.212   6.983   3.624 -0.2712 -0.2130 -0.4804
  698MOL0     C96232  -0.398   6.196   3.467  0.5550 -0.0915  0.4753
  698MOL0     C96233  -0.287   6.139   3.404 -0.1169 -0.0946  0.1403
  698MOL0     O96234  -0.142   5.867   3.494  0.0858 -0.8914  0.2567
  698MOL0     C96235   0.011   5.680   3.381 -0.5603  0.1387  1.1105
  698MOL0     C96236   0.125   5.601   3.339  0.3571 -0.4776 -0.4363
  698MOL0     N96237   0.259   5.148   3.346  0.3557 -0.2928 -0.0292
  698MOL0     N96238   0.157   5.092   3.296  0.8334 -0.1429  0.1899
  698MOL0     C96239   0.712   4.624   2.467 -0.0363  0.0426  0.0800
  698MOL0     C96240   0.820   4.699   2.407  0.1580 -0.3443  0.1665
  698MOL0     C96241   1.168   5.021   2.337 -0.5693 -0.3407 -0.2808
  698MOL0     C96242   1.232   4.922   2.257 -0.4859 -0.4423 -1.0832
  698MOL0     C96243   1.356   4.937   2.190  0.5083 -0.3001  0.2414
  698MOL0     C96244   1.420   5.055   2.211 -0.9274  0.3002  0.0363
  698MOL0     O96245   1.543   5.087   2.151 -0.8694 -0.2810  0.7108
  698MOL0     C96246   1.604   5.000   2.061 -0.0102 -0.2432 -0.2639
  698MOL0     C96247   1.751   5.030   2.030 -0.5958 -0.2709 -0.2150
  698MOL0     C96248   1.771   5.146   1.927  0.4560 -0.0095 -0.5708
  698MOL0     C96249   1.910   5.142   1.861 -0.0308  0.3545 -0.2202
  698MOL0     C96250   1.925   5.233   1.746  0.3366 -0.3666 -0.4325
  698MOL0     C96251   1.941   5.295   1.637 -0.6396  0.0270  0.3386
  698MOL0     C96252   1.371   5.153   2.300  0.2884 -0.1855  0.1985
  698MOL0     C96253   1.255   5.135   2.371 -0.3099  0.3790  0.0487
  698MOL0     C96254   1.215   5.249   2.457  0.1504  0.5835 -0.3676
  698MOL0     H96255   0.896   4.912   2.639  0.0753 -0.7352  0.5318
  698MOL0     H96256   0.725   4.787   2.758  1.4149 -0.4636  0.0167
  698MOL0     H96257   0.509   4.466   2.538 -0.3167 -0.3188 -0.1780
  698MOL0     H96258   0.433   4.629   2.505  3.1908  3.1954  0.1430
  698MOL0     H96259   0.284   4.448   2.597  0.0386 -0.6339  0.4557
  698MOL0     H96260   0.380   4.439   2.745  2.1444 -0.4618 -2.1572
  698MOL0     H96261   0.342   4.688   2.768  1.2891 -0.9820 -0.5144
  698MOL0     H96262   0.209   4.680   2.651 -2.0500 -0.3722  0.5212
  698MOL0     H96263   0.096   4.493   2.795  1.8068 -1.9662 -0.1849
  698MOL0     H96264   0.230   4.505   2.904 -0.3499  0.3449  0.5846
  698MOL0     H96265   0.043   4.607   3.002 -0.5218 -0.9000 -1.6490
  698MOL0     H96266   0.040   4.724   2.868 -1.4648 -0.3549 -0.5896
  698MOL0     H96267   0.295   4.692   3.027 -2.3118 -1.6942  4.2652
  698MOL0     H96268   0.234   4.833   2.921 -0.5964 -0.8965 -1.5354
  698MOL0     H96269   0.250   4.814   3.187  2.8516 -3.1650 -0.5330
  698MOL0     H96270   0.084   4.744   3.175 -1.1203 -0.5429 -4.8827
  698MOL0     H96271   0.092   4.971   2.996 -0.6879 -0.1595 -0.7888
  698MOL0     H96272  -0.003   4.940   3.140  0.5699  0.2279  0.4963
  698MOL0     H96273   0.366   5.081   3.051 -0.4665  0.6128 -0.6863
  698MOL0     H96274   0.560   5.153   3.206 -1.1095  0.3109  0.0698
  698MOL0     H96275   0.531   5.154   3.374 -2.3601 -0.6491  1.4692
  698MOL0     H96276   0.431   5.398   3.353 -1.2237 -0.9908 -0.3531
  698MOL0     H96277   0.604   5.387   3.314 -0.5433  0.2042 -2.0434
  698MOL0     H96278   0.542   5.494   3.141  0.3195 -0.0222  2.7916
  698MOL0     H96279   0.512   5.342   3.069  2.4639 -0.0992  0.2742
  698MOL0     H96280   0.292   5.482   3.040 -1.2541 -2.1426  0.0877
  698MOL0     H96281   0.267   5.399   3.194 -2.3011  1.7994 -1.5784
  698MOL0     H96282   0.243   5.804   3.097 -2.6037  1.0595 -1.4540
  698MOL0     H96283   0.083   6.059   3.218 -2.8155 -2.3154  3.3421
  698MOL0     H96284  -0.050   6.005   3.113  0.6164 -0.5051  0.5919
  698MOL0     H96285   0.115   5.988   3.055 -0.6355  1.6497 -0.9099
  698MOL0     H96286  -0.444   5.839   3.310 -0.5553  0.7369 -1.1205
  698MOL0     H96287  -0.627   5.939   3.419  0.3877 -2.2820  2.3908
  698MOL0     H96288  -0.591   6.391   3.519  1.0973 -0.6446 -0.6338
  698MOL0     H96289  -0.655   6.329   3.365  1.8655 -2.7663 -0.7487
  698MOL0     H96290  -0.885   6.286   3.495 -0.5875  0.5371 -1.2457
  698MOL0     H96291  -0.804   6.398   3.612 -0.1886 -1.9157  0.5591
  698MOL0     H96292  -0.874   6.467   3.323 -1.4189 -1.0783  0.1877
  698MOL0     H96293  -0.762   6.559   3.412  0.3251 -0.5172 -3.2335
  698MOL0     H96294  -0.969   6.561   3.588  1.6912  1.6234 -0.5875
  698MOL0     H96295  -1.049   6.471   3.467  0.9959 -0.7887 -0.0725
  698MOL0     H96296  -0.935   6.755   3.442 -2.1335  1.2839  2.7990
  698MOL0     H96297  -1.017   6.668   3.313 -0.7291 -2.8926  0.9159
  698MOL0     H96298  -1.154   6.750   3.566 -1.8727  3.5729 -0.6130
  698MOL0     H96299  -1.229   6.637   3.444  0.5887  0.1858  0.5765
  698MOL0     H96300  -1.329   6.831   3.390  0.0726 -2.8400 -2.7276
  698MOL0     H96301  -1.184   6.839   3.283 -1.9287 -0.8805 -1.3055
  698MOL0     H96302  -1.226   7.053   3.399  1.9846  2.9537  1.8411
  698MOL0     H96303  -1.066   6.997   3.446  0.5192  0.3322  3.8476
  698MOL0     H96304  -0.393   6.297   3.509 -2.4635  0.1404  0.5015
  698MOL0     H96305  -0.194   6.194   3.390  0.3062 -0.6521  0.6826
  698MOL0     H96306  -0.047   5.645   3.466 -1.0111 -0.8432  0.4110
  698MOL0     H96307   0.150   5.505   3.384  0.7236  0.3983  1.3157
  698MOL0     H96308   0.656   4.553   2.407 -3.9275  0.9077  2.3276
  698MOL0     H96309   0.862   4.668   2.312 -2.4283 -0.3982 -1.0349
  698MOL0     H96310   1.176   4.832   2.233 -2.3531  1.3216 -4.0628
  698MOL0     H96311   1.392   4.852   2.134  0.6605 -1.5992  2.2175
  698MOL0     H96312   1.606   4.899   2.101  2.0564 -0.5652 -1.0690
  698MOL0     H96313   1.552   5.006   1.965  0.3402  0.5653 -0.4115
  698MOL0     H96314   1.775   4.935   1.980 -0.4948 -2.9747  4.3929
  698MOL0     H96315   1.824   5.047   2.109  0.9564  1.2293 -1.9042
  698MOL0     H96316   1.698   5.149   1.846  0.6736  3.8902 -0.7758
  698MOL0     H96317   1.755   5.243   1.974 -1.8620  2.1054 -5.1775
  698MOL0     H96318   1.924   5.038   1.828  0.7097  0.6270 -0.8124
  698MOL0     H96319   1.981   5.175   1.937  0.2290  1.2194 -0.8233
  698MOL0     H96320   1.958   5.354   1.550 -0.5109  1.9662  1.6116
  698MOL0     H96321   1.429   5.244   2.310 -1.3943  0.9881 -0.2750
  698MOL0     H96322   1.304   5.293   2.501 -2.3418  4.8400  0.9368
  698MOL0     H96323   1.163   5.330   2.406  0.7741  1.2663  0.0788
  698MOL0     H96324   1.158   5.212   2.543 -1.0178  1.1224 -0.8902
  699MOL0     O96325  10.712   6.879   1.903  0.0712  0.3985  0.2079
  699MOL0     C96326  10.681   6.957   1.815  0.6880  0.0889  0.8289
  699MOL0     O96327  10.714   7.090   1.812  0.4334  0.9163  0.4711
  699MOL0     C96328  10.801   7.132   1.916  0.2728  0.0823 -0.1245
  699MOL0     C96329  10.887   7.240   1.883 -0.0609  0.7360 -0.1491
  699MOL0     C96330  10.960   7.305   1.980 -0.7721 -0.9121 -0.6753
  699MOL0     C96331  10.960   7.264   2.111  0.6524 -0.7610 -0.0498
  699MOL0     O96332  11.024   7.326   2.216  0.5750  0.6735  0.1217
  699MOL0     C96333  11.135   7.414   2.189  0.1492 -0.6539 -0.0734
  699MOL0     C96334  11.088   7.552   2.223  0.8124  0.6802 -0.1073
  699MOL0     C96335  11.198   7.661   2.244  0.6456 -0.0830  0.3602
  699MOL0     C96336  11.298   7.636   2.363  0.2480 -0.4784  0.1529
  699MOL0     C96337  11.422   7.730   2.356  0.9939  1.2258 -0.7215
  699MOL0     C96338  11.497   7.718   2.485 -0.7767 -0.8277 -0.3523
  699MOL0     C96339  11.572   7.584   2.501  0.2409  0.3526  0.6851
  699MOL0     C96340  11.640   7.572   2.634 -0.3505 -0.5964  0.3324
  699MOL0     N96341  11.707   7.447   2.663  1.1853 -0.3079  0.4007
  699MOL0     C96342  11.675   7.322   2.618 -0.5153 -0.2748  0.0133
  699MOL0     C96343  11.760   7.238   2.680  0.0848 -0.6059  0.3608
  699MOL0     C96344  11.768   7.091   2.655  0.1469 -0.4744 -1.0382
  699MOL0     C96345  11.832   6.996   2.761  0.5824 -0.1257  0.2660
  699MOL0     C96346  11.849   6.854   2.717 -0.0619  0.8355  0.1406
  699MOL0     C96347  11.962   6.826   2.612  0.6320 -0.2098 -0.1411
  699MOL0     O96348  11.907   6.762   2.501 -0.5136 -0.0432  0.9879
  699MOL0     C96349  11.860   6.630   2.504  0.5732 -0.0225  0.1989
  699MOL0     C96350  11.873   6.549   2.611  0.0959  0.5315 -0.3200
  699MOL0     C96351  11.841   6.411   2.602  0.3235  0.3620  0.6287
  699MOL0     C96352  11.872   6.322   2.724 -0.3265 -0.6492 -0.5093
  699MOL0     C96353  11.772   6.374   2.488 -0.2069  0.8262 -0.4164
  699MOL0     C96354  11.694   6.251   2.480 -0.5019  0.2884 -0.4579
  699MOL0     O96355  11.578   6.262   2.405 -0.2633  1.0540 -0.2267
  699MOL0     C96356  11.477   6.177   2.375  0.2541  0.6716  0.4975
  699MOL0     C96357  11.441   6.076   2.460  0.2120  0.0720 -0.1215
  699MOL0     C96358  11.349   5.977   2.429  0.1993  0.1350  0.7527
  699MOL0     C96359  11.297   5.976   2.295 -0.6027  0.3737 -0.0931
  699MOL0     O96360  11.211   5.885   2.246 -1.2862 -0.7167  0.3492
  699MOL0     C96361  11.123   5.807   2.340 -0.3601 -0.8594 -0.4171
  699MOL0     C96362  11.011   5.749   2.253  0.3583  0.3741 -0.4119
  699MOL0     C96363  10.905   5.697   2.353 -0.1520 -0.1554  0.5499
  699MOL0     C96364  10.965   5.580   2.438  0.1866 -0.0586 -0.1663
  699MOL0     C96365  10.865   5.494   2.523  0.5845 -0.0610 -0.0863
  699MOL0     C96366  10.908   5.353   2.560 -0.2443  0.3560 -0.5701
  699MOL0     C96367  10.788   5.262   2.570 -0.1244  0.9635  0.1380
  699MOL0     C96368  10.821   5.137   2.641  0.1165  0.8655  0.0236
  699MOL0    Cl96369  10.954   5.041   2.564  0.0022 -0.6712  0.1473
  699MOL0     C96370  11.327   6.072   2.204 -0.8426 -0.5719 -0.8743
  699MOL0     C96371  11.415   6.178   2.244  0.5641  0.0841 -0.5173
  699MOL0     O96372  11.737   6.150   2.538  0.8268  0.0443 -0.2105
  699MOL0     C96373  11.758   6.452   2.377  0.7544 -0.4326 -0.7744
  699MOL0     C96374  11.813   6.576   2.380 -0.0230  0.4626 -0.7706
  699MOL0     N96375  11.843   7.309   2.764  0.1821 -0.4281 -0.1953
  699MOL0     N96376  11.798   7.438   2.758 -0.6995 -0.4816  0.1892
  699MOL0     C96377  10.890   7.145   2.151 -0.2535 -0.0808 -0.7660
  699MOL0     C96378  10.802   7.100   2.055 -1.0671  0.0120 -0.4817
  699MOL0     C96379  10.595   6.896   1.709 -0.2656  0.5345 -0.7818
  699MOL0     C96380  10.543   7.009   1.540 -0.1968  0.8280  0.2058
  699MOL0     C96381  10.431   6.920   1.387  0.8200  0.3057  0.4586
  699MOL0     C96382  10.368   6.717   1.402 -1.5079  0.4212 -0.8945
  699MOL0     O96383  10.305   6.669   1.292  0.1786 -0.5668  0.0565
  699MOL0     C96384  10.263   6.537   1.305 -0.4137 -0.0680 -0.7046
  699MOL0     C96385  10.212   6.481   1.176  0.1166 -0.8866 -0.2595
  699MOL0     C96386  10.099   6.567   1.109  0.2870 -0.4106 -0.0672
  699MOL0     C96387   9.987   6.484   1.040  0.2420 -1.2894 -0.1201
  699MOL0     C96388   9.853   6.529   1.065 -0.4341 -0.4123  0.3734
  699MOL0     C96389   9.730   6.573   1.070  0.9052 -0.3246 -1.1037
  699MOL0     C96390  10.426   6.598   1.574  0.7912  0.5257 -0.0908
  699MOL0     C96391  10.536   6.687   1.727  0.3904 -0.1008 -0.5692
  699MOL0     C96392  10.604   6.617   1.846  0.6729 -0.3770  0.0726
  699MOL0     H96393  10.895   7.284   1.784  3.5224 -0.6530 -0.6057
  699MOL0     H96394  11.004   7.400   1.953 -3.8488  1.0449  0.6149
  699MOL0     H96395  11.170   7.402   2.086  0.5059 -0.2754  0.0064
  699MOL0     H96396  11.212   7.406   2.266 -1.2122  2.5868  1.8263
  699MOL0     H96397  11.020   7.579   2.142  0.5272  0.4211  0.0429
  699MOL0     H96398  11.021   7.550   2.309  0.0124 -2.9193 -0.6645
  699MOL0     H96399  11.258   7.652   2.153  0.1007 -0.4036  0.0303
  699MOL0     H96400  11.157   7.762   2.243 -0.7199 -0.6211  0.5752
  699MOL0     H96401  11.237   7.655   2.452  0.4433 -1.0127  0.4037
  699MOL0     H96402  11.328   7.532   2.351 -0.9050 -0.9975  1.5198
  699MOL0     H96403  11.384   7.832   2.350 -0.1068  0.8181 -1.0190
  699MOL0     H96404  11.483   7.713   2.268 -1.9899  2.4415 -3.2009
  699MOL0     H96405  11.577   7.793   2.482  0.2871 -1.6915  2.7216
  699MOL0     H96406  11.436   7.737   2.573 -1.9171 -1.6587 -0.9426
  699MOL0     H96407  11.638   7.571   2.415 -1.2956  0.7055 -0.6003
  699MOL0     H96408  11.502   7.499   2.498  2.9614 -2.0121  0.3519
  699MOL0     H96409  11.711   7.655   2.635  1.5507 -2.1269  2.1854
  699MOL0     H96410  11.572   7.604   2.713  1.7281  2.3127  1.1154
  699MOL0     H96411  11.604   7.288   2.543 -0.1753  1.0383 -0.9340
  699MOL0     H96412  11.819   7.076   2.559  0.9881  1.5194 -0.9555
  699MOL0     H96413  11.667   7.055   2.637 -0.6378  1.8355 -1.6916
  699MOL0     H96414  11.934   7.031   2.779 -0.3588  2.9831  0.0442
  699MOL0     H96415  11.792   6.994   2.862  0.6808 -1.5566  0.3019
  699MOL0     H96416  11.881   6.793   2.802 -1.9921 -5.5989 -3.1000
  699MOL0     H96417  11.753   6.815   2.682  0.1198 -0.8735  1.3882
  699MOL0     H96418  11.995   6.922   2.571  0.1196  1.5481  3.2355
  699MOL0     H96419  12.056   6.778   2.644  0.3962 -0.8068 -0.3333
  699MOL0     H96420  11.920   6.586   2.701  0.7875  0.9339 -0.8366
  699MOL0     H96421  11.788   6.323   2.795  0.7639 -0.4887  0.8355
  699MOL0     H96422  11.967   6.351   2.770 -1.5957  1.6443  0.8640
  699MOL0     H96423  11.891   6.217   2.700 -2.2467 -0.9200 -1.0180
  699MOL0     H96424  11.494   6.073   2.554  1.8756  1.1378 -0.9725
  699MOL0     H96425  11.332   5.902   2.505  0.0954 -0.0147  0.5841
  699MOL0     H96426  11.188   5.736   2.392  1.3190  0.5060 -0.5380
  699MOL0     H96427  11.087   5.884   2.409  2.2816  0.0085  0.1276
  699MOL0     H96428  10.958   5.819   2.188 -1.9264  0.2567  1.1788
  699MOL0     H96429  11.043   5.655   2.206  0.1789 -0.3695  0.9025
  699MOL0     H96430  10.809   5.670   2.306 -0.2119 -0.3696  0.7956
  699MOL0     H96431  10.877   5.784   2.413  0.9801  1.6303 -1.3936
  699MOL0     H96432  11.042   5.605   2.513  0.0326  0.7126 -0.2620
  699MOL0     H96433  11.000   5.503   2.369 -0.8344  0.7323 -1.5947
  699MOL0     H96434  10.839   5.547   2.614 -1.1613 -0.7865 -0.1188
  699MOL0     H96435  10.774   5.490   2.462  1.0401 -0.7741 -0.7458
  699MOL0     H96436  10.964   5.353   2.653 -2.1928 -0.2535  0.6624
  699MOL0     H96437  10.957   5.303   2.476 -1.4109  0.5166 -1.3806
  699MOL0     H96438  10.753   5.227   2.473  0.5883 -0.0762  0.2272
  699MOL0     H96439  10.703   5.317   2.612 -0.0663  2.3735 -1.5109
  699MOL0     H96440  10.730   5.076   2.636 -0.6906  2.0334  0.1018
  699MOL0     H96441  10.850   5.153   2.745 -0.5888 -0.8431  0.5170
  699MOL0     H96442  11.287   6.069   2.103  0.4949 -0.5469 -1.4285
  699MOL0     H96443  11.433   6.260   2.175  0.6947  0.4346 -0.0789
  699MOL0     H96444  11.716   6.403   2.290  0.9569 -3.8422  0.8877
  699MOL0     H96445  11.819   6.625   2.283  1.7843 -0.2450 -1.0565
  699MOL0     H96446  10.880   7.119   2.256  0.8041 -1.5063 -0.9845
  699MOL0     H96447  10.727   7.032   2.094  0.6168 -0.9373  1.3058
  699MOL0     H96448  10.572   7.112   1.524 -0.1107  0.6245 -1.1033
  699MOL0     H96449  10.418   6.974   1.294 -0.9320 -0.8994 -0.0611
  699MOL0     H96450  10.342   6.473   1.346  0.8198  1.4594 -0.6019
  699MOL0     H96451  10.186   6.536   1.383  1.6912  0.2705  1.4970
  699MOL0     H96452  10.150   6.401   1.219  2.1200 -1.4443  1.7566
  699MOL0     H96453  10.291   6.447   1.109  2.3376  0.2398  1.6648
  699MOL0     H96454  10.062   6.620   1.197  1.5150 -2.7235  1.9654
  699MOL0     H96455  10.127   6.644   1.037 -1.7217 -2.7026 -3.6018
  699MOL0     H96456   9.974   6.377   1.060 -0.2684 -1.7102 -2.3765
  699MOL0     H96457  10.014   6.482   0.934 -0.5773  1.4297 -0.4594
  699MOL0     H96458   9.626   6.595   1.065  1.0418  0.3533 -1.0580
  699MOL0     H96459  10.374   6.504   1.581  1.3165  0.2655  0.4817
  699MOL0     H96460  10.585   6.673   1.938 -2.6132 -0.5993 -0.3296
  699MOL0     H96461  10.558   6.517   1.851  4.6012 -2.3389  0.4797
  699MOL0     H96462  10.710   6.599   1.828  0.5851 -0.5967 -0.2347
  700MOL0     O96463   9.756  11.074   9.085  1.1831 -0.8091 -0.0126
  700MOL0     C96464   9.835  11.121   9.000  0.0209  0.0673 -0.0215
  700MOL0     O96465   9.942  11.204   9.032 -0.2395  1.0006  0.1897
  700MOL0     C96466   9.981  11.233   9.156  0.9779 -0.5746  0.3645
  700MOL0     C96467  10.111  11.205   9.188  0.8582 -0.8259 -1.1036
  700MOL0     C96468  10.145  11.220   9.325 -0.9341  0.3170  0.1668
  700MOL0     C96469  10.057  11.263   9.432 -0.6309 -1.2617 -0.2805
  700MOL0     O96470  10.081  11.253   9.568 -0.7633 -0.0674 -0.3367
  700MOL0     C96471  10.001  11.317   9.673  0.7759  0.9307 -1.0235
  700MOL0     C96472  10.075  11.292   9.809  0.1486 -0.0736  0.6709
  700MOL0     C96473   9.993  11.338   9.925 -0.1729 -0.4532 -0.6345
  700MOL0     C96474  10.070  11.337  10.061 -0.0171 -0.0978 -0.4743
  700MOL0     C96475   9.980  11.378  10.166  0.8555  0.4458 -0.0082
  700MOL0     C96476  10.034  11.471  10.270 -0.7770  0.2993 -0.0504
  700MOL0     C96477  10.144  11.400  10.345 -0.9960  0.7919 -0.0200
  700MOL0     C96478  10.236  11.502  10.422  1.3796  0.6332 -0.1803
  700MOL0     N96479  10.359  11.531  10.347 -0.0691 -0.5468 -0.8009
  700MOL0     C96480  10.381  11.620  10.247 -0.4657  0.0128 -0.0090
  700MOL0     C96481  10.499  11.585  10.187  0.5235  0.0890 -0.0287
  700MOL0     C96482  10.583  11.645  10.079 -1.6154 -0.4666 -0.3600
  700MOL0     C96483  10.599  11.565   9.949  0.2926 -0.2409  0.4389
  700MOL0     C96484  10.677  11.632   9.836 -0.3364  0.0937 -0.7866
  700MOL0     C96485  10.673  11.560   9.703 -0.1273 -0.6873  0.2611
  700MOL0     O96486  10.697  11.660   9.600  0.4580  0.0717 -0.4008
  700MOL0     C96487  10.653  11.621   9.479  1.0299 -1.0174  0.4965
  700MOL0     C96488  10.641  11.488   9.426  0.2486 -0.1680 -0.0925
  700MOL0     C96489  10.586  11.465   9.296  0.2742  0.7679 -1.2038
  700MOL0     C96490  10.582  11.321   9.235  0.0724  1.0932  0.5500
  700MOL0     C96491  10.536  11.571   9.212 -0.5745 -0.4374 -0.8638
  700MOL0     C96492  10.474  11.557   9.078 -0.1391  0.5110 -1.0098
  700MOL0     O96493  10.403  11.443   9.053 -0.1094 -0.1616 -0.0614
  700MOL0     C96494  10.316  11.440   8.942 -0.5717  0.0225  0.5112
  700MOL0     C96495  10.314  11.327   8.865 -1.5119  0.3598  0.3238
  700MOL0     C96496  10.234  11.328   8.742 -1.1154 -0.1341 -0.2091
  700MOL0     C96497  10.161  11.443   8.715  0.5160 -0.7208 -0.0481
  700MOL0     O96498  10.077  11.436   8.611  0.1626  0.3431  0.4804
  700MOL0     C96499  10.094  11.533   8.507  0.8943  0.6186 -0.4098
  700MOL0     C96500   9.968  11.617   8.497  0.8450 -0.7981 -0.5469
  700MOL0     C96501   9.984  11.721   8.387  0.5156 -0.1751 -1.3090
  700MOL0     C96502   9.900  11.843   8.408  0.2018  0.0547 -0.9100
  700MOL0     C96503   9.874  11.932   8.293  0.2638 -0.0893 -0.4200
  700MOL0     C96504   9.825  12.067   8.335 -0.8988 -0.1002 -0.1528
  700MOL0     C96505   9.804  12.158   8.208 -0.2167 -0.1872  0.1074
  700MOL0     C96506   9.652  12.162   8.186  0.3993  0.0796 -0.1972
  700MOL0    Cl96507   9.639  12.048   8.042 -0.4789  0.0179  0.3509
  700MOL0     C96508  10.168  11.559   8.796  0.2228  0.5961  0.4220
  700MOL0     C96509  10.243  11.553   8.914 -0.2742 -1.2037 -0.0228
  700MOL0     O96510  10.509  11.649   8.997 -0.1909  0.7547 -0.5263
  700MOL0     C96511  10.555  11.701   9.264 -0.0287 -0.3433  0.3666
  700MOL0     C96512  10.613  11.726   9.390 -0.9128  0.3783  0.5394
  700MOL0     N96513  10.546  11.476  10.255 -0.2267 -0.7446  0.6038
  700MOL0     N96514  10.463  11.445  10.348  0.1296 -0.2642 -0.0008
  700MOL0     C96515   9.932  11.297   9.392 -0.4038  0.2913  0.3944
  700MOL0     C96516   9.890  11.292   9.253  0.2703  0.8021  0.0876
  700MOL0     C96517   9.806  11.097   8.851 -1.0899  0.2077  0.2832
  700MOL0     C96518   9.864  11.191   8.761 -0.7486 -0.0539 -0.3704
  700MOL0     C96519   9.868  11.169   8.624  0.2357 -0.0780 -0.4689
  700MOL0     C96520   9.815  11.052   8.567  0.4709  0.6442  0.6590
  700MOL0     O96521   9.813  11.006   8.439  0.4318 -1.3298 -0.2135
  700MOL0     C96522   9.876  11.079   8.337 -0.0613 -0.0053  0.2884
  700MOL0     C96523   9.951  10.984   8.254 -0.1701  1.1990  0.3648
  700MOL0     C96524   9.863  10.854   8.209 -0.2718 -0.0411 -0.0996
  700MOL0     C96525   9.888  10.726   8.301 -0.8980  0.0614  0.5456
  700MOL0     C96526   9.905  10.611   8.215 -0.8979 -0.3429  1.3116
  700MOL0     C96527   9.930  10.514   8.144 -0.3521 -0.0959 -0.1597
  700MOL0     C96528   9.754  10.960   8.650  0.1590 -0.6900 -1.0891
  700MOL0     C96529   9.759  10.974   8.794  0.2121  0.2601 -0.2484
  700MOL0     C96530   9.698  10.863   8.871 -0.5146 -0.3382  0.0350
  700MOL0     H96531  10.178  11.174   9.108  0.1988 -1.9456 -1.2452
  700MOL0     H96532  10.248  11.197   9.352 -0.4749 -0.8301 -2.3134
  700MOL0     H96533   9.895  11.292   9.682  0.3625  2.4513 -1.4201
  700MOL0     H96534  10.000  11.424   9.653 -5.2471  1.2918 -0.4235
  700MOL0     H96535  10.081  11.183   9.806 -3.0195 -0.3445  0.9748
  700MOL0     H96536  10.175  11.338   9.801 -0.4911  1.4841  1.1348
  700MOL0     H96537   9.963  11.442   9.911  1.3659 -0.2299 -2.7517
  700MOL0     H96538   9.903  11.277   9.931 -0.4442  0.0319  0.4348
  700MOL0     H96539  10.117  11.239  10.076  1.3411  0.8597  2.0901
  700MOL0     H96540  10.152  11.409  10.055  0.4108 -0.0104  3.5195
  700MOL0     H96541   9.929  11.294  10.212  0.9494  1.0591  1.2569
  700MOL0     H96542   9.894  11.435  10.130 -0.8319 -1.8720  0.1488
  700MOL0     H96543  10.072  11.563  10.223 -2.7412 -0.1567 -2.7804
  700MOL0     H96544   9.946  11.499  10.328 -1.9855 -2.6846 -0.2313
  700MOL0     H96545  10.211  11.337  10.285 -0.3056  0.0055  1.5179
  700MOL0     H96546  10.103  11.325  10.413  4.8738 -3.2880 -0.2707
  700MOL0     H96547  10.175  11.592  10.429  1.6929  0.7558  1.1026
  700MOL0     H96548  10.267  11.464  10.519 -3.6547 -0.0847  1.3902
  700MOL0     H96549  10.320  11.707  10.222  0.0557  0.3536 -0.1164
  700MOL0     H96550  10.681  11.650  10.126 -1.1226  0.1656 -1.4050
  700MOL0     H96551  10.536  11.742  10.059  0.6496  1.0010  0.9886
  700MOL0     H96552  10.645  11.467   9.967  2.0616 -0.0518 -2.5181
  700MOL0     H96553  10.501  11.555   9.902  0.1345 -3.4993  1.2412
  700MOL0     H96554  10.637  11.732   9.815  0.1732  0.1776 -1.4018
  700MOL0     H96555  10.782  11.638   9.865 -0.6751  0.4390  0.4562
  700MOL0     H96556  10.758  11.492   9.692  2.3172  2.4424 -1.7655
  700MOL0     H96557  10.578  11.508   9.685 -1.4100  0.3809  3.2505
  700MOL0     H96558  10.665  11.402   9.489  2.4050  0.2747 -0.2125
  700MOL0     H96559  10.635  11.314   9.140  1.4407 -0.2782  1.3598
  700MOL0     H96560  10.481  11.284   9.218  0.3906  1.1632 -1.7826
  700MOL0     H96561  10.639  11.250   9.296 -0.2374  2.1625  2.1669
  700MOL0     H96562  10.366  11.238   8.898 -0.1045  0.7279 -0.8069
  700MOL0     H96563  10.227  11.244   8.674 -1.6952 -0.5203  0.3224
  700MOL0     H96564  10.189  11.582   8.528  0.2386  1.0684  1.7665
  700MOL0     H96565  10.112  11.491   8.408 -0.2392  1.8869 -1.1800
  700MOL0     H96566   9.879  11.560   8.469 -0.6473  1.3652 -0.4549
  700MOL0     H96567   9.938  11.655   8.595  0.4299 -3.4697  0.4653
  700MOL0     H96568   9.936  11.675   8.300 -0.4615 -0.7542 -0.4846
  700MOL0     H96569  10.090  11.743   8.375  0.5813  0.4114  0.1189
  700MOL0     H96570   9.941  11.908   8.486 -3.2701  0.8870  0.4241
  700MOL0     H96571   9.803  11.813   8.450  0.3514 -0.4999 -0.9510
  700MOL0     H96572   9.963  11.941   8.229 -0.2927  0.6984 -1.1099
  700MOL0     H96573   9.795  11.899   8.225  0.8820  3.3872 -3.1201
  700MOL0     H96574   9.909  12.109   8.391 -0.6041  0.7470 -1.2039
  700MOL0     H96575   9.748  12.058   8.412  1.9537 -0.4374  2.9075
  700MOL0     H96576   9.857  12.113   8.124  0.1135 -0.7966  0.6246
  700MOL0     H96577   9.848  12.258   8.209 -0.8898  0.1149 -0.3359
  700MOL0     H96578   9.608  12.261   8.168 -1.6389 -0.2702  2.3191
  700MOL0     H96579   9.593  12.121   8.269  1.0678 -0.4077  0.0425
  700MOL0     H96580  10.112  11.650   8.777 -0.0806  0.3162 -0.0395
  700MOL0     H96581  10.243  11.647   8.968 -0.9946  0.0231 -2.0461
  700MOL0     H96582  10.532  11.794   9.213  0.2359 -0.7633 -0.5326
  700MOL0     H96583  10.624  11.825   9.433 -1.3949  0.0304  1.5033
  700MOL0     H96584   9.849  11.320   9.457  0.3466 -0.1573  1.5426
  700MOL0     H96585   9.790  11.321   9.225 -0.8564 -1.2886  1.6372
  700MOL0     H96586   9.931  11.271   8.790  3.0258 -2.6429 -1.2179
  700MOL0     H96587   9.913  11.250   8.568 -0.2885  0.8600  0.4394
  700MOL0     H96588   9.795  11.127   8.281 -0.3800  0.5865  1.2442
  700MOL0     H96589   9.943  11.155   8.379  0.2835  0.1501 -0.5234
  700MOL0     H96590  10.044  10.957   8.305 -0.5036 -0.3536  0.1947
  700MOL0     H96591   9.982  11.033   8.162 -0.5127  2.8462  1.0823
  700MOL0     H96592   9.756  10.871   8.223 -0.3934 -1.4344  0.9160
  700MOL0     H96593   9.882  10.838   8.103 -4.4899 -0.6480 -0.9279
  700MOL0     H96594   9.808  10.708   8.373 -0.0767 -1.5643  1.0892
  700MOL0     H96595   9.980  10.747   8.357 -0.8199  1.4994 -0.0723
  700MOL0     H96596   9.935  10.434   8.073 -3.2281 -0.1252 -0.4582
  700MOL0     H96597   9.720  10.862   8.617  0.5114 -0.8314 -1.0290
  700MOL0     H96598   9.782  10.813   8.921 -0.1280 -0.6572 -0.9189
  700MOL0     H96599   9.630  10.907   8.945  0.6450 -0.3809  1.1608
  700MOL0     H96600   9.642  10.793   8.809 -0.9875 -0.6630  0.8170
  701MOL0     O96601   5.157   8.203   1.214 -0.0686  0.3726 -0.5320
  701MOL0     C96602   5.237   8.285   1.255  0.2790 -0.4314  0.2087
  701MOL0     O96603   5.228   8.415   1.217 -0.1018  0.6480  0.1329
  701MOL0     C96604   5.250   8.429   1.085 -0.5055 -0.6952  0.6468
  701MOL0     C96605   5.153   8.498   1.015  0.0802 -0.3992  0.6928
  701MOL0     C96606   5.165   8.530   0.883 -0.6670  0.2033 -0.6975
  701MOL0     C96607   5.282   8.495   0.818 -0.5907 -0.5621 -0.2168
  701MOL0     O96608   5.297   8.509   0.681  0.0884 -0.0996 -0.6368
  701MOL0     C96609   5.221   8.610   0.615  0.7524 -0.0172 -0.2305
  701MOL0     C96610   5.287   8.641   0.481 -0.9842 -0.7065  0.1758
  701MOL0     C96611   5.212   8.737   0.385  0.0263 -0.4339  0.2499
  701MOL0     C96612   5.061   8.722   0.377 -0.2616 -0.5155  0.4407
  701MOL0     C96613   5.004   8.818   0.280  0.7656 -0.1091 -0.0762
  701MOL0     C96614   4.858   8.800   0.251  0.1615  0.4150  0.2181
  701MOL0     C96615   4.764   8.837   0.364  0.3972  0.3244  0.1220
  701MOL0     C96616   4.649   8.734   0.368 -0.3189 -0.3122 -0.7055
  701MOL0     N96617   4.571   8.739   0.495 -0.5960 -0.3712  0.1144
  701MOL0     C96618   4.555   8.633   0.574 -0.6219  0.4609 -0.2895
  701MOL0     C96619   4.462   8.664   0.665 -0.1910  0.0361  0.7654
  701MOL0     C96620   4.401   8.604   0.785  0.1161  0.5864 -0.8621
  701MOL0     C96621   4.315   8.479   0.752 -0.1563 -0.0620 -0.7939
  701MOL0     C96622   4.280   8.424   0.892  0.4384 -0.8096 -0.5811
  701MOL0     C96623   4.214   8.289   0.885 -0.2211 -0.1460  0.2435
  701MOL0     O96624   4.320   8.204   0.841  1.0190 -0.1475  0.9234
  701MOL0     C96625   4.305   8.073   0.831 -0.6764  0.1248  1.3185
  701MOL0     C96626   4.193   8.011   0.777 -0.3735 -0.5324  0.1159
  701MOL0     C96627   4.191   7.873   0.754  0.8269 -0.2353 -0.6225
  701MOL0     C96628   4.074   7.819   0.680 -0.3597  0.0031  0.6407
  701MOL0     C96629   4.295   7.795   0.789 -0.5013  1.0365 -0.9975
  701MOL0     C96630   4.302   7.649   0.753 -0.7066 -1.0972  0.3841
  701MOL0     O96631   4.190   7.578   0.758  0.2864  0.3191 -0.0676
  701MOL0     C96632   4.190   7.451   0.726  0.4956 -0.0012 -0.0349
  701MOL0     C96633   4.218   7.408   0.593 -0.0999 -1.1775  0.8386
  701MOL0     C96634   4.190   7.282   0.548  0.5001  0.1934  0.5505
  701MOL0     C96635   4.128   7.194   0.644 -0.1990  0.7724 -0.2527
  701MOL0     O96636   4.096   7.072   0.613  0.4956  0.3999 -0.1983
  701MOL0     C96637   4.214   7.005   0.570  0.3451 -0.1267  0.2648
  701MOL0     C96638   4.168   6.921   0.448  0.4637 -0.4042  0.2137
  701MOL0     C96639   4.244   6.789   0.439  0.0407  0.2473 -1.0306
  701MOL0     C96640   4.249   6.716   0.308 -1.0286 -0.0961  0.0668
  701MOL0     C96641   4.358   6.614   0.305 -0.7504 -0.0416 -0.2649
  701MOL0     C96642   4.365   6.534   0.187 -0.2807 -0.4882 -0.2014
  701MOL0     C96643   4.474   6.436   0.196  0.9264  0.9495  0.0120
  701MOL0     C96644   4.476   6.374   0.054  0.5173  0.4581 -0.7764
  701MOL0    Cl96645   4.536   6.504  -0.067 -0.2117 -0.2670 -0.6865
  701MOL0     C96646   4.107   7.230   0.771 -0.5740 -0.0526  0.4137
  701MOL0     C96647   4.130   7.359   0.813  0.5077 -0.6083 -0.2531
  701MOL0     O96648   4.416   7.609   0.747 -0.8924  0.8334 -0.7930
  701MOL0     C96649   4.417   7.861   0.840  0.6914  0.6011 -0.0569
  701MOL0     C96650   4.420   7.997   0.860 -0.1346 -0.3660  0.2311
  701MOL0     N96651   4.419   8.795   0.638  0.4871  0.8811  0.0001
  701MOL0     N96652   4.482   8.835   0.528  0.1658  0.3755  0.0474
  701MOL0     C96653   5.379   8.419   0.892  0.7415 -0.0410  0.3176
  701MOL0     C96654   5.368   8.391   1.025  0.1950 -0.3892  0.5490
  701MOL0     C96655   5.319   8.261   1.380  0.0171  0.1400  1.5505
  701MOL0     C96656   5.400   8.363   1.432  0.8701 -0.8726 -0.2146
  701MOL0     C96657   5.462   8.348   1.558 -0.2851  0.1109  0.6847
  701MOL0     C96658   5.460   8.237   1.629  0.3060  0.0361  0.5872
  701MOL0     O96659   5.548   8.227   1.736 -0.3515  0.0365 -0.1070
  701MOL0     C96660   5.542   8.114   1.831  0.4825  0.4586  0.0423
  701MOL0     C96661   5.410   8.137   1.899  1.4886 -0.0187  0.4338
  701MOL0     C96662   5.368   8.022   1.990  0.0624 -0.4201 -0.4372
  701MOL0     C96663   5.237   8.052   2.071  0.3926  0.4627 -1.9528
  701MOL0     C96664   5.200   7.937   2.160 -0.4830 -0.3188  0.4643
  701MOL0     C96665   5.189   7.847   2.235 -0.4420 -0.0637 -0.2180
  701MOL0     C96666   5.390   8.130   1.569  0.3490 -0.1293  0.5273
  701MOL0     C96667   5.323   8.135   1.444  0.5655  0.4828  0.1172
  701MOL0     C96668   5.243   8.011   1.399 -0.6925  0.6417  0.9308
  701MOL0     H96669   5.062   8.540   1.055  0.2001  0.6617 -0.0848
  701MOL0     H96670   5.079   8.571   0.830 -0.5684  0.6181 -0.5427
  701MOL0     H96671   5.218   8.705   0.669 -2.3354 -1.3788  2.3818
  701MOL0     H96672   5.117   8.576   0.604  1.2070 -1.3717 -0.4629
  701MOL0     H96673   5.387   8.675   0.509  0.6433 -3.2371 -2.0386
  701MOL0     H96674   5.307   8.551   0.422  1.5685 -0.6331  0.7943
  701MOL0     H96675   5.230   8.839   0.421  0.0378 -0.5426  0.5512
  701MOL0     H96676   5.249   8.727   0.283  2.0897  3.0477  0.5040
  701MOL0     H96677   5.027   8.622   0.348  0.1856 -0.4601 -0.2717
  701MOL0     H96678   5.025   8.736   0.480 -2.3135 -1.0663 -0.1535
  701MOL0     H96679   5.052   8.813   0.182 -1.1200  0.4926 -1.0659
  701MOL0     H96680   5.016   8.918   0.322  4.2032  0.2575 -1.5718
  701MOL0     H96681   4.815   8.850   0.164 -2.8260 -1.6350  0.3719
  701MOL0     H96682   4.851   8.694   0.222  1.5979  0.8842 -2.1895
  701MOL0     H96683   4.732   8.941   0.359 -1.5521 -0.1164  2.1821
  701MOL0     H96684   4.823   8.828   0.456  1.2139 -0.3351 -0.4437
  701MOL0     H96685   4.590   8.747   0.277  0.6719  2.7976 -1.0244
  701MOL0     H96686   4.695   8.637   0.348  0.8218 -0.8940  3.6569
  701MOL0     H96687   4.600   8.535   0.585 -1.6644  0.1037  1.0046
  701MOL0     H96688   4.342   8.681   0.835  0.6663  1.2108 -1.1703
  701MOL0     H96689   4.479   8.578   0.858  0.8435  1.5539 -1.2655
  701MOL0     H96690   4.235   8.517   0.687 -0.8438  1.1928  0.7278
  701MOL0     H96691   4.366   8.409   0.684 -0.1530  0.1238 -0.9869
  701MOL0     H96692   4.369   8.414   0.955  0.4598  1.1514 -0.2377
  701MOL0     H96693   4.222   8.503   0.941  3.9347  1.5624  0.0794
  701MOL0     H96694   4.185   8.256   0.985 -1.6819  0.6724  0.1115
  701MOL0     H96695   4.125   8.296   0.821 -0.6426 -0.6868  0.7556
  701MOL0     H96696   4.109   8.073   0.749 -0.1583 -0.3797 -0.2052
  701MOL0     H96697   4.035   7.898   0.615 -1.9993  0.0814  1.6587
  701MOL0     H96698   4.003   7.783   0.755  1.2845 -3.1127  0.8666
  701MOL0     H96699   4.085   7.727   0.623 -1.9388  0.3926 -0.3582
  701MOL0     H96700   4.277   7.471   0.528 -2.5198 -0.5189 -0.8547
  701MOL0     H96701   4.209   7.240   0.450 -2.8479  0.0733 -0.1581
  701MOL0     H96702   4.302   7.061   0.538  0.5851 -0.4866  0.2873
  701MOL0     H96703   4.233   6.944   0.659  0.2980  1.6333  1.5155
  701MOL0     H96704   4.060   6.910   0.455  0.1378  2.6169  1.3750
  701MOL0     H96705   4.188   6.981   0.359 -1.3918  0.6942  0.4919
  701MOL0     H96706   4.190   6.724   0.508  3.2140 -0.8312  0.6209
  701MOL0     H96707   4.343   6.793   0.484 -1.5829  1.7480  2.8455
  701MOL0     H96708   4.259   6.789   0.228  0.2264 -0.2178  0.0820
  701MOL0     H96709   4.161   6.658   0.280 -0.8686  1.2327 -3.6128
  701MOL0     H96710   4.459   6.653   0.318 -1.2662  0.5865  2.5116
  701MOL0     H96711   4.347   6.543   0.388 -0.6241 -0.1040 -0.3012
  701MOL0     H96712   4.378   6.609   0.109 -0.3089 -0.1909  0.0772
  701MOL0     H96713   4.267   6.485   0.183 -0.1471 -0.7088 -1.0413
  701MOL0     H96714   4.453   6.350   0.261 -0.2003 -0.5783 -2.2136
  701MOL0     H96715   4.572   6.479   0.217 -0.5179  5.6526 -1.5858
  701MOL0     H96716   4.378   6.333   0.029  1.3464 -1.9009 -0.3971
  701MOL0     H96717   4.547   6.293   0.040 -0.5465 -0.3667 -1.5982
  701MOL0     H96718   4.054   7.169   0.843 -1.1462  0.5024  0.4799
  701MOL0     H96719   4.102   7.395   0.911  0.7010  0.3593 -0.5395
  701MOL0     H96720   4.498   7.796   0.870 -0.4981  0.0782  2.2525
  701MOL0     H96721   4.512   8.039   0.899 -1.4354  0.7669  2.2511
  701MOL0     H96722   5.471   8.399   0.839  1.2086 -2.4067  1.8692
  701MOL0     H96723   5.437   8.323   1.076  1.0245 -1.3824 -1.7632
  701MOL0     H96724   5.380   8.461   1.390 -1.7629 -1.0716  0.3775
  701MOL0     H96725   5.524   8.430   1.592  2.1740 -1.3917  0.1320
  701MOL0     H96726   5.540   8.024   1.769 -0.3597 -0.6962  1.7038
  701MOL0     H96727   5.630   8.111   1.896 -0.6728 -0.2431  1.6105
  701MOL0     H96728   5.326   8.149   1.829  2.2024 -0.2955 -0.4885
  701MOL0     H96729   5.415   8.230   1.955  0.6839  1.0756 -1.2303
  701MOL0     H96730   5.354   7.936   1.924 -6.3675  0.5273 -1.0011
  701MOL0     H96731   5.449   8.005   2.062 -0.7168  5.2010  2.3741
  701MOL0     H96732   5.152   8.081   2.008 -1.7315  0.2374  0.6017
  701MOL0     H96733   5.252   8.140   2.135 -0.6998  0.8783 -2.2451
  701MOL0     H96734   5.162   7.771   2.306 -0.0833  1.0799  1.1832
  701MOL0     H96735   5.385   8.038   1.626  1.0702 -0.8059 -0.4664
  701MOL0     H96736   5.140   8.016   1.436 -0.0229  1.3564  2.8606
  701MOL0     H96737   5.244   8.002   1.291  2.7976  2.5738  0.6516
  701MOL0     H96738   5.291   7.927   1.451 -2.9190 -0.0341  2.0023
  702MOL0     O96739   1.582   8.704   4.804 -0.4196  0.3546 -0.0359
  702MOL0     C96740   1.618   8.657   4.911 -0.4374 -0.8184 -0.6169
  702MOL0     O96741   1.733   8.583   4.938  0.2348  0.1325 -0.3408
  702MOL0     C96742   1.835   8.604   4.853 -0.0727 -0.4517  0.1710
  702MOL0     C96743   1.892   8.508   4.769 -0.1510  0.8878  0.3649
  702MOL0     C96744   1.981   8.527   4.667  0.8280  0.0467  0.2417
  702MOL0     C96745   2.030   8.661   4.647  0.1771 -0.1700  0.1360
  702MOL0     O96746   2.118   8.673   4.545  0.0125  0.8653  0.5181
  702MOL0     C96747   2.178   8.800   4.526 -0.2446  0.4644 -0.2596
  702MOL0     C96748   2.285   8.784   4.424 -1.2105 -0.6545  0.0982
  702MOL0     C96749   2.308   8.913   4.358  1.3470 -0.1721  0.1088
  702MOL0     C96750   2.402   8.893   4.239  0.9638  0.7929  0.2144
  702MOL0     C96751   2.392   9.016   4.140 -0.0572 -0.7445  0.0739
  702MOL0     C96752   2.265   9.013   4.044  0.0725 -0.3417  0.4696
  702MOL0     C96753   2.236   9.142   3.970  0.4993 -0.0715 -0.5694
  702MOL0     C96754   2.087   9.156   3.915  0.1640 -0.3453 -0.4093
  702MOL0     N96755   1.998   9.180   4.025 -0.6494 -1.0969  0.1280
  702MOL0     C96756   1.943   9.303   4.052 -0.0311 -0.0250  0.8633
  702MOL0     C96757   1.857   9.271   4.153 -0.0155 -0.1846 -0.1815
  702MOL0     C96758   1.787   9.369   4.232  0.3046  0.2406 -0.0502
  702MOL0     C96759   1.663   9.418   4.152 -1.0220  0.4828  0.3828
  702MOL0     C96760   1.612   9.551   4.212 -0.0132 -0.2490  0.0904
  702MOL0     C96761   1.496   9.619   4.134  0.1475 -0.2166 -0.5282
  702MOL0     O96762   1.535   9.662   4.002  0.4151 -0.4215  1.0460
  702MOL0     C96763   1.626   9.767   3.995  0.8025  0.4583  0.2483
  702MOL0     C96764   1.687   9.792   3.875 -0.7302 -0.4462  0.8878
  702MOL0     C96765   1.761   9.907   3.852  0.6493 -0.3504 -0.0615
  702MOL0     C96766   1.849   9.932   3.731  0.1720 -0.5574 -0.3224
  702MOL0     C96767   1.759  10.006   3.959  0.2285  0.1046 -0.3344
  702MOL0     C96768   1.825  10.144   3.943  0.0023  0.6829 -0.7007
  702MOL0     O96769   1.899  10.192   4.052  0.1808 -0.2785 -0.0937
  702MOL0     C96770   1.922  10.331   4.070 -0.5193  0.1996  0.1483
  702MOL0     C96771   1.919  10.441   3.979 -0.2215  0.0108 -0.8779
  702MOL0     C96772   1.948  10.575   4.032 -0.8623  0.4989 -0.1926
  702MOL0     C96773   2.007  10.586   4.162 -0.7098  0.3019  0.8406
  702MOL0     O96774   2.045  10.709   4.207 -0.2932  1.1214  0.2397
  702MOL0     C96775   2.059  10.824   4.126 -1.3294  0.0623 -1.0429
  702MOL0     C96776   2.110  10.943   4.214 -0.5299 -0.7271 -0.1873
  702MOL0     C96777   2.125  11.086   4.137 -0.3157  0.6142 -0.6269
  702MOL0     C96778   2.205  11.083   4.007  0.1852  2.1392 -0.1610
  702MOL0     C96779   2.233  11.214   3.949  0.6460 -1.4676  0.5864
  702MOL0     C96780   2.281  11.200   3.799  0.8910  0.4161  0.4335
  702MOL0     C96781   2.157  11.157   3.715  0.3100 -0.1308  0.7262
  702MOL0     C96782   2.197  11.158   3.564 -1.0144 -0.8138  0.0411
  702MOL0    Cl96783   2.297  11.008   3.542  0.1464 -0.0695 -0.7786
  702MOL0     C96784   2.005  10.480   4.249 -0.6910  0.2535  0.1899
  702MOL0     C96785   1.968  10.355   4.206 -0.0836 -0.0642 -0.0228
  702MOL0     O96786   1.805  10.207   3.845 -0.8687 -0.0956  0.6542
  702MOL0     C96787   1.712   9.973   4.085 -1.1789  0.9079 -0.5045
  702MOL0     C96788   1.649   9.852   4.107 -0.3758 -0.9384 -0.3058
  702MOL0     N96789   1.865   9.129   4.175 -0.1817  0.9566 -0.8050
  702MOL0     N96790   1.956   9.082   4.103  0.6908 -0.2211 -0.3126
  702MOL0     C96791   1.971   8.767   4.728 -0.5971  0.8845 -0.8126
  702MOL0     C96792   1.877   8.737   4.826 -0.4062 -0.0977 -0.7433
  702MOL0     C96793   1.512   8.684   5.013 -0.5661 -0.0599 -0.4127
  702MOL0     C96794   1.539   8.708   5.153 -0.3030  0.1094  0.4548
  702MOL0     C96795   1.440   8.729   5.244  0.2885 -0.5733  0.5112
  702MOL0     C96796   1.310   8.734   5.213 -0.7217  0.8546  0.5222
  702MOL0     O96797   1.206   8.735   5.307  0.4402 -0.4688 -0.1203
  702MOL0     C96798   1.231   8.789   5.438  0.5002  0.2855  0.7618
  702MOL0     C96799   1.100   8.842   5.498 -1.3272 -0.6673  0.8653
  702MOL0     C96800   1.030   8.943   5.405  0.2580  0.3360 -0.6486
  702MOL0     C96801   0.960   9.055   5.486  0.2384  0.3918  0.8173
  702MOL0     C96802   0.906   9.142   5.384  0.3737 -0.5441  0.4095
  702MOL0     C96803   0.866   9.209   5.289 -0.5118 -0.4460  0.0529
  702MOL0     C96804   1.275   8.712   5.085 -0.6756 -0.2791  0.8738
  702MOL0     C96805   1.375   8.679   4.982  0.4694  0.1871 -0.1749
  702MOL0     C96806   1.304   8.645   4.858 -0.4777  0.7043  1.0636
  702MOL0     H96807   1.873   8.403   4.791  3.7365 -0.3057 -1.1505
  702MOL0     H96808   2.014   8.439   4.612 -0.5674  1.4227 -2.9838
  702MOL0     H96809   2.203   8.854   4.619 -1.8080 -0.7613  0.9317
  702MOL0     H96810   2.103   8.867   4.481 -0.4911  0.6711  0.4406
  702MOL0     H96811   2.375   8.751   4.478 -1.1817  0.1104  0.5347
  702MOL0     H96812   2.258   8.712   4.347  4.4134  0.2563 -3.3076
  702MOL0     H96813   2.212   8.955   4.327  0.7223 -1.5306  0.1166
  702MOL0     H96814   2.349   8.990   4.424 -0.4888  3.4787 -2.7009
  702MOL0     H96815   2.507   8.893   4.269  0.8796  0.2877  0.5186
  702MOL0     H96816   2.383   8.795   4.195  4.5460 -0.8494  1.8973
  702MOL0     H96817   2.487   9.015   4.086  0.5685  0.3911  1.0924
  702MOL0     H96818   2.389   9.113   4.192  0.4797 -0.2313 -0.8345
  702MOL0     H96819   2.278   8.934   3.970 -1.1934  1.6170 -1.9956
  702MOL0     H96820   2.173   8.990   4.100 -1.2768  2.7344 -0.3126
  702MOL0     H96821   2.296   9.135   3.879  0.6136  1.9528 -0.6827
  702MOL0     H96822   2.257   9.234   4.025 -2.6003  1.4126 -1.6311
  702MOL0     H96823   2.063   9.236   3.845 -1.3179  0.8879  1.4007
  702MOL0     H96824   2.061   9.064   3.861 -1.3694  0.4550 -1.0719
  702MOL0     H96825   1.970   9.397   4.005  2.0557  0.2596  2.5083
  702MOL0     H96826   1.853   9.449   4.263 -1.5597  1.6527  0.4452
  702MOL0     H96827   1.756   9.341   4.333  0.8512 -1.2131 -0.2582
  702MOL0     H96828   1.682   9.432   4.045 -1.0904 -0.5084  0.2339
  702MOL0     H96829   1.586   9.341   4.156  0.3024 -0.8605  1.1264
  702MOL0     H96830   1.588   9.533   4.318  0.9361 -0.6003  0.2516
  702MOL0     H96831   1.692   9.626   4.214  1.3152 -1.5940 -0.8418
  702MOL0     H96832   1.435   9.528   4.122 -0.0068 -0.7554  3.0974
  702MOL0     H96833   1.447   9.688   4.203  2.0501 -1.3807  2.1904
  702MOL0     H96834   1.668   9.720   3.796 -3.1669  0.8857  0.1760
  702MOL0     H96835   1.836   9.842   3.670 -5.1596 -0.6911  0.5685
  702MOL0     H96836   1.952   9.963   3.752 -0.2369 -0.1928  1.2428
  702MOL0     H96837   1.791  10.016   3.691  2.0916  0.6778 -0.6202
  702MOL0     H96838   1.870  10.426   3.883 -3.1892 -3.3479  0.9276
  702MOL0     H96839   1.931  10.660   3.967  2.2795  1.7533  0.4673
  702MOL0     H96840   2.125  10.815   4.040 -0.4623  0.8460 -0.4841
  702MOL0     H96841   1.962  10.852   4.084 -2.1382  0.5613  1.0212
  702MOL0     H96842   2.046  10.966   4.300  0.5923 -3.7028  1.5913
  702MOL0     H96843   2.203  10.905   4.258 -0.0423 -0.4979 -1.0024
  702MOL0     H96844   2.160  11.165   4.205  0.1040 -1.9390  2.3260
  702MOL0     H96845   2.019  11.100   4.117 -0.1755 -0.3384 -2.2354
  702MOL0     H96846   2.158  11.015   3.936 -1.2451  3.1035 -0.1775
  702MOL0     H96847   2.299  11.033   4.034 -1.3634 -0.9250 -0.0144
  702MOL0     H96848   2.145  11.277   3.938  1.7253 -0.2355 -1.8290
  702MOL0     H96849   2.301  11.261   4.021  0.0029  0.1928  0.1362
  702MOL0     H96850   2.371  11.141   3.781 -0.6149 -1.1731 -2.7225
  702MOL0     H96851   2.307  11.299   3.762  0.8480  0.5393  0.7281
  702MOL0     H96852   2.081  11.236   3.723  0.1119 -0.1542 -0.7635
  702MOL0     H96853   2.110  11.060   3.735  2.2873 -0.8829  2.0071
  702MOL0     H96854   2.263  11.244   3.550  0.7485 -2.3110 -1.2828
  702MOL0     H96855   2.110  11.170   3.499 -1.7221  1.2451  1.2753
  702MOL0     H96856   2.046  10.500   4.348 -1.1441 -1.7718  0.8294
  702MOL0     H96857   1.979  10.271   4.274 -1.1721 -1.0050 -0.9847
  702MOL0     H96858   1.704  10.036   4.173  4.0635 -2.5165  2.9604
  702MOL0     H96859   1.604   9.834   4.204  3.0655  0.8740  1.8353
  702MOL0     H96860   2.005   8.870   4.726  0.1277  0.6496 -0.9142
  702MOL0     H96861   1.840   8.822   4.883 -3.3847 -0.9362 -1.2708
  702MOL0     H96862   1.641   8.715   5.188 -0.1689  4.0171 -0.2975
  702MOL0     H96863   1.467   8.744   5.348  1.0047 -0.7269  0.3550
  702MOL0     H96864   1.290   8.716   5.495  2.3712  2.7779  2.1796
  702MOL0     H96865   1.295   8.875   5.419 -0.1992  0.4782 -0.8698
  702MOL0     H96866   1.119   8.900   5.589 -1.4636 -1.5347  1.4584
  702MOL0     H96867   1.050   8.748   5.524 -1.8966  0.2898  3.6169
  702MOL0     H96868   1.116   8.985   5.352 -0.1646  1.1140 -0.7178
  702MOL0     H96869   0.960   8.901   5.333  0.4914 -2.4817  0.6079
  702MOL0     H96870   1.032   9.112   5.545  1.7623  0.4846 -1.0573
  702MOL0     H96871   0.881   9.006   5.545 -2.1833  2.5182 -0.4673
  702MOL0     H96872   0.829   9.275   5.213 -1.0512  0.7954  1.3619
  702MOL0     H96873   1.170   8.702   5.058 -0.2907  1.3299 -1.4729
  702MOL0     H96874   1.306   8.728   4.786  1.0330  0.0059  0.2549
  702MOL0     H96875   1.347   8.565   4.796 -3.3785  2.5190 -3.8909
  702MOL0     H96876   1.196   8.636   4.871 -0.7241 -1.1521 -1.4540
  703MOL0     O96877   4.463  11.036   8.160  0.5952  0.4302 -0.5366
  703MOL0     C96878   4.497  10.915   8.143 -0.1904  0.2232  0.2528
  703MOL0     O96879   4.422  10.829   8.080  0.0802  0.2456 -0.4413
  703MOL0     C96880   4.292  10.858   8.041 -0.3349  0.3793  0.7583
  703MOL0     C96881   4.277  10.818   7.906 -0.1643 -0.5535  0.2171
  703MOL0     C96882   4.167  10.854   7.834 -0.4910 -0.1106  0.5646
  703MOL0     C96883   4.068  10.934   7.889  0.5430 -0.1624 -0.9396
  703MOL0     O96884   3.947  10.957   7.831 -0.2632  0.2078  0.2534
  703MOL0     C96885   3.837  11.019   7.902  0.7937 -0.3117  0.1643
  703MOL0     C96886   3.714  10.975   7.827  0.8605  0.0921  0.8679
  703MOL0     C96887   3.590  11.047   7.889  1.9182 -0.8116  0.4712
  703MOL0     C96888   3.465  10.977   7.842  0.4570  1.0896  0.3124
  703MOL0     C96889   3.357  11.015   7.941  0.4702 -0.4566  0.1610
  703MOL0     C96890   3.222  10.944   7.923  0.2533  0.4128  0.3152
  703MOL0     C96891   3.147  10.976   7.787  0.4247 -0.4395 -0.4040
  703MOL0     C96892   3.113  11.127   7.768  0.6276  0.5176 -0.0715
  703MOL0     N96893   3.142  11.181   7.630 -0.1607  0.3490  0.1022
  703MOL0     C96894   3.049  11.234   7.546  0.4950  0.0187  0.2072
  703MOL0     C96895   3.128  11.279   7.440  0.5282  0.4460  0.2812
  703MOL0     C96896   3.098  11.343   7.306  0.1378  0.4556 -0.2413
  703MOL0     C96897   2.959  11.300   7.255  0.8606 -0.9071  0.3490
  703MOL0     C96898   2.920  11.387   7.133  0.2344  0.3837  0.6533
  703MOL0     C96899   2.788  11.352   7.073  0.1676  0.2350 -0.0475
  703MOL0     O96900   2.747  11.206   7.094 -0.3678  0.4167  0.8728
  703MOL0     C96901   2.795  11.105   7.000  0.7601 -0.3237 -0.1433
  703MOL0     C96902   2.892  11.122   6.905  0.3975  0.3110 -0.8199
  703MOL0     C96903   2.930  11.022   6.819 -0.1413  1.5480 -0.7212
  703MOL0     C96904   3.034  11.068   6.721  0.2746  2.0626 -0.2481
  703MOL0     C96905   2.880  10.889   6.836 -0.2999 -0.4399  0.2867
  703MOL0     C96906   2.914  10.779   6.743  0.6258 -0.5405  0.2185
  703MOL0     O96907   2.932  10.801   6.614  0.9619 -0.5653  0.0428
  703MOL0     C96908   2.976  10.705   6.523 -0.5132 -0.3543  1.1008
  703MOL0     C96909   2.926  10.708   6.393 -0.1227  0.5874 -0.0285
  703MOL0     C96910   2.975  10.617   6.302  0.5128 -0.2706  0.2337
  703MOL0     C96911   3.069  10.529   6.329  0.4011  1.2689  0.7388
  703MOL0     O96912   3.128  10.449   6.237 -0.8487  0.3645  0.1138
  703MOL0     C96913   3.043  10.379   6.147 -0.6737 -0.0970  0.1673
  703MOL0     C96914   3.132  10.272   6.070  0.4714 -0.9535 -0.6980
  703MOL0     C96915   3.056  10.170   5.979 -0.7865  0.2679  0.2536
  703MOL0     C96916   2.935  10.100   6.052  0.4489  0.4247  0.9957
  703MOL0     C96917   2.868  10.001   5.962  0.8998 -0.1623  0.2549
  703MOL0     C96918   2.758   9.923   6.038  0.3252  0.4630  0.3393
  703MOL0     C96919   2.705   9.814   5.944  0.1350 -0.5394 -0.3262
  703MOL0     C96920   2.602   9.858   5.841 -0.6199 -0.7653  0.2758
  703MOL0    Cl96921   2.450   9.823   5.916 -0.4638 -0.4152  0.2907
  703MOL0     C96922   3.127  10.521   6.452  0.5677 -0.5982  0.2776
  703MOL0     C96923   3.077  10.607   6.556  0.5772 -0.3437 -0.3391
  703MOL0     O96924   2.929  10.672   6.798  0.4106  0.0507  0.3410
  703MOL0     C96925   2.787  10.873   6.934  0.1584  0.6760 -0.6499
  703MOL0     C96926   2.736  10.975   7.010 -0.1570 -0.2846 -1.0507
  703MOL0     N96927   3.257  11.263   7.471 -0.7369  0.5828  0.2043
  703MOL0     N96928   3.259  11.189   7.577  0.2659 -0.0567 -0.4696
  703MOL0     C96929   4.088  10.965   8.028  0.4463  0.9689  0.6039
  703MOL0     C96930   4.194  10.924   8.106 -0.6598  0.0545  0.7581
  703MOL0     C96931   4.630  10.876   8.184  0.4420 -0.1904 -0.6642
  703MOL0     C96932   4.716  10.973   8.238 -0.3134  0.0282  0.2802
  703MOL0     C96933   4.849  10.952   8.286  0.1160  0.3512  0.3130
  703MOL0     C96934   4.905  10.828   8.277  0.0814  1.7401 -0.2300
  703MOL0     O96935   5.033  10.797   8.320  0.3845  0.1721 -0.0828
  703MOL0     C96936   5.118  10.699   8.262 -0.1150 -0.0681 -0.1314
  703MOL0     C96937   5.146  10.585   8.358 -1.3995  0.2756 -0.9581
  703MOL0     C96938   5.259  10.492   8.310  0.4736 -1.0988 -0.6346
  703MOL0     C96939   5.396  10.556   8.322 -0.1708  0.0392  0.1808
  703MOL0     C96940   5.501  10.467   8.265  0.4619  0.3369  1.0018
  703MOL0     C96941   5.592  10.393   8.228  0.1877  1.0876 -0.1477
  703MOL0     C96942   4.822  10.724   8.218 -0.8212 -0.2674 -0.0567
  703MOL0     C96943   4.691  10.750   8.177 -0.6386  0.8564 -0.3235
  703MOL0     C96944   4.623  10.628   8.119  0.0385  1.0253 -0.0472
  703MOL0     H96945   4.360  10.771   7.856  1.8708  1.5409  1.4311
  703MOL0     H96946   4.150  10.820   7.732 -1.9118  0.6854  0.5153
  703MOL0     H96947   3.848  11.128   7.898  2.1799 -0.3502  1.7172
  703MOL0     H96948   3.831  10.995   8.008  1.8708  2.5267  0.9529
  703MOL0     H96949   3.714  10.997   7.719  2.1572 -2.1641  0.3633
  703MOL0     H96950   3.701  10.869   7.850 -1.1554  0.0480 -0.2787
  703MOL0     H96951   3.588  11.042   7.998 -1.5005  0.6329  0.6095
  703MOL0     H96952   3.586  11.154   7.866 -3.9701 -0.2038  2.4605
  703MOL0     H96953   3.440  10.999   7.737  1.7187  0.3822 -0.1558
  703MOL0     H96954   3.490  10.871   7.849  3.3462  1.4025 -2.6195
  703MOL0     H96955   3.352  11.124   7.947 -0.5799 -0.5532  2.6519
  703MOL0     H96956   3.382  10.979   8.042 -0.0950 -2.0858 -0.2418
  703MOL0     H96957   3.232  10.835   7.922 -1.5628  0.1903 -1.9753
  703MOL0     H96958   3.159  10.970   8.008  0.6886 -1.5492  1.3069
  703MOL0     H96959   3.052  10.922   7.783 -0.6637  1.4130 -0.9119
  703MOL0     H96960   3.206  10.951   7.698 -0.0739  3.1000 -1.8884
  703MOL0     H96961   3.005  11.141   7.784 -0.0714 -1.0261 -2.7710
  703MOL0     H96962   3.171  11.193   7.833 -0.9657  0.4124  1.5392
  703MOL0     H96963   2.945  11.261   7.560  0.5598  0.1223  0.4895
  703MOL0     H96964   3.176  11.329   7.230  1.7969 -0.7307  1.5722
  703MOL0     H96965   3.097  11.452   7.312 -0.0053  0.3755  1.9755
  703MOL0     H96966   2.964  11.197   7.218  3.6954 -0.3350 -1.1431
  703MOL0     H96967   2.889  11.319   7.337  0.8771 -0.4942  0.2710
  703MOL0     H96968   2.937  11.494   7.153  2.8570 -0.1678  1.8774
  703MOL0     H96969   2.992  11.363   7.054 -1.4209 -0.5824 -0.6209
  703MOL0     H96970   2.717  11.425   7.112 -0.6323  0.9251 -2.5727
  703MOL0     H96971   2.806  11.367   6.966  1.2120  0.1991  0.1167
  703MOL0     H96972   2.934  11.217   6.875  3.7862 -0.7003  0.1852
  703MOL0     H96973   2.991  11.101   6.625  0.5769  2.2226 -0.3280
  703MOL0     H96974   3.102  10.985   6.701 -2.3821  0.1244 -2.0558
  703MOL0     H96975   3.096  11.148   6.762 -0.1378  2.5703 -0.6017
  703MOL0     H96976   2.848  10.780   6.372 -1.0378 -0.3678 -0.0092
  703MOL0     H96977   2.940  10.606   6.200  1.8192  1.6769 -0.5043
  703MOL0     H96978   2.976  10.318   6.209  2.6714 -2.2793  1.9812
  703MOL0     H96979   2.996  10.447   6.076  3.4975  1.2986 -1.5430
  703MOL0     H96980   3.209  10.327   6.015  0.8248  0.5675  1.1783
  703MOL0     H96981   3.199  10.222   6.140  0.3085  1.8409  1.7103
  703MOL0     H96982   3.128  10.088   5.967 -0.2104  0.2541  3.1376
  703MOL0     H96983   3.044  10.223   5.884  1.9079 -0.4491 -0.5967
  703MOL0     H96984   2.856  10.171   6.079 -1.6062 -0.8688 -1.2078
  703MOL0     H96985   2.971  10.053   6.144  0.1094  0.3973  1.1165
  703MOL0     H96986   2.817  10.043   5.875 -1.7212 -1.8904  0.8393
  703MOL0     H96987   2.952   9.938   5.931  3.2417  2.3454  1.1655
  703MOL0     H96988   2.677   9.982   6.081  1.2297  0.9374  1.4442
  703MOL0     H96989   2.802   9.883   6.129 -3.0297  3.7037  3.7188
  703MOL0     H96990   2.674   9.730   6.007  3.0253  0.2610  2.4164
  703MOL0     H96991   2.791   9.768   5.894 -0.1154  2.0447 -3.4292
  703MOL0     H96992   2.621   9.804   5.747  0.8097 -0.7401  0.5276
  703MOL0     H96993   2.611   9.967   5.834 -2.6665 -0.6464 -1.9582
  703MOL0     H96994   3.201  10.443   6.469  2.3765  0.3299 -2.6910
  703MOL0     H96995   3.132  10.607   6.649 -1.1147 -0.5796  0.7075
  703MOL0     H96996   2.730  10.781   6.926  0.0475  0.6171  0.5609
  703MOL0     H96997   2.665  10.984   7.092  2.4751  1.7660  1.1902
  703MOL0     H96998   4.009  11.017   8.081 -0.6583  1.1271 -1.1188
  703MOL0     H96999   4.200  10.946   8.212 -1.5909 -0.5921  0.9549
  703MOL0     H97000   4.698  11.080   8.241 -2.1303 -0.2657  1.3794
  703MOL0     H97001   4.905  11.036   8.324 -0.1261  3.5911 -5.3058
  703MOL0     H97002   5.069  10.650   8.178 -1.5260  0.0575  0.5864
  703MOL0     H97003   5.210  10.742   8.222  1.6271 -1.2508  2.3056
  703MOL0     H97004   5.060  10.524   8.388  1.5240 -4.4772 -1.1904
  703MOL0     H97005   5.188  10.628   8.449  0.4630 -1.3323 -0.9869
  703MOL0     H97006   5.255  10.393   8.357  0.8158  0.0999  2.0885
  703MOL0     H97007   5.245  10.469   8.204 -1.1483  1.8801 -1.1715
  703MOL0     H97008   5.426  10.565   8.427  1.9621 -0.0196 -0.3800
  703MOL0     H97009   5.402  10.656   8.278 -2.9852 -0.1768 -0.8792
  703MOL0     H97010   5.675  10.329   8.204  0.2977  0.9745  0.5210
  703MOL0     H97011   4.848  10.623   8.188 -1.9616  0.6348 -4.9958
  703MOL0     H97012   4.615  10.638   8.010  0.3229 -3.2580 -0.6151
  703MOL0     H97013   4.679  10.538   8.146  1.0345  2.0808  1.5779
  703MOL0     H97014   4.521  10.610   8.154  0.4067 -1.6592 -0.1288
  704MOL0     O97015   5.960   4.998   6.707 -0.8997  0.0365  0.0228
  704MOL0     C97016   6.003   5.044   6.604  0.3785  0.5478  1.1016
  704MOL0     O97017   5.934   5.049   6.485 -0.1062 -0.8790  0.2228
  704MOL0     C97018   5.815   4.997   6.470 -0.1769  1.9703  1.2846
  704MOL0     C97019   5.782   4.930   6.346 -0.3195 -0.6531 -0.0374
  704MOL0     C97020   5.664   4.863   6.328  0.2235 -0.8357 -0.5832
  704MOL0     C97021   5.572   4.843   6.427  0.0289 -0.5283  0.3481
  704MOL0     O97022   5.457   4.778   6.428  1.0250 -0.0848  0.6128
  704MOL0     C97023   5.434   4.663   6.340 -0.7209 -0.6295  0.4425
  704MOL0     C97024   5.292   4.605   6.348 -0.5514 -0.4508 -0.3548
  704MOL0     C97025   5.183   4.715   6.364  0.5196 -0.1163 -0.3202
  704MOL0     C97026   5.045   4.653   6.388  0.0305 -0.6599 -0.2265
  704MOL0     C97027   4.922   4.738   6.353  0.3438  0.1392  0.2862
  704MOL0     C97028   4.908   4.845   6.469  0.0885 -1.1596 -0.2125
  704MOL0     C97029   4.776   4.916   6.449 -0.8256 -0.6309  0.4153
  704MOL0     C97030   4.750   5.019   6.561  0.4954 -0.1381  0.1313
  704MOL0     N97031   4.747   4.980   6.699 -0.7817 -1.4447  0.5382
  704MOL0     C97032   4.853   4.984   6.791  0.1728  0.3967  0.0557
  704MOL0     C97033   4.797   4.970   6.914 -0.1607 -0.1720 -0.1524
  704MOL0     C97034   4.884   4.979   7.037 -0.5019  0.0052  0.0274
  704MOL0     C97035   4.818   5.085   7.137 -0.3249  0.7535  0.7828
  704MOL0     C97036   4.915   5.138   7.247  0.1893  0.2725  0.1483
  704MOL0     C97037   4.846   5.257   7.317  0.3632 -0.4590  0.0091
  704MOL0     O97038   4.901   5.298   7.446  0.4914  0.0333  0.0916
  704MOL0     C97039   4.838   5.381   7.531 -0.3753  0.2479 -0.2236
  704MOL0     C97040   4.777   5.497   7.483 -0.3660  0.7012  0.0784
  704MOL0     C97041   4.709   5.585   7.568  0.4487  0.2471  0.0365
  704MOL0     C97042   4.643   5.701   7.504  0.1866 -0.6662  0.3090
  704MOL0     C97043   4.704   5.556   7.708  0.2567 -0.2627  0.6410
  704MOL0     C97044   4.629   5.631   7.809  0.3566 -0.3222  0.1925
  704MOL0     O97045   4.644   5.592   7.940 -0.1381  0.5884 -0.0750
  704MOL0     C97046   4.590   5.673   8.041 -0.8395  0.3452  0.0829
  704MOL0     C97047   4.613   5.811   8.055  0.1288 -0.0379  0.4819
  704MOL0     C97048   4.561   5.876   8.168  0.4429 -0.0087 -0.1605
  704MOL0     C97049   4.512   5.804   8.276 -0.8341  0.3170  0.0691
  704MOL0     O97050   4.465   5.867   8.397 -0.4293 -0.1983 -0.0919
  704MOL0     C97051   4.556   5.952   8.469 -0.1935 -0.2969  0.3490
  704MOL0     C97052   4.518   5.978   8.616 -0.2107 -0.0524  0.0017
  704MOL0     C97053   4.376   6.023   8.647 -0.3158 -0.5127 -0.5423
  704MOL0     C97054   4.366   6.070   8.797  0.0159  1.0184  0.3756
  704MOL0     C97055   4.245   6.158   8.813 -0.2202  0.3879  0.6949
  704MOL0     C97056   4.220   6.199   8.967  0.4706 -0.0005 -1.2427
  704MOL0     C97057   4.134   6.331   8.967 -0.1160  0.8999  1.1764
  704MOL0     C97058   3.994   6.292   8.907  0.0683  0.8474  0.1149
  704MOL0    Cl97059   3.911   6.167   9.002  0.3948 -0.2972  0.3534
  704MOL0     C97060   4.496   5.666   8.263 -0.4367 -0.1295  0.0253
  704MOL0     C97061   4.522   5.605   8.138 -0.7282  0.5324  0.3699
  704MOL0     O97062   4.540   5.709   7.774  1.0372 -0.1359  0.6219
  704MOL0     C97063   4.772   5.435   7.752 -0.3135  0.8860 -0.5505
  704MOL0     C97064   4.849   5.352   7.668 -0.2475  0.7948 -0.4624
  704MOL0     N97065   4.668   4.934   6.902  0.3659  0.5921 -0.6103
  704MOL0     N97066   4.640   4.948   6.777  0.0652  0.3388  0.2013
  704MOL0     C97067   5.596   4.907   6.551 -0.5997 -0.2143  0.0595
  704MOL0     C97068   5.712   4.989   6.563 -0.0710  0.1574  0.7300
  704MOL0     C97069   6.131   5.119   6.609  0.5099  0.5538  0.7795
  704MOL0     C97070   6.148   5.218   6.512  0.4595 -0.1330  1.0695
  704MOL0     C97071   6.253   5.306   6.506 -0.0397  0.3250 -0.3153
  704MOL0     C97072   6.351   5.298   6.612  0.4408 -0.1117 -0.0466
  704MOL0     O97073   6.454   5.393   6.608 -1.0681 -0.2064  0.2970
  704MOL0     C97074   6.580   5.368   6.684  0.9342  0.2891  0.1961
  704MOL0     C97075   6.703   5.444   6.638  0.8831  0.3725  0.4171
  704MOL0     C97076   6.727   5.438   6.489 -0.1083 -0.1339  0.8815
  704MOL0     C97077   6.863   5.494   6.451  0.2313  0.8331 -0.1745
  704MOL0     C97078   6.900   5.462   6.314 -0.0899  0.7112 -0.5411
  704MOL0     C97079   6.911   5.426   6.199  0.4618 -0.0649  1.0610
  704MOL0     C97080   6.343   5.193   6.709 -0.1567 -0.7719 -0.1712
  704MOL0     C97081   6.230   5.107   6.712 -0.8134  0.1450 -0.2238
  704MOL0     C97082   6.231   4.998   6.820  0.5957  0.3187 -0.0752
  704MOL0     H97083   5.851   4.918   6.263 -1.4596 -0.0915 -1.0915
  704MOL0     H97084   5.644   4.823   6.229 -2.3142 -0.3240 -0.3569
  704MOL0     H97085   5.497   4.581   6.376 -0.2190 -1.2437 -1.7088
  704MOL0     H97086   5.458   4.689   6.236 -3.1881  0.1525  0.0085
  704MOL0     H97087   5.273   4.566   6.248 -0.4966 -1.1476 -0.0939
  704MOL0     H97088   5.276   4.539   6.433 -0.8104 -0.2779 -0.2676
  704MOL0     H97089   5.200   4.779   6.452 -1.2275  0.1377 -0.1383
  704MOL0     H97090   5.187   4.789   6.284 -2.4239  0.6830  0.1503
  704MOL0     H97091   5.038   4.571   6.316  0.5910 -1.4016  0.5510
  704MOL0     H97092   5.034   4.614   6.490 -3.5981 -2.8613 -1.2866
  704MOL0     H97093   4.836   4.671   6.356 -0.7059  1.5037  1.4342
  704MOL0     H97094   4.931   4.772   6.249  4.7542 -1.9798 -0.2825
  704MOL0     H97095   4.906   4.799   6.569  2.1816  0.5613  0.7128
  704MOL0     H97096   4.989   4.918   6.462  0.1408 -1.0725  1.0253
  704MOL0     H97097   4.702   4.836   6.456  1.6205 -3.0021  1.0485
  704MOL0     H97098   4.779   4.954   6.347  0.5909 -0.4648  0.4874
  704MOL0     H97099   4.827   5.098   6.558 -2.3473  2.8401  0.1308
  704MOL0     H97100   4.652   5.054   6.530 -0.3528 -0.3129  2.4465
  704MOL0     H97101   4.957   4.996   6.766 -0.2606 -0.3306 -2.2822
  704MOL0     H97102   4.988   4.997   7.011  0.0770 -2.6632  0.2950
  704MOL0     H97103   4.892   4.883   7.087  1.8985 -0.4121 -1.0102
  704MOL0     H97104   4.784   5.169   7.077 -1.3460 -0.7424 -0.8201
  704MOL0     H97105   4.738   5.028   7.185  2.7914 -3.5920  1.4107
  704MOL0     H97106   4.951   5.063   7.319  3.2462  1.6901  0.2614
  704MOL0     H97107   5.004   5.179   7.200 -1.1251 -1.4159 -4.3333
  704MOL0     H97108   4.859   5.341   7.247 -0.1846 -0.0778  0.3606
  704MOL0     H97109   4.739   5.238   7.326 -0.2437 -0.2058 -4.3203
  704MOL0     H97110   4.780   5.521   7.377 -1.5943  0.3937 -0.0325
  704MOL0     H97111   4.679   5.783   7.567 -2.3269  0.4526  0.4288
  704MOL0     H97112   4.534   5.695   7.514  0.3884 -1.9167  2.0818
  704MOL0     H97113   4.669   5.718   7.399  0.5985 -1.6504  0.2515
  704MOL0     H97114   4.664   5.853   7.969  1.2858 -5.3355 -1.7927
  704MOL0     H97115   4.573   5.984   8.176 -1.3892  0.1617  0.7272
  704MOL0     H97116   4.654   5.904   8.462 -0.7801 -1.8974  2.1906
  704MOL0     H97117   4.566   6.049   8.421  1.8510  0.7561  2.6734
  704MOL0     H97118   4.535   5.879   8.658  0.7065 -2.0632 -4.5621
  704MOL0     H97119   4.581   6.049   8.671 -0.2082 -0.5355  0.6368
  704MOL0     H97120   4.309   5.939   8.628  0.4848 -0.6901 -3.0047
  704MOL0     H97121   4.352   6.104   8.577 -3.2013 -0.2781  0.5719
  704MOL0     H97122   4.455   6.125   8.829  0.5573  0.6435 -0.4434
  704MOL0     H97123   4.361   5.982   8.861  0.2825 -0.8772 -2.0864
  704MOL0     H97124   4.263   6.244   8.748 -0.7505 -0.9185 -1.2759
  704MOL0     H97125   4.159   6.109   8.767  1.5221 -0.6933 -1.5942
  704MOL0     H97126   4.314   6.201   9.023  0.9345 -1.9926 -1.8399
  704MOL0     H97127   4.169   6.124   9.027  4.9761 -3.5533 -1.2413
  704MOL0     H97128   4.189   6.401   8.903  3.4692 -1.0219  1.8599
  704MOL0     H97129   4.132   6.368   9.070 -3.0324 -0.1188  1.5647
  704MOL0     H97130   4.004   6.255   8.805 -2.6597 -0.3769  0.2086
  704MOL0     H97131   3.923   6.375   8.910  1.1747  1.8168  0.0727
  704MOL0     H97132   4.462   5.609   8.349 -2.5056  1.1757  0.1325
  704MOL0     H97133   4.499   5.499   8.129  0.8641  0.2384 -0.5769
  704MOL0     H97134   4.753   5.404   7.854 -1.2954  3.2127  0.0520
  704MOL0     H97135   4.904   5.264   7.699 -2.3130  0.6130  3.1987
  704MOL0     H97136   5.522   4.908   6.630 -1.6025 -2.5304 -0.7688
  704MOL0     H97137   5.722   5.041   6.657 -1.2083 -0.4097  1.1878
  704MOL0     H97138   6.076   5.239   6.433  1.8327  1.5841  0.1892
  704MOL0     H97139   6.248   5.390   6.438 -2.0938 -1.4821 -2.5638
  704MOL0     H97140   6.565   5.404   6.786 -3.0737  3.6639 -1.3025
  704MOL0     H97141   6.605   5.262   6.672 -2.7496 -0.3989 -3.8440
  704MOL0     H97142   6.785   5.400   6.696 -0.2356  1.9430  3.4026
  704MOL0     H97143   6.703   5.549   6.669 -0.4307  0.6473 -0.4067
  704MOL0     H97144   6.714   5.332   6.469  0.0917  0.1103 -0.6789
  704MOL0     H97145   6.652   5.496   6.435  2.1753  2.7977  0.6257
  704MOL0     H97146   6.941   5.454   6.516  0.0051  2.2354  1.0136
  704MOL0     H97147   6.850   5.601   6.470 -0.1431  1.0497 -1.5254
  704MOL0     H97148   6.914   5.394   6.097  0.6871 -1.2579  1.4247
  704MOL0     H97149   6.410   5.187   6.794 -0.1656  0.3649 -0.0667
  704MOL0     H97150   6.325   4.980   6.873 -0.3070 -1.6244  0.9795
  704MOL0     H97151   6.160   5.008   6.903 -0.1491 -3.7077 -0.0114
  704MOL0     H97152   6.209   4.903   6.769  2.1248 -0.9268  1.4530
  705MOL0     O97153  10.285   8.261   8.134 -0.1526 -0.2029  0.0008
  705MOL0     C97154  10.202   8.310   8.056 -0.3857 -0.2168  0.0078
  705MOL0     O97155  10.077   8.353   8.107 -0.0545  0.5853 -0.0205
  705MOL0     C97156  10.061   8.347   8.240 -0.8196  0.1405  0.4859
  705MOL0     C97157  10.076   8.468   8.315  0.0101  0.5282  1.6584
  705MOL0     C97158  10.056   8.465   8.450 -0.0638 -0.3596 -0.9448
  705MOL0     C97159  10.031   8.353   8.526  0.3298  0.4815  0.5688
  705MOL0     O97160  10.009   8.374   8.664 -0.2256 -0.0672  0.3087
  705MOL0     C97161  10.014   8.269   8.763 -0.3144 -0.2065 -0.4795
  705MOL0     C97162  10.046   8.346   8.894 -0.4324 -0.6744 -0.1683
  705MOL0     C97163   9.987   8.285   9.030 -0.6638 -0.7293 -0.3224
  705MOL0     C97164  10.046   8.143   9.053 -0.2874 -0.2090  0.0094
  705MOL0     C97165   9.960   8.059   9.156  0.0115  0.7952  0.0752
  705MOL0     C97166  10.012   7.920   9.155 -0.1394 -0.0501  0.1934
  705MOL0     C97167   9.915   7.838   9.234  0.5411  0.5951  0.0180
  705MOL0     C97168   9.870   7.696   9.181  0.6656  0.4097  0.0266
  705MOL0     N97169   9.785   7.622   9.279 -0.3229 -0.9899 -0.0590
  705MOL0     C97170   9.821   7.566   9.392 -0.5115 -0.3640 -0.7168
  705MOL0     C97171   9.711   7.527   9.459 -0.2902 -0.2682  0.1608
  705MOL0     C97172   9.709   7.461   9.602 -0.6878  0.1281  1.0942
  705MOL0     C97173   9.647   7.542   9.712 -0.1963 -0.6269 -0.9559
  705MOL0     C97174   9.645   7.469   9.845  0.5171 -0.0929  0.6963
  705MOL0     C97175   9.574   7.550   9.960  0.2014  0.2671  0.0122
  705MOL0     O97176   9.436   7.553   9.956  0.7879  0.8130  0.0413
  705MOL0     C97177   9.362   7.473  10.042  0.0476  0.8455 -0.4299
  705MOL0     C97178   9.410   7.370  10.129 -0.3029 -0.4646 -0.0203
  705MOL0     C97179   9.323   7.297  10.219  0.3374 -0.4480 -0.6867
  705MOL0     C97180   9.369   7.214  10.334  0.2494 -0.1685  0.0517
  705MOL0     C97181   9.187   7.324  10.205  0.9599 -0.0654  0.1794
  705MOL0     C97182   9.083   7.251  10.286 -0.0595 -0.1098 -0.9283
  705MOL0     O97183   8.973   7.318  10.338 -0.4763  0.0191  0.0070
  705MOL0     C97184   8.866   7.240  10.371  0.4157  0.4849 -0.5779
  705MOL0     C97185   8.754   7.225  10.285 -0.2060  0.6279  0.5458
  705MOL0     C97186   8.652   7.133  10.328  0.5241 -0.3811  0.0396
  705MOL0     C97187   8.649   7.072  10.458 -1.1991  0.1235 -0.8567
  705MOL0     O97188   8.543   6.996  10.497  0.4558 -0.5074  0.4423
  705MOL0     C97189   8.405   7.027  10.453 -0.7041 -0.6067  0.0799
  705MOL0     C97190   8.305   6.984  10.559 -0.0674 -0.2828  0.2558
  705MOL0     C97191   8.322   7.043  10.697  0.1142 -0.8645  0.3064
  705MOL0     C97192   8.197   6.993  10.790 -0.6755  0.5150 -0.4734
  705MOL0     C97193   8.248   6.923  10.920 -0.2536 -0.0370  0.2102
  705MOL0     C97194   8.331   7.012  11.018 -0.3356  0.3160  1.5393
  705MOL0     C97195   8.381   6.918  11.131  0.1977  0.8630  0.4015
  705MOL0     C97196   8.288   6.814  11.191  0.3785 -0.4246 -0.9510
  705MOL0    Cl97197   8.373   6.736  11.319  0.0189  0.1991  0.1101
  705MOL0     C97198   8.763   7.088  10.534  0.0653  0.0891 -0.4637
  705MOL0     C97199   8.866   7.163  10.489 -0.2023 -0.1083  0.3821
  705MOL0     O97200   9.084   7.122  10.270  0.0068 -0.2609 -1.2885
  705MOL0     C97201   9.140   7.431  10.125 -0.2541  0.2373 -0.3078
  705MOL0     C97202   9.226   7.497  10.045  0.2846 -0.7268  0.5283
  705MOL0     N97203   9.602   7.554   9.376 -0.6319 -0.4495 -0.5076
  705MOL0     N97204   9.655   7.605   9.268  0.4577 -0.6696 -0.3696
  705MOL0     C97205  10.017   8.230   8.457  0.9124  0.2256  0.1837
  705MOL0     C97206  10.030   8.227   8.313  0.4745  0.3122 -0.0572
  705MOL0     C97207  10.207   8.289   7.913  0.2588  0.3233  0.6466
  705MOL0     C97208  10.080   8.277   7.850 -0.3061  0.6354  0.7855
  705MOL0     C97209  10.072   8.251   7.712  0.0166 -0.4785 -0.9577
  705MOL0     C97210  10.187   8.224   7.640 -0.9893 -0.1161 -0.1258
  705MOL0     O97211  10.174   8.211   7.505 -0.1980 -0.0700  0.4927
  705MOL0     C97212  10.182   8.339   7.435 -0.9604 -0.6746  0.4763
  705MOL0     C97213  10.135   8.305   7.283 -1.9207  0.2285  0.1114
  705MOL0     C97214  10.219   8.188   7.229 -0.0633  0.3899  0.4021
  705MOL0     C97215  10.223   8.180   7.072  0.3521  0.1065 -0.3214
  705MOL0     C97216  10.270   8.059   7.004  0.1074 -0.4246  0.8850
  705MOL0     C97217  10.298   7.950   6.952  1.0340 -0.2833 -0.1117
  705MOL0     C97218  10.314   8.239   7.697  0.2835  0.8274  0.3444
  705MOL0     C97219  10.321   8.256   7.834 -1.2217 -0.1327 -0.0332
  705MOL0     C97220  10.463   8.241   7.891  0.5301 -0.2554 -0.2280
  705MOL0     H97221  10.095   8.560   8.259 -0.1578  0.3593  1.3205
  705MOL0     H97222  10.069   8.563   8.495 -0.4445 -0.4169 -0.6973
  705MOL0     H97223  10.093   8.198   8.738 -0.6989 -0.4201 -1.1079
  705MOL0     H97224   9.921   8.219   8.789 -1.1410  0.7907 -1.4160
  705MOL0     H97225  10.155   8.356   8.905 -0.7108  2.4872  0.7708
  705MOL0     H97226  10.009   8.449   8.888  2.0945  0.4388  1.5088
  705MOL0     H97227  10.018   8.333   9.123 -0.6707 -0.5884 -0.3914
  705MOL0     H97228   9.878   8.294   9.023 -0.5064  2.7335 -0.3318
  705MOL0     H97229  10.050   8.088   8.958  0.4282 -2.2692  1.1857
  705MOL0     H97230  10.150   8.155   9.086 -0.2997  0.2414 -0.1048
  705MOL0     H97231   9.852   8.058   9.138 -0.7949 -4.4690  3.1755
  705MOL0     H97232   9.968   8.091   9.260 -0.8479 -0.7287  0.6493
  705MOL0     H97233  10.015   7.882   9.052 -0.7213  0.4054  0.0049
  705MOL0     H97234  10.114   7.918   9.193 -1.0688 -1.8368  2.9561
  705MOL0     H97235   9.826   7.898   9.256 -0.5139 -1.0687  0.4331
  705MOL0     H97236   9.959   7.822   9.333 -2.5774  2.1491  1.8096
  705MOL0     H97237   9.820   7.718   9.086  2.0837  2.4899 -0.3192
  705MOL0     H97238   9.961   7.637   9.172  0.8090  0.9441 -4.5398
  705MOL0     H97239   9.923   7.559   9.430 -1.7409 -0.5557  2.9386
  705MOL0     H97240   9.817   7.457   9.623 -0.7656  3.1577  2.6088
  705MOL0     H97241   9.685   7.355   9.590  0.2788  0.2335 -3.3275
  705MOL0     H97242   9.712   7.630   9.716 -0.9447  0.1292 -3.5121
  705MOL0     H97243   9.550   7.568   9.669  0.2002  0.2612 -1.3371
  705MOL0     H97244   9.587   7.380   9.820 -0.5918  0.6157  0.6898
  705MOL0     H97245   9.751   7.450   9.862  1.5151  0.4926 -3.7776
  705MOL0     H97246   9.599   7.491  10.048  1.9503  0.1267 -0.5317
  705MOL0     H97247   9.617   7.649   9.976 -0.4047  0.5820 -0.2884
  705MOL0     H97248   9.513   7.339  10.116 -0.0288  1.5686 -4.9918
  705MOL0     H97249   9.436   7.135  10.299 -1.8396 -2.7256  1.3940
  705MOL0     H97250   9.290   7.162  10.388  1.3110 -0.3518  1.4816
  705MOL0     H97251   9.419   7.281  10.404  0.7309 -0.8935  0.4196
  705MOL0     H97252   8.756   7.285  10.195  0.7182  0.9518  0.7654
  705MOL0     H97253   8.565   7.118  10.266 -0.6319  1.3966  1.1254
  705MOL0     H97254   8.390   7.132  10.426 -0.5659 -0.5619  0.1761
  705MOL0     H97255   8.392   6.965  10.364  3.0586  0.6461 -1.5394
  705MOL0     H97256   8.211   7.021  10.516  2.0982  3.2003 -2.0740
  705MOL0     H97257   8.308   6.875  10.566  1.8200 -0.3963 -1.1904
  705MOL0     H97258   8.313   7.151  10.684  1.2899 -0.8609 -0.6587
  705MOL0     H97259   8.421   7.030  10.740  0.3465 -1.7535 -0.4541
  705MOL0     H97260   8.148   6.919  10.727  0.9268 -2.8220  1.9170
  705MOL0     H97261   8.114   7.059  10.818 -3.0871 -2.7232  0.5407
  705MOL0     H97262   8.160   6.875  10.965  0.1441  1.5208  2.8762
  705MOL0     H97263   8.306   6.841  10.877  1.1963  1.6545 -1.2074
  705MOL0     H97264   8.263   7.081  11.068 -3.4392 -2.8747  2.1108
  705MOL0     H97265   8.403   7.072  10.962  0.0161 -2.3277 -1.0800
  705MOL0     H97266   8.432   6.969  11.213 -0.9299  0.4911  1.3720
  705MOL0     H97267   8.467   6.866  11.088 -0.1495 -0.4333  1.2063
  705MOL0     H97268   8.252   6.735  11.124 -0.3545 -1.3530  0.4868
  705MOL0     H97269   8.200   6.868  11.229 -0.8222 -3.3646  0.8401
  705MOL0     H97270   8.766   7.039  10.631 -3.5893  0.5913  0.0392
  705MOL0     H97271   8.956   7.147  10.547  1.0540 -1.8339 -1.8489
  705MOL0     H97272   9.038   7.462  10.143 -1.2354 -2.9174  0.0085
  705MOL0     H97273   9.195   7.578   9.981 -2.2631 -2.9414 -1.2547
  705MOL0     H97274   9.971   8.154   8.520 -2.9468  2.5197  0.4538
  705MOL0     H97275  10.021   8.135   8.257  3.0110  1.2459 -2.2287
  705MOL0     H97276   9.984   8.286   7.900 -0.3259 -0.4743  0.9832
  705MOL0     H97277   9.974   8.236   7.668 -0.0742 -0.9789 -0.5876
  705MOL0     H97278  10.108   8.415   7.460 -0.9772  0.0442 -1.5187
  705MOL0     H97279  10.285   8.374   7.446 -0.7184 -1.3076  0.2900
  705MOL0     H97280  10.138   8.402   7.233  1.5782  0.3570  0.3108
  705MOL0     H97281  10.033   8.266   7.277 -2.8482  2.6457 -1.2173
  705MOL0     H97282  10.320   8.202   7.269 -0.7930  1.2098  2.0335
  705MOL0     H97283  10.187   8.092   7.272  0.1849  1.1697  2.4459
  705MOL0     H97284  10.278   8.266   7.031  0.2365  0.4410  0.2208
  705MOL0     H97285  10.119   8.184   7.038 -0.1878  0.1413  1.2453
  705MOL0     H97286  10.309   7.857   6.899 -3.2736 -2.5292  2.3817
  705MOL0     H97287  10.407   8.226   7.642 -0.1076  0.5997 -0.2766
  705MOL0     H97288  10.469   8.281   7.992  1.2603  2.6431 -1.3386
  705MOL0     H97289  10.490   8.137   7.871 -1.0382 -0.3960 -1.9641
  705MOL0     H97290  10.524   8.306   7.829  0.7535 -0.5908 -0.3628
  706MOL0     O97291   7.238   8.573   5.058  0.4039 -1.0393  0.2621
  706MOL0     C97292   7.223   8.473   4.996  0.1051  0.0827  0.1575
  706MOL0     O97293   7.114   8.442   4.924  0.5223 -0.3170 -0.5819
  706MOL0     C97294   6.992   8.509   4.942  0.3826  0.1392 -1.0393
  706MOL0     C97295   6.887   8.427   4.903 -1.2256 -0.3899  0.0227
  706MOL0     C97296   6.750   8.449   4.923 -0.2331 -0.2688 -0.0240
  706MOL0     C97297   6.716   8.577   4.983  0.6286 -0.5527 -0.3928
  706MOL0     O97298   6.592   8.615   5.025  0.7189  0.6101  0.8135
  706MOL0     C97299   6.490   8.628   4.917 -0.0590  0.8323 -0.9167
  706MOL0     C97300   6.353   8.630   4.993  1.8174 -0.4573  0.2391
  706MOL0     C97301   6.305   8.498   5.050 -0.1008  0.4141  0.6292
  706MOL0     C97302   6.173   8.504   5.129  0.5397  0.0354  0.6022
  706MOL0     C97303   6.169   8.598   5.257  0.1797  0.2240 -0.2856
  706MOL0     C97304   6.046   8.566   5.332 -0.0410  0.2523  0.3816
  706MOL0     C97305   6.004   8.668   5.441  0.1143  0.0359  0.5025
  706MOL0     C97306   6.019   8.815   5.413  0.0620  0.2762  0.3965
  706MOL0     N97307   5.983   8.913   5.520 -0.4148 -0.7361 -0.6856
  706MOL0     C97308   5.851   8.953   5.533  0.0773 -1.2170  0.8527
  706MOL0     C97309   5.839   8.995   5.660  0.2324 -0.7968 -0.0820
  706MOL0     C97310   5.708   9.032   5.726  0.6224  0.0204 -0.5793
  706MOL0     C97311   5.626   8.907   5.732 -0.0474 -0.1970  0.7570
  706MOL0     C97312   5.495   8.944   5.809  0.4873  0.6305 -0.9662
  706MOL0     C97313   5.412   8.812   5.839  0.2050 -0.4783  0.6333
  706MOL0     O97314   5.420   8.713   5.728  0.0623  0.1171 -0.7183
  706MOL0     C97315   5.335   8.724   5.617  0.2159  0.4833 -0.6866
  706MOL0     C97316   5.200   8.764   5.607  0.1691  0.1590 -0.4555
  706MOL0     C97317   5.128   8.771   5.487  0.2102 -1.1450 -0.7257
  706MOL0     C97318   4.995   8.841   5.483 -0.0001  0.1540  0.1436
  706MOL0     C97319   5.189   8.719   5.370  0.3758  0.5987  0.0542
  706MOL0     C97320   5.111   8.707   5.251  0.8532  0.0589 -0.2428
  706MOL0     O97321   5.154   8.777   5.150  0.2123  0.3615 -1.0237
  706MOL0     C97322   5.081   8.763   5.037 -0.1700 -0.2562 -0.2444
  706MOL0     C97323   5.075   8.635   4.958 -0.2570  0.4395 -0.1541
  706MOL0     C97324   5.016   8.624   4.827 -0.0520 -0.7485  0.2157
  706MOL0     C97325   4.964   8.739   4.769 -0.7330 -0.6412  0.4388
  706MOL0     O97326   4.900   8.728   4.645  0.5240  0.9849  0.4091
  706MOL0     C97327   4.840   8.846   4.577 -0.2450 -1.0003  0.0094
  706MOL0     C97328   4.784   8.794   4.446  0.5849 -0.4274  0.3798
  706MOL0     C97329   4.659   8.707   4.470  0.3963 -0.1024  0.0926
  706MOL0     C97330   4.610   8.604   4.370  0.1705 -0.7818  1.0764
  706MOL0     C97331   4.510   8.660   4.268 -0.2416 -0.1549  0.0107
  706MOL0     C97332   4.569   8.715   4.141  0.2751  0.1685 -0.4797
  706MOL0     C97333   4.638   8.617   4.042  0.0574 -0.2798 -0.1824
  706MOL0     C97334   4.629   8.670   3.899  0.3758 -0.3085 -0.1478
  706MOL0    Cl97335   4.460   8.651   3.841  0.3860 -0.3226 -0.2149
  706MOL0     C97336   4.983   8.861   4.831  0.1560 -0.1239 -0.1207
  706MOL0     C97337   5.038   8.868   4.961  0.2158 -0.0965  0.4694
  706MOL0     O97338   4.999   8.648   5.256 -0.0940 -0.2798  0.1199
  706MOL0     C97339   5.321   8.678   5.376  0.4785  0.1249  0.4907
  706MOL0     C97340   5.389   8.684   5.500 -0.4325  0.7649 -0.1822
  706MOL0     N97341   5.964   8.975   5.736  0.2002  0.7138  0.5752
  706MOL0     N97342   6.045   8.931   5.645 -0.0241  0.9687  0.4388
  706MOL0     C97343   6.814   8.671   5.013  0.2834  0.3088 -0.1475
  706MOL0     C97344   6.949   8.639   4.990 -0.3916  0.8906  0.5540
  706MOL0     C97345   7.348   8.396   4.986  0.1470  0.3822 -0.3871
  706MOL0     C97346   7.347   8.278   4.899  0.5396 -0.0352 -0.7077
  706MOL0     C97347   7.461   8.205   4.883  0.1956  0.2715  0.2040
  706MOL0     C97348   7.575   8.223   4.957 -0.5022 -0.2734 -0.1917
  706MOL0     O97349   7.665   8.125   4.946  0.3635 -0.5319  0.0834
  706MOL0     C97350   7.765   8.109   5.047  0.4915 -0.2237 -0.3590
  706MOL0     C97351   7.853   7.985   5.015 -0.2279  0.0754  0.1928
  706MOL0     C97352   7.769   7.862   4.970  0.6351  0.2377 -1.1855
  706MOL0     C97353   7.840   7.728   4.949  0.3768 -0.3544  0.5559
  706MOL0     C97354   7.905   7.735   4.820 -0.0220  0.1479  0.7680
  706MOL0     C97355   7.969   7.748   4.714 -0.0083  0.4155  0.4151
  706MOL0     C97356   7.581   8.334   5.046 -0.8671  0.6241 -0.0808
  706MOL0     C97357   7.469   8.419   5.060 -0.8807  0.4454  0.7858
  706MOL0     C97358   7.490   8.522   5.169  0.8005  0.0778 -0.1366
  706MOL0     H97359   6.906   8.333   4.853 -3.0100 -1.3959  1.1306
  706MOL0     H97360   6.671   8.379   4.897 -3.3236  2.7666  0.4489
  706MOL0     H97361   6.489   8.531   4.867 -0.0672 -1.2513  2.7887
  706MOL0     H97362   6.511   8.720   4.862  1.9129  0.5556 -0.7226
  706MOL0     H97363   6.358   8.698   5.079  0.2661 -3.9595  3.3630
  706MOL0     H97364   6.273   8.663   4.926  2.7034 -1.1089 -1.2049
  706MOL0     H97365   6.307   8.414   4.981 -1.8782  1.4291 -0.7422
  706MOL0     H97366   6.385   8.468   5.118  0.2454  0.6337  0.3193
  706MOL0     H97367   6.088   8.530   5.066 -2.4639 -0.3370  4.1315
  706MOL0     H97368   6.157   8.400   5.159 -0.5760 -0.2509 -0.9057
  706MOL0     H97369   6.161   8.696   5.210 -2.8013 -1.2205 -3.1921
  706MOL0     H97370   6.259   8.596   5.320 -0.4004  2.7924  0.7403
  706MOL0     H97371   5.961   8.577   5.265 -1.2734  1.9876  2.1089
  706MOL0     H97372   6.060   8.471   5.385  2.4709 -0.3793 -1.2582
  706MOL0     H97373   6.054   8.653   5.537 -1.8815  0.0560  1.5900
  706MOL0     H97374   5.897   8.669   5.463 -0.1931  2.8732 -0.7324
  706MOL0     H97375   6.124   8.839   5.394 -0.2657  1.5731  0.1486
  706MOL0     H97376   5.968   8.849   5.323  1.3075  1.0250 -0.0533
  706MOL0     H97377   5.771   8.941   5.461 -0.7321 -0.9532  1.6834
  706MOL0     H97378   5.649   9.103   5.666 -2.1993 -1.2490  0.5008
  706MOL0     H97379   5.719   9.082   5.822 -4.5997 -0.0998  0.3667
  706MOL0     H97380   5.603   8.870   5.631  1.4382 -0.0214  0.3197
  706MOL0     H97381   5.674   8.828   5.790  0.4759 -0.4271  0.0266
  706MOL0     H97382   5.524   8.985   5.907  1.8909 -0.6391 -0.8226
  706MOL0     H97383   5.429   9.016   5.759  1.9480  2.3963 -0.4401
  706MOL0     H97384   5.456   8.757   5.922  1.2341 -2.8564 -1.3376
  706MOL0     H97385   5.309   8.837   5.866  0.5714  0.5541  1.1331
  706MOL0     H97386   5.162   8.782   5.707  1.8770  0.8316  0.1027
  706MOL0     H97387   4.920   8.790   5.423 -0.4876  0.5861  0.3733
  706MOL0     H97388   4.991   8.931   5.420 -0.6815  0.0620  0.0469
  706MOL0     H97389   4.961   8.854   5.586 -0.8652 -1.4043  0.0888
  706MOL0     H97390   5.117   8.544   5.000  1.6038  0.3986 -1.9418
  706MOL0     H97391   5.008   8.527   4.778 -0.9377 -0.3686 -0.4333
  706MOL0     H97392   4.761   8.887   4.640  0.1660 -1.5389  0.8982
  706MOL0     H97393   4.909   8.928   4.557 -3.6018  2.2584  0.5918
  706MOL0     H97394   4.758   8.868   4.369  0.2144 -0.1226  0.7946
  706MOL0     H97395   4.856   8.720   4.409  0.9176 -1.6680  3.2252
  706MOL0     H97396   4.575   8.774   4.491  2.4640  3.2188 -1.4371
  706MOL0     H97397   4.670   8.643   4.558 -0.3072  0.1465  0.3614
  706MOL0     H97398   4.546   8.531   4.420  2.5892 -3.9453 -0.0445
  706MOL0     H97399   4.696   8.550   4.327  1.3675  1.2708  0.7442
  706MOL0     H97400   4.456   8.571   4.234  1.5196 -2.4214  2.7026
  706MOL0     H97401   4.450   8.740   4.314  0.0164  0.6484 -1.0048
  706MOL0     H97402   4.637   8.796   4.167  2.0840 -1.6899  0.9175
  706MOL0     H97403   4.484   8.761   4.089  0.0944  0.8816  0.4197
  706MOL0     H97404   4.601   8.515   4.058  1.3949 -0.6168  0.9948
  706MOL0     H97405   4.746   8.624   4.062 -0.1289 -0.1562  0.8129
  706MOL0     H97406   4.693   8.617   3.828  1.6529  0.5137  0.3610
  706MOL0     H97407   4.670   8.771   3.901  3.6562 -1.4582  3.0978
  706MOL0     H97408   4.953   8.954   4.784  2.0940  0.5830 -0.0464
  706MOL0     H97409   5.048   8.964   5.012  1.2371  0.4105 -0.6244
  706MOL0     H97410   5.372   8.646   5.286  2.3009  0.8719  1.2262
  706MOL0     H97411   5.494   8.657   5.501 -0.2076  1.3614  3.3399
  706MOL0     H97412   6.790   8.764   5.064  0.8544  1.6958 -2.2634
  706MOL0     H97413   7.021   8.710   5.029 -1.1101  0.9270  1.8673
  706MOL0     H97414   7.261   8.251   4.839  1.0535 -1.6843 -0.7333
  706MOL0     H97415   7.461   8.112   4.827  0.5588  0.5940 -0.3382
  706MOL0     H97416   7.829   8.198   5.046 -0.6228  0.5901 -0.8633
  706MOL0     H97417   7.721   8.098   5.147 -0.4798 -0.7063 -0.8288
  706MOL0     H97418   7.914   7.958   5.102 -0.7709 -0.0679  0.5361
  706MOL0     H97419   7.917   8.014   4.931 -1.6911  0.2829 -0.8934
  706MOL0     H97420   7.709   7.833   5.057  1.0419 -0.0427 -0.9924
  706MOL0     H97421   7.709   7.887   4.882 -0.5008 -0.3532 -0.5970
  706MOL0     H97422   7.763   7.650   4.945  1.8618 -1.9047  1.2996
  706MOL0     H97423   7.912   7.703   5.027  2.4774 -0.2506 -1.2485
  706MOL0     H97424   8.032   7.778   4.633  1.3736 -0.9027  0.9496
  706MOL0     H97425   7.665   8.346   5.114 -1.6564 -1.9819  1.4871
  706MOL0     H97426   7.423   8.491   5.250  1.4964 -0.6888  0.1737
  706MOL0     H97427   7.586   8.529   5.221  1.6815  0.5109 -1.7585
  706MOL0     H97428   7.473   8.626   5.140  4.2658  1.5318  2.3234
  707MOL0     O97429   2.741   2.108   8.107 -0.4872  0.6115  0.5297
  707MOL0     C97430   2.788   2.105   8.226 -0.1647  1.1292  0.6039
  707MOL0     O97431   2.793   2.203   8.317 -0.3738  0.0554  0.2201
  707MOL0     C97432   2.747   2.332   8.279  0.5764 -0.2098 -0.5160
  707MOL0     C97433   2.628   2.389   8.325  0.6252 -0.4152  0.3418
  707MOL0     C97434   2.589   2.520   8.285 -0.8082  0.2993 -0.4223
  707MOL0     C97435   2.673   2.609   8.222 -0.1702 -0.6372  0.4990
  707MOL0     O97436   2.630   2.738   8.194 -0.3974 -0.0239 -0.0457
  707MOL0     C97437   2.742   2.830   8.188  0.0660 -0.2472  0.0024
  707MOL0     C97438   2.705   2.983   8.199 -0.3134 -0.0810 -0.3739
  707MOL0     C97439   2.605   3.017   8.086  0.3978 -1.1750  0.8099
  707MOL0     C97440   2.593   3.172   8.079 -0.4116 -0.7756 -0.2831
  707MOL0     C97441   2.479   3.219   7.987 -0.0656  0.5440  0.2150
  707MOL0     C97442   2.450   3.364   8.010  0.2849 -0.5638 -0.4133
  707MOL0     C97443   2.335   3.422   7.925 -0.2313  0.1873  0.4192
  707MOL0     C97444   2.339   3.406   7.779  0.1611  0.5288  0.0714
  707MOL0     N97445   2.216   3.468   7.712 -0.5614  0.4880 -0.0318
  707MOL0     C97446   2.160   3.590   7.731  0.1581  0.1442 -1.0959
  707MOL0     C97447   2.036   3.582   7.663 -0.3498 -0.5446 -0.7934
  707MOL0     C97448   1.941   3.697   7.648 -1.2111  0.1084  0.1944
  707MOL0     C97449   1.829   3.654   7.731  0.3041 -0.6515  0.0797
  707MOL0     C97450   1.714   3.769   7.701 -0.3122  0.3715 -1.0290
  707MOL0     C97451   1.601   3.775   7.808  0.3449 -0.1506 -0.1589
  707MOL0     O97452   1.657   3.814   7.939 -0.2547  0.2471 -0.3184
  707MOL0     C97453   1.648   3.942   7.987 -0.1830 -0.4051  0.1647
  707MOL0     C97454   1.681   3.968   8.121 -0.5190 -0.7482  0.6060
  707MOL0     C97455   1.682   4.105   8.168 -0.0841  0.5553 -0.5566
  707MOL0     C97456   1.738   4.121   8.305  0.2173  0.0841 -0.2128
  707MOL0     C97457   1.638   4.206   8.082 -0.0620 -0.3333 -0.5172
  707MOL0     C97458   1.646   4.349   8.114 -0.0120  0.0893  0.6090
  707MOL0     O97459   1.623   4.380   8.236 -0.0910  0.2566  0.6077
  707MOL0     C97460   1.609   4.511   8.270  0.0741  0.3256 -0.7050
  707MOL0     C97461   1.483   4.550   8.325  0.1527  0.1320  0.3827
  707MOL0     C97462   1.453   4.684   8.362 -0.2887  0.5366  0.0950
  707MOL0     C97463   1.557   4.779   8.362  0.3429  0.3426 -0.0808
  707MOL0     O97464   1.536   4.912   8.383 -0.7500  0.4216 -0.6513
  707MOL0     C97465   1.421   4.957   8.450 -0.2273 -0.2466 -0.0661
  707MOL0     C97466   1.437   5.087   8.543  0.2643 -0.4917 -0.1343
  707MOL0     C97467   1.419   5.202   8.450  0.0801  0.4719 -0.3345
  707MOL0     C97468   1.487   5.326   8.506  1.1338 -0.0263  0.0925
  707MOL0     C97469   1.447   5.444   8.419  0.2137 -0.5027  0.4249
  707MOL0     C97470   1.546   5.555   8.459 -0.0403 -0.3524 -1.7266
  707MOL0     C97471   1.480   5.688   8.428 -0.6611 -0.5517  0.2470
  707MOL0     C97472   1.600   5.785   8.444  0.5883  0.3584  0.1764
  707MOL0    Cl97473   1.528   5.947   8.394 -0.2596  0.1857  0.1865
  707MOL0     C97474   1.687   4.738   8.317  0.1407 -0.3958  0.1816
  707MOL0     C97475   1.706   4.605   8.280 -1.0486  0.1127  0.2280
  707MOL0     O97476   1.656   4.435   8.022  0.3623 -0.4555 -0.2244
  707MOL0     C97477   1.600   4.183   7.952  0.8922  0.4733  0.4452
  707MOL0     C97478   1.603   4.049   7.907 -0.5399  0.1880  0.4744
  707MOL0     N97479   2.033   3.459   7.601  0.4275 -0.7266 -1.6424
  707MOL0     N97480   2.137   3.392   7.632  0.3671  0.4690  1.0046
  707MOL0     C97481   2.800   2.547   8.172 -0.7161 -0.1006  0.8405
  707MOL0     C97482   2.823   2.410   8.192 -0.6466  1.1332 -0.1463
  707MOL0     C97483   2.851   1.970   8.270  0.4054 -0.4318 -0.8295
  707MOL0     C97484   2.928   1.899   8.183 -0.4894  0.6896  1.1290
  707MOL0     C97485   2.989   1.777   8.219  0.5908  0.6159  0.5692
  707MOL0     C97486   2.984   1.719   8.341  1.2759 -0.4246 -0.7173
  707MOL0     O97487   3.048   1.595   8.371  0.0878  0.3014  0.6966
  707MOL0     C97488   3.046   1.490   8.275  0.4046 -0.4232  0.2368
  707MOL0     C97489   3.111   1.364   8.322  0.5731 -0.9486  0.4088
  707MOL0     C97490   3.069   1.239   8.255  0.8466 -0.6221 -0.2252
  707MOL0     C97491   3.083   1.227   8.102 -0.2434 -1.0175  0.3563
  707MOL0     C97492   3.221   1.261   8.067 -0.5022  0.3069 -0.1643
  707MOL0     C97493   3.336   1.302   8.052  0.2511 -0.5948 -0.6568
  707MOL0     C97494   2.900   1.795   8.436 -0.7025  0.3483  0.4232
  707MOL0     C97495   2.835   1.918   8.408 -0.2030  0.4261  0.6928
  707MOL0     C97496   2.747   1.994   8.511 -0.7052  0.4106 -0.2006
  707MOL0     H97497   2.552   2.339   8.384  1.0780 -2.3868 -0.6675
  707MOL0     H97498   2.492   2.569   8.295 -0.3905  0.8751  1.0961
  707MOL0     H97499   2.786   2.814   8.089 -1.1257  2.8107 -1.1404
  707MOL0     H97500   2.811   2.810   8.270  0.0840  1.6214  0.4893
  707MOL0     H97501   2.677   3.017   8.299  4.2543 -0.4556  1.2439
  707MOL0     H97502   2.802   3.033   8.196  0.2163 -0.8077  2.1909
  707MOL0     H97503   2.645   2.977   7.992  0.6238  0.0344  0.3760
  707MOL0     H97504   2.501   2.990   8.107 -0.6089  2.6147  1.3614
  707MOL0     H97505   2.569   3.201   8.182 -2.4978 -2.7612 -0.1402
  707MOL0     H97506   2.695   3.203   8.053 -0.7140  0.2209 -0.3446
  707MOL0     H97507   2.389   3.159   8.004 -0.0308  0.4367  0.0258
  707MOL0     H97508   2.500   3.205   7.880 -2.4714 -1.2827 -0.1157
  707MOL0     H97509   2.417   3.383   8.112  2.5634 -0.2272  0.3052
  707MOL0     H97510   2.535   3.426   7.979 -1.7565  1.3139 -2.7739
  707MOL0     H97511   2.332   3.528   7.955 -1.1383  0.6647 -1.2407
  707MOL0     H97512   2.251   3.369   7.970  0.8039 -0.9740  1.0321
  707MOL0     H97513   2.431   3.435   7.728  1.0707  2.1674  2.4534
  707MOL0     H97514   2.332   3.298   7.763 -1.1515  0.5473  0.3965
  707MOL0     H97515   2.191   3.677   7.788 -0.5043  1.3337 -2.4868
  707MOL0     H97516   1.915   3.723   7.545 -0.3548  1.1166  0.2091
  707MOL0     H97517   2.000   3.784   7.679  0.5569 -1.4928  1.6106
  707MOL0     H97518   1.785   3.560   7.697 -1.0038  0.1874 -0.6319
  707MOL0     H97519   1.849   3.643   7.838  2.7318 -1.0882 -0.3545
  707MOL0     H97520   1.761   3.868   7.699  2.1262 -0.6579  0.6559
  707MOL0     H97521   1.670   3.759   7.602 -1.0998 -3.4449 -0.4522
  707MOL0     H97522   1.515   3.839   7.786 -1.0180 -1.2098  1.7686
  707MOL0     H97523   1.563   3.672   7.815 -0.1529  0.1185  1.9913
  707MOL0     H97524   1.713   3.880   8.175  0.0196 -1.3117 -0.6009
  707MOL0     H97525   1.799   4.210   8.321  0.3881 -0.6962  5.6958
  707MOL0     H97526   1.803   4.039   8.337  1.4037  1.2567  0.4433
  707MOL0     H97527   1.666   4.120   8.387 -0.4495 -0.7835 -0.7931
  707MOL0     H97528   1.395   4.490   8.300  1.9172 -0.9239 -4.4526
  707MOL0     H97529   1.350   4.707   8.385 -1.7891 -2.9581 -2.2718
  707MOL0     H97530   1.333   4.965   8.386  1.1434  1.3724 -1.8607
  707MOL0     H97531   1.387   4.897   8.535 -2.2737 -0.1996 -0.7962
  707MOL0     H97532   1.361   5.091   8.621 -0.8941  2.0618 -1.2798
  707MOL0     H97533   1.538   5.090   8.586  0.9235 -0.6247 -1.5988
  707MOL0     H97534   1.311   5.216   8.439 -0.0511  0.8758  1.2316
  707MOL0     H97535   1.459   5.177   8.351 -0.1292 -2.8262  0.3087
  707MOL0     H97536   1.595   5.306   8.507  0.9661 -1.0006  1.5646
  707MOL0     H97537   1.453   5.351   8.607  0.3296 -2.2375  0.4191
  707MOL0     H97538   1.460   5.423   8.313 -3.0722  0.8886 -0.3827
  707MOL0     H97539   1.340   5.464   8.429  0.8255  2.7315  1.6721
  707MOL0     H97540   1.642   5.541   8.408  2.3925  0.2471  2.2759
  707MOL0     H97541   1.577   5.545   8.563 -2.0009 -0.7661 -1.1477
  707MOL0     H97542   1.406   5.711   8.504  1.0984 -1.8800  2.4930
  707MOL0     H97543   1.455   5.696   8.322  1.6688 -2.2403 -0.5388
  707MOL0     H97544   1.687   5.755   8.385  0.4529 -2.5720  1.2887
  707MOL0     H97545   1.617   5.783   8.552 -1.3400  1.7835  0.5589
  707MOL0     H97546   1.755   4.823   8.324  1.3621 -1.4013  1.1861
  707MOL0     H97547   1.804   4.566   8.253 -2.2020 -2.7703 -0.1444
  707MOL0     H97548   1.582   4.266   7.885  0.7768  2.7482  3.1544
  707MOL0     H97549   1.570   4.034   7.805  0.1506 -0.2047  0.2986
  707MOL0     H97550   2.863   2.618   8.120 -3.4478  1.3949 -0.6721
  707MOL0     H97551   2.906   2.361   8.141  0.7778  2.0145  1.2215
  707MOL0     H97552   2.956   1.930   8.082  1.9312 -1.3884  1.0544
  707MOL0     H97553   3.054   1.731   8.146 -1.6116 -1.0912 -0.4508
  707MOL0     H97554   2.941   1.462   8.262  1.0514 -2.3785 -1.1256
  707MOL0     H97555   3.083   1.522   8.178 -0.8668 -0.2468 -0.2035
  707MOL0     H97556   3.080   1.352   8.426 -2.5691  2.1614  0.0086
  707MOL0     H97557   3.221   1.366   8.323  0.7295 -2.1068 -2.6460
  707MOL0     H97558   3.131   1.159   8.296  1.8755 -0.0510 -0.6173
  707MOL0     H97559   2.966   1.225   8.289  0.0808  1.9063 -1.2434
  707MOL0     H97560   3.023   1.302   8.050  1.8864  0.9343  0.5218
  707MOL0     H97561   3.045   1.132   8.063 -1.4210 -1.4066  2.3370
  707MOL0     H97562   3.434   1.345   8.042 -0.6463  0.9674 -4.9297
  707MOL0     H97563   2.885   1.757   8.537 -0.0105 -1.7378 -0.2217
  707MOL0     H97564   2.722   1.933   8.598 -2.1888 -0.9695 -1.5209
  707MOL0     H97565   2.799   2.087   8.535  0.0957  0.2818 -1.3603
  707MOL0     H97566   2.652   2.023   8.463 -1.2670  1.7206  1.6000
  708MOL0     O97567   1.236   4.439  11.198  0.3498  0.8488 -0.1457
  708MOL0     C97568   1.328   4.364  11.231 -0.2836  1.0029 -0.1369
  708MOL0     O97569   1.334   4.280  11.337 -0.6764  0.9480 -0.1505
  708MOL0     C97570   1.220   4.280  11.412  0.0023  0.2284  0.0136
  708MOL0     C97571   1.246   4.306  11.548  0.4008  0.1232 -0.2048
  708MOL0     C97572   1.136   4.320  11.636 -0.3415 -0.1506  0.4461
  708MOL0     C97573   1.001   4.317  11.585  0.4278  0.2926 -0.1956
  708MOL0     O97574   0.892   4.325  11.661  0.1670 -0.2429  0.1818
  708MOL0     C97575   0.795   4.420  11.617  0.1774 -0.7245 -0.5211
  708MOL0     C97576   0.714   4.465  11.750 -0.3731 -0.6293 -0.2803
  708MOL0     C97577   0.800   4.545  11.845  0.9611 -0.1613 -0.5908
  708MOL0     C97578   0.825   4.687  11.804  0.5273  0.5163  0.3618
  708MOL0     C97579   0.868   4.774  11.928  0.3205  0.3993  0.3292
  708MOL0     C97580   0.838   4.922  11.905  0.5881  0.4284  0.0900
  708MOL0     C97581   0.911   5.004  12.003  0.7890 -0.4175  0.6955
  708MOL0     C97582   0.888   5.151  11.989 -0.4798 -0.1089 -0.8606
  708MOL0     N97583   0.762   5.176  12.048  0.3441 -0.9476 -0.4817
  708MOL0     C97584   0.631   5.163  12.007 -0.4860  0.4077  0.1916
  708MOL0     C97585   0.555   5.169  12.119 -0.5311 -0.6232  0.5744
  708MOL0     C97586   0.409   5.139  12.134  0.1689 -0.3457  1.0028
  708MOL0     C97587   0.358   5.185  12.268 -0.8000 -0.6687 -0.1675
  708MOL0     C97588   0.208   5.180  12.305 -0.6091  0.0597  0.5827
  708MOL0     C97589   0.109   5.260  12.218 -0.5231  0.5030 -0.0856
  708MOL0     O97590   0.099   5.231  12.080 -0.3377  0.2949  0.0819
  708MOL0     C97591  -0.027   5.267  12.032  0.7892 -0.5003  0.0051
  708MOL0     C97592  -0.105   5.377  12.072  0.1828 -0.4179  0.3255
  708MOL0     C97593  -0.234   5.394  12.016 -0.1439 -0.1443 -0.2412
  708MOL0     C97594  -0.320   5.489  12.080  0.5462 -0.6900  0.0317
  708MOL0     C97595  -0.284   5.316  11.908  0.9393  0.1262 -0.1276
  708MOL0     C97596  -0.419   5.347  11.840  0.9731 -0.4986  0.2055
  708MOL0     O97597  -0.464   5.239  11.753 -0.4755  0.0437  0.5430
  708MOL0     C97598  -0.589   5.268  11.703  0.2413  0.1513  0.0948
  708MOL0     C97599  -0.599   5.344  11.584  0.4693  0.1989 -0.2510
  708MOL0     C97600  -0.722   5.370  11.518 -0.7724 -0.1683 -0.3028
  708MOL0     C97601  -0.836   5.316  11.574 -0.2252  0.1566  0.0519
  708MOL0     O97602  -0.969   5.340  11.532  0.0979  0.3751 -0.0918
  708MOL0     C97603  -0.985   5.422  11.414  0.0587 -0.4033 -0.3027
  708MOL0     C97604  -0.988   5.336  11.288 -0.2876  0.7332  0.5398
  708MOL0     C97605  -1.027   5.424  11.169  0.0991  0.2196  0.0485
  708MOL0     C97606  -1.030   5.344  11.038 -0.7388  0.7732 -0.7046
  708MOL0     C97607  -1.063   5.432  10.921  0.2979 -0.1598 -0.0546
  708MOL0     C97608  -1.208   5.460  10.916 -0.0191 -0.7901  0.6262
  708MOL0     C97609  -1.242   5.539  10.781 -0.4355  0.6672 -0.7141
  708MOL0     C97610  -1.384   5.594  10.782 -0.6394 -0.8786  0.4363
  708MOL0    Cl97611  -1.403   5.706  10.648  0.3979 -0.5279  0.2511
  708MOL0     C97612  -0.822   5.243  11.694 -0.1071 -0.6563 -0.4317
  708MOL0     C97613  -0.699   5.212  11.757  0.7773 -0.6049  0.3518
  708MOL0     O97614  -0.482   5.450  11.856  0.0824  0.6301  0.2327
  708MOL0     C97615  -0.202   5.211  11.867  0.7497 -1.2499 -0.2479
  708MOL0     C97616  -0.080   5.184  11.936 -0.4074  0.2425 -0.0981
  708MOL0     N97617   0.649   5.181  12.231 -0.3126 -0.1761 -0.0063
  708MOL0     N97618   0.768   5.190  12.185 -0.2862 -0.2114  0.8846
  708MOL0     C97619   0.980   4.275  11.453 -0.0912 -0.5341  0.6471
  708MOL0     C97620   1.093   4.257  11.368  0.0843 -0.1635  0.1871
  708MOL0     C97621   1.451   4.365  11.141 -0.3526  0.0231  0.6019
  708MOL0     C97622   1.579   4.320  11.185 -0.0759  0.1440  0.6743
  708MOL0     C97623   1.691   4.340  11.102  0.0824  0.2441 -0.3344
  708MOL0     C97624   1.688   4.412  10.982  0.2595 -0.1178 -0.3004
  708MOL0     O97625   1.806   4.446  10.911  0.3648 -0.7675  0.3981
  708MOL0     C97626   1.931   4.389  10.952  0.4099  0.1931 -0.0781
  708MOL0     C97627   2.042   4.412  10.842  0.9281 -0.1936  0.0441
  708MOL0     C97628   2.166   4.337  10.843 -0.4477 -0.3265  0.9796
  708MOL0     C97629   2.277   4.395  10.745  0.3895 -0.1575  0.8847
  708MOL0     C97630   2.319   4.525  10.791 -0.1041 -0.9502  0.2064
  708MOL0     C97631   2.334   4.632  10.826 -0.2730 -0.4368  0.1028
  708MOL0     C97632   1.563   4.469  10.949  0.3055  0.3146  0.2805
  708MOL0     C97633   1.443   4.437  11.019  0.1189 -1.8823  1.1948
  708MOL0     C97634   1.323   4.503  10.946 -0.4728 -0.5764  0.1196
  708MOL0     H97635   1.340   4.338  11.590  0.7148  1.0671 -1.5592
  708MOL0     H97636   1.152   4.340  11.741  3.9951 -0.3265 -0.0215
  708MOL0     H97637   0.732   4.369  11.544  0.2342 -0.2096 -0.9362
  708MOL0     H97638   0.844   4.509  11.577 -2.1148  0.9451  0.1543
  708MOL0     H97639   0.623   4.517  11.720 -0.0168 -1.5393 -3.3162
  708MOL0     H97640   0.676   4.382  11.810  0.5791 -2.3627 -1.9523
  708MOL0     H97641   0.741   4.548  11.937 -0.4570  0.7748 -1.4792
  708MOL0     H97642   0.895   4.499  11.874 -0.6974 -3.2663  0.4483
  708MOL0     H97643   0.898   4.697  11.723 -0.4324  4.0291 -0.2383
  708MOL0     H97644   0.726   4.715  11.765  0.0886 -2.1657 -0.6557
  708MOL0     H97645   0.975   4.755  11.927  0.2384 -0.0802  0.7845
  708MOL0     H97646   0.823   4.743  12.022 -1.5347  0.3905 -0.5112
  708MOL0     H97647   0.858   4.953  11.803 -2.8708  3.3910  0.0863
  708MOL0     H97648   0.730   4.930  11.922  0.2053 -0.9707 -1.4567
  708MOL0     H97649   1.017   4.988  11.981  0.4278 -2.2566  0.1150
  708MOL0     H97650   0.893   4.966  12.104  0.1842  0.9883  1.1481
  708MOL0     H97651   0.971   5.201  12.040  0.7354 -2.4522 -0.3915
  708MOL0     H97652   0.895   5.188  11.886 -1.7315  0.8839 -0.6136
  708MOL0     H97653   0.594   5.144  11.907  0.8000 -2.1241  0.1149
  708MOL0     H97654   0.394   5.032  12.117  1.0824 -0.2209 -0.8380
  708MOL0     H97655   0.347   5.183  12.055 -1.7382 -1.3627  1.8706
  708MOL0     H97656   0.406   5.116  12.337  0.1603 -0.6517 -0.7941
  708MOL0     H97657   0.390   5.289  12.281  1.0098 -0.9881 -1.6621
  708MOL0     H97658   0.173   5.077  12.311 -1.7522  0.4015  0.1029
  708MOL0     H97659   0.192   5.211  12.409 -1.3534 -0.5973  0.6718
  708MOL0     H97660   0.020   5.227  12.273  0.5596 -1.9345  0.3138
  708MOL0     H97661   0.131   5.366  12.231  0.0368  0.1014  3.1867
  708MOL0     H97662  -0.062   5.436  12.152 -0.5678  0.9924 -0.2751
  708MOL0     H97663  -0.314   5.579  12.019  0.2489 -2.0186 -2.0533
  708MOL0     H97664  -0.278   5.506  12.180 -2.8702 -2.4562  1.9585
  708MOL0     H97665  -0.422   5.453  12.095 -0.5897  1.6360 -1.5210
  708MOL0     H97666  -0.502   5.378  11.551 -0.9938  2.8332 -2.2120
  708MOL0     H97667  -0.719   5.436  11.432 -0.3858 -1.2974 -1.1638
  708MOL0     H97668  -1.072   5.485  11.431  0.8893  0.8921 -0.6824
  708MOL0     H97669  -0.905   5.496  11.407 -0.6868  0.4330 -0.0907
  708MOL0     H97670  -0.889   5.291  11.290  0.7896  2.8634  3.8486
  708MOL0     H97671  -1.054   5.249  11.299  1.2694 -0.5447  0.0193
  708MOL0     H97672  -0.966   5.514  11.160  2.8204 -1.6204 -1.2191
  708MOL0     H97673  -1.132   5.454  11.176 -1.1170 -3.1872 -1.2662
  708MOL0     H97674  -1.096   5.256  11.039  1.4617 -1.0140  0.9913
  708MOL0     H97675  -0.933   5.297  11.017 -0.4945  1.3588 -0.8767
  708MOL0     H97676  -1.020   5.532  10.929 -4.1666  2.3204 -3.1449
  708MOL0     H97677  -1.029   5.392  10.825  1.0878  1.3841 -0.4553
  708MOL0     H97678  -1.247   5.520  10.999 -3.7895 -1.8824 -0.1733
  708MOL0     H97679  -1.270   5.370  10.922 -2.7581  0.9149 -0.4130
  708MOL0     H97680  -1.219   5.485  10.689  0.5321  3.5390 -2.2887
  708MOL0     H97681  -1.185   5.631  10.764 -0.7330  1.7180  3.0845
  708MOL0     H97682  -1.407   5.645  10.875 -1.1620  0.9188 -0.6254
  708MOL0     H97683  -1.448   5.509  10.754 -0.1837 -0.7865 -0.9969
  708MOL0     H97684  -0.920   5.210  11.727 -2.1887  3.5306 -1.7325
  708MOL0     H97685  -0.698   5.152  11.848 -3.0677  1.6626  2.1612
  708MOL0     H97686  -0.217   5.150  11.779  3.4563  0.0117 -1.7205
  708MOL0     H97687  -0.024   5.103  11.892  1.4700  1.8757 -0.8797
  708MOL0     H97688   0.885   4.255  11.404 -0.5027  2.4697  0.0349
  708MOL0     H97689   1.083   4.226  11.264 -2.4983  0.8344  0.0639
  708MOL0     H97690   1.566   4.243  11.260 -0.0580 -0.8811 -0.3332
  708MOL0     H97691   1.784   4.306  11.146  1.9538  2.2124 -2.5681
  708MOL0     H97692   1.956   4.433  11.049 -1.0066 -0.5295  0.6327
  708MOL0     H97693   1.915   4.284  10.977  1.1064  0.1751  0.3220
  708MOL0     H97694   2.061   4.519  10.832 -1.0151  0.0241 -2.3939
  708MOL0     H97695   1.990   4.393  10.748  0.9182  1.2500 -0.2630
  708MOL0     H97696   2.197   4.332  10.948 -1.5405  1.7369  1.4416
  708MOL0     H97697   2.138   4.234  10.818 -1.5580 -0.1727  1.5471
  708MOL0     H97698   2.228   4.403  10.647  0.5131 -0.4788  0.7940
  708MOL0     H97699   2.366   4.332  10.740 -0.8973 -2.0094  0.2519
  708MOL0     H97700   2.331   4.737  10.848 -1.6202 -1.1247  4.0459
  708MOL0     H97701   1.561   4.538  10.866  1.0051  0.0600  0.0445
  708MOL0     H97702   1.222   4.475  10.979 -1.2838  1.2833 -0.6594
  708MOL0     H97703   1.335   4.610  10.965 -1.4916 -0.3985 -0.1625
  708MOL0     H97704   1.335   4.470  10.842  2.8200 -1.0807  0.5581
  709MOL0     O97705  10.315   6.325   0.436  0.6345 -0.0987 -0.4532
  709MOL0     C97706  10.270   6.232   0.502 -0.2911 -0.6507 -0.8072
  709MOL0     O97707  10.342   6.165   0.601  0.1076 -0.0129  0.8960
  709MOL0     C97708  10.479   6.167   0.576  0.3354  0.1162 -0.2500
  709MOL0     C97709  10.547   6.082   0.489  0.8017 -0.9252 -0.8590
  709MOL0     C97710  10.683   6.110   0.454  0.1076  0.3324 -0.1092
  709MOL0     C97711  10.755   6.216   0.519 -0.6782 -0.4623 -0.3587
  709MOL0     O97712  10.890   6.242   0.492 -0.2311  0.0109 -0.7330
  709MOL0     C97713  10.934   6.379   0.497  0.2336 -0.4852 -0.5762
  709MOL0     C97714  11.066   6.413   0.416 -0.1405 -0.3120 -0.5699
  709MOL0     C97715  11.152   6.545   0.458  0.2754 -0.9318  0.3947
  709MOL0     C97716  11.270   6.587   0.362  0.3333  0.2255 -0.0296
  709MOL0     C97717  11.282   6.743   0.369  0.1721  0.2435 -0.1204
  709MOL0     C97718  11.348   6.812   0.244  0.1719  0.1041  1.1120
  709MOL0     C97719  11.324   6.967   0.257 -0.0413 -0.9058 -0.1658
  709MOL0     C97720  11.194   7.008   0.193  0.3394 -0.1729  0.4871
  709MOL0     N97721  11.162   7.149   0.218  0.2545 -0.9005  0.3875
  709MOL0     C97722  11.088   7.192   0.325  0.0355 -0.3153 -0.8336
  709MOL0     C97723  11.072   7.327   0.302  0.2652 -1.0870  0.7152
  709MOL0     C97724  11.002   7.441   0.376  0.1262 -0.0597  0.0433
  709MOL0     C97725  11.107   7.538   0.443 -0.5247 -0.1131  0.7572
  709MOL0     C97726  11.067   7.623   0.562  0.1096  0.0524 -0.3816
  709MOL0     C97727  11.177   7.732   0.608  0.7156 -0.2392 -0.3996
  709MOL0     O97728  11.305   7.673   0.624  0.2494 -0.6113  0.3040
  709MOL0     C97729  11.413   7.757   0.630 -0.1591  0.4575  0.0491
  709MOL0     C97730  11.532   7.691   0.609 -0.4239 -1.1107  0.7929
  709MOL0     C97731  11.652   7.768   0.585  0.3966 -0.1077 -0.1172
  709MOL0     C97732  11.774   7.681   0.578 -0.2914 -0.5337 -0.2189
  709MOL0     C97733  11.659   7.905   0.602  0.0785 -0.5854 -0.7533
  709MOL0     C97734  11.783   7.992   0.592  0.4649  0.7639 -0.4040
  709MOL0     O97735  11.751   8.112   0.534  0.2607 -0.6759 -0.0468
  709MOL0     C97736  11.814   8.233   0.572 -0.9139 -1.0304  0.1524
  709MOL0     C97737  11.956   8.258   0.567 -0.2573  0.1707  0.4061
  709MOL0     C97738  12.009   8.384   0.599 -0.0649  0.4739 -0.3902
  709MOL0     C97739  11.930   8.494   0.637 -0.5743  0.0724 -0.2083
  709MOL0     O97740  11.970   8.626   0.652 -0.1661 -0.2434  1.2325
  709MOL0     C97741  12.052   8.681   0.540  0.4761  1.4193 -0.6594
  709MOL0     C97742  12.057   8.829   0.557 -0.8953 -0.4991 -0.5956
  709MOL0     C97743  11.944   8.931   0.513  0.4812 -0.1041 -0.7898
  709MOL0     C97744  11.987   9.075   0.547  0.0733 -0.6699  0.6065
  709MOL0     C97745  11.859   9.158   0.553 -0.0331  0.8376 -0.4881
  709MOL0     C97746  11.883   9.309   0.549 -0.5035 -0.5101  0.0019
  709MOL0     C97747  11.932   9.364   0.419 -0.0245  0.1498 -0.0843
  709MOL0     C97748  11.922   9.511   0.426 -0.7659 -0.1287 -0.6587
  709MOL0    Cl97749  11.957   9.585   0.276  0.2147  0.0816 -0.7683
  709MOL0     C97750  11.788   8.480   0.653 -0.1136  1.7459 -0.4374
  709MOL0     C97751  11.729   8.343   0.621 -0.3068  0.5850 -0.4966
  709MOL0     O97752  11.883   7.963   0.659 -0.2074 -0.9406  0.1684
  709MOL0     C97753  11.540   7.968   0.642  0.4480  0.3715 -0.0734
  709MOL0     C97754  11.418   7.894   0.656 -0.0417 -0.3354  0.0822
  709MOL0     N97755  11.123   7.359   0.182 -1.1190  0.1799 -0.4578
  709MOL0     N97756  11.183   7.254   0.134  0.9798 -0.5195  0.3575
  709MOL0     C97757  10.687   6.290   0.623  0.1361 -0.4339 -0.0315
  709MOL0     C97758  10.552   6.280   0.638  0.6750  0.8419 -0.4273
  709MOL0     C97759  10.124   6.207   0.488  0.8173 -0.4966 -0.5039
  709MOL0     C97760  10.069   6.229   0.358 -0.1162  1.2212 -0.7095
  709MOL0     C97761   9.938   6.200   0.345 -0.0134 -0.5496  0.0608
  709MOL0     C97762   9.844   6.168   0.445 -0.0313 -0.3226  0.6926
  709MOL0     O97763   9.710   6.155   0.430 -0.0003  0.1295 -0.1289
  709MOL0     C97764   9.650   6.058   0.343 -0.0996  0.1336  0.6117
  709MOL0     C97765   9.519   6.001   0.393 -0.3705  0.1954 -0.0610
  709MOL0     C97766   9.415   6.107   0.403  0.1117 -0.0922 -0.4529
  709MOL0     C97767   9.288   6.061   0.475 -0.3767 -0.4686 -0.0299
  709MOL0     C97768   9.199   6.171   0.508 -0.9891 -0.6968 -0.0236
  709MOL0     C97769   9.141   6.274   0.533 -0.5764 -0.6863 -0.7970
  709MOL0     C97770   9.897   6.162   0.570 -0.0175  0.1776 -1.4257
  709MOL0     C97771  10.037   6.175   0.600 -0.2620 -0.7329  0.1305
  709MOL0     C97772  10.072   6.161   0.748  0.1219 -0.2769 -0.0940
  709MOL0     H97773  10.499   5.989   0.465 -0.2095  0.0707 -2.9423
  709MOL0     H97774  10.738   6.050   0.382 -1.0893  0.5420 -1.2246
  709MOL0     H97775  10.968   6.401   0.598 -0.0516 -1.2780 -0.2973
  709MOL0     H97776  10.855   6.448   0.467 -0.2187 -1.4785 -1.7902
  709MOL0     H97777  11.138   6.332   0.432  0.2897  0.2471  0.3716
  709MOL0     H97778  11.050   6.419   0.308  2.2286  1.5232 -0.9132
  709MOL0     H97779  11.065   6.610   0.462  0.5917 -0.4329 -0.5785
  709MOL0     H97780  11.189   6.529   0.560  0.5601  0.0055  0.4482
  709MOL0     H97781  11.369   6.552   0.392  0.3003 -0.9529 -1.1968
  709MOL0     H97782  11.256   6.553   0.259  2.5358 -0.9673  0.0075
  709MOL0     H97783  11.328   6.775   0.463  0.0255 -0.4414  0.1859
  709MOL0     H97784  11.182   6.786   0.368  0.0969  0.1755  1.5711
  709MOL0     H97785  11.455   6.790   0.237  0.2306  0.4717  0.7799
  709MOL0     H97786  11.294   6.782   0.154 -1.8059 -0.1404  2.3403
  709MOL0     H97787  11.407   7.023   0.213  0.5394 -1.1832  0.5557
  709MOL0     H97788  11.338   7.006   0.358  3.1216 -2.1485 -0.0001
  709MOL0     H97789  11.209   6.998   0.085  2.1144 -0.8362  0.7522
  709MOL0     H97790  11.109   6.948   0.225 -1.4774  2.2461  0.5147
  709MOL0     H97791  11.052   7.137   0.411  2.3894 -0.0496  0.4000
  709MOL0     H97792  10.938   7.400   0.455  0.8268  0.9899  1.1796
  709MOL0     H97793  10.943   7.511   0.316  1.5772  1.6718  0.5813
  709MOL0     H97794  11.171   7.461   0.486  0.1453 -0.9078 -1.5200
  709MOL0     H97795  11.165   7.598   0.373 -0.5480  1.6756  2.1931
  709MOL0     H97796  10.969   7.668   0.545 -0.9905 -1.2061  2.0992
  709MOL0     H97797  11.063   7.550   0.643  0.4112  2.9192  2.4192
  709MOL0     H97798  11.178   7.816   0.538  1.1907  2.5351  2.7239
  709MOL0     H97799  11.149   7.769   0.707  0.1615 -0.9175 -0.2910
  709MOL0     H97800  11.528   7.585   0.585  0.8171 -0.6836 -1.6290
  709MOL0     H97801  11.739   7.578   0.562 -0.8924  0.0907 -3.8533
  709MOL0     H97802  11.838   7.703   0.664 -1.0598  1.9510 -0.2063
  709MOL0     H97803  11.816   7.720   0.485 -1.1609  1.2380  0.0967
  709MOL0     H97804  12.014   8.166   0.563 -0.2286 -0.0162  3.2228
  709MOL0     H97805  12.115   8.406   0.591 -0.0885  0.5108 -0.6235
  709MOL0     H97806  12.147   8.628   0.543 -0.8256 -1.2167  4.1815
  709MOL0     H97807  11.990   8.655   0.453 -3.4709  0.9103  2.0321
  709MOL0     H97808  12.070   8.842   0.665 -0.9693 -2.6051 -0.2866
  709MOL0     H97809  12.151   8.854   0.507 -0.8752  0.4566 -0.1040
  709MOL0     H97810  11.857   8.901   0.573  1.6156 -1.6408  0.1778
  709MOL0     H97811  11.919   8.920   0.407 -4.4579  1.5207 -0.0646
  709MOL0     H97812  12.056   9.115   0.472 -1.8553 -1.0794 -1.4681
  709MOL0     H97813  12.042   9.088   0.641 -0.5202  1.5291  0.7094
  709MOL0     H97814  11.792   9.131   0.470 -0.7593 -0.2376  0.4146
  709MOL0     H97815  11.812   9.133   0.649  3.8890  0.9471  1.6851
  709MOL0     H97816  11.942   9.334   0.638  0.4035  0.5397 -0.8730
  709MOL0     H97817  11.788   9.361   0.565  1.5545  3.2955  1.1966
  709MOL0     H97818  11.875   9.332   0.331 -1.2596  0.9421  0.4187
  709MOL0     H97819  12.037   9.338   0.401 -0.9713 -2.8490 -2.1335
  709MOL0     H97820  11.991   9.548   0.502  0.5030  1.8678 -2.6341
  709MOL0     H97821  11.817   9.530   0.451 -0.9716 -3.5939  1.6545
  709MOL0     H97822  11.726   8.552   0.704  3.5377  1.9690  4.4309
  709MOL0     H97823  11.625   8.350   0.650  0.3832  3.0310  1.8607
  709MOL0     H97824  11.544   8.075   0.661  3.1258  0.4063 -0.4785
  709MOL0     H97825  11.320   7.939   0.670  0.0775 -0.5973  1.9601
  709MOL0     H97826  10.736   6.377   0.665 -4.4294  1.3767  2.1888
  709MOL0     H97827  10.489   6.338   0.704  1.4663 -0.6186  1.6972
  709MOL0     H97828  10.127   6.254   0.270 -0.6790 -0.4331 -1.6008
  709MOL0     H97829   9.906   6.221   0.244 -1.8965 -1.9817  0.2821
  709MOL0     H97830   9.628   6.100   0.244 -0.2055  0.7488  0.8899
  709MOL0     H97831   9.716   5.972   0.328 -0.3645  0.2765 -1.7074
  709MOL0     H97832   9.542   5.953   0.489  0.1394  1.1856  0.3213
  709MOL0     H97833   9.483   5.931   0.316  1.1253  3.9437 -4.6331
  709MOL0     H97834   9.453   6.188   0.466 -1.0404 -0.4918  0.8006
  709MOL0     H97835   9.393   6.136   0.300 -2.4725 -1.2083 -0.2791
  709MOL0     H97836   9.324   6.009   0.564 -0.8611  0.3807  0.6681
  709MOL0     H97837   9.233   6.003   0.400  0.2876  0.4859 -1.3044
  709MOL0     H97838   9.081   6.356   0.568 -0.6027 -0.6534 -0.9178
  709MOL0     H97839   9.835   6.134   0.655  1.8168  0.0829 -0.0363
  709MOL0     H97840  10.096   6.256   0.797 -2.5619  2.2150 -3.1744
  709MOL0     H97841   9.990   6.114   0.804  0.1537  0.0915  0.2687
  709MOL0     H97842  10.155   6.097   0.777 -1.0048 -0.8490  2.1379
  710MOL0     O97843  11.102   2.232   0.996 -0.2796  0.4744  0.3564
  710MOL0     C97844  11.159   2.307   0.916 -0.5069  0.7791  0.4497
  710MOL0     O97845  11.291   2.289   0.878  0.7508 -0.1177 -0.3077
  710MOL0     C97846  11.361   2.185   0.930 -0.8487 -0.2914  1.0828
  710MOL0     C97847  11.415   2.181   1.062  0.6068  0.6862 -0.9686
  710MOL0     C97848  11.499   2.082   1.105  0.0579  0.0129  0.3295
  710MOL0     C97849  11.547   1.981   1.025  0.3826 -1.0268 -0.1040
  710MOL0     O97850  11.653   1.907   1.069 -0.0844 -0.9960  0.6960
  710MOL0     C97851  11.693   1.785   1.014 -1.4329  0.3070 -0.4914
  710MOL0     C97852  11.847   1.753   1.044 -0.1351 -0.2005 -0.7427
  710MOL0     C97853  11.862   1.745   1.196 -0.7464  0.0612  0.5892
  710MOL0     C97854  11.979   1.650   1.229 -0.2061 -0.3055 -0.0878
  710MOL0     C97855  12.021   1.652   1.378 -0.9978 -0.4570  0.4064
  710MOL0     C97856  12.166   1.612   1.395  1.0144  0.4346  0.5488
  710MOL0     C97857  12.204   1.603   1.541  0.1048 -0.4290 -0.0147
  710MOL0     C97858  12.355   1.597   1.579  0.4239 -0.6845 -0.1338
  710MOL0     N97859  12.446   1.712   1.544  0.2108  0.8296 -0.6489
  710MOL0     C97860  12.519   1.775   1.644 -0.2287  0.7238 -0.6705
  710MOL0     C97861  12.593   1.869   1.578  0.0195  0.0307  0.1832
  710MOL0     C97862  12.695   1.945   1.650  0.0689 -0.2967  0.6010
  710MOL0     C97863  12.729   2.075   1.569  0.1319 -0.7577  0.2203
  710MOL0     C97864  12.826   2.160   1.649 -0.4721  0.5073  0.6171
  710MOL0     C97865  12.766   2.217   1.772  0.7601  0.2086  0.3796
  710MOL0     O97866  12.844   2.336   1.796  0.3353 -0.2216  0.4333
  710MOL0     C97867  12.813   2.420   1.897  0.4791  0.0708 -0.2799
  710MOL0     C97868  12.738   2.374   2.002 -0.2521  0.8033 -1.2239
  710MOL0     C97869  12.714   2.461   2.113 -0.5182  0.2876 -0.1228
  710MOL0     C97870  12.632   2.406   2.226 -0.9016  0.6045  0.2615
  710MOL0     C97871  12.755   2.599   2.108  1.2227  0.6486  0.8100
  710MOL0     C97872  12.723   2.705   2.203  0.1279 -0.4052 -0.1357
  710MOL0     O97873  12.751   2.833   2.157 -0.4930 -0.0988 -0.4341
  710MOL0     C97874  12.742   2.937   2.244  1.0941 -0.2228 -0.1237
  710MOL0     C97875  12.646   3.039   2.228 -0.6878  0.5437 -0.3844
  710MOL0     C97876  12.644   3.147   2.318  0.3223  0.9614 -0.8215
  710MOL0     C97877  12.730   3.156   2.433 -0.0425  0.0571 -0.1254
  710MOL0     O97878  12.730   3.256   2.520  0.3195 -0.2925  0.7852
  710MOL0     C97879  12.625   3.362   2.507 -1.1568 -0.3586  0.9041
  710MOL0     C97880  12.612   3.467   2.609  0.7600 -0.2916  0.2040
  710MOL0     C97881  12.729   3.568   2.618 -0.2007  0.1831 -0.4455
  710MOL0     C97882  12.710   3.688   2.527  0.5412 -0.0741  0.1746
  710MOL0     C97883  12.804   3.796   2.580 -0.1614  0.1542  0.3166
  710MOL0     C97884  12.838   3.913   2.482 -0.3236  0.3685  0.4199
  710MOL0     C97885  12.908   3.873   2.350 -0.0711 -0.0791  0.4838
  710MOL0     C97886  12.981   3.994   2.285 -0.2990  0.6309 -0.1372
  710MOL0    Cl97887  12.867   4.127   2.289 -0.2412  0.0184 -0.2882
  710MOL0     C97888  12.837   3.061   2.439 -0.2579  0.7018  0.1059
  710MOL0     C97889  12.844   2.954   2.342 -0.5602  0.3713  0.6742
  710MOL0     O97890  12.676   2.680   2.316 -0.6697 -0.3021 -0.2216
  710MOL0     C97891  12.830   2.629   1.996  0.2427 -0.6282  0.8699
  710MOL0     C97892  12.868   2.540   1.898 -0.5268  0.1063  0.0942
  710MOL0     N97893  12.572   1.852   1.439 -0.5580  0.8043  0.1687
  710MOL0     N97894  12.482   1.755   1.421 -0.5598  0.0908  0.6268
  710MOL0     C97895  11.502   1.985   0.886 -0.8681 -0.7052  0.1895
  710MOL0     C97896  11.418   2.087   0.840 -0.2476  1.1955  0.1698
  710MOL0     C97897  11.084   2.411   0.847  0.0518  0.7371  0.6171
  710MOL0     C97898  11.104   2.420   0.710  1.0460 -0.2741  0.3677
  710MOL0     C97899  11.040   2.524   0.645  1.2986  0.5981 -0.1634
  710MOL0     C97900  10.955   2.615   0.706 -0.9329 -0.0932  0.2384
  710MOL0     O97901  10.879   2.694   0.629 -0.2875  0.7098  0.5296
  710MOL0     C97902  10.897   2.721   0.490 -0.0410  0.7387 -0.1098
  710MOL0     C97903  10.830   2.859   0.468 -0.8463 -0.2907  0.4337
  710MOL0     C97904  10.676   2.856   0.474  0.8727 -0.2482  0.6502
  710MOL0     C97905  10.615   2.851   0.616 -0.3753  0.3860 -0.5845
  710MOL0     C97906  10.480   2.900   0.618  0.2757 -1.0521  0.0991
  710MOL0     C97907  10.369   2.951   0.605  0.6220 -0.6441 -0.8636
  710MOL0     C97908  10.941   2.604   0.844 -0.0827  0.9639 -0.5386
  710MOL0     C97909  10.998   2.501   0.920  0.1191 -0.0612  0.5428
  710MOL0     C97910  10.978   2.495   1.066  0.1340 -0.3634  0.2991
  710MOL0     H97911  11.395   2.262   1.133 -0.6446 -0.2695 -0.1726
  710MOL0     H97912  11.533   2.087   1.208  0.5683  3.3409  0.1256
  710MOL0     H97913  11.678   1.769   0.907 -0.8616 -0.7394 -0.4306
  710MOL0     H97914  11.634   1.709   1.067  0.3639 -1.5785 -1.0367
  710MOL0     H97915  11.859   1.651   1.005 -1.0179 -2.3288  3.8483
  710MOL0     H97916  11.917   1.826   1.003  0.8301 -0.4289  0.4620
  710MOL0     H97917  11.872   1.838   1.253 -4.1213  0.8064  0.2120
  710MOL0     H97918  11.770   1.710   1.243  0.2325 -1.1898  1.6306
  710MOL0     H97919  11.957   1.545   1.209  0.1399 -0.4866  0.4852
  710MOL0     H97920  12.061   1.672   1.160 -1.7104  2.1947 -1.2772
  710MOL0     H97921  11.967   1.571   1.428 -2.0651  0.1036  0.1915
  710MOL0     H97922  12.007   1.754   1.415  2.2032  0.8597 -1.5448
  710MOL0     H97923  12.172   1.521   1.334 -1.1145  1.6179 -1.5950
  710MOL0     H97924  12.232   1.689   1.353  1.4047 -0.1909 -0.0070
  710MOL0     H97925  12.151   1.521   1.589 -0.8145 -0.1124 -0.4679
  710MOL0     H97926  12.165   1.697   1.581 -1.2245  0.0606 -2.2547
  710MOL0     H97927  12.361   1.587   1.688 -0.5370 -1.2228 -0.1283
  710MOL0     H97928  12.403   1.509   1.534  2.9028  1.4976 -2.1392
  710MOL0     H97929  12.523   1.755   1.750 -0.2571  0.1032 -0.7804
  710MOL0     H97930  12.788   1.887   1.655  1.4773  1.8604  0.5263
  710MOL0     H97931  12.663   1.976   1.750  1.8982  0.8604  0.8865
  710MOL0     H97932  12.778   2.059   1.473  1.4246  1.5720  0.4219
  710MOL0     H97933  12.640   2.137   1.552  0.5468  0.0196  0.8069
  710MOL0     H97934  12.916   2.102   1.670 -0.6638  0.4329  1.2642
  710MOL0     H97935  12.850   2.246   1.587 -1.0282  0.6323  0.5691
  710MOL0     H97936  12.661   2.248   1.762  1.0635  2.6196  3.2048
  710MOL0     H97937  12.753   2.143   1.852  0.7097 -1.9370 -1.5277
  710MOL0     H97938  12.692   2.276   2.015  2.2973 -0.1443  1.9274
  710MOL0     H97939  12.584   2.310   2.202 -0.9922  0.9997 -1.1938
  710MOL0     H97940  12.552   2.480   2.236 -0.9179  0.9559 -1.9923
  710MOL0     H97941  12.696   2.388   2.313  1.1499 -2.4772 -1.6810
  710MOL0     H97942  12.592   3.041   2.133 -2.5876 -2.4868  0.5003
  710MOL0     H97943  12.572   3.226   2.298 -1.0650 -0.8171 -3.4709
  710MOL0     H97944  12.644   3.414   2.413 -1.5871  1.1510  1.6053
  710MOL0     H97945  12.526   3.316   2.505 -0.3020 -2.2917  0.8515
  710MOL0     H97946  12.519   3.524   2.598  0.2213 -1.1436  0.2090
  710MOL0     H97947  12.611   3.408   2.701  2.4227 -1.6752 -0.6161
  710MOL0     H97948  12.819   3.512   2.593 -2.6215 -4.0218 -0.6390
  710MOL0     H97949  12.728   3.603   2.722  0.4377  3.3296 -1.4017
  710MOL0     H97950  12.609   3.730   2.535  0.4856  0.0485 -1.0139
  710MOL0     H97951  12.722   3.663   2.421 -4.8317 -0.0361 -0.7221
  710MOL0     H97952  12.767   3.845   2.670  0.7018  3.6031 -1.0142
  710MOL0     H97953  12.904   3.758   2.602  1.6216  3.2168 -1.6424
  710MOL0     H97954  12.894   3.980   2.549  0.4452  1.1003 -0.9161
  710MOL0     H97955  12.744   3.965   2.457 -0.9690 -1.4392 -1.1030
  710MOL0     H97956  12.841   3.829   2.275 -0.4217  1.2385  0.0016
  710MOL0     H97957  12.977   3.794   2.380  2.3804  1.6894 -0.1856
  710MOL0     H97958  13.003   3.964   2.182 -1.1295  0.0001 -0.1442
  710MOL0     H97959  13.078   4.025   2.326 -1.1036  3.0756  0.0535
  710MOL0     H97960  12.917   3.074   2.511  0.3963 -1.8819 -0.0582
  710MOL0     H97961  12.932   2.891   2.349  1.1965  2.7045  0.9218
  710MOL0     H97962  12.867   2.729   1.977 -1.0251 -0.2157  0.4825
  710MOL0     H97963  12.939   2.560   1.818 -0.7202  2.9794  0.5257
  710MOL0     H97964  11.551   1.919   0.815  0.6610  1.2642 -0.7039
  710MOL0     H97965  11.394   2.092   0.734  0.5371  0.5439 -0.0509
  710MOL0     H97966  11.169   2.352   0.656  1.9882 -0.2664  1.4527
  710MOL0     H97967  11.051   2.539   0.538 -0.5530  1.9516 -0.2160
  710MOL0     H97968  11.004   2.729   0.470  0.2080 -1.4823 -0.0093
  710MOL0     H97969  10.861   2.639   0.427  0.3033  1.0328 -0.7075
  710MOL0     H97970  10.852   2.883   0.364 -2.3417 -1.1843 -0.1294
  710MOL0     H97971  10.880   2.943   0.517 -0.3663  0.4849 -1.2916
  710MOL0     H97972  10.629   2.939   0.421  0.0692 -0.9706  0.2088
  710MOL0     H97973  10.640   2.772   0.415 -0.3250  2.8483 -3.5422
  710MOL0     H97974  10.669   2.913   0.688  0.8123 -2.6004  1.2694
  710MOL0     H97975  10.626   2.747   0.648  3.6952  0.7420 -0.3089
  710MOL0     H97976  10.268   2.986   0.606  1.2036  1.2487 -2.3783
  710MOL0     H97977  10.866   2.662   0.897 -0.1867  0.2613  0.1148
  710MOL0     H97978  10.896   2.428   1.094 -0.4891 -1.7104 -3.9293
  710MOL0     H97979  11.067   2.455   1.115  0.4539 -0.4440 -0.3270
  710MOL0     H97980  10.962   2.596   1.104 -0.7267  0.0334 -1.0088
  711MOL0     O97981   3.068   2.914   2.761 -0.0560 -0.0292  0.0341
  711MOL0     C97982   3.067   2.964   2.652 -0.0460 -0.1495 -0.4231
  711MOL0     O97983   2.987   2.921   2.549  0.8729 -0.5320 -0.2617
  711MOL0     C97984   3.018   2.819   2.473 -0.0838  0.1627 -0.0784
  711MOL0     C97985   2.950   2.811   2.355 -1.0762  0.8960  0.2115
  711MOL0     C97986   2.990   2.712   2.259 -0.5085 -0.1775  0.2661
  711MOL0     C97987   3.107   2.640   2.274  0.6265  0.5517 -0.7751
  711MOL0     O97988   3.132   2.542   2.181  0.0037 -1.0480  0.2262
  711MOL0     C97989   3.274   2.526   2.152  0.5537  0.1374  0.7372
  711MOL0     C97990   3.278   2.524   1.998 -0.6970 -0.1551 -0.0327
  711MOL0     C97991   3.211   2.635   1.920  0.7955  0.7929  0.4703
  711MOL0     C97992   3.280   2.678   1.792  0.0882 -0.4028  0.2826
  711MOL0     C97993   3.417   2.737   1.824 -0.6901  0.3266 -0.5923
  711MOL0     C97994   3.488   2.806   1.703  0.0438 -0.6152  0.0977
  711MOL0     C97995   3.435   2.938   1.661  0.4562 -0.5807  0.3635
  711MOL0     C97996   3.482   3.038   1.759  0.2347  0.5810  0.3091
  711MOL0     N97997   3.457   3.174   1.722  0.0131 -0.2859  0.1225
  711MOL0     C97998   3.340   3.244   1.729 -0.4084  0.0982 -0.7024
  711MOL0     C97999   3.363   3.369   1.678  0.8973  0.3206 -0.1654
  711MOL0     C98000   3.263   3.478   1.653  0.9004 -0.0958  0.1449
  711MOL0     C98001   3.192   3.502   1.797 -0.3758  0.0652  0.1259
  711MOL0     C98002   3.107   3.628   1.797  0.8962 -0.4477  0.0936
  711MOL0     C98003   3.052   3.656   1.946  0.7095 -0.0835  0.1506
  711MOL0     O98004   3.166   3.713   2.016  0.2466  0.4588 -0.0781
  711MOL0     C98005   3.139   3.765   2.139  1.2698 -0.2057 -0.6473
  711MOL0     C98006   3.169   3.898   2.167  0.0588 -0.2081  0.2701
  711MOL0     C98007   3.166   3.953   2.294 -0.2359 -0.2232  0.8830
  711MOL0     C98008   3.221   4.097   2.302  0.0580  0.0784 -0.3046
  711MOL0     C98009   3.130   3.867   2.400 -0.1313  0.1712  0.0170
  711MOL0     C98010   3.133   3.905   2.541  0.2920 -0.3011 -0.9006
  711MOL0     O98011   3.189   4.025   2.581  0.1651 -0.2087 -0.5044
  711MOL0     C98012   3.226   4.057   2.712  0.1742  1.0863 -0.2898
  711MOL0     C98013   3.134   4.033   2.823 -0.3134 -0.1854  0.2418
  711MOL0     C98014   3.170   4.094   2.946  0.0849 -0.6213 -0.4485
  711MOL0     C98015   3.284   4.167   2.966  0.0208  0.2884 -0.1605
  711MOL0     O98016   3.310   4.206   3.093  0.5292  0.6748 -0.2417
  711MOL0     C98017   3.434   4.160   3.151 -0.0184 -0.1627 -0.6106
  711MOL0     C98018   3.386   4.146   3.301 -0.9591  0.0181 -0.2618
  711MOL0     C98019   3.377   4.278   3.369 -0.1728  0.7042  0.0628
  711MOL0     C98020   3.340   4.255   3.515 -0.0944  0.0065  0.2493
  711MOL0     C98021   3.286   4.383   3.581 -0.5355 -0.6385 -0.1752
  711MOL0     C98022   3.292   4.377   3.732  0.2015  1.0312 -0.2445
  711MOL0     C98023   3.237   4.242   3.789 -0.0377  0.3652  0.1456
  711MOL0     C98024   3.100   4.200   3.743  0.2823 -0.8242  0.1989
  711MOL0    Cl98025   3.024   4.102   3.878 -0.1730  0.5891  0.0471
  711MOL0     C98026   3.362   4.199   2.854 -0.0080  0.3116  0.1048
  711MOL0     C98027   3.330   4.146   2.725  1.2979  0.0482 -0.5341
  711MOL0     O98028   3.104   3.816   2.619 -0.2157 -0.1514 -0.1838
  711MOL0     C98029   3.085   3.737   2.370  0.0687  0.7972 -0.5287
  711MOL0     C98030   3.086   3.687   2.240 -0.0074  0.1502  0.8313
  711MOL0     N98031   3.495   3.370   1.634  0.3156 -0.3262  0.0097
  711MOL0     N98032   3.543   3.257   1.655 -0.3056 -0.5673  0.0959
  711MOL0     C98033   3.163   2.649   2.401  0.2456  0.6645 -0.4828
  711MOL0     C98034   3.125   2.732   2.504  0.6593  0.0595 -0.0842
  711MOL0     C98035   3.121   3.099   2.642  0.0906  0.0768  0.0433
  711MOL0     C98036   3.056   3.184   2.552 -0.4750 -0.1712 -0.0187
  711MOL0     C98037   3.101   3.307   2.520  0.2386  0.9000  0.0201
  711MOL0     C98038   3.212   3.364   2.586 -0.0837 -0.2723 -0.0307
  711MOL0     O98039   3.237   3.491   2.537  0.0430  0.3746 -0.0897
  711MOL0     C98040   3.333   3.581   2.598 -0.4624 -0.1817  1.2569
  711MOL0     C98041   3.475   3.566   2.536 -0.6762  0.5559 -0.3657
  711MOL0     C98042   3.491   3.632   2.395  0.3702 -0.4033 -0.7626
  711MOL0     C98043   3.532   3.781   2.400 -0.5399 -1.2168  0.6739
  711MOL0     C98044   3.680   3.795   2.409 -0.1815  0.2638 -0.6233
  711MOL0     C98045   3.801   3.802   2.412 -0.1673 -0.1428  0.4164
  711MOL0     C98046   3.283   3.287   2.676 -0.2195 -1.0855  0.4183
  711MOL0     C98047   3.236   3.162   2.707  0.0836  0.3415  0.0079
  711MOL0     C98048   3.307   3.083   2.811 -0.4558 -0.1756 -0.8753
  711MOL0     H98049   2.862   2.873   2.341 -1.5691  0.6686  2.0034
  711MOL0     H98050   2.935   2.706   2.165 -1.4474  0.1077  0.7821
  711MOL0     H98051   3.310   2.440   2.209  2.8482  0.4096 -0.1895
  711MOL0     H98052   3.337   2.612   2.175 -1.2303  1.3451  1.3630
  711MOL0     H98053   3.386   2.521   1.977 -0.1549 -1.6701  2.5274
  711MOL0     H98054   3.231   2.431   1.966  0.6449 -0.0189 -2.6703
  711MOL0     H98055   3.111   2.600   1.891  0.7235  1.3564  0.0115
  711MOL0     H98056   3.183   2.719   1.984  1.6864  2.1104 -0.8026
  711MOL0     H98057   3.271   2.598   1.718 -0.8931 -3.2935  3.2455
  711MOL0     H98058   3.214   2.756   1.754 -1.0281 -0.8893  1.1511
  711MOL0     H98059   3.468   2.653   1.874 -3.0136  0.0206  1.4478
  711MOL0     H98060   3.405   2.810   1.904 -3.3743 -2.3225  1.6600
  711MOL0     H98061   3.596   2.806   1.717 -0.3411 -1.0797  4.0687
  711MOL0     H98062   3.477   2.738   1.617  0.5637 -0.1176 -0.3702
  711MOL0     H98063   3.326   2.942   1.653  0.5477  0.9541 -0.7049
  711MOL0     H98064   3.470   2.966   1.561 -0.1539 -0.2293  0.2416
  711MOL0     H98065   3.438   3.023   1.858 -3.4223 -1.9594 -1.4709
  711MOL0     H98066   3.586   3.012   1.779 -0.8393 -2.8128  2.3439
  711MOL0     H98067   3.249   3.200   1.768  0.1565  1.0469  1.8607
  711MOL0     H98068   3.182   3.441   1.589  2.0713 -0.7612 -0.9851
  711MOL0     H98069   3.302   3.571   1.612 -0.3766 -0.1061 -1.1740
  711MOL0     H98070   3.128   3.418   1.824  2.6105 -0.7997  5.9577
  711MOL0     H98071   3.276   3.518   1.865  0.9084  1.1431 -1.6351
  711MOL0     H98072   3.162   3.717   1.764  2.3389 -0.6029  1.9403
  711MOL0     H98073   3.027   3.620   1.723 -0.1559 -0.2637  1.1816
  711MOL0     H98074   2.965   3.720   1.928  0.1252 -0.9547 -0.1825
  711MOL0     H98075   3.011   3.566   1.992  1.3721  0.1735  1.2902
  711MOL0     H98076   3.199   3.946   2.074 -1.5748 -0.3864 -0.3966
  711MOL0     H98077   3.292   4.094   2.384  3.2219 -0.9831 -2.8747
  711MOL0     H98078   3.142   4.168   2.328 -1.3375 -0.7481 -2.0094
  711MOL0     H98079   3.276   4.124   2.211 -0.2869  5.7845  0.8294
  711MOL0     H98080   3.047   3.969   2.817 -2.3489  2.3702  0.6473
  711MOL0     H98081   3.106   4.082   3.033  0.0488  2.1780  0.0037
  711MOL0     H98082   3.468   4.063   3.113  0.1493 -0.7544  0.9707
  711MOL0     H98083   3.510   4.238   3.142 -1.8230  2.1089  2.2579
  711MOL0     H98084   3.287   4.101   3.315 -1.5245  1.6551  1.4591
  711MOL0     H98085   3.463   4.084   3.349 -3.4365 -1.5800  1.9925
  711MOL0     H98086   3.296   4.344   3.335  0.6029  1.8428  0.3480
  711MOL0     H98087   3.468   4.337   3.353  1.8755 -1.9096  1.4824
  711MOL0     H98088   3.427   4.217   3.569  1.7679 -0.6672 -2.9520
  711MOL0     H98089   3.262   4.178   3.512  1.4263 -1.5774 -1.2809
  711MOL0     H98090   3.350   4.466   3.553 -0.5078 -0.5457  0.1621
  711MOL0     H98091   3.183   4.397   3.548 -0.6078 -2.6101 -0.9346
  711MOL0     H98092   3.243   4.462   3.779 -1.8238  0.1469 -0.6494
  711MOL0     H98093   3.398   4.354   3.745  0.1089  0.5345 -0.3484
  711MOL0     H98094   3.227   4.259   3.897  0.5475  1.2148  0.0805
  711MOL0     H98095   3.301   4.155   3.774 -2.3301 -2.1469  3.4180
  711MOL0     H98096   3.105   4.149   3.647 -0.0315  0.0952 -0.3126
  711MOL0     H98097   3.041   4.290   3.728  1.8329 -0.2578 -3.6682
  711MOL0     H98098   3.435   4.277   2.874 -0.0451  0.2735  0.3884
  711MOL0     H98099   3.405   4.164   2.648  1.7251  0.5109 -0.0090
  711MOL0     H98100   3.045   3.675   2.449  4.1391  1.2178  2.1876
  711MOL0     H98101   3.045   3.588   2.221 -0.5050  0.2616  1.2999
  711MOL0     H98102   3.234   2.569   2.419  0.8367  1.4827  1.0048
  711MOL0     H98103   3.164   2.733   2.605 -3.7969 -1.1802  1.8872
  711MOL0     H98104   2.964   3.161   2.501  0.7630  0.0121 -2.4743
  711MOL0     H98105   3.057   3.363   2.438  0.6358  1.2457  0.0439
  711MOL0     H98106   3.295   3.679   2.566 -1.7053 -1.5840 -2.0057
  711MOL0     H98107   3.341   3.582   2.707  0.7616  3.1852  1.2487
  711MOL0     H98108   3.479   3.457   2.528 -0.2816  0.6459 -1.4949
  711MOL0     H98109   3.551   3.598   2.609  0.5705 -0.2631 -1.2645
  711MOL0     H98110   3.559   3.580   2.326  0.3279  0.8494 -1.7910
  711MOL0     H98111   3.391   3.629   2.349 -0.2995 -3.5948  0.6250
  711MOL0     H98112   3.494   3.836   2.487  2.2399  2.4042 -0.1323
  711MOL0     H98113   3.494   3.832   2.311  1.7492 -0.0236  0.2892
  711MOL0     H98114   3.907   3.790   2.399 -0.2653 -0.6166  0.0255
  711MOL0     H98115   3.379   3.324   2.711 -0.4670  0.1890 -0.1890
  711MOL0     H98116   3.350   2.989   2.776 -2.5515 -1.4280 -0.2928
  711MOL0     H98117   3.396   3.133   2.851 -0.7119 -0.4040  0.0044
  711MOL0     H98118   3.255   3.061   2.905 -0.8821 -1.1529 -1.3226
  712MOL0     O98119  11.416   8.554   4.922  0.0769  1.0259 -0.4446
  712MOL0     C98120  11.295   8.575   4.942  0.3236 -0.5408  0.2135
  712MOL0     O98121  11.226   8.567   5.065  0.1432  0.8651  0.1288
  712MOL0     C98122  11.301   8.544   5.180 -1.2323 -0.6547  0.8533
  712MOL0     C98123  11.368   8.650   5.241  0.2680 -0.4563 -0.1993
  712MOL0     C98124  11.444   8.635   5.362 -0.2042 -0.1629  0.0832
  712MOL0     C98125  11.467   8.508   5.413  0.2671 -0.0478  0.1707
  712MOL0     O98126  11.532   8.502   5.530 -0.2846 -0.0272  0.0165
  712MOL0     C98127  11.639   8.406   5.526 -0.4895 -0.8032  1.7949
  712MOL0     C98128  11.650   8.326   5.648 -0.4935 -0.5286 -0.9756
  712MOL0     C98129  11.517   8.246   5.681 -0.3497 -0.4892  0.2234
  712MOL0     C98130  11.538   8.169   5.809 -0.4829 -0.0593  1.1686
  712MOL0     C98131  11.448   8.052   5.824  0.2446 -0.2611 -0.7507
  712MOL0     C98132  11.301   8.093   5.850  0.5266 -0.6933  0.8315
  712MOL0     C98133  11.225   7.960   5.865  0.3494  0.0021 -0.0677
  712MOL0     C98134  11.079   7.981   5.851 -0.4945  0.6145  1.0646
  712MOL0     N98135  11.012   7.858   5.905 -0.9719 -0.3124 -0.0753
  712MOL0     C98136  11.007   7.743   5.833 -0.3527  0.1512 -0.2692
  712MOL0     C98137  10.926   7.663   5.911 -0.2472  0.2620  0.2324
  712MOL0     C98138  10.908   7.518   5.889  0.8593  0.7064  0.9012
  712MOL0     C98139  10.765   7.480   5.936  0.1081 -0.6081 -0.8882
  712MOL0     C98140  10.652   7.532   5.844  0.0555  0.3616 -0.6212
  712MOL0     C98141  10.529   7.447   5.829 -1.2236  0.0075 -0.9452
  712MOL0     O98142  10.484   7.393   5.950  0.8658  0.5514 -0.3034
  712MOL0     C98143  10.388   7.293   5.960 -0.5925  0.0039 -0.1379
  712MOL0     C98144  10.290   7.251   5.864 -0.3536 -0.5979 -0.2639
  712MOL0     C98145  10.193   7.152   5.891  0.0071  0.0903 -0.5715
  712MOL0     C98146  10.087   7.120   5.787 -0.1137 -0.1179 -0.4343
  712MOL0     C98147  10.206   7.087   6.013  0.4351 -1.0149  0.5071
  712MOL0     C98148  10.095   7.004   6.064  0.4714 -0.7676 -0.6697
  712MOL0     O98149   9.981   7.079   6.094 -0.5384 -0.1979  0.1421
  712MOL0     C98150   9.879   7.012   6.151  0.3271 -0.3203 -0.6710
  712MOL0     C98151   9.859   7.015   6.285 -0.2205 -0.5067 -0.0925
  712MOL0     C98152   9.767   6.928   6.342  0.0378  0.0532 -0.3089
  712MOL0     C98153   9.677   6.866   6.264 -0.1505  0.1949  0.0842
  712MOL0     O98154   9.574   6.792   6.314 -0.2630  0.4046  0.2374
  712MOL0     C98155   9.486   6.848   6.414 -0.6289 -0.3859 -0.7046
  712MOL0     C98156   9.409   6.739   6.482  0.3744  0.1005  0.6131
  712MOL0     C98157   9.283   6.801   6.556  0.2173  0.6429 -0.7144
  712MOL0     C98158   9.231   6.694   6.642 -0.2988 -0.1901  0.0656
  712MOL0     C98159   9.093   6.740   6.695  1.0976  0.6532  0.2451
  712MOL0     C98160   9.033   6.622   6.773  0.0200 -0.0160 -0.5813
  712MOL0     C98161   9.107   6.584   6.909  0.3246 -0.0674  0.9722
  712MOL0     C98162   9.017   6.488   6.991 -0.0709 -0.1346  0.1921
  712MOL0    Cl98163   9.019   6.311   6.935  0.2117 -0.0228  0.1113
  712MOL0     C98164   9.692   6.863   6.126 -0.2651  0.3313 -0.5753
  712MOL0     C98165   9.800   6.931   6.067 -0.0287 -0.0265  0.2737
  712MOL0     O98166  10.122   6.887   6.104 -0.4081  0.2885 -0.0741
  712MOL0     C98167  10.296   7.127   6.109 -0.1126  0.0360  0.6192
  712MOL0     C98168  10.396   7.217   6.078 -0.0341  0.2162  0.7080
  712MOL0     N98169  10.891   7.731   6.028  0.6461  0.7650  0.6926
  712MOL0     N98170  10.952   7.843   6.034  0.2984  0.3260  0.8344
  712MOL0     C98171  11.412   8.404   5.343 -0.6512  0.6106 -0.5812
  712MOL0     C98172  11.335   8.416   5.231 -0.0773 -0.1543  0.2628
  712MOL0     C98173  11.201   8.614   4.836  1.3173 -0.0222  0.4086
  712MOL0     C98174  11.084   8.689   4.872 -0.5631 -0.0968 -0.5312
  712MOL0     C98175  10.984   8.719   4.788  0.4452  0.7789 -0.3937
  712MOL0     C98176  10.997   8.692   4.650  0.6850 -0.0872  1.1542
  712MOL0     O98177  10.911   8.739   4.553  0.2739  0.5065 -0.1298
  712MOL0     C98178  10.816   8.642   4.497 -0.5570  0.9247  1.0682
  712MOL0     C98179  10.748   8.691   4.370 -0.1754 -0.8075  0.3957
  712MOL0     C98180  10.841   8.744   4.259 -0.2442 -0.0240  0.2715
  712MOL0     C98181  10.894   8.883   4.294 -0.4530 -0.8720 -0.5728
  712MOL0     C98182  11.028   8.873   4.336  0.0240  0.1224 -0.4690
  712MOL0     C98183  11.144   8.869   4.378 -0.2907 -0.5971  0.9082
  712MOL0     C98184  11.115   8.620   4.605 -0.7577 -0.1873 -0.5399
  712MOL0     C98185  11.222   8.578   4.690 -0.8555 -0.5508 -0.5884
  712MOL0     C98186  11.352   8.527   4.638 -1.1888  0.4778 -0.7577
  712MOL0     H98187  11.355   8.754   5.211 -4.3364 -0.7658  0.1179
  712MOL0     H98188  11.495   8.721   5.404 -2.8788  0.6638  1.9193
  712MOL0     H98189  11.735   8.458   5.516 -1.2102  0.0899 -2.5961
  712MOL0     H98190  11.633   8.349   5.433 -0.2424 -0.0952  1.3349
  712MOL0     H98191  11.729   8.252   5.631  0.1414  0.3916 -2.1465
  712MOL0     H98192  11.680   8.387   5.734  0.6311 -0.2846 -1.5317
  712MOL0     H98193  11.439   8.320   5.701  0.5621  1.1615 -1.9859
  712MOL0     H98194  11.487   8.196   5.589  0.5208  2.4099 -1.7807
  712MOL0     H98195  11.633   8.115   5.796 -0.4628  0.4063 -0.9626
  712MOL0     H98196  11.542   8.225   5.903  0.5980 -1.3680  1.9562
  712MOL0     H98197  11.488   8.000   5.912 -0.2340  1.4376  0.5449
  712MOL0     H98198  11.445   7.984   5.739  0.0525  0.3525 -1.2394
  712MOL0     H98199  11.278   8.151   5.939 -2.1080 -0.5332  0.1334
  712MOL0     H98200  11.265   8.155   5.767 -0.4037 -2.4882 -0.1843
  712MOL0     H98201  11.253   7.923   5.964 -0.6458  0.2147  0.2999
  712MOL0     H98202  11.247   7.899   5.777  0.2774 -0.7489  0.4267
  712MOL0     H98203  11.054   8.072   5.908  0.6861  1.6829 -0.0720
  712MOL0     H98204  11.062   7.984   5.743  1.5603 -3.1951  0.4899
  712MOL0     H98205  11.064   7.723   5.742  1.4090 -0.2849  0.8894
  712MOL0     H98206  10.981   7.463   5.949 -0.1041 -1.8783 -0.1418
  712MOL0     H98207  10.914   7.496   5.781  0.8801 -1.7105  1.3242
  712MOL0     H98208  10.761   7.370   5.942 -0.6064 -0.5796 -0.6883
  712MOL0     H98209  10.745   7.510   6.039 -3.2231 -1.1627 -1.2427
  712MOL0     H98210  10.630   7.637   5.864 -0.1235  0.3234 -0.6051
  712MOL0     H98211  10.682   7.553   5.741 -1.8006  1.3238 -1.0077
  712MOL0     H98212  10.453   7.504   5.775 -0.6381  2.3672  0.5741
  712MOL0     H98213  10.570   7.359   5.779 -0.3139 -0.8530  1.1868
  712MOL0     H98214  10.284   7.304   5.770 -2.3502  0.1647  0.2536
  712MOL0     H98215  10.005   7.189   5.809  1.4467  0.9605  2.5117
  712MOL0     H98216  10.057   7.016   5.801 -0.1224  0.1463  1.7461
  712MOL0     H98217  10.124   7.138   5.685 -0.1529  2.3868 -0.0792
  712MOL0     H98218   9.910   7.091   6.343 -0.6052  1.2938 -1.9644
  712MOL0     H98219   9.761   6.918   6.450 -0.0153 -2.0336 -0.4639
  712MOL0     H98220   9.540   6.902   6.492  0.9558  1.3058 -2.8672
  712MOL0     H98221   9.404   6.911   6.379 -0.3485  1.6818  2.0353
  712MOL0     H98222   9.380   6.661   6.412  2.3602 -0.6974  0.6066
  712MOL0     H98223   9.476   6.693   6.556  0.8268 -1.4340 -0.6957
  712MOL0     H98224   9.208   6.813   6.478 -1.4710 -1.3155  0.5078
  712MOL0     H98225   9.306   6.895   6.607  0.1061  1.0848 -1.4584
  712MOL0     H98226   9.294   6.671   6.728  0.4229  1.7079  0.1015
  712MOL0     H98227   9.219   6.610   6.573  0.6870 -0.9318  0.7612
  712MOL0     H98228   9.095   6.825   6.764  4.4114  0.3654  0.6759
  712MOL0     H98229   9.021   6.747   6.612  2.6531 -1.0082 -1.3396
  712MOL0     H98230   9.033   6.526   6.721 -0.1789 -1.5539  2.0600
  712MOL0     H98231   8.929   6.651   6.789 -0.0529 -1.6520  3.0264
  712MOL0     H98232   9.112   6.659   6.988  0.5589  0.5431  0.3861
  712MOL0     H98233   9.203   6.537   6.886  0.4076  1.9054 -3.7807
  712MOL0     H98234   8.916   6.527   7.008 -0.6324 -2.3449  2.5701
  712MOL0     H98235   9.057   6.485   7.093  1.7419  0.6705 -0.4509
  712MOL0     H98236   9.638   6.796   6.060  4.7141 -0.2650 -4.6844
  712MOL0     H98237   9.825   6.919   5.962 -1.7196 -0.0355 -0.1604
  712MOL0     H98238  10.288   7.084   6.208  0.5560  3.4433  2.3062
  712MOL0     H98239  10.456   7.250   6.162 -0.5805 -0.8999  1.5650
  712MOL0     H98240  11.436   8.310   5.392 -0.2539  1.9505  1.9328
  712MOL0     H98241  11.290   8.341   5.167  0.4239 -0.6733  0.5077
  712MOL0     H98242  11.083   8.727   4.974 -4.7644 -0.9865 -0.0813
  712MOL0     H98243  10.894   8.766   4.825  0.4235 -0.0802  0.7166
  712MOL0     H98244  10.873   8.550   4.480  1.8767  2.2027  1.8483
  712MOL0     H98245  10.744   8.625   4.577 -1.4146 -0.7254 -0.0119
  712MOL0     H98246  10.673   8.761   4.407 -2.5451 -2.7108 -0.4928
  712MOL0     H98247  10.685   8.616   4.320  0.8518 -1.8636  0.6179
  712MOL0     H98248  10.911   8.660   4.250 -2.4703 -1.9702  0.1308
  712MOL0     H98249  10.782   8.751   4.168  0.1517 -1.0673 -0.0807
  712MOL0     H98250  10.846   8.934   4.378  1.6910  3.3737 -1.6514
  712MOL0     H98251  10.888   8.952   4.209  1.6708 -0.2699 -0.2932
  712MOL0     H98252  11.245   8.862   4.414  0.1477 -1.8366 -0.4566
  712MOL0     H98253  11.122   8.619   4.497 -0.6944 -0.8924 -0.5343
  712MOL0     H98254  11.342   8.521   4.529 -3.0226 -1.2014 -0.5544
  712MOL0     H98255  11.434   8.595   4.664 -0.9375 -0.2266  0.3849
  712MOL0     H98256  11.379   8.429   4.678  0.7042  0.7054 -1.3997
  713MOL0     O98257  10.056  10.292   8.405  0.7353  0.0098 -0.8342
  713MOL0     C98258  10.171  10.255   8.425  0.2273  0.5743  0.3367
  713MOL0     O98259  10.257  10.244   8.327 -0.5430  0.3544 -0.4915
  713MOL0     C98260  10.236  10.318   8.215  0.0581  0.2133  0.0791
  713MOL0     C98261  10.196  10.248   8.096 -0.0790  0.7411  0.1892
  713MOL0     C98262  10.187  10.317   7.975  0.3524 -0.3734  1.0795
  713MOL0     C98263  10.220  10.456   7.972  0.5118  0.3359 -0.4868
  713MOL0     O98264  10.223  10.547   7.871  1.0393 -0.2259  0.6855
  713MOL0     C98265  10.290  10.481   7.763 -0.0256 -0.4389  0.6952
  713MOL0     C98266  10.361  10.584   7.684  0.3349  0.1172  0.0818
  713MOL0     C98267  10.443  10.524   7.573 -0.6362  0.2156 -0.3960
  713MOL0     C98268  10.476  10.627   7.461 -0.1577  0.3656  0.5384
  713MOL0     C98269  10.362  10.656   7.376  0.9699 -1.1725 -0.6911
  713MOL0     C98270  10.404  10.723   7.242  0.7766  0.0512 -0.0951
  713MOL0     C98271  10.289  10.762   7.151  0.0597 -0.9286  0.4890
  713MOL0     C98272  10.270  10.917   7.161  0.7687 -0.7941 -0.5451
  713MOL0     N98273  10.196  10.971   7.053 -0.3281  0.2088  0.6993
  713MOL0     C98274  10.071  10.927   7.015  0.1880 -0.3122  0.2989
  713MOL0     C98275  10.044  11.006   6.904 -0.2699  1.5159  0.9228
  713MOL0     C98276   9.923  11.012   6.822  0.0078 -0.9162 -0.5799
  713MOL0     C98277   9.862  10.875   6.794  0.3426 -0.6349 -1.1495
  713MOL0     C98278   9.698  10.881   6.766  0.4586 -0.0530 -0.1585
  713MOL0     C98279   9.658  10.946   6.643 -0.1413  0.1100 -0.3458
  713MOL0     O98280   9.729  10.901   6.526 -0.2388  0.4086  0.4789
  713MOL0     C98281   9.654  10.830   6.434  0.1381 -0.5528  0.1777
  713MOL0     C98282   9.536  10.865   6.369  0.5101  0.1626  0.5173
  713MOL0     C98283   9.453  10.785   6.289 -0.7421  0.2520  0.0047
  713MOL0     C98284   9.339  10.851   6.227  0.5644  0.1608  0.0035
  713MOL0     C98285   9.490  10.649   6.276  0.1179 -0.9927  0.8381
  713MOL0     C98286   9.415  10.543   6.200 -0.2529 -0.4615 -0.6240
  713MOL0     O98287   9.282  10.561   6.190  0.7266  0.1486  0.5897
  713MOL0     C98288   9.193  10.478   6.114 -0.1462 -0.6996  0.1883
  713MOL0     C98289   9.099  10.544   6.044  0.4362 -0.9449  0.5706
  713MOL0     C98290   8.988  10.468   6.003 -0.0813  0.3885  0.5304
  713MOL0     C98291   8.970  10.331   6.026 -0.3184 -0.2394  0.4248
  713MOL0     O98292   8.874  10.262   5.971 -0.3488 -0.3106  0.3894
  713MOL0     C98293   8.882  10.271   5.824 -0.8127  0.1219  0.9099
  713MOL0     C98294   8.977  10.162   5.770 -0.2832  0.2847  0.6497
  713MOL0     C98295   8.966  10.029   5.837  0.1616  0.2584 -0.2093
  713MOL0     C98296   9.013   9.913   5.758 -0.4788  0.6741  0.4531
  713MOL0     C98297   8.971   9.783   5.833  0.3711  0.5608  1.0261
  713MOL0     C98298   9.018   9.665   5.745 -0.2604 -0.3962  0.1438
  713MOL0     C98299   8.956   9.529   5.800 -0.3807 -0.1048  0.2425
  713MOL0     C98300   8.909   9.421   5.694  0.3267 -0.3085  0.4120
  713MOL0    Cl98301   8.781   9.499   5.596  0.1408 -0.1404  0.0593
  713MOL0     C98302   9.073  10.264   6.091  0.9551 -0.0348 -0.3699
  713MOL0     C98303   9.179  10.341   6.139 -0.0074  0.3578 -0.0411
  713MOL0     O98304   9.472  10.446   6.163  0.1198 -0.6798  0.6256
  713MOL0     C98305   9.621  10.620   6.323 -0.6249  0.0573  1.1068
  713MOL0     C98306   9.685  10.698   6.418 -0.2620 -0.4330  0.3452
  713MOL0     N98307  10.150  11.082   6.875 -0.2639 -0.1953 -0.0573
  713MOL0     N98308  10.247  11.054   6.952 -0.1330 -0.4353 -0.1431
  713MOL0     C98309  10.257  10.523   8.092 -0.1626  0.3943 -0.3910
  713MOL0     C98310  10.253  10.459   8.214 -1.0527 -0.0071 -0.0801
  713MOL0     C98311  10.198  10.219   8.561 -0.2865 -0.5310  0.2335
  713MOL0     C98312  10.101  10.139   8.617  0.2155  0.1834  0.0769
  713MOL0     C98313  10.114  10.087   8.747  1.2629 -1.1070  0.6211
  713MOL0     C98314  10.227  10.107   8.829 -0.5840 -0.2280  0.0510
  713MOL0     O98315  10.254  10.047   8.946  0.7744  0.1399 -0.3772
  713MOL0     C98316  10.195   9.917   8.978  0.2903  0.5930  0.8936
  713MOL0     C98317  10.090   9.928   9.091 -0.2155  0.3084  0.0321
  713MOL0     C98318   9.967  10.010   9.061  0.0817  0.1368 -0.0836
  713MOL0     C98319   9.865  10.043   9.185 -0.1102 -0.0917  0.2342
  713MOL0     C98320   9.813   9.915   9.231  0.7738 -1.4386 -0.6564
  713MOL0     C98321   9.770   9.805   9.275 -0.4367 -0.2922  0.3751
  713MOL0     C98322  10.320  10.203   8.777  0.3250 -0.0029 -0.2022
  713MOL0     C98323  10.314  10.245   8.642  0.6055 -0.3431 -0.6765
  713MOL0     C98324  10.435  10.303   8.575  0.4035  0.2021  0.2470
  713MOL0     H98325  10.181  10.140   8.092 -0.9475  0.7375  2.1003
  713MOL0     H98326  10.139  10.277   7.886  0.3124  0.4699  0.7135
  713MOL0     H98327  10.225  10.423   7.696  0.0090 -0.3895  0.6187
  713MOL0     H98328  10.370  10.419   7.803  0.3738 -0.3074  0.1158
  713MOL0     H98329  10.284  10.642   7.634  0.4122 -0.7503 -1.0887
  713MOL0     H98330  10.422  10.651   7.746  0.5133  0.5186 -0.5208
  713MOL0     H98331  10.539  10.483   7.608 -0.3247  1.8978  0.8268
  713MOL0     H98332  10.394  10.433   7.538 -1.4349 -1.0454  3.4858
  713MOL0     H98333  10.532  10.715   7.493  1.2425 -0.8110  1.5042
  713MOL0     H98334  10.546  10.574   7.395 -3.6500 -1.9891 -1.6149
  713MOL0     H98335  10.301  10.730   7.430 -1.4289 -1.9398 -2.1752
  713MOL0     H98336  10.315  10.558   7.368 -3.1432  0.6132 -1.0713
  713MOL0     H98337  10.477  10.800   7.270  4.4207 -2.0236 -2.8670
  713MOL0     H98338  10.462  10.657   7.177  0.7485  1.1628 -1.2916
  713MOL0     H98339  10.193  10.710   7.164 -1.0339  0.5011 -1.4187
  713MOL0     H98340  10.311  10.737   7.046  0.7585 -1.1773  0.6845
  713MOL0     H98341  10.210  10.926   7.252  1.2025  0.9357 -0.4019
  713MOL0     H98342  10.364  10.971   7.172  0.1170  0.2045  0.2702
  713MOL0     H98343  10.001  10.864   7.069 -1.6110  1.7536  0.5205
  713MOL0     H98344   9.938  11.058   6.724 -0.2515  0.3167 -0.0625
  713MOL0     H98345   9.857  11.078   6.879  1.2751 -1.1960  1.2741
  713MOL0     H98346   9.905  10.840   6.700  0.2751 -0.6408 -1.1785
  713MOL0     H98347   9.889  10.803   6.872 -2.6161 -4.0925 -3.0024
  713MOL0     H98348   9.649  10.784   6.760  0.4009  0.0225 -0.9907
  713MOL0     H98349   9.645  10.926   6.851  3.8902  1.2585  1.5013
  713MOL0     H98350   9.551  10.928   6.634 -0.0684  0.0023 -1.0507
  713MOL0     H98351   9.673  11.054   6.647  0.6974 -0.0234  0.9601
  713MOL0     H98352   9.517  10.972   6.370  2.9392  0.7149 -2.1048
  713MOL0     H98353   9.314  10.811   6.129  0.0699  1.0456 -0.2415
  713MOL0     H98354   9.362  10.957   6.212 -2.9974  0.8664 -1.3999
  713MOL0     H98355   9.246  10.831   6.280 -0.5069  1.9959 -1.0665
  713MOL0     H98356   9.103  10.650   6.020  1.1607 -1.1161 -0.1250
  713MOL0     H98357   8.917  10.529   5.947  2.2506  2.7348 -0.0681
  713MOL0     H98358   8.790  10.243   5.772 -0.2981 -1.7424  0.9337
  713MOL0     H98359   8.912  10.368   5.783  2.4278 -0.3245  1.9329
  713MOL0     H98360   8.963  10.146   5.662 -3.0764  1.4059  0.7572
  713MOL0     H98361   9.078  10.199   5.788  0.6225 -2.0783  0.7437
  713MOL0     H98362   8.860  10.013   5.860  0.6345 -2.1037  0.5427
  713MOL0     H98363   9.023  10.033   5.931 -2.4782 -1.8847  1.6311
  713MOL0     H98364   9.121   9.906   5.751 -0.4580  0.9042  0.5381
  713MOL0     H98365   8.978   9.933   5.656 -2.4862 -2.0069  0.4822
  713MOL0     H98366   9.013   9.779   5.934 -1.5595  2.1491  1.9681
  713MOL0     H98367   8.864   9.772   5.856 -0.0979  0.8103 -0.8826
  713MOL0     H98368   9.127   9.661   5.747 -0.1172  1.7923 -0.8087
  713MOL0     H98369   8.988   9.682   5.641  1.5795  0.1875 -0.3277
  713MOL0     H98370   8.867   9.560   5.855 -0.7293  1.0845 -0.9254
  713MOL0     H98371   9.026   9.481   5.869 -0.3599 -2.7354 -1.4352
  713MOL0     H98372   8.867   9.334   5.744 -2.0879  1.3272  1.3842
  713MOL0     H98373   9.003   9.412   5.637 -0.8445  0.7175 -1.8080
  713MOL0     H98374   9.062  10.156   6.088  1.0083 -0.0261 -2.5936
  713MOL0     H98375   9.252  10.291   6.203  1.4334  1.9808 -0.3480
  713MOL0     H98376   9.663  10.522   6.300  0.5993  0.9317 -0.6555
  713MOL0     H98377   9.778  10.657   6.457  1.5762  0.3446 -2.8598
  713MOL0     H98378  10.277  10.629   8.085  0.5361  0.2855 -0.0952
  713MOL0     H98379  10.285  10.509   8.305 -0.4529  0.1170 -0.3571
  713MOL0     H98380  10.006  10.127   8.567 -0.9040  0.3792  2.0567
  713MOL0     H98381  10.036  10.026   8.793  0.1630  1.2343  2.0189
  713MOL0     H98382  10.140   9.875   8.893  0.5853  2.8291 -0.4884
  713MOL0     H98383  10.279   9.853   9.007  1.6178  0.0089 -3.5306
  713MOL0     H98384  10.145   9.982   9.169 -0.0384  0.4104 -0.1615
  713MOL0     H98385  10.070   9.824   9.116  1.6482 -0.4062 -1.2185
  713MOL0     H98386   9.999  10.103   9.012  0.5211  0.6061  1.0515
  713MOL0     H98387   9.905   9.963   8.984  1.1382 -3.1731  0.9143
  713MOL0     H98388   9.782  10.103   9.145  1.0485  0.7507 -1.0126
  713MOL0     H98389   9.922  10.103   9.257 -0.2760 -0.1700  0.4303
  713MOL0     H98390   9.727   9.711   9.305 -2.0273  0.4775  0.6619
  713MOL0     H98391  10.418  10.215   8.822  1.0083 -2.2240 -0.9575
  713MOL0     H98392  10.425  10.406   8.540 -0.4405  0.6101  1.6316
  713MOL0     H98393  10.528  10.298   8.633 -0.3686  0.1755  1.5070
  713MOL0     H98394  10.448  10.236   8.489  0.8542 -3.9219  3.2140
  714MOL0     O98395  11.126   0.334  10.033  0.5298  0.0056 -0.0944
  714MOL0     C98396  11.003   0.349  10.005 -0.7345  0.7408 -1.1566
  714MOL0     O98397  10.953   0.352   9.883 -0.0089  0.8552 -0.6299
  714MOL0     C98398  11.015   0.336   9.762 -0.5746  0.5879 -0.7022
  714MOL0     C98399  10.938   0.335   9.645 -0.6330 -0.8391  0.4137
  714MOL0     C98400  10.993   0.299   9.521  0.3696 -0.9562 -0.2653
  714MOL0     C98401  11.133   0.282   9.509 -0.1547  0.7921 -0.6848
  714MOL0     O98402  11.206   0.234   9.400 -0.1532  0.6381 -0.5926
  714MOL0     C98403  11.134   0.188   9.283 -0.4783 -0.7714 -0.8815
  714MOL0     C98404  11.061   0.056   9.318  0.7827 -0.2028  0.1371
  714MOL0     C98405  10.991   0.001   9.189  0.1154  0.1485 -0.0326
  714MOL0     C98406  10.927   0.092   9.086 -0.2030  0.8890  0.3393
  714MOL0     C98407  10.827   0.030   8.986 -1.3289  0.5834  0.2656
  714MOL0     C98408  10.871  -0.074   8.879 -0.4907  0.2359 -0.4757
  714MOL0     C98409  10.773  -0.101   8.767 -0.9560  0.6882  0.5725
  714MOL0     C98410  10.732   0.026   8.698  0.3311  0.2478  0.0531
  714MOL0     N98411  10.634  -0.015   8.594 -0.3047 -0.1016 -0.3794
  714MOL0     C98412  10.655  -0.066   8.471  0.5976  1.1211 -0.4566
  714MOL0     C98413  10.527  -0.078   8.423  0.9791  1.1414  0.8121
  714MOL0     C98414  10.497  -0.140   8.290 -0.4095 -0.6647 -0.1743
  714MOL0     C98415  10.499  -0.296   8.295  0.4593  0.1930  0.2039
  714MOL0     C98416  10.507  -0.351   8.160 -0.1243 -1.4255  0.9065
  714MOL0     C98417  10.540  -0.499   8.146 -0.1351  0.6365  0.1992
  714MOL0     O98418  10.431  -0.574   8.201  0.2213 -0.0833  0.0851
  714MOL0     C98419  10.463  -0.654   8.305  0.0473 -0.0896 -0.3676
  714MOL0     C98420  10.477  -0.600   8.433 -0.5205  1.1512 -0.7763
  714MOL0     C98421  10.527  -0.681   8.539  0.1534 -0.6400  0.3654
  714MOL0     C98422  10.547  -0.611   8.666  0.1183  0.1709  0.5983
  714MOL0     C98423  10.570  -0.811   8.508 -1.1710 -0.1224 -0.2731
  714MOL0     C98424  10.630  -0.909   8.611  0.7147 -1.3178  0.5725
  714MOL0     O98425  10.657  -0.855   8.736  0.9063 -0.1538  0.4236
  714MOL0     C98426  10.714  -0.936   8.823  0.3035  0.2883  0.2133
  714MOL0     C98427  10.851  -0.975   8.802 -0.3234  0.3677  0.5131
  714MOL0     C98428  10.915  -1.060   8.893  0.0285 -0.1586  0.4073
  714MOL0     C98429  10.854  -1.104   9.009 -0.8808 -0.0359  0.5679
  714MOL0     O98430  10.926  -1.182   9.100  0.0948 -0.8799 -0.7900
  714MOL0     C98431  10.865  -1.296   9.166  0.4162  0.0291 -0.1775
  714MOL0     C98432  10.818  -1.417   9.085  0.0061 -0.6361 -0.1573
  714MOL0     C98433  10.919  -1.478   8.992 -0.2259 -0.5568 -1.0691
  714MOL0     C98434  11.043  -1.536   9.063 -0.2281 -0.0599  0.6796
  714MOL0     C98435  11.157  -1.581   8.958  0.2417  0.2353  0.5936
  714MOL0     C98436  11.271  -1.639   9.020 -0.8814 -0.0476  0.8185
  714MOL0     C98437  11.380  -1.667   8.920  0.3590  0.3067 -0.4486
  714MOL0     C98438  11.480  -1.775   8.950 -0.4198 -0.0412 -0.2029
  714MOL0    Cl98439  11.610  -1.741   9.069 -0.1875  0.0172 -0.2030
  714MOL0     C98440  10.720  -1.061   9.031  0.6119  0.6038 -0.2633
  714MOL0     C98441  10.644  -0.982   8.935 -0.5790 -0.1260 -0.6405
  714MOL0     O98442  10.646  -1.030   8.578 -0.2027 -0.3632  0.8026
  714MOL0     C98443  10.556  -0.864   8.378 -0.2863 -0.6065  0.0262
  714MOL0     C98444  10.510  -0.779   8.279 -0.8843  0.4992  0.5681
  714MOL0     N98445  10.435  -0.040   8.513  0.7361 -0.6772 -0.2654
  714MOL0     N98446  10.498  -0.007   8.619 -0.1105 -0.3488  1.3577
  714MOL0     C98447  11.213   0.285   9.629 -0.2643 -0.7227 -0.4122
  714MOL0     C98448  11.149   0.303   9.747 -0.1106  1.7360 -1.3510
  714MOL0     C98449  10.903   0.354  10.109 -0.3118  0.6428 -0.1261
  714MOL0     C98450  10.790   0.429  10.079 -0.4337  0.2615  0.1015
  714MOL0     C98451  10.682   0.437  10.169 -0.5574 -0.2749  0.7415
  714MOL0     C98452  10.698   0.381  10.295  0.7517  0.1762  0.5108
  714MOL0     O98453  10.605   0.372  10.401 -0.2697 -0.0453 -0.5075
  714MOL0     C98454  10.477   0.444  10.377  0.0652 -0.1084 -0.3331
  714MOL0     C98455  10.396   0.468  10.514 -0.6392 -0.6822  0.2269
  714MOL0     C98456  10.339   0.336  10.580 -0.3316 -0.9324  0.2142
  714MOL0     C98457  10.433   0.232  10.640 -0.3111 -0.6082 -0.7207
  714MOL0     C98458  10.436   0.225  10.788  0.1135  0.0489  0.5708
  714MOL0     C98459  10.407   0.218  10.904 -0.2584 -0.2808  0.0795
  714MOL0     C98460  10.804   0.291  10.313  0.5928 -0.3152  0.8645
  714MOL0     C98461  10.909   0.273  10.222  0.7688  0.3208  0.3591
  714MOL0     C98462  11.001   0.165  10.236 -0.2157  0.6792 -0.0469
  714MOL0     H98463  10.830   0.349   9.647 -0.6832 -1.2501  2.1628
  714MOL0     H98464  10.931   0.287   9.433  1.3960  2.5777 -1.6387
  714MOL0     H98465  11.206   0.173   9.202  2.7765  0.6350  1.5255
  714MOL0     H98466  11.053   0.253   9.248 -1.0926 -1.9798 -1.7623
  714MOL0     H98467  11.140  -0.014   9.346  3.1734  1.6772 -1.4551
  714MOL0     H98468  10.986   0.064   9.398  0.6102 -1.5945  0.1275
  714MOL0     H98469  11.055  -0.072   9.139 -1.8719 -2.0690  0.4826
  714MOL0     H98470  10.916  -0.061   9.239  1.1930 -1.9616 -0.9101
  714MOL0     H98471  10.879   0.176   9.138 -0.1951 -0.4208  2.6073
  714MOL0     H98472  11.007   0.147   9.035  2.6022 -1.9593  1.3461
  714MOL0     H98473  10.799   0.125   8.939  4.8602  0.9270 -3.9107
  714MOL0     H98474  10.736  -0.001   9.038 -1.8032  3.8648  1.7053
  714MOL0     H98475  10.968  -0.048   8.836 -0.9158  2.6057 -0.1224
  714MOL0     H98476  10.891  -0.163   8.940 -0.7148 -0.4809 -1.4166
  714MOL0     H98477  10.684  -0.153   8.805 -0.7341 -1.0463 -1.1445
  714MOL0     H98478  10.817  -0.169   8.694 -2.6090 -0.5434  0.6770
  714MOL0     H98479  10.684   0.098   8.765 -1.9538 -2.9413  2.1306
  714MOL0     H98480  10.818   0.079   8.655  0.3879 -1.1020 -1.5860
  714MOL0     H98481  10.747  -0.098   8.422  0.1352 -1.3148  0.1530
  714MOL0     H98482  10.571  -0.110   8.216  0.4037  3.7896  2.1137
  714MOL0     H98483  10.403  -0.105   8.246 -0.2804 -0.8369 -0.5821
  714MOL0     H98484  10.583  -0.340   8.348 -0.5575 -0.7905  1.0489
  714MOL0     H98485  10.409  -0.328   8.348  0.5433 -0.2022  0.1130
  714MOL0     H98486  10.407  -0.338   8.117  0.4985 -0.1386 -0.2226
  714MOL0     H98487  10.577  -0.291   8.100 -1.4724 -0.2730  0.4226
  714MOL0     H98488  10.554  -0.516   8.038 -4.1744  0.9347 -0.5305
  714MOL0     H98489  10.632  -0.530   8.196  0.7157  0.4151 -1.4056
  714MOL0     H98490  10.438  -0.503   8.462 -4.0650 -0.8199  1.8659
  714MOL0     H98491  10.529  -0.504   8.660 -1.9128 -0.2164 -1.6218
  714MOL0     H98492  10.646  -0.627   8.712 -0.4348 -2.4679  1.0517
  714MOL0     H98493  10.473  -0.660   8.730 -0.8700  1.1356  0.2162
  714MOL0     H98494  10.890  -0.929   8.712  0.3486 -0.2883  0.4527
  714MOL0     H98495  11.016  -1.094   8.873 -0.3990 -0.3563 -1.6900
  714MOL0     H98496  10.955  -1.320   9.224  1.1458  0.8292 -0.9598
  714MOL0     H98497  10.788  -1.265   9.238  0.1395  1.8201 -1.2116
  714MOL0     H98498  10.786  -1.498   9.151  1.8418 -1.2713  0.0084
  714MOL0     H98499  10.740  -1.370   9.025  2.2956 -1.2866 -3.9475
  714MOL0     H98500  10.941  -1.400   8.917 -3.4992  0.3935 -1.1920
  714MOL0     H98501  10.867  -1.559   8.941 -1.5610 -1.3071  1.3238
  714MOL0     H98502  11.016  -1.630   9.113  0.7727 -0.1791  1.0222
  714MOL0     H98503  11.086  -1.477   9.144  0.3258 -0.4718  0.6991
  714MOL0     H98504  11.118  -1.650   8.882 -0.7447 -0.4491  1.6937
  714MOL0     H98505  11.184  -1.499   8.891  2.4915 -1.1969 -0.3905
  714MOL0     H98506  11.244  -1.734   9.067 -0.0809  0.4545  2.3880
  714MOL0     H98507  11.309  -1.570   9.097 -0.1472  0.0169  0.4143
  714MOL0     H98508  11.437  -1.575   8.904 -0.3677  0.4007 -2.8919
  714MOL0     H98509  11.338  -1.693   8.822 -1.6224 -0.1068  0.4684
  714MOL0     H98510  11.530  -1.794   8.854  3.5537  2.7425  1.0904
  714MOL0     H98511  11.432  -1.867   8.985  0.0200 -1.3091 -2.6785
  714MOL0     H98512  10.682  -1.083   9.130 -0.9697  0.1656 -0.9430
  714MOL0     H98513  10.537  -0.969   8.951 -0.6810 -1.3474 -0.2624
  714MOL0     H98514  10.594  -0.962   8.352  2.9017 -0.0787  2.0701
  714MOL0     H98515  10.502  -0.813   8.176 -2.6960  0.7830  0.5732
  714MOL0     H98516  11.317   0.255   9.638  0.0815  0.5637  0.0845
  714MOL0     H98517  11.220   0.296   9.829  0.1904  2.3905 -1.5543
  714MOL0     H98518  10.788   0.490   9.990 -3.5775  3.2360  1.9665
  714MOL0     H98519  10.600   0.504  10.144  0.5890  1.7215  2.1011
  714MOL0     H98520  10.487   0.537  10.321  2.7535 -0.8861 -1.2868
  714MOL0     H98521  10.411   0.376  10.323  0.9583 -3.9338  2.9038
  714MOL0     H98522  10.311   0.533  10.489  1.0731  1.8758  0.6466
  714MOL0     H98523  10.460   0.518  10.587 -2.0279  0.8355  0.4800
  714MOL0     H98524  10.283   0.374  10.667 -1.4995  0.0189 -0.9215
  714MOL0     H98525  10.271   0.293  10.506  2.0739 -0.7782 -2.2134
  714MOL0     H98526  10.535   0.250  10.606 -0.2560  1.5149  0.4313
  714MOL0     H98527  10.392   0.137  10.604 -4.6252  0.9682 -0.5826
  714MOL0     H98528  10.373   0.193  11.002  0.0896 -0.2822  0.2013
  714MOL0     H98529  10.791   0.234  10.404 -0.1353 -0.4536  0.6771
  714MOL0     H98530  11.096   0.204  10.274 -0.6446  2.0814 -0.3624
  714MOL0     H98531  10.955   0.093  10.303 -1.3901  1.7257  0.2999
  714MOL0     H98532  11.017   0.108  10.144  1.6863 -0.9500  1.2108
  715MOL0     O98533   1.973   2.256  10.954  0.0495  0.3774  0.7461
  715MOL0     C98534   1.854   2.266  10.954 -0.3314 -0.6634  0.6746
  715MOL0     O98535   1.780   2.269  11.068 -0.5556 -0.7900 -0.0081
  715MOL0     C98536   1.840   2.259  11.190 -1.3042  0.4760  0.8527
  715MOL0     C98537   1.948   2.348  11.221  0.3893  0.9729 -0.1275
  715MOL0     C98538   1.971   2.364  11.355 -1.0401 -0.2677 -0.1028
  715MOL0     C98539   1.925   2.264  11.452  0.2826  0.2183  0.1683
  715MOL0     O98540   1.977   2.276  11.576  0.4752 -0.1826  0.5144
  715MOL0     C98541   2.100   2.209  11.606  0.6788  0.2439  0.5190
  715MOL0     C98542   2.162   2.257  11.740  0.4542  0.4156 -0.6527
  715MOL0     C98543   2.156   2.404  11.772 -0.1386  0.7140  0.0038
  715MOL0     C98544   2.227   2.444  11.903 -0.0070 -0.0073  0.3544
  715MOL0     C98545   2.214   2.592  11.936  0.2444 -0.8357 -0.3353
  715MOL0     C98546   2.250   2.628  12.089 -0.4963 -0.6339 -0.1489
  715MOL0     C98547   2.392   2.587  12.117  0.6260 -0.4821 -0.3829
  715MOL0     C98548   2.437   2.675  12.236  1.3855  0.4457  0.7724
  715MOL0     N98549   2.566   2.629  12.301  0.1761 -0.2807  0.0503
  715MOL0     C98550   2.695   2.645  12.250  0.5102 -1.0854 -0.2856
  715MOL0     C98551   2.774   2.570  12.331 -0.3054  0.0137 -0.0945
  715MOL0     C98552   2.923   2.543  12.318  0.1058 -0.8315  0.0221
  715MOL0     C98553   2.991   2.678  12.360 -1.0171 -0.1188  1.1778
  715MOL0     C98554   3.139   2.635  12.362 -0.2682 -0.0155  0.6177
  715MOL0     C98555   3.218   2.763  12.383 -1.2414 -0.5782  0.2252
  715MOL0     O98556   3.192   2.853  12.279  0.2230 -0.6052  0.7352
  715MOL0     C98557   3.255   2.973  12.273 -0.7153 -1.1799  0.4291
  715MOL0     C98558   3.215   3.075  12.181 -0.6703  0.6821  0.2132
  715MOL0     C98559   3.293   3.186  12.154 -0.4171 -0.2959 -0.4493
  715MOL0     C98560   3.243   3.274  12.040 -0.0705  0.3428 -1.0690
  715MOL0     C98561   3.405   3.212  12.223  0.0099  0.2531 -0.2312
  715MOL0     C98562   3.496   3.334  12.205 -1.7154  0.0236 -0.4327
  715MOL0     O98563   3.623   3.313  12.265  0.6427 -0.3995  0.2098
  715MOL0     C98564   3.735   3.397  12.247  0.4188 -0.4878 -0.3381
  715MOL0     C98565   3.846   3.346  12.313 -0.1003  0.8456  0.4834
  715MOL0     C98566   3.961   3.416  12.314 -0.0615 -0.4622 -0.4974
  715MOL0     C98567   3.974   3.545  12.246  0.1688  0.3427 -0.3717
  715MOL0     O98568   4.081   3.617  12.240  0.1426  0.5341 -0.1310
  715MOL0     C98569   4.184   3.598  12.334  0.3935 -0.0993 -0.4513
  715MOL0     C98570   4.305   3.681  12.293  0.5624 -0.4945 -1.2137
  715MOL0     C98571   4.447   3.624  12.321  0.3135  0.1373  0.6227
  715MOL0     C98572   4.501   3.531  12.209  0.0416  0.2840  0.2392
  715MOL0     C98573   4.633   3.593  12.138 -0.3480  0.0181  0.3775
  715MOL0     C98574   4.750   3.565  12.227  0.0173 -0.4465  0.2171
  715MOL0     C98575   4.795   3.419  12.231 -0.0034  1.4542  0.5475
  715MOL0     C98576   4.930   3.398  12.293  0.2776  0.1537  0.4950
  715MOL0    Cl98577   5.071   3.461  12.200  0.1442  0.3739  0.5755
  715MOL0     C98578   3.862   3.595  12.185  0.0212 -0.4085  0.0883
  715MOL0     C98579   3.742   3.517  12.182 -0.2463 -0.6792 -0.4395
  715MOL0     O98580   3.463   3.432  12.140 -1.4914  0.2677  0.3441
  715MOL0     C98581   3.445   3.125  12.332  0.9900 -0.0154  0.3997
  715MOL0     C98582   3.371   3.008  12.353  0.0153  0.3208 -0.0620
  715MOL0     N98583   2.691   2.505  12.424  0.0332 -0.1284 -0.8088
  715MOL0     N98584   2.567   2.541  12.402 -0.2937 -0.6365  0.4762
  715MOL0     C98585   1.825   2.172  11.411  0.9465 -0.1609 -0.1472
  715MOL0     C98586   1.787   2.169  11.279 -0.6749  1.2711  0.1666
  715MOL0     C98587   1.779   2.260  10.827  0.3428 -0.2540 -0.3489
  715MOL0     C98588   1.644   2.303  10.835 -0.0356 -0.0789  0.0725
  715MOL0     C98589   1.555   2.290  10.727 -0.5888 -0.3180 -0.0663
  715MOL0     C98590   1.600   2.230  10.606  0.1965  0.5014  0.4028
  715MOL0     O98591   1.527   2.198  10.493  0.1650  1.3445  0.1437
  715MOL0     C98592   1.380   2.200  10.515  0.0676 -0.1581  0.3109
  715MOL0     C98593   1.298   2.141  10.408  0.1336 -0.3469  0.5192
  715MOL0     C98594   1.306   2.201  10.271  0.3498 -0.4622 -0.2667
  715MOL0     C98595   1.217   2.324  10.282  0.5397 -0.7154 -0.0292
  715MOL0     C98596   1.288   2.445  10.316 -1.2921 -0.2666 -0.1589
  715MOL0     C98597   1.357   2.538  10.373  0.9025  0.2343 -0.0665
  715MOL0     C98598   1.738   2.206  10.587  0.1719  0.8096  0.3275
  715MOL0     C98599   1.823   2.211  10.702 -0.2663  0.3790 -0.8341
  715MOL0     C98600   1.956   2.148  10.694 -0.2098 -0.3265  1.4909
  715MOL0     H98601   2.000   2.414  11.153 -0.4024 -0.4945 -2.2343
  715MOL0     H98602   2.049   2.434  11.381 -0.0263 -0.5447 -2.1701
  715MOL0     H98603   2.160   2.243  11.521 -0.0909  0.1387 -0.0752
  715MOL0     H98604   2.091   2.100  11.605  0.2407  0.2789  0.8406
  715MOL0     H98605   2.113   2.215  11.829  1.3385  1.1117  0.1915
  715MOL0     H98606   2.268   2.229  11.741  0.5426  0.6412  1.4570
  715MOL0     H98607   2.203   2.451  11.685  1.0103 -3.6117 -1.9538
  715MOL0     H98608   2.048   2.422  11.777 -0.8242  0.3509 -6.3141
  715MOL0     H98609   2.172   2.381  11.973 -0.3550 -1.6012 -1.2715
  715MOL0     H98610   2.335   2.424  11.903  0.1856  0.9975  0.0243
  715MOL0     H98611   2.108   2.615  11.924  0.5500  1.8591  1.3616
  715MOL0     H98612   2.266   2.656  11.865 -0.2833 -1.3748 -1.2225
  715MOL0     H98613   2.235   2.735  12.109 -0.2218  0.1204 -3.3555
  715MOL0     H98614   2.183   2.574  12.157 -1.1338 -1.3757 -1.3299
  715MOL0     H98615   2.466   2.607  12.039  0.3989  0.7376 -0.3037
  715MOL0     H98616   2.394   2.479  12.133  0.0082 -0.5230 -0.5607
  715MOL0     H98617   2.445   2.781  12.207  3.6893  0.0465 -0.2398
  715MOL0     H98618   2.355   2.680  12.309  0.2851 -1.3756 -0.2674
  715MOL0     H98619   2.707   2.698  12.155 -2.4234 -0.6910 -0.5263
  715MOL0     H98620   2.950   2.529  12.212 -2.0461  3.5851 -1.3297
  715MOL0     H98621   2.953   2.461  12.384 -1.7918  1.3403  3.9562
  715MOL0     H98622   2.978   2.749  12.278 -0.4719 -1.7729 -0.4084
  715MOL0     H98623   2.969   2.726  12.456  1.8710  2.3479  0.7722
  715MOL0     H98624   3.137   2.563  12.444  0.7345  1.8426  2.3658
  715MOL0     H98625   3.173   2.580  12.274 -1.6302  1.9838 -1.2804
  715MOL0     H98626   3.203   2.825  12.471 -0.2167  1.3804 -0.9101
  715MOL0     H98627   3.326   2.745  12.388 -0.4647  3.2254  0.5993
  715MOL0     H98628   3.121   3.046  12.135  0.1852 -0.4807 -0.8887
  715MOL0     H98629   3.326   3.306  11.976 -0.5653  1.6951 -1.0714
  715MOL0     H98630   3.193   3.360  12.086  0.3963  0.3080 -0.4725
  715MOL0     H98631   3.183   3.220  11.966 -1.1731  0.4028 -0.2391
  715MOL0     H98632   3.840   3.240  12.338  0.7770  0.8122  0.5804
  715MOL0     H98633   4.038   3.367  12.373 -0.4352  2.5995  2.8584
  715MOL0     H98634   4.157   3.601  12.440  3.5417 -0.4822  0.4865
  715MOL0     H98635   4.218   3.494  12.330  0.2083 -0.1438 -1.0071
  715MOL0     H98636   4.310   3.710  12.188  0.5722 -2.9557 -1.9507
  715MOL0     H98637   4.302   3.772  12.353 -1.5411 -0.6761 -0.9732
  715MOL0     H98638   4.459   3.573  12.417  0.5750 -1.3833 -0.1833
  715MOL0     H98639   4.511   3.711  12.329 -0.6310  0.8462  0.6543
  715MOL0     H98640   4.426   3.500  12.136 -0.1989 -1.3826  1.1441
  715MOL0     H98641   4.531   3.440  12.261 -1.5267  0.6306  1.8580
  715MOL0     H98642   4.646   3.547  12.039 -0.3330  0.1569  0.3152
  715MOL0     H98643   4.616   3.694  12.101  1.4956 -0.7250 -2.8503
  715MOL0     H98644   4.733   3.608  12.326 -1.1176  3.3262 -1.4471
  715MOL0     H98645   4.828   3.630  12.187 -2.0499  0.7791 -2.0732
  715MOL0     H98646   4.793   3.370  12.133  1.5197  2.3316  0.0349
  715MOL0     H98647   4.729   3.360  12.294 -0.4482  0.4175 -0.8382
  715MOL0     H98648   4.943   3.289  12.297  1.9203  0.2819 -0.4317
  715MOL0     H98649   4.926   3.441  12.394 -0.8016  0.4945  0.3210
  715MOL0     H98650   3.858   3.693  12.138 -0.2667  0.3453  1.6282
  715MOL0     H98651   3.658   3.570  12.138 -0.2582 -1.2833 -1.1814
  715MOL0     H98652   3.531   3.155  12.389  0.6599 -0.6176  1.2247
  715MOL0     H98653   3.402   2.947  12.436 -2.6798  0.2116  0.9795
  715MOL0     H98654   1.770   2.119  11.488  1.1633  1.2547  1.0261
  715MOL0     H98655   1.705   2.108  11.242 -1.2247  2.5275 -0.7526
  715MOL0     H98656   1.609   2.349  10.927  0.2536  1.7616 -0.6944
  715MOL0     H98657   1.455   2.328  10.745  0.2213  1.2621  1.3518
  715MOL0     H98658   1.350   2.144  10.605 -1.4341 -0.8409 -0.5719
  715MOL0     H98659   1.337   2.300  10.520 -0.8256 -0.4266 -1.4588
  715MOL0     H98660   1.195   2.126  10.441 -0.3040  0.2693 -0.5350
  715MOL0     H98661   1.336   2.042  10.382  1.3495  1.1328 -4.2532
  715MOL0     H98662   1.406   2.230  10.237 -0.3772  0.7931 -1.4285
  715MOL0     H98663   1.253   2.136  10.201  1.8176 -3.1528  0.9467
  715MOL0     H98664   1.134   2.315  10.352  1.1522 -0.7168  0.7178
  715MOL0     H98665   1.165   2.334  10.186  0.5679  0.1780  0.0422
  715MOL0     H98666   1.405   2.624  10.416  3.3426 -0.9982 -0.1574
  715MOL0     H98667   1.773   2.170  10.492  1.7565  3.1239 -0.0451
  715MOL0     H98668   1.968   2.056  10.752  4.2594 -1.2274 -0.4807
  715MOL0     H98669   1.980   2.120  10.591  0.7935  2.2693  0.9491
  715MOL0     H98670   2.036   2.214  10.728  0.5940 -0.5599  0.0962
  716MOL0     O98671   4.747   3.832   1.611  0.4768  1.1499 -0.5170
  716MOL0     C98672   4.754   3.833   1.492  0.9608  0.9820  0.0032
  716MOL0     O98673   4.653   3.778   1.411 -0.4946  0.4237 -0.4133
  716MOL0     C98674   4.528   3.784   1.453 -0.5939 -0.0604 -0.0352
  716MOL0     C98675   4.463   3.673   1.504 -0.5659 -0.3060  0.5223
  716MOL0     C98676   4.329   3.688   1.543 -0.2501  0.3063 -0.3763
  716MOL0     C98677   4.269   3.813   1.555 -0.2430  0.2211  0.1285
  716MOL0     O98678   4.147   3.820   1.614 -0.5537  0.6609 -0.5360
  716MOL0     C98679   4.091   3.948   1.644 -0.1867 -0.2538  0.3479
  716MOL0     C98680   3.966   3.923   1.736 -0.0609 -0.2810 -1.2983
  716MOL0     C98681   3.850   4.007   1.705 -0.9425  0.1933  0.4417
  716MOL0     C98682   3.881   4.158   1.697 -0.0969  0.1961  0.4420
  716MOL0     C98683   3.759   4.249   1.722  0.0673  0.9227 -0.7104
  716MOL0     C98684   3.785   4.393   1.693  0.3956  0.3119  0.6599
  716MOL0     C98685   3.686   4.489   1.752 -0.1187  0.5293  0.7244
  716MOL0     C98686   3.723   4.630   1.719 -0.1159 -0.5461 -0.0341
  716MOL0     N98687   3.636   4.735   1.767  0.0575  0.1192 -0.6736
  716MOL0     C98688   3.511   4.743   1.814  1.0721 -0.2532 -0.9585
  716MOL0     C98689   3.507   4.864   1.880  0.2844 -0.3258  0.3745
  716MOL0     C98690   3.384   4.937   1.950  0.1009 -0.8048 -0.1932
  716MOL0     C98691   3.299   5.018   1.840  0.4636 -0.2049 -0.7685
  716MOL0     C98692   3.159   5.040   1.904  0.6294 -0.7185  0.0997
  716MOL0     C98693   3.065   4.924   1.911 -0.7034 -0.2487  0.8657
  716MOL0     O98694   2.937   4.967   1.969  0.1138  0.5627 -0.2627
  716MOL0     C98695   2.837   4.870   2.000 -0.5891 -0.2541 -0.2258
  716MOL0     C98696   2.836   4.735   1.974  0.3318  0.4435  0.3264
  716MOL0     C98697   2.728   4.651   2.020 -0.0207 -0.3018  0.1653
  716MOL0     C98698   2.739   4.501   1.979 -0.2239  0.3350  0.2344
  716MOL0     C98699   2.620   4.703   2.091  0.8424 -0.9528 -0.0141
  716MOL0     C98700   2.501   4.625   2.110  0.0134 -1.2553 -0.1746
  716MOL0     O98701   2.453   4.572   2.001  0.0558  0.3499 -0.0149
  716MOL0     C98702   2.337   4.496   2.016 -0.3919  0.9533  0.4572
  716MOL0     C98703   2.217   4.558   2.033  0.7078  0.4191  0.3378
  716MOL0     C98704   2.103   4.469   2.057  0.7161 -0.4110 -0.3344
  716MOL0     C98705   2.122   4.330   2.059  0.1232 -0.7226 -0.1102
  716MOL0     O98706   2.009   4.262   2.083 -0.2326  0.8056  0.0328
  716MOL0     C98707   2.033   4.129   2.139  0.3148  0.1812  0.3492
  716MOL0     C98708   1.902   4.064   2.175  1.3481  0.4085  0.5722
  716MOL0     C98709   1.914   3.991   2.316  0.0339  0.1092  0.6277
  716MOL0     C98710   1.787   3.938   2.370 -0.7213 -0.0617  0.0673
  716MOL0     C98711   1.813   3.869   2.508  1.0010  0.7910 -0.1262
  716MOL0     C98712   1.855   3.721   2.489 -0.6140 -0.0667  0.4980
  716MOL0     C98713   1.920   3.660   2.618  0.7696 -0.8399 -0.2774
  716MOL0     C98714   1.813   3.635   2.729  0.8336 -1.1251 -0.1209
  716MOL0    Cl98715   1.909   3.572   2.871 -0.2398 -0.2462 -0.2283
  716MOL0     C98716   2.247   4.278   2.038  0.2056 -0.6245  0.0813
  716MOL0     C98717   2.355   4.362   2.027 -1.0188  0.9163 -0.4303
  716MOL0     O98718   2.450   4.624   2.222 -0.2999 -0.8438 -0.4321
  716MOL0     C98719   2.618   4.839   2.115 -0.3821 -0.0478 -0.3140
  716MOL0     C98720   2.721   4.919   2.068  0.2040  0.4496  0.0617
  716MOL0     N98721   3.626   4.931   1.859 -0.3304 -0.6916  0.4073
  716MOL0     N98722   3.697   4.856   1.787  0.5865 -0.9738 -0.2397
  716MOL0     C98723   4.343   3.923   1.507 -0.1111 -0.4163  0.0086
  716MOL0     C98724   4.469   3.911   1.454 -0.9455  0.3626  0.3810
  716MOL0     C98725   4.887   3.854   1.434  0.0255  0.2874  0.3245
  716MOL0     C98726   5.003   3.789   1.480  0.1716  0.1315 -0.4337
  716MOL0     C98727   5.121   3.814   1.413  0.4019  0.1209  0.3440
  716MOL0     C98728   5.135   3.917   1.322 -0.0762  1.0715 -0.5340
  716MOL0     O98729   5.262   3.919   1.281  0.1817 -0.3165  0.1123
  716MOL0     C98730   5.291   3.990   1.167 -0.6830 -0.4879  0.7508
  716MOL0     C98731   5.431   3.965   1.115  0.1352  0.2986 -0.0947
  716MOL0     C98732   5.441   3.823   1.075 -0.1452 -0.7927  0.3831
  716MOL0     C98733   5.585   3.789   1.037 -1.0860  0.1740  0.0613
  716MOL0     C98734   5.690   3.849   1.123  1.4243 -0.4204 -0.4193
  716MOL0     C98735   5.785   3.880   1.193  0.4626 -0.6945  0.1116
  716MOL0     C98736   5.021   3.967   1.265 -0.1649  1.1133  0.7441
  716MOL0     C98737   4.898   3.940   1.320 -0.3293 -0.3868 -0.0346
  716MOL0     C98738   4.777   3.993   1.242 -0.0003 -0.4251 -0.3725
  716MOL0     H98739   4.500   3.572   1.518  0.1587 -0.3407 -1.3807
  716MOL0     H98740   4.278   3.596   1.570 -2.5611  1.9734  1.4342
  716MOL0     H98741   4.063   3.991   1.548  2.2360  0.9093  0.0823
  716MOL0     H98742   4.164   4.018   1.687 -1.4847  0.7520  1.0127
  716MOL0     H98743   3.936   3.818   1.737 -0.5605 -0.3174  3.5455
  716MOL0     H98744   3.988   3.949   1.840  1.0286  1.0772 -1.8356
  716MOL0     H98745   3.812   3.983   1.605  1.5461 -1.2418 -0.2517
  716MOL0     H98746   3.770   3.992   1.778 -1.8284  1.5391 -0.2250
  716MOL0     H98747   3.959   4.177   1.772  0.6391 -3.0274  0.6050
  716MOL0     H98748   3.933   4.183   1.604 -2.7492  1.9272 -0.6874
  716MOL0     H98749   3.741   4.238   1.830  2.6992  0.4223 -0.2520
  716MOL0     H98750   3.671   4.221   1.662  1.7017  0.2482 -2.9037
  716MOL0     H98751   3.887   4.409   1.730  0.8526  0.6009 -0.6711
  716MOL0     H98752   3.784   4.407   1.585 -2.3734  0.8143  0.6950
  716MOL0     H98753   3.698   4.480   1.860 -1.1537  0.1104  0.8152
  716MOL0     H98754   3.591   4.451   1.713  1.0770 -0.3023 -1.6041
  716MOL0     H98755   3.824   4.649   1.758  0.5780  2.2868 -2.8242
  716MOL0     H98756   3.749   4.638   1.613 -1.8923  2.4326 -0.3596
  716MOL0     H98757   3.442   4.660   1.808 -1.0252  1.5257 -3.8244
  716MOL0     H98758   3.434   5.006   2.019  0.1047 -3.3627  2.5447
  716MOL0     H98759   3.323   4.867   2.009  0.0014  1.2645  2.3419
  716MOL0     H98760   3.351   5.112   1.820 -1.2168  0.3416 -3.0430
  716MOL0     H98761   3.286   4.969   1.743 -4.6808  2.6197 -1.8930
  716MOL0     H98762   3.171   5.089   2.001  1.1957 -0.6114 -0.0263
  716MOL0     H98763   3.107   5.109   1.837  3.0008 -1.5591 -2.8055
  716MOL0     H98764   3.048   4.882   1.811 -0.9360  0.7756  0.4565
  716MOL0     H98765   3.113   4.844   1.967  2.3201  1.4156  0.8835
  716MOL0     H98766   2.933   4.703   1.939  0.4378 -0.6620  1.5363
  716MOL0     H98767   2.671   4.475   1.898  0.4529 -2.6179  0.5022
  716MOL0     H98768   2.706   4.437   2.062 -1.6340  0.4553 -0.2045
  716MOL0     H98769   2.835   4.459   1.948 -1.3686 -0.8933 -1.8701
  716MOL0     H98770   2.219   4.667   2.028  0.4810  0.4257  0.3555
  716MOL0     H98771   2.009   4.520   2.076 -1.2100 -3.6626 -0.3392
  716MOL0     H98772   2.079   4.062   2.066  2.0892 -0.9411  2.3863
  716MOL0     H98773   2.096   4.137   2.229  1.9559 -1.3754 -0.6027
  716MOL0     H98774   1.817   4.133   2.171  0.3854 -0.7864 -2.2016
  716MOL0     H98775   1.883   4.003   2.086  2.0007 -0.5875  1.1011
  716MOL0     H98776   1.950   4.063   2.390  3.1848 -0.0407 -0.6376
  716MOL0     H98777   1.991   3.913   2.322  0.1715  0.3351  3.1225
  716MOL0     H98778   1.748   3.863   2.300  1.1644 -3.5641  2.4724
  716MOL0     H98779   1.727   4.028   2.387  0.5402  0.5633  1.4362
  716MOL0     H98780   1.895   3.924   2.554 -0.5446  3.7564 -0.6990
  716MOL0     H98781   1.729   3.876   2.577 -0.0532 -1.2203 -1.1098
  716MOL0     H98782   1.941   3.730   2.422  1.4211  1.1348  3.1118
  716MOL0     H98783   1.769   3.660   2.461 -1.9411  1.6012  0.7750
  716MOL0     H98784   2.002   3.725   2.648  1.9063 -0.9723 -2.8790
  716MOL0     H98785   1.968   3.565   2.594  0.3604 -0.5532 -2.4021
  716MOL0     H98786   1.736   3.565   2.695 -1.3910 -0.5374  3.2485
  716MOL0     H98787   1.766   3.732   2.744  2.0165  0.1641 -3.8112
  716MOL0     H98788   2.260   4.170   2.044  2.5761 -0.3108  1.6264
  716MOL0     H98789   2.454   4.317   2.032 -1.7598 -0.7532  0.2164
  716MOL0     H98790   2.533   4.891   2.158  1.7922  5.7519 -2.0779
  716MOL0     H98791   2.715   5.026   2.087 -1.6184  0.4415 -0.3058
  716MOL0     H98792   4.306   4.024   1.525 -1.1968 -1.0852  1.6878
  716MOL0     H98793   4.526   3.998   1.422 -1.6721  1.5122  2.1176
  716MOL0     H98794   4.999   3.740   1.577  2.8817  0.8590  0.1450
  716MOL0     H98795   5.216   3.774   1.448  1.0596  1.9969  0.7955
  716MOL0     H98796   5.223   3.968   1.084 -2.6463  1.9562  1.5795
  716MOL0     H98797   5.288   4.096   1.196 -0.4761  0.3501 -1.9699
  716MOL0     H98798   5.498   3.996   1.197 -1.8679  0.7204  1.4605
  716MOL0     H98799   5.462   4.034   1.035  1.7553 -0.4713 -0.1690
  716MOL0     H98800   5.409   3.759   1.159  0.4069 -1.6916 -0.0761
  716MOL0     H98801   5.377   3.806   0.988 -0.3509 -0.3827  0.4501
  716MOL0     H98802   5.610   3.822   0.935 -5.3417  0.4524 -1.0921
  716MOL0     H98803   5.594   3.680   1.044  2.0004  0.3621  0.6260
  716MOL0     H98804   5.865   3.911   1.258 -0.2473  1.1250  0.1720
  716MOL0     H98805   5.036   4.031   1.179 -0.5924 -0.6054 -0.6734
  716MOL0     H98806   4.729   4.070   1.301 -0.5229 -0.8458 -0.2462
  716MOL0     H98807   4.808   4.048   1.152 -0.3979  2.2971  1.0466
  716MOL0     H98808   4.697   3.922   1.220 -0.5372  0.3485 -0.9649
  717MOL0     O98809   3.359   6.380   9.245 -0.6789 -0.3822  0.1609
  717MOL0     C98810   3.309   6.486   9.283  0.1799 -0.0826 -0.2681
  717MOL0     O98811   3.241   6.574   9.209 -0.0897  0.2597  0.3678
  717MOL0     C98812   3.201   6.548   9.071 -0.5264  0.3606 -0.0774
  717MOL0     C98813   3.180   6.673   9.004 -0.5358  0.3392  0.4011
  717MOL0     C98814   3.142   6.664   8.871 -0.4388 -0.5547  0.6323
  717MOL0     C98815   3.113   6.546   8.809  0.4254  0.3666 -0.6089
  717MOL0     O98816   3.105   6.545   8.668  0.1904 -0.0874 -0.8959
  717MOL0     C98817   2.976   6.493   8.628  0.4379  0.5851  0.0002
  717MOL0     C98818   2.978   6.483   8.479  0.2494  0.1054 -0.1110
  717MOL0     C98819   2.845   6.433   8.430 -0.3440 -0.0295 -0.6214
  717MOL0     C98820   2.797   6.493   8.299  0.7465  0.1165 -0.0751
  717MOL0     C98821   2.657   6.459   8.249  0.2754 -0.0511  0.3461
  717MOL0     C98822   2.538   6.516   8.338  0.1180 -0.0598  0.7956
  717MOL0     C98823   2.404   6.444   8.300 -0.9432 -0.7303 -0.4300
  717MOL0     C98824   2.295   6.475   8.409  0.8401  0.3063 -0.1775
  717MOL0     N98825   2.184   6.381   8.389  0.0679 -0.2165  0.1579
  717MOL0     C98826   2.095   6.389   8.282  0.4192 -0.7337  0.0016
  717MOL0     C98827   1.995   6.297   8.320 -0.0896  1.1893  0.9331
  717MOL0     C98828   1.894   6.228   8.240  0.0769 -0.0336  0.1270
  717MOL0     C98829   1.760   6.272   8.290  0.4178 -0.0471 -0.7131
  717MOL0     C98830   1.641   6.217   8.204 -0.1394 -0.5603 -0.0538
  717MOL0     C98831   1.625   6.289   8.063 -0.8506  0.0623 -0.5681
  717MOL0     O98832   1.728   6.250   7.972 -0.3436 -0.1855 -0.0384
  717MOL0     C98833   1.733   6.319   7.855 -0.5196 -0.3888  0.0948
  717MOL0     C98834   1.623   6.372   7.786  0.2086 -0.1903 -0.4614
  717MOL0     C98835   1.628   6.444   7.669  0.6015 -0.2584 -0.5954
  717MOL0     C98836   1.504   6.514   7.618  0.7427  1.0023 -0.2157
  717MOL0     C98837   1.763   6.464   7.613 -0.2215 -0.3958 -0.1551
  717MOL0     C98838   1.799   6.558   7.504  0.4401  0.2085 -0.2298
  717MOL0     O98839   1.930   6.601   7.504 -0.2780 -0.2983 -0.1621
  717MOL0     C98840   1.968   6.659   7.387  0.3464  0.0427  0.5550
  717MOL0     C98841   2.028   6.587   7.288  0.2169 -0.3392 -0.2432
  717MOL0     C98842   2.092   6.647   7.182  0.4327  0.1982 -0.2935
  717MOL0     C98843   2.081   6.782   7.155 -0.2522 -0.3075  0.7577
  717MOL0     O98844   2.143   6.821   7.039  0.1173 -0.1449  0.5772
  717MOL0     C98845   2.121   6.958   7.003 -0.7194  0.1416  0.2495
  717MOL0     C98846   1.996   6.974   6.931  0.7348  0.4716  0.1961
  717MOL0     C98847   1.977   7.117   6.880  0.3206  0.3191 -0.5899
  717MOL0     C98848   1.932   7.133   6.737  0.4304 -0.0213  0.2969
  717MOL0     C98849   1.881   7.272   6.711 -0.3488  0.1045  0.2533
  717MOL0     C98850   1.786   7.273   6.587 -0.0150 -1.0531 -0.0165
  717MOL0     C98851   1.771   7.421   6.531 -0.0295 -0.0496  0.5093
  717MOL0     C98852   1.649   7.424   6.439  0.5879  0.4018 -0.2031
  717MOL0    Cl98853   1.490   7.406   6.523 -0.2372  0.0734  0.1968
  717MOL0     C98854   1.998   6.854   7.244  0.4231  0.1387  0.7131
  717MOL0     C98855   1.955   6.798   7.364 -0.0102 -0.0545  0.9173
  717MOL0     O98856   1.716   6.585   7.419 -0.6385  0.3782 -0.0550
  717MOL0     C98857   1.871   6.408   7.679 -0.0030 -0.3705  0.2784
  717MOL0     C98858   1.860   6.334   7.793  0.6920  0.0723  0.7400
  717MOL0     N98859   2.035   6.234   8.441 -0.6776 -0.2080 -0.1043
  717MOL0     N98860   2.152   6.285   8.477  0.6095  0.4489 -0.4722
  717MOL0     C98861   3.129   6.426   8.879 -0.5999  0.8524 -1.4167
  717MOL0     C98862   3.178   6.422   9.014 -0.4770  0.3482  0.4666
  717MOL0     C98863   3.343   6.514   9.420  0.3385 -0.0134  0.5098
  717MOL0     C98864   3.319   6.405   9.506  0.3490  0.1765  0.2504
  717MOL0     C98865   3.324   6.422   9.642  0.0267 -0.4156  1.0054
  717MOL0     C98866   3.375   6.546   9.692  1.1552 -0.2163  0.0654
  717MOL0     O98867   3.415   6.560   9.822  0.8455 -0.0677  0.3629
  717MOL0     C98868   3.475   6.450   9.898  0.7018 -0.5056 -0.4282
  717MOL0     C98869   3.605   6.411   9.843 -0.1126  0.4607 -0.3949
  717MOL0     C98870   3.684   6.312   9.942  0.7105 -0.1623  0.6978
  717MOL0     C98871   3.675   6.167   9.905 -0.2923  0.3724 -0.0370
  717MOL0     C98872   3.537   6.118   9.875  0.6550  0.0650 -0.9890
  717MOL0     C98873   3.419   6.087   9.845  0.4679  0.9714 -0.1087
  717MOL0     C98874   3.394   6.658   9.606  0.6917  0.8819  0.0910
  717MOL0     C98875   3.374   6.643   9.467 -0.3853  0.5282  0.1467
  717MOL0     C98876   3.377   6.771   9.385  0.1335 -0.0735  0.4746
  717MOL0     H98877   3.179   6.773   9.048 -3.2047  1.5379 -2.0351
  717MOL0     H98878   3.146   6.757   8.815 -2.2453 -0.9260 -0.1740
  717MOL0     H98879   2.898   6.563   8.659  0.8784  0.9263  0.3483
  717MOL0     H98880   2.950   6.396   8.671 -0.6441  0.1180 -1.6074
  717MOL0     H98881   3.000   6.582   8.437  0.3561  0.1329  0.0103
  717MOL0     H98882   3.060   6.415   8.456 -1.8188 -2.0655 -1.4963
  717MOL0     H98883   2.862   6.325   8.422 -2.6355 -0.4446 -0.5316
  717MOL0     H98884   2.777   6.466   8.510 -0.6762 -2.2366  0.0856
  717MOL0     H98885   2.790   6.602   8.309 -6.1945  0.0588  0.7557
  717MOL0     H98886   2.870   6.480   8.218 -0.1780  2.3672 -1.3679
  717MOL0     H98887   2.647   6.350   8.241 -1.5285  0.1642 -0.8738
  717MOL0     H98888   2.646   6.496   8.146  2.5721  2.7873  0.9987
  717MOL0     H98889   2.558   6.494   8.443 -2.3894 -0.1434  1.3344
  717MOL0     H98890   2.519   6.624   8.337 -0.8863  0.0066 -4.3549
  717MOL0     H98891   2.413   6.335   8.304 -2.0329 -0.8297 -0.3823
  717MOL0     H98892   2.372   6.485   8.204 -1.7155 -2.7150 -1.0778
  717MOL0     H98893   2.339   6.476   8.509  2.6625  2.1426 -0.9145
  717MOL0     H98894   2.263   6.577   8.385 -0.0985  0.1001  0.1709
  717MOL0     H98895   2.104   6.429   8.182 -2.7333 -0.9797 -0.4877
  717MOL0     H98896   1.911   6.121   8.254 -2.4248 -0.1853  3.0434
  717MOL0     H98897   1.898   6.252   8.133 -2.4019  1.5755  0.3146
  717MOL0     H98898   1.755   6.238   8.394 -0.8980 -0.8535 -1.0178
  717MOL0     H98899   1.753   6.381   8.284 -1.0774 -0.1834 -2.5700
  717MOL0     H98900   1.630   6.109   8.190  0.9309 -0.2759 -4.4741
  717MOL0     H98901   1.547   6.253   8.248 -0.6285  0.8329 -2.0971
  717MOL0     H98902   1.531   6.250   8.023 -0.3767  0.4003 -2.0822
  717MOL0     H98903   1.617   6.396   8.084 -1.5113 -0.5514  2.8532
  717MOL0     H98904   1.530   6.350   7.838  1.5505  1.5648  2.9953
  717MOL0     H98905   1.516   6.623   7.623  0.8774  1.0760 -1.7992
  717MOL0     H98906   1.417   6.503   7.684  1.7689  1.4700  1.2695
  717MOL0     H98907   1.479   6.485   7.516  0.9068  4.0549 -1.2375
  717MOL0     H98908   2.051   6.482   7.298 -0.7741 -0.5043  0.3947
  717MOL0     H98909   2.154   6.595   7.110  0.6485 -0.6567  0.4890
  717MOL0     H98910   2.121   7.017   7.095  4.6468  1.8426 -0.4989
  717MOL0     H98911   2.208   7.003   6.954  0.2284 -2.2376 -0.3821
  717MOL0     H98912   2.003   6.901   6.850 -0.1786  2.6515 -2.0204
  717MOL0     H98913   1.907   6.956   6.992 -0.7237  0.2875 -1.8807
  717MOL0     H98914   2.077   7.162   6.887  1.2717 -1.5465 -1.4529
  717MOL0     H98915   1.894   7.165   6.933 -0.7446 -0.1664 -1.7761
  717MOL0     H98916   1.838   7.077   6.730 -2.3890  4.0156  1.9688
  717MOL0     H98917   2.005   7.101   6.661 -0.1656  2.6667 -1.5601
  717MOL0     H98918   1.819   7.300   6.797  0.2400  0.5754  0.5329
  717MOL0     H98919   1.965   7.340   6.695  1.1992 -1.6476  0.6726
  717MOL0     H98920   1.686   7.234   6.611 -0.5376  0.0289 -0.3555
  717MOL0     H98921   1.825   7.214   6.503 -0.1024  1.0146 -1.5703
  717MOL0     H98922   1.860   7.441   6.472  1.2687 -0.1171  2.3638
  717MOL0     H98923   1.754   7.500   6.604 -3.2927  2.2158 -2.3604
  717MOL0     H98924   1.649   7.334   6.376 -2.5546 -1.1381  1.7558
  717MOL0     H98925   1.658   7.518   6.383 -2.9114  0.0877 -1.5774
  717MOL0     H98926   1.989   6.962   7.237 -2.3299  0.0488  1.6329
  717MOL0     H98927   1.899   6.850   7.441 -2.2395 -0.8977 -0.0383
  717MOL0     H98928   1.965   6.417   7.626  0.0219 -1.8109  0.0087
  717MOL0     H98929   1.948   6.292   7.840  0.0765 -0.5348  1.3813
  717MOL0     H98930   3.095   6.332   8.836 -1.1214  0.8061 -0.9278
  717MOL0     H98931   3.196   6.329   9.068 -0.6025 -0.7778 -1.3690
  717MOL0     H98932   3.287   6.305   9.477 -0.8518 -0.4044  3.1433
  717MOL0     H98933   3.309   6.339   9.710 -1.0959  0.4031  1.8025
  717MOL0     H98934   3.491   6.484  10.001  1.3638 -0.2032 -0.6262
  717MOL0     H98935   3.406   6.366   9.913  0.8627 -0.0700  4.3735
  717MOL0     H98936   3.662   6.504   9.846  2.9457 -1.2191  3.8020
  717MOL0     H98937   3.586   6.374   9.742  0.3441  1.6302 -0.9265
  717MOL0     H98938   3.792   6.328   9.947  1.0140 -1.6864 -0.1919
  717MOL0     H98939   3.644   6.317  10.044 -1.9821 -0.1284 -0.2741
  717MOL0     H98940   3.726   6.117   9.987  2.4611  0.5905 -1.5064
  717MOL0     H98941   3.737   6.146   9.817 -1.2565 -1.2573 -0.3687
  717MOL0     H98942   3.319   6.051   9.834  0.5212 -0.1397  2.4497
  717MOL0     H98943   3.416   6.754   9.651 -1.3997  0.9089  1.1652
  717MOL0     H98944   3.445   6.843   9.432  0.3138  0.2725 -0.3042
  717MOL0     H98945   3.394   6.750   9.279  3.3716 -0.3025  0.9241
  717MOL0     H98946   3.280   6.820   9.392  1.0321  1.7271  1.0049
  718MOL0     O98947   1.093   5.452   3.929  0.0538 -0.1855 -0.3044
  718MOL0     C98948   1.007   5.400   3.862  0.8065 -0.2934 -0.0233
  718MOL0     O98949   1.021   5.276   3.805  0.5476  0.1764 -0.0501
  718MOL0     C98950   1.121   5.190   3.841  0.6468  0.1228 -0.1858
  718MOL0     C98951   1.148   5.090   3.748 -0.7668 -0.6050 -0.0703
  718MOL0     C98952   1.246   4.992   3.773  0.2163 -0.4009 -0.1009
  718MOL0     C98953   1.321   4.993   3.893  1.0645  0.6229 -0.2826
  718MOL0     O98954   1.414   4.900   3.932  0.4696  0.0669  0.3462
  718MOL0     C98955   1.435   4.777   3.858 -0.1208  0.5608  0.0523
  718MOL0     C98956   1.483   4.659   3.947  0.1564 -0.0210  0.0643
  718MOL0     C98957   1.467   4.521   3.871  0.4760 -0.3616  0.9795
  718MOL0     C98958   1.543   4.403   3.942  0.0601  0.2757  0.1492
  718MOL0     C98959   1.488   4.362   4.076 -0.4142  0.0091  0.6836
  718MOL0     C98960   1.342   4.305   4.065  0.2996 -0.2670 -0.5208
  718MOL0     C98961   1.295   4.247   4.204 -1.1010  0.0483 -0.3869
  718MOL0     C98962   1.239   4.106   4.178 -0.0266 -0.4717 -0.3662
  718MOL0     N98963   1.203   4.036   4.305  0.7286 -0.1816  0.2653
  718MOL0     C98964   1.281   4.026   4.413 -0.0104 -0.0337  0.2771
  718MOL0     C98965   1.217   3.960   4.507  0.6438  0.0007 -0.4331
  718MOL0     C98966   1.268   3.927   4.650  0.1779  0.6593  0.2739
  718MOL0     C98967   1.360   3.800   4.657  1.3133 -0.6640  0.3206
  718MOL0     C98968   1.482   3.803   4.569  0.2008 -0.9863  0.3778
  718MOL0     C98969   1.580   3.686   4.619  0.7249  0.5939 -0.1414
  718MOL0     O98970   1.702   3.705   4.557  0.0736  0.5189 -0.1105
  718MOL0     C98971   1.803   3.623   4.596 -0.1569  0.8768  0.8287
  718MOL0     C98972   1.847   3.546   4.486  0.5630 -0.2313 -0.1872
  718MOL0     C98973   1.949   3.456   4.500 -1.0013  1.1934  0.2384
  718MOL0     C98974   2.000   3.391   4.363 -0.3256  0.0830  0.3996
  718MOL0     C98975   2.005   3.422   4.624 -0.6603  0.4543 -0.2671
  718MOL0     C98976   2.113   3.314   4.641  0.0967  1.0144  0.3189
  718MOL0     O98977   2.134   3.281   4.772  0.1825 -0.8001 -0.4182
  718MOL0     C98978   2.239   3.199   4.808 -0.1987 -0.3929 -1.1656
  718MOL0     C98979   2.355   3.263   4.846 -0.4254  0.5678 -0.0603
  718MOL0     C98980   2.473   3.191   4.867 -0.5067 -0.0687  0.1424
  718MOL0     C98981   2.464   3.045   4.861 -0.3322 -0.2020  0.7078
  718MOL0     O98982   2.579   2.968   4.868 -0.2375  0.6951 -0.1028
  718MOL0     C98983   2.680   2.990   4.761  0.5441  0.1010 -0.4894
  718MOL0     C98984   2.654   2.924   4.625  0.0868  0.9918 -1.1093
  718MOL0     C98985   2.685   2.774   4.630 -0.4242  0.2564 -1.1207
  718MOL0     C98986   2.654   2.693   4.500  1.1226 -0.3363 -0.3909
  718MOL0     C98987   2.749   2.571   4.488  0.2873 -0.1946  0.4769
  718MOL0     C98988   2.760   2.510   4.346  0.1719  0.4380 -0.6491
  718MOL0     C98989   2.890   2.460   4.301 -1.1143  0.0490  0.7895
  718MOL0     C98990   2.904   2.322   4.226  0.7529 -0.4155  0.0912
  718MOL0    Cl98991   2.815   2.345   4.073  0.2588  0.1096  0.0742
  718MOL0     C98992   2.342   2.982   4.836  0.3446 -0.8787  0.0594
  718MOL0     C98993   2.228   3.064   4.817 -0.3424  0.0293  1.0134
  718MOL0     O98994   2.170   3.258   4.545 -0.2023  0.6083 -0.5306
  718MOL0     C98995   1.944   3.487   4.731  0.4979  0.2559 -0.1219
  718MOL0     C98996   1.850   3.588   4.723 -0.2809 -0.1677  0.9708
  718MOL0     N98997   1.108   3.911   4.437  0.1357 -0.7509 -0.0068
  718MOL0     N98998   1.089   3.963   4.321 -0.4120  0.0250  0.3594
  718MOL0     C98999   1.292   5.086   3.991 -0.1799 -0.5156 -0.3517
  718MOL0     C99000   1.190   5.187   3.968 -0.3461  0.6629  0.9818
  718MOL0     C99001   0.893   5.498   3.819 -1.0590  0.2433 -0.1997
  718MOL0     C99002   0.839   5.468   3.693  0.1775 -1.0867  0.5143
  718MOL0     C99003   0.744   5.560   3.636  0.2822  0.5283 -0.5487
  718MOL0     C99004   0.699   5.679   3.703  0.5979 -0.0445 -1.1745
  718MOL0     O99005   0.608   5.771   3.656  0.3842 -0.3672 -0.5802
  718MOL0     C99006   0.538   5.761   3.528  0.7619 -0.1409 -0.1029
  718MOL0     C99007   0.586   5.880   3.441 -0.0545  0.5827  0.1736
  718MOL0     C99008   0.558   6.009   3.507 -0.1330  0.5852 -0.6714
  718MOL0     C99009   0.423   6.070   3.478  0.0507 -0.2083  0.2076
  718MOL0     C99010   0.305   5.992   3.524 -1.1302  0.5993 -0.2926
  718MOL0     C99011   0.210   5.926   3.557 -0.2387 -0.3696 -1.3122
  718MOL0     C99012   0.750   5.704   3.836  0.2755  0.7244 -0.8563
  718MOL0     C99013   0.842   5.609   3.897  0.1861  0.7803 -0.4078
  718MOL0     C99014   0.864   5.624   4.047  0.3766 -0.5945 -0.1754
  718MOL0     H99015   1.088   5.077   3.658 -5.0816  2.5631  1.9702
  718MOL0     H99016   1.267   4.921   3.694 -1.2768 -1.3640  0.3267
  718MOL0     H99017   1.520   4.810   3.798  1.6822 -2.6139  0.6192
  718MOL0     H99018   1.343   4.746   3.807 -1.3984  1.2657  1.8341
  718MOL0     H99019   1.588   4.672   3.974  0.2391 -0.6472  0.0540
  718MOL0     H99020   1.423   4.654   4.038 -1.6804 -2.6445 -1.1702
  718MOL0     H99021   1.362   4.492   3.878  0.7172 -0.8874  3.3977
  718MOL0     H99022   1.484   4.523   3.763 -0.4684 -0.7542  0.8207
  718MOL0     H99023   1.536   4.320   3.870  0.3625  2.2743 -2.3332
  718MOL0     H99024   1.650   4.425   3.944  0.8019 -2.9609  1.5297
  718MOL0     H99025   1.490   4.443   4.149 -2.1188  0.7321 -0.0041
  718MOL0     H99026   1.543   4.275   4.113  0.8821  0.8936  0.9286
  718MOL0     H99027   1.267   4.375   4.025  1.0790 -0.8319 -3.1691
  718MOL0     H99028   1.352   4.224   3.992 -0.6720  0.9014 -2.0165
  718MOL0     H99029   1.216   4.312   4.243 -0.7500  0.7060 -0.7615
  718MOL0     H99030   1.374   4.241   4.280 -1.7394 -0.2244  0.2715
  718MOL0     H99031   1.155   4.113   4.109 -0.5489  0.3865  0.3233
  718MOL0     H99032   1.317   4.040   4.140  0.2784 -0.2065 -0.2059
  718MOL0     H99033   1.381   4.067   4.419  1.0174 -2.3075 -0.1737
  718MOL0     H99034   1.178   3.902   4.706  0.7767  0.6745  1.2659
  718MOL0     H99035   1.316   4.020   4.681  0.3895  0.4091  0.7196
  718MOL0     H99036   1.392   3.787   4.761  0.8358 -1.7683  0.3352
  718MOL0     H99037   1.303   3.709   4.639 -0.1682  0.0607  1.1111
  718MOL0     H99038   1.457   3.785   4.464  1.2975  2.6012 -0.6295
  718MOL0     H99039   1.528   3.902   4.578 -1.0010 -0.4446  0.6662
  718MOL0     H99040   1.608   3.694   4.725  1.9303 -0.1607 -0.3828
  718MOL0     H99041   1.546   3.583   4.603  1.8186 -0.2506  2.3290
  718MOL0     H99042   1.809   3.559   4.386 -0.4524  0.7700  0.3151
  718MOL0     H99043   2.108   3.405   4.356 -0.1605 -1.3973 -0.4244
  718MOL0     H99044   1.952   3.444   4.280  1.9037  1.8311  0.1193
  718MOL0     H99045   1.968   3.288   4.345 -1.6598  0.7033 -0.9620
  718MOL0     H99046   2.344   3.371   4.858  0.1384  0.9374 -2.4329
  718MOL0     H99047   2.573   3.223   4.895 -1.3511  0.8665  2.3762
  718MOL0     H99048   2.684   3.098   4.742  0.3639  0.1660 -0.1667
  718MOL0     H99049   2.781   2.964   4.794  0.1804 -0.4012  0.2652
  718MOL0     H99050   2.546   2.934   4.616 -0.4908  2.1097  3.9069
  718MOL0     H99051   2.715   2.972   4.548 -0.3531  1.0370 -1.4296
  718MOL0     H99052   2.626   2.735   4.714 -0.0640  0.5363 -0.7300
  718MOL0     H99053   2.790   2.765   4.662 -0.3031  5.0720  0.6592
  718MOL0     H99054   2.659   2.763   4.417 -2.2954  0.9657  0.3679
  718MOL0     H99055   2.551   2.659   4.511  1.0636 -0.0571 -0.0838
  718MOL0     H99056   2.854   2.584   4.515  0.9346 -2.0726 -0.9179
  718MOL0     H99057   2.721   2.495   4.561 -0.9963 -0.5131 -0.3072
  718MOL0     H99058   2.722   2.581   4.272 -0.8960  1.4686  0.8155
  718MOL0     H99059   2.694   2.423   4.348 -0.5609  0.9746  0.9727
  718MOL0     H99060   2.961   2.451   4.384 -3.0655 -2.7955  2.3463
  718MOL0     H99061   2.939   2.539   4.244  0.4978 -1.6278 -0.2502
  718MOL0     H99062   2.863   2.238   4.283 -0.3927  0.2685  0.2928
  718MOL0     H99063   3.010   2.306   4.203  0.6464 -0.8461 -0.1050
  718MOL0     H99064   2.341   2.875   4.817 -4.6532 -1.3085  1.2784
  718MOL0     H99065   2.134   3.020   4.784 -0.1929 -0.1255  0.7949
  718MOL0     H99066   1.961   3.456   4.834 -1.1841 -0.8461 -0.1284
  718MOL0     H99067   1.803   3.637   4.808 -0.5501 -0.4041  0.9618
  718MOL0     H99068   1.340   5.097   4.087  1.5171  0.0060 -1.2298
  718MOL0     H99069   1.174   5.257   4.050  1.4190  1.5781  0.6003
  718MOL0     H99070   0.882   5.391   3.629 -0.9490 -0.8775 -0.5221
  718MOL0     H99071   0.705   5.533   3.538  2.4597  0.8542 -1.5742
  718MOL0     H99072   0.551   5.660   3.488 -0.2701 -0.5831  0.6369
  718MOL0     H99073   0.432   5.779   3.545  0.0562 -2.8823 -1.0703
  718MOL0     H99074   0.540   5.874   3.342 -0.1226  2.0774  0.0808
  718MOL0     H99075   0.693   5.869   3.418 -0.6506 -0.6455 -2.3624
  718MOL0     H99076   0.577   6.014   3.614  1.1223 -2.2206 -0.6624
  718MOL0     H99077   0.634   6.076   3.467  0.5198 -0.5729 -1.4291
  718MOL0     H99078   0.413   6.098   3.372  1.8922  0.8582  0.2689
  718MOL0     H99079   0.420   6.170   3.522 -1.8754 -1.3007  2.7914
  718MOL0     H99080   0.136   5.859   3.595 -2.3278  2.8442  0.7866
  718MOL0     H99081   0.726   5.792   3.895  1.0368 -0.4133  1.2825
  718MOL0     H99082   0.798   5.555   4.102 -1.6146  1.4365  0.1077
  718MOL0     H99083   0.965   5.615   4.088  1.3787  1.7309 -1.9472
  718MOL0     H99084   0.837   5.727   4.072  1.3597 -0.3655 -0.0451
  719MOL0     O99085   4.498   7.823   4.883 -0.3710  0.2118  0.0733
  719MOL0     C99086   4.521   7.923   4.817 -0.1590 -0.1437  0.5268
  719MOL0     O99087   4.487   7.928   4.679  0.2663 -1.0642  0.8876
  719MOL0     C99088   4.430   7.814   4.627 -0.0948 -0.4527  0.1467
  719MOL0     C99089   4.490   7.681   4.621 -0.1220 -0.4070  0.9667
  719MOL0     C99090   4.424   7.573   4.563  0.1764 -0.8068  0.9100
  719MOL0     C99091   4.295   7.595   4.506 -0.3796 -0.3363  0.9812
  719MOL0     O99092   4.247   7.486   4.436  0.5769 -0.7053  0.3092
  719MOL0     C99093   4.119   7.502   4.373  0.1378 -0.8703 -0.3502
  719MOL0     C99094   4.056   7.363   4.358  0.2597  0.5652 -0.5884
  719MOL0     C99095   3.911   7.379   4.302  1.1566  0.2279 -0.7687
  719MOL0     C99096   3.854   7.247   4.277  0.0354  0.0397  0.1482
  719MOL0     C99097   3.717   7.244   4.222 -0.3215 -0.4675  0.0260
  719MOL0     C99098   3.655   7.101   4.248 -1.1607 -0.4363 -0.0013
  719MOL0     C99099   3.532   7.079   4.161  0.4365  0.0379  0.3359
  719MOL0     C99100   3.423   7.194   4.165 -0.1135 -0.5638 -0.9021
  719MOL0     N99101   3.396   7.205   4.309  0.2321 -0.0925 -0.5807
  719MOL0     C99102   3.338   7.104   4.386 -0.5129 -0.8133  0.4622
  719MOL0     C99103   3.323   7.152   4.512 -1.2751  0.0099  0.7190
  719MOL0     C99104   3.256   7.079   4.632  0.0584 -0.1086  0.2783
  719MOL0     C99105   3.141   6.999   4.593 -0.4465  1.2256 -0.9349
  719MOL0     C99106   3.063   6.939   4.717 -0.2837 -0.4761 -0.9978
  719MOL0     C99107   2.934   6.866   4.689 -0.6803 -0.2788  0.1578
  719MOL0     O99108   2.977   6.745   4.623  0.4467  0.1205  0.8483
  719MOL0     C99109   3.000   6.621   4.682 -0.4341 -0.1757  0.0529
  719MOL0     C99110   3.071   6.538   4.602 -0.2669 -0.7132  0.2837
  719MOL0     C99111   3.114   6.415   4.646 -0.5168  0.8467 -1.3604
  719MOL0     C99112   3.196   6.336   4.551 -0.5124  0.5987  1.1728
  719MOL0     C99113   3.083   6.375   4.780 -0.3357 -0.5824 -0.2595
  719MOL0     C99114   3.141   6.252   4.838  0.5579  0.5616 -0.9676
  719MOL0     O99115   3.260   6.196   4.787  0.4599  0.3104 -0.0143
  719MOL0     C99116   3.296   6.078   4.850  0.3145  0.6539  0.2955
  719MOL0     C99117   3.362   6.081   4.970 -0.1132 -0.1820 -0.7568
  719MOL0     C99118   3.405   5.964   5.040  0.7620 -0.2800 -0.2290
  719MOL0     C99119   3.373   5.846   4.985  0.2471  0.1847  0.1952
  719MOL0     O99120   3.415   5.739   5.065  0.0509  0.1973  1.8408
  719MOL0     C99121   3.432   5.618   4.995 -0.3416  0.1226  0.5338
  719MOL0     C99122   3.542   5.530   5.056 -0.7980 -0.3442  0.1032
  719MOL0     C99123   3.681   5.604   5.043 -0.2736 -0.1822  1.3538
  719MOL0     C99124   3.742   5.562   4.908  0.3047 -0.0005 -0.6146
  719MOL0     C99125   3.883   5.616   4.898 -0.2632  0.1651  0.4029
  719MOL0     C99126   3.974   5.523   4.821 -0.9146 -0.0350 -0.3861
  719MOL0     C99127   4.111   5.572   4.789  0.1520  0.0653 -0.3553
  719MOL0     C99128   4.130   5.620   4.645 -0.3719  1.3547  0.8563
  719MOL0    Cl99129   4.065   5.780   4.612 -0.1303 -0.4860  0.3318
  719MOL0     C99130   3.298   5.836   4.862 -0.7386  0.4333  0.4818
  719MOL0     C99131   3.258   5.953   4.796 -0.1716 -0.3369 -0.0113
  719MOL0     O99132   3.090   6.214   4.946  0.0281 -1.2344  0.5905
  719MOL0     C99133   2.995   6.458   4.856 -0.1492 -0.3983 -0.2575
  719MOL0     C99134   2.961   6.586   4.809  0.0836  0.1080 -0.4938
  719MOL0     N99135   3.361   7.290   4.507 -0.1820  0.5514 -0.2279
  719MOL0     N99136   3.408   7.313   4.387 -0.3270 -0.6374  0.0743
  719MOL0     C99137   4.242   7.731   4.503 -0.4298 -0.1337 -0.4859
  719MOL0     C99138   4.317   7.836   4.567 -0.5129 -1.2766 -0.2776
  719MOL0     C99139   4.574   8.049   4.871  0.2607  0.4525 -0.7004
  719MOL0     C99140   4.556   8.171   4.802  0.1908  0.8183 -0.5629
  719MOL0     C99141   4.605   8.292   4.847  1.0065  0.0755 -0.4928
  719MOL0     C99142   4.674   8.299   4.967  0.8248  0.4937  1.2323
  719MOL0     O99143   4.724   8.428   4.993  0.7471  0.8699 -0.3237
  719MOL0     C99144   4.788   8.441   5.122  0.8111  0.3494 -0.3393
  719MOL0     C99145   4.691   8.427   5.236  0.3480 -0.5030 -0.2350
  719MOL0     C99146   4.641   8.572   5.271 -1.2167 -0.5113  0.2119
  719MOL0     C99147   4.568   8.575   5.414 -0.7983 -0.0931  0.5214
  719MOL0     C99148   4.659   8.569   5.527 -0.4112 -0.3139  0.5630
  719MOL0     C99149   4.735   8.566   5.619 -0.3643 -0.0224 -0.1905
  719MOL0     C99150   4.701   8.184   5.041  0.0312  0.3552  0.1457
  719MOL0     C99151   4.658   8.058   4.994  0.0140 -0.5396  0.2717
  719MOL0     C99152   4.697   7.929   5.066 -0.0953  0.5300  0.8996
  719MOL0     H99153   4.571   7.665   4.691  0.9364 -2.0965 -0.5405
  719MOL0     H99154   4.459   7.470   4.559  1.7410 -0.4420  3.2110
  719MOL0     H99155   4.132   7.559   4.281  0.4601  1.2026  0.9271
  719MOL0     H99156   4.047   7.561   4.430  1.4771 -0.2745  0.7997
  719MOL0     H99157   4.107   7.303   4.281  2.3424  2.6566 -0.9450
  719MOL0     H99158   4.073   7.326   4.460  1.5689  0.2743 -0.8909
  719MOL0     H99159   3.853   7.435   4.376  0.9780 -0.6618 -0.2255
  719MOL0     H99160   3.902   7.453   4.222  2.4849  0.9286 -0.3201
  719MOL0     H99161   3.925   7.211   4.202  1.9983  1.9665  0.9504
  719MOL0     H99162   3.846   7.199   4.374 -2.5103 -1.1465 -0.5779
  719MOL0     H99163   3.723   7.264   4.115 -1.5941 -1.7365 -0.3163
  719MOL0     H99164   3.652   7.322   4.265 -3.5225 -2.2797 -1.1670
  719MOL0     H99165   3.733   7.037   4.207 -1.2208  0.4674 -1.5817
  719MOL0     H99166   3.644   7.069   4.352 -0.3093  0.6552  0.4435
  719MOL0     H99167   3.480   6.989   4.196 -3.0043  2.5150  2.1413
  719MOL0     H99168   3.559   7.061   4.057 -1.4060  0.3784 -0.2408
  719MOL0     H99169   3.458   7.290   4.127  1.1602 -0.8423 -0.4879
  719MOL0     H99170   3.332   7.168   4.110 -0.9559  0.4362 -0.0047
  719MOL0     H99171   3.306   7.008   4.346 -3.7191  0.5374 -0.5234
  719MOL0     H99172   3.224   7.156   4.703  0.2609  0.6295 -0.4146
  719MOL0     H99173   3.334   7.021   4.682  1.1827  1.3238  0.2721
  719MOL0     H99174   3.060   7.057   4.546  0.8816  1.2320 -3.3705
  719MOL0     H99175   3.169   6.925   4.517  1.2055  0.2311  0.5689
  719MOL0     H99176   3.131   6.884   4.783  0.3864  4.3562  2.9493
  719MOL0     H99177   3.034   7.025   4.777 -1.7996 -1.5960 -0.0448
  719MOL0     H99178   2.879   6.844   4.780 -2.2036  0.7669 -0.4641
  719MOL0     H99179   2.875   6.922   4.615  0.2148 -1.1801 -1.3092
  719MOL0     H99180   3.093   6.574   4.502  0.3124 -1.5887  0.0747
  719MOL0     H99181   3.296   6.379   4.549 -0.2707  0.2160  2.8458
  719MOL0     H99182   3.157   6.357   4.451 -0.6394 -1.3603  0.7550
  719MOL0     H99183   3.192   6.229   4.574  0.5765  0.8315  2.5478
  719MOL0     H99184   3.379   6.172   5.027  1.5384 -1.7951  1.5138
  719MOL0     H99185   3.465   5.973   5.130  1.1327  2.4777 -0.6484
  719MOL0     H99186   3.335   5.568   5.000 -0.8914  0.4163 -3.6780
  719MOL0     H99187   3.457   5.633   4.889  0.8997 -1.4691  0.5685
  719MOL0     H99188   3.529   5.522   5.165  0.9629  2.8325  0.6843
  719MOL0     H99189   3.545   5.431   5.010 -0.1286 -1.6659  2.7978
  719MOL0     H99190   3.751   5.580   5.124 -0.0880 -1.9783  0.6859
  719MOL0     H99191   3.663   5.711   5.058 -0.7482 -0.0755  0.1444
  719MOL0     H99192   3.682   5.584   4.819  1.2492 -0.7844 -1.4658
  719MOL0     H99193   3.745   5.453   4.912 -1.2099 -0.0386  0.2841
  719MOL0     H99194   3.876   5.715   4.852  1.3596  0.0415 -0.1434
  719MOL0     H99195   3.934   5.634   4.993  0.8658 -1.2104  0.0863
  719MOL0     H99196   3.926   5.487   4.730 -0.6244 -3.8955  0.8117
  719MOL0     H99197   3.980   5.440   4.892 -0.2738  1.6228  1.5939
  719MOL0     H99198   4.183   5.497   4.822 -1.7063 -0.9388  1.7210
  719MOL0     H99199   4.128   5.662   4.850  0.8651 -0.2869 -0.0262
  719MOL0     H99200   4.081   5.544   4.584 -0.4999  2.7088 -0.7855
  719MOL0     H99201   4.239   5.607   4.643 -0.7066 -2.9875 -2.1183
  719MOL0     H99202   3.269   5.737   4.826  0.6430  0.9350 -2.3181
  719MOL0     H99203   3.203   5.954   4.702 -0.9998 -4.0225  0.3062
  719MOL0     H99204   2.950   6.418   4.947 -3.2984  0.5471 -1.2961
  719MOL0     H99205   2.886   6.645   4.861 -0.5351  1.3390 -2.6993
  719MOL0     H99206   4.144   7.749   4.461  0.2598 -0.5651 -2.3728
  719MOL0     H99207   4.274   7.936   4.569  1.8587 -0.0161 -3.4461
  719MOL0     H99208   4.497   8.181   4.711 -0.0700 -0.2587 -0.5254
  719MOL0     H99209   4.582   8.376   4.783 -0.0959 -0.7552 -1.2334
  719MOL0     H99210   4.873   8.372   5.125  1.2849  0.9159 -0.4741
  719MOL0     H99211   4.827   8.543   5.125  3.8042 -0.5355 -2.7271
  719MOL0     H99212   4.747   8.379   5.316  3.7597  4.3083  0.7469
  719MOL0     H99213   4.608   8.358   5.223 -0.4020  0.0293  1.4630
  719MOL0     H99214   4.719   8.649   5.267 -0.6621 -0.9173  1.9954
  719MOL0     H99215   4.580   8.620   5.194  4.2379  0.2076 -4.3215
  719MOL0     H99216   4.497   8.493   5.426 -1.8658  0.6163 -0.8165
  719MOL0     H99217   4.505   8.663   5.429 -2.3444 -1.1548  0.4734
  719MOL0     H99218   4.807   8.561   5.699 -1.3664 -1.0149  0.6869
  719MOL0     H99219   4.749   8.186   5.138 -2.2353 -2.1458  1.4673
  719MOL0     H99220   4.617   7.869   5.109 -2.2626  1.5125 -1.5170
  719MOL0     H99221   4.758   7.864   5.002 -0.1749  0.7092  0.6423
  719MOL0     H99222   4.768   7.948   5.147  1.1284 -1.0332  0.2593
  720MOL0     O99223   6.132   9.909   2.249 -0.7669 -0.0789 -0.3321
  720MOL0     C99224   6.135   9.931   2.127 -0.0681  0.2594 -0.0067
  720MOL0     O99225   6.157   9.836   2.035 -0.8510  0.6377 -0.5110
  720MOL0     C99226   6.140   9.704   2.057 -0.2361  0.3890 -0.7997
  720MOL0     C99227   6.063   9.626   1.973 -0.1918 -0.5246 -0.7727
  720MOL0     C99228   6.036   9.491   1.994  0.3256  0.3446 -0.0002
  720MOL0     C99229   6.078   9.422   2.114  0.0917 -0.7884  0.0539
  720MOL0     O99230   6.052   9.293   2.148  0.2215 -0.2494 -0.1236
  720MOL0     C99231   5.957   9.227   2.055 -0.6310  0.6174  0.6283
  720MOL0     C99232   5.926   9.086   2.131  0.7193 -0.6362  0.4837
  720MOL0     C99233   5.824   9.022   2.033  0.8033  0.9021 -0.8913
  720MOL0     C99234   5.766   8.892   2.106 -0.8216 -0.7159  0.0857
  720MOL0     C99235   5.652   8.831   2.033 -0.7014 -0.2945 -0.2068
  720MOL0     C99236   5.618   8.694   2.083  0.5839  0.6747  0.0846
  720MOL0     C99237   5.714   8.580   2.049 -0.3023  0.2028  0.8438
  720MOL0     C99238   5.648   8.447   2.030 -0.5412  0.4912  0.2327
  720MOL0     N99239   5.601   8.392   2.151 -0.1157  0.0986  0.1405
  720MOL0     C99240   5.667   8.300   2.221 -0.1210 -0.5780  0.4110
  720MOL0     C99241   5.623   8.308   2.351  0.4277 -0.2708  0.5402
  720MOL0     C99242   5.662   8.236   2.473  0.2142  0.7740  0.5042
  720MOL0     C99243   5.746   8.341   2.552  0.3079 -0.1548  0.5429
  720MOL0     C99244   5.773   8.305   2.700  0.1840 -0.1142  0.1960
  720MOL0     C99245   5.924   8.327   2.735 -0.0187  0.2500  0.5020
  720MOL0     O99246   5.954   8.468   2.729 -0.6242 -0.8270  0.3287
  720MOL0     C99247   6.088   8.475   2.759 -0.3599  0.0633 -0.0118
  720MOL0     C99248   6.175   8.436   2.664 -0.4172 -0.6719  0.7364
  720MOL0     C99249   6.308   8.426   2.690 -0.0270 -0.4106  0.3210
  720MOL0     C99250   6.401   8.387   2.577 -0.7602  0.8319 -0.1943
  720MOL0     C99251   6.358   8.457   2.821 -1.0444  0.2141  0.6057
  720MOL0     C99252   6.505   8.475   2.851 -1.1748  0.0540  0.1673
  720MOL0     O99253   6.589   8.553   2.766  0.4177 -0.1367  0.0644
  720MOL0     C99254   6.697   8.617   2.818 -0.5153  0.0473 -1.0552
  720MOL0     C99255   6.728   8.648   2.957 -0.5592  0.6101  0.1920
  720MOL0     C99256   6.855   8.701   2.989 -0.1041  0.1672  0.8445
  720MOL0     C99257   6.947   8.734   2.893 -0.2428  0.5768 -0.9020
  720MOL0     O99258   7.073   8.788   2.919  0.4960  0.1759  0.3600
  720MOL0     C99259   7.090   8.842   3.051 -0.1263  1.1702  0.7725
  720MOL0     C99260   7.200   8.947   3.064 -0.0303 -0.6877 -0.3405
  720MOL0     C99261   7.237   8.978   3.212 -0.0772 -0.3049  0.1407
  720MOL0     C99262   7.355   9.074   3.228 -0.0386 -0.3621 -0.0658
  720MOL0     C99263   7.483   8.998   3.222 -0.2097  0.0765 -0.4386
  720MOL0     C99264   7.608   9.083   3.250 -1.1324  0.4672  0.1827
  720MOL0     C99265   7.608   9.120   3.395  0.3449 -1.1300 -0.0103
  720MOL0     C99266   7.586   9.025   3.504 -0.3931 -0.3845 -0.3799
  720MOL0    Cl99267   7.700   8.888   3.504  0.3192  0.0730 -0.4289
  720MOL0     C99268   6.921   8.712   2.761  0.5480  0.2963 -0.9334
  720MOL0     C99269   6.792   8.657   2.729  0.3560  0.5579  0.5394
  720MOL0     O99270   6.534   8.443   2.965 -0.1721 -0.4015 -0.4225
  720MOL0     C99271   6.268   8.491   2.916  0.4536 -0.4548  0.0710
  720MOL0     C99272   6.131   8.492   2.888 -1.1218  0.0675  0.9294
  720MOL0     N99273   5.517   8.392   2.341  0.4130 -0.8168 -0.1922
  720MOL0     N99274   5.499   8.437   2.219 -0.0665 -0.1789 -0.5179
  720MOL0     C99275   6.163   9.503   2.195 -0.0475  1.2949  0.1969
  720MOL0     C99276   6.192   9.634   2.162 -0.5979  0.2270  0.2833
  720MOL0     C99277   6.103  10.065   2.075  0.9454 -0.3645  0.6149
  720MOL0     C99278   6.099  10.080   1.942  0.0882 -0.0913  0.6508
  720MOL0     C99279   6.089  10.207   1.875 -0.3673 -1.5547  0.0547
  720MOL0     C99280   6.061  10.319   1.955  0.5813 -0.2747  0.5136
  720MOL0     O99281   6.029  10.445   1.903 -0.4011 -0.0778  0.5874
  720MOL0     C99282   6.076  10.469   1.768  0.3181  0.0722 -0.4141
  720MOL0     C99283   6.119  10.615   1.757  0.3319  0.9506  0.6880
  720MOL0     C99284   6.192  10.637   1.618 -0.5660  0.4274  0.6392
  720MOL0     C99285   6.236  10.790   1.603 -0.9534  0.2388  0.1945
  720MOL0     C99286   6.357  10.832   1.682  0.6794  0.6754 -0.6290
  720MOL0     C99287   6.453  10.872   1.744 -0.0052  0.3079  0.3187
  720MOL0     C99288   6.066  10.303   2.101  0.6051 -0.4136  1.0911
  720MOL0     C99289   6.094  10.182   2.156  0.2461 -0.5187  0.4429
  720MOL0     C99290   6.118  10.183   2.309  0.5472  0.4035  0.3462
  720MOL0     H99291   6.021   9.676   1.886 -0.2873  1.7711  0.5004
  720MOL0     H99292   5.967   9.432   1.934  3.2239 -1.2659 -1.9968
  720MOL0     H99293   5.993   9.210   1.953  0.2206 -0.4055  1.0754
  720MOL0     H99294   5.863   9.282   2.051 -1.1573 -0.2505  0.7394
  720MOL0     H99295   6.013   9.023   2.152  0.3166 -1.5397 -0.4886
  720MOL0     H99296   5.877   9.106   2.227 -1.0160  2.9185 -0.9757
  720MOL0     H99297   5.747   9.099   2.023 -0.1309  0.0949  0.0251
  720MOL0     H99298   5.869   8.988   1.939  0.8419 -0.4259 -0.4109
  720MOL0     H99299   5.853   8.825   2.109 -1.8285 -2.0290  1.6910
  720MOL0     H99300   5.728   8.916   2.205 -0.9573  1.1103 -0.3799
  720MOL0     H99301   5.687   8.822   1.929  3.0858 -1.6373  1.0118
  720MOL0     H99302   5.562   8.894   2.035 -0.7991 -0.4547  1.5136
  720MOL0     H99303   5.619   8.697   2.192  1.6192 -1.0979  0.1539
  720MOL0     H99304   5.514   8.669   2.060  0.9115 -0.1833 -0.5308
  720MOL0     H99305   5.798   8.562   2.117  2.7587  1.0071 -2.3709
  720MOL0     H99306   5.757   8.609   1.952  0.1115 -3.7356 -0.3174
  720MOL0     H99307   5.567   8.470   1.961  1.2436  1.2370 -1.7434
  720MOL0     H99308   5.724   8.382   1.985  2.8721  2.3942  2.7539
  720MOL0     H99309   5.753   8.244   2.187  3.3381  1.9411  4.1168
  720MOL0     H99310   5.727   8.151   2.449 -2.1018 -0.1665 -3.2744
  720MOL0     H99311   5.567   8.194   2.509  0.4413  1.4416  1.9716
  720MOL0     H99312   5.839   8.346   2.494  0.0635  0.6969  0.2024
  720MOL0     H99313   5.691   8.435   2.543  0.2550 -0.3176 -1.3344
  720MOL0     H99314   5.714   8.353   2.778 -1.5565 -3.6193  1.2490
  720MOL0     H99315   5.756   8.197   2.707  1.8046 -0.4963 -1.0366
  720MOL0     H99316   5.937   8.283   2.834  0.6096 -3.4961 -1.0840
  720MOL0     H99317   5.990   8.270   2.670  0.9908  4.8999 -3.1062
  720MOL0     H99318   6.146   8.417   2.561  0.3540  0.3610  0.3167
  720MOL0     H99319   6.466   8.470   2.549 -0.9879  0.4182 -2.0686
  720MOL0     H99320   6.342   8.359   2.489  0.4127 -0.2724 -0.6603
  720MOL0     H99321   6.461   8.299   2.601  1.4551  1.7163 -2.1393
  720MOL0     H99322   6.650   8.637   3.032 -0.5947  0.6906  0.1663
  720MOL0     H99323   6.874   8.708   3.096 -2.1254  0.7995  1.2089
  720MOL0     H99324   7.003   8.897   3.087 -0.6671  1.1341 -0.4116
  720MOL0     H99325   7.129   8.766   3.119  0.0346  0.3102 -0.2611
  720MOL0     H99326   7.287   8.920   3.003  0.7293  1.3089 -0.2138
  720MOL0     H99327   7.159   9.035   3.014  0.3576 -0.2981  0.0156
  720MOL0     H99328   7.257   8.883   3.263 -1.2963  0.8340  2.9050
  720MOL0     H99329   7.152   9.032   3.254 -0.5068 -0.0642 -1.0095
  720MOL0     H99330   7.335   9.128   3.321  2.0166  0.3324  0.0211
  720MOL0     H99331   7.364   9.150   3.151  1.5014  0.5975  1.0024
  720MOL0     H99332   7.491   8.913   3.291 -0.0393  0.0844 -0.4471
  720MOL0     H99333   7.495   8.969   3.117 -4.5729 -0.4674 -0.9611
  720MOL0     H99334   7.621   9.167   3.181  1.3353 -1.5111 -1.9861
  720MOL0     H99335   7.700   9.024   3.240  0.1566  2.3668  0.1756
  720MOL0     H99336   7.543   9.205   3.419  0.5812 -0.9678  0.0632
  720MOL0     H99337   7.705   9.167   3.414  1.3993 -3.2473  0.1077
  720MOL0     H99338   7.479   9.004   3.506 -0.5858  0.4723  2.5912
  720MOL0     H99339   7.616   9.081   3.593  1.7500 -0.9485 -0.6865
  720MOL0     H99340   6.998   8.731   2.687  0.0647 -1.9407 -2.1157
  720MOL0     H99341   6.781   8.636   2.623  3.2784 -1.4098  0.5128
  720MOL0     H99342   6.290   8.514   3.019 -3.2543 -1.5788  1.2771
  720MOL0     H99343   6.053   8.504   2.963 -0.7837 -1.6094  1.5882
  720MOL0     H99344   6.216   9.448   2.273 -0.0886  0.6255 -0.2380
  720MOL0     H99345   6.262   9.690   2.223 -0.9911  0.2159  0.7533
  720MOL0     H99346   6.114  10.003   1.867 -0.6946  1.5505 -1.2896
  720MOL0     H99347   6.084  10.224   1.768  0.8913  3.2322  0.5405
  720MOL0     H99348   6.165  10.409   1.748  0.9144  0.2345  1.4785
  720MOL0     H99349   5.992  10.438   1.705  0.9887 -1.2222 -0.7064
  720MOL0     H99350   6.175  10.650   1.844 -1.3987  0.2955  2.1061
  720MOL0     H99351   6.019  10.659   1.751 -1.0440 -2.0544  0.0419
  720MOL0     H99352   6.277  10.568   1.609 -0.1457  1.1721 -2.7250
  720MOL0     H99353   6.131  10.601   1.534  2.8765 -1.5184 -1.2517
  720MOL0     H99354   6.152  10.850   1.639 -3.1242 -2.2146 -0.4913
  720MOL0     H99355   6.246  10.825   1.499 -4.4910 -0.7129 -0.6268
  720MOL0     H99356   6.543  10.888   1.800  1.7311 -3.2256 -1.1423
  720MOL0     H99357   6.054  10.400   2.149  1.3684 -0.5389  1.5465
  720MOL0     H99358   6.027  10.148   2.358  0.5519  1.0599  0.8432
  720MOL0     H99359   6.206  10.123   2.337  2.3678 -0.1119 -5.2652
  720MOL0     H99360   6.125  10.286   2.345 -0.9753  0.2848  1.0263
  721MOL0     O99361   7.515   3.882   4.814  0.4413  0.3367 -0.4785
  721MOL0     C99362   7.559   3.859   4.695 -0.8762  0.5409  0.4271
  721MOL0     O99363   7.525   3.753   4.617  0.6901 -0.1023  0.6428
  721MOL0     C99364   7.395   3.715   4.613  0.1722  0.7552 -0.7270
  721MOL0     C99365   7.289   3.794   4.670 -0.5585 -0.6488  0.3855
  721MOL0     C99366   7.153   3.765   4.634 -0.4170  0.0213 -0.2358
  721MOL0     C99367   7.114   3.659   4.554  0.6960 -0.2868 -0.0283
  721MOL0     O99368   6.976   3.644   4.520 -0.2410 -0.4380 -0.1653
  721MOL0     C99369   6.951   3.629   4.378  0.2088  0.5042  0.3898
  721MOL0     C99370   6.805   3.643   4.348 -0.7582  0.1462 -0.4214
  721MOL0     C99371   6.784   3.639   4.203  0.2753  0.3109 -0.6848
  721MOL0     C99372   6.668   3.734   4.157  0.6664  0.5305 -0.3229
  721MOL0     C99373   6.656   3.713   4.003 -0.5392  0.1725 -0.2791
  721MOL0     C99374   6.552   3.804   3.939  0.3818  0.4798 -0.4331
  721MOL0     C99375   6.551   3.821   3.784  0.2046 -0.4937  0.2300
  721MOL0     C99376   6.477   3.712   3.712 -0.0502  0.5489  0.1543
  721MOL0     N99377   6.444   3.736   3.565  0.6263  0.8228  0.2471
  721MOL0     C99378   6.480   3.842   3.497  0.3084 -0.0417  0.4688
  721MOL0     C99379   6.384   3.842   3.399 -0.4902  0.1121 -0.8950
  721MOL0     C99380   6.379   3.929   3.284  0.6606  0.7284  0.0131
  721MOL0     C99381   6.343   4.066   3.326 -0.5813  0.1337  0.2872
  721MOL0     C99382   6.459   4.146   3.376  0.7479 -0.4386  0.3891
  721MOL0     C99383   6.424   4.298   3.381  0.0689  0.4863 -0.1814
  721MOL0     O99384   6.543   4.367   3.416  0.0486 -0.0400  0.0060
  721MOL0     C99385   6.643   4.394   3.320  0.7041  0.9018  1.3509
  721MOL0     C99386   6.642   4.355   3.184  0.6224  0.0465  0.8290
  721MOL0     C99387   6.744   4.363   3.094  0.0408 -0.5741 -0.7008
  721MOL0     C99388   6.740   4.287   2.961  0.2008  0.2470 -0.5245
  721MOL0     C99389   6.860   4.446   3.130  0.1981  0.3627 -0.2762
  721MOL0     C99390   6.983   4.471   3.046  0.0135  0.3916 -0.5531
  721MOL0     O99391   7.078   4.549   3.107 -0.3566  0.2591  0.7075
  721MOL0     C99392   7.194   4.568   3.035  0.0273 -0.3184 -0.5024
  721MOL0     C99393   7.302   4.480   3.052  0.3534  0.1419 -0.7174
  721MOL0     C99394   7.430   4.504   3.012 -1.0152  0.6043  0.7369
  721MOL0     C99395   7.459   4.629   2.944  0.2076  0.0639 -0.1625
  721MOL0     O99396   7.572   4.645   2.868 -0.3084 -0.0999 -0.0067
  721MOL0     C99397   7.703   4.630   2.931 -0.1119 -0.7368 -0.1002
  721MOL0     C99398   7.769   4.517   2.856  0.7571  0.2826  1.0827
  721MOL0     C99399   7.919   4.513   2.856 -0.9001 -0.0396 -0.3706
  721MOL0     C99400   7.978   4.388   2.794  0.3167 -0.5759  0.5068
  721MOL0     C99401   8.134   4.393   2.796  0.3715 -0.9482 -0.6562
  721MOL0     C99402   8.201   4.282   2.714  0.4537  0.5231  0.4927
  721MOL0     C99403   8.353   4.277   2.731  0.3616 -0.6471  0.3895
  721MOL0     C99404   8.413   4.175   2.637  0.3229  0.1277 -0.7512
  721MOL0    Cl99405   8.576   4.148   2.697 -0.0752 -0.1276  0.0827
  721MOL0     C99406   7.358   4.717   2.919  0.1040  0.5458  1.3542
  721MOL0     C99407   7.225   4.687   2.969  0.5713  0.0054 -0.6326
  721MOL0     O99408   6.997   4.403   2.945  0.1884 -0.0458 -0.1894
  721MOL0     C99409   6.846   4.502   3.259  0.0617 -0.4103 -0.2724
  721MOL0     C99410   6.750   4.472   3.357  0.4075 -0.4290  0.7165
  721MOL0     N99411   6.304   3.728   3.408  0.0362 -0.5242 -0.4715
  721MOL0     N99412   6.354   3.657   3.506 -0.1672 -0.5485 -0.2871
  721MOL0     C99413   7.216   3.575   4.503  0.5838  0.4536  0.7707
  721MOL0     C99414   7.352   3.601   4.533  0.7064  0.7439 -0.1739
  721MOL0     C99415   7.658   3.956   4.633  0.7850  0.5089 -0.1854
  721MOL0     C99416   7.682   3.940   4.497  0.0846 -0.6341 -0.4697
  721MOL0     C99417   7.754   4.039   4.425 -0.3322 -0.5541 -0.0795
  721MOL0     C99418   7.825   4.139   4.489  0.4658  0.5274  1.1891
  721MOL0     O99419   7.911   4.221   4.420  0.9054 -0.0036 -0.4446
  721MOL0     C99420   7.858   4.275   4.298 -0.6863  0.0523  0.4681
  721MOL0     C99421   7.774   4.406   4.319  0.6000  0.3564  0.3498
  721MOL0     C99422   7.864   4.513   4.374 -0.3424  0.0784 -0.3692
  721MOL0     C99423   7.870   4.511   4.537  0.4501 -0.7181  0.9805
  721MOL0     C99424   7.958   4.624   4.587  0.0534 -0.2307  0.3501
  721MOL0     C99425   8.038   4.715   4.618 -0.0212 -0.4477  0.4912
  721MOL0     C99426   7.808   4.148   4.629 -1.1824  0.8132  0.1738
  721MOL0     C99427   7.739   4.051   4.699 -0.6869  0.6876  0.1818
  721MOL0     C99428   7.731   4.065   4.848  0.7237  0.4716 -0.0566
  721MOL0     H99429   7.294   3.874   4.743 -2.6125 -0.7383  0.6948
  721MOL0     H99430   7.075   3.821   4.685  1.5100 -0.2894  3.4262
  721MOL0     H99431   6.971   3.526   4.349 -1.6002 -0.2092  1.4944
  721MOL0     H99432   7.008   3.694   4.311  0.5338 -1.3327 -1.1749
  721MOL0     H99433   6.760   3.555   4.395  0.7294 -1.7492 -2.3731
  721MOL0     H99434   6.769   3.738   4.390  2.3561  0.3996  1.9955
  721MOL0     H99435   6.878   3.670   4.157  0.5374 -0.5066 -0.7073
  721MOL0     H99436   6.760   3.534   4.185  1.5519 -0.5199  1.9532
  721MOL0     H99437   6.572   3.715   4.205 -0.5674 -2.3005 -3.5244
  721MOL0     H99438   6.692   3.840   4.168  0.2872  0.5356  0.4944
  721MOL0     H99439   6.641   3.607   3.980 -0.3082  0.4173 -1.6347
  721MOL0     H99440   6.754   3.739   3.961 -1.3360  3.3931 -0.3976
  721MOL0     H99441   6.460   3.772   3.989  0.2776  1.1572 -0.1833
  721MOL0     H99442   6.555   3.908   3.971 -1.1912 -0.0578  1.6766
  721MOL0     H99443   6.655   3.820   3.748  0.5263 -0.0670  1.1200
  721MOL0     H99444   6.496   3.910   3.756  0.5614 -0.5964 -0.8462
  721MOL0     H99445   6.534   3.620   3.724 -0.5990  0.3707  1.7019
  721MOL0     H99446   6.384   3.681   3.761 -0.8933  1.7918 -0.5996
  721MOL0     H99447   6.563   3.908   3.517 -1.2824  1.6791  1.7919
  721MOL0     H99448   6.305   3.897   3.210 -0.5291  0.2290  1.3645
  721MOL0     H99449   6.477   3.915   3.238  0.3554 -3.7303  0.2323
  721MOL0     H99450   6.304   4.109   3.233  0.8583 -0.6750 -0.7408
  721MOL0     H99451   6.261   4.061   3.397 -1.1135 -1.9826 -0.3947
  721MOL0     H99452   6.494   4.123   3.477 -1.6182 -1.5943  1.0231
  721MOL0     H99453   6.545   4.138   3.310  2.4573  2.3799  2.0691
  721MOL0     H99454   6.382   4.335   3.287 -0.9734 -0.2196 -0.0063
  721MOL0     H99455   6.342   4.313   3.452 -0.5628  2.8218 -1.2932
  721MOL0     H99456   6.562   4.286   3.158 -0.1864  0.2413  2.6717
  721MOL0     H99457   6.765   4.348   2.873 -0.1845 -1.7247 -2.0821
  721MOL0     H99458   6.638   4.251   2.945  1.0770 -2.1506 -1.1222
  721MOL0     H99459   6.807   4.201   2.960  0.5250  0.4948 -0.1551
  721MOL0     H99460   7.277   4.379   3.085 -0.7848 -0.6710 -3.7675
  721MOL0     H99461   7.509   4.431   3.021 -2.4071 -0.7868  2.3049
  721MOL0     H99462   7.743   4.726   2.898 -3.5516 -0.0787 -3.0601
  721MOL0     H99463   7.702   4.630   3.040  0.3998  1.1091 -0.0670
  721MOL0     H99464   7.739   4.417   2.890 -0.5346  0.9393  1.9497
  721MOL0     H99465   7.741   4.528   2.750  0.6140  1.4203  1.2325
  721MOL0     H99466   7.964   4.536   2.954 -1.4882 -0.7495  0.0734
  721MOL0     H99467   7.948   4.596   2.790  1.0822  0.3556  0.8966
  721MOL0     H99468   7.945   4.388   2.690  3.7350 -3.0875 -0.7274
  721MOL0     H99469   7.941   4.298   2.844  0.5483 -0.9417  0.0226
  721MOL0     H99470   8.167   4.492   2.763 -1.2446 -0.1066  0.1576
  721MOL0     H99471   8.160   4.389   2.902 -0.6922  0.2229 -0.3326
  721MOL0     H99472   8.177   4.301   2.609 -1.2668  2.3470  1.1604
  721MOL0     H99473   8.156   4.187   2.744 -2.0939  0.8137 -1.9986
  721MOL0     H99474   8.372   4.249   2.835  1.5390  0.9324  0.6362
  721MOL0     H99475   8.409   4.370   2.721  2.8603 -2.2194 -1.3786
  721MOL0     H99476   8.414   4.196   2.529  0.4626  0.6356 -0.6537
  721MOL0     H99477   8.374   4.076   2.659 -0.2994  0.1561 -1.6572
  721MOL0     H99478   7.379   4.797   2.848  1.1449  0.8334  1.9598
  721MOL0     H99479   7.139   4.753   2.957  0.6832  0.3734  0.5098
  721MOL0     H99480   6.923   4.572   3.290 -1.2340  0.2984  1.5758
  721MOL0     H99481   6.754   4.511   3.459 -2.1926 -1.1692  1.1786
  721MOL0     H99482   7.194   3.494   4.434  3.9269 -1.8599  2.1686
  721MOL0     H99483   7.432   3.545   4.484 -0.1770  0.7955 -1.7590
  721MOL0     H99484   7.636   3.864   4.435  0.5977 -4.1437  3.0308
  721MOL0     H99485   7.763   4.019   4.319  0.1165  0.0158 -0.1551
  721MOL0     H99486   7.955   4.299   4.252 -0.3417  0.4494  1.3759
  721MOL0     H99487   7.809   4.210   4.226  0.9544 -0.9817  0.2340
  721MOL0     H99488   7.693   4.388   4.390  0.7159  0.5906  0.5459
  721MOL0     H99489   7.722   4.435   4.227  3.1741 -1.1625 -1.7273
  721MOL0     H99490   7.965   4.496   4.336 -0.0535 -1.3358  0.8959
  721MOL0     H99491   7.823   4.612   4.352 -0.3503  1.3006  4.1004
  721MOL0     H99492   7.920   4.416   4.554  0.9808 -0.6977 -0.3615
  721MOL0     H99493   7.768   4.511   4.577 -0.6968 -3.7581 -1.5079
  721MOL0     H99494   8.089   4.803   4.649 -0.4033 -0.1735  0.3545
  721MOL0     H99495   7.855   4.229   4.685  1.5541 -0.2141 -0.4343
  721MOL0     H99496   7.733   3.966   4.893  0.4588  1.3406  1.9412
  721MOL0     H99497   7.824   4.115   4.878  1.8033 -0.6841 -1.3483
  721MOL0     H99498   7.643   4.123   4.877  0.4061 -0.2124  0.3601
  722MOL0     O99499   1.346   7.329   0.096 -0.1945 -0.0091 -0.1426
  722MOL0     C99500   1.327   7.237   0.006  1.1303  0.1740 -0.3071
  722MOL0     O99501   1.214   7.159   0.010 -0.5875 -0.1860 -0.5766
  722MOL0     C99502   1.115   7.184   0.103 -0.1989 -0.3310  0.4897
  722MOL0     C99503   1.087   7.098   0.207 -0.3610  0.4275 -0.2156
  722MOL0     C99504   0.985   7.128   0.291  0.2489  0.0463 -0.3363
  722MOL0     C99505   0.910   7.252   0.284 -0.4870  0.8335  0.6453
  722MOL0     O99506   0.812   7.284   0.373 -0.2638 -0.3094 -0.1155
  722MOL0     C99507   0.869   7.344   0.489 -0.8401 -0.7050 -0.7244
  722MOL0     C99508   0.876   7.488   0.489 -0.1934 -0.8294 -0.0500
  722MOL0     C99509   0.737   7.547   0.465  0.1555  0.7267  0.3159
  722MOL0     C99510   0.738   7.694   0.448 -0.5330 -0.8045  0.2464
  722MOL0     C99511   0.601   7.746   0.388  0.1400  0.0539  0.9981
  722MOL0     C99512   0.613   7.876   0.292 -0.1454 -0.1727  0.0217
  722MOL0     C99513   0.683   7.986   0.364  0.0612 -0.9993  0.1507
  722MOL0     C99514   0.687   8.103   0.267  0.4407  0.3153  0.5019
  722MOL0     N99515   0.756   8.218   0.319  0.2760 -0.0611 -0.5945
  722MOL0     C99516   0.890   8.247   0.293 -0.1748 -0.7157  0.4774
  722MOL0     C99517   0.912   8.375   0.332  0.8245  0.8195 -0.2998
  722MOL0     C99518   1.042   8.444   0.298  0.6913 -0.2827 -0.6082
  722MOL0     C99519   1.080   8.549   0.401 -0.0224 -0.1973 -1.1513
  722MOL0     C99520   1.153   8.673   0.351 -0.1682 -0.3616 -0.4763
  722MOL0     C99521   1.272   8.642   0.276 -0.3222 -0.4499 -0.1456
  722MOL0     O99522   1.238   8.592   0.147 -0.6012  0.2026 -0.4871
  722MOL0     C99523   1.347   8.565   0.069 -0.7552  0.0491  0.3815
  722MOL0     C99524   1.482   8.538   0.118  0.5371  0.0243  0.0282
  722MOL0     C99525   1.591   8.528   0.036  0.6324  0.7382 -0.4647
  722MOL0     C99526   1.725   8.508   0.098 -0.4124  0.6928 -1.3519
  722MOL0     C99527   1.569   8.519  -0.106 -0.1718 -0.7805 -0.6059
  722MOL0     C99528   1.673   8.504  -0.208 -0.2336 -0.4237 -0.9377
  722MOL0     O99529   1.795   8.471  -0.165  0.0193 -0.0341  0.3042
  722MOL0     C99530   1.883   8.418  -0.257  0.1155  0.6834  0.6956
  722MOL0     C99531   1.843   8.309  -0.345  0.5327 -0.5359  1.2626
  722MOL0     C99532   1.934   8.262  -0.447 -0.5306 -0.5146 -0.1331
  722MOL0     C99533   2.062   8.321  -0.459  1.2734 -0.2926 -0.0823
  722MOL0     O99534   2.143   8.288  -0.560  0.1103 -0.9026 -0.0046
  722MOL0     C99535   2.084   8.274  -0.695 -0.7953  0.1382 -0.9254
  722MOL0     C99536   2.194   8.239  -0.790 -0.3354  0.9641  0.2675
  722MOL0     C99537   2.125   8.200  -0.921 -0.0892 -0.2527  0.7968
  722MOL0     C99538   2.053   8.319  -0.997 -0.1179  0.6086  0.5311
  722MOL0     C99539   2.012   8.276  -1.140 -0.9303  0.3655  0.3412
  722MOL0     C99540   1.856   8.255  -1.142  0.4108 -0.0940 -0.4408
  722MOL0     C99541   1.809   8.188  -1.267 -0.1419  0.7411 -0.0562
  722MOL0     C99542   1.658   8.151  -1.246 -0.4318  0.1108 -0.0539
  722MOL0    Cl99543   1.625   8.046  -1.117  0.0536  0.3281  0.5247
  722MOL0     C99544   2.104   8.419  -0.366 -0.4649  0.4463 -0.0964
  722MOL0     C99545   2.017   8.472  -0.272  0.5670  0.0103 -0.0317
  722MOL0     O99546   1.644   8.532  -0.327 -1.1693  0.3121  0.1191
  722MOL0     C99547   1.440   8.541  -0.155 -0.0441 -0.0434  0.9289
  722MOL0     C99548   1.332   8.558  -0.065  0.1057 -0.7557  0.6779
  722MOL0     N99549   0.794   8.421   0.393  0.2767  0.1609  0.0594
  722MOL0     N99550   0.709   8.328   0.384 -0.0288  0.1796  0.0991
  722MOL0     C99551   0.947   7.337   0.177  0.0438 -0.4001 -0.8863
  722MOL0     C99552   1.050   7.305   0.093  0.6547 -0.2649 -0.0248
  722MOL0     C99553   1.419   7.198  -0.104  0.4778  1.1077 -0.1630
  722MOL0     C99554   1.364   7.108  -0.198  0.1311 -0.0365 -0.0536
  722MOL0     C99555   1.429   7.078  -0.313 -0.4083  0.9726  0.1005
  722MOL0     C99556   1.566   7.123  -0.330 -1.1194 -0.9385 -0.0999
  722MOL0     O99557   1.649   7.088  -0.430  0.0748  0.3083 -0.9735
  722MOL0     C99558   1.613   6.991  -0.525  0.0054 -0.2572  0.4104
  722MOL0     C99559   1.742   6.912  -0.571  0.6302 -0.9861  0.4136
  722MOL0     C99560   1.851   6.879  -0.471  0.8769 -0.3666 -0.8487
  722MOL0     C99561   1.951   6.794  -0.536 -0.7672  1.4141 -0.2677
  722MOL0     C99562   2.073   6.772  -0.451 -0.4792  0.3391 -0.1762
  722MOL0     C99563   2.179   6.764  -0.394  0.2116 -0.0851 -0.7007
  722MOL0     C99564   1.623   7.215  -0.236  0.2074 -0.4190 -0.2964
  722MOL0     C99565   1.554   7.249  -0.122 -0.1008  0.2404  0.3454
  722MOL0     C99566   1.621   7.330  -0.013  0.9085  0.6268  0.6127
  722MOL0     H99567   1.142   7.006   0.222 -0.6184  0.2490 -0.3545
  722MOL0     H99568   0.963   7.057   0.370 -1.0092  0.8672  0.0787
  722MOL0     H99569   0.967   7.299   0.509 -0.7997 -0.9407 -1.4332
  722MOL0     H99570   0.804   7.317   0.572  1.3049  1.8566  2.0196
  722MOL0     H99571   0.904   7.522   0.590  3.5669 -0.5571 -1.0064
  722MOL0     H99572   0.945   7.540   0.422  1.2375  0.4374  2.2510
  722MOL0     H99573   0.688   7.495   0.381  0.4862  2.3927 -0.9682
  722MOL0     H99574   0.668   7.527   0.548 -0.1039  0.9521  0.1593
  722MOL0     H99575   0.773   7.739   0.541  1.8854 -3.7259  0.8998
  722MOL0     H99576   0.808   7.732   0.374 -2.4172  0.0118 -1.2103
  722MOL0     H99577   0.540   7.777   0.474 -1.1048  0.1617  0.0963
  722MOL0     H99578   0.550   7.673   0.325  1.1423  0.0194  0.2107
  722MOL0     H99579   0.682   7.848   0.212  0.0843  0.5722 -0.0576
  722MOL0     H99580   0.511   7.901   0.261 -1.2085 -1.1045  2.5622
  722MOL0     H99581   0.782   7.955   0.401 -0.4374  0.2224  2.7878
  722MOL0     H99582   0.632   8.020   0.455  1.5053  3.5533 -0.4843
  722MOL0     H99583   0.742   8.073   0.177  0.8105  0.9847  0.4991
  722MOL0     H99584   0.583   8.133   0.248  0.6759  0.5065 -0.5964
  722MOL0     H99585   0.967   8.187   0.246 -2.3451 -2.0470 -1.6141
  722MOL0     H99586   1.021   8.497   0.205 -0.0864 -0.2285 -0.4140
  722MOL0     H99587   1.120   8.374   0.268  0.4879  0.1371 -2.2159
  722MOL0     H99588   0.992   8.586   0.454  1.3997 -0.4050  1.5540
  722MOL0     H99589   1.156   8.506   0.468  0.3131  1.0149 -0.7362
  722MOL0     H99590   1.094   8.747   0.295  0.6012  1.5556  1.1146
  722MOL0     H99591   1.184   8.734   0.436 -0.0399  2.0605 -2.1461
  722MOL0     H99592   1.327   8.735   0.258 -0.5803 -0.8063 -3.4035
  722MOL0     H99593   1.325   8.573   0.342 -0.2173 -1.4250 -1.2081
  722MOL0     H99594   1.513   8.529   0.221 -2.4322  1.1156  1.1059
  722MOL0     H99595   1.776   8.412   0.083  2.4424  1.8518  0.1281
  722MOL0     H99596   1.724   8.514   0.208  0.1835  1.4563 -1.3803
  722MOL0     H99597   1.793   8.582   0.056  2.9218 -1.9545 -1.0031
  722MOL0     H99598   1.743   8.274  -0.318 -0.1798  1.7530  1.8296
  722MOL0     H99599   1.913   8.169  -0.500 -0.8592 -1.1206  1.0111
  722MOL0     H99600   2.012   8.191  -0.695 -0.1184 -0.4543 -0.9133
  722MOL0     H99601   2.053   8.375  -0.721  2.7384  1.8140  0.7494
  722MOL0     H99602   2.270   8.314  -0.815  3.1704 -2.0736  0.9224
  722MOL0     H99603   2.239   8.147  -0.753  0.5763  1.6497  0.9132
  722MOL0     H99604   2.042   8.131  -0.908 -0.5922  0.1387 -0.2310
  722MOL0     H99605   2.201   8.156  -0.987 -1.6631  1.2321 -2.2175
  722MOL0     H99606   2.131   8.393  -1.019  2.0436 -1.7131 -0.1977
  722MOL0     H99607   1.972   8.352  -0.933 -0.2475  0.6256  0.3572
  722MOL0     H99608   2.030   8.349  -1.219  1.8786  0.9348  1.3745
  722MOL0     H99609   2.060   8.182  -1.167 -2.5357  0.0390 -1.5650
  722MOL0     H99610   1.807   8.352  -1.127 -0.9139 -0.5569 -1.5300
  722MOL0     H99611   1.825   8.194  -1.057 -0.5074  1.5013  0.4029
  722MOL0     H99612   1.866   8.095  -1.279 -0.6402  0.6215 -1.7471
  722MOL0     H99613   1.826   8.249  -1.356  1.3641 -1.5432 -1.4242
  722MOL0     H99614   1.606   8.108  -1.332  1.0434  1.0230 -1.4483
  722MOL0     H99615   1.596   8.241  -1.242 -2.2726 -1.1169  0.4019
  722MOL0     H99616   2.203   8.457  -0.390 -0.5060  0.3982 -0.3446
  722MOL0     H99617   2.062   8.534  -0.195  4.4917  0.5293 -2.4338
  722MOL0     H99618   1.419   8.533  -0.261  0.5456  1.6066  0.6609
  722MOL0     H99619   1.235   8.568  -0.112  0.6947 -1.9914 -0.8949
  722MOL0     H99620   0.888   7.427   0.160 -0.9396 -0.3644  2.0844
  722MOL0     H99621   1.083   7.382   0.024  1.9214 -0.3352  0.4674
  722MOL0     H99622   1.269   7.057  -0.186 -0.0842  0.7355  1.9344
  722MOL0     H99623   1.388   7.005  -0.382 -0.8793 -0.9052  2.2601
  722MOL0     H99624   1.540   6.921  -0.483  0.9046 -1.5574 -0.1279
  722MOL0     H99625   1.565   7.035  -0.613  1.3647 -1.3129 -0.9206
  722MOL0     H99626   1.785   6.988  -0.637 -0.5374  1.4248  2.2483
  722MOL0     H99627   1.717   6.821  -0.626  0.1449 -1.2806  1.1055
  722MOL0     H99628   1.892   6.969  -0.425 -1.7269 -0.6229  2.3418
  722MOL0     H99629   1.791   6.843  -0.388 -2.8309  1.4600 -2.4886
  722MOL0     H99630   1.981   6.854  -0.622  2.7405  1.4242  0.8310
  722MOL0     H99631   1.899   6.703  -0.565 -1.8017  2.0800 -0.5774
  722MOL0     H99632   2.253   6.758  -0.317 -1.9117 -0.5094  1.4152
  722MOL0     H99633   1.727   7.248  -0.239  0.0609 -0.0264 -2.1049
  722MOL0     H99634   1.599   7.438  -0.011 -2.4662  0.0732  3.4145
  722MOL0     H99635   1.595   7.288   0.085 -2.6599 -1.9368 -1.2154
  722MOL0     H99636   1.729   7.313  -0.019  1.4640  3.7071 -0.3600
  723MOL0     O99637   4.640   3.457   1.200  0.2940 -0.1237 -0.1288
  723MOL0     C99638   4.525   3.460   1.232  0.8754  0.4473 -0.5788
  723MOL0     O99639   4.459   3.350   1.289 -0.2929  0.0439 -0.1630
  723MOL0     C99640   4.534   3.235   1.315 -0.2536 -0.3781 -0.2771
  723MOL0     C99641   4.547   3.211   1.451 -0.3787  0.3982 -0.0157
  723MOL0     C99642   4.633   3.098   1.483  0.0827  0.9454  0.4475
  723MOL0     C99643   4.688   3.013   1.386  0.0111 -0.4179 -0.4336
  723MOL0     O99644   4.745   2.897   1.424 -0.2107  0.6413  0.1167
  723MOL0     C99645   4.666   2.783   1.384  0.3189  0.1869 -0.6453
  723MOL0     C99646   4.692   2.656   1.463  0.4241 -0.0650 -1.2901
  723MOL0     C99647   4.680   2.672   1.617  0.2402 -0.2951 -0.0604
  723MOL0     C99648   4.817   2.702   1.672  0.5437  0.8309  0.6667
  723MOL0     C99649   4.828   2.718   1.819  0.0680 -0.3138  0.1830
  723MOL0     C99650   4.717   2.823   1.879 -0.2317  0.1483  0.0279
  723MOL0     C99651   4.733   2.820   2.035 -0.8453  0.5585  1.0400
  723MOL0     C99652   4.620   2.892   2.102 -0.5821  0.4277  0.6931
  723MOL0     N99653   4.679   3.028   2.140  0.8665 -0.4051  0.8614
  723MOL0     C99654   4.663   3.080   2.265  0.5378  0.3142  0.2285
  723MOL0     C99655   4.675   3.216   2.251 -0.4147  0.8173 -0.0243
  723MOL0     C99656   4.636   3.313   2.358  0.5111 -0.4649 -0.5260
  723MOL0     C99657   4.723   3.442   2.344  0.4133  0.0571 -0.5008
  723MOL0     C99658   4.735   3.501   2.491  0.1910  0.0467  0.2422
  723MOL0     C99659   4.815   3.434   2.604  0.1999 -0.9989  0.5534
  723MOL0     O99660   4.874   3.308   2.569 -0.1398  0.0800  0.0649
  723MOL0     C99661   5.002   3.305   2.504 -0.8148 -0.3703  0.2581
  723MOL0     C99662   5.109   3.387   2.529  0.1728 -0.1648 -0.0274
  723MOL0     C99663   5.232   3.378   2.464  0.8315 -0.4682 -0.9772
  723MOL0     C99664   5.337   3.479   2.509 -0.8028  0.3903  0.5341
  723MOL0     C99665   5.257   3.264   2.388 -0.1132 -0.5365  0.4778
  723MOL0     C99666   5.387   3.234   2.324  0.3134 -0.0015 -0.4137
  723MOL0     O99667   5.391   3.133   2.232 -0.4962  0.0377 -0.4474
  723MOL0     C99668   5.513   3.110   2.171 -0.2899  0.0995  0.8955
  723MOL0     C99669   5.601   3.013   2.220 -0.4470  0.2846 -0.0329
  723MOL0     C99670   5.726   3.004   2.157  1.0765 -0.0414 -0.5534
  723MOL0     C99671   5.763   3.081   2.050  0.2357 -0.1664 -0.2941
  723MOL0     O99672   5.879   3.056   1.992  0.1193 -0.4094 -0.6044
  723MOL0     C99673   5.875   3.002   1.860 -0.3171 -0.3438 -0.4565
  723MOL0     C99674   6.005   2.932   1.829  0.4779  0.4073  0.2785
  723MOL0     C99675   6.029   2.809   1.906 -0.5018 -0.8382 -0.1623
  723MOL0     C99676   6.165   2.740   1.848 -0.2629  0.0260  0.2778
  723MOL0     C99677   6.133   2.628   1.746  0.2533  1.5716 -0.3589
  723MOL0     C99678   6.065   2.509   1.820 -0.7725 -0.6385  0.4623
  723MOL0     C99679   6.022   2.410   1.719 -0.2066  0.4424 -0.5864
  723MOL0     C99680   6.009   2.275   1.791  0.3732  0.0056 -0.5397
  723MOL0    Cl99681   5.877   2.273   1.915 -0.3094 -0.2170  0.2638
  723MOL0     C99682   5.673   3.180   2.000  0.1277  0.1624  1.0443
  723MOL0     C99683   5.550   3.193   2.061  0.2244  0.1695 -0.2917
  723MOL0     O99684   5.484   3.290   2.364 -0.3842 -1.0563 -0.9778
  723MOL0     C99685   5.153   3.168   2.363 -0.5807 -0.5103 -1.2001
  723MOL0     C99686   5.023   3.195   2.419  0.3197  0.3851 -0.7603
  723MOL0     N99687   4.707   3.238   2.116 -0.3257 -0.2213 -0.4341
  723MOL0     N99688   4.698   3.134   2.049  1.2893  0.5169  0.5350
  723MOL0     C99689   4.668   3.044   1.251  0.6450  0.1469  0.3078
  723MOL0     C99690   4.592   3.156   1.218  0.1045 -0.1188  0.6498
  723MOL0     C99691   4.443   3.577   1.182 -0.6666  0.5264  1.2592
  723MOL0     C99692   4.507   3.693   1.147 -0.8653 -0.1038  0.1955
  723MOL0     C99693   4.446   3.804   1.112  0.8926  0.6872  1.0063
  723MOL0     C99694   4.303   3.814   1.120 -0.4269 -0.1717  0.0017
  723MOL0     O99695   4.236   3.929   1.102  0.1900 -0.3467 -0.8866
  723MOL0     C99696   4.321   4.043   1.083 -0.1752 -0.0375  0.4292
  723MOL0     C99697   4.244   4.168   1.043  0.2231 -0.1406  0.5743
  723MOL0     C99698   4.133   4.197   1.154  0.2714  0.4918 -0.9548
  723MOL0     C99699   4.185   4.238   1.287 -0.2674 -0.0068 -0.0501
  723MOL0     C99700   4.289   4.348   1.264 -0.7898 -0.8145 -0.0294
  723MOL0     C99701   4.376   4.436   1.249 -0.3695 -0.4168  0.5606
  723MOL0     C99702   4.245   3.693   1.144  0.2681  0.8563 -1.1352
  723MOL0     C99703   4.303   3.569   1.170 -1.4142  0.2002  0.2460
  723MOL0     C99704   4.219   3.443   1.179 -0.2663  0.1709  0.0898
  723MOL0     H99705   4.483   3.266   1.518 -2.0422  0.0560 -1.2543
  723MOL0     H99706   4.655   3.071   1.586 -2.3022  0.1111  0.8041
  723MOL0     H99707   4.672   2.751   1.279  2.3767 -0.9876 -0.2243
  723MOL0     H99708   4.560   2.811   1.390  0.6322  1.1212  1.6059
  723MOL0     H99709   4.620   2.580   1.432 -0.0013 -1.3466  2.3304
  723MOL0     H99710   4.787   2.607   1.438  0.4358 -1.5243  1.3058
  723MOL0     H99711   4.616   2.760   1.627 -1.2090 -1.1971 -1.1799
  723MOL0     H99712   4.632   2.584   1.660  0.4572 -1.9052 -2.8971
  723MOL0     H99713   4.880   2.618   1.641 -0.3732  0.6745 -0.8927
  723MOL0     H99714   4.852   2.796   1.628 -0.5127  0.1464 -1.7857
  723MOL0     H99715   4.928   2.758   1.836 -0.3364  1.4697 -1.2644
  723MOL0     H99716   4.823   2.618   1.863 -0.5688 -0.6065 -0.5325
  723MOL0     H99717   4.737   2.926   1.848 -0.7037 -0.5407 -2.9546
  723MOL0     H99718   4.616   2.796   1.846 -0.3747  2.2927 -1.5537
  723MOL0     H99719   4.832   2.859   2.061  1.5768 -4.5345  0.6335
  723MOL0     H99720   4.733   2.716   2.067 -1.3270  1.1021  2.9288
  723MOL0     H99721   4.537   2.918   2.037  0.3760  1.2684 -0.2408
  723MOL0     H99722   4.579   2.839   2.188  1.0133 -0.4402  0.9747
  723MOL0     H99723   4.632   3.031   2.357  0.1669 -1.1283 -0.6356
  723MOL0     H99724   4.654   3.264   2.454 -0.4133  2.6176  1.3646
  723MOL0     H99725   4.533   3.346   2.341 -0.0335 -1.7667  0.0396
  723MOL0     H99726   4.824   3.406   2.319  0.8851  2.2233 -2.0202
  723MOL0     H99727   4.684   3.511   2.268 -1.4177  2.1734  2.1620
  723MOL0     H99728   4.771   3.604   2.477  0.8701  0.0076  1.5881
  723MOL0     H99729   4.630   3.505   2.520  0.0936 -1.6407  0.2199
  723MOL0     H99730   4.892   3.509   2.627 -1.1597  1.4870 -2.1954
  723MOL0     H99731   4.757   3.432   2.696 -0.3089  0.6782  0.3049
  723MOL0     H99732   5.092   3.468   2.600 -0.4324  1.7815 -2.2618
  723MOL0     H99733   5.389   3.432   2.593 -0.8322  1.0603  0.9309
  723MOL0     H99734   5.293   3.572   2.544  0.0022  2.1325 -2.6396
  723MOL0     H99735   5.399   3.520   2.428 -2.5389  0.3925 -0.8545
  723MOL0     H99736   5.579   2.952   2.307 -1.4539 -2.4137 -2.0576
  723MOL0     H99737   5.782   2.916   2.187  1.3908  0.4273  0.2422
  723MOL0     H99738   5.801   2.923   1.845 -0.0778 -0.4312 -1.2010
  723MOL0     H99739   5.853   3.083   1.790  0.0642 -0.0192 -0.2070
  723MOL0     H99740   6.006   2.916   1.721 -0.6727  0.5291  0.2386
  723MOL0     H99741   6.088   3.000   1.854  0.0338  2.5035 -3.2633
  723MOL0     H99742   5.945   2.739   1.893 -1.5917 -0.0011  1.8816
  723MOL0     H99743   6.033   2.828   2.013  2.9919  1.1710 -0.5232
  723MOL0     H99744   6.214   2.701   1.938 -0.6822  0.6743  0.7965
  723MOL0     H99745   6.247   2.803   1.812  1.9379 -2.5381  0.4384
  723MOL0     H99746   6.076   2.664   1.660 -1.0355  0.5475  0.0217
  723MOL0     H99747   6.226   2.581   1.713  0.3781  2.5152 -1.4023
  723MOL0     H99748   5.972   2.538   1.871  0.2571  0.4058  1.8020
  723MOL0     H99749   6.132   2.457   1.888 -0.1040 -2.4592 -1.4677
  723MOL0     H99750   6.100   2.389   1.645  0.8503 -1.7815  1.0584
  723MOL0     H99751   5.930   2.441   1.668  0.0993  3.5313  0.5327
  723MOL0     H99752   6.102   2.254   1.844 -1.2425 -1.7839  1.7566
  723MOL0     H99753   5.986   2.189   1.728 -1.3778 -1.2859  1.7568
  723MOL0     H99754   5.717   3.238   1.920  3.1889 -0.6025  2.0468
  723MOL0     H99755   5.489   3.280   2.036 -0.5162 -0.2612 -0.0140
  723MOL0     H99756   5.166   3.078   2.303 -0.6482 -1.4358  0.1410
  723MOL0     H99757   4.941   3.130   2.390  1.0686 -0.1495 -1.7666
  723MOL0     H99758   4.710   2.984   1.171  1.0080 -2.2823  2.1758
  723MOL0     H99759   4.585   3.184   1.113 -0.7863 -0.3059  0.6545
  723MOL0     H99760   4.616   3.701   1.145 -0.9217  3.3805 -4.3036
  723MOL0     H99761   4.511   3.886   1.083 -1.4749  1.7750 -1.6038
  723MOL0     H99762   4.376   4.058   1.176 -1.4402  1.7675  0.9495
  723MOL0     H99763   4.382   4.023   0.995 -1.0120  0.7215 -0.3431
  723MOL0     H99764   4.203   4.158   0.942 -0.0119  1.0620  0.5349
  723MOL0     H99765   4.324   4.242   1.035  0.4024 -0.4945 -1.1332
  723MOL0     H99766   4.075   4.282   1.119 -2.5408 -1.2547 -0.8417
  723MOL0     H99767   4.055   4.122   1.172 -0.2624  1.7185  2.7863
  723MOL0     H99768   4.220   4.147   1.335 -2.1646 -0.1153  1.2464
  723MOL0     H99769   4.106   4.282   1.349 -1.1429  1.4496 -2.0446
  723MOL0     H99770   4.444   4.517   1.235 -1.3032  0.4373  0.8677
  723MOL0     H99771   4.137   3.695   1.150  0.3454  0.8703  2.1629
  723MOL0     H99772   4.226   3.381   1.269 -1.0298 -1.8358 -1.1655
  723MOL0     H99773   4.113   3.457   1.156 -0.5421  1.3551  1.8940
  723MOL0     H99774   4.254   3.379   1.097 -1.1253  0.9745 -0.9211
  724MOL0     O99775   0.722   6.523   8.442 -0.5390  0.1326  0.2275
  724MOL0     C99776   0.618   6.472   8.411  0.1251  0.9419  0.0930
  724MOL0     O99777   0.521   6.526   8.338 -0.1677  0.2751  0.1683
  724MOL0     C99778   0.549   6.637   8.257  0.1198  0.4430 -0.3558
  724MOL0     C99779   0.666   6.642   8.178  0.9620 -0.2974 -0.2630
  724MOL0     C99780   0.702   6.757   8.114  0.0618 -0.1469 -0.4624
  724MOL0     C99781   0.620   6.875   8.113  0.1119  0.4674  0.1908
  724MOL0     O99782   0.657   6.977   8.031  0.6175  0.2974  0.1199
  724MOL0     C99783   0.555   7.041   7.959  0.5645 -0.1521  0.1028
  724MOL0     C99784   0.611   7.077   7.819 -0.3101 -0.3530 -1.4128
  724MOL0     C99785   0.686   6.959   7.755 -0.2156 -0.1265 -0.4998
  724MOL0     C99786   0.701   6.978   7.608  0.0493 -0.4915  0.5265
  724MOL0     C99787   0.782   6.864   7.561 -0.0038  1.1679  0.0922
  724MOL0     C99788   0.823   6.873   7.409 -0.2624 -0.0226  0.2453
  724MOL0     C99789   0.886   6.746   7.363  0.2482 -0.1907  0.1789
  724MOL0     C99790   1.046   6.746   7.364 -0.5099 -0.4613 -0.4473
  724MOL0     N99791   1.123   6.791   7.477 -0.2959 -0.4497  0.0945
  724MOL0     C99792   1.157   6.918   7.506  1.0299 -0.6959 -0.7649
  724MOL0     C99793   1.173   6.930   7.638  0.6564  0.2569 -0.9158
  724MOL0     C99794   1.246   7.041   7.713 -0.0558  0.1495 -0.2224
  724MOL0     C99795   1.320   7.001   7.844 -0.4385  0.4451 -0.1263
  724MOL0     C99796   1.274   7.079   7.973  1.3999  0.0750 -0.2867
  724MOL0     C99797   1.386   7.086   8.076  0.9763 -0.2610  0.9788
  724MOL0     O99798   1.504   7.162   8.041  0.0455  0.3211 -0.2551
  724MOL0     C99799   1.485   7.283   7.978 -0.4006  0.9247 -0.2593
  724MOL0     C99800   1.588   7.325   7.888 -0.3753  0.0572  0.0730
  724MOL0     C99801   1.584   7.450   7.823  0.5708 -0.2358 -0.2457
  724MOL0     C99802   1.689   7.464   7.716  0.8238 -1.1343  0.4836
  724MOL0     C99803   1.478   7.545   7.862 -0.4923  0.0915 -0.2596
  724MOL0     C99804   1.488   7.682   7.811  0.8910 -0.2782 -1.0530
  724MOL0     O99805   1.604   7.762   7.807 -0.9874  0.0388 -1.1297
  724MOL0     C99806   1.607   7.900   7.789 -0.5608  0.1864  0.2359
  724MOL0     C99807   1.562   7.957   7.673  0.3156 -0.8015  0.4525
  724MOL0     C99808   1.561   8.089   7.646  0.2835 -0.0266 -0.6370
  724MOL0     C99809   1.609   8.169   7.754 -0.6280  0.7878  0.6078
  724MOL0     O99810   1.624   8.306   7.745  0.0728 -0.3564  0.1604
  724MOL0     C99811   1.517   8.393   7.695  0.3272 -0.1658 -0.9982
  724MOL0     C99812   1.554   8.436   7.553 -0.7510  0.5079 -1.1818
  724MOL0     C99813   1.424   8.420   7.472 -0.4390  0.6856 -0.5573
  724MOL0     C99814   1.309   8.521   7.503 -0.1611  0.1121  0.5616
  724MOL0     C99815   1.238   8.566   7.372 -0.0312 -0.6729  0.0978
  724MOL0     C99816   1.166   8.458   7.300 -0.4362  0.1035  0.3813
  724MOL0     C99817   1.078   8.515   7.186 -0.0873 -0.1263  0.0766
  724MOL0     C99818   0.957   8.431   7.136  0.4633 -0.5634 -0.2688
  724MOL0    Cl99819   0.974   8.269   7.078 -0.0854  0.1709 -0.0995
  724MOL0     C99820   1.648   8.114   7.874 -0.5478 -0.3044  0.0996
  724MOL0     C99821   1.645   7.979   7.891 -0.2958  0.4892 -0.9902
  724MOL0     O99822   1.382   7.723   7.765  0.1670  0.1195 -0.7760
  724MOL0     C99823   1.390   7.498   7.959  0.0649  0.6137 -0.0139
  724MOL0     C99824   1.385   7.372   8.016 -0.2493  0.1053 -0.6144
  724MOL0     N99825   1.158   6.805   7.691 -0.4683 -0.9908 -0.6546
  724MOL0     N99826   1.138   6.723   7.599  1.2671  0.1632  0.8996
  724MOL0     C99827   0.495   6.857   8.170  0.2345  0.0762 -0.6027
  724MOL0     C99828   0.456   6.741   8.255  0.0910  0.5069  0.6148
  724MOL0     C99829   0.572   6.349   8.492 -0.2622  0.2236 -0.0694
  724MOL0     C99830   0.493   6.250   8.437  0.0123 -0.6514 -0.2465
  724MOL0     C99831   0.456   6.137   8.496 -0.2050 -0.1086  0.4425
  724MOL0     C99832   0.501   6.107   8.627 -0.7184  0.5049 -0.3919
  724MOL0     O99833   0.464   5.996   8.695  0.0323 -0.3349  0.2908
  724MOL0     C99834   0.344   6.026   8.757  0.1047  0.6400  0.0833
  724MOL0     C99835   0.305   5.920   8.852 -0.5778  0.5204  0.2655
  724MOL0     C99836   0.173   5.957   8.926  0.1958  0.2092  0.5402
  724MOL0     C99837   0.034   5.912   8.864 -0.1716 -0.4937 -0.6998
  724MOL0     C99838  -0.070   5.957   8.958 -0.1748  0.0131 -0.2601
  724MOL0     C99839  -0.147   5.997   9.040 -0.6705 -0.3719 -0.1055
  724MOL0     C99840   0.587   6.199   8.687  0.9981  0.1757 -0.2043
  724MOL0     C99841   0.623   6.315   8.633  0.1430 -0.6276  1.0345
  724MOL0     C99842   0.699   6.414   8.719  0.3782  0.0801 -0.5014
  724MOL0     H99843   0.727   6.552   8.178 -1.5227 -2.1532 -2.4622
  724MOL0     H99844   0.797   6.734   8.066 -0.0679 -0.6145 -0.4997
  724MOL0     H99845   0.519   7.133   8.004 -1.9846 -0.6716 -0.6968
  724MOL0     H99846   0.466   6.977   7.953  0.3070  0.2526 -0.5257
  724MOL0     H99847   0.525   7.107   7.759  0.4634  0.4715 -2.1421
  724MOL0     H99848   0.675   7.166   7.822  1.1538 -1.3941  0.5307
  724MOL0     H99849   0.786   6.953   7.799 -0.1625  1.9635 -0.2351
  724MOL0     H99850   0.644   6.862   7.784 -0.9538 -0.0516 -1.2760
  724MOL0     H99851   0.602   6.977   7.560  0.1962 -2.0522  0.2095
  724MOL0     H99852   0.732   7.077   7.574 -2.4979 -1.0294 -4.1718
  724MOL0     H99853   0.723   6.774   7.578  0.8865  1.2220  5.0068
  724MOL0     H99854   0.871   6.848   7.623 -0.0985 -1.7491 -0.4222
  724MOL0     H99855   0.734   6.901   7.353  1.0180  4.5470  0.1005
  724MOL0     H99856   0.893   6.955   7.390 -2.0095  0.7763 -3.6619
  724MOL0     H99857   0.849   6.725   7.262  1.3719  5.2549 -1.7240
  724MOL0     H99858   0.847   6.655   7.409 -0.6811 -0.4675 -1.1053
  724MOL0     H99859   1.082   6.646   7.339  0.3539  0.5527 -3.9195
  724MOL0     H99860   1.072   6.794   7.269 -1.2072 -2.1301 -1.5381
  724MOL0     H99861   1.169   6.999   7.435  1.7381 -1.0525 -1.0665
  724MOL0     H99862   1.173   7.120   7.733  0.0396  0.2015 -0.0757
  724MOL0     H99863   1.325   7.076   7.646  1.0787  0.6937  1.3383
  724MOL0     H99864   1.318   6.892   7.853  1.6294  0.4756  1.2616
  724MOL0     H99865   1.426   7.022   7.825 -0.1496 -1.3484 -0.7265
  724MOL0     H99866   1.231   7.178   7.955 -1.3064 -0.7299  1.2524
  724MOL0     H99867   1.197   7.021   8.023 -1.0571  2.5206 -1.0136
  724MOL0     H99868   1.345   7.136   8.164  1.2478 -0.7605  1.3921
  724MOL0     H99869   1.416   6.983   8.096 -1.3220 -0.8098  1.8886
  724MOL0     H99870   1.666   7.253   7.869  0.6543  1.4259 -1.1965
  724MOL0     H99871   1.649   7.446   7.615  2.5953 -2.8536  0.0178
  724MOL0     H99872   1.759   7.380   7.722  2.1349 -0.2072 -1.0800
  724MOL0     H99873   1.730   7.565   7.709  0.4559 -1.0554 -0.7775
  724MOL0     H99874   1.528   7.896   7.590 -0.5433 -0.5437  0.6132
  724MOL0     H99875   1.549   8.138   7.550  3.0348 -0.4968 -1.3023
  724MOL0     H99876   1.428   8.329   7.692 -2.2497  3.1791 -3.2736
  724MOL0     H99877   1.485   8.473   7.762  0.3831 -0.0049 -1.1624
  724MOL0     H99878   1.584   8.540   7.539 -1.1453  0.7147 -0.5453
  724MOL0     H99879   1.620   8.376   7.490  0.1257  1.3638 -1.1113
  724MOL0     H99880   1.373   8.323   7.479 -2.7295  1.9206  1.2488
  724MOL0     H99881   1.461   8.434   7.370  4.0892  2.4018  1.0532
  724MOL0     H99882   1.357   8.610   7.543  1.5546 -1.3128  1.8305
  724MOL0     H99883   1.244   8.478   7.579 -0.1984  0.0469  0.4931
  724MOL0     H99884   1.168   8.646   7.396  0.0231 -0.6941  0.3274
  724MOL0     H99885   1.306   8.613   7.301  0.0482  1.4331  1.4837
  724MOL0     H99886   1.098   8.408   7.370  2.3073 -1.0156  2.4052
  724MOL0     H99887   1.247   8.396   7.261  1.3761  2.7861 -0.3894
  724MOL0     H99888   1.142   8.518   7.098  0.5624 -4.0313  0.2487
  724MOL0     H99889   1.041   8.616   7.208  0.8149  0.5891 -1.5342
  724MOL0     H99890   0.917   8.481   7.047 -1.3442 -1.5605 -0.0495
  724MOL0     H99891   0.878   8.437   7.211  1.2787  0.0990  0.5646
  724MOL0     H99892   1.683   8.182   7.951 -0.6146 -1.7606  1.4537
  724MOL0     H99893   1.671   7.924   7.980  0.1783 -2.2058 -2.6737
  724MOL0     H99894   1.322   7.576   7.993  1.4939  2.2819 -0.8227
  724MOL0     H99895   1.306   7.347   8.086  0.8364 -0.2828  0.5047
  724MOL0     H99896   0.416   6.931   8.173 -0.6215 -0.8392  2.0762
  724MOL0     H99897   0.359   6.729   8.302 -0.7634  2.9825 -0.3305
  724MOL0     H99898   0.449   6.278   8.342  0.9718 -0.8444 -0.7632
  724MOL0     H99899   0.383   6.072   8.448 -1.6936 -0.2786  2.7673
  724MOL0     H99900   0.356   6.116   8.818 -1.8011  1.4342 -0.6433
  724MOL0     H99901   0.262   6.044   8.687  1.4352  1.7656 -1.2781
  724MOL0     H99902   0.388   5.897   8.919  0.1518  0.7466 -0.5335
  724MOL0     H99903   0.292   5.828   8.794 -0.7068  1.9972 -2.1814
  724MOL0     H99904   0.179   5.910   9.025  1.2474  2.1603  1.4666
  724MOL0     H99905   0.169   6.066   8.940  1.3785  1.2676 -4.9438
  724MOL0     H99906   0.044   5.803   8.854 -0.6704 -0.5061 -1.0982
  724MOL0     H99907   0.028   5.957   8.764 -4.0699  1.3568  0.2044
  724MOL0     H99908  -0.232   6.028   9.098 -1.6323  0.9786 -2.1008
  724MOL0     H99909   0.627   6.167   8.783 -1.2525 -0.9712  0.4301
  724MOL0     H99910   0.805   6.386   8.720  0.0525 -1.9507 -4.4384
  724MOL0     H99911   0.682   6.520   8.697  2.6212 -0.3952 -6.0728
  724MOL0     H99912   0.657   6.402   8.819  0.5279  0.1789 -0.4246
  725MOL0     O99913   2.690   6.133   5.709 -0.5544  0.0836 -0.3588
  725MOL0     C99914   2.671   6.247   5.754 -0.2043  0.5708 -0.1201
  725MOL0     O99915   2.639   6.277   5.881 -0.2440  0.3041 -0.2113
  725MOL0     C99916   2.614   6.173   5.964 -0.8896  0.1195 -0.2679
  725MOL0     C99917   2.703   6.079   6.003  0.9643  0.9321 -0.4664
  725MOL0     C99918   2.662   5.975   6.085  0.0894  0.6464  0.2371
  725MOL0     C99919   2.528   5.960   6.125 -0.5953 -0.4413 -0.3375
  725MOL0     O99920   2.506   5.850   6.202 -0.2327 -0.1412  0.3885
  725MOL0     C99921   2.361   5.818   6.227 -0.5033 -0.8181 -0.8294
  725MOL0     C99922   2.351   5.676   6.281  0.5762 -0.9256 -0.4366
  725MOL0     C99923   2.406   5.673   6.425 -0.2312  0.7057 -0.2227
  725MOL0     C99924   2.301   5.730   6.519  1.5768 -0.1712  0.0548
  725MOL0     C99925   2.358   5.722   6.659  0.2010  0.2505 -0.7912
  725MOL0     C99926   2.249   5.690   6.770 -0.5673 -0.2248  0.5193
  725MOL0     C99927   2.226   5.540   6.771 -0.9776 -0.4178  0.1326
  725MOL0     C99928   2.134   5.497   6.885 -0.7857 -0.5520  0.3283
  725MOL0     N99929   2.014   5.583   6.888  0.2460 -0.2812  0.0947
  725MOL0     C99930   1.925   5.589   6.778  0.7702  0.9753 -0.9572
  725MOL0     C99931   1.851   5.699   6.804  0.1160  0.1295 -0.9631
  725MOL0     C99932   1.757   5.743   6.693 -0.2991 -0.8618  0.5853
  725MOL0     C99933   1.829   5.792   6.563 -0.0967  0.3149 -1.1536
  725MOL0     C99934   1.910   5.921   6.579  0.7929 -0.3461  1.1652
  725MOL0     C99935   1.920   6.017   6.455 -0.3743  0.3255 -0.2393
  725MOL0     O99936   1.950   5.936   6.344 -0.1783 -0.0752  0.1690
  725MOL0     C99937   1.970   5.981   6.216  0.6917 -1.0517  0.8317
  725MOL0     C99938   2.016   5.896   6.114  0.1554 -0.3116 -0.1790
  725MOL0     C99939   2.027   5.937   5.980  0.6082 -0.2549  0.0236
  725MOL0     C99940   2.061   5.834   5.877 -0.5642 -0.0469 -0.1206
  725MOL0     C99941   2.018   6.075   5.954  0.7031 -0.3746 -0.1736
  725MOL0     C99942   2.047   6.136   5.818 -0.8798  0.7302  0.1882
  725MOL0     O99943   2.138   6.234   5.828 -0.2195 -0.5998  0.6602
  725MOL0     C99944   2.166   6.303   5.711 -0.1222  0.3675  0.1745
  725MOL0     C99945   2.240   6.237   5.613 -0.1376 -0.4347 -1.0692
  725MOL0     C99946   2.282   6.308   5.502 -0.0303 -0.8611  0.8068
  725MOL0     C99947   2.247   6.448   5.486 -0.7569 -0.2478 -0.0798
  725MOL0     O99948   2.302   6.524   5.387 -0.1973 -0.0720  0.1033
  725MOL0     C99949   2.372   6.456   5.282 -0.2089  0.1247  0.0263
  725MOL0     C99950   2.273   6.371   5.196 -0.1627 -0.5438  0.7006
  725MOL0     C99951   2.310   6.384   5.051  0.4130  0.0536 -0.1654
  725MOL0     C99952   2.247   6.271   4.972  0.5418  0.2930  0.2699
  725MOL0     C99953   2.283   6.282   4.820 -0.8491  0.4209 -0.5090
  725MOL0     C99954   2.254   6.154   4.745 -0.8985  0.1583 -0.2109
  725MOL0     C99955   2.102   6.112   4.764 -0.5702 -0.2179 -0.3786
  725MOL0     C99956   2.012   6.212   4.709 -0.5738  0.3355 -0.2314
  725MOL0    Cl99957   2.058   6.241   4.530  0.2506  0.5649 -0.3832
  725MOL0     C99958   2.159   6.510   5.581 -0.1436 -0.3289  0.7947
  725MOL0     C99959   2.126   6.437   5.688 -0.2041  0.0610 -0.7812
  725MOL0     O99960   1.987   6.091   5.719 -0.2730 -0.2565 -0.3093
  725MOL0     C99961   1.974   6.168   6.049  0.0998  0.1462 -0.2934
  725MOL0     C99962   1.949   6.119   6.178  0.4638  0.9147 -0.4217
  725MOL0     N99963   1.877   5.747   6.931 -0.4505  0.5705  0.0781
  725MOL0     N99964   1.982   5.676   6.976  0.0055 -0.0739  0.1637
  725MOL0     C99965   2.433   6.062   6.089 -0.3014 -0.1295 -0.0807
  725MOL0     C99966   2.486   6.163   6.014 -0.2320 -0.1646  0.5781
  725MOL0     C99967   2.682   6.370   5.668 -0.3590  0.5342  0.6397
  725MOL0     C99968   2.581   6.425   5.604  0.9728  0.1363 -1.2663
  725MOL0     C99969   2.593   6.541   5.533  0.0009 -0.2798 -0.8741
  725MOL0     C99970   2.718   6.588   5.484  0.8893 -0.1768 -1.2202
  725MOL0     O99971   2.725   6.706   5.413 -0.2977 -0.4486 -0.2205
  725MOL0     C99972   2.844   6.744   5.333  1.8490 -0.2427 -0.7536
  725MOL0     C99973   2.783   6.839   5.218  0.5994 -0.0293  1.1368
  725MOL0     C99974   2.700   6.765   5.114  0.3737 -0.2951  0.4265
  725MOL0     C99975   2.573   6.847   5.062  0.7613 -0.1938 -0.0418
  725MOL0     C99976   2.602   6.932   4.954 -0.3515 -0.3677  0.1145
  725MOL0     C99977   2.635   7.004   4.862 -0.0135  0.3489 -0.2132
  725MOL0     C99978   2.828   6.534   5.560 -0.0967 -1.1440  0.3626
  725MOL0     C99979   2.813   6.427   5.646  0.0440  0.7326  0.0219
  725MOL0     C99980   2.926   6.381   5.733 -1.5332  0.0320 -0.8391
  725MOL0     H99981   2.807   6.087   5.973  1.0395 -1.9714 -1.3002
  725MOL0     H99982   2.739   5.900   6.105  0.0879  0.2454 -1.1671
  725MOL0     H99983   2.309   5.828   6.132 -0.9123 -2.2692 -0.7931
  725MOL0     H99984   2.316   5.889   6.297 -1.9271 -0.0967 -2.4019
  725MOL0     H99985   2.242   5.663   6.281  0.1045  1.9391  1.9063
  725MOL0     H99986   2.398   5.601   6.217  0.6313 -1.1293 -0.1603
  725MOL0     H99987   2.426   5.570   6.455 -1.5521  0.6753  0.6406
  725MOL0     H99988   2.497   5.733   6.431  0.1024  0.0139  2.9906
  725MOL0     H99989   2.267   5.831   6.496  0.0145 -0.9974 -1.5138
  725MOL0     H99990   2.206   5.677   6.510  0.8854  1.1375 -0.5612
  725MOL0     H99991   2.378   5.825   6.689 -2.7383  0.8092 -0.4295
  725MOL0     H99992   2.444   5.656   6.667  0.7392  1.0352  0.0519
  725MOL0     H99993   2.283   5.715   6.871  0.3111 -1.5774  0.5853
  725MOL0     H99994   2.160   5.751   6.752  0.2210  0.5894 -0.7533
  725MOL0     H99995   2.320   5.486   6.786 -1.8684 -2.1470 -0.2970
  725MOL0     H99996   2.190   5.520   6.670  1.3494  2.0806 -1.3410
  725MOL0     H99997   2.108   5.391   6.871 -1.9020 -0.1885 -0.5153
  725MOL0     H99998   2.177   5.506   6.985  3.6346  1.8528 -1.5006
  725MOL0     H99999   1.917   5.518   6.697 -2.2567 -2.9570  2.3329
  725MOL0     H    0   1.695   5.829   6.722 -2.6397 -2.1394 -0.4038
  725MOL0     H    1   1.681   5.667   6.674 -0.3919 -0.1870 -2.0749
  725MOL0     H    2   1.887   5.705   6.531 -1.7975 -1.2020 -0.3423
  725MOL0     H    3   1.753   5.820   6.490 -0.3069  1.7782 -0.4104
  725MOL0     H    4   1.876   5.978   6.667 -0.9589 -0.1059  0.3841
  725MOL0     H    5   2.013   5.891   6.600  0.8365 -0.0872  1.3263
  725MOL0     H    6   1.823   6.064   6.436 -0.0145  0.8376 -0.8312
  725MOL0     H    7   2.005   6.082   6.479 -0.2814 -0.6406  2.4983
  725MOL0     H    8   2.051   5.797   6.140  3.9171  0.4172 -1.8616
  725MOL0     H    9   2.027   5.737   5.914 -1.9660 -0.1692 -1.5984
  725MOL0     H   10   2.166   5.831   5.848  0.5547  0.8141  3.3210
  725MOL0     H   11   1.996   5.846   5.790 -0.4076 -1.5813 -0.4832
  725MOL0     H   12   2.266   6.132   5.625 -0.0635 -0.4410 -1.2759
  725MOL0     H   13   2.342   6.252   5.432 -3.7065 -0.5858 -2.9344
  725MOL0     H   14   2.423   6.526   5.216 -0.7997 -0.3842 -0.9905
  725MOL0     H   15   2.454   6.393   5.317 -1.1973  0.3923  3.1789
  725MOL0     H   16   2.292   6.272   5.237  1.0313  0.0984  1.7622
  725MOL0     H   17   2.173   6.413   5.212 -1.0276 -1.0698 -2.6489
  725MOL0     H   18   2.419   6.381   5.036  0.0449  0.0398 -3.8241
  725MOL0     H   19   2.276   6.481   5.013 -2.8273 -0.9080 -0.0080
  725MOL0     H   20   2.139   6.288   4.980  0.6598  0.8525  0.7397
  725MOL0     H   21   2.268   6.174   5.018 -0.5841  0.1781  0.5793
  725MOL0     H   22   2.236   6.365   4.766 -2.9240  0.4893  1.2272
  725MOL0     H   23   2.391   6.296   4.810 -1.0315  2.7647  0.2172
  725MOL0     H   24   2.317   6.074   4.784  0.7367  1.6772  0.3805
  725MOL0     H   25   2.278   6.177   4.641  0.3927  0.6410  0.1728
  725MOL0     H   26   2.080   6.078   4.866  0.0520  1.9565  0.5431
  725MOL0     H   27   2.092   6.017   4.713  1.4024 -0.4533 -0.3983
  725MOL0     H   28   2.020   6.310   4.755 -0.5552  1.5791 -2.7062
  725MOL0     H   29   1.912   6.169   4.723 -0.9862  0.6961 -1.8814
  725MOL0     H   30   2.124   6.613   5.579 -1.4080 -0.7411  0.6886
  725MOL0     H   31   2.062   6.486   5.761  0.5336  0.3883 -0.3401
  725MOL0     H   32   1.959   6.270   6.015 -0.0046 -0.4594 -2.1783
  725MOL0     H   33   1.917   6.193   6.251  2.2854  1.3213 -0.0022
  725MOL0     H   34   2.329   6.062   6.122 -0.0721 -1.1875  0.7114
  725MOL0     H   35   2.416   6.238   5.977 -0.1521  0.7207  2.1458
  725MOL0     H   36   2.485   6.378   5.626  1.0808 -0.2691 -1.6562
  725MOL0     H   37   2.507   6.601   5.502  0.2273  1.4629  1.5608
  725MOL0     H   38   2.910   6.816   5.380 -1.4594  1.1322  2.1956
  725MOL0     H   39   2.900   6.653   5.308 -0.6168 -1.8185 -0.9586
  725MOL0     H   40   2.862   6.903   5.178  1.0306 -1.4629 -0.4143
  725MOL0     H   41   2.709   6.907   5.262  2.3507  2.8916 -0.0975
  725MOL0     H   42   2.755   6.742   5.023 -1.0470  1.4472 -0.9537
  725MOL0     H   43   2.656   6.672   5.150 -3.1280  0.3052 -1.8408
  725MOL0     H   44   2.518   6.898   5.142 -1.3510 -0.7587 -1.0692
  725MOL0     H   45   2.507   6.770   5.022 -2.9048  1.0870  2.9316
  725MOL0     H   46   2.671   7.059   4.778 -0.2352 -1.8698 -1.8537
  725MOL0     H   47   2.926   6.571   5.534 -0.2804 -0.8132  0.1395
  725MOL0     H   48   2.891   6.368   5.835  1.6849  1.8106  0.6474
  725MOL0     H   49   2.974   6.289   5.699 -3.1646 -1.2057  0.0599
  725MOL0     H   50   2.999   6.462   5.740 -1.4851  0.1189 -2.0113
  726MOL0     O   51   8.591   3.295   8.268 -0.4892 -0.0420  0.1268
  726MOL0     C   52   8.566   3.179   8.289 -0.2120  0.4251  0.3698
  726MOL0     O   53   8.540   3.085   8.187 -0.5579 -0.2598 -0.1037
  726MOL0     C   54   8.529   3.122   8.051 -0.4859 -0.0490  0.2323
  726MOL0     C   55   8.447   3.229   8.013  0.0177  0.2408 -0.1930
  726MOL0     C   56   8.444   3.287   7.889 -0.8929  0.3046 -0.0137
  726MOL0     C   57   8.510   3.216   7.786  0.0973 -0.2224  0.8056
  726MOL0     O   58   8.512   3.279   7.663  0.2851  0.3867  0.2382
  726MOL0     C   59   8.635   3.291   7.589  0.0327  0.6622 -0.9527
  726MOL0     C   60   8.743   3.372   7.665 -0.7372  0.5511  0.3175
  726MOL0     C   61   8.680   3.513   7.709 -0.4576 -0.4789 -1.1374
  726MOL0     C   62   8.777   3.616   7.776  0.1531 -0.9638 -1.1665
  726MOL0     C   63   8.837   3.568   7.904 -0.0036  0.2981  1.2621
  726MOL0     C   64   8.746   3.585   8.022 -0.4298  0.5084  0.2272
  726MOL0     C   65   8.819   3.564   8.159  0.9295  0.4236 -0.0575
  726MOL0     C   66   8.912   3.445   8.186  0.3259  0.3679 -0.5030
  726MOL0     N   67   8.999   3.450   8.308 -0.1217  0.2456 -0.1409
  726MOL0     C   68   8.949   3.446   8.437 -0.4524  0.1323  0.5140
  726MOL0     C   69   9.055   3.418   8.517 -0.1534 -0.0584 -0.8677
  726MOL0     C   70   9.058   3.413   8.667 -0.7549 -0.1549 -0.1824
  726MOL0     C   71   9.003   3.271   8.709 -0.0923 -0.2287 -0.7036
  726MOL0     C   72   8.953   3.262   8.855 -0.8491 -0.8979 -0.6344
  726MOL0     C   73   9.058   3.302   8.958 -0.5105 -1.1388 -1.1478
  726MOL0     O   74   9.180   3.228   8.955 -0.5532  0.1606 -0.5992
  726MOL0     C   75   9.168   3.093   8.984  0.3685 -0.5315  0.0296
  726MOL0     C   76   9.137   3.045   9.107  0.0723 -0.2715 -0.5005
  726MOL0     C   77   9.138   2.917   9.148  0.7030 -0.1200 -0.6969
  726MOL0     C   78   9.117   2.885   9.298 -0.4193  0.7947  0.5155
  726MOL0     C   79   9.160   2.820   9.049 -0.3319 -0.7908 -0.1123
  726MOL0     C   80   9.165   2.671   9.068 -0.7586  1.5274  0.2883
  726MOL0     O   81   9.186   2.603   8.955  0.2100 -0.2422  0.8329
  726MOL0     C   82   9.163   2.465   8.960  0.2633 -0.5315 -0.9177
  726MOL0     C   83   9.040   2.413   8.986 -0.1927 -0.0995 -0.3820
  726MOL0     C   84   9.021   2.279   9.021  0.4999 -0.2100 -0.9694
  726MOL0     C   85   9.134   2.193   9.027  0.2838  0.3435  0.2224
  726MOL0     O   86   9.127   2.062   9.061  0.4554 -0.4596  0.2334
  726MOL0     C   87   9.000   2.002   9.090 -0.2012  0.6607 -0.7208
  726MOL0     C   88   9.008   1.841   9.077 -0.5719 -0.0484  0.0443
  726MOL0     C   89   9.107   1.777   9.168  0.4241 -0.2777  0.3842
  726MOL0     C   90   9.130   1.636   9.123  0.3287  0.5279 -0.5931
  726MOL0     C   91   9.218   1.565   9.223 -0.6593  0.2138  0.8252
  726MOL0     C   92   9.227   1.406   9.213  0.4878 -0.1150 -0.3418
  726MOL0     C   93   9.338   1.346   9.300 -0.0045  0.6236  0.0232
  726MOL0     C   94   9.327   1.196   9.317  0.1809  0.0936 -0.1240
  726MOL0    Cl   95   9.369   1.126   9.152 -0.1057 -0.2767 -0.5502
  726MOL0     C   96   9.257   2.241   8.976 -0.7670 -0.0126 -0.2493
  726MOL0     C   97   9.269   2.376   8.960  0.7827  0.7976 -0.1691
  726MOL0     O   98   9.139   2.609   9.174 -0.0588 -0.5662  0.2444
  726MOL0     C   99   9.183   2.873   8.910  0.2694 -0.9013 -0.8933
  726MOL0     C  100   9.196   3.006   8.884 -0.0931  0.0525  0.2775
  726MOL0     N  101   9.160   3.387   8.431 -0.4606 -1.0301 -0.7591
  726MOL0     N  102   9.135   3.414   8.307 -0.3241 -0.1608 -0.4319
  726MOL0     C  103   8.591   3.108   7.818 -0.7875  0.7285  0.3010
  726MOL0     C  104   8.601   3.056   7.953  0.7913  0.1569  0.8489
  726MOL0     C  105   8.534   3.126   8.432 -0.0441  0.3859  1.0972
  726MOL0     C  106   8.482   2.992   8.441  0.3290  0.0667  0.8151
  726MOL0     C  107   8.453   2.929   8.562  0.2055  0.1062  0.4968
  726MOL0     C  108   8.465   3.010   8.683 -0.2324 -0.3954  0.5919
  726MOL0     O  109   8.447   2.948   8.806  0.1764  0.2328 -0.1200
  726MOL0     C  110   8.555   2.862   8.847 -0.5275 -0.0221  0.1221
  726MOL0     C  111   8.667   2.939   8.909  0.7543 -0.3539 -0.4409
  726MOL0     C  112   8.799   2.865   8.933 -0.7405  0.2930  0.5223
  726MOL0     C  113   8.775   2.726   8.984  0.5682  0.2140 -0.7270
  726MOL0     C  114   8.680   2.730   9.096  0.5522  0.6752  0.1082
  726MOL0     C  115   8.606   2.715   9.196  0.4027  1.5688 -0.7684
  726MOL0     C  116   8.496   3.146   8.676  0.4707 -0.0879 -0.0873
  726MOL0     C  117   8.540   3.204   8.554  0.3281  0.2276  0.3011
  726MOL0     C  118   8.584   3.355   8.562 -0.5135 -0.2686  0.8667
  726MOL0     H  119   8.386   3.276   8.089 -2.0798 -1.9632 -0.4013
  726MOL0     H  120   8.382   3.376   7.884  0.5694  1.2665 -2.2864
  726MOL0     H  121   8.595   3.344   7.502  1.7976  0.7400 -1.7475
  726MOL0     H  122   8.688   3.201   7.558 -0.0435  0.1938  0.2142
  726MOL0     H  123   8.785   3.315   7.748  1.8367  1.3501 -0.3549
  726MOL0     H  124   8.827   3.383   7.596  0.2447  1.2970  1.6129
  726MOL0     H  125   8.629   3.571   7.631 -0.3876  1.0712 -0.0609
  726MOL0     H  126   8.602   3.482   7.779 -0.8461  2.1632 -0.2704
  726MOL0     H  127   8.870   3.630   7.718  2.4478 -1.5409  2.0992
  726MOL0     H  128   8.726   3.711   7.794  3.2589  0.6533 -0.1063
  726MOL0     H  129   8.921   3.627   7.941  0.2450 -0.4315  1.8961
  726MOL0     H  130   8.878   3.467   7.894 -0.8740 -0.0793  1.3958
  726MOL0     H  131   8.708   3.688   8.023 -0.8038  0.5367 -3.1876
  726MOL0     H  132   8.666   3.513   8.003  0.1610 -0.1366  0.1604
  726MOL0     H  133   8.742   3.569   8.236 -0.9546  0.0011 -1.8344
  726MOL0     H  134   8.883   3.651   8.174 -1.9482  2.4167  1.6063
  726MOL0     H  135   8.845   3.358   8.182 -0.3547  0.8744 -0.4159
  726MOL0     H  136   8.977   3.422   8.101 -0.1651 -1.6140 -0.4091
  726MOL0     H  137   8.844   3.456   8.464 -1.6776 -0.6334 -3.4005
  726MOL0     H  138   8.998   3.495   8.708 -0.0106 -1.3876  3.8274
  726MOL0     H  139   9.163   3.420   8.699  0.1362 -0.1725 -2.8913
  726MOL0     H  140   8.927   3.237   8.638 -0.6590 -0.3676 -0.0444
  726MOL0     H  141   9.081   3.197   8.693  0.6917  0.6708 -1.1605
  726MOL0     H  142   8.877   3.340   8.854  0.6378  0.6055 -0.7568
  726MOL0     H  143   8.910   3.163   8.871 -2.1037 -1.5887 -6.1392
  726MOL0     H  144   9.082   3.404   8.926  1.8367 -0.5904  1.8810
  726MOL0     H  145   9.024   3.306   9.062  0.9714 -2.2592 -0.5738
  726MOL0     H  146   9.116   3.119   9.183 -0.9544 -1.9064  0.8812
  726MOL0     H  147   9.144   2.964   9.368 -2.5141 -0.0524  2.4021
  726MOL0     H  148   9.177   2.800   9.333  0.6544  1.3103 -0.0252
  726MOL0     H  149   9.011   2.859   9.304  0.2273 -1.9331  1.6516
  726MOL0     H  150   8.950   2.474   8.985 -0.3127 -0.2793 -1.3706
  726MOL0     H  151   8.926   2.235   9.049  0.4313 -0.5025 -1.6332
  726MOL0     H  152   8.981   2.022   9.196  2.2054  1.4052 -0.3587
  726MOL0     H  153   8.921   2.027   9.018 -1.0509 -0.2603 -0.1238
  726MOL0     H  154   8.908   1.801   9.094 -1.2476  2.6348  3.6504
  726MOL0     H  155   9.020   1.816   8.971  0.3570 -2.0253  0.5750
  726MOL0     H  156   9.076   1.778   9.273 -2.4465  0.6757 -0.3832
  726MOL0     H  157   9.204   1.827   9.161  0.6667 -0.9520 -2.0394
  726MOL0     H  158   9.176   1.640   9.024 -2.0176 -0.0681 -1.8006
  726MOL0     H  159   9.039   1.575   9.114  1.4189 -1.1209 -0.9990
  726MOL0     H  160   9.321   1.602   9.214 -1.3746  2.2294  0.5872
  726MOL0     H  161   9.175   1.581   9.322  1.0958 -1.5388  1.9693
  726MOL0     H  162   9.232   1.363   9.112 -3.9920 -0.7390 -0.5127
  726MOL0     H  163   9.138   1.373   9.268  0.9209 -1.0840 -0.1908
  726MOL0     H  164   9.328   1.386   9.401 -0.3627  0.0515  0.2196
  726MOL0     H  165   9.438   1.376   9.267  0.4051 -1.3269 -0.6125
  726MOL0     H  166   9.231   1.157   9.354  1.0833  0.5104  2.9347
  726MOL0     H  167   9.408   1.170   9.385  1.8525  1.7776 -1.3905
  726MOL0     H  168   9.350   2.187   8.966  2.0448  3.9113  1.9641
  726MOL0     H  169   9.366   2.421   8.943  0.0989  1.4361 -2.8956
  726MOL0     H  170   9.187   2.812   8.820 -0.0366  2.0843 -3.0648
  726MOL0     H  171   9.223   3.037   8.783  0.7889 -1.4611  0.0151
  726MOL0     H  172   8.654   3.050   7.752 -3.4525 -0.2539 -1.5652
  726MOL0     H  173   8.656   2.963   7.962  3.3336  1.5679  0.8484
  726MOL0     H  174   8.476   2.930   8.352 -0.9028 -0.4657  1.2558
  726MOL0     H  175   8.433   2.822   8.565 -1.5406  0.2663 -2.2212
  726MOL0     H  176   8.512   2.796   8.923 -0.0055  1.6489  1.9652
  726MOL0     H  177   8.575   2.804   8.757 -2.2614  0.3372 -0.5274
  726MOL0     H  178   8.639   2.976   9.008  2.2419 -2.0733  0.6619
  726MOL0     H  179   8.679   3.021   8.837  1.0980  0.1211  0.1510
  726MOL0     H  180   8.847   2.862   8.835  1.1774 -2.5734  1.4521
  726MOL0     H  181   8.867   2.923   8.996 -0.5366  0.7510 -0.1061
  726MOL0     H  182   8.871   2.690   9.022  1.4583  3.3842  0.3745
  726MOL0     H  183   8.729   2.663   8.907 -3.4753  0.0712  1.5236
  726MOL0     H  184   8.529   2.695   9.268  1.3262 -4.0378 -0.8395
  726MOL0     H  185   8.502   3.188   8.776  0.0563  2.9719 -1.2570
  726MOL0     H  186   8.512   3.420   8.513 -0.7417 -1.0750  0.1026
  726MOL0     H  187   8.599   3.380   8.668  0.1628  0.1732  0.6714
  726MOL0     H  188   8.674   3.369   8.501 -1.3589  3.6774  0.2544
  727MOL0     O  189   0.515   1.078   0.406  0.8660  0.2223  0.1951
  727MOL0     C  190   0.560   0.968   0.447  0.2701 -0.4954  0.6610
  727MOL0     O  191   0.492   0.881   0.520  0.1512 -0.8498 -0.3472
  727MOL0     C  192   0.387   0.914   0.598  1.2285  1.5433 -0.4858
  727MOL0     C  193   0.342   1.038   0.631  0.0473  0.9130 -0.3116
  727MOL0     C  194   0.236   1.058   0.722 -0.0784  1.2161  0.0385
  727MOL0     C  195   0.170   0.941   0.772  0.2621  0.1580 -0.3515
  727MOL0     O  196   0.066   0.960   0.865 -0.7168  0.2498  0.1188
  727MOL0     C  197  -0.059   0.926   0.803 -0.6281 -0.0412 -0.7506
  727MOL0     C  198  -0.164   0.968   0.910  0.3338  0.0514  0.1767
  727MOL0     C  199  -0.187   1.122   0.935  0.3787  0.3386  0.1421
  727MOL0     C  200  -0.338   1.155   0.923  0.0692 -0.1835 -0.4004
  727MOL0     C  201  -0.421   1.100   1.037  0.2672  1.2346  0.0576
  727MOL0     C  202  -0.561   1.057   0.985  0.3124 -1.1000 -0.7687
  727MOL0     C  203  -0.640   1.173   0.922  0.4996 -0.7056  0.2614
  727MOL0     C  204  -0.791   1.134   0.907  0.7637  0.7323 -0.5985
  727MOL0     N  205  -0.870   1.223   0.814  0.1447  0.6146  0.5990
  727MOL0     C  206  -0.944   1.331   0.853 -0.0237 -0.0209  0.2849
  727MOL0     C  207  -1.032   1.354   0.756 -0.4119 -0.0760 -0.3827
  727MOL0     C  208  -1.140   1.465   0.755 -0.6203 -0.1597 -1.0528
  727MOL0     C  209  -1.277   1.385   0.758 -0.4989 -0.4113  0.2764
  727MOL0     C  210  -1.324   1.362   0.606  1.3058  0.8502  0.0946
  727MOL0     C  211  -1.464   1.302   0.610  0.5548  0.7058 -0.4519
  727MOL0     O  212  -1.454   1.174   0.682  0.6198 -0.4674  0.4119
  727MOL0     C  213  -1.557   1.088   0.671  0.8337 -0.2475 -0.0773
  727MOL0     C  214  -1.668   1.109   0.593  0.8900  0.6683 -0.0768
  727MOL0     C  215  -1.782   1.019   0.589 -0.2953 -0.5553 -0.3523
  727MOL0     C  216  -1.898   1.064   0.504  0.2768 -0.4348  0.2314
  727MOL0     C  217  -1.776   0.899   0.665  0.1717 -0.5451  0.0178
  727MOL0     C  218  -1.882   0.797   0.675  0.1939 -0.5227 -0.3683
  727MOL0     O  219  -1.975   0.789   0.579 -0.3820  1.1325  0.0077
  727MOL0     C  220  -2.068   0.684   0.580 -0.7124 -0.2234  0.0049
  727MOL0     C  221  -2.172   0.689   0.670 -0.4353 -0.5068 -0.0086
  727MOL0     C  222  -2.267   0.585   0.665  0.6330  0.9452 -0.2047
  727MOL0     C  223  -2.266   0.482   0.567 -0.2301 -0.1237  0.6851
  727MOL0     O  224  -2.347   0.371   0.552 -0.1887  0.3774  0.4116
  727MOL0     C  225  -2.479   0.394   0.608 -0.5096 -0.8130  0.3704
  727MOL0     C  226  -2.574   0.491   0.535  0.1803 -0.3382 -0.1502
  727MOL0     C  227  -2.614   0.436   0.403 -0.1256  0.0700  0.2385
  727MOL0     C  228  -2.704   0.306   0.412 -0.4302  0.2347  1.0798
  727MOL0     C  229  -2.697   0.235   0.279 -0.4051  0.5566 -0.7471
  727MOL0     C  230  -2.573   0.137   0.291  0.1782 -0.3293  0.3883
  727MOL0     C  231  -2.537   0.074   0.163  0.4452 -0.4133  0.2328
  727MOL0     C  232  -2.478   0.171   0.067 -0.1518 -0.7725  0.1184
  727MOL0    Cl  233  -2.402   0.060  -0.059  0.4664 -0.4934  0.3348
  727MOL0     C  234  -2.161   0.495   0.481  0.2303 -0.8386 -0.1421
  727MOL0     C  235  -2.058   0.581   0.489  0.2630  0.0268  0.3948
  727MOL0     O  236  -1.885   0.735   0.782  0.2284 -0.0233 -0.5634
  727MOL0     C  237  -1.664   0.876   0.741 -0.8307  0.3160 -0.3980
  727MOL0     C  238  -1.559   0.971   0.751 -0.0938  0.5837  0.1988
  727MOL0     N  239  -1.017   1.261   0.656  0.7924 -0.6024 -0.7569
  727MOL0     N  240  -0.921   1.178   0.696 -0.2407 -0.3750  0.4767
  727MOL0     C  241   0.212   0.813   0.736 -0.9307  0.1813 -0.6343
  727MOL0     C  242   0.319   0.801   0.649  1.3264 -0.5017  0.1162
  727MOL0     C  243   0.701   0.928   0.422  0.8277 -0.6099  0.3303
  727MOL0     C  244   0.725   0.800   0.392 -0.1763  0.1229  0.2332
  727MOL0     C  245   0.853   0.758   0.377  1.2879  0.2152  0.5105
  727MOL0     C  246   0.961   0.845   0.393 -0.7619 -0.7357  0.7595
  727MOL0     O  247   1.093   0.800   0.374 -1.1174 -0.3549  0.1128
  727MOL0     C  248   1.121   0.691   0.472 -0.0303  0.2342  0.6050
  727MOL0     C  249   1.242   0.600   0.418  0.8938  0.0051 -0.3851
  727MOL0     C  250   1.235   0.568   0.269  0.5734 -0.5130  0.1221
  727MOL0     C  251   1.345   0.464   0.222 -1.2046  1.2645  0.5664
  727MOL0     C  252   1.314   0.398   0.094 -0.5735 -0.3823 -0.0754
  727MOL0     C  253   1.304   0.311  -0.001 -0.1462 -0.0876 -0.1782
  727MOL0     C  254   0.931   0.978   0.418 -1.0673  0.2232  0.2797
  727MOL0     C  255   0.802   1.021   0.436  0.6209 -0.6550 -0.7566
  727MOL0     C  256   0.778   1.154   0.494 -0.4281 -0.0922 -0.4528
  727MOL0     H  257   0.378   1.129   0.583 -0.4952  1.5020  0.3802
  727MOL0     H  258   0.215   1.154   0.769  2.7328  2.1117 -0.3223
  727MOL0     H  259  -0.061   0.821   0.773 -1.4146  0.1499 -1.4061
  727MOL0     H  260  -0.066   0.980   0.708  2.8682 -0.1992 -1.2403
  727MOL0     H  261  -0.263   0.933   0.879  0.2451 -0.3524  0.8940
  727MOL0     H  262  -0.154   0.915   1.005 -0.3077  0.3752  0.4288
  727MOL0     H  263  -0.139   1.145   1.030  0.6600  1.1615 -0.1960
  727MOL0     H  264  -0.137   1.174   0.853 -0.1073 -0.3937 -0.6499
  727MOL0     H  265  -0.351   1.263   0.924  2.7981  0.2457  2.0149
  727MOL0     H  266  -0.372   1.124   0.824 -0.6638  1.7130 -0.7752
  727MOL0     H  267  -0.433   1.179   1.112 -0.3253  2.5552 -1.3786
  727MOL0     H  268  -0.379   1.016   1.093 -0.8325  0.6426  0.0169
  727MOL0     H  269  -0.554   0.982   0.906 -3.9562  0.9992 -3.5139
  727MOL0     H  270  -0.615   1.012   1.069 -0.4758  0.3768 -0.4342
  727MOL0     H  271  -0.597   1.194   0.823  0.2253  0.0329  0.2960
  727MOL0     H  272  -0.635   1.266   0.978  1.7904  0.8623 -2.2495
  727MOL0     H  273  -0.803   1.028   0.881  0.2872  0.7838 -0.5841
  727MOL0     H  274  -0.831   1.142   1.008 -2.4547  0.4925 -1.7420
  727MOL0     H  275  -0.935   1.393   0.942 -2.6921 -1.7550  1.8976
  727MOL0     H  276  -1.122   1.533   0.671  0.5338 -1.7176 -2.1200
  727MOL0     H  277  -1.139   1.526   0.846 -0.9155 -0.9261 -0.5308
  727MOL0     H  278  -1.273   1.286   0.804 -0.8357  0.0422  1.3239
  727MOL0     H  279  -1.355   1.444   0.808  1.2363 -0.6234  3.5132
  727MOL0     H  280  -1.328   1.462   0.564  3.2968  1.0912  0.3903
  727MOL0     H  281  -1.259   1.292   0.553 -0.4544  0.1538 -1.2365
  727MOL0     H  282  -1.539   1.374   0.644 -1.4296  0.0717 -3.1728
  727MOL0     H  283  -1.489   1.268   0.509 -1.3053 -2.3541  0.8893
  727MOL0     H  284  -1.669   1.186   0.517  1.6050 -0.1620 -0.9487
  727MOL0     H  285  -1.986   1.044   0.566  0.4159 -0.4678  0.4175
  727MOL0     H  286  -1.896   1.002   0.414 -1.3397  0.7309 -0.6605
  727MOL0     H  287  -1.890   1.167   0.468  0.3030  0.2731  2.1372
  727MOL0     H  288  -2.157   0.766   0.744  1.7752 -0.3744 -0.5247
  727MOL0     H  289  -2.345   0.572   0.740  1.1694  1.0093  0.3700
  727MOL0     H  290  -2.515   0.292   0.588 -0.2188 -0.3304 -3.2024
  727MOL0     H  291  -2.487   0.411   0.716 -3.7675  2.4425 -0.1886
  727MOL0     H  292  -2.660   0.508   0.600 -0.2641  2.8641 -1.3922
  727MOL0     H  293  -2.518   0.585   0.524 -0.4019  0.2501  1.6186
  727MOL0     H  294  -2.523   0.420   0.345 -1.0815  2.7146 -2.2587
  727MOL0     H  295  -2.665   0.518   0.350 -4.4283 -2.5910 -0.2188
  727MOL0     H  296  -2.805   0.342   0.434 -0.1550 -0.8090  4.7528
  727MOL0     H  297  -2.681   0.247   0.501  1.1926  1.2747  1.3941
  727MOL0     H  298  -2.783   0.167   0.281 -0.4646  0.5935  2.0748
  727MOL0     H  299  -2.702   0.296   0.189 -2.8510 -1.1970 -1.9276
  727MOL0     H  300  -2.577   0.058   0.366 -0.5650 -1.6753 -1.0192
  727MOL0     H  301  -2.481   0.197   0.299  2.0199 -2.9522  0.2741
  727MOL0     H  302  -2.614   0.014   0.115  0.0801  1.3435 -1.5021
  727MOL0     H  303  -2.460   0.001   0.191  3.2851  2.1059 -0.5322
  727MOL0     H  304  -2.402   0.236   0.110 -0.0758  0.4629 -1.7555
  727MOL0     H  305  -2.554   0.236   0.024  0.7085  0.3117  0.2057
  727MOL0     H  306  -2.155   0.425   0.399  1.9796 -0.6095 -0.2501
  727MOL0     H  307  -1.975   0.584   0.419 -0.4330 -1.0631 -0.5339
  727MOL0     H  308  -1.663   0.806   0.824 -0.8147 -0.4090 -1.0048
  727MOL0     H  309  -1.475   0.948   0.817 -0.0509 -4.2137 -1.1377
  727MOL0     H  310   0.167   0.732   0.793  0.8287 -0.2272  0.2427
  727MOL0     H  311   0.350   0.699   0.629 -0.1070 -1.5383  2.6300
  727MOL0     H  312   0.643   0.728   0.391 -0.2464  0.2053  0.0682
  727MOL0     H  313   0.867   0.652   0.357  2.6398  0.0159  2.3099
  727MOL0     H  314   1.147   0.741   0.566  0.3372 -1.0564  1.2060
  727MOL0     H  315   1.027   0.636   0.477 -0.5628  1.0953  0.3747
  727MOL0     H  316   1.234   0.511   0.480 -1.4053  0.4033 -0.0158
  727MOL0     H  317   1.341   0.644   0.437  0.3383  0.3389  2.1315
  727MOL0     H  318   1.137   0.536   0.232 -0.7803  4.3668 -1.2870
  727MOL0     H  319   1.253   0.660   0.212  1.1244  1.6984  3.5808
  727MOL0     H  320   1.367   0.388   0.298 -1.5642 -0.5691 -1.0833
  727MOL0     H  321   1.432   0.528   0.205 -0.9488  0.5978 -0.7936
  727MOL0     H  322   1.285   0.238  -0.077  3.2399  1.8915 -3.2213
  727MOL0     H  323   1.010   1.053   0.416  0.9708 -1.8017  0.6477
  727MOL0     H  324   0.871   1.202   0.526 -1.7165  1.1530  1.6620
  727MOL0     H  325   0.723   1.218   0.425 -2.1355  1.6795  2.3259
  727MOL0     H  326   0.723   1.150   0.589 -0.0571 -1.1027 -0.2600
  728MOL0     O  327   7.666   0.688   4.691 -0.5218  0.2853 -0.2423
  728MOL0     C  328   7.689   0.789   4.623 -0.1483 -0.2096 -0.2052
  728MOL0     O  329   7.744   0.910   4.669  0.6380 -0.0460  0.0764
  728MOL0     C  330   7.841   0.887   4.767  0.7197 -0.6702 -0.6090
  728MOL0     C  331   7.958   0.809   4.746  1.0947  0.5452 -0.3696
  728MOL0     C  332   8.056   0.797   4.843  0.1830  0.5888 -0.5696
  728MOL0     C  333   8.029   0.858   4.967  1.0739 -0.1819  0.0535
  728MOL0     O  334   8.125   0.871   5.068  0.4451 -0.4144  0.3414
  728MOL0     C  335   8.245   0.800   5.060 -0.2278  0.1692  0.3631
  728MOL0     C  336   8.325   0.825   5.192 -0.1637  0.1255 -0.0798
  728MOL0     C  337   8.457   0.759   5.182 -0.5926  0.8038 -0.3104
  728MOL0     C  338   8.441   0.611   5.209 -0.9110  0.2131  0.6863
  728MOL0     C  339   8.569   0.545   5.256 -0.5529  0.2415  0.3724
  728MOL0     C  340   8.663   0.529   5.138  0.5236  0.4288 -0.0274
  728MOL0     C  341   8.794   0.479   5.190  0.2441 -0.5568 -0.0837
  728MOL0     C  342   8.881   0.438   5.067  0.2498 -0.1425  0.3155
  728MOL0     N  343   9.019   0.396   5.106  0.5549  0.2020 -0.7838
  728MOL0     C  344   9.117   0.480   5.138 -0.4706  0.3447 -0.2804
  728MOL0     C  345   9.236   0.417   5.133 -0.1170 -0.4407  0.7614
  728MOL0     C  346   9.376   0.482   5.136  0.0132  0.4870 -0.3429
  728MOL0     C  347   9.393   0.597   5.034  0.1687  0.7317 -0.4960
  728MOL0     C  348   9.526   0.665   5.056  0.4553 -0.7006  0.4457
  728MOL0     C  349   9.531   0.801   4.982  0.0414 -0.4643 -0.1335
  728MOL0     O  350   9.663   0.859   4.982  0.3318  0.6358  0.2204
  728MOL0     C  351   9.749   0.788   4.899  0.1262  0.3599 -0.4769
  728MOL0     C  352   9.854   0.714   4.953 -0.0645 -1.1061  0.7869
  728MOL0     C  353   9.930   0.625   4.872  0.5843 -0.7435  0.7281
  728MOL0     C  354  10.052   0.557   4.940  0.0841 -0.2389  0.5333
  728MOL0     C  355   9.898   0.613   4.733 -0.8512 -0.1777 -0.0119
  728MOL0     C  356   9.987   0.536   4.633  0.0605  0.0766  0.6673
  728MOL0     O  357   9.973   0.569   4.499  0.0724  0.4394 -0.1065
  728MOL0     C  358  10.004   0.482   4.390 -0.4519 -0.5550  0.6096
  728MOL0     C  359  10.065   0.367   4.410 -0.2356  0.0026  0.9077
  728MOL0     C  360  10.109   0.282   4.301  0.0994  0.2434 -1.0329
  728MOL0     C  361  10.080   0.316   4.170 -1.1831 -0.0494  1.1738
  728MOL0     O  362  10.122   0.235   4.054  0.2986  0.4086 -0.0764
  728MOL0     C  363  10.227   0.296   3.973 -0.1699 -0.0023 -0.1284
  728MOL0     C  364  10.346   0.214   3.948  0.9113 -0.6326 -0.2093
  728MOL0     C  365  10.330   0.123   3.821 -0.8333  0.0885  0.3942
  728MOL0     C  366  10.440   0.019   3.830  0.2310 -0.0318  0.5517
  728MOL0     C  367  10.399  -0.100   3.754 -0.1672  0.2224  0.7652
  728MOL0     C  368  10.499  -0.219   3.762 -0.0757 -0.3329 -0.1609
  728MOL0     C  369  10.449  -0.336   3.699  0.3473  0.2524  1.2765
  728MOL0     C  370  10.547  -0.430   3.636  0.1428  0.1182 -0.8426
  728MOL0    Cl  371  10.471  -0.581   3.573 -0.2600  0.2585  0.1297
  728MOL0     C  372  10.010   0.436   4.147  0.1935 -0.6444  0.4157
  728MOL0     C  373   9.981   0.518   4.252 -0.1453  1.0969 -0.1091
  728MOL0     O  374  10.069   0.464   4.685  0.2653 -0.2698 -0.0842
  728MOL0     C  375   9.801   0.698   4.681 -1.0726 -0.1038  0.2919
  728MOL0     C  376   9.733   0.785   4.768  0.1475  0.0027  0.6235
  728MOL0     N  377   9.205   0.286   5.084  0.0897 -0.5469  0.0593
  728MOL0     N  378   9.081   0.280   5.070 -0.5964  1.1633 -0.2735
  728MOL0     C  379   7.910   0.927   4.987 -0.4315  0.1078  0.4381
  728MOL0     C  380   7.818   0.940   4.892  0.2215 -0.9365 -0.0571
  728MOL0     C  381   7.627   0.782   4.487  0.7691 -0.0749 -0.3576
  728MOL0     C  382   7.634   0.897   4.409  0.2938 -0.4993 -0.5527
  728MOL0     C  383   7.604   0.910   4.279  0.7981 -0.0928  0.1108
  728MOL0     C  384   7.540   0.793   4.226  0.3040 -0.5872  0.8102
  728MOL0     O  385   7.491   0.790   4.092  1.1839 -0.4861  0.7168
  728MOL0     C  386   7.485   0.915   4.022  0.2839  0.4650 -0.1351
  728MOL0     C  387   7.368   0.901   3.925 -0.9157 -0.9524  0.5216
  728MOL0     C  388   7.398   0.988   3.804 -0.3004 -0.2337  0.2205
  728MOL0     C  389   7.493   0.940   3.699 -0.8079  0.9487  0.4683
  728MOL0     C  390   7.431   0.855   3.600  0.1178 -0.5521 -0.0765
  728MOL0     C  391   7.386   0.778   3.528  0.2714  0.5487 -0.8465
  728MOL0     C  392   7.520   0.683   4.300  0.0801 -0.1568 -1.0016
  728MOL0     C  393   7.562   0.671   4.435  0.5373  0.2898  0.5100
  728MOL0     C  394   7.525   0.550   4.509 -0.9896  0.1894  0.4419
  728MOL0     H  395   7.984   0.768   4.649  2.4346  0.7625 -0.1206
  728MOL0     H  396   8.147   0.742   4.825 -1.0333 -1.4978 -0.6091
  728MOL0     H  397   8.306   0.815   4.971  0.1501  0.4029  0.6584
  728MOL0     H  398   8.227   0.692   5.050 -2.0806  0.5594 -1.1875
  728MOL0     H  399   8.339   0.933   5.203 -0.5692  0.1064  0.6628
  728MOL0     H  400   8.266   0.797   5.280 -1.2112  2.9566  0.2331
  728MOL0     H  401   8.498   0.754   5.081 -0.6800 -0.2880 -0.3038
  728MOL0     H  402   8.523   0.806   5.255  2.3342 -1.4433 -1.3391
  728MOL0     H  403   8.374   0.581   5.289 -0.0760 -2.4961  0.4817
  728MOL0     H  404   8.396   0.564   5.120  1.2996  2.0578 -1.5751
  728MOL0     H  405   8.540   0.447   5.297 -1.8843  0.4716  0.0345
  728MOL0     H  406   8.617   0.585   5.346  1.4451 -0.6595 -0.2352
  728MOL0     H  407   8.614   0.454   5.075 -2.8286  3.8392 -1.8990
  728MOL0     H  408   8.673   0.619   5.077 -0.0732 -0.1053 -0.9394
  728MOL0     H  409   8.783   0.399   5.264  4.4662 -1.1516  0.1339
  728MOL0     H  410   8.832   0.569   5.240 -0.8677  1.6842 -3.0061
  728MOL0     H  411   8.830   0.361   5.008  0.4693 -0.5583  0.6626
  728MOL0     H  412   8.898   0.528   5.008 -0.9400  2.0751  3.1540
  728MOL0     H  413   9.102   0.586   5.153 -0.8476  0.0194  2.0992
  728MOL0     H  414   9.460   0.413   5.125  1.1559  1.6477  0.7380
  728MOL0     H  415   9.402   0.522   5.234  2.1808 -1.6032  0.0372
  728MOL0     H  416   9.395   0.555   4.933 -1.5471 -0.6428 -0.0033
  728MOL0     H  417   9.312   0.670   5.043  1.2673  2.2163 -1.8359
  728MOL0     H  418   9.541   0.684   5.163  1.4930 -0.1526  0.2227
  728MOL0     H  419   9.606   0.597   5.023 -0.4630 -1.2533 -0.6863
  728MOL0     H  420   9.493   0.792   4.880  2.9141 -3.1181 -1.1317
  728MOL0     H  421   9.462   0.865   5.038 -0.9362 -2.1545  0.6754
  728MOL0     H  422   9.892   0.730   5.053 -2.0697  0.1456  1.3968
  728MOL0     H  423  10.056   0.568   5.049  1.1841  2.9078  0.2898
  728MOL0     H  424  10.140   0.604   4.896 -1.3444  2.7746  0.6146
  728MOL0     H  425  10.052   0.449   4.929 -1.7511 -0.5202  2.6122
  728MOL0     H  426  10.107   0.341   4.507  1.5243 -1.7953 -0.2583
  728MOL0     H  427  10.161   0.191   4.328 -2.5629 -1.1902 -0.4262
  728MOL0     H  428  10.180   0.319   3.877 -1.5424 -0.1095  0.4921
  728MOL0     H  429  10.264   0.383   4.027  0.3229  0.9356 -1.9153
  728MOL0     H  430  10.423   0.289   3.929  0.2866  0.7595  2.2758
  728MOL0     H  431  10.378   0.160   4.038  3.6875  2.6602  1.0031
  728MOL0     H  432  10.326   0.177   3.726 -0.3170  1.5130  1.1598
  728MOL0     H  433  10.231   0.077   3.828 -1.1123  0.3032 -1.5799
  728MOL0     H  434  10.450  -0.013   3.935  0.1258 -4.4017 -0.5797
  728MOL0     H  435  10.529   0.071   3.794 -0.9644  2.5030  0.9997
  728MOL0     H  436  10.303  -0.145   3.783  1.0316 -0.9889  3.2379
  728MOL0     H  437  10.385  -0.074   3.649 -1.3282 -2.0274  0.3032
  728MOL0     H  438  10.512  -0.244   3.868  0.6417 -0.5245 -0.2893
  728MOL0     H  439  10.598  -0.202   3.720  0.5121 -1.0762  0.8745
  728MOL0     H  440  10.379  -0.318   3.617  2.4322  1.0129 -0.4167
  728MOL0     H  441  10.387  -0.389   3.773 -2.7910  0.2735 -1.0939
  728MOL0     H  442  10.630  -0.437   3.707 -0.0607  5.4327  0.2919
  728MOL0     H  443  10.592  -0.378   3.551  0.7194 -0.4675 -0.9151
  728MOL0     H  444   9.973   0.478   4.054 -0.4068 -1.7108  0.1491
  728MOL0     H  445   9.935   0.613   4.228  0.6125  1.1331 -1.5905
  728MOL0     H  446   9.776   0.701   4.576  0.1090  1.1384  0.0167
  728MOL0     H  447   9.649   0.843   4.729 -1.3923 -0.0628  3.5820
  728MOL0     H  448   7.888   0.977   5.081 -1.5136  0.8358 -0.1752
  728MOL0     H  449   7.733   1.006   4.905 -0.6974 -1.6237 -2.0136
  728MOL0     H  450   7.692   0.982   4.443 -0.8126 -0.4926  1.4663
  728MOL0     H  451   7.626   1.004   4.228 -1.4105 -0.4665 -1.7163
  728MOL0     H  452   7.456   0.997   4.089 -0.0374 -0.3887  0.8085
  728MOL0     H  453   7.581   0.932   3.973  1.2115 -3.3622  0.0570
  728MOL0     H  454   7.275   0.933   3.971 -1.0105  0.3073 -0.4773
  728MOL0     H  455   7.369   0.798   3.888  1.8558 -0.5234 -0.8978
  728MOL0     H  456   7.306   1.021   3.755  0.9642  0.3219 -1.9072
  728MOL0     H  457   7.441   1.080   3.844 -1.7948 -0.0529  1.4900
  728MOL0     H  458   7.573   0.889   3.754 -0.2713  1.1529 -0.1097
  728MOL0     H  459   7.544   1.018   3.642 -2.2172  0.8403 -1.0138
  728MOL0     H  460   7.348   0.705   3.459 -0.2751  0.8453 -0.8664
  728MOL0     H  461   7.462   0.602   4.258 -0.4091 -1.1549  1.4444
  728MOL0     H  462   7.615   0.499   4.544  0.4732  3.7610  2.4359
  728MOL0     H  463   7.456   0.563   4.593  1.3344  2.2463  2.1578
  728MOL0     H  464   7.475   0.491   4.431 -0.4691  3.3252 -2.4968
  729MOL0     O  465   0.889   5.944   8.525 -0.1065 -0.2771  0.3918
  729MOL0     C  466   0.874   5.926   8.402 -1.0590  0.6821 -0.5292
  729MOL0     O  467   0.917   6.011   8.307  0.7372 -0.5139  0.7541
  729MOL0     C  468   0.997   6.120   8.336 -0.4495  0.3276  0.2401
  729MOL0     C  469   1.133   6.099   8.348 -0.8709 -0.2937 -0.4942
  729MOL0     C  470   1.217   6.208   8.383 -0.0877 -0.2146 -0.0376
  729MOL0     C  471   1.159   6.336   8.410  0.6884 -0.1699 -0.1064
  729MOL0     O  472   1.247   6.430   8.447 -0.0912  0.6053 -0.7336
  729MOL0     C  473   1.216   6.571   8.464  0.6589 -0.9396  0.1551
  729MOL0     C  474   1.208   6.649   8.329 -0.4623 -0.3469 -0.1367
  729MOL0     C  475   1.171   6.798   8.348  0.9324  0.0987  0.5072
  729MOL0     C  476   1.021   6.801   8.373  0.4578  0.8610 -1.1290
  729MOL0     C  477   0.981   6.935   8.423 -1.3701 -0.4777  0.0825
  729MOL0     C  478   0.830   6.961   8.432  0.2064 -0.8747 -0.6065
  729MOL0     C  479   0.751   6.874   8.525  0.1973 -0.1407  0.1585
  729MOL0     C  480   0.631   6.939   8.572 -0.2109  1.2047 -0.1929
  729MOL0     N  481   0.555   6.868   8.679  0.1840  0.0592 -0.1628
  729MOL0     C  482   0.492   6.748   8.670 -1.2089 -0.2167  0.5669
  729MOL0     C  483   0.457   6.722   8.800 -0.4303 -0.6923  0.1217
  729MOL0     C  484   0.387   6.607   8.865 -0.1616  0.2631  0.3073
  729MOL0     C  485   0.259   6.558   8.788 -0.0716 -0.7778  0.2772
  729MOL0     C  486   0.184   6.447   8.865 -0.0205  0.3784 -0.6115
  729MOL0     C  487   0.058   6.417   8.773 -0.1842 -1.1527  0.0681
  729MOL0     O  488   0.103   6.347   8.663  0.3019 -0.0629  0.0586
  729MOL0     C  489  -0.006   6.345   8.571  0.7881 -0.1227 -0.5030
  729MOL0     C  490  -0.142   6.393   8.583 -0.5496 -0.1473 -0.2603
  729MOL0     C  491  -0.236   6.372   8.479 -0.3041 -0.1035  0.1477
  729MOL0     C  492  -0.366   6.445   8.495  0.2107 -0.1067 -0.5965
  729MOL0     C  493  -0.199   6.300   8.365 -0.5682 -0.1195 -0.7023
  729MOL0     C  494  -0.279   6.290   8.246  1.0463  0.1589  0.2497
  729MOL0     O  495  -0.257   6.178   8.169 -0.1793 -0.2256 -0.4160
  729MOL0     C  496  -0.316   6.173   8.046  0.1620  0.0754  0.3654
  729MOL0     C  497  -0.329   6.049   7.983 -0.0367  0.1486 -0.4883
  729MOL0     C  498  -0.374   6.039   7.851  0.3422 -0.5384 -0.1434
  729MOL0     C  499  -0.402   6.151   7.770 -0.1576  0.6061 -0.7867
  729MOL0     O  500  -0.463   6.129   7.654 -0.2483 -0.4368  0.8823
  729MOL0     C  501  -0.455   6.012   7.572 -0.4650  1.1855  1.0969
  729MOL0     C  502  -0.304   6.005   7.532  0.4977 -0.3189  0.4334
  729MOL0     C  503  -0.292   5.912   7.414 -0.5191  0.4544 -0.1487
  729MOL0     C  504  -0.149   5.896   7.361 -0.5526 -0.0672  0.1316
  729MOL0     C  505  -0.153   5.793   7.257 -0.7527  0.8836  0.1840
  729MOL0     C  506  -0.128   5.854   7.126  0.2978  0.4849  0.4429
  729MOL0     C  507  -0.103   5.729   7.034 -0.1379 -0.1710 -0.2114
  729MOL0     C  508  -0.029   5.761   6.902 -0.0991  0.1256 -0.2324
  729MOL0    Cl  509   0.030   5.609   6.821  0.2979  0.3142  0.5627
  729MOL0     C  510  -0.377   6.272   7.825 -0.5784  0.0215 -0.5427
  729MOL0     C  511  -0.334   6.286   7.961 -0.4086  0.1067  0.5926
  729MOL0     O  512  -0.371   6.371   8.222 -0.1696 -0.2990 -1.2565
  729MOL0     C  513  -0.076   6.233   8.361 -0.0920  0.6913  0.0968
  729MOL0     C  514   0.024   6.262   8.459  0.5686  0.3420 -0.0488
  729MOL0     N  515   0.506   6.824   8.879  0.2845  0.1690  0.1943
  729MOL0     N  516   0.554   6.918   8.812 -0.3455 -0.5188  0.6457
  729MOL0     C  517   1.020   6.347   8.409 -0.8254  0.2589 -1.0447
  729MOL0     C  518   0.945   6.240   8.368 -0.5821  0.7536  0.3172
  729MOL0     C  519   0.795   5.810   8.367  0.0056 -0.1148 -0.3467
  729MOL0     C  520   0.672   5.799   8.434  0.4874  0.3589  0.0713
  729MOL0     C  521   0.582   5.696   8.405  0.3064 -1.2525 -0.0163
  729MOL0     C  522   0.622   5.604   8.313  0.1417  0.2563  0.2297
  729MOL0     O  523   0.523   5.512   8.277 -0.3417 -0.0206  0.4014
  729MOL0     C  524   0.560   5.378   8.239 -0.1539 -0.4841 -0.1984
  729MOL0     C  525   0.598   5.290   8.357 -0.1837  0.9089  0.2109
  729MOL0     C  526   0.640   5.151   8.310  0.0287 -0.4048  0.3397
  729MOL0     C  527   0.572   5.047   8.401 -0.3294  0.1286 -0.4503
  729MOL0     C  528   0.647   4.923   8.376 -0.0152 -0.1558  1.1687
  729MOL0     C  529   0.694   4.817   8.339  0.8490  0.8116 -0.6594
  729MOL0     C  530   0.746   5.604   8.258 -0.5290 -0.2638  0.6711
  729MOL0     C  531   0.836   5.708   8.278  0.8696 -0.2834 -0.0536
  729MOL0     C  532   0.960   5.726   8.196  0.0894 -0.6091 -1.0282
  729MOL0     H  533   1.188   6.006   8.331  1.5529  1.3570 -2.3924
  729MOL0     H  534   1.319   6.198   8.418 -0.5054 -2.1952  0.7318
  729MOL0     H  535   1.287   6.620   8.532 -1.5707  2.6656  0.1673
  729MOL0     H  536   1.124   6.574   8.524  0.7550 -1.3891  0.3341
  729MOL0     H  537   1.315   6.647   8.305 -0.6288 -0.2374 -0.9104
  729MOL0     H  538   1.150   6.595   8.253  0.4083 -0.3040 -0.8480
  729MOL0     H  539   1.231   6.844   8.426  0.9075 -1.7310  1.6692
  729MOL0     H  540   1.181   6.842   8.248 -1.3566 -0.5053 -0.0579
  729MOL0     H  541   0.972   6.769   8.280 -0.2423 -1.0965 -0.1368
  729MOL0     H  542   0.987   6.727   8.445  0.8080  0.2981 -1.5369
  729MOL0     H  543   1.027   6.999   8.347  1.2976  0.9179  2.6668
  729MOL0     H  544   1.038   6.947   8.515 -0.4213 -3.6603  0.0350
  729MOL0     H  545   0.833   7.062   8.473  0.1632 -0.7991 -0.7879
  729MOL0     H  546   0.781   6.952   8.335 -0.3747  0.4504 -0.4474
  729MOL0     H  547   0.816   6.838   8.606 -0.2659 -1.8744 -0.1932
  729MOL0     H  548   0.737   6.781   8.468  3.4435 -0.2173 -0.7665
  729MOL0     H  549   0.656   7.034   8.618 -1.7886  1.6100 -0.1351
  729MOL0     H  550   0.575   6.951   8.479  1.4896  2.0219 -1.1658
  729MOL0     H  551   0.463   6.685   8.587  1.8518 -2.2451  0.8654
  729MOL0     H  552   0.357   6.636   8.967 -0.2956 -1.9343  0.9457
  729MOL0     H  553   0.447   6.516   8.871 -1.1074 -0.3217  1.0644
  729MOL0     H  554   0.187   6.637   8.764 -0.1110 -1.5803 -2.5375
  729MOL0     H  555   0.299   6.531   8.690  1.1356  3.7176 -0.6880
  729MOL0     H  556   0.249   6.359   8.874  2.0422  1.5939 -2.5213
  729MOL0     H  557   0.152   6.485   8.962  1.2226  0.0346 -0.0409
  729MOL0     H  558  -0.005   6.363   8.844  1.4343 -2.4350  0.5894
  729MOL0     H  559   0.010   6.512   8.747  0.1464 -1.4842 -1.9339
  729MOL0     H  560  -0.160   6.449   8.673  0.7862  0.8428 -0.5720
  729MOL0     H  561  -0.444   6.382   8.449 -0.2118  0.5674 -0.8148
  729MOL0     H  562  -0.354   6.541   8.445  0.8468  0.3135  0.3240
  729MOL0     H  563  -0.395   6.441   8.601 -0.2769  0.6588 -0.6917
  729MOL0     H  564  -0.291   5.963   8.037  2.9988  0.4894 -1.8799
  729MOL0     H  565  -0.371   5.933   7.826  3.0475 -0.1819 -1.6080
  729MOL0     H  566  -0.489   5.926   7.630  0.0430  2.0632  2.7737
  729MOL0     H  567  -0.516   6.016   7.482  1.0537  1.5896  0.0454
  729MOL0     H  568  -0.256   6.100   7.506  4.9484 -1.1285  4.4563
  729MOL0     H  569  -0.239   5.969   7.612  2.6211  0.6703 -0.7770
  729MOL0     H  570  -0.344   5.961   7.331 -0.1992  0.6439 -0.2365
  729MOL0     H  571  -0.333   5.811   7.427  0.6896 -0.3463 -2.1956
  729MOL0     H  572  -0.099   5.857   7.450 -0.1677  1.0582  0.4266
  729MOL0     H  573  -0.103   5.990   7.330  1.1840 -0.9623 -0.0788
  729MOL0     H  574  -0.063   5.735   7.279 -0.5127  1.3566  0.4586
  729MOL0     H  575  -0.242   5.731   7.244  1.1196 -1.3809 -3.5302
  729MOL0     H  576  -0.047   5.928   7.127 -1.1410  2.3468 -2.7218
  729MOL0     H  577  -0.217   5.907   7.090  0.8587 -0.1564 -2.1472
  729MOL0     H  578  -0.192   5.669   7.020  0.2803 -0.8090 -0.1662
  729MOL0     H  579  -0.033   5.657   7.078 -1.7323 -1.8882 -0.3884
  729MOL0     H  580   0.049   5.837   6.914  0.7679 -1.1348  3.5418
  729MOL0     H  581  -0.104   5.798   6.831 -0.2272 -2.6513 -1.7024
  729MOL0     H  582  -0.376   6.364   7.768  1.9629 -0.4463 -1.3864
  729MOL0     H  583  -0.328   6.389   7.995 -1.1086 -0.3209  2.1017
  729MOL0     H  584  -0.051   6.162   8.282  0.6735 -0.3397  1.2205
  729MOL0     H  585   0.120   6.214   8.466  1.1613  1.5116  0.1501
  729MOL0     H  586   0.971   6.442   8.426 -1.5768  0.0653 -2.0406
  729MOL0     H  587   0.840   6.265   8.365 -0.8788 -0.5016 -0.9040
  729MOL0     H  588   0.645   5.870   8.512 -4.8164 -2.1056  0.9552
  729MOL0     H  589   0.486   5.673   8.450 -0.8586  1.3629 -0.9576
  729MOL0     H  590   0.471   5.331   8.198  0.0990 -2.9707  1.8348
  729MOL0     H  591   0.627   5.375   8.152 -0.4238  2.1727 -0.5853
  729MOL0     H  592   0.516   5.284   8.429 -0.4989 -0.4961 -0.2204
  729MOL0     H  593   0.682   5.328   8.414  1.3057  0.6055 -1.6870
  729MOL0     H  594   0.614   5.134   8.205 -0.6696 -2.1134  0.7452
  729MOL0     H  595   0.749   5.143   8.315  0.0666 -0.2542 -0.1767
  729MOL0     H  596   0.468   5.034   8.370 -2.0371 -0.9364  4.7571
  729MOL0     H  597   0.581   5.064   8.509  2.5015 -1.4863 -0.3498
  729MOL0     H  598   0.733   4.730   8.291  1.6617  1.1914 -0.6984
  729MOL0     H  599   0.766   5.526   8.185 -1.6876 -1.3668  1.4851
  729MOL0     H  600   0.987   5.629   8.153  2.0783 -1.0061  0.9213
  729MOL0     H  601   0.941   5.796   8.114  0.0889  0.3401 -0.2325
  729MOL0     H  602   1.045   5.755   8.259  0.3740  0.3368 -1.8316
  730MOL0     O  603   9.953   6.073   6.311  0.1048  1.1714 -0.7529
  730MOL0     C  604  10.035   6.007   6.378 -0.1158 -0.7230 -0.0054
  730MOL0     O  605  10.083   6.051   6.495 -0.1255 -0.4664 -0.2082
  730MOL0     C  606  10.058   6.179   6.548  0.6350 -0.6745 -0.2709
  730MOL0     C  607  10.042   6.192   6.691  0.0244  1.0322 -0.0656
  730MOL0     C  608  10.030   6.316   6.748 -0.0449 -0.3900  0.0494
  730MOL0     C  609  10.019   6.436   6.666 -0.8041  0.0194  0.2074
  730MOL0     O  610  10.006   6.553   6.739 -0.7024  0.3624 -0.2052
  730MOL0     C  611  10.000   6.673   6.667  0.6498 -0.4630  1.0350
  730MOL0     C  612   9.929   6.785   6.752 -0.0015 -0.4158  0.3629
  730MOL0     C  613   9.778   6.781   6.760 -0.0172  0.3708 -0.1667
  730MOL0     C  614   9.721   6.879   6.847  0.0611 -0.5061 -0.8983
  730MOL0     C  615   9.567   6.871   6.834  0.6698  0.3484  1.1723
  730MOL0     C  616   9.486   6.898   6.965  0.0660 -0.5301 -0.1314
  730MOL0     C  617   9.339   6.867   6.937 -0.4344 -0.7397  0.6322
  730MOL0     C  618   9.258   6.906   7.061  0.2948 -0.0472  0.2853
  730MOL0     N  619   9.274   6.832   7.181  0.7633 -0.1528 -0.5674
  730MOL0     C  620   9.326   6.882   7.295  0.2406 -0.6452  0.5977
  730MOL0     C  621   9.308   6.784   7.384  0.9133  0.0663 -0.4516
  730MOL0     C  622   9.334   6.797   7.529 -0.6080 -0.1431 -0.7662
  730MOL0     C  623   9.275   6.929   7.596  0.2148  1.3457 -0.4078
  730MOL0     C  624   9.127   6.938   7.556  0.5328  0.1749  0.6034
  730MOL0     C  625   9.052   7.034   7.645  0.7097  1.0751  0.3369
  730MOL0     O  626   8.914   7.057   7.598  0.3250 -0.5620  0.4092
  730MOL0     C  627   8.824   6.953   7.630  0.4987 -0.1600  0.4498
  730MOL0     C  628   8.854   6.834   7.697 -0.8784 -0.7035 -0.9580
  730MOL0     C  629   8.755   6.733   7.714 -0.2330  0.1201 -0.2408
  730MOL0     C  630   8.795   6.604   7.782  0.1285  0.1685 -1.5328
  730MOL0     C  631   8.635   6.756   7.648  0.4016  1.1880  0.6719
  730MOL0     C  632   8.526   6.647   7.633 -0.5907 -0.4354  0.0218
  730MOL0     O  633   8.515   6.553   7.728 -0.2371 -0.6723 -0.3881
  730MOL0     C  634   8.431   6.447   7.720 -1.1008 -0.8313  0.4298
  730MOL0     C  635   8.346   6.430   7.819 -0.1285 -0.0837 -0.5444
  730MOL0     C  636   8.229   6.345   7.815  0.0182  0.1135 -0.2148
  730MOL0     C  637   8.225   6.269   7.701  0.1309 -0.0469  0.1073
  730MOL0     O  638   8.118   6.188   7.695  0.5101  0.0344 -0.0138
  730MOL0     C  639   8.135   6.044   7.727 -0.9708 -0.5441  0.1737
  730MOL0     C  640   7.997   5.983   7.763 -0.9133 -0.5683  0.6813
  730MOL0     C  641   7.936   6.045   7.894  0.0782  0.3361  0.3357
  730MOL0     C  642   7.826   5.962   7.949 -0.6825  0.5613  0.3439
  730MOL0     C  643   7.793   6.019   8.089  1.2164 -0.8104  0.7205
  730MOL0     C  644   7.752   6.173   8.081 -0.0713  0.1085 -0.2955
  730MOL0     C  645   7.701   6.234   8.208 -1.0416 -0.0987  0.0550
  730MOL0     C  646   7.801   6.229   8.320 -1.3931 -0.5228  0.2695
  730MOL0    Cl  647   7.960   6.310   8.279  0.3638  0.2513 -0.0413
  730MOL0     C  648   8.308   6.270   7.594  0.8174  0.0723 -0.3515
  730MOL0     C  649   8.405   6.365   7.604 -0.3895 -0.1164  0.6947
  730MOL0     O  650   8.454   6.651   7.530  0.3745 -0.4885 -0.0395
  730MOL0     C  651   8.608   6.875   7.585  0.0686 -0.3375 -0.0851
  730MOL0     C  652   8.701   6.972   7.565 -0.0733  0.2223  0.7853
  730MOL0     N  653   9.240   6.675   7.325  0.4252  0.3440  0.2052
  730MOL0     N  654   9.229   6.701   7.204 -0.0053  0.4036 -0.1197
  730MOL0     C  655  10.039   6.423   6.529  0.5431  0.7402 -0.8012
  730MOL0     C  656  10.069   6.300   6.474 -0.0578 -0.6415 -1.1097
  730MOL0     C  657  10.086   5.865   6.344 -1.4465 -0.1861 -0.1906
  730MOL0     C  658  10.160   5.795   6.444 -0.3522 -0.1910 -0.0321
  730MOL0     C  659  10.216   5.667   6.423  0.4267 -0.5355  0.0668
  730MOL0     C  660  10.211   5.613   6.294  0.0087  0.4204  0.8908
  730MOL0     O  661  10.250   5.487   6.262  0.1324 -0.4813  0.6116
  730MOL0     C  662  10.177   5.385   6.340  0.4677 -0.4468  0.3274
  730MOL0     C  663  10.164   5.258   6.243  0.2646 -0.4016 -0.5437
  730MOL0     C  664  10.286   5.170   6.231 -0.0537  0.2587  1.1150
  730MOL0     C  665  10.256   5.055   6.132  0.6328 -0.4247  0.1864
  730MOL0     C  666  10.165   4.951   6.193 -0.0145  0.7986  0.8141
  730MOL0     C  667  10.101   4.877   6.260 -0.9484 -0.0388  0.0239
  730MOL0     C  668  10.147   5.683   6.196 -0.4202 -0.1437 -0.7599
  730MOL0     C  669  10.079   5.805   6.212 -0.6390  0.5702 -0.8278
  730MOL0     C  670  10.031   5.886   6.095 -0.0509  0.1278 -0.1417
  730MOL0     H  671  10.040   6.105   6.756 -0.4606 -0.3297 -1.8263
  730MOL0     H  672  10.021   6.347   6.852  0.9988  0.1356 -0.0119
  730MOL0     H  673   9.942   6.665   6.574  3.3026  2.7941 -1.1601
  730MOL0     H  674  10.104   6.700   6.645  1.0321  0.3970  3.5615
  730MOL0     H  675   9.971   6.788   6.853  1.0128  0.2925 -0.0623
  730MOL0     H  676   9.946   6.883   6.708 -1.8615  0.2426  0.9869
  730MOL0     H  677   9.739   6.800   6.660 -1.7846 -3.1695 -0.3264
  730MOL0     H  678   9.750   6.682   6.799  1.2196  1.0208  2.5828
  730MOL0     H  679   9.768   6.861   6.945  0.8838 -2.3640 -1.5871
  730MOL0     H  680   9.762   6.975   6.815  2.2695 -1.3181 -0.6823
  730MOL0     H  681   9.534   6.775   6.793  2.0711 -0.6185  2.2118
  730MOL0     H  682   9.548   6.950   6.760 -0.0758 -1.0426 -0.1693
  730MOL0     H  683   9.509   6.838   7.054 -1.1992  0.1191  0.6642
  730MOL0     H  684   9.498   7.002   6.996 -0.2323 -0.6771  0.4935
  730MOL0     H  685   9.329   6.760   6.915  2.0291 -0.5723 -1.7653
  730MOL0     H  686   9.317   6.919   6.844  0.4386 -0.4614  0.5741
  730MOL0     H  687   9.285   7.011   7.075 -2.8178  1.4526 -3.4594
  730MOL0     H  688   9.155   6.896   7.026  0.4951  1.0681 -0.6483
  730MOL0     H  689   9.366   6.980   7.320 -1.2410 -0.0473  0.7266
  730MOL0     H  690   9.443   6.788   7.534 -0.6685 -0.9520  3.8527
  730MOL0     H  691   9.291   6.705   7.569 -2.7060  0.7404 -0.8672
  730MOL0     H  692   9.274   6.911   7.704  0.6451  0.3761 -0.5547
  730MOL0     H  693   9.321   7.020   7.555 -1.0929  1.6405 -1.2603
  730MOL0     H  694   9.116   6.972   7.452  2.6030 -0.7173  0.0457
  730MOL0     H  695   9.082   6.840   7.577  1.1924 -0.9829 -2.6727
  730MOL0     H  696   9.042   6.995   7.747  0.3011  0.8439  0.2106
  730MOL0     H  697   9.113   7.125   7.645  2.0632  0.2279  1.5446
  730MOL0     H  698   8.951   6.820   7.745 -0.4024  1.8184 -1.0786
  730MOL0     H  699   8.897   6.621   7.816 -0.5082  2.8015 -0.7072
  730MOL0     H  700   8.800   6.509   7.728 -0.1701 -2.2238  2.2780
  730MOL0     H  701   8.727   6.577   7.863  0.6830  0.9266 -0.7955
  730MOL0     H  702   8.359   6.488   7.910  0.8558  1.5910 -1.7204
  730MOL0     H  703   8.149   6.348   7.889  0.2604  1.8436  0.0011
  730MOL0     H  704   8.189   5.996   7.644 -1.6825  3.8902 -3.2488
  730MOL0     H  705   8.203   6.033   7.812 -1.2270 -0.2986  0.4131
  730MOL0     H  706   7.923   6.002   7.684 -2.0895  1.2879  2.1271
  730MOL0     H  707   8.009   5.874   7.762 -0.8544 -0.6169  2.9497
  730MOL0     H  708   7.890   6.140   7.864 -0.1272  0.2038  0.2263
  730MOL0     H  709   8.013   6.061   7.969  2.0181 -2.0270 -1.0248
  730MOL0     H  710   7.850   5.856   7.962  1.6603  1.3158  3.5595
  730MOL0     H  711   7.743   5.977   7.880  0.0552  2.0403 -0.2868
  730MOL0     H  712   7.699   5.968   8.111 -1.0458  1.6519 -2.3543
  730MOL0     H  713   7.876   5.994   8.155  2.2058  0.6222  0.0636
  730MOL0     H  714   7.667   6.178   8.011 -0.4057 -1.3546 -0.0328
  730MOL0     H  715   7.832   6.234   8.037 -0.9631  0.4727 -1.4822
  730MOL0     H  716   7.612   6.183   8.244 -1.4635  1.3258  1.1422
  730MOL0     H  717   7.673   6.340   8.204 -0.7598  0.2860  4.0467
  730MOL0     H  718   7.809   6.124   8.349 -0.5537 -0.2971  0.8941
  730MOL0     H  719   7.766   6.284   8.408  1.4936  1.9177  0.0414
  730MOL0     H  720   8.295   6.206   7.507  2.0950  2.4905 -2.4693
  730MOL0     H  721   8.475   6.373   7.522 -2.0045  1.6675 -0.6073
  730MOL0     H  722   8.508   6.904   7.557  0.7937  4.0358  1.1353
  730MOL0     H  723   8.670   7.062   7.513 -4.4162 -1.1246  0.6467
  730MOL0     H  724  10.037   6.510   6.464  2.2246 -1.7898 -4.5950
  730MOL0     H  725  10.094   6.294   6.368 -1.6620  0.9698 -1.6180
  730MOL0     H  726  10.166   5.837   6.544  1.3428  0.6494 -0.4567
  730MOL0     H  727  10.283   5.625   6.498  1.6564  1.8265  0.3944
  730MOL0     H  728  10.231   5.354   6.429 -0.7783 -2.5876  0.4197
  730MOL0     H  729  10.076   5.419   6.365  0.4617  0.0446 -0.3440
  730MOL0     H  730  10.138   5.290   6.141  1.4948 -1.3431 -1.1802
  730MOL0     H  731  10.081   5.201   6.284 -0.4706  1.7415  1.1287
  730MOL0     H  732  10.356   5.239   6.182 -2.3110  1.3515 -0.8154
  730MOL0     H  733  10.333   5.137   6.323 -1.2718 -0.7242  1.4107
  730MOL0     H  734  10.346   4.996   6.114 -0.0305 -1.5198  0.3887
  730MOL0     H  735  10.212   5.088   6.037 -0.3212 -0.8336  0.4804
  730MOL0     H  736  10.027   4.834   6.325  0.9585 -1.4426  1.4055
  730MOL0     H  737  10.151   5.633   6.100 -0.1154 -1.4246 -0.1012
  730MOL0     H  738  10.081   5.984   6.093 -0.3047  0.4471  3.3780
  730MOL0     H  739  10.047   5.833   6.000  0.7514  1.0640 -0.5529
  730MOL0     H  740   9.927   5.918   6.092 -0.1690 -0.3035 -1.3251
  731MOL0     O  741   3.677   2.877   7.369 -0.0579  0.5834  0.1827
  731MOL0     C  742   3.682   2.966   7.286  0.1435 -0.9257 -0.6703
  731MOL0     O  743   3.762   2.973   7.178 -0.6930  1.0066  0.5037
  731MOL0     C  744   3.845   2.875   7.148  0.0729  1.0833 -0.1552
  731MOL0     C  745   3.970   2.902   7.088 -0.6482  0.0319  0.4646
  731MOL0     C  746   4.050   2.806   7.026  0.2196 -0.3218 -0.3244
  731MOL0     C  747   4.022   2.677   7.032  0.7800 -0.2002 -0.4673
  731MOL0     O  748   4.116   2.589   6.982  0.3378 -0.6943  0.7117
  731MOL0     C  749   4.072   2.513   6.867 -0.0115  0.3236 -0.1550
  731MOL0     C  750   4.126   2.372   6.877 -0.1403 -0.2700 -0.0990
  731MOL0     C  751   4.112   2.314   7.012  0.1683  0.8287  0.1740
  731MOL0     C  752   4.193   2.186   7.017 -0.2734 -0.0806 -0.0239
  731MOL0     C  753   4.217   2.138   7.166 -0.3513 -1.0690 -0.0135
  731MOL0     C  754   4.298   2.009   7.170 -0.8784 -0.7096 -0.2730
  731MOL0     C  755   4.434   2.019   7.108 -0.1229 -0.6263 -0.3058
  731MOL0     C  756   4.507   1.879   7.142  0.6131  0.0193 -0.6471
  731MOL0     N  757   4.540   1.860   7.286  0.3312 -0.8440  0.0312
  731MOL0     C  758   4.614   1.941   7.371  0.1087 -0.7580 -0.7418
  731MOL0     C  759   4.640   1.863   7.472 -0.0846 -1.3469 -0.3108
  731MOL0     C  760   4.726   1.890   7.593  0.2657 -0.0989  0.3351
  731MOL0     C  761   4.638   1.980   7.682  0.8775 -0.5868 -0.3202
  731MOL0     C  762   4.593   1.910   7.816 -0.5683 -0.0906  0.0259
  731MOL0     C  763   4.514   1.770   7.804 -0.7284  0.8358 -0.3428
  731MOL0     O  764   4.482   1.726   7.936 -0.3738 -0.1570  1.0234
  731MOL0     C  765   4.566   1.647   8.014 -0.5381  0.0499  0.2182
  731MOL0     C  766   4.610   1.519   7.970 -0.3422  0.7921 -0.5707
  731MOL0     C  767   4.692   1.440   8.062 -0.0281 -0.7333  0.8304
  731MOL0     C  768   4.712   1.298   8.024 -0.6441 -0.0512 -0.3168
  731MOL0     C  769   4.726   1.491   8.187 -0.1012  0.4020 -0.0733
  731MOL0     C  770   4.814   1.418   8.285  0.2991 -0.1513  0.6304
  731MOL0     O  771   4.816   1.478   8.409  0.0834  0.4122 -0.2825
  731MOL0     C  772   4.895   1.424   8.510  1.2298  0.8455 -0.7444
  731MOL0     C  773   4.906   1.285   8.542  0.6123  0.1759  0.2030
  731MOL0     C  774   4.983   1.238   8.649  0.8880 -1.1779  0.2766
  731MOL0     C  775   5.035   1.333   8.742  0.0594  0.2665  0.7422
  731MOL0     O  776   5.107   1.309   8.858  0.1213 -0.0838 -0.5318
  731MOL0     C  777   5.207   1.207   8.823 -0.2122 -0.5692 -0.2464
  731MOL0     C  778   5.311   1.261   8.723  0.5691 -0.0779  0.1221
  731MOL0     C  779   5.330   1.166   8.595  0.4178  0.4071 -1.2477
  731MOL0     C  780   5.417   1.218   8.484  0.1652 -0.6386 -0.5605
  731MOL0     C  781   5.348   1.325   8.406 -0.6735 -0.4087  0.0736
  731MOL0     C  782   5.410   1.350   8.263  0.9797 -0.5503  0.7802
  731MOL0     C  783   5.308   1.389   8.162  0.8228  0.8627 -0.7047
  731MOL0     C  784   5.238   1.521   8.204 -0.4868 -0.6181 -0.0670
  731MOL0    Cl  785   5.107   1.566   8.072 -0.3187 -0.0234 -0.1926
  731MOL0     C  786   5.025   1.467   8.715  0.6234 -0.0633 -0.6106
  731MOL0     C  787   4.954   1.515   8.595  0.7414 -0.3591 -0.5655
  731MOL0     O  788   4.887   1.325   8.241 -0.3798 -0.2501 -0.3042
  731MOL0     C  789   4.678   1.615   8.234 -0.2940 -0.1403  0.7907
  731MOL0     C  790   4.608   1.693   8.139  0.7579  0.5697  0.6029
  731MOL0     N  791   4.585   1.741   7.466  0.2153 -0.2699  0.1756
  731MOL0     N  792   4.525   1.737   7.347  0.0197 -0.0624 -0.0659
  731MOL0     C  793   3.900   2.641   7.098  0.9855  0.0023 -0.3718
  731MOL0     C  794   3.811   2.740   7.154  0.9361 -0.5432  0.1149
  731MOL0     C  795   3.593   3.074   7.328  0.2934 -0.3947 -0.1386
  731MOL0     C  796   3.426   3.021   7.446  0.6462  0.5235 -0.6877
  731MOL0     C  797   3.302   3.174   7.529 -0.3102  1.1412  0.0304
  731MOL0     C  798   3.345   3.371   7.500 -0.8311 -0.0526  0.0934
  731MOL0     O  799   3.253   3.463   7.550  0.9005 -0.0674  0.2006
  731MOL0     C  800   3.269   3.589   7.481  0.4971 -0.2462  0.0894
  731MOL0     C  801   3.140   3.678   7.503 -1.0403 -0.2971  0.3442
  731MOL0     C  802   3.024   3.617   7.429 -0.6497 -0.3324  0.5694
  731MOL0     C  803   2.909   3.702   7.460  1.2021  0.2038 -0.3750
  731MOL0     C  804   2.789   3.649   7.398  0.1369 -0.5870  1.2934
  731MOL0     C  805   2.673   3.627   7.361  0.4499 -0.4340 -0.1417
  731MOL0     C  806   3.520   3.426   7.379 -0.4842  0.0300 -0.4676
  731MOL0     C  807   3.643   3.275   7.298 -0.4657 -0.5605 -0.1934
  731MOL0     C  808   3.770   3.318   7.221  0.1701  0.6789  0.0623
  731MOL0     H  809   4.007   3.002   7.074  2.3501 -0.7440  2.0421
  731MOL0     H  810   4.136   2.853   6.978 -0.6253  0.9525 -0.6279
  731MOL0     H  811   4.114   2.558   6.776  0.1200 -1.6886 -1.1369
  731MOL0     H  812   3.963   2.519   6.858 -0.0849  1.0861  1.0277
  731MOL0     H  813   4.064   2.313   6.808  0.4777 -1.4582  0.3336
  731MOL0     H  814   4.229   2.375   6.841 -0.1369 -2.5726 -0.4515
  731MOL0     H  815   4.165   2.383   7.079  3.6894 -1.0563 -0.3936
  731MOL0     H  816   4.011   2.292   7.046 -0.2177 -1.5358 -2.1916
  731MOL0     H  817   4.136   2.114   6.958 -2.1075 -1.1752  2.8894
  731MOL0     H  818   4.282   2.210   6.958 -1.2771 -0.0895 -1.5802
  731MOL0     H  819   4.118   2.126   7.210 -2.2291  2.0396 -2.8731
  731MOL0     H  820   4.272   2.217   7.218 -1.2439 -1.2157  1.1910
  731MOL0     H  821   4.314   1.992   7.277 -0.9098  1.1638  0.0694
  731MOL0     H  822   4.256   1.917   7.129 -0.2981 -2.2248  2.3406
  731MOL0     H  823   4.499   2.098   7.147 -0.4230 -1.1847  1.4028
  731MOL0     H  824   4.426   2.038   7.000  3.9062  0.9008 -0.4953
  731MOL0     H  825   4.448   1.802   7.092 -0.2064  0.1586  0.0664
  731MOL0     H  826   4.597   1.865   7.081 -0.0463  0.9952 -1.8914
  731MOL0     H  827   4.658   2.037   7.344 -0.1296 -0.4139  0.0781
  731MOL0     H  828   4.803   1.953   7.548  3.0170 -3.2102  0.3013
  731MOL0     H  829   4.757   1.797   7.642 -1.3914 -1.0363 -0.3026
  731MOL0     H  830   4.696   2.069   7.707  0.8887 -0.3295 -1.2410
  731MOL0     H  831   4.544   2.018   7.639 -0.5283 -3.8570 -0.4131
  731MOL0     H  832   4.667   1.891   7.894 -0.1228  2.2481  0.2511
  731MOL0     H  833   4.524   1.977   7.868 -2.9218 -1.1728 -1.5209
  731MOL0     H  834   4.426   1.792   7.742 -0.8521  2.4459  0.3475
  731MOL0     H  835   4.573   1.698   7.747  0.4508  0.6647  1.0437
  731MOL0     H  836   4.581   1.490   7.870  1.4402 -1.7681 -0.4369
  731MOL0     H  837   4.671   1.233   8.101 -0.8464 -3.0222 -2.7330
  731MOL0     H  838   4.819   1.277   8.032 -0.6894  0.5006  4.8019
  731MOL0     H  839   4.674   1.277   7.923 -0.3780  0.6282 -0.5651
  731MOL0     H  840   4.855   1.220   8.472 -1.3282 -2.1175  3.4747
  731MOL0     H  841   4.996   1.130   8.655 -0.9879 -1.4053  0.9023
  731MOL0     H  842   5.256   1.195   8.920 -2.0767  0.4293  0.8790
  731MOL0     H  843   5.155   1.113   8.798 -1.6024  0.2528 -0.5653
  731MOL0     H  844   5.297   1.364   8.689  4.5670  0.7799  0.4848
  731MOL0     H  845   5.403   1.281   8.779 -0.7172 -0.7105  2.5884
  731MOL0     H  846   5.236   1.136   8.548  1.2613  0.2430 -2.9142
  731MOL0     H  847   5.365   1.070   8.634 -5.4299 -1.4149  0.5209
  731MOL0     H  848   5.437   1.133   8.417 -3.9135 -1.9675 -0.3569
  731MOL0     H  849   5.510   1.260   8.524  1.4067 -2.6527 -1.1971
  731MOL0     H  850   5.240   1.306   8.400 -0.6133 -0.4296 -1.0494
  731MOL0     H  851   5.353   1.421   8.459  0.9039  1.1548 -2.7119
  731MOL0     H  852   5.463   1.259   8.231 -0.3779 -1.7384  1.7501
  731MOL0     H  853   5.490   1.424   8.269 -0.0868  0.6811  0.1314
  731MOL0     H  854   5.233   1.310   8.148  0.0439  1.4413  0.1570
  731MOL0     H  855   5.357   1.390   8.064  2.1479 -3.9417 -0.3456
  731MOL0     H  856   5.303   1.608   8.212 -0.6542 -0.3673 -1.2259
  731MOL0     H  857   5.194   1.517   8.304 -0.5291  2.3182  0.1103
  731MOL0     H  858   5.078   1.528   8.787  1.0473 -1.8033  0.6046
  731MOL0     H  859   4.943   1.620   8.572 -0.1679 -0.2845  0.1452
  731MOL0     H  860   4.694   1.666   8.328  1.2001  0.2525  0.3644
  731MOL0     H  861   4.562   1.787   8.168 -2.3305 -0.3575 -0.8383
  731MOL0     H  862   3.860   2.541   7.107  0.9393 -0.0425 -1.0253
  731MOL0     H  863   3.718   2.707   7.198  2.2190 -0.2183  3.2893
  731MOL0     H  864   3.417   2.918   7.479  1.6178  0.2500 -1.2599
  731MOL0     H  865   3.208   3.139   7.570 -0.2392 -0.3990 -1.0172
  731MOL0     H  866   3.359   3.634   7.522 -0.2351  0.8932  0.4948
  731MOL0     H  867   3.268   3.572   7.373  0.2582  0.6703 -0.0647
  731MOL0     H  868   3.169   3.773   7.456 -1.4826 -1.7291 -3.1047
  731MOL0     H  869   3.137   3.676   7.613  2.1345  0.4089  0.5538
  731MOL0     H  870   3.052   3.616   7.323  1.3508 -0.4111  1.0561
  731MOL0     H  871   3.004   3.515   7.464  2.2082 -3.2764 -4.9415
  731MOL0     H  872   2.918   3.807   7.431 -1.3789  1.1396  1.7419
  731MOL0     H  873   2.896   3.716   7.568  1.1453  0.4483 -0.4107
  731MOL0     H  874   2.574   3.595   7.335  0.4918  0.5323 -1.6049
  731MOL0     H  875   3.535   3.533   7.370 -0.2871  0.1267  0.7973
  731MOL0     H  876   3.846   3.240   7.235 -0.0705  0.7555  1.9337
  731MOL0     H  877   3.753   3.309   7.113 -0.8951 -1.5614  0.3582
  731MOL0     H  878   3.815   3.410   7.257 -0.1978  0.5928  0.7464
  732MOL0     O  879   0.784   1.417   7.019 -0.1292 -0.1002 -0.3579
  732MOL0     C  880   0.835   1.305   7.007  0.5070  0.4903 -0.2573
  732MOL0     O  881   0.854   1.209   7.104 -0.4103  1.1154  0.5585
  732MOL0     C  882   0.838   1.248   7.234 -0.6067 -0.3312 -0.0160
  732MOL0     C  883   0.923   1.342   7.279 -0.6872 -0.4525 -0.6073
  732MOL0     C  884   0.917   1.394   7.414  0.8143 -0.2599 -0.3605
  732MOL0     C  885   0.804   1.348   7.494 -0.2835  0.0149 -0.8954
  732MOL0     O  886   0.772   1.390   7.618 -0.3500 -0.1509 -0.5542
  732MOL0     C  887   0.783   1.528   7.641 -0.3592  0.4304 -0.1236
  732MOL0     C  888   0.746   1.552   7.788 -0.5286  0.2152  0.3852
  732MOL0     C  889   0.613   1.515   7.839  0.4423 -0.8074  0.4394
  732MOL0     C  890   0.498   1.622   7.800 -0.8982  0.4157  0.1267
  732MOL0     C  891   0.490   1.747   7.890 -0.0258  0.6046  0.3781
  732MOL0     C  892   0.388   1.842   7.830  0.3298 -0.3316 -0.5096
  732MOL0     C  893   0.389   1.984   7.894 -0.1455  0.0977  0.7164
  732MOL0     C  894   0.354   1.998   8.043 -0.1195  0.5933  0.3432
  732MOL0     N  895   0.229   1.916   8.071  0.3208  0.1457  0.0994
  732MOL0     C  896   0.103   1.972   8.053  0.1244  0.0897  0.3368
  732MOL0     C  897   0.024   1.876   8.099 -0.5273  0.6169 -0.4437
  732MOL0     C  898  -0.134   1.887   8.111 -0.0965 -0.6485  0.1090
  732MOL0     C  899  -0.213   1.891   7.977 -0.6004 -0.0982 -0.8164
  732MOL0     C  900  -0.354   1.846   8.005  0.1710 -0.4265  0.0080
  732MOL0     C  901  -0.380   1.708   7.950  0.6895  0.9290  0.1017
  732MOL0     O  902  -0.523   1.695   7.961  0.1984  0.4803  0.0707
  732MOL0     C  903  -0.594   1.640   7.860 -0.4626  0.1521  0.7610
  732MOL0     C  904  -0.661   1.715   7.763 -0.4953 -0.0273 -0.2483
  732MOL0     C  905  -0.723   1.662   7.642 -0.4642  0.3545 -0.1433
  732MOL0     C  906  -0.763   1.757   7.534 -0.5569 -1.0633  0.2776
  732MOL0     C  907  -0.738   1.522   7.631  0.0426 -0.1036  0.3443
  732MOL0     C  908  -0.812   1.451   7.524 -0.2494  0.0029 -0.2022
  732MOL0     O  909  -0.832   1.320   7.556  0.0257 -0.3137  0.3355
  732MOL0     C  910  -0.895   1.237   7.475  1.1518 -0.3713 -0.6973
  732MOL0     C  911  -0.992   1.155   7.536 -0.0103 -1.1177 -0.1582
  732MOL0     C  912  -1.063   1.060   7.457  0.3001  0.2680 -0.3290
  732MOL0     C  913  -1.041   1.051   7.318  0.6551  0.5909  0.3198
  732MOL0     O  914  -1.109   0.952   7.240  0.0482 -0.4200 -0.4401
  732MOL0     C  915  -1.243   0.913   7.268  0.6940 -0.4586 -0.7009
  732MOL0     C  916  -1.319   0.885   7.139 -0.4309  0.3896 -0.7955
  732MOL0     C  917  -1.468   0.887   7.170  0.2623  0.1402  0.1503
  732MOL0     C  918  -1.537   0.883   7.039  0.2308 -0.7694 -0.1234
  732MOL0     C  919  -1.688   0.872   7.057 -0.2518 -1.1258  0.3399
  732MOL0     C  920  -1.775   1.003   7.069 -0.4947  1.2305 -1.1494
  732MOL0     C  921  -1.921   0.977   7.049  1.1598 -0.0628 -0.6277
  732MOL0     C  922  -1.978   0.879   7.148  0.2611  0.6262 -0.2767
  732MOL0    Cl  923  -1.993   0.722   7.065 -0.4462 -0.3053 -0.4211
  732MOL0     C  924  -0.958   1.152   7.261  0.2305  0.2071 -0.4391
  732MOL0     C  925  -0.877   1.235   7.337 -0.0816 -1.0984  0.1713
  732MOL0     O  926  -0.842   1.505   7.417 -0.2120 -0.9666  0.9591
  732MOL0     C  927  -0.674   1.449   7.731 -0.1108  0.8194 -0.2709
  732MOL0     C  928  -0.610   1.501   7.845  0.0011  0.4545 -0.3500
  732MOL0     N  929   0.096   1.764   8.149  0.2644  0.0792 -0.0280
  732MOL0     N  930   0.219   1.800   8.136 -0.2043 -0.1967  0.4937
  732MOL0     C  931   0.711   1.254   7.435 -0.7377 -0.0760 -0.4335
  732MOL0     C  932   0.731   1.211   7.303 -0.7052 -1.0064  0.3103
  732MOL0     C  933   0.861   1.272   6.870 -0.1312  0.0564 -0.5578
  732MOL0     C  934   0.776   1.188   6.800 -0.2214 -0.0276 -0.1753
  732MOL0     C  935   0.795   1.149   6.665  0.3121 -0.0544 -0.2292
  732MOL0     C  936   0.908   1.210   6.599 -0.6994 -1.0746  0.1352
  732MOL0     O  937   0.951   1.177   6.468  0.3547 -0.3192 -0.3956
  732MOL0     C  938   0.856   1.185   6.362  0.0144  0.1960  0.1577
  732MOL0     C  939   0.925   1.180   6.226 -0.5774  0.3064 -0.0759
  732MOL0     C  940   0.830   1.181   6.111  0.4872  0.8234 -0.6295
  732MOL0     C  941   0.714   1.084   6.121 -0.5653 -1.0092  0.3667
  732MOL0     C  942   0.642   1.087   5.997  0.8504 -0.2125 -0.0938
  732MOL0     C  943   0.607   1.081   5.881  0.0245  0.5942 -0.1834
  732MOL0     C  944   0.995   1.295   6.676  0.3584  0.3784  0.2846
  732MOL0     C  945   0.965   1.332   6.804  1.1718  0.2477 -0.4660
  732MOL0     C  946   1.058   1.418   6.874 -0.1849 -0.2841  0.6310
  732MOL0     H  947   1.010   1.354   7.216 -0.3969 -4.0026 -1.0966
  732MOL0     H  948   0.997   1.460   7.449 -0.7490  1.4129  0.2238
  732MOL0     H  949   0.721   1.589   7.574 -1.2127  0.3034  0.5410
  732MOL0     H  950   0.884   1.562   7.619 -0.1044  2.3514  3.3133
  732MOL0     H  951   0.819   1.496   7.847 -0.2010  1.9429  1.6874
  732MOL0     H  952   0.761   1.654   7.824 -0.0149 -0.0337  0.9000
  732MOL0     H  953   0.581   1.420   7.795 -2.0860 -2.1344  4.6299
  732MOL0     H  954   0.616   1.503   7.947  1.9619 -2.9943  0.2310
  732MOL0     H  955   0.519   1.645   7.695  0.8998  0.2673  0.4073
  732MOL0     H  956   0.401   1.573   7.798 -0.4842 -0.4624 -1.8934
  732MOL0     H  957   0.592   1.788   7.886 -0.4620  1.7458 -3.2472
  732MOL0     H  958   0.450   1.716   7.986 -1.6272  2.2725  0.3036
  732MOL0     H  959   0.393   1.854   7.721 -1.3101 -2.3277 -0.8532
  732MOL0     H  960   0.289   1.797   7.843  0.8378 -1.0889  0.9015
  732MOL0     H  961   0.307   2.031   7.838 -0.9162 -0.0125  1.7316
  732MOL0     H  962   0.478   2.041   7.867  1.4030 -1.3206  2.5550
  732MOL0     H  963   0.425   1.963   8.118 -0.7126  0.7592  0.9963
  732MOL0     H  964   0.335   2.103   8.066  0.7562  0.7051  0.5869
  732MOL0     H  965   0.073   2.062   7.999 -0.0412  0.8787  1.6807
  732MOL0     H  966  -0.162   1.973   8.173 -1.0181  0.8797 -2.2439
  732MOL0     H  967  -0.170   1.790   8.147  1.8330 -2.3079 -2.1045
  732MOL0     H  968  -0.220   1.991   7.935 -2.1449  0.0882 -0.1778
  732MOL0     H  969  -0.160   1.830   7.903  1.2623 -0.6725  0.8758
  732MOL0     H  970  -0.394   1.874   8.103 -1.7930 -1.2581 -0.5084
  732MOL0     H  971  -0.419   1.903   7.937 -1.6462  0.0553  2.0350
  732MOL0     H  972  -0.345   1.696   7.847  0.9416  2.2512  0.0089
  732MOL0     H  973  -0.334   1.634   8.016  0.9515  1.1898  0.2175
  732MOL0     H  974  -0.639   1.822   7.757  3.0763 -0.5574  0.9391
  732MOL0     H  975  -0.866   1.737   7.505  0.1434 -0.3478 -3.1417
  732MOL0     H  976  -0.705   1.738   7.443  1.0162  1.6288  0.5984
  732MOL0     H  977  -0.740   1.859   7.565 -0.0470 -1.5767  1.6573
  732MOL0     H  978  -0.998   1.151   7.644  1.0772 -2.5447 -0.1203
  732MOL0     H  979  -1.126   0.989   7.509 -0.7689  0.0497 -1.8654
  732MOL0     H  980  -1.253   0.822   7.327  1.2550 -0.4686 -0.6247
  732MOL0     H  981  -1.303   0.981   7.330 -2.6375 -2.1724 -1.7734
  732MOL0     H  982  -1.298   0.962   7.065  0.2844  1.2633  0.2964
  732MOL0     H  983  -1.295   0.784   7.103 -2.7740 -1.0447  1.3059
  732MOL0     H  984  -1.499   0.979   7.221  0.8121 -0.0922  0.9234
  732MOL0     H  985  -1.483   0.794   7.225  2.7556 -2.1498 -2.6722
  732MOL0     H  986  -1.507   0.791   6.988 -2.7118 -3.2902  2.2955
  732MOL0     H  987  -1.510   0.974   6.984  0.7547 -0.4725  0.6153
  732MOL0     H  988  -1.723   0.835   6.961 -0.3640  2.1687 -1.0345
  732MOL0     H  989  -1.713   0.815   7.147  1.3413 -1.9875  0.2721
  732MOL0     H  990  -1.740   1.069   6.990 -1.4934  1.6075 -1.2906
  732MOL0     H  991  -1.753   1.056   7.162  1.7920  0.1142 -0.9718
  732MOL0     H  992  -1.939   0.948   6.945  1.7027 -0.9283 -0.4867
  732MOL0     H  993  -1.970   1.072   7.074  1.8716  0.1804 -0.1097
  732MOL0     H  994  -2.080   0.908   7.172  0.7728  1.4082  1.0458
  732MOL0     H  995  -1.927   0.871   7.245 -3.0976 -3.1241  1.4721
  732MOL0     H  996  -0.945   1.164   7.154 -0.1226 -1.2615 -0.6706
  732MOL0     H  997  -0.796   1.287   7.287 -1.7618 -0.7095 -2.2991
  732MOL0     H  998  -0.666   1.341   7.721 -0.7087  0.3423  3.3629
  732MOL0     H  999  -0.560   1.430   7.910 -1.1406 -2.1297 -2.1273
  732MOL0     H 1000   0.632   1.203   7.488  0.7805 -1.6060  0.4282
  732MOL0     H 1001   0.658   1.142   7.261 -1.8399  1.8676 -2.9050
  732MOL0     H 1002   0.693   1.147   6.857  0.7838 -1.1156  0.5435
  732MOL0     H 1003   0.728   1.075   6.625  1.6019 -0.8073 -1.0686
  732MOL0     H 1004   0.776   1.111   6.371 -0.9774  1.0332 -1.3535
  732MOL0     H 1005   0.809   1.283   6.371  2.2482  1.5559 -1.7535
  732MOL0     H 1006   0.980   1.085   6.230 -2.0923 -0.6222 -0.3836
  732MOL0     H 1007   0.994   1.264   6.210  1.0929 -0.6229  1.7936
  732MOL0     H 1008   0.782   1.279   6.098 -5.1875 -1.5979 -0.8567
  732MOL0     H 1009   0.886   1.151   6.022  0.5702 -2.3276  0.3526
  732MOL0     H 1010   0.651   1.120   6.203  1.2106 -0.5850  1.6056
  732MOL0     H 1011   0.756   0.984   6.137 -3.7609 -2.2771  1.6286
  732MOL0     H 1012   0.578   1.069   5.779 -0.4271 -3.4581  0.2566
  732MOL0     H 1013   1.083   1.341   6.633 -0.7633  2.4633  0.0723
  732MOL0     H 1014   1.115   1.358   6.946 -0.9063 -1.6698  0.0981
  732MOL0     H 1015   1.143   1.457   6.818 -0.0107 -1.1804  0.2534
  732MOL0     H 1016   1.001   1.493   6.930 -3.5758 -1.8810 -0.3998
  733MOL0     O 1017  10.979  11.381  10.647 -0.3786 -0.1146  0.4176
  733MOL0     C 1018  10.867  11.381  10.594  0.1565 -0.3639 -0.1891
  733MOL0     O 1019  10.763  11.462  10.633 -0.3050  0.5250  0.7131
  733MOL0     C 1020  10.791  11.556  10.723 -1.4324 -0.3052 -0.5759
  733MOL0     C 1021  10.872  11.661  10.691 -0.7503 -1.2516  0.9638
  733MOL0     C 1022  10.880  11.769  10.779 -0.2668  0.2472 -0.0549
  733MOL0     C 1023  10.822  11.764  10.900  0.6484 -0.0982 -0.1044
  733MOL0     O 1024  10.829  11.877  10.977 -0.1474 -0.3424  0.1716
  733MOL0     C 1025  10.707  11.913  11.037  0.4870  0.6917  0.2140
  733MOL0     C 1026  10.726  12.064  11.089  0.2774  0.2004  0.2687
  733MOL0     C 1027  10.764  12.163  10.976  0.5090  0.0101 -0.6412
  733MOL0     C 1028  10.646  12.212  10.887 -0.3817  0.1763 -0.2545
  733MOL0     C 1029  10.689  12.325  10.800 -0.0981  0.0946 -0.9485
  733MOL0     C 1030  10.607  12.333  10.670 -0.2119  0.0234 -0.5936
  733MOL0     C 1031  10.647  12.469  10.601  0.5253  0.6160 -0.7275
  733MOL0     C 1032  10.609  12.483  10.456 -0.7573 -0.2106 -0.4043
  733MOL0     N 1033  10.471  12.503  10.460  0.5054  1.3159 -0.6099
  733MOL0     C 1034  10.404  12.615  10.440  0.5501 -0.2972 -0.0906
  733MOL0     C 1035  10.272  12.585  10.420 -0.4709 -0.1411 -0.3792
  733MOL0     C 1036  10.165  12.686  10.383 -0.2547  0.1161 -0.0155
  733MOL0     C 1037  10.091  12.619  10.267  0.2444 -0.0394  1.6300
  733MOL0     C 1038  10.000  12.726  10.203 -0.0682  0.8052  0.7777
  733MOL0     C 1039   9.951  12.688  10.058 -0.3375  0.7047 -0.3981
  733MOL0     O 1040   9.913  12.812   9.996 -0.4075  0.2037 -0.7628
  733MOL0     C 1041   9.917  12.799   9.853 -0.3400 -0.5493 -0.3694
  733MOL0     C 1042   9.905  12.680   9.774 -0.8770 -0.9119  0.2227
  733MOL0     C 1043   9.898  12.690   9.634  0.3386  0.0664  0.1299
  733MOL0     C 1044   9.895  12.561   9.556 -0.9161 -0.3923  0.6092
  733MOL0     C 1045   9.889  12.818   9.567  0.2237 -0.0003  1.0274
  733MOL0     C 1046   9.889  12.842   9.418 -0.4239 -0.6998  0.7311
  733MOL0     O 1047   9.824  12.957   9.375 -0.7360  0.0267 -0.2523
  733MOL0     C 1048   9.760  12.971   9.252 -0.8041 -0.3400 -0.2426
  733MOL0     C 1049   9.694  13.095   9.234 -0.4723  0.0307  0.6271
  733MOL0     C 1050   9.649  13.138   9.103  0.1397  0.4792  0.3045
  733MOL0     C 1051   9.631  13.037   9.006 -0.0991  0.4107  0.7155
  733MOL0     O 1052   9.570  13.059   8.884 -0.0166  0.2727 -0.0848
  733MOL0     C 1053   9.567  13.192   8.837 -0.3410  0.3178  0.5577
  733MOL0     C 1054   9.540  13.185   8.681 -0.2379 -0.0582  0.2647
  733MOL0     C 1055   9.518  13.320   8.604 -0.1395 -0.5436 -0.5668
  733MOL0     C 1056   9.401  13.395   8.662  0.4855  0.7103 -0.2812
  733MOL0     C 1057   9.338  13.478   8.551  0.1300 -0.0252  0.2685
  733MOL0     C 1058   9.249  13.590   8.610 -0.1863  0.0434 -0.5401
  733MOL0     C 1059   9.146  13.548   8.718  0.1257 -0.5291  0.3145
  733MOL0     C 1060   9.044  13.451   8.651 -0.6633  0.2763  0.4950
  733MOL0    Cl 1061   8.888  13.452   8.735  0.1332 -0.3256  0.3467
  733MOL0     C 1062   9.677  12.906   9.030 -0.7324  0.0810 -0.2559
  733MOL0     C 1063   9.737  12.875   9.151 -0.2455  0.3031  0.5368
  733MOL0     O 1064   9.938  12.758   9.341 -0.0605  0.0517 -0.4278
  733MOL0     C 1065   9.897  12.933   9.643 -0.9703 -0.1264 -0.4705
  733MOL0     C 1066   9.912  12.928   9.780  0.0382 -0.0000 -0.1071
  733MOL0     N 1067  10.261  12.449  10.434  1.0362 -0.3995 -0.0483
  733MOL0     N 1068  10.384  12.400  10.453 -0.8918 -0.1541 -0.0806
  733MOL0     C 1069  10.752  11.647  10.937 -0.6256  0.1751 -1.0347
  733MOL0     C 1070  10.732  11.546  10.845  0.2425  0.4850 -0.3036
  733MOL0     C 1071  10.843  11.274  10.489 -0.0473  0.3056  0.8350
  733MOL0     C 1072  10.705  11.245  10.465  1.0024 -0.6808 -0.0428
  733MOL0     C 1073  10.665  11.162  10.354 -0.1816  0.0035 -0.9161
  733MOL0     C 1074  10.762  11.099  10.286 -0.0151  1.1511 -0.4386
  733MOL0     O 1075  10.716  11.002  10.187  0.3123 -0.7915  0.2987
  733MOL0     C 1076  10.724  11.048  10.048  0.8205  0.9883 -1.1211
  733MOL0     C 1077  10.599  11.110  10.001  0.6814 -0.5013  0.1862
  733MOL0     C 1078  10.486  11.015   9.990  0.6167  0.0622  0.7413
  733MOL0     C 1079  10.352  11.099  10.019  0.2275 -0.0403  0.3559
  733MOL0     C 1080  10.233  11.012  10.015  0.2240 -0.8923  0.5540
  733MOL0     C 1081  10.136  10.940  10.011  0.6055 -0.5170 -0.9076
  733MOL0     C 1082  10.896  11.114  10.315  0.1382 -0.0579  0.0767
  733MOL0     C 1083  10.942  11.204  10.412  0.4889 -0.6435  1.0327
  733MOL0     C 1084  11.091  11.220  10.436 -0.6877  0.3337 -0.5264
  733MOL0     H 1085  10.925  11.657  10.597 -4.0283 -2.0512 -1.0038
  733MOL0     H 1086  10.937  11.861  10.767  0.6943 -0.1713  1.0430
  733MOL0     H 1087  10.674  11.852  11.122 -0.9799 -0.8279 -1.3750
  733MOL0     H 1088  10.629  11.911  10.960 -0.7716 -1.0273  1.4513
  733MOL0     H 1089  10.634  12.091  11.141 -1.0846 -2.4952 -0.5673
  733MOL0     H 1090  10.803  12.074  11.166 -1.1312  0.1736  1.7322
  733MOL0     H 1091  10.791  12.244  11.044 -2.6021 -0.5980  1.4866
  733MOL0     H 1092  10.854  12.126  10.924  0.3533 -1.8024  0.2802
  733MOL0     H 1093  10.607  12.126  10.832 -4.0446  1.2034  0.4485
  733MOL0     H 1094  10.562  12.239  10.951 -1.6169 -1.5302 -1.0674
  733MOL0     H 1095  10.797  12.328  10.790  0.6010 -2.4489  3.3964
  733MOL0     H 1096  10.674  12.416  10.859 -2.6227  1.1943 -3.0656
  733MOL0     H 1097  10.632  12.257  10.595 -0.6001  0.5872 -1.3077
  733MOL0     H 1098  10.499  12.330  10.691  0.0865 -1.1557  0.9639
  733MOL0     H 1099  10.756  12.475  10.609  0.7265 -0.8531 -1.8916
  733MOL0     H 1100  10.613  12.555  10.659  1.2473  2.8053 -3.3571
  733MOL0     H 1101  10.661  12.558  10.397 -1.3173 -1.0859 -2.0712
  733MOL0     H 1102  10.639  12.393  10.400  0.3453 -0.1973  0.1435
  733MOL0     H 1103  10.446  12.715  10.442  0.2425  0.0234 -3.5671
  733MOL0     H 1104  10.216  12.781  10.363  3.3021 -1.3946  0.9709
  733MOL0     H 1105  10.083  12.695  10.454  0.0526 -2.1033  0.6868
  733MOL0     H 1106  10.163  12.573  10.198  1.1234  1.6925  1.3371
  733MOL0     H 1107  10.033  12.536  10.309  0.2109 -0.7057  0.3204
  733MOL0     H 1108   9.916  12.753  10.268 -2.2585 -1.9821 -0.6481
  733MOL0     H 1109  10.069  12.810  10.189 -1.0480  1.2945 -1.6037
  733MOL0     H 1110  10.032  12.634  10.009  0.8198  0.8787  1.2516
  733MOL0     H 1111   9.865  12.620  10.060 -3.0641  3.8236 -2.3986
  733MOL0     H 1112   9.900  12.583   9.823 -0.3651 -1.7738 -1.3619
  733MOL0     H 1113   9.991  12.532   9.513 -0.3560 -0.5056  1.8675
  733MOL0     H 1114   9.816  12.568   9.482 -0.6254 -0.3629  0.2984
  733MOL0     H 1115   9.874  12.478   9.624  0.5867 -1.2527  0.0675
  733MOL0     H 1116   9.695  13.176   9.307 -3.1818  1.9000 -1.2487
  733MOL0     H 1117   9.617  13.239   9.084  0.1243  0.0420 -2.3484
  733MOL0     H 1118   9.494  13.256   8.888  0.8927  0.9935  1.5488
  733MOL0     H 1119   9.664  13.243   8.843 -0.6881  1.1290 -0.3704
  733MOL0     H 1120   9.622  13.127   8.637 -1.3053 -2.5677  1.4067
  733MOL0     H 1121   9.449  13.127   8.663 -0.1639 -0.0000 -0.3279
  733MOL0     H 1122   9.520  13.311   8.495  1.1901 -0.4497 -0.5578
  733MOL0     H 1123   9.598  13.387   8.635 -1.1833  0.1954  0.6257
  733MOL0     H 1124   9.437  13.454   8.747  0.1576  2.1991 -1.1375
  733MOL0     H 1125   9.325  13.332   8.709 -0.3819 -0.1658 -2.6824
  733MOL0     H 1126   9.414  13.522   8.486 -1.1148  1.5330 -0.1958
  733MOL0     H 1127   9.281  13.406   8.491  1.9991 -1.6663  0.3423
  733MOL0     H 1128   9.209  13.653   8.530 -1.6534  0.4865  0.4944
  733MOL0     H 1129   9.312  13.663   8.662 -0.5796 -1.8588  2.8660
  733MOL0     H 1130   9.082  13.628   8.757 -1.9196 -2.2013  0.5328
  733MOL0     H 1131   9.203  13.517   8.806 -1.1853  2.4169  2.3946
  733MOL0     H 1132   9.092  13.353   8.644  2.4444  1.6943  0.2430
  733MOL0     H 1133   9.025  13.483   8.548 -0.5347  1.8285  0.9212
  733MOL0     H 1134   9.667  12.832   8.951  0.0102 -0.7731  0.4204
  733MOL0     H 1135   9.763  12.771   9.165 -1.9530 -0.3884 -1.0418
  733MOL0     H 1136   9.910  13.026   9.589  1.2486 -1.2280 -1.9818
  733MOL0     H 1137   9.916  13.014   9.846 -2.3527  1.5377 -1.7885
  733MOL0     H 1138  10.694  11.646  11.028  3.2259  1.7786  1.7393
  733MOL0     H 1139  10.678  11.456  10.872  3.1016 -0.3679  3.5907
  733MOL0     H 1140  10.627  11.295  10.523 -0.0993 -2.9878  0.5684
  733MOL0     H 1141  10.561  11.135  10.339  0.1989 -2.6228  0.6115
  733MOL0     H 1142  10.794  11.132  10.047  0.3129  1.4205 -0.3582
  733MOL0     H 1143  10.771  10.964   9.995  3.3264  0.3752  1.7817
  733MOL0     H 1144  10.622  11.167   9.911  0.7109  0.7353  0.9556
  733MOL0     H 1145  10.584  11.183  10.081 -2.4689 -1.0351  0.2458
  733MOL0     H 1146  10.475  10.982   9.887  0.1634  2.1101  0.0849
  733MOL0     H 1147  10.489  10.942  10.072  1.0628 -0.3019  0.4040
  733MOL0     H 1148  10.335  11.172   9.940 -1.8697 -1.8462 -0.9891
  733MOL0     H 1149  10.355  11.142  10.120 -2.0912  0.3476  0.3254
  733MOL0     H 1150  10.057  10.868  10.007  0.0173 -0.0283  0.7159
  733MOL0     H 1151  10.967  11.069  10.246 -0.7546 -2.1860  0.4804
  733MOL0     H 1152  11.114  11.326  10.421 -2.1525  0.6147 -0.8601
  733MOL0     H 1153  11.117  11.176  10.533  2.7066 -0.6819 -1.7334
  733MOL0     H 1154  11.149  11.165  10.361 -1.5948  0.0211 -1.0038
  734MOL0     O 1155  10.944   4.175   0.241 -0.1351 -0.5533 -0.0259
  734MOL0     C 1156  10.986   4.145   0.348 -0.6384  0.4386  0.0372
  734MOL0     O 1157  10.913   4.096   0.449  0.1556 -0.2596  0.7849
  734MOL0     C 1158  10.773   4.086   0.444  0.0044  0.5402 -0.8253
  734MOL0     C 1159  10.679   4.132   0.350  0.0720  0.4615  0.0219
  734MOL0     C 1160  10.541   4.108   0.366 -0.2091  0.1487 -0.4674
  734MOL0     C 1161  10.495   4.040   0.479 -0.6621  0.4496  0.4203
  734MOL0     O 1162  10.365   4.017   0.517  0.2455 -0.7508  0.2441
  734MOL0     C 1163  10.310   4.132   0.583 -0.6244 -0.3579  0.8115
  734MOL0     C 1164  10.172   4.164   0.541  0.3071  0.2045 -0.0174
  734MOL0     C 1165  10.158   4.212   0.393  0.8192  0.3925 -0.3265
  734MOL0     C 1166  10.201   4.350   0.380  0.2330 -0.2464  0.2718
  734MOL0     C 1167  10.173   4.406   0.240  0.8152 -1.1837  0.6966
  734MOL0     C 1168  10.269   4.375   0.127 -0.1890  0.8593 -0.3292
  734MOL0     C 1169  10.215   4.429  -0.001 -0.0168  0.3387  0.2732
  734MOL0     C 1170  10.307   4.401  -0.114 -0.5459 -0.1682 -0.1039
  734MOL0     N 1171  10.445   4.449  -0.095 -0.2694  0.5153  0.7713
  734MOL0     C 1172  10.489   4.577  -0.074 -0.7756 -0.2683 -0.3125
  734MOL0     C 1173  10.621   4.563  -0.038 -0.6183 -0.6742  0.2714
  734MOL0     C 1174  10.710   4.675  -0.011 -0.8695 -0.1696  0.0093
  734MOL0     C 1175  10.859   4.631   0.003 -0.1376 -0.3237  0.8729
  734MOL0     C 1176  10.918   4.589  -0.133  0.0284  0.7282 -0.4195
  734MOL0     C 1177  11.029   4.476  -0.140 -0.8350 -0.3564 -0.2362
  734MOL0     O 1178  11.097   4.494  -0.267  0.2248  0.3155 -0.6090
  734MOL0     C 1179  11.212   4.559  -0.260  0.2012 -0.7178  0.5740
  734MOL0     C 1180  11.323   4.520  -0.182  0.4385 -0.1969  0.7064
  734MOL0     C 1181  11.442   4.597  -0.187  0.2799  0.2613 -0.3317
  734MOL0     C 1182  11.557   4.532  -0.110  0.4461 -0.2743 -0.3273
  734MOL0     C 1183  11.459   4.708  -0.272 -0.1360 -0.7772  0.0964
  734MOL0     C 1184  11.592   4.776  -0.286 -0.0077  0.0389  1.6545
  734MOL0     O 1185  11.614   4.851  -0.409  0.0693  0.6417 -0.3049
  734MOL0     C 1186  11.746   4.893  -0.429 -0.3061  0.0796  0.1666
  734MOL0     C 1187  11.812   4.812  -0.516  0.3201  0.2488 -0.3435
  734MOL0     C 1188  11.943   4.861  -0.561 -0.2240 -0.2369 -1.0462
  734MOL0     C 1189  11.996   4.995  -0.516  0.0949  0.5193  0.2567
  734MOL0     O 1190  12.118   5.035  -0.564  0.0022 -0.0673  0.2265
  734MOL0     C 1191  12.230   4.961  -0.500 -1.4088  0.3707  0.2313
  734MOL0     C 1192  12.363   5.030  -0.536  0.1792 -0.1877 -0.6097
  734MOL0     C 1193  12.381   5.065  -0.672 -0.2114  1.0038  0.9569
  734MOL0     C 1194  12.524   5.112  -0.689 -0.6650 -0.2037 -0.3433
  734MOL0     C 1195  12.538   5.266  -0.665  0.1175  0.2779 -0.0087
  734MOL0     C 1196  12.482   5.362  -0.771 -0.3400  0.1470  0.3767
  734MOL0     C 1197  12.405   5.486  -0.709 -0.6652  0.6217  0.1525
  734MOL0     C 1198  12.330   5.582  -0.801  0.1704 -0.0203  0.4728
  734MOL0    Cl 1199  12.435   5.636  -0.940 -0.6372 -0.4855 -0.4071
  734MOL0     C 1200  11.913   5.068  -0.427  0.0132 -0.6325  0.0651
  734MOL0     C 1201  11.789   5.023  -0.393 -0.2185 -0.1719 -1.0944
  734MOL0     O 1202  11.680   4.759  -0.205 -0.3465  0.6293  0.1399
  734MOL0     C 1203  11.352   4.733  -0.363 -0.5776 -0.6710 -0.4982
  734MOL0     C 1204  11.229   4.667  -0.351 -0.1862 -0.1071  0.2596
  734MOL0     N 1205  10.644   4.428  -0.025 -0.4847 -0.6048 -0.6037
  734MOL0     N 1206  10.547   4.357  -0.072 -0.0655  0.1587 -0.0800
  734MOL0     C 1207  10.589   3.984   0.562 -0.1042 -0.0352  0.0644
  734MOL0     C 1208  10.727   4.009   0.550  0.4417 -0.4562 -0.1950
  734MOL0     C 1209  11.135   4.165   0.357  0.2727  0.5068  0.6591
  734MOL0     C 1210  11.195   4.246   0.254  0.0887  0.6340 -0.3545
  734MOL0     C 1211  11.332   4.270   0.255  0.0178 -0.2982 -0.2229
  734MOL0     C 1212  11.411   4.223   0.355 -0.0395  0.9853  0.5653
  734MOL0     O 1213  11.537   4.262   0.340  0.2989 -0.5330  0.3350
  734MOL0     C 1214  11.627   4.244   0.454 -0.3701 -0.3752 -0.1339
  734MOL0     C 1215  11.760   4.299   0.414  0.1484  0.7293  0.1150
  734MOL0     C 1216  11.805   4.245   0.275  0.7354  0.3341 -0.2462
  734MOL0     C 1217  11.922   4.327   0.226 -0.7434  0.7350 -0.9726
  734MOL0     C 1218  11.982   4.257   0.111 -0.6116  0.0954  0.8147
  734MOL0     C 1219  12.022   4.196   0.014 -0.1159  0.6644  0.5632
  734MOL0     C 1220  11.360   4.149   0.456 -0.0195  0.4789 -0.5468
  734MOL0     C 1221  11.224   4.118   0.460 -0.4807 -0.1336  0.3340
  734MOL0     C 1222  11.191   4.031   0.570 -0.0463 -1.3501 -0.0539
  734MOL0     H 1223  10.707   4.195   0.266  0.7924  1.3000  0.8641
  734MOL0     H 1224  10.481   4.174   0.303  0.6364  2.3326  0.8808
  734MOL0     H 1225  10.375   4.219   0.573  2.0295 -2.2943  0.1130
  734MOL0     H 1226  10.315   4.085   0.682 -1.4971 -2.2507 -0.0021
  734MOL0     H 1227  10.124   4.066   0.548 -0.2374  0.0825 -3.6994
  734MOL0     H 1228  10.127   4.239   0.607  0.5528  1.6427 -1.4313
  734MOL0     H 1229  10.194   4.136   0.323  0.0287 -1.3688  1.0961
  734MOL0     H 1230  10.049   4.212   0.383  0.7992  0.8041 -0.1248
  734MOL0     H 1231  10.136   4.411   0.445 -2.0069  0.3565 -2.3430
  734MOL0     H 1232  10.306   4.372   0.401 -0.3581  0.2116  3.3183
  734MOL0     H 1233  10.163   4.513   0.262  0.9302 -0.9479 -0.3644
  734MOL0     H 1234  10.075   4.383   0.198 -0.5300  2.7772  1.2678
  734MOL0     H 1235  10.369   4.412   0.150  0.1717  1.1451 -2.1392
  734MOL0     H 1236  10.268   4.266   0.120  4.6597  0.4435  1.7667
  734MOL0     H 1237  10.200   4.536   0.013 -1.4480  0.1491  0.3768
  734MOL0     H 1238  10.115   4.395  -0.029  0.3466  0.7850 -1.6456
  734MOL0     H 1239  10.297   4.294  -0.135 -4.1185 -0.6891  3.1671
  734MOL0     H 1240  10.265   4.453  -0.201  1.9244  0.2878 -1.1127
  734MOL0     H 1241  10.432   4.669  -0.059  0.3285  0.5041 -0.7483
  734MOL0     H 1242  10.667   4.720   0.079 -0.4611  1.1827 -0.4569
  734MOL0     H 1243  10.693   4.744  -0.094 -1.9155 -0.6471 -0.1888
  734MOL0     H 1244  10.920   4.716   0.035  0.3026 -0.6765  0.9860
  734MOL0     H 1245  10.870   4.546   0.071 -0.1207 -1.3028 -0.3177
  734MOL0     H 1246  10.834   4.551  -0.192 -2.0369  3.7944  0.2973
  734MOL0     H 1247  10.948   4.676  -0.193  4.0093 -1.8588 -2.6548
  734MOL0     H 1248  11.098   4.481  -0.055 -2.6988 -0.8025  1.3874
  734MOL0     H 1249  10.996   4.372  -0.132  0.2655 -0.5809  2.5201
  734MOL0     H 1250  11.310   4.431  -0.121 -1.7078 -1.9419 -2.0491
  734MOL0     H 1251  11.607   4.600  -0.041 -1.5935  1.2161 -0.2117
  734MOL0     H 1252  11.626   4.479  -0.176  1.9681 -0.6381  1.4711
  734MOL0     H 1253  11.518   4.450  -0.049 -0.6451  1.6053  1.6356
  734MOL0     H 1254  11.761   4.728  -0.560 -2.2849  1.0329  1.0096
  734MOL0     H 1255  12.005   4.803  -0.629 -0.1472 -0.4221 -0.8194
  734MOL0     H 1256  12.229   4.956  -0.391 -0.0426 -0.9088  0.2263
  734MOL0     H 1257  12.231   4.855  -0.529 -2.6944 -0.0713  1.6464
  734MOL0     H 1258  12.367   5.125  -0.481 -0.4509  0.3391 -1.4458
  734MOL0     H 1259  12.438   4.964  -0.492 -0.2867  0.8446  1.8639
  734MOL0     H 1260  12.302   5.134  -0.703 -0.6673 -0.2609 -0.8390
  734MOL0     H 1261  12.375   4.981  -0.741 -0.5693  1.7164  0.1114
  734MOL0     H 1262  12.553   5.085  -0.791 -4.6784 -1.0461 -1.4243
  734MOL0     H 1263  12.592   5.076  -0.611 -0.7102 -2.7480 -1.3747
  734MOL0     H 1264  12.481   5.294  -0.576 -1.4102  0.1652 -0.9317
  734MOL0     H 1265  12.646   5.274  -0.651  0.5528 -1.6314 -1.8629
  734MOL0     H 1266  12.413   5.298  -0.828  0.3125 -1.4562  1.3174
  734MOL0     H 1267  12.569   5.383  -0.834  0.9045 -1.7907  1.3712
  734MOL0     H 1268  12.472   5.529  -0.635  0.3367 -0.1036 -0.3148
  734MOL0     H 1269  12.324   5.451  -0.645  1.3795 -0.8064  2.0911
  734MOL0     H 1270  12.281   5.659  -0.741 -1.1023  0.6869 -1.3777
  734MOL0     H 1271  12.248   5.534  -0.856  1.0371 -0.7001 -0.2587
  734MOL0     H 1272  11.943   5.163  -0.383 -1.2693 -0.1867  0.0240
  734MOL0     H 1273  11.729   5.077  -0.321 -0.0726 -3.2488  1.5448
  734MOL0     H 1274  11.362   4.801  -0.447 -2.2611  0.1155 -0.1060
  734MOL0     H 1275  11.150   4.690  -0.422  1.5541  0.9803 -1.3899
  734MOL0     H 1276  10.564   3.933   0.654 -2.5058 -1.0249 -1.0429
  734MOL0     H 1277  10.788   3.960   0.625 -1.3339 -0.0035  1.6484
  734MOL0     H 1278  11.145   4.270   0.161  0.3819 -0.9048 -0.9565
  734MOL0     H 1279  11.368   4.331   0.172 -3.6414  0.8314 -1.1398
  734MOL0     H 1280  11.592   4.298   0.542 -2.0117 -2.0139  0.2761
  734MOL0     H 1281  11.636   4.139   0.483  0.7884  0.3428  2.3621
  734MOL0     H 1282  11.832   4.279   0.493 -1.6447 -0.7928  1.4411
  734MOL0     H 1283  11.748   4.407   0.396 -1.5214  0.4822 -0.4045
  734MOL0     H 1284  11.850   4.146   0.289  1.2672  0.7933  1.6060
  734MOL0     H 1285  11.729   4.236   0.197  1.9752 -1.7389 -1.3087
  734MOL0     H 1286  11.998   4.342   0.304  1.7686  1.8447 -3.4754
  734MOL0     H 1287  11.901   4.432   0.202 -1.0769  1.0794  0.6625
  734MOL0     H 1288  12.055   4.138  -0.070  1.7243 -1.6817  2.7708
  734MOL0     H 1289  11.421   4.111   0.537 -0.9443 -0.5694 -0.3131
  734MOL0     H 1290  11.093   3.986   0.550 -0.6001 -0.1394 -0.1242
  734MOL0     H 1291  11.267   3.953   0.581  0.6174 -0.7102 -0.0197
  734MOL0     H 1292  11.183   4.088   0.663 -3.3914 -1.5597 -0.0958
  735MOL0     O 1293   6.232   7.070  11.061 -1.1316 -0.1293 -0.5679
  735MOL0     C 1294   6.203   7.057  10.947 -1.0237  0.2118  0.4018
  735MOL0     O 1295   6.076   7.044  10.893 -0.2083 -0.6666 -0.1412
  735MOL0     C 1296   5.974   6.994  10.976  0.0722 -0.3017  1.1468
  735MOL0     C 1297   5.847   7.011  10.920 -0.0942 -0.1234 -0.3645
  735MOL0     C 1298   5.737   6.959  10.982  0.6090 -0.1721  1.2611
  735MOL0     C 1299   5.748   6.898  11.109  1.1402  0.9681 -0.1449
  735MOL0     O 1300   5.630   6.851  11.166 -0.2952  0.3212 -0.2378
  735MOL0     C 1301   5.586   6.907  11.286 -0.4325  0.2617 -0.1114
  735MOL0     C 1302   5.617   6.830  11.409  0.4039  0.1055 -0.6417
  735MOL0     C 1303   5.548   6.896  11.525 -0.4018 -0.0417  0.0799
  735MOL0     C 1304   5.598   6.844  11.657  0.3040 -0.7684  0.3259
  735MOL0     C 1305   5.540   6.931  11.769  0.3353  0.6947  0.6033
  735MOL0     C 1306   5.563   6.866  11.904 -0.5925  0.0513  0.3597
  735MOL0     C 1307   5.514   6.940  12.023 -0.2591 -0.0297 -0.7282
  735MOL0     C 1308   5.569   6.905  12.162 -0.0533 -0.3442 -0.2872
  735MOL0     N 1309   5.541   6.764  12.198  0.2995  0.8459 -0.3645
  735MOL0     C 1310   5.605   6.646  12.154 -0.2270 -1.4572  0.5694
  735MOL0     C 1311   5.567   6.548  12.236  0.1786 -0.1727 -0.0277
  735MOL0     C 1312   5.615   6.411  12.232 -0.3451 -0.1188 -0.1419
  735MOL0     C 1313   5.541   6.329  12.120 -0.6576 -0.0202 -1.1820
  735MOL0     C 1314   5.602   6.196  12.105 -0.1492 -0.2814 -1.2635
  735MOL0     C 1315   5.512   6.087  12.047 -0.2572 -0.7876  0.5500
  735MOL0     O 1316   5.602   5.992  11.978  0.4119  0.7378 -0.6095
  735MOL0     C 1317   5.544   5.884  11.922 -0.4342 -0.1029 -0.3156
  735MOL0     C 1318   5.627   5.774  11.907 -0.1971  0.2623  0.5794
  735MOL0     C 1319   5.581   5.659  11.834 -0.1882  0.3117  0.3675
  735MOL0     C 1320   5.681   5.551  11.816  0.0694 -0.3598  0.5291
  735MOL0     C 1321   5.450   5.662  11.788  0.4293  0.3449  0.5594
  735MOL0     C 1322   5.399   5.547  11.717 -0.5718  1.3255 -0.5195
  735MOL0     O 1323   5.341   5.572  11.602  0.5044  0.1678 -0.3442
  735MOL0     C 1324   5.243   5.487  11.551 -0.2743 -0.6057  0.7354
  735MOL0     C 1325   5.152   5.409  11.619  0.4688  0.5425 -0.4229
  735MOL0     C 1326   5.045   5.336  11.555 -0.5964 -0.4853 -0.1665
  735MOL0     C 1327   5.037   5.345  11.422 -0.5230  0.6562  0.4139
  735MOL0     O 1328   4.937   5.273  11.347 -0.4419 -0.8906  0.3362
  735MOL0     C 1329   4.802   5.274  11.399 -0.7825 -0.1728 -0.2609
  735MOL0     C 1330   4.702   5.205  11.305 -0.3358  0.0571 -0.0190
  735MOL0     C 1331   4.584   5.143  11.380  0.1141  0.1114  1.0136
  735MOL0     C 1332   4.488   5.078  11.285 -0.3323  0.7786 -0.2672
  735MOL0     C 1333   4.537   4.963  11.191 -0.0852 -0.4702 -0.0095
  735MOL0     C 1334   4.430   4.920  11.094  1.3487 -0.0636 -0.1541
  735MOL0     C 1335   4.348   4.815  11.162  0.0179  0.6895  0.1200
  735MOL0     C 1336   4.262   4.719  11.071 -0.5594 -0.7983 -1.1537
  735MOL0    Cl 1337   4.145   4.828  10.978  0.1655  0.3812 -0.6184
  735MOL0     C 1338   5.125   5.423  11.344  0.3113  0.1422 -0.4006
  735MOL0     C 1339   5.224   5.494  11.404 -0.1437  0.7851 -0.2968
  735MOL0     O 1340   5.406   5.436  11.775 -0.4345 -0.1648 -0.0846
  735MOL0     C 1341   5.360   5.772  11.811 -0.5761 -0.3402  0.7698
  735MOL0     C 1342   5.410   5.874  11.884  0.1124 -0.3505 -0.1459
  735MOL0     N 1343   5.471   6.594  12.320  0.9263 -0.1383  0.0150
  735MOL0     N 1344   5.462   6.725  12.301  0.6399 -0.2704  0.5115
  735MOL0     C 1345   5.867   6.888  11.175  1.2029  0.5654  0.3601
  735MOL0     C 1346   5.983   6.929  11.102 -0.2467 -0.1615 -0.2055
  735MOL0     C 1347   6.314   7.072  10.849  0.1277 -1.0651  0.2293
  735MOL0     C 1348   6.277   7.110  10.716 -0.4960 -0.6276  0.0199
  735MOL0     C 1349   6.375   7.140  10.617  0.7209  0.1587  0.2849
  735MOL0     C 1350   6.509   7.120  10.645  0.2227 -0.1312  0.0410
  735MOL0     O 1351   6.595   7.152  10.546  0.0394  1.0353  0.3753
  735MOL0     C 1352   6.731   7.174  10.577 -0.1430 -0.9838  0.6091
  735MOL0     C 1353   6.743   7.290  10.686  0.1372 -0.7453  0.2919
  735MOL0     C 1354   6.768   7.426  10.622  0.6220 -1.5816 -0.8539
  735MOL0     C 1355   6.796   7.533  10.733 -0.1088  0.3283 -0.4647
  735MOL0     C 1356   6.925   7.511  10.796  0.3988 -0.2340  0.2142
  735MOL0     C 1357   7.040   7.521  10.825 -0.4178  0.2078  0.1775
  735MOL0     C 1358   6.548   7.067  10.774  0.3566  0.1248  0.1754
  735MOL0     C 1359   6.448   7.049  10.872 -1.9279  1.1712 -0.2074
  735MOL0     C 1360   6.502   6.971  10.991 -0.5542  0.5416 -0.1507
  735MOL0     H 1361   5.833   7.064  10.826  1.5841 -0.9387 -1.1132
  735MOL0     H 1362   5.641   6.961  10.932 -0.0287  2.0790  2.4600
  735MOL0     H 1363   5.478   6.904  11.272 -0.1029 -2.0754 -3.1585
  735MOL0     H 1364   5.614   7.010  11.310 -0.0989 -0.4976  3.2967
  735MOL0     H 1365   5.562   6.737  11.394  0.1427  0.3920 -1.4750
  735MOL0     H 1366   5.722   6.803  11.421  0.6564  1.4870  0.6783
  735MOL0     H 1367   5.571   7.003  11.533  1.4986 -0.4130  0.0210
  735MOL0     H 1368   5.441   6.877  11.521 -0.4998  0.6369 -0.9024
  735MOL0     H 1369   5.560   6.742  11.663 -1.0419 -0.1740  2.8177
  735MOL0     H 1370   5.707   6.845  11.647  0.1705 -2.2624 -1.8863
  735MOL0     H 1371   5.433   6.951  11.758  0.4282 -0.1351 -3.2289
  735MOL0     H 1372   5.588   7.029  11.759  1.2101  0.1760 -0.5498
  735MOL0     H 1373   5.527   6.763  11.898 -0.2991  0.0205 -1.9808
  735MOL0     H 1374   5.668   6.840  11.916 -1.4756 -2.2807  6.3195
  735MOL0     H 1375   5.405   6.944  12.020 -0.2875 -0.9898 -1.1208
  735MOL0     H 1376   5.549   7.042  12.005 -0.7303  0.2218 -0.2473
  735MOL0     H 1377   5.677   6.919  12.177  0.4538  0.5928 -3.9912
  735MOL0     H 1378   5.519   6.979  12.225 -1.2360 -0.5699 -0.9397
  735MOL0     H 1379   5.674   6.627  12.072 -0.2293 -2.1844  0.7284
  735MOL0     H 1380   5.588   6.369  12.330  2.1175 -2.7782 -0.4791
  735MOL0     H 1381   5.723   6.409  12.221 -0.3773 -3.3044 -0.9479
  735MOL0     H 1382   5.440   6.306  12.155 -0.9333 -0.7817 -2.4037
  735MOL0     H 1383   5.538   6.379  12.022  1.8824  0.9373 -0.8446
  735MOL0     H 1384   5.696   6.204  12.049  1.1706 -1.7992  0.5775
  735MOL0     H 1385   5.624   6.155  12.205 -0.1791  1.0129 -0.7077
  735MOL0     H 1386   5.448   6.049  12.128  2.2155  0.5622  3.3266
  735MOL0     H 1387   5.450   6.135  11.971 -1.5261 -2.0459  0.7435
  735MOL0     H 1388   5.730   5.783  11.939  0.3174 -3.3563  0.2996
  735MOL0     H 1389   5.673   5.479  11.898 -0.1975 -3.2237 -1.8537
  735MOL0     H 1390   5.783   5.590  11.820  0.0551  0.1016 -2.0328
  735MOL0     H 1391   5.660   5.501  11.721 -1.4235 -0.0007  0.6424
  735MOL0     H 1392   5.157   5.408  11.727  2.3773 -0.4935 -0.4784
  735MOL0     H 1393   4.972   5.284  11.616 -0.6360 -1.5151 -1.0713
  735MOL0     H 1394   4.806   5.234  11.500 -2.3681  0.4450  0.0756
  735MOL0     H 1395   4.768   5.378  11.403 -1.4820 -0.4181  0.5131
  735MOL0     H 1396   4.661   5.267  11.225  0.2935  1.0026  0.3798
  735MOL0     H 1397   4.742   5.113  11.261 -1.2062 -1.6558  2.5520
  735MOL0     H 1398   4.541   5.229  11.431 -1.9365 -0.4169  0.2644
  735MOL0     H 1399   4.602   5.071  11.460 -3.7232  2.1687  4.0269
  735MOL0     H 1400   4.437   5.149  11.219 -0.8991 -1.2201 -2.0921
  735MOL0     H 1401   4.408   5.045  11.351 -2.5054  2.5314 -1.8861
  735MOL0     H 1402   4.627   4.996  11.139  1.3974 -2.4302  1.1910
  735MOL0     H 1403   4.571   4.887  11.261  2.0546 -0.0242 -0.4950
  735MOL0     H 1404   4.482   4.884  11.006 -1.1610  1.0444 -2.2234
  735MOL0     H 1405   4.372   5.006  11.059  0.6101  0.2728  1.7410
  735MOL0     H 1406   4.277   4.858  11.233 -3.1673 -0.0033 -2.3825
  735MOL0     H 1407   4.422   4.753  11.213  1.7185  2.6926  0.1971
  735MOL0     H 1408   4.208   4.647  11.135 -0.4975  1.0167  1.0663
  735MOL0     H 1409   4.319   4.662  10.997  0.4552 -1.2435 -0.0599
  735MOL0     H 1410   5.110   5.439  11.237 -4.7788 -0.7645 -0.0819
  735MOL0     H 1411   5.291   5.559  11.350  0.9084 -0.0568 -0.0419
  735MOL0     H 1412   5.257   5.765  11.779 -1.1532 -1.9625  2.7235
  735MOL0     H 1413   5.339   5.943  11.928  1.2894  1.2994 -0.7525
  735MOL0     H 1414   5.884   6.820  11.258 -1.2766 -1.6586 -0.8069
  735MOL0     H 1415   6.083   6.916  11.141 -0.2593  1.4724  0.4101
  735MOL0     H 1416   6.170   7.117  10.699 -1.2856 -0.1185  4.0980
  735MOL0     H 1417   6.353   7.178  10.518  1.7348 -0.0453 -0.0230
  735MOL0     H 1418   6.782   7.091  10.626 -0.8327 -2.1281 -0.5276
  735MOL0     H 1419   6.784   7.200  10.485 -0.8860 -1.8690 -0.0936
  735MOL0     H 1420   6.800   7.260  10.774 -2.8077 -2.9993  1.5580
  735MOL0     H 1421   6.652   7.302  10.744  0.4448 -1.9918  1.0569
  735MOL0     H 1422   6.855   7.427  10.555  0.3062 -0.5899 -1.2682
  735MOL0     H 1423   6.679   7.458  10.566  1.4774 -0.1185 -1.4388
  735MOL0     H 1424   6.724   7.525  10.815  1.1442  0.7682  0.7294
  735MOL0     H 1425   6.792   7.626  10.675  0.4687  1.8134  1.7502
  735MOL0     H 1426   7.144   7.536  10.846  0.1431  0.2026 -2.2876
  735MOL0     H 1427   6.649   7.029  10.786 -0.5693 -2.0873  1.6788
  735MOL0     H 1428   6.509   7.032  11.081 -2.0333 -0.6883  0.8509
  735MOL0     H 1429   6.448   6.877  11.006  0.8161 -0.6234 -2.0450
  735MOL0     H 1430   6.606   6.944  10.976 -0.7509  0.2490 -1.1079
  736MOL0     O 1431   5.188   8.280   4.361 -0.2275 -0.2777  0.0277
  736MOL0     C 1432   5.234   8.296   4.474 -0.2959  0.5563 -0.8780
  736MOL0     O 1433   5.367   8.351   4.500  0.0997  0.0441  0.7005
  736MOL0     C 1434   5.443   8.410   4.404  0.7209 -0.4316 -0.1050
  736MOL0     C 1435   5.436   8.547   4.375  0.6927 -0.0097 -0.5773
  736MOL0     C 1436   5.515   8.620   4.282  0.2543 -0.0718 -0.1872
  736MOL0     C 1437   5.603   8.546   4.205 -0.5683  0.8615  0.4108
  736MOL0     O 1438   5.684   8.607   4.113  0.0914 -0.6672  0.1955
  736MOL0     C 1439   5.681   8.749   4.075  0.2777  0.9328 -0.8919
  736MOL0     C 1440   5.558   8.767   3.998 -0.1945 -0.9973 -0.2636
  736MOL0     C 1441   5.551   8.692   3.861  0.1376  0.0675  0.0526
  736MOL0     C 1442   5.618   8.777   3.752  0.2818  0.2365 -0.2673
  736MOL0     C 1443   5.555   8.913   3.731 -0.2061 -0.3289  0.4725
  736MOL0     C 1444   5.525   8.932   3.581 -0.9435  0.0479 -0.3962
  736MOL0     C 1445   5.405   8.846   3.546  0.0743  0.4521  0.4206
  736MOL0     C 1446   5.367   8.835   3.395 -0.2953 -0.3608 -0.7320
  736MOL0     N 1447   5.246   8.761   3.382  0.0948 -0.0249 -0.4869
  736MOL0     C 1448   5.121   8.791   3.432 -0.0826  0.4582 -0.1454
  736MOL0     C 1449   5.038   8.690   3.390  0.3166  1.0323  0.7942
  736MOL0     C 1450   4.889   8.682   3.431 -0.4620  0.1404  0.1779
  736MOL0     C 1451   4.853   8.532   3.460  0.0679 -1.3861 -0.2423
  736MOL0     C 1452   4.942   8.457   3.552  0.4137  0.0940  0.6416
  736MOL0     C 1453   5.019   8.532   3.661 -0.6896 -0.6413  0.7470
  736MOL0     O 1454   4.922   8.571   3.760  1.5664  0.3502  0.5976
  736MOL0     C 1455   4.979   8.636   3.867  0.4121  0.6457  0.6230
  736MOL0     C 1456   4.992   8.568   3.985  0.6641 -0.6544  0.7541
  736MOL0     C 1457   5.050   8.638   4.087 -1.1199 -0.0021 -0.6204
  736MOL0     C 1458   5.073   8.561   4.214  0.1677 -0.5530  0.3684
  736MOL0     C 1459   5.098   8.771   4.076 -0.8281 -0.3102 -0.3133
  736MOL0     C 1460   5.169   8.842   4.186 -0.6821 -1.0933  0.6110
  736MOL0     O 1461   5.151   8.815   4.319 -1.3147 -0.5396  0.2701
  736MOL0     C 1462   5.219   8.869   4.428 -0.5902 -1.3260  0.6957
  736MOL0     C 1463   5.215   8.788   4.540  0.5469 -0.1752  0.0743
  736MOL0     C 1464   5.271   8.840   4.654  0.3905  0.1194  0.7369
  736MOL0     C 1465   5.345   8.956   4.666 -0.4320 -0.7878  0.6363
  736MOL0     O 1466   5.408   8.993   4.787 -0.1324 -0.2446  0.3867
  736MOL0     C 1467   5.325   9.015   4.894 -0.5110  0.2011 -0.2738
  736MOL0     C 1468   5.386   9.113   5.002 -0.0206 -0.7276  0.2038
  736MOL0     C 1469   5.448   9.041   5.128 -0.3691 -0.2802  0.1588
  736MOL0     C 1470   5.546   9.134   5.206 -0.6361 -0.3694 -0.0802
  736MOL0     C 1471   5.520   9.134   5.359  0.2816 -0.3356 -0.6406
  736MOL0     C 1472   5.388   9.207   5.392  0.3554 -0.1985 -0.5242
  736MOL0     C 1473   5.355   9.204   5.541  0.0351 -0.8571  0.0388
  736MOL0     C 1474   5.213   9.267   5.550  0.5970  0.7634  0.2854
  736MOL0    Cl 1475   5.231   9.444   5.529 -0.1781 -0.1775  0.1280
  736MOL0     C 1476   5.353   9.036   4.548  0.4289 -0.2766  0.5887
  736MOL0     C 1477   5.276   8.994   4.433 -0.4586  0.2509  1.1008
  736MOL0     O 1478   5.253   8.924   4.146 -0.1452  0.4640  0.4868
  736MOL0     C 1479   5.098   8.832   3.946  0.6334  0.4094 -0.8962
  736MOL0     C 1480   5.034   8.761   3.847 -0.8796  0.4707  0.2487
  736MOL0     N 1481   5.112   8.596   3.317  0.1053  0.5832  0.4957
  736MOL0     N 1482   5.231   8.641   3.319  0.1302 -0.2922  0.0614
  736MOL0     C 1483   5.598   8.404   4.218 -0.1918  0.5801 -0.1821
  736MOL0     C 1484   5.523   8.340   4.311  1.0975 -0.1767  0.8779
  736MOL0     C 1485   5.163   8.264   4.598  0.8754  0.4542 -0.0147
  736MOL0     C 1486   5.230   8.204   4.703 -0.8933  0.0382  0.0257
  736MOL0     C 1487   5.170   8.144   4.813  0.7663  0.2201 -0.7964
  736MOL0     C 1488   5.032   8.167   4.834 -0.1261  0.7332 -0.1743
  736MOL0     O 1489   4.970   8.116   4.946 -0.0179 -0.0576  0.2814
  736MOL0     C 1490   5.041   8.080   5.060  0.2896  0.2760  0.0520
  736MOL0     C 1491   5.108   8.194   5.130  1.1629 -0.2676  0.7178
  736MOL0     C 1492   5.208   8.149   5.241  0.9539 -0.3409 -0.9529
  736MOL0     C 1493   5.279   8.256   5.327  0.3888  0.0134  0.7623
  736MOL0     C 1494   5.182   8.333   5.406 -0.3846 -0.7013 -0.3576
  736MOL0     C 1495   5.105   8.401   5.466  0.2712  0.1792 -0.5036
  736MOL0     C 1496   4.968   8.228   4.733 -0.0781  0.2767 -0.5700
  736MOL0     C 1497   5.023   8.279   4.613  0.5535 -0.1394 -0.1782
  736MOL0     C 1498   4.937   8.357   4.518 -0.5221 -0.4730  0.0866
  736MOL0     H 1499   5.376   8.610   4.440  1.7687 -1.9854  2.6104
  736MOL0     H 1500   5.505   8.727   4.267 -0.9229 -0.3118 -1.2745
  736MOL0     H 1501   5.761   8.775   4.005  1.0663  3.3329  0.7717
  736MOL0     H 1502   5.697   8.812   4.163  1.3958  2.5433 -2.1771
  736MOL0     H 1503   5.461   8.765   4.049  0.2066 -2.0454  0.4932
  736MOL0     H 1504   5.551   8.874   3.974 -3.4542 -0.4086  2.4979
  736MOL0     H 1505   5.598   8.593   3.868 -0.2614 -0.4488 -3.1419
  736MOL0     H 1506   5.449   8.683   3.825  0.4613 -0.1980 -0.8199
  736MOL0     H 1507   5.722   8.785   3.785 -0.0362 -0.4769  1.0003
  736MOL0     H 1508   5.618   8.709   3.667 -1.3360 -1.0228  0.6674
  736MOL0     H 1509   5.627   8.989   3.764  0.0569 -0.0972 -0.5866
  736MOL0     H 1510   5.462   8.923   3.787  0.9613  0.2657  2.4157
  736MOL0     H 1511   5.509   9.039   3.572  3.8681  1.0848  0.3818
  736MOL0     H 1512   5.614   8.916   3.520 -0.4164  1.3677 -0.0076
  736MOL0     H 1513   5.312   8.881   3.592  0.1508  0.5719  0.4848
  736MOL0     H 1514   5.414   8.739   3.566 -5.0904 -0.5766 -1.2398
  736MOL0     H 1515   5.335   8.924   3.342 -0.6241  0.0165  0.0899
  736MOL0     H 1516   5.447   8.797   3.330 -2.1811 -0.3682 -3.2124
  736MOL0     H 1517   5.095   8.875   3.494  1.5160  0.4479  0.5821
  736MOL0     H 1518   4.818   8.729   3.362 -4.4739  0.7951  4.2741
  736MOL0     H 1519   4.886   8.734   3.527  0.7674 -1.0045  0.8690
  736MOL0     H 1520   4.750   8.530   3.496  0.5485 -0.5909  1.2723
  736MOL0     H 1521   4.854   8.489   3.359  1.1492 -0.1995 -0.7558
  736MOL0     H 1522   4.889   8.370   3.593  0.9966  0.2218  1.7032
  736MOL0     H 1523   5.019   8.411   3.489  3.7878  1.0585  3.7426
  736MOL0     H 1524   5.100   8.469   3.697 -0.3470  0.1542  1.3971
  736MOL0     H 1525   5.070   8.625   3.634 -3.6688  0.9098 -0.1066
  736MOL0     H 1526   4.956   8.467   3.997 -1.4430 -0.2328 -1.2800
  736MOL0     H 1527   5.173   8.590   4.249 -0.1927 -0.5210  1.3875
  736MOL0     H 1528   5.078   8.452   4.218  2.0924 -0.4679  1.7843
  736MOL0     H 1529   5.002   8.593   4.291 -1.0490 -0.9508 -0.5677
  736MOL0     H 1530   5.162   8.694   4.553 -0.1502  0.4963  2.7995
  736MOL0     H 1531   5.260   8.784   4.746 -0.4227 -1.3180 -0.2019
  736MOL0     H 1532   5.219   9.043   4.884 -0.2598  3.3115  3.4935
  736MOL0     H 1533   5.303   8.920   4.944 -1.8809  0.8779  0.4667
  736MOL0     H 1534   5.464   9.159   4.941 -0.1590 -1.0090 -0.1944
  736MOL0     H 1535   5.310   9.185   5.033 -0.6697 -0.7174 -1.3360
  736MOL0     H 1536   5.508   8.953   5.103  0.4706  0.2165  0.3673
  736MOL0     H 1537   5.372   9.012   5.201 -1.5328  0.0232 -0.8989
  736MOL0     H 1538   5.536   9.240   5.181 -0.2487 -0.3627 -0.2153
  736MOL0     H 1539   5.650   9.123   5.175 -0.9574  3.5346 -3.3487
  736MOL0     H 1540   5.510   9.037   5.410  1.3307  1.3829  3.2755
  736MOL0     H 1541   5.613   9.177   5.399  0.5206 -1.6950  0.3633
  736MOL0     H 1542   5.302   9.153   5.351 -0.1284  0.6819 -0.7054
  736MOL0     H 1543   5.374   9.308   5.351 -0.6853 -0.6234 -1.2741
  736MOL0     H 1544   5.432   9.255   5.601 -0.4317 -0.0632 -0.0140
  736MOL0     H 1545   5.351   9.100   5.573  0.9448 -1.5502 -1.9225
  736MOL0     H 1546   5.165   9.248   5.647  2.2074  2.5264  1.4761
  736MOL0     H 1547   5.147   9.214   5.480 -0.4579  1.8135  0.4628
  736MOL0     H 1548   5.398   9.134   4.547  0.7334 -0.3672 -2.2241
  736MOL0     H 1549   5.262   9.053   4.343 -2.9626 -0.1748  1.1297
  736MOL0     H 1550   5.143   8.930   3.933  0.8980  0.7625  1.9616
  736MOL0     H 1551   5.033   8.806   3.748  1.5136 -0.2526 -0.1704
  736MOL0     H 1552   5.662   8.344   4.154 -2.7038 -1.3725 -1.0548
  736MOL0     H 1553   5.511   8.235   4.290  0.1738  0.2522 -0.9212
  736MOL0     H 1554   5.331   8.169   4.685 -1.0409 -0.3344 -0.0857
  736MOL0     H 1555   5.238   8.105   4.887  0.2797  0.9549  0.0625
  736MOL0     H 1556   4.968   8.026   5.121  1.0273 -1.8651 -0.8694
  736MOL0     H 1557   5.110   7.996   5.053  0.3278 -0.1015  3.4529
  736MOL0     H 1558   5.041   8.265   5.179 -0.5417 -0.2282 -1.5428
  736MOL0     H 1559   5.157   8.250   5.050 -1.0747 -1.7150 -1.7886
  736MOL0     H 1560   5.154   8.087   5.313  2.2535  1.5832  1.8345
  736MOL0     H 1561   5.287   8.098   5.185  1.1751  1.2819 -2.1980
  736MOL0     H 1562   5.343   8.315   5.260  0.0371  0.9390  1.2299
  736MOL0     H 1563   5.346   8.209   5.399  0.0014 -1.8556 -0.0336
  736MOL0     H 1564   5.024   8.454   5.513  2.4550  1.8337  1.6243
  736MOL0     H 1565   4.862   8.243   4.752 -0.5693 -1.5694 -1.5272
  736MOL0     H 1566   4.929   8.304   4.422  0.1917 -3.6299  1.6287
  736MOL0     H 1567   4.832   8.355   4.547 -2.0614 -0.1954 -4.6442
  736MOL0     H 1568   4.973   8.460   4.517  0.6178 -0.8339 -1.9650
  737MOL0     O 1569   3.364   4.246  11.121 -0.3807  0.1139  0.6044
  737MOL0     C 1570   3.359   4.356  11.065 -0.2246  0.5642 -0.3308
  737MOL0     O 1571   3.345   4.477  11.127 -0.3899 -0.3204 -0.8564
  737MOL0     C 1572   3.388   4.477  11.259 -0.0290  1.0221  0.0332
  737MOL0     C 1573   3.301   4.466  11.370 -0.3044 -0.5341  0.1752
  737MOL0     C 1574   3.352   4.485  11.504 -0.3029  0.2840  1.1604
  737MOL0     C 1575   3.484   4.502  11.524 -1.2560  1.1001  0.0032
  737MOL0     O 1576   3.535   4.517  11.646 -0.1488 -0.3266 -0.0854
  737MOL0     C 1577   3.677   4.502  11.667 -0.0606  0.3143 -1.5789
  737MOL0     C 1578   3.729   4.520  11.807  0.3384  0.1153 -0.1202
  737MOL0     C 1579   3.679   4.657  11.871 -0.0566 -0.3106 -0.3462
  737MOL0     C 1580   3.578   4.638  11.990  0.5583  0.0833  0.0733
  737MOL0     C 1581   3.511   4.762  12.033  1.0360 -0.4269 -0.3770
  737MOL0     C 1582   3.411   4.736  12.154  0.8014  0.2269 -0.1416
  737MOL0     C 1583   3.329   4.871  12.188 -1.3274  0.4170 -0.0732
  737MOL0     C 1584   3.236   4.858  12.313  0.0021 -0.1959  0.1319
  737MOL0     N 1585   3.275   4.956  12.416 -0.3221  0.5627 -0.0008
  737MOL0     C 1586   3.261   4.937  12.554  0.3916  0.5747  0.5278
  737MOL0     C 1587   3.285   5.059  12.597  0.3044  0.5403 -0.4939
  737MOL0     C 1588   3.277   5.103  12.736  0.3817 -0.4965 -0.6036
  737MOL0     C 1589   3.134   5.161  12.769  0.0699 -1.5641  0.5568
  737MOL0     C 1590   3.140   5.253  12.895  0.4218 -0.0609 -0.1105
  737MOL0     C 1591   3.039   5.208  13.004 -0.6204  0.3071  0.0109
  737MOL0     O 1592   2.915   5.245  12.949  0.0551  0.8312 -0.0095
  737MOL0     C 1593   2.813   5.243  13.041  0.6957 -0.2761  0.1564
  737MOL0     C 1594   2.693   5.295  13.010 -0.3125 -0.3049  1.2743
  737MOL0     C 1595   2.582   5.286  13.101 -0.3077 -1.6013  0.2791
  737MOL0     C 1596   2.466   5.363  13.049  1.0557 -0.2871  0.6624
  737MOL0     C 1597   2.589   5.247  13.234  0.0684  0.5277  0.3526
  737MOL0     C 1598   2.489   5.244  13.341 -0.2414 -0.9999 -0.7923
  737MOL0     O 1599   2.530   5.191  13.465  0.4728 -0.2880  0.0548
  737MOL0     C 1600   2.434   5.142  13.552  0.2067 -0.1250  0.4960
  737MOL0     C 1601   2.302   5.099  13.512  0.8704  0.0066 -0.4485
  737MOL0     C 1602   2.222   5.037  13.608  0.0746  0.8663 -0.1580
  737MOL0     C 1603   2.256   5.038  13.746 -0.2985  0.6825  0.8076
  737MOL0     O 1604   2.163   4.980  13.831 -0.0330  0.6725 -1.1444
  737MOL0     C 1605   2.189   4.957  13.966  0.0385 -0.1924 -0.6607
  737MOL0     C 1606   2.274   4.831  13.984 -0.5021 -0.5476  0.3568
  737MOL0     C 1607   2.206   4.694  14.019  0.1504 -0.0264  1.2156
  737MOL0     C 1608   2.096   4.649  13.924  0.1018 -0.3418 -0.2807
  737MOL0     C 1609   2.014   4.525  13.957  0.7310  0.0076  0.1259
  737MOL0     C 1610   1.874   4.519  13.893  0.1381  0.4050 -0.2951
  737MOL0     C 1611   1.808   4.387  13.945 -0.8093 -0.6668  0.6967
  737MOL0     C 1612   1.661   4.371  13.910  0.0148 -0.9210 -0.2649
  737MOL0    Cl 1613   1.616   4.381  13.737 -0.0951  0.0792  0.5833
  737MOL0     C 1614   2.380   5.093  13.786 -0.6001 -0.1150  0.2418
  737MOL0     C 1615   2.469   5.146  13.690 -0.1715 -0.3529 -0.8066
  737MOL0     O 1616   2.382   5.296  13.316 -0.8431  0.5312 -0.5986
  737MOL0     C 1617   2.716   5.189  13.262 -0.5848 -0.2910  0.1234
  737MOL0     C 1618   2.823   5.188  13.174 -0.6063 -0.3148  0.0590
  737MOL0     N 1619   3.312   5.145  12.501 -0.1805 -0.1494 -0.0056
  737MOL0     N 1620   3.308   5.087  12.392  0.2941 -0.2947 -0.8769
  737MOL0     C 1621   3.570   4.488  11.413  0.7589  0.2671 -0.0041
  737MOL0     C 1622   3.523   4.485  11.289  0.0848 -0.5171  0.4176
  737MOL0     C 1623   3.362   4.347  10.924  0.3811 -0.4642  0.7714
  737MOL0     C 1624   3.320   4.230  10.854 -1.1408  0.6315 -0.3454
  737MOL0     C 1625   3.329   4.222  10.718  0.7460  0.7714 -1.2504
  737MOL0     C 1626   3.376   4.330  10.646 -0.7361 -0.3942 -0.6120
  737MOL0     O 1627   3.375   4.325  10.510 -0.8877  0.1096 -0.6849
  737MOL0     C 1628   3.254   4.336  10.443 -0.0736 -0.2317 -0.0014
  737MOL0     C 1629   3.242   4.471  10.373  0.2875 -0.2390 -0.6669
  737MOL0     C 1630   3.221   4.594  10.472 -0.3626  0.4406 -0.3121
  737MOL0     C 1631   3.161   4.716  10.405 -0.5670 -0.3692  0.0552
  737MOL0     C 1632   3.246   4.769  10.300  0.3272 -0.4574 -0.2933
  737MOL0     C 1633   3.308   4.831  10.221  0.5888  0.1849 -0.2093
  737MOL0     C 1634   3.423   4.445  10.708  0.5159 -0.1690 -0.2955
  737MOL0     C 1635   3.414   4.460  10.850 -0.2745  0.9152 -0.0816
  737MOL0     C 1636   3.463   4.593  10.907 -0.4460  0.1146  1.0246
  737MOL0     H 1637   3.195   4.444  11.365 -0.4171  0.1917 -1.1208
  737MOL0     H 1638   3.276   4.483  11.582  1.0884  0.4703  2.5640
  737MOL0     H 1639   3.726   4.581  11.609 -0.8912  0.4837 -2.0565
  737MOL0     H 1640   3.717   4.408  11.626  1.3134 -0.8605  2.0137
  737MOL0     H 1641   3.686   4.436  11.863  2.9539  0.2410  2.3253
  737MOL0     H 1642   3.839   4.514  11.807  0.3005 -1.7737  1.7049
  737MOL0     H 1643   3.762   4.716  11.913 -0.8517  1.6684 -1.4224
  737MOL0     H 1644   3.629   4.710  11.789 -1.6051 -3.4570 -1.6145
  737MOL0     H 1645   3.520   4.553  11.953  1.3640 -0.3252 -0.2675
  737MOL0     H 1646   3.628   4.598  12.079 -0.0597 -2.8988 -0.8084
  737MOL0     H 1647   3.462   4.818  11.953 -0.6634  2.2522  2.2961
  737MOL0     H 1648   3.588   4.828  12.075 -1.1537  0.3932  2.6845
  737MOL0     H 1649   3.338   4.661  12.123  2.1565 -1.5965  0.8365
  737MOL0     H 1650   3.456   4.683  12.239 -0.2853  0.4340  0.5918
  737MOL0     H 1651   3.271   4.911  12.105 -0.9747 -1.0248 -1.0547
  737MOL0     H 1652   3.406   4.946  12.206 -2.9907  2.2670 -0.3699
  737MOL0     H 1653   3.135   4.883  12.280 -0.1371 -1.8599 -0.7664
  737MOL0     H 1654   3.233   4.757  12.354 -0.9564 -0.0128  0.5341
  737MOL0     H 1655   3.235   4.845  12.605  0.3600  1.0341  1.3503
  737MOL0     H 1656   3.353   5.182  12.741  0.4082 -0.4535 -1.5897
  737MOL0     H 1657   3.310   5.023  12.803 -0.2721 -0.4391 -0.2081
  737MOL0     H 1658   3.090   5.205  12.679  0.8633 -1.1567  0.3564
  737MOL0     H 1659   3.070   5.074  12.787 -2.8550 -0.1342 -2.0402
  737MOL0     H 1660   3.242   5.242  12.932  0.2193 -1.7199  0.0286
  737MOL0     H 1661   3.129   5.361  12.885  1.9759  0.4619  2.8310
  737MOL0     H 1662   3.051   5.102  13.027  1.2398  0.4991  0.0946
  737MOL0     H 1663   3.067   5.271  13.089 -3.1723 -2.6190  3.3418
  737MOL0     H 1664   2.680   5.339  12.912  1.5307 -0.2336  1.0315
  737MOL0     H 1665   2.466   5.363  12.939  1.4642 -1.0820  0.6554
  737MOL0     H 1666   2.478   5.465  13.085  0.9709 -0.7067  1.9064
  737MOL0     H 1667   2.372   5.320  13.084 -0.6223  1.6642 -1.1473
  737MOL0     H 1668   2.269   5.099  13.408  0.5192  5.7526 -0.6557
  737MOL0     H 1669   2.120   5.003  13.591  0.3827 -0.3345  0.3005
  737MOL0     H 1670   2.226   5.051  14.007 -0.9369  1.3117 -3.0209
  737MOL0     H 1671   2.090   4.933  14.007 -0.9998  2.5043 -1.3485
  737MOL0     H 1672   2.335   4.810  13.896 -0.4375 -0.8387  0.4694
  737MOL0     H 1673   2.343   4.847  14.067 -3.5516  2.8939  2.5086
  737MOL0     H 1674   2.147   4.702  14.111 -0.4730 -0.2785  0.8434
  737MOL0     H 1675   2.271   4.609  14.042 -2.3087 -2.8432 -1.3421
  737MOL0     H 1676   2.141   4.643  13.824 -1.5277  2.1667 -1.2835
  737MOL0     H 1677   2.023   4.731  13.918  1.5682  1.2640  2.1800
  737MOL0     H 1678   2.071   4.438  13.922 -1.9862 -0.7690 -2.9267
  737MOL0     H 1679   2.001   4.523  14.065  1.5272  1.4979  0.2677
  737MOL0     H 1680   1.883   4.526  13.784  0.3596  0.6665 -0.2612
  737MOL0     H 1681   1.825   4.609  13.930  2.1475  0.2148  3.2550
  737MOL0     H 1682   1.813   4.382  14.055 -0.2908 -1.8867  0.6336
  737MOL0     H 1683   1.862   4.302  13.903  2.5104  2.5034 -2.0551
  737MOL0     H 1684   1.606   4.454  13.954 -0.1237 -0.0079 -2.0762
  737MOL0     H 1685   1.622   4.276  13.950 -1.5411 -1.3013 -2.5153
  737MOL0     H 1686   2.408   5.108  13.890  2.4909 -2.1103 -0.1530
  737MOL0     H 1687   2.558   5.193  13.733 -0.8305  0.9494 -0.8271
  737MOL0     H 1688   2.738   5.151  13.362  1.2757  0.0336 -0.1461
  737MOL0     H 1689   2.912   5.135  13.207 -0.2258 -0.5071 -1.2146
  737MOL0     H 1690   3.676   4.473  11.430  0.8695 -0.7164 -1.3808
  737MOL0     H 1691   3.591   4.496  11.205 -0.5958  0.5830 -0.0125
  737MOL0     H 1692   3.280   4.140  10.899 -0.3202  0.8410  0.8697
  737MOL0     H 1693   3.277   4.138  10.673 -1.2845 -0.8405  3.4746
  737MOL0     H 1694   3.238   4.253  10.374  2.3518 -2.2542  1.6955
  737MOL0     H 1695   3.183   4.310  10.521 -0.7102  2.2231  0.3239
  737MOL0     H 1696   3.164   4.472  10.296  1.0255  0.3607 -1.4242
  737MOL0     H 1697   3.333   4.505  10.323  2.4657 -0.3854  2.8611
  737MOL0     H 1698   3.144   4.557  10.540 -0.1653 -2.5061 -1.5482
  737MOL0     H 1699   3.321   4.614  10.513 -0.7668  3.4199 -0.5305
  737MOL0     H 1700   3.131   4.794  10.476 -2.8954  1.7892 -3.0126
  737MOL0     H 1701   3.065   4.684  10.361  0.0023  0.5122 -1.9410
  737MOL0     H 1702   3.363   4.889  10.149  0.8061  0.2785  0.0332
  737MOL0     H 1703   3.441   4.538  10.655 -0.6743 -0.5367 -1.3921
  737MOL0     H 1704   3.537   4.578  10.986 -0.9109 -1.8776  1.1321
  737MOL0     H 1705   3.511   4.647  10.826 -3.5771 -0.4109 -1.4098
  737MOL0     H 1706   3.377   4.651  10.944 -1.1382 -0.3666  0.2237
  738MOL0     O 1707  10.446  11.192   7.842 -0.3335  0.6187 -0.4840
  738MOL0     C 1708  10.468  11.140   7.734 -0.4390 -0.3391 -0.5157
  738MOL0     O 1709  10.383  11.059   7.669 -0.1482  0.0563  0.5549
  738MOL0     C 1710  10.256  11.052   7.723 -0.1938 -0.0968 -0.5127
  738MOL0     C 1711  10.207  10.926   7.770 -0.0247  0.5128  1.0537
  738MOL0     C 1712  10.072  10.906   7.814 -0.5003  0.0429 -0.2145
  738MOL0     C 1713   9.989  11.020   7.826 -0.2421 -0.9119  0.1726
  738MOL0     O 1714   9.864  10.991   7.872 -0.9662  0.1183  0.5926
  738MOL0     C 1715   9.776  11.091   7.898 -0.4942 -0.1351  0.1172
  738MOL0     C 1716   9.654  11.070   7.810  0.6979 -0.3640  0.1100
  738MOL0     C 1717   9.604  10.923   7.813  0.0033  0.1392 -0.8047
  738MOL0     C 1718   9.509  10.891   7.705  1.0543  0.0888 -0.0565
  738MOL0     C 1719   9.441  10.747   7.717 -0.1376 -0.1613  0.3903
  738MOL0     C 1720   9.352  10.714   7.836 -0.1083 -0.8565  0.8169
  738MOL0     C 1721   9.302  10.565   7.840  0.4742 -0.3199 -0.7674
  738MOL0     C 1722   9.260  10.533   7.984 -0.7441 -0.2825  0.9866
  738MOL0     N 1723   9.129  10.590   8.032 -0.0076  0.1528  0.6224
  738MOL0     C 1724   9.003  10.564   7.987 -0.6224  0.5180 -0.5609
  738MOL0     C 1725   8.927  10.643   8.068 -0.2211  0.4149 -0.4334
  738MOL0     C 1726   8.781  10.632   8.086  0.2368 -1.3320  0.3848
  738MOL0     C 1727   8.710  10.772   8.102 -0.4732  0.7100 -1.0195
  738MOL0     C 1728   8.705  10.862   7.978 -0.0064  0.4494 -0.2675
  738MOL0     C 1729   8.639  11.003   8.012  0.9232 -0.3976  0.8239
  738MOL0     O 1730   8.690  11.111   7.923  0.1369 -0.1024  0.1792
  738MOL0     C 1731   8.828  11.135   7.921 -0.0878  0.5582 -0.5501
  738MOL0     C 1732   8.929  11.072   8.009 -0.6469 -0.9460  0.0266
  738MOL0     C 1733   9.063  11.105   7.991  0.8876  0.5544 -1.0720
  738MOL0     C 1734   9.156  11.022   8.083 -1.0161  0.2474  0.7472
  738MOL0     C 1735   9.109  11.188   7.886  0.0370 -1.1443  0.8256
  738MOL0     C 1736   9.252  11.212   7.860 -0.8163  0.3690  0.6703
  738MOL0     O 1737   9.279  11.235   7.727  0.3447 -0.8408  0.2020
  738MOL0     C 1738   9.382  11.310   7.682 -0.0619  0.1248  0.2238
  738MOL0     C 1739   9.461  11.390   7.755 -0.0965 -0.3873  0.4383
  738MOL0     C 1740   9.550  11.487   7.695 -0.6048  0.3617  0.3738
  738MOL0     C 1741   9.541  11.508   7.558 -0.1575  0.2664  0.3567
  738MOL0     O 1742   9.617  11.607   7.505 -0.1137 -0.2994 -0.2437
  738MOL0     C 1743   9.685  11.564   7.387  0.5235 -0.9355  1.3921
  738MOL0     C 1744   9.813  11.637   7.348 -0.1084 -0.4301  0.1737
  738MOL0     C 1745   9.912  11.606   7.459  0.5101 -0.4292 -0.8968
  738MOL0     C 1746  10.015  11.525   7.398 -0.3291  0.3016 -0.3013
  738MOL0     C 1747  10.128  11.457   7.485  0.4495  0.1971 -0.1826
  738MOL0     C 1748  10.239  11.426   7.380  0.2554 -0.6526  0.3972
  738MOL0     C 1749  10.363  11.357   7.436 -0.8241 -0.0922 -0.2324
  738MOL0     C 1750  10.480  11.358   7.324  0.6037  0.0809 -0.7751
  738MOL0    Cl 1751  10.446  11.244   7.186 -0.0602  0.2646 -0.0530
  738MOL0     C 1752   9.460  11.419   7.481  0.1357  0.8439  0.0361
  738MOL0     C 1753   9.383  11.323   7.546  0.2801 -0.9301  0.1322
  738MOL0     O 1754   9.334  11.211   7.948 -0.0153  0.3112  0.6038
  738MOL0     C 1755   9.010  11.238   7.795  0.2291 -0.2441 -0.3244
  738MOL0     C 1756   8.871  11.213   7.812  0.1047  0.8636  0.2387
  738MOL0     N 1757   8.999  10.720   8.156  0.0028  0.5845 -0.2308
  738MOL0     N 1758   9.125  10.685   8.137 -0.2652  0.3684  1.1336
  738MOL0     C 1759  10.045  11.143   7.798 -0.5111 -0.3576  0.4739
  738MOL0     C 1760  10.170  11.160   7.738  0.7215  0.8879  0.4569
  738MOL0     C 1761  10.600  11.141   7.654  0.1200 -1.1445 -0.2845
  738MOL0     C 1762  10.604  11.078   7.520  1.4859  0.2586  0.4891
  738MOL0     C 1763  10.724  11.096   7.446  0.7445 -1.0752 -0.5149
  738MOL0     C 1764  10.834  11.164   7.500  0.9709  0.0351  1.1279
  738MOL0     O 1765  10.938  11.185   7.420 -0.2416  0.1803  1.0329
  738MOL0     C 1766  11.063  11.145   7.469  1.1162  0.9563  0.4326
  738MOL0     C 1767  11.170  11.237   7.419 -0.2419  0.6181 -0.5915
  738MOL0     C 1768  11.207  11.345   7.531  1.3274 -0.1112  0.6048
  738MOL0     C 1769  11.325  11.440   7.482  0.2997 -0.1539 -0.3593
  738MOL0     C 1770  11.367  11.542   7.586 -0.0241  0.1963  0.5373
  738MOL0     C 1771  11.389  11.601   7.686 -1.2844  0.0728 -0.6605
  738MOL0     C 1772  10.822  11.231   7.621 -1.1113  1.2283  0.2780
  738MOL0     C 1773  10.719  11.207   7.709 -0.5527 -0.6627 -0.9849
  738MOL0     C 1774  10.728  11.273   7.843 -0.0778 -0.3093 -0.6796
  738MOL0     H 1775  10.267  10.836   7.757  0.5759  1.1205 -0.7517
  738MOL0     H 1776  10.032  10.806   7.830  0.3971 -0.0945  1.3687
  738MOL0     H 1777   9.818  11.192   7.901 -0.1925 -0.2762  1.4010
  738MOL0     H 1778   9.743  11.078   8.002 -0.3961 -1.4185  0.0045
  738MOL0     H 1779   9.573  11.138   7.834 -0.9863 -1.9916 -0.6688
  738MOL0     H 1780   9.680  11.096   7.707  0.1668 -0.3272 -0.0140
  738MOL0     H 1781   9.681  10.846   7.814 -3.6548 -3.9275 -2.2317
  738MOL0     H 1782   9.556  10.905   7.910  0.8745 -1.6289 -0.6682
  738MOL0     H 1783   9.428  10.963   7.720  1.4261  0.6752 -0.8298
  738MOL0     H 1784   9.552  10.903   7.606  3.0125  0.6660  0.8069
  738MOL0     H 1785   9.534  10.690   7.707 -0.0031  0.1744 -0.2967
  738MOL0     H 1786   9.387  10.716   7.627 -1.4628  1.4449  0.5905
  738MOL0     H 1787   9.398  10.736   7.932 -0.9232  1.3525  0.7621
  738MOL0     H 1788   9.270  10.786   7.845  0.6717  0.2311 -0.4646
  738MOL0     H 1789   9.394  10.510   7.818  0.1859 -0.8828 -0.5881
  738MOL0     H 1790   9.221  10.540   7.772 -0.1739 -1.9524  0.5280
  738MOL0     H 1791   9.257  10.426   8.004 -1.0716 -0.5445 -0.4122
  738MOL0     H 1792   9.340  10.562   8.053 -2.1404  1.8117  1.8270
  738MOL0     H 1793   8.960  10.492   7.917 -0.6189 -0.2180  0.1898
  738MOL0     H 1794   8.754  10.578   8.177 -0.2936 -0.0564  1.0080
  738MOL0     H 1795   8.741  10.588   7.994 -2.0957  0.7557  0.3266
  738MOL0     H 1796   8.609  10.747   8.134  0.6146 -0.3059  2.0455
  738MOL0     H 1797   8.763  10.832   8.177 -0.9273 -0.7684  0.5552
  738MOL0     H 1798   8.801  10.865   7.925 -0.3304 -0.2147 -0.9075
  738MOL0     H 1799   8.646  10.808   7.903  1.4979  0.9995 -1.9283
  738MOL0     H 1800   8.530  10.994   8.005  0.9827  0.0732 -2.2842
  738MOL0     H 1801   8.669  11.027   8.114  2.8578  2.1076 -0.2358
  738MOL0     H 1802   8.896  11.005   8.088 -1.3355 -0.3885  0.2284
  738MOL0     H 1803   9.225  11.090   8.133 -0.2242 -0.1144  0.1698
  738MOL0     H 1804   9.212  10.947   8.026  1.7507  0.2638  3.2276
  738MOL0     H 1805   9.091  10.970   8.154 -0.5531 -0.2665  0.8025
  738MOL0     H 1806   9.461  11.392   7.864 -0.0158 -0.3955  0.4390
  738MOL0     H 1807   9.612  11.550   7.758  1.3426 -2.0351  1.0439
  738MOL0     H 1808   9.711  11.458   7.387 -0.5046 -1.2106  0.1856
  738MOL0     H 1809   9.616  11.577   7.303 -1.4464  1.6239  3.2376
  738MOL0     H 1810   9.845  11.581   7.260 -0.9111 -3.2703  1.5780
  738MOL0     H 1811   9.783  11.737   7.316  1.1897 -0.5796 -1.6443
  738MOL0     H 1812   9.870  11.558   7.548  3.0893 -1.2742 -0.0556
  738MOL0     H 1813   9.955  11.694   7.507  1.1490 -1.4642  0.4815
  738MOL0     H 1814  10.063  11.588   7.323 -0.7620  1.8795  0.7208
  738MOL0     H 1815   9.974  11.443   7.337 -2.0685  0.3244  0.7634
  738MOL0     H 1816  10.171  11.504   7.574 -0.0694  0.8451 -0.2678
  738MOL0     H 1817  10.079  11.366   7.520 -0.0639 -0.0429 -1.4940
  738MOL0     H 1818  10.264  11.520   7.329  2.1915 -0.4355  1.6254
  738MOL0     H 1819  10.208  11.354   7.304  2.4025 -0.4940 -0.7078
  738MOL0     H 1820  10.343  11.254   7.469  3.0331 -0.9040  0.0585
  738MOL0     H 1821  10.401  11.420   7.517 -1.3322  1.0234 -0.8413
  738MOL0     H 1822  10.577  11.336   7.369 -0.0515 -0.1699  0.5591
  738MOL0     H 1823  10.497  11.457   7.280  2.6748 -0.1030 -0.4802
  738MOL0     H 1824   9.464  11.426   7.372 -0.6913  2.2265  0.0729
  738MOL0     H 1825   9.315  11.265   7.485  1.5617 -0.0905 -2.2686
  738MOL0     H 1826   9.034  11.306   7.714  0.3692  3.5448  2.6198
  738MOL0     H 1827   8.803  11.250   7.736  0.5022 -2.3238 -1.8410
  738MOL0     H 1828   9.983  11.232   7.793  1.0479  0.8768  1.9095
  738MOL0     H 1829  10.207  11.262   7.742 -0.0840  1.1569  1.9658
  738MOL0     H 1830  10.519  11.029   7.475  0.3749  1.6444  0.9881
  738MOL0     H 1831  10.727  11.061   7.343  1.5228  1.3372 -1.3901
  738MOL0     H 1832  11.057  11.146   7.578  0.4541  2.7258  0.4177
  738MOL0     H 1833  11.066  11.040   7.438 -0.8996  0.9569  0.0663
  738MOL0     H 1834  11.145  11.274   7.319 -2.1137 -2.6440 -1.4769
  738MOL0     H 1835  11.254  11.172   7.392 -0.3538  0.7837 -1.3675
  738MOL0     H 1836  11.123  11.407   7.563  0.1744 -0.4921 -1.4948
  738MOL0     H 1837  11.240  11.285   7.616 -0.0337 -2.2022 -0.2531
  738MOL0     H 1838  11.286  11.491   7.394  3.7775 -0.1131 -2.0506
  738MOL0     H 1839  11.407  11.380   7.442 -0.2295 -0.1926 -1.4180
  738MOL0     H 1840  11.411  11.646   7.781 -0.6498 -2.8002  0.6623
  738MOL0     H 1841  10.908  11.284   7.660  0.1674 -2.2627  2.7333
  738MOL0     H 1842  10.825  11.318   7.864 -0.0143 -0.4037 -0.7683
  738MOL0     H 1843  10.651  11.350   7.859  0.0718 -0.7693  3.4643
  738MOL0     H 1844  10.726  11.200   7.924  1.2783 -1.1588 -1.3827
  739MOL0     O 1845  10.603   6.647   9.240  0.5885 -0.3152 -0.0014
  739MOL0     C 1846  10.663   6.749   9.269  0.4104  0.5442  0.0367
  739MOL0     O 1847  10.758   6.756   9.363  0.4966 -0.4523 -0.6713
  739MOL0     C 1848  10.883   6.782   9.315  0.3774 -0.0452  0.2528
  739MOL0     C 1849  10.949   6.909   9.333  0.6429  0.0220  0.1188
  739MOL0     C 1850  11.070   6.937   9.278  0.1561  0.1645 -1.1262
  739MOL0     C 1851  11.129   6.838   9.207 -0.2068  0.6915  0.7882
  739MOL0     O 1852  11.259   6.868   9.163  0.5697  0.3430  0.5820
  739MOL0     C 1853  11.364   6.768   9.141 -0.0082 -0.5658  0.6412
  739MOL0     C 1854  11.502   6.826   9.113  0.2438 -0.7780  0.1076
  739MOL0     C 1855  11.518   6.834   8.955 -0.3366  0.1828 -0.1338
  739MOL0     C 1856  11.643   6.907   8.915 -0.7679 -0.0257  0.0432
  739MOL0     C 1857  11.626   6.983   8.783 -0.1712 -0.5161  0.6916
  739MOL0     C 1858  11.762   7.032   8.733  0.4563 -0.0088 -0.7089
  739MOL0     C 1859  11.746   7.141   8.635 -0.1786 -0.1528  0.0658
  739MOL0     C 1860  11.659   7.114   8.513  0.1849  0.4622 -0.3313
  739MOL0     N 1861  11.647   7.213   8.409  0.2270  0.3658 -0.1764
  739MOL0     C 1862  11.754   7.246   8.324 -0.1000  1.3784 -0.1266
  739MOL0     C 1863  11.702   7.339   8.236  0.4841  0.4542 -0.5440
  739MOL0     C 1864  11.767   7.404   8.117 -0.4161 -0.1216 -0.3877
  739MOL0     C 1865  11.786   7.321   7.996 -0.3062 -0.0255 -0.1887
  739MOL0     C 1866  11.645   7.283   7.931 -0.6200 -0.6870 -0.2601
  739MOL0     C 1867  11.680   7.195   7.804  0.3184 -0.3681  0.2284
  739MOL0     O 1868  11.719   7.067   7.848  0.0564  0.3256 -0.3470
  739MOL0     C 1869  11.761   6.970   7.760  0.1356 -0.5140 -0.1689
  739MOL0     C 1870  11.762   6.840   7.800 -0.7758  0.7949  0.0620
  739MOL0     C 1871  11.803   6.736   7.715  0.2913 -0.0853  0.0308
  739MOL0     C 1872  11.811   6.586   7.775 -0.0034 -1.0429 -0.2132
  739MOL0     C 1873  11.829   6.767   7.582  0.1476  0.4397  0.3554
  739MOL0     C 1874  11.857   6.658   7.494  0.5631 -0.4086 -0.0965
  739MOL0     O 1875  11.988   6.643   7.452 -0.4356 -0.2381  0.0386
  739MOL0     C 1876  12.033   6.548   7.364  0.2414  0.4319  0.2128
  739MOL0     C 1877  11.992   6.411   7.364  0.1015 -0.0345 -0.0630
  739MOL0     C 1878  12.058   6.317   7.281 -0.0958 -0.2977 -0.9121
  739MOL0     C 1879  12.167   6.344   7.209  0.0948  0.3672 -0.2504
  739MOL0     O 1880  12.228   6.235   7.139 -0.5557 -0.4025 -0.0931
  739MOL0     C 1881  12.372   6.246   7.141 -0.1720  0.6434  0.0692
  739MOL0     C 1882  12.432   6.122   7.067 -0.1759 -0.1529 -0.8728
  739MOL0     C 1883  12.391   6.118   6.916 -0.1769  0.4880  0.7463
  739MOL0     C 1884  12.430   5.981   6.860 -0.2762 -0.3600  0.2185
  739MOL0     C 1885  12.359   5.953   6.723 -0.4924  0.0906  0.0639
  739MOL0     C 1886  12.448   5.965   6.601 -1.0275 -1.1175 -1.0488
  739MOL0     C 1887  12.366   6.011   6.485 -0.5111 -1.2253  1.1595
  739MOL0     C 1888  12.425   6.023   6.348 -0.5162  0.3438 -0.5049
  739MOL0    Cl 1889  12.551   6.149   6.329  0.6408 -0.2035  0.0392
  739MOL0     C 1890  12.196   6.478   7.198  0.1846 -0.9509 -0.6319
  739MOL0     C 1891  12.127   6.580   7.268  0.1306  0.2725 -0.5717
  739MOL0     O 1892  11.764   6.587   7.459  0.0403 -0.6081  0.0654
  739MOL0     C 1893  11.803   6.895   7.528  0.1897  0.6493  0.8963
  739MOL0     C 1894  11.784   6.998   7.621  0.4660 -1.1685  0.2308
  739MOL0     N 1895  11.562   7.337   8.256 -0.0594 -0.6234 -0.9282
  739MOL0     N 1896  11.535   7.261   8.354  0.6198 -0.6307  0.5345
  739MOL0     C 1897  11.074   6.711   9.181  0.1614  0.2996 -0.4809
  739MOL0     C 1898  10.948   6.684   9.228  0.5754  0.1513 -0.1042
  739MOL0     C 1899  10.623   6.875   9.196 -0.0170 -0.9855 -0.1626
  739MOL0     C 1900  10.627   6.868   9.058  0.9859 -0.0811  0.5013
  739MOL0     C 1901  10.587   6.972   8.985  0.4824  0.2796  0.3554
  739MOL0     C 1902  10.553   7.099   9.030  0.9584 -0.6003  0.1674
  739MOL0     O 1903  10.504   7.207   8.960  0.5417  0.2083  0.9007
  739MOL0     C 1904  10.499   7.205   8.815 -0.7454  0.5009 -1.0366
  739MOL0     C 1905  10.490   7.345   8.768 -0.1943 -0.4246 -0.2336
  739MOL0     C 1906  10.610   7.425   8.801  0.9373 -0.4249  0.3092
  739MOL0     C 1907  10.575   7.575   8.791  0.5239  0.1506 -0.4314
  739MOL0     C 1908  10.688   7.664   8.781 -0.0945  0.3341 -0.6052
  739MOL0     C 1909  10.777   7.744   8.756 -0.1322  0.7101 -0.7190
  739MOL0     C 1910  10.567   7.114   9.174 -0.2043 -0.9525  0.4680
  739MOL0     C 1911  10.591   6.996   9.257  0.7411 -0.7781  0.9270
  739MOL0     C 1912  10.560   6.999   9.405 -0.0068  0.6011  0.1465
  739MOL0     H 1913  10.903   6.987   9.392  0.2779  1.6031 -2.1206
  739MOL0     H 1914  11.112   7.033   9.306  0.4065 -0.7503  1.9736
  739MOL0     H 1915  11.338   6.700   9.060  0.6565  1.0753 -1.0314
  739MOL0     H 1916  11.372   6.716   9.237  2.1603 -1.1087  0.1950
  739MOL0     H 1917  11.495   6.926   9.155 -3.8381 -0.5027 -0.8178
  739MOL0     H 1918  11.574   6.754   9.154  1.4279  0.2374 -0.1141
  739MOL0     H 1919  11.511   6.738   8.904 -0.9117  0.4113 -0.4998
  739MOL0     H 1920  11.435   6.898   8.924 -2.9487 -2.8659  0.0579
  739MOL0     H 1921  11.690   6.980   8.981  2.6620 -0.2347 -1.9345
  739MOL0     H 1922  11.722   6.831   8.910 -1.4904 -0.8195  0.3524
  739MOL0     H 1923  11.560   7.067   8.802  1.2553  0.8733 -0.2040
  739MOL0     H 1924  11.587   6.916   8.705  1.1481 -0.3586 -0.1401
  739MOL0     H 1925  11.822   7.067   8.818  1.5172  0.3326 -1.5892
  739MOL0     H 1926  11.808   6.939   8.699 -0.8464 -1.6973  1.7850
  739MOL0     H 1927  11.850   7.149   8.601  0.7545 -5.0980  0.9407
  739MOL0     H 1928  11.713   7.230   8.688  1.7594  0.8014 -0.2523
  739MOL0     H 1929  11.700   7.020   8.474 -1.6107 -1.7885  2.7081
  739MOL0     H 1930  11.553   7.099   8.540 -0.3444  0.9616 -2.0526
  739MOL0     H 1931  11.851   7.199   8.339 -1.9541 -3.3195 -0.8972
  739MOL0     H 1932  11.865   7.447   8.141 -0.0573  0.3456 -2.5044
  739MOL0     H 1933  11.702   7.490   8.099 -1.5698 -0.7599  0.6049
  739MOL0     H 1934  11.834   7.394   7.931 -2.2523  0.8176 -0.7593
  739MOL0     H 1935  11.862   7.244   8.014  0.3472  0.8366  0.9030
  739MOL0     H 1936  11.580   7.224   7.997 -4.0234  2.4335 -0.5269
  739MOL0     H 1937  11.585   7.365   7.891  2.9286  1.3115 -1.9567
  739MOL0     H 1938  11.596   7.211   7.736  1.2725  3.3047 -0.2942
  739MOL0     H 1939  11.773   7.235   7.761 -0.7596  2.6424  0.5083
  739MOL0     H 1940  11.739   6.819   7.904  1.2816  2.9484  1.0534
  739MOL0     H 1941  11.796   6.581   7.883 -0.7620 -0.5558 -0.2963
  739MOL0     H 1942  11.910   6.549   7.746 -0.2227 -1.2187 -0.7512
  739MOL0     H 1943  11.736   6.522   7.728 -0.1650  0.6522 -2.4656
  739MOL0     H 1944  11.907   6.382   7.425 -2.3587 -0.1699 -3.2733
  739MOL0     H 1945  12.028   6.212   7.281 -0.6556 -0.1839  1.1327
  739MOL0     H 1946  12.407   6.335   7.088  2.8739  0.2672  1.2143
  739MOL0     H 1947  12.404   6.252   7.245 -1.9514  0.8628  0.6242
  739MOL0     H 1948  12.540   6.109   7.081 -0.5345 -2.8972 -0.1546
  739MOL0     H 1949  12.401   6.035   7.125  1.2720 -0.3234 -0.3087
  739MOL0     H 1950  12.434   6.200   6.859  1.8830 -0.8284  0.2763
  739MOL0     H 1951  12.283   6.132   6.902 -0.2206 -0.3281  0.1977
  739MOL0     H 1952  12.415   5.902   6.934 -1.4572  0.2114  0.5960
  739MOL0     H 1953  12.538   5.972   6.841 -0.2530 -1.3485  0.7528
  739MOL0     H 1954  12.314   5.853   6.723 -1.2019  0.4051 -0.0856
  739MOL0     H 1955  12.284   6.031   6.711 -0.5878  0.2595  1.5592
  739MOL0     H 1956  12.508   5.874   6.589  4.4179  1.5123  2.2130
  739MOL0     H 1957  12.522   6.042   6.626 -1.0354 -1.7752  1.3078
  739MOL0     H 1958  12.316   6.105   6.510  1.7371 -0.1112  1.7373
  739MOL0     H 1959  12.294   5.929   6.476  1.0356 -2.5554  0.4462
  739MOL0     H 1960  12.339   6.037   6.282 -0.8492  0.2458 -0.0906
  739MOL0     H 1961  12.459   5.921   6.324  0.2300  0.5700 -0.4246
  739MOL0     H 1962  12.254   6.524   7.118 -1.2961  3.8034  0.6613
  739MOL0     H 1963  12.153   6.685   7.268  0.1646  0.3152  1.9060
  739MOL0     H 1964  11.813   6.912   7.421  0.6693  1.3461  1.0496
  739MOL0     H 1965  11.763   7.099   7.587  2.2397 -0.3149  1.5155
  739MOL0     H 1966  11.134   6.633   9.134 -0.6375 -2.2875  2.4038
  739MOL0     H 1967  10.905   6.588   9.203  1.8796 -0.8420  1.3130
  739MOL0     H 1968  10.665   6.785   8.999  3.0812  1.0377  0.1821
  739MOL0     H 1969  10.585   6.953   8.878 -1.0022  1.1852  0.1862
  739MOL0     H 1970  10.579   7.147   8.769 -2.8245 -1.0810 -2.8335
  739MOL0     H 1971  10.408   7.155   8.783 -0.5592 -0.1878 -0.5262
  739MOL0     H 1972  10.401   7.395   8.810  0.6683  1.3511 -0.4096
  739MOL0     H 1973  10.485   7.338   8.659 -3.2127  1.4728 -0.3522
  739MOL0     H 1974  10.643   7.423   8.906  2.1968 -1.1425 -0.0721
  739MOL0     H 1975  10.696   7.394   8.741  2.0118 -1.4160  2.2479
  739MOL0     H 1976  10.515   7.609   8.876 -1.4575  0.6753 -1.9566
  739MOL0     H 1977  10.521   7.602   8.699 -1.3198 -0.9626  0.2613
  739MOL0     H 1978  10.853   7.813   8.726  2.4189 -2.3122 -1.6595
  739MOL0     H 1979  10.542   7.208   9.222  1.5038  0.5612 -1.4255
  739MOL0     H 1980  10.511   6.910   9.445 -1.2187  0.9290 -0.5637
  739MOL0     H 1981  10.649   7.010   9.468  0.9449 -1.6451 -0.7065
  739MOL0     H 1982  10.498   7.079   9.447  0.5579 -0.2812  2.8855
  740MOL0     O 1983   0.277  10.935  11.360 -0.1244 -0.0839  0.4541
  740MOL0     C 1984   0.342  10.950  11.464  0.0706  0.4079 -0.5127
  740MOL0     O 1985   0.296  10.957  11.598  0.7143 -0.5053  0.0924
  740MOL0     C 1986   0.172  10.902  11.625  0.0032 -0.6302  0.6631
  740MOL0     C 1987   0.049  10.920  11.574  0.6205  1.7318 -0.5431
  740MOL0     C 1988  -0.064  10.845  11.628  1.0195  0.7580 -0.5362
  740MOL0     C 1989  -0.055  10.762  11.731 -0.9473  0.4266 -0.0106
  740MOL0     O 1990  -0.150  10.686  11.785  0.0886  0.3422  0.0105
  740MOL0     C 1991  -0.277  10.752  11.808  0.5943 -0.2315  0.2919
  740MOL0     C 1992  -0.263  10.877  11.892 -0.0398  0.6330 -0.1850
  740MOL0     C 1993  -0.393  10.904  11.967 -0.6122 -0.0078 -0.5345
  740MOL0     C 1994  -0.511  10.951  11.872 -0.2398  0.0782 -0.1512
  740MOL0     C 1995  -0.653  10.950  11.933 -0.1403 -0.0829 -0.5640
  740MOL0     C 1996  -0.768  10.990  11.833  0.4704 -0.2187 -0.6462
  740MOL0     C 1997  -0.908  10.986  11.907  0.7375 -0.3566 -0.9137
  740MOL0     C 1998  -0.977  10.855  11.959  0.3652 -0.3920 -0.0316
  740MOL0     N 1999  -1.021  10.767  11.849 -0.8496 -0.3725  0.2438
  740MOL0     C 2000  -0.953  10.696  11.743  0.1078  0.0067 -0.1794
  740MOL0     C 2001  -1.026  10.592  11.711 -0.9410  0.1352 -0.2576
  740MOL0     C 2002  -0.995  10.500  11.589  0.3587  0.4415  0.4728
  740MOL0     C 2003  -0.989  10.357  11.629  0.6949 -0.4922 -0.1459
  740MOL0     C 2004  -0.920  10.269  11.530 -0.4808  0.2121  0.2680
  740MOL0     C 2005  -0.982  10.204  11.402  1.2288  0.8059 -0.7862
  740MOL0     O 2006  -0.987  10.296  11.300 -0.6056 -0.3611  0.2803
  740MOL0     C 2007  -0.913  10.269  11.193 -0.7056 -0.4382  0.1320
  740MOL0     C 2008  -0.965  10.181  11.097  0.1633  0.4299  0.3606
  740MOL0     C 2009  -0.888  10.150  10.979 -1.0153  0.1604 -0.6246
  740MOL0     C 2010  -0.930  10.036  10.890  0.8204  0.3549  0.1688
  740MOL0     C 2011  -0.771  10.226  10.956 -0.0034  0.0271 -0.0638
  740MOL0     C 2012  -0.682  10.218  10.846 -0.2615 -0.7739  0.2166
  740MOL0     O 2013  -0.562  10.284  10.850 -0.2592 -0.1617 -0.8140
  740MOL0     C 2014  -0.480  10.284  10.747  0.3398 -0.8231  0.1573
  740MOL0     C 2015  -0.501  10.382  10.639  0.8304 -0.6876  0.0140
  740MOL0     C 2016  -0.424  10.369  10.522  0.3040 -0.3566  0.1785
  740MOL0     C 2017  -0.324  10.273  10.510  0.1547  0.7124  0.8932
  740MOL0     O 2018  -0.264  10.275  10.385  0.3663 -0.6362  0.2437
  740MOL0     C 2019  -0.155  10.179  10.359  0.0893 -0.2313 -0.1890
  740MOL0     C 2020  -0.108  10.183  10.209  0.3467 -0.1304 -0.0110
  740MOL0     C 2021  -0.219  10.135  10.118 -0.3803 -0.5935  0.6184
  740MOL0     C 2022  -0.177  10.059   9.990 -0.2614  0.6377  0.0465
  740MOL0     C 2023  -0.117  10.153   9.883  0.7893  0.7433  0.8261
  740MOL0     C 2024  -0.112  10.097   9.736 -0.3760 -1.1810 -0.0239
  740MOL0     C 2025  -0.012   9.985   9.728 -0.3996  0.7219 -0.3621
  740MOL0     C 2026  -0.015   9.949   9.582  0.2240  0.1996 -0.3446
  740MOL0    Cl 2027  -0.175   9.923   9.503 -0.2205  0.3045 -0.2515
  740MOL0     C 2028  -0.288  10.196  10.618 -1.5079  0.8493 -0.1830
  740MOL0     C 2029  -0.362  10.205  10.740  0.7872 -0.1029  0.4887
  740MOL0     O 2030  -0.710  10.145  10.754 -0.1227  0.1366  0.8309
  740MOL0     C 2031  -0.735  10.330  11.050 -0.1445 -0.0721  0.1813
  740MOL0     C 2032  -0.802  10.350  11.161 -0.0175  0.5736  0.0473
  740MOL0     N 2033  -1.140  10.594  11.799 -0.8972  0.4783 -0.5806
  740MOL0     N 2034  -1.136  10.705  11.870 -0.9677 -0.6836 -0.1267
  740MOL0     C 2035   0.074  10.742  11.782  0.4181  0.1352 -0.0814
  740MOL0     C 2036   0.185  10.807  11.729 -0.7355  0.3625  0.0148
  740MOL0     C 2037   0.486  10.930  11.441 -0.1779 -0.2536  0.2734
  740MOL0     C 2038   0.568  11.020  11.516  0.0277  0.1299  0.7261
  740MOL0     C 2039   0.706  11.038  11.484  0.0153  0.0685 -0.7157
  740MOL0     C 2040   0.769  10.937  11.409 -0.4307 -0.2801 -0.8183
  740MOL0     O 2041   0.903  10.926  11.421 -0.3016 -0.3393 -0.1384
  740MOL0     C 2042   0.989  10.885  11.314 -0.1775  1.1752  0.0058
  740MOL0     C 2043   1.133  10.868  11.348 -0.3045 -0.7627 -0.0886
  740MOL0     C 2044   1.159  10.768  11.459  1.0289  0.3426  0.5759
  740MOL0     C 2045   1.296  10.748  11.505 -0.2588 -1.1222 -0.8284
  740MOL0     C 2046   1.346  10.857  11.594  0.1733 -0.9185 -0.6486
  740MOL0     C 2047   1.375  10.944  11.674 -0.3669  0.2044  0.0911
  740MOL0     C 2048   0.690  10.836  11.352  1.0718  0.9929 -0.2727
  740MOL0     C 2049   0.551  10.833  11.353  0.3566 -0.2605 -0.1346
  740MOL0     C 2050   0.485  10.729  11.263  0.1339  0.1128  0.4230
  740MOL0     H 2051   0.026  10.987  11.492 -1.4592 -0.8131 -2.2031
  740MOL0     H 2052  -0.164  10.865  11.589  0.0056 -2.2709  0.2984
  740MOL0     H 2053  -0.343  10.680  11.857  0.7581  0.9956  2.4391
  740MOL0     H 2054  -0.329  10.764  11.712  0.4313 -2.0452  0.1267
  740MOL0     H 2055  -0.184  10.856  11.964  1.6238 -1.7896 -2.5006
  740MOL0     H 2056  -0.251  10.966  11.830  2.2757  0.2110 -0.4171
  740MOL0     H 2057  -0.421  10.817  12.027 -3.5006 -0.4990 -2.3895
  740MOL0     H 2058  -0.376  10.988  12.035 -0.4371 -0.6544  0.2316
  740MOL0     H 2059  -0.498  11.052  11.832 -0.4451 -0.6104 -2.0560
  740MOL0     H 2060  -0.513  10.894  11.778 -1.3399  0.2542 -0.2439
  740MOL0     H 2061  -0.650  11.022  12.016 -1.0815 -0.4895 -0.1621
  740MOL0     H 2062  -0.675  10.852  11.975 -0.2675 -0.0871 -0.6377
  740MOL0     H 2063  -0.756  11.093  11.799  0.0720  0.2436  0.5607
  740MOL0     H 2064  -0.774  10.933  11.739  0.1656 -1.5974  0.1769
  740MOL0     H 2065  -0.982  11.036  11.844 -1.6993 -0.2529  1.7963
  740MOL0     H 2066  -0.893  11.037  12.003 -2.5027 -1.5415  0.3859
  740MOL0     H 2067  -0.905  10.802  12.021 -0.9949 -2.2087  0.0855
  740MOL0     H 2068  -1.067  10.876  12.018  1.2049  0.0720  1.1151
  740MOL0     H 2069  -0.865  10.740  11.697  1.1096  0.5418  2.0837
  740MOL0     H 2070  -0.905  10.532  11.536  0.2415 -1.2215 -0.8421
  740MOL0     H 2071  -1.077  10.518  11.518  2.0236  0.7396 -1.4675
  740MOL0     H 2072  -0.936  10.352  11.724 -2.0141 -0.0558  1.4949
  740MOL0     H 2073  -1.086  10.315  11.657 -0.1962  0.7834 -1.1607
  740MOL0     H 2074  -0.825  10.312  11.496  0.6050 -0.8546  1.7758
  740MOL0     H 2075  -0.898  10.178  11.588 -0.3965  1.1328  1.7363
  740MOL0     H 2076  -0.942  10.107  11.369 -3.1443 -0.8998 -1.6893
  740MOL0     H 2077  -1.087  10.179  11.421  0.9916  2.6249  0.5011
  740MOL0     H 2078  -1.052  10.122  11.126  0.1972 -0.6506 -1.5645
  740MOL0     H 2079  -0.940  10.044  10.781 -0.2017 -1.0631  0.1240
  740MOL0     H 2080  -1.026   9.994  10.920 -0.4254  1.9151 -1.4204
  740MOL0     H 2081  -0.859   9.956  10.912 -1.2782 -1.3608  1.0659
  740MOL0     H 2082  -0.584  10.451  10.628  0.9371 -0.7306 -1.1713
  740MOL0     H 2083  -0.444  10.427  10.432 -1.1302 -0.3221  0.5018
  740MOL0     H 2084  -0.071  10.213  10.420  0.2612 -1.4819  0.3104
  740MOL0     H 2085  -0.180  10.075  10.382  0.2692 -0.4435 -0.9146
  740MOL0     H 2086  -0.107  10.287  10.175 -0.2097  0.0620  0.5354
  740MOL0     H 2087  -0.013  10.135  10.185  0.7307 -0.0855  1.3582
  740MOL0     H 2088  -0.271  10.227  10.092 -1.3113 -1.7405 -1.8348
  740MOL0     H 2089  -0.284  10.064  10.170 -0.0272  0.1385  2.1233
  740MOL0     H 2090  -0.266  10.021   9.939 -0.0004  0.7523 -0.5044
  740MOL0     H 2091  -0.112   9.971   9.998  0.5525  1.1975 -0.2102
  740MOL0     H 2092  -0.181  10.241   9.878 -0.8465 -0.4218  0.3496
  740MOL0     H 2093  -0.017  10.173   9.923  0.2087 -0.3994  3.0300
  740MOL0     H 2094  -0.075  10.182   9.677  1.0274 -2.5003 -1.1169
  740MOL0     H 2095  -0.214  10.068   9.710 -1.4109 -0.4678  2.8181
  740MOL0     H 2096  -0.053   9.901   9.785  0.6195  0.5679  0.1621
  740MOL0     H 2097   0.090  10.010   9.760 -0.3610  2.2913 -1.5742
  740MOL0     H 2098   0.036   9.854   9.572 -1.0092 -0.4782 -0.4064
  740MOL0     H 2099   0.037  10.026   9.524 -0.1110 -0.9423 -2.2222
  740MOL0     H 2100  -0.196  10.139  10.609 -1.5082  0.9942 -1.3264
  740MOL0     H 2101  -0.329  10.142  10.822 -1.1170 -1.1248  0.5347
  740MOL0     H 2102  -0.658  10.404  11.030 -0.1578 -0.1605 -0.2224
  740MOL0     H 2103  -0.773  10.431  11.226  1.3369 -1.3413  1.9637
  740MOL0     H 2104   0.081  10.661  11.854 -1.2043 -1.8690 -2.0726
  740MOL0     H 2105   0.287  10.800  11.766 -0.7689 -1.9886 -0.1641
  740MOL0     H 2106   0.526  11.102  11.572  2.2369  0.2829  2.2618
  740MOL0     H 2107   0.761  11.122  11.524 -0.2659  1.4480 -3.0329
  740MOL0     H 2108   0.960  10.789  11.269  0.7246  0.7937  0.2103
  740MOL0     H 2109   0.983  10.957  11.232  1.2951 -1.5440 -2.6855
  740MOL0     H 2110   1.161  10.972  11.367 -1.1728  0.0252 -2.6836
  740MOL0     H 2111   1.186  10.835  11.258 -0.9896 -1.4099 -0.2588
  740MOL0     H 2112   1.087  10.793  11.538 -1.2829  0.9560 -1.5822
  740MOL0     H 2113   1.125  10.673  11.418 -2.3865  2.0781 -1.0791
  740MOL0     H 2114   1.364  10.736  11.420 -2.5585 -0.3060 -2.9019
  740MOL0     H 2115   1.298  10.648  11.550 -0.0348  0.0568  1.9801
  740MOL0     H 2116   1.397  11.017  11.749 -1.0068  1.2439 -0.7005
  740MOL0     H 2117   0.740  10.756  11.298 -0.1944 -0.8243  1.1358
  740MOL0     H 2118   0.497  10.750  11.157 -0.1172  0.3001  0.4302
  740MOL0     H 2119   0.534  10.632  11.279  1.9407  0.2038 -3.5905
  740MOL0     H 2120   0.377  10.716  11.280  0.2036  0.8322  1.4985
  741MOL0     O 2121   3.935   9.102   7.430 -0.3814  0.0438  0.3072
  741MOL0     C 2122   3.991   9.096   7.543  0.7781 -0.0195 -0.3762
  741MOL0     O 2123   3.968   9.192   7.642 -0.3472  0.1835 -0.1040
  741MOL0     C 2124   3.890   9.310   7.619  0.0179  0.1804  0.4986
  741MOL0     C 2125   3.941   9.435   7.667  1.3037  0.9719  0.3554
  741MOL0     C 2126   3.872   9.552   7.625 -0.0461  0.5157 -0.5730
  741MOL0     C 2127   3.757   9.556   7.565  0.1331 -0.7653  0.2861
  741MOL0     O 2128   3.706   9.680   7.521 -0.0617 -0.2711 -0.1138
  741MOL0     C 2129   3.600   9.682   7.426 -0.1444 -1.0459  0.8080
  741MOL0     C 2130   3.548   9.825   7.420 -0.1485  0.1952 -0.6700
  741MOL0     C 2131   3.644   9.921   7.349 -1.3082 -0.3736  0.7410
  741MOL0     C 2132   3.657  10.051   7.423  1.2149 -0.2733 -0.5776
  741MOL0     C 2133   3.714  10.029   7.561 -0.1831 -0.2803  0.0380
  741MOL0     C 2134   3.626  10.076   7.668  0.7902  0.1817  0.6061
  741MOL0     C 2135   3.587  10.230   7.655 -1.0999  0.8451 -0.2172
  741MOL0     C 2136   3.526  10.269   7.792  0.3801 -0.5957  0.7589
  741MOL0     N 2137   3.381  10.234   7.798  0.2223  1.2041 -0.4314
  741MOL0     C 2138   3.269  10.312   7.761 -0.4131  0.4127 -0.3660
  741MOL0     C 2139   3.165  10.232   7.777 -0.2182 -0.1706  0.4216
  741MOL0     C 2140   3.020  10.259   7.734  0.0525 -0.3049 -0.1935
  741MOL0     C 2141   2.911  10.248   7.846  0.4262 -0.6919 -0.5323
  741MOL0     C 2142   2.890  10.108   7.886  0.2106 -0.0907 -0.0933
  741MOL0     C 2143   2.865   9.998   7.774 -0.4266 -0.9713 -0.0637
  741MOL0     O 2144   2.782  10.052   7.667 -0.0146 -0.2555  0.0331
  741MOL0     C 2145   2.735   9.961   7.576 -0.5268  0.3111  1.2423
  741MOL0     C 2146   2.659  10.018   7.482  1.5011  0.3569 -0.0320
  741MOL0     C 2147   2.602   9.948   7.372  0.2533  0.0706 -0.0558
  741MOL0     C 2148   2.510  10.011   7.266  0.5436 -0.4781 -0.6005
  741MOL0     C 2149   2.623   9.807   7.366  0.6798  0.0103  0.3185
  741MOL0     C 2150   2.554   9.717   7.264  0.7711 -0.4274  0.8184
  741MOL0     O 2151   2.564   9.758   7.132  0.0186 -0.6206  0.1923
  741MOL0     C 2152   2.490   9.697   7.043  0.0899 -0.6031 -0.1114
  741MOL0     C 2153   2.369   9.754   7.006  0.2483 -0.1464 -0.9932
  741MOL0     C 2154   2.286   9.685   6.924 -0.4285  0.6905  0.2813
  741MOL0     C 2155   2.322   9.577   6.851  0.1799 -0.7354  0.4846
  741MOL0     O 2156   2.235   9.537   6.747 -0.3233 -0.3052  0.2087
  741MOL0     C 2157   2.282   9.488   6.617  0.8644  0.6486 -0.4494
  741MOL0     C 2158   2.164   9.457   6.538  0.1327  0.4453 -0.3406
  741MOL0     C 2159   2.208   9.370   6.422  0.6230  0.3686 -0.2695
  741MOL0     C 2160   2.093   9.359   6.318 -0.5971 -0.0484 -0.4497
  741MOL0     C 2161   2.103   9.236   6.234  0.4223 -0.2881  0.5881
  741MOL0     C 2162   2.236   9.219   6.163  0.1604 -0.0284 -0.0497
  741MOL0     C 2163   2.211   9.157   6.023 -0.2244  0.3451 -0.1022
  741MOL0     C 2164   2.346   9.083   5.983 -0.5806  0.9841 -1.1943
  741MOL0    Cl 2165   2.343   9.061   5.811 -0.3211 -0.2850  0.0273
  741MOL0     C 2166   2.454   9.519   6.877  0.6606 -0.6664 -0.4086
  741MOL0     C 2167   2.520   9.570   6.990 -1.0133 -0.1750  0.4273
  741MOL0     O 2168   2.491   9.615   7.304 -0.1089 -0.4639  0.5661
  741MOL0     C 2169   2.704   9.753   7.466 -0.6760  0.4755  0.0468
  741MOL0     C 2170   2.766   9.820   7.572 -0.2371 -0.9240 -1.2531
  741MOL0     N 2171   3.212  10.104   7.808  0.9689 -0.8421  1.5056
  741MOL0     N 2172   3.340  10.105   7.817 -0.5633  0.2397  0.3665
  741MOL0     C 2173   3.705   9.431   7.519  0.3228  0.0207  0.2467
  741MOL0     C 2174   3.771   9.308   7.543  0.3360  1.1439 -0.1007
  741MOL0     C 2175   4.077   8.970   7.585  0.8394  0.7501  0.3198
  741MOL0     C 2176   4.112   8.869   7.489  0.7129  0.4184 -1.5956
  741MOL0     C 2177   4.178   8.752   7.523 -0.2011 -0.7402  0.7805
  741MOL0     C 2178   4.230   8.736   7.646  0.1986  0.4604  0.1615
  741MOL0     O 2179   4.291   8.613   7.663 -0.4168  0.0023 -0.1589
  741MOL0     C 2180   4.335   8.581   7.793  0.3283 -0.1387 -0.3475
  741MOL0     C 2181   4.442   8.472   7.789  0.7700 -0.1902 -0.4907
  741MOL0     C 2182   4.570   8.482   7.869  0.1397 -0.7229 -0.2694
  741MOL0     C 2183   4.664   8.364   7.863 -0.7388 -0.4374 -0.6765
  741MOL0     C 2184   4.604   8.231   7.889  0.2454 -0.4171 -0.5558
  741MOL0     C 2185   4.549   8.121   7.917  0.6857 -0.2041  0.0970
  741MOL0     C 2186   4.205   8.834   7.746  0.5445 -1.1137 -0.2042
  741MOL0     C 2187   4.137   8.954   7.714  0.0308  0.5024 -0.0594
  741MOL0     C 2188   4.153   9.056   7.814 -0.3664 -0.1366 -0.8341
  741MOL0     H 2189   4.039   9.438   7.714  0.7995 -1.3893  1.6704
  741MOL0     H 2190   3.920   9.642   7.662 -2.5965  1.9738 -0.5853
  741MOL0     H 2191   3.523   9.607   7.446 -0.7324 -0.8458 -0.6146
  741MOL0     H 2192   3.640   9.649   7.330 -3.2119 -1.6096 -0.3833
  741MOL0     H 2193   3.442   9.838   7.396 -0.7538 -2.4887  0.2706
  741MOL0     H 2194   3.543   9.851   7.526  0.7639 -0.2396 -0.5081
  741MOL0     H 2195   3.741   9.872   7.334 -1.3961  0.2588 -3.1722
  741MOL0     H 2196   3.615   9.948   7.247  0.6736  1.3904  0.5733
  741MOL0     H 2197   3.733  10.091   7.356 -0.4156  0.8437 -1.8258
  741MOL0     H 2198   3.561  10.104   7.422  0.8384 -0.8725  0.6381
  741MOL0     H 2199   3.807  10.085   7.571 -0.5172  0.6051 -1.5346
  741MOL0     H 2200   3.750   9.926   7.576 -2.6269 -1.1051  0.7807
  741MOL0     H 2201   3.534  10.017   7.657  0.3999  1.1411 -2.3683
  741MOL0     H 2202   3.673  10.056   7.764  0.1403 -0.2772  0.8376
  741MOL0     H 2203   3.512  10.240   7.575 -1.1207 -0.8504 -0.4289
  741MOL0     H 2204   3.667  10.298   7.624 -0.5206 -0.8591 -2.7875
  741MOL0     H 2205   3.577  10.216   7.873  0.6671 -2.2288 -0.4363
  741MOL0     H 2206   3.536  10.375   7.816  0.8807  0.0273 -1.8966
  741MOL0     H 2207   3.283  10.409   7.714  2.8747 -0.0130 -0.5233
  741MOL0     H 2208   2.997  10.205   7.642  0.0020  1.2814 -1.1447
  741MOL0     H 2209   3.029  10.363   7.703  0.4014 -0.1085  0.5504
  741MOL0     H 2210   2.934  10.316   7.929 -0.7560 -1.3062  0.3359
  741MOL0     H 2211   2.820  10.299   7.814  0.5174  0.2116  0.5748
  741MOL0     H 2212   2.973  10.084   7.953 -1.5446  0.3192  2.3617
  741MOL0     H 2213   2.802  10.100   7.951 -0.3075  0.4718 -0.7190
  741MOL0     H 2214   2.952   9.951   7.726 -1.1153  0.1051 -2.5705
  741MOL0     H 2215   2.815   9.914   7.823 -1.1146 -0.5070  0.0451
  741MOL0     H 2216   2.637  10.124   7.489  1.5916  0.4337 -0.7591
  741MOL0     H 2217   2.564  10.037   7.174 -0.9518 -0.2102 -1.4288
  741MOL0     H 2218   2.471  10.107   7.301  1.0550  0.0630 -1.4677
  741MOL0     H 2219   2.427   9.948   7.233  0.6230 -0.7245 -0.3372
  741MOL0     H 2220   2.329   9.845   7.050  0.3015 -0.4732 -0.2493
  741MOL0     H 2221   2.188   9.722   6.896 -0.6220 -0.4413 -0.6034
  741MOL0     H 2222   2.350   9.561   6.573 -0.9331  1.9195 -1.2531
  741MOL0     H 2223   2.338   9.395   6.632  0.5415  0.9786  4.2101
  741MOL0     H 2224   2.088   9.406   6.598  1.9820 -0.6794  1.1721
  741MOL0     H 2225   2.112   9.547   6.502  0.5366  0.0669 -1.9310
  741MOL0     H 2226   2.234   9.275   6.469  0.3710  1.8720  3.2585
  741MOL0     H 2227   2.298   9.414   6.378  1.8112  0.8742  2.4317
  741MOL0     H 2228   2.101   9.445   6.252 -1.6400  0.3597 -0.0659
  741MOL0     H 2229   1.997   9.367   6.370 -1.7093  0.7915 -2.5236
  741MOL0     H 2230   2.074   9.146   6.288 -0.2667  0.5711  1.6970
  741MOL0     H 2231   2.027   9.247   6.155  1.0922 -0.8800 -0.1577
  741MOL0     H 2232   2.312   9.165   6.222 -0.7316 -0.1821  0.9888
  741MOL0     H 2233   2.280   9.319   6.151 -2.8624  1.1615 -2.3039
  741MOL0     H 2234   2.178   9.232   5.950  0.1940  2.8468  2.1112
  741MOL0     H 2235   2.130   9.085   6.033  0.1436  0.0601  0.9656
  741MOL0     H 2236   2.350   8.988   6.038 -2.7331  0.3241 -2.0527
  741MOL0     H 2237   2.433   9.144   6.008 -0.5713  0.3686  0.4500
  741MOL0     H 2238   2.494   9.447   6.806  1.7756  0.0259 -0.4943
  741MOL0     H 2239   2.618   9.532   7.015 -0.6529  0.9068  0.7104
  741MOL0     H 2240   2.730   9.648   7.467  3.4184  1.2814 -0.8009
  741MOL0     H 2241   2.828   9.779   7.651 -0.2831 -1.6022 -1.5568
  741MOL0     H 2242   3.613   9.434   7.462 -1.6119 -0.9966  3.0924
  741MOL0     H 2243   3.733   9.211   7.513 -3.3767  1.4285  2.9945
  741MOL0     H 2244   4.085   8.886   7.385 -2.2602 -0.1676 -1.0116
  741MOL0     H 2245   4.216   8.688   7.445 -0.4947 -0.5548  0.4818
  741MOL0     H 2246   4.371   8.663   7.855 -2.3514 -1.6652  3.6938
  741MOL0     H 2247   4.246   8.545   7.846  0.5983 -1.3687 -0.6930
  741MOL0     H 2248   4.481   8.470   7.687  3.0686 -0.8258  0.3320
  741MOL0     H 2249   4.395   8.380   7.826  0.5965  0.1897  0.2449
  741MOL0     H 2250   4.620   8.574   7.836 -1.2557  0.5913  1.0776
  741MOL0     H 2251   4.547   8.496   7.975  1.5805  1.9874 -0.2257
  741MOL0     H 2252   4.751   8.384   7.927 -1.3313  0.3036 -0.0887
  741MOL0     H 2253   4.705   8.363   7.762  1.7417 -1.2607  0.2552
  741MOL0     H 2254   4.500   8.032   7.951  2.4189 -1.2745 -0.0700
  741MOL0     H 2255   4.249   8.830   7.845 -1.3036 -1.9356  0.6264
  741MOL0     H 2256   4.203   9.147   7.780 -0.4108  1.1605  2.3235
  741MOL0     H 2257   4.051   9.082   7.845 -1.0884 -0.3984 -2.8178
  741MOL0     H 2258   4.199   9.027   7.908  2.3109  0.0714 -1.9900
  742MOL0     O 2259   4.117  11.089   0.376  0.0778  0.1220 -0.1180
  742MOL0     C 2260   4.209  11.042   0.308 -0.3351  0.1229 -0.2080
  742MOL0     O 2261   4.191  11.012   0.174 -0.0132  0.7790 -0.4553
  742MOL0     C 2262   4.067  10.988   0.129 -1.1668 -0.6903 -0.4590
  742MOL0     C 2263   4.036  11.030  -0.003  0.1928  0.0551  0.4059
  742MOL0     C 2264   3.905  11.015  -0.060 -0.6550 -0.3157 -0.7826
  742MOL0     C 2265   3.800  10.950   0.005  0.6391 -1.3270  0.9527
  742MOL0     O 2266   3.673  10.929  -0.040 -0.1948 -0.0413  0.1047
  742MOL0     C 2267   3.648  11.011  -0.149  0.9482 -0.2800 -0.7065
  742MOL0     C 2268   3.497  11.004  -0.171 -0.9555  0.5516 -0.7148
  742MOL0     C 2269   3.433  11.140  -0.150  0.1627  0.3525  0.4796
  742MOL0     C 2270   3.284  11.129  -0.184  0.3216  0.0481  0.0276
  742MOL0     C 2271   3.224  11.255  -0.120 -0.4534 -0.3637  0.8604
  742MOL0     C 2272   3.090  11.301  -0.164 -0.2171 -1.1196  0.0499
  742MOL0     C 2273   3.055  11.443  -0.114  0.1592 -0.4169 -0.0962
  742MOL0     C 2274   2.996  11.445   0.027 -0.7630 -0.2525 -1.0303
  742MOL0     N 2275   2.857  11.403   0.036  0.4812  0.9281  0.6737
  742MOL0     C 2276   2.749  11.470  -0.020 -0.6537 -0.0892  0.3455
  742MOL0     C 2277   2.651  11.378  -0.029  0.1646 -0.2007  0.3681
  742MOL0     C 2278   2.514  11.415  -0.065 -0.2091  0.5698 -0.2573
  742MOL0     C 2279   2.406  11.354   0.034 -0.3671 -0.3654  0.0873
  742MOL0     C 2280   2.267  11.387  -0.003  0.9462 -0.5229 -0.0865
  742MOL0     C 2281   2.161  11.340   0.093 -0.2710 -0.8090  0.0491
  742MOL0     O 2282   2.193  11.210   0.144 -0.0439  0.7067  0.3457
  742MOL0     C 2283   2.101  11.112   0.132  0.3860  0.1381 -0.5278
  742MOL0     C 2284   2.079  11.026   0.245 -0.0065 -0.5067  0.6771
  742MOL0     C 2285   1.988  10.920   0.234  0.9457 -0.7571  0.6067
  742MOL0     C 2286   1.982  10.837   0.358  0.1468 -0.3134 -0.5902
  742MOL0     C 2287   1.910  10.906   0.119  0.5917  0.4485  0.0962
  742MOL0     C 2288   1.800  10.804   0.100 -0.4757 -0.4676  0.0725
  742MOL0     O 2289   1.782  10.704   0.199 -0.6197  0.7644  0.2176
  742MOL0     C 2290   1.666  10.625   0.199  0.0687 -0.4335 -0.3233
  742MOL0     C 2291   1.633  10.549   0.079 -0.5834  1.1157 -0.7275
  742MOL0     C 2292   1.519  10.472   0.078 -0.6865  0.6374  0.2501
  742MOL0     C 2293   1.445  10.456   0.203  0.2512  0.5544  0.5023
  742MOL0     O 2294   1.324  10.392   0.208 -0.2915  0.7957  0.0082
  742MOL0     C 2295   1.282  10.323   0.096  0.8079  0.1247  0.2297
  742MOL0     C 2296   1.126  10.302   0.094 -1.0695 -0.1576 -0.1977
  742MOL0     C 2297   1.053  10.439   0.112  0.1396  0.2738  0.6607
  742MOL0     C 2298   0.900  10.415   0.109  0.3519 -0.2302 -0.2348
  742MOL0     C 2299   0.815  10.545   0.128  1.1061 -0.1552  0.2500
  742MOL0     C 2300   0.668  10.519   0.088  0.1652 -0.0841 -0.1739
  742MOL0     C 2301   0.560  10.623   0.138  0.1385 -0.2845  0.8034
  742MOL0     C 2302   0.525  10.615   0.294 -0.5444  0.0249 -0.4047
  742MOL0    Cl 2303   0.475  10.455   0.351  0.9439  0.1405  0.3257
  742MOL0     C 2304   1.475  10.537   0.314 -0.0724 -0.7306  0.7949
  742MOL0     C 2305   1.588  10.618   0.314  0.0327  0.4912  0.5799
  742MOL0     O 2306   1.731  10.822  -0.001  0.1570  0.2639 -0.9152
  742MOL0     C 2307   1.933  10.991   0.010  0.9503 -0.1825  0.5672
  742MOL0     C 2308   2.034  11.081   0.014 -0.8282  0.0636  0.0496
  742MOL0     N 2309   2.704  11.250  -0.016  0.4542 -0.4560  0.0859
  742MOL0     N 2310   2.821  11.269   0.032 -0.7654  0.7745 -0.8014
  742MOL0     C 2311   3.827  10.909   0.131 -1.5971  0.0586 -0.6635
  742MOL0     C 2312   3.950  10.926   0.195 -0.4921  0.4393  0.5154
  742MOL0     C 2313   4.327  10.991   0.368  0.7869 -0.0730  0.4442
  742MOL0     C 2314   4.443  10.998   0.284 -0.4021 -0.5669 -0.6930
  742MOL0     C 2315   4.565  10.947   0.332  0.4978 -0.1340 -0.0667
  742MOL0     C 2316   4.575  10.886   0.455  0.9917  0.4397 -0.2287
  742MOL0     O 2317   4.703  10.844   0.481 -0.3252  0.6881 -0.5504
  742MOL0     C 2318   4.725  10.701   0.498  0.0945 -0.6111 -0.7304
  742MOL0     C 2319   4.831  10.653   0.392 -0.2208 -0.1775 -0.3644
  742MOL0     C 2320   4.768  10.648   0.255  0.0129  0.0603  0.0643
  742MOL0     C 2321   4.838  10.570   0.144 -0.1296 -0.3946  0.1526
  742MOL0     C 2322   4.825  10.425   0.163 -0.4409  0.8614 -0.6317
  742MOL0     C 2323   4.812  10.308   0.162 -0.8542 -0.0578 -0.1290
  742MOL0     C 2324   4.462  10.875   0.537 -0.3060  0.2894  0.7556
  742MOL0     C 2325   4.342  10.936   0.497 -0.1740 -0.1058  0.0435
  742MOL0     C 2326   4.227  10.927   0.591  0.9001 -0.2789 -0.5812
  742MOL0     H 2327   4.113  11.087  -0.054 -0.2104  1.1229  0.9482
  742MOL0     H 2328   3.901  11.060  -0.158 -0.6596 -0.1430 -0.7037
  742MOL0     H 2329   3.691  10.963  -0.237  1.1925 -2.9823  0.7833
  742MOL0     H 2330   3.691  11.112  -0.145 -0.7000  0.5714 -2.6744
  742MOL0     H 2331   3.472  10.956  -0.266 -0.3541  2.5604 -1.9454
  742MOL0     H 2332   3.457  10.932  -0.099  5.7365  0.2055  3.5081
  742MOL0     H 2333   3.461  11.170  -0.049  0.2845 -0.7218  0.7746
  742MOL0     H 2334   3.473  11.217  -0.217 -2.2634 -0.1971 -1.7753
  742MOL0     H 2335   3.258  11.120  -0.290 -0.6871  0.9915  0.1695
  742MOL0     H 2336   3.231  11.040  -0.150 -1.5577  0.2672 -2.0414
  742MOL0     H 2337   3.293  11.336  -0.147 -1.1346  0.6135  1.9308
  742MOL0     H 2338   3.224  11.252  -0.011 -0.9662  1.9989  0.9938
  742MOL0     H 2339   3.096  11.294  -0.273  1.2164  2.4995 -0.2352
  742MOL0     H 2340   3.026  11.220  -0.128 -1.4832 -0.2595 -0.1754
  742MOL0     H 2341   2.980  11.485  -0.182  0.2933  1.6082  0.9301
  742MOL0     H 2342   3.146  11.503  -0.108  0.1587 -0.5613  3.8420
  742MOL0     H 2343   3.054  11.382   0.095  0.7025  0.4857 -1.5499
  742MOL0     H 2344   2.987  11.540   0.081 -1.3051 -0.8977  0.0394
  742MOL0     H 2345   2.740  11.578  -0.025 -1.5182 -0.1962 -0.8310
  742MOL0     H 2346   2.500  11.393  -0.171  2.2297 -0.2834 -0.4716
  742MOL0     H 2347   2.505  11.523  -0.049 -3.2650 -0.0149  3.8303
  742MOL0     H 2348   2.422  11.247   0.018  2.8973 -0.3733  2.2392
  742MOL0     H 2349   2.435  11.384   0.135 -1.7249 -2.0248  1.0318
  742MOL0     H 2350   2.259  11.496  -0.004  0.5211 -0.5506 -1.0604
  742MOL0     H 2351   2.246  11.358  -0.106  1.5996 -1.1644 -0.0514
  742MOL0     H 2352   2.155  11.407   0.180  1.2323  0.8022 -1.0405
  742MOL0     H 2353   2.061  11.359   0.052 -0.9254  0.9977  2.2844
  742MOL0     H 2354   2.135  11.051   0.334 -0.0717  3.6054 -0.2400
  742MOL0     H 2355   1.987  10.729   0.338  0.2143 -1.0459  2.8113
  742MOL0     H 2356   1.894  10.857   0.419 -1.2321 -0.9675 -2.2890
  742MOL0     H 2357   2.072  10.862   0.416  0.8306 -0.8540 -1.4016
  742MOL0     H 2358   1.686  10.567  -0.014  3.0473 -0.5656  0.8094
  742MOL0     H 2359   1.480  10.428  -0.014  0.5517 -3.0474  1.2968
  742MOL0     H 2360   1.301  10.377   0.003  0.2224  1.2485  0.7361
  742MOL0     H 2361   1.336  10.228   0.089 -0.9658 -1.1867  2.7068
  742MOL0     H 2362   1.084  10.260   0.002  0.6854 -0.4880 -0.8859
  742MOL0     H 2363   1.101  10.231   0.173  1.9395 -0.6770  0.4145
  742MOL0     H 2364   1.080  10.492   0.020 -1.5612 -0.3235 -0.2303
  742MOL0     H 2365   1.095  10.491   0.198  0.3875 -1.2462  1.5063
  742MOL0     H 2366   0.887  10.339   0.186 -0.6300  0.6111  0.4428
  742MOL0     H 2367   0.863  10.360   0.022 -1.0924  1.4655 -0.7614
  742MOL0     H 2368   0.823  10.583   0.230  1.5389  3.8024 -1.0735
  742MOL0     H 2369   0.858  10.632   0.077  0.8631 -0.0259  0.2603
  742MOL0     H 2370   0.631  10.425   0.131 -3.4609  0.7173 -1.1690
  742MOL0     H 2371   0.663  10.507  -0.020  0.2089  1.9033 -0.4342
  742MOL0     H 2372   0.467  10.623   0.081  0.4423  0.4219  0.2960
  742MOL0     H 2373   0.599  10.722   0.114  2.1290 -1.0953  0.4181
  742MOL0     H 2374   0.438  10.679   0.314 -0.3812  0.1312 -0.0396
  742MOL0     H 2375   0.612  10.642   0.354  0.4754  0.4209 -1.9862
  742MOL0     H 2376   1.410  10.542   0.401  0.0161 -0.8094  0.8660
  742MOL0     H 2377   1.612  10.678   0.400  3.2266  2.7832 -1.6838
  742MOL0     H 2378   1.875  10.981  -0.081 -1.6954  4.4000  1.4687
  742MOL0     H 2379   2.076  11.135  -0.071  1.4301 -1.3028  0.2069
  742MOL0     H 2380   3.753  10.862   0.196 -0.3307  1.4557  1.9282
  742MOL0     H 2381   3.955  10.888   0.297 -1.3237  2.1184  1.2225
  742MOL0     H 2382   4.440  11.045   0.186 -2.4571 -0.9986 -0.8870
  742MOL0     H 2383   4.651  10.960   0.267 -1.1829  2.3210 -2.0105
  742MOL0     H 2384   4.750  10.700   0.605 -0.8696 -0.1355 -0.4798
  742MOL0     H 2385   4.635  10.641   0.477  0.7467 -1.4902 -1.0578
  742MOL0     H 2386   4.868  10.559   0.433 -1.1366  1.6054  5.4251
  742MOL0     H 2387   4.913  10.725   0.398 -1.6052  1.4080  0.2046
  742MOL0     H 2388   4.662  10.623   0.262 -0.0812  0.6925  1.0469
  742MOL0     H 2389   4.769  10.752   0.219 -2.1780 -0.1439 -0.7093
  742MOL0     H 2390   4.945  10.593   0.147 -0.1780 -0.0186 -0.6360
  742MOL0     H 2391   4.806  10.596   0.043  4.7636  1.6860 -1.1462
  742MOL0     H 2392   4.803  10.202   0.159  0.5124 -0.1784 -1.3519
  742MOL0     H 2393   4.479  10.821   0.630  2.9304 -4.8437 -2.3497
  742MOL0     H 2394   4.267  10.899   0.689  0.8335 -0.6446 -0.6577
  742MOL0     H 2395   4.176  11.021   0.618  1.8446  0.4914 -1.3900
  742MOL0     H 2396   4.159  10.851   0.554 -1.5722  1.6565 -0.3039
  743MOL0     O 2397   6.833   4.585   9.423 -0.1445 -0.6691  0.1193
  743MOL0     C 2398   6.851   4.541   9.309  0.9499  0.2124  0.1307
  743MOL0     O 2399   6.797   4.422   9.259  0.3613 -0.4120  0.4757
  743MOL0     C 2400   6.695   4.356   9.330  0.3533 -0.2881 -0.2705
  743MOL0     C 2401   6.697   4.223   9.331 -0.6264  0.5955  0.4201
  743MOL0     C 2402   6.607   4.147   9.399  0.1641  0.0802 -0.0242
  743MOL0     C 2403   6.496   4.207   9.463 -0.1442 -0.1484  0.5946
  743MOL0     O 2404   6.397   4.140   9.530 -0.6917 -0.1650 -0.9722
  743MOL0     C 2405   6.389   4.003   9.510  0.3524  0.1674  0.4171
  743MOL0     C 2406   6.272   3.966   9.599 -0.4680 -0.2296  0.2982
  743MOL0     C 2407   6.324   3.936   9.743 -0.5205  0.2203  0.8597
  743MOL0     C 2408   6.201   3.922   9.835 -0.5192 -0.8258 -0.4708
  743MOL0     C 2409   6.238   3.923   9.989  0.2829 -0.3486 -0.1073
  743MOL0     C 2410   6.305   3.792  10.030 -0.2967 -0.0790 -0.5569
  743MOL0     C 2411   6.212   3.681  10.096  0.2402  0.7228 -0.2100
  743MOL0     C 2412   6.293   3.544  10.102  0.4783  0.0831  0.5054
  743MOL0     N 2413   6.209   3.427  10.132  0.2408 -0.4219  0.4840
  743MOL0     C 2414   6.109   3.375  10.052 -0.3703  0.1277  0.3335
  743MOL0     C 2415   6.038   3.293  10.128 -0.2302 -0.1086 -0.5643
  743MOL0     C 2416   5.912   3.232  10.072 -1.1772 -0.5324 -0.5079
  743MOL0     C 2417   5.793   3.279  10.146  0.4298 -0.5216 -0.0486
  743MOL0     C 2418   5.751   3.428  10.129 -0.6886 -0.7876 -0.9530
  743MOL0     C 2419   5.716   3.487  10.273  0.4340  0.5983  0.8974
  743MOL0     O 2420   5.629   3.389  10.338 -0.6621  0.3217  0.3860
  743MOL0     C 2421   5.569   3.426  10.458 -0.4959  0.3839  0.2769
  743MOL0     C 2422   5.576   3.553  10.523  0.5567  0.2676  0.4044
  743MOL0     C 2423   5.500   3.575  10.631 -1.0567 -0.0284 -0.2572
  743MOL0     C 2424   5.527   3.710  10.698 -0.1579  0.5082  0.1069
  743MOL0     C 2425   5.410   3.483  10.683 -0.2730  0.1103 -0.2047
  743MOL0     C 2426   5.321   3.505  10.798 -0.4901  0.8677 -1.2608
  743MOL0     O 2427   5.269   3.389  10.850 -0.1612 -0.0532 -0.4134
  743MOL0     C 2428   5.147   3.397  10.916 -0.7228  0.2147 -0.3695
  743MOL0     C 2429   5.031   3.358  10.847 -0.3508 -0.0409  0.6400
  743MOL0     C 2430   4.916   3.371  10.926 -0.6996  1.5353 -0.0407
  743MOL0     C 2431   4.913   3.428  11.058  0.1447 -0.0221  0.2524
  743MOL0     O 2432   4.806   3.439  11.146  0.7454  0.3519  1.0157
  743MOL0     C 2433   4.670   3.425  11.085 -1.1649 -0.4010 -0.2555
  743MOL0     C 2434   4.640   3.552  11.018  0.1133 -0.5129 -0.6142
  743MOL0     C 2435   4.540   3.537  10.897  0.1263 -0.3707  0.5131
  743MOL0     C 2436   4.404   3.479  10.920 -0.5052 -0.9754  0.1886
  743MOL0     C 2437   4.294   3.586  10.964 -1.2360  0.2002 -1.0509
  743MOL0     C 2438   4.212   3.530  11.082  0.6988  0.3135 -0.4667
  743MOL0     C 2439   4.097   3.624  11.120 -1.3912  0.1412  1.0757
  743MOL0     C 2440   4.138   3.765  11.165  0.2075  0.6084 -0.3775
  743MOL0    Cl 2441   4.271   3.755  11.292  0.4177  0.5599  0.6604
  743MOL0     C 2442   5.031   3.472  11.112 -0.0613  0.0821  0.2015
  743MOL0     C 2443   5.148   3.461  11.044  0.6262 -0.1303  0.4287
  743MOL0     O 2444   5.280   3.615  10.818 -0.3541 -0.0843  0.1476
  743MOL0     C 2445   5.404   3.359  10.624 -0.4231 -0.4637 -0.0217
  743MOL0     C 2446   5.483   3.326  10.508 -0.9056 -0.3051 -0.2365
  743MOL0     N 2447   6.083   3.296  10.259  0.0739  0.6401 -0.0362
  743MOL0     N 2448   6.181   3.386  10.253  0.1348  0.3751  0.2261
  743MOL0     C 2449   6.493   4.350   9.461 -0.1015  0.8421  0.4716
  743MOL0     C 2450   6.588   4.433   9.395  0.2556  0.6520  0.2194
  743MOL0     C 2451   6.941   4.613   9.212  0.4046  0.4003  0.3787
  743MOL0     C 2452   6.979   4.552   9.096  0.6027  0.2053  0.0436
  743MOL0     C 2453   7.056   4.623   8.996 -0.9886  0.0979 -0.4180
  743MOL0     C 2454   7.084   4.758   9.000 -0.2264  0.3578 -0.5795
  743MOL0     O 2455   7.144   4.831   8.893 -0.4409  0.9159  0.9271
  743MOL0     C 2456   7.158   4.752   8.774 -0.0928 -0.5523 -0.5826
  743MOL0     C 2457   7.202   4.839   8.652  0.1792 -0.3981 -1.1434
  743MOL0     C 2458   7.337   4.904   8.689 -0.0622 -0.2736 -0.3718
  743MOL0     C 2459   7.400   4.997   8.587  0.5076  0.5983  0.3407
  743MOL0     C 2460   7.475   4.917   8.491  0.6662  0.8820  0.1436
  743MOL0     C 2461   7.528   4.852   8.405  0.7195 -0.0175 -0.6298
  743MOL0     C 2462   7.049   4.821   9.114  0.6761 -0.1643  0.8240
  743MOL0     C 2463   6.976   4.747   9.216  0.3673  0.2943  0.1385
  743MOL0     C 2464   6.948   4.828   9.348  0.3931 -0.0847  0.2760
  743MOL0     H 2465   6.777   4.177   9.273 -3.5746 -0.4959 -3.1740
  743MOL0     H 2466   6.619   4.040   9.388 -0.1755 -0.1192  1.3655
  743MOL0     H 2467   6.478   3.943   9.533 -1.4665 -2.3828  1.3485
  743MOL0     H 2468   6.357   3.994   9.406 -1.7295  0.3225  1.0022
  743MOL0     H 2469   6.194   4.043   9.601  0.3982  0.6588  1.2125
  743MOL0     H 2470   6.243   3.869   9.560  2.4110 -0.4607 -1.6397
  743MOL0     H 2471   6.400   3.857   9.745 -0.5109  0.2416  2.1836
  743MOL0     H 2472   6.382   4.019   9.784  0.7506 -0.7282  1.0662
  743MOL0     H 2473   6.134   4.005   9.812  1.1846  1.3578  1.9114
  743MOL0     H 2474   6.141   3.831   9.818 -1.1745 -0.2579 -1.3201
  743MOL0     H 2475   6.144   3.947  10.040  0.7410 -2.0217  1.6286
  743MOL0     H 2476   6.309   3.999  10.022  1.9785 -1.0138 -2.0427
  743MOL0     H 2477   6.362   3.756   9.944  0.2215  1.8693 -1.0699
  743MOL0     H 2478   6.385   3.819  10.100  0.9149  0.2479 -2.0163
  743MOL0     H 2479   6.128   3.671  10.027 -0.1276 -1.3129  0.4662
  743MOL0     H 2480   6.175   3.702  10.197 -2.0685  0.2555 -0.9157
  743MOL0     H 2481   6.337   3.545  10.002 -1.5391 -2.3936 -0.5135
  743MOL0     H 2482   6.371   3.552  10.178  1.7358  1.6556 -0.8814
  743MOL0     H 2483   6.098   3.404   9.948  2.2339  0.2151  0.0181
  743MOL0     H 2484   5.914   3.122  10.066 -2.2983 -0.5130 -1.8093
  743MOL0     H 2485   5.899   3.247   9.964  0.3249  0.0522 -0.6343
  743MOL0     H 2486   5.714   3.207  10.122  0.6863 -0.4962 -1.0238
  743MOL0     H 2487   5.813   3.273  10.254  1.7900  1.0650 -0.1677
  743MOL0     H 2488   5.841   3.483  10.100 -0.3609  0.6925  2.3330
  743MOL0     H 2489   5.670   3.438  10.056 -0.5177 -0.5249 -1.1061
  743MOL0     H 2490   5.804   3.506  10.335  1.8940 -0.8115 -0.6107
  743MOL0     H 2491   5.664   3.581  10.253 -0.2678 -0.0032 -0.1916
  743MOL0     H 2492   5.648   3.631  10.500  0.7485  1.4095  4.2187
  743MOL0     H 2493   5.599   3.775  10.647 -0.4999  0.5101 -0.3785
  743MOL0     H 2494   5.560   3.692  10.800 -3.5192  0.3081  1.2689
  743MOL0     H 2495   5.444   3.781  10.701 -0.1948  0.4513  0.3842
  743MOL0     H 2496   5.025   3.299  10.756 -0.4299  2.9356 -1.4289
  743MOL0     H 2497   4.822   3.337  10.885 -0.8926  1.7926  0.1820
  743MOL0     H 2498   4.665   3.332  11.027  2.5223 -0.5039 -0.6524
  743MOL0     H 2499   4.606   3.425  11.173  3.5370 -4.6149  3.7977
  743MOL0     H 2500   4.593   3.610  11.099  0.7039 -0.0246 -0.6131
  743MOL0     H 2501   4.732   3.599  10.982 -0.1806  1.3080  0.8428
  743MOL0     H 2502   4.582   3.476  10.816 -3.1612 -0.2581 -1.4717
  743MOL0     H 2503   4.522   3.635  10.852 -0.1778 -0.9521 -0.6621
  743MOL0     H 2504   4.409   3.401  10.996 -1.6387 -2.5168 -1.2475
  743MOL0     H 2505   4.364   3.432  10.829  2.3698  0.9808 -2.3124
  743MOL0     H 2506   4.347   3.678  10.991  1.2655 -1.3320 -0.4146
  743MOL0     H 2507   4.230   3.607  10.878 -0.6729 -1.0883 -1.8066
  743MOL0     H 2508   4.281   3.521  11.167  2.5536  2.8823 -1.5953
  743MOL0     H 2509   4.175   3.430  11.057 -1.7329  0.9714  0.2158
  743MOL0     H 2510   4.039   3.571  11.196  2.5634 -0.6488  3.8309
  743MOL0     H 2511   4.032   3.636  11.032 -2.4326 -1.3433  1.5819
  743MOL0     H 2512   4.052   3.811  11.214  0.9225  0.3113  1.2076
  743MOL0     H 2513   4.164   3.813  11.070 -1.8858  0.3238 -1.1503
  743MOL0     H 2514   5.026   3.512  11.213 -2.3043  1.1466 -0.2579
  743MOL0     H 2515   5.234   3.514  11.084 -1.0724  0.6418  3.4280
  743MOL0     H 2516   5.329   3.289  10.661 -0.8918  0.6907  1.3031
  743MOL0     H 2517   5.465   3.238  10.448  2.0789 -1.9630  1.0916
  743MOL0     H 2518   6.427   4.398   9.533  1.4650  2.6494  0.8027
  743MOL0     H 2519   6.584   4.541   9.387  0.5011  0.9319  3.0671
  743MOL0     H 2520   6.963   4.447   9.074 -0.0047 -0.5311  3.4462
  743MOL0     H 2521   7.105   4.566   8.918  3.7161  1.8896  0.8922
  743MOL0     H 2522   7.236   4.677   8.786  0.7295  0.1613 -1.3755
  743MOL0     H 2523   7.060   4.708   8.753 -1.2073 -0.3192  3.3344
  743MOL0     H 2524   7.143   4.930   8.636  2.6317  1.9524  1.8105
  743MOL0     H 2525   7.200   4.773   8.565 -0.2429 -2.8001  0.5861
  743MOL0     H 2526   7.334   4.962   8.782  0.5078  1.4486 -1.3680
  743MOL0     H 2527   7.396   4.822   8.729 -1.3103 -0.2735  1.6288
  743MOL0     H 2528   7.465   5.069   8.637  1.9610  0.8268 -1.7254
  743MOL0     H 2529   7.320   5.057   8.543 -0.8308  0.0620  1.9437
  743MOL0     H 2530   7.594   4.802   8.338 -0.3624  1.3550 -2.8390
  743MOL0     H 2531   7.079   4.923   9.136  6.0477 -0.6475 -2.6395
  743MOL0     H 2532   6.841   4.824   9.369  0.7084 -2.0252  1.7666
  743MOL0     H 2533   6.997   4.780   9.432  1.1266 -0.7259 -0.5025
  743MOL0     H 2534   6.971   4.935   9.348 -0.4697  0.3470  5.4549
  744MOL0     O 2535   5.518   3.642   6.800  1.1401  0.1491  0.1892
  744MOL0     C 2536   5.464   3.742   6.754 -0.4978 -0.3637  0.0538
  744MOL0     O 2537   5.357   3.743   6.676  0.3687  0.1075  0.0163
  744MOL0     C 2538   5.321   3.611   6.627  0.5850 -1.0077  0.0230
  744MOL0     C 2539   5.391   3.559   6.519  0.2738  0.4108 -0.3406
  744MOL0     C 2540   5.357   3.436   6.477 -0.7106 -0.4839  0.4177
  744MOL0     C 2541   5.264   3.351   6.544 -0.4722 -0.3537 -0.4470
  744MOL0     O 2542   5.236   3.230   6.487  0.1983  0.0390  0.8071
  744MOL0     C 2543   5.113   3.163   6.510 -0.4334  0.0592  0.6665
  744MOL0     C 2544   5.078   3.063   6.399 -0.1374 -0.7033 -0.2111
  744MOL0     C 2545   5.178   2.940   6.386  1.0016 -0.7080 -0.9485
  744MOL0     C 2546   5.124   2.833   6.295  0.6877 -0.6216  0.3436
  744MOL0     C 2547   5.106   2.880   6.145  0.1350 -0.0510 -0.2202
  744MOL0     C 2548   5.078   2.768   6.050 -0.1869  0.8181  0.1657
  744MOL0     C 2549   5.074   2.814   5.906 -0.0516 -1.2394 -0.0201
  744MOL0     C 2550   5.005   2.708   5.823 -0.3595  0.2643  1.5246
  744MOL0     N 2551   5.078   2.691   5.698  0.2686 -0.1760  0.4197
  744MOL0     C 2552   5.145   2.573   5.667 -0.3905  0.3492  0.3369
  744MOL0     C 2553   5.198   2.601   5.545 -0.0641 -0.6203  0.8743
  744MOL0     C 2554   5.295   2.511   5.468 -0.0083  0.0294  0.4519
  744MOL0     C 2555   5.439   2.539   5.513 -0.0196  0.2673  0.3140
  744MOL0     C 2556   5.552   2.460   5.450 -0.6283 -0.2366 -1.2755
  744MOL0     C 2557   5.616   2.521   5.330  0.0216  0.2999 -1.0914
  744MOL0     O 2558   5.513   2.536   5.233 -0.3795  1.2920 -1.1070
  744MOL0     C 2559   5.521   2.628   5.133 -1.0071  0.1169  0.4721
  744MOL0     C 2560   5.645   2.637   5.061  0.5491 -0.7867  0.2694
  744MOL0     C 2561   5.664   2.727   4.953  0.2839  0.5000 -0.2378
  744MOL0     C 2562   5.797   2.736   4.884 -0.5054 -0.1385 -0.6189
  744MOL0     C 2563   5.550   2.801   4.907 -0.7689 -0.8677  0.9490
  744MOL0     C 2564   5.548   2.895   4.789 -0.1614  0.1482  0.3289
  744MOL0     O 2565   5.639   2.882   4.696 -0.3712 -0.5316  0.0172
  744MOL0     C 2566   5.621   2.926   4.565 -1.3907 -0.8406 -0.0113
  744MOL0     C 2567   5.512   2.980   4.501 -0.2037  0.3341  0.2056
  744MOL0     C 2568   5.524   3.050   4.382  0.0079  0.2879 -0.4624
  744MOL0     C 2569   5.638   3.035   4.303 -0.2883  0.2597 -0.3770
  744MOL0     O 2570   5.611   3.051   4.167  0.0280 -0.3888 -0.4655
  744MOL0     C 2571   5.711   3.075   4.072  0.2455 -0.1401  0.6269
  744MOL0     C 2572   5.740   2.951   3.988  0.3527  0.5829 -0.6555
  744MOL0     C 2573   5.866   2.975   3.899  0.1360  0.7261 -0.1524
  744MOL0     C 2574   6.001   2.959   3.981  0.0713 -0.6841 -0.8533
  744MOL0     C 2575   6.124   2.984   3.889  0.7483 -0.7481 -0.4145
  744MOL0     C 2576   6.241   2.959   3.978  0.4123 -0.5616  0.1391
  744MOL0     C 2577   6.278   2.813   3.993 -0.8883 -0.3831 -0.0749
  744MOL0     C 2578   6.437   2.783   4.015 -0.3607 -0.2596  0.0820
  744MOL0    Cl 2579   6.522   2.850   3.868 -0.4066  0.5882  0.3675
  744MOL0     C 2580   5.751   2.973   4.358  0.2482  0.6456  0.6878
  744MOL0     C 2581   5.737   2.914   4.492 -0.1544  0.1732  1.0253
  744MOL0     O 2582   5.457   2.984   4.789 -0.1197 -0.0857 -0.4890
  744MOL0     C 2583   5.425   2.778   4.977 -0.4334  0.0689  0.8175
  744MOL0     C 2584   5.414   2.709   5.091  0.2066 -0.3980 -0.6342
  744MOL0     N 2585   5.177   2.742   5.517 -0.8396  0.9977 -0.2604
  744MOL0     N 2586   5.091   2.784   5.599  0.6933  0.2538 -0.2925
  744MOL0     C 2587   5.202   3.399   6.661 -0.0951  0.5135 -0.1184
  744MOL0     C 2588   5.236   3.528   6.703 -0.8263 -0.1406 -0.5793
  744MOL0     C 2589   5.561   3.860   6.746 -0.2476 -0.7231 -0.4716
  744MOL0     C 2590   5.521   3.970   6.666  0.0582 -0.3191 -0.6524
  744MOL0     C 2591   5.602   4.080   6.642  0.4256 -0.3423  0.3901
  744MOL0     C 2592   5.731   4.083   6.689  0.3620 -0.1251 -0.0441
  744MOL0     O 2593   5.816   4.185   6.647 -0.7670 -0.6360 -0.2257
  744MOL0     C 2594   5.961   4.192   6.674  0.2021  0.3120 -0.1660
  744MOL0     C 2595   6.027   4.081   6.590  0.2991  0.1586  0.3538
  744MOL0     C 2596   5.995   4.099   6.441  0.4371 -0.3874 -0.6750
  744MOL0     C 2597   6.054   4.000   6.344  0.1134 -0.4563  0.9323
  744MOL0     C 2598   6.189   4.036   6.294 -0.6738 -0.4766  0.7981
  744MOL0     C 2599   6.293   4.093   6.264  0.4176  0.0236  0.3278
  744MOL0     C 2600   5.768   3.981   6.778 -0.3005 -0.4906 -0.1624
  744MOL0     C 2601   5.690   3.867   6.802  0.0304  0.0217 -0.2146
  744MOL0     C 2602   5.758   3.750   6.880  0.0885 -0.9092 -0.1518
  744MOL0     H 2603   5.473   3.610   6.468 -0.3821 -0.5958 -2.5358
  744MOL0     H 2604   5.407   3.389   6.393  0.9331 -2.6297  2.4568
  744MOL0     H 2605   5.035   3.239   6.518 -0.1823  0.4232 -0.2011
  744MOL0     H 2606   5.112   3.094   6.595  0.1327  0.2252  0.8094
  744MOL0     H 2607   4.977   3.025   6.418  0.4034 -2.8866 -1.3891
  744MOL0     H 2608   5.078   3.119   6.305  2.2462  0.0301  0.1637
  744MOL0     H 2609   5.279   2.971   6.359  1.0454  1.2360  1.2261
  744MOL0     H 2610   5.186   2.893   6.484 -0.6990 -4.6339 -2.4664
  744MOL0     H 2611   5.193   2.749   6.301  0.0837 -1.0206  2.4027
  744MOL0     H 2612   5.030   2.805   6.342  2.1060  0.8074  4.4300
  744MOL0     H 2613   5.195   2.936   6.116 -0.1565  0.5992  0.1160
  744MOL0     H 2614   5.018   2.945   6.133 -1.0963 -1.4928  0.6876
  744MOL0     H 2615   5.159   2.694   6.049 -0.1328  0.8803 -0.0678
  744MOL0     H 2616   4.975   2.740   6.073  0.7169 -0.9399  2.5678
  744MOL0     H 2617   5.170   2.855   5.872 -0.5329  1.3784  1.4563
  744MOL0     H 2618   5.002   2.897   5.911 -0.0465 -1.2602  0.4270
  744MOL0     H 2619   4.999   2.610   5.870  0.1059 -1.6774 -2.1135
  744MOL0     H 2620   4.904   2.745   5.801 -1.3766 -2.9253  0.2570
  744MOL0     H 2621   5.151   2.481   5.723  0.8200  0.4492  0.3967
  744MOL0     H 2622   5.275   2.534   5.363 -0.4983 -0.9121  0.3245
  744MOL0     H 2623   5.276   2.404   5.485 -1.6216  0.2368  0.1189
  744MOL0     H 2624   5.451   2.648   5.511  0.1981  0.2633 -2.2148
  744MOL0     H 2625   5.452   2.518   5.620  0.4664 -0.0581  0.1952
  744MOL0     H 2626   5.623   2.445   5.532 -1.2998  1.0859 -0.4068
  744MOL0     H 2627   5.524   2.359   5.420  0.3448  0.5085 -5.1811
  744MOL0     H 2628   5.666   2.616   5.351  1.9356 -1.0521  0.8971
  744MOL0     H 2629   5.689   2.447   5.294 -0.1606 -1.1013  1.1852
  744MOL0     H 2630   5.725   2.578   5.103  0.7874 -0.0814  0.8266
  744MOL0     H 2631   5.868   2.670   4.935 -1.4413 -0.6254  0.0801
  744MOL0     H 2632   5.847   2.834   4.887  1.4965 -1.0937  2.6656
  744MOL0     H 2633   5.779   2.698   4.783 -2.5535  0.5037 -0.5269
  744MOL0     H 2634   5.414   2.983   4.548 -1.1455  2.5211 -1.7231
  744MOL0     H 2635   5.441   3.100   4.334 -0.3865  2.0622  1.9430
  744MOL0     H 2636   5.674   3.157   4.009 -0.5935  0.9401  2.4437
  744MOL0     H 2637   5.800   3.105   4.129 -0.3733  3.6652 -0.1341
  744MOL0     H 2638   5.752   2.859   4.046  0.9082  0.4221 -1.0159
  744MOL0     H 2639   5.650   2.928   3.931  0.3081 -2.7452  0.5634
  744MOL0     H 2640   5.855   3.075   3.857 -2.7354  0.5549  0.0196
  744MOL0     H 2641   5.860   2.909   3.812 -0.5685  0.6513 -0.0534
  744MOL0     H 2642   6.000   2.865   4.037 -0.4007  0.6420  1.4823
  744MOL0     H 2643   5.986   3.028   4.064 -3.4303 -1.6643 -0.5290
  744MOL0     H 2644   6.137   2.934   3.792  0.0567  1.4483 -1.6972
  744MOL0     H 2645   6.121   3.090   3.864 -0.7366 -0.9316 -1.1278
  744MOL0     H 2646   6.231   3.009   4.075  0.9016  0.1546 -0.1791
  744MOL0     H 2647   6.326   3.014   3.938 -0.7467 -0.6297 -2.6145
  744MOL0     H 2648   6.243   2.760   3.904 -0.3204  0.7443 -0.9996
  744MOL0     H 2649   6.223   2.769   4.077 -1.0709 -1.7672 -0.8823
  744MOL0     H 2650   6.444   2.675   4.029 -0.9353 -0.2167  0.7531
  744MOL0     H 2651   6.480   2.834   4.102 -1.5657  3.3385 -1.2434
  744MOL0     H 2652   5.848   2.957   4.312  1.7006 -1.2467  4.0331
  744MOL0     H 2653   5.823   2.878   4.546  0.6863 -1.7720 -1.4479
  744MOL0     H 2654   5.335   2.829   4.947 -0.7952 -0.1326  1.5320
  744MOL0     H 2655   5.321   2.707   5.148 -0.4269 -0.4276 -1.6367
  744MOL0     H 2656   5.135   3.334   6.717 -0.7222 -0.0759 -1.5011
  744MOL0     H 2657   5.196   3.574   6.793 -2.9290 -2.9208  0.0273
  744MOL0     H 2658   5.419   3.978   6.630 -1.0884 -0.2204  2.3256
  744MOL0     H 2659   5.580   4.163   6.575  2.9194  0.3585  0.3554
  744MOL0     H 2660   6.011   4.286   6.649  2.4897 -1.1639 -1.5051
  744MOL0     H 2661   5.980   4.191   6.782 -0.7175 -2.1973  0.0443
  744MOL0     H 2662   5.999   3.981   6.624 -1.6259  1.0686  1.6361
  744MOL0     H 2663   6.135   4.095   6.599  0.4253 -0.8337  0.5002
  744MOL0     H 2664   5.888   4.081   6.424 -0.4176  1.3605  2.1791
  744MOL0     H 2665   6.025   4.200   6.412  1.6799 -0.7591 -0.7385
  744MOL0     H 2666   5.994   3.986   6.253  2.2983  0.2238 -0.6982
  744MOL0     H 2667   6.050   3.904   6.396 -0.4479 -0.5999  0.6396
  744MOL0     H 2668   6.374   4.159   6.242  0.0560 -0.4645 -3.1127
  744MOL0     H 2669   5.856   4.011   6.835  1.8538  2.5966 -4.5173
  744MOL0     H 2670   5.686   3.735   6.961  2.4656  3.3849  3.1557
  744MOL0     H 2671   5.775   3.659   6.820  0.8939 -0.2384 -0.9732
  744MOL0     H 2672   5.855   3.784   6.918 -0.2561 -1.0107  0.8280
  745MOL0     O 2673  10.745   1.378   3.215  0.8634  0.4665  1.2164
  745MOL0     C 2674  10.710   1.438   3.317  0.5310  0.4750  0.5069
  745MOL0     O 2675  10.594   1.421   3.385 -0.6296  0.0502 -0.0246
  745MOL0     C 2676  10.481   1.365   3.328  0.3973 -0.3385 -0.6987
  745MOL0     C 2677  10.398   1.330   3.434  0.0095  0.5355 -0.5854
  745MOL0     C 2678  10.271   1.287   3.408 -0.0271 -0.0852 -0.5340
  745MOL0     C 2679  10.238   1.261   3.279  0.5215 -0.8766  0.0855
  745MOL0     O 2680  10.114   1.216   3.235 -1.0389  0.3081 -0.0628
  745MOL0     C 2681  10.046   1.297   3.131  0.0743  1.0775 -0.9230
  745MOL0     C 2682   9.894   1.298   3.150 -0.7433 -0.3827 -0.2587
  745MOL0     C 2683   9.807   1.335   3.035 -0.8829 -0.3878  0.6440
  745MOL0     C 2684   9.657   1.345   3.072 -0.0750  0.2527 -0.3499
  745MOL0     C 2685   9.615   1.218   3.154 -0.0542 -0.5557  1.0794
  745MOL0     C 2686   9.462   1.190   3.148 -0.2629 -0.6262 -0.2868
  745MOL0     C 2687   9.432   1.086   3.034 -0.5229  0.5934 -0.1816
  745MOL0     C 2688   9.342   0.966   3.075 -0.0148 -0.7728  0.9942
  745MOL0     N 2689   9.270   0.896   2.957  0.0296 -0.1175  0.6528
  745MOL0     C 2690   9.160   0.955   2.890  0.1101  0.6213 -1.1326
  745MOL0     C 2691   9.121   0.851   2.800 -0.5051  0.3649 -0.9159
  745MOL0     C 2692   9.018   0.846   2.688 -1.1795  0.8737 -0.1096
  745MOL0     C 2693   8.928   0.717   2.703  1.1226  0.7289  0.0975
  745MOL0     C 2694   8.825   0.738   2.812 -0.2110  0.4659 -0.0634
  745MOL0     C 2695   8.723   0.624   2.813 -0.1083  0.6153 -0.1234
  745MOL0     O 2696   8.778   0.494   2.805  0.5177  0.9312  0.3935
  745MOL0     C 2697   8.691   0.381   2.808 -0.1141  0.9961  0.0164
  745MOL0     C 2698   8.557   0.380   2.785 -0.0871  0.7054  0.1887
  745MOL0     C 2699   8.469   0.273   2.806 -1.0460 -0.0682 -0.2358
  745MOL0     C 2700   8.329   0.305   2.803 -0.0611 -0.0539 -0.5833
  745MOL0     C 2701   8.529   0.150   2.840  1.0232 -0.4610  0.5422
  745MOL0     C 2702   8.459   0.026   2.861 -0.4201 -0.2778 -0.0580
  745MOL0     O 2703   8.519  -0.072   2.937 -0.0322 -0.2643 -0.7608
  745MOL0     C 2704   8.491  -0.205   2.911 -0.8765  1.4897 -0.0884
  745MOL0     C 2705   8.565  -0.294   2.816 -1.0337 -0.1774 -0.2657
  745MOL0     C 2706   8.538  -0.428   2.819 -0.2182  0.6820 -0.2540
  745MOL0     C 2707   8.440  -0.483   2.902  0.8126  0.7869 -0.3926
  745MOL0     O 2708   8.399  -0.616   2.885  0.1929  0.6226 -0.0864
  745MOL0     C 2709   8.362  -0.691   3.001 -0.6428  1.2349  0.0128
  745MOL0     C 2710   8.378  -0.848   2.966 -0.6657 -0.4387  0.2044
  745MOL0     C 2711   8.527  -0.899   2.976  0.6781  0.7832 -0.4352
  745MOL0     C 2712   8.548  -1.029   2.893 -0.1935  0.0051 -0.2617
  745MOL0     C 2713   8.628  -1.126   2.974  0.0456 -0.5961  0.2268
  745MOL0     C 2714   8.624  -1.269   2.923 -0.2568  0.8628  1.6956
  745MOL0     C 2715   8.723  -1.373   2.978  0.4762  0.6766 -0.5190
  745MOL0     C 2716   8.777  -1.474   2.880  1.0556 -0.3121 -0.1952
  745MOL0    Cl 2717   8.667  -1.617   2.867  0.2018 -0.2910 -0.5749
  745MOL0     C 2718   8.363  -0.400   2.983  0.0776 -0.6054  0.3712
  745MOL0     C 2719   8.394  -0.263   2.989  0.8681  0.5436 -0.6611
  745MOL0     O 2720   8.350   0.008   2.807 -0.1566 -0.5591  0.7608
  745MOL0     C 2721   8.668   0.143   2.852  0.0874 -0.9863 -0.1004
  745MOL0     C 2722   8.746   0.258   2.840  0.3959  0.0493  0.1736
  745MOL0     N 2723   9.209   0.748   2.820 -0.2950 -0.0025  0.1524
  745MOL0     N 2724   9.293   0.770   2.912 -0.2353  0.0647 -0.1187
  745MOL0     C 2725  10.329   1.293   3.172  0.4546 -0.8427  1.3946
  745MOL0     C 2726  10.452   1.338   3.196  0.4984  0.5592 -0.3834
  745MOL0     C 2727  10.793   1.544   3.365  0.5871 -0.6900 -0.0238
  745MOL0     C 2728  10.768   1.598   3.499  0.1992 -0.4822  0.2651
  745MOL0     C 2729  10.836   1.703   3.554 -0.6292  0.5467 -0.1109
  745MOL0     C 2730  10.940   1.766   3.477  0.3321 -0.1164  0.1918
  745MOL0     O 2731  11.015   1.859   3.533  0.2129  0.0527  0.5860
  745MOL0     C 2732  11.072   1.953   3.446  0.4133  0.0598  0.1071
  745MOL0     C 2733  11.223   1.918   3.454  0.3740  0.5792 -1.1239
  745MOL0     C 2734  11.308   2.023   3.390 -0.0760 -0.0027 -0.3006
  745MOL0     C 2735  11.322   2.157   3.463  0.3458  0.0372 -0.3450
  745MOL0     C 2736  11.203   2.240   3.439  0.1759 -0.4076  0.2936
  745MOL0     C 2737  11.098   2.299   3.435  0.2324  0.4040  0.5840
  745MOL0     C 2738  10.958   1.717   3.347 -0.6229  0.1189 -0.1469
  745MOL0     C 2739  10.899   1.608   3.291  0.4824 -0.8043 -0.5975
  745MOL0     C 2740  10.943   1.562   3.145  0.0035  0.6198 -0.1488
  745MOL0     H 2741  10.416   1.338   3.541 -0.4386 -1.2038 -0.3627
  745MOL0     H 2742  10.201   1.276   3.490  0.8916  1.4993  0.5045
  745MOL0     H 2743  10.072   1.253   3.034  1.3188 -1.4203  0.4246
  745MOL0     H 2744  10.073   1.403   3.135 -0.4969  1.4355 -4.2766
  745MOL0     H 2745   9.873   1.195   3.179 -1.1635  0.2256  1.7605
  745MOL0     H 2746   9.870   1.355   3.240  1.6551 -0.6731  0.6391
  745MOL0     H 2747   9.841   1.435   3.007 -0.0890 -0.4146  1.4985
  745MOL0     H 2748   9.819   1.262   2.953 -2.7325 -0.6540  0.5632
  745MOL0     H 2749   9.633   1.433   3.132 -1.3722 -0.2067 -0.1646
  745MOL0     H 2750   9.589   1.341   2.986 -0.7638  1.2162  0.1257
  745MOL0     H 2751   9.630   1.241   3.259  1.2929 -2.1551  1.2877
  745MOL0     H 2752   9.678   1.133   3.126 -0.9584 -0.8137 -0.3095
  745MOL0     H 2753   9.430   1.154   3.246  1.7140  1.0880  1.0752
  745MOL0     H 2754   9.405   1.279   3.121 -0.7952 -0.6194  0.7970
  745MOL0     H 2755   9.527   1.044   2.997 -1.8034 -1.3942 -1.4736
  745MOL0     H 2756   9.392   1.152   2.957 -0.7263  0.9469  0.2241
  745MOL0     H 2757   9.405   0.910   3.144  1.5647  3.2240  3.1114
  745MOL0     H 2758   9.263   1.005   3.139 -0.0437 -0.2004  0.6163
  745MOL0     H 2759   9.117   1.054   2.890 -0.5510  0.3567  0.1083
  745MOL0     H 2760   9.081   0.835   2.600  0.3888  0.0727  1.0511
  745MOL0     H 2761   8.969   0.944   2.688 -0.6132  1.1785  0.5622
  745MOL0     H 2762   8.874   0.704   2.610 -0.3127 -0.8878  1.0990
  745MOL0     H 2763   8.990   0.628   2.718 -0.9588 -1.3483 -2.6801
  745MOL0     H 2764   8.865   0.757   2.912  0.7116  0.3709 -0.4057
  745MOL0     H 2765   8.770   0.827   2.783 -0.8606  1.6409  4.1434
  745MOL0     H 2766   8.662   0.621   2.904  1.0851 -1.9193  0.6785
  745MOL0     H 2767   8.652   0.643   2.732 -2.7016  2.8895  2.4620
  745MOL0     H 2768   8.508   0.472   2.757  0.5881  0.8893 -0.4184
  745MOL0     H 2769   8.276   0.292   2.708 -1.8116 -0.9110  0.4666
  745MOL0     H 2770   8.318   0.410   2.831 -2.2144 -1.0760  3.1160
  745MOL0     H 2771   8.269   0.239   2.867 -0.0709  1.6442  1.2379
  745MOL0     H 2772   8.628  -0.245   2.741 -1.2045 -0.1580 -0.3986
  745MOL0     H 2773   8.584  -0.494   2.747 -0.2822  2.1383 -1.6744
  745MOL0     H 2774   8.429  -0.677   3.086  0.4828 -0.1483 -0.5790
  745MOL0     H 2775   8.257  -0.671   3.021 -1.2444 -2.1811  1.0347
  745MOL0     H 2776   8.310  -0.907   3.029  0.1948 -4.1215 -2.0025
  745MOL0     H 2777   8.349  -0.856   2.861 -2.3255  2.8202  0.2920
  745MOL0     H 2778   8.551  -0.913   3.082  1.1608 -0.1648 -0.6610
  745MOL0     H 2779   8.603  -0.829   2.939  1.9988 -1.1255 -1.5482
  745MOL0     H 2780   8.600  -1.008   2.799 -1.4180 -1.1430 -1.2372
  745MOL0     H 2781   8.448  -1.069   2.873 -0.4240 -0.7094  2.0996
  745MOL0     H 2782   8.734  -1.102   2.960  0.4208 -0.4710  2.8758
  745MOL0     H 2783   8.603  -1.120   3.080 -0.0566  0.7093  0.1350
  745MOL0     H 2784   8.623  -1.266   2.814 -2.3868 -0.7897  1.6034
  745MOL0     H 2785   8.521  -1.297   2.945 -0.4011  2.0261  2.6195
  745MOL0     H 2786   8.672  -1.427   3.058  0.7650  0.8673 -0.2003
  745MOL0     H 2787   8.814  -1.326   3.017  2.7003 -1.9950 -2.0931
  745MOL0     H 2788   8.876  -1.500   2.918  2.6536  4.0609 -0.8170
  745MOL0     H 2789   8.796  -1.439   2.778  0.9544  0.7398  0.1372
  745MOL0     H 2790   8.282  -0.432   3.046  1.1322  1.7716  3.2077
  745MOL0     H 2791   8.336  -0.196   3.051  1.4475  0.7331 -0.3081
  745MOL0     H 2792   8.706   0.044   2.876 -1.7945 -1.6108  0.4823
  745MOL0     H 2793   8.852   0.261   2.865  0.1639 -0.6692  1.3542
  745MOL0     H 2794  10.302   1.274   3.069  1.1485  0.7506  0.8841
  745MOL0     H 2795  10.524   1.361   3.118  0.4553 -0.1444 -0.6370
  745MOL0     H 2796  10.688   1.562   3.563  0.1009  2.1659  1.7644
  745MOL0     H 2797  10.830   1.728   3.659  0.3434 -2.0441  0.6380
  745MOL0     H 2798  11.032   1.954   3.345 -0.9137 -4.3549  0.4108
  745MOL0     H 2799  11.043   2.050   3.488 -1.4337 -0.7084  0.7106
  745MOL0     H 2800  11.231   1.821   3.404 -3.3396 -0.2324 -0.4251
  745MOL0     H 2801  11.252   1.921   3.560 -1.4112  1.9874 -0.6453
  745MOL0     H 2802  11.406   1.975   3.394 -1.0926 -2.1440  0.6793
  745MOL0     H 2803  11.274   2.038   3.287  0.0389  0.8614 -0.2196
  745MOL0     H 2804  11.404   2.213   3.418 -0.0627 -0.8507 -2.2834
  745MOL0     H 2805  11.358   2.149   3.566  6.0898 -0.1159 -2.0208
  745MOL0     H 2806  11.011   2.360   3.430  0.8204  1.2122  0.0066
  745MOL0     H 2807  11.037   1.745   3.277 -1.2386  2.4106 -0.0259
  745MOL0     H 2808  10.964   1.455   3.143 -0.4876  0.5221 -0.2201
  745MOL0     H 2809  10.853   1.577   3.085 -0.4709  2.9735  1.0092
  745MOL0     H 2810  11.020   1.627   3.102 -0.7790  0.9463 -1.0851
  746MOL0     O 2811  11.486  10.930   9.746  0.1512  0.7942 -0.2494
  746MOL0     C 2812  11.427  11.036   9.715 -0.6578  0.5749  0.0040
  746MOL0     O 2813  11.355  11.104   9.798  0.0378 -0.0167 -0.4218
  746MOL0     C 2814  11.341  11.046   9.927  1.2004  0.1233 -0.0196
  746MOL0     C 2815  11.445  11.059  10.028 -0.2485 -0.9280  0.7807
  746MOL0     C 2816  11.436  11.005  10.158  0.4718 -0.0153 -0.3571
  746MOL0     C 2817  11.306  10.949  10.196  0.0996 -0.0597 -0.0177
  746MOL0     O 2818  11.285  10.904  10.327  0.4696  0.3977  0.5878
  746MOL0     C 2819  11.238  10.772  10.344 -0.3585  0.5754 -0.2204
  746MOL0     C 2820  11.246  10.707  10.487 -0.6135 -0.5345 -0.8252
  746MOL0     C 2821  11.382  10.653  10.511  0.7119 -0.3195 -0.9918
  746MOL0     C 2822  11.380  10.593  10.653  0.3939 -0.4802 -0.0518
  746MOL0     C 2823  11.521  10.540  10.688  0.3734 -0.4929  0.7283
  746MOL0     C 2824  11.563  10.422  10.593  0.7754 -0.7561  0.2788
  746MOL0     C 2825  11.710  10.388  10.617 -0.0185  0.1920 -0.2309
  746MOL0     C 2826  11.751  10.268  10.526  0.0519  0.2548 -0.1407
  746MOL0     N 2827  11.890  10.236  10.554 -0.0985 -0.8453 -0.2122
  746MOL0     C 2828  11.924  10.139  10.650  0.9096  0.1494  0.6697
  746MOL0     C 2829  12.055  10.124  10.637 -0.2080 -0.2705  0.0650
  746MOL0     C 2830  12.144  10.039  10.718 -0.3822 -0.1584 -0.1545
  746MOL0     C 2831  12.184   9.894  10.664  0.2698  0.3722  0.4997
  746MOL0     C 2832  12.079   9.794  10.716  0.0392  0.1488  0.5208
  746MOL0     C 2833  12.060   9.678  10.614  0.6982  1.0479  0.7835
  746MOL0     O 2834  11.996   9.733  10.507 -0.5825  0.2637 -0.2895
  746MOL0     C 2835  11.934   9.651  10.414 -0.3832 -0.5954 -0.7155
  746MOL0     C 2836  11.979   9.525  10.375 -0.5999 -1.1457 -0.8612
  746MOL0     C 2837  11.951   9.460  10.256 -0.1266  0.0470 -0.5566
  746MOL0     C 2838  11.991   9.314  10.239  0.8037  0.1726  0.0356
  746MOL0     C 2839  11.857   9.531  10.167 -0.0568  0.6072  0.2169
  746MOL0     C 2840  11.809   9.473  10.042 -0.3372 -0.0193 -0.8398
  746MOL0     O 2841  11.734   9.557   9.973  0.2642 -0.0165 -0.0246
  746MOL0     C 2842  11.716   9.529   9.839 -0.0898 -0.4382 -0.2663
  746MOL0     C 2843  11.729   9.636   9.751 -0.5907 -0.4243 -0.7326
  746MOL0     C 2844  11.700   9.618   9.613 -0.5229  1.1572 -0.8466
  746MOL0     C 2845  11.643   9.499   9.559  1.1307  0.6757  1.1103
  746MOL0     O 2846  11.628   9.496   9.420  0.6652 -0.5369 -0.5489
  746MOL0     C 2847  11.601   9.364   9.350 -0.5264 -0.5662  0.2057
  746MOL0     C 2848  11.622   9.398   9.197  0.4478 -0.0975  0.2920
  746MOL0     C 2849  11.769   9.451   9.158 -0.8683  0.7692 -0.2774
  746MOL0     C 2850  11.794   9.448   9.007  0.2333  0.4854 -0.7290
  746MOL0     C 2851  11.923   9.522   8.965 -0.4842  0.1202  0.4870
  746MOL0     C 2852  11.904   9.675   8.963  0.2556 -0.1005 -0.6055
  746MOL0     C 2853  12.038   9.732   8.906 -0.2150 -0.2821  0.7458
  746MOL0     C 2854  12.060   9.875   8.961  0.2497 -0.7678 -0.4466
  746MOL0    Cl 2855  12.147   9.977   8.851 -0.1065 -0.3307  0.4757
  746MOL0     C 2856  11.629   9.396   9.652  1.0712 -0.3844 -0.0441
  746MOL0     C 2857  11.660   9.415   9.790 -0.4970 -0.3016  0.0143
  746MOL0     O 2858  11.856   9.372   9.992 -0.5415  0.7256  0.1848
  746MOL0     C 2859  11.809   9.652  10.207 -0.0173  0.3595 -0.4894
  746MOL0     C 2860  11.850   9.713  10.324  0.9690 -0.7859 -0.6034
  746MOL0     N 2861  12.098  10.192  10.523 -0.1455  0.8364 -0.2255
  746MOL0     N 2862  11.998  10.262  10.477 -0.6221  0.0881  0.4582
  746MOL0     C 2863  11.200  10.944  10.106 -0.3335  0.3252 -0.3089
  746MOL0     C 2864  11.221  10.980   9.971 -0.4992  1.7545  0.1581
  746MOL0     C 2865  11.434  11.088   9.573 -0.6192  0.5236  0.3552
  746MOL0     C 2866  11.387  11.215   9.541 -0.0385  0.3856 -0.9381
  746MOL0     C 2867  11.397  11.268   9.416 -0.4124  0.0585 -0.3990
  746MOL0     C 2868  11.451  11.195   9.307  0.2057  0.3910 -0.5823
  746MOL0     O 2869  11.458  11.243   9.183  0.2345 -0.2635  0.4295
  746MOL0     C 2870  11.393  11.183   9.065  0.1317 -0.6080  0.7331
  746MOL0     C 2871  11.373  11.290   8.951 -0.3646 -0.4073  0.1163
  746MOL0     C 2872  11.291  11.234   8.835 -0.2158 -0.2973  0.7259
  746MOL0     C 2873  11.265  11.351   8.742 -0.1957  0.3181  0.3941
  746MOL0     C 2874  11.184  11.321   8.630  0.0551  0.4990  0.6561
  746MOL0     C 2875  11.105  11.302   8.537  0.9682 -0.5045  0.0548
  746MOL0     C 2876  11.485  11.066   9.333 -0.4842  0.0505  0.7846
  746MOL0     C 2877  11.486  11.011   9.462  0.7167  0.2448  0.1152
  746MOL0     C 2878  11.514  10.863   9.463  0.4093 -0.5003 -0.2843
  746MOL0     H 2879  11.540  11.103   9.998 -0.6050 -0.2261  0.6403
  746MOL0     H 2880  11.521  11.009  10.226  0.9346  0.9884 -0.9712
  746MOL0     H 2881  11.288  10.703  10.276  0.3552  0.0771  0.7829
  746MOL0     H 2882  11.135  10.766  10.309 -0.9625  2.6976  1.0226
  746MOL0     H 2883  11.221  10.786  10.558 -0.4187  0.5128 -1.8728
  746MOL0     H 2884  11.170  10.629  10.499  1.7011 -2.7303  0.5729
  746MOL0     H 2885  11.395  10.576  10.434 -1.7740  1.4956 -3.4176
  746MOL0     H 2886  11.454  10.735  10.511  0.7950 -0.3706  0.3281
  746MOL0     H 2887  11.362  10.665  10.734  0.2639 -0.1226 -0.3980
  746MOL0     H 2888  11.300  10.518  10.658  0.1596 -0.5387 -3.1436
  746MOL0     H 2889  11.513  10.489  10.784  1.1810 -0.8137  0.6373
  746MOL0     H 2890  11.591  10.624  10.694 -0.1635 -0.1562  3.0230
  746MOL0     H 2891  11.507  10.330  10.616 -1.0633  0.2709  0.1471
  746MOL0     H 2892  11.540  10.451  10.490 -3.2258  2.0717  1.6967
  746MOL0     H 2893  11.723  10.362  10.723 -0.0666 -0.8948 -0.4802
  746MOL0     H 2894  11.776  10.475  10.605  0.1598  0.3092  1.3645
  746MOL0     H 2895  11.695  10.177  10.549  0.5383  0.4788  2.1360
  746MOL0     H 2896  11.728  10.302  10.424 -0.8028 -0.1141 -0.0773
  746MOL0     H 2897  11.860  10.088  10.721  0.2368 -0.1186 -0.1179
  746MOL0     H 2898  12.103  10.036  10.819  1.8454 -0.6622  0.7841
  746MOL0     H 2899  12.237  10.095  10.719 -0.4256 -0.0703 -0.5722
  746MOL0     H 2900  12.192   9.901  10.555  0.3936 -0.4526  0.4447
  746MOL0     H 2901  12.282   9.867  10.705 -0.2404  0.4408  1.8285
  746MOL0     H 2902  12.122   9.758  10.810  0.1819 -2.5532 -0.5046
  746MOL0     H 2903  11.976   9.828  10.729  0.1749  1.3196 -1.1637
  746MOL0     H 2904  12.156   9.635  10.586  0.3923  1.5029 -1.0451
  746MOL0     H 2905  11.993   9.603  10.659 -0.6433  1.5546 -0.2880
  746MOL0     H 2906  12.054   9.485  10.443 -1.1893  0.5410  0.8854
  746MOL0     H 2907  11.903   9.263  10.199 -0.5578  1.8154  0.7715
  746MOL0     H 2908  12.007   9.268  10.338 -3.0132  1.0568  1.2385
  746MOL0     H 2909  12.082   9.312  10.179 -0.6370 -0.5854 -2.2137
  746MOL0     H 2910  11.759   9.737   9.776 -1.5808 -0.2591 -0.1918
  746MOL0     H 2911  11.738   9.687   9.538  1.4429  2.5983  1.3166
  746MOL0     H 2912  11.679   9.289   9.367 -1.8988 -2.4095 -1.1469
  746MOL0     H 2913  11.507   9.311   9.369 -0.9398 -0.4212 -1.2881
  746MOL0     H 2914  11.595   9.307   9.143 -2.8328 -1.8576  4.3186
  746MOL0     H 2915  11.541   9.463   9.161  2.8689  1.3118 -3.1460
  746MOL0     H 2916  11.835   9.378   9.206  0.3661  1.2953 -1.1369
  746MOL0     H 2917  11.787   9.552   9.196 -2.8765  1.3428 -0.7386
  746MOL0     H 2918  11.709   9.500   8.962 -4.2158 -2.0764  3.6605
  746MOL0     H 2919  11.796   9.344   8.973  1.6483 -0.2023  1.2536
  746MOL0     H 2920  12.007   9.495   9.029  3.7310  2.2010 -3.5580
  746MOL0     H 2921  11.943   9.489   8.863  0.3601 -2.8228  1.5134
  746MOL0     H 2922  11.880   9.720   9.060 -0.6860  3.0666 -2.1654
  746MOL0     H 2923  11.816   9.696   8.902 -0.9948 -1.2714  0.7220
  746MOL0     H 2924  12.022   9.720   8.799 -0.3638  2.2444  0.4186
  746MOL0     H 2925  12.118   9.665   8.937 -0.0565 -0.4463 -0.0103
  746MOL0     H 2926  12.103   9.867   9.062 -0.2469 -1.3181 -0.2696
  746MOL0     H 2927  11.962   9.924   8.964  0.2774 -0.7395  1.8100
  746MOL0     H 2928  11.593   9.297   9.626 -0.9913  0.4306 -0.5021
  746MOL0     H 2929  11.638   9.335   9.860 -2.2472  2.4988  2.9822
  746MOL0     H 2930  11.755   9.718  10.141  0.6112  1.0841 -0.2913
  746MOL0     H 2931  11.824   9.816  10.344  3.0107  0.3487 -3.2156
  746MOL0     H 2932  11.097  10.918  10.130  0.0730 -1.0887  0.0144
  746MOL0     H 2933  11.136  10.975   9.903 -1.1100 -2.4114  0.9951
  746MOL0     H 2934  11.335  11.275   9.615  2.0527  4.0590 -2.2046
  746MOL0     H 2935  11.366  11.371   9.401 -0.0773  0.3869  1.0031
  746MOL0     H 2936  11.458  11.104   9.026  2.2306  1.5626 -0.4312
  746MOL0     H 2937  11.302  11.126   9.086 -0.2919 -0.5436 -0.8022
  746MOL0     H 2938  11.468  11.330   8.916 -0.5035 -0.7650 -0.6911
  746MOL0     H 2939  11.318  11.375   8.994  0.7214 -0.9939  2.8544
  746MOL0     H 2940  11.347  11.155   8.784 -0.4259  0.0241 -0.0129
  746MOL0     H 2941  11.194  11.197   8.871 -0.3881  1.7356  2.5461
  746MOL0     H 2942  11.364  11.381   8.707 -0.2204 -0.9073 -0.8197
  746MOL0     H 2943  11.218  11.434   8.795  2.3879  3.3699 -1.6885
  746MOL0     H 2944  11.039  11.281   8.456  0.9774  3.8185 -1.3258
  746MOL0     H 2945  11.513  11.001   9.251  1.3486  4.5702 -2.5796
  746MOL0     H 2946  11.592  10.832   9.534  1.2344  0.7770 -0.6061
  746MOL0     H 2947  11.426  10.810   9.500  2.2107 -2.3779  1.5589
  746MOL0     H 2948  11.527  10.816   9.365  0.0334  0.7872 -0.9692
  747MOL0     O 2949   2.898   5.436   4.747  0.3053 -0.0255  0.1764
  747MOL0     C 2950   2.950   5.530   4.697 -0.3685 -0.1574  0.1191
  747MOL0     O 2951   3.080   5.561   4.730  0.0872  0.1206  0.3033
  747MOL0     C 2952   3.153   5.460   4.778  0.3959 -0.8010 -0.4967
  747MOL0     C 2953   3.260   5.418   4.700 -0.4304 -0.1806  0.4098
  747MOL0     C 2954   3.352   5.322   4.749  0.0170  0.9901  0.5017
  747MOL0     C 2955   3.333   5.260   4.872 -0.0292  0.3301 -0.7054
  747MOL0     O 2956   3.428   5.173   4.913 -0.4557 -0.2943 -0.2357
  747MOL0     C 2957   3.410   5.107   5.039  0.2038  0.7556 -0.0179
  747MOL0     C 2958   3.516   5.002   5.060  0.1416  0.6514  0.2831
  747MOL0     C 2959   3.489   4.949   5.201  0.1333  0.2312  1.0752
  747MOL0     C 2960   3.476   4.799   5.201  0.2921  0.6023  0.3118
  747MOL0     C 2961   3.374   4.747   5.305  0.6631 -0.6199  1.1539
  747MOL0     C 2962   3.437   4.670   5.428  0.2872  0.3167  0.7449
  747MOL0     C 2963   3.396   4.721   5.569  0.5013 -0.2108  0.1319
  747MOL0     C 2964   3.452   4.862   5.613  0.2936 -0.2919 -0.0682
  747MOL0     N 2965   3.487   4.867   5.753 -0.4337  0.7176 -0.4982
  747MOL0     C 2966   3.399   4.831   5.850  0.5853  0.7783 -0.1654
  747MOL0     C 2967   3.485   4.797   5.951  0.5364 -0.2235  0.4970
  747MOL0     C 2968   3.456   4.717   6.074  1.1763  0.8707 -0.0051
  747MOL0     C 2969   3.416   4.569   6.041 -0.1121 -0.3580  0.7156
  747MOL0     C 2970   3.531   4.490   5.962  0.3035  0.3348 -0.5238
  747MOL0     C 2971   3.497   4.345   5.920 -0.0862  0.4778 -0.6597
  747MOL0     O 2972   3.599   4.308   5.832 -0.2447 -0.0351  0.2070
  747MOL0     C 2973   3.698   4.236   5.889 -0.4564  0.4937 -0.1875
  747MOL0     C 2974   3.688   4.098   5.917  0.5835 -0.8070 -0.2652
  747MOL0     C 2975   3.802   4.025   5.961 -0.7161  0.6132  0.4405
  747MOL0     C 2976   3.777   3.875   5.987 -0.5923 -0.1675 -0.3042
  747MOL0     C 2977   3.925   4.100   5.998 -0.5771 -0.2350  0.6394
  747MOL0     C 2978   4.044   4.037   6.062  1.0348  0.4031 -1.1616
  747MOL0     O 2979   4.119   4.125   6.141 -0.0568 -0.3474 -0.0465
  747MOL0     C 2980   4.221   4.083   6.222  0.1379 -0.5649 -0.3732
  747MOL0     C 2981   4.297   4.181   6.293  0.6806  0.2859  0.4734
  747MOL0     C 2982   4.372   4.148   6.401  0.0834 -0.3134 -0.4903
  747MOL0     C 2983   4.385   4.020   6.446  0.2965  0.7334 -0.2100
  747MOL0     O 2984   4.464   3.981   6.553 -0.4357 -0.6721  0.1089
  747MOL0     C 2985   4.426   4.031   6.675 -0.0361 -0.6381 -0.3213
  747MOL0     C 2986   4.531   4.114   6.757 -0.3812  0.4529  0.2345
  747MOL0     C 2987   4.503   4.115   6.904  0.1281  0.3967  0.1807
  747MOL0     C 2988   4.544   4.250   6.969  0.2220 -0.1143  0.4543
  747MOL0     C 2989   4.697   4.284   6.962  0.2240 -1.1895 -0.5525
  747MOL0     C 2990   4.727   4.437   6.950  0.2458  0.2316  0.0894
  747MOL0     C 2991   4.873   4.454   6.936 -0.1909  0.8536  0.2095
  747MOL0     C 2992   4.908   4.610   6.931 -0.1325 -0.4282 -0.0228
  747MOL0    Cl 2993   4.881   4.664   6.760 -0.2076  0.2772 -0.1749
  747MOL0     C 2994   4.326   3.919   6.379  0.2135  0.1530 -1.0585
  747MOL0     C 2995   4.243   3.948   6.275 -0.1181 -1.1534  0.2485
  747MOL0     O 2996   4.074   3.913   6.041 -0.3945 -0.0142  0.4889
  747MOL0     C 2997   3.922   4.241   5.982  0.0790  0.2484  0.2498
  747MOL0     C 2998   3.815   4.306   5.922  0.8613  0.3682  0.7246
  747MOL0     N 2999   3.608   4.856   5.924 -0.5622  0.8232  0.3848
  747MOL0     N 3000   3.615   4.891   5.798 -1.2927  0.5247  0.0767
  747MOL0     C 3001   3.211   5.292   4.943  0.7701 -0.2041 -0.7202
  747MOL0     C 3002   3.129   5.397   4.900 -0.3014  0.2961  0.8458
  747MOL0     C 3003   2.870   5.604   4.592  0.6725  0.0189 -1.1292
  747MOL0     C 3004   2.725   5.590   4.598 -0.5164 -0.9194 -0.6020
  747MOL0     C 3005   2.642   5.674   4.526  0.7514 -0.1371 -0.5437
  747MOL0     C 3006   2.690   5.755   4.424 -0.2295  1.7420 -0.5068
  747MOL0     O 3007   2.610   5.830   4.345 -0.2374 -0.0718  0.2913
  747MOL0     C 3008   2.509   5.753   4.269  0.4383  0.6559  0.8115
  747MOL0     C 3009   2.367   5.786   4.319 -0.2383 -0.6684  0.6411
  747MOL0     C 3010   2.334   5.930   4.346 -0.2147 -0.2323 -0.2282
  747MOL0     C 3011   2.327   6.001   4.206  1.1298  0.2706 -0.6242
  747MOL0     C 3012   2.289   6.149   4.222 -0.9460  0.9882 -0.3935
  747MOL0     C 3013   2.245   6.261   4.245  0.5306 -0.2403  0.3747
  747MOL0     C 3014   2.829   5.754   4.406  0.3703 -0.3558  0.0088
  747MOL0     C 3015   2.924   5.694   4.492 -0.7892 -0.8609 -0.4639
  747MOL0     C 3016   3.070   5.718   4.466 -1.4300 -0.1991  1.1280
  747MOL0     H 3017   3.287   5.457   4.602 -0.7533  3.0433  1.4944
  747MOL0     H 3018   3.437   5.317   4.682 -3.0235  0.5041 -3.7126
  747MOL0     H 3019   3.318   5.048   5.037  0.8210 -0.7285  4.6402
  747MOL0     H 3020   3.410   5.181   5.119 -0.0883 -0.0647  0.7619
  747MOL0     H 3021   3.516   4.926   4.982 -0.3387  1.6930 -0.7605
  747MOL0     H 3022   3.614   5.050   5.059  0.8081 -0.4419  2.9215
  747MOL0     H 3023   3.554   4.999   5.273  1.7177 -1.0654  0.6085
  747MOL0     H 3024   3.393   4.989   5.235  0.4562  1.6802  0.3567
  747MOL0     H 3025   3.426   4.777   5.106  0.9066  1.5140 -0.2306
  747MOL0     H 3026   3.565   4.735   5.193 -0.0702 -0.2896  2.6954
  747MOL0     H 3027   3.287   4.699   5.258  0.5423  1.6415 -1.1975
  747MOL0     H 3028   3.321   4.835   5.340  1.0876 -0.3877  1.2217
  747MOL0     H 3029   3.404   4.567   5.415  2.4452 -0.2833 -0.4732
  747MOL0     H 3030   3.545   4.676   5.411  0.1888 -0.6548 -0.3564
  747MOL0     H 3031   3.417   4.638   5.637 -0.0490 -1.6622 -1.3954
  747MOL0     H 3032   3.287   4.723   5.576  0.5602 -1.5673  2.7933
  747MOL0     H 3033   3.535   4.880   5.544  0.6670 -1.6981 -0.0259
  747MOL0     H 3034   3.376   4.940   5.602  2.3191  1.5074 -2.7222
  747MOL0     H 3035   3.294   4.817   5.827  0.9380  1.8255 -2.8305
  747MOL0     H 3036   3.380   4.758   6.143 -3.4433 -1.7637 -2.9841
  747MOL0     H 3037   3.549   4.719   6.131  1.6669  0.4535 -0.7820
  747MOL0     H 3038   3.401   4.531   6.142 -0.0720  0.6017  1.0915
  747MOL0     H 3039   3.330   4.563   5.973  0.0358 -1.1678  0.5923
  747MOL0     H 3040   3.544   4.548   5.871 -1.5780  2.6180  0.5617
  747MOL0     H 3041   3.628   4.490   6.011  1.4367 -0.5715 -2.6323
  747MOL0     H 3042   3.501   4.281   6.008 -1.7542 -1.1901 -1.7428
  747MOL0     H 3043   3.399   4.335   5.872  0.1237  0.5824 -1.1214
  747MOL0     H 3044   3.595   4.053   5.885 -0.1292  0.7791 -0.4910
  747MOL0     H 3045   3.832   3.835   6.072 -0.5746 -3.0439 -1.5783
  747MOL0     H 3046   3.813   3.821   5.899 -4.8914  0.1545 -2.5372
  747MOL0     H 3047   3.674   3.843   6.005  0.2150 -0.9968  3.9818
  747MOL0     H 3048   4.288   4.286   6.265  0.7966  0.1286 -0.1762
  747MOL0     H 3049   4.434   4.220   6.453  0.0796 -0.6170 -0.0634
  747MOL0     H 3050   4.328   4.078   6.673 -0.1664 -0.9219 -0.7088
  747MOL0     H 3051   4.407   3.941   6.733 -3.5593  0.9707  1.2829
  747MOL0     H 3052   4.629   4.073   6.732 -0.7288 -0.8072  0.8349
  747MOL0     H 3053   4.526   4.216   6.718  0.5010  0.6597  0.6506
  747MOL0     H 3054   4.574   4.043   6.947 -1.2435 -2.9807 -2.7224
  747MOL0     H 3055   4.401   4.089   6.933  0.0135  0.2299 -0.3695
  747MOL0     H 3056   4.518   4.243   7.075 -1.8360 -2.1364 -0.0912
  747MOL0     H 3057   4.489   4.326   6.912 -1.5615 -1.5070  0.2209
  747MOL0     H 3058   4.753   4.245   7.048 -1.1968 -1.2549  0.3834
  747MOL0     H 3059   4.727   4.240   6.866 -0.3943  1.7798 -2.2126
  747MOL0     H 3060   4.685   4.481   7.041 -1.3660  0.3213 -0.6580
  747MOL0     H 3061   4.667   4.489   6.874 -0.5347  0.1821  0.6657
  747MOL0     H 3062   4.925   4.409   6.851  1.9185  3.1478  0.1731
  747MOL0     H 3063   4.915   4.409   7.026 -1.8220  0.2783  0.7095
  747MOL0     H 3064   5.009   4.622   6.971 -1.1826  5.9660  1.7954
  747MOL0     H 3065   4.839   4.662   6.998 -2.4666 -1.3700 -1.5471
  747MOL0     H 3066   4.332   3.812   6.394  0.4602  0.3288  0.2125
  747MOL0     H 3067   4.185   3.873   6.224 -4.0707  1.1631  0.9536
  747MOL0     H 3068   4.013   4.296   6.001 -0.0858  0.4252  0.5381
  747MOL0     H 3069   3.838   4.410   5.899 -1.0890  1.0477  1.6469
  747MOL0     H 3070   3.185   5.245   5.038  0.3356 -1.3167 -1.3653
  747MOL0     H 3071   3.049   5.432   4.965  1.1368  3.2415  1.1443
  747MOL0     H 3072   2.676   5.510   4.652 -0.7900 -0.1669  0.2998
  747MOL0     H 3073   2.537   5.658   4.546  0.6219  0.0236 -1.0832
  747MOL0     H 3074   2.517   5.778   4.163  1.7275  0.5837  0.8768
  747MOL0     H 3075   2.526   5.645   4.277  4.0199  1.1348  1.4085
  747MOL0     H 3076   2.343   5.740   4.416 -1.0410  0.2176  0.8669
  747MOL0     H 3077   2.295   5.737   4.253 -2.0598 -1.0590  2.7852
  747MOL0     H 3078   2.235   5.933   4.391 -0.5789 -3.4884 -0.5608
  747MOL0     H 3079   2.406   5.969   4.418  1.6206 -1.5186 -1.2444
  747MOL0     H 3080   2.258   5.944   4.143  1.2279 -1.0359  0.4018
  747MOL0     H 3081   2.423   5.996   4.152  0.3298  0.3769 -2.1085
  747MOL0     H 3082   2.209   6.359   4.268  2.7489  0.4433  1.1931
  747MOL0     H 3083   2.866   5.820   4.328 -0.3627  1.8520  1.4135
  747MOL0     H 3084   3.137   5.632   4.472  0.7179  1.1327 -1.6583
  747MOL0     H 3085   3.087   5.765   4.369 -0.1179  0.9993  1.9094
  747MOL0     H 3086   3.108   5.796   4.531 -0.9886  1.0556 -0.5594
  748MOL0     O 3087   6.697   2.928  10.697 -0.6797 -0.5268 -0.5671
  748MOL0     C 3088   6.812   2.969  10.675  0.5248 -0.4381 -0.3608
  748MOL0     O 3089   6.861   3.009  10.550 -0.7009 -0.0353  0.6926
  748MOL0     C 3090   6.770   3.023  10.447  0.2866 -0.5529 -0.0526
  748MOL0     C 3091   6.656   3.108  10.445  0.6737  0.5228 -0.2388
  748MOL0     C 3092   6.564   3.099  10.343 -0.9044 -0.8467  0.2503
  748MOL0     C 3093   6.585   3.022  10.232  0.5814  0.5646 -0.1957
  748MOL0     O 3094   6.495   2.996  10.137  0.0630 -0.3576  0.6810
  748MOL0     C 3095   6.415   3.099  10.096  0.7208  0.3272  0.2064
  748MOL0     C 3096   6.321   3.037   9.994 -1.1525 -0.2656  0.9887
  748MOL0     C 3097   6.378   3.000   9.858  0.5286  0.7628 -0.4714
  748MOL0     C 3098   6.312   2.876   9.805  0.4631  0.1535 -0.1447
  748MOL0     C 3099   6.363   2.832   9.671 -0.6983  0.3444 -0.1265
  748MOL0     C 3100   6.261   2.727   9.610  0.6975 -0.1489 -0.3547
  748MOL0     C 3101   6.327   2.664   9.485  0.3996 -0.3184 -0.1857
  748MOL0     C 3102   6.254   2.551   9.418  0.1663 -0.0458 -0.7367
  748MOL0     N 3103   6.325   2.479   9.317 -1.2775  0.5625 -0.9457
  748MOL0     C 3104   6.399   2.532   9.207 -0.4249  0.4379 -0.4149
  748MOL0     C 3105   6.473   2.427   9.160 -0.5896 -0.4334  1.2146
  748MOL0     C 3106   6.569   2.422   9.039  0.4402 -0.0096 -0.6626
  748MOL0     C 3107   6.513   2.398   8.900  0.7668 -1.9983  0.7970
  748MOL0     C 3108   6.392   2.487   8.858 -0.0031  0.1914 -0.1857
  748MOL0     C 3109   6.378   2.499   8.705  1.0368  0.1097  0.3054
  748MOL0     O 3110   6.269   2.583   8.658  0.2292 -0.7197 -0.1812
  748MOL0     C 3111   6.203   2.564   8.542  0.1910  0.3595  0.2510
  748MOL0     C 3112   6.255   2.492   8.430 -0.2602  0.1014 -0.2276
  748MOL0     C 3113   6.177   2.492   8.310  0.4282  0.5792  0.2922
  748MOL0     C 3114   6.228   2.411   8.191 -0.4977  0.1530  0.2903
  748MOL0     C 3115   6.046   2.552   8.308 -0.9084  0.3188  1.2050
  748MOL0     C 3116   5.956   2.563   8.190 -0.9114  0.2190 -0.1726
  748MOL0     O 3117   5.827   2.535   8.219  0.0109  0.5491  0.2348
  748MOL0     C 3118   5.726   2.557   8.123 -0.2161  0.0770 -0.7670
  748MOL0     C 3119   5.696   2.450   8.040 -0.7004  0.4504  0.3325
  748MOL0     C 3120   5.603   2.468   7.941 -0.2893  0.0934  0.0048
  748MOL0     C 3121   5.540   2.594   7.922 -0.1506  0.3394 -0.4014
  748MOL0     O 3122   5.458   2.625   7.818 -0.3295  1.2702 -0.3531
  748MOL0     C 3123   5.363   2.527   7.771 -0.9833  0.0405  0.9079
  748MOL0     C 3124   5.228   2.540   7.854 -0.4142 -0.5133 -0.6157
  748MOL0     C 3125   5.130   2.442   7.796 -0.3639  0.4750  0.6542
  748MOL0     C 3126   5.000   2.437   7.865  1.5159  0.6874 -0.0519
  748MOL0     C 3127   4.890   2.362   7.793  0.2299 -0.3985  0.4126
  748MOL0     C 3128   4.803   2.449   7.685  0.1281  0.5363 -0.1799
  748MOL0     C 3129   4.710   2.362   7.609  0.3842  0.6245  0.2092
  748MOL0     C 3130   4.651   2.427   7.490  0.4258 -0.4997  0.6305
  748MOL0    Cl 3131   4.569   2.317   7.385 -0.7438  0.4698 -0.0106
  748MOL0     C 3132   5.560   2.696   8.019 -0.2927  0.0693  0.9330
  748MOL0     C 3133   5.663   2.675   8.111  0.3203  0.0603  0.0939
  748MOL0     O 3134   5.996   2.599   8.083 -0.6327  0.3103  0.2118
  748MOL0     C 3135   6.008   2.622   8.423  0.1751  0.8751 -0.1492
  748MOL0     C 3136   6.082   2.626   8.536 -0.4065 -0.5779 -0.8100
  748MOL0     N 3137   6.433   2.309   9.225  0.4358  0.3425 -0.3435
  748MOL0     N 3138   6.347   2.346   9.320  0.6096  0.1851  0.4474
  748MOL0     C 3139   6.703   2.946  10.222  0.5770  1.3796  0.1953
  748MOL0     C 3140   6.794   2.953  10.330 -0.4378 -0.4032  0.7360
  748MOL0     C 3141   6.910   2.966  10.784  0.2439 -0.2460 -0.3680
  748MOL0     C 3142   7.039   3.005  10.752 -0.6147 -0.2086  0.5304
  748MOL0     C 3143   7.139   3.031  10.843 -0.4303 -0.8192  0.5940
  748MOL0     C 3144   7.117   3.012  10.981 -0.1321  0.6245  0.8626
  748MOL0     O 3145   7.201   3.045  11.086  0.0987 -0.8375  0.2357
  748MOL0     C 3146   7.206   3.184  11.117 -0.3074  0.1252  0.1459
  748MOL0     C 3147   7.285   3.209  11.253 -0.4853 -0.1663  0.0193
  748MOL0     C 3148   7.201   3.180  11.387 -0.3709  0.5404  0.2713
  748MOL0     C 3149   7.118   3.053  11.405 -0.1922  0.5824  0.5490
  748MOL0     C 3150   7.011   3.065  11.514 -0.0793  0.5467  0.4777
  748MOL0     C 3151   6.949   3.078  11.611  0.0787  0.7207 -0.4734
  748MOL0     C 3152   6.992   2.949  11.007 -0.9870 -0.3521  0.2292
  748MOL0     C 3153   6.885   2.932  10.915 -0.2122  0.6454  0.6251
  748MOL0     C 3154   6.752   2.883  10.976  0.3482 -0.4364 -0.7436
  748MOL0     H 3155   6.636   3.174  10.529  0.1048 -1.2974  1.0912
  748MOL0     H 3156   6.473   3.159  10.346 -0.5467 -0.0127 -2.6614
  748MOL0     H 3157   6.460   3.185  10.045 -0.4968  0.3614 -0.8766
  748MOL0     H 3158   6.352   3.132  10.179  1.0057 -0.7353  0.8551
  748MOL0     H 3159   6.274   2.949  10.041 -2.5240  0.7467  1.5892
  748MOL0     H 3160   6.238   3.102   9.962 -0.9394 -1.3123 -2.0250
  748MOL0     H 3161   6.367   3.075   9.780 -0.1286  0.5812 -0.5621
  748MOL0     H 3162   6.487   2.990   9.864  0.5404  0.8468 -0.5540
  748MOL0     H 3163   6.312   2.794   9.877 -1.1181 -1.6730 -2.0754
  748MOL0     H 3164   6.209   2.901   9.777  0.5012 -1.2962 -1.7650
  748MOL0     H 3165   6.458   2.780   9.683 -0.3287  0.1279 -3.2140
  748MOL0     H 3166   6.373   2.920   9.606 -2.5803  1.5627  1.1050
  748MOL0     H 3167   6.251   2.638   9.673 -2.8181 -1.2439 -2.1864
  748MOL0     H 3168   6.163   2.771   9.589 -0.7607 -3.5284 -1.2969
  748MOL0     H 3169   6.422   2.623   9.521 -0.3307 -1.8776  0.0363
  748MOL0     H 3170   6.344   2.742   9.410  1.3545  1.2150  1.5329
  748MOL0     H 3171   6.209   2.476   9.484 -1.3854 -0.5016 -2.2356
  748MOL0     H 3172   6.165   2.592   9.369  0.4104 -0.2182 -1.3339
  748MOL0     H 3173   6.423   2.634   9.178  0.5734 -0.0728 -1.4289
  748MOL0     H 3174   6.643   2.347   9.066  1.9363  2.1448  1.7414
  748MOL0     H 3175   6.609   2.523   9.052 -0.5382  0.5726 -1.8742
  748MOL0     H 3176   6.602   2.425   8.842  0.6081 -1.1249  0.9544
  748MOL0     H 3177   6.481   2.294   8.888 -1.2022 -1.1717 -2.5419
  748MOL0     H 3178   6.298   2.443   8.893  1.5382 -3.3455 -0.0639
  748MOL0     H 3179   6.396   2.589   8.899 -2.0498 -0.0256  0.6812
  748MOL0     H 3180   6.474   2.540   8.670  1.0622 -2.0993 -2.6018
  748MOL0     H 3181   6.363   2.399   8.664  0.2614 -1.5469  4.1772
  748MOL0     H 3182   6.338   2.423   8.437 -1.6014 -1.3757  3.3077
  748MOL0     H 3183   6.321   2.363   8.224 -1.1788  2.6343  7.7756
  748MOL0     H 3184   6.255   2.486   8.115 -1.2084  0.4298  0.3076
  748MOL0     H 3185   6.158   2.341   8.145 -0.7865  0.0100  0.9390
  748MOL0     H 3186   5.735   2.351   8.063 -0.5400  0.8460  1.8801
  748MOL0     H 3187   5.588   2.374   7.888 -0.8990  0.7523 -1.0082
  748MOL0     H 3188   5.357   2.554   7.665 -2.7818  0.6102  1.1251
  748MOL0     H 3189   5.401   2.424   7.772 -2.8109 -0.6970 -0.6038
  748MOL0     H 3190   5.250   2.514   7.958  3.7600  1.3328 -0.8480
  748MOL0     H 3191   5.184   2.640   7.846 -0.2735 -0.2892  1.1105
  748MOL0     H 3192   5.176   2.343   7.790  1.6136  1.4377 -2.2991
  748MOL0     H 3193   5.106   2.465   7.692  0.3892 -0.6259  0.2238
  748MOL0     H 3194   4.962   2.540   7.874 -3.9743 -0.8317 -1.8738
  748MOL0     H 3195   5.003   2.391   7.964 -1.2419  0.8920  0.2142
  748MOL0     H 3196   4.946   2.281   7.744  1.4387  0.1612  0.8330
  748MOL0     H 3197   4.825   2.312   7.865  0.9973 -0.6938  0.9081
  748MOL0     H 3198   4.864   2.513   7.622 -1.5661  1.6869 -0.7064
  748MOL0     H 3199   4.725   2.495   7.747  0.7689  0.2216  0.8919
  748MOL0     H 3200   4.631   2.328   7.678  1.1335  0.2517  0.9012
  748MOL0     H 3201   4.770   2.278   7.572 -1.3330 -0.8611  0.6526
  748MOL0     H 3202   4.727   2.477   7.430  0.6276 -1.7508 -0.1852
  748MOL0     H 3203   4.581   2.506   7.518 -1.7068 -2.2659  0.5604
  748MOL0     H 3204   5.517   2.795   8.003 -1.5109 -0.1780  2.4005
  748MOL0     H 3205   5.679   2.762   8.174  2.0817  0.9767 -1.5024
  748MOL0     H 3206   5.910   2.669   8.421 -0.2208  0.0467 -0.8047
  748MOL0     H 3207   6.044   2.688   8.617  0.0819 -0.3548 -0.7501
  748MOL0     H 3208   6.719   2.891  10.130  2.2751 -0.0505  1.2757
  748MOL0     H 3209   6.891   2.904  10.327 -0.5345 -0.5937  0.7074
  748MOL0     H 3210   7.077   3.021  10.652 -2.4655  0.5024 -0.1073
  748MOL0     H 3211   7.239   3.061  10.810 -0.0271 -0.6463  1.9346
  748MOL0     H 3212   7.260   3.225  11.031 -1.9374 -2.7243 -2.4197
  748MOL0     H 3213   7.106   3.229  11.117 -1.3717 -2.0637  1.5213
  748MOL0     H 3214   7.324   3.312  11.253 -0.8282 -0.0352  0.3334
  748MOL0     H 3215   7.378   3.152  11.252  0.0724  0.5424  2.7225
  748MOL0     H 3216   7.273   3.179  11.469  0.3632 -0.0875 -0.3649
  748MOL0     H 3217   7.135   3.266  11.404 -5.1426 -2.6117 -0.1629
  748MOL0     H 3218   7.181   2.964  11.413  1.7781  1.7673 -0.7631
  748MOL0     H 3219   7.074   3.026  11.309 -2.1298 -3.6911  2.3954
  748MOL0     H 3220   6.903   3.094  11.706  2.9327  0.8191  0.9898
  748MOL0     H 3221   6.978   2.917  11.110 -0.8255 -0.3328  0.2580
  748MOL0     H 3222   6.677   2.962  10.969  2.3247  1.8286  1.5525
  748MOL0     H 3223   6.703   2.803  10.919 -1.5867 -1.2823  1.9373
  748MOL0     H 3224   6.764   2.849  11.079 -4.3797 -2.2918 -0.5397
  749MOL0     O 3225   9.191   4.972   5.644  0.1758  0.2587 -0.1580
  749MOL0     C 3226   9.088   4.934   5.580 -0.9496 -0.0518  0.4172
  749MOL0     O 3227   9.001   5.018   5.503  0.2863  0.1768 -0.4962
  749MOL0     C 3228   9.037   5.145   5.477 -1.5868  0.1521 -0.7614
  749MOL0     C 3229   9.124   5.192   5.375 -0.4241 -0.2257 -0.4817
  749MOL0     C 3230   9.135   5.329   5.354  1.1099 -1.1586  0.4733
  749MOL0     C 3231   9.067   5.422   5.432  0.5071 -0.4806 -0.3494
  749MOL0     O 3232   9.104   5.554   5.437 -0.4334 -0.8400 -0.2017
  749MOL0     C 3233   9.187   5.602   5.545  0.5010  0.1783  1.0399
  749MOL0     C 3234   9.205   5.746   5.513 -0.5554  0.0975  0.3239
  749MOL0     C 3235   9.239   5.848   5.626 -0.7298 -0.4866 -0.3795
  749MOL0     C 3236   9.335   5.796   5.731  0.5007  1.0192  0.7205
  749MOL0     C 3237   9.484   5.801   5.688 -0.3282 -0.7305  0.9544
  749MOL0     C 3238   9.572   5.773   5.810 -0.8648  0.3454  0.3257
  749MOL0     C 3239   9.709   5.733   5.765 -0.4144 -0.0079 -0.4696
  749MOL0     C 3240   9.801   5.706   5.889  0.2054  0.2784  0.7864
  749MOL0     N 3241   9.914   5.612   5.865 -0.6498 -0.7180 -0.1317
  749MOL0     C 3242  10.034   5.632   5.800  0.2140 -0.8202  0.4076
  749MOL0     C 3243  10.082   5.507   5.801  0.4772 -0.5211  0.4673
  749MOL0     C 3244  10.211   5.489   5.732 -0.0107  0.0044  0.7512
  749MOL0     C 3245  10.327   5.466   5.819  0.1707  0.9672  0.4427
  749MOL0     C 3246  10.339   5.328   5.880 -0.1026 -0.4104  0.3740
  749MOL0     C 3247  10.368   5.210   5.782  0.1093 -0.3390  0.4842
  749MOL0     O 3248  10.437   5.246   5.663  0.3212 -0.0144  0.5090
  749MOL0     C 3249  10.573   5.220   5.660  0.2471  0.2946 -0.5127
  749MOL0     C 3250  10.646   5.225   5.776 -0.0008 -0.2877  0.3012
  749MOL0     C 3251  10.777   5.192   5.781  0.3832  0.0470  0.6415
  749MOL0     C 3252  10.840   5.183   5.911 -0.3061 -0.3354 -1.1108
  749MOL0     C 3253  10.851   5.173   5.662  0.6867 -0.1710  0.7946
  749MOL0     C 3254  11.002   5.145   5.639  0.8256 -0.5742 -0.8335
  749MOL0     O 3255  11.042   5.035   5.717 -0.7624  0.8847 -0.1743
  749MOL0     C 3256  11.167   4.983   5.706  0.2212 -0.0065 -0.2109
  749MOL0     C 3257  11.283   5.059   5.739  0.6486 -0.1228  0.1656
  749MOL0     C 3258  11.409   5.004   5.710 -1.0766  0.9626  0.3028
  749MOL0     C 3259  11.426   4.872   5.657  0.3094 -0.2811  0.4570
  749MOL0     O 3260  11.560   4.839   5.637  0.5899  0.0564  0.4419
  749MOL0     C 3261  11.572   4.717   5.566 -0.6951 -0.0818 -0.4171
  749MOL0     C 3262  11.720   4.684   5.571  0.5795  0.4965  0.7407
  749MOL0     C 3263  11.749   4.662   5.719 -0.0434  0.3847 -0.1438
  749MOL0     C 3264  11.878   4.588   5.723  0.5525  0.2749  0.5977
  749MOL0     C 3265  11.951   4.598   5.861  0.7655 -0.1205  0.3344
  749MOL0     C 3266  11.864   4.543   5.969  0.7687  0.1226 -0.5528
  749MOL0     C 3267  11.944   4.536   6.102  0.3592 -0.4232  0.1908
  749MOL0     C 3268  11.860   4.451   6.195 -0.3540  0.5017 -1.2164
  749MOL0    Cl 3269  11.711   4.534   6.260 -0.2059 -0.0108  0.1272
  749MOL0     C 3270  11.302   4.806   5.612  0.0521  0.0242  0.0195
  749MOL0     C 3271  11.173   4.864   5.641 -0.6536  1.8543  0.5714
  749MOL0     O 3272  11.076   5.215   5.566  0.6741  0.2121  0.3863
  749MOL0     C 3273  10.774   5.185   5.539  0.3493 -0.5185  0.2063
  749MOL0     C 3274  10.635   5.192   5.537 -0.5108 -0.2304  0.4641
  749MOL0     N 3275   9.994   5.410   5.861 -0.4949 -1.0226  0.4051
  749MOL0     N 3276   9.898   5.480   5.895  0.1381 -0.2130 -0.5142
  749MOL0     C 3277   8.979   5.375   5.529 -0.3585 -0.3998 -0.6079
  749MOL0     C 3278   8.960   5.236   5.541  0.9578  0.9795 -0.1212
  749MOL0     C 3279   9.069   4.791   5.571  0.0091 -0.1694 -0.7356
  749MOL0     C 3280   9.040   4.733   5.447 -0.8403 -0.8166 -0.9367
  749MOL0     C 3281   9.015   4.600   5.435 -0.2625 -0.6341  0.0978
  749MOL0     C 3282   9.015   4.509   5.548  0.3879 -0.3425  0.9334
  749MOL0     O 3283   8.989   4.373   5.539 -0.4282  1.0514  0.4696
  749MOL0     C 3284   8.897   4.337   5.434  0.2276 -0.4236 -0.1014
  749MOL0     C 3285   8.862   4.185   5.445  0.1322  0.2227 -0.7570
  749MOL0     C 3286   8.962   4.088   5.521 -0.3663  0.1016  0.1250
  749MOL0     C 3287   9.103   4.075   5.461 -0.5395  0.9137  0.1866
  749MOL0     C 3288   9.100   4.003   5.335  0.0283  0.0684  0.2725
  749MOL0     C 3289   9.072   3.967   5.223 -0.1885  0.5452  0.3374
  749MOL0     C 3290   9.058   4.563   5.671  0.2421 -0.3399 -0.8656
  749MOL0     C 3291   9.081   4.702   5.682  0.3012  0.2598  0.0063
  749MOL0     C 3292   9.107   4.744   5.829  0.3252  0.4294 -0.8129
  749MOL0     H 3293   9.180   5.114   5.324  2.5421  0.6656  1.2001
  749MOL0     H 3294   9.199   5.373   5.278  2.3994 -2.8446  0.5051
  749MOL0     H 3295   9.285   5.553   5.535  0.2604  0.1371 -2.4292
  749MOL0     H 3296   9.132   5.591   5.638 -2.4473  2.4025 -0.2902
  749MOL0     H 3297   9.286   5.761   5.440 -3.7118  1.6765 -3.1712
  749MOL0     H 3298   9.115   5.782   5.462  0.7452  3.3641  0.0664
  749MOL0     H 3299   9.288   5.933   5.578  2.0490 -1.0489  1.2505
  749MOL0     H 3300   9.143   5.873   5.671 -1.9655 -2.7874 -1.5210
  749MOL0     H 3301   9.313   5.853   5.822  0.9612 -1.0317  2.1758
  749MOL0     H 3302   9.298   5.698   5.762  1.0099  1.0460  1.4292
  749MOL0     H 3303   9.499   5.899   5.643 -4.0165 -0.6162 -0.4187
  749MOL0     H 3304   9.497   5.731   5.605 -0.5432  0.8166 -0.4401
  749MOL0     H 3305   9.587   5.847   5.889  5.5308 -0.8667  0.7862
  749MOL0     H 3306   9.527   5.689   5.862  1.0592  0.0632  1.6396
  749MOL0     H 3307   9.750   5.824   5.719 -0.2729  0.7847  1.1634
  749MOL0     H 3308   9.709   5.651   5.693 -2.3973  0.1208 -0.6550
  749MOL0     H 3309   9.831   5.805   5.924 -2.4591  1.8323 -0.9661
  749MOL0     H 3310   9.738   5.656   5.964 -2.8581 -1.3961 -2.5589
  749MOL0     H 3311  10.078   5.725   5.766  1.3020 -1.6493 -0.5263
  749MOL0     H 3312  10.237   5.573   5.667  4.0345 -1.1048  0.6588
  749MOL0     H 3313  10.200   5.419   5.648  3.6646 -1.0167  0.9379
  749MOL0     H 3314  10.420   5.485   5.765 -0.3656  1.1784 -0.4327
  749MOL0     H 3315  10.321   5.540   5.899 -0.6566 -2.3730  3.7990
  749MOL0     H 3316  10.406   5.339   5.966 -1.6309 -1.9387  1.8403
  749MOL0     H 3317  10.243   5.310   5.929 -0.6825 -1.2793 -1.0295
  749MOL0     H 3318  10.409   5.131   5.845  0.0896  0.6562  1.7683
  749MOL0     H 3319  10.271   5.173   5.746  1.2453 -0.5259 -2.7714
  749MOL0     H 3320  10.613   5.270   5.870  2.1639 -1.5671  1.7721
  749MOL0     H 3321  10.880   5.082   5.922  4.0529  1.0476 -2.4609
  749MOL0     H 3322  10.781   5.213   5.998 -0.3194 -0.3028 -1.1316
  749MOL0     H 3323  10.926   5.250   5.899 -1.0394  0.6558 -0.9642
  749MOL0     H 3324  11.279   5.160   5.778  0.1447  0.5327 -1.4674
  749MOL0     H 3325  11.495   5.069   5.718  1.2494 -2.0773  2.4932
  749MOL0     H 3326  11.518   4.639   5.620  0.9513 -2.1351 -1.6046
  749MOL0     H 3327  11.530   4.728   5.465  1.3687  1.0623 -1.2092
  749MOL0     H 3328  11.723   4.590   5.517 -0.8417  0.5381  0.5595
  749MOL0     H 3329  11.788   4.757   5.526 -0.1479  2.4721  2.6423
  749MOL0     H 3330  11.665   4.606   5.760  0.1143 -1.4173 -2.0965
  749MOL0     H 3331  11.765   4.753   5.777 -3.5607  0.5868  0.6995
  749MOL0     H 3332  11.940   4.626   5.641 -0.4272  1.1884  0.2580
  749MOL0     H 3333  11.848   4.485   5.697  0.9716  0.6559 -1.6173
  749MOL0     H 3334  12.045   4.543   5.856  0.2146 -1.4156  2.5623
  749MOL0     H 3335  11.983   4.698   5.891  0.0782 -0.9011  4.1003
  749MOL0     H 3336  11.821   4.446   5.942 -0.8651  1.6315 -4.0034
  749MOL0     H 3337  11.781   4.614   5.979  0.2388 -0.4717 -0.6595
  749MOL0     H 3338  11.951   4.638   6.143 -1.9798  0.0970 -0.5539
  749MOL0     H 3339  12.048   4.502   6.095  0.5875  0.5620 -1.7695
  749MOL0     H 3340  11.921   4.414   6.279 -0.9582  1.1812 -0.4598
  749MOL0     H 3341  11.823   4.366   6.137 -1.4237  2.0523 -2.8986
  749MOL0     H 3342  11.307   4.713   5.557  3.2579  1.0955 -1.7744
  749MOL0     H 3343  11.074   4.844   5.602 -1.3922 -0.7447  3.3664
  749MOL0     H 3344  10.830   5.174   5.447 -0.0262 -0.7235  0.0003
  749MOL0     H 3345  10.573   5.193   5.448 -1.4092  0.6266  1.0707
  749MOL0     H 3346   8.928   5.450   5.589  2.0622  1.6050 -0.9146
  749MOL0     H 3347   8.887   5.200   5.612 -0.5091  2.4466 -0.8179
  749MOL0     H 3348   9.027   4.795   5.359 -0.8710  2.4529  1.1538
  749MOL0     H 3349   8.975   4.568   5.339  0.5432 -0.2241 -0.3795
  749MOL0     H 3350   8.808   4.398   5.423 -1.3640 -2.8580 -1.7401
  749MOL0     H 3351   8.940   4.350   5.335 -0.7848 -2.2154 -0.8319
  749MOL0     H 3352   8.839   4.147   5.345  2.0461 -2.6029 -0.2051
  749MOL0     H 3353   8.766   4.178   5.498  1.0399  3.3055  1.6230
  749MOL0     H 3354   8.980   4.128   5.622  1.4564 -0.7246  0.1735
  749MOL0     H 3355   8.914   3.992   5.538 -2.5630  1.2292  0.6798
  749MOL0     H 3356   9.159   4.001   5.518  1.7990 -0.7232 -3.8080
  749MOL0     H 3357   9.157   4.170   5.468 -0.8255  1.3223 -2.2109
  749MOL0     H 3358   9.037   3.942   5.125  1.2597  1.1356 -0.3494
  749MOL0     H 3359   9.078   4.496   5.753 -2.0825 -0.5610 -0.4108
  749MOL0     H 3360   9.211   4.753   5.860 -0.0442  1.6029  0.2198
  749MOL0     H 3361   9.065   4.845   5.839  2.3921  1.4271 -1.7747
  749MOL0     H 3362   9.061   4.676   5.901 -2.6618  3.0042 -0.0617
  750MOL0     O 3363   3.544  10.780   8.097  1.3763  0.2667  0.3070
  750MOL0     C 3364   3.555  10.663   8.149 -0.1787  0.0589  0.6352
  750MOL0     O 3365   3.483  10.620   8.259  0.7133  0.2260 -0.1898
  750MOL0     C 3366   3.386  10.714   8.300 -0.1770  0.4668  0.7247
  750MOL0     C 3367   3.417  10.798   8.406 -0.2483 -0.1565  0.5161
  750MOL0     C 3368   3.323  10.890   8.462  0.1010  0.2716  0.1754
  750MOL0     C 3369   3.194  10.895   8.402  0.2225  1.1006  0.6790
  750MOL0     O 3370   3.094  10.978   8.441 -0.1547  0.0033 -0.0040
  750MOL0     C 3371   3.129  11.112   8.481  0.2476 -0.0582 -0.8768
  750MOL0     C 3372   3.018  11.209   8.427  0.4302 -0.1696  0.6555
  750MOL0     C 3373   3.025  11.350   8.488  0.2195 -0.2122 -0.5737
  750MOL0     C 3374   2.988  11.362   8.639 -0.4197  0.9987  0.1489
  750MOL0     C 3375   3.023  11.500   8.689  0.4542 -0.6879 -1.5858
  750MOL0     C 3376   2.936  11.614   8.648  0.5940 -0.2791  0.0526
  750MOL0     C 3377   2.963  11.752   8.698  1.9555 -0.0598  0.8839
  750MOL0     C 3378   2.895  11.864   8.613 -0.2411  0.2607 -0.5497
  750MOL0     N 3379   2.905  11.863   8.457 -1.0199 -0.3019 -0.2138
  750MOL0     C 3380   3.022  11.865   8.382  0.9391 -0.0839  0.5525
  750MOL0     C 3381   2.978  11.870   8.247 -0.0654  0.2995 -0.1537
  750MOL0     C 3382   3.049  11.860   8.115  0.1247  0.7814  0.2987
  750MOL0     C 3383   3.194  11.898   8.124 -0.0626  0.2682  0.5149
  750MOL0     C 3384   3.272  11.858   7.992 -0.4735 -0.0213  0.0181
  750MOL0     C 3385   3.229  11.902   7.857 -0.5540  0.0852 -0.1076
  750MOL0     O 3386   3.243  12.040   7.854  0.0696 -0.2157 -0.3129
  750MOL0     C 3387   3.219  12.094   7.730  0.0006 -0.6921 -0.3984
  750MOL0     C 3388   3.082  12.109   7.694 -0.6048 -0.1881 -1.3285
  750MOL0     C 3389   3.049  12.145   7.568 -0.6425 -0.0656  0.8287
  750MOL0     C 3390   2.899  12.155   7.550  0.1644 -0.0705  0.1254
  750MOL0     C 3391   3.147  12.183   7.473 -0.3282  0.0486  0.1858
  750MOL0     C 3392   3.120  12.208   7.326  0.6633 -0.4926 -0.2122
  750MOL0     O 3393   2.992  12.221   7.281  0.2288 -0.6926 -0.3993
  750MOL0     C 3394   2.968  12.246   7.146 -0.2342  1.1808 -0.4188
  750MOL0     C 3395   2.893  12.355   7.117 -0.2898 -0.3022 -1.3683
  750MOL0     C 3396   2.837  12.364   6.986  0.0555  0.3571  0.3066
  750MOL0     C 3397   2.872  12.283   6.877  0.5931 -0.1427 -0.6683
  750MOL0     O 3398   2.826  12.324   6.753  0.3707 -0.2037 -0.0307
  750MOL0     C 3399   2.851  12.251   6.628 -0.7063 -0.3275  0.4144
  750MOL0     C 3400   2.954  12.332   6.552 -0.2832  0.8236  0.9137
  750MOL0     C 3401   3.079  12.361   6.627 -0.6605 -0.5057 -0.4962
  750MOL0     C 3402   3.197  12.266   6.602 -0.9496  0.2176 -0.0550
  750MOL0     C 3403   3.184  12.120   6.644  0.3787 -0.5854  0.5054
  750MOL0     C 3404   3.303  12.038   6.615 -0.2668 -1.6877 -0.1288
  750MOL0     C 3405   3.288  11.897   6.684 -0.3192 -0.1024  0.8867
  750MOL0     C 3406   3.282  11.784   6.578 -0.2676  0.2816 -0.8182
  750MOL0    Cl 3407   3.436  11.765   6.495 -0.3017  0.2294 -0.0687
  750MOL0     C 3408   2.954  12.173   6.915  0.0961 -0.1430  0.7858
  750MOL0     C 3409   2.996  12.155   7.045 -0.3446  0.6196  0.7261
  750MOL0     O 3410   3.218  12.204   7.253  0.3178 -0.5700  0.6377
  750MOL0     C 3411   3.285  12.180   7.517 -0.4826  0.2238  0.4401
  750MOL0     C 3412   3.325  12.135   7.645  0.4914  0.4764  0.2417
  750MOL0     N 3413   2.838  11.883   8.247 -0.9030 -0.3714 -0.0911
  750MOL0     N 3414   2.795  11.870   8.371 -1.5422 -0.4241 -0.0609
  750MOL0     C 3415   3.162  10.797   8.309  0.6192  0.2055 -0.1189
  750MOL0     C 3416   3.260  10.713   8.253  1.6065 -1.2866  0.4685
  750MOL0     C 3417   3.660  10.576   8.092 -0.6030 -0.4107 -0.0826
  750MOL0     C 3418   3.775  10.639   8.041  0.4423  0.4794 -0.3609
  750MOL0     C 3419   3.870  10.559   7.979  0.1263  0.4416  0.2178
  750MOL0     C 3420   3.872  10.417   7.980 -0.9182  0.0377 -1.0241
  750MOL0     O 3421   3.975  10.339   7.914 -0.4671 -0.1372 -0.1214
  750MOL0     C 3422   3.973  10.195   7.922 -0.5405 -0.3323  0.2067
  750MOL0     C 3423   4.060  10.132   7.812  0.2410  0.5296  0.6949
  750MOL0     C 3424   4.055   9.978   7.810 -0.5950  1.0572 -0.3411
  750MOL0     C 3425   4.128   9.908   7.686 -0.8121  0.3133  0.5521
  750MOL0     C 3426   4.081   9.952   7.549  0.2468 -0.4737  0.8165
  750MOL0     C 3427   4.065  10.011   7.444 -0.0876 -0.5821  0.7777
  750MOL0     C 3428   3.770  10.356   8.047 -0.1217  0.1769 -0.0064
  750MOL0     C 3429   3.659  10.430   8.109 -0.6400 -0.3751  0.1063
  750MOL0     C 3430   3.541  10.350   8.163  0.0318 -0.1100  0.2792
  750MOL0     H 3431   3.510  10.814   8.460  0.6436 -2.1351 -0.3099
  750MOL0     H 3432   3.341  10.956   8.546  0.6500 -0.3265  0.5440
  750MOL0     H 3433   3.226  11.152   8.450  1.0222 -2.3592 -1.5882
  750MOL0     H 3434   3.130  11.108   8.590 -2.7979  0.2160 -0.7544
  750MOL0     H 3435   3.044  11.202   8.321  0.1072 -2.4612  0.6745
  750MOL0     H 3436   2.918  11.166   8.438  0.9309 -1.6009 -0.0814
  750MOL0     H 3437   3.126  11.388   8.472  0.0692  0.8180  0.7665
  750MOL0     H 3438   2.957  11.412   8.429  2.5055  1.5034 -1.5442
  750MOL0     H 3439   2.884  11.344   8.667 -0.8463  1.8634 -0.8292
  750MOL0     H 3440   3.051  11.295   8.698 -0.9381  1.4021  1.1763
  750MOL0     H 3441   3.124  11.517   8.650  0.0843 -1.0154 -2.7428
  750MOL0     H 3442   3.022  11.504   8.798 -1.4695  0.6287 -1.5933
  750MOL0     H 3443   2.939  11.619   8.538  0.7539  1.7717  0.1076
  750MOL0     H 3444   2.833  11.598   8.682  1.0004  1.2732  2.2202
  750MOL0     H 3445   3.069  11.770   8.678  1.6690 -1.1425 -1.9307
  750MOL0     H 3446   2.936  11.745   8.804 -1.1768 -1.1793  0.1020
  750MOL0     H 3447   2.794  11.876   8.653  0.4869  1.9677  0.9210
  750MOL0     H 3448   2.951  11.953   8.645  2.1914 -1.3858  0.0384
  750MOL0     H 3449   3.125  11.850   8.413  0.8124 -0.2187  0.9133
  750MOL0     H 3450   3.006  11.937   8.050 -0.9406 -2.0519 -2.5989
  750MOL0     H 3451   3.039  11.764   8.064 -0.1602  0.0511  1.6778
  750MOL0     H 3452   3.197  12.007   8.139 -1.4403  0.3068  0.6554
  750MOL0     H 3453   3.239  11.849   8.211  1.7186  0.8686 -0.0167
  750MOL0     H 3454   3.376  11.888   8.011 -0.3286 -0.7782  0.4617
  750MOL0     H 3455   3.262  11.749   7.991 -1.5532  0.0459  0.8797
  750MOL0     H 3456   3.292  11.851   7.784 -2.8027 -0.1621 -2.0001
  750MOL0     H 3457   3.127  11.869   7.838 -0.7971  0.6346  0.1989
  750MOL0     H 3458   3.002  12.081   7.761 -1.5497 -0.9733 -2.7110
  750MOL0     H 3459   2.848  12.113   7.637  2.6979 -4.2811 -0.1734
  750MOL0     H 3460   2.853  12.095   7.472  1.4451  0.3251 -0.9718
  750MOL0     H 3461   2.876  12.262   7.541  2.0635  0.2938 -1.0848
  750MOL0     H 3462   2.872  12.432   7.190 -1.5253 -1.9035  0.0618
  750MOL0     H 3463   2.771  12.447   6.963  1.9191  2.5530  2.3082
  750MOL0     H 3464   2.892  12.152   6.651  0.1716 -0.3821 -1.2252
  750MOL0     H 3465   2.751  12.240   6.583 -0.8764 -1.2535  1.0046
  750MOL0     H 3466   2.978  12.281   6.458  1.9078 -1.1279  2.3931
  750MOL0     H 3467   2.904  12.425   6.524  0.4654  0.5341 -1.6053
  750MOL0     H 3468   3.073  12.384   6.733 -0.7557 -0.9946 -0.3926
  750MOL0     H 3469   3.109  12.460   6.592  0.6044 -0.1466  1.5016
  750MOL0     H 3470   3.285  12.299   6.658 -1.3411  0.9248  0.1625
  750MOL0     H 3471   3.213  12.264   6.494  0.7486  1.3990  0.1330
  750MOL0     H 3472   3.168  12.115   6.752  0.5409 -0.9216  0.5167
  750MOL0     H 3473   3.091  12.074   6.607  0.0757 -1.3189  2.0755
  750MOL0     H 3474   3.397  12.092   6.632 -1.0197 -0.5691  0.5887
  750MOL0     H 3475   3.311  12.023   6.507  0.6837 -0.7397 -0.2087
  750MOL0     H 3476   3.189  11.890   6.729 -0.9257 -1.7347 -0.5978
  750MOL0     H 3477   3.379  11.894   6.744  1.2986  4.5150 -0.9044
  750MOL0     H 3478   3.196  11.788   6.510 -0.7766 -3.5096 -0.6020
  750MOL0     H 3479   3.256  11.690   6.626 -2.4513  1.2307  0.0291
  750MOL0     H 3480   2.991  12.110   6.835  0.3555  1.6333 -0.5383
  750MOL0     H 3481   3.070  12.075   7.046  0.5129  1.3623 -0.8488
  750MOL0     H 3482   3.357  12.209   7.441 -3.0297  4.2348 -0.7519
  750MOL0     H 3483   3.429  12.119   7.672  2.5345  3.4080 -4.6088
  750MOL0     H 3484   3.062  10.787   8.267  0.4960  1.0286 -0.0267
  750MOL0     H 3485   3.234  10.654   8.166 -1.5408 -1.4207  1.3962
  750MOL0     H 3486   3.792  10.746   8.041  1.9677  0.2587 -0.6116
  750MOL0     H 3487   3.960  10.606   7.940 -0.4046  0.1739 -1.3919
  750MOL0     H 3488   4.011  10.175   8.023  0.4879  2.2007  0.3900
  750MOL0     H 3489   3.873  10.159   7.897 -0.1932  0.3945 -2.5768
  750MOL0     H 3490   4.164  10.165   7.825  0.8723 -1.3814  0.7800
  750MOL0     H 3491   4.015  10.163   7.718 -2.7505 -1.3785  1.3706
  750MOL0     H 3492   4.104   9.948   7.903  2.4938 -0.0377 -2.1585
  750MOL0     H 3493   3.955   9.936   7.822  0.3401 -0.4714  3.4588
  750MOL0     H 3494   4.128   9.799   7.695  2.5866  0.2075  0.4709
  750MOL0     H 3495   4.233   9.934   7.701 -0.7827  0.1160  0.6893
  750MOL0     H 3496   4.042  10.063   7.353 -2.7068 -0.3707  1.4824
  750MOL0     H 3497   3.762  10.248   8.046  0.6777  0.1153 -1.2606
  750MOL0     H 3498   3.520  10.359   8.270 -3.5833 -2.6996 -0.0247
  750MOL0     H 3499   3.453  10.362   8.099 -1.0186 -3.8159  0.7686
  750MOL0     H 3500   3.566  10.244   8.161 -3.2662 -1.1426  2.7408
  751MOL0     O 3501   6.041   8.880   5.044  0.8287  0.1309 -0.1902
  751MOL0     C 3502   6.058   8.988   4.991  0.3124  0.5774  0.0640
  751MOL0     O 3503   6.127   9.094   5.044 -0.2328 -0.0696  0.5749
  751MOL0     C 3504   6.175   9.076   5.174 -0.2849 -0.2086  0.8647
  751MOL0     C 3505   6.114   9.142   5.290  0.4833  0.9938  0.8079
  751MOL0     C 3506   6.175   9.128   5.416 -0.2928  0.4660 -0.3787
  751MOL0     C 3507   6.297   9.049   5.430  0.4208 -0.3366 -1.7880
  751MOL0     O 3508   6.364   9.024   5.552 -0.2338  0.4522 -0.2118
  751MOL0     C 3509   6.339   9.112   5.665 -0.4270  0.3939 -0.9275
  751MOL0     C 3510   6.433   9.100   5.783 -0.2505  0.1929 -0.1549
  751MOL0     C 3511   6.416   8.976   5.871  0.4512 -0.4447 -0.0194
  751MOL0     C 3512   6.536   8.888   5.873 -0.6421  0.4645  0.6655
  751MOL0     C 3513   6.518   8.764   5.967  1.1341  0.5188 -0.6091
  751MOL0     C 3514   6.645   8.676   5.967 -1.2168 -0.1464 -0.4851
  751MOL0     C 3515   6.629   8.555   6.052 -0.2450 -0.1900  0.5838
  751MOL0     C 3516   6.667   8.570   6.196  0.3518  0.3118 -0.0174
  751MOL0     N 3517   6.667   8.436   6.249 -0.8609 -0.4894 -0.1877
  751MOL0     C 3518   6.565   8.371   6.308  0.6921  0.1786 -0.2044
  751MOL0     C 3519   6.617   8.251   6.350 -0.3742 -0.6180 -0.0859
  751MOL0     C 3520   6.552   8.133   6.404 -0.1763 -0.7361  0.0875
  751MOL0     C 3521   6.489   8.179   6.542 -0.1769  0.3691 -0.1698
  751MOL0     C 3522   6.594   8.171   6.651  0.0643 -0.8468 -0.1153
  751MOL0     C 3523   6.548   8.236   6.781 -0.5652  1.2543 -0.2650
  751MOL0     O 3524   6.438   8.151   6.820 -0.4370 -0.8746 -0.1938
  751MOL0     C 3525   6.386   8.166   6.950 -0.1498  0.1995 -0.2679
  751MOL0     C 3526   6.376   8.296   7.011 -0.5064 -0.8674  0.0596
  751MOL0     C 3527   6.314   8.307   7.141 -0.1021  0.5474  0.1913
  751MOL0     C 3528   6.307   8.443   7.194 -0.0032  0.2802  0.0533
  751MOL0     C 3529   6.274   8.191   7.213 -0.4709 -0.2901 -0.6276
  751MOL0     C 3530   6.230   8.188   7.350 -0.0782 -0.3249  0.2705
  751MOL0     O 3531   6.249   8.292   7.433  0.4060  0.4788 -0.6658
  751MOL0     C 3532   6.180   8.292   7.551 -1.1061 -0.4077  0.0056
  751MOL0     C 3533   6.262   8.293   7.665  0.0983 -0.0694 -0.4933
  751MOL0     C 3534   6.204   8.300   7.794 -0.0663 -0.5869 -0.8389
  751MOL0     C 3535   6.060   8.311   7.802 -0.1170  0.5585  1.5709
  751MOL0     O 3536   5.993   8.344   7.917 -0.2493 -0.4054  0.5752
  751MOL0     C 3537   5.973   8.243   8.017  0.9360  0.4345  0.1069
  751MOL0     C 3538   5.898   8.115   7.968 -0.0254 -0.1199  0.3038
  751MOL0     C 3539   5.893   8.009   8.078  0.3080  0.5936  1.1910
  751MOL0     C 3540   5.786   8.044   8.184  0.8309  0.2374 -0.2408
  751MOL0     C 3541   5.768   7.923   8.285  0.1181  0.2113  0.6681
  751MOL0     C 3542   5.687   7.810   8.228  0.4019  1.2041  0.0661
  751MOL0     C 3543   5.633   7.717   8.342 -0.8884  0.4624  0.2930
  751MOL0     C 3544   5.487   7.746   8.376  0.2142 -0.4712  0.8182
  751MOL0    Cl 3545   5.466   7.902   8.432 -0.0598  0.3646 -0.0763
  751MOL0     C 3546   5.981   8.309   7.686 -0.9056 -0.9517  0.1449
  751MOL0     C 3547   6.042   8.295   7.563  0.3208  0.3208 -0.3420
  751MOL0     O 3548   6.173   8.085   7.387 -0.3791  0.5733 -0.1073
  751MOL0     C 3549   6.275   8.074   7.138 -0.4147 -0.5097 -0.4357
  751MOL0     C 3550   6.327   8.060   7.010  0.3130 -0.0565  0.4748
  751MOL0     N 3551   6.756   8.248   6.326  0.8033 -0.6262  0.3033
  751MOL0     N 3552   6.782   8.362   6.265  0.1504  0.4359 -0.8202
  751MOL0     C 3553   6.343   8.988   5.323 -0.0393  1.1255 -0.3125
  751MOL0     C 3554   6.288   9.003   5.196 -1.2580 -0.4149 -0.2582
  751MOL0     C 3555   6.026   8.997   4.844  0.0663 -0.7325  0.8181
  751MOL0     C 3556   6.131   9.036   4.763 -0.5452  0.3083 -1.4034
  751MOL0     C 3557   6.107   9.050   4.631  0.1686 -0.3193 -0.0967
  751MOL0     C 3558   5.985   9.036   4.567 -0.4458 -0.6142  0.2946
  751MOL0     O 3559   5.991   9.055   4.431 -0.2505  0.0336  0.6075
  751MOL0     C 3560   5.908   8.963   4.365  0.7509 -0.1946  0.0762
  751MOL0     C 3561   5.957   8.819   4.382 -0.3633  0.0948 -0.8415
  751MOL0     C 3562   6.101   8.809   4.334  0.5527 -0.4275  0.2074
  751MOL0     C 3563   6.142   8.658   4.337  0.3746 -0.2877 -0.2595
  751MOL0     C 3564   6.049   8.569   4.264 -1.3567 -1.0738 -0.2153
  751MOL0     C 3565   5.986   8.492   4.195 -0.7716 -1.0048  0.0199
  751MOL0     C 3566   5.879   8.999   4.650  0.7522  0.5752  0.1789
  751MOL0     C 3567   5.901   8.987   4.785  0.1227 -0.4295  0.2543
  751MOL0     C 3568   5.790   8.963   4.884  0.6356  0.8217  0.2021
  751MOL0     H 3569   6.025   9.203   5.274  0.2078  0.2845 -0.5220
  751MOL0     H 3570   6.127   9.161   5.508  1.6651  0.0241  0.8478
  751MOL0     H 3571   6.243   9.081   5.706 -0.0444 -0.8139 -0.9118
  751MOL0     H 3572   6.336   9.214   5.626  0.5851  0.4280 -0.9480
  751MOL0     H 3573   6.538   9.112   5.752 -0.7130 -1.7065 -2.8755
  751MOL0     H 3574   6.418   9.186   5.849 -0.7286  1.5442 -1.9260
  751MOL0     H 3575   6.393   9.006   5.974 -0.4529 -0.1410 -0.3021
  751MOL0     H 3576   6.335   8.915   5.830  2.3962 -2.8227 -0.5772
  751MOL0     H 3577   6.557   8.852   5.772 -0.3200  0.5450  0.7047
  751MOL0     H 3578   6.613   8.957   5.908 -0.7528  0.6058  0.6350
  751MOL0     H 3579   6.436   8.704   5.927 -0.1768  1.9115 -0.0787
  751MOL0     H 3580   6.487   8.794   6.068  0.7704  0.6993 -0.7752
  751MOL0     H 3581   6.658   8.633   5.867  0.0195 -3.2994  0.9069
  751MOL0     H 3582   6.740   8.722   5.994 -2.6942  4.1563 -1.7669
  751MOL0     H 3583   6.691   8.476   6.010  1.3142 -1.1164  4.2233
  751MOL0     H 3584   6.523   8.527   6.043 -0.7887  2.1238 -1.2782
  751MOL0     H 3585   6.764   8.621   6.196  0.8074 -0.5205 -0.4457
  751MOL0     H 3586   6.592   8.627   6.251  0.2746 -1.6603  2.0897
  751MOL0     H 3587   6.466   8.413   6.323  1.3553  2.3178 -1.3106
  751MOL0     H 3588   6.614   8.043   6.404  3.0155  1.2797 -0.8667
  751MOL0     H 3589   6.464   8.114   6.342  0.5474  1.6621 -1.8289
  751MOL0     H 3590   6.455   8.283   6.541  1.3197  0.9927  3.0187
  751MOL0     H 3591   6.397   8.127   6.570  0.0945 -0.2560 -0.4272
  751MOL0     H 3592   6.616   8.065   6.666 -2.7842 -1.5967 -0.7194
  751MOL0     H 3593   6.681   8.230   6.621  0.5702 -2.4836 -2.0839
  751MOL0     H 3594   6.618   8.227   6.864 -2.7793  0.1483  1.5985
  751MOL0     H 3595   6.524   8.340   6.757 -1.7975  0.9177 -0.5379
  751MOL0     H 3596   6.403   8.379   6.946 -2.3964 -1.1422 -1.1626
  751MOL0     H 3597   6.399   8.457   7.252  0.2759 -2.6497  0.4778
  751MOL0     H 3598   6.225   8.459   7.265  0.0572  3.3832 -0.4425
  751MOL0     H 3599   6.288   8.514   7.113  0.4375  0.5868  0.2142
  751MOL0     H 3600   6.370   8.294   7.658  0.2765  2.1520  1.4567
  751MOL0     H 3601   6.266   8.300   7.883 -0.7313 -1.3355 -0.3698
  751MOL0     H 3602   6.071   8.216   8.057  0.0218 -0.7043  1.6887
  751MOL0     H 3603   5.906   8.290   8.091  0.6503  0.7124 -0.3240
  751MOL0     H 3604   5.803   8.144   7.921  0.7204  1.0481 -0.5327
  751MOL0     H 3605   5.956   8.078   7.883 -0.4464 -0.4426  0.1491
  751MOL0     H 3606   5.993   7.996   8.120  1.4731 -2.5890 -2.0295
  751MOL0     H 3607   5.867   7.915   8.028 -0.8773  2.6430 -2.4048
  751MOL0     H 3608   5.686   8.055   8.142  0.4568 -0.6902  0.3611
  751MOL0     H 3609   5.817   8.133   8.239 -1.4871  1.6216 -1.0593
  751MOL0     H 3610   5.872   7.903   8.311  2.0737  4.8506 -2.1736
  751MOL0     H 3611   5.719   7.955   8.377 -1.1115 -3.7198  1.5774
  751MOL0     H 3612   5.759   7.752   8.169  0.6835 -1.3498  2.7094
  751MOL0     H 3613   5.609   7.843   8.158  0.6107 -0.7950 -1.1985
  751MOL0     H 3614   5.694   7.725   8.432  1.1176 -3.0850 -0.5419
  751MOL0     H 3615   5.651   7.612   8.316  2.6391  1.5570 -2.5023
  751MOL0     H 3616   5.462   7.689   8.466  3.9964 -1.3162  1.4822
  751MOL0     H 3617   5.412   7.734   8.297  2.4514 -1.1036 -1.3186
  751MOL0     H 3618   5.879   8.343   7.695 -0.8666 -0.7445 -0.1787
  751MOL0     H 3619   5.985   8.291   7.471 -0.7381 -1.5660  0.3412
  751MOL0     H 3620   6.221   7.992   7.185  3.1373 -0.9866  3.4982
  751MOL0     H 3621   6.326   7.965   6.957 -0.2673 -0.1387  0.6300
  751MOL0     H 3622   6.434   8.928   5.321 -0.5882  0.2281  0.7341
  751MOL0     H 3623   6.347   8.952   5.120  0.3301 -0.9955  1.3047
  751MOL0     H 3624   6.226   9.056   4.812 -1.2055  2.8792 -1.0504
  751MOL0     H 3625   6.189   9.073   4.564 -1.4580  1.3033 -1.6201
  751MOL0     H 3626   5.805   8.976   4.398  0.2591 -2.8662 -0.1611
  751MOL0     H 3627   5.906   8.981   4.257  0.1815 -0.8877 -0.0431
  751MOL0     H 3628   5.888   8.753   4.329 -0.6070 -1.9417  1.7939
  751MOL0     H 3629   5.964   8.795   4.488  1.7342  2.9068 -0.2419
  751MOL0     H 3630   6.117   8.846   4.232  0.4933 -3.5008 -1.0475
  751MOL0     H 3631   6.155   8.879   4.398  0.8442 -0.1609 -0.3201
  751MOL0     H 3632   6.145   8.624   4.441 -1.6005 -0.5521 -0.2512
  751MOL0     H 3633   6.242   8.654   4.293 -0.1770 -2.2327 -1.4700
  751MOL0     H 3634   5.922   8.426   4.140  0.7402 -1.7147 -0.9493
  751MOL0     H 3635   5.783   8.976   4.606  0.4159  1.4816  0.4303
  751MOL0     H 3636   5.760   8.858   4.885  0.5863  0.8418  1.3194
  751MOL0     H 3637   5.813   8.981   4.989 -2.0382 -0.6971  1.1381
  751MOL0     H 3638   5.714   9.034   4.849 -0.0929  0.3594  0.8258
  752MOL0     O 3639   4.412   6.465   8.324 -0.5730  0.3841  0.5331
  752MOL0     C 3640   4.429   6.346   8.348 -0.5277  0.2883  0.3562
  752MOL0     O 3641   4.544   6.277   8.337  0.1457 -0.2511  0.2802
  752MOL0     C 3642   4.653   6.334   8.281 -0.0483  0.0401  0.1474
  752MOL0     C 3643   4.754   6.375   8.363  0.0861 -0.5856  0.1353
  752MOL0     C 3644   4.860   6.448   8.316 -0.3793 -0.4388  0.2465
  752MOL0     C 3645   4.857   6.498   8.185 -0.6307  0.5850 -0.3060
  752MOL0     O 3646   4.958   6.578   8.133 -0.5183  0.8545 -0.5341
  752MOL0     C 3647   5.059   6.638   8.216 -0.1576 -0.5510 -0.4755
  752MOL0     C 3648   5.180   6.680   8.133  0.1221  0.5724 -0.2162
  752MOL0     C 3649   5.153   6.795   8.043 -0.6921 -0.2048  0.5219
  752MOL0     C 3650   5.284   6.862   7.995 -0.0837  0.2626 -0.0660
  752MOL0     C 3651   5.253   6.987   7.912  0.0546  0.2077  0.0219
  752MOL0     C 3652   5.198   7.101   8.007  0.9926 -0.1702  0.1928
  752MOL0     C 3653   5.203   7.246   7.936  0.6171  0.5551  0.6049
  752MOL0     C 3654   5.347   7.300   7.908 -0.2577 -0.0323  0.7378
  752MOL0     N 3655   5.406   7.334   8.042  0.3681 -0.4545  0.2020
  752MOL0     C 3656   5.469   7.255   8.124 -0.8855  0.5195 -1.2550
  752MOL0     C 3657   5.497   7.325   8.229 -0.5340  0.0079 -1.2518
  752MOL0     C 3658   5.593   7.280   8.326  0.0589 -0.0463 -0.9464
  752MOL0     C 3659   5.528   7.208   8.450  0.1600 -0.8732  0.2523
  752MOL0     C 3660   5.609   7.135   8.558  0.8938 -1.6111 -0.3890
  752MOL0     C 3661   5.548   7.130   8.694  0.5193  0.5303  0.6342
  752MOL0     O 3662   5.640   7.040   8.764  0.3986 -0.3199 -0.1475
  752MOL0     C 3663   5.593   6.998   8.887  0.5681  0.4953  0.4691
  752MOL0     C 3664   5.681   6.918   8.963 -0.2695  0.3071  0.5321
  752MOL0     C 3665   5.648   6.869   9.087  0.1397  0.0407 -0.2592
  752MOL0     C 3666   5.754   6.791   9.178  0.0407  0.6580  0.8285
  752MOL0     C 3667   5.519   6.875   9.128  0.4474 -0.3965  0.2179
  752MOL0     C 3668   5.468   6.810   9.259  0.1695 -0.4019  1.0284
  752MOL0     O 3669   5.481   6.672   9.271 -0.4671 -0.1586 -0.8042
  752MOL0     C 3670   5.440   6.608   9.386 -0.3660  0.0911 -0.1223
  752MOL0     C 3671   5.341   6.502   9.378 -0.5771  0.4207  0.1484
  752MOL0     C 3672   5.295   6.431   9.494  0.4121  0.2100 -0.0902
  752MOL0     C 3673   5.353   6.463   9.616 -0.4235 -0.5860 -0.1847
  752MOL0     O 3674   5.324   6.388   9.728 -0.3623  0.5516 -0.0131
  752MOL0     C 3675   5.428   6.329   9.815 -0.1219 -0.1750  1.2653
  752MOL0     C 3676   5.446   6.411   9.948 -0.2752  0.5339 -0.2887
  752MOL0     C 3677   5.551   6.343  10.047  0.8811 -0.0160 -0.4579
  752MOL0     C 3678   5.499   6.209  10.113  0.5792 -0.1847  0.4298
  752MOL0     C 3679   5.615   6.149  10.190  0.1072  0.0258  0.2002
  752MOL0     C 3680   5.576   6.022  10.260 -0.7681  0.6344  0.0374
  752MOL0     C 3681   5.692   5.935  10.285 -0.2257  0.5675 -0.2995
  752MOL0     C 3682   5.795   5.977  10.394  0.5881 -0.2965  0.0819
  752MOL0    Cl 3683   5.831   5.837  10.493 -0.1572  0.3999 -0.0019
  752MOL0     C 3684   5.451   6.560   9.623  0.0133  0.2966  0.1693
  752MOL0     C 3685   5.487   6.637   9.514 -0.8404  0.1390  0.4656
  752MOL0     O 3686   5.417   6.886   9.343  0.9126 -0.0519  0.3509
  752MOL0     C 3687   5.419   6.935   9.048  0.0653  0.5288  0.5423
  752MOL0     C 3688   5.460   7.012   8.935 -0.2015  0.0238 -0.0580
  752MOL0     N 3689   5.450   7.452   8.215  0.5832 -0.6508 -1.0535
  752MOL0     N 3690   5.404   7.458   8.101 -0.6418 -0.1694 -0.5944
  752MOL0     C 3691   4.761   6.450   8.096 -0.0464 -0.4565 -0.1757
  752MOL0     C 3692   4.659   6.376   8.142  0.6723 -0.1546  0.1721
  752MOL0     C 3693   4.298   6.273   8.383  0.2290  1.1455  0.1430
  752MOL0     C 3694   4.290   6.133   8.337 -0.2529  0.3857  0.0346
  752MOL0     C 3695   4.170   6.056   8.374  0.0243  0.3241 -0.0027
  752MOL0     C 3696   4.068   6.107   8.454  0.0720  0.2555  0.6486
  752MOL0     O 3697   3.981   6.010   8.495  0.7028 -0.6473 -0.9519
  752MOL0     C 3698   3.878   6.036   8.591  0.2752 -0.8381 -0.6103
  752MOL0     C 3699   3.750   5.969   8.561 -0.1431  0.4204  0.2139
  752MOL0     C 3700   3.637   6.005   8.658 -0.8045 -0.7058 -0.0115
  752MOL0     C 3701   3.633   5.898   8.770 -0.2255 -0.3599 -0.3282
  752MOL0     C 3702   3.580   5.769   8.730 -0.7850 -0.9386 -0.0884
  752MOL0     C 3703   3.522   5.676   8.696  0.8533  0.0296 -0.0601
  752MOL0     C 3704   4.085   6.234   8.509  0.3060  0.5768 -0.8430
  752MOL0     C 3705   4.187   6.322   8.468  0.3330 -0.7820 -0.6645
  752MOL0     C 3706   4.186   6.450   8.550  0.1495 -1.1454 -0.1213
  752MOL0     H 3707   4.750   6.339   8.465  1.1888 -1.5042 -0.1257
  752MOL0     H 3708   4.920   6.495   8.394 -1.2766  2.5380 -0.7122
  752MOL0     H 3709   5.094   6.570   8.293  0.7215 -4.3333 -3.8801
  752MOL0     H 3710   5.012   6.728   8.257  0.3970  0.1194 -1.2720
  752MOL0     H 3711   5.250   6.711   8.211  0.3236  2.7527 -1.1978
  752MOL0     H 3712   5.217   6.593   8.080 -1.6233 -0.2422 -0.1571
  752MOL0     H 3713   5.091   6.758   7.961  0.9726 -0.7066 -0.5619
  752MOL0     H 3714   5.093   6.865   8.101 -0.7102 -1.7918  2.5187
  752MOL0     H 3715   5.345   6.877   8.085  0.6539  0.4281 -0.5830
  752MOL0     H 3716   5.344   6.790   7.938  1.0204  1.2850 -0.2403
  752MOL0     H 3717   5.191   6.967   7.824  0.9541  1.2560 -0.8852
  752MOL0     H 3718   5.352   7.022   7.884 -0.4484  1.1141 -0.6881
  752MOL0     H 3719   5.096   7.076   8.041  1.0687  0.7798  1.1611
  752MOL0     H 3720   5.261   7.098   8.096 -0.0378  0.5764  0.9743
  752MOL0     H 3721   5.151   7.324   7.992  0.0732  0.0187  0.8607
  752MOL0     H 3722   5.159   7.240   7.836  0.4566  2.3750  0.5259
  752MOL0     H 3723   5.411   7.227   7.857 -0.2735  1.1494 -1.0688
  752MOL0     H 3724   5.344   7.389   7.843 -1.4442 -0.8282 -0.3485
  752MOL0     H 3725   5.504   7.155   8.098 -2.5294  0.6469 -4.5308
  752MOL0     H 3726   5.656   7.360   8.366 -0.8067  0.8275 -1.3075
  752MOL0     H 3727   5.653   7.201   8.279 -1.4027 -2.2565  0.7122
  752MOL0     H 3728   5.456   7.277   8.495  2.0295 -0.1186  2.2531
  752MOL0     H 3729   5.467   7.138   8.393  1.9960  0.2820 -3.4890
  752MOL0     H 3730   5.617   7.032   8.521 -1.6988 -2.2729  0.7164
  752MOL0     H 3731   5.706   7.184   8.571  0.3595 -0.7595  0.4809
  752MOL0     H 3732   5.550   7.233   8.732 -3.1575  1.0369 -0.1466
  752MOL0     H 3733   5.443   7.103   8.684 -0.0793  2.6236  0.6544
  752MOL0     H 3734   5.783   6.889   8.937 -0.5721 -0.5774  0.2864
  752MOL0     H 3735   5.734   6.684   9.192  1.3908  0.4819  1.6753
  752MOL0     H 3736   5.762   6.831   9.280  0.1181  0.9934  0.6890
  752MOL0     H 3737   5.851   6.802   9.128  0.4884  1.3064  1.8095
  752MOL0     H 3738   5.309   6.469   9.279  1.4537  0.8775 -0.7172
  752MOL0     H 3739   5.222   6.352   9.485 -1.4939  1.8068  0.6641
  752MOL0     H 3740   5.399   6.230   9.851  0.8338 -0.7853  0.4189
  752MOL0     H 3741   5.524   6.328   9.762 -1.0121  0.8480 -0.4783
  752MOL0     H 3742   5.483   6.513   9.934 -0.9265  1.3648  3.0477
  752MOL0     H 3743   5.353   6.425  10.005 -0.0821 -0.1400  0.2122
  752MOL0     H 3744   5.585   6.409  10.127 -1.8686  0.3172  0.5479
  752MOL0     H 3745   5.640   6.327   9.985  1.8926  2.5224  0.2244
  752MOL0     H 3746   5.462   6.139  10.038 -2.3489 -0.3035  1.8236
  752MOL0     H 3747   5.409   6.234  10.170  0.8770  2.1271  0.0132
  752MOL0     H 3748   5.691   6.132  10.113  0.2017  0.6437  0.1470
  752MOL0     H 3749   5.659   6.209  10.270  0.0529 -1.4161  1.3367
  752MOL0     H 3750   5.520   5.953  10.196  0.3027 -0.0949 -0.1334
  752MOL0     H 3751   5.516   6.047  10.348  0.0774 -0.0217  0.8201
  752MOL0     H 3752   5.744   5.901  10.195  1.2612  1.0001  0.3575
  752MOL0     H 3753   5.641   5.843  10.314  0.5805 -0.9220 -3.1950
  752MOL0     H 3754   5.738   6.039  10.464  0.8567 -0.8072  0.7569
  752MOL0     H 3755   5.879   6.033  10.353 -0.6544  0.9485 -0.8863
  752MOL0     H 3756   5.483   6.583   9.724  0.0828 -0.2173  0.2714
  752MOL0     H 3757   5.543   6.725   9.545 -1.4938  1.1595 -1.1486
  752MOL0     H 3758   5.318   6.940   9.088 -0.0955 -0.3436  0.2642
  752MOL0     H 3759   5.380   7.063   8.881  0.4305 -2.9191 -4.2631
  752MOL0     H 3760   4.759   6.464   7.988  1.4828  0.9173 -0.0749
  752MOL0     H 3761   4.585   6.358   8.064  0.9518 -0.1238 -0.1064
  752MOL0     H 3762   4.369   6.093   8.274 -1.0957  0.4848 -1.1033
  752MOL0     H 3763   4.170   5.956   8.332  0.0683  0.1492  0.4058
  752MOL0     H 3764   3.911   5.992   8.686  1.5406 -3.3120 -2.0799
  752MOL0     H 3765   3.858   6.144   8.593 -1.1569 -1.0601  2.2793
  752MOL0     H 3766   3.768   5.862   8.545 -3.7678 -0.3111  0.3019
  752MOL0     H 3767   3.732   6.014   8.463  1.6899  0.4738 -0.1346
  752MOL0     H 3768   3.642   6.109   8.689  0.9919 -0.8838  0.4211
  752MOL0     H 3769   3.540   5.993   8.609 -0.3402 -0.2245 -1.0891
  752MOL0     H 3770   3.563   5.940   8.843  1.5022  3.6520 -0.7214
  752MOL0     H 3771   3.736   5.890   8.805 -1.3234  0.7767  3.7393
  752MOL0     H 3772   3.459   5.595   8.665 -2.2931  2.5830 -0.8541
  752MOL0     H 3773   4.014   6.271   8.583  1.9338  1.4120  0.3674
  752MOL0     H 3774   4.131   6.532   8.505  0.7270  0.2253  1.5610
  752MOL0     H 3775   4.127   6.424   8.639 -1.7845 -1.4749 -1.4523
  752MOL0     H 3776   4.292   6.463   8.573  0.2902 -1.4641 -0.5991
  753MOL0     O 3777   8.954  11.483   5.066  0.3810  0.4723 -0.4788
  753MOL0     C 3778   8.915  11.487   4.949  0.4687 -0.5959 -0.2009
  753MOL0     O 3779   8.948  11.396   4.859 -0.3413 -0.2192  0.1568
  753MOL0     C 3780   9.058  11.315   4.871 -0.6713  0.5349 -0.3973
  753MOL0     C 3781   9.179  11.365   4.919 -0.3852 -1.4911  0.0638
  753MOL0     C 3782   9.296  11.294   4.913  0.3653  0.9889  0.0666
  753MOL0     C 3783   9.304  11.160   4.868  0.2972 -0.3900 -0.8097
  753MOL0     O 3784   9.422  11.089   4.882 -0.4464 -0.5939 -0.0594
  753MOL0     C 3785   9.430  10.957   4.834  0.2067 -0.1637  0.2672
  753MOL0     C 3786   9.353  10.846   4.902  0.0361  0.6006 -0.0549
  753MOL0     C 3787   9.420  10.820   5.039  0.7739  0.3762  0.5581
  753MOL0     C 3788   9.364  10.704   5.121  0.4347  0.7329 -0.3897
  753MOL0     C 3789   9.406  10.560   5.081 -1.2197 -0.9414 -1.4525
  753MOL0     C 3790   9.565  10.545   5.071  0.5010  0.4848  0.6253
  753MOL0     C 3791   9.595  10.396   5.041 -0.9477  0.1106 -0.0714
  753MOL0     C 3792   9.655  10.387   4.895  0.0131  0.4032  0.0555
  753MOL0     N 3793   9.740  10.269   4.874  0.0319 -0.2860  0.2149
  753MOL0     C 3794   9.726  10.163   4.778  0.0463 -0.0196  0.0384
  753MOL0     C 3795   9.835  10.085   4.798 -0.3287  0.6713  1.3220
  753MOL0     C 3796   9.869   9.964   4.709 -0.1925  0.2092  0.2222
  753MOL0     C 3797   9.828   9.832   4.770  0.2260  0.1011  0.4271
  753MOL0     C 3798   9.859   9.712   4.687 -0.2259 -0.9888  0.6142
  753MOL0     C 3799   9.807   9.580   4.744  0.1551  0.6787  0.4392
  753MOL0     O 3800   9.907   9.532   4.842 -0.1378  0.0584 -0.2998
  753MOL0     C 3801   9.895   9.575   4.975 -0.5325 -0.4208  0.6322
  753MOL0     C 3802  10.003   9.538   5.053 -0.3314  0.3987 -0.5534
  753MOL0     C 3803  10.014   9.573   5.189 -0.1543  0.0313  0.1380
  753MOL0     C 3804  10.140   9.538   5.267  0.2529  0.6495  0.4509
  753MOL0     C 3805   9.918   9.656   5.247  0.2588 -0.7969  0.0862
  753MOL0     C 3806   9.914   9.720   5.379  0.8914  0.8757 -0.5737
  753MOL0     O 3807   9.794   9.764   5.430  0.5317  0.1418  0.3785
  753MOL0     C 3808   9.808   9.811   5.561  0.7163  0.5120  0.2608
  753MOL0     C 3809   9.750   9.730   5.664 -0.6822  0.0610 -0.1381
  753MOL0     C 3810   9.749   9.760   5.797 -0.4466  0.1663 -0.0570
  753MOL0     C 3811   9.805   9.891   5.833  0.4812 -0.3376  0.7005
  753MOL0     O 3812   9.794   9.955   5.955 -0.7876  0.3083  0.7657
  753MOL0     C 3813   9.774   9.873   6.068  0.4377  0.5906  0.3693
  753MOL0     C 3814   9.793   9.961   6.193  0.4719 -0.0031 -0.0229
  753MOL0     C 3815   9.939   9.995   6.198  1.0162 -0.6946  1.1785
  753MOL0     C 3816   9.966  10.040   6.346  0.2724 -0.4066  0.3274
  753MOL0     C 3817   9.939  10.194   6.367 -1.1529  0.8405  0.7771
  753MOL0     C 3818   9.972  10.232   6.509  1.0127  0.7332  0.7396
  753MOL0     C 3819   9.975  10.382   6.524  0.3590 -0.6936 -0.4815
  753MOL0     C 3820   9.928  10.434   6.666  0.2415 -0.1961 -0.2176
  753MOL0    Cl 3821   9.752  10.401   6.683 -0.4172 -0.3425 -0.0566
  753MOL0     C 3822   9.873   9.964   5.733  0.1338 -0.3568  0.8816
  753MOL0     C 3823   9.869   9.932   5.597 -0.8010  0.0648 -0.2853
  753MOL0     O 3824  10.011   9.697   5.443 -0.0584 -0.2044  0.1445
  753MOL0     C 3825   9.804   9.682   5.174 -0.0767  0.4286 -0.2349
  753MOL0     C 3826   9.792   9.651   5.033 -0.2396  0.1152 -0.5484
  753MOL0     N 3827   9.915  10.141   4.891  0.3734 -0.3130 -0.1469
  753MOL0     N 3828   9.862  10.248   4.930 -0.1841 -0.3617  0.4829
  753MOL0     C 3829   9.182  11.118   4.815 -0.0924  0.1036 -0.1239
  753MOL0     C 3830   9.058  11.181   4.815 -0.0558  0.4087  0.2576
  753MOL0     C 3831   8.816  11.587   4.920  0.1154 -0.4243  0.4603
  753MOL0     C 3832   8.727  11.625   5.022  0.8435 -0.2391  0.1438
  753MOL0     C 3833   8.621  11.714   4.990  0.4430  0.1961 -0.0958
  753MOL0     C 3834   8.604  11.780   4.864  0.9316  0.7207  0.3668
  753MOL0     O 3835   8.506  11.879   4.851  0.8423  0.2381  0.2874
  753MOL0     C 3836   8.486  11.956   4.722 -1.4755  1.0452 -1.1175
  753MOL0     C 3837   8.375  12.061   4.724 -0.4112  0.1498  0.6586
  753MOL0     C 3838   8.403  12.144   4.594 -0.5911  0.0187 -0.1742
  753MOL0     C 3839   8.327  12.275   4.574 -0.3614  0.1724 -0.3306
  753MOL0     C 3840   8.384  12.387   4.660 -0.3501 -0.1682  0.4253
  753MOL0     C 3841   8.426  12.477   4.726 -0.9347  0.0633 -0.0490
  753MOL0     C 3842   8.689  11.739   4.767 -0.8565  0.0647 -0.2341
  753MOL0     C 3843   8.797  11.649   4.787 -0.6317  0.5508 -1.0434
  753MOL0     C 3844   8.901  11.649   4.676  0.3428  0.3718  0.1252
  753MOL0     H 3845   9.189  11.466   4.957 -1.9635 -1.9363  1.8053
  753MOL0     H 3846   9.387  11.341   4.949 -0.2228  1.9315  0.3568
  753MOL0     H 3847   9.532  10.921   4.819 -0.5227 -1.6468 -1.5941
  753MOL0     H 3848   9.401  10.961   4.729  0.2229  0.0861  0.2723
  753MOL0     H 3849   9.248  10.869   4.918 -0.2994 -1.0488  0.2761
  753MOL0     H 3850   9.361  10.754   4.843 -3.4025 -0.4754  0.9646
  753MOL0     H 3851   9.526  10.800   5.019  1.3565  4.3044 -1.2657
  753MOL0     H 3852   9.419  10.904   5.109  2.0044 -0.7340  1.9575
  753MOL0     H 3853   9.393  10.715   5.226 -0.5178  2.4379 -0.2638
  753MOL0     H 3854   9.255  10.704   5.114  0.4795 -1.6143 -2.5956
  753MOL0     H 3855   9.368  10.533   4.983 -1.6492  1.8938 -2.1650
  753MOL0     H 3856   9.352  10.491   5.146 -3.0622  1.0022 -0.8115
  753MOL0     H 3857   9.603  10.615   4.997 -0.7284  0.9542  0.4111
  753MOL0     H 3858   9.619  10.559   5.165  1.2622 -2.8023  0.7931
  753MOL0     H 3859   9.504  10.335   5.045  0.6638 -2.4578 -0.1953
  753MOL0     H 3860   9.674  10.356   5.106 -1.0651  0.5643  0.3547
  753MOL0     H 3861   9.585  10.393   4.811  1.2396  2.3799 -0.9225
  753MOL0     H 3862   9.720  10.475   4.887 -1.3888  1.2968 -2.8594
  753MOL0     H 3863   9.643  10.137   4.713 -0.0067 -5.2306  1.7611
  753MOL0     H 3864   9.977   9.954   4.696 -0.0745  2.4756 -1.2091
  753MOL0     H 3865   9.828   9.980   4.609  1.7229  2.0964 -0.3267
  753MOL0     H 3866   9.867   9.824   4.872  1.9273  0.9623 -0.1111
  753MOL0     H 3867   9.720   9.827   4.787  0.2748 -0.3337  0.6041
  753MOL0     H 3868   9.809   9.721   4.590  1.2500  0.2018 -0.0837
  753MOL0     H 3869   9.966   9.697   4.665 -0.5825 -0.1860 -2.0899
  753MOL0     H 3870   9.707   9.579   4.788  1.3576 -2.1689  3.5705
  753MOL0     H 3871   9.794   9.512   4.660 -1.7432  2.8316 -1.1456
  753MOL0     H 3872  10.093   9.496   5.009  0.7168  1.7594  0.2215
  753MOL0     H 3873  10.134   9.481   5.360  4.0721  0.1568  0.5257
  753MOL0     H 3874  10.187   9.633   5.296 -1.4782  2.4669 -2.2077
  753MOL0     H 3875  10.206   9.484   5.199 -0.8821  0.5881 -0.6317
  753MOL0     H 3876   9.716   9.631   5.635  0.3719  0.1719 -1.8986
  753MOL0     H 3877   9.681   9.709   5.864  0.6153 -0.6187  0.4491
  753MOL0     H 3878   9.668   9.848   6.071  0.5099  0.2990  0.5078
  753MOL0     H 3879   9.834   9.783   6.061  1.8541  1.5409 -0.1803
  753MOL0     H 3880   9.731  10.051   6.190  0.0895 -0.2864 -1.7694
  753MOL0     H 3881   9.762   9.899   6.277 -0.1989 -1.3115 -1.1784
  753MOL0     H 3882   9.962  10.078   6.130 -1.0014 -0.5671  0.5976
  753MOL0     H 3883   9.999   9.909   6.166 -0.7874 -0.9335 -2.0672
  753MOL0     H 3884  10.075  10.045   6.356  0.0044  1.4460  4.6209
  753MOL0     H 3885   9.926   9.975   6.424 -1.6579  1.8002  1.2840
  753MOL0     H 3886   9.990  10.254   6.291 -2.5687 -1.2311 -2.0073
  753MOL0     H 3887   9.833  10.213   6.352 -1.0200  2.2409  1.4970
  753MOL0     H 3888  10.064  10.184   6.541  1.0825  0.9662  0.8913
  753MOL0     H 3889   9.898  10.188   6.576  0.6455 -0.2980 -0.3149
  753MOL0     H 3890   9.910  10.427   6.449 -2.6586 -3.3185  0.3297
  753MOL0     H 3891  10.076  10.416   6.500 -0.1655  0.6759 -0.8564
  753MOL0     H 3892   9.950  10.541   6.673  0.9226 -0.4331  1.8903
  753MOL0     H 3893   9.977  10.377   6.745 -0.9759 -1.1302 -0.1129
  753MOL0     H 3894   9.938  10.046   5.761  0.1762 -0.2732  0.5468
  753MOL0     H 3895   9.920   9.998   5.528  0.4306  1.6433  1.9846
  753MOL0     H 3896   9.719   9.745   5.199 -2.4321 -2.3315 -0.8008
  753MOL0     H 3897   9.704   9.687   4.982 -1.9777 -0.1902  2.0131
  753MOL0     H 3898   9.176  11.013   4.788 -1.1525 -0.2027  1.1919
  753MOL0     H 3899   8.970  11.141   4.765  1.4643 -1.7928 -0.7898
  753MOL0     H 3900   8.717  11.575   5.118  0.5793 -1.9571 -0.7339
  753MOL0     H 3901   8.562  11.740   5.077  1.9789  0.1413  1.0140
  753MOL0     H 3902   8.586  12.001   4.728 -0.8547 -0.4524  1.7305
  753MOL0     H 3903   8.475  11.894   4.633  1.3953  1.4485 -1.8466
  753MOL0     H 3904   8.387  12.129   4.809  0.9073  2.0268 -0.9539
  753MOL0     H 3905   8.276  12.016   4.726 -1.6335  2.6822  2.8332
  753MOL0     H 3906   8.508  12.173   4.589 -1.2310  3.1522  1.6026
  753MOL0     H 3907   8.368  12.072   4.520 -1.0162  0.5347 -0.4891
  753MOL0     H 3908   8.221  12.265   4.600  0.3183 -2.5932  1.7791
  753MOL0     H 3909   8.331  12.300   4.468  0.3055 -0.8692 -0.5589
  753MOL0     H 3910   8.451  12.556   4.793 -0.9049 -0.9797  1.1987
  753MOL0     H 3911   8.675  11.783   4.668  0.8586 -0.7635 -0.8869
  753MOL0     H 3912   8.873  11.569   4.607  1.8955  0.3263 -0.4882
  753MOL0     H 3913   8.890  11.744   4.622  0.3764 -0.4643 -1.4148
  753MOL0     H 3914   9.007  11.637   4.702  0.6066 -0.5617 -1.2674
  754MOL0     O 3915  11.235   8.271   6.459  0.2599  0.0640  0.0555
  754MOL0     C 3916  11.208   8.163   6.411 -0.2722  0.3025  0.5772
  754MOL0     O 3917  11.284   8.090   6.320 -0.1486 -0.6701 -0.1529
  754MOL0     C 3918  11.414   8.142   6.294  0.5648  0.6509  0.1055
  754MOL0     C 3919  11.510   8.066   6.363  0.1709 -0.2313 -0.2448
  754MOL0     C 3920  11.641   8.104   6.355 -0.4511 -0.7531  0.0144
  754MOL0     C 3921  11.676   8.225   6.282 -1.4554 -0.6947 -0.5012
  754MOL0     O 3922  11.796   8.289   6.289 -0.3726 -0.0318  0.2275
  754MOL0     C 3923  11.902   8.260   6.383  0.1465  0.3400  0.3563
  754MOL0     C 3924  12.030   8.249   6.301 -0.3166 -0.1295  0.0033
  754MOL0     C 3925  12.041   8.131   6.208 -0.4350  0.7375  0.3671
  754MOL0     C 3926  12.073   8.010   6.288 -0.9753  0.0913 -0.6645
  754MOL0     C 3927  12.141   7.890   6.217 -0.2896 -0.2465 -0.2560
  754MOL0     C 3928  12.104   7.757   6.287 -0.4489  0.4380 -0.0651
  754MOL0     C 3929  12.187   7.632   6.244  0.6816 -0.3237 -0.3321
  754MOL0     C 3930  12.320   7.626   6.313 -0.4299 -0.7121 -0.3743
  754MOL0     N 3931  12.385   7.511   6.254 -0.0125 -0.0127  0.1003
  754MOL0     C 3932  12.471   7.492   6.154 -0.3817 -0.9661 -0.4791
  754MOL0     C 3933  12.506   7.366   6.141 -0.4960  0.5698  0.2982
  754MOL0     C 3934  12.616   7.299   6.059 -0.1425 -0.4194  0.2853
  754MOL0     C 3935  12.574   7.155   6.038  0.4446 -0.1620  0.3630
  754MOL0     C 3936  12.701   7.095   5.979  1.0438  0.3888 -0.2784
  754MOL0     C 3937  12.643   6.971   5.904  0.1728 -1.1387  0.0785
  754MOL0     O 3938  12.595   6.879   6.003 -0.4726 -0.5966  0.2463
  754MOL0     C 3939  12.578   6.752   5.959  0.1853  0.0653 -0.3314
  754MOL0     C 3940  12.587   6.707   5.825 -0.2640 -0.5527 -0.6573
  754MOL0     C 3941  12.564   6.574   5.795  0.2933 -0.5275  0.8903
  754MOL0     C 3942  12.572   6.542   5.642  0.2730 -0.0557  1.1775
  754MOL0     C 3943  12.531   6.474   5.893 -0.1957 -0.2073 -0.1147
  754MOL0     C 3944  12.498   6.343   5.875  0.0133 -0.0513  0.7429
  754MOL0     O 3945  12.521   6.253   5.987 -0.4696  0.2874  0.4104
  754MOL0     C 3946  12.519   6.119   5.963 -1.1701 -0.1011  0.5349
  754MOL0     C 3947  12.412   6.039   6.004 -0.6916 -0.9787  0.1335
  754MOL0     C 3948  12.410   5.900   5.966  0.1926 -0.2300 -0.5171
  754MOL0     C 3949  12.510   5.841   5.885  0.6679 -0.0389  0.3579
  754MOL0     O 3950  12.492   5.706   5.863  0.6091 -0.0345  0.1475
  754MOL0     C 3951  12.608   5.622   5.849  0.5769  0.5581 -0.7217
  754MOL0     C 3952  12.700   5.610   5.969  0.2612 -0.2363 -1.1340
  754MOL0     C 3953  12.628   5.541   6.087  0.0366  0.4003 -0.3632
  754MOL0     C 3954  12.705   5.541   6.222  0.3355  0.2894 -0.4038
  754MOL0     C 3955  12.683   5.680   6.274 -0.2457 -0.5423  0.5011
  754MOL0     C 3956  12.761   5.710   6.399 -1.1635  0.4355  0.6684
  754MOL0     C 3957  12.715   5.659   6.523  0.1163  0.5801  0.0599
  754MOL0     C 3958  12.828   5.607   6.620  0.7921 -0.0328  0.1830
  754MOL0    Cl 3959  12.921   5.750   6.681 -0.0798 -0.0803  0.2567
  754MOL0     C 3960  12.613   5.927   5.846 -0.2236 -0.2504  0.2567
  754MOL0     C 3961  12.618   6.063   5.876 -0.2703  0.0617 -0.6922
  754MOL0     O 3962  12.440   6.309   5.770  0.0562  1.0229  0.3396
  754MOL0     C 3963  12.526   6.524   6.023  1.1702 -0.1571 -1.0094
  754MOL0     C 3964  12.545   6.663   6.058 -0.4703 -0.0458  0.8605
  754MOL0     N 3965  12.447   7.308   6.254 -0.8471  0.2881  0.2973
  754MOL0     N 3966  12.380   7.393   6.316 -0.1867  1.0175 -1.1547
  754MOL0     C 3967  11.575   8.285   6.204  0.9399 -0.5559  1.2133
  754MOL0     C 3968  11.443   8.248   6.209  0.1835  1.0194  1.0944
  754MOL0     C 3969  11.069   8.122   6.435 -0.3737 -0.4759  0.0131
  754MOL0     C 3970  11.004   8.035   6.341  0.3785 -0.9219  0.6176
  754MOL0     C 3971  10.881   7.978   6.365 -0.9272  0.2914  0.2954
  754MOL0     C 3972  10.814   8.008   6.476 -0.2012 -0.2773 -0.0238
  754MOL0     O 3973  10.686   7.960   6.487  0.8020  0.0259  0.9950
  754MOL0     C 3974  10.617   7.987   6.609 -0.4040  0.5644 -0.0986
  754MOL0     C 3975  10.473   7.934   6.607 -0.5959  0.7636 -0.0569
  754MOL0     C 3976  10.391   7.959   6.481 -0.5399  0.3201  0.2503
  754MOL0     C 3977  10.263   7.880   6.476  0.1933  0.2778 -0.5182
  754MOL0     C 3978  10.169   7.931   6.577  0.1491  1.1746  0.0769
  754MOL0     C 3979  10.095   7.970   6.669  0.1598  0.3780  0.5375
  754MOL0     C 3980  10.875   8.089   6.577 -0.2304  0.3791 -0.4506
  754MOL0     C 3981  10.996   8.146   6.557 -0.4154  0.0214  1.8536
  754MOL0     C 3982  11.059   8.207   6.688  0.8732 -0.9954 -0.0726
  754MOL0     H 3983  11.485   7.987   6.433  1.4948  0.6631  1.3271
  754MOL0     H 3984  11.701   8.038   6.417 -0.0841 -1.2605 -0.8627
  754MOL0     H 3985  11.875   8.189   6.461 -3.0562  3.9481  2.9657
  754MOL0     H 3986  11.906   8.358   6.431 -0.1358 -0.3015  1.7376
  754MOL0     H 3987  12.046   8.328   6.227  3.6014  0.5075  1.3057
  754MOL0     H 3988  12.118   8.257   6.366  1.3218  2.0514 -2.2821
  754MOL0     H 3989  11.954   8.112   6.146 -0.1661 -1.0914  0.5084
  754MOL0     H 3990  12.128   8.153   6.146  0.8852  4.0724  3.0615
  754MOL0     H 3991  12.139   8.035   6.371 -0.1811 -2.7639 -0.3295
  754MOL0     H 3992  11.975   7.978   6.326 -1.4297 -0.8473 -2.5029
  754MOL0     H 3993  12.250   7.896   6.217 -0.2331 -0.7549  1.3050
  754MOL0     H 3994  12.114   7.895   6.111 -0.8232 -1.0342 -0.1603
  754MOL0     H 3995  12.110   7.761   6.396  1.2184 -0.6139 -0.0903
  754MOL0     H 3996  11.999   7.746   6.258 -0.1576 -0.7448 -0.7103
  754MOL0     H 3997  12.200   7.634   6.136 -4.6108 -3.5730 -1.4191
  754MOL0     H 3998  12.115   7.554   6.271  0.5264  0.0563  0.3955
  754MOL0     H 3999  12.378   7.718   6.305  0.7453 -1.4406 -0.4268
  754MOL0     H 4000  12.302   7.614   6.421 -0.7087  0.8115 -0.2225
  754MOL0     H 4001  12.523   7.577   6.111  0.7334 -1.5783 -0.3957
  754MOL0     H 4002  12.710   7.297   6.115  1.0014 -1.5438 -1.5619
  754MOL0     H 4003  12.642   7.346   5.963 -1.6513 -0.3197 -0.0999
  754MOL0     H 4004  12.548   7.094   6.125  1.1548 -1.9460 -0.6131
  754MOL0     H 4005  12.491   7.133   5.970 -0.1496  0.7328  0.7795
  754MOL0     H 4006  12.752   7.156   5.904  0.3488  1.1767 -0.1264
  754MOL0     H 4007  12.770   7.068   6.059  2.1749  3.0873 -0.2552
  754MOL0     H 4008  12.558   7.000   5.842  0.9868 -0.2142 -0.6476
  754MOL0     H 4009  12.724   6.928   5.845 -1.5158 -2.7673 -1.1600
  754MOL0     H 4010  12.617   6.775   5.746 -1.9470 -1.1003 -1.8174
  754MOL0     H 4011  12.472   6.507   5.614  0.1598  0.9772  0.2195
  754MOL0     H 4012  12.645   6.461   5.634 -0.7669 -0.8170 -1.4790
  754MOL0     H 4013  12.613   6.617   5.574 -1.0393 -0.9933 -0.7258
  754MOL0     H 4014  12.321   6.084   6.043  0.1320  1.1298 -0.2290
  754MOL0     H 4015  12.322   5.841   5.988 -0.0268  0.7169  1.3321
  754MOL0     H 4016  12.581   5.518   5.828 -1.4303  0.5887  1.3519
  754MOL0     H 4017  12.672   5.640   5.762 -0.6294  1.0378 -1.5431
  754MOL0     H 4018  12.790   5.551   5.948  0.0211 -1.0406 -0.0132
  754MOL0     H 4019  12.735   5.711   5.993  1.9446 -0.9414 -0.4553
  754MOL0     H 4020  12.605   5.438   6.059 -0.1639  0.1962  0.5285
  754MOL0     H 4021  12.529   5.586   6.100 -0.6549 -0.9275 -0.8393
  754MOL0     H 4022  12.810   5.517   6.206 -0.3843 -3.7416 -0.2795
  754MOL0     H 4023  12.664   5.465   6.290 -0.0854 -0.3131 -1.3065
  754MOL0     H 4024  12.709   5.760   6.204  1.6496  1.8268  3.6277
  754MOL0     H 4025  12.576   5.688   6.296 -0.9526 -2.8963 -1.7308
  754MOL0     H 4026  12.754   5.818   6.414 -0.5554  0.5185  0.3938
  754MOL0     H 4027  12.863   5.677   6.379  0.2305  4.8766 -0.7657
  754MOL0     H 4028  12.651   5.571   6.509 -1.8324  1.8936  0.4198
  754MOL0     H 4029  12.651   5.739   6.559 -1.3239  0.8862 -2.8678
  754MOL0     H 4030  12.893   5.540   6.563 -1.7995 -2.2740 -0.3308
  754MOL0     H 4031  12.788   5.551   6.705  2.7677  1.4831  2.2507
  754MOL0     H 4032  12.689   5.890   5.778 -0.2810  0.7760 -0.3786
  754MOL0     H 4033  12.700   6.120   5.834 -1.3002  1.5382 -0.7665
  754MOL0     H 4034  12.502   6.461   6.108 -0.6797  4.2696  2.1960
  754MOL0     H 4035  12.557   6.704   6.158  2.0552  0.1975  0.5465
  754MOL0     H 4036  11.588   8.379   6.152 -0.1311  0.5093  2.7773
  754MOL0     H 4037  11.371   8.306   6.152  0.2296 -0.2817 -0.3293
  754MOL0     H 4038  11.053   8.011   6.248  0.2679 -0.0933  0.3372
  754MOL0     H 4039  10.833   7.901   6.305 -0.6756  0.6257 -0.3519
  754MOL0     H 4040  10.656   7.928   6.692 -3.1634 -2.1926 -0.5827
  754MOL0     H 4041  10.609   8.095   6.621 -0.7469  0.7021 -1.3981
  754MOL0     H 4042  10.399   7.965   6.681 -1.9331 -1.0969 -0.5409
  754MOL0     H 4043  10.484   7.827   6.625 -3.6136  0.4599  0.4783
  754MOL0     H 4044  10.373   8.066   6.467 -1.0542 -0.0653 -2.6673
  754MOL0     H 4045  10.450   7.926   6.395  0.7278 -1.8547  1.8414
  754MOL0     H 4046  10.275   7.773   6.495 -0.4122  0.5625  1.7458
  754MOL0     H 4047  10.208   7.895   6.382  0.0045  2.7772 -0.0698
  754MOL0     H 4048  10.035   7.998   6.753  0.0379 -0.5408  0.7704
  754MOL0     H 4049  10.836   8.085   6.678  0.3142 -3.5226 -0.2324
  754MOL0     H 4050  11.128   8.133   6.730  0.8915 -1.3999 -0.7989
  754MOL0     H 4051  11.108   8.302   6.666 -3.7793  1.8146  0.3510
  754MOL0     H 4052  10.979   8.226   6.760  0.7100 -0.3847 -0.4108
  755MOL0     O 4053   4.028  10.078   9.853  0.6381 -0.3271  0.0572
  755MOL0     C 4054   3.911  10.067   9.818  0.2486  0.2982  0.3527
  755MOL0     O 4055   3.846  10.150   9.733  0.2729 -0.3970 -0.4820
  755MOL0     C 4056   3.918  10.265   9.692 -0.2992 -0.2276 -0.0501
  755MOL0     C 4057   3.972  10.363   9.776  0.0782  0.3306  0.4973
  755MOL0     C 4058   4.043  10.471   9.724 -0.2378 -1.0057 -0.1058
  755MOL0     C 4059   4.061  10.486   9.592 -0.2963  0.2131 -0.1673
  755MOL0     O 4060   4.139  10.576   9.529 -0.1900  0.1011  0.3535
  755MOL0     C 4061   4.215  10.681   9.600  0.8569  0.8224 -0.1734
  755MOL0     C 4062   4.299  10.764   9.503  0.3932 -0.2549  0.6211
  755MOL0     C 4063   4.195  10.863   9.437 -0.3133 -0.0482 -0.0358
  755MOL0     C 4064   4.258  10.960   9.332 -0.4102  0.4544  0.1167
  755MOL0     C 4065   4.159  11.074   9.294  0.0203  0.6881  0.6090
  755MOL0     C 4066   4.238  11.164   9.203 -0.2762  0.0019  0.3869
  755MOL0     C 4067   4.154  11.264   9.132  1.3326 -0.3286 -0.1087
  755MOL0     C 4068   4.105  11.206   8.989  0.1091  0.0579 -0.7142
  755MOL0     N 4069   4.046  11.323   8.907  0.1719 -0.6907 -0.2088
  755MOL0     C 4070   3.940  11.409   8.959 -0.8690  1.2627 -0.2068
  755MOL0     C 4071   3.930  11.508   8.871  0.2786 -0.4431  0.2151
  755MOL0     C 4072   3.830  11.625   8.877 -0.3793 -0.4189  0.1705
  755MOL0     C 4073   3.743  11.643   8.759  0.1111  0.8293  0.3800
  755MOL0     C 4074   3.687  11.506   8.714  0.7630  0.6195  0.3452
  755MOL0     C 4075   3.592  11.513   8.594 -0.2948 -0.1696  0.1404
  755MOL0     O 4076   3.455  11.521   8.644 -0.2727 -0.0060  0.1147
  755MOL0     C 4077   3.415  11.658   8.648  0.3885 -0.5131  0.0553
  755MOL0     C 4078   3.384  11.711   8.771 -0.0018 -0.6070 -0.5679
  755MOL0     C 4079   3.357  11.853   8.789  0.0594 -0.1666 -0.5062
  755MOL0     C 4080   3.333  11.905   8.927 -0.2094 -0.1402  0.4861
  755MOL0     C 4081   3.332  11.924   8.667  0.5227  0.1879 -0.6461
  755MOL0     C 4082   3.288  12.065   8.679  0.5300  0.2273 -0.2869
  755MOL0     O 4083   3.188  12.095   8.592  0.0470  0.1350 -0.0706
  755MOL0     C 4084   3.151  12.228   8.582  0.7213  0.1097 -0.0038
  755MOL0     C 4085   3.045  12.264   8.664 -0.5383  0.2101  1.1548
  755MOL0     C 4086   2.983  12.389   8.663 -0.0461  0.5120 -0.5137
  755MOL0     C 4087   3.032  12.492   8.582 -0.3585 -0.1994  0.8674
  755MOL0     O 4088   2.978  12.621   8.576 -0.2689 -0.3175  0.7111
  755MOL0     C 4089   2.944  12.675   8.706 -0.5607  0.4474  1.7686
  755MOL0     C 4090   2.911  12.820   8.690  0.0874  0.2633 -0.0248
  755MOL0     C 4091   2.775  12.840   8.613 -0.4469 -0.0387  0.6434
  755MOL0     C 4092   2.736  12.989   8.629 -1.1131  0.8073 -0.7424
  755MOL0     C 4093   2.627  13.032   8.540  0.6611 -0.1934 -0.0693
  755MOL0     C 4094   2.496  12.956   8.557 -0.6269 -0.2440 -0.0617
  755MOL0     C 4095   2.378  13.048   8.511 -0.7004  0.1955  0.0888
  755MOL0     C 4096   2.387  13.085   8.359 -0.0439  0.5509  0.0936
  755MOL0    Cl 4097   2.392  12.938   8.261 -0.4907 -0.3727  0.4677
  755MOL0     C 4098   3.139  12.454   8.504 -0.2563  0.1228 -0.3964
  755MOL0     C 4099   3.202  12.330   8.511 -1.1432 -0.0985 -0.1361
  755MOL0     O 4100   3.345  12.143   8.757  0.6008 -0.2662  0.2521
  755MOL0     C 4101   3.355  11.866   8.543  0.1454 -0.0835 -0.5663
  755MOL0     C 4102   3.395  11.736   8.533 -0.3481 -0.2805  0.1512
  755MOL0     N 4103   4.029  11.487   8.781 -0.4003  0.5939 -0.3982
  755MOL0     N 4104   4.104  11.388   8.799  0.0454 -0.2996 -0.0979
  755MOL0     C 4105   3.998  10.397   9.506  0.1007 -0.7129  0.1378
  755MOL0     C 4106   3.928  10.290   9.557 -0.6734 -0.0278  0.5011
  755MOL0     C 4107   3.825   9.946   9.875  0.4806  0.2638  1.2775
  755MOL0     C 4108   3.691   9.934   9.818 -0.5189 -1.0406  0.7990
  755MOL0     C 4109   3.609   9.828   9.859  0.3082 -0.3302  0.7146
  755MOL0     C 4110   3.644   9.730   9.961 -0.7311  0.0098 -1.1430
  755MOL0     O 4111   3.554   9.635  10.015 -0.5241 -0.0119 -0.2727
  755MOL0     C 4112   3.480   9.557   9.920 -0.1645 -0.6398  0.3598
  755MOL0     C 4113   3.338   9.543   9.950 -0.3589  1.2642 -0.0229
  755MOL0     C 4114   3.258   9.667   9.910  0.0605 -0.0948 -0.5837
  755MOL0     C 4115   3.230   9.686   9.759  0.7416 -0.0976 -0.1327
  755MOL0     C 4116   3.140   9.586   9.700 -0.9239  0.5096 -0.4706
  755MOL0     C 4117   3.069   9.495   9.664  0.5362 -0.3597  0.2167
  755MOL0     C 4118   3.768   9.747  10.017 -0.2580 -0.8874 -0.2111
  755MOL0     C 4119   3.852   9.849   9.977 -1.2180 -0.3057  0.3469
  755MOL0     C 4120   3.983   9.869  10.056 -0.1137  0.1952  0.4417
  755MOL0     H 4121   3.972  10.341   9.882  1.3874  0.6923  0.5983
  755MOL0     H 4122   4.098  10.535   9.792  0.7105  0.4483 -2.1584
  755MOL0     H 4123   4.285  10.633   9.669  1.2168 -0.0079 -1.0980
  755MOL0     H 4124   4.142  10.739   9.657  1.2327  0.6839  0.4611
  755MOL0     H 4125   4.362  10.831   9.562  1.9414 -0.0203 -1.2052
  755MOL0     H 4126   4.364  10.702   9.440  0.4353 -0.1717  0.5827
  755MOL0     H 4127   4.123  10.806   9.378 -0.6460  1.1959 -0.8735
  755MOL0     H 4128   4.145  10.920   9.516 -1.2300 -1.9510  0.8326
  755MOL0     H 4129   4.351  10.998   9.375 -0.5352  2.0362 -0.9274
  755MOL0     H 4130   4.290  10.908   9.241 -1.2442  2.1050 -1.1612
  755MOL0     H 4131   4.129  11.133   9.381 -1.3290  2.8196 -1.2078
  755MOL0     H 4132   4.067  11.034   9.250 -0.0141  2.1825 -0.7926
  755MOL0     H 4133   4.314  11.214   9.264 -1.1358 -1.7895  3.1049
  755MOL0     H 4134   4.291  11.109   9.125  2.5670  0.4263  1.8909
  755MOL0     H 4135   4.213  11.353   9.110 -2.9721  3.2740  1.3385
  755MOL0     H 4136   4.074  11.295   9.200 -0.7389 -0.1784 -2.4611
  755MOL0     H 4137   4.188  11.157   8.938  0.9744  0.4874  0.2438
  755MOL0     H 4138   4.032  11.125   9.000 -1.2860  1.1524 -1.4377
  755MOL0     H 4139   3.876  11.388   9.044  0.4292 -4.1236 -0.1651
  755MOL0     H 4140   3.883  11.721   8.879  1.8267 -1.5485 -0.9626
  755MOL0     H 4141   3.773  11.630   8.970  0.1161 -0.6859  0.4925
  755MOL0     H 4142   3.653  11.697   8.792 -0.9767 -0.9158  0.3818
  755MOL0     H 4143   3.796  11.707   8.688 -1.7003  1.4217 -0.4908
  755MOL0     H 4144   3.765  11.444   8.669 -1.0046 -1.8599  0.4627
  755MOL0     H 4145   3.635  11.444   8.787 -0.8951  0.2259 -1.0784
  755MOL0     H 4146   3.625  11.593   8.526 -1.7792 -1.5915 -2.4027
  755MOL0     H 4147   3.594  11.416   8.543 -0.5216 -1.2905  2.1895
  755MOL0     H 4148   3.400  11.643   8.855  0.6582 -0.1905 -0.3508
  755MOL0     H 4149   3.235  11.950   8.943 -0.0206 -0.0308  1.3361
  755MOL0     H 4150   3.415  11.976   8.942  1.3718 -1.9732  0.8805
  755MOL0     H 4151   3.355  11.838   9.011 -1.1135  1.1086  1.7651
  755MOL0     H 4152   2.995  12.186   8.722  0.2908 -2.0871 -1.0268
  755MOL0     H 4153   2.893  12.407   8.720 -1.8507 -0.3315 -2.9308
  755MOL0     H 4154   2.856  12.621   8.742  0.9409 -2.8638  0.8702
  755MOL0     H 4155   3.026  12.664   8.776  1.8511 -0.1930 -0.9655
  755MOL0     H 4156   2.909  12.853   8.795 -1.2622  3.1923 -0.8901
  755MOL0     H 4157   2.991  12.877   8.642 -0.6936  0.2443 -1.3769
  755MOL0     H 4158   2.704  12.774   8.663 -1.1555 -1.2462 -1.8014
  755MOL0     H 4159   2.774  12.811   8.507 -1.1351  1.8323  0.0968
  755MOL0     H 4160   2.822  13.050   8.602 -1.2616  0.3167 -2.4268
  755MOL0     H 4161   2.720  13.010   8.735  2.5661 -0.9433  0.3287
  755MOL0     H 4162   2.601  13.138   8.551  0.9110 -0.3196  2.1102
  755MOL0     H 4163   2.660  13.026   8.436 -1.7779  1.4132 -1.0334
  755MOL0     H 4164   2.488  12.938   8.665 -1.1758 -2.5098 -0.4212
  755MOL0     H 4165   2.499  12.856   8.514 -0.0156 -0.9029  1.4416
  755MOL0     H 4166   2.396  13.138   8.570  1.0116  0.3723 -0.6342
  755MOL0     H 4167   2.284  13.008   8.549  0.6997 -0.6638  2.9721
  755MOL0     H 4168   2.475  13.151   8.357  1.4275 -1.3348 -0.8959
  755MOL0     H 4169   2.294  13.139   8.339 -0.8644 -0.9200 -0.2183
  755MOL0     H 4170   3.182  12.525   8.433  1.4058  1.2518  1.6218
  755MOL0     H 4171   3.294  12.310   8.457  0.6912  1.3882  2.1964
  755MOL0     H 4172   3.340  11.925   8.454 -0.8866 -0.9938 -1.0110
  755MOL0     H 4173   3.422  11.694   8.436  0.6254  0.0932  0.2451
  755MOL0     H 4174   4.017  10.409   9.400  0.1395 -0.2877  0.1914
  755MOL0     H 4175   3.885  10.218   9.487  1.7080  0.1236 -1.2207
  755MOL0     H 4176   3.671   9.997   9.732  1.2700  3.3128  3.2591
  755MOL0     H 4177   3.518   9.824   9.801 -0.4282  2.3970  1.5623
  755MOL0     H 4178   3.493   9.595   9.818  1.0476 -0.4672  0.5539
  755MOL0     H 4179   3.531   9.461   9.931 -1.8013 -1.4022  1.7696
  755MOL0     H 4180   3.327   9.526  10.058  1.0355  1.2805  0.1369
  755MOL0     H 4181   3.311   9.458   9.888  0.0780  2.9427 -2.6987
  755MOL0     H 4182   3.160   9.663   9.958  0.9118 -0.9198  1.1936
  755MOL0     H 4183   3.300   9.755   9.958 -0.3711  1.1883 -2.4629
  755MOL0     H 4184   3.327   9.684   9.709  0.9723  0.6787  0.2741
  755MOL0     H 4185   3.184   9.782   9.736  0.8293 -0.5656 -2.5419
  755MOL0     H 4186   3.006   9.428   9.609 -1.3853  2.4957 -1.2530
  755MOL0     H 4187   3.784   9.683  10.103 -0.1871 -1.8071 -0.8931
  755MOL0     H 4188   4.078   9.868  10.002  0.3870 -0.4942  1.3051
  755MOL0     H 4189   3.991   9.964  10.110 -0.7628  0.9309 -0.6962
  755MOL0     H 4190   3.982   9.784  10.124  0.8196  0.3611  0.6827
  756MOL0     O 4191   6.988   9.717   3.891  0.4041  0.3052 -0.1176
  756MOL0     C 4192   7.036   9.609   3.869  0.1662  0.4254 -0.0297
  756MOL0     O 4193   7.151   9.591   3.796 -0.6652  0.1196 -0.0607
  756MOL0     C 4194   7.216   9.705   3.750 -0.3663 -0.3282  0.5527
  756MOL0     C 4195   7.293   9.789   3.815 -0.0306  0.7519 -0.5841
  756MOL0     C 4196   7.348   9.910   3.770 -0.5159 -0.2529  0.1260
  756MOL0     C 4197   7.312   9.961   3.649  0.4279 -0.3841 -0.6768
  756MOL0     O 4198   7.373  10.069   3.591 -0.6141  0.4694 -0.2616
  756MOL0     C 4199   7.515  10.081   3.596  0.0022 -0.8641 -0.8420
  756MOL0     C 4200   7.596  10.018   3.494 -0.4404  0.8413 -0.3268
  756MOL0     C 4201   7.558  10.073   3.352  0.7927 -0.3933 -0.2817
  756MOL0     C 4202   7.649  10.021   3.240  0.0668 -0.2683  0.3695
  756MOL0     C 4203   7.623   9.877   3.202  0.0675  0.1873 -0.6394
  756MOL0     C 4204   7.487   9.852   3.140  0.3076 -0.0634 -0.2259
  756MOL0     C 4205   7.480   9.880   2.987  0.6348  0.0296  0.5311
  756MOL0     C 4206   7.335   9.881   2.915 -0.5629 -0.1631 -0.8570
  756MOL0     N 4207   7.263  10.000   2.956  0.7126  0.2376 -0.4682
  756MOL0     C 4208   7.316  10.130   2.961  0.4552  0.2129  0.5046
  756MOL0     C 4209   7.227  10.208   3.021 -0.3522 -0.6030  0.1892
  756MOL0     C 4210   7.242  10.352   3.047 -0.2486 -0.1820 -0.0115
  756MOL0     C 4211   7.265  10.384   3.207 -1.2319  0.7898  0.3843
  756MOL0     C 4212   7.144  10.353   3.287 -0.2952 -0.3421  0.8109
  756MOL0     C 4213   7.175  10.356   3.439  0.4742  0.0766 -0.2223
  756MOL0     O 4214   7.199  10.488   3.484  0.2559  0.0661  0.3347
  756MOL0     C 4215   7.241  10.516   3.613 -0.3674  0.3642  0.2382
  756MOL0     C 4216   7.243  10.650   3.652 -0.2286 -0.0919  0.1361
  756MOL0     C 4217   7.281  10.690   3.779  0.2507  0.5531  0.6605
  756MOL0     C 4218   7.294  10.831   3.799 -0.2581 -0.5453  0.7822
  756MOL0     C 4219   7.320  10.591   3.878  0.5642  0.2546  0.5223
  756MOL0     C 4220   7.339  10.626   4.024  0.4670 -1.1896  0.3308
  756MOL0     O 4221   7.331  10.516   4.102 -0.9247  0.9124 -0.2115
  756MOL0     C 4222   7.352  10.536   4.235  0.2385 -0.1637 -0.2181
  756MOL0     C 4223   7.447  10.461   4.301 -0.6643  0.1755 -0.3237
  756MOL0     C 4224   7.475  10.461   4.439 -0.5091 -0.1764  0.0432
  756MOL0     C 4225   7.390  10.536   4.519  0.3497  0.5351  0.1048
  756MOL0     O 4226   7.398  10.556   4.658  0.0404 -0.3649  0.7539
  756MOL0     C 4227   7.527  10.520   4.712  0.3011 -0.0729 -0.2702
  756MOL0     C 4228   7.518  10.510   4.874  0.0400 -0.6656 -0.4576
  756MOL0     C 4229   7.653  10.497   4.952 -0.1397  0.3614 -0.8779
  756MOL0     C 4230   7.636  10.512   5.108  0.1935  0.2811 -0.1875
  756MOL0     C 4231   7.737  10.434   5.189  0.0131 -0.5853 -0.2543
  756MOL0     C 4232   7.876  10.506   5.166  1.1392  0.6511  0.3037
  756MOL0     C 4233   7.983  10.477   5.278 -0.2216  0.4640  0.2340
  756MOL0     C 4234   7.953  10.528   5.424 -0.8158  0.0092 -0.0982
  756MOL0    Cl 4235   7.890  10.695   5.434 -0.0575  0.1538  0.1540
  756MOL0     C 4236   7.286  10.609   4.457 -0.7139 -0.0536 -0.8316
  756MOL0     C 4237   7.267  10.608   4.323 -0.5875  0.3600 -0.4044
  756MOL0     O 4238   7.353  10.742   4.058  0.2029 -0.0383 -0.1055
  756MOL0     C 4239   7.315  10.458   3.837  0.2038  0.9809  0.7821
  756MOL0     C 4240   7.277  10.420   3.713  0.3184 -0.4158 -0.4204
  756MOL0     N 4241   7.123  10.133   3.069 -1.1606  0.4490 -0.7546
  756MOL0     N 4242   7.147  10.004   3.025 -0.4906  0.3856 -0.2083
  756MOL0     C 4243   7.233   9.876   3.572  0.2555  0.0087  0.2433
  756MOL0     C 4244   7.189   9.746   3.613 -0.3861 -0.0932 -0.7868
  756MOL0     C 4245   6.976   9.482   3.925 -1.0055  0.1448 -1.0075
  756MOL0     C 4246   7.046   9.358   3.918 -0.6700 -0.1712  0.6637
  756MOL0     C 4247   7.001   9.237   3.973 -0.4029 -0.4604  0.0535
  756MOL0     C 4248   6.871   9.241   4.035 -0.1210  0.3390 -0.4306
  756MOL0     O 4249   6.818   9.127   4.094 -0.4520  0.3059 -0.3449
  756MOL0     C 4250   6.851   9.009   4.030 -0.4715 -0.1358  0.2303
  756MOL0     C 4251   6.712   8.935   3.998  0.2019 -0.1045  0.9063
  756MOL0     C 4252   6.747   8.788   3.955  0.5106 -0.4999  0.3095
  756MOL0     C 4253   6.620   8.700   3.910  0.2549 -0.0259  0.1129
  756MOL0     C 4254   6.572   8.739   3.782 -0.5013 -0.0904  0.1907
  756MOL0     C 4255   6.535   8.781   3.677  0.6329  0.7187  0.8419
  756MOL0     C 4256   6.801   9.360   4.048 -0.1407 -0.4641  0.5542
  756MOL0     C 4257   6.844   9.474   3.982  0.1706  0.6246 -0.3120
  756MOL0     C 4258   6.742   9.581   3.974 -0.4080 -0.8658 -0.6966
  756MOL0     H 4259   7.304   9.756   3.918 -0.3031 -0.5629 -0.9622
  756MOL0     H 4260   7.414   9.962   3.839  1.5219 -2.3279 -0.1205
  756MOL0     H 4261   7.540  10.036   3.693 -0.6821  0.4911 -0.0072
  756MOL0     H 4262   7.534  10.189   3.603 -3.5957 -0.0518 -1.6957
  756MOL0     H 4263   7.702  10.043   3.501  0.0601 -1.0384 -0.5857
  756MOL0     H 4264   7.590   9.909   3.495  2.3597  0.5945  1.9957
  756MOL0     H 4265   7.453  10.061   3.323  1.1185 -1.4054 -1.1390
  756MOL0     H 4266   7.583  10.179   3.355  0.5905 -0.2305 -2.5602
  756MOL0     H 4267   7.632  10.082   3.151 -3.1120 -0.8328  0.4961
  756MOL0     H 4268   7.755  10.032   3.266 -0.5492  2.5202  2.1881
  756MOL0     H 4269   7.625   9.834   3.302 -1.4471  2.8265  0.6033
  756MOL0     H 4270   7.703   9.825   3.147 -0.1963 -1.6588  0.6414
  756MOL0     H 4271   7.450   9.750   3.156  0.2856  0.1447  1.1882
  756MOL0     H 4272   7.409   9.907   3.193  0.4280 -0.5344  0.4655
  756MOL0     H 4273   7.539   9.794   2.953  0.6236 -0.0282  0.6574
  756MOL0     H 4274   7.533   9.968   2.949  0.1351  0.1238  0.0381
  756MOL0     H 4275   7.338   9.870   2.806  0.6832  2.1011 -1.1020
  756MOL0     H 4276   7.283   9.793   2.953 -2.5247  1.2164 -0.1852
  756MOL0     H 4277   7.416  10.154   2.927  1.1142  0.1367  2.2657
  756MOL0     H 4278   7.147  10.388   3.005  0.0695 -3.1150 -3.7823
  756MOL0     H 4279   7.317  10.409   2.991  0.2662  0.8128  1.6306
  756MOL0     H 4280   7.356  10.331   3.236 -0.8909  2.2633  2.1969
  756MOL0     H 4281   7.291  10.490   3.221 -4.2871  1.3571  2.8969
  756MOL0     H 4282   7.062  10.419   3.259  0.6074  0.1693 -0.7598
  756MOL0     H 4283   7.118  10.248   3.268  0.0014 -0.1199 -0.9448
  756MOL0     H 4284   7.092  10.322   3.501  2.0442  0.2813  2.1448
  756MOL0     H 4285   7.261  10.289   3.451  0.5534  0.2382  0.1157
  756MOL0     H 4286   7.212  10.731   3.587 -0.4470  0.8611  1.3938
  756MOL0     H 4287   7.225  10.863   3.877 -0.2864 -2.0983  1.4180
  756MOL0     H 4288   7.279  10.875   3.700  0.8809 -3.6566 -0.9337
  756MOL0     H 4289   7.396  10.865   3.819  0.7686 -1.9152 -1.6161
  756MOL0     H 4290   7.503  10.395   4.236 -0.0819  2.4802 -2.3050
  756MOL0     H 4291   7.550  10.397   4.485  1.5854 -0.5117 -3.4993
  756MOL0     H 4292   7.568  10.427   4.672 -0.2014  0.0514 -1.1097
  756MOL0     H 4293   7.600  10.597   4.686  0.3818 -0.1166 -0.1702
  756MOL0     H 4294   7.462  10.596   4.913 -0.6399 -0.8810 -0.9438
  756MOL0     H 4295   7.450  10.429   4.902 -1.6517  0.4798 -1.0328
  756MOL0     H 4296   7.730  10.561   4.909  2.4204 -0.4800  2.0678
  756MOL0     H 4297   7.692  10.397   4.930 -3.1594 -1.3234  0.6256
  756MOL0     H 4298   7.538  10.477   5.139  1.2305 -1.6204  1.1497
  756MOL0     H 4299   7.639  10.617   5.140  2.3416  0.1664  0.1722
  756MOL0     H 4300   7.715  10.444   5.296 -0.4296 -0.4673 -0.3529
  756MOL0     H 4301   7.728  10.327   5.167 -2.5707 -0.9687  2.0815
  756MOL0     H 4302   7.874  10.616   5.163  0.6225  0.6318 -0.5480
  756MOL0     H 4303   7.919  10.481   5.068 -0.5581 -3.7169  0.4753
  756MOL0     H 4304   8.082  10.519   5.260  0.6578 -1.5704  0.0696
  756MOL0     H 4305   7.999  10.369   5.281 -1.4126  0.2197 -1.0651
  756MOL0     H 4306   8.051  10.526   5.471  1.5595  0.1938 -4.4672
  756MOL0     H 4307   7.875  10.467   5.470  0.0422 -1.1499 -0.1433
  756MOL0     H 4308   7.210  10.670   4.504  1.2041  1.0796  0.9877
  756MOL0     H 4309   7.188  10.665   4.275 -0.5854  1.9408  1.3722
  756MOL0     H 4310   7.352  10.382   3.905 -2.3506 -0.5863  0.5937
  756MOL0     H 4311   7.275  10.313   3.695 -1.6667 -1.3435  4.0877
  756MOL0     H 4312   7.218   9.908   3.469  0.9514 -0.0500  0.1178
  756MOL0     H 4313   7.125   9.686   3.549  0.4877 -3.3650  1.1495
  756MOL0     H 4314   7.149   9.363   3.884 -0.0225  0.3505  2.5924
  756MOL0     H 4315   7.057   9.144   3.973 -0.0267 -0.2656  2.0885
  756MOL0     H 4316   6.898   9.013   3.931  0.8113  1.2120  0.8547
  756MOL0     H 4317   6.912   8.963   4.108  0.7330  3.8075  1.9003
  756MOL0     H 4318   6.667   8.994   3.918  0.9735 -1.5400 -0.6293
  756MOL0     H 4319   6.636   8.926   4.076 -0.1267 -4.5221  0.3240
  756MOL0     H 4320   6.820   8.785   3.873  1.8225  0.5814  1.3917
  756MOL0     H 4321   6.793   8.739   4.040  3.0697  1.0965 -0.0551
  756MOL0     H 4322   6.544   8.730   3.982  0.9226  0.5384  0.5995
  756MOL0     H 4323   6.634   8.592   3.905  2.7015  0.2703 -3.9019
  756MOL0     H 4324   6.494   8.832   3.592  0.5374  0.5885  0.8097
  756MOL0     H 4325   6.699   9.367   4.084 -0.5717 -0.5473 -0.6137
  756MOL0     H 4326   6.639   9.552   3.998 -0.6692  2.0866  2.4460
  756MOL0     H 4327   6.754   9.663   4.045  0.3336  0.3709 -2.1907
  756MOL0     H 4328   6.742   9.625   3.874 -4.1671  0.5980 -0.2489
  757MOL0     O 4329   3.181   0.303   4.726  0.5116 -0.0805  0.6273
  757MOL0     C 4330   3.133   0.398   4.660  0.4333  0.1130 -1.0919
  757MOL0     O 4331   3.064   0.502   4.713 -0.1204  0.5078 -0.2292
  757MOL0     C 4332   3.063   0.532   4.843  0.5960  0.6808 -0.9617
  757MOL0     C 4333   3.055   0.667   4.867 -0.7160  0.0294 -0.3495
  757MOL0     C 4334   3.036   0.717   5.006  0.0373  0.3843 -0.7764
  757MOL0     C 4335   3.034   0.623   5.116  0.9614  0.4108  0.0906
  757MOL0     O 4336   3.016   0.653   5.242  0.3357  0.0959  0.0321
  757MOL0     C 4337   2.874   0.650   5.274  0.7427 -0.2870  0.1775
  757MOL0     C 4338   2.856   0.556   5.388 -0.2625 -0.5620  0.1879
  757MOL0     C 4339   2.703   0.558   5.416 -0.2049  0.5943  0.9185
  757MOL0     C 4340   2.653   0.461   5.530 -0.9730  0.2381 -0.0330
  757MOL0     C 4341   2.671   0.515   5.676 -0.1327 -0.6998  0.1923
  757MOL0     C 4342   2.585   0.640   5.701 -0.7482 -0.1911 -0.2193
  757MOL0     C 4343   2.600   0.693   5.841 -0.3034 -0.2331 -0.2831
  757MOL0     C 4344   2.740   0.732   5.888 -0.0773 -0.1448  0.4532
  757MOL0     N 4345   2.732   0.804   6.017  0.1337  0.0061 -0.4506
  757MOL0     C 4346   2.749   0.936   6.026  1.0173  0.2999 -0.4845
  757MOL0     C 4347   2.735   0.954   6.161 -0.1558 -1.0734 -0.7079
  757MOL0     C 4348   2.733   1.102   6.217  0.4352 -0.0008  1.0461
  757MOL0     C 4349   2.859   1.177   6.210 -0.5014 -0.2049 -0.1325
  757MOL0     C 4350   2.869   1.302   6.304 -0.0030  0.3274  0.2327
  757MOL0     C 4351   2.774   1.414   6.243  0.6607  0.0044 -0.2550
  757MOL0     O 4352   2.826   1.456   6.115 -0.0989 -0.1721 -0.2658
  757MOL0     C 4353   2.771   1.566   6.066  0.3000 -0.5036  1.7233
  757MOL0     C 4354   2.829   1.616   5.944 -0.3964 -0.0395 -0.6104
  757MOL0     C 4355   2.779   1.730   5.886 -0.0938 -0.9262  0.0349
  757MOL0     C 4356   2.823   1.757   5.741 -0.7674 -0.0927 -0.7770
  757MOL0     C 4357   2.666   1.795   5.934  0.0164 -0.7266 -0.3001
  757MOL0     C 4358   2.627   1.925   5.875 -0.7878  0.1488  0.7138
  757MOL0     O 4359   2.501   1.962   5.895  0.0682  0.1529 -0.0397
  757MOL0     C 4360   2.445   2.053   5.814  0.2682  0.3105  0.9302
  757MOL0     C 4361   2.463   2.067   5.675  1.1033  0.7009  0.0542
  757MOL0     C 4362   2.397   2.159   5.593 -0.6651  0.4819 -0.3670
  757MOL0     C 4363   2.297   2.236   5.655  0.0662  1.0432 -0.5371
  757MOL0     O 4364   2.215   2.324   5.584 -0.1483 -0.9392 -0.4079
  757MOL0     C 4365   2.233   2.353   5.445  0.8974 -0.0746 -0.5882
  757MOL0     C 4366   2.178   2.248   5.349 -0.7012  0.1685 -0.6604
  757MOL0     C 4367   2.171   2.296   5.207 -0.1141  0.1028  0.7088
  757MOL0     C 4368   2.142   2.171   5.111  0.5638 -1.7699 -0.3730
  757MOL0     C 4369   2.139   2.205   4.963  0.8751  0.0492 -1.4349
  757MOL0     C 4370   2.284   2.194   4.914  0.9752 -0.2605 -0.1863
  757MOL0     C 4371   2.288   2.240   4.766  0.0373  0.2117 -0.5182
  757MOL0     C 4372   2.367   2.363   4.745 -0.4253  0.9005  0.3127
  757MOL0    Cl 4373   2.376   2.429   4.583 -0.0429  0.5946 -0.1230
  757MOL0     C 4374   2.266   2.209   5.788  0.0669 -0.0822  0.6903
  757MOL0     C 4375   2.336   2.122   5.870 -0.4758  0.2120  0.8356
  757MOL0     O 4376   2.717   1.996   5.820  0.3968 -0.3960 -0.9264
  757MOL0     C 4377   2.605   1.748   6.051 -0.2244  0.4394 -0.5474
  757MOL0     C 4378   2.665   1.639   6.118  0.2743 -0.2559 -0.9088
  757MOL0     N 4379   2.723   0.836   6.225 -0.0909  0.8309  0.4787
  757MOL0     N 4380   2.726   0.741   6.132  0.1211 -0.2889  0.0635
  757MOL0     C 4381   3.043   0.489   5.087 -0.1421 -0.5712 -0.0059
  757MOL0     C 4382   3.048   0.443   4.953  0.3535  0.2864 -1.1467
  757MOL0     C 4383   3.128   0.404   4.510 -0.6436 -0.8451  0.2728
  757MOL0     C 4384   3.080   0.302   4.430 -0.6856  0.4109  0.1343
  757MOL0     C 4385   3.078   0.312   4.289  0.1350 -0.7946 -0.8693
  757MOL0     C 4386   3.121   0.429   4.220 -0.4526 -0.1427  0.7353
  757MOL0     O 4387   3.111   0.442   4.078 -0.1651  0.6949 -0.7110
  757MOL0     C 4388   3.062   0.323   4.003 -0.7151 -0.3364  0.0326
  757MOL0     C 4389   3.091   0.329   3.860 -0.0664 -0.1155 -0.2115
  757MOL0     C 4390   3.245   0.296   3.837 -0.6050 -0.7850  0.1427
  757MOL0     C 4391   3.274   0.158   3.786 -0.9159  0.7041 -0.4631
  757MOL0     C 4392   3.199   0.130   3.665 -0.7484 -0.1532 -0.0250
  757MOL0     C 4393   3.139   0.121   3.562  0.3077  1.0827 -0.1374
  757MOL0     C 4394   3.155   0.538   4.303  0.3942  0.5204  1.1709
  757MOL0     C 4395   3.164   0.523   4.442  0.4006 -0.2420 -0.6384
  757MOL0     C 4396   3.227   0.636   4.509  0.3656 -0.0011 -0.0608
  757MOL0     H 4397   3.067   0.742   4.790  2.8337  0.2332  0.2176
  757MOL0     H 4398   3.026   0.824   5.020  0.4221  0.1508  1.6052
  757MOL0     H 4399   2.813   0.626   5.186 -2.2458  0.9140  1.7895
  757MOL0     H 4400   2.842   0.751   5.299  0.3534 -0.5216  0.6220
  757MOL0     H 4401   2.902   0.459   5.368  2.4222  0.9244 -1.5199
  757MOL0     H 4402   2.910   0.596   5.475 -0.8342 -0.4378  0.4926
  757MOL0     H 4403   2.665   0.659   5.434 -0.0681  0.5636  1.3894
  757MOL0     H 4404   2.658   0.513   5.327  1.1963  2.0427 -0.6078
  757MOL0     H 4405   2.553   0.432   5.498 -0.2416 -1.6062 -0.8187
  757MOL0     H 4406   2.717   0.372   5.523  1.0850  1.6860 -0.3103
  757MOL0     H 4407   2.777   0.538   5.688 -0.2661 -0.1539  0.3557
  757MOL0     H 4408   2.641   0.440   5.751  2.8738  1.0121  3.3872
  757MOL0     H 4409   2.625   0.716   5.634 -0.6371 -0.2929 -0.2687
  757MOL0     H 4410   2.482   0.614   5.671 -1.9295  2.6046  1.0951
  757MOL0     H 4411   2.555   0.621   5.910 -1.6019 -0.4567 -1.3250
  757MOL0     H 4412   2.538   0.782   5.857 -0.5056 -0.2835 -0.7855
  757MOL0     H 4413   2.801   0.642   5.903  3.1175  1.8762  0.6279
  757MOL0     H 4414   2.788   0.795   5.812  0.6935 -0.4724  0.6618
  757MOL0     H 4415   2.744   1.012   5.949 -0.5535  2.8135  1.9299
  757MOL0     H 4416   2.718   1.099   6.325 -0.6444  1.6534  0.9826
  757MOL0     H 4417   2.654   1.151   6.160  2.6862 -0.9766 -3.3545
  757MOL0     H 4418   2.940   1.109   6.236 -0.7092  0.2664  1.8620
  757MOL0     H 4419   2.884   1.209   6.108 -0.6702  2.0095  0.4659
  757MOL0     H 4420   2.837   1.284   6.407  0.5582 -1.8934  0.0527
  757MOL0     H 4421   2.969   1.344   6.292 -0.6173  1.0222 -4.0559
  757MOL0     H 4422   2.680   1.361   6.229 -0.1908  1.6750 -1.1173
  757MOL0     H 4423   2.767   1.494   6.318 -1.0886  0.8915 -1.3117
  757MOL0     H 4424   2.909   1.555   5.902  0.4408 -0.1566  1.0617
  757MOL0     H 4425   2.733   1.797   5.692 -1.5461  0.6987  1.1984
  757MOL0     H 4426   2.869   1.666   5.702 -1.6340 -1.2158  0.7080
  757MOL0     H 4427   2.907   1.826   5.729  1.9052 -3.2933 -2.0496
  757MOL0     H 4428   2.543   2.003   5.639  0.8021  0.0855  0.4736
  757MOL0     H 4429   2.418   2.185   5.490  3.4230  0.3350  0.2713
  757MOL0     H 4430   2.176   2.444   5.421 -1.3039 -0.9579  0.9923
  757MOL0     H 4431   2.340   2.369   5.430  0.2858  1.4741 -4.5159
  757MOL0     H 4432   2.248   2.164   5.359  0.1125  0.9407  0.3650
  757MOL0     H 4433   2.078   2.215   5.381 -0.4069 -0.4062 -0.3124
  757MOL0     H 4434   2.270   2.340   5.189 -0.2958  1.4821  2.6914
  757MOL0     H 4435   2.087   2.364   5.190 -1.5832 -1.4037  1.6032
  757MOL0     H 4436   2.038   2.146   5.134  0.1556  0.4399  0.3490
  757MOL0     H 4437   2.198   2.081   5.139  1.3056 -0.8151  1.3298
  757MOL0     H 4438   2.075   2.128   4.918  1.1886 -0.5100 -0.9431
  757MOL0     H 4439   2.095   2.302   4.939  0.7696  0.7279  1.2816
  757MOL0     H 4440   2.314   2.089   4.916 -1.0693 -1.0145 -2.4970
  757MOL0     H 4441   2.349   2.248   4.982  0.7672 -1.8990  1.3680
  757MOL0     H 4442   2.184   2.250   4.732 -0.0383 -1.0564 -0.7230
  757MOL0     H 4443   2.318   2.148   4.714 -1.2725 -1.3317  1.2977
  757MOL0     H 4444   2.470   2.341   4.774 -1.6003 -2.1482  2.7240
  757MOL0     H 4445   2.321   2.448   4.798 -0.3544  0.9691  0.2651
  757MOL0     H 4446   2.184   2.276   5.814  0.1562  0.3870 -0.1962
  757MOL0     H 4447   2.310   2.110   5.974 -2.0324  0.9218  0.5536
  757MOL0     H 4448   2.512   1.794   6.081 -1.1931 -0.4270 -2.1182
  757MOL0     H 4449   2.614   1.607   6.209  1.1164  1.1420  0.0895
  757MOL0     H 4450   3.023   0.419   5.167  1.1709 -0.2702  0.6063
  757MOL0     H 4451   3.047   0.338   4.927  0.2117  0.1051 -0.4256
  757MOL0     H 4452   3.058   0.207   4.479  0.9076 -0.7249 -1.2296
  757MOL0     H 4453   3.029   0.231   4.235  1.0632 -1.3904 -0.8299
  757MOL0     H 4454   3.126   0.241   4.038  1.9882  1.4184 -0.4898
  757MOL0     H 4455   2.957   0.301   4.023 -0.8811  0.5658  0.1886
  757MOL0     H 4456   3.062   0.425   3.816  0.5528  1.7361  3.0631
  757MOL0     H 4457   3.025   0.261   3.805 -0.1187  0.7196 -1.2148
  757MOL0     H 4458   3.285   0.361   3.758  3.2810 -2.8477  0.1439
  757MOL0     H 4459   3.310   0.316   3.923 -0.3065 -2.4663  0.3476
  757MOL0     H 4460   3.250   0.076   3.854  2.0992 -1.2654 -1.5527
  757MOL0     H 4461   3.381   0.153   3.764 -1.1406 -2.2106 -1.3594
  757MOL0     H 4462   3.095   0.103   3.466  2.7617  2.9870 -1.7536
  757MOL0     H 4463   3.192   0.628   4.256  0.7379  1.3616  2.9486
  757MOL0     H 4464   3.287   0.615   4.598 -1.3913 -0.4077  1.0711
  757MOL0     H 4465   3.297   0.677   4.435  2.1669 -3.0181 -0.1851
  757MOL0     H 4466   3.151   0.710   4.535 -2.0034 -1.8700 -1.3027
  758MOL0     O 4467  10.198   8.515   9.757  0.0066  0.0599  0.4995
  758MOL0     C 4468  10.224   8.480   9.645  0.4332  0.7072 -0.2269
  758MOL0     O 4469  10.299   8.558   9.554  0.2330 -0.1842 -0.7391
  758MOL0     C 4470  10.334   8.685   9.589  0.7883 -0.3339 -0.1264
  758MOL0     C 4471  10.262   8.791   9.666 -0.3291  0.8976 -0.4860
  758MOL0     C 4472  10.307   8.919   9.681  0.5037 -0.2463  0.7483
  758MOL0     C 4473  10.419   8.960   9.605  0.0121  0.4320  0.4170
  758MOL0     O 4474  10.475   9.082   9.617  0.0915 -0.0895 -0.1453
  758MOL0     C 4475  10.394   9.199   9.635  0.4803  0.2686  0.8424
  758MOL0     C 4476  10.423   9.281   9.759  0.3357 -0.1228 -0.2960
  758MOL0     C 4477  10.563   9.331   9.758 -0.3540 -0.0803 -1.3306
  758MOL0     C 4478  10.586   9.429   9.876  0.9222  0.3973  0.6120
  758MOL0     C 4479  10.718   9.493   9.843 -0.2368 -0.0411 -0.3598
  758MOL0     C 4480  10.768   9.576   9.951  0.4762  0.3897 -0.4992
  758MOL0     C 4481  10.914   9.619   9.945  0.9589  0.2305  0.4826
  758MOL0     C 4482  10.961   9.644  10.089 -0.2147  0.1031 -0.4491
  758MOL0     N 4483  10.873   9.727  10.168 -0.8507  0.1420 -0.0602
  758MOL0     C 4484  10.860   9.861  10.153  0.3608  0.3005  0.5464
  758MOL0     C 4485  10.764   9.900  10.235  0.5812 -0.2977 -0.3104
  758MOL0     C 4486  10.730  10.050  10.256 -0.2613  0.7665  0.6794
  758MOL0     C 4487  10.803  10.120  10.373 -0.4624 -0.2111 -0.1241
  758MOL0     C 4488  10.739  10.258  10.419 -0.3480  0.0943  0.2275
  758MOL0     C 4489  10.720  10.356  10.303 -0.1469  0.3836 -0.6203
  758MOL0     O 4490  10.836  10.393  10.231 -0.7441 -0.0802  0.1973
  758MOL0     C 4491  10.822  10.478  10.128  0.5421  0.4765  0.6327
  758MOL0     C 4492  10.698  10.524  10.077 -0.3036 -0.3228  0.2315
  758MOL0     C 4493  10.692  10.620   9.972 -0.2035 -0.2392 -0.5975
  758MOL0     C 4494  10.554  10.651   9.913 -0.1362 -0.4341 -0.7807
  758MOL0     C 4495  10.813  10.684   9.923 -0.1376 -0.5978  0.7711
  758MOL0     C 4496  10.833  10.785   9.804 -0.0706  0.0617  0.0337
  758MOL0     O 4497  10.951  10.849   9.803 -0.1652 -0.7196  0.7203
  758MOL0     C 4498  10.974  10.954   9.709 -0.0813 -0.4500  0.9600
  758MOL0     C 4499  11.069  10.919   9.614  0.6211  0.3356  0.4542
  758MOL0     C 4500  11.110  11.020   9.522 -0.2452  0.0317  0.4719
  758MOL0     C 4501  11.051  11.149   9.517  0.5879  0.6412  0.6533
  758MOL0     O 4502  11.080  11.238   9.422 -0.0592 -0.5631 -0.2981
  758MOL0     C 4503  11.093  11.188   9.286  0.4193 -0.1917  0.2552
  758MOL0     C 4504  10.975  11.108   9.232 -0.2990 -1.3606  1.7411
  758MOL0     C 4505  11.000  11.081   9.079  0.0012  0.2748 -0.0994
  758MOL0     C 4506  11.026  10.939   9.033  0.0715  0.5927  0.0493
  758MOL0     C 4507  11.068  10.927   8.880  0.1137  0.0216 -0.0241
  758MOL0     C 4508  10.963  10.968   8.760 -0.0212 -0.3603 -0.2644
  758MOL0     C 4509  11.017  10.924   8.627 -0.1267 -1.1938 -0.2613
  758MOL0     C 4510  10.903  10.926   8.520  0.6416  0.1028  0.2632
  758MOL0    Cl 4511  10.840  11.097   8.472  0.5167 -0.3872 -0.0335
  758MOL0     C 4512  10.938  11.177   9.603 -1.1764 -0.2085 -0.0843
  758MOL0     C 4513  10.910  11.078   9.704  0.0915  1.2611 -0.1738
  758MOL0     O 4514  10.745  10.801   9.726 -0.3092 -0.3997  0.6943
  758MOL0     C 4515  10.932  10.648   9.992 -0.9134 -0.2018  0.0021
  758MOL0     C 4516  10.937  10.555  10.096 -0.0038 -0.7655  1.0395
  758MOL0     N 4517  10.707   9.788  10.289  0.1615  0.6078 -0.5377
  758MOL0     N 4518  10.777   9.685  10.259 -0.1999  0.2305  0.5695
  758MOL0     C 4519  10.483   8.867   9.517  0.5731  1.0554 -0.0553
  758MOL0     C 4520  10.443   8.736   9.512  0.8042 -0.2015  0.1033
  758MOL0     C 4521  10.173   8.344   9.611 -0.1693 -0.6044  0.1020
  758MOL0     C 4522  10.081   8.274   9.693 -0.0877  0.4435 -0.3453
  758MOL0     C 4523  10.061   8.132   9.675 -0.5870 -0.2832 -0.1005
  758MOL0     C 4524  10.120   8.061   9.578 -1.1349  0.6471  0.5843
  758MOL0     O 4525  10.120   7.927   9.576  0.0057  0.9592  0.2548
  758MOL0     C 4526  10.244   7.862   9.555 -0.3866  0.2908 -0.1655
  758MOL0     C 4527  10.248   7.726   9.622  0.6685 -0.6767 -0.2623
  758MOL0     C 4528  10.248   7.723   9.776 -0.3973 -0.0888 -0.6255
  758MOL0     C 4529  10.118   7.755   9.850  0.9867 -0.2256  0.1839
  758MOL0     C 4530  10.070   7.637   9.927 -0.5717  0.9568 -0.1727
  758MOL0     C 4531  10.051   7.537   9.992 -0.5084 -0.6426  0.6098
  758MOL0     C 4532  10.192   8.133   9.481  0.4955  0.3242 -0.1383
  758MOL0     C 4533  10.226   8.268   9.495 -0.3958  1.3090  0.1636
  758MOL0     C 4534  10.312   8.320   9.376  1.3188 -0.3887 -0.3586
  758MOL0     H 4535  10.162   8.769   9.704 -0.6896  2.3721 -0.5010
  758MOL0     H 4536  10.258   8.996   9.739 -0.5959 -0.0893 -0.3499
  758MOL0     H 4537  10.286   9.181   9.641  0.9761 -2.5643  3.3058
  758MOL0     H 4538  10.423   9.265   9.553  0.1119  0.3045  0.7397
  758MOL0     H 4539  10.338   9.348   9.775  0.3045  0.1074 -1.3650
  758MOL0     H 4540  10.417   9.214   9.846 -1.4250 -0.2222 -0.4478
  758MOL0     H 4541  10.640   9.253   9.767 -1.0244 -0.4507  3.1434
  758MOL0     H 4542  10.578   9.383   9.663 -2.1499  1.3959 -0.8456
  758MOL0     H 4543  10.504   9.498   9.898  1.3873  0.1574  3.5474
  758MOL0     H 4544  10.596   9.365   9.964  2.1214  2.6789  2.2302
  758MOL0     H 4545  10.692   9.561   9.761  0.6818  1.2373  0.3591
  758MOL0     H 4546  10.787   9.423   9.794  0.5715  1.3497 -1.3071
  758MOL0     H 4547  10.710   9.669   9.950  0.7475  0.5814  0.6294
  758MOL0     H 4548  10.742   9.528  10.045  0.1198  0.6841 -0.4413
  758MOL0     H 4549  10.910   9.713   9.889  2.6948 -2.0335 -4.0106
  758MOL0     H 4550  10.986   9.549   9.900  0.6259  0.6145 -0.6861
  758MOL0     H 4551  10.983   9.561  10.157 -2.6706  2.1729  3.1858
  758MOL0     H 4552  11.060   9.691  10.090 -0.0488 -0.2262  0.8091
  758MOL0     H 4553  10.921   9.926  10.091 -0.4698  1.4302  0.9063
  758MOL0     H 4554  10.621  10.055  10.265 -0.9235 -4.7011 -0.6916
  758MOL0     H 4555  10.745  10.095  10.157  1.7775 -0.5075  0.3536
  758MOL0     H 4556  10.806  10.059  10.464  4.3387 -0.1366  0.0434
  758MOL0     H 4557  10.909  10.137  10.351 -0.0717  1.1743  2.4766
  758MOL0     H 4558  10.642  10.227  10.460  0.1683 -2.0906 -0.0446
  758MOL0     H 4559  10.780  10.303  10.509  1.0525  0.1071 -0.3901
  758MOL0     H 4560  10.646  10.310  10.237 -0.8329 -1.6806  1.4054
  758MOL0     H 4561  10.682  10.452  10.341  2.3122  1.2020 -0.0565
  758MOL0     H 4562  10.601  10.485  10.107  0.4305 -2.7412 -0.3101
  758MOL0     H 4563  10.542  10.734   9.842 -1.7165 -0.0973 -0.1586
  758MOL0     H 4564  10.488  10.673   9.997  3.3431  1.6437  1.7058
  758MOL0     H 4565  10.519  10.557   9.869 -0.8664 -0.8343  0.5963
  758MOL0     H 4566  11.117  10.825   9.637  1.1970  0.8125  1.2337
  758MOL0     H 4567  11.191  10.988   9.457 -0.2434 -0.5944  0.7747
  758MOL0     H 4568  11.106  11.279   9.227  1.9870  0.8075  2.0010
  758MOL0     H 4569  11.181  11.124   9.280 -0.7911 -2.3405  2.9582
  758MOL0     H 4570  10.959  11.013   9.284 -3.1916 -2.6723 -1.1859
  758MOL0     H 4571  10.885  11.168   9.250  1.2396  0.9261  2.1718
  758MOL0     H 4572  11.096  11.129   9.056  1.5627 -1.1332  2.8956
  758MOL0     H 4573  10.926  11.137   9.020 -0.6090  1.4863  1.7172
  758MOL0     H 4574  10.939  10.872   9.029  0.5691 -0.0190 -3.3601
  758MOL0     H 4575  11.107  10.910   9.100 -0.7793  1.3313  1.4468
  758MOL0     H 4576  11.165  10.977   8.874  0.9517 -1.5132  0.1336
  758MOL0     H 4577  11.100  10.825   8.855  1.9327  0.9245 -1.7233
  758MOL0     H 4578  10.963  11.078   8.759 -1.3507 -0.3494 -0.6957
  758MOL0     H 4579  10.860  10.939   8.781 -0.1078 -0.1261 -0.3619
  758MOL0     H 4580  11.064  10.825   8.631  0.1453 -1.1526 -1.6735
  758MOL0     H 4581  11.093  10.999   8.600 -0.1537  0.2088  3.1190
  758MOL0     H 4582  10.815  10.874   8.559 -0.5091  0.8379 -1.2102
  758MOL0     H 4583  10.948  10.882   8.431 -0.3266 -2.8397  1.1171
  758MOL0     H 4584  10.879  11.265   9.580  0.0679  0.7756  0.4000
  758MOL0     H 4585  10.824  11.092   9.768 -0.1950 -1.0648  0.0320
  758MOL0     H 4586  11.028  10.694   9.971  0.2402 -2.5385 -0.1452
  758MOL0     H 4587  11.029  10.530  10.148 -0.4381 -1.1538  1.6445
  758MOL0     H 4588  10.552   8.903   9.442 -1.5210  0.8943 -2.1564
  758MOL0     H 4589  10.489   8.661   9.448 -0.0137 -2.5133  2.0755
  758MOL0     H 4590  10.023   8.316   9.775 -1.6180 -0.2504 -1.0442
  758MOL0     H 4591   9.998   8.074   9.742 -0.6617 -0.6641 -0.5022
  758MOL0     H 4592  10.257   7.857   9.447  1.0210  0.9012 -0.0396
  758MOL0     H 4593  10.323   7.924   9.598  0.0505  0.5039 -1.2592
  758MOL0     H 4594  10.339   7.671   9.600  0.8858 -0.7064  0.6589
  758MOL0     H 4595  10.160   7.671   9.587  0.8880 -0.9653 -0.3546
  758MOL0     H 4596  10.274   7.621   9.805  0.4224  0.5887  1.1358
  758MOL0     H 4597  10.332   7.783   9.812  0.6023 -2.4345  1.2203
  758MOL0     H 4598  10.034   7.792   9.791  1.9985 -0.2935 -1.3729
  758MOL0     H 4599  10.148   7.832   9.921  1.6583 -0.5531  0.2676
  758MOL0     H 4600  10.040   7.454  10.058 -2.9141  0.2918  1.4843
  758MOL0     H 4601  10.214   8.079   9.389 -2.4155 -0.7309 -0.3327
  758MOL0     H 4602  10.415   8.334   9.411  1.9306  0.3821 -2.3135
  758MOL0     H 4603  10.318   8.247   9.294 -0.5382  0.4527 -1.3065
  758MOL0     H 4604  10.274   8.416   9.339  0.9786  0.3100  1.6657
  759MOL0     O 4605   4.687   9.208   8.610  0.9531 -0.0484 -0.5421
  759MOL0     C 4606   4.800   9.189   8.603 -0.2042  0.2653 -0.2448
  759MOL0     O 4607   4.866   9.111   8.501 -0.2884 -0.3161 -0.3746
  759MOL0     C 4608   4.791   9.091   8.389 -0.2548 -0.5525  0.3569
  759MOL0     C 4609   4.775   9.185   8.283 -1.1169  0.2007  0.7758
  759MOL0     C 4610   4.724   9.156   8.157  1.0529 -0.0808  1.2672
  759MOL0     C 4611   4.660   9.033   8.135  1.1667 -0.1082  0.9905
  759MOL0     O 4612   4.612   8.998   8.014 -0.3636 -0.5067 -0.4364
  759MOL0     C 4613   4.615   9.076   7.894  0.0429  1.1322  0.3130
  759MOL0     C 4614   4.753   9.066   7.827  1.2400 -0.3005  0.2955
  759MOL0     C 4615   4.784   8.923   7.811  0.0423  0.4515  0.4630
  759MOL0     C 4616   4.903   8.909   7.711 -0.8511  0.1376  0.1327
  759MOL0     C 4617   4.951   8.766   7.677  0.0966 -0.9429  0.1432
  759MOL0     C 4618   5.028   8.747   7.545  0.1256  0.1572  0.8745
  759MOL0     C 4619   5.162   8.815   7.544 -0.7325  0.1797 -0.1925
  759MOL0     C 4620   5.226   8.805   7.406  0.0374 -0.5710  0.6669
  759MOL0     N 4621   5.279   8.674   7.366 -0.0110  0.3375 -0.0104
  759MOL0     C 4622   5.376   8.609   7.429  0.4113  0.4184  0.2485
  759MOL0     C 4623   5.399   8.500   7.348  0.4374 -0.4934  0.3121
  759MOL0     C 4624   5.504   8.400   7.369 -0.2687  0.6564  0.0376
  759MOL0     C 4625   5.648   8.448   7.378  0.5714 -0.2632  0.7692
  759MOL0     C 4626   5.682   8.533   7.246  1.2379  0.6092 -0.6097
  759MOL0     C 4627   5.806   8.615   7.277 -0.5289 -0.1980 -0.5677
  759MOL0     O 4628   5.935   8.540   7.251 -0.0336  0.3569  0.1526
  759MOL0     C 4629   5.983   8.536   7.121  0.9829 -0.5591  0.7118
  759MOL0     C 4630   5.941   8.435   7.038 -0.7145 -0.8780  1.1037
  759MOL0     C 4631   5.978   8.453   6.897  0.2333  0.2555 -0.8405
  759MOL0     C 4632   5.932   8.344   6.807  0.1754 -0.3436  0.4053
  759MOL0     C 4633   6.060   8.563   6.850 -0.4567 -0.1512 -0.1704
  759MOL0     C 4634   6.100   8.578   6.706  0.8091  0.6558 -0.1348
  759MOL0     O 4635   6.178   8.475   6.656  0.0865 -0.2993  0.4124
  759MOL0     C 4636   6.184   8.456   6.518 -0.2828  0.1405 -0.2690
  759MOL0     C 4637   6.138   8.342   6.462  0.4684  0.0092 -0.1933
  759MOL0     C 4638   6.121   8.331   6.314  0.3688 -0.8070  0.0426
  759MOL0     C 4639   6.144   8.438   6.225 -0.4245  0.5412 -0.4687
  759MOL0     O 4640   6.129   8.410   6.087 -0.1334  0.3344 -0.1023
  759MOL0     C 4641   6.148   8.509   5.985 -0.3982 -0.2366 -0.2840
  759MOL0     C 4642   6.026   8.584   5.962 -0.5563 -0.3995 -0.7903
  759MOL0     C 4643   5.937   8.501   5.872 -0.2615  0.5732 -1.0586
  759MOL0     C 4644   5.803   8.554   5.863 -0.5729  0.4180  0.6302
  759MOL0     C 4645   5.701   8.449   5.799 -0.0216  0.7833  0.4601
  759MOL0     C 4646   5.740   8.411   5.645 -0.3789  0.0383 -0.4436
  759MOL0     C 4647   5.654   8.314   5.581 -0.3574 -0.1463  0.9753
  759MOL0     C 4648   5.656   8.321   5.428 -0.2264  0.9075  0.2161
  759MOL0    Cl 4649   5.640   8.478   5.355 -0.2041 -0.4508  0.1705
  759MOL0     C 4650   6.182   8.561   6.292 -0.4860  0.3559 -0.0867
  759MOL0     C 4651   6.205   8.564   6.433  0.3498 -0.3089 -0.5295
  759MOL0     O 4652   6.066   8.682   6.654  0.1809 -0.3270 -0.1011
  759MOL0     C 4653   6.068   8.672   6.940  0.2337 -0.6843  0.2109
  759MOL0     C 4654   6.043   8.653   7.078  0.2507  0.3155 -0.6337
  759MOL0     N 4655   5.315   8.507   7.237 -0.1774  0.3886 -1.6556
  759MOL0     N 4656   5.231   8.602   7.254 -0.2293 -0.3383 -0.5223
  759MOL0     C 4657   4.681   8.933   8.234  0.3503 -0.7915  0.3226
  759MOL0     C 4658   4.748   8.960   8.356  0.0546 -0.3076 -0.2685
  759MOL0     C 4659   4.887   9.230   8.719  0.0027  0.0425 -0.4001
  759MOL0     C 4660   5.014   9.167   8.736 -0.9107 -0.0019  0.6131
  759MOL0     C 4661   5.103   9.203   8.835  1.4494 -0.1607  0.4538
  759MOL0     C 4662   5.080   9.328   8.901 -0.6270  1.3601 -0.0851
  759MOL0     O 4663   5.172   9.361   8.994 -0.4583 -0.5081  0.5199
  759MOL0     C 4664   5.178   9.504   9.037  0.1915 -0.0650 -0.5253
  759MOL0     C 4665   5.298   9.533   9.131 -0.0654 -0.6462  0.5931
  759MOL0     C 4666   5.416   9.476   9.065 -0.6942  1.2663 -0.3718
  759MOL0     C 4667   5.549   9.507   9.144  0.0885 -0.9006 -0.2355
  759MOL0     C 4668   5.665   9.419   9.121  0.3556 -0.5442 -0.6756
  759MOL0     C 4669   5.768   9.360   9.106  0.0305 -0.2697 -0.0806
  759MOL0     C 4670   4.958   9.393   8.882 -1.0792 -0.9536 -0.2322
  759MOL0     C 4671   4.866   9.352   8.787  0.0954  0.6131  0.2793
  759MOL0     C 4672   4.753   9.443   8.744 -0.1761 -0.1118  0.0007
  759MOL0     H 4673   4.816   9.283   8.305 -1.4975  0.3806  0.6913
  759MOL0     H 4674   4.718   9.222   8.071 -0.8934 -3.0426 -1.1096
  759MOL0     H 4675   4.581   9.179   7.911  0.6801  1.2093  1.1606
  759MOL0     H 4676   4.546   9.035   7.820 -0.1094  3.7867 -1.1578
  759MOL0     H 4677   4.737   9.121   7.734  0.0965  1.8422  1.6703
  759MOL0     H 4678   4.833   9.123   7.878  0.5120  1.0931 -0.0688
  759MOL0     H 4679   4.814   8.874   7.904  0.7456 -0.5153 -0.2607
  759MOL0     H 4680   4.708   8.856   7.771  0.5307 -1.4340  2.5184
  759MOL0     H 4681   4.876   8.957   7.616 -0.2452 -1.2216 -0.7448
  759MOL0     H 4682   4.987   8.962   7.756  0.9554  0.2003 -3.0224
  759MOL0     H 4683   4.872   8.691   7.693 -0.8861  0.3703  1.8929
  759MOL0     H 4684   5.016   8.726   7.756 -4.8246 -4.7212  2.8310
  759MOL0     H 4685   5.035   8.638   7.548 -2.2497 -0.0824 -0.1883
  759MOL0     H 4686   4.982   8.778   7.451  1.4629  0.6482  0.3586
  759MOL0     H 4687   5.231   8.770   7.616 -2.7265 -2.1326  0.4028
  759MOL0     H 4688   5.158   8.922   7.565 -0.0770  0.4637 -1.4333
  759MOL0     H 4689   5.173   8.855   7.324  0.9497  0.8748  0.9125
  759MOL0     H 4690   5.317   8.866   7.407 -2.1986  3.1790 -0.9299
  759MOL0     H 4691   5.413   8.638   7.527 -0.4050  1.3323  0.2997
  759MOL0     H 4692   5.508   8.325   7.289  1.5765 -0.5822  1.1926
  759MOL0     H 4693   5.478   8.336   7.454  0.2093 -0.5379 -0.6892
  759MOL0     H 4694   5.668   8.500   7.471  1.6699 -0.1165  0.4724
  759MOL0     H 4695   5.704   8.354   7.382 -0.1635 -0.6591  3.7959
  759MOL0     H 4696   5.686   8.461   7.163 -1.4034 -2.0087  1.3284
  759MOL0     H 4697   5.603   8.606   7.225 -1.3658 -2.5494 -2.9005
  759MOL0     H 4698   5.815   8.699   7.208 -0.8143 -0.0436 -0.4161
  759MOL0     H 4699   5.814   8.652   7.379 -0.3794  1.5528 -1.1887
  759MOL0     H 4700   5.883   8.349   7.070 -1.2937 -1.1810 -0.6395
  759MOL0     H 4701   6.019   8.281   6.785 -0.2272 -0.9624  0.5714
  759MOL0     H 4702   5.900   8.384   6.710 -0.6547  2.2186  1.6593
  759MOL0     H 4703   5.855   8.280   6.850  0.9034  0.3635  2.9044
  759MOL0     H 4704   6.112   8.254   6.520  3.9331  0.3510  2.2125
  759MOL0     H 4705   6.086   8.239   6.269  3.3505 -2.4539  0.8259
  759MOL0     H 4706   6.216   8.581   6.030 -2.5070  2.5573 -1.3221
  759MOL0     H 4707   6.188   8.482   5.887  2.0255  1.7383  0.0718
  759MOL0     H 4708   5.990   8.616   6.060 -0.3942 -0.9362 -0.5489
  759MOL0     H 4709   6.055   8.674   5.908  0.0842  0.9997  1.7037
  759MOL0     H 4710   5.941   8.397   5.904 -0.1721  1.4019  1.9224
  759MOL0     H 4711   5.979   8.513   5.772 -0.6953  0.6299 -1.2385
  759MOL0     H 4712   5.786   8.641   5.799 -1.1011 -1.5952 -2.1685
  759MOL0     H 4713   5.784   8.591   5.964  0.7700 -0.0572  1.0675
  759MOL0     H 4714   5.700   8.360   5.862  2.0463  1.2978  1.3026
  759MOL0     H 4715   5.598   8.486   5.810 -1.8525 -3.5083 -0.4779
  759MOL0     H 4716   5.842   8.382   5.618 -0.6912 -1.8870  0.2784
  759MOL0     H 4717   5.721   8.506   5.594  1.1591  0.0531 -1.0490
  759MOL0     H 4718   5.547   8.332   5.595 -0.6435 -1.0046  0.0112
  759MOL0     H 4719   5.689   8.217   5.619 -0.9531  0.4717  3.3005
  759MOL0     H 4720   5.595   8.253   5.368  3.4065 -1.9138 -0.6202
  759MOL0     H 4721   5.753   8.277   5.406 -0.5199  0.2907  0.1345
  759MOL0     H 4722   6.204   8.647   6.230  2.8603 -1.6285 -1.9472
  759MOL0     H 4723   6.236   8.660   6.474  2.2155 -0.7157 -0.8980
  759MOL0     H 4724   6.112   8.762   6.897  0.0884 -0.8731 -0.3407
  759MOL0     H 4725   6.058   8.736   7.145  1.7412  1.0768 -1.8674
  759MOL0     H 4726   4.643   8.835   8.209 -2.8079  0.4767 -0.3301
  759MOL0     H 4727   4.772   8.872   8.415 -1.7126 -0.8819 -0.3603
  759MOL0     H 4728   5.047   9.086   8.671  0.8180  1.8622 -0.9609
  759MOL0     H 4729   5.197   9.152   8.854  0.6863 -1.4869  0.8336
  759MOL0     H 4730   5.185   9.564   8.946  1.2232 -1.5837 -1.5100
  759MOL0     H 4731   5.081   9.522   9.083 -0.0672 -2.3881 -0.0335
  759MOL0     H 4732   5.281   9.493   9.231 -0.7017  0.0358  0.7638
  759MOL0     H 4733   5.301   9.641   9.147 -0.8107 -0.7895  1.8082
  759MOL0     H 4734   5.404   9.368   9.054 -1.1014  1.3104 -0.3941
  759MOL0     H 4735   5.418   9.510   8.961  0.1965  0.9665 -0.4645
  759MOL0     H 4736   5.535   9.526   9.251  0.3453 -1.5100 -0.0904
  759MOL0     H 4737   5.585   9.602   9.103 -0.3334 -0.1251  1.1490
  759MOL0     H 4738   5.867   9.321   9.088 -0.0920 -0.8555  0.4808
  759MOL0     H 4739   4.924   9.485   8.929 -0.2770 -1.9149  2.3513
  759MOL0     H 4740   4.663   9.386   8.768 -0.4215  0.1140 -0.3784
  759MOL0     H 4741   4.757   9.544   8.786 -3.2649  0.1107  0.0028
  759MOL0     H 4742   4.761   9.470   8.639  0.7794 -0.5178 -0.0390
  760MOL0     O 4743   2.217   7.552   0.984  1.0865  0.6816  0.7745
  760MOL0     C 4744   2.198   7.465   1.072  1.7578 -0.1085  0.7883
  760MOL0     O 4745   2.286   7.391   1.138  0.0859 -1.0728 -0.0411
  760MOL0     C 4746   2.414   7.407   1.087 -0.0854  0.4263  0.6328
  760MOL0     C 4747   2.439   7.365   0.952 -0.0537  0.5592 -0.5503
  760MOL0     C 4748   2.570   7.382   0.896  1.5798 -0.5498  0.0246
  760MOL0     C 4749   2.666   7.446   0.971  0.2031 -0.1694 -0.0635
  760MOL0     O 4750   2.788   7.483   0.931 -0.1200  0.1956  0.9381
  760MOL0     C 4751   2.824   7.465   0.791  0.0510  0.3083 -0.3288
  760MOL0     C 4752   2.969   7.504   0.753 -0.2879  0.6956 -0.4014
  760MOL0     C 4753   2.989   7.501   0.600 -0.4370 -0.0352 -0.9521
  760MOL0     C 4754   2.902   7.607   0.532  0.0026  0.5061  0.1119
  760MOL0     C 4755   2.970   7.656   0.401 -0.3202 -0.0343  0.5820
  760MOL0     C 4756   3.018   7.553   0.291 -0.7656 -0.0058 -0.8411
  760MOL0     C 4757   3.091   7.620   0.175 -0.8006 -0.1649  0.9429
  760MOL0     C 4758   3.228   7.684   0.184  0.4739 -0.3970 -0.3723
  760MOL0     N 4759   3.347   7.593   0.201 -0.1876  0.1070  0.3493
  760MOL0     C 4760   3.361   7.466   0.256  0.4244 -0.3853  0.1152
  760MOL0     C 4761   3.482   7.435   0.226 -0.9957  0.7187  0.0457
  760MOL0     C 4762   3.555   7.312   0.267  0.8342  0.3932 -1.1395
  760MOL0     C 4763   3.639   7.336   0.393  0.0404 -0.1559  0.2366
  760MOL0     C 4764   3.656   7.205   0.468  0.4841  0.6223 -0.3495
  760MOL0     C 4765   3.805   7.181   0.478  0.5322  0.2491  0.3423
  760MOL0     O 4766   3.863   7.150   0.352  0.4294  0.0922  0.7380
  760MOL0     C 4767   3.865   7.018   0.302 -0.0213 -0.6067  0.0229
  760MOL0     C 4768   3.933   6.992   0.182  0.4920  0.0216  0.0939
  760MOL0     C 4769   3.958   6.870   0.130  0.9218  0.5709 -0.5636
  760MOL0     C 4770   4.047   6.860   0.005 -0.3380  0.4867 -0.3060
  760MOL0     C 4771   3.907   6.757   0.194  0.3131 -0.1833 -0.5253
  760MOL0     C 4772   3.908   6.616   0.140  0.2176 -0.3523 -0.4208
  760MOL0     O 4773   3.858   6.521   0.227 -0.0281 -0.1714 -1.3358
  760MOL0     C 4774   3.853   6.393   0.183  0.5366  0.3132  0.9053
  760MOL0     C 4775   3.967   6.330   0.127 -0.2393  0.1079 -0.6324
  760MOL0     C 4776   3.953   6.199   0.091 -0.9158 -0.7370  0.4532
  760MOL0     C 4777   3.827   6.131   0.083  0.1601 -1.0352  0.3366
  760MOL0     O 4778   3.804   5.996   0.048 -0.1925  0.3643  0.1452
  760MOL0     C 4779   3.928   5.911   0.043 -0.1755  0.1344 -0.5401
  760MOL0     C 4780   3.883   5.767   0.009 -0.7621 -0.3287  0.8131
  760MOL0     C 4781   3.814   5.681   0.122  0.1378  0.2572  0.0868
  760MOL0     C 4782   3.845   5.535   0.120  0.6513 -0.0821  0.5970
  760MOL0     C 4783   3.809   5.477   0.259 -0.3846  0.8622 -0.1740
  760MOL0     C 4784   3.850   5.334   0.268  0.9342 -0.3698  0.0612
  760MOL0     C 4785   3.807   5.270   0.403 -1.4504  0.2200 -0.4539
  760MOL0     C 4786   3.666   5.219   0.415  0.4152 -0.3077 -0.3433
  760MOL0    Cl 4787   3.631   5.061   0.333  0.5039 -0.0077 -0.2549
  760MOL0     C 4788   3.717   6.202   0.126  0.1917 -0.6277 -0.3162
  760MOL0     C 4789   3.732   6.325   0.186  0.8014 -0.7490  0.3945
  760MOL0     O 4790   3.939   6.599   0.024 -0.0218  0.3447  0.3930
  760MOL0     C 4791   3.841   6.778   0.313  0.5735 -0.4244 -0.1954
  760MOL0     C 4792   3.818   6.909   0.368  0.2869 -0.7521  0.1990
  760MOL0     N 4793   3.552   7.536   0.159  0.0225  0.2228 -0.0112
  760MOL0     N 4794   3.462   7.623   0.125 -0.3204 -0.6764  0.3197
  760MOL0     C 4795   2.631   7.499   1.095  0.2109 -0.9799 -0.2313
  760MOL0     C 4796   2.511   7.480   1.162  0.2761 -0.0278  0.1938
  760MOL0     C 4797   2.050   7.423   1.084 -0.0981 -0.0943 -0.7639
  760MOL0     C 4798   1.959   7.453   0.973  0.3252 -0.5892  0.0810
  760MOL0     C 4799   1.833   7.394   0.967 -0.6255 -0.8097 -0.4234
  760MOL0     C 4800   1.781   7.322   1.078 -0.0740  0.5804 -0.4776
  760MOL0     O 4801   1.656   7.263   1.060  0.5334 -0.5446 -0.5916
  760MOL0     C 4802   1.589   7.197   1.172  0.7199 -1.0424 -0.1488
  760MOL0     C 4803   1.445   7.205   1.131  0.3281 -0.0945  0.4267
  760MOL0     C 4804   1.404   7.148   0.980 -0.0467 -0.7856 -0.5248
  760MOL0     C 4805   1.450   7.013   0.931 -0.0648  0.1744  0.0037
  760MOL0     C 4806   1.380   6.901   1.008 -1.0858  1.0884 -0.2142
  760MOL0     C 4807   1.345   6.814   1.092  0.5537 -0.8033  0.2463
  760MOL0     C 4808   1.866   7.301   1.189 -0.8472 -0.1725 -0.1055
  760MOL0     C 4809   1.997   7.351   1.190  0.1279 -0.3775 -0.0116
  760MOL0     C 4810   2.070   7.319   1.318  0.3592  0.3292  0.3094
  760MOL0     H 4811   2.369   7.318   0.883 -0.2771 -2.1652  1.3429
  760MOL0     H 4812   2.598   7.339   0.801  1.6800 -1.1263  0.3091
  760MOL0     H 4813   2.747   7.515   0.732 -1.2377  0.1003  1.0845
  760MOL0     H 4814   2.817   7.355   0.788 -0.5551  0.3321  0.0338
  760MOL0     H 4815   2.982   7.601   0.802  0.7904  0.6706 -0.6118
  760MOL0     H 4816   3.042   7.443   0.806 -0.7377  2.7049  2.7851
  760MOL0     H 4817   3.096   7.513   0.581  0.0450 -3.2508 -0.7598
  760MOL0     H 4818   2.964   7.402   0.562 -1.7686 -1.9816  4.2091
  760MOL0     H 4819   2.807   7.561   0.507 -0.2758  0.1759  1.6439
  760MOL0     H 4820   2.880   7.691   0.598  0.8012 -0.8927  2.2795
  760MOL0     H 4821   3.059   7.712   0.430 -0.2067 -0.3580  0.8719
  760MOL0     H 4822   2.901   7.723   0.350 -0.2400 -1.8724 -2.1011
  760MOL0     H 4823   3.069   7.470   0.340 -3.3077 -3.0635 -3.0078
  760MOL0     H 4824   2.920   7.516   0.260 -2.1945  1.5381  1.5353
  760MOL0     H 4825   3.026   7.690   0.121 -0.1925 -0.3748 -0.1016
  760MOL0     H 4826   3.104   7.543   0.099 -0.4871 -2.0224  2.7965
  760MOL0     H 4827   3.240   7.743   0.093 -0.9983  4.2055  2.0953
  760MOL0     H 4828   3.220   7.757   0.265 -1.6600 -0.9946  0.0233
  760MOL0     H 4829   3.292   7.404   0.313  2.4514 -1.8654  1.0967
  760MOL0     H 4830   3.620   7.270   0.190 -0.4556 -0.9552 -1.5433
  760MOL0     H 4831   3.482   7.239   0.303  2.5956 -1.5557 -1.3305
  760MOL0     H 4832   3.734   7.385   0.371 -0.1539 -0.1792 -0.6823
  760MOL0     H 4833   3.591   7.410   0.457  0.3823 -1.2404  1.7930
  760MOL0     H 4834   3.601   7.203   0.562  0.2232 -4.1025 -0.3553
  760MOL0     H 4835   3.614   7.112   0.429  0.5446 -0.5677  2.2029
  760MOL0     H 4836   3.859   7.271   0.511  0.9623  0.1361 -0.0352
  760MOL0     H 4837   3.827   7.103   0.551 -1.6814 -0.2026  0.5901
  760MOL0     H 4838   3.968   7.083   0.135  0.0596  1.2424  2.0069
  760MOL0     H 4839   3.992   6.831  -0.085  1.3908  0.7195 -1.4754
  760MOL0     H 4840   4.127   6.790   0.028 -0.8879  0.4569  1.7713
  760MOL0     H 4841   4.089   6.958  -0.017  0.2932  0.2546 -0.1530
  760MOL0     H 4842   4.056   6.390   0.139 -0.9075  0.8386  1.0218
  760MOL0     H 4843   4.044   6.140   0.079  0.5091  0.1662  5.0012
  760MOL0     H 4844   4.001   5.950  -0.028  1.2089 -0.6840  0.3807
  760MOL0     H 4845   3.982   5.905   0.138 -0.4718 -1.8424 -0.4736
  760MOL0     H 4846   3.804   5.777  -0.066 -0.4582 -0.3023  0.4943
  760MOL0     H 4847   3.966   5.713  -0.037 -3.2267 -1.6716 -2.4317
  760MOL0     H 4848   3.706   5.697   0.116 -0.3455 -2.9288 -4.2346
  760MOL0     H 4849   3.839   5.721   0.221  1.5487 -1.1344  0.3350
  760MOL0     H 4850   3.952   5.523   0.099  0.1019  0.2619 -3.0737
  760MOL0     H 4851   3.781   5.481   0.050 -0.5630  0.4994  1.2183
  760MOL0     H 4852   3.853   5.532   0.342 -2.7230 -1.0931  2.5517
  760MOL0     H 4853   3.700   5.488   0.267 -0.3448  0.8210  0.4136
  760MOL0     H 4854   3.959   5.324   0.260  1.2034  1.6811  0.6577
  760MOL0     H 4855   3.804   5.277   0.187 -0.6140 -0.0916  0.7180
  760MOL0     H 4856   3.835   5.339   0.483  0.8540  2.1642 -2.7707
  760MOL0     H 4857   3.881   5.191   0.422  1.6011  2.7586 -0.8884
  760MOL0     H 4858   3.608   5.296   0.364  3.7639  1.5843 -1.6858
  760MOL0     H 4859   3.634   5.208   0.518 -0.1187  0.1987 -0.4529
  760MOL0     H 4860   3.627   6.140   0.121  1.6403 -2.7255 -3.3388
  760MOL0     H 4861   3.647   6.374   0.233  0.3967 -1.6851  0.6572
  760MOL0     H 4862   3.807   6.687   0.359  0.7285 -1.3865 -1.8925
  760MOL0     H 4863   3.763   6.926   0.460 -0.2792  0.9010 -0.4128
  760MOL0     H 4864   2.707   7.555   1.148 -1.2387  0.3554  0.5413
  760MOL0     H 4865   2.502   7.527   1.260  3.6338 -1.8466  1.5360
  760MOL0     H 4866   1.990   7.521   0.894  0.5913  3.7894  3.5149
  760MOL0     H 4867   1.763   7.419   0.888 -1.4572  0.4244  0.6606
  760MOL0     H 4868   1.626   7.094   1.181  1.7163 -0.8152 -1.3753
  760MOL0     H 4869   1.602   7.255   1.264 -0.7989  1.8711 -1.6601
  760MOL0     H 4870   1.411   7.308   1.139 -2.1325 -0.7831 -0.3202
  760MOL0     H 4871   1.380   7.146   1.196 -0.7782  1.6906  0.9918
  760MOL0     H 4872   1.295   7.142   0.990  0.1838 -2.5521  1.9494
  760MOL0     H 4873   1.431   7.227   0.909 -1.5834 -0.7203 -1.0814
  760MOL0     H 4874   1.558   7.000   0.934 -0.1712 -1.1544 -1.0461
  760MOL0     H 4875   1.419   7.010   0.826 -3.1014 -1.8682  0.8113
  760MOL0     H 4876   1.292   6.747   1.158 -1.0545  1.1206  1.0103
  760MOL0     H 4877   1.835   7.223   1.259  0.8847 -0.0963  0.7935
  760MOL0     H 4878   2.114   7.414   1.350 -0.0928  0.4441  0.5879
  760MOL0     H 4879   1.995   7.286   1.390  0.6658 -2.9889 -0.6996
  760MOL0     H 4880   2.146   7.244   1.292 -1.0260 -0.3182 -2.1898
  761MOL0     O 4881   6.961   7.535   2.973  0.1123 -0.5768  0.7346
  761MOL0     C 4882   7.014   7.644   3.014  0.3600  0.3854 -0.5615
  761MOL0     O 4883   6.944   7.750   3.067 -0.8830  0.3951  0.6489
  761MOL0     C 4884   6.818   7.716   3.111  0.1844  0.3077 -0.1865
  761MOL0     C 4885   6.711   7.672   3.029  0.2260 -0.1186 -0.2672
  761MOL0     C 4886   6.588   7.624   3.082  0.5968  0.0913  0.5706
  761MOL0     C 4887   6.559   7.643   3.218  0.3433 -0.8167  0.4169
  761MOL0     O 4888   6.436   7.627   3.264 -0.1384 -0.6590 -0.2721
  761MOL0     C 4889   6.316   7.624   3.184  0.5923  0.6169 -0.2665
  761MOL0     C 4890   6.199   7.692   3.261  0.6242  0.6098 -0.1683
  761MOL0     C 4891   6.236   7.798   3.369 -0.6038 -0.0491 -0.7075
  761MOL0     C 4892   6.119   7.888   3.394  0.0490 -0.3478 -0.2300
  761MOL0     C 4893   5.998   7.825   3.459 -1.1845 -0.3415 -0.3889
  761MOL0     C 4894   5.865   7.883   3.425 -0.3659 -0.2058  0.4598
  761MOL0     C 4895   5.748   7.813   3.489  0.6672  0.4495 -0.7789
  761MOL0     C 4896   5.759   7.794   3.640 -0.6365 -0.0803  0.4606
  761MOL0     N 4897   5.760   7.922   3.716  0.5599  0.2282 -1.1145
  761MOL0     C 4898   5.842   7.950   3.818 -0.6407 -0.1654 -0.9325
  761MOL0     C 4899   5.795   8.069   3.866 -0.3673 -0.0771 -1.9385
  761MOL0     C 4900   5.862   8.124   3.991 -0.7002  0.1059 -0.3555
  761MOL0     C 4901   5.915   8.018   4.088 -0.7719 -0.6116 -0.3208
  761MOL0     C 4902   5.797   7.957   4.166 -0.2256  0.0081  0.4761
  761MOL0     C 4903   5.710   7.847   4.099  0.0557 -0.6435  0.2245
  761MOL0     O 4904   5.674   7.754   4.197  0.2391  0.2021  0.2505
  761MOL0     C 4905   5.770   7.661   4.235  1.0207  0.1159  0.9034
  761MOL0     C 4906   5.742   7.608   4.356 -0.2787 -0.0290  0.4065
  761MOL0     C 4907   5.822   7.512   4.423 -0.6545 -0.2039 -0.0837
  761MOL0     C 4908   5.763   7.447   4.552  0.5068 -0.0272 -0.1893
  761MOL0     C 4909   5.940   7.473   4.353 -0.1196  0.7973 -0.5792
  761MOL0     C 4910   6.030   7.366   4.399  0.4092  0.7974  0.4227
  761MOL0     O 4911   6.153   7.362   4.334 -0.6648 -0.2980 -0.3320
  761MOL0     C 4912   6.236   7.260   4.329 -0.4894  0.0163  0.6838
  761MOL0     C 4913   6.306   7.235   4.208  0.7971 -0.3620 -0.6827
  761MOL0     C 4914   6.394   7.129   4.190 -0.6236  0.2040  0.2805
  761MOL0     C 4915   6.416   7.047   4.302 -0.2672  0.1981  0.3093
  761MOL0     O 4916   6.493   6.938   4.279 -0.3926 -0.5497 -0.6631
  761MOL0     C 4917   6.624   6.949   4.215  0.3525  0.0507 -0.1746
  761MOL0     C 4918   6.733   6.925   4.316  0.1507 -0.5403 -0.2972
  761MOL0     C 4919   6.872   6.941   4.245 -0.4810  0.4847  1.0658
  761MOL0     C 4920   6.977   6.957   4.352 -0.0906  0.0232  0.0709
  761MOL0     C 4921   7.128   6.950   4.309  0.2631  0.3968  0.5600
  761MOL0     C 4922   7.203   6.972   4.438 -0.6550 -0.2082  0.8641
  761MOL0     C 4923   7.359   6.990   4.416  0.2014  0.3013  1.0368
  761MOL0     C 4924   7.429   7.053   4.539  0.7045  0.0009 -0.3630
  761MOL0    Cl 4925   7.351   7.195   4.618 -0.2417  0.2174  0.4256
  761MOL0     C 4926   6.330   7.055   4.415  0.3840  0.9724  0.3618
  761MOL0     C 4927   6.240   7.169   4.431 -0.3871 -0.9517  0.0086
  761MOL0     O 4928   5.983   7.278   4.481 -0.4589 -0.3677 -0.1711
  761MOL0     C 4929   5.968   7.536   4.231 -0.4228 -0.5721 -0.0204
  761MOL0     C 4930   5.890   7.634   4.177 -0.1438 -0.2070  0.3923
  761MOL0     N 4931   5.687   8.110   3.790  0.1137  0.0624  1.0248
  761MOL0     N 4932   5.664   8.020   3.699 -0.4813  0.4272 -0.0125
  761MOL0     C 4933   6.663   7.687   3.295  0.0085 -0.2389 -0.0461
  761MOL0     C 4934   6.801   7.717   3.250  0.5585  0.2832 -1.1203
  761MOL0     C 4935   7.169   7.672   2.997  0.9011  0.7595  0.5631
  761MOL0     C 4936   7.215   7.800   3.035  0.6260 -0.0833 -0.7521
  761MOL0     C 4937   7.348   7.832   3.037  0.0648  0.1984  0.9535
  761MOL0     C 4938   7.448   7.731   2.998  0.6002 -0.8312  0.0361
  761MOL0     O 4939   7.578   7.759   3.019  0.3457 -0.6868  0.9618
  761MOL0     C 4940   7.684   7.672   2.984 -0.4308 -0.0958 -0.1877
  761MOL0     C 4941   7.819   7.757   2.988  0.2677  0.1953 -0.2688
  761MOL0     C 4942   7.846   7.813   3.130 -0.4299 -0.7988 -0.0994
  761MOL0     C 4943   7.965   7.909   3.158 -0.2867  0.2540 -0.3027
  761MOL0     C 4944   7.908   8.046   3.163 -0.4996 -0.1049 -0.3976
  761MOL0     C 4945   7.883   8.163   3.154  0.6147 -0.4308  0.2734
  761MOL0     C 4946   7.402   7.610   2.960  0.3198 -0.1236  0.9693
  761MOL0     C 4947   7.265   7.573   2.971 -0.2580 -0.5215 -0.1343
  761MOL0     C 4948   7.228   7.432   2.975 -0.0778  0.5388  0.6304
  761MOL0     H 4949   6.747   7.644   2.930  1.0660 -2.4934  0.6409
  761MOL0     H 4950   6.524   7.570   3.012  2.9945 -0.3780 -1.3778
  761MOL0     H 4951   6.294   7.518   3.170  5.7038 -0.8946  1.0969
  761MOL0     H 4952   6.337   7.678   3.091 -2.1830  0.6815 -0.9497
  761MOL0     H 4953   6.136   7.733   3.181  0.5140  2.4045  0.7847
  761MOL0     H 4954   6.149   7.624   3.330  4.2116 -0.3620  1.6664
  761MOL0     H 4955   6.275   7.751   3.459  0.5847  0.5907 -0.8718
  761MOL0     H 4956   6.315   7.855   3.320  2.3392 -3.9616 -0.9528
  761MOL0     H 4957   6.144   7.975   3.456 -1.3272  1.5405 -2.1824
  761MOL0     H 4958   6.090   7.934   3.299 -0.4426  1.6113  0.8156
  761MOL0     H 4959   6.012   7.835   3.567 -3.6748  3.5255 -0.2505
  761MOL0     H 4960   5.991   7.718   3.433 -0.0577 -0.1840 -1.4875
  761MOL0     H 4961   5.851   7.988   3.451 -3.0986  0.9081 -4.1672
  761MOL0     H 4962   5.866   7.871   3.316 -0.2779 -2.4421  0.6561
  761MOL0     H 4963   5.739   7.716   3.441  0.1619 -1.7529  3.3039
  761MOL0     H 4964   5.656   7.867   3.465 -1.3300 -1.7504  1.4218
  761MOL0     H 4965   5.672   7.734   3.669 -0.4056 -0.2709  0.7738
  761MOL0     H 4966   5.852   7.741   3.661  0.7466  2.4693  1.2119
  761MOL0     H 4967   5.926   7.889   3.849 -1.7540 -2.0174 -1.3959
  761MOL0     H 4968   5.801   8.207   4.027  0.0149  0.0593  1.0535
  761MOL0     H 4969   5.956   8.168   3.955 -1.0834 -0.0299 -1.5632
  761MOL0     H 4970   5.969   7.944   4.028 -0.6338 -1.1712  0.4846
  761MOL0     H 4971   5.990   8.056   4.158 -0.3603  0.5185 -1.3279
  761MOL0     H 4972   5.834   7.907   4.257 -3.0271 -3.8688 -0.2535
  761MOL0     H 4973   5.731   8.036   4.204  1.4492  0.9618  1.5546
  761MOL0     H 4974   5.612   7.875   4.059 -0.6797 -0.0066  2.3430
  761MOL0     H 4975   5.762   7.800   4.015 -0.8298 -0.4462 -0.4458
  761MOL0     H 4976   5.648   7.644   4.397  0.5223  2.0614  0.5286
  761MOL0     H 4977   5.694   7.528   4.577 -1.3993 -1.8082  0.6512
  761MOL0     H 4978   5.826   7.413   4.635 -1.8966  1.1226  2.2579
  761MOL0     H 4979   5.698   7.363   4.526  1.1543 -0.1761 -1.4143
  761MOL0     H 4980   6.291   7.295   4.119  0.3017 -0.6547 -0.8044
  761MOL0     H 4981   6.431   7.123   4.088 -0.1040  1.2125  0.3995
  761MOL0     H 4982   6.639   6.881   4.131  3.5989  1.4356 -0.8931
  761MOL0     H 4983   6.637   7.052   4.180  0.3244 -0.2913 -1.2213
  761MOL0     H 4984   6.722   6.997   4.398 -3.5530 -2.1320  0.8358
  761MOL0     H 4985   6.713   6.827   4.362  0.9469  0.4734  2.4113
  761MOL0     H 4986   6.878   7.024   4.175 -1.6134  0.0392  0.4314
  761MOL0     H 4987   6.894   6.849   4.190  2.5861  1.1628  0.9684
  761MOL0     H 4988   6.967   6.871   4.419  0.9543  1.7484  2.5834
  761MOL0     H 4989   6.943   7.047   4.403 -3.6378 -1.0498 -0.1306
  761MOL0     H 4990   7.165   6.849   4.288 -0.0066  0.3704  0.2067
  761MOL0     H 4991   7.161   7.023   4.235 -1.2306  3.0178  2.3092
  761MOL0     H 4992   7.174   6.907   4.521 -2.2019 -1.3071 -0.4647
  761MOL0     H 4993   7.171   7.073   4.465 -0.1847  0.4059 -0.7160
  761MOL0     H 4994   7.382   7.053   4.330  1.9505 -1.8945 -0.2143
  761MOL0     H 4995   7.401   6.891   4.392  0.1509  0.1614  1.5166
  761MOL0     H 4996   7.530   7.069   4.502  0.6231 -0.7604 -0.9467
  761MOL0     H 4997   7.434   6.977   4.617 -1.7627  3.0740  3.1299
  761MOL0     H 4998   6.337   6.980   4.493  2.1457  0.2835 -0.4179
  761MOL0     H 4999   6.186   7.178   4.524  1.3508  2.6106  0.8355
  761MOL0     H 5000   6.055   7.508   4.173  0.0170 -1.1841  0.9114
  761MOL0     H 5001   5.919   7.684   4.085 -0.8332  0.4899  0.5453
  761MOL0     H 5002   6.647   7.705   3.401  2.1626 -1.1214  0.4951
  761MOL0     H 5003   6.879   7.756   3.314  0.5905  1.0165 -1.5910
  761MOL0     H 5004   7.151   7.870   3.087  0.2143 -0.4152 -0.8037
  761MOL0     H 5005   7.371   7.930   3.077  1.0104  1.1635 -1.7057
  761MOL0     H 5006   7.700   7.594   3.059  0.2003 -3.7993 -3.7866
  761MOL0     H 5007   7.678   7.622   2.887  1.2344 -1.3764  0.3214
  761MOL0     H 5008   7.802   7.839   2.918 -2.2223 -0.0712 -0.0498
  761MOL0     H 5009   7.904   7.692   2.963  0.5860 -0.1197  1.5222
  761MOL0     H 5010   7.758   7.861   3.174 -0.2690 -0.6114  0.0170
  761MOL0     H 5011   7.879   7.724   3.185  0.6145 -0.8518 -0.8003
  761MOL0     H 5012   8.035   7.885   3.078  0.0250 -3.0541  0.8118
  761MOL0     H 5013   8.008   7.893   3.257 -1.6001 -1.2133  0.0823
  761MOL0     H 5014   7.879   8.265   3.122  2.4239  0.0846  1.5104
  761MOL0     H 5015   7.467   7.528   2.933  0.0327  0.4523 -1.7601
  761MOL0     H 5016   7.320   7.372   2.972  2.1445  3.6954  0.4585
  761MOL0     H 5017   7.178   7.404   3.068 -0.2972 -0.1489  0.3083
  761MOL0     H 5018   7.180   7.409   2.880  1.7856 -0.7631 -0.0533
  762MOL0     O 5019  11.041   2.320   8.959 -0.5114 -0.1566 -0.3186
  762MOL0     C 5020  11.031   2.219   8.894  0.4903  0.0517  0.7107
  762MOL0     O 5021  10.943   2.211   8.796 -0.1670 -0.5234  0.3422
  762MOL0     C 5022  10.845   2.317   8.790 -0.4547 -0.0340  0.1278
  762MOL0     C 5023  10.836   2.399   8.678 -0.5368  0.2748  0.9683
  762MOL0     C 5024  10.749   2.505   8.673 -0.8940  0.2768  0.0741
  762MOL0     C 5025  10.665   2.526   8.778  0.0629 -0.0780  0.0234
  762MOL0     O 5026  10.582   2.638   8.800 -0.1206  0.5270  0.1005
  762MOL0     C 5027  10.504   2.675   8.683  0.4560  0.9366 -0.2152
  762MOL0     C 5028  10.439   2.806   8.716  0.0774 -0.8748  0.0756
  762MOL0     C 5029  10.533   2.917   8.758 -0.1533  0.1671 -0.1347
  762MOL0     C 5030  10.463   3.016   8.841 -0.2660 -0.3633  0.0579
  762MOL0     C 5031  10.541   3.142   8.861 -0.5377 -0.7881  0.1737
  762MOL0     C 5032  10.461   3.250   8.933 -0.4328 -1.2565 -0.7612
  762MOL0     C 5033  10.522   3.385   8.934 -0.4701  0.0835 -0.7770
  762MOL0     C 5034  10.666   3.380   8.989 -0.9227  0.5773 -1.0681
  762MOL0     N 5035  10.734   3.510   8.960  0.5528 -0.5786  0.0381
  762MOL0     C 5036  10.758   3.573   8.840  0.9775 -0.3705  0.5614
  762MOL0     C 5037  10.810   3.696   8.873  0.4050  0.7896  0.4028
  762MOL0     C 5038  10.846   3.801   8.773 -0.6021 -0.5549 -0.1374
  762MOL0     C 5039  11.008   3.836   8.765  0.7209 -0.6171  0.0441
  762MOL0     C 5040  11.051   3.942   8.866  1.0219  0.5941 -0.3761
  762MOL0     C 5041  11.191   4.004   8.831 -0.3701 -0.0487 -0.4136
  762MOL0     O 5042  11.181   4.105   8.731  0.1050 -0.6723 -0.4516
  762MOL0     C 5043  11.216   4.235   8.759 -0.0197  0.6640  0.1806
  762MOL0     C 5044  11.123   4.339   8.728  0.3148  0.6332 -0.4034
  762MOL0     C 5045  11.153   4.469   8.766  0.5429 -0.9064  0.4400
  762MOL0     C 5046  11.045   4.573   8.752  0.4791  0.3716  0.8245
  762MOL0     C 5047  11.289   4.509   8.803 -0.1416 -0.4384  0.1208
  762MOL0     C 5048  11.342   4.641   8.813  0.2660  0.5740  0.0002
  762MOL0     O 5049  11.447   4.645   8.900  0.8012  0.0524 -0.3110
  762MOL0     C 5050  11.492   4.768   8.941  0.0171 -0.1905 -0.8897
  762MOL0     C 5051  11.531   4.792   9.079 -0.4671 -0.2769 -0.5149
  762MOL0     C 5052  11.583   4.912   9.119  0.2516 -0.3020  0.1442
  762MOL0     C 5053  11.586   5.020   9.025  0.1345 -0.1710  0.0283
  762MOL0     O 5054  11.627   5.137   9.083  0.2519 -0.2763  0.2531
  762MOL0     C 5055  11.655   5.253   9.001  0.3774  0.5512 -0.1925
  762MOL0     C 5056  11.796   5.239   8.933  0.2685  0.7792  0.3567
  762MOL0     C 5057  11.844   5.375   8.872  0.1427  0.5588 -0.4016
  762MOL0     C 5058  11.801   5.377   8.730  0.5019  0.8960 -0.0724
  762MOL0     C 5059  11.800   5.519   8.681 -0.7623  0.4206 -0.2295
  762MOL0     C 5060  11.787   5.515   8.531  0.2345 -0.0620 -0.8608
  762MOL0     C 5061  11.750   5.654   8.500  0.8743  0.1024  1.1496
  762MOL0     C 5062  11.720   5.660   8.346  0.3042  0.1517 -0.4509
  762MOL0    Cl 5063  11.650   5.820   8.282 -0.1045  0.0467 -0.2416
  762MOL0     C 5064  11.544   5.000   8.896  0.9309  0.2092 -0.5993
  762MOL0     C 5065  11.511   4.874   8.854  0.4399 -0.2032  0.8684
  762MOL0     O 5066  11.289   4.740   8.760 -0.4149  0.7701 -0.3622
  762MOL0     C 5067  11.378   4.403   8.815 -0.0811 -0.4871  0.9456
  762MOL0     C 5068  11.338   4.267   8.801 -0.8358  0.5776 -1.1028
  762MOL0     N 5069  10.833   3.687   9.010 -0.6102 -0.3713 -0.4558
  762MOL0     N 5070  10.791   3.575   9.063  0.4772 -0.3405 -0.1086
  762MOL0     C 5071  10.669   2.442   8.886 -0.3174 -0.3864  0.0894
  762MOL0     C 5072  10.755   2.338   8.900 -0.3803  0.5403 -0.8010
  762MOL0     C 5073  11.111   2.105   8.927 -0.6321  0.4842  0.0388
  762MOL0     C 5074  11.173   2.104   9.048  0.4626 -0.2277 -0.9291
  762MOL0     C 5075  11.250   2.000   9.094  1.1396 -0.1583 -0.0314
  762MOL0     C 5076  11.294   1.896   9.020 -0.2463  0.6892 -0.3981
  762MOL0     O 5077  11.375   1.798   9.070 -0.5780 -0.0502 -0.2261
  762MOL0     C 5078  11.341   1.664   9.048  1.3666  1.0291  0.3099
  762MOL0     C 5079  11.383   1.569   9.160  0.2578  0.2177  1.2402
  762MOL0     C 5080  11.303   1.576   9.286 -0.0915 -0.3625 -0.6472
  762MOL0     C 5081  11.286   1.729   9.348  0.1884  0.6107 -1.2119
  762MOL0     C 5082  11.187   1.724   9.466  0.3891  0.6814  0.8185
  762MOL0     C 5083  11.121   1.713   9.561  0.8346  1.0583  0.5977
  762MOL0     C 5084  11.232   1.900   8.884  0.0187 -1.5716  0.0257
  762MOL0     C 5085  11.145   2.003   8.838  1.1308  0.0425 -0.0794
  762MOL0     C 5086  11.099   1.987   8.698  0.1501 -0.0881  0.7903
  762MOL0     H 5087  10.887   2.369   8.587  2.1301  3.5016  1.2212
  762MOL0     H 5088  10.751   2.570   8.586  1.9466  0.4885  0.2336
  762MOL0     H 5089  10.434   2.597   8.653 -0.7338  2.1503 -0.6543
  762MOL0     H 5090  10.567   2.688   8.594  1.1097  2.1353  0.3852
  762MOL0     H 5091  10.392   2.832   8.620  0.6368 -0.5170 -0.1064
  762MOL0     H 5092  10.352   2.784   8.778 -1.1061 -1.0752 -1.5944
  762MOL0     H 5093  10.606   2.870   8.826 -0.4572  0.6704  0.5468
  762MOL0     H 5094  10.585   2.959   8.671  2.2984  1.2909  1.7310
  762MOL0     H 5095  10.364   3.028   8.796  0.2733  0.7570 -0.9023
  762MOL0     H 5096  10.440   2.972   8.938  0.2512 -1.7771 -0.4218
  762MOL0     H 5097  10.563   3.174   8.759 -3.2694 -0.8067 -0.4962
  762MOL0     H 5098  10.634   3.124   8.916 -0.0616  1.5195  0.2464
  762MOL0     H 5099  10.360   3.258   8.890 -1.2396 -0.3148  1.2014
  762MOL0     H 5100  10.442   3.229   9.038  3.2760  2.8166  1.0067
  762MOL0     H 5101  10.464   3.461   8.987  0.0717  0.2480 -0.4054
  762MOL0     H 5102  10.529   3.418   8.829 -0.9981  1.1892 -0.4840
  762MOL0     H 5103  10.664   3.366   9.098 -1.7256  0.3163 -1.1167
  762MOL0     H 5104  10.725   3.302   8.940  2.3603  1.7751  0.6541
  762MOL0     H 5105  10.723   3.540   8.743 -1.3098  1.6712  0.5863
  762MOL0     H 5106  10.792   3.889   8.809 -2.3663 -2.1124  1.2239
  762MOL0     H 5107  10.820   3.754   8.678  0.5230 -0.0496 -0.7192
  762MOL0     H 5108  11.070   3.747   8.776  0.2430 -0.8117  1.3742
  762MOL0     H 5109  11.029   3.875   8.665  3.3476  0.9683  1.1051
  762MOL0     H 5110  10.979   4.024   8.875  1.9655  1.4044 -0.0667
  762MOL0     H 5111  11.058   3.897   8.966  0.5372  5.8204  2.3953
  762MOL0     H 5112  11.245   4.039   8.919 -0.3732 -2.1814  0.4980
  762MOL0     H 5113  11.261   3.941   8.775  1.3558  0.4812  1.0464
  762MOL0     H 5114  11.024   4.310   8.694  1.9232 -2.2685 -3.1709
  762MOL0     H 5115  11.049   4.598   8.645  1.1702  0.1323  0.7871
  762MOL0     H 5116  11.073   4.663   8.808  1.6221  1.0950 -0.8015
  762MOL0     H 5117  10.945   4.541   8.781  0.5523 -2.1650 -1.3367
  762MOL0     H 5118  11.525   4.706   9.145  3.0428 -1.3281 -1.3563
  762MOL0     H 5119  11.617   4.939   9.219 -0.2729  0.7220  0.0597
  762MOL0     H 5120  11.578   5.262   8.923 -0.6875  3.6862  1.0350
  762MOL0     H 5121  11.638   5.345   9.058 -1.1394  2.3101 -3.2231
  762MOL0     H 5122  11.865   5.222   9.015  0.8986 -0.2487 -0.3598
  762MOL0     H 5123  11.790   5.157   8.861 -0.1858 -1.3413  2.6680
  762MOL0     H 5124  11.951   5.393   8.882  1.1952 -2.1249 -4.3129
  762MOL0     H 5125  11.790   5.462   8.912 -2.5072  0.2107 -2.8504
  762MOL0     H 5126  11.695   5.349   8.724  0.2260  2.1010 -1.6994
  762MOL0     H 5127  11.855   5.307   8.665  0.0266 -0.6352  1.1155
  762MOL0     H 5128  11.707   5.552   8.728 -0.0160  1.5295  0.4989
  762MOL0     H 5129  11.884   5.574   8.725 -1.6014  1.4169  0.1498
  762MOL0     H 5130  11.717   5.431   8.524  0.5112 -0.5371  1.2833
  762MOL0     H 5131  11.885   5.484   8.494 -0.3182 -2.6855 -0.3512
  762MOL0     H 5132  11.815   5.740   8.520  1.0949  0.2580 -0.1343
  762MOL0     H 5133  11.657   5.663   8.557  0.6064 -1.5119  1.0062
  762MOL0     H 5134  11.654   5.579   8.312 -3.0805  2.1321  0.8567
  762MOL0     H 5135  11.813   5.644   8.291 -1.6090  0.4030 -4.0345
  762MOL0     H 5136  11.552   5.082   8.825 -0.1385  1.8631  1.0745
  762MOL0     H 5137  11.496   4.862   8.747  2.1879  1.2578  0.3992
  762MOL0     H 5138  11.486   4.415   8.814 -0.1118 -0.2190  0.8571
  762MOL0     H 5139  11.410   4.186   8.813  0.4140  1.4172 -2.5365
  762MOL0     H 5140  10.606   2.472   8.969  2.7748  3.1141  1.4388
  762MOL0     H 5141  10.760   2.279   8.991 -1.5877  1.3147 -0.2051
  762MOL0     H 5142  11.133   2.173   9.122 -0.8524 -3.0848  1.1815
  762MOL0     H 5143  11.286   2.000   9.196  0.6687  0.4270  0.1429
  762MOL0     H 5144  11.236   1.661   9.016  1.1034  1.5967  1.0755
  762MOL0     H 5145  11.393   1.614   8.966 -2.2335 -0.7962 -1.0949
  762MOL0     H 5146  11.486   1.594   9.187 -0.3855  4.5056  0.5146
  762MOL0     H 5147  11.383   1.464   9.128 -1.0625  0.4157  0.4713
  762MOL0     H 5148  11.204   1.535   9.263  0.0997 -3.0943  2.6573
  762MOL0     H 5149  11.351   1.515   9.362 -1.0679  2.2186  2.2304
  762MOL0     H 5150  11.247   1.796   9.271 -0.2445  0.4598 -1.1313
  762MOL0     H 5151  11.385   1.760   9.383 -1.0244  1.4328  1.8012
  762MOL0     H 5152  11.071   1.692   9.653  0.9991  1.2704  0.7351
  762MOL0     H 5153  11.258   1.816   8.820 -2.4539 -0.4723 -2.6806
  762MOL0     H 5154  10.990   1.979   8.693  0.3690 -3.5876 -1.7667
  762MOL0     H 5155  11.117   2.077   8.639  0.1480  0.3932  1.5146
  762MOL0     H 5156  11.131   1.894   8.651  0.9506  0.6432 -0.1546
  763MOL0     O 5157   0.480   9.223   2.896  0.3211 -0.2306 -0.0720
  763MOL0     C 5158   0.422   9.267   2.801  0.5402 -0.1297 -0.2633
  763MOL0     O 5159   0.302   9.213   2.759  0.1728 -0.1757  0.0980
  763MOL0     C 5160   0.225   9.125   2.833  0.1666  0.2489  1.1787
  763MOL0     C 5161   0.194   9.136   2.966 -0.3506  0.3233  0.2585
  763MOL0     C 5162   0.101   9.042   3.028 -0.0939  0.6999 -0.4625
  763MOL0     C 5163   0.037   8.943   2.960  0.4267 -0.3936 -0.0061
  763MOL0     O 5164  -0.060   8.865   3.020  0.6668 -0.0806  0.6156
  763MOL0     C 5165  -0.118   8.762   2.944  0.9524 -0.3524 -0.2101
  763MOL0     C 5166  -0.249   8.706   3.012 -0.4688  0.2549  0.2829
  763MOL0     C 5167  -0.339   8.795   3.088 -0.5646  0.0122  0.1731
  763MOL0     C 5168  -0.488   8.752   3.104  0.0226  0.1965  0.3818
  763MOL0     C 5169  -0.543   8.840   3.220  0.2345  0.6284  0.7419
  763MOL0     C 5170  -0.701   8.810   3.222 -0.0786 -0.5240  0.5779
  763MOL0     C 5171  -0.775   8.841   3.092 -0.2567 -0.3954 -0.0711
  763MOL0     C 5172  -0.920   8.892   3.094  0.0695  0.5052 -0.1685
  763MOL0     N 5173  -0.927   9.020   3.154 -0.4925  0.6844  1.2282
  763MOL0     C 5174  -0.971   9.049   3.280 -0.3385  0.9099 -0.3144
  763MOL0     C 5175  -0.942   9.183   3.291 -0.7448  0.0112 -0.4911
  763MOL0     C 5176  -0.960   9.258   3.421 -0.7324 -0.3460  0.5128
  763MOL0     C 5177  -0.839   9.343   3.469 -0.0739  0.0772 -0.3937
  763MOL0     C 5178  -0.727   9.253   3.492 -0.6096 -0.2529 -0.4425
  763MOL0     C 5179  -0.597   9.328   3.550 -0.0450  0.7636 -0.0401
  763MOL0     O 5180  -0.607   9.394   3.671  0.4185 -0.8979  1.0064
  763MOL0     C 5181  -0.643   9.325   3.787 -1.0468 -0.1877 -0.4989
  763MOL0     C 5182  -0.686   9.404   3.889 -0.4852  1.2221 -0.8148
  763MOL0     C 5183  -0.747   9.357   4.010  0.3718  0.2019 -0.3704
  763MOL0     C 5184  -0.799   9.462   4.110  0.5754  1.1846 -0.4234
  763MOL0     C 5185  -0.766   9.217   4.028 -0.0166  0.8226  0.3626
  763MOL0     C 5186  -0.838   9.147   4.139 -0.8819  0.5079 -0.2325
  763MOL0     O 5187  -0.874   9.225   4.238  0.1599 -0.2435 -0.0318
  763MOL0     C 5188  -0.964   9.175   4.331 -0.4620 -0.2802  0.1529
  763MOL0     C 5189  -1.092   9.147   4.305 -0.0022 -0.3506 -0.4846
  763MOL0     C 5190  -1.171   9.113   4.412 -0.3235  0.4990  0.1873
  763MOL0     C 5191  -1.132   9.096   4.537  0.2225  0.0711 -0.3412
  763MOL0     O 5192  -1.217   9.048   4.633  0.3364 -0.2220 -0.5449
  763MOL0     C 5193  -1.226   9.123   4.759 -0.0914 -0.2538  0.1433
  763MOL0     C 5194  -1.322   9.070   4.863 -0.3995  1.2190 -0.7450
  763MOL0     C 5195  -1.318   9.150   4.985  0.4160  0.9537 -0.3577
  763MOL0     C 5196  -1.195   9.126   5.081  0.2447  0.2224  0.6333
  763MOL0     C 5197  -1.238   9.132   5.226  0.0284 -0.2245 -0.0865
  763MOL0     C 5198  -1.136   9.062   5.313 -0.1093 -0.3888  0.1895
  763MOL0     C 5199  -1.173   9.035   5.454  0.4910  0.4240 -0.4271
  763MOL0     C 5200  -1.057   9.004   5.555 -0.0610 -0.7464  0.3312
  763MOL0    Cl 5201  -0.933   9.144   5.543 -0.1103  0.8201 -0.4019
  763MOL0     C 5202  -0.997   9.108   4.557  0.6287 -0.5503  0.2157
  763MOL0     C 5203  -0.910   9.152   4.456  0.5783 -0.3965 -0.2035
  763MOL0     O 5204  -0.868   9.026   4.128 -0.7279 -0.2652 -0.6069
  763MOL0     C 5205  -0.728   9.137   3.917  0.1803  0.7429  0.3695
  763MOL0     C 5206  -0.658   9.184   3.799  0.3103 -0.3431 -0.6222
  763MOL0     N 5207  -0.883   9.234   3.176  0.1171  1.2647 -0.5007
  763MOL0     N 5208  -0.871   9.128   3.095 -0.0565  0.2538 -0.1938
  763MOL0     C 5209   0.066   8.940   2.821 -0.5874  0.6216  0.2338
  763MOL0     C 5210   0.161   9.025   2.763 -0.5175 -0.2099  0.0984
  763MOL0     C 5211   0.470   9.382   2.719  0.8993 -0.9297  0.2351
  763MOL0     C 5212   0.399   9.406   2.593  0.1391  0.1144  0.3409
  763MOL0     C 5213   0.423   9.519   2.514  0.1946 -1.1955 -0.0510
  763MOL0     C 5214   0.531   9.603   2.541 -0.3972  0.2267  0.1079
  763MOL0     O 5215   0.555   9.701   2.442 -1.0030 -0.3104 -0.3263
  763MOL0     C 5216   0.685   9.769   2.454 -0.4385 -0.0414  0.2971
  763MOL0     C 5217   0.676   9.896   2.537  0.0738 -0.0526 -0.0517
  763MOL0     C 5218   0.818   9.946   2.582 -0.0938  0.2586 -0.1411
  763MOL0     C 5219   0.899  10.008   2.460 -0.7862 -0.4872  0.5331
  763MOL0     C 5220   1.032  10.058   2.504 -0.8473 -0.4667  0.3391
  763MOL0     C 5221   1.152  10.088   2.528  0.3291  0.2360  0.4717
  763MOL0     C 5222   0.605   9.574   2.651  0.4320 -0.5835  0.0133
  763MOL0     C 5223   0.575   9.469   2.744 -0.6541 -0.0514  0.7119
  763MOL0     C 5224   0.657   9.470   2.876  0.2801 -0.0488  0.9437
  763MOL0     H 5225   0.246   9.210   3.026  0.6784 -0.0447 -0.1443
  763MOL0     H 5226   0.055   9.053   3.125 -1.7250  0.1549 -1.1515
  763MOL0     H 5227  -0.051   8.677   2.933  1.8466  0.4646 -1.3293
  763MOL0     H 5228  -0.145   8.797   2.844  1.0735 -1.3826 -0.6163
  763MOL0     H 5229  -0.318   8.657   2.943 -0.2501  3.5511 -2.5561
  763MOL0     H 5230  -0.223   8.627   3.082  1.2857  0.4394 -0.1100
  763MOL0     H 5231  -0.291   8.801   3.186  3.2622 -4.3860 -1.0484
  763MOL0     H 5232  -0.337   8.896   3.047  1.6686  0.1545  0.4662
  763MOL0     H 5233  -0.539   8.770   3.009  2.2180  1.3583 -0.6422
  763MOL0     H 5234  -0.498   8.645   3.122 -1.3689  0.4093  0.9681
  763MOL0     H 5235  -0.517   8.946   3.212  0.8997  0.3465 -1.7236
  763MOL0     H 5236  -0.505   8.801   3.315 -0.6358 -1.7187  0.2130
  763MOL0     H 5237  -0.719   8.707   3.252 -2.9980 -0.0409  0.7352
  763MOL0     H 5238  -0.743   8.872   3.301  1.7409  2.8003 -0.8359
  763MOL0     H 5239  -0.789   8.754   3.027 -0.9949  1.7618 -3.0671
  763MOL0     H 5240  -0.722   8.912   3.028 -0.7363  2.1002  2.1590
  763MOL0     H 5241  -0.951   8.913   2.991  2.2530 -1.4730 -1.3245
  763MOL0     H 5242  -0.979   8.810   3.137 -0.0277  0.7880  0.2417
  763MOL0     H 5243  -1.022   8.990   3.356 -3.7832  2.5085 -1.1853
  763MOL0     H 5244  -0.987   9.183   3.496 -1.9380 -2.2939 -1.7507
  763MOL0     H 5245  -1.044   9.326   3.408  0.2732  1.5334  2.9865
  763MOL0     H 5246  -0.798   9.404   3.388  2.3513 -3.2651 -1.9132
  763MOL0     H 5247  -0.874   9.396   3.558 -0.3053 -2.2205  0.9491
  763MOL0     H 5248  -0.757   9.176   3.564 -0.4551  0.1229  0.0277
  763MOL0     H 5249  -0.700   9.203   3.399 -1.3625 -1.1156 -0.2202
  763MOL0     H 5250  -0.515   9.257   3.564  1.1744  1.9807 -0.8339
  763MOL0     H 5251  -0.572   9.401   3.473 -0.3094  1.7240  0.7685
  763MOL0     H 5252  -0.677   9.512   3.886 -2.8533  1.4652 -0.6736
  763MOL0     H 5253  -0.780   9.561   4.070  3.0823  0.2555 -1.7593
  763MOL0     H 5254  -0.753   9.433   4.206 -2.3461 -0.2793  0.6544
  763MOL0     H 5255  -0.906   9.445   4.127  0.9495 -0.0996  1.0025
  763MOL0     H 5256  -1.142   9.151   4.209  1.6233 -0.9337 -1.3918
  763MOL0     H 5257  -1.271   9.073   4.393  0.8501 -2.8612  0.3052
  763MOL0     H 5258  -1.131   9.116   4.813  1.2685 -1.9241 -2.2229
  763MOL0     H 5259  -1.247   9.229   4.745 -2.0699 -0.3041  2.3283
  763MOL0     H 5260  -1.424   9.072   4.825 -0.3225  2.2064 -0.9333
  763MOL0     H 5261  -1.288   8.967   4.873 -1.9238  0.6403 -1.2239
  763MOL0     H 5262  -1.408   9.137   5.045  0.9378  3.0686  1.0088
  763MOL0     H 5263  -1.310   9.258   4.969  2.4329  1.0401  0.8575
  763MOL0     H 5264  -1.116   9.199   5.064 -0.9563  1.1395 -1.4446
  763MOL0     H 5265  -1.157   9.026   5.059 -1.4284 -0.0949 -1.1021
  763MOL0     H 5266  -1.256   9.238   5.244 -1.6557 -0.9702  3.6852
  763MOL0     H 5267  -1.335   9.083   5.241  0.8960 -1.4064  2.2229
  763MOL0     H 5268  -1.053   9.132   5.318 -0.8121  1.0971 -4.0410
  763MOL0     H 5269  -1.109   8.967   5.266  0.5547  0.4147 -1.1171
  763MOL0     H 5270  -1.255   8.963   5.461 -0.6631  1.8416  2.3886
  763MOL0     H 5271  -1.219   9.126   5.495 -1.5401 -1.1078  0.8944
  763MOL0     H 5272  -1.002   8.910   5.546  3.1005  1.0474 -0.5840
  763MOL0     H 5273  -1.107   9.002   5.652  1.7740 -1.8816  1.3218
  763MOL0     H 5274  -0.966   9.063   4.651 -0.5136 -0.2798  0.7423
  763MOL0     H 5275  -0.807   9.174   4.483  0.3399  0.1913  0.2719
  763MOL0     H 5276  -0.760   9.034   3.927 -1.9501  1.2877 -0.2478
  763MOL0     H 5277  -0.640   9.112   3.719 -3.2311 -1.8252 -0.2947
  763MOL0     H 5278   0.034   8.861   2.755 -0.6062  2.2635 -1.8373
  763MOL0     H 5279   0.187   9.014   2.658 -0.4475  2.3310 -0.2169
  763MOL0     H 5280   0.308   9.352   2.568  0.1521  0.0062  0.5285
  763MOL0     H 5281   0.355   9.554   2.437  0.9479  1.4512  0.4010
  763MOL0     H 5282   0.766   9.706   2.491 -1.1016 -1.3681 -0.4283
  763MOL0     H 5283   0.727   9.795   2.356  0.1144 -1.1332  0.2220
  763MOL0     H 5284   0.621   9.878   2.630  1.2682  3.2842  1.4476
  763MOL0     H 5285   0.616   9.966   2.478  0.5270  0.4365  0.0578
  763MOL0     H 5286   0.792  10.022   2.656  0.1989  1.1716 -0.9577
  763MOL0     H 5287   0.876   9.861   2.618 -0.5996 -0.5980 -1.2883
  763MOL0     H 5288   0.842  10.092   2.418  0.7213 -0.6955 -2.0827
  763MOL0     H 5289   0.912   9.929   2.386  2.3376  1.4149 -1.1557
  763MOL0     H 5290   1.251  10.109   2.563  0.2143  1.3829  0.1300
  763MOL0     H 5291   0.687   9.641   2.672  0.7403 -1.2021  0.8859
  763MOL0     H 5292   0.731   9.550   2.877  1.2615 -0.9092  3.6599
  763MOL0     H 5293   0.575   9.479   2.948 -0.5856  1.8190 -0.1657
  763MOL0     H 5294   0.703   9.372   2.885 -2.3259 -1.2052  3.0159
  764MOL0     O 5295   1.475   7.063   4.434  0.3712  0.1835 -0.4978
  764MOL0     C 5296   1.440   7.104   4.322 -0.1276 -0.2458 -0.0967
  764MOL0     O 5297   1.313   7.139   4.289  0.8228 -0.1219  0.1315
  764MOL0     C 5298   1.209   7.120   4.376 -0.8314  0.3204 -0.2299
  764MOL0     C 5299   1.136   7.007   4.376  0.4216 -0.0943 -0.1108
  764MOL0     C 5300   1.006   6.993   4.435 -0.1150 -0.1168  0.2914
  764MOL0     C 5301   0.958   7.099   4.504  0.5052 -0.7056 -0.2638
  764MOL0     O 5302   0.831   7.071   4.562 -0.2455 -0.4692  0.6978
  764MOL0     C 5303   0.825   7.126   4.685  0.6421  0.0750 -0.0825
  764MOL0     C 5304   0.688   7.102   4.747 -0.0259  0.2735 -0.6147
  764MOL0     C 5305   0.666   6.948   4.764  0.9681  0.9323 -0.2080
  764MOL0     C 5306   0.599   6.881   4.643 -0.4263  0.1351 -0.9805
  764MOL0     C 5307   0.457   6.928   4.637  0.7664  0.9136 -1.3792
  764MOL0     C 5308   0.399   6.904   4.498  0.5419  0.5769 -0.9753
  764MOL0     C 5309   0.392   7.024   4.415  0.0088 -1.1755  0.5843
  764MOL0     C 5310   0.538   7.065   4.378 -1.0937 -0.3786  0.1305
  764MOL0     N 5311   0.550   7.191   4.299 -0.2529 -0.3058  0.2594
  764MOL0     C 5312   0.456   7.295   4.296 -0.4970 -0.7103  0.1082
  764MOL0     C 5313   0.521   7.400   4.244 -1.0483 -0.2566  0.2335
  764MOL0     C 5314   0.467   7.551   4.229 -0.6468 -0.2601  0.2328
  764MOL0     C 5315   0.390   7.594   4.352  0.3734  0.7396  0.1874
  764MOL0     C 5316   0.340   7.733   4.341 -0.1298 -0.2703 -0.8257
  764MOL0     C 5317   0.447   7.839   4.351 -0.0737  0.1916  0.1846
  764MOL0     O 5318   0.384   7.964   4.331 -0.5209 -0.4159  0.9796
  764MOL0     C 5319   0.382   8.028   4.211  0.4838  0.0412 -0.2044
  764MOL0     C 5320   0.409   7.964   4.090  0.3392  0.1996  0.6233
  764MOL0     C 5321   0.420   8.033   3.965  0.3665  0.6031 -0.2403
  764MOL0     C 5322   0.464   7.953   3.849  0.7451 -0.9232  0.2131
  764MOL0     C 5323   0.377   8.172   3.967  0.8990 -0.1302 -0.3301
  764MOL0     C 5324   0.405   8.268   3.854  0.8558 -0.0353  0.4918
  764MOL0     O 5325   0.462   8.225   3.741 -0.3700 -0.2012 -0.2521
  764MOL0     C 5326   0.511   8.321   3.657  0.1176 -0.4961  0.9520
  764MOL0     C 5327   0.598   8.428   3.685 -0.3251 -0.8127 -0.0917
  764MOL0     C 5328   0.648   8.505   3.587 -0.6629  0.0585 -0.4082
  764MOL0     C 5329   0.596   8.503   3.458 -0.4099 -0.0427 -0.1725
  764MOL0     O 5330   0.640   8.594   3.366  0.6554 -0.2296  0.0357
  764MOL0     C 5331   0.758   8.581   3.294 -0.3203  0.1707  0.2242
  764MOL0     C 5332   0.832   8.721   3.278  1.0680  0.2521  1.0207
  764MOL0     C 5333   0.748   8.837   3.244 -0.9817 -0.1979  0.4924
  764MOL0     C 5334   0.809   8.979   3.268  0.2724 -0.2269  0.0949
  764MOL0     C 5335   0.842   8.992   3.416 -0.0087 -0.6544 -1.0990
  764MOL0     C 5336   0.797   9.121   3.474  0.1534 -0.1115  0.2410
  764MOL0     C 5337   0.822   9.131   3.626 -0.6717  0.2708 -0.4418
  764MOL0     C 5338   0.772   9.258   3.694  0.0684  0.3711 -0.7934
  764MOL0    Cl 5339   0.598   9.214   3.694  0.0560 -0.0861 -0.0740
  764MOL0     C 5340   0.499   8.403   3.426 -1.3753 -0.4540 -0.3332
  764MOL0     C 5341   0.455   8.319   3.527  0.4376  0.8687  0.4647
  764MOL0     O 5342   0.375   8.383   3.879 -0.5432 -0.2164  0.4547
  764MOL0     C 5343   0.345   8.230   4.096 -0.0083 -0.1801  0.0542
  764MOL0     C 5344   0.342   8.159   4.212 -0.5190 -0.2679 -0.5519
  764MOL0     N 5345   0.641   7.354   4.189 -0.4757  0.6743  0.3990
  764MOL0     N 5346   0.660   7.228   4.227  0.2292  0.1390  0.3099
  764MOL0     C 5347   1.034   7.225   4.501 -0.1670  0.3543 -0.4367
  764MOL0     C 5348   1.150   7.237   4.431 -0.4409 -0.0376  0.6059
  764MOL0     C 5349   1.546   7.143   4.222  1.2731  0.0324  0.4611
  764MOL0     C 5350   1.510   7.229   4.113  0.3533 -0.2398 -0.2000
  764MOL0     C 5351   1.596   7.275   4.018  0.9800  0.3151 -0.3439
  764MOL0     C 5352   1.727   7.215   4.007 -0.0058  0.0973 -1.0768
  764MOL0     O 5353   1.825   7.241   3.917  0.4257  0.4606  0.1852
  764MOL0     C 5354   1.783   7.323   3.805 -0.1992 -0.2784 -0.0253
  764MOL0     C 5355   1.906   7.372   3.728 -0.1387 -0.6968  0.1264
  764MOL0     C 5356   1.986   7.260   3.669  0.1549 -0.4976 -0.2035
  764MOL0     C 5357   1.922   7.196   3.542  0.3634  0.3170  0.4119
  764MOL0     C 5358   2.023   7.114   3.481 -0.0214  0.5090 -0.1439
  764MOL0     C 5359   2.109   7.043   3.426  0.4286 -0.5326 -1.3218
  764MOL0     C 5360   1.761   7.132   4.116 -1.8569 -0.1509  0.1850
  764MOL0     C 5361   1.681   7.113   4.227  0.2485 -0.3263  0.6840
  764MOL0     C 5362   1.739   7.036   4.328 -0.2744 -0.4590 -0.7178
  764MOL0     H 5363   1.194   6.921   4.345  0.1455 -0.8928  1.4732
  764MOL0     H 5364   0.952   6.900   4.448 -1.9393  0.9225  0.4251
  764MOL0     H 5365   0.847   7.233   4.686 -3.8424  1.3897  4.6401
  764MOL0     H 5366   0.890   7.076   4.757 -0.9482  0.7623  1.9292
  764MOL0     H 5367   0.689   7.149   4.846  0.7860  1.9511 -1.3688
  764MOL0     H 5368   0.604   7.158   4.706 -1.2206 -1.7012 -0.9856
  764MOL0     H 5369   0.756   6.893   4.792  0.0969  0.8776  2.9292
  764MOL0     H 5370   0.595   6.934   4.847 -0.3417 -0.7204 -1.5378
  764MOL0     H 5371   0.661   6.896   4.555  0.2493 -3.0352 -1.1649
  764MOL0     H 5372   0.608   6.774   4.667  0.4503  1.1146  4.3634
  764MOL0     H 5373   0.443   7.033   4.664 -2.2695  0.8064 -2.1188
  764MOL0     H 5374   0.405   6.857   4.702  3.3801 -0.3888 -0.5671
  764MOL0     H 5375   0.447   6.833   4.430  0.4163  0.0687 -0.5398
  764MOL0     H 5376   0.296   6.876   4.522  0.3952  2.2896  0.6871
  764MOL0     H 5377   0.341   7.108   4.462 -0.0854  0.8532 -2.8280
  764MOL0     H 5378   0.322   6.995   4.337 -0.9944 -0.0647  1.0366
  764MOL0     H 5379   0.607   7.071   4.463 -0.8251  0.9376 -0.1598
  764MOL0     H 5380   0.586   6.984   4.322  0.6233 -0.0232  0.9988
  764MOL0     H 5381   0.356   7.305   4.337 -0.7520  0.7142 -0.7887
  764MOL0     H 5382   0.412   7.566   4.135  0.6908 -0.5357 -0.6325
  764MOL0     H 5383   0.555   7.612   4.210 -0.8063 -0.6138 -1.9305
  764MOL0     H 5384   0.304   7.527   4.360  1.9456 -1.4343 -0.3364
  764MOL0     H 5385   0.454   7.584   4.441  2.1827  1.5044 -0.9630
  764MOL0     H 5386   0.283   7.734   4.248 -0.2748  1.9666 -0.7724
  764MOL0     H 5387   0.277   7.760   4.427  0.9276 -1.1498  0.2635
  764MOL0     H 5388   0.498   7.836   4.448 -1.7952 -2.1081  1.1482
  764MOL0     H 5389   0.529   7.813   4.284  1.6845  0.1653  2.2439
  764MOL0     H 5390   0.424   7.856   4.092  2.6473  0.4637  0.4526
  764MOL0     H 5391   0.444   7.848   3.871  1.1611 -1.0956 -0.2177
  764MOL0     H 5392   0.570   7.967   3.825  0.2856  0.8929 -1.0089
  764MOL0     H 5393   0.410   7.983   3.759  1.2483 -3.2061 -0.9134
  764MOL0     H 5394   0.664   8.440   3.771  2.0592  0.8634 -1.9830
  764MOL0     H 5395   0.723   8.582   3.602 -1.7120  0.9919  0.2303
  764MOL0     H 5396   0.822   8.511   3.349  0.2896 -1.0826 -1.9485
  764MOL0     H 5397   0.742   8.538   3.194  0.3156 -0.3426  0.3357
  764MOL0     H 5398   0.862   8.741   3.381  1.4128 -0.5468  1.0840
  764MOL0     H 5399   0.924   8.715   3.219  0.2581  0.6682 -0.3197
  764MOL0     H 5400   0.660   8.832   3.309 -1.3300  1.4242  0.2021
  764MOL0     H 5401   0.716   8.828   3.140  0.1568 -0.4742  0.1577
  764MOL0     H 5402   0.733   9.052   3.239  1.0579  0.8273  0.6407
  764MOL0     H 5403   0.903   8.995   3.215 -0.8643 -0.2612 -2.0599
  764MOL0     H 5404   0.801   8.911   3.477  0.2702  1.1782  1.7183
  764MOL0     H 5405   0.951   8.988   3.427 -0.2826 -2.1475  3.4577
  764MOL0     H 5406   0.690   9.137   3.458 -0.1371 -0.0049  2.0844
  764MOL0     H 5407   0.851   9.198   3.418  0.7385  0.2522  1.2774
  764MOL0     H 5408   0.931   9.131   3.635 -0.6607  2.2167 -0.3257
  764MOL0     H 5409   0.778   9.042   3.672 -0.1932 -1.2464 -2.6798
  764MOL0     H 5410   0.792   9.347   3.633  1.2573 -0.3546 -1.4922
  764MOL0     H 5411   0.806   9.275   3.796 -1.0452 -1.8654  0.0215
  764MOL0     H 5412   0.462   8.396   3.324 -1.6569  0.6947 -0.3213
  764MOL0     H 5413   0.372   8.251   3.511 -1.3768  2.6217  2.0602
  764MOL0     H 5414   0.315   8.335   4.092  0.2446 -0.1193 -0.3198
  764MOL0     H 5415   0.327   8.207   4.308 -1.4315 -0.2605 -0.6889
  764MOL0     H 5416   0.992   7.315   4.543  1.8034  0.1969  2.0871
  764MOL0     H 5417   1.219   7.319   4.415  0.5774 -0.3701  2.8646
  764MOL0     H 5418   1.417   7.285   4.099  1.8721  2.3061 -0.8975
  764MOL0     H 5419   1.560   7.343   3.941 -2.3776  1.3897  1.9493
  764MOL0     H 5420   1.717   7.265   3.741  2.3086 -5.3771  1.4743
  764MOL0     H 5421   1.721   7.410   3.829 -0.6168 -0.6759  0.3548
  764MOL0     H 5422   1.966   7.432   3.797  0.0278  2.4391 -2.4873
  764MOL0     H 5423   1.871   7.454   3.664  2.4798  1.6863  1.4772
  764MOL0     H 5424   2.088   7.284   3.637  0.2595 -1.0546 -0.3048
  764MOL0     H 5425   1.996   7.177   3.740  0.6220 -2.2014 -2.1301
  764MOL0     H 5426   1.885   7.276   3.477 -1.9569 -0.8862  0.1624
  764MOL0     H 5427   1.839   7.130   3.570  1.4123 -0.8247  0.9387
  764MOL0     H 5428   2.182   6.983   3.374  0.3340 -0.2003 -1.8553
  764MOL0     H 5429   1.861   7.091   4.121 -0.6643  2.5390  0.0387
  764MOL0     H 5430   1.727   7.089   4.423  1.8023  0.5808 -0.9826
  764MOL0     H 5431   1.698   6.934   4.327  0.7495 -0.9224  0.9399
  764MOL0     H 5432   1.848   7.033   4.318 -0.4166  1.0667 -3.9889
  765MOL0     O 5433   0.603   8.601  10.614 -0.1101  0.0785 -0.8552
  765MOL0     C 5434   0.644   8.620  10.499 -0.3673  0.9550  0.0059
  765MOL0     O 5435   0.654   8.736  10.435  0.5312 -0.4451  0.4025
  765MOL0     C 5436   0.672   8.852  10.510 -0.0308  0.9199 -1.2262
  765MOL0     C 5437   0.612   8.969  10.478 -0.3723  0.8600 -0.2898
  765MOL0     C 5438   0.642   9.091  10.544 -0.4476  0.2472  0.4621
  765MOL0     C 5439   0.736   9.089  10.645  0.5177  0.8363  0.7517
  765MOL0     O 5440   0.761   9.195  10.730 -0.2611 -1.5135 -0.2319
  765MOL0     C 5441   0.807   9.306  10.658  0.4640 -0.8288  0.2299
  765MOL0     C 5442   0.879   9.405  10.750  0.4919 -0.4974 -0.5410
  765MOL0     C 5443   0.892   9.540  10.696  0.4756 -0.7824 -0.6543
  765MOL0     C 5444   0.998   9.632  10.765  0.3980  0.3095 -0.3333
  765MOL0     C 5445   0.945   9.659  10.912 -0.0708  0.6469 -0.2486
  765MOL0     C 5446   1.040   9.753  10.981  0.0614  0.3844 -0.1432
  765MOL0     C 5447   1.055   9.890  10.915  0.1874  0.5338 -0.1294
  765MOL0     C 5448   1.089   9.997  11.021 -0.4388 -0.1662 -0.5538
  765MOL0     N 5449   0.968  10.036  11.093  0.6718  0.2974  1.0809
  765MOL0     C 5450   0.904   9.961  11.197  0.6833 -0.7540 -0.0164
  765MOL0     C 5451   0.783  10.028  11.226 -0.9310  0.6928  0.1270
  765MOL0     C 5452   0.673   9.999  11.328 -0.4639 -0.3287 -0.2799
  765MOL0     C 5453   0.724  10.043  11.470 -1.1418  0.4520  0.1881
  765MOL0     C 5454   0.609  10.044  11.566  0.8175  0.9613  0.1794
  765MOL0     C 5455   0.636  10.115  11.698 -0.8589  0.5196 -0.4695
  765MOL0     O 5456   0.512  10.143  11.758  0.5566 -0.7779 -0.1228
  765MOL0     C 5457   0.501  10.082  11.876  0.4512 -0.2278  0.0231
  765MOL0     C 5458   0.407   9.973  11.896  0.2877  0.2395 -0.5155
  765MOL0     C 5459   0.387   9.926  12.027 -0.1496  0.0198  0.0127
  765MOL0     C 5460   0.269   9.829  12.035  0.2787 -0.0217  0.4574
  765MOL0     C 5461   0.475   9.964  12.137  0.7417 -0.3107  0.2125
  765MOL0     C 5462   0.465   9.915  12.273 -0.5858 -0.0706  0.0824
  765MOL0     O 5463   0.576   9.932  12.348  0.9813  0.2157 -0.0332
  765MOL0     C 5464   0.612   9.846  12.450 -0.8638 -0.3145 -0.0733
  765MOL0     C 5465   0.543   9.734  12.496  0.6934  0.5267  0.7622
  765MOL0     C 5466   0.603   9.645  12.582 -0.0223 -0.9348  0.3086
  765MOL0     C 5467   0.729   9.657  12.630  1.3178  0.1390 -0.7071
  765MOL0     O 5468   0.781   9.571  12.730 -0.2701  0.1794  0.1910
  765MOL0     C 5469   0.753   9.430  12.713 -0.4047  0.5951 -0.4385
  765MOL0     C 5470   0.831   9.346  12.811  0.2645  0.1138 -0.8564
  765MOL0     C 5471   0.808   9.194  12.800  0.5913 -0.9811 -0.0298
  765MOL0     C 5472   0.912   9.117  12.883  0.4604 -0.4896  0.0889
  765MOL0     C 5473   0.917   8.972  12.853  0.3552  0.3350 -0.5066
  765MOL0     C 5474   1.060   8.924  12.856  0.4614 -0.4121  0.2657
  765MOL0     C 5475   1.070   8.778  12.838 -0.3483  0.1062 -0.1511
  765MOL0     C 5476   1.197   8.710  12.860 -0.7827 -0.0758 -0.3881
  765MOL0    Cl 5477   1.268   8.740  13.027  0.5442 -0.3843 -0.0458
  765MOL0     C 5478   0.796   9.772  12.596 -0.4209  0.4886  1.1358
  765MOL0     C 5479   0.749   9.866  12.502  0.7965  0.1491 -0.7585
  765MOL0     O 5480   0.354   9.872  12.313 -1.2933 -0.1745  0.4853
  765MOL0     C 5481   0.565  10.062  12.108  0.1594 -0.1412  0.3433
  765MOL0     C 5482   0.583  10.121  11.982  0.6607 -0.1955 -0.2746
  765MOL0     N 5483   0.779  10.138  11.138 -0.2353  0.3520  0.2979
  765MOL0     N 5484   0.884  10.133  11.063 -0.4263  0.4091  0.1439
  765MOL0     C 5485   0.789   8.968  10.692  1.2127  0.1950  0.7519
  765MOL0     C 5486   0.772   8.849  10.613  0.3134 -1.7015 -1.0885
  765MOL0     C 5487   0.663   8.497  10.407  0.2613 -0.2736  0.3000
  765MOL0     C 5488   0.670   8.515  10.274  0.8766  0.0850  0.3900
  765MOL0     C 5489   0.665   8.404  10.180  0.6103 -0.6702 -0.8505
  765MOL0     C 5490   0.694   8.277  10.234  0.1912 -0.0067  0.4836
  765MOL0     O 5491   0.711   8.168  10.154 -0.9281 -1.1614 -0.1503
  765MOL0     C 5492   0.740   8.043  10.214  0.0077 -0.3346 -0.2771
  765MOL0     C 5493   0.746   7.929  10.123 -0.6855  0.3299  0.2623
  765MOL0     C 5494   0.860   7.937  10.021  0.6365 -0.2455 -0.0387
  765MOL0     C 5495   0.882   7.800   9.960 -0.0461  1.2378  0.3737
  765MOL0     C 5496   1.008   7.807   9.874  0.4390  0.5835 -0.3276
  765MOL0     C 5497   1.080   7.838   9.788 -1.2642  0.0038  0.2178
  765MOL0     C 5498   0.684   8.264  10.371  0.2126 -0.1072 -0.4245
  765MOL0     C 5499   0.663   8.367  10.455 -0.4070 -0.1512 -0.3048
  765MOL0     C 5500   0.677   8.328  10.601  0.0071 -0.0844  1.2636
  765MOL0     H 5501   0.532   8.971  10.404 -0.4527  2.3707 -0.1921
  765MOL0     H 5502   0.605   9.188  10.513  0.8368  0.6560  0.1512
  765MOL0     H 5503   0.718   9.357  10.619  0.0281  0.8660  3.1263
  765MOL0     H 5504   0.874   9.272  10.579  1.6344 -0.5508  1.0739
  765MOL0     H 5505   0.818   9.415  10.841  1.5746 -3.9682  0.7286
  765MOL0     H 5506   0.972   9.354  10.774 -1.0816 -3.3754 -0.1441
  765MOL0     H 5507   0.911   9.531  10.589 -2.4916 -1.3454 -1.2295
  765MOL0     H 5508   0.789   9.578  10.700 -0.9324 -4.1840 -0.9193
  765MOL0     H 5509   1.091   9.576  10.771  0.4761  0.4171 -0.5186
  765MOL0     H 5510   1.005   9.722  10.703  1.0381 -0.6578 -1.7138
  765MOL0     H 5511   0.947   9.570  10.976  0.3562  1.3111  0.6863
  765MOL0     H 5512   0.845   9.702  10.914 -1.6353 -2.3489 -3.1305
  765MOL0     H 5513   1.008   9.778  11.083  1.1152  4.6454 -0.6905
  765MOL0     H 5514   1.143   9.715  10.985 -0.2341 -0.4060  0.2757
  765MOL0     H 5515   0.960   9.912  10.866  0.5620 -0.6374 -1.4513
  765MOL0     H 5516   1.136   9.890  10.842 -0.7361 -1.6173 -1.2134
  765MOL0     H 5517   1.164   9.958  11.089 -1.7414 -0.9470  0.4703
  765MOL0     H 5518   1.108  10.094  10.973  0.3140  0.1863  0.4332
  765MOL0     H 5519   0.933   9.878  11.260 -0.4357  1.0043  3.0535
  765MOL0     H 5520   0.667   9.890  11.316 -0.7221 -0.5272  1.3576
  765MOL0     H 5521   0.576  10.040  11.300 -1.3274 -1.0313  1.5154
  765MOL0     H 5522   0.807   9.987  11.515 -0.7551  1.9106  1.3707
  765MOL0     H 5523   0.757  10.147  11.457 -1.6813  0.4415 -1.5152
  765MOL0     H 5524   0.528  10.105  11.525  0.6855  1.7279  1.5374
  765MOL0     H 5525   0.564   9.945  11.581  2.7450  0.1076  0.6422
  765MOL0     H 5526   0.696  10.050  11.762  0.1941  2.0177  0.1387
  765MOL0     H 5527   0.692  10.209  11.696  2.3932 -1.2633  0.2196
  765MOL0     H 5528   0.343   9.944  11.813  0.1856  4.3612 -2.1182
  765MOL0     H 5529   0.177   9.881  12.065 -1.7825 -2.9945 -0.2918
  765MOL0     H 5530   0.283   9.762  12.121  0.8867  0.6488  0.8923
  765MOL0     H 5531   0.251   9.785  11.937 -0.2364  2.1110 -0.4514
  765MOL0     H 5532   0.442   9.723  12.457  2.2196 -1.9059 -3.1226
  765MOL0     H 5533   0.548   9.560  12.622  0.0448  0.2961  3.3175
  765MOL0     H 5534   0.647   9.414  12.736 -0.3071  1.6221  0.8937
  765MOL0     H 5535   0.785   9.402  12.612  0.3635  0.7600 -0.2522
  765MOL0     H 5536   0.938   9.369  12.809  0.0819  1.4556  1.4347
  765MOL0     H 5537   0.793   9.381  12.907  1.3067  0.7973 -0.6889
  765MOL0     H 5538   0.822   9.169  12.695 -0.5204 -2.1292  0.0797
  765MOL0     H 5539   0.706   9.163  12.824 -1.1187  2.8507 -1.5132
  765MOL0     H 5540   0.893   9.124  12.991  1.1276 -2.4992  0.3891
  765MOL0     H 5541   1.009   9.157  12.853  0.4431 -2.5260 -3.2179
  765MOL0     H 5542   0.849   8.920  12.921  1.6334 -0.3447  0.2974
  765MOL0     H 5543   0.872   8.951  12.755 -1.1537 -0.9521  0.4187
  765MOL0     H 5544   1.108   8.953  12.950  1.2454  0.8927 -0.5004
  765MOL0     H 5545   1.114   8.987  12.784 -0.7709 -0.4842 -0.7554
  765MOL0     H 5546   1.039   8.761  12.735 -0.7060  1.9874 -0.3925
  765MOL0     H 5547   0.997   8.726  12.901  2.2580 -0.6371  2.4806
  765MOL0     H 5548   1.269   8.737  12.783 -0.2382 -3.8568 -1.3985
  765MOL0     H 5549   1.183   8.601  12.858 -3.4963  0.1011  2.0341
  765MOL0     H 5550   0.894   9.767  12.642  0.9006 -1.8227 -1.6285
  765MOL0     H 5551   0.821   9.940  12.470 -0.5456  1.0468 -1.8086
  765MOL0     H 5552   0.624  10.093  12.194  1.7789 -0.2286 -0.6754
  765MOL0     H 5553   0.651  10.204  11.964  0.9065 -0.9987 -3.8967
  765MOL0     H 5554   0.840   8.962  10.788 -1.6963 -0.9484  2.3314
  765MOL0     H 5555   0.817   8.757  10.649 -1.9161 -2.5784 -0.3517
  765MOL0     H 5556   0.646   8.609  10.225  0.1055 -0.7330 -0.8585
  765MOL0     H 5557   0.653   8.422  10.074 -0.6367  1.2954 -0.4309
  765MOL0     H 5558   0.830   8.058  10.275 -0.6021  1.0927  0.3130
  765MOL0     H 5559   0.662   8.030  10.290 -1.5264  2.7750 -1.1692
  765MOL0     H 5560   0.652   7.929  10.066 -0.5974 -1.6834  0.0323
  765MOL0     H 5561   0.748   7.837  10.183 -3.3997  1.2187  1.8920
  765MOL0     H 5562   0.841   8.022   9.956  0.3583  0.8272  1.3965
  765MOL0     H 5563   0.953   7.954  10.077  1.6453 -1.9022 -1.1323
  765MOL0     H 5564   0.792   7.760   9.912 -0.6490 -0.0805  2.4496
  765MOL0     H 5565   0.911   7.727  10.036  1.7061 -0.4810 -1.7754
  765MOL0     H 5566   1.144   7.869   9.707 -0.7684  2.8760  1.5645
  765MOL0     H 5567   0.692   8.173  10.430  0.4596 -0.4327 -0.9569
  765MOL0     H 5568   0.748   8.245  10.610 -0.6781 -0.8662 -0.0563
  765MOL0     H 5569   0.721   8.410  10.657  0.7882  1.4206 -1.3644
  765MOL0     H 5570   0.581   8.303  10.647  0.6236  0.0033  2.6194
  766MOL0     O 5571   1.304   5.030   1.171  0.3159  1.1811 -0.0920
  766MOL0     C 5572   1.228   4.960   1.106  0.0357  0.6726  0.1165
  766MOL0     O 5573   1.113   4.904   1.154 -0.2360 -0.3765  0.1599
  766MOL0     C 5574   1.102   4.904   1.290 -0.3438 -0.1980 -0.6195
  766MOL0     C 5575   1.154   4.806   1.382 -0.2826 -0.5400  0.4424
  766MOL0     C 5576   1.126   4.789   1.516 -0.4298  0.5211  0.2874
  766MOL0     C 5577   1.049   4.891   1.580  0.0708 -0.5440 -0.2806
  766MOL0     O 5578   1.023   4.888   1.709  0.3705  0.2834 -0.7260
  766MOL0     C 5579   0.899   4.829   1.733  0.7703  0.0376 -0.5200
  766MOL0     C 5580   0.866   4.837   1.881 -0.4370 -0.3081  0.0072
  766MOL0     C 5581   0.747   4.753   1.922  0.1225 -0.0678  0.3605
  766MOL0     C 5582   0.750   4.723   2.072 -0.4673 -0.2266  0.5795
  766MOL0     C 5583   0.618   4.653   2.103 -0.4792 -0.0863 -0.3883
  766MOL0     C 5584   0.620   4.509   2.084 -0.3223  0.5095 -0.2867
  766MOL0     C 5585   0.520   4.419   2.160  0.9696  0.4859 -0.7291
  766MOL0     C 5586   0.379   4.446   2.121 -0.0935  0.6956  0.6634
  766MOL0     N 5587   0.275   4.357   2.174  0.0844 -0.3161 -0.8296
  766MOL0     C 5588   0.230   4.256   2.100  0.2302 -0.0335 -0.6290
  766MOL0     C 5589   0.171   4.181   2.193 -0.1251  0.6557  0.3345
  766MOL0     C 5590   0.085   4.057   2.175  1.0414  1.1347 -0.1936
  766MOL0     C 5591  -0.013   4.079   2.056 -0.0353 -0.1376 -0.4489
  766MOL0     C 5592  -0.049   3.936   2.003  0.4300  0.1999 -0.3495
  766MOL0     C 5593  -0.179   3.950   1.915 -0.1269  0.1700  0.1318
  766MOL0     O 5594  -0.179   3.828   1.834 -0.0468  0.0045  0.6202
  766MOL0     C 5595  -0.221   3.702   1.882 -0.2465 -0.2035  0.8923
  766MOL0     C 5596  -0.313   3.678   1.984  0.4539 -0.8989 -0.4472
  766MOL0     C 5597  -0.337   3.555   2.048 -0.1058  1.0518  0.1576
  766MOL0     C 5598  -0.456   3.552   2.144  0.4241 -0.5923  0.1772
  766MOL0     C 5599  -0.259   3.445   2.008 -0.0885 -0.0498  0.0954
  766MOL0     C 5600  -0.277   3.304   2.066  0.0432 -0.2659 -0.0664
  766MOL0     O 5601  -0.178   3.210   2.051  0.0796 -0.9700  0.2033
  766MOL0     C 5602  -0.193   3.098   2.118  0.0667 -0.0880 -1.0942
  766MOL0     C 5603  -0.206   3.085   2.266  0.0197 -0.5223 -0.1896
  766MOL0     C 5604  -0.178   2.966   2.333 -0.2070  1.2508  0.4777
  766MOL0     C 5605  -0.146   2.848   2.259 -0.7427 -0.8202 -0.3465
  766MOL0     O 5606  -0.144   2.732   2.331  0.4245 -0.1493  0.3911
  766MOL0     C 5607  -0.137   2.607   2.266 -0.9321 -0.1145  0.4892
  766MOL0     C 5608  -0.114   2.500   2.372  0.2021 -0.9110  0.0942
  766MOL0     C 5609  -0.123   2.371   2.300 -0.5678 -0.3189 -0.5433
  766MOL0     C 5610  -0.053   2.256   2.374  0.1995 -0.0697 -0.1369
  766MOL0     C 5611  -0.070   2.245   2.527  0.3331 -0.1424  0.0892
  766MOL0     C 5612  -0.013   2.104   2.572 -1.4215 -0.0915  0.0050
  766MOL0     C 5613  -0.008   2.099   2.725  0.3466 -0.6426  0.1366
  766MOL0     C 5614   0.048   1.972   2.771  0.1602  0.2297 -0.4321
  766MOL0    Cl 5615   0.076   1.977   2.948 -0.5244  0.3733  0.0908
  766MOL0     C 5616  -0.135   2.860   2.124 -0.2699  0.0165  0.3070
  766MOL0     C 5617  -0.152   2.980   2.048 -0.6635 -0.1033 -0.1752
  766MOL0     O 5618  -0.390   3.274   2.108 -0.0468 -0.1785 -0.9659
  766MOL0     C 5619  -0.163   3.472   1.897  0.0282 -0.0234 -0.8163
  766MOL0     C 5620  -0.142   3.597   1.841 -0.1319 -0.1980  1.2186
  766MOL0     N 5621   0.189   4.238   2.316  0.7738  0.5103 -0.2601
  766MOL0     N 5622   0.258   4.341   2.306 -0.1927 -0.6081  0.0749
  766MOL0     C 5623   0.985   4.987   1.504 -0.7912  1.0753 -0.0214
  766MOL0     C 5624   1.009   4.985   1.355 -0.3170  0.2466  0.4189
  766MOL0     C 5625   1.252   4.933   0.958  0.5379 -0.1140  0.0520
  766MOL0     C 5626   1.388   4.940   0.919  0.7870  0.5103  0.1242
  766MOL0     C 5627   1.420   4.920   0.779  0.1939  0.4545 -0.0585
  766MOL0     C 5628   1.315   4.907   0.687  0.2680 -0.3753 -0.1271
  766MOL0     O 5629   1.348   4.904   0.556 -0.1982 -0.1239  0.1935
  766MOL0     C 5630   1.437   4.799   0.506 -0.0531 -0.8739 -0.1337
  766MOL0     C 5631   1.427   4.766   0.356  0.1439 -0.1125 -0.2241
  766MOL0     C 5632   1.279   4.725   0.327  0.6069  1.0806 -0.4038
  766MOL0     C 5633   1.224   4.605   0.411 -1.0205  0.1474  0.2222
  766MOL0     C 5634   1.317   4.491   0.412 -0.2079 -0.7471  0.5469
  766MOL0     C 5635   1.382   4.392   0.381 -0.1768 -0.5982 -0.5514
  766MOL0     C 5636   1.179   4.898   0.728  0.0476  0.0736 -0.0490
  766MOL0     C 5637   1.142   4.915   0.866 -0.4299  0.3573 -0.0341
  766MOL0     C 5638   0.992   4.934   0.892  0.2695  0.4764  0.2731
  766MOL0     H 5639   1.217   4.733   1.332 -0.1619 -0.3572  0.3299
  766MOL0     H 5640   1.162   4.706   1.577 -0.4268  0.0535 -0.3362
  766MOL0     H 5641   0.902   4.723   1.709 -4.3369 -0.2337 -1.0514
  766MOL0     H 5642   0.817   4.874   1.676  1.7204 -0.7212 -2.5879
  766MOL0     H 5643   0.945   4.783   1.934 -0.4707  0.0325  0.4077
  766MOL0     H 5644   0.854   4.938   1.920 -3.7019 -0.6616  0.2137
  766MOL0     H 5645   0.657   4.807   1.892 -0.7345 -1.5959  0.0569
  766MOL0     H 5646   0.736   4.660   1.866 -1.0959  0.0880  0.3234
  766MOL0     H 5647   0.836   4.662   2.101 -0.2428 -0.8803 -1.2826
  766MOL0     H 5648   0.745   4.814   2.132 -1.5063 -0.5222  0.9636
  766MOL0     H 5649   0.537   4.698   2.044  1.5613  1.5794 -2.0847
  766MOL0     H 5650   0.608   4.681   2.208  2.7876 -0.0255 -0.0047
  766MOL0     H 5651   0.604   4.488   1.978 -2.3693 -2.0071  0.4096
  766MOL0     H 5652   0.720   4.480   2.116  1.2457  4.2046 -1.3424
  766MOL0     H 5653   0.532   4.440   2.267  3.5954 -0.2427 -0.8217
  766MOL0     H 5654   0.544   4.313   2.150 -0.3869 -0.2908  2.7043
  766MOL0     H 5655   0.361   4.552   2.142  2.0091  2.0409 -3.3759
  766MOL0     H 5656   0.392   4.446   2.013 -1.2391  1.7209  0.5155
  766MOL0     H 5657   0.229   4.246   1.992  1.2040  0.8390 -0.7294
  766MOL0     H 5658   0.026   4.033   2.263  1.0277 -2.2654 -0.9965
  766MOL0     H 5659   0.146   3.972   2.142  2.2614  2.0272 -0.3057
  766MOL0     H 5660  -0.095   4.132   2.105  2.3560  0.5603  3.2056
  766MOL0     H 5661   0.026   4.131   1.968  1.2291 -1.1130 -0.4894
  766MOL0     H 5662   0.032   3.888   1.948  1.6605  0.8719  0.8133
  766MOL0     H 5663  -0.076   3.865   2.082 -0.0969  0.3306 -0.4099
  766MOL0     H 5664  -0.265   3.946   1.983  0.0874 -0.9272  0.3595
  766MOL0     H 5665  -0.193   4.044   1.861  0.0375 -0.5445 -1.2083
  766MOL0     H 5666  -0.358   3.764   2.034  1.4214 -2.3567  3.2885
  766MOL0     H 5667  -0.533   3.477   2.121  0.0213  0.6361 -2.9828
  766MOL0     H 5668  -0.505   3.649   2.131  3.0503  0.4890 -2.7680
  766MOL0     H 5669  -0.418   3.545   2.246  0.8845  3.0614  0.3795
  766MOL0     H 5670  -0.214   3.170   2.333 -0.4069 -2.7287  2.7753
  766MOL0     H 5671  -0.189   2.962   2.441  0.7959 -2.5255  0.5978
  766MOL0     H 5672  -0.231   2.584   2.215  1.1506  0.4879 -4.1651
  766MOL0     H 5673  -0.060   2.598   2.189 -2.0823 -0.2099 -0.6939
  766MOL0     H 5674  -0.027   2.526   2.432  0.0495  3.8432 -1.3324
  766MOL0     H 5675  -0.197   2.503   2.445 -0.6269 -2.3692 -0.7397
  766MOL0     H 5676  -0.066   2.379   2.207 -2.1615 -1.3672 -1.6584
  766MOL0     H 5677  -0.225   2.346   2.272 -2.7207 -0.2012  5.6864
  766MOL0     H 5678   0.056   2.254   2.358  0.0378 -4.1722 -2.0292
  766MOL0     H 5679  -0.093   2.163   2.333 -0.8346  0.1545  0.3500
  766MOL0     H 5680  -0.008   2.319   2.578  1.9937 -2.0955  1.0287
  766MOL0     H 5681  -0.176   2.245   2.554 -0.0595  2.3803 -1.0943
  766MOL0     H 5682   0.091   2.089   2.542 -1.8567 -1.7632 -0.7503
  766MOL0     H 5683  -0.078   2.030   2.525 -1.6892  0.6239 -0.7946
  766MOL0     H 5684  -0.107   2.115   2.769  0.7308 -1.3176  1.3158
  766MOL0     H 5685   0.054   2.182   2.760  0.5951 -0.4193 -0.8204
  766MOL0     H 5686   0.143   1.955   2.718  0.1820 -1.5222  0.0944
  766MOL0     H 5687  -0.023   1.889   2.763 -1.1043  1.2704 -0.2151
  766MOL0     H 5688  -0.109   2.774   2.063  3.6117  0.6570  0.8248
  766MOL0     H 5689  -0.118   2.978   1.945 -2.1117 -0.6605 -0.6677
  766MOL0     H 5690  -0.100   3.386   1.879 -2.2496 -1.5843 -1.7097
  766MOL0     H 5691  -0.052   3.613   1.783  0.3830 -0.9168  1.8076
  766MOL0     H 5692   0.929   5.065   1.554 -0.4766  0.5930  1.1110
  766MOL0     H 5693   0.959   5.057   1.291 -0.7366 -0.6288 -0.2619
  766MOL0     H 5694   1.470   4.952   0.989  1.4152 -2.4409  0.0410
  766MOL0     H 5695   1.526   4.911   0.759  0.4363  3.4824 -0.7420
  766MOL0     H 5696   1.537   4.833   0.536  0.0380 -1.5394  0.3381
  766MOL0     H 5697   1.436   4.711   0.570  2.7098  0.0610  1.3572
  766MOL0     H 5698   1.500   4.690   0.325  5.2388  3.3270  1.8960
  766MOL0     H 5699   1.451   4.853   0.295  0.0013 -1.1951 -1.8965
  766MOL0     H 5700   1.200   4.800   0.333  0.2841  0.6404  2.2407
  766MOL0     H 5701   1.271   4.686   0.225 -4.0019 -0.7711  0.4550
  766MOL0     H 5702   1.140   4.564   0.353 -0.9424 -0.3684  0.4638
  766MOL0     H 5703   1.192   4.644   0.508 -2.0551  1.2988 -0.5453
  766MOL0     H 5704   1.422   4.303   0.335 -0.0277  0.0016 -1.6212
  766MOL0     H 5705   1.100   4.884   0.655 -1.3365  1.0119  1.1970
  766MOL0     H 5706   0.946   4.835   0.901  1.1586  0.2304  3.5428
  766MOL0     H 5707   0.970   4.991   0.983 -1.3885  1.2824 -0.5837
  766MOL0     H 5708   0.952   4.995   0.811  3.3211  2.9579  0.4941
  767MOL0     O 5709   0.535   3.894  10.724  0.3341 -0.3151 -0.4896
  767MOL0     C 5710   0.540   3.988  10.801  0.1255 -0.4603 -0.1768
  767MOL0     O 5711   0.489   3.995  10.924 -0.0746  0.1792 -0.1104
  767MOL0     C 5712   0.415   3.894  10.971 -0.8527  0.3762 -0.5712
  767MOL0     C 5713   0.470   3.766  10.975 -0.1148  0.3259 -1.0721
  767MOL0     C 5714   0.388   3.652  11.018 -0.1875 -0.0952  0.8136
  767MOL0     C 5715   0.259   3.685  11.058 -0.3301 -1.5219 -0.1626
  767MOL0     O 5716   0.168   3.594  11.100 -0.1636  1.1444 -0.0193
  767MOL0     C 5717   0.198   3.472  11.176  0.3330 -0.4561  0.9503
  767MOL0     C 5718   0.067   3.421  11.234 -0.1834 -0.4801  0.3799
  767MOL0     C 5719   0.009   3.513  11.343 -0.5370  0.4022  0.0023
  767MOL0     C 5720  -0.081   3.430  11.426 -0.0966  0.2453 -0.0570
  767MOL0     C 5721  -0.120   3.499  11.557  0.4733  0.5960 -1.0120
  767MOL0     C 5722  -0.024   3.452  11.673  0.3580  0.2934 -0.9377
  767MOL0     C 5723  -0.066   3.535  11.798 -1.0883 -0.0060 -0.1217
  767MOL0     C 5724  -0.036   3.482  11.934  0.3667  0.3903 -0.3932
  767MOL0     N 5725  -0.112   3.553  12.039 -0.0613  0.0802 -0.9414
  767MOL0     C 5726  -0.238   3.523  12.074  1.3342  0.7575 -0.6256
  767MOL0     C 5727  -0.273   3.604  12.168  0.3723  0.4436 -1.3110
  767MOL0     C 5728  -0.387   3.581  12.262  0.5837 -0.5070  0.5272
  767MOL0     C 5729  -0.521   3.640  12.199  0.2197 -0.2848 -0.6691
  767MOL0     C 5730  -0.638   3.577  12.277 -0.6594  0.1294 -0.0249
  767MOL0     C 5731  -0.768   3.659  12.259 -0.6748 -0.0763  0.3070
  767MOL0     O 5732  -0.880   3.588  12.310  0.0012 -0.1343  0.0602
  767MOL0     C 5733  -0.976   3.665  12.373 -0.9689  0.2931  0.4822
  767MOL0     C 5734  -0.983   3.676  12.516 -0.0983 -0.6656  0.7238
  767MOL0     C 5735  -1.085   3.757  12.587 -0.5927  0.0427 -0.4187
  767MOL0     C 5736  -1.071   3.776  12.735  0.5557  0.0475 -0.4563
  767MOL0     C 5737  -1.179   3.826  12.507  0.8205 -0.8393  0.3364
  767MOL0     C 5738  -1.281   3.927  12.547 -0.3319  0.0316 -0.3880
  767MOL0     O 5739  -1.358   3.984  12.447  0.6047  0.1387 -0.4163
  767MOL0     C 5740  -1.447   4.078  12.479 -0.0451  0.1727 -0.2060
  767MOL0     C 5741  -1.559   4.040  12.552  0.2766 -0.4260  0.3236
  767MOL0     C 5742  -1.662   4.136  12.583 -0.5775  0.3157 -0.2343
  767MOL0     C 5743  -1.651   4.268  12.532 -0.1092 -0.7576  0.3468
  767MOL0     O 5744  -1.758   4.353  12.528 -0.2068 -0.6778 -0.0298
  767MOL0     C 5745  -1.739   4.478  12.602  0.9593 -0.4777 -0.0027
  767MOL0     C 5746  -1.863   4.535  12.681  0.6169  0.7915 -0.4007
  767MOL0     C 5747  -1.974   4.585  12.578  0.7062 -0.2687  0.0537
  767MOL0     C 5748  -2.086   4.640  12.664  0.3365  0.1406 -0.0759
  767MOL0     C 5749  -2.203   4.691  12.581  0.3306 -0.5568  0.8481
  767MOL0     C 5750  -2.310   4.752  12.664  0.4236 -0.7465  0.1071
  767MOL0     C 5751  -2.434   4.788  12.578  0.1685  0.5315  0.1425
  767MOL0     C 5752  -2.535   4.869  12.662 -0.8050 -0.1384  0.2949
  767MOL0    Cl 5753  -2.683   4.916  12.561  0.7972 -0.4376 -0.2944
  767MOL0     C 5754  -1.549   4.305  12.461 -0.1136 -1.3095 -0.0045
  767MOL0     C 5755  -1.451   4.211  12.431 -0.6497  0.5715 -0.8173
  767MOL0     O 5756  -1.292   3.960  12.669 -0.2287  1.0022 -0.0108
  767MOL0     C 5757  -1.183   3.799  12.369  0.1913 -0.3056  0.4465
  767MOL0     C 5758  -1.080   3.725  12.306 -0.7469  0.1248  0.8164
  767MOL0     N 5759  -0.166   3.690  12.196  0.2255  0.2801  0.3662
  767MOL0     N 5760  -0.073   3.658  12.107  0.7126  0.1370 -0.2398
  767MOL0     C 5761   0.217   3.815  11.062 -0.0064 -0.2456  0.4679
  767MOL0     C 5762   0.294   3.918  11.010  0.5683  0.1259  0.0043
  767MOL0     C 5763   0.601   4.117  10.745  0.3652 -0.1310 -0.0571
  767MOL0     C 5764   0.580   4.231  10.816 -0.9379 -0.5529  0.5441
  767MOL0     C 5765   0.649   4.355  10.787 -0.4131  0.6171  0.4419
  767MOL0     C 5766   0.746   4.357  10.686 -0.0849  0.1419  0.4161
  767MOL0     O 5767   0.820   4.469  10.656  0.2565  0.1449 -0.5087
  767MOL0     C 5768   0.749   4.586  10.639 -0.8991 -1.0599  0.4213
  767MOL0     C 5769   0.810   4.701  10.708  1.3094 -0.0948  0.8183
  767MOL0     C 5770   0.946   4.736  10.655  0.2149 -0.1109 -1.0850
  767MOL0     C 5771   1.061   4.673  10.751  1.3503 -0.6489 -0.0955
  767MOL0     C 5772   1.186   4.736  10.714 -0.3106 -0.4687 -0.0471
  767MOL0     C 5773   1.289   4.775  10.687  0.3018  0.0628  1.1191
  767MOL0     C 5774   0.758   4.247  10.610  0.2731 -0.2889 -0.6383
  767MOL0     C 5775   0.681   4.129  10.635  0.1069  0.3597 -0.7918
  767MOL0     C 5776   0.703   4.018  10.535  0.4909 -0.1177  0.1240
  767MOL0     H 5777   0.576   3.756  10.952 -0.0366  0.0222 -0.5919
  767MOL0     H 5778   0.436   3.555  11.026  1.3569  0.6785  1.3588
  767MOL0     H 5779   0.267   3.511  11.253  0.8595  2.3378 -0.7982
  767MOL0     H 5780   0.249   3.391  11.123 -2.3615 -1.4333 -0.2762
  767MOL0     H 5781  -0.003   3.396  11.154  0.2863  0.0221 -0.1936
  767MOL0     H 5782   0.098   3.323  11.272 -0.2796  0.2227  2.3477
  767MOL0     H 5783   0.097   3.546  11.400 -0.1467  1.9405 -1.4178
  767MOL0     H 5784  -0.051   3.595  11.305 -0.2696 -0.2609 -1.9712
  767MOL0     H 5785  -0.173   3.420  11.368 -1.9597  0.3162  2.6878
  767MOL0     H 5786  -0.035   3.333  11.444  2.0172  1.4779  1.6939
  767MOL0     H 5787  -0.219   3.458  11.577  0.4759  0.2904 -1.6247
  767MOL0     H 5788  -0.137   3.607  11.550 -2.4272  0.2478 -0.3845
  767MOL0     H 5789  -0.029   3.343  11.682  1.8615  0.2853  0.1912
  767MOL0     H 5790   0.076   3.483  11.639 -0.2378  2.0766 -1.1517
  767MOL0     H 5791  -0.173   3.558  11.793 -0.9456  0.5298 -1.0486
  767MOL0     H 5792  -0.010   3.628  11.790  0.8831 -1.2241 -1.2155
  767MOL0     H 5793  -0.067   3.377  11.936  0.6442  0.2264 -2.5606
  767MOL0     H 5794   0.070   3.473  11.958  0.5449 -1.8224 -1.7920
  767MOL0     H 5795  -0.292   3.440  12.030  1.3088  0.0545  0.6901
  767MOL0     H 5796  -0.375   3.638  12.355 -1.4277  1.8889 -0.5646
  767MOL0     H 5797  -0.387   3.472  12.274  2.1607 -0.3656  2.4769
  767MOL0     H 5798  -0.522   3.750  12.195  0.2345 -0.2921 -0.9505
  767MOL0     H 5799  -0.532   3.605  12.096  0.6240  1.3483 -1.3136
  767MOL0     H 5800  -0.661   3.475  12.246 -2.4495  1.4923 -3.8126
  767MOL0     H 5801  -0.608   3.570  12.382 -0.3213  1.0907 -0.0426
  767MOL0     H 5802  -0.751   3.748  12.321 -0.5170  2.0388 -2.5741
  767MOL0     H 5803  -0.790   3.684  12.155 -3.7389 -1.4443  0.5400
  767MOL0     H 5804  -0.904   3.627  12.572  1.5919 -1.4768 -2.1840
  767MOL0     H 5805  -1.168   3.750  12.778  0.8037 -2.8806 -1.4580
  767MOL0     H 5806  -1.052   3.882  12.756 -1.4060  0.7645 -2.0242
  767MOL0     H 5807  -0.999   3.708  12.783 -0.0289 -0.3122 -0.0798
  767MOL0     H 5808  -1.578   3.937  12.578 -2.3980  0.1264  0.9157
  767MOL0     H 5809  -1.750   4.103  12.636  0.7198  1.3386  2.7806
  767MOL0     H 5810  -1.655   4.466  12.671  0.6658  0.6464  0.5675
  767MOL0     H 5811  -1.713   4.549  12.523 -3.4159  2.5479  0.9033
  767MOL0     H 5812  -1.902   4.452  12.742 -0.5020  1.6110  0.0314
  767MOL0     H 5813  -1.836   4.616  12.749 -0.0428  1.3757 -0.8260
  767MOL0     H 5814  -2.002   4.499  12.518 -2.2674 -0.6630  1.7828
  767MOL0     H 5815  -1.938   4.668  12.516 -0.5998  0.5982  0.4091
  767MOL0     H 5816  -2.049   4.726  12.720  0.0582 -0.1265  0.5326
  767MOL0     H 5817  -2.115   4.569  12.742 -0.2281 -0.2285 -0.6037
  767MOL0     H 5818  -2.172   4.770  12.512 -1.2887  0.2716  1.0166
  767MOL0     H 5819  -2.249   4.615  12.517 -2.8330  0.9518  1.1424
  767MOL0     H 5820  -2.269   4.837  12.719  0.0168 -1.8528  2.1995
  767MOL0     H 5821  -2.334   4.672  12.735  0.6964 -2.2811 -1.4711
  767MOL0     H 5822  -2.486   4.698  12.546 -0.4875 -0.2506  3.0951
  767MOL0     H 5823  -2.400   4.835  12.485 -2.2844  2.6713  0.2195
  767MOL0     H 5824  -2.478   4.959  12.689  2.6961 -1.3114 -2.3540
  767MOL0     H 5825  -2.571   4.806  12.743 -1.6703 -0.9473 -0.7011
  767MOL0     H 5826  -1.526   4.403  12.419 -0.3233 -0.4864  1.6802
  767MOL0     H 5827  -1.368   4.244  12.368  1.5239  2.5196  2.7333
  767MOL0     H 5828  -1.257   3.840  12.301 -1.6554 -0.5305  2.1928
  767MOL0     H 5829  -1.082   3.717  12.197  0.8996  1.2607  0.6677
  767MOL0     H 5830   0.120   3.847  11.099  0.6044 -0.4608  2.3707
  767MOL0     H 5831   0.249   4.017  11.012  0.2493 -0.0002  2.5627
  767MOL0     H 5832   0.516   4.224  10.903  0.0414 -1.5849  1.2033
  767MOL0     H 5833   0.638   4.446  10.845 -1.3806  0.8351 -0.0639
  767MOL0     H 5834   0.740   4.614  10.534  0.1563  0.5077  0.7174
  767MOL0     H 5835   0.640   4.584  10.652 -1.4669  1.1851 -2.7940
  767MOL0     H 5836   0.819   4.677  10.814 -2.2302  0.6731  1.4104
  767MOL0     H 5837   0.744   4.785  10.686  1.6196 -0.3548 -1.4379
  767MOL0     H 5838   0.962   4.693  10.555 -2.0622 -2.6016 -0.4884
  767MOL0     H 5839   0.950   4.845  10.655 -0.6329 -0.0266  1.1131
  767MOL0     H 5840   1.078   4.566  10.741 -0.3551 -0.8185 -1.8035
  767MOL0     H 5841   1.038   4.704  10.853  1.0249 -2.2544  0.3327
  767MOL0     H 5842   1.385   4.804  10.650 -0.5527 -0.0037 -1.3233
  767MOL0     H 5843   0.834   4.272  10.537  1.5029  0.4748  0.8342
  767MOL0     H 5844   0.751   3.935  10.587 -0.4776 -1.3223 -0.8443
  767MOL0     H 5845   0.612   3.989  10.482  0.2378  2.3014 -0.9144
  767MOL0     H 5846   0.768   4.058  10.457 -0.8451  1.5373 -0.2050
  768MOL0     O 5847   5.960   4.098   0.730  0.8484 -0.0098  1.0550
  768MOL0     C 5848   5.954   4.214   0.688  1.1157 -0.8493  0.3666
  768MOL0     O 5849   5.927   4.327   0.763 -0.5150  1.3247 -0.6023
  768MOL0     C 5850   5.874   4.302   0.891 -0.1732 -0.3137  0.0913
  768MOL0     C 5851   5.956   4.281   1.004 -0.5585 -0.8521  0.2094
  768MOL0     C 5852   5.898   4.281   1.132  0.6521 -0.0305 -0.2485
  768MOL0     C 5853   5.762   4.297   1.142  0.0128  0.1672 -0.6295
  768MOL0     O 5854   5.712   4.323   1.267 -0.6088 -0.9362  0.8217
  768MOL0     C 5855   5.608   4.238   1.324  0.7564 -0.1736 -0.6336
  768MOL0     C 5856   5.608   4.260   1.478 -0.0171  0.2925 -0.2099
  768MOL0     C 5857   5.492   4.196   1.557 -0.3485 -0.5799 -0.0535
  768MOL0     C 5858   5.525   4.054   1.571  0.7606  0.3907 -0.2806
  768MOL0     C 5859   5.399   3.975   1.626  0.6049  0.0858 -0.9104
  768MOL0     C 5860   5.422   3.825   1.655 -0.1257  0.7935  0.3681
  768MOL0     C 5861   5.326   3.750   1.748  0.5209  0.2154  0.0160
  768MOL0     C 5862   5.379   3.618   1.810  0.0385 -0.8407  0.8294
  768MOL0     N 5863   5.510   3.617   1.874 -0.0993 -0.2084  0.0107
  768MOL0     C 5864   5.532   3.667   2.002  1.5261  0.9586  0.1589
  768MOL0     C 5865   5.663   3.637   2.031 -0.2162 -0.2063 -0.5884
  768MOL0     C 5866   5.752   3.678   2.153  0.7828  0.3620 -0.2495
  768MOL0     C 5867   5.752   3.566   2.262 -0.9568  0.0986 -0.0381
  768MOL0     C 5868   5.806   3.433   2.203  0.1498  0.1788  0.1508
  768MOL0     C 5869   5.964   3.425   2.194 -0.2024 -0.7750  0.0803
  768MOL0     O 5870   6.028   3.469   2.321 -0.0828 -0.4063  0.1102
  768MOL0     C 5871   6.168   3.461   2.333 -0.4488  0.2278 -0.8127
  768MOL0     C 5872   6.228   3.535   2.437 -0.4744 -0.2628  0.4895
  768MOL0     C 5873   6.370   3.537   2.443 -0.3184 -0.7656  0.2212
  768MOL0     C 5874   6.434   3.607   2.560 -0.9499 -0.2338 -0.0578
  768MOL0     C 5875   6.453   3.469   2.352 -0.4132  0.2642 -1.3064
  768MOL0     C 5876   6.598   3.491   2.341 -0.4873 -0.4183 -0.4119
  768MOL0     O 5877   6.646   3.621   2.341  0.1457 -0.2568 -0.4944
  768MOL0     C 5878   6.780   3.651   2.379  0.1958 -0.3719  0.9320
  768MOL0     C 5879   6.820   3.779   2.340  0.3050 -1.5045 -0.2564
  768MOL0     C 5880   6.955   3.823   2.351  0.3687  1.5411  0.0113
  768MOL0     C 5881   7.044   3.730   2.404 -0.4328  0.0545  1.2050
  768MOL0     O 5882   7.181   3.754   2.425  0.2032 -0.6952 -0.9423
  768MOL0     C 5883   7.218   3.889   2.415 -0.3065 -0.9186 -0.8370
  768MOL0     C 5884   7.350   3.923   2.482  0.1875  0.6887 -0.0058
  768MOL0     C 5885   7.461   3.836   2.426 -0.5033  0.0805  0.2627
  768MOL0     C 5886   7.596   3.875   2.494 -0.1447  0.1574 -0.3092
  768MOL0     C 5887   7.710   3.782   2.464  0.1279 -0.1742  0.1361
  768MOL0     C 5888   7.832   3.822   2.554 -0.5400  0.4451 -0.5249
  768MOL0     C 5889   7.949   3.720   2.542  0.0178 -0.2618  0.6755
  768MOL0     C 5890   8.049   3.771   2.446 -1.5606  0.4101  0.5448
  768MOL0    Cl 5891   8.136   3.927   2.522 -0.3780  0.3635 -0.2854
  768MOL0     C 5892   7.004   3.601   2.434  1.3549  0.3023  0.3410
  768MOL0     C 5893   6.871   3.565   2.424 -0.3021  0.7498  0.1338
  768MOL0     O 5894   6.660   3.388   2.326  0.4450 -0.1966  1.3114
  768MOL0     C 5895   6.387   3.388   2.257  0.1735  0.0375 -0.0941
  768MOL0     C 5896   6.253   3.381   2.250  0.6176 -0.1365 -0.5245
  768MOL0     N 5897   5.724   3.590   1.919  0.1880 -0.1802 -0.3687
  768MOL0     N 5898   5.629   3.573   1.829  0.0356 -0.1076  0.1274
  768MOL0     C 5899   5.681   4.302   1.039 -0.0361 -0.2237  0.0145
  768MOL0     C 5900   5.737   4.318   0.913  0.2581  0.6646  0.6617
  768MOL0     C 5901   5.963   4.231   0.542 -0.0009  0.3042 -0.4826
  768MOL0     C 5902   5.884   4.325   0.477 -1.2322  0.0844  0.3012
  768MOL0     C 5903   5.885   4.334   0.335 -0.5034 -0.3379 -0.5087
  768MOL0     C 5904   5.958   4.255   0.257 -0.0625  0.0501  0.0187
  768MOL0     O 5905   5.960   4.245   0.117  0.6309  0.0162 -0.3590
  768MOL0     C 5906   5.908   4.354   0.050  0.5295 -0.7102  0.3245
  768MOL0     C 5907   5.951   4.354  -0.102  0.0040 -0.0979 -0.5303
  768MOL0     C 5908   6.103   4.382  -0.108  0.0882 -0.9279 -0.0619
  768MOL0     C 5909   6.138   4.523  -0.147 -0.1198  0.0545  0.4888
  768MOL0     C 5910   6.084   4.633  -0.067 -0.3098  0.0143 -0.0488
  768MOL0     C 5911   6.019   4.717   0.005 -0.7258  0.3955  0.7401
  768MOL0     C 5912   6.047   4.167   0.325  0.2266  0.3510 -0.0164
  768MOL0     C 5913   6.050   4.149   0.462 -0.1500  0.2471  0.6039
  768MOL0     C 5914   6.165   4.057   0.516  1.1371  0.0116 -0.2925
  768MOL0     H 5915   6.058   4.253   0.982 -0.4659 -1.5069  1.3945
  768MOL0     H 5916   5.962   4.266   1.218 -0.5921 -3.8773  0.2162
  768MOL0     H 5917   5.631   4.134   1.298  0.1443 -0.8872  1.4413
  768MOL0     H 5918   5.509   4.267   1.288  0.6278  0.0229 -0.1308
  768MOL0     H 5919   5.705   4.235   1.520  0.1469 -0.7550 -1.1729
  768MOL0     H 5920   5.603   4.368   1.497  3.3735  0.3748  0.7057
  768MOL0     H 5921   5.491   4.250   1.652  3.5427  2.0420 -1.2862
  768MOL0     H 5922   5.391   4.196   1.515 -1.5100  1.7392  2.4353
  768MOL0     H 5923   5.547   4.008   1.475 -3.0458  0.7187 -1.4793
  768MOL0     H 5924   5.611   4.034   1.636 -0.9608 -0.3823  1.9018
  768MOL0     H 5925   5.310   3.988   1.563 -0.3423 -3.3866 -0.4679
  768MOL0     H 5926   5.373   4.013   1.726  0.9349 -1.5270 -0.1869
  768MOL0     H 5927   5.421   3.765   1.563  2.4293  1.8162 -0.4204
  768MOL0     H 5928   5.516   3.818   1.710 -1.0458  2.2779  2.2127
  768MOL0     H 5929   5.234   3.736   1.691  0.5413 -0.9046  0.2409
  768MOL0     H 5930   5.306   3.801   1.843 -0.6353 -4.7769  2.7667
  768MOL0     H 5931   5.299   3.579   1.873  1.1361  0.0860  2.8919
  768MOL0     H 5932   5.393   3.556   1.721  1.0760 -1.0981  1.1572
  768MOL0     H 5933   5.459   3.716   2.065  0.9829  0.4648 -0.0791
  768MOL0     H 5934   5.709   3.767   2.201  2.5989 -0.2751  2.8665
  768MOL0     H 5935   5.857   3.685   2.125  0.9731 -1.8947 -0.2683
  768MOL0     H 5936   5.814   3.598   2.347  0.1605  3.6425 -1.9933
  768MOL0     H 5937   5.649   3.552   2.296 -1.2878 -0.6759 -1.3106
  768MOL0     H 5938   5.766   3.360   2.274 -1.7951  1.4838  0.4791
  768MOL0     H 5939   5.751   3.410   2.111 -2.2393  0.6686  1.3714
  768MOL0     H 5940   5.987   3.321   2.167  3.7796  0.6589 -3.1420
  768MOL0     H 5941   5.997   3.487   2.110  1.2722  2.3036  2.7184
  768MOL0     H 5942   6.167   3.569   2.521 -0.2026  1.9844 -0.1576
  768MOL0     H 5943   6.486   3.535   2.623  0.4558 -0.6282 -1.6081
  768MOL0     H 5944   6.364   3.660   2.625 -0.4986 -0.9334  1.0330
  768MOL0     H 5945   6.515   3.668   2.520 -0.3810 -0.4981  0.6692
  768MOL0     H 5946   6.745   3.844   2.296  1.3833 -0.1046 -0.1196
  768MOL0     H 5947   6.980   3.923   2.316  0.9443  0.5121 -2.8382
  768MOL0     H 5948   7.212   3.922   2.311  1.0503 -3.1286 -1.6881
  768MOL0     H 5949   7.153   3.961   2.466 -1.4837 -0.6716 -2.5818
  768MOL0     H 5950   7.360   4.030   2.463 -1.1403  0.4982 -2.0481
  768MOL0     H 5951   7.351   3.899   2.589 -1.9133  1.6945  0.2744
  768MOL0     H 5952   7.464   3.850   2.318  0.2584  2.7645  0.5450
  768MOL0     H 5953   7.438   3.731   2.446  2.7735 -0.8191 -0.1210
  768MOL0     H 5954   7.584   3.882   2.602  1.6966  3.0921 -0.1671
  768MOL0     H 5955   7.621   3.981   2.479  1.8625 -0.1146  0.7353
  768MOL0     H 5956   7.679   3.679   2.481  1.3998 -0.7148 -0.6735
  768MOL0     H 5957   7.746   3.795   2.361  5.5025  2.3797  1.9522
  768MOL0     H 5958   7.795   3.820   2.657  0.4785  0.7066 -0.1409
  768MOL0     H 5959   7.855   3.927   2.539 -0.3825  0.8710  2.1145
  768MOL0     H 5960   7.925   3.621   2.504  0.2379 -0.1775  0.3102
  768MOL0     H 5961   7.989   3.726   2.644  0.7893  1.0000  0.3309
  768MOL0     H 5962   8.015   3.789   2.343  3.2375 -2.4633 -1.9056
  768MOL0     H 5963   8.118   3.686   2.442 -3.2055 -1.0631  1.8615
  768MOL0     H 5964   7.079   3.529   2.464  1.0232 -0.2679 -0.1765
  768MOL0     H 5965   6.863   3.459   2.445  2.4533  0.0460 -1.7411
  768MOL0     H 5966   6.441   3.335   2.178 -1.2827 -1.4805 -0.1351
  768MOL0     H 5967   6.209   3.320   2.171  0.2050 -1.5720  0.7685
  768MOL0     H 5968   5.575   4.311   1.061  0.4853 -0.4385  3.0001
  768MOL0     H 5969   5.666   4.328   0.831 -0.2000 -2.8470  0.4708
  768MOL0     H 5970   5.823   4.396   0.532 -0.7465  0.5919  0.1896
  768MOL0     H 5971   5.810   4.406   0.305 -3.1130 -2.9497 -0.6472
  768MOL0     H 5972   5.801   4.365   0.070  0.3045  1.8150 -1.6894
  768MOL0     H 5973   5.942   4.449   0.093  0.4274 -1.2447  1.6328
  768MOL0     H 5974   5.899   4.433  -0.156 -1.9365  1.1686  2.8626
  768MOL0     H 5975   5.930   4.253  -0.138  1.7491 -0.1645 -1.4223
  768MOL0     H 5976   6.166   4.370  -0.019  1.5956 -1.5805 -1.1726
  768MOL0     H 5977   6.156   4.321  -0.182  2.3073 -0.6948  1.2458
  768MOL0     H 5978   6.096   4.528  -0.248  0.0249 -0.6993  0.3874
  768MOL0     H 5979   6.247   4.534  -0.151  0.0687 -0.9315  2.0194
  768MOL0     H 5980   5.961   4.791   0.056 -1.1946  0.3577  0.2719
  768MOL0     H 5981   6.109   4.102   0.264  0.3220  0.4947 -0.0722
  768MOL0     H 5982   6.237   4.031   0.438 -1.8866 -1.8644 -2.6796
  768MOL0     H 5983   6.207   4.099   0.608  1.1881 -1.9646  0.6296
  768MOL0     H 5984   6.120   3.960   0.538  3.0785 -0.7128  0.7265
  769MOL0     O 5985  10.765   2.781   9.733  0.5269 -0.4261 -0.1707
  769MOL0     C 5986  10.708   2.685   9.680 -1.3081 -0.6572  0.4548
  769MOL0     O 5987  10.659   2.693   9.552  0.5173  0.2676  0.5836
  769MOL0     C 5988  10.655   2.809   9.496  0.4630 -0.2652 -0.0942
  769MOL0     C 5989  10.766   2.859   9.438 -0.5561 -0.5651  0.7802
  769MOL0     C 5990  10.760   2.991   9.378 -0.5004  0.2030 -0.5879
  769MOL0     C 5991  10.640   3.069   9.388 -0.1416 -0.3145  0.6447
  769MOL0     O 5992  10.626   3.192   9.335 -0.7784  0.4947 -0.1295
  769MOL0     C 5993  10.717   3.291   9.389  0.2249 -0.6402 -0.2485
  769MOL0     C 5994  10.682   3.338   9.536  0.0783 -0.1953 -0.6062
  769MOL0     C 5995  10.767   3.456   9.578 -0.0193 -0.4656  0.0278
  769MOL0     C 5996  10.742   3.595   9.515 -0.3923 -0.2260  0.4888
  769MOL0     C 5997  10.797   3.700   9.611  0.1150  0.0581 -0.0349
  769MOL0     C 5998  10.771   3.836   9.550  0.1323 -0.5765 -0.1831
  769MOL0     C 5999  10.811   3.958   9.637  0.3460  0.0230 -0.3133
  769MOL0     C 6000  10.791   4.089   9.558 -0.0655 -0.5531 -1.1563
  769MOL0     N 6001  10.864   4.195   9.630  0.5388 -0.4518 -0.1770
  769MOL0     C 6002  10.865   4.199   9.775 -1.4684 -0.4772  0.0358
  769MOL0     C 6003  10.932   4.315   9.798 -0.6532 -0.6331 -0.1094
  769MOL0     C 6004  10.961   4.368   9.937  0.3946 -0.4195 -0.4842
  769MOL0     C 6005  11.105   4.311   9.965 -0.4067 -0.5610  0.0241
  769MOL0     C 6006  11.161   4.362  10.100  1.5401 -0.0816  0.0779
  769MOL0     C 6007  11.156   4.519  10.118  1.1610 -0.2136  0.0588
  769MOL0     O 6008  11.267   4.553  10.216  0.5952  0.1667  0.3481
  769MOL0     C 6009  11.299   4.684  10.237  0.5446 -0.5607 -0.4666
  769MOL0     C 6010  11.419   4.714  10.284 -0.8052  0.1407 -0.4627
  769MOL0     C 6011  11.466   4.838  10.299  1.1677  0.4786 -0.1003
  769MOL0     C 6012  11.615   4.845  10.317 -0.1827 -0.8465  0.0688
  769MOL0     C 6013  11.382   4.947  10.274  0.2154 -0.3857  0.3802
  769MOL0     C 6014  11.423   5.100  10.281  0.2024  0.0930 -0.4855
  769MOL0     O 6015  11.550   5.138  10.313  0.3480  0.5018  0.7732
  769MOL0     C 6016  11.609   5.259  10.286 -0.1773 -0.1112  0.4117
  769MOL0     C 6017  11.748   5.261  10.275  0.0332  0.4541  0.8330
  769MOL0     C 6018  11.816   5.383  10.236 -0.2508 -0.2240 -0.1612
  769MOL0     C 6019  11.743   5.499  10.208 -0.0801 -0.6657  0.5916
  769MOL0     O 6020  11.824   5.604  10.180 -0.0560  0.0915  0.1878
  769MOL0     C 6021  11.767   5.730  10.135 -0.1345 -0.6409  0.8174
  769MOL0     C 6022  11.760   5.819  10.252 -0.3297 -0.0571  0.3739
  769MOL0     C 6023  11.695   5.945  10.206 -0.0861  0.1476 -0.5082
  769MOL0     C 6024  11.800   6.050  10.206  0.4035 -0.0281 -0.1792
  769MOL0     C 6025  11.737   6.184  10.165 -0.4706  0.2410  0.1497
  769MOL0     C 6026  11.841   6.298  10.180  0.7474 -0.9304 -0.5575
  769MOL0     C 6027  11.773   6.428  10.155  1.0639 -0.3269  0.7135
  769MOL0     C 6028  11.876   6.545  10.163 -0.4621  0.2887  0.8328
  769MOL0    Cl 6029  11.972   6.536  10.013  0.1859  0.2150 -0.1046
  769MOL0     C 6030  11.607   5.498  10.220  0.0079  0.9407 -0.5283
  769MOL0     C 6031  11.539   5.379  10.253  0.1286 -0.3554 -0.2308
  769MOL0     O 6032  11.339   5.181  10.251  0.2865  0.6557  0.4473
  769MOL0     C 6033  11.243   4.915  10.238 -0.3018 -0.3749 -0.4624
  769MOL0     C 6034  11.212   4.787  10.212  0.0769  0.0524  0.6226
  769MOL0     N 6035  10.976   4.361   9.681  0.4206  0.0426 -0.6011
  769MOL0     N 6036  10.942   4.291   9.575 -0.6335 -0.1244 -0.2352
  769MOL0     C 6037  10.533   3.017   9.456  0.1579  0.4207 -0.2113
  769MOL0     C 6038  10.535   2.884   9.506 -0.4853 -0.4926  0.2122
  769MOL0     C 6039  10.718   2.558   9.752  0.7628  0.1978  0.2724
  769MOL0     C 6040  10.704   2.438   9.682 -0.7353  0.6247 -0.0175
  769MOL0     C 6041  10.695   2.314   9.744 -0.0515  0.4458  0.3757
  769MOL0     C 6042  10.694   2.305   9.883 -0.5335 -0.2698 -0.3014
  769MOL0     O 6043  10.682   2.193   9.966 -0.7365 -0.1455  0.4508
  769MOL0     C 6044  10.655   2.065   9.913  0.7538 -0.4381  0.0606
  769MOL0     C 6045  10.716   1.968  10.017 -0.2065 -1.0604 -0.1910
  769MOL0     C 6046  10.863   1.995  10.053 -0.0569 -0.2464  0.2277
  769MOL0     C 6047  10.905   1.915  10.181  0.4532  1.1231 -0.2958
  769MOL0     C 6048  10.917   1.767  10.133  0.2966  0.0168  0.1879
  769MOL0     C 6049  10.935   1.656  10.080  0.0689  0.0335 -0.1357
  769MOL0     C 6050  10.709   2.428   9.954  0.2924  0.4335  0.4280
  769MOL0     C 6051  10.722   2.554   9.894 -0.0178 -0.1139 -0.4592
  769MOL0     C 6052  10.724   2.664   9.989  0.3304 -0.2628 -0.6322
  769MOL0     H 6053  10.851   2.793   9.426 -1.6080 -1.8092 -0.2816
  769MOL0     H 6054  10.842   3.022   9.314  1.3910 -1.3579  0.9685
  769MOL0     H 6055  10.720   3.376   9.320  1.9866  2.2122  3.0000
  769MOL0     H 6056  10.815   3.244   9.376  0.2032 -1.1734  1.2964
  769MOL0     H 6057  10.575   3.359   9.538 -0.0706 -0.9595 -0.2943
  769MOL0     H 6058  10.690   3.251   9.602  1.2788 -0.2237 -0.7646
  769MOL0     H 6059  10.748   3.462   9.686  0.8433  0.6567  0.1347
  769MOL0     H 6060  10.875   3.444   9.569  0.2928  1.1014  1.3132
  769MOL0     H 6061  10.770   3.617   9.411 -2.2092  1.9460  0.3964
  769MOL0     H 6062  10.634   3.612   9.518 -0.6935 -2.0626  3.2326
  769MOL0     H 6063  10.905   3.684   9.615 -0.1651 -1.9119  0.2767
  769MOL0     H 6064  10.759   3.672   9.709 -0.2175 -0.6027 -0.3485
  769MOL0     H 6065  10.826   3.841   9.455 -1.2929  1.1126 -0.9793
  769MOL0     H 6066  10.670   3.849   9.511  1.0373 -1.3036 -2.9960
  769MOL0     H 6067  10.913   3.948   9.675 -0.6448 -0.4205  2.4625
  769MOL0     H 6068  10.756   3.949   9.731 -0.7171 -0.1699 -0.9429
  769MOL0     H 6069  10.828   4.089   9.455 -0.3614 -1.9112 -1.2851
  769MOL0     H 6070  10.684   4.109   9.547 -0.5280 -2.0631  0.1755
  769MOL0     H 6071  10.814   4.152   9.859 -3.6787 -1.5499 -1.7946
  769MOL0     H 6072  10.901   4.340  10.024 -0.1213 -0.3460 -0.8135
  769MOL0     H 6073  10.967   4.476   9.926  0.2013 -0.0631  2.2434
  769MOL0     H 6074  11.114   4.202   9.959 -0.1785 -0.5112 -0.6592
  769MOL0     H 6075  11.169   4.356   9.889 -1.9624  1.5156 -0.1488
  769MOL0     H 6076  11.099   4.311  10.173 -0.9896 -0.2274 -2.0213
  769MOL0     H 6077  11.268   4.344  10.116  1.6953 -0.5191 -1.2673
  769MOL0     H 6078  11.160   4.575  10.024  0.8184 -1.5015 -0.7373
  769MOL0     H 6079  11.061   4.549  10.163  0.3841 -0.1803 -1.5462
  769MOL0     H 6080  11.492   4.635  10.295 -0.0277  0.4783 -2.7023
  769MOL0     H 6081  11.679   4.766  10.277  0.4309  0.3050 -1.3028
  769MOL0     H 6082  11.640   4.855  10.424  0.9412  3.6427 -0.4264
  769MOL0     H 6083  11.661   4.932  10.272 -0.5824  0.3242  1.7972
  769MOL0     H 6084  11.803   5.168  10.286 -1.1996 -0.3027  0.7166
  769MOL0     H 6085  11.924   5.388  10.228 -0.2470 -1.2461 -0.9607
  769MOL0     H 6086  11.832   5.777  10.060 -0.1623  0.2877  1.3558
  769MOL0     H 6087  11.668   5.718  10.091  0.4985  1.5798 -1.4768
  769MOL0     H 6088  11.683   5.772  10.314  1.0239 -1.1895  1.2586
  769MOL0     H 6089  11.850   5.842  10.308 -1.0640  2.4157  0.6715
  769MOL0     H 6090  11.630   5.969  10.291  1.4504 -2.7961  1.6839
  769MOL0     H 6091  11.637   5.930  10.114 -1.9547  1.7042  0.3480
  769MOL0     H 6092  11.873   6.016  10.131  1.7292  3.7432 -0.8299
  769MOL0     H 6093  11.859   6.064  10.296  1.1688  0.8399 -0.7970
  769MOL0     H 6094  11.695   6.180  10.065  0.4592  0.6402 -0.2703
  769MOL0     H 6095  11.655   6.193  10.236  0.8533 -1.6088  2.0615
  769MOL0     H 6096  11.919   6.274  10.108  0.4238 -3.5662 -0.1256
  769MOL0     H 6097  11.874   6.294  10.284 -2.2829  0.9385  0.6368
  769MOL0     H 6098  11.689   6.443  10.224  0.9165  1.2932  0.2103
  769MOL0     H 6099  11.732   6.420  10.054 -3.8462  0.8464  2.3247
  769MOL0     H 6100  11.942   6.541  10.251 -0.4510  3.2037  1.0614
  769MOL0     H 6101  11.830   6.644  10.171 -0.0046  0.6649 -0.7656
  769MOL0     H 6102  11.548   5.588  10.212  0.2068  1.0459 -0.8219
  769MOL0     H 6103  11.431   5.381  10.268  0.2119  0.4751  0.2902
  769MOL0     H 6104  11.180   5.000  10.216  0.2922  0.0807 -0.4518
  769MOL0     H 6105  11.114   4.786  10.167  0.7833  6.1304 -2.0757
  769MOL0     H 6106  10.444   3.080   9.460  1.2962  2.0494  2.0380
  769MOL0     H 6107  10.438   2.857   9.547 -2.1553  4.1508 -0.0931
  769MOL0     H 6108  10.691   2.437   9.575 -2.3799  0.0962  0.1462
  769MOL0     H 6109  10.683   2.229   9.678 -0.5101  1.1686 -0.4918
  769MOL0     H 6110  10.546   2.053   9.911  0.8559 -1.5016 -0.1278
  769MOL0     H 6111  10.685   2.038   9.812  1.9990 -1.3101  0.6401
  769MOL0     H 6112  10.707   1.867   9.976  1.5119 -0.1975 -2.9791
  769MOL0     H 6113  10.656   1.983  10.107  3.2445 -2.3999  2.6042
  769MOL0     H 6114  10.921   1.965   9.966  0.9540 -2.1616  1.4996
  769MOL0     H 6115  10.888   2.100  10.071 -3.1001  0.2969  1.9609
  769MOL0     H 6116  10.833   1.930  10.262  0.3852  4.7087 -0.8585
  769MOL0     H 6117  11.000   1.954  10.219  0.8168  1.3440 -1.4058
  769MOL0     H 6118  10.971   1.572  10.024  3.4916  0.6232  0.9700
  769MOL0     H 6119  10.706   2.409  10.061 -2.6426 -1.3245  0.1435
  769MOL0     H 6120  10.817   2.721   9.986 -0.2862  0.9723  1.4977
  769MOL0     H 6121  10.649   2.740   9.963 -0.2597 -0.1471  1.2650
  769MOL0     H 6122  10.705   2.636  10.093 -0.9504 -0.0692 -0.7932
  770MOL0     O 6123   1.476   2.353   6.891 -0.5056 -0.3744  0.1768
  770MOL0     C 6124   1.398   2.284   6.829  0.5386  0.0189 -0.4881
  770MOL0     O 6125   1.399   2.261   6.700 -0.4262 -0.4567  0.7251
  770MOL0     C 6126   1.491   2.342   6.635 -0.0056  0.1479  0.2434
  770MOL0     C 6127   1.593   2.270   6.565  0.1042 -0.9795  0.8584
  770MOL0     C 6128   1.669   2.338   6.471  0.5939 -0.2388  1.1394
  770MOL0     C 6129   1.676   2.477   6.457 -0.2667  0.3727  0.2034
  770MOL0     O 6130   1.755   2.557   6.386 -0.0802 -0.0016  1.4874
  770MOL0     C 6131   1.805   2.507   6.259  0.4400 -0.1807 -0.7250
  770MOL0     C 6132   1.713   2.514   6.140 -0.2892 -0.1905 -0.8579
  770MOL0     C 6133   1.640   2.384   6.132  0.2675  0.0432 -0.9108
  770MOL0     C 6134   1.490   2.414   6.104  0.4066  0.0285 -0.3606
  770MOL0     C 6135   1.392   2.293   6.130  0.0121  0.1411 -0.5570
  770MOL0     C 6136   1.251   2.319   6.086  1.0794  0.2169 -0.7917
  770MOL0     C 6137   1.157   2.211   6.141  0.1897 -0.1268  0.4662
  770MOL0     C 6138   1.101   2.124   6.030 -0.7023  0.1991 -1.2426
  770MOL0     N 6139   1.208   2.054   5.948  0.6262  0.3124 -0.3197
  770MOL0     C 6140   1.278   1.945   5.999  0.2278  0.4235 -0.0006
  770MOL0     C 6141   1.361   1.906   5.900 -0.5730  0.2751 -0.1520
  770MOL0     C 6142   1.441   1.779   5.890  0.1638 -0.5146 -0.4978
  770MOL0     C 6143   1.550   1.789   5.781  0.2207  0.2432  0.7624
  770MOL0     C 6144   1.677   1.709   5.816 -0.0867  0.1787  0.3051
  770MOL0     C 6145   1.657   1.563   5.790  0.4495 -0.3394  0.3422
  770MOL0     O 6146   1.637   1.542   5.648 -0.3054  0.0193  0.2239
  770MOL0     C 6147   1.623   1.411   5.602 -0.4093 -0.1646 -0.2717
  770MOL0     C 6148   1.624   1.298   5.679 -0.4733 -0.2784  0.1821
  770MOL0     C 6149   1.609   1.167   5.635 -0.3644 -0.4250 -0.0034
  770MOL0     C 6150   1.614   1.054   5.735  0.1734  0.4073 -0.4476
  770MOL0     C 6151   1.597   1.149   5.497 -0.2733  0.6374 -0.4176
  770MOL0     C 6152   1.572   1.018   5.446  0.2909  0.1120  0.0292
  770MOL0     O 6153   1.651   0.974   5.344  0.0237  0.0292 -0.2759
  770MOL0     C 6154   1.615   0.871   5.266  1.1216 -0.2848 -0.0919
  770MOL0     C 6155   1.496   0.877   5.188 -0.0029  0.6744 -0.0766
  770MOL0     C 6156   1.467   0.774   5.090 -0.6021  0.1306  0.0969
  770MOL0     C 6157   1.571   0.682   5.068  0.2812  0.0229  0.5451
  770MOL0     O 6158   1.574   0.580   4.976  0.9447  0.6728 -0.2058
  770MOL0     C 6159   1.481   0.580   4.862  0.2356  0.6407 -0.1530
  770MOL0     C 6160   1.426   0.435   4.848  0.6204  0.6672  0.6953
  770MOL0     C 6161   1.524   0.321   4.882 -0.0291 -0.4242 -0.2149
  770MOL0     C 6162   1.444   0.182   4.871 -0.4916 -0.5574  0.8278
  770MOL0     C 6163   1.542   0.063   4.887  0.3294 -0.4426  0.4303
  770MOL0     C 6164   1.661   0.056   4.785 -0.4508  0.3339  0.5388
  770MOL0     C 6165   1.723  -0.080   4.822 -0.6317  0.0392  0.2019
  770MOL0     C 6166   1.848  -0.099   4.729 -0.0743  0.3536  0.7401
  770MOL0    Cl 6167   1.798  -0.080   4.561 -0.1260  0.0544  0.2833
  770MOL0     C 6168   1.689   0.681   5.131 -0.3729 -0.5168  0.0104
  770MOL0     C 6169   1.708   0.767   5.231  0.5813 -0.3781  1.1235
  770MOL0     O 6170   1.479   0.955   5.485  1.3356 -0.6448 -0.4703
  770MOL0     C 6171   1.598   1.259   5.409  0.8386  0.1577  0.5095
  770MOL0     C 6172   1.608   1.389   5.460 -0.1148 -0.9214 -1.2140
  770MOL0     N 6173   1.343   1.991   5.798 -0.2082 -0.6761  0.0989
  770MOL0     N 6174   1.252   2.079   5.823 -0.2076 -0.4073  0.5920
  770MOL0     C 6175   1.579   2.553   6.524  0.8396 -0.0875 -0.1796
  770MOL0     C 6176   1.491   2.490   6.618 -0.2251  0.5033  0.6348
  770MOL0     C 6177   1.301   2.202   6.903 -0.1660 -0.3145  0.6257
  770MOL0     C 6178   1.256   2.081   6.845 -0.4895 -0.1254 -0.9562
  770MOL0     C 6179   1.168   1.986   6.913 -0.7112  0.0540 -0.5580
  770MOL0     C 6180   1.134   2.014   7.050  0.5180  0.3199  0.3418
  770MOL0     O 6181   1.076   1.929   7.143  0.4341  0.0869  0.4816
  770MOL0     C 6182   1.055   1.791   7.114 -0.0928  1.0253 -0.7905
  770MOL0     C 6183   1.032   1.705   7.237  1.0157 -0.4246 -0.4178
  770MOL0     C 6184   0.916   1.760   7.329 -0.0810  0.9079 -0.7688
  770MOL0     C 6185   0.769   1.741   7.286 -0.3295 -0.0269 -0.1202
  770MOL0     C 6186   0.690   1.780   7.405  0.4060 -0.5207 -0.1172
  770MOL0     C 6187   0.616   1.816   7.498  0.5579  0.4206 -0.7092
  770MOL0     C 6188   1.165   2.145   7.094 -0.6791 -0.2258  0.0295
  770MOL0     C 6189   1.244   2.246   7.028  0.1463  0.6734 -0.3334
  770MOL0     C 6190   1.274   2.378   7.101 -0.3871  0.4941  0.1378
  770MOL0     H 6191   1.594   2.161   6.571 -3.3708 -1.4971 -3.1288
  770MOL0     H 6192   1.736   2.266   6.425  0.1099 -2.2010  3.3125
  770MOL0     H 6193   1.843   2.406   6.279  1.4650  0.4813  0.7997
  770MOL0     H 6194   1.894   2.564   6.231  3.8981 -3.1456  3.0063
  770MOL0     H 6195   1.662   2.610   6.140  2.6799  1.5698  0.9905
  770MOL0     H 6196   1.774   2.522   6.049 -0.8125 -0.4229 -1.2325
  770MOL0     H 6197   1.683   2.331   6.047  2.6803  1.3821 -0.6116
  770MOL0     H 6198   1.647   2.321   6.221  0.8665  1.3138 -0.0192
  770MOL0     H 6199   1.462   2.504   6.159 -2.7959 -0.7934 -0.4655
  770MOL0     H 6200   1.477   2.437   5.998  0.6643 -0.5816 -0.5323
  770MOL0     H 6201   1.384   2.258   6.233 -3.7363  0.3859 -0.6257
  770MOL0     H 6202   1.423   2.211   6.065  1.0094  0.4071 -0.4407
  770MOL0     H 6203   1.210   2.415   6.119 -0.5309 -1.1437  1.4408
  770MOL0     H 6204   1.248   2.319   5.976  0.2979  0.7450 -0.7793
  770MOL0     H 6205   1.070   2.262   6.184 -1.6954  0.4071 -3.5504
  770MOL0     H 6206   1.201   2.148   6.219  0.0941  0.4503  0.9911
  770MOL0     H 6207   1.042   2.051   6.086 -0.6968  1.1837  0.0678
  770MOL0     H 6208   1.029   2.180   5.969 -3.6409 -0.2614  1.5404
  770MOL0     H 6209   1.240   1.881   6.078 -0.0954  1.4919  0.7231
  770MOL0     H 6210   1.374   1.693   5.880  1.0964 -1.5878  1.6621
  770MOL0     H 6211   1.492   1.771   5.987  1.0400  2.4682 -0.6381
  770MOL0     H 6212   1.499   1.760   5.688 -3.1292 -2.8907  3.2909
  770MOL0     H 6213   1.585   1.892   5.780  2.8889 -0.5971  1.1085
  770MOL0     H 6214   1.765   1.749   5.764 -0.9021  3.6243  1.3050
  770MOL0     H 6215   1.689   1.720   5.924 -0.4741  3.8155  0.0881
  770MOL0     H 6216   1.748   1.518   5.830 -0.1556 -1.8724  0.0856
  770MOL0     H 6217   1.565   1.533   5.842 -1.0500 -0.4440 -2.1757
  770MOL0     H 6218   1.639   1.307   5.786  1.9851  1.1870 -0.1975
  770MOL0     H 6219   1.644   0.957   5.694 -2.6551 -0.8865  0.2932
  770MOL0     H 6220   1.516   1.040   5.782  0.1312  1.3112 -0.2451
  770MOL0     H 6221   1.680   1.060   5.822  1.2291 -1.6940 -1.0593
  770MOL0     H 6222   1.425   0.958   5.198 -1.0999  0.2151 -3.1617
  770MOL0     H 6223   1.373   0.773   5.037 -0.8435 -0.2756  0.5295
  770MOL0     H 6224   1.400   0.654   4.867 -2.1610 -1.8938  1.3159
  770MOL0     H 6225   1.542   0.606   4.775  1.1978 -0.0541  0.2899
  770MOL0     H 6226   1.335   0.428   4.909  0.1344  0.5752 -0.0219
  770MOL0     H 6227   1.393   0.425   4.744  0.2405 -2.4459  1.0183
  770MOL0     H 6228   1.553   0.316   4.987 -0.0459 -2.6522 -0.2577
  770MOL0     H 6229   1.607   0.325   4.810 -0.2947 -1.6313 -0.6111
  770MOL0     H 6230   1.395   0.191   4.773 -0.5607 -1.1115  0.8054
  770MOL0     H 6231   1.377   0.196   4.956 -0.7618 -1.0147  0.6942
  770MOL0     H 6232   1.574   0.053   4.991  0.5593 -0.4562  0.3571
  770MOL0     H 6233   1.480  -0.026   4.870  1.2073 -0.7377 -1.5519
  770MOL0     H 6234   1.736   0.128   4.820 -1.0803  0.7831  0.9694
  770MOL0     H 6235   1.630   0.061   4.680  2.5031 -3.4941 -0.7730
  770MOL0     H 6236   1.648  -0.156   4.799 -3.0093  1.6534  2.1592
  770MOL0     H 6237   1.758  -0.072   4.925  1.0871  1.3360 -0.4318
  770MOL0     H 6238   1.886  -0.201   4.740 -0.9045  0.1866  2.4009
  770MOL0     H 6239   1.931  -0.032   4.752  3.4908 -3.2475 -0.3329
  770MOL0     H 6240   1.763   0.609   5.098 -0.9248 -2.5245  2.7282
  770MOL0     H 6241   1.805   0.773   5.280  1.8876 -1.5521 -1.1641
  770MOL0     H 6242   1.595   1.250   5.301  0.8932 -0.6642  0.5696
  770MOL0     H 6243   1.611   1.475   5.394  2.4629  0.5358  0.6062
  770MOL0     H 6244   1.573   2.661   6.520 -0.8624 -0.1743 -2.8260
  770MOL0     H 6245   1.430   2.554   6.681 -0.8672  0.8963 -0.3502
  770MOL0     H 6246   1.276   2.043   6.745 -0.9735 -0.3465 -0.9734
  770MOL0     H 6247   1.145   1.890   6.867  3.0599 -0.3997 -1.8976
  770MOL0     H 6248   0.971   1.783   7.045  1.5251  0.2543 -2.7519
  770MOL0     H 6249   1.143   1.745   7.068  0.1804  1.8682 -1.1221
  770MOL0     H 6250   1.127   1.688   7.290  1.6386 -1.8693 -1.9083
  770MOL0     H 6251   0.994   1.611   7.197 -2.3276  1.4328 -1.9496
  770MOL0     H 6252   0.950   1.729   7.428  1.3428 -3.5389 -2.3882
  770MOL0     H 6253   0.936   1.867   7.329 -0.2137  0.9372 -1.2580
  770MOL0     H 6254   0.742   1.640   7.255 -0.8316  0.9694 -3.2930
  770MOL0     H 6255   0.747   1.817   7.210 -2.4642  3.4842  3.6238
  770MOL0     H 6256   0.560   1.858   7.578  0.5147 -0.8911 -0.0238
  770MOL0     H 6257   1.144   2.180   7.195  1.5266  0.0686  0.4388
  770MOL0     H 6258   1.178   2.432   7.104 -2.3429 -2.3960 -2.8496
  770MOL0     H 6259   1.318   2.364   7.200  0.5677  2.6700  0.0766
  770MOL0     H 6260   1.345   2.448   7.056 -1.3033  0.3863 -1.5677
  771MOL0     O 6261   6.354  10.203   7.261  0.1513 -0.4166 -0.6491
  771MOL0     C 6262   6.398  10.093   7.236 -1.1504  1.1354  0.3072
  771MOL0     O 6263   6.403   9.983   7.316  0.1756  0.2764 -0.6973
  771MOL0     C 6264   6.426  10.000   7.454  0.5711  0.1441 -0.0796
  771MOL0     C 6265   6.343   9.922   7.535 -0.5376 -0.3144  0.2714
  771MOL0     C 6266   6.366   9.926   7.674  0.0880  0.6809  0.2497
  771MOL0     C 6267   6.462   9.999   7.734  0.0165 -0.3589 -0.7450
  771MOL0     O 6268   6.469   9.973   7.867  0.1736  0.0443 -0.6351
  771MOL0     C 6269   6.581  10.035   7.926  0.3923 -0.7371 -0.2857
  771MOL0     C 6270   6.582  10.013   8.078 -1.4155 -0.0783 -0.3678
  771MOL0     C 6271   6.508   9.895   8.131 -0.2299 -0.6533 -0.0088
  771MOL0     C 6272   6.565   9.768   8.075  0.2229  0.0999 -0.3001
  771MOL0     C 6273   6.444   9.672   8.074 -0.9596  0.5945 -0.2122
  771MOL0     C 6274   6.498   9.527   8.046  0.4408  0.1044 -0.9135
  771MOL0     C 6275   6.381   9.424   8.055 -0.1084 -0.4061 -0.9977
  771MOL0     C 6276   6.340   9.368   8.191  0.0273 -0.6217  0.2442
  771MOL0     N 6277   6.455   9.285   8.243 -0.7240  0.5780  0.0333
  771MOL0     C 6278   6.544   9.310   8.346 -0.0641 -0.3289  0.6969
  771MOL0     C 6279   6.613   9.191   8.374 -0.2124 -0.8558 -0.1958
  771MOL0     C 6280   6.711   9.159   8.490  0.0690 -0.2628 -0.1543
  771MOL0     C 6281   6.734   9.266   8.596 -1.4356  0.3536 -0.8141
  771MOL0     C 6282   6.813   9.202   8.708 -0.1506  0.2894 -0.2272
  771MOL0     C 6283   6.965   9.212   8.679  1.1247  0.2574  1.0567
  771MOL0     O 6284   6.991   9.356   8.657  0.6854 -0.5302 -0.6596
  771MOL0     C 6285   7.123   9.380   8.623 -0.2591 -0.2102  0.0308
  771MOL0     C 6286   7.198   9.312   8.527 -0.2910  0.2563 -0.8230
  771MOL0     C 6287   7.328   9.353   8.494 -0.4225 -0.0635  0.0661
  771MOL0     C 6288   7.412   9.272   8.396  1.0120  0.4017 -0.5819
  771MOL0     C 6289   7.390   9.455   8.573 -0.3753  0.2072 -0.8818
  771MOL0     C 6290   7.533   9.506   8.553 -0.0380  0.1275  0.0998
  771MOL0     O 6291   7.581   9.573   8.654  0.9372 -0.2657 -0.1883
  771MOL0     C 6292   7.715   9.612   8.669 -0.0511  0.7864 -0.0323
  771MOL0     C 6293   7.818   9.587   8.577 -0.3067  0.0269  0.8175
  771MOL0     C 6294   7.947   9.620   8.594 -0.2066 -0.5365  0.5355
  771MOL0     C 6295   7.974   9.693   8.700 -0.0076 -0.2389 -0.6727
  771MOL0     O 6296   8.098   9.749   8.697 -0.1371  0.0363 -0.0594
  771MOL0     C 6297   8.179   9.772   8.815 -0.4938 -0.1378  0.5945
  771MOL0     C 6298   8.329   9.746   8.796  0.5459  0.6028 -0.2318
  771MOL0     C 6299   8.367   9.615   8.726 -0.0678 -0.3045 -0.3922
  771MOL0     C 6300   8.302   9.502   8.805  0.5871 -0.2328 -0.9209
  771MOL0     C 6301   8.400   9.395   8.819  0.2435 -0.2661  0.2011
  771MOL0     C 6302   8.499   9.422   8.926  0.4433  0.1877  0.9849
  771MOL0     C 6303   8.585   9.302   8.943  0.0086 -0.0199 -0.0050
  771MOL0     C 6304   8.512   9.182   9.000 -0.6905  0.1045 -0.6711
  771MOL0    Cl 6305   8.619   9.037   8.977 -0.2122  0.5112 -0.7764
  771MOL0     C 6306   7.886   9.710   8.805 -0.4443 -0.0688 -0.2729
  771MOL0     C 6307   7.748   9.678   8.786  0.9216 -0.9434 -0.9314
  771MOL0     O 6308   7.582   9.504   8.445  0.5064 -0.8606 -0.4018
  771MOL0     C 6309   7.315   9.516   8.676  0.1238  0.9003 -0.1748
  771MOL0     C 6310   7.181   9.485   8.702 -0.3906  0.5061  0.0637
  771MOL0     N 6311   6.561   9.095   8.291 -0.1721  0.4612 -0.0582
  771MOL0     N 6312   6.470   9.146   8.218 -0.2073  0.0995  0.4205
  771MOL0     C 6313   6.552  10.076   7.655  0.2480 -1.1176  0.8783
  771MOL0     C 6314   6.520  10.081   7.514 -0.8160  0.0506 -0.4662
  771MOL0     C 6315   6.454  10.073   7.097  0.1247 -0.1280 -0.4764
  771MOL0     C 6316   6.403  10.144   6.984 -0.2257 -0.1889 -0.1732
  771MOL0     C 6317   6.461  10.136   6.856  0.6999 -0.3829 -0.5884
  771MOL0     C 6318   6.569  10.046   6.832 -0.6852 -1.1331 -0.4882
  771MOL0     O 6319   6.622  10.033   6.709 -0.1128  0.2321  0.4291
  771MOL0     C 6320   6.642  10.159   6.633 -0.1070  0.3123  0.1775
  771MOL0     C 6321   6.716  10.279   6.697 -0.4261  0.2709 -0.4421
  771MOL0     C 6322   6.710  10.411   6.623 -0.9142  1.0241  1.6472
  771MOL0     C 6323   6.750  10.411   6.478  0.5220  0.1756 -0.7312
  771MOL0     C 6324   6.871  10.349   6.449 -0.2154 -0.1543  0.1827
  771MOL0     C 6325   6.974  10.293   6.429 -0.1199 -0.1447  0.3930
  771MOL0     C 6326   6.614   9.976   6.938 -0.0879 -0.0552 -0.2380
  771MOL0     C 6327   6.556   9.980   7.068 -1.6742  0.4635 -0.2745
  771MOL0     C 6328   6.622   9.876   7.169  0.5297 -1.1149 -0.2100
  771MOL0     H 6329   6.281   9.841   7.498  0.5975 -0.7585 -0.7322
  771MOL0     H 6330   6.311   9.861   7.741 -3.0088  1.4332 -1.4021
  771MOL0     H 6331   6.581  10.143   7.908  1.7565 -0.6347  0.2409
  771MOL0     H 6332   6.668   9.988   7.880 -0.8709 -4.4437  0.7618
  771MOL0     H 6333   6.688  10.005   8.104 -1.1206 -0.4315 -1.6122
  771MOL0     H 6334   6.546  10.109   8.116 -1.1132 -0.1730  0.1671
  771MOL0     H 6335   6.524   9.892   8.239  0.0420  2.0359  0.0757
  771MOL0     H 6336   6.401   9.902   8.110 -0.1066  0.1657 -0.3824
  771MOL0     H 6337   6.602   9.759   7.972  0.6652 -3.4936  0.0149
  771MOL0     H 6338   6.644   9.731   8.141  0.7014  0.5081 -0.6352
  771MOL0     H 6339   6.367   9.710   8.007  2.1848  3.3355 -2.6080
  771MOL0     H 6340   6.399   9.667   8.174 -2.6299 -3.7889 -0.9687
  771MOL0     H 6341   6.531   9.533   7.942  0.1752 -3.5192 -1.3255
  771MOL0     H 6342   6.580   9.496   8.111  1.5350  2.1785 -1.2100
  771MOL0     H 6343   6.407   9.337   7.994  0.8925 -0.3273 -0.6925
  771MOL0     H 6344   6.289   9.471   8.019  0.5580 -0.4742 -2.9230
  771MOL0     H 6345   6.311   9.439   8.269 -0.2645 -0.2830 -0.1665
  771MOL0     H 6346   6.253   9.305   8.166 -1.3058  1.7309 -1.4824
  771MOL0     H 6347   6.553   9.401   8.404 -1.3506 -0.9177  1.8905
  771MOL0     H 6348   6.807   9.135   8.443  0.2778  1.2072 -0.5517
  771MOL0     H 6349   6.677   9.073   8.548  1.5759 -0.6927  0.1295
  771MOL0     H 6350   6.786   9.352   8.552 -0.1708 -0.1389 -0.3254
  771MOL0     H 6351   6.637   9.304   8.629 -1.7018 -0.4279 -0.6824
  771MOL0     H 6352   6.783   9.253   8.800 -0.4140  1.3157 -0.8583
  771MOL0     H 6353   6.784   9.097   8.720 -0.7159  0.1150 -2.6522
  771MOL0     H 6354   7.033   9.174   8.756  1.3417 -3.1034 -0.5940
  771MOL0     H 6355   6.988   9.162   8.585  1.3984  1.8100  0.2736
  771MOL0     H 6356   7.158   9.236   8.460  0.5074 -1.8272  0.9214
  771MOL0     H 6357   7.515   9.258   8.428  1.2673  3.8115  0.5007
  771MOL0     H 6358   7.412   9.311   8.294 -0.0946 -1.0707 -1.1929
  771MOL0     H 6359   7.368   9.172   8.394 -0.8394  1.1758 -0.8811
  771MOL0     H 6360   7.804   9.533   8.485  1.2284 -2.2259  1.8149
  771MOL0     H 6361   8.022   9.600   8.519  1.2001 -0.7699  1.9576
  771MOL0     H 6362   8.162   9.874   8.850  2.9756  0.3656  1.1943
  771MOL0     H 6363   8.148   9.712   8.901  1.6416  0.8742  2.1772
  771MOL0     H 6364   8.375   9.823   8.733  1.4548  0.1411 -0.1536
  771MOL0     H 6365   8.389   9.743   8.887  1.3360  0.2817 -0.7500
  771MOL0     H 6366   8.476   9.619   8.717 -0.0352  0.9434  0.3394
  771MOL0     H 6367   8.341   9.612   8.620 -0.8551  2.6570 -0.3633
  771MOL0     H 6368   8.227   9.466   8.733  0.8832  1.5221 -2.2069
  771MOL0     H 6369   8.263   9.535   8.902  0.8690  2.8076 -1.7116
  771MOL0     H 6370   8.339   9.307   8.835 -1.3847 -0.3068 -4.7031
  771MOL0     H 6371   8.457   9.382   8.726  1.0573  1.2958  0.4425
  771MOL0     H 6372   8.452   9.447   9.021 -0.2897  0.0992  0.6513
  771MOL0     H 6373   8.559   9.509   8.898 -2.2392  1.5498 -0.9775
  771MOL0     H 6374   8.668   9.333   9.008  3.3451 -1.3983 -3.2419
  771MOL0     H 6375   8.629   9.279   8.846  0.6180 -1.7375  0.6482
  771MOL0     H 6376   8.423   9.160   8.940 -2.4164 -1.2426  2.1793
  771MOL0     H 6377   8.495   9.207   9.105  1.2587 -0.7073 -0.1065
  771MOL0     H 6378   7.933   9.752   8.894 -0.4076  1.1845 -0.8694
  771MOL0     H 6379   7.672   9.705   8.858  2.3893  2.6290 -0.4901
  771MOL0     H 6380   7.352   9.601   8.733 -1.9871  3.1555 -1.9257
  771MOL0     H 6381   7.121   9.538   8.776 -2.0264 -3.6642  2.0263
  771MOL0     H 6382   6.633  10.134   7.698  1.6362 -0.3813 -2.4303
  771MOL0     H 6383   6.583  10.139   7.448 -0.7414  0.8119  0.2572
  771MOL0     H 6384   6.328  10.220   7.004 -0.2327 -0.3884  0.5916
  771MOL0     H 6385   6.420  10.190   6.772 -0.8456  0.9799  0.9797
  771MOL0     H 6386   6.700  10.133   6.544 -1.5587 -1.6181 -0.2924
  771MOL0     H 6387   6.542  10.177   6.591 -0.4373 -3.9051 -1.3078
  771MOL0     H 6388   6.824  10.264   6.706 -1.0096 -3.6301  3.4968
  771MOL0     H 6389   6.687  10.302   6.800  2.9168  0.4292  0.6030
  771MOL0     H 6390   6.608  10.449   6.619 -0.9516  0.8107  0.1017
  771MOL0     H 6391   6.770  10.479   6.685  0.8208 -0.0438  1.2088
  771MOL0     H 6392   6.754  10.518   6.456 -2.4662  1.9488  5.0555
  771MOL0     H 6393   6.668  10.362   6.425 -0.3471  0.1411  0.5780
  771MOL0     H 6394   7.058  10.228   6.431 -0.5836 -0.8445 -1.3065
  771MOL0     H 6395   6.695   9.905   6.927 -0.3929 -0.2558 -1.2014
  771MOL0     H 6396   6.555   9.790   7.174  0.3650 -1.0857 -1.6018
  771MOL0     H 6397   6.720   9.841   7.134  0.9098  1.6416 -2.3099
  771MOL0     H 6398   6.633   9.913   7.272 -2.9666 -1.3099  0.3582
  772MOL0     O 6399   0.492   9.899   9.634 -0.4025 -0.3929 -0.0893
  772MOL0     C 6400   0.600   9.875   9.581  0.2214  0.0983  0.2997
  772MOL0     O 6401   0.630   9.913   9.451  0.7019  0.5196 -0.0068
  772MOL0     C 6402   0.532   9.966   9.379  0.2273 -0.3631  0.5552
  772MOL0     C 6403   0.427   9.884   9.337 -0.9442  0.3546  0.4140
  772MOL0     C 6404   0.311   9.945   9.282 -0.7639  0.3052 -1.4923
  772MOL0     C 6405   0.289  10.082   9.269  0.2293  0.4960  0.0154
  772MOL0     O 6406   0.170  10.116   9.204 -0.8707  0.4672 -0.5639
  772MOL0     C 6407   0.130  10.247   9.233  0.2854  1.7330  0.3862
  772MOL0     C 6408  -0.021  10.266   9.198 -0.4767 -0.0298 -0.4889
  772MOL0     C 6409  -0.047  10.285   9.050  0.3003  0.6766  0.3263
  772MOL0     C 6410  -0.198  10.284   9.015  0.0767  0.5110  0.0897
  772MOL0     C 6411  -0.225  10.312   8.866  0.5500  0.4870  0.0174
  772MOL0     C 6412  -0.144  10.420   8.800 -0.5847 -0.1909 -0.4293
  772MOL0     C 6413  -0.236  10.501   8.710 -0.5177  0.1415  0.7029
  772MOL0     C 6414  -0.294  10.408   8.598 -0.3946  0.3910 -0.2277
  772MOL0     N 6415  -0.370  10.475   8.496 -0.4429  1.0466 -0.3959
  772MOL0     C 6416  -0.356  10.444   8.363 -0.3411  0.7101  0.2045
  772MOL0     C 6417  -0.457  10.516   8.299 -0.0035 -0.4328 -0.7221
  772MOL0     C 6418  -0.502  10.523   8.156 -0.1028  0.0146 -0.4024
  772MOL0     C 6419  -0.445  10.649   8.078  0.9277  0.6465  0.3465
  772MOL0     C 6420  -0.305  10.705   8.103 -1.1780  1.2083  0.5738
  772MOL0     C 6421  -0.261  10.811   8.006  0.1705 -0.5314 -0.4069
  772MOL0     O 6422  -0.127  10.855   8.033  0.5574 -0.1764 -0.6265
  772MOL0     C 6423  -0.109  10.926   8.149 -0.8228 -0.0038 -0.0398
  772MOL0     C 6424   0.031  10.956   8.165  0.7838 -0.5493  0.2406
  772MOL0     C 6425   0.081  11.032   8.275 -0.9116  0.5972 -0.6357
  772MOL0     C 6426   0.224  11.085   8.261  1.0885 -0.3562  0.4277
  772MOL0     C 6427  -0.014  11.065   8.376  0.0235 -0.9784  0.5410
  772MOL0     C 6428   0.025  11.118   8.503 -0.3386 -0.2195 -0.2112
  772MOL0     O 6429   0.136  11.070   8.561 -0.2796 -0.2791 -0.3397
  772MOL0     C 6430   0.185  11.119   8.674 -0.2399  0.2613  0.0489
  772MOL0     C 6431   0.283  11.225   8.678  0.3234  0.0722  0.3098
  772MOL0     C 6432   0.336  11.272   8.801 -0.2761  0.4784 -0.0364
  772MOL0     C 6433   0.291  11.221   8.922  0.2460 -0.1940 -0.0151
  772MOL0     O 6434   0.349  11.277   9.026 -0.1061  0.2018 -0.2687
  772MOL0     C 6435   0.359  11.217   9.153 -0.2100  0.2733 -0.0635
  772MOL0     C 6436   0.480  11.125   9.160  0.5211  0.4751  0.1986
  772MOL0     C 6437   0.501  11.083   9.305  1.6113  1.1389 -0.4657
  772MOL0     C 6438   0.634  11.128   9.360 -0.8320 -0.5688 -0.3134
  772MOL0     C 6439   0.626  11.278   9.413 -0.1612 -0.5557 -0.1736
  772MOL0     C 6440   0.773  11.348   9.406 -1.2630  0.4902 -0.2197
  772MOL0     C 6441   0.876  11.263   9.491 -0.0247 -0.0231 -0.3876
  772MOL0     C 6442   0.984  11.349   9.551 -0.5744  1.0300 -0.4794
  772MOL0    Cl 6443   1.090  11.236   9.651  0.5892 -0.1900 -0.1463
  772MOL0     C 6444   0.187  11.128   8.925 -0.1105  0.3074 -0.3232
  772MOL0     C 6445   0.134  11.074   8.804  0.0022 -0.2695 -0.2504
  772MOL0     O 6446  -0.047  11.213   8.544  0.2171 -0.3878 -0.3970
  772MOL0     C 6447  -0.153  11.041   8.354  0.5310 -0.0046 -0.1604
  772MOL0     C 6448  -0.196  10.981   8.238  0.0793  0.8952  0.6495
  772MOL0     N 6449  -0.521  10.594   8.400 -0.3334 -0.5402 -0.0372
  772MOL0     N 6450  -0.467  10.563   8.510  0.0441  0.0598 -0.0816
  772MOL0     C 6451   0.399  10.166   9.308 -1.8110 -0.1554 -0.4009
  772MOL0     C 6452   0.517  10.107   9.364 -0.4438 -0.2927 -0.0873
  772MOL0     C 6453   0.693   9.806   9.663  0.7142  0.0720  0.3519
  772MOL0     C 6454   0.830   9.819   9.630 -0.0970 -0.3549 -0.2392
  772MOL0     C 6455   0.936   9.760   9.697  0.2888 -0.3682  0.4734
  772MOL0     C 6456   0.909   9.674   9.802  0.2095  0.5579  0.7106
  772MOL0     O 6457   0.995   9.601   9.876 -0.2670 -0.3000 -0.2201
  772MOL0     C 6458   1.135   9.652   9.874  0.1326  1.2640  0.0168
  772MOL0     C 6459   1.197   9.603  10.003  0.7648 -0.3426 -1.0710
  772MOL0     C 6460   1.342   9.603  10.005 -0.5507 -0.0054 -1.4071
  772MOL0     C 6461   1.404   9.537  10.131 -0.3605  0.5783  0.3257
  772MOL0     C 6462   1.378   9.604  10.257 -0.1971  0.0400 -0.1532
  772MOL0     C 6463   1.361   9.648  10.369 -1.1453 -1.6275  1.0001
  772MOL0     C 6464   0.773   9.663   9.843  0.3383  0.5656 -0.1153
  772MOL0     C 6465   0.666   9.725   9.779  0.3463  0.9325  1.1580
  772MOL0     C 6466   0.521   9.686   9.813  0.1552  0.4996 -0.4096
  772MOL0     H 6467   0.432   9.776   9.338  2.2160  0.4155 -0.1571
  772MOL0     H 6468   0.244   9.866   9.251  1.3828 -1.8416 -0.9370
  772MOL0     H 6469   0.193  10.319   9.180  2.2675 -0.6010 -0.6479
  772MOL0     H 6470   0.144  10.260   9.341 -2.2880 -2.9246  1.5232
  772MOL0     H 6471  -0.076  10.177   9.231 -1.9530  0.7147 -0.8909
  772MOL0     H 6472  -0.060  10.349   9.256 -0.8061  0.5534 -1.5173
  772MOL0     H 6473   0.007  10.375   9.019  0.8789  1.5003  3.3417
  772MOL0     H 6474  -0.001  10.201   8.998  3.9808  2.7663 -0.1205
  772MOL0     H 6475  -0.244  10.188   9.042 -1.3226  1.5599  1.6760
  772MOL0     H 6476  -0.238  10.363   9.080  4.1727  3.5784 -0.6793
  772MOL0     H 6477  -0.334  10.325   8.861  0.2105 -0.5919  2.9219
  772MOL0     H 6478  -0.212  10.220   8.808 -1.4730  1.3061 -1.9346
  772MOL0     H 6479  -0.110  10.496   8.872 -1.3823  2.0150 -2.2487
  772MOL0     H 6480  -0.063  10.374   8.743 -0.0626  0.1245  0.0414
  772MOL0     H 6481  -0.180  10.584   8.666  2.9449 -1.4517  1.7544
  772MOL0     H 6482  -0.317  10.543   8.770 -2.2373 -2.0890  0.0522
  772MOL0     H 6483  -0.209  10.358   8.552  0.3556  2.9605 -1.8768
  772MOL0     H 6484  -0.358  10.330   8.641 -3.1612  2.5343 -0.2017
  772MOL0     H 6485  -0.274  10.384   8.325  0.3012  0.3245  2.1038
  772MOL0     H 6486  -0.609  10.533   8.171 -0.1286  3.9128 -2.0630
  772MOL0     H 6487  -0.471  10.431   8.104  2.6303  1.2765 -1.2420
  772MOL0     H 6488  -0.458  10.622   7.973  1.1462 -1.8283  0.8749
  772MOL0     H 6489  -0.525  10.715   8.112 -0.9949 -2.9511  3.7370
  772MOL0     H 6490  -0.282  10.740   8.204  3.4124  0.0475  0.1538
  772MOL0     H 6491  -0.232  10.625   8.092  1.7348  3.4523  2.2091
  772MOL0     H 6492  -0.269  10.782   7.901  1.1638 -3.0131  0.1397
  772MOL0     H 6493  -0.319  10.903   8.019  0.9563  0.0748 -1.0506
  772MOL0     H 6494   0.093  10.906   8.091 -1.8028 -1.9712 -1.0878
  772MOL0     H 6495   0.223  11.166   8.188  0.8926 -0.3685  0.4176
  772MOL0     H 6496   0.289  11.008   8.220  1.0337  0.6482 -1.6995
  772MOL0     H 6497   0.253  11.130   8.357  1.4206  5.1530 -1.8764
  772MOL0     H 6498   0.315  11.261   8.581 -0.7899  0.6888  0.1520
  772MOL0     H 6499   0.409  11.353   8.799  1.4621 -1.0245 -1.0542
  772MOL0     H 6500   0.363  11.294   9.231  0.4121  0.5943 -0.4017
  772MOL0     H 6501   0.270  11.159   9.179 -0.7338  0.2386 -1.7842
  772MOL0     H 6502   0.469  11.042   9.091  1.8049  1.5282 -1.3492
  772MOL0     H 6503   0.570  11.179   9.129  0.8388 -0.5217 -0.6809
  772MOL0     H 6504   0.501  10.974   9.319  0.2921  1.2104  0.1321
  772MOL0     H 6505   0.424  11.129   9.367  1.1158  1.7404 -1.4960
  772MOL0     H 6506   0.709  11.119   9.281 -0.6841  2.9470 -0.7644
  772MOL0     H 6507   0.675  11.070   9.442  1.0453  0.9809 -0.0897
  772MOL0     H 6508   0.557  11.339   9.354  0.5106  0.6847  0.2904
  772MOL0     H 6509   0.601  11.273   9.520  0.3264  1.4524  0.0584
  772MOL0     H 6510   0.769  11.453   9.440 -3.2879  0.5238 -0.4313
  772MOL0     H 6511   0.806  11.332   9.303  0.6619 -3.0583  0.7878
  772MOL0     H 6512   0.916  11.182   9.429  2.0295  3.1097 -3.6030
  772MOL0     H 6513   0.825  11.212   9.573  0.6930 -3.7609 -2.0472
  772MOL0     H 6514   0.952  11.425   9.624 -1.9017 -0.7763  0.9297
  772MOL0     H 6515   1.044  11.390   9.469  3.1383  1.1100  2.0271
  772MOL0     H 6516   0.157  11.092   9.022  3.0934  0.0412  0.7007
  772MOL0     H 6517   0.048  11.008   8.807 -1.6506  1.7635 -0.0942
  772MOL0     H 6518  -0.231  11.064   8.426 -1.7955  0.7376 -2.7314
  772MOL0     H 6519  -0.304  10.976   8.223  0.0563 -2.1294  1.3077
  772MOL0     H 6520   0.409  10.272   9.283  2.5071 -0.4863 -0.8661
  772MOL0     H 6521   0.599  10.166   9.405  0.9986 -1.4391 -1.2037
  772MOL0     H 6522   0.863   9.878   9.545 -1.8200  1.0827  0.0169
  772MOL0     H 6523   1.038   9.774   9.663 -0.4564 -0.9285 -2.2370
  772MOL0     H 6524   1.178   9.598   9.789 -1.7097 -0.4731  0.1066
  772MOL0     H 6525   1.133   9.760   9.858 -2.4994  1.5422  1.6543
  772MOL0     H 6526   1.160   9.507  10.040  1.3808  0.7810  2.9300
  772MOL0     H 6527   1.166   9.672  10.081  0.6860  0.6750 -1.9802
  772MOL0     H 6528   1.393   9.559   9.919 -1.1377  0.6449 -2.1091
  772MOL0     H 6529   1.361   9.711  10.001 -2.9436  0.7891  2.9335
  772MOL0     H 6530   1.511   9.547  10.115 -0.6241 -0.0492 -2.1247
  772MOL0     H 6531   1.387   9.430  10.142  2.1873  0.0703 -0.2588
  772MOL0     H 6532   1.367   9.687  10.469  2.2642  0.8593 -0.0078
  772MOL0     H 6533   0.752   9.604   9.931 -0.3320  1.5372  0.4011
  772MOL0     H 6534   0.479   9.758   9.884  0.1886 -0.2092  0.3425
  772MOL0     H 6535   0.446   9.682   9.734  2.8558  1.6188 -3.2597
  772MOL0     H 6536   0.523   9.594   9.871  1.6509 -0.4926 -1.9302
  773MOL0     O 6537   2.579  10.499   6.215  0.7514  0.1062  0.4353
  773MOL0     C 6538   2.561  10.397   6.145 -0.1193  0.6473  0.9070
  773MOL0     O 6539   2.606  10.379   6.017 -0.1800  0.0896  0.1292
  773MOL0     C 6540   2.677  10.474   5.955 -1.1060  0.7190 -0.4714
  773MOL0     C 6541   2.786  10.434   5.874 -0.2401 -0.7952 -0.0985
  773MOL0     C 6542   2.878  10.531   5.831  0.1726 -0.1664  0.9151
  773MOL0     C 6543   2.865  10.668   5.868 -0.5207  0.2857  1.0630
  773MOL0     O 6544   2.959  10.767   5.843  0.2238 -0.1745  0.0166
  773MOL0     C 6545   3.046  10.756   5.731  1.1234 -0.1186  0.3503
  773MOL0     C 6546   2.962  10.773   5.605  1.0882 -0.5761 -0.4143
  773MOL0     C 6547   3.045  10.696   5.493  0.4026 -0.1441 -0.7211
  773MOL0     C 6548   2.976  10.699   5.357 -0.3190 -0.0489  0.4067
  773MOL0     C 6549   2.870  10.589   5.323 -0.2563  0.1541  0.0960
  773MOL0     C 6550   2.934  10.463   5.259 -0.1809 -0.2787  0.1854
  773MOL0     C 6551   2.836  10.358   5.234  1.0657 -0.3376 -0.4633
  773MOL0     C 6552   2.895  10.243   5.145 -0.1239 -0.7076  0.2933
  773MOL0     N 6553   2.768  10.168   5.131 -0.2950  0.4348 -0.1204
  773MOL0     C 6554   2.680  10.156   5.030 -0.4296 -0.6357 -0.1525
  773MOL0     C 6555   2.595  10.061   5.069  1.1297 -0.4643  0.3632
  773MOL0     C 6556   2.492   9.999   4.969 -0.5944 -0.9767  0.9610
  773MOL0     C 6557   2.349   9.973   5.036  0.6486  0.2222  0.2342
  773MOL0     C 6558   2.234  10.084   5.040  0.3127  0.2643 -0.5489
  773MOL0     C 6559   2.110  10.044   5.112  0.1448 -0.1911  0.0054
  773MOL0     O 6560   2.005  10.134   5.082  0.2446 -0.7617  0.2601
  773MOL0     C 6561   1.877  10.114   5.132 -0.4507 -0.1097 -0.7642
  773MOL0     C 6562   1.786  10.194   5.084  0.4505  0.0440 -0.2699
  773MOL0     C 6563   1.653  10.183   5.127 -0.4357  0.3651 -0.1780
  773MOL0     C 6564   1.565  10.282   5.075 -1.0148  0.8908 -0.0428
  773MOL0     C 6565   1.621  10.090   5.227  0.0877  0.0876  0.3461
  773MOL0     C 6566   1.484  10.068   5.282 -0.5498  0.6263 -0.0465
  773MOL0     O 6567   1.476   9.969   5.377  0.4269 -0.4342 -0.8936
  773MOL0     C 6568   1.349   9.910   5.380  0.3573 -0.1271 -0.2876
  773MOL0     C 6569   1.259   9.885   5.274  0.1736 -1.0146  0.0812
  773MOL0     C 6570   1.125   9.846   5.307 -0.4845  1.2308 -1.4003
  773MOL0     C 6571   1.101   9.815   5.444  0.4450  0.5911  0.8579
  773MOL0     O 6572   0.980   9.776   5.472  1.1462  0.2354 -0.6212
  773MOL0     C 6573   0.940   9.649   5.407 -0.4876 -0.5849  0.2350
  773MOL0     C 6574   0.804   9.616   5.444 -0.2126 -0.2076  0.0286
  773MOL0     C 6575   0.699   9.729   5.418 -0.1890  0.8519 -0.8195
  773MOL0     C 6576   0.698   9.747   5.264 -0.1507  0.9523  0.2625
  773MOL0     C 6577   0.559   9.807   5.213 -0.6598  0.0791 -0.9735
  773MOL0     C 6578   0.558   9.878   5.078 -0.4396  0.1596 -0.2292
  773MOL0     C 6579   0.647  10.007   5.087 -0.2983  0.3090  0.4991
  773MOL0     C 6580   0.654  10.095   4.969  0.2481 -0.1787  0.0598
  773MOL0    Cl 6581   0.490  10.163   4.957 -0.3498  0.3760 -0.2407
  773MOL0     C 6582   1.194   9.823   5.548 -0.3151  0.5620  0.2034
  773MOL0     C 6583   1.314   9.879   5.513  0.0923  0.2465  0.1203
  773MOL0     O 6584   1.388  10.136   5.241 -0.8850 -0.7767 -0.1295
  773MOL0     C 6585   1.727  10.021   5.288  0.2915 -0.7711  0.6122
  773MOL0     C 6586   1.851  10.023   5.235 -0.3134 -0.4054  0.3937
  773MOL0     N 6587   2.619  10.028   5.200 -0.3517 -0.1908  0.3647
  773MOL0     N 6588   2.721  10.089   5.232 -0.4759 -0.2046 -0.8422
  773MOL0     C 6589   2.751  10.704   5.938 -0.8497  0.8061 -0.5111
  773MOL0     C 6590   2.650  10.609   5.976  0.4777 -0.1717  0.5660
  773MOL0     C 6591   2.485  10.285   6.207 -0.0463  0.4878  0.7812
  773MOL0     C 6592   2.492  10.258   6.339 -0.5191  0.0148 -0.2100
  773MOL0     C 6593   2.427  10.151   6.398 -0.0969  0.7899 -0.4425
  773MOL0     C 6594   2.338  10.065   6.329 -0.1433 -0.5111 -0.5850
  773MOL0     O 6595   2.280   9.959   6.393  0.4684 -0.1739  0.3303
  773MOL0     C 6596   2.271   9.949   6.535 -0.5683 -0.6694 -0.6595
  773MOL0     C 6597   2.144  10.026   6.575  0.2235 -1.4004 -0.3365
  773MOL0     C 6598   2.119  10.035   6.718  0.4651  0.0793 -1.0967
  773MOL0     C 6599   2.209  10.130   6.794 -0.1955  0.6000  0.2303
  773MOL0     C 6600   2.179  10.108   6.940 -0.2059 -0.4625 -0.5296
  773MOL0     C 6601   2.168  10.097   7.061 -0.2719  0.7788  0.0051
  773MOL0     C 6602   2.323  10.084   6.196 -0.1183 -0.5706  0.9112
  773MOL0     C 6603   2.395  10.191   6.130 -0.7468  0.7587  0.0127
  773MOL0     C 6604   2.390  10.188   5.974  0.1998 -0.4173 -0.4119
  773MOL0     H 6605   2.801  10.330   5.848 -1.3126 -0.5768 -1.7612
  773MOL0     H 6606   2.961  10.501   5.768  0.3519  2.3774 -0.1889
  773MOL0     H 6607   3.092  10.658   5.745  2.3849  0.4239  0.1213
  773MOL0     H 6608   3.128  10.829   5.736  1.7543 -0.8715  1.1981
  773MOL0     H 6609   2.867  10.719   5.611  2.1838 -2.4857  0.7922
  773MOL0     H 6610   2.942  10.879   5.588 -1.7288 -1.0617 -0.6862
  773MOL0     H 6611   3.144  10.740   5.479 -0.3454  1.4278 -1.2849
  773MOL0     H 6612   3.071  10.593   5.521 -1.2345 -0.4198 -0.0769
  773MOL0     H 6613   2.925  10.795   5.343 -1.7710 -0.6813  1.1274
  773MOL0     H 6614   3.056  10.702   5.282 -0.6955 -1.4130 -0.0815
  773MOL0     H 6615   2.813  10.633   5.241  3.0101  0.1776 -2.3801
  773MOL0     H 6616   2.804  10.568   5.408  0.2245  3.0529  1.3216
  773MOL0     H 6617   2.994  10.493   5.173 -2.8846  0.2862 -1.6363
  773MOL0     H 6618   3.008  10.422   5.328 -0.1684  0.9148  0.9199
  773MOL0     H 6619   2.753  10.416   5.193  0.7764  0.9795  1.8291
  773MOL0     H 6620   2.809  10.324   5.335  0.0310  1.4473 -0.0981
  773MOL0     H 6621   2.928  10.279   5.047 -0.5061  2.5580  1.2200
  773MOL0     H 6622   2.972  10.193   5.203 -0.1195  0.4975  1.3778
  773MOL0     H 6623   2.693  10.217   4.941  4.3588  0.0700  0.7799
  773MOL0     H 6624   2.537   9.908   4.929  1.3484  0.9404 -1.5586
  773MOL0     H 6625   2.481  10.069   4.886 -3.3280 -0.7350  1.4200
  773MOL0     H 6626   2.326   9.888   4.971  1.6933 -1.3669  1.8831
  773MOL0     H 6627   2.375   9.939   5.136  2.0259 -0.2458 -0.2611
  773MOL0     H 6628   2.274  10.170   5.093 -1.1740 -0.0558  1.2212
  773MOL0     H 6629   2.207  10.100   4.936 -2.8988 -2.6033 -0.3497
  773MOL0     H 6630   2.089   9.937   5.104 -0.5191  0.0526 -2.2047
  773MOL0     H 6631   2.125  10.054   5.220 -1.9329  0.1856  0.3019
  773MOL0     H 6632   1.816  10.244   4.993  1.1900 -2.0397 -1.2269
  773MOL0     H 6633   1.540  10.348   5.158  2.8748  0.3542  1.7772
  773MOL0     H 6634   1.477  10.237   5.028 -1.1771  0.4031  0.6974
  773MOL0     H 6635   1.611  10.345   4.999  0.3942 -1.0461 -0.8900
  773MOL0     H 6636   1.282   9.921   5.175 -1.0249  3.2807  1.1208
  773MOL0     H 6637   1.051   9.823   5.232 -0.5775 -1.3837 -0.6030
  773MOL0     H 6638   0.945   9.656   5.298  0.5981  0.3764  0.3271
  773MOL0     H 6639   1.011   9.569   5.431  1.8754  1.4872  0.5388
  773MOL0     H 6640   0.781   9.524   5.390  1.8603 -1.2105  0.7285
  773MOL0     H 6641   0.803   9.596   5.551 -2.3189  1.8758  0.4879
  773MOL0     H 6642   0.716   9.828   5.462 -0.3698 -0.1148  1.5815
  773MOL0     H 6643   0.603   9.698   5.460 -0.4711  2.2761 -0.3503
  773MOL0     H 6644   0.708   9.646   5.222 -0.2856  0.9725  0.1815
  773MOL0     H 6645   0.782   9.798   5.218 -0.0205 -0.5442 -1.2239
  773MOL0     H 6646   0.485   9.727   5.207 -0.2972 -0.7939  3.0348
  773MOL0     H 6647   0.526   9.881   5.286 -1.3330 -0.2001 -0.9893
  773MOL0     H 6648   0.451   9.886   5.054 -0.4793  0.6761  0.1010
  773MOL0     H 6649   0.589   9.809   4.999 -1.4044  1.7420 -2.0645
  773MOL0     H 6650   0.745   9.976   5.125 -1.3620 -2.4029  1.3222
  773MOL0     H 6651   0.597  10.061   5.168 -0.0107 -1.2381  1.7641
  773MOL0     H 6652   0.690  10.052   4.875 -0.3937  3.1000 -1.8495
  773MOL0     H 6653   0.727  10.173   4.994 -0.7616  0.7961  0.0428
  773MOL0     H 6654   1.169   9.814   5.653  0.0061 -1.5521  0.1456
  773MOL0     H 6655   1.387   9.921   5.582  2.7420  0.9644 -2.8633
  773MOL0     H 6656   1.714   9.945   5.364  1.6771 -1.3093  0.3279
  773MOL0     H 6657   1.919   9.966   5.298  0.0939 -0.7128 -0.3241
  773MOL0     H 6658   2.735  10.805   5.976  1.7047  0.9191  0.4783
  773MOL0     H 6659   2.568  10.646   6.036 -1.0835  0.7535 -1.9502
  773MOL0     H 6660   2.567  10.312   6.396  0.5071 -3.4910  2.1549
  773MOL0     H 6661   2.447  10.138   6.504 -1.6829 -0.2534 -0.2415
  773MOL0     H 6662   2.256   9.847   6.570  0.4902  0.1986  2.6746
  773MOL0     H 6663   2.362   9.968   6.592 -3.0561  1.7412  2.9257
  773MOL0     H 6664   2.055   9.982   6.527  1.0240 -0.4772 -2.7874
  773MOL0     H 6665   2.146  10.129   6.541 -1.4311 -0.4900  2.0321
  773MOL0     H 6666   2.014  10.065   6.728  0.3986 -0.4755  0.0141
  773MOL0     H 6667   2.118   9.931   6.753  0.9521  0.7590  1.0695
  773MOL0     H 6668   2.174  10.232   6.773 -1.5888 -0.0339 -0.7049
  773MOL0     H 6669   2.313  10.114   6.765  0.7150  3.6310  1.3648
  773MOL0     H 6670   2.164  10.096   7.168 -2.1203  0.3195 -0.0346
  773MOL0     H 6671   2.259  10.016   6.140  0.0643 -0.8549  1.0432
  773MOL0     H 6672   2.322  10.112   5.935  0.2311 -0.3404 -0.6215
  773MOL0     H 6673   2.360  10.279   5.921 -1.9258 -1.1334 -0.5033
  773MOL0     H 6674   2.489  10.159   5.936  0.1809  0.4097 -1.1310
  774MOL0     O 6675   0.545   6.173   4.219  0.0844  0.3674  0.4577
  774MOL0     C 6676   0.425   6.208   4.247 -0.4801 -0.2401  0.4879
  774MOL0     O 6677   0.315   6.144   4.197 -0.3109  0.8889  0.7387
  774MOL0     C 6678   0.323   6.030   4.114 -0.7935 -0.0495  0.4325
  774MOL0     C 6679   0.292   5.903   4.152 -0.0317  0.6260 -0.3114
  774MOL0     C 6680   0.292   5.790   4.067 -0.0344 -0.6327  0.7182
  774MOL0     C 6681   0.335   5.807   3.935 -0.5362  0.5271  0.3707
  774MOL0     O 6682   0.354   5.704   3.836 -0.0139 -0.1413 -0.3447
  774MOL0     C 6683   0.365   5.571   3.875  0.6782 -0.2684 -0.8588
  774MOL0     C 6684   0.367   5.493   3.743 -0.6461 -0.4497  0.3649
  774MOL0     C 6685   0.413   5.348   3.773  0.9955 -0.2290  0.5117
  774MOL0     C 6686   0.425   5.270   3.643  0.0113  0.6472 -0.4100
  774MOL0     C 6687   0.423   5.119   3.651 -0.4349  0.3730  0.7039
  774MOL0     C 6688   0.291   5.045   3.682 -0.4380  0.2377 -0.9865
  774MOL0     C 6689   0.285   4.897   3.672  0.6632  0.2771  0.3807
  774MOL0     C 6690   0.288   4.843   3.525  0.1518  0.3033  0.2240
  774MOL0     N 6691   0.276   4.694   3.527  0.2432  0.3133  0.2389
  774MOL0     C 6692   0.357   4.600   3.596 -0.2736  0.2150  0.1587
  774MOL0     C 6693   0.292   4.476   3.599 -0.7938  0.0470  0.7220
  774MOL0     C 6694   0.343   4.346   3.658  0.5093 -1.0185  0.1567
  774MOL0     C 6695   0.250   4.228   3.618  0.0730  0.4792 -0.3410
  774MOL0     C 6696   0.301   4.098   3.680 -0.4204  0.9557 -0.0188
  774MOL0     C 6697   0.246   4.082   3.820  0.2088 -0.3354 -0.3011
  774MOL0     O 6698   0.105   4.060   3.824 -0.8288 -0.0670 -0.5368
  774MOL0     C 6699   0.055   3.937   3.793 -0.2351  0.4727 -0.6301
  774MOL0     C 6700   0.128   3.821   3.768 -0.0386  0.6504 -0.2777
  774MOL0     C 6701   0.073   3.702   3.723 -0.1469 -0.5775 -0.8172
  774MOL0     C 6702   0.163   3.586   3.714  0.6632  0.2121 -0.9019
  774MOL0     C 6703  -0.065   3.691   3.725  1.1272  0.9948  0.5056
  774MOL0     C 6704  -0.139   3.573   3.672 -0.5407  0.2815  0.5797
  774MOL0     O 6705  -0.079   3.492   3.579 -0.4039 -0.3150 -0.4274
  774MOL0     C 6706  -0.150   3.400   3.511  0.1605  0.0202 -0.6034
  774MOL0     C 6707  -0.097   3.267   3.506  0.5435  0.1468 -0.6308
  774MOL0     C 6708  -0.159   3.177   3.423  0.1220 -0.4846 -0.3494
  774MOL0     C 6709  -0.273   3.206   3.348 -0.1854 -0.0590 -0.4142
  774MOL0     O 6710  -0.314   3.098   3.273 -0.0011 -0.2601 -0.8440
  774MOL0     C 6711  -0.392   3.120   3.162 -0.3671  0.3396 -0.3066
  774MOL0     C 6712  -0.533   3.090   3.202  0.2968 -0.3783 -0.4830
  774MOL0     C 6713  -0.616   3.052   3.086  0.1404 -0.2916 -0.1611
  774MOL0     C 6714  -0.750   2.994   3.131 -0.1762 -0.4970 -0.4505
  774MOL0     C 6715  -0.817   2.927   3.016 -0.4242  0.2857  0.1462
  774MOL0     C 6716  -0.839   3.017   2.890 -0.4333  0.8267 -0.2117
  774MOL0     C 6717  -0.937   3.136   2.905  0.4443  0.0521  0.1291
  774MOL0     C 6718  -0.935   3.234   2.782 -0.7163 -0.4136 -0.3314
  774MOL0    Cl 6719  -1.032   3.377   2.814  0.2600 -0.0428  0.2918
  774MOL0     C 6720  -0.331   3.335   3.359  1.0666  0.9968  0.1290
  774MOL0     C 6721  -0.269   3.429   3.436 -0.4625 -0.8951 -0.3172
  774MOL0     O 6722  -0.248   3.555   3.726  0.4220 -0.8587  0.7798
  774MOL0     C 6723  -0.142   3.805   3.758 -0.0811 -0.8963 -0.2294
  774MOL0     C 6724  -0.079   3.919   3.803  1.3097 -0.0744 -0.7149
  774MOL0     N 6725   0.185   4.485   3.519  0.3470  0.3794  0.9446
  774MOL0     N 6726   0.177   4.611   3.474 -0.0753 -0.6424 -0.4760
  774MOL0     C 6727   0.361   5.937   3.891 -0.3199 -0.3864  0.2233
  774MOL0     C 6728   0.361   6.043   3.983 -0.4498 -0.7159 -0.8737
  774MOL0     C 6729   0.411   6.296   4.360  0.1456 -0.3246 -0.2330
  774MOL0     C 6730   0.496   6.408   4.362 -0.9570  0.7020 -0.6606
  774MOL0     C 6731   0.499   6.497   4.472  0.4691  1.2252 -0.1497
  774MOL0     C 6732   0.410   6.475   4.573  0.6820 -0.1862 -0.7145
  774MOL0     O 6733   0.415   6.562   4.682 -0.0440 -0.4393 -0.4947
  774MOL0     C 6734   0.419   6.501   4.812  0.2734 -0.5701  0.2361
  774MOL0     C 6735   0.561   6.469   4.859  0.3039  0.3615  0.4221
  774MOL0     C 6736   0.657   6.587   4.867 -0.0836  0.9307 -0.0537
  774MOL0     C 6737   0.799   6.551   4.927 -0.4730 -1.2331 -0.0486
  774MOL0     C 6738   0.882   6.675   4.922  0.6643  0.0141 -0.1895
  774MOL0     C 6739   0.958   6.770   4.917  0.3102 -0.1886 -1.0131
  774MOL0     C 6740   0.299   6.381   4.558 -0.7165 -0.0415  0.4732
  774MOL0     C 6741   0.297   6.292   4.448 -0.9480 -0.3931 -0.2788
  774MOL0     C 6742   0.188   6.201   4.449 -0.3175  0.1674  0.7321
  774MOL0     H 6743   0.281   5.899   4.260  0.9228 -3.4968 -0.2041
  774MOL0     H 6744   0.285   5.697   4.124 -1.1758  1.1278  3.7224
  774MOL0     H 6745   0.278   5.534   3.930 -0.3095  2.4101 -0.4261
  774MOL0     H 6746   0.453   5.555   3.937 -0.4432  0.0152  0.8679
  774MOL0     H 6747   0.265   5.488   3.703 -2.7742  2.6292  4.6074
  774MOL0     H 6748   0.439   5.545   3.677 -1.3119 -1.0612 -0.8803
  774MOL0     H 6749   0.509   5.348   3.826  1.8716  0.4052 -1.0065
  774MOL0     H 6750   0.331   5.303   3.830  0.2606 -3.8940 -2.9301
  774MOL0     H 6751   0.356   5.311   3.568  2.6924  2.7423 -1.8982
  774MOL0     H 6752   0.517   5.301   3.594 -0.4694  0.8929 -1.1863
  774MOL0     H 6753   0.494   5.078   3.724 -2.7237  1.2872  3.6347
  774MOL0     H 6754   0.473   5.087   3.559  2.7794  0.3313  2.3191
  774MOL0     H 6755   0.263   5.079   3.781 -2.8487  0.3516 -1.6561
  774MOL0     H 6756   0.210   5.083   3.619 -0.8602  1.7019  0.3966
  774MOL0     H 6757   0.189   4.863   3.712 -0.3315  3.0591  0.5217
  774MOL0     H 6758   0.357   4.843   3.735  1.1734  0.4136 -0.0795
  774MOL0     H 6759   0.208   4.897   3.476 -0.2694  1.4516  2.0536
  774MOL0     H 6760   0.385   4.872   3.483 -0.5068 -0.1265 -1.6480
  774MOL0     H 6761   0.451   4.636   3.636 -0.2199  1.1517 -0.7562
  774MOL0     H 6762   0.334   4.352   3.766 -5.7311  0.7433 -0.0860
  774MOL0     H 6763   0.447   4.320   3.632  0.8246 -0.6439  1.0068
  774MOL0     H 6764   0.149   4.254   3.653  1.0018  3.7763  0.2732
  774MOL0     H 6765   0.245   4.230   3.509  1.3309  3.7465 -0.4499
  774MOL0     H 6766   0.272   4.007   3.626 -3.3068  0.8406  1.5398
  774MOL0     H 6767   0.411   4.099   3.685 -0.2598  6.0945  0.8728
  774MOL0     H 6768   0.300   3.997   3.863  0.3568  0.8351  1.9727
  774MOL0     H 6769   0.273   4.167   3.883  2.3699 -3.1129  2.8799
  774MOL0     H 6770   0.236   3.829   3.776 -0.1902  2.4209  0.3261
  774MOL0     H 6771   0.257   3.596   3.769  1.8147  1.5684 -2.9785
  774MOL0     H 6772   0.186   3.550   3.613  2.7962 -1.3420  0.0375
  774MOL0     H 6773   0.114   3.496   3.753  2.5230 -0.4025  0.1853
  774MOL0     H 6774  -0.021   3.238   3.578 -0.1408 -1.1813 -0.3969
  774MOL0     H 6775  -0.114   3.079   3.416 -0.6090 -1.0744  2.1113
  774MOL0     H 6776  -0.385   3.221   3.120 -1.3190  1.0554  1.1663
  774MOL0     H 6777  -0.364   3.047   3.085 -0.8514 -0.7789  0.5633
  774MOL0     H 6778  -0.535   3.007   3.273 -0.8011  1.3866  1.6440
  774MOL0     H 6779  -0.568   3.176   3.260 -0.0684  0.2176 -1.5572
  774MOL0     H 6780  -0.559   2.975   3.033 -0.3812  0.4428 -1.8668
  774MOL0     H 6781  -0.622   3.133   3.013 -0.3542 -2.0015 -2.1152
  774MOL0     H 6782  -0.824   3.063   3.173 -1.4273 -0.9691 -1.7874
  774MOL0     H 6783  -0.736   2.909   3.198 -1.6440 -1.2374 -1.0325
  774MOL0     H 6784  -0.746   2.847   2.996 -0.4804  0.4508 -0.7254
  774MOL0     H 6785  -0.914   2.887   3.047  0.0676  1.0971  3.0443
  774MOL0     H 6786  -0.866   2.959   2.801  0.9519  0.6942 -0.5820
  774MOL0     H 6787  -0.739   3.051   2.861 -0.0360  0.1402  0.3235
  774MOL0     H 6788  -0.916   3.198   2.993  1.8181  0.4495 -0.4573
  774MOL0     H 6789  -1.040   3.099   2.899 -0.1418  1.7867 -1.4750
  774MOL0     H 6790  -0.969   3.182   2.692  0.5894 -1.3352 -0.3305
  774MOL0     H 6791  -0.834   3.272   2.767 -0.3291  0.3279  3.2573
  774MOL0     H 6792  -0.424   3.361   3.310  0.7134  1.4774  1.0488
  774MOL0     H 6793  -0.315   3.526   3.447 -4.0512 -2.4732 -0.0968
  774MOL0     H 6794  -0.250   3.798   3.764  0.0546 -2.7266  0.5838
  774MOL0     H 6795  -0.136   4.001   3.846  2.3126 -0.9778  2.6789
  774MOL0     H 6796   0.383   5.956   3.786 -2.0564  1.1718  0.0929
  774MOL0     H 6797   0.386   6.143   3.951  1.2478 -1.5058 -2.1864
  774MOL0     H 6798   0.568   6.425   4.282  1.8466 -2.1012  1.0395
  774MOL0     H 6799   0.560   6.585   4.459  1.4533  0.3626 -1.6595
  774MOL0     H 6800   0.380   6.580   4.877  3.5150  0.3430  1.2802
  774MOL0     H 6801   0.357   6.412   4.824 -0.7722  0.0123 -0.5839
  774MOL0     H 6802   0.594   6.403   4.779 -1.9504 -3.3287  2.2554
  774MOL0     H 6803   0.563   6.419   4.957  1.2208  0.6298  0.5523
  774MOL0     H 6804   0.683   6.611   4.764  0.9600 -0.8646 -0.2515
  774MOL0     H 6805   0.599   6.664   4.919 -0.9972 -1.0700  2.0919
  774MOL0     H 6806   0.847   6.477   4.861  0.6039  2.0132 -3.2423
  774MOL0     H 6807   0.790   6.511   5.028 -1.3330 -2.0200 -0.4166
  774MOL0     H 6808   1.030   6.849   4.922  2.1734 -1.8452 -0.7022
  774MOL0     H 6809   0.212   6.389   4.621  0.5746 -0.9299  2.4706
  774MOL0     H 6810   0.234   6.104   4.471 -1.3481 -0.7414 -0.9316
  774MOL0     H 6811   0.113   6.232   4.522 -2.8968 -2.2893 -0.6996
  774MOL0     H 6812   0.134   6.201   4.355  0.1319 -0.7910  0.4604
  775MOL0     O 6813  10.210   7.900  10.219  0.2108  0.6490 -0.5292
  775MOL0     C 6814  10.243   8.015  10.252  0.3283 -0.2320  0.0148
  775MOL0     O 6815  10.312   8.101  10.179 -0.1447 -0.5756  0.2137
  775MOL0     C 6816  10.376   8.068  10.069  0.0932 -0.0483  0.4256
  775MOL0     C 6817  10.328   8.118   9.944 -0.0943 -1.2917  0.4926
  775MOL0     C 6818  10.392   8.081   9.828  0.1761 -0.2631  0.3592
  775MOL0     C 6819  10.504   8.004   9.827  0.2573  0.0376  0.1953
  775MOL0     O 6820  10.559   7.956   9.708 -0.2823 -0.0067 -0.2231
  775MOL0     C 6821  10.573   8.040   9.592  0.1517 -0.2898 -0.3068
  775MOL0     C 6822  10.689   8.141   9.615 -0.7342 -1.0336  0.4109
  775MOL0     C 6823  10.649   8.290   9.643 -0.8724  0.0608 -0.5879
  775MOL0     C 6824  10.784   8.375   9.664  0.4482  0.2168 -0.0721
  775MOL0     C 6825  10.752   8.521   9.676  0.6208 -0.4764 -0.3785
  775MOL0     C 6826  10.664   8.556   9.793 -0.8686 -0.4198 -0.1293
  775MOL0     C 6827  10.648   8.705   9.795 -0.4097  0.4769 -0.9987
  775MOL0     C 6828  10.548   8.766   9.899  0.5439  0.8132  0.6803
  775MOL0     N 6829  10.610   8.793  10.027  0.4225  0.1457  0.0424
  775MOL0     C 6830  10.675   8.703  10.114 -0.6595 -0.4782  0.6240
  775MOL0     C 6831  10.712   8.779  10.219 -0.2728  0.3692 -0.2463
  775MOL0     C 6832  10.762   8.718  10.349 -0.2006  1.2097  1.6124
  775MOL0     C 6833  10.851   8.594  10.326 -0.6875  0.2822  0.3387
  775MOL0     C 6834  10.957   8.579  10.432  0.5835  0.1885  0.6150
  775MOL0     C 6835  10.900   8.528  10.571  0.3163 -0.2257 -1.2631
  775MOL0     O 6836  10.799   8.616  10.622 -1.1757  0.1614  0.7376
  775MOL0     C 6837  10.805   8.646  10.755 -0.6605  0.3919  0.6435
  775MOL0     C 6838  10.674   8.645  10.808  0.0733  0.1291  0.4961
  775MOL0     C 6839  10.655   8.669  10.948  0.4393  1.3392  0.6005
  775MOL0     C 6840  10.515   8.685  10.987 -0.6502 -0.5993  0.3086
  775MOL0     C 6841  10.763   8.690  11.029  0.6739 -0.3311 -0.6763
  775MOL0     C 6842  10.753   8.714  11.177 -0.2672 -0.2050  0.2430
  775MOL0     O 6843  10.854   8.677  11.257 -0.0436 -0.0150 -0.3032
  775MOL0     C 6844  10.846   8.674  11.395  0.6160  0.3300  0.0104
  775MOL0     C 6845  10.795   8.782  11.472  0.6093  0.1325  0.1944
  775MOL0     C 6846  10.825   8.787  11.609 -0.2104  0.8111  0.5531
  775MOL0     C 6847  10.906   8.692  11.670  0.1265 -0.0257  0.2018
  775MOL0     O 6848  10.951   8.694  11.804  0.1686  0.0372 -0.0990
  775MOL0     C 6849  10.912   8.795  11.897 -0.2567 -0.5651 -0.0202
  775MOL0     C 6850  10.953   8.761  12.036 -0.1591  0.9713 -0.1606
  775MOL0     C 6851  11.101   8.790  12.056  0.5838  0.3285  0.2919
  775MOL0     C 6852  11.135   8.788  12.209  0.3300  0.5306  0.5463
  775MOL0     C 6853  11.293   8.820  12.234  1.3763  0.1149  0.1889
  775MOL0     C 6854  11.333   8.961  12.198  0.4928  0.5049 -0.7596
  775MOL0     C 6855  11.476   8.985  12.230 -0.5190  0.2557 -0.7588
  775MOL0     C 6856  11.523   9.131  12.241  0.5447 -0.1379 -0.7192
  775MOL0    Cl 6857  11.535   9.212  12.085  0.0959  0.5326 -0.1630
  775MOL0     C 6858  10.960   8.593  11.592 -0.1223  0.1060 -0.0840
  775MOL0     C 6859  10.932   8.585  11.455  0.0446 -0.7494 -1.2239
  775MOL0     O 6860  10.648   8.764  11.219  1.3451 -0.2749  0.0959
  775MOL0     C 6861  10.889   8.687  10.970 -0.9913  1.1231 -1.1509
  775MOL0     C 6862  10.915   8.657  10.836 -0.1487 -0.1342 -0.8182
  775MOL0     N 6863  10.688   8.912  10.200  0.5307  0.3936  0.8144
  775MOL0     N 6864  10.635   8.920  10.080  0.4752  0.9731  0.2039
  775MOL0     C 6865  10.551   7.951   9.953  0.3098 -0.0252 -0.2598
  775MOL0     C 6866  10.488   7.989  10.067  0.9699  1.2625  0.5662
  775MOL0     C 6867  10.195   8.076  10.382  0.4226  1.1237 -1.4606
  775MOL0     C 6868  10.195   8.213  10.405 -0.1960  0.1774  0.1151
  775MOL0     C 6869  10.179   8.275  10.526 -0.0650 -0.3742  1.0920
  775MOL0     C 6870  10.139   8.198  10.637  0.0009 -0.2282  0.9743
  775MOL0     O 6871  10.129   8.255  10.760  0.6834  0.0734  0.1161
  775MOL0     C 6872   9.989   8.276  10.799 -0.0703 -0.3317  0.0207
  775MOL0     C 6873   9.978   8.377  10.908  0.7378 -0.6182 -0.2165
  775MOL0     C 6874   9.832   8.415  10.936 -0.3233  0.6861 -0.7925
  775MOL0     C 6875   9.824   8.527  11.039  0.3182 -0.1649  0.2716
  775MOL0     C 6876   9.751   8.492  11.159  0.9657  0.8683  0.0911
  775MOL0     C 6877   9.705   8.463  11.266  0.8110  0.1867 -0.9769
  775MOL0     C 6878  10.111   8.057  10.617 -0.1351 -0.2813  0.1541
  775MOL0     C 6879  10.145   7.995  10.498 -0.2402 -0.2925  0.1696
  775MOL0     C 6880  10.161   7.843  10.488  0.0346 -0.6299  0.0802
  775MOL0     H 6881  10.239   8.180   9.946 -0.2241 -1.4448 -0.3336
  775MOL0     H 6882  10.344   8.104   9.733 -4.1010 -1.3323  2.0341
  775MOL0     H 6883  10.478   8.090   9.572  0.8349  1.6101  0.9553
  775MOL0     H 6884  10.603   7.980   9.505  1.5447 -0.7083  0.4219
  775MOL0     H 6885  10.764   8.116   9.692  1.6346  2.6246 -0.4408
  775MOL0     H 6886  10.746   8.152   9.522 -1.4381 -1.3482 -0.0651
  775MOL0     H 6887  10.589   8.334   9.562 -0.3835  1.6179 -0.1342
  775MOL0     H 6888  10.590   8.288   9.735  2.7659 -0.0209  1.9303
  775MOL0     H 6889  10.821   8.327   9.756 -0.9303 -0.6558  0.0454
  775MOL0     H 6890  10.862   8.358   9.589 -0.1388  1.0217 -0.8862
  775MOL0     H 6891  10.710   8.555   9.581 -1.3128 -1.0834  0.2125
  775MOL0     H 6892  10.843   8.576   9.703 -1.1905  1.2812  2.7212
  775MOL0     H 6893  10.567   8.507   9.779 -0.0322 -3.2136  2.6275
  775MOL0     H 6894  10.711   8.515   9.883  1.5785 -0.4326 -1.3571
  775MOL0     H 6895  10.627   8.739   9.693  3.0682  5.8082 -0.3164
  775MOL0     H 6896  10.745   8.753   9.814 -0.5309  0.2730  0.1754
  775MOL0     H 6897  10.490   8.849   9.858 -0.6619 -1.2990 -2.2090
  775MOL0     H 6898  10.476   8.686   9.915  1.6521 -0.7359 -1.5810
  775MOL0     H 6899  10.690   8.599  10.087  2.4013 -0.1205  0.5646
  775MOL0     H 6900  10.676   8.690  10.412 -2.7373  2.2899 -1.1579
  775MOL0     H 6901  10.811   8.804  10.396 -0.6463  1.5338  1.4918
  775MOL0     H 6902  10.799   8.498  10.320  0.7434 -0.5497  0.6353
  775MOL0     H 6903  10.920   8.601  10.241 -0.2322 -0.7507  0.6102
  775MOL0     H 6904  11.025   8.500  10.399  1.1955  0.4964  1.1251
  775MOL0     H 6905  11.007   8.676  10.440 -3.1227  2.2084  1.7944
  775MOL0     H 6906  10.842   8.438  10.550 -0.1264 -0.4839  0.8719
  775MOL0     H 6907  10.975   8.481  10.635 -0.8288 -0.9168 -0.4024
  775MOL0     H 6908  10.598   8.630  10.733  0.4866  0.4664 -0.0006
  775MOL0     H 6909  10.503   8.785  11.030 -1.7273  1.4901 -4.2712
  775MOL0     H 6910  10.475   8.612  11.058  1.7925 -1.1783  1.1695
  775MOL0     H 6911  10.449   8.693  10.900  0.0661  1.1973 -0.1197
  775MOL0     H 6912  10.729   8.860  11.435 -1.3170 -1.3797  0.2438
  775MOL0     H 6913  10.783   8.870  11.665 -1.6945  0.6653 -0.3023
  775MOL0     H 6914  10.950   8.896  11.876  1.4852 -1.1138  0.2866
  775MOL0     H 6915  10.803   8.803  11.892 -0.3784  0.4646  2.6788
  775MOL0     H 6916  10.894   8.816  12.109 -1.4853  0.3376 -0.7036
  775MOL0     H 6917  10.946   8.652  12.050  1.6438  0.7707 -0.6337
  775MOL0     H 6918  11.128   8.890  12.023  1.1905  0.1983  0.3888
  775MOL0     H 6919  11.160   8.715  12.002  2.1308  1.3641  0.4958
  775MOL0     H 6920  11.108   8.688  12.246 -0.2026  0.5897  0.3290
  775MOL0     H 6921  11.083   8.856  12.277  0.1007 -1.5308  2.5376
  775MOL0     H 6922  11.301   8.809  12.343 -0.8960  0.7231  0.4673
  775MOL0     H 6923  11.356   8.741  12.192  3.6917  1.3550  1.1141
  775MOL0     H 6924  11.266   9.034  12.244 -2.9019 -2.0815 -1.2360
  775MOL0     H 6925  11.320   8.979  12.091 -0.0351  1.6671 -0.5165
  775MOL0     H 6926  11.541   8.939  12.155 -0.6695  0.9750 -1.3445
  775MOL0     H 6927  11.495   8.937  12.326  0.0083  2.8081  0.4997
  775MOL0     H 6928  11.622   9.135  12.285 -0.3628 -1.0131  1.5437
  775MOL0     H 6929  11.457   9.182  12.312  0.0269 -2.0481  0.2655
  775MOL0     H 6930  11.015   8.509  11.634 -1.4671 -0.0697  1.4008
  775MOL0     H 6931  10.970   8.506  11.392 -0.5247 -1.0253 -1.2269
  775MOL0     H 6932  10.971   8.698  11.040 -2.6270 -0.2586  1.1303
  775MOL0     H 6933  11.015   8.669  10.795  1.4374 -2.3367  1.9878
  775MOL0     H 6934  10.643   7.894   9.947 -0.0203 -0.4455 -1.7435
  775MOL0     H 6935  10.518   7.934  10.155  0.2309 -2.6066 -1.3418
  775MOL0     H 6936  10.227   8.280  10.325 -2.1727 -0.9095 -1.6813
  775MOL0     H 6937  10.212   8.378  10.534  1.4019 -0.7632  0.4920
  775MOL0     H 6938   9.941   8.330  10.717  1.8849  2.4318  0.5359
  775MOL0     H 6939   9.944   8.179  10.819 -2.7557  0.5698 -1.2000
  775MOL0     H 6940  10.031   8.462  10.863  0.5086 -0.8920 -1.0203
  775MOL0     H 6941  10.029   8.364  11.004  2.1318 -1.0210 -1.0030
  775MOL0     H 6942   9.782   8.445  10.843 -0.2725  0.8376 -0.7718
  775MOL0     H 6943   9.774   8.325  10.956  0.3730  0.6003  1.0570
  775MOL0     H 6944   9.783   8.620  10.998  1.1938  0.6136  1.1260
  775MOL0     H 6945   9.919   8.567  11.075 -1.8927  2.6768  3.6029
  775MOL0     H 6946   9.666   8.425  11.358  0.0213 -1.8369 -2.0853
  775MOL0     H 6947  10.061   8.000  10.695  0.8516 -2.3636 -0.6444
  775MOL0     H 6948  10.085   7.801  10.422  0.5967 -0.9729 -0.3545
  775MOL0     H 6949  10.265   7.812  10.474  0.3762  0.4517  0.1177
  775MOL0     H 6950  10.145   7.805  10.590 -1.1954 -1.1474 -0.2886
  776MOL0     O 6951   5.879  11.412   3.097 -0.4174 -0.8885  0.5927
  776MOL0     C 6952   6.000  11.436   3.081  0.2797  0.1866  0.1179
  776MOL0     O 6953   6.058  11.524   2.990 -0.3071 -0.2877  0.3384
  776MOL0     C 6954   5.982  11.595   2.903  0.1013  1.0231 -0.0414
  776MOL0     C 6955   5.942  11.723   2.937  0.1039  0.5562 -0.1564
  776MOL0     C 6956   5.850  11.797   2.851  0.2987 -0.1872 -0.0412
  776MOL0     C 6957   5.788  11.726   2.739 -0.1257 -0.9092 -0.4197
  776MOL0     O 6958   5.689  11.796   2.669 -0.1558 -0.8146 -0.1240
  776MOL0     C 6959   5.578  11.714   2.632 -0.6349 -0.6894  0.0883
  776MOL0     C 6960   5.485  11.803   2.542 -0.3566 -0.8991  0.1150
  776MOL0     C 6961   5.534  11.811   2.395 -0.9145  0.2706 -0.9807
  776MOL0     C 6962   5.503  11.944   2.331  0.0691  0.0144 -0.1906
  776MOL0     C 6963   5.605  12.055   2.363 -0.1416  0.6350 -0.8535
  776MOL0     C 6964   5.582  12.198   2.317  0.3462 -0.0598  0.0803
  776MOL0     C 6965   5.617  12.196   2.165 -0.1057  0.5691  0.8731
  776MOL0     C 6966   5.729  12.292   2.120  0.2700  0.5709 -0.3914
  776MOL0     N 6967   5.783  12.262   1.990 -0.6219 -0.1445  0.2247
  776MOL0     C 6968   5.723  12.191   1.879  0.0750 -0.2532  0.6570
  776MOL0     C 6969   5.818  12.195   1.781 -0.0998  0.8451  0.6537
  776MOL0     C 6970   5.794  12.137   1.648  0.1116  0.0563  0.3373
  776MOL0     C 6971   5.925  12.156   1.556 -0.5247  0.1130 -0.0924
  776MOL0     C 6972   6.023  12.044   1.572 -0.6866 -0.7414 -0.5249
  776MOL0     C 6973   6.009  11.919   1.491  0.0236  0.8814  0.0574
  776MOL0     O 6974   5.873  11.869   1.485 -1.1501 -0.1005  0.0177
  776MOL0     C 6975   5.787  11.929   1.394 -0.3758  0.3578 -0.4559
  776MOL0     C 6976   5.647  11.906   1.424  0.5461  0.6922  0.6300
  776MOL0     C 6977   5.546  11.937   1.334  0.2316  0.3526 -0.4531
  776MOL0     C 6978   5.409  11.885   1.363  0.9793 -0.0736  1.0096
  776MOL0     C 6979   5.577  12.020   1.222  0.3035  0.2388 -0.9063
  776MOL0     C 6980   5.476  12.090   1.138  0.5646  0.1048 -1.3304
  776MOL0     O 6981   5.515  12.140   1.023 -0.8165  0.2519  0.5497
  776MOL0     C 6982   5.433  12.207   0.933  0.6643 -0.0272 -0.6244
  776MOL0     C 6983   5.466  12.180   0.800 -0.2161  0.0958  0.4161
  776MOL0     C 6984   5.369  12.209   0.699 -0.1247  0.4550  0.4430
  776MOL0     C 6985   5.245  12.271   0.724 -0.0506  1.5234  0.1500
  776MOL0     O 6986   5.159  12.285   0.613  0.4463 -0.4834 -0.2481
  776MOL0     C 6987   5.028  12.329   0.635 -0.0802  0.3011  0.1069
  776MOL0     C 6988   5.036  12.482   0.591 -0.4664 -0.5440  0.9179
  776MOL0     C 6989   5.041  12.497   0.439  0.9118  1.2034 -0.8915
  776MOL0     C 6990   5.177  12.491   0.371 -0.4421  0.4282  0.1387
  776MOL0     C 6991   5.201  12.598   0.259 -0.2526  0.0726  0.6098
  776MOL0     C 6992   5.102  12.582   0.138  0.5443  0.8181  0.4784
  776MOL0     C 6993   5.112  12.693   0.029 -0.6025  0.2422 -0.4285
  776MOL0     C 6994   5.038  12.658  -0.097  0.7668 -0.0455  0.3428
  776MOL0    Cl 6995   5.102  12.736  -0.240 -0.4494 -0.0338 -0.0361
  776MOL0     C 6996   5.216  12.299   0.862  0.4118 -0.5260  0.0776
  776MOL0     C 6997   5.309  12.267   0.961  0.7273  0.5226 -0.0400
  776MOL0     O 6998   5.356  12.062   1.163  0.5082 -0.2344  0.2403
  776MOL0     C 6999   5.716  12.036   1.190 -0.2439  0.5254  0.5825
  776MOL0     C 7000   5.822  11.990   1.269 -0.8266 -0.1943 -0.5144
  776MOL0     N 7001   5.928  12.275   1.822  0.5606 -0.5957  0.5247
  776MOL0     N 7002   5.902  12.313   1.944 -0.4846  0.4863  0.2702
  776MOL0     C 7003   5.844  11.606   2.700 -0.6630  0.1735  0.2737
  776MOL0     C 7004   5.937  11.544   2.781 -0.0141  0.2753 -0.7622
  776MOL0     C 7005   6.094  11.384   3.183 -0.7374 -0.6836 -0.6744
  776MOL0     C 7006   6.071  11.403   3.316 -0.1727  0.2239  0.6431
  776MOL0     C 7007   6.152  11.343   3.406 -0.4931  0.5531 -0.0324
  776MOL0     C 7008   6.259  11.262   3.374 -0.4212  1.7326  0.3177
  776MOL0     O 7009   6.327  11.193   3.474 -0.0284 -0.0482 -0.5152
  776MOL0     C 7010   6.430  11.097   3.434  1.4747  1.4575 -0.4967
  776MOL0     C 7011   6.355  10.963   3.395 -0.1821 -0.0928 -0.0014
  776MOL0     C 7012   6.470  10.870   3.332 -0.2892  0.4783  0.2707
  776MOL0     C 7013   6.443  10.727   3.282  0.0035 -0.5285  0.3430
  776MOL0     C 7014   6.422  10.657   3.406 -0.0991  0.2199  0.1425
  776MOL0     C 7015   6.403  10.587   3.506 -0.1932 -0.3161  1.0786
  776MOL0     C 7016   6.297  11.252   3.241  0.5885 -0.4917  0.6090
  776MOL0     C 7017   6.214  11.306   3.145  0.2885 -0.3728  1.0758
  776MOL0     C 7018   6.241  11.273   3.003 -0.5293 -0.3754 -0.3040
  776MOL0     H 7019   5.972  11.773   3.029 -2.3979 -2.8701  2.8166
  776MOL0     H 7020   5.818  11.895   2.887  2.9236  0.8988 -0.4922
  776MOL0     H 7021   5.509  11.701   2.717 -3.9691  2.0482 -1.9209
  776MOL0     H 7022   5.605  11.623   2.577  0.7832  0.9472 -2.0627
  776MOL0     H 7023   5.381  11.772   2.535 -0.4087 -0.7793  0.3540
  776MOL0     H 7024   5.486  11.902   2.589  2.4913 -1.0464  0.5744
  776MOL0     H 7025   5.643  11.810   2.393 -0.9178  0.6767 -2.2648
  776MOL0     H 7026   5.481  11.732   2.341 -3.9454  0.4119  1.4984
  776MOL0     H 7027   5.498  11.927   2.223 -1.7825 -1.6750  0.0909
  776MOL0     H 7028   5.403  11.976   2.359  0.6771  2.6244 -0.7561
  776MOL0     H 7029   5.707  12.023   2.339  0.9154  1.9252  1.5891
  776MOL0     H 7030   5.604  12.055   2.472 -0.5897  0.0246 -0.8513
  776MOL0     H 7031   5.480  12.235   2.333  1.3775  2.7600  0.7409
  776MOL0     H 7032   5.648  12.263   2.374  3.6326 -0.8298 -2.5459
  776MOL0     H 7033   5.528  12.218   2.106  0.8759  1.6056 -0.2635
  776MOL0     H 7034   5.655  12.096   2.139 -1.4520  0.0788  0.6830
  776MOL0     H 7035   5.700  12.397   2.136  2.9953  1.2328  0.6147
  776MOL0     H 7036   5.811  12.274   2.189 -0.9569 -1.4466  0.6194
  776MOL0     H 7037   5.629  12.137   1.873  0.9725 -1.7500 -0.7503
  776MOL0     H 7038   5.705  12.190   1.615  0.3450 -0.4921 -1.2653
  776MOL0     H 7039   5.770  12.030   1.656  3.3845 -0.7459  0.7997
  776MOL0     H 7040   5.902  12.178   1.451 -0.6746 -1.0363 -0.3109
  776MOL0     H 7041   5.994  12.237   1.579  0.6005 -0.0303 -2.6453
  776MOL0     H 7042   6.123  12.086   1.556 -0.1858 -1.9469 -0.6736
  776MOL0     H 7043   6.023  12.016   1.677  1.0102 -3.1567 -1.0953
  776MOL0     H 7044   6.047  11.936   1.390 -2.0855 -3.5982 -1.7691
  776MOL0     H 7045   6.053  11.830   1.536 -1.4447  2.3825  5.2912
  776MOL0     H 7046   5.626  11.844   1.510  0.2643 -0.2313 -0.0849
  776MOL0     H 7047   5.408  11.825   1.454 -1.5630  0.9662  1.7555
  776MOL0     H 7048   5.369  11.838   1.273  1.7883  0.7011  0.2333
  776MOL0     H 7049   5.344  11.968   1.393 -0.1073 -0.5629  0.0835
  776MOL0     H 7050   5.551  12.119   0.771  0.0236  1.9657 -3.4652
  776MOL0     H 7051   5.396  12.177   0.599 -1.0169  0.0466  0.3159
  776MOL0     H 7052   4.959  12.270   0.575  1.7851 -1.1606 -0.7291
  776MOL0     H 7053   5.002  12.310   0.739  2.0716 -0.4196  0.5623
  776MOL0     H 7054   4.945  12.530   0.626 -0.0541  0.4014  0.7192
  776MOL0     H 7055   5.116  12.548   0.628  0.2995 -1.3136  0.6795
  776MOL0     H 7056   4.973  12.581   0.419  0.8195  1.2131 -0.5403
  776MOL0     H 7057   4.979  12.420   0.392 -0.0943  0.2663  1.8132
  776MOL0     H 7058   5.185  12.389   0.332 -0.9409  0.4162  0.0654
  776MOL0     H 7059   5.249  12.505   0.453 -0.2574 -2.7440  0.6389
  776MOL0     H 7060   5.181  12.699   0.297 -4.3137 -0.8286  1.3385
  776MOL0     H 7061   5.298  12.586   0.210 -0.5472 -0.1215  0.0652
  776MOL0     H 7062   4.998  12.569   0.170  1.0076  1.7478  2.4893
  776MOL0     H 7063   5.129  12.485   0.096  0.7410  1.9465 -2.2336
  776MOL0     H 7064   5.217  12.697  -0.003 -0.2238 -1.8439  0.4482
  776MOL0     H 7065   5.076  12.790   0.067 -1.9616 -0.7651  0.9747
  776MOL0     H 7066   4.936  12.697  -0.087  0.4577 -0.2094 -1.7543
  776MOL0     H 7067   5.024  12.551  -0.114  2.2887 -0.4489  1.3999
  776MOL0     H 7068   5.128  12.357   0.887  2.0963  1.1757  2.6622
  776MOL0     H 7069   5.290  12.281   1.067  0.9952  0.0858  0.0672
  776MOL0     H 7070   5.742  12.096   1.103  2.4664 -2.2355 -0.7377
  776MOL0     H 7071   5.922  12.022   1.241 -1.1610 -0.5515 -2.2365
  776MOL0     H 7072   5.816  11.552   2.611  1.7625  0.2492 -0.6054
  776MOL0     H 7073   5.971  11.446   2.752 -0.7493 -0.2416  0.0569
  776MOL0     H 7074   5.983  11.451   3.359  0.8048  3.6125 -0.8159
  776MOL0     H 7075   6.123  11.324   3.509  0.6143  1.1458  0.4110
  776MOL0     H 7076   6.495  11.143   3.359  0.0461 -0.4608 -3.0730
  776MOL0     H 7077   6.498  11.074   3.516 -1.8107 -0.3725  1.9972
  776MOL0     H 7078   6.291  10.985   3.310 -0.9801 -3.4041 -0.3933
  776MOL0     H 7079   6.297  10.914   3.474 -0.6992 -4.4548 -2.7477
  776MOL0     H 7080   6.507  10.919   3.242 -2.0299  1.5452  0.0853
  776MOL0     H 7081   6.552  10.864   3.403 -1.0290 -0.5858  1.0665
  776MOL0     H 7082   6.527  10.688   3.223 -0.9806  2.8256 -3.7687
  776MOL0     H 7083   6.348  10.719   3.229 -0.5097 -2.1947  1.4376
  776MOL0     H 7084   6.381  10.542   3.600 -0.8625  1.5716  1.8708
  776MOL0     H 7085   6.376  11.187   3.206 -2.3030 -3.0970 -1.6718
  776MOL0     H 7086   6.172  11.196   2.967 -2.5865  0.1318  2.2457
  776MOL0     H 7087   6.232  11.362   2.939 -2.7140 -1.5818 -1.8154
  776MOL0     H 7088   6.342  11.233   2.991 -0.6275 -0.2076 -1.9295
  777MOL0     O 7089   0.610   6.590  10.766  0.0988 -0.7329  0.3154
  777MOL0     C 7090   0.685   6.633  10.675  0.0470  0.5174 -0.0673
  777MOL0     O 7091   0.754   6.747  10.673 -0.1185 -0.1290  0.7789
  777MOL0     C 7092   0.709   6.849  10.744  1.1165  0.2636 -0.4215
  777MOL0     C 7093   0.718   6.843  10.882 -0.8978 -0.6796  0.6627
  777MOL0     C 7094   0.682   6.947  10.965  0.8070  0.4288  0.2408
  777MOL0     C 7095   0.624   7.061  10.905 -0.7937  0.0890 -0.0726
  777MOL0     O 7096   0.588   7.175  10.968 -0.1823  0.0475 -0.8268
  777MOL0     C 7097   0.585   7.184  11.115 -0.0419  0.3780  0.3804
  777MOL0     C 7098   0.548   7.319  11.166  0.3978  0.1341 -1.1399
  777MOL0     C 7099   0.437   7.380  11.079  0.2905  0.2490  0.1100
  777MOL0     C 7100   0.288   7.354  11.106 -0.1309 -0.8050  0.4437
  777MOL0     C 7101   0.238   7.422  11.230 -0.2716 -0.3073 -0.2798
  777MOL0     C 7102   0.095   7.367  11.262 -0.3758  0.9032  0.5170
  777MOL0     C 7103   0.066   7.419  11.401  0.5527 -0.3554 -0.3540
  777MOL0     C 7104  -0.065   7.361  11.450  0.6797 -0.2713  0.3857
  777MOL0     N 7105  -0.179   7.393  11.359 -0.3870 -0.3422 -0.0113
  777MOL0     C 7106  -0.215   7.317  11.248  0.4615  0.3074 -0.1045
  777MOL0     C 7107  -0.327   7.383  11.207 -0.1910  0.3453  0.0080
  777MOL0     C 7108  -0.409   7.351  11.082 -1.1543 -0.4642 -1.4184
  777MOL0     C 7109  -0.342   7.441  10.972  0.0917 -0.4652  0.1711
  777MOL0     C 7110  -0.358   7.391  10.831  0.8600 -0.6472  0.1340
  777MOL0     C 7111  -0.480   7.319  10.797 -0.8921  0.1009  0.4179
  777MOL0     O 7112  -0.505   7.198  10.866 -0.3630 -0.1888  0.2929
  777MOL0     C 7113  -0.439   7.081  10.845 -0.5658 -0.2996  0.0254
  777MOL0     C 7114  -0.345   7.059  10.742 -0.1916 -0.0933  0.3929
  777MOL0     C 7115  -0.283   6.931  10.721  0.4580  0.2775  0.2553
  777MOL0     C 7116  -0.167   6.925  10.629 -0.4889 -0.7826 -0.0163
  777MOL0     C 7117  -0.326   6.823  10.806  0.6962  0.3541 -0.9321
  777MOL0     C 7118  -0.257   6.692  10.799  1.1877  0.6921 -0.0297
  777MOL0     O 7119  -0.241   6.628  10.918  0.3102 -0.5252 -0.1512
  777MOL0     C 7120  -0.186   6.506  10.915  0.3248  0.0466  0.1824
  777MOL0     C 7121  -0.259   6.401  10.890  0.2826 -0.8413  0.1620
  777MOL0     C 7122  -0.214   6.279  10.922 -0.5328  0.4605 -0.0178
  777MOL0     C 7123  -0.090   6.261  10.969 -0.8110 -0.1746  0.3195
  777MOL0     O 7124  -0.044   6.128  10.987 -0.1097  0.1649  0.5155
  777MOL0     C 7125   0.095   6.122  11.040  0.6965 -0.0413 -0.2779
  777MOL0     C 7126   0.150   5.975  11.049 -0.4404 -0.1626  0.4077
  777MOL0     C 7127   0.282   5.968  11.124  0.6902 -0.6941 -0.3616
  777MOL0     C 7128   0.352   5.835  11.104  0.2097  0.4313 -0.0253
  777MOL0     C 7129   0.499   5.843  11.140  0.1042  0.3681 -1.0005
  777MOL0     C 7130   0.552   5.702  11.142  0.0876  0.5255  0.7445
  777MOL0     C 7131   0.678   5.693  11.231  0.6763  0.1972 -0.4158
  777MOL0     C 7132   0.756   5.565  11.242 -0.6660  1.0578  0.0007
  777MOL0    Cl 7133   0.636   5.435  11.279  0.5609 -0.2325 -0.2701
  777MOL0     C 7134  -0.009   6.372  11.000  0.6982  0.7000  0.6249
  777MOL0     C 7135  -0.055   6.500  10.968 -0.0295  0.6920 -0.0470
  777MOL0     O 7136  -0.231   6.643  10.687 -0.6298  0.3713 -0.0894
  777MOL0     C 7137  -0.426   6.842  10.910 -0.5000 -0.1540 -0.2431
  777MOL0     C 7138  -0.470   6.981  10.931 -0.3535  0.4727 -0.9933
  777MOL0     N 7139  -0.351   7.491  11.285  0.3782 -0.3294  0.2607
  777MOL0     N 7140  -0.261   7.501  11.372 -0.1941  0.1837 -0.3165
  777MOL0     C 7141   0.609   7.069  10.764  0.7919 -0.0441  0.4023
  777MOL0     C 7142   0.649   6.956  10.684 -0.2043 -0.7411 -0.4721
  777MOL0     C 7143   0.704   6.542  10.561 -0.2586  0.2662  0.1634
  777MOL0     C 7144   0.828   6.541  10.502  0.6031  0.1000 -0.2998
  777MOL0     C 7145   0.860   6.463  10.393  1.1995 -0.2208  0.0739
  777MOL0     C 7146   0.761   6.383  10.338 -0.0840 -0.2655 -0.2784
  777MOL0     O 7147   0.794   6.327  10.215  0.9279 -0.2052  0.1110
  777MOL0     C 7148   0.725   6.209  10.173  0.3408 -0.5864  0.0487
  777MOL0     C 7149   0.806   6.131  10.074 -0.6536 -0.1587  1.2327
  777MOL0     C 7150   0.892   6.213   9.976 -0.6037  0.2316 -0.3396
  777MOL0     C 7151   0.923   6.140   9.844 -0.1374  0.9277 -0.4678
  777MOL0     C 7152   0.989   6.003   9.853 -0.1553  0.4954  0.2884
  777MOL0     C 7153   1.015   5.883   9.864  0.2079  0.1877 -0.7296
  777MOL0     C 7154   0.637   6.378  10.404  0.3629 -0.1282  0.6133
  777MOL0     C 7155   0.605   6.460  10.509  0.1089  0.6281  0.6063
  777MOL0     C 7156   0.467   6.469  10.548  1.1006  0.8191  1.2177
  777MOL0     H 7157   0.758   6.755  10.931 -3.7258 -2.6570 -0.2746
  777MOL0     H 7158   0.703   6.954  11.072 -0.5554 -1.3383  0.6715
  777MOL0     H 7159   0.681   7.147  11.152 -1.7461 -1.3482  3.4839
  777MOL0     H 7160   0.502   7.121  11.146  1.0331 -1.5555 -0.5286
  777MOL0     H 7161   0.508   7.294  11.264  1.5684 -2.6448 -1.2710
  777MOL0     H 7162   0.633   7.387  11.162  0.7557 -0.1354  0.9133
  777MOL0     H 7163   0.451   7.487  11.094 -3.7910  0.9947 -0.0998
  777MOL0     H 7164   0.446   7.353  10.973 -1.3545  1.4671 -0.3832
  777MOL0     H 7165   0.224   7.392  11.026 -1.2262 -0.6424  1.3715
  777MOL0     H 7166   0.276   7.245  11.106 -4.0922 -0.5130  0.8260
  777MOL0     H 7167   0.218   7.526  11.203 -2.4243 -1.3305 -3.0639
  777MOL0     H 7168   0.311   7.416  11.311 -0.7840 -3.8666  0.0596
  777MOL0     H 7169   0.014   7.399  11.196  0.7724  0.5662 -1.1193
  777MOL0     H 7170   0.093   7.258  11.275  1.6915  0.7456 -0.1945
  777MOL0     H 7171   0.064   7.528  11.407 -0.3772 -0.4210  1.1332
  777MOL0     H 7172   0.144   7.393  11.473  3.4502  3.1408 -1.9186
  777MOL0     H 7173  -0.051   7.253  11.448 -2.9269 -0.8638  0.2979
  777MOL0     H 7174  -0.093   7.391  11.552 -1.3105 -1.1804  0.1592
  777MOL0     H 7175  -0.156   7.250  11.187  0.5426  0.9384 -0.7338
  777MOL0     H 7176  -0.516   7.374  11.090 -0.8500  1.2703 -1.9177
  777MOL0     H 7177  -0.394   7.244  11.068 -0.8031 -0.8139  1.2135
  777MOL0     H 7178  -0.391   7.539  10.979  1.1872  0.2435 -1.6702
  777MOL0     H 7179  -0.235   7.459  10.984  1.0398 -2.5251 -3.7114
  777MOL0     H 7180  -0.336   7.469  10.757 -1.0753  0.7690  0.9576
  777MOL0     H 7181  -0.275   7.320  10.819  2.2301  0.6082  1.6250
  777MOL0     H 7182  -0.562   7.390  10.809  0.9111  2.0975  1.5981
  777MOL0     H 7183  -0.489   7.297  10.690 -3.7070  0.6472  0.4720
  777MOL0     H 7184  -0.323   7.150  10.686 -0.8636  2.0174  3.2916
  777MOL0     H 7185  -0.077   6.876  10.668  0.9713  1.8914  0.2680
  777MOL0     H 7186  -0.131   7.025  10.601  3.2240 -0.9607  3.2018
  777MOL0     H 7187  -0.203   6.871  10.541  2.9406 -0.8941 -1.5407
  777MOL0     H 7188  -0.363   6.403  10.858  0.7865 -2.6857 -1.8089
  777MOL0     H 7189  -0.267   6.186  10.905  0.8118 -0.0198 -1.9512
  777MOL0     H 7190   0.152   6.175  10.963 -2.3100  2.0978 -1.2647
  777MOL0     H 7191   0.111   6.162  11.140 -0.5615  2.7975 -1.0945
  777MOL0     H 7192   0.078   5.923  11.114  0.5677  1.8525  3.3556
  777MOL0     H 7193   0.153   5.924  10.952  0.5683  0.8707 -0.1166
  777MOL0     H 7194   0.254   5.980  11.229 -3.5428 -1.3358 -1.2251
  777MOL0     H 7195   0.337   6.060  11.099 -1.6793  2.7767  5.1741
  777MOL0     H 7196   0.330   5.802  11.002 -0.9666  2.9262 -0.6763
  777MOL0     H 7197   0.297   5.765  11.167 -1.6086  0.4202 -1.5109
  777MOL0     H 7198   0.558   5.901  11.068  1.4521 -1.4404 -1.4107
  777MOL0     H 7199   0.511   5.887  11.239  0.0540  1.5498 -1.4960
  777MOL0     H 7200   0.571   5.656  11.044  0.7543 -2.0213  1.9803
  777MOL0     H 7201   0.482   5.633  11.190  0.2888 -1.4476 -1.5691
  777MOL0     H 7202   0.649   5.727  11.332 -1.4343 -1.1370 -0.4947
  777MOL0     H 7203   0.739   5.777  11.199 -2.4444  2.3651 -1.2023
  777MOL0     H 7204   0.826   5.580  11.325  0.6249  2.3683 -1.2440
  777MOL0     H 7205   0.820   5.541  11.156  1.5127  1.6595  1.3739
  777MOL0     H 7206   0.096   6.368  11.024  1.1729 -0.8876 -1.4312
  777MOL0     H 7207   0.018   6.578  10.987  2.8378 -1.2597 -2.2280
  777MOL0     H 7208  -0.451   6.757  10.972  0.2195  0.5713  1.0822
  777MOL0     H 7209  -0.530   6.998  11.020  0.1262 -1.1772 -0.3070
  777MOL0     H 7210   0.586   7.164  10.717 -1.3149 -0.6642  0.0658
  777MOL0     H 7211   0.645   6.967  10.576  0.8152 -0.5994 -0.5095
  777MOL0     H 7212   0.916   6.600  10.526 -0.2594  0.2189  3.0425
  777MOL0     H 7213   0.965   6.468  10.364  0.6455 -0.7008 -2.2493
  777MOL0     H 7214   0.693   6.163  10.267  0.5440  0.0084  0.4153
  777MOL0     H 7215   0.638   6.243  10.115  2.1244  1.4007 -1.6352
  777MOL0     H 7216   0.733   6.073  10.017  0.8422 -2.1963  1.2869
  777MOL0     H 7217   0.879   6.062  10.118  0.3368  0.2333  0.2390
  777MOL0     H 7218   0.847   6.311   9.960 -2.3963 -0.8380 -2.5345
  777MOL0     H 7219   0.980   6.241  10.033 -2.2042 -2.0808  3.7526
  777MOL0     H 7220   0.992   6.206   9.790  1.1173  0.1183  0.1059
  777MOL0     H 7221   0.828   6.139   9.789 -1.1097 -0.5205  1.1572
  777MOL0     H 7222   1.030   5.777   9.869  0.5000  0.2676  0.2621
  777MOL0     H 7223   0.560   6.315  10.360 -0.2802  1.6444 -0.9202
  777MOL0     H 7224   0.464   6.432  10.651  2.3008  0.8587  1.2824
  777MOL0     H 7225   0.424   6.569  10.556 -0.4185  0.6513 -2.6996
  777MOL0     H 7226   0.410   6.412  10.474  0.8050  2.1819  0.3463
  778MOL0     O 7227   4.182   3.922   5.528  0.0840  0.6862  0.2188
  778MOL0     C 7228   4.254   4.012   5.570  1.0985 -0.1966 -0.2614
  778MOL0     O 7229   4.259   4.132   5.516  0.5424  0.3893  0.4093
  778MOL0     C 7230   4.168   4.160   5.421 -0.1873 -0.0846 -0.6571
  778MOL0     C 7231   4.082   4.267   5.457 -0.4884 -0.6874  0.7204
  778MOL0     C 7232   3.986   4.325   5.370  0.0633  0.1124  1.3508
  778MOL0     C 7233   3.969   4.255   5.240 -0.3763 -0.1221  0.1297
  778MOL0     O 7234   3.900   4.308   5.138 -0.1032  0.0685 -0.3384
  778MOL0     C 7235   3.766   4.363   5.162  0.2039 -1.4317  0.4249
  778MOL0     C 7236   3.682   4.334   5.037  0.7162 -0.1192 -0.0947
  778MOL0     C 7237   3.574   4.443   4.997 -0.6047  0.8822  0.1969
  778MOL0     C 7238   3.498   4.410   4.866  0.0737 -0.0009  0.0252
  778MOL0     C 7239   3.399   4.514   4.829  0.4931 -0.4624  0.2102
  778MOL0     C 7240   3.272   4.521   4.916 -1.4736  0.1920 -1.0637
  778MOL0     C 7241   3.183   4.634   4.884  0.5628  1.4386 -0.4126
  778MOL0     C 7242   3.083   4.655   4.989 -0.3045  0.2104  0.3800
  778MOL0     N 7243   2.995   4.765   4.961 -0.3641 -0.8479  0.0194
  778MOL0     C 7244   3.016   4.876   4.874 -0.4687  0.6177 -0.9108
  778MOL0     C 7245   2.927   4.964   4.924  0.2944  0.7606 -1.1264
  778MOL0     C 7246   2.902   5.100   4.868  0.4608  1.1003 -0.0365
  778MOL0     C 7247   2.880   5.098   4.713  0.4346  0.3204  1.0554
  778MOL0     C 7248   2.732   5.084   4.678 -0.8064  0.3452 -0.3339
  778MOL0     C 7249   2.655   4.957   4.723 -0.7821 -0.1589  0.2362
  778MOL0     O 7250   2.701   4.848   4.649 -0.1012 -0.2827  0.0580
  778MOL0     C 7251   2.668   4.723   4.699  0.4148  0.4799 -0.0818
  778MOL0     C 7252   2.774   4.633   4.734 -1.3824 -0.0425  0.3069
  778MOL0     C 7253   2.742   4.496   4.770 -0.0403 -0.4106 -0.3807
  778MOL0     C 7254   2.848   4.408   4.826  0.2891  0.5517 -0.0586
  778MOL0     C 7255   2.603   4.463   4.770  0.4367 -0.5094  0.2956
  778MOL0     C 7256   2.542   4.330   4.795 -1.0062 -0.0304 -0.9926
  778MOL0     O 7257   2.419   4.327   4.848  0.2578 -0.5236 -0.1448
  778MOL0     C 7258   2.345   4.215   4.830  0.0085 -0.0105 -1.2109
  778MOL0     C 7259   2.331   4.134   4.939  0.5613 -0.2376  0.1935
  778MOL0     C 7260   2.263   4.018   4.939 -0.8587  0.2470 -0.7213
  778MOL0     C 7261   2.204   3.978   4.818  0.0897 -0.5899  0.0431
  778MOL0     O 7262   2.117   3.871   4.801 -0.1886 -0.2111 -0.2696
  778MOL0     C 7263   2.183   3.747   4.821 -0.1767 -0.3515  0.3912
  778MOL0     C 7264   2.134   3.696   4.960  0.7189  0.7447  0.2438
  778MOL0     C 7265   2.259   3.660   5.040 -0.2603 -0.2708 -0.3091
  778MOL0     C 7266   2.239   3.549   5.140  0.2887  0.7606  0.4554
  778MOL0     C 7267   2.363   3.550   5.241  0.9625 -0.9728 -0.4318
  778MOL0     C 7268   2.496   3.513   5.170 -0.2317 -0.3692 -0.0464
  778MOL0     C 7269   2.615   3.513   5.263 -0.6512  0.5550  0.1092
  778MOL0     C 7270   2.748   3.483   5.192 -0.1649  1.1691  0.0894
  778MOL0    Cl 7271   2.876   3.466   5.314  0.2639 -0.2563  0.1107
  778MOL0     C 7272   2.218   4.053   4.706 -0.1685  0.4430  0.3309
  778MOL0     C 7273   2.291   4.169   4.706 -0.2518 -0.6643  0.2691
  778MOL0     O 7274   2.608   4.239   4.752  0.2018  0.7097  0.5929
  778MOL0     C 7275   2.501   4.554   4.743 -0.1546  0.0274  0.3570
  778MOL0     C 7276   2.532   4.684   4.697 -0.8158  0.2553 -0.6463
  778MOL0     N 7277   2.854   4.915   5.034  0.2894  0.1784  0.4283
  778MOL0     N 7278   2.890   4.788   5.045  0.7075 -0.6515  0.2294
  778MOL0     C 7279   4.050   4.146   5.211  0.5723 -0.0542 -0.2195
  778MOL0     C 7280   4.150   4.107   5.298 -0.0461 -0.3613  0.0249
  778MOL0     C 7281   4.334   3.989   5.703  0.1130 -1.4990 -0.0598
  778MOL0     C 7282   4.363   4.114   5.768 -0.0819 -0.0178 -0.4838
  778MOL0     C 7283   4.430   4.101   5.885  0.7689 -0.1706  0.5716
  778MOL0     C 7284   4.454   3.991   5.949 -0.8582 -0.3050  1.1105
  778MOL0     O 7285   4.544   4.002   6.055 -0.1755 -0.5695  0.5217
  778MOL0     C 7286   4.610   3.888   6.113  0.4854  0.9901  0.2741
  778MOL0     C 7287   4.717   3.926   6.209 -0.6654 -0.3214 -0.3884
  778MOL0     C 7288   4.759   3.804   6.294  0.3300  0.1623 -0.5027
  778MOL0     C 7289   4.815   3.843   6.429 -0.1434 -0.2806 -0.6313
  778MOL0     C 7290   4.902   3.741   6.490  0.8359  0.0608 -0.1548
  778MOL0     C 7291   4.977   3.647   6.517  0.5946  0.3170  0.3467
  778MOL0     C 7292   4.416   3.868   5.901 -0.2522 -0.2441 -0.4664
  778MOL0     C 7293   4.362   3.871   5.769 -0.0815  0.3133  0.8617
  778MOL0     C 7294   4.331   3.736   5.707 -0.0839  0.2556  0.9933
  778MOL0     H 7295   4.092   4.321   5.550 -0.4307  0.8786 -0.1607
  778MOL0     H 7296   3.931   4.417   5.390  0.6723  1.0694 -1.0234
  778MOL0     H 7297   3.763   4.470   5.184 -3.2872 -0.9028 -1.9272
  778MOL0     H 7298   3.715   4.322   5.250  0.2881 -3.0164 -0.2405
  778MOL0     H 7299   3.742   4.321   4.947  0.8650  2.3592 -0.4192
  778MOL0     H 7300   3.633   4.239   5.059  4.6128 -2.6575 -1.4145
  778MOL0     H 7301   3.504   4.435   5.081  0.9692  0.8335  1.5406
  778MOL0     H 7302   3.621   4.541   4.994  4.0318 -1.0843  1.1538
  778MOL0     H 7303   3.559   4.392   4.778  0.8807  0.0965  0.5535
  778MOL0     H 7304   3.441   4.317   4.879 -1.0575  0.8339  1.3911
  778MOL0     H 7305   3.366   4.506   4.725  0.2602  2.0275  0.0415
  778MOL0     H 7306   3.451   4.609   4.836  0.6704 -0.2325 -2.8154
  778MOL0     H 7307   3.216   4.427   4.914  0.5095 -1.2805  2.2065
  778MOL0     H 7308   3.308   4.539   5.018 -0.7459  0.1169 -1.3000
  778MOL0     H 7309   3.126   4.606   4.794  3.3483  2.5098 -2.6774
  778MOL0     H 7310   3.248   4.720   4.866  1.2592  1.1759  0.7979
  778MOL0     H 7311   3.022   4.566   5.009  0.9987 -0.7004  0.4367
  778MOL0     H 7312   3.142   4.685   5.076  0.5494 -0.2043 -0.0437
  778MOL0     H 7313   3.080   4.889   4.787  0.0992  0.2151 -0.5591
  778MOL0     H 7314   2.988   5.165   4.886  1.5365 -0.1368 -0.5123
  778MOL0     H 7315   2.820   5.141   4.927  0.7606  0.6172  0.7282
  778MOL0     H 7316   2.910   5.195   4.672 -0.6566  0.9195  1.6120
  778MOL0     H 7317   2.946   5.018   4.679  1.6365  0.7982  2.1618
  778MOL0     H 7318   2.682   5.163   4.735  1.8108  2.2253 -0.4806
  778MOL0     H 7319   2.720   5.097   4.571  1.4644 -0.1116 -0.6881
  778MOL0     H 7320   2.677   4.939   4.829 -0.2131  2.5665  0.6525
  778MOL0     H 7321   2.549   4.974   4.700 -1.8660 -1.1375  3.9085
  778MOL0     H 7322   2.876   4.665   4.751 -0.5980 -3.2085  2.4111
  778MOL0     H 7323   2.841   4.390   4.934 -0.8506  0.0752 -0.1982
  778MOL0     H 7324   2.951   4.443   4.814 -0.0425  2.0964  1.3400
  778MOL0     H 7325   2.833   4.313   4.774 -0.7121 -1.3795  3.4136
  778MOL0     H 7326   2.373   4.165   5.034  0.7579 -1.2236  0.4432
  778MOL0     H 7327   2.236   3.963   5.028 -1.1284 -0.0275 -0.9687
  778MOL0     H 7328   2.158   3.680   4.738  1.2538 -1.5561  0.8956
  778MOL0     H 7329   2.292   3.755   4.821 -0.3047  3.0157  1.6277
  778MOL0     H 7330   2.064   3.759   5.016 -1.8667  0.6643 -2.6600
  778MOL0     H 7331   2.074   3.604   4.952 -0.9434  1.7617  0.4301
  778MOL0     H 7332   2.306   3.746   5.090 -3.0426  2.4300 -2.0051
  778MOL0     H 7333   2.337   3.619   4.975  0.4345 -0.9717  0.9319
  778MOL0     H 7334   2.241   3.455   5.084  1.6488  1.1062 -0.1075
  778MOL0     H 7335   2.147   3.570   5.196  1.5106  2.7501  1.8402
  778MOL0     H 7336   2.375   3.646   5.292  0.6282 -1.2271  0.1327
  778MOL0     H 7337   2.339   3.478   5.319 -3.0568 -2.5743 -2.8055
  778MOL0     H 7338   2.526   3.590   5.097  3.3342 -0.5571  1.0217
  778MOL0     H 7339   2.479   3.415   5.124 -6.0708  0.5003 -0.4347
  778MOL0     H 7340   2.610   3.424   5.327  2.7870  0.3078  0.2472
  778MOL0     H 7341   2.635   3.607   5.316 -0.4040  0.6775 -0.1976
  778MOL0     H 7342   2.772   3.563   5.121  0.3896  1.5260  0.6710
  778MOL0     H 7343   2.738   3.389   5.136 -0.5140  0.8392  0.6879
  778MOL0     H 7344   2.172   4.016   4.615 -0.9520 -5.1106  2.6371
  778MOL0     H 7345   2.302   4.249   4.633  2.3236  0.0267  1.3101
  778MOL0     H 7346   2.393   4.538   4.744 -0.1678 -0.0979 -1.1427
  778MOL0     H 7347   2.458   4.752   4.656  2.1847  3.3904 -1.3243
  778MOL0     H 7348   4.019   4.087   5.126 -2.3697 -0.2136  0.8619
  778MOL0     H 7349   4.213   4.020   5.278  0.0440 -0.1349 -0.6951
  778MOL0     H 7350   4.333   4.209   5.725 -0.5309 -0.2214 -0.6216
  778MOL0     H 7351   4.433   4.194   5.941 -2.5084 -0.7051  1.8050
  778MOL0     H 7352   4.539   3.819   6.158  2.1933 -2.7185 -2.2285
  778MOL0     H 7353   4.663   3.831   6.036  0.7164  0.5718  0.7409
  778MOL0     H 7354   4.704   4.016   6.270  2.0303  1.1741 -1.8326
  778MOL0     H 7355   4.801   3.960   6.148  0.4216  0.3365  1.3816
  778MOL0     H 7356   4.665   3.749   6.308  0.8134 -1.3978 -2.8671
  778MOL0     H 7357   4.828   3.737   6.242  1.4137 -0.5126  1.6744
  778MOL0     H 7358   4.741   3.875   6.502  1.1019 -0.3609  0.7046
  778MOL0     H 7359   4.883   3.924   6.399 -0.0650 -0.7304 -1.7159
  778MOL0     H 7360   5.023   3.550   6.522  0.2133  0.1416  0.4218
  778MOL0     H 7361   4.445   3.775   5.951  0.4445  0.6229  0.8189
  778MOL0     H 7362   4.365   3.654   5.771 -0.4009  1.4346  2.7357
  778MOL0     H 7363   4.222   3.733   5.704 -0.1012 -0.7225 -3.0176
  778MOL0     H 7364   4.364   3.717   5.604  0.5052 -4.6007  1.8508
  779MOL0     O 7365   0.474   0.352   2.621  0.7868 -0.0184  0.4871
  779MOL0     C 7366   0.533   0.430   2.554 -0.7677  0.1299 -0.0445
  779MOL0     O 7367   0.589   0.395   2.436  0.2708 -0.1266  0.5491
  779MOL0     C 7368   0.539   0.308   2.345 -1.4079 -0.1534  0.0941
  779MOL0     C 7369   0.405   0.297   2.323  0.2228 -0.5711 -0.0897
  779MOL0     C 7370   0.347   0.191   2.246 -0.5936  0.2252  0.7212
  779MOL0     C 7371   0.430   0.088   2.199  1.3090  0.1201  0.0356
  779MOL0     O 7372   0.380  -0.009   2.125  0.1637  0.4991  0.4950
  779MOL0     C 7373   0.398  -0.142   2.185 -0.3995 -0.2919 -0.3344
  779MOL0     C 7374   0.305  -0.233   2.097 -0.0038 -0.1050 -0.4472
  779MOL0     C 7375   0.354  -0.244   1.961 -0.1552  0.1900  0.8007
  779MOL0     C 7376   0.273  -0.341   1.875  0.1349  0.5316  0.8779
  779MOL0     C 7377   0.302  -0.331   1.721 -0.6723 -0.3030  0.2534
  779MOL0     C 7378   0.457  -0.345   1.695  1.4413  0.5352  0.2372
  779MOL0     C 7379   0.468  -0.298   1.547 -0.5276 -1.1973 -0.0140
  779MOL0     C 7380   0.620  -0.311   1.516 -0.0958 -0.9747 -0.7534
  779MOL0     N 7381   0.651  -0.272   1.377  0.0052  0.0519  0.2725
  779MOL0     C 7382   0.601  -0.336   1.266 -0.2316  0.0338 -0.0946
  779MOL0     C 7383   0.667  -0.275   1.166 -0.1172 -0.2478  0.1070
  779MOL0     C 7384   0.682  -0.310   1.026 -0.5027  0.5622  0.8416
  779MOL0     C 7385   0.820  -0.381   1.001 -1.0076  0.6520 -0.1983
  779MOL0     C 7386   0.875  -0.364   0.857  0.2745 -0.7578  0.6384
  779MOL0     C 7387   1.011  -0.432   0.819  0.0302 -0.2254  0.1298
  779MOL0     O 7388   0.989  -0.571   0.831 -0.5459 -0.0698 -0.5272
  779MOL0     C 7389   1.110  -0.639   0.824  0.4573 -0.3172 -0.3311
  779MOL0     C 7390   1.211  -0.611   0.724  1.3315  1.0183 -0.5241
  779MOL0     C 7391   1.314  -0.700   0.723 -1.4088  0.0523  0.9343
  779MOL0     C 7392   1.429  -0.662   0.635 -0.1441 -0.1353 -0.3463
  779MOL0     C 7393   1.345  -0.788   0.829 -0.2971  1.0030  0.3681
  779MOL0     C 7394   1.474  -0.862   0.855  0.0437  0.5994 -0.0754
  779MOL0     O 7395   1.484  -0.953   0.963 -0.2599  0.4195  0.0088
  779MOL0     C 7396   1.607  -0.998   1.002 -0.1400 -0.1641  0.0638
  779MOL0     C 7397   1.629  -1.129   1.005 -0.6732  0.2565 -0.3620
  779MOL0     C 7398   1.752  -1.183   1.043  0.2020  0.0755 -0.9553
  779MOL0     C 7399   1.866  -1.099   1.061  0.0685  0.2393  1.1351
  779MOL0     O 7400   1.994  -1.144   1.083 -0.2334 -0.9178  0.5080
  779MOL0     C 7401   2.010  -1.267   1.159 -0.8496 -0.3787  0.1118
  779MOL0     C 7402   2.158  -1.272   1.201  0.1219 -0.8171 -0.3421
  779MOL0     C 7403   2.240  -1.377   1.126 -0.8209  0.1438  0.3793
  779MOL0     C 7404   2.393  -1.332   1.112  0.1655 -0.1077  0.1315
  779MOL0     C 7405   2.488  -1.447   1.067 -0.1964 -0.0933  0.2047
  779MOL0     C 7406   2.596  -1.386   0.964 -0.8993  1.7883  0.1733
  779MOL0     C 7407   2.717  -1.308   1.028  0.3717  0.5666  0.2253
  779MOL0     C 7408   2.795  -1.236   0.925 -0.4126 -0.2337 -0.2918
  779MOL0    Cl 7409   2.881  -1.351   0.818 -0.2514  0.2817  0.1337
  779MOL0     C 7410   1.849  -0.966   1.048 -0.7400 -0.8346 -0.3573
  779MOL0     C 7411   1.717  -0.916   1.036  0.3005 -0.3267 -0.5162
  779MOL0     O 7412   1.573  -0.836   0.783  0.0779  0.0664 -0.2753
  779MOL0     C 7413   1.252  -0.804   0.934 -0.1281 -0.5353  0.5221
  779MOL0     C 7414   1.132  -0.738   0.920 -0.5709 -0.1072 -0.0299
  779MOL0     N 7415   0.745  -0.170   1.218  0.6962  0.2573  0.9630
  779MOL0     N 7416   0.738  -0.176   1.348  0.9485 -0.5037 -0.0937
  779MOL0     C 7417   0.569   0.104   2.221  0.1682  0.0128 -0.5129
  779MOL0     C 7418   0.629   0.213   2.285  0.3802  0.6381  0.0853
  779MOL0     C 7419   0.524   0.571   2.592 -0.6231 -0.7878 -0.4315
  779MOL0     C 7420   0.422   0.610   2.683 -0.2569 -0.1281 -0.6583
  779MOL0     C 7421   0.395   0.741   2.718 -0.7722  0.3453 -0.3812
  779MOL0     C 7422   0.489   0.835   2.670 -0.0530 -0.2762  0.2324
  779MOL0     O 7423   0.482   0.968   2.709  0.1925 -0.2234 -0.1117
  779MOL0     C 7424   0.478   1.064   2.593  0.4929  0.0351 -0.0384
  779MOL0     C 7425   0.375   1.165   2.619  0.9943 -0.1726  0.0165
  779MOL0     C 7426   0.231   1.123   2.603 -0.5963  0.5679  0.4248
  779MOL0     C 7427   0.138   1.236   2.637 -0.2442  0.4627  0.6674
  779MOL0     C 7428   0.147   1.335   2.518 -0.5527 -0.2607 -0.1739
  779MOL0     C 7429   0.136   1.411   2.433 -0.3925  0.2902  0.4703
  779MOL0     C 7430   0.590   0.801   2.584 -0.5309 -0.8304  0.2013
  779MOL0     C 7431   0.608   0.673   2.532  0.2661  0.3362 -0.0465
  779MOL0     C 7432   0.722   0.655   2.436 -1.0799 -0.1472  0.0491
  779MOL0     H 7433   0.347   0.370   2.378  2.0060 -0.9799  2.5225
  779MOL0     H 7434   0.241   0.186   2.222 -0.9243  0.7808  1.9451
  779MOL0     H 7435   0.377  -0.147   2.292 -1.9786  0.4145 -0.5968
  779MOL0     H 7436   0.502  -0.172   2.163  0.7755  0.3729  3.5296
  779MOL0     H 7437   0.292  -0.331   2.144 -3.0580  1.0252  1.3374
  779MOL0     H 7438   0.206  -0.187   2.106  1.4122  3.0996  0.2639
  779MOL0     H 7439   0.367  -0.142   1.921 -0.0221 -0.1431 -0.0301
  779MOL0     H 7440   0.454  -0.289   1.960  0.3271  1.0125 -2.7053
  779MOL0     H 7441   0.302  -0.444   1.900 -2.3651 -0.5813 -0.4250
  779MOL0     H 7442   0.164  -0.339   1.879 -0.6824 -2.4830 -5.8066
  779MOL0     H 7443   0.271  -0.230   1.692  1.0316 -0.5839 -3.0476
  779MOL0     H 7444   0.248  -0.413   1.673 -3.5692  2.3801 -1.4529
  779MOL0     H 7445   0.513  -0.270   1.752 -1.8410  1.8622  1.9739
  779MOL0     H 7446   0.485  -0.451   1.702  0.0351 -0.1287 -2.9016
  779MOL0     H 7447   0.434  -0.194   1.541  1.2383 -0.6661 -1.6637
  779MOL0     H 7448   0.425  -0.355   1.464 -2.0328  0.7986 -0.7133
  779MOL0     H 7449   0.678  -0.249   1.585  1.6225 -0.9454 -2.1276
  779MOL0     H 7450   0.661  -0.411   1.529 -0.1588 -1.2352 -2.3198
  779MOL0     H 7451   0.540  -0.426   1.259  1.0686 -1.0060  1.3277
  779MOL0     H 7452   0.700  -0.220   0.968  2.7476  1.5697  3.1330
  779MOL0     H 7453   0.607  -0.375   0.979 -0.0800 -1.5246  2.8428
  779MOL0     H 7454   0.899  -0.338   1.064 -0.3039 -1.0364  0.1113
  779MOL0     H 7455   0.813  -0.488   1.021  0.9172  0.3509 -0.8961
  779MOL0     H 7456   0.805  -0.395   0.779 -1.3689 -0.5946  2.0071
  779MOL0     H 7457   0.897  -0.257   0.847  1.1507 -0.6234  3.3359
  779MOL0     H 7458   1.027  -0.405   0.715 -0.5742 -1.3830 -0.2872
  779MOL0     H 7459   1.093  -0.405   0.886  0.8271 -1.9952 -0.0808
  779MOL0     H 7460   1.201  -0.531   0.652  1.4046  0.8850 -0.6835
  779MOL0     H 7461   1.447  -0.745   0.566  0.1754 -0.7928  0.4946
  779MOL0     H 7462   1.517  -0.632   0.694 -1.1129  0.4411  0.8466
  779MOL0     H 7463   1.409  -0.580   0.567 -0.0727 -0.3392 -0.6157
  779MOL0     H 7464   1.546  -1.191   0.973 -0.3445  0.0645 -0.8576
  779MOL0     H 7465   1.779  -1.288   1.044  3.8249  0.8694 -0.9625
  779MOL0     H 7466   1.938  -1.265   1.242 -2.5088 -3.1126 -1.1094
  779MOL0     H 7467   1.981  -1.350   1.094 -0.2316  0.7220 -1.6216
  779MOL0     H 7468   2.209  -1.175   1.204  0.5007 -1.0074  2.8813
  779MOL0     H 7469   2.155  -1.293   1.308  0.5192  1.9301  0.2759
  779MOL0     H 7470   2.201  -1.415   1.031 -1.5825 -0.6631  1.0036
  779MOL0     H 7471   2.236  -1.464   1.192  0.1899 -0.0681  0.1881
  779MOL0     H 7472   2.416  -1.301   1.215 -1.0614 -1.5702  0.8927
  779MOL0     H 7473   2.404  -1.245   1.047 -0.8242 -0.1492 -0.1185
  779MOL0     H 7474   2.539  -1.491   1.154  1.8019  0.8970 -0.3947
  779MOL0     H 7475   2.440  -1.534   1.020  0.1840 -1.1507  1.6904
  779MOL0     H 7476   2.541  -1.329   0.889 -3.1041 -1.1228 -0.6457
  779MOL0     H 7477   2.625  -1.468   0.898 -0.0425 -0.1930  2.8223
  779MOL0     H 7478   2.785  -1.368   1.090 -0.5984  1.4973  2.2909
  779MOL0     H 7479   2.684  -1.236   1.104  0.7427  0.5056  0.4480
  779MOL0     H 7480   2.872  -1.188   0.987  2.0344 -4.0374 -0.0338
  779MOL0     H 7481   2.735  -1.161   0.873 -1.1062 -0.3626  0.3102
  779MOL0     H 7482   1.931  -0.899   1.069 -2.6504  2.1131 -1.6708
  779MOL0     H 7483   1.697  -0.812   1.057 -0.0904 -0.0785 -1.9963
  779MOL0     H 7484   1.269  -0.880   1.011  0.1525  1.5093  2.6033
  779MOL0     H 7485   1.058  -0.759   0.997  0.1754  1.7092  1.2494
  779MOL0     H 7486   0.635   0.034   2.170  0.5044 -1.9653  2.3691
  779MOL0     H 7487   0.737   0.218   2.276  0.2651  0.1340 -2.1420
  779MOL0     H 7488   0.343   0.544   2.718  1.0467 -1.5360 -0.2791
  779MOL0     H 7489   0.323   0.775   2.791  1.5137  0.8071  1.7915
  779MOL0     H 7490   0.574   1.117   2.593  1.3670 -1.4952  1.2282
  779MOL0     H 7491   0.459   1.016   2.497  0.0640 -1.6030  0.8350
  779MOL0     H 7492   0.394   1.253   2.557 -4.3257  0.9595 -0.4769
  779MOL0     H 7493   0.377   1.180   2.727 -1.4794 -1.0023  0.2379
  779MOL0     H 7494   0.218   1.095   2.498  2.0030 -2.9407  0.8694
  779MOL0     H 7495   0.217   1.041   2.674  3.4542 -1.0192 -0.3461
  779MOL0     H 7496   0.180   1.284   2.726 -0.7068  3.8497 -0.8264
  779MOL0     H 7497   0.037   1.194   2.646  0.4642 -1.1619  1.5414
  779MOL0     H 7498   0.109   1.490   2.366  1.6077 -1.6143 -2.8499
  779MOL0     H 7499   0.652   0.882   2.548 -1.5169 -0.4427 -0.6771
  779MOL0     H 7500   0.799   0.729   2.457 -0.9667 -0.7628  1.9901
  779MOL0     H 7501   0.770   0.557   2.445  1.8446  0.6771 -4.0286
  779MOL0     H 7502   0.687   0.664   2.332 -2.5459 -2.3231  0.2680
  780MOL0     O 7503  11.138   0.364  11.259  0.4911  0.4087  0.3581
  780MOL0     C 7504  11.121   0.487  11.283 -0.9995  0.0286 -0.2323
  780MOL0     O 7505  11.074   0.541  11.402 -0.3209 -0.2351 -0.1431
  780MOL0     C 7506  10.992   0.469  11.488 -0.1634 -0.3938 -0.8264
  780MOL0     C 7507  10.988   0.518  11.628  0.7139 -0.7988  0.7151
  780MOL0     C 7508  10.909   0.441  11.719 -0.4382  0.0392 -0.4522
  780MOL0     C 7509  10.840   0.329  11.681 -0.0755  0.2871  0.4460
  780MOL0     O 7510  10.757   0.278  11.779 -0.0658 -0.1842 -0.1783
  780MOL0     C 7511  10.662   0.175  11.740 -0.4520  0.5418 -0.5940
  780MOL0     C 7512  10.565   0.146  11.859 -0.3167 -0.3579  0.1432
  780MOL0     C 7513  10.484   0.270  11.904  0.0377  0.3674 -0.0507
  780MOL0     C 7514  10.378   0.226  12.010  0.1501 -1.0715 -0.5433
  780MOL0     C 7515  10.294   0.349  12.051 -0.1836 -0.2936  0.0843
  780MOL0     C 7516  10.371   0.443  12.148 -0.1039  0.0359  0.2520
  780MOL0     C 7517  10.292   0.545  12.223 -0.1166  0.6135  0.5106
  780MOL0     C 7518  10.261   0.496  12.359 -0.4950 -0.5166 -0.3579
  780MOL0     N 7519  10.162   0.572  12.426 -0.2561 -0.2186  0.5662
  780MOL0     C 7520  10.036   0.527  12.442 -0.6349 -1.3335  0.1348
  780MOL0     C 7521   9.987   0.621  12.528 -0.2184  0.0601  0.2880
  780MOL0     C 7522   9.851   0.636  12.570 -0.1317  0.5533 -0.4345
  780MOL0     C 7523   9.830   0.542  12.687 -0.1327 -0.3188  0.0658
  780MOL0     C 7524   9.694   0.539  12.757  0.1787  0.0900 -0.5369
  780MOL0     C 7525   9.672   0.415  12.854 -1.2827 -0.6342  0.0076
  780MOL0     O 7526   9.585   0.445  12.962  0.5898 -0.5654 -0.6462
  780MOL0     C 7527   9.558   0.336  13.044  0.2269 -0.6640  0.1548
  780MOL0     C 7528   9.649   0.248  13.098 -0.4366 -0.8749  0.2376
  780MOL0     C 7529   9.613   0.139  13.182  0.4384 -0.0736  0.2310
  780MOL0     C 7530   9.724   0.052  13.229  0.4477 -1.0167 -0.7861
  780MOL0     C 7531   9.476   0.103  13.195 -0.0310 -0.5905  0.8936
  780MOL0     C 7532   9.427  -0.007  13.276 -0.2155  0.2303  0.0281
  780MOL0     O 7533   9.516  -0.085  13.342 -0.3989  0.7247 -0.1176
  780MOL0     C 7534   9.481  -0.180  13.435  0.4123 -0.4771 -0.1423
  780MOL0     C 7535   9.477  -0.149  13.571  0.3837 -0.4526  0.7082
  780MOL0     C 7536   9.451  -0.243  13.666  0.2700 -1.3604  0.5166
  780MOL0     C 7537   9.412  -0.379  13.622  0.6169 -0.1307 -1.2863
  780MOL0     O 7538   9.376  -0.485  13.705 -0.4581 -0.0028  0.2862
  780MOL0     C 7539   9.350  -0.453  13.843 -0.3540 -0.1963  0.1858
  780MOL0     C 7540   9.311  -0.588  13.916 -0.3553  0.0041  0.3284
  780MOL0     C 7541   9.332  -0.549  14.064  0.6285  0.1866  0.3209
  780MOL0     C 7542   9.333  -0.680  14.146  0.1330 -0.6902  0.1929
  780MOL0     C 7543   9.362  -0.659  14.291 -0.0781  0.0944  0.6561
  780MOL0     C 7544   9.369  -0.789  14.361 -0.3836  0.1554 -0.5821
  780MOL0     C 7545   9.396  -0.774  14.512 -0.3405 -0.4400 -0.1660
  780MOL0     C 7546   9.434  -0.900  14.570  0.2203 -0.0711 -0.4624
  780MOL0    Cl 7547   9.380  -0.905  14.750  0.5383 -0.0215 -0.0851
  780MOL0     C 7548   9.415  -0.409  13.484  0.5554  0.4306 -0.2381
  780MOL0     C 7549   9.450  -0.313  13.390 -0.8426 -1.4650 -0.8255
  780MOL0     O 7550   9.307  -0.024  13.292 -0.5232  0.3651  1.0114
  780MOL0     C 7551   9.385   0.192  13.129 -0.5658  0.5519  0.7681
  780MOL0     C 7552   9.429   0.304  13.059  0.5749  0.2820 -0.6170
  780MOL0     N 7553  10.088   0.709  12.570  0.7252  0.7614  0.6529
  780MOL0     N 7554  10.189   0.670  12.514 -0.0326 -0.4544 -1.2086
  780MOL0     C 7555  10.844   0.288  11.549 -0.5278 -0.3711  0.5253
  780MOL0     C 7556  10.923   0.360  11.457  0.2621  0.5951  0.1455
  780MOL0     C 7557  11.169   0.590  11.183 -0.2767 -0.7889 -0.6512
  780MOL0     C 7558  11.176   0.723  11.223 -0.0038 -0.5319  0.2582
  780MOL0     C 7559  11.209   0.828  11.131  0.7196  0.6534  0.0617
  780MOL0     C 7560  11.225   0.801  10.997 -1.5360  0.1888 -0.4078
  780MOL0     O 7561  11.245   0.907  10.914  0.9557 -0.4958  0.4638
  780MOL0     C 7562  11.321   0.904  10.797  0.2973 -0.7891 -0.7175
  780MOL0     C 7563  11.246   0.907  10.659 -0.6370  0.9318 -0.6962
  780MOL0     C 7564  11.123   1.000  10.636  0.7100 -0.8095 -0.6420
  780MOL0     C 7565  11.155   1.148  10.682 -0.1025  0.1859  0.1668
  780MOL0     C 7566  11.267   1.215  10.613 -0.3383 -0.5100  0.6591
  780MOL0     C 7567  11.365   1.264  10.578 -0.9965  0.3999  1.6175
  780MOL0     C 7568  11.226   0.662  10.956 -0.2650 -1.0038  0.3896
  780MOL0     C 7569  11.195   0.562  11.046 -0.5041 -0.1101  0.1965
  780MOL0     C 7570  11.185   0.425  10.985 -0.5349  0.5917 -0.9571
  780MOL0     H 7571  11.046   0.605  11.655 -1.2061  0.7251  0.1250
  780MOL0     H 7572  10.900   0.471  11.823 -1.6183  1.2238 -0.8730
  780MOL0     H 7573  10.707   0.078  11.717 -3.3929 -1.3814  1.0624
  780MOL0     H 7574  10.603   0.211  11.655 -0.9112 -1.0214 -0.9802
  780MOL0     H 7575  10.496   0.066  11.830  0.6622 -0.7873 -1.0513
  780MOL0     H 7576  10.629   0.120  11.944 -1.3337  1.7230  1.6371
  780MOL0     H 7577  10.549   0.349  11.942  0.4073 -0.2260  0.5623
  780MOL0     H 7578  10.434   0.310  11.815 -0.9524  2.6479  1.4359
  780MOL0     H 7579  10.308   0.148  11.978 -1.9646  0.5795 -0.2116
  780MOL0     H 7580  10.429   0.195  12.101 -1.1659  2.3958  1.5668
  780MOL0     H 7581  10.197   0.316  12.091 -0.2882 -1.4431 -1.0237
  780MOL0     H 7582  10.265   0.407  11.963 -0.8818  0.5806  0.8706
  780MOL0     H 7583  10.425   0.382  12.221 -1.7622 -0.2581  1.2838
  780MOL0     H 7584  10.449   0.494  12.091 -0.6960 -0.4722 -1.0445
  780MOL0     H 7585  10.194   0.558  12.176  0.5828 -1.3670 -1.6946
  780MOL0     H 7586  10.336   0.645  12.225  2.3003 -0.3694  0.3695
  780MOL0     H 7587  10.227   0.393  12.349 -0.4537 -0.5886  0.2371
  780MOL0     H 7588  10.351   0.482  12.419  1.4084  0.1892 -2.8650
  780MOL0     H 7589   9.977   0.444  12.406 -0.7623 -0.8569 -0.7663
  780MOL0     H 7590   9.784   0.601  12.491 -1.0074  0.2464  0.4201
  780MOL0     H 7591   9.842   0.743  12.589  0.7356  0.3337  1.5163
  780MOL0     H 7592   9.846   0.437  12.663 -1.7623 -1.6591  4.0541
  780MOL0     H 7593   9.914   0.563  12.754 -0.0483 -2.8791  0.8627
  780MOL0     H 7594   9.675   0.634  12.806  0.1178  0.8479 -1.9945
  780MOL0     H 7595   9.635   0.531  12.665  0.2261  0.0459 -0.5633
  780MOL0     H 7596   9.640   0.318  12.816 -2.0152 -0.9727  1.4010
  780MOL0     H 7597   9.775   0.409  12.890 -0.3600  0.2417 -2.3272
  780MOL0     H 7598   9.752   0.269  13.068 -0.0230 -0.3310  1.8979
  780MOL0     H 7599   9.719  -0.045  13.179  1.2080 -1.6728  0.3750
  780MOL0     H 7600   9.728   0.040  13.337 -0.0961 -1.2134 -0.7879
  780MOL0     H 7601   9.817   0.103  13.202 -1.0917  2.8420  0.5483
  780MOL0     H 7602   9.508  -0.047  13.595  1.9565 -0.3179 -1.5815
  780MOL0     H 7603   9.465  -0.216  13.770 -1.6973  0.4910  0.3781
  780MOL0     H 7604   9.440  -0.405  13.883 -0.4581 -0.1994  0.4236
  780MOL0     H 7605   9.263  -0.387  13.849  0.1260  0.3550  1.4157
  780MOL0     H 7606   9.206  -0.614  13.899 -0.3411  0.4779 -0.5729
  780MOL0     H 7607   9.381  -0.667  13.888  1.9328  2.4493 -1.3040
  780MOL0     H 7608   9.255  -0.478  14.093 -0.9628  1.5501 -5.7129
  780MOL0     H 7609   9.427  -0.497  14.077  0.3203  0.8851 -0.1614
  780MOL0     H 7610   9.404  -0.754  14.107  0.4309  0.0615 -0.7272
  780MOL0     H 7611   9.232  -0.721  14.139 -1.3643  2.2245  2.5149
  780MOL0     H 7612   9.456  -0.605  14.298  0.5406 -0.7915 -0.5244
  780MOL0     H 7613   9.279  -0.595  14.324 -1.0497  0.0419 -1.5123
  780MOL0     H 7614   9.448  -0.848  14.313 -2.0546 -0.9902 -2.0612
  780MOL0     H 7615   9.273  -0.841  14.346 -0.9883  0.7705  0.9776
  780MOL0     H 7616   9.302  -0.744  14.558  0.8579  3.4625  0.0748
  780MOL0     H 7617   9.477  -0.703  14.530 -0.5113 -0.3086  0.0909
  780MOL0     H 7618   9.543  -0.912  14.566  0.5686  1.7688  1.4631
  780MOL0     H 7619   9.376  -0.980  14.523 -0.8174  1.2519 -1.5091
  780MOL0     H 7620   9.399  -0.511  13.451  3.2365 -1.1535  2.7557
  780MOL0     H 7621   9.455  -0.341  13.286  1.2708 -1.8270 -0.6612
  780MOL0     H 7622   9.282   0.158  13.126  0.2554 -2.1096 -0.6763
  780MOL0     H 7623   9.355   0.371  13.015 -0.0514 -0.9538 -1.4980
  780MOL0     H 7624  10.775   0.212  11.515 -0.7170 -0.1308  0.3721
  780MOL0     H 7625  10.911   0.327  11.354 -0.9385  1.6220 -0.0698
  780MOL0     H 7626  11.165   0.764  11.323  3.9309  1.0673  0.2122
  780MOL0     H 7627  11.197   0.934  11.155  1.1807  0.6311  0.4147
  780MOL0     H 7628  11.381   0.994  10.815  1.1980 -1.6698  0.9035
  780MOL0     H 7629  11.392   0.822  10.797 -0.4599 -1.4590 -0.4227
  780MOL0     H 7630  11.210   0.804  10.654 -0.0562  0.6321  0.7889
  780MOL0     H 7631  11.323   0.916  10.582 -0.5049  0.9449 -0.5626
  780MOL0     H 7632  11.088   1.003  10.533  1.8980  0.2044 -1.0379
  780MOL0     H 7633  11.048   0.957  10.704  2.0887  1.1198  2.3525
  780MOL0     H 7634  11.187   1.137  10.785  2.4715 -1.3068 -0.7131
  780MOL0     H 7635  11.064   1.209  10.678 -1.4355 -1.7377 -2.3891
  780MOL0     H 7636  11.452   1.308  10.533 -1.3770  0.0055  0.4593
  780MOL0     H 7637  11.250   0.656  10.850  1.8426  1.8534  0.5751
  780MOL0     H 7638  11.251   0.355  11.038 -2.3004 -1.8168 -1.7408
  780MOL0     H 7639  11.081   0.392  10.995 -0.3921 -0.1504 -1.7437
  780MOL0     H 7640  11.227   0.431  10.884  0.6703 -1.3433 -0.6249
  781MOL0     O 7641   7.378   7.882   1.370 -0.4582  0.3398 -0.6145
  781MOL0     C 7642   7.297   7.808   1.424  0.2956  0.2661  0.0677
  781MOL0     O 7643   7.272   7.675   1.399  0.4110 -0.8753  1.2969
  781MOL0     C 7644   7.361   7.588   1.346 -0.3033 -1.1889  1.0679
  781MOL0     C 7645   7.388   7.470   1.416 -1.1321  0.5693 -1.0276
  781MOL0     C 7646   7.488   7.376   1.364 -0.1261 -0.4277 -0.7933
  781MOL0     C 7647   7.546   7.404   1.246  0.6676 -0.2767  0.5635
  781MOL0     O 7648   7.633   7.316   1.201  0.2363  0.0106  0.6812
  781MOL0     C 7649   7.697   7.346   1.073  0.8880  0.6510 -0.5879
  781MOL0     C 7650   7.806   7.246   1.043  0.0728  0.3935 -0.6631
  781MOL0     C 7651   7.872   7.286   0.904  0.2160  0.0610  0.4036
  781MOL0     C 7652   8.013   7.232   0.891 -0.6682  0.4960 -0.2856
  781MOL0     C 7653   8.071   7.251   0.760 -1.1771 -0.6670 -0.2939
  781MOL0     C 7654   8.222   7.192   0.759  0.6680 -0.7207  0.0826
  781MOL0     C 7655   8.277   7.185   0.615 -0.4513  0.4726  0.1289
  781MOL0     C 7656   8.426   7.131   0.620  0.0536 -0.4187  0.1250
  781MOL0     N 7657   8.481   7.096   0.487 -0.1119  0.0405  0.3279
  781MOL0     C 7658   8.565   6.986   0.458  0.7659 -0.5963 -0.0179
  781MOL0     C 7659   8.579   6.992   0.324  0.3584  0.2729 -0.8506
  781MOL0     C 7660   8.647   6.891   0.226 -0.1763 -0.6614 -0.1092
  781MOL0     C 7661   8.705   6.966   0.108 -0.2552  0.6003  0.4037
  781MOL0     C 7662   8.783   6.865   0.018 -0.5870  0.3269 -0.5231
  781MOL0     C 7663   8.811   6.933  -0.116 -0.3335 -0.1121  0.2588
  781MOL0     O 7664   8.906   6.853  -0.181 -0.2121 -0.4404 -0.0826
  781MOL0     C 7665   8.865   6.728  -0.234  0.3351  0.2146  0.1358
  781MOL0     C 7666   8.966   6.636  -0.268  0.0673  0.6293  0.2260
  781MOL0     C 7667   8.941   6.513  -0.327  0.1205  0.7598  0.2015
  781MOL0     C 7668   9.060   6.434  -0.383  0.6645 -0.1291  0.2630
  781MOL0     C 7669   8.803   6.480  -0.351  0.6689 -0.0939 -0.0475
  781MOL0     C 7670   8.750   6.340  -0.416  0.4965  0.0704 -0.2018
  781MOL0     O 7671   8.832   6.252  -0.476 -0.0166 -0.5679  0.6877
  781MOL0     C 7672   8.774   6.131  -0.507  0.0425 -0.2566  0.6410
  781MOL0     C 7673   8.740   6.031  -0.417  0.7146  0.3157  0.1679
  781MOL0     C 7674   8.680   5.916  -0.462  0.0869 -0.1425 -0.0198
  781MOL0     C 7675   8.656   5.892  -0.603 -0.1966 -0.3645 -0.3138
  781MOL0     O 7676   8.624   5.773  -0.663 -0.4216  0.0346  0.5787
  781MOL0     C 7677   8.538   5.685  -0.584  0.2775 -0.9593  0.7185
  781MOL0     C 7678   8.441   5.620  -0.675  0.1995 -0.0971 -0.0288
  781MOL0     C 7679   8.510   5.534  -0.783  0.4102 -0.1850  0.0004
  781MOL0     C 7680   8.402   5.456  -0.856  0.1672  0.7176  0.7642
  781MOL0     C 7681   8.460   5.394  -0.992 -0.3601 -0.2283  0.0196
  781MOL0     C 7682   8.543   5.275  -0.953  0.3843  0.3882  0.5317
  781MOL0     C 7683   8.618   5.224  -1.073 -0.1385 -0.2728  0.1655
  781MOL0     C 7684   8.745   5.155  -1.020 -0.1992  0.5174 -0.3550
  781MOL0    Cl 7685   8.851   5.075  -1.130  0.3534  0.0772  0.0640
  781MOL0     C 7686   8.684   5.987  -0.691  0.3339 -0.0747 -0.2869
  781MOL0     C 7687   8.747   6.106  -0.648 -0.1082  1.3045  0.1212
  781MOL0     O 7688   8.629   6.328  -0.406 -0.1536 -0.6680  0.5913
  781MOL0     C 7689   8.699   6.576  -0.319 -0.4681 -0.4806 -1.2321
  781MOL0     C 7690   8.733   6.698  -0.258  0.7005 -0.4882  0.1908
  781MOL0     N 7691   8.512   7.099   0.275 -0.3385 -0.3350  0.1093
  781MOL0     N 7692   8.438   7.157   0.368 -0.7497 -0.2213  0.1436
  781MOL0     C 7693   7.517   7.531   1.177 -0.1491  0.2415  0.6841
  781MOL0     C 7694   7.421   7.619   1.225  0.3622  0.3356  0.2391
  781MOL0     C 7695   7.194   7.869   1.509  0.5229  0.1741  0.1786
  781MOL0     C 7696   7.063   7.829   1.502  0.1398  0.2175 -0.1591
  781MOL0     C 7697   6.974   7.875   1.597  0.3758  0.1435  0.6434
  781MOL0     C 7698   7.015   7.950   1.711 -0.6353  1.1510 -0.2514
  781MOL0     O 7699   6.932   8.009   1.794 -0.2468  0.0069  0.3106
  781MOL0     C 7700   6.851   7.923   1.879  0.4460  1.2385 -0.0212
  781MOL0     C 7701   6.716   7.987   1.923 -0.1556  0.5043 -0.3849
  781MOL0     C 7702   6.751   8.112   2.012 -0.2976  0.0105  0.0322
  781MOL0     C 7703   6.641   8.152   2.095 -0.1487  0.0297 -0.4076
  781MOL0     C 7704   6.537   8.214   2.014 -0.6857  0.4088  0.0175
  781MOL0     C 7705   6.460   8.256   1.928 -0.6725 -0.4145 -0.1434
  781MOL0     C 7706   7.144   7.993   1.711  0.2598  0.2436  0.9132
  781MOL0     C 7707   7.237   7.949   1.620 -0.4659  0.3946  0.0228
  781MOL0     C 7708   7.384   7.996   1.630 -0.5692  0.5903 -0.0902
  781MOL0     H 7709   7.333   7.449   1.507  0.9735  2.8979  0.9278
  781MOL0     H 7710   7.510   7.282   1.413 -0.1703  2.2422  5.2406
  781MOL0     H 7711   7.741   7.445   1.085  0.9788  0.3122  2.6319
  781MOL0     H 7712   7.627   7.348   0.989 -1.2528 -0.0683  1.0809
  781MOL0     H 7713   7.870   7.250   1.132  3.2965  3.0537 -2.8452
  781MOL0     H 7714   7.773   7.141   1.045 -4.2519  1.5446 -1.5053
  781MOL0     H 7715   7.810   7.248   0.823  2.3701 -0.1639 -1.2397
  781MOL0     H 7716   7.878   7.395   0.900  0.8033  0.0898  1.5644
  781MOL0     H 7717   8.082   7.263   0.970  0.0121 -4.1317  1.2535
  781MOL0     H 7718   7.986   7.127   0.909  1.5821  0.2532  2.2852
  781MOL0     H 7719   8.075   7.357   0.731  2.4287  0.6873  4.0507
  781MOL0     H 7720   8.014   7.195   0.685  0.9890 -0.9127 -1.8609
  781MOL0     H 7721   8.289   7.259   0.815 -0.1257  1.3257 -1.3145
  781MOL0     H 7722   8.230   7.096   0.811  0.0869  1.4174  4.6631
  781MOL0     H 7723   8.276   7.289   0.580  0.3657  1.0627  1.7970
  781MOL0     H 7724   8.212   7.122   0.553  0.5316 -2.1938  1.6441
  781MOL0     H 7725   8.485   7.208   0.670 -1.1789  2.4561 -2.5253
  781MOL0     H 7726   8.413   7.039   0.679 -0.3893 -0.7240 -0.4375
  781MOL0     H 7727   8.597   6.911   0.530 -1.7065 -0.8879  0.8677
  781MOL0     H 7728   8.562   6.832   0.190  0.0790  0.5894 -2.9651
  781MOL0     H 7729   8.717   6.831   0.285  2.1229  3.3030  1.5480
  781MOL0     H 7730   8.629   7.018   0.049  1.7352  3.2331 -0.0359
  781MOL0     H 7731   8.775   7.044   0.139  1.7941 -0.9383 -0.1254
  781MOL0     H 7732   8.871   6.829   0.073 -2.7579 -4.2971  0.4167
  781MOL0     H 7733   8.726   6.773   0.007  1.8287 -1.3520  0.0622
  781MOL0     H 7734   8.722   6.953  -0.177 -0.4274 -3.9482 -1.1280
  781MOL0     H 7735   8.850   7.032  -0.090 -1.4652  0.7063 -1.0288
  781MOL0     H 7736   9.066   6.674  -0.249  0.1698  0.8185 -0.6580
  781MOL0     H 7737   9.156   6.471  -0.345  1.3362 -1.4889 -0.0771
  781MOL0     H 7738   9.070   6.448  -0.491 -2.4985  1.9164  0.1118
  781MOL0     H 7739   9.054   6.328  -0.357 -1.4552 -0.1231 -0.0592
  781MOL0     H 7740   8.743   6.043  -0.309  0.6064  1.8503  0.0204
  781MOL0     H 7741   8.665   5.839  -0.387  2.3593  0.2115  0.8960
  781MOL0     H 7742   8.596   5.608  -0.531  1.2563 -0.3154  0.6102
  781MOL0     H 7743   8.484   5.732  -0.502  0.2156  1.7692 -0.7715
  781MOL0     H 7744   8.380   5.544  -0.626  4.4738 -2.3163  2.4682
  781MOL0     H 7745   8.375   5.694  -0.722  1.2264 -0.5992 -2.4146
  781MOL0     H 7746   8.590   5.470  -0.744  2.0620  1.1379 -1.0704
  781MOL0     H 7747   8.559   5.606  -0.850 -0.9516 -1.0667 -2.0503
  781MOL0     H 7748   8.317   5.520  -0.883 -0.0249  0.6352  1.1676
  781MOL0     H 7749   8.369   5.375  -0.791  0.7270  0.6132  0.9203
  781MOL0     H 7750   8.373   5.364  -1.050  0.5535 -1.3455 -0.8495
  781MOL0     H 7751   8.507   5.471  -1.054 -1.2736 -0.8800 -1.5384
  781MOL0     H 7752   8.470   5.199  -0.924 -0.0925  0.8769  0.6079
  781MOL0     H 7753   8.607   5.293  -0.866  0.8676  2.4507 -0.1821
  781MOL0     H 7754   8.645   5.298  -1.150  1.9325  0.7647  1.7869
  781MOL0     H 7755   8.564   5.150  -1.133 -0.1233 -0.3572  0.2554
  781MOL0     H 7756   8.715   5.079  -0.947  0.5644  0.3927 -0.1514
  781MOL0     H 7757   8.810   5.227  -0.969  0.2971 -1.6531  2.2971
  781MOL0     H 7758   8.675   5.965  -0.797 -4.4047 -0.4184 -0.0025
  781MOL0     H 7759   8.785   6.177  -0.721  1.8727 -2.8320 -3.2507
  781MOL0     H 7760   8.591   6.561  -0.325 -0.9041  0.2329  2.3097
  781MOL0     H 7761   8.659   6.776  -0.253  0.7977 -0.2820 -1.1745
  781MOL0     H 7762   7.559   7.565   1.083 -1.4511 -1.1421 -0.4427
  781MOL0     H 7763   7.388   7.706   1.169 -1.0037 -0.4581 -0.2458
  781MOL0     H 7764   7.029   7.787   1.408  3.1438  0.3763 -1.4487
  781MOL0     H 7765   6.869   7.852   1.584  0.0096  2.7193 -1.8995
  781MOL0     H 7766   6.830   7.831   1.824 -0.4585  3.6531 -4.1565
  781MOL0     H 7767   6.906   7.908   1.973 -0.9744  0.0125  0.6408
  781MOL0     H 7768   6.662   7.912   1.981 -1.1523  0.8959 -0.7886
  781MOL0     H 7769   6.649   8.014   1.842  1.8972 -1.0819 -2.7388
  781MOL0     H 7770   6.842   8.094   2.071  1.3329 -0.0088 -2.3433
  781MOL0     H 7771   6.782   8.187   1.939  0.5486 -2.3352 -2.1535
  781MOL0     H 7772   6.682   8.219   2.172  3.6111 -1.0489 -1.2376
  781MOL0     H 7773   6.599   8.063   2.143 -1.9262  0.7359 -0.5970
  781MOL0     H 7774   6.376   8.294   1.873  0.4794  1.1383 -0.9303
  781MOL0     H 7775   7.174   8.058   1.792  2.7653  0.2162  0.0774
  781MOL0     H 7776   7.457   7.916   1.619  0.1207  1.0170  1.1636
  781MOL0     H 7777   7.401   8.064   1.545  0.0084 -0.4225 -0.8023
  781MOL0     H 7778   7.416   8.045   1.723 -0.4836 -2.2396  1.4640
  782MOL0     O 7779   6.478   2.574  11.068 -0.4773 -0.0415 -0.6611
  782MOL0     C 7780   6.408   2.472  11.091  0.6611  0.1977  0.3416
  782MOL0     O 7781   6.426   2.399  11.213 -0.0003  0.6445  0.6787
  782MOL0     C 7782   6.524   2.442  11.303  0.4548 -0.5219  0.1647
  782MOL0     C 7783   6.515   2.559  11.374 -0.6722  0.1165  0.3996
  782MOL0     C 7784   6.624   2.601  11.445 -0.6860  0.5862  0.0645
  782MOL0     C 7785   6.747   2.540  11.439  0.7338 -1.4225 -0.6150
  782MOL0     O 7786   6.846   2.606  11.503  0.9087 -0.5066 -0.4210
  782MOL0     C 7787   6.955   2.522  11.549  0.5343  0.3885  0.4713
  782MOL0     C 7788   7.049   2.624  11.608  0.7894  0.4035  0.0298
  782MOL0     C 7789   6.987   2.721  11.704  0.4526  0.3074 -0.2750
  782MOL0     C 7790   7.096   2.773  11.791  0.2959 -0.7645  0.8829
  782MOL0     C 7791   7.047   2.870  11.906  0.5293  0.3446  0.5074
  782MOL0     C 7792   7.161   2.896  12.010  1.3148 -0.3737 -0.1613
  782MOL0     C 7793   7.116   3.005  12.111 -0.5406 -0.0286 -0.4664
  782MOL0     C 7794   7.236   3.030  12.208  0.6931 -0.3196 -1.3254
  782MOL0     N 7795   7.346   3.095  12.138  1.0727 -0.0871  0.4698
  782MOL0     C 7796   7.385   3.233  12.165 -0.4710 -0.2762  0.3997
  782MOL0     C 7797   7.506   3.242  12.105 -0.7385  0.0720  0.6783
  782MOL0     C 7798   7.592   3.363  12.113  0.0310  0.5251 -0.3347
  782MOL0     C 7799   7.734   3.356  12.194 -0.1437 -1.1550  0.0934
  782MOL0     C 7800   7.720   3.341  12.348  0.1281  0.1468  0.9473
  782MOL0     C 7801   7.664   3.211  12.399  0.1136  0.7794 -0.0092
  782MOL0     O 7802   7.633   3.226  12.541 -0.0502 -0.6069 -0.5935
  782MOL0     C 7803   7.595   3.117  12.608  0.0657 -0.0243 -0.1018
  782MOL0     C 7804   7.612   3.115  12.746  1.0490 -0.3227 -0.1714
  782MOL0     C 7805   7.589   3.000  12.829  0.4467 -0.3178  0.0241
  782MOL0     C 7806   7.617   3.017  12.975  1.3295  0.1432  0.8819
  782MOL0     C 7807   7.559   2.882  12.766  0.1795  0.1974  0.7317
  782MOL0     C 7808   7.566   2.749  12.843  0.3160 -0.7531  0.2179
  782MOL0     O 7809   7.596   2.636  12.763 -0.0078 -0.4528 -0.0941
  782MOL0     C 7810   7.639   2.516  12.814 -0.2854 -0.5774 -0.2319
  782MOL0     C 7811   7.582   2.399  12.762 -0.7706  0.2252 -0.3858
  782MOL0     C 7812   7.602   2.285  12.829 -0.2362 -1.1411  0.5646
  782MOL0     C 7813   7.680   2.272  12.944 -0.5055 -0.2608 -0.1949
  782MOL0     O 7814   7.666   2.145  12.999  0.2372 -0.1486  0.3485
  782MOL0     C 7815   7.746   2.106  13.109 -0.4527  0.2705 -0.3445
  782MOL0     C 7816   7.701   1.967  13.159  0.8103  0.2021 -1.2654
  782MOL0     C 7817   7.769   1.842  13.096 -0.8653 -0.5636 -0.2558
  782MOL0     C 7818   7.729   1.713  13.178  0.4655  0.7533 -0.0642
  782MOL0     C 7819   7.790   1.589  13.114  0.1938 -0.2042 -0.0186
  782MOL0     C 7820   7.731   1.461  13.172 -0.1919 -1.0077  0.0006
  782MOL0     C 7821   7.793   1.344  13.090  0.8403 -1.1216  0.0972
  782MOL0     C 7822   7.749   1.205  13.128  0.0364  0.3348 -0.1732
  782MOL0    Cl 7823   7.812   1.063  13.029 -0.2551  0.1557 -0.1506
  782MOL0     C 7824   7.739   2.388  12.998 -0.2078  0.0131 -0.0009
  782MOL0     C 7825   7.721   2.510  12.930  0.0151  0.8558 -0.1289
  782MOL0     O 7826   7.523   2.745  12.959 -0.1024  0.0686 -0.0573
  782MOL0     C 7827   7.535   2.883  12.623  0.3334 -0.2306 -0.5019
  782MOL0     C 7828   7.550   2.996  12.550  0.8349 -0.1114 -0.2270
  782MOL0     N 7829   7.535   3.118  12.045 -0.9874  0.1208  0.1273
  782MOL0     N 7830   7.442   3.029  12.061  0.2837  0.0996 -0.2377
  782MOL0     C 7831   6.750   2.411  11.385 -0.3043  0.5741 -1.0974
  782MOL0     C 7832   6.642   2.365  11.313 -0.1809  0.1532  0.2712
  782MOL0     C 7833   6.297   2.435  10.994 -0.1105  0.2936 -0.2334
  782MOL0     C 7834   6.285   2.511  10.883 -0.1455 -0.7452  0.2885
  782MOL0     C 7835   6.186   2.503  10.789 -0.3068  1.3168  0.2814
  782MOL0     C 7836   6.107   2.391  10.785 -1.4580 -0.3018 -1.3034
  782MOL0     O 7837   6.030   2.335  10.687 -0.6873  0.1549 -0.6567
  782MOL0     C 7838   6.028   2.396  10.556 -0.0382 -0.6081 -0.2479
  782MOL0     C 7839   5.906   2.471  10.531  0.8281  0.1576 -0.4075
  782MOL0     C 7840   5.772   2.391  10.530  0.3694 -0.2211  0.5147
  782MOL0     C 7841   5.761   2.274  10.433  0.5908  0.0353 -0.0264
  782MOL0     C 7842   5.623   2.226  10.411 -0.4837 -0.1338 -0.4872
  782MOL0     C 7843   5.505   2.204  10.406  0.7869  0.3067  0.4134
  782MOL0     C 7844   6.116   2.301  10.893  0.6817 -0.1682 -0.2726
  782MOL0     C 7845   6.199   2.328  11.007 -0.3284 -0.3596  1.1213
  782MOL0     C 7846   6.199   2.225  11.111  0.0367  0.0490 -0.1373
  782MOL0     H 7847   6.432   2.628  11.367  1.6151  3.0103 -0.3571
  782MOL0     H 7848   6.604   2.699  11.487 -0.4919  1.6675 -2.2405
  782MOL0     H 7849   7.008   2.463  11.473  2.4232  1.7977  0.6209
  782MOL0     H 7850   6.925   2.456  11.630  0.9771  0.4274  0.6686
  782MOL0     H 7851   7.120   2.565  11.667 -0.2083 -1.4939 -0.5746
  782MOL0     H 7852   7.114   2.672  11.534  2.1426 -2.3732 -0.7272
  782MOL0     H 7853   6.923   2.794  11.652 -2.5343 -2.5900 -1.0033
  782MOL0     H 7854   6.924   2.665  11.774  1.3573  2.0809  2.1330
  782MOL0     H 7855   7.160   2.694  11.831  0.0755 -0.4969  1.7732
  782MOL0     H 7856   7.165   2.835  11.732 -2.8224  0.2293 -2.0574
  782MOL0     H 7857   6.952   2.839  11.949 -2.1496  0.9785 -4.2815
  782MOL0     H 7858   7.017   2.965  11.859  0.1601  0.5542  1.1518
  782MOL0     H 7859   7.177   2.799  12.060 -0.7401 -0.7633 -0.1791
  782MOL0     H 7860   7.250   2.918  11.951  1.1649  0.9848  0.0992
  782MOL0     H 7861   7.026   2.977  12.166  0.2417 -1.5161  0.1485
  782MOL0     H 7862   7.108   3.091  12.045 -3.4797 -0.6857 -1.1004
  782MOL0     H 7863   7.219   3.094  12.295  4.5395 -1.9021  0.8308
  782MOL0     H 7864   7.275   2.937  12.251  0.8268  0.8014  1.1321
  782MOL0     H 7865   7.337   3.309  12.226  0.0948  0.0029  0.5016
  782MOL0     H 7866   7.530   3.445  12.150 -1.0627  0.0295 -1.0179
  782MOL0     H 7867   7.625   3.388  12.011  1.8068 -2.3532 -0.5799
  782MOL0     H 7868   7.798   3.283  12.145 -0.3991  0.8219 -3.5093
  782MOL0     H 7869   7.785   3.451  12.177  2.0595 -2.3290 -0.1742
  782MOL0     H 7870   7.823   3.338  12.386  0.5323 -3.6548 -0.0912
  782MOL0     H 7871   7.652   3.417  12.387  0.3384 -0.4185  2.4676
  782MOL0     H 7872   7.572   3.189  12.344  0.2814  3.5349 -1.5981
  782MOL0     H 7873   7.735   3.134  12.369 -1.3895 -0.7845  0.2902
  782MOL0     H 7874   7.642   3.215  12.773 -2.8352  1.1919 -0.8204
  782MOL0     H 7875   7.674   3.108  12.992  1.7189 -0.3402  2.3149
  782MOL0     H 7876   7.681   2.938  13.017  1.2872  0.3450  1.3346
  782MOL0     H 7877   7.520   3.009  13.026  0.1146 -1.4291 -1.5034
  782MOL0     H 7878   7.522   2.408  12.672 -2.9135  1.9624  1.0864
  782MOL0     H 7879   7.549   2.199  12.789 -1.0863 -1.0113  1.4007
  782MOL0     H 7880   7.851   2.110  13.076 -1.1605 -0.7307 -2.9830
  782MOL0     H 7881   7.726   2.178  13.188  0.0969  2.1328 -1.8160
  782MOL0     H 7882   7.722   1.963  13.267  3.1734  0.8742 -1.6413
  782MOL0     H 7883   7.594   1.948  13.150  0.8369 -0.9493  0.3162
  782MOL0     H 7884   7.878   1.850  13.092 -1.0293  1.6757 -2.2715
  782MOL0     H 7885   7.732   1.824  12.995 -0.0497 -2.1885 -0.2890
  782MOL0     H 7886   7.622   1.694  13.181  0.6139 -0.2156 -0.4381
  782MOL0     H 7887   7.765   1.712  13.281  1.2095  0.9201 -0.3124
  782MOL0     H 7888   7.763   1.589  13.008  2.3386 -0.1014 -0.5951
  782MOL0     H 7889   7.898   1.595  13.127  0.2068 -0.7417  0.1349
  782MOL0     H 7890   7.622   1.455  13.166 -0.4180  1.0608  1.2455
  782MOL0     H 7891   7.764   1.448  13.275 -0.8359 -1.2458  0.1829
  782MOL0     H 7892   7.901   1.339  13.111  0.3748  0.2780  3.4647
  782MOL0     H 7893   7.780   1.361  12.983 -2.3903 -2.8067  0.1073
  782MOL0     H 7894   7.640   1.206  13.121 -0.1343 -0.2448  1.6298
  782MOL0     H 7895   7.771   1.202  13.236  0.4931  3.4337 -0.0785
  782MOL0     H 7896   7.802   2.384  13.086  2.4089 -3.7379 -1.7388
  782MOL0     H 7897   7.769   2.598  12.971 -2.4475  2.1825  0.0832
  782MOL0     H 7898   7.531   2.794  12.561  1.0514 -0.8955  0.3924
  782MOL0     H 7899   7.530   2.983  12.444 -0.2161 -0.7985  0.0365
  782MOL0     H 7900   6.839   2.350  11.377 -0.6619 -0.1341  0.0424
  782MOL0     H 7901   6.643   2.269  11.263  0.0481  0.5202 -0.4419
  782MOL0     H 7902   6.340   2.604  10.875 -2.3847  0.7464  1.0662
  782MOL0     H 7903   6.184   2.568  10.702 -3.3387  1.3587  0.2900
  782MOL0     H 7904   6.118   2.457  10.549  1.6684 -2.7411  1.5239
  782MOL0     H 7905   6.035   2.324  10.474  4.6882  0.1721 -0.8159
  782MOL0     H 7906   5.913   2.521  10.434 -1.1401  0.5786 -0.3785
  782MOL0     H 7907   5.898   2.554  10.600 -2.0934  0.7866 -1.3495
  782MOL0     H 7908   5.757   2.364  10.635 -0.4037 -2.2843 -0.0865
  782MOL0     H 7909   5.694   2.456  10.490  0.5049 -0.0540  0.5199
  782MOL0     H 7910   5.825   2.190  10.460 -0.2374 -0.7793 -0.5440
  782MOL0     H 7911   5.810   2.302  10.339  2.8787  1.0910  1.3836
  782MOL0     H 7912   5.400   2.180  10.406  0.9000 -0.2218 -0.3224
  782MOL0     H 7913   6.055   2.212  10.890  1.3089 -0.6416  0.7015
  782MOL0     H 7914   6.274   2.150  11.087  0.7275  0.8282 -0.4674
  782MOL0     H 7915   6.215   2.264  11.212  1.7267  3.7478 -1.6180
  782MOL0     H 7916   6.106   2.168  11.108 -0.0766  0.2656 -1.4613
  783MOL0     O 7917   8.206   1.894  10.640  0.7944  0.3012 -0.1254
  783MOL0     C 7918   8.212   1.940  10.529  0.1714 -0.0063  0.4982
  783MOL0     O 7919   8.317   1.949  10.448  1.0556 -0.2005  0.3641
  783MOL0     C 7920   8.433   1.874  10.465  1.1628 -0.0618 -0.1460
  783MOL0     C 7921   8.521   1.908  10.569  0.7527  0.5542  0.5073
  783MOL0     C 7922   8.658   1.851  10.563 -0.6619 -0.5480 -0.6799
  783MOL0     C 7923   8.704   1.773  10.459  0.2299  0.3680  0.1910
  783MOL0     O 7924   8.836   1.734  10.458 -0.5606 -0.3883  0.4684
  783MOL0     C 7925   8.895   1.695  10.338  0.3740  0.8643  0.1782
  783MOL0     C 7926   8.919   1.818  10.253  0.0867  0.1879  0.0988
  783MOL0     C 7927   9.007   1.914  10.327 -0.1400  0.0237  0.7745
  783MOL0     C 7928   8.990   2.050  10.264  1.0388 -0.1503  0.3344
  783MOL0     C 7929   9.065   2.157  10.346  0.4668 -0.0015 -0.2320
  783MOL0     C 7930   9.007   2.186  10.478 -0.3011  0.3974 -0.2060
  783MOL0     C 7931   9.047   2.325  10.531 -0.8176 -0.2771  0.5968
  783MOL0     C 7932   9.195   2.326  10.559 -0.0555  0.4349 -0.8809
  783MOL0     N 7933   9.243   2.466  10.590  0.3506 -0.5222 -0.5261
  783MOL0     C 7934   9.379   2.497  10.596 -0.2081  1.3721 -0.2944
  783MOL0     C 7935   9.396   2.610  10.664 -0.5549  0.0697 -0.5332
  783MOL0     C 7936   9.530   2.680  10.712 -0.4615  0.9673 -0.7022
  783MOL0     C 7937   9.555   2.826  10.665  0.7814  0.1083 -0.4004
  783MOL0     C 7938   9.690   2.872  10.727  0.1996  0.1435 -0.4894
  783MOL0     C 7939   9.735   3.003  10.663  0.4212 -0.0217  0.0309
  783MOL0     O 7940   9.857   3.051  10.724 -0.2563  0.3306 -0.2053
  783MOL0     C 7941   9.916   3.164  10.672 -0.2473  0.0285 -0.3762
  783MOL0     C 7942  10.025   3.157  10.593  0.6682 -1.4989  0.9694
  783MOL0     C 7943  10.094   3.268  10.529 -0.0010  0.0776 -0.1019
  783MOL0     C 7944  10.197   3.230  10.424 -0.0010 -1.0054 -0.0753
  783MOL0     C 7945  10.043   3.399  10.561  0.2893  1.1326  0.1182
  783MOL0     C 7946  10.098   3.520  10.503  0.4861 -0.2419  0.3495
  783MOL0     O 7947  10.049   3.639  10.567 -0.7254  0.0036  0.5133
  783MOL0     C 7948  10.108   3.754  10.532  0.0100  0.3670  0.6904
  783MOL0     C 7949  10.026   3.868  10.529 -0.5212  0.0629  0.8429
  783MOL0     C 7950  10.088   3.990  10.504  0.3283  0.0446  0.2975
  783MOL0     C 7951  10.223   4.012  10.484  0.2670  0.3473  0.3026
  783MOL0     O 7952  10.256   4.142  10.456  0.1886  0.1016  0.1268
  783MOL0     C 7953  10.374   4.194  10.525 -0.0539  0.3653  0.0292
  783MOL0     C 7954  10.397   4.347  10.523 -0.4747 -0.7975 -0.1707
  783MOL0     C 7955  10.288   4.431  10.589 -0.5137 -0.2410 -0.2653
  783MOL0     C 7956  10.295   4.583  10.550 -0.1482 -0.6421  1.0311
  783MOL0     C 7957  10.433   4.651  10.582  0.5311  0.3242 -1.1829
  783MOL0     C 7958  10.435   4.803  10.582 -0.3956 -0.0766  0.3035
  783MOL0     C 7959  10.583   4.840  10.628  1.1090  1.3955  0.1793
  783MOL0     C 7960  10.584   4.987  10.630 -1.1745  0.5971  0.5766
  783MOL0    Cl 7961  10.508   5.058  10.773 -0.2381  0.4137  0.7026
  783MOL0     C 7962  10.301   3.899  10.505  0.0233  0.3066  0.0077
  783MOL0     C 7963  10.241   3.777  10.532  0.0226  0.4605 -0.6466
  783MOL0     O 7964  10.188   3.510  10.423 -0.0435  0.2706  0.3781
  783MOL0     C 7965   9.941   3.403  10.660  1.0438  0.5664 -0.0815
  783MOL0     C 7966   9.868   3.298  10.701 -0.2290  0.3330 -0.2375
  783MOL0     N 7967   9.264   2.647  10.697  1.0824 -0.2936  0.5211
  783MOL0     N 7968   9.171   2.563  10.657 -0.4112  1.1548  0.9979
  783MOL0     C 7969   8.611   1.732  10.357  0.1251  0.2096 -0.2478
  783MOL0     C 7970   8.482   1.794  10.365  0.4350  1.1420  0.4734
  783MOL0     C 7971   8.096   2.020  10.487  0.5277  0.6607 -0.5219
  783MOL0     C 7972   8.039   1.988  10.362 -0.2385 -1.0878 -0.0588
  783MOL0     C 7973   7.940   2.078  10.314  0.2511 -0.1241 -0.8691
  783MOL0     C 7974   7.879   2.172  10.397 -0.0644 -0.5838 -0.1804
  783MOL0     O 7975   7.771   2.252  10.358  0.3813  0.1580 -0.6038
  783MOL0     C 7976   7.711   2.220  10.229  0.1449 -0.3806  0.4032
  783MOL0     C 7977   7.597   2.317  10.197  0.6888 -0.5659  0.1739
  783MOL0     C 7978   7.490   2.316  10.310 -0.4506 -0.3505 -0.4744
  783MOL0     C 7979   7.438   2.182  10.329  0.0522 -0.8769  0.0444
  783MOL0     C 7980   7.288   2.199  10.334  0.5467 -0.2007  0.7234
  783MOL0     C 7981   7.168   2.228  10.351  0.1460 -1.2531  0.3176
  783MOL0     C 7982   7.933   2.198  10.517  0.1240  0.0449 -0.5459
  783MOL0     C 7983   8.035   2.117  10.566 -0.2068  0.9302 -0.3136
  783MOL0     C 7984   8.085   2.154  10.706 -0.3061  0.1887  0.4132
  783MOL0     H 7985   8.498   1.980  10.646 -0.8451 -0.9644  1.5046
  783MOL0     H 7986   8.734   1.872  10.638 -0.8892 -1.2249 -0.2472
  783MOL0     H 7987   8.827   1.626  10.287 -2.0816  3.4478 -0.2294
  783MOL0     H 7988   8.984   1.636  10.362 -0.4068 -0.8805 -0.9827
  783MOL0     H 7989   8.954   1.800  10.151 -4.3765  0.3832 -1.6782
  783MOL0     H 7990   8.824   1.857  10.217 -0.1916  1.4420  2.0216
  783MOL0     H 7991   8.972   1.928  10.430 -2.7332  0.9813 -0.1614
  783MOL0     H 7992   9.113   1.885  10.320  0.1437 -0.6704  4.9625
  783MOL0     H 7993   9.020   2.047  10.159 -3.8108 -0.0547 -1.2781
  783MOL0     H 7994   8.883   2.068  10.271  1.3020  1.0339  5.5976
  783MOL0     H 7995   9.057   2.248  10.286  0.7314  0.0684 -0.1642
  783MOL0     H 7996   9.168   2.130  10.371 -0.2167  0.9944  4.5261
  783MOL0     H 7997   8.898   2.171  10.475 -0.1104 -1.5482  0.7562
  783MOL0     H 7998   9.056   2.116  10.546  0.4115 -0.7827 -1.8455
  783MOL0     H 7999   8.988   2.342  10.621 -0.4390 -0.9237  0.9715
  783MOL0     H 8000   9.025   2.403  10.457  3.1401 -0.1874 -0.7717
  783MOL0     H 8001   9.226   2.251  10.632  2.1473  0.5172 -1.6805
  783MOL0     H 8002   9.246   2.296  10.467 -0.9797  2.6011 -2.1734
  783MOL0     H 8003   9.460   2.427  10.576 -1.0648  0.4158 -0.5457
  783MOL0     H 8004   9.608   2.613  10.676 -1.1524  0.2919 -0.9864
  783MOL0     H 8005   9.526   2.696  10.820 -1.5899  2.9996 -0.9884
  783MOL0     H 8006   9.557   2.833  10.556  3.4559 -1.7494 -0.5555
  783MOL0     H 8007   9.476   2.896  10.696  1.5032 -0.1661  2.3238
  783MOL0     H 8008   9.673   2.893  10.833  0.2206  3.2007 -0.9912
  783MOL0     H 8009   9.770   2.800  10.710  2.1033  1.8940  0.4819
  783MOL0     H 8010   9.742   2.991  10.554  1.6316 -1.2569  0.2182
  783MOL0     H 8011   9.669   3.085  10.694  0.5433  0.6761 -1.4763
  783MOL0     H 8012  10.059   3.056  10.570  2.5615 -1.6088  3.6504
  783MOL0     H 8013  10.192   3.128  10.387 -3.3754 -0.0492 -2.7871
  783MOL0     H 8014  10.300   3.264  10.443 -0.1082  1.4061 -3.0222
  783MOL0     H 8015  10.163   3.286  10.336 -1.3889 -0.9646  0.4597
  783MOL0     H 8016   9.918   3.871  10.539 -0.7859 -0.3790 -1.3883
  783MOL0     H 8017  10.026   4.079  10.503 -1.2271 -0.9799  0.9893
  783MOL0     H 8018  10.358   4.160  10.628  0.4320  1.0101  0.3286
  783MOL0     H 8019  10.464   4.138  10.500 -0.7806  0.3757 -2.8701
  783MOL0     H 8020  10.488   4.376  10.576 -1.5601 -1.5398  2.2029
  783MOL0     H 8021  10.417   4.383  10.421  3.2390 -0.2627  0.6058
  783MOL0     H 8022  10.295   4.422  10.698  2.7055 -2.2240 -0.5062
  783MOL0     H 8023  10.192   4.390  10.558 -1.4198  0.1722  1.8159
  783MOL0     H 8024  10.208   4.636  10.591 -1.1582 -0.1958 -1.4953
  783MOL0     H 8025  10.285   4.597  10.442  3.6437  0.0197  0.6273
  783MOL0     H 8026  10.440   4.635  10.690 -3.9243  4.9715  0.1896
  783MOL0     H 8027  10.510   4.595  10.528 -0.5893 -0.8418 -1.5984
  783MOL0     H 8028  10.353   4.836  10.647 -2.8138 -2.6138 -1.2357
  783MOL0     H 8029  10.393   4.846  10.491 -3.2070 -0.5183  1.2733
  783MOL0     H 8030  10.646   4.799  10.549 -2.6217 -1.7629 -1.4653
  783MOL0     H 8031  10.616   4.802  10.725  0.8702  1.1089  0.1496
  783MOL0     H 8032  10.540   5.018  10.535 -2.2074 -0.6829  0.6073
  783MOL0     H 8033  10.690   5.014  10.637 -0.8642 -0.2363 -0.5871
  783MOL0     H 8034  10.409   3.904  10.512 -0.0387  1.7657  0.1809
  783MOL0     H 8035  10.301   3.694  10.568  0.0377  1.7352  2.6735
  783MOL0     H 8036   9.902   3.503  10.678  0.0262  0.4220 -1.3016
  783MOL0     H 8037   9.780   3.313  10.763 -2.1598  0.8147 -2.9136
  783MOL0     H 8038   8.637   1.664  10.277  0.5854 -0.5649  0.5503
  783MOL0     H 8039   8.401   1.766  10.299 -0.0945  2.3580  0.5819
  783MOL0     H 8040   8.062   1.904  10.298 -0.1645 -1.0179 -0.1254
  783MOL0     H 8041   7.898   2.047  10.219  2.5775 -0.0185 -1.9971
  783MOL0     H 8042   7.781   2.224  10.145 -3.0198  0.2867 -2.4131
  783MOL0     H 8043   7.659   2.124  10.232  0.1482 -0.4685 -1.2976
  783MOL0     H 8044   7.542   2.301  10.104 -1.8890 -2.9899  1.9498
  783MOL0     H 8045   7.649   2.412  10.188  2.2150 -1.2304  1.4818
  783MOL0     H 8046   7.542   2.355  10.398  1.9313  0.1022 -1.9938
  783MOL0     H 8047   7.407   2.383  10.283  0.9568  1.4123 -0.6361
  783MOL0     H 8048   7.459   2.138  10.427 -0.2712  0.0645  0.5529
  783MOL0     H 8049   7.452   2.110  10.248  3.2051  0.8786 -1.1184
  783MOL0     H 8050   7.068   2.263  10.372  0.2297  1.1648 -2.6340
  783MOL0     H 8051   7.897   2.286  10.569  1.7815 -0.0615  0.8502
  783MOL0     H 8052   8.014   2.110  10.776 -0.3705 -1.5589 -0.6907
  783MOL0     H 8053   8.176   2.105  10.740 -2.0133 -3.4870  0.1640
  783MOL0     H 8054   8.086   2.261  10.726 -1.7514  0.0894  1.0905
  784MOL0     O 8055   0.657   9.889   1.708  0.1048 -0.6381  0.2224
  784MOL0     C 8056   0.659   9.874   1.586  0.2145 -0.0354  0.4499
  784MOL0     O 8057   0.616   9.762   1.520  0.2677  0.4946 -0.3287
  784MOL0     C 8058   0.562   9.650   1.589 -0.2518 -0.5863 -0.2167
  784MOL0     C 8059   0.467   9.666   1.688  0.5331  0.1906 -0.1528
  784MOL0     C 8060   0.405   9.562   1.758 -0.0216  0.1586 -1.0525
  784MOL0     C 8061   0.446   9.433   1.722  0.5393 -0.0409 -0.6526
  784MOL0     O 8062   0.390   9.330   1.794 -0.4408 -1.2261 -0.6085
  784MOL0     C 8063   0.353   9.213   1.728 -0.8469 -0.5282 -0.5419
  784MOL0     C 8064   0.218   9.160   1.772  0.7414  0.6612 -0.0877
  784MOL0     C 8065   0.098   9.231   1.700  0.1314 -0.9848  1.2468
  784MOL0     C 8066   0.080   9.172   1.556  0.3427  0.0378  0.0049
  784MOL0     C 8067  -0.032   9.244   1.494  0.7212 -0.9068  1.0092
  784MOL0     C 8068  -0.096   9.172   1.377 -0.2275  0.9820 -0.4374
  784MOL0     C 8069  -0.011   9.139   1.258 -0.5064 -0.1696 -0.2814
  784MOL0     C 8070  -0.096   9.112   1.131  0.5226 -0.4790  0.0204
  784MOL0     N 8071  -0.092   8.969   1.106  0.4084  0.3775 -0.0960
  784MOL0     C 8072   0.010   8.895   1.039  0.1999  0.2414  0.2896
  784MOL0     C 8073  -0.041   8.764   1.036  0.5018  0.1174  0.0756
  784MOL0     C 8074   0.041   8.647   0.987  0.1750 -0.0581  1.5520
  784MOL0     C 8075  -0.030   8.563   0.881 -0.0812  0.8022  0.1652
  784MOL0     C 8076  -0.147   8.492   0.943  1.1304  0.2038 -0.8076
  784MOL0     C 8077  -0.202   8.364   0.875 -0.7392  0.0050  0.4002
  784MOL0     O 8078  -0.258   8.397   0.750 -0.5091 -0.2181  0.9103
  784MOL0     C 8079  -0.338   8.315   0.687 -0.6772  0.2094  0.0399
  784MOL0     C 8080  -0.369   8.345   0.557 -0.6495 -0.1866 -0.2007
  784MOL0     C 8081  -0.458   8.264   0.488 -0.3771 -0.7094  0.4103
  784MOL0     C 8082  -0.466   8.303   0.340 -0.4821 -0.2469 -0.1225
  784MOL0     C 8083  -0.521   8.148   0.541  0.1008 -0.0686 -0.9686
  784MOL0     C 8084  -0.605   8.049   0.457 -0.5626 -0.2046  0.4630
  784MOL0     O 8085  -0.634   8.074   0.320  0.2148  0.5366 -0.6842
  784MOL0     C 8086  -0.663   7.955   0.259  0.0101  0.6758 -0.0359
  784MOL0     C 8087  -0.791   7.935   0.201  0.3029  0.7724 -0.6314
  784MOL0     C 8088  -0.815   7.822   0.124  0.0258  0.6434 -0.2567
  784MOL0     C 8089  -0.709   7.731   0.093  0.2571 -0.0792 -0.0785
  784MOL0     O 8090  -0.739   7.641  -0.005 -0.1354 -0.7108  0.4687
  784MOL0     C 8091  -0.677   7.515   0.006  0.1028 -0.7304  1.1979
  784MOL0     C 8092  -0.694   7.427  -0.125 -0.3919  0.3945 -0.6743
  784MOL0     C 8093  -0.625   7.293  -0.102 -0.1232 -0.0527 -0.2280
  784MOL0     C 8094  -0.657   7.191  -0.218  0.4665  0.2185 -0.3283
  784MOL0     C 8095  -0.801   7.144  -0.227  0.0269 -0.5225 -0.3740
  784MOL0     C 8096  -0.831   7.018  -0.314 -0.1878  0.6811  0.3938
  784MOL0     C 8097  -0.740   6.889  -0.290  0.3189 -0.5863  0.1411
  784MOL0     C 8098  -0.805   6.772  -0.362 -0.3271  0.0310  0.5629
  784MOL0    Cl 8099  -0.768   6.777  -0.533  0.0874 -0.1105  0.2232
  784MOL0     C 8100  -0.582   7.752   0.152  0.3348  0.2538 -0.4618
  784MOL0     C 8101  -0.567   7.857   0.240 -0.1779  0.4255  0.6335
  784MOL0     O 8102  -0.636   7.953   0.525  0.0529  0.4057 -0.8614
  784MOL0     C 8103  -0.481   8.114   0.679  0.8109 -0.8353  0.2850
  784MOL0     C 8104  -0.396   8.197   0.747 -0.3960  0.2799  0.9409
  784MOL0     N 8105  -0.169   8.763   1.099 -0.3123 -0.7552  0.2425
  784MOL0     N 8106  -0.192   8.878   1.145  0.4716 -0.6022  0.4039
  784MOL0     C 8107   0.528   9.405   1.615 -0.2995 -2.1533 -0.6667
  784MOL0     C 8108   0.587   9.517   1.547  0.3408 -0.6512 -0.1594
  784MOL0     C 8109   0.685   9.993   1.493 -1.2805  1.2653  0.5559
  784MOL0     C 8110   0.702   9.967   1.352  0.5107 -0.1211  0.8391
  784MOL0     C 8111   0.733  10.070   1.265  0.1280  1.4335  0.7778
  784MOL0     C 8112   0.744  10.199   1.307  0.9651  1.4457  0.4010
  784MOL0     O 8113   0.779  10.302   1.233 -0.4404 -0.2578  0.6309
  784MOL0     C 8114   0.804  10.286   1.091 -0.8852 -0.8881 -1.2251
  784MOL0     C 8115   0.668  10.294   1.017 -0.1230  0.7913  0.6080
  784MOL0     C 8116   0.680  10.346   0.871 -0.4775 -0.1161 -0.3810
  784MOL0     C 8117   0.545  10.372   0.813  0.1937 -0.0458  0.4634
  784MOL0     C 8118   0.468  10.476   0.878 -0.4693  0.4287 -0.2197
  784MOL0     C 8119   0.398  10.567   0.921 -0.2400 -0.4294 -0.3409
  784MOL0     C 8120   0.725  10.222   1.445 -0.1492  0.1321  0.7108
  784MOL0     C 8121   0.713  10.124   1.536 -0.4043 -0.9482  0.2992
  784MOL0     C 8122   0.719  10.165   1.688 -0.2985 -0.2585  0.4527
  784MOL0     H 8123   0.425   9.754   1.736 -0.6032  0.0729 -0.8957
  784MOL0     H 8124   0.335   9.583   1.838  2.6665 -2.1010  2.1819
  784MOL0     H 8125   0.440   9.147   1.738  0.2945  1.0926  0.9384
  784MOL0     H 8126   0.350   9.222   1.619  1.5218 -1.0077 -0.7156
  784MOL0     H 8127   0.218   9.051   1.772  0.0538  0.5755 -2.9920
  784MOL0     H 8128   0.214   9.185   1.878  2.6734 -1.8613  0.6729
  784MOL0     H 8129   0.007   9.224   1.761 -1.3081  1.9133 -0.3729
  784MOL0     H 8130   0.112   9.339   1.695 -1.9190 -0.7228  0.2002
  784MOL0     H 8131   0.170   9.177   1.494  1.5351  0.8212  1.7334
  784MOL0     H 8132   0.058   9.065   1.556 -4.1341  0.7423  0.2246
  784MOL0     H 8133   0.011   9.338   1.460  1.4999 -0.9151  1.9181
  784MOL0     H 8134  -0.113   9.262   1.566  0.8212 -0.1984  0.9518
  784MOL0     H 8135  -0.141   9.076   1.405 -1.8609  1.3706 -1.5196
  784MOL0     H 8136  -0.185   9.232   1.356 -0.7198  1.3385  2.3377
  784MOL0     H 8137   0.047   9.047   1.271  1.4509  1.2321  1.7656
  784MOL0     H 8138   0.051   9.225   1.231 -0.9308  0.7758  1.5651
  784MOL0     H 8139  -0.198   9.148   1.147  1.3600  2.0295  0.1703
  784MOL0     H 8140  -0.072   9.155   1.034 -0.3711 -0.9895 -0.4397
  784MOL0     H 8141   0.099   8.930   0.988  1.3237 -1.9554  0.6028
  784MOL0     H 8142   0.074   8.596   1.078 -1.6478  3.2001  4.2295
  784MOL0     H 8143   0.125   8.702   0.942 -1.7427  0.7811 -1.2633
  784MOL0     H 8144  -0.057   8.621   0.792  0.1396 -2.3934 -2.1640
  784MOL0     H 8145   0.046   8.493   0.845  1.0104  2.0307  0.0293
  784MOL0     H 8146  -0.127   8.463   1.047 -0.8211 -0.6074 -0.6164
  784MOL0     H 8147  -0.228   8.566   0.944 -0.9487 -1.9542  0.3086
  784MOL0     H 8148  -0.133   8.282   0.853  0.3151  1.1463 -0.7112
  784MOL0     H 8149  -0.281   8.319   0.937 -0.2379  0.9693  1.7864
  784MOL0     H 8150  -0.312   8.423   0.507  0.7118 -2.2235 -2.0414
  784MOL0     H 8151  -0.413   8.396   0.318 -3.0416  0.8462 -2.3249
  784MOL0     H 8152  -0.569   8.321   0.307 -0.1789 -0.3879 -1.1968
  784MOL0     H 8153  -0.417   8.223   0.284  1.6820  0.9357 -0.0282
  784MOL0     H 8154  -0.865   8.008   0.230  0.1861  0.3784  0.1020
  784MOL0     H 8155  -0.910   7.802   0.077  0.0477 -1.9459  0.6275
  784MOL0     H 8156  -0.570   7.526   0.026  0.2024 -1.8731  1.3364
  784MOL0     H 8157  -0.707   7.460   0.095 -5.9176  1.0298  0.6505
  784MOL0     H 8158  -0.802   7.417  -0.138 -1.7502  6.5631  2.3311
  784MOL0     H 8159  -0.655   7.482  -0.211 -2.6539 -0.7423 -2.5426
  784MOL0     H 8160  -0.645   7.251  -0.003  2.6058 -1.1182 -0.0505
  784MOL0     H 8161  -0.517   7.304  -0.092 -0.2480 -0.0644  1.6402
  784MOL0     H 8162  -0.613   7.094  -0.197 -2.2167 -1.0436 -0.0316
  784MOL0     H 8163  -0.620   7.219  -0.317 -2.9340  0.4398 -1.6774
  784MOL0     H 8164  -0.834   7.128  -0.124  2.3114  0.2209  0.5411
  784MOL0     H 8165  -0.853   7.232  -0.265  0.2901 -0.4718 -0.6293
  784MOL0     H 8166  -0.811   7.035  -0.420 -0.8618 -0.6576  0.0272
  784MOL0     H 8167  -0.935   6.988  -0.294  0.0735  0.7773  2.0622
  784MOL0     H 8168  -0.747   6.867  -0.183 -0.0590 -1.3899 -0.0360
  784MOL0     H 8169  -0.634   6.906  -0.309  0.7899  2.0380  3.9818
  784MOL0     H 8170  -0.914   6.770  -0.347 -0.4608  1.1040 -0.1872
  784MOL0     H 8171  -0.772   6.674  -0.325 -0.2536  0.3200  1.2918
  784MOL0     H 8172  -0.495   7.694   0.120 -0.7781 -1.6346 -0.2301
  784MOL0     H 8173  -0.464   7.880   0.266 -0.0912  2.7108 -1.2994
  784MOL0     H 8174  -0.509   8.026   0.736  3.4978  0.1897  3.5236
  784MOL0     H 8175  -0.378   8.171   0.851 -0.7389 -1.7558  0.5283
  784MOL0     H 8176   0.548   9.305   1.579  0.0563 -2.1928 -0.3688
  784MOL0     H 8177   0.645   9.498   1.458 -0.4536 -3.5267 -0.1506
  784MOL0     H 8178   0.691   9.871   1.303 -2.9629  1.4571 -1.9488
  784MOL0     H 8179   0.748  10.033   1.164 -0.0988 -1.2846  1.6700
  784MOL0     H 8180   0.858  10.377   1.063 -1.7463 -0.1143 -0.4195
  784MOL0     H 8181   0.859  10.194   1.072  1.8252 -0.2821  2.6828
  784MOL0     H 8182   0.615  10.367   1.079 -2.7680 -0.2712 -0.2607
  784MOL0     H 8183   0.609  10.202   1.021  0.1266  0.6574  1.3225
  784MOL0     H 8184   0.738  10.438   0.881 -0.6162 -0.1609  1.0123
  784MOL0     H 8185   0.735  10.274   0.810  1.8926  0.6510  0.7262
  784MOL0     H 8186   0.495  10.275   0.817 -0.7752  0.4231  0.0127
  784MOL0     H 8187   0.558  10.396   0.707  2.6419 -1.4147  0.3898
  784MOL0     H 8188   0.342  10.650   0.957  0.6289  0.8286 -1.7385
  784MOL0     H 8189   0.724  10.328   1.468  0.0159  1.1593 -3.1683
  784MOL0     H 8190   0.796  10.112   1.744  0.3636  2.3095  2.1651
  784MOL0     H 8191   0.742  10.272   1.700 -2.0771  0.4139 -1.5505
  784MOL0     H 8192   0.620  10.155   1.735 -1.8552  1.3047 -2.2298
  785MOL0     O 8193   7.311  10.084   7.020 -0.1306 -0.3442 -0.1274
  785MOL0     C 8194   7.199  10.048   7.059  0.5776 -0.1502  0.2190
  785MOL0     O 8195   7.169   9.922   7.096  0.0829 -0.2424 -0.0934
  785MOL0     C 8196   7.271   9.829   7.114 -0.0570 -0.0194  0.0466
  785MOL0     C 8197   7.278   9.713   7.030  0.0830 -0.1482  0.6008
  785MOL0     C 8198   7.388   9.630   7.029 -0.3915 -0.6914  0.3129
  785MOL0     C 8199   7.495   9.644   7.119  0.2396 -0.1819 -0.9065
  785MOL0     O 8200   7.594   9.555   7.143  0.0253  0.0265 -0.2258
  785MOL0     C 8201   7.651   9.499   7.025  0.4877  0.0207  0.9007
  785MOL0     C 8202   7.799   9.467   7.062  0.1715 -0.1655 -0.4297
  785MOL0     C 8203   7.864   9.412   6.939 -0.7065  0.0932 -0.4277
  785MOL0     C 8204   8.009   9.375   6.958 -0.4770  0.2056 -0.2521
  785MOL0     C 8205   8.108   9.487   6.964  0.1228 -0.1892  0.1482
  785MOL0     C 8206   8.157   9.518   6.822  0.4846 -0.3470  0.3985
  785MOL0     C 8207   8.268   9.612   6.812  0.4005 -0.2752  0.0455
  785MOL0     C 8208   8.381   9.558   6.904  0.1241 -0.1734  0.4079
  785MOL0     N 8209   8.499   9.633   6.894  0.4745  0.3927  0.2520
  785MOL0     C 8210   8.613   9.595   6.827  0.4348 -0.4341  0.2886
  785MOL0     C 8211   8.703   9.703   6.824 -0.5734  1.6039  0.0506
  785MOL0     C 8212   8.834   9.711   6.740  0.0505  0.4129  0.0526
  785MOL0     C 8213   8.932   9.824   6.786 -0.1317 -0.2679 -0.1072
  785MOL0     C 8214   9.047   9.839   6.694 -0.3854  0.7174  0.3753
  785MOL0     C 8215   9.099   9.708   6.643  0.7149  0.9623 -0.5797
  785MOL0     O 8216   9.226   9.750   6.586  0.4467  0.3088 -0.1951
  785MOL0     C 8217   9.312   9.660   6.546  0.8391  0.0834 -0.7947
  785MOL0     C 8218   9.300   9.524   6.561  0.3489 -0.4503 -0.2691
  785MOL0     C 8219   9.403   9.435   6.520  0.0849  0.1075  1.5063
  785MOL0     C 8220   9.372   9.285   6.538 -0.1876  0.1419  0.0341
  785MOL0     C 8221   9.508   9.486   6.442 -0.1927 -0.2621 -0.5967
  785MOL0     C 8222   9.618   9.401   6.402  0.0950  0.4665  0.4614
  785MOL0     O 8223   9.655   9.314   6.493  0.0894 -0.4283 -0.9634
  785MOL0     C 8224   9.757   9.224   6.462 -0.6735 -0.1982  0.4461
  785MOL0     C 8225   9.882   9.237   6.526  0.1006  1.0897 -1.0052
  785MOL0     C 8226   9.993   9.150   6.514  0.3646 -0.1228 -0.4090
  785MOL0     C 8227   9.972   9.036   6.422 -0.3814 -0.6914 -0.4793
  785MOL0     O 8228  10.070   8.952   6.383  0.7412  0.2053 -0.8857
  785MOL0     C 8229  10.207   8.966   6.430  0.0485  0.3785 -0.0486
  785MOL0     C 8230  10.221   8.889   6.562 -0.0793 -0.1191 -0.3593
  785MOL0     C 8231  10.362   8.871   6.609 -0.0915 -0.9280 -0.5606
  785MOL0     C 8232  10.360   8.832   6.756  0.1667 -0.6438 -0.5626
  785MOL0     C 8233  10.483   8.763   6.807 -0.7458 -0.3830 -0.4101
  785MOL0     C 8234  10.485   8.737   6.961 -0.0467  1.1472 -0.6127
  785MOL0     C 8235  10.378   8.639   7.021  0.5834  0.8474  0.1086
  785MOL0     C 8236  10.389   8.622   7.174  0.3527  0.0667  0.1752
  785MOL0    Cl 8237  10.552   8.549   7.207 -0.6878  0.3389 -0.0559
  785MOL0     C 8238   9.845   9.027   6.366 -0.8039  0.3578 -0.6629
  785MOL0     C 8239   9.733   9.118   6.378 -0.4381  0.1300 -0.0015
  785MOL0     O 8240   9.683   9.410   6.289  0.3271 -0.6380 -0.6356
  785MOL0     C 8241   9.519   9.628   6.424 -0.1545 -0.0967  0.2814
  785MOL0     C 8242   9.423   9.707   6.475  0.7403  0.1617  0.1453
  785MOL0     N 8243   8.644   9.805   6.900 -0.3102  0.0199  0.1011
  785MOL0     N 8244   8.521   9.768   6.936  0.5587  0.8910 -0.1004
  785MOL0     C 8245   7.478   9.750   7.208  0.2724  0.7132 -0.1865
  785MOL0     C 8246   7.377   9.847   7.200  0.4037  0.0557 -0.2848
  785MOL0     C 8247   7.107  10.159   7.073 -0.0148 -0.1280  0.7837
  785MOL0     C 8248   6.969  10.136   7.043  0.3199 -0.0548  0.4851
  785MOL0     C 8249   6.870  10.233   7.060  0.6132  0.6773 -0.8804
  785MOL0     C 8250   6.897  10.366   7.099 -0.5246  0.0493  0.7040
  785MOL0     O 8251   6.808  10.464   7.123  0.6236 -0.3996 -0.0217
  785MOL0     C 8252   6.667  10.445   7.106 -1.2133  0.0231 -0.1134
  785MOL0     C 8253   6.596  10.580   7.123 -0.8951  0.0987 -0.1380
  785MOL0     C 8254   6.514  10.606   7.000  0.7662  0.3059  0.2239
  785MOL0     C 8255   6.608  10.644   6.887 -0.4390 -0.1946 -0.2417
  785MOL0     C 8256   6.626  10.786   6.902  1.1085 -0.2442  0.3543
  785MOL0     C 8257   6.643  10.905   6.906 -0.5099  0.5419  0.6900
  785MOL0     C 8258   7.037  10.387   7.132  0.7137 -0.1229  0.5412
  785MOL0     C 8259   7.136  10.294   7.111 -0.9250  0.3065  0.1437
  785MOL0     C 8260   7.273  10.343   7.136 -0.8105 -0.2791 -0.5748
  785MOL0     H 8261   7.190   9.699   6.969 -0.9404 -1.8879  2.3595
  785MOL0     H 8262   7.394   9.546   6.960  3.8266 -1.1690  1.0337
  785MOL0     H 8263   7.641   9.561   6.935 -1.8335 -1.0543  0.3360
  785MOL0     H 8264   7.590   9.414   6.995  0.9837 -0.5049  1.3690
  785MOL0     H 8265   7.847   9.560   7.095  1.2417 -0.3290 -1.4563
  785MOL0     H 8266   7.799   9.398   7.147 -0.8925 -2.1290 -1.9422
  785MOL0     H 8267   7.817   9.323   6.898  0.9804  0.3752 -3.2764
  785MOL0     H 8268   7.864   9.485   6.857  0.6763  0.0210 -0.5186
  785MOL0     H 8269   8.016   9.315   7.049 -0.7443  0.9424  0.2627
  785MOL0     H 8270   8.025   9.308   6.873  0.3267  0.3798 -0.2480
  785MOL0     H 8271   8.195   9.454   7.022 -0.8811  1.9843  3.1503
  785MOL0     H 8272   8.073   9.574   7.020 -0.6733 -1.1764  1.2254
  785MOL0     H 8273   8.190   9.426   6.773  0.1106 -1.1152  1.5393
  785MOL0     H 8274   8.072   9.538   6.756  1.8395 -1.9842 -2.0035
  785MOL0     H 8275   8.222   9.704   6.850  1.6821 -0.0173  1.0567
  785MOL0     H 8276   8.304   9.618   6.709 -1.2485 -4.2005 -0.9590
  785MOL0     H 8277   8.351   9.549   7.008 -2.5035 -3.1331 -0.4330
  785MOL0     H 8278   8.415   9.458   6.875  1.6878  1.1167 -2.7628
  785MOL0     H 8279   8.622   9.506   6.766  1.6562  0.0108 -0.2155
  785MOL0     H 8280   8.810   9.717   6.634 -0.5684  0.4150  0.1908
  785MOL0     H 8281   8.890   9.617   6.733 -0.3438  0.2990 -2.8674
  785MOL0     H 8282   8.883   9.921   6.799 -0.7309 -0.2102 -2.3591
  785MOL0     H 8283   8.972   9.804   6.886  3.4903 -2.1506 -1.7406
  785MOL0     H 8284   9.006   9.899   6.612 -1.6166 -3.4283 -2.3789
  785MOL0     H 8285   9.126   9.883   6.755 -1.2780 -2.3942  4.1068
  785MOL0     H 8286   9.116   9.643   6.729 -0.6505  0.3771 -0.7435
  785MOL0     H 8287   9.027   9.659   6.577  0.5731  1.6927 -0.9876
  785MOL0     H 8288   9.218   9.485   6.621  1.9868  1.1916  3.3702
  785MOL0     H 8289   9.443   9.249   6.614  2.1413  4.3031  0.1073
  785MOL0     H 8290   9.400   9.236   6.445 -1.4535 -0.3041 -0.1323
  785MOL0     H 8291   9.265   9.268   6.557  0.2430 -3.2563  0.1264
  785MOL0     H 8292   9.895   9.320   6.595 -1.4101  1.5174 -1.1905
  785MOL0     H 8293  10.090   9.165   6.559 -0.2959  0.7156  0.7755
  785MOL0     H 8294  10.273   8.928   6.352 -1.1442 -0.3052 -0.7719
  785MOL0     H 8295  10.244   9.069   6.423  2.9093 -0.7226 -3.1695
  785MOL0     H 8296  10.166   8.933   6.645  1.4379  0.9257  0.1320
  785MOL0     H 8297  10.174   8.790   6.562  2.1171 -1.2127 -0.0689
  785MOL0     H 8298  10.411   8.969   6.607 -2.2247  0.2769 -4.7945
  785MOL0     H 8299  10.413   8.800   6.543  0.1178 -0.4747 -0.8915
  785MOL0     H 8300  10.278   8.768   6.788 -0.8086  0.7480 -0.2112
  785MOL0     H 8301  10.346   8.926   6.810  0.2415 -0.9513  0.0007
  785MOL0     H 8302  10.496   8.669   6.753 -2.8841  0.3252 -2.3375
  785MOL0     H 8303  10.566   8.832   6.789 -0.2515 -0.5015  1.2486
  785MOL0     H 8304  10.482   8.824   7.028  3.8521 -1.0359  2.8157
  785MOL0     H 8305  10.587   8.702   6.975 -0.9653 -1.4599  0.1404
  785MOL0     H 8306  10.395   8.539   6.979  1.0578 -0.0014  2.2299
  785MOL0     H 8307  10.278   8.664   6.983 -0.7714 -1.0902  2.1496
  785MOL0     H 8308  10.309   8.550   7.194 -1.0520  1.4200 -0.2971
  785MOL0     H 8309  10.362   8.716   7.224 -0.1239 -0.1559  0.3419
  785MOL0     H 8310   9.832   8.938   6.306 -1.1623 -0.8645  1.1518
  785MOL0     H 8311   9.638   9.104   6.329  1.1772 -3.4082 -2.5519
  785MOL0     H 8312   9.606   9.668   6.374  0.0888  0.5170  1.1582
  785MOL0     H 8313   9.430   9.814   6.454  1.9433 -0.2904 -2.0001
  785MOL0     H 8314   7.541   9.758   7.296 -0.2678  1.8946  0.1192
  785MOL0     H 8315   7.381   9.931   7.269  3.4504  1.5777 -2.1040
  785MOL0     H 8316   6.930  10.041   7.009 -1.6126  0.8524  0.0661
  785MOL0     H 8317   6.767  10.201   7.044  1.2519 -1.1805 -1.4720
  785MOL0     H 8318   6.642  10.385   7.018  1.0189 -3.0101  1.1685
  785MOL0     H 8319   6.640  10.378   7.188  0.6794  1.8514  2.1434
  785MOL0     H 8320   6.675  10.655   7.138  2.8087 -3.5823  0.6875
  785MOL0     H 8321   6.539  10.572   7.216  1.1713 -0.4466  1.1687
  785MOL0     H 8322   6.470  10.509   6.973  0.2849  0.1485  1.4917
  785MOL0     H 8323   6.431  10.671   7.030  0.9196  0.7369 -0.2795
  785MOL0     H 8324   6.559  10.605   6.797 -3.1049  1.4608  0.4029
  785MOL0     H 8325   6.707  10.599   6.900 -0.2683  0.3479  0.3765
  785MOL0     H 8326   6.655  11.011   6.896  0.9839  0.1636 -3.0497
  785MOL0     H 8327   7.070  10.474   7.188 -0.9571  2.0158 -1.6199
  785MOL0     H 8328   7.280  10.452   7.140  2.4652 -0.4166  2.9211
  785MOL0     H 8329   7.306  10.306   7.233 -1.6314 -0.6294 -0.4188
  785MOL0     H 8330   7.339  10.323   7.051 -0.0427  2.7294 -0.8243
  786MOL0     O 8331   7.048   1.147   3.395 -0.3830  0.1876  0.0245
  786MOL0     C 8332   7.021   1.043   3.340  0.7109  1.1124  0.8194
  786MOL0     O 8333   6.897   0.977   3.340  0.3530  0.3108 -0.1015
  786MOL0     C 8334   6.793   1.004   3.420  1.4767  0.0200 -0.1414
  786MOL0     C 8335   6.661   0.993   3.365  0.3846 -0.5089  0.1550
  786MOL0     C 8336   6.546   1.024   3.441 -1.0741  0.1299  0.1547
  786MOL0     C 8337   6.561   1.106   3.556  0.3675 -0.6228 -0.0834
  786MOL0     O 8338   6.440   1.152   3.616 -0.5008  0.4219 -0.4276
  786MOL0     C 8339   6.456   1.264   3.696 -0.1804 -0.3965  0.2196
  786MOL0     C 8340   6.319   1.328   3.722 -0.2008 -0.5186  0.3304
  786MOL0     C 8341   6.285   1.406   3.594 -0.5635 -0.5034  0.0848
  786MOL0     C 8342   6.137   1.413   3.583 -0.3654 -0.4967  0.0171
  786MOL0     C 8343   6.074   1.491   3.701  0.4595  0.4134 -0.1611
  786MOL0     C 8344   5.925   1.484   3.673 -0.4347 -0.5946  0.4623
  786MOL0     C 8345   5.853   1.572   3.776  0.9817  0.3066 -0.2669
  786MOL0     C 8346   5.817   1.493   3.899  0.3776  0.6124 -0.2126
  786MOL0     N 8347   5.716   1.568   3.994  0.5257 -0.1165 -0.7882
  786MOL0     C 8348   5.737   1.684   4.066  0.0438 -0.0356 -0.1495
  786MOL0     C 8349   5.614   1.703   4.138 -0.3970 -0.3259 -0.2540
  786MOL0     C 8350   5.567   1.838   4.205  0.8448  0.6056  0.3181
  786MOL0     C 8351   5.676   1.882   4.294 -0.6588  0.4705 -0.5239
  786MOL0     C 8352   5.707   1.789   4.413 -0.4415  0.0004 -0.2345
  786MOL0     C 8353   5.852   1.809   4.453  0.2941  0.6516 -0.8883
  786MOL0     O 8354   5.938   1.736   4.367  0.0392  0.7142 -0.1686
  786MOL0     C 8355   5.985   1.611   4.407 -0.0056 -1.1185 -0.0572
  786MOL0     C 8356   5.952   1.536   4.524  0.1406 -0.8478 -0.1310
  786MOL0     C 8357   6.027   1.417   4.551 -0.4125  0.4397  0.9463
  786MOL0     C 8358   5.997   1.349   4.676  0.1266 -0.4945 -0.4204
  786MOL0     C 8359   6.132   1.374   4.464  0.4399 -0.3246 -0.1641
  786MOL0     C 8360   6.224   1.266   4.509  0.5179  0.9267 -0.4601
  786MOL0     O 8361   6.357   1.283   4.470  0.8148  0.2845 -1.1911
  786MOL0     C 8362   6.453   1.255   4.564  0.1145 -0.1494 -0.0603
  786MOL0     C 8363   6.579   1.218   4.517 -0.8540  0.9569 -0.3819
  786MOL0     C 8364   6.693   1.198   4.605 -0.2112  0.1907  0.3251
  786MOL0     C 8365   6.664   1.189   4.739  0.6031 -0.3425 -0.4108
  786MOL0     O 8366   6.754   1.159   4.836 -0.5573  0.4849 -0.2479
  786MOL0     C 8367   6.834   1.033   4.820  0.7275  0.6961 -0.2629
  786MOL0     C 8368   6.753   0.905   4.872 -0.4756  0.2321 -0.1943
  786MOL0     C 8369   6.743   0.899   5.025 -0.7583  0.5017  0.1936
  786MOL0     C 8370   6.599   0.911   5.078  0.3224 -0.7505 -0.7214
  786MOL0     C 8371   6.579   0.892   5.234  0.3592 -0.8972  1.1860
  786MOL0     C 8372   6.437   0.879   5.280  0.0506  0.2160  0.1565
  786MOL0     C 8373   6.387   0.732   5.252 -0.2476 -0.7002  1.0077
  786MOL0     C 8374   6.278   0.692   5.341  0.4273 -0.2937  0.3868
  786MOL0    Cl 8375   6.132   0.797   5.343 -0.1845 -0.3762 -0.1809
  786MOL0     C 8376   6.530   1.216   4.787  0.4082 -0.0294  0.2056
  786MOL0     C 8377   6.425   1.247   4.705 -0.5534  0.0429 -0.6880
  786MOL0     O 8378   6.171   1.161   4.559  0.8573  0.3407  0.4921
  786MOL0     C 8379   6.165   1.453   4.354 -0.1971 -0.5166  0.3549
  786MOL0     C 8380   6.092   1.563   4.330 -0.2184 -0.5016  0.7183
  786MOL0     N 8381   5.530   1.596   4.106 -0.0604 -0.0803  0.0316
  786MOL0     N 8382   5.585   1.519   4.019 -0.1305 -0.7555 -0.7860
  786MOL0     C 8383   6.693   1.110   3.613  0.2539 -0.8597  0.0279
  786MOL0     C 8384   6.805   1.049   3.550 -0.8151 -0.8047 -0.3659
  786MOL0     C 8385   7.121   0.982   3.238  0.5860 -0.4080  0.0543
  786MOL0     C 8386   7.261   0.989   3.262 -0.7011 -0.0320 -0.2233
  786MOL0     C 8387   7.346   0.920   3.182 -0.1863  0.1753 -0.2949
  786MOL0     C 8388   7.307   0.865   3.059  0.1571 -0.0084 -0.2572
  786MOL0     O 8389   7.405   0.796   2.992  0.8622  0.4490 -0.8077
  786MOL0     C 8390   7.362   0.671   2.924  0.5998  0.6633  0.3155
  786MOL0     C 8391   7.363   0.568   3.031 -0.8151  0.2208 -0.1577
  786MOL0     C 8392   7.507   0.541   3.090  0.2089 -0.3712  0.4993
  786MOL0     C 8393   7.512   0.406   3.164  0.3776  0.5295 -0.7287
  786MOL0     C 8394   7.495   0.433   3.305  0.3369 -0.3628 -0.6357
  786MOL0     C 8395   7.500   0.438   3.431 -0.1842 -0.5217  0.8223
  786MOL0     C 8396   7.178   0.885   3.016  0.2465  0.6290  0.3657
  786MOL0     C 8397   7.079   0.937   3.103 -0.9510  0.4846  0.0905
  786MOL0     C 8398   6.939   0.943   3.047  0.0642  0.4856  0.3983
  786MOL0     H 8399   6.663   0.977   3.258  1.8837  1.7661 -0.2294
  786MOL0     H 8400   6.449   1.018   3.394  0.2945 -2.1756 -2.7315
  786MOL0     H 8401   6.515   1.337   3.639 -0.3125  1.2839  2.1265
  786MOL0     H 8402   6.500   1.227   3.789 -2.3516 -2.2946  0.5598
  786MOL0     H 8403   6.247   1.247   3.734  0.9763 -2.1609 -2.6339
  786MOL0     H 8404   6.320   1.397   3.807 -0.7436  1.0707 -0.9146
  786MOL0     H 8405   6.319   1.510   3.601  1.8221 -1.2713  0.5608
  786MOL0     H 8406   6.321   1.351   3.507  0.1264 -0.9617  0.6584
  786MOL0     H 8407   6.113   1.460   3.487 -0.2034 -1.7653 -0.6582
  786MOL0     H 8408   6.093   1.314   3.596  1.9600 -1.4992  0.8345
  786MOL0     H 8409   6.102   1.596   3.685 -4.9746  2.1403 -0.3238
  786MOL0     H 8410   6.103   1.451   3.798 -0.6669 -0.5539 -0.1984
  786MOL0     H 8411   5.917   1.536   3.577  2.9914  1.3754  1.0715
  786MOL0     H 8412   5.883   1.383   3.678 -2.4577  0.2371  1.1114
  786MOL0     H 8413   5.763   1.600   3.722  2.0366  1.5450 -1.4446
  786MOL0     H 8414   5.914   1.659   3.803 -1.2618  1.9164 -0.1544
  786MOL0     H 8415   5.783   1.390   3.887  1.6443  0.1228  0.1666
  786MOL0     H 8416   5.912   1.470   3.949  0.8088 -2.9845 -2.3067
  786MOL0     H 8417   5.819   1.756   4.059 -1.5304  1.7612 -0.9724
  786MOL0     H 8418   5.472   1.824   4.256 -0.0717 -0.4133 -1.5586
  786MOL0     H 8419   5.541   1.919   4.135 -0.3315  0.0843  0.1238
  786MOL0     H 8420   5.767   1.901   4.236  1.5442 -1.3273  2.1089
  786MOL0     H 8421   5.637   1.974   4.339 -1.3182  2.3619 -4.4598
  786MOL0     H 8422   5.640   1.819   4.494  0.5788  1.3785  0.1295
  786MOL0     H 8423   5.702   1.683   4.388 -0.0156 -0.0128 -0.2654
  786MOL0     H 8424   5.881   1.912   4.429  3.3723 -0.0933 -0.6781
  786MOL0     H 8425   5.877   1.796   4.558 -0.9353  0.1960 -0.6354
  786MOL0     H 8426   5.866   1.558   4.586 -0.6585 -3.9283  0.0018
  786MOL0     H 8427   5.928   1.406   4.739 -0.3039 -1.9195  0.4326
  786MOL0     H 8428   6.087   1.331   4.736 -0.0354 -4.3387 -1.1270
  786MOL0     H 8429   5.957   1.248   4.673 -2.0591  0.1057  3.1261
  786MOL0     H 8430   6.601   1.194   4.413  0.6306 -3.8318  0.7964
  786MOL0     H 8431   6.794   1.185   4.567 -0.1727 -0.4006  0.6254
  786MOL0     H 8432   6.871   1.018   4.719  2.5466  2.6913  0.0485
  786MOL0     H 8433   6.920   1.041   4.887  0.1965  0.5849  0.4503
  786MOL0     H 8434   6.649   0.905   4.838  0.2230 -0.8544 -2.5669
  786MOL0     H 8435   6.799   0.815   4.829 -2.1466 -1.1478  0.7597
  786MOL0     H 8436   6.802   0.981   5.069  3.5700 -0.8551 -2.4538
  786MOL0     H 8437   6.780   0.800   5.053 -1.4123  0.0406 -0.5529
  786MOL0     H 8438   6.542   0.825   5.042 -0.3844 -0.7539  0.3581
  786MOL0     H 8439   6.559   1.004   5.036 -1.0964 -1.1762 -0.3939
  786MOL0     H 8440   6.648   0.817   5.272  1.8152  1.1050  2.7065
  786MOL0     H 8441   6.623   0.984   5.274  0.8102  1.4074 -3.8349
  786MOL0     H 8442   6.372   0.948   5.225  2.2342 -0.3348 -3.4320
  786MOL0     H 8443   6.417   0.901   5.385  0.0626  1.8272 -0.1455
  786MOL0     H 8444   6.469   0.661   5.263  0.5592 -0.2947 -1.7189
  786MOL0     H 8445   6.365   0.710   5.148  2.4364 -3.4907  0.8876
  786MOL0     H 8446   6.309   0.678   5.445  1.0413 -1.9972  0.0078
  786MOL0     H 8447   6.253   0.591   5.305  2.4095 -0.5041 -0.5467
  786MOL0     H 8448   6.516   1.212   4.895  0.7541 -0.8585  0.2193
  786MOL0     H 8449   6.326   1.265   4.745 -0.0160  3.4185 -0.5867
  786MOL0     H 8450   6.250   1.418   4.296  0.3174  0.1767  0.6736
  786MOL0     H 8451   6.121   1.618   4.241 -2.9034  1.5022  0.9461
  786MOL0     H 8452   6.711   1.156   3.709 -2.3891  3.2873 -1.1991
  786MOL0     H 8453   6.891   1.052   3.615 -0.0845  2.1857 -1.2849
  786MOL0     H 8454   7.303   1.023   3.355 -2.7181 -1.8424  1.4516
  786MOL0     H 8455   7.448   0.900   3.212 -0.1534  0.3531 -0.2874
  786MOL0     H 8456   7.259   0.673   2.887  0.9010  0.8157 -0.5489
  786MOL0     H 8457   7.419   0.649   2.833 -1.3813  1.9237 -1.3203
  786MOL0     H 8458   7.316   0.479   2.990  0.9088 -0.9070  0.2241
  786MOL0     H 8459   7.295   0.595   3.113  1.0138 -0.4244  1.6451
  786MOL0     H 8460   7.578   0.547   3.008  0.1686 -0.3974  0.4624
  786MOL0     H 8461   7.521   0.622   3.163  0.3621 -2.0080  2.3704
  786MOL0     H 8462   7.614   0.368   3.150  2.0242  4.3201 -0.4222
  786MOL0     H 8463   7.435   0.339   3.125  1.0952  1.8086 -4.8527
  786MOL0     H 8464   7.527   0.434   3.534  4.1964 -0.2430 -0.0919
  786MOL0     H 8465   7.148   0.859   2.915  2.4446  0.6652 -0.3395
  786MOL0     H 8466   6.929   0.933   2.938  0.4944 -0.5216  0.4341
  786MOL0     H 8467   6.875   0.868   3.095  2.1062  0.1164  2.7652
  786MOL0     H 8468   6.893   1.036   3.081 -0.5302 -0.5303  2.5935
  787MOL0     O 8469   5.655   3.193   0.361  0.2295 -0.5290 -0.3010
  787MOL0     C 8470   5.716   3.101   0.410 -0.5185 -0.4374  0.7225
  787MOL0     O 8471   5.735   2.983   0.342 -0.5426  0.6700  0.7499
  787MOL0     C 8472   5.699   2.972   0.208  0.0332 -0.2070  0.3349
  787MOL0     C 8473   5.565   2.972   0.159  0.2923 -0.8701 -0.0238
  787MOL0     C 8474   5.541   2.984   0.022 -0.4769  0.0464 -0.1289
  787MOL0     C 8475   5.647   2.986  -0.065  0.4389 -0.4151 -0.0774
  787MOL0     O 8476   5.622   3.001  -0.200  0.8334  0.3066  0.6652
  787MOL0     C 8477   5.614   3.135  -0.242 -0.4610 -0.1609  0.1280
  787MOL0     C 8478   5.537   3.141  -0.384 -0.1677  0.3407 -0.2996
  787MOL0     C 8479   5.504   3.296  -0.419 -0.2834  0.4476 -0.1669
  787MOL0     C 8480   5.564   3.328  -0.558 -0.0072  0.2881  0.3030
  787MOL0     C 8481   5.721   3.315  -0.559  0.1498 -0.0809  0.7607
  787MOL0     C 8482   5.775   3.403  -0.673  0.1000 -1.0083  0.3108
  787MOL0     C 8483   5.923   3.427  -0.679  0.2419  0.0496 -0.2076
  787MOL0     C 8484   5.961   3.556  -0.756  0.1010 -0.1150 -0.0312
  787MOL0     N 8485   5.929   3.685  -0.691 -0.4606 -0.3965  0.4998
  787MOL0     C 8486   6.017   3.752  -0.611 -0.5454 -1.6561  0.1227
  787MOL0     C 8487   5.955   3.866  -0.582 -0.2181  0.0947  0.4445
  787MOL0     C 8488   6.023   3.970  -0.486 -0.2630  0.3354 -0.8855
  787MOL0     C 8489   6.091   3.905  -0.364  0.6638  0.3949 -0.5305
  787MOL0     C 8490   6.144   4.016  -0.273  0.5812  0.5751 -0.3118
  787MOL0     C 8491   6.221   3.948  -0.153 -0.6546  0.2052 -0.5277
  787MOL0     O 8492   6.208   4.008  -0.026 -0.0105  0.7631  0.1878
  787MOL0     C 8493   6.270   3.931   0.071 -0.0414  0.1486 -0.1979
  787MOL0     C 8494   6.356   3.995   0.148 -0.9872 -0.2853  0.5018
  787MOL0     C 8495   6.428   3.925   0.245 -0.1304  0.1280 -0.4947
  787MOL0     C 8496   6.537   3.999   0.306 -0.5528  0.4106  0.0342
  787MOL0     C 8497   6.389   3.795   0.277  0.4175  0.0028  0.2243
  787MOL0     C 8498   6.459   3.726   0.380  0.2917 -0.3893 -0.4674
  787MOL0     O 8499   6.380   3.635   0.444 -0.2176 -0.1949  0.8538
  787MOL0     C 8500   6.442   3.525   0.504  0.5964  0.0170  0.4583
  787MOL0     C 8501   6.395   3.474   0.629 -0.2297 -0.1260  0.9391
  787MOL0     C 8502   6.447   3.354   0.684  0.2204 -0.3480 -0.9695
  787MOL0     C 8503   6.562   3.287   0.617 -0.0157 -0.4749 -0.6799
  787MOL0     O 8504   6.611   3.168   0.655  0.1913 -0.2733 -0.2970
  787MOL0     C 8505   6.566   3.099   0.777 -0.4872 -0.1268  0.9910
  787MOL0     C 8506   6.678   3.000   0.806 -0.7213  0.7173 -0.1375
  787MOL0     C 8507   6.809   3.075   0.851 -0.0306 -0.0563  0.1075
  787MOL0     C 8508   6.909   2.987   0.926  1.1693  0.1040  0.6285
  787MOL0     C 8509   6.986   3.071   1.031 -0.4779  0.4507 -1.1451
  787MOL0     C 8510   7.073   2.966   1.101  0.3591 -0.2050  0.4755
  787MOL0     C 8511   7.146   3.032   1.212  0.0443 -0.1796  0.9431
  787MOL0     C 8512   7.088   2.984   1.348 -0.2860  0.7205  0.0277
  787MOL0    Cl 8513   6.904   2.955   1.345  0.2018 -0.1587  0.0880
  787MOL0     C 8514   6.602   3.341   0.493  0.2759  0.1297  0.3358
  787MOL0     C 8515   6.546   3.457   0.440 -0.3647 -0.1297  0.3450
  787MOL0     O 8516   6.576   3.740   0.403  0.3451  0.0136  0.3725
  787MOL0     C 8517   6.285   3.734   0.206  0.2707  0.0608  0.1458
  787MOL0     C 8518   6.229   3.799   0.104  0.3224  0.9578  0.9289
  787MOL0     N 8519   5.827   3.868  -0.638  0.2043 -0.1012  0.1212
  787MOL0     N 8520   5.807   3.754  -0.697  0.4717 -0.0541  0.2660
  787MOL0     C 8521   5.782   2.958  -0.026  0.0521  0.2962  0.5394
  787MOL0     C 8522   5.801   2.952   0.115 -0.4359 -1.2271 -0.4722
  787MOL0     C 8523   5.763   3.131   0.539 -0.5878 -0.9944 -0.5571
  787MOL0     C 8524   5.816   3.256   0.570  0.1756  0.7735 -1.0053
  787MOL0     C 8525   5.889   3.277   0.689  1.1321  0.6571 -0.4462
  787MOL0     C 8526   5.894   3.180   0.793 -0.6046 -0.2097  0.4176
  787MOL0     O 8527   5.951   3.194   0.919 -0.3362  0.5666 -0.3478
  787MOL0     C 8528   6.049   3.297   0.936  0.9006  0.5922 -0.6074
  787MOL0     C 8529   6.121   3.265   1.059  0.0232 -0.1290 -0.1140
  787MOL0     C 8530   6.263   3.332   1.061 -0.3196 -0.4307 -0.0340
  787MOL0     C 8531   6.266   3.487   1.077  0.9185  0.7650  0.0862
  787MOL0     C 8532   6.187   3.521   1.197  0.4867 -0.6590 -0.5797
  787MOL0     C 8533   6.116   3.543   1.297  0.2494 -0.3059 -0.3971
  787MOL0     C 8534   5.839   3.063   0.758 -0.2410 -0.7055 -0.3764
  787MOL0     C 8535   5.774   3.029   0.638 -0.1987 -0.1088 -0.2581
  787MOL0     C 8536   5.711   2.888   0.622  0.4309 -0.2807 -0.3255
  787MOL0     H 8537   5.482   2.977   0.228  0.7380  1.3541  0.4345
  787MOL0     H 8538   5.439   2.995  -0.014 -1.4572 -1.6466  1.9576
  787MOL0     H 8539   5.713   3.180  -0.257 -1.6534  2.8424  0.5592
  787MOL0     H 8540   5.556   3.199  -0.175 -1.3942  3.0094 -3.3740
  787MOL0     H 8541   5.598   3.092  -0.460  3.3282 -0.3078  2.6390
  787MOL0     H 8542   5.438   3.095  -0.375 -1.0883  2.0382 -1.3713
  787MOL0     H 8543   5.398   3.319  -0.427 -0.7164 -1.6796 -1.4345
  787MOL0     H 8544   5.537   3.357  -0.335  0.5268  0.7676 -0.7070
  787MOL0     H 8545   5.523   3.271  -0.642 -0.4996  2.2187 -0.8377
  787MOL0     H 8546   5.532   3.432  -0.573 -0.2571  0.2318  0.4353
  787MOL0     H 8547   5.742   3.209  -0.578 -0.9792  0.1468 -2.2910
  787MOL0     H 8548   5.759   3.345  -0.461  1.5428 -2.0149  0.8767
  787MOL0     H 8549   5.731   3.355  -0.761  0.1837 -2.5514  1.0730
  787MOL0     H 8550   5.727   3.501  -0.668  1.4669 -0.3739  3.8518
  787MOL0     H 8551   5.979   3.343  -0.720  0.0838 -1.8712  3.1627
  787MOL0     H 8552   5.970   3.434  -0.581  0.4828  2.2776 -0.4115
  787MOL0     H 8553   6.064   3.565  -0.791  0.8489  1.4626  2.2868
  787MOL0     H 8554   5.914   3.544  -0.854 -3.4661 -2.4426  1.7723
  787MOL0     H 8555   6.122   3.725  -0.600 -0.0277  0.0709 -0.2394
  787MOL0     H 8556   5.947   4.042  -0.454  2.5516  4.4972 -2.6702
  787MOL0     H 8557   6.085   4.034  -0.550 -1.3111  2.4142  0.0888
  787MOL0     H 8558   6.018   3.843  -0.312  2.8851 -0.2841  1.9587
  787MOL0     H 8559   6.173   3.844  -0.403  1.1564  0.8936 -0.2867
  787MOL0     H 8560   6.211   4.087  -0.322 -2.3050  3.0595 -0.9560
  787MOL0     H 8561   6.060   4.066  -0.223 -0.6189 -2.1098  0.4914
  787MOL0     H 8562   6.197   3.841  -0.155 -2.7074  0.6053  0.6002
  787MOL0     H 8563   6.327   3.952  -0.180  0.8302 -3.2371  3.6483
  787MOL0     H 8564   6.373   4.101   0.139  1.8691 -0.6502  0.7192
  787MOL0     H 8565   6.537   4.104   0.274  0.3138 -0.8393 -4.8842
  787MOL0     H 8566   6.625   3.955   0.258 -2.0553  0.7121 -3.2982
  787MOL0     H 8567   6.544   4.002   0.415  1.5762  3.2410 -0.0649
  787MOL0     H 8568   6.318   3.537   0.672 -0.2019  0.3715  0.2704
  787MOL0     H 8569   6.398   3.314   0.772  0.7644 -1.3919 -1.1229
  787MOL0     H 8570   6.558   3.157   0.868  4.4219 -0.4015  1.8485
  787MOL0     H 8571   6.477   3.038   0.757  0.5841 -1.4690  0.1610
  787MOL0     H 8572   6.660   2.934   0.891  1.9108 -1.5263 -1.1609
  787MOL0     H 8573   6.694   2.948   0.711  0.9158  3.4664 -1.5386
  787MOL0     H 8574   6.769   3.144   0.925 -3.1579  0.7731 -2.1736
  787MOL0     H 8575   6.853   3.137   0.773 -1.3652  1.3338  0.4224
  787MOL0     H 8576   6.993   2.971   0.858  0.4385 -2.1024  0.1600
  787MOL0     H 8577   6.865   2.892   0.959 -2.3595  1.8751  1.3972
  787MOL0     H 8578   7.043   3.148   0.979  2.8072 -1.3352 -0.5179
  787MOL0     H 8579   6.915   3.119   1.099  0.2482  0.0750 -0.0935
  787MOL0     H 8580   7.158   2.942   1.037 -0.6259  1.6447 -1.6969
  787MOL0     H 8581   7.013   2.878   1.123 -0.9567  0.4990 -0.1408
  787MOL0     H 8582   7.133   3.141   1.214 -3.4597 -0.4889  1.8971
  787MOL0     H 8583   7.251   3.001   1.214 -0.6358 -3.4677 -2.3822
  787MOL0     H 8584   7.116   3.059   1.423  2.8798  0.9397 -1.1994
  787MOL0     H 8585   7.144   2.893   1.370  0.3357  1.1076  0.0947
  787MOL0     H 8586   6.667   3.278   0.432 -0.3686  0.2054 -0.4511
  787MOL0     H 8587   6.593   3.479   0.345  1.7315 -0.1141  1.3210
  787MOL0     H 8588   6.244   3.635   0.226  1.3069 -0.3387  0.3584
  787MOL0     H 8589   6.141   3.757   0.056  2.3626 -0.2712 -1.9821
  787MOL0     H 8590   5.855   2.935  -0.103 -1.3413 -0.0178 -0.7337
  787MOL0     H 8591   5.904   2.938   0.149  0.3656 -1.5169 -2.8664
  787MOL0     H 8592   5.815   3.341   0.502  1.5729  1.1572 -0.5875
  787MOL0     H 8593   5.936   3.374   0.702  1.2908  0.4244  0.8848
  787MOL0     H 8594   6.106   3.306   0.843 -2.2983  4.0546 -2.5296
  787MOL0     H 8595   5.992   3.390   0.941 -0.6745 -0.2568 -1.6677
  787MOL0     H 8596   6.135   3.158   1.080 -1.8809  0.3423  5.0865
  787MOL0     H 8597   6.064   3.293   1.148  2.0724  2.4621  0.5036
  787MOL0     H 8598   6.313   3.286   1.147 -0.7834 -0.6825  0.1063
  787MOL0     H 8599   6.309   3.297   0.968 -2.5616  2.1382 -2.2715
  787MOL0     H 8600   6.229   3.542   0.990 -0.7466 -1.3117 -0.5925
  787MOL0     H 8601   6.368   3.523   1.096  1.0570  0.1749  0.4591
  787MOL0     H 8602   6.043   3.577   1.367  0.0228 -0.6214 -0.4798
  787MOL0     H 8603   5.848   2.983   0.831 -1.3988 -0.5534 -0.0428
  787MOL0     H 8604   5.618   2.897   0.565 -1.1974  1.5700  2.3885
  787MOL0     H 8605   5.791   2.822   0.587  0.1865  0.6247 -2.7999
  787MOL0     H 8606   5.685   2.858   0.724  0.3678  0.5679 -0.0831
  788MOL0     O 8607   5.684   2.934   7.178 -0.2081 -0.3084  0.2887
  788MOL0     C 8608   5.562   2.947   7.170 -0.3935 -0.6546  0.4582
  788MOL0     O 8609   5.484   3.033   7.241 -0.8314  0.3033  0.3153
  788MOL0     C 8610   5.530   3.123   7.329 -0.2164  0.3964  0.4171
  788MOL0     C 8611   5.632   3.105   7.416 -0.3149  0.2143 -0.6909
  788MOL0     C 8612   5.666   3.211   7.504  0.2245 -0.2553 -0.2731
  788MOL0     C 8613   5.603   3.334   7.499  0.5999 -0.4129  0.5981
  788MOL0     O 8614   5.643   3.440   7.582 -0.3568 -0.0656  0.6303
  788MOL0     C 8615   5.557   3.549   7.626  0.5940 -0.3924  0.9394
  788MOL0     C 8616   5.424   3.497   7.686  1.0691 -0.5423 -0.6173
  788MOL0     C 8617   5.453   3.403   7.806 -0.9203  0.0441  0.6820
  788MOL0     C 8618   5.324   3.386   7.889  0.8501  0.2403  0.3417
  788MOL0     C 8619   5.342   3.303   8.016  0.2305  0.4044 -1.0149
  788MOL0     C 8620   5.232   3.336   8.111 -0.1168  0.3127 -0.5647
  788MOL0     C 8621   5.234   3.245   8.243 -0.4002  0.2766 -0.2115
  788MOL0     C 8622   5.124   3.282   8.345  0.3641 -1.4096 -0.2099
  788MOL0     N 8623   5.124   3.414   8.411  0.0705  0.0548 -1.1620
  788MOL0     C 8624   5.185   3.435   8.527  0.4573 -0.2971 -0.1388
  788MOL0     C 8625   5.155   3.564   8.567  0.7963 -0.2733 -0.3971
  788MOL0     C 8626   5.168   3.640   8.703 -1.0901  0.0455 -0.6213
  788MOL0     C 8627   5.293   3.728   8.723 -0.7833  0.5320  0.9012
  788MOL0     C 8628   5.301   3.846   8.627  0.7986 -0.0673  0.6006
  788MOL0     C 8629   5.422   3.920   8.645 -0.2626  0.0006  0.6782
  788MOL0     O 8630   5.441   4.014   8.537  0.3530  0.4172  0.3997
  788MOL0     C 8631   5.397   4.145   8.536 -0.3881  0.2103  0.2774
  788MOL0     C 8632   5.340   4.209   8.646  0.0222  0.0423  0.2693
  788MOL0     C 8633   5.299   4.345   8.653  0.5569 -0.3972  0.3206
  788MOL0     C 8634   5.222   4.387   8.787 -0.3394 -0.2258  0.1304
  788MOL0     C 8635   5.309   4.413   8.527  0.7947 -0.0355 -0.1132
  788MOL0     C 8636   5.260   4.551   8.509 -0.3836 -0.5801 -0.6859
  788MOL0     O 8637   5.134   4.572   8.545  0.2182  0.4675  0.3086
  788MOL0     C 8638   5.077   4.690   8.575 -0.2154 -0.3243  0.1892
  788MOL0     C 8639   5.146   4.800   8.623  1.0036  0.1969 -0.9775
  788MOL0     C 8640   5.075   4.915   8.661  0.2837  1.0287 -0.4433
  788MOL0     C 8641   4.939   4.923   8.671  0.4108 -0.4199  0.3679
  788MOL0     O 8642   4.874   5.031   8.730 -0.0891  0.3522  0.5189
  788MOL0     C 8643   4.745   5.018   8.796  0.6512  0.3231 -0.1693
  788MOL0     C 8644   4.750   5.101   8.926  0.6428 -0.4910  0.3001
  788MOL0     C 8645   4.764   5.254   8.913  0.5397 -0.8377  0.2623
  788MOL0     C 8646   4.772   5.326   9.058  0.1311  0.5028 -1.6491
  788MOL0     C 8647   4.709   5.246   9.174 -0.4023  0.4114 -0.2675
  788MOL0     C 8648   4.722   5.312   9.304 -0.4800 -0.4062 -0.2815
  788MOL0     C 8649   4.874   5.339   9.343  0.1069  0.2366  1.1897
  788MOL0     C 8650   4.913   5.310   9.491  1.0367 -0.5671 -0.2670
  788MOL0    Cl 8651   5.089   5.356   9.510  0.0462  0.2128 -0.3151
  788MOL0     C 8652   4.867   4.809   8.631  0.1077  0.3434  0.4702
  788MOL0     C 8653   4.935   4.696   8.574 -0.1877  0.1676 -0.8157
  788MOL0     O 8654   5.327   4.634   8.445  0.0601 -1.1011 -0.5938
  788MOL0     C 8655   5.372   4.345   8.418 -0.4011  0.4482  0.8696
  788MOL0     C 8656   5.413   4.213   8.422 -0.0085 -0.8118  0.0060
  788MOL0     N 8657   5.079   3.612   8.464  0.4872 -0.1345 -0.1591
  788MOL0     N 8658   5.069   3.523   8.369  0.3531 -1.0057 -0.1768
  788MOL0     C 8659   5.503   3.353   7.394  0.2045  0.3472  0.2112
  788MOL0     C 8660   5.462   3.244   7.324 -0.0736 -0.5398  0.0455
  788MOL0     C 8661   5.484   2.862   7.065  0.1024 -0.4332 -1.0979
  788MOL0     C 8662   5.347   2.854   7.083  0.5526 -1.2942 -0.7237
  788MOL0     C 8663   5.266   2.782   6.999  0.2583 -0.1056 -0.4508
  788MOL0     C 8664   5.337   2.708   6.897  0.6061  0.3280 -0.4009
  788MOL0     O 8665   5.273   2.640   6.794 -0.0224 -0.8322 -0.0281
  788MOL0     C 8666   5.144   2.586   6.807  0.6962  0.8104 -0.1298
  788MOL0     C 8667   5.141   2.432   6.815  0.3440 -0.5859  0.0675
  788MOL0     C 8668   5.188   2.379   6.949 -0.3691 -1.0964 -0.9937
  788MOL0     C 8669   5.200   2.232   6.989  0.0498 -0.3203  1.1823
  788MOL0     C 8670   5.264   2.202   7.112  0.3651 -0.1110 -0.2872
  788MOL0     C 8671   5.332   2.193   7.211 -0.6369  0.2196  1.0975
  788MOL0     C 8672   5.473   2.720   6.875  0.2591 -0.2697 -0.2987
  788MOL0     C 8673   5.546   2.798   6.956  0.5597 -0.5165 -1.0773
  788MOL0     C 8674   5.697   2.807   6.922 -1.0829 -0.7350 -0.2652
  788MOL0     H 8675   5.681   3.008   7.417 -0.1997  0.2740  0.2576
  788MOL0     H 8676   5.760   3.203   7.558  0.9423  1.8723 -1.1168
  788MOL0     H 8677   5.521   3.615   7.546  2.1274  0.4805  0.9502
  788MOL0     H 8678   5.615   3.617   7.689  1.0947 -0.6576  0.7655
  788MOL0     H 8679   5.360   3.581   7.717  0.8837 -0.1193 -2.0854
  788MOL0     H 8680   5.374   3.436   7.611  1.2177 -1.1147 -0.2649
  788MOL0     H 8681   5.472   3.300   7.772  0.8121  0.6343 -0.2424
  788MOL0     H 8682   5.539   3.437   7.864  0.9036 -2.8706 -0.0682
  788MOL0     H 8683   5.277   3.479   7.922 -1.5235 -0.8133  0.1172
  788MOL0     H 8684   5.246   3.343   7.826  1.8548  1.3384 -1.7662
  788MOL0     H 8685   5.437   3.318   8.069 -1.0038 -0.9745  1.7559
  788MOL0     H 8686   5.320   3.198   7.993  1.2417 -0.3115  1.0185
  788MOL0     H 8687   5.225   3.442   8.135  1.2109  0.2172  0.3637
  788MOL0     H 8688   5.134   3.310   8.069  0.3703 -0.5318 -1.2173
  788MOL0     H 8689   5.331   3.245   8.294 -0.3104 -0.2203 -0.3770
  788MOL0     H 8690   5.203   3.142   8.224 -1.4951 -0.0445  2.8595
  788MOL0     H 8691   5.025   3.262   8.302 -2.1872  1.3835  3.6758
  788MOL0     H 8692   5.134   3.207   8.423  3.0300  0.6935  1.6848
  788MOL0     H 8693   5.218   3.352   8.588 -4.4475 -1.9313  0.7349
  788MOL0     H 8694   5.150   3.565   8.781 -2.7685  0.4438 -0.5840
  788MOL0     H 8695   5.083   3.709   8.708 -2.2528 -1.4079  1.5202
  788MOL0     H 8696   5.292   3.765   8.826 -0.6523  0.7861  0.8110
  788MOL0     H 8697   5.385   3.669   8.723  0.3268  2.0205 -2.7170
  788MOL0     H 8698   5.273   3.819   8.524  2.7163  0.1850 -0.0315
  788MOL0     H 8699   5.217   3.916   8.641  0.2833 -0.3691 -0.7598
  788MOL0     H 8700   5.437   3.951   8.749 -1.0368  2.0325  0.2315
  788MOL0     H 8701   5.503   3.849   8.625 -3.5046 -3.7766 -0.2836
  788MOL0     H 8702   5.323   4.155   8.738  0.8062  3.5998  2.7098
  788MOL0     H 8703   5.243   4.492   8.810  1.3486  0.1679 -2.6900
  788MOL0     H 8704   5.259   4.320   8.865 -1.4711  0.0254  0.9013
  788MOL0     H 8705   5.119   4.351   8.784 -0.2167 -1.2224  3.7305
  788MOL0     H 8706   5.254   4.805   8.631  0.9324 -0.3463  4.4512
  788MOL0     H 8707   5.122   5.004   8.702 -3.0957  1.1440  3.9778
  788MOL0     H 8708   4.658   5.060   8.743 -0.3246 -0.8509  0.4422
  788MOL0     H 8709   4.716   4.915   8.817  2.6383 -0.5711 -1.4674
  788MOL0     H 8710   4.656   5.091   8.980  1.9590 -2.3669  2.4136
  788MOL0     H 8711   4.831   5.063   8.989  2.4222  1.9780 -0.2962
  788MOL0     H 8712   4.670   5.286   8.868  0.4927 -0.5782  0.5421
  788MOL0     H 8713   4.849   5.284   8.850  2.2830 -1.9713  1.9343
  788MOL0     H 8714   4.735   5.429   9.055 -0.7148  0.3967  1.5580
  788MOL0     H 8715   4.881   5.328   9.070  0.0931 -0.4139 -1.0706
  788MOL0     H 8716   4.603   5.231   9.155  0.3990 -3.4361 -2.8943
  788MOL0     H 8717   4.750   5.146   9.189 -2.6498 -0.3554  1.2353
  788MOL0     H 8718   4.682   5.244   9.380 -3.0457 -0.8136 -1.8692
  788MOL0     H 8719   4.656   5.399   9.300 -2.7169 -2.0618 -1.3971
  788MOL0     H 8720   4.892   5.441   9.306  0.7399 -1.2402 -3.1959
  788MOL0     H 8721   4.939   5.273   9.285 -0.7090 -1.0386  1.6985
  788MOL0     H 8722   4.892   5.203   9.500 -2.2019  0.1580  2.8938
  788MOL0     H 8723   4.853   5.348   9.574  0.5399 -3.4206  0.8022
  788MOL0     H 8724   4.759   4.823   8.636  0.0876  0.1462  0.5868
  788MOL0     H 8725   4.868   4.617   8.543  1.3314 -0.9739 -1.3047
  788MOL0     H 8726   5.399   4.397   8.327 -1.2004  1.2928  1.1067
  788MOL0     H 8727   5.458   4.166   8.335  1.3460  0.9275 -0.2843
  788MOL0     H 8728   5.451   3.447   7.382  1.3987  1.1895  1.4237
  788MOL0     H 8729   5.393   3.260   7.241 -0.5307  2.4675  0.8733
  788MOL0     H 8730   5.299   2.905   7.166  1.5431 -0.7234 -0.4869
  788MOL0     H 8731   5.161   2.776   7.024 -0.4021  2.8958 -2.0544
  788MOL0     H 8732   5.086   2.618   6.894 -0.5804 -1.5459 -0.0325
  788MOL0     H 8733   5.089   2.612   6.717 -0.2405  3.3201  1.0690
  788MOL0     H 8734   5.196   2.387   6.732 -2.3822  0.5904 -2.5734
  788MOL0     H 8735   5.036   2.407   6.797  0.5133 -1.6390  0.4606
  788MOL0     H 8736   5.279   2.434   6.974 -2.2828  3.2977 -2.7141
  788MOL0     H 8737   5.118   2.421   7.022 -0.2356  2.5782 -2.7429
  788MOL0     H 8738   5.257   2.180   6.911 -0.0052  0.6310  0.4792
  788MOL0     H 8739   5.106   2.176   6.979  1.7976 -3.6163  1.6318
  788MOL0     H 8740   5.381   2.168   7.303 -2.1760 -3.7788  1.0315
  788MOL0     H 8741   5.518   2.674   6.787  2.9024  4.1175 -1.5432
  788MOL0     H 8742   5.715   2.728   6.849 -3.3619 -1.2562 -0.3344
  788MOL0     H 8743   5.738   2.902   6.886 -1.1484 -1.2083 -1.6369
  788MOL0     H 8744   5.761   2.786   7.008 -0.6517 -0.9063 -0.6241
  789MOL0     O 8745   8.353   8.467  10.978  0.1166  0.8395 -0.4600
  789MOL0     C 8746   8.356   8.590  10.956  0.3675  0.4520  0.3221
  789MOL0     O 8747   8.243   8.673  10.936 -0.4339  0.4169  0.6263
  789MOL0     C 8748   8.120   8.633  10.951  0.1192  0.9150 -0.1290
  789MOL0     C 8749   8.035   8.636  10.850  1.1699  0.2741  0.1637
  789MOL0     C 8750   7.898   8.581  10.857  0.5744  0.8633  0.2922
  789MOL0     C 8751   7.854   8.507  10.975 -0.1492  0.1782  0.6403
  789MOL0     O 8752   7.732   8.430  10.971 -0.7077  0.0428  0.4569
  789MOL0     C 8753   7.618   8.497  10.912 -0.3504  0.1773 -0.8088
  789MOL0     C 8754   7.490   8.423  10.955 -0.0752 -0.2276  0.1024
  789MOL0     C 8755   7.443   8.457  11.096  0.1386  0.8083 -0.5738
  789MOL0     C 8756   7.299   8.397  11.118 -0.2452 -0.3384  0.0381
  789MOL0     C 8757   7.245   8.423  11.256 -0.2030 -0.2382 -0.5187
  789MOL0     C 8758   7.178   8.560  11.263  0.1749 -0.1152  0.1479
  789MOL0     C 8759   7.174   8.598  11.418 -0.1455 -0.2585  0.1998
  789MOL0     C 8760   7.306   8.644  11.458 -0.0774 -0.0803  0.1702
  789MOL0     N 8761   7.296   8.745  11.569 -0.4431  0.3281 -0.1309
  789MOL0     C 8762   7.193   8.792  11.642  0.4485  0.1014  0.7114
  789MOL0     C 8763   7.245   8.864  11.742  0.6622 -0.3978 -0.5042
  789MOL0     C 8764   7.167   8.942  11.853 -0.6540  0.2670 -0.2437
  789MOL0     C 8765   7.141   8.856  11.979  0.3905  0.0779 -0.8949
  789MOL0     C 8766   7.042   8.914  12.092 -0.3922 -0.9950  0.1364
  789MOL0     C 8767   7.101   9.044  12.159 -0.2577 -0.1283  0.8530
  789MOL0     O 8768   6.983   9.124  12.190  0.2857  0.1723  0.0768
  789MOL0     C 8769   6.916   9.186  12.084 -0.6305 -0.2857 -0.4263
  789MOL0     C 8770   6.786   9.227  12.103  0.0027 -0.3686 -0.0005
  789MOL0     C 8771   6.710   9.288  12.005 -0.0396 -0.0043 -0.7366
  789MOL0     C 8772   6.565   9.298  12.020 -0.3331 -0.0251  0.2189
  789MOL0     C 8773   6.767   9.328  11.892 -0.8121 -0.7333  0.8104
  789MOL0     C 8774   6.699   9.405  11.778  0.5860 -0.1651  0.8628
  789MOL0     O 8775   6.776   9.402  11.663  0.0728  0.0903  0.0504
  789MOL0     C 8776   6.740   9.477  11.552 -0.3544  0.3364 -0.4985
  789MOL0     C 8777   6.796   9.434  11.436 -0.6100  0.7868  0.5765
  789MOL0     C 8778   6.786   9.516  11.321 -0.9085  0.6829  0.0586
  789MOL0     C 8779   6.708   9.633  11.307  0.3385 -0.5616 -0.2053
  789MOL0     O 8780   6.680   9.695  11.190 -0.7712 -0.5032  0.4845
  789MOL0     C 8781   6.787   9.704  11.097  0.7749 -1.6889 -0.0610
  789MOL0     C 8782   6.756   9.817  11.000 -0.7340 -0.3064 -0.2090
  789MOL0     C 8783   6.640   9.791  10.901  0.3795  0.2710  0.0574
  789MOL0     C 8784   6.664   9.674  10.802 -0.5027  0.3022  0.0761
  789MOL0     C 8785   6.784   9.692  10.706  0.6590  0.0652  0.7471
  789MOL0     C 8786   6.784   9.591  10.603 -0.8268  0.1374  0.6954
  789MOL0     C 8787   6.917   9.606  10.523  0.9318 -0.1016  0.2913
  789MOL0     C 8788   6.900   9.658  10.389  0.4672 -0.0463  0.7867
  789MOL0    Cl 8789   7.066   9.682  10.312 -0.4967  0.0510  0.3529
  789MOL0     C 8790   6.644   9.675  11.426  0.3957 -0.4856  0.1613
  789MOL0     C 8791   6.667   9.604  11.542 -0.0229  0.6542 -1.0329
  789MOL0     O 8792   6.585   9.447  11.788  0.0520 -0.3866  0.6879
  789MOL0     C 8793   6.906   9.294  11.873 -0.9454 -0.4284 -0.2514
  789MOL0     C 8794   6.977   9.231  11.974 -0.2098  0.4405  0.6452
  789MOL0     N 8795   7.382   8.856  11.738  0.0173 -0.8938  0.7237
  789MOL0     N 8796   7.417   8.788  11.631 -0.7550  1.2035 -0.4006
  789MOL0     C 8797   7.949   8.508  11.080  0.0672  0.8080  0.2330
  789MOL0     C 8798   8.072   8.564  11.067  0.8344 -0.1107 -0.4857
  789MOL0     C 8799   8.492   8.655  10.941  0.8947  0.3864  0.6050
  789MOL0     C 8800   8.496   8.778  10.876 -0.4626 -0.5402 -0.1660
  789MOL0     C 8801   8.616   8.854  10.853 -0.1666  0.1546 -0.6417
  789MOL0     C 8802   8.733   8.807  10.912 -0.6120 -0.3972 -0.6325
  789MOL0     O 8803   8.855   8.864  10.889 -0.2909 -0.1630 -0.5761
  789MOL0     C 8804   8.934   8.882  11.008  0.3711 -0.2966  0.4286
  789MOL0     C 8805   9.084   8.879  10.958 -0.2083 -0.5201  0.6926
  789MOL0     C 8806   9.151   8.741  10.956 -0.2119  0.4265  0.0003
  789MOL0     C 8807   9.184   8.703  11.111  0.0676 -0.5301  0.0815
  789MOL0     C 8808   9.273   8.594  11.113  0.8600  0.6421 -0.1643
  789MOL0     C 8809   9.342   8.498  11.110 -0.3703  0.4956 -0.7053
  789MOL0     C 8810   8.726   8.689  10.995 -0.6198  0.3816  0.0570
  789MOL0     C 8811   8.609   8.613  11.006 -0.2036 -0.4685  0.1298
  789MOL0     C 8812   8.616   8.484  11.081  0.2219  0.5762 -0.1147
  789MOL0     H 8813   8.073   8.694  10.766  0.3381 -0.3437 -0.6641
  789MOL0     H 8814   7.833   8.610  10.774  2.1362  5.6463  0.4135
  789MOL0     H 8815   7.620   8.505  10.803 -4.3073 -1.6596 -1.2121
  789MOL0     H 8816   7.618   8.600  10.947 -0.8194 -0.3054  0.7041
  789MOL0     H 8817   7.419   8.459  10.880  1.7902 -0.2155 -1.7461
  789MOL0     H 8818   7.508   8.321  10.921  0.2190 -0.2043  0.1860
  789MOL0     H 8819   7.511   8.412  11.169  1.6122  2.4235 -0.8936
  789MOL0     H 8820   7.450   8.564  11.115  0.1505  0.3355  2.6759
  789MOL0     H 8821   7.227   8.443  11.050 -2.1078  0.2152  2.2559
  789MOL0     H 8822   7.305   8.288  11.106 -2.1631 -0.5074  0.2892
  789MOL0     H 8823   7.327   8.409  11.327 -0.0444 -1.3526 -0.9015
  789MOL0     H 8824   7.170   8.347  11.280 -0.6364  0.0334 -1.0026
  789MOL0     H 8825   7.233   8.639  11.211  1.1917  1.0259  2.8027
  789MOL0     H 8826   7.084   8.543  11.209  1.6375 -3.3756 -1.6767
  789MOL0     H 8827   7.141   8.513  11.479  1.4198 -1.4218 -0.4856
  789MOL0     H 8828   7.099   8.675  11.437 -0.2593 -1.1386  4.4093
  789MOL0     H 8829   7.362   8.556  11.488 -0.5197 -1.4265 -2.6500
  789MOL0     H 8830   7.361   8.687  11.374 -0.6193  1.0022  0.3458
  789MOL0     H 8831   7.088   8.768  11.629 -0.2900  3.0375  0.5659
  789MOL0     H 8832   7.070   8.978  11.818 -0.4924  1.7576  0.7672
  789MOL0     H 8833   7.218   9.036  11.876 -1.7904  0.5588  1.3031
  789MOL0     H 8834   7.100   8.762  11.940  2.0402 -2.0811  2.1314
  789MOL0     H 8835   7.236   8.831  12.028  0.2937 -0.5501 -1.0257
  789MOL0     H 8836   6.954   8.939  12.033  0.4338  0.3719 -0.5501
  789MOL0     H 8837   7.010   8.844  12.170 -2.2352 -2.2315 -1.6120
  789MOL0     H 8838   7.147   9.016  12.254 -1.7659 -3.2990  0.7861
  789MOL0     H 8839   7.173   9.095  12.095 -2.1370 -0.1465 -1.4365
  789MOL0     H 8840   6.744   9.192  12.197 -0.5287 -0.8798 -0.4232
  789MOL0     H 8841   6.517   9.283  11.923 -0.5941  1.3364  0.1196
  789MOL0     H 8842   6.544   9.395  12.064 -1.0794 -0.1619  0.1757
  789MOL0     H 8843   6.517   9.228  12.088  0.7969 -0.3213  0.7389
  789MOL0     H 8844   6.850   9.343  11.415 -0.7203  1.0627 -1.0815
  789MOL0     H 8845   6.831   9.469  11.234 -1.2816 -3.9095  2.0251
  789MOL0     H 8846   6.884   9.727  11.140  0.0771  2.0693 -0.2117
  789MOL0     H 8847   6.782   9.608  11.044  1.0929 -1.1312 -1.1223
  789MOL0     H 8848   6.732   9.901  11.065  0.0659 -1.2712  1.4063
  789MOL0     H 8849   6.847   9.839  10.944 -1.8850  2.6931 -1.0674
  789MOL0     H 8850   6.622   9.882  10.843  2.4616 -0.0512 -1.1915
  789MOL0     H 8851   6.556   9.766  10.967  0.3454 -2.6743 -0.9315
  789MOL0     H 8852   6.565   9.659  10.758 -0.8800  2.5281  0.0243
  789MOL0     H 8853   6.672   9.576  10.849 -1.9108  0.3768  0.5257
  789MOL0     H 8854   6.783   9.791  10.661  3.6512  0.0921  0.5445
  789MOL0     H 8855   6.881   9.685  10.756  0.0697  0.2606  1.9564
  789MOL0     H 8856   6.695   9.608  10.542 -0.1096 -0.7494 -0.6343
  789MOL0     H 8857   6.780   9.490  10.643 -2.0769  1.0938  3.2413
  789MOL0     H 8858   6.952   9.505  10.499  1.1938  0.3497 -1.3894
  789MOL0     H 8859   7.000   9.665  10.563 -0.4570  1.1074  1.5238
  789MOL0     H 8860   6.852   9.755  10.400  0.0258 -0.2722  0.8733
  789MOL0     H 8861   6.854   9.590  10.316 -2.4264  0.7119  1.7921
  789MOL0     H 8862   6.576   9.759  11.413 -0.5208 -1.4725 -2.0334
  789MOL0     H 8863   6.633   9.649  11.634  1.3628 -0.3577  0.0183
  789MOL0     H 8864   6.976   9.320  11.794 -0.4587  2.7762  1.0714
  789MOL0     H 8865   7.076   9.203  11.940 -1.2207 -1.1826 -1.0857
  789MOL0     H 8866   7.945   8.446  11.169 -1.4172  1.7868  0.8811
  789MOL0     H 8867   8.134   8.527  11.148  0.4954 -1.1945 -0.7041
  789MOL0     H 8868   8.405   8.825  10.839  1.1197  3.6145  0.6734
  789MOL0     H 8869   8.610   8.954  10.811 -1.1413  0.9841  1.3307
  789MOL0     H 8870   8.908   8.976  11.059 -0.5369 -0.5861  0.5110
  789MOL0     H 8871   8.924   8.800  11.080  0.7423 -1.3206 -0.6612
  789MOL0     H 8872   9.140   8.953  11.015 -1.2153  2.1727 -1.5446
  789MOL0     H 8873   9.095   8.902  10.851 -0.0568  0.0401  0.8264
  789MOL0     H 8874   9.090   8.661  10.913  2.9190 -0.5176 -3.1229
  789MOL0     H 8875   9.245   8.737  10.900 -1.5428 -0.6328 -2.2794
  789MOL0     H 8876   9.098   8.676  11.173 -0.0076  0.3871  0.3902
  789MOL0     H 8877   9.230   8.783  11.169 -3.5386  1.8324 -0.0135
  789MOL0     H 8878   9.393   8.404  11.101 -1.7713 -0.2547 -1.2093
  789MOL0     H 8879   8.811   8.646  11.046 -0.9175 -1.3968 -0.8620
  789MOL0     H 8880   8.625   8.403  11.008 -0.1593  1.0422 -0.6960
  789MOL0     H 8881   8.689   8.494  11.162 -0.2504  0.3483  0.3461
  789MOL0     H 8882   8.522   8.479  11.135 -0.6699  2.2606 -1.3908
  790MOL0     O 8883  10.868   5.711   1.447 -0.4334  0.2180  0.2937
  790MOL0     C 8884  10.763   5.782   1.442 -0.7459  0.5151  0.1677
  790MOL0     O 8885  10.639   5.734   1.408  0.2434 -0.3380  0.6756
  790MOL0     C 8886  10.637   5.598   1.372 -0.0397 -0.7267  0.7425
  790MOL0     C 8887  10.667   5.553   1.243 -0.4361  0.4030 -0.1953
  790MOL0     C 8888  10.659   5.414   1.217 -0.2976  0.3061 -1.3025
  790MOL0     C 8889  10.601   5.323   1.304  0.3515  0.9933 -0.7814
  790MOL0     O 8890  10.595   5.193   1.254  0.6320 -0.6176 -0.4163
  790MOL0     C 8891  10.599   5.081   1.342  0.2732 -0.3152  1.2711
  790MOL0     C 8892  10.637   4.958   1.269 -1.1244  0.3503 -0.1163
  790MOL0     C 8893  10.658   4.837   1.360 -0.1254  0.0854 -0.9755
  790MOL0     C 8894  10.649   4.712   1.274  0.2843 -0.8945  0.1811
  790MOL0     C 8895  10.743   4.610   1.335  0.3564  0.0212 -0.3421
  790MOL0     C 8896  10.747   4.482   1.257 -0.4384  0.9831 -0.2686
  790MOL0     C 8897  10.764   4.354   1.356 -0.5069 -0.4864 -0.1434
  790MOL0     C 8898  10.911   4.343   1.402  0.0645  0.0307 -0.3066
  790MOL0     N 8899  10.946   4.455   1.493  0.0102 -0.7431  0.3102
  790MOL0     C 8900  10.928   4.460   1.625  0.1460  0.4458 -0.6878
  790MOL0     C 8901  10.998   4.569   1.668 -0.7625 -0.1445  0.3072
  790MOL0     C 8902  10.967   4.647   1.796 -0.6906 -0.8359  0.0139
  790MOL0     C 8903  10.859   4.755   1.765  0.3860  0.1023 -0.2550
  790MOL0     C 8904  10.910   4.868   1.669  0.3795  0.7411  0.1244
  790MOL0     C 8905  10.812   4.985   1.689 -0.0947  0.3623 -0.0083
  790MOL0     O 8906  10.679   4.941   1.684  0.4970  0.4927  0.1367
  790MOL0     C 8907  10.580   5.039   1.699 -0.0505  1.2547  0.3855
  790MOL0     C 8908  10.442   5.011   1.678 -0.2262 -0.2395  0.9841
  790MOL0     C 8909  10.337   5.103   1.706  0.3385  0.0003  0.4691
  790MOL0     C 8910  10.190   5.050   1.681 -0.4655 -0.0344  0.0288
  790MOL0     C 8911  10.379   5.230   1.741 -1.7843 -0.9162  0.2124
  790MOL0     C 8912  10.289   5.346   1.758  0.8222 -0.5026  0.5922
  790MOL0     O 8913  10.340   5.451   1.822  0.5609 -0.6901 -0.9927
  790MOL0     C 8914  10.313   5.584   1.796 -0.0860 -1.3472 -0.3146
  790MOL0     C 8915  10.335   5.677   1.896  0.0560 -0.5000  0.3346
  790MOL0     C 8916  10.330   5.809   1.876 -0.7693 -1.2378  0.5358
  790MOL0     C 8917  10.300   5.864   1.753 -0.1091  0.8379 -0.5473
  790MOL0     O 8918  10.298   6.001   1.757 -0.8857  0.1577  0.6821
  790MOL0     C 8919  10.287   6.062   1.628  0.0811 -0.6556 -0.8199
  790MOL0     C 8920  10.273   6.216   1.636 -0.0314  0.4554  0.5616
  790MOL0     C 8921  10.183   6.271   1.749  0.0682 -0.2359  0.1676
  790MOL0     C 8922  10.032   6.260   1.713  0.5246 -0.4688  0.0319
  790MOL0     C 8923   9.938   6.240   1.828  0.3584  0.2245 -0.0041
  790MOL0     C 8924   9.965   6.125   1.933 -0.1099 -0.1991 -0.6582
  790MOL0     C 8925   9.958   5.995   1.866 -0.3330  0.2814  0.2061
  790MOL0     C 8926   9.986   5.876   1.965 -0.0045 -0.0705 -0.3958
  790MOL0    Cl 8927   9.854   5.861   2.076 -0.1838  0.3248  0.1111
  790MOL0     C 8928  10.271   5.773   1.643 -0.3443 -0.0340 -1.0183
  790MOL0     C 8929  10.283   5.632   1.672  0.2577  0.2453 -0.2886
  790MOL0     O 8930  10.176   5.342   1.701  0.2549 -0.1619 -0.2400
  790MOL0     C 8931  10.521   5.258   1.771  0.7993  1.1628  0.4701
  790MOL0     C 8932  10.613   5.159   1.749  0.3798  0.4791  0.4200
  790MOL0     N 8933  11.075   4.614   1.566 -0.5493 -0.5165 -0.0965
  790MOL0     N 8934  11.049   4.541   1.466  0.1829 -0.4411  0.3219
  790MOL0     C 8935  10.566   5.371   1.433 -0.0230  0.8020  0.1277
  790MOL0     C 8936  10.596   5.503   1.468  0.6565  0.0153 -0.2808
  790MOL0     C 8937  10.776   5.931   1.463 -0.1828 -0.6673 -0.2815
  790MOL0     C 8938  10.663   6.002   1.510  0.3634 -0.3302 -0.7847
  790MOL0     C 8939  10.673   6.141   1.527 -0.0505  1.0265  0.0786
  790MOL0     C 8940  10.784   6.212   1.504 -0.3191  0.4798  1.1470
  790MOL0     O 8941  10.777   6.347   1.514  0.5347 -0.1730 -0.5194
  790MOL0     C 8942  10.894   6.424   1.505 -0.6461 -0.5796  0.2497
  790MOL0     C 8943  10.848   6.562   1.545 -0.0476 -0.6182  0.8761
  790MOL0     C 8944  10.737   6.607   1.447 -0.5912  0.7014  1.3261
  790MOL0     C 8945  10.700   6.759   1.464  0.0755  0.4087 -0.3397
  790MOL0     C 8946  10.564   6.778   1.515 -0.6397 -0.9550 -0.6842
  790MOL0     C 8947  10.399   6.832   1.602 -0.8301  0.9786  0.0327
  790MOL0     C 8948  10.895   6.142   1.461  0.8736 -0.5583 -0.1545
  790MOL0     C 8949  10.898   6.002   1.445  0.1006 -0.0056 -0.5811
  790MOL0     C 8950  11.028   5.942   1.408 -0.8408  0.4365 -0.4472
  790MOL0     H 8951  10.699   5.619   1.163  1.0787 -3.1221 -2.8150
  790MOL0     H 8952  10.704   5.374   1.127  1.1013 -0.8178 -0.1609
  790MOL0     H 8953  10.497   5.071   1.379 -0.4535  2.7357  0.3407
  790MOL0     H 8954  10.674   5.106   1.418  2.2282  3.5477 -1.5574
  790MOL0     H 8955  10.560   4.939   1.194 -0.4763 -4.2308  0.0434
  790MOL0     H 8956  10.730   4.978   1.215 -3.4990  3.1778 -3.5769
  790MOL0     H 8957  10.755   4.846   1.410  0.1705 -1.3803 -1.2242
  790MOL0     H 8958  10.577   4.851   1.432 -0.2929 -0.5678 -1.0337
  790MOL0     H 8959  10.546   4.678   1.272 -0.2648  0.6362 -3.0826
  790MOL0     H 8960  10.693   4.729   1.175  3.3993 -1.4649  1.3401
  790MOL0     H 8961  10.703   4.588   1.435  1.6089 -0.1914  0.1399
  790MOL0     H 8962  10.844   4.651   1.340  1.6570 -2.8584 -0.6713
  790MOL0     H 8963  10.646   4.476   1.216 -0.5265 -1.0655  0.1398
  790MOL0     H 8964  10.818   4.478   1.174  1.1034  0.5597  1.0220
  790MOL0     H 8965  10.731   4.269   1.295 -1.1287  1.2627 -2.4202
  790MOL0     H 8966  10.706   4.345   1.448  0.7385  1.2523  0.8754
  790MOL0     H 8967  10.925   4.255   1.465  0.5968  0.5923  0.3782
  790MOL0     H 8968  10.982   4.345   1.318 -1.8251 -0.7343 -2.0007
  790MOL0     H 8969  10.854   4.403   1.680  3.7803 -2.8626  1.2748
  790MOL0     H 8970  11.060   4.699   1.824 -1.6024  1.0639 -0.3103
  790MOL0     H 8971  10.945   4.578   1.878  4.0116 -1.5987  0.9289
  790MOL0     H 8972  10.771   4.699   1.731 -0.3004  1.0447 -0.0450
  790MOL0     H 8973  10.830   4.801   1.859 -1.0229 -1.9858  0.4065
  790MOL0     H 8974  11.014   4.899   1.686  0.4929  0.0967  0.6555
  790MOL0     H 8975  10.898   4.848   1.562  1.5993 -0.7382  0.2146
  790MOL0     H 8976  10.834   5.008   1.794  0.0762  1.3905 -0.2606
  790MOL0     H 8977  10.830   5.067   1.619  0.2722 -2.6371 -3.7136
  790MOL0     H 8978  10.414   4.908   1.660  2.3070 -0.8316  0.0310
  790MOL0     H 8979  10.174   5.067   1.574  3.9167  0.8441 -0.7129
  790MOL0     H 8980  10.114   5.100   1.742 -0.6441  1.3300 -1.2532
  790MOL0     H 8981  10.185   4.943   1.702  0.5867 -0.7104 -2.7246
  790MOL0     H 8982  10.364   5.650   1.997 -0.9757 -0.9213  0.5276
  790MOL0     H 8983  10.325   5.866   1.968 -1.8922 -0.4552  0.0112
  790MOL0     H 8984  10.367   6.043   1.556  3.1517 -0.6493  2.3721
  790MOL0     H 8985  10.189   6.039   1.583 -0.4144  0.7035 -0.4741
  790MOL0     H 8986  10.373   6.257   1.653  0.3037 -0.2057  0.2180
  790MOL0     H 8987  10.245   6.259   1.540 -1.1250  2.6648  1.7792
  790MOL0     H 8988  10.215   6.376   1.745  0.3142 -0.3045  0.3081
  790MOL0     H 8989  10.214   6.225   1.844 -5.4749 -2.7739  1.1652
  790MOL0     H 8990  10.021   6.168   1.654  3.0109  0.0546 -1.3913
  790MOL0     H 8991   9.993   6.352   1.668  0.3035  1.2898  3.5013
  790MOL0     H 8992   9.942   6.334   1.883 -0.8101  0.1116  0.3077
  790MOL0     H 8993   9.843   6.232   1.775 -0.1960  1.9539  0.6713
  790MOL0     H 8994   9.893   6.128   2.014 -0.7635  1.3000 -1.2543
  790MOL0     H 8995  10.060   6.139   1.986 -1.9603  1.9714  2.3150
  790MOL0     H 8996  10.038   5.988   1.791  1.6927 -1.4335  2.4099
  790MOL0     H 8997   9.858   5.994   1.822 -0.2590  1.9118 -0.0804
  790MOL0     H 8998  10.073   5.896   2.029 -0.8604  0.4178  0.6547
  790MOL0     H 8999   9.990   5.789   1.899  3.0361 -0.2928 -0.0820
  790MOL0     H 9000  10.243   5.807   1.543 -3.2952 -1.5776 -0.8197
  790MOL0     H 9001  10.260   5.555   1.600 -1.7392 -1.0242  1.5555
  790MOL0     H 9002  10.540   5.357   1.813  0.4996  0.9721  1.0726
  790MOL0     H 9003  10.715   5.189   1.770  0.6441  1.0512 -1.4864
  790MOL0     H 9004  10.522   5.295   1.496 -0.0931 -1.3241 -2.3450
  790MOL0     H 9005  10.570   5.538   1.567 -2.4456  1.9041 -1.6219
  790MOL0     H 9006  10.571   5.949   1.535  0.0750 -0.3756 -1.8849
  790MOL0     H 9007  10.586   6.194   1.563 -0.3677  1.3205 -1.0890
  790MOL0     H 9008  10.962   6.380   1.579 -1.1792  0.0740  1.1603
  790MOL0     H 9009  10.917   6.426   1.399 -1.8829  0.2682 -0.0243
  790MOL0     H 9010  10.932   6.631   1.532  0.2913 -1.3424 -1.2017
  790MOL0     H 9011  10.800   6.571   1.643  4.2017 -0.3200  3.1240
  790MOL0     H 9012  10.775   6.608   1.344 -2.4876  1.6635  0.5914
  790MOL0     H 9013  10.648   6.545   1.432  0.3758 -0.3097 -0.7057
  790MOL0     H 9014  10.706   6.806   1.365  1.2023  0.2345 -0.3661
  790MOL0     H 9015  10.778   6.806   1.524  2.9993 -3.9527 -0.2777
  790MOL0     H 9016  10.313   6.870   1.652 -0.2931  2.7465 -0.3039
  790MOL0     H 9017  10.976   6.205   1.426 -0.4780  2.4588  1.6721
  790MOL0     H 9018  11.097   6.024   1.390 -1.1494  0.8168  0.1014
  790MOL0     H 9019  11.069   5.883   1.491  3.1274 -0.5017 -2.8140
  790MOL0     H 9020  11.020   5.881   1.317  0.4585 -3.8117  1.9806
  791MOL0     O 9021   4.997   0.532   8.167 -0.0117 -0.1200 -1.1623
  791MOL0     C 9022   4.955   0.438   8.223  0.2761 -0.7723  0.3318
  791MOL0     O 9023   4.847   0.363   8.187 -0.1552 -0.0193 -0.3754
  791MOL0     C 9024   4.767   0.410   8.087 -0.2037 -0.0563  0.0750
  791MOL0     C 9025   4.716   0.537   8.088 -0.2376  0.1984 -1.0723
  791MOL0     C 9026   4.640   0.590   7.980  0.0885  0.0898 -0.0831
  791MOL0     C 9027   4.619   0.506   7.873  0.6484  0.5003 -0.2729
  791MOL0     O 9028   4.565   0.547   7.758 -0.0298  0.5279  0.8526
  791MOL0     C 9029   4.574   0.690   7.727 -1.2155  0.6114 -0.6986
  791MOL0     C 9030   4.599   0.721   7.575 -0.3194 -0.3174  1.0799
  791MOL0     C 9031   4.748   0.712   7.540  0.7038 -0.5273 -0.1612
  791MOL0     C 9032   4.812   0.574   7.540 -0.8094 -0.0687 -0.1082
  791MOL0     C 9033   4.776   0.510   7.407  1.1617  0.1033 -0.1735
  791MOL0     C 9034   4.808   0.362   7.393  0.2998 -0.2298  0.0454
  791MOL0     C 9035   4.751   0.266   7.506  0.2312  0.6439 -0.2572
  791MOL0     C 9036   4.718   0.122   7.460 -0.1012 -0.4324 -0.0169
  791MOL0     N 9037   4.839   0.044   7.430 -1.0377  0.3913 -0.1944
  791MOL0     C 9038   4.911  -0.025   7.524  0.8659  0.3428 -0.2368
  791MOL0     C 9039   5.013  -0.093   7.453 -0.6090 -0.4264 -0.4844
  791MOL0     C 9040   5.124  -0.182   7.516  0.1892 -0.0163 -0.1218
  791MOL0     C 9041   5.101  -0.327   7.519  0.2175 -0.1739  0.0756
  791MOL0     C 9042   5.161  -0.385   7.647  0.1440  0.4860 -0.1205
  791MOL0     C 9043   5.133  -0.532   7.641 -0.6447 -0.1935 -0.6861
  791MOL0     O 9044   5.228  -0.595   7.562  0.2492  0.2789  0.1658
  791MOL0     C 9045   5.339  -0.635   7.623 -0.4547  0.1571 -0.5057
  791MOL0     C 9046   5.428  -0.714   7.548  0.1480  1.0271 -0.0792
  791MOL0     C 9047   5.552  -0.776   7.590  0.3414  0.5404  0.3013
  791MOL0     C 9048   5.620  -0.875   7.499 -0.2249 -0.2571 -0.0445
  791MOL0     C 9049   5.597  -0.730   7.722  0.3146  0.3792  0.6974
  791MOL0     C 9050   5.733  -0.766   7.768 -0.1374 -0.7485 -0.0506
  791MOL0     O 9051   5.760  -0.740   7.899 -0.2681 -0.0158 -0.7702
  791MOL0     C 9052   5.860  -0.811   7.965 -0.3705 -0.5647 -1.0141
  791MOL0     C 9053   5.829  -0.929   8.035  0.2096 -0.4302 -0.4030
  791MOL0     C 9054   5.928  -0.998   8.103  0.1694  0.9541  0.0452
  791MOL0     C 9055   6.060  -0.942   8.129 -0.0109  0.4986 -0.4964
  791MOL0     O 9056   6.158  -1.006   8.210  0.6589  0.1847 -0.3796
  791MOL0     C 9057   6.107  -1.052   8.337  0.8072 -0.6931  0.9099
  791MOL0     C 9058   6.218  -1.137   8.391  1.1693 -1.0843  0.8237
  791MOL0     C 9059   6.164  -1.281   8.399  0.0775  0.2640 -0.3379
  791MOL0     C 9060   6.271  -1.356   8.464  0.2492 -0.1086 -0.7898
  791MOL0     C 9061   6.250  -1.507   8.459 -1.3351 -0.1560 -0.0581
  791MOL0     C 9062   6.135  -1.558   8.548 -0.0939 -0.2098 -0.2416
  791MOL0     C 9063   6.139  -1.704   8.597  0.9048  0.5857 -0.1344
  791MOL0     C 9064   6.160  -1.803   8.491  0.0529  0.8386 -0.3012
  791MOL0    Cl 9065   6.020  -1.819   8.384 -0.0978 -0.1084 -0.1540
  791MOL0     C 9066   6.088  -0.827   8.055  0.3506 -0.2365 -0.1061
  791MOL0     C 9067   5.994  -0.760   7.966  0.3660 -0.3688 -0.6150
  791MOL0     O 9068   5.808  -0.815   7.694 -0.2909  0.0071  0.3704
  791MOL0     C 9069   5.512  -0.640   7.797  0.3409  0.0410  0.7691
  791MOL0     C 9070   5.389  -0.595   7.748  0.2569 -0.2333  0.5159
  791MOL0     N 9071   4.984  -0.072   7.316  0.2348  0.8453 -0.8575
  791MOL0     N 9072   4.887   0.016   7.310 -0.4204  0.1913  0.8110
  791MOL0     C 9073   4.661   0.371   7.875 -0.1845  0.6086  0.4122
  791MOL0     C 9074   4.732   0.322   7.988  0.5241  0.9593  0.3903
  791MOL0     C 9075   5.040   0.392   8.343  0.1074 -0.7312 -0.1055
  791MOL0     C 9076   5.174   0.353   8.314 -0.0267  0.4905 -0.3640
  791MOL0     C 9077   5.257   0.303   8.415  0.8253 -0.3978 -0.9545
  791MOL0     C 9078   5.223   0.302   8.554  0.0578 -0.4530  0.1737
  791MOL0     O 9079   5.333   0.273   8.642  0.4596 -0.2255 -0.0552
  791MOL0     C 9080   5.303   0.224   8.777  0.7466 -0.2090  0.0862
  791MOL0     C 9081   5.402   0.121   8.810 -0.7705 -0.1100 -0.9544
  791MOL0     C 9082   5.540   0.183   8.824 -0.3141 -0.8167  1.0749
  791MOL0     C 9083   5.645   0.074   8.783 -0.3861 -0.1957 -0.3449
  791MOL0     C 9084   5.783   0.110   8.818  0.0157 -0.5160 -0.9279
  791MOL0     C 9085   5.892   0.158   8.816  1.1988  0.0111  0.4554
  791MOL0     C 9086   5.099   0.359   8.585 -1.2723 -0.5924  0.9231
  791MOL0     C 9087   5.003   0.394   8.483 -0.2899 -0.0654  0.8558
  791MOL0     C 9088   4.872   0.445   8.521  0.6551  0.2269 -0.4791
  791MOL0     H 9089   4.724   0.617   8.161 -4.8569 -0.4203  0.4167
  791MOL0     H 9090   4.627   0.697   7.990 -1.5197  0.0016 -0.8839
  791MOL0     H 9091   4.656   0.730   7.787 -1.7033 -1.5803  1.5817
  791MOL0     H 9092   4.483   0.738   7.762 -1.4239 -0.7760  0.7627
  791MOL0     H 9093   4.542   0.658   7.506  1.8718 -1.0293 -0.1843
  791MOL0     H 9094   4.560   0.821   7.559  0.2450 -0.2683 -0.0681
  791MOL0     H 9095   4.765   0.751   7.439  1.2553 -2.2461 -0.7584
  791MOL0     H 9096   4.791   0.782   7.613 -2.3107  3.4038 -1.7621
  791MOL0     H 9097   4.920   0.591   7.543 -0.0203 -3.7464 -2.0230
  791MOL0     H 9098   4.780   0.520   7.629 -1.6485  3.9489  2.3181
  791MOL0     H 9099   4.823   0.575   7.333 -0.1660  2.4598  0.9588
  791MOL0     H 9100   4.669   0.524   7.392  1.3983  2.2876 -0.1484
  791MOL0     H 9101   4.759   0.318   7.306 -0.3928 -0.9261  0.7659
  791MOL0     H 9102   4.915   0.346   7.377  0.8627  1.6443  1.5226
  791MOL0     H 9103   4.653   0.297   7.543 -0.9407 -1.3740 -1.4956
  791MOL0     H 9104   4.821   0.257   7.589  2.8407 -2.9634 -2.5697
  791MOL0     H 9105   4.662   0.078   7.543 -1.9774  2.2845  0.2742
  791MOL0     H 9106   4.661   0.120   7.366 -0.0301  0.0134 -0.0739
  791MOL0     H 9107   4.897  -0.032   7.631 -0.0188  0.1498 -0.3635
  791MOL0     H 9108   5.143  -0.147   7.618  0.2636  2.4072 -0.9109
  791MOL0     H 9109   5.218  -0.162   7.463 -0.2854 -0.6126 -1.2318
  791MOL0     H 9110   4.994  -0.346   7.524  0.0036  1.1543  1.0694
  791MOL0     H 9111   5.141  -0.388   7.437  1.9658  0.6628  0.2532
  791MOL0     H 9112   5.266  -0.353   7.652  0.2214  0.2038  0.0916
  791MOL0     H 9113   5.103  -0.342   7.729 -0.3720 -1.8503  0.8244
  791MOL0     H 9114   5.135  -0.580   7.739 -0.2939 -1.4048 -1.2640
  791MOL0     H 9115   5.033  -0.554   7.603 -1.0559 -2.8530  1.6544
  791MOL0     H 9116   5.385  -0.744   7.453  0.2274 -2.4766  0.8697
  791MOL0     H 9117   5.550  -0.906   7.421  0.2185 -1.0359 -0.1423
  791MOL0     H 9118   5.659  -0.960   7.557  1.5046  1.8264  2.0182
  791MOL0     H 9119   5.699  -0.820   7.448  0.9688 -1.0149  0.9201
  791MOL0     H 9120   5.728  -0.968   8.028  0.4686 -1.5817  1.6165
  791MOL0     H 9121   5.898  -1.090   8.153  1.3355  0.1798 -0.6310
  791MOL0     H 9122   6.073  -0.975   8.407 -0.6987 -3.2075  3.1298
  791MOL0     H 9123   6.016  -1.110   8.320 -0.5696  0.8112  2.7224
  791MOL0     H 9124   6.314  -1.140   8.339  1.2694 -3.8173  1.0045
  791MOL0     H 9125   6.232  -1.083   8.485  2.1034  0.1109  0.0284
  791MOL0     H 9126   6.139  -1.319   8.300  2.9397  2.8409 -2.2383
  791MOL0     H 9127   6.077  -1.290   8.464  0.1227  0.5646 -0.2334
  791MOL0     H 9128   6.298  -1.313   8.561  2.9316  1.2740 -2.0277
  791MOL0     H 9129   6.357  -1.340   8.398  1.1245 -1.1024  0.0772
  791MOL0     H 9130   6.234  -1.535   8.354 -0.1876 -0.3670 -0.1907
  791MOL0     H 9131   6.341  -1.555   8.496 -1.8687 -1.1891 -0.0435
  791MOL0     H 9132   6.036  -1.537   8.506  1.1612 -1.0730 -4.0417
  791MOL0     H 9133   6.131  -1.493   8.636 -1.3387  1.5445 -1.5148
  791MOL0     H 9134   6.050  -1.726   8.657  1.9305  1.8757  1.9890
  791MOL0     H 9135   6.228  -1.710   8.660  1.8958  1.6933 -1.3664
  791MOL0     H 9136   6.172  -1.890   8.556 -0.8602  1.7974  1.2131
  791MOL0     H 9137   6.248  -1.777   8.431 -0.1401  1.5714 -0.2745
  791MOL0     H 9138   6.190  -0.789   8.064  0.6830 -1.0973 -0.1566
  791MOL0     H 9139   6.014  -0.670   7.909  1.9754  0.6621  1.4575
  791MOL0     H 9140   5.531  -0.589   7.891 -1.3402  3.4562 -0.5474
  791MOL0     H 9141   5.341  -0.518   7.808 -0.8874  0.4215 -1.1446
  791MOL0     H 9142   4.639   0.300   7.796  0.6340  1.5885 -0.7412
  791MOL0     H 9143   4.770   0.222   8.006 -0.1166  0.7871  0.7926
  791MOL0     H 9144   5.208   0.348   8.211  2.8928 -3.5780  0.5520
  791MOL0     H 9145   5.358   0.275   8.386  0.0160 -2.2815 -2.2123
  791MOL0     H 9146   5.295   0.302   8.852 -4.5806 -1.4714  1.2599
  791MOL0     H 9147   5.201   0.186   8.788  0.7249 -0.2666 -0.2732
  791MOL0     H 9148   5.397   0.043   8.733  0.6877 -0.6175 -0.5635
  791MOL0     H 9149   5.389   0.059   8.899 -2.7228 -0.0542 -1.1496
  791MOL0     H 9150   5.556   0.264   8.752 -1.1656 -0.8570  0.8388
  791MOL0     H 9151   5.565   0.216   8.926 -0.0806 -1.3112  1.1780
  791MOL0     H 9152   5.642   0.049   8.677 -0.7804  2.0026 -0.8939
  791MOL0     H 9153   5.626  -0.015   8.844 -0.2421 -0.3101 -0.4654
  791MOL0     H 9154   5.997   0.175   8.802  0.9548 -0.0997 -2.0715
  791MOL0     H 9155   5.055   0.362   8.685 -0.2697  0.3263  1.3438
  791MOL0     H 9156   4.808   0.450   8.432  0.1573  2.5945 -0.0567
  791MOL0     H 9157   4.817   0.384   8.593 -1.1475  2.1591 -0.1073
  791MOL0     H 9158   4.862   0.542   8.569 -0.8824 -0.3657  0.4766
  792MOL0     O 9159   3.978   9.581   0.094 -0.0528 -0.0348  0.5106
  792MOL0     C 9160   3.875   9.625   0.148 -0.4126  0.4657  0.1778
  792MOL0     O 9161   3.816   9.568   0.252 -0.1324  0.3228  0.0696
  792MOL0     C 9162   3.876   9.459   0.305  0.0843  0.3430 -0.4433
  792MOL0     C 9163   3.976   9.464   0.399 -0.8688 -0.6488 -0.6027
  792MOL0     C 9164   4.052   9.356   0.437 -0.1727 -0.5214  0.3310
  792MOL0     C 9165   4.025   9.226   0.384  0.2231 -1.0446  0.6349
  792MOL0     O 9166   4.091   9.104   0.411  0.0698  0.3006 -0.3228
  792MOL0     C 9167   4.231   9.121   0.451  0.0003 -0.7680 -0.3947
  792MOL0     C 9168   4.319   9.103   0.323  0.4427  0.8086 -0.6206
  792MOL0     C 9169   4.264   8.989   0.234 -0.1819  0.1679  0.3318
  792MOL0     C 9170   4.369   8.936   0.133 -0.5331  0.3081  0.6662
  792MOL0     C 9171   4.348   8.799   0.076  0.3652  0.7235 -0.3190
  792MOL0     C 9172   4.309   8.812  -0.075  0.0633 -0.8650 -1.5287
  792MOL0     C 9173   4.296   8.680  -0.151 -0.0323  0.5073  0.8756
  792MOL0     C 9174   4.164   8.607  -0.116 -0.2238 -0.2819  0.4193
  792MOL0     N 9175   4.053   8.687  -0.149  0.1938  0.5466  0.3520
  792MOL0     C 9176   3.978   8.750  -0.051  0.4492 -0.1621  0.1414
  792MOL0     C 9177   3.879   8.801  -0.124  0.6815  0.3421 -0.5611
  792MOL0     C 9178   3.763   8.868  -0.050 -0.1260  0.3503 -0.6260
  792MOL0     C 9179   3.627   8.813  -0.088 -0.4249 -0.0409 -0.8246
  792MOL0     C 9180   3.517   8.895  -0.039 -0.4734  1.0363 -0.3427
  792MOL0     C 9181   3.387   8.843  -0.097 -0.5759 -0.8536  0.8106
  792MOL0     O 9182   3.336   8.733  -0.018  0.0475 -0.0215 -0.0369
  792MOL0     C 9183   3.252   8.759   0.090 -0.4666 -0.0424  0.4718
  792MOL0     C 9184   3.195   8.658   0.151 -0.0981  0.3113  0.7631
  792MOL0     C 9185   3.093   8.671   0.242 -0.5499 -0.3612 -0.3683
  792MOL0     C 9186   3.019   8.553   0.299  0.2583 -0.4539  0.2975
  792MOL0     C 9187   3.071   8.801   0.294 -0.0119 -1.2366 -0.1627
  792MOL0     C 9188   2.975   8.839   0.401 -0.5632 -0.3651  0.7844
  792MOL0     O 9189   2.998   8.760   0.508 -0.1233 -0.5912 -0.1624
  792MOL0     C 9190   2.931   8.782   0.621  0.5743  0.7145 -0.8288
  792MOL0     C 9191   2.889   8.906   0.686  0.1797  0.1040 -0.1779
  792MOL0     C 9192   2.813   8.909   0.806 -0.1309 -0.6033  0.5832
  792MOL0     C 9193   2.791   8.787   0.874  0.4831 -0.5310 -0.3105
  792MOL0     O 9194   2.720   8.774   0.997 -0.4582 -0.0051 -0.3849
  792MOL0     C 9195   2.654   8.894   1.040  0.0326  0.1917 -1.1089
  792MOL0     C 9196   2.575   8.829   1.161 -0.2560 -0.4385 -1.1264
  792MOL0     C 9197   2.489   8.929   1.229  0.1227 -0.2934  0.5184
  792MOL0     C 9198   2.559   9.051   1.277 -0.1090 -0.2635  0.0435
  792MOL0     C 9199   2.477   9.176   1.334  0.0947  0.8051 -0.2850
  792MOL0     C 9200   2.506   9.312   1.274 -0.4281  0.5960 -0.5965
  792MOL0     C 9201   2.455   9.429   1.355  1.0397  0.2774  1.1095
  792MOL0     C 9202   2.518   9.567   1.321  0.0570  0.3193 -0.4706
  792MOL0    Cl 9203   2.663   9.556   1.216  0.0259  0.0209  0.2745
  792MOL0     C 9204   2.831   8.670   0.811 -0.5145  0.9289 -0.4536
  792MOL0     C 9205   2.897   8.668   0.692  0.9812 -1.0859  0.3415
  792MOL0     O 9206   2.899   8.934   0.391 -0.0458 -0.4354 -0.0859
  792MOL0     C 9207   3.130   8.918   0.238 -0.2924  0.3671  0.3391
  792MOL0     C 9208   3.221   8.898   0.132 -0.9289 -0.2289 -0.5722
  792MOL0     N 9209   3.888   8.769  -0.263 -0.1441 -0.7706 -0.1343
  792MOL0     N 9210   3.996   8.698  -0.276  0.0670 -0.1791 -0.6966
  792MOL0     C 9211   3.920   9.213   0.287 -0.4969 -0.8458 -0.2272
  792MOL0     C 9212   3.847   9.329   0.255 -0.7263  0.1280 -0.1731
  792MOL0     C 9213   3.818   9.753   0.103  0.4140  0.2235 -0.4788
  792MOL0     C 9214   3.874   9.812  -0.016 -0.2558  0.1119 -0.6557
  792MOL0     C 9215   3.830   9.933  -0.056  0.7293 -0.0100 -0.4942
  792MOL0     C 9216   3.727   9.998   0.010  0.5109  0.3734 -1.6410
  792MOL0     O 9217   3.689  10.105  -0.063 -0.1944 -0.3905  0.2823
  792MOL0     C 9218   3.598  10.196  -0.001 -0.1809  0.3021  0.6763
  792MOL0     C 9219   3.587  10.322  -0.089 -0.7782  0.0561 -0.1741
  792MOL0     C 9220   3.571  10.446  -0.005  0.2918  0.5812 -0.1103
  792MOL0     C 9221   3.607  10.585  -0.080 -0.1223 -1.6732 -0.7978
  792MOL0     C 9222   3.498  10.603  -0.183 -0.7464  0.9942 -0.1380
  792MOL0     C 9223   3.419  10.645  -0.271  0.2093  0.2720  0.1074
  792MOL0     C 9224   3.665   9.947   0.126 -0.6588 -0.4720 -0.5809
  792MOL0     C 9225   3.709   9.818   0.165  0.3143  0.0322  0.2380
  792MOL0     C 9226   3.643   9.775   0.295 -0.5112 -0.1963  0.0741
  792MOL0     H 9227   4.005   9.560   0.441 -2.0339 -1.1904  1.5896
  792MOL0     H 9228   4.133   9.377   0.506  1.3480 -1.4402 -1.0927
  792MOL0     H 9229   4.246   9.037   0.520  1.1564  0.4888  0.9375
  792MOL0     H 9230   4.265   9.213   0.499 -2.9010  0.3035 -0.1574
  792MOL0     H 9231   4.333   9.203   0.280  4.1524  0.6090 -0.1713
  792MOL0     H 9232   4.413   9.061   0.358  0.2765 -0.5199 -1.6930
  792MOL0     H 9233   4.218   8.907   0.291  0.6492 -0.6697 -0.1717
  792MOL0     H 9234   4.181   9.039   0.184 -2.7061 -0.3174  3.6507
  792MOL0     H 9235   4.394   9.002   0.049  0.3808  1.8880  2.1260
  792MOL0     H 9236   4.469   8.936   0.177  0.5819  1.8902 -1.6714
  792MOL0     H 9237   4.271   8.754   0.139  0.4707 -1.1996 -1.4673
  792MOL0     H 9238   4.445   8.749   0.086 -0.1624 -0.4025 -0.6446
  792MOL0     H 9239   4.223   8.879  -0.085  2.4173  2.4908 -0.9682
  792MOL0     H 9240   4.388   8.872  -0.120  2.3242  0.6871  3.7741
  792MOL0     H 9241   4.381   8.613  -0.136 -0.8256 -1.1845 -1.5871
  792MOL0     H 9242   4.287   8.703  -0.257  1.6539 -1.3316  0.2710
  792MOL0     H 9243   4.168   8.508  -0.161  0.7250 -0.5752  1.1281
  792MOL0     H 9244   4.152   8.606  -0.008  0.4807  2.7748  0.6289
  792MOL0     H 9245   3.993   8.760   0.056 -0.1451  0.1647  0.1937
  792MOL0     H 9246   3.774   8.975  -0.069  0.4321  0.3996 -0.0378
  792MOL0     H 9247   3.773   8.840   0.055  2.0626  2.1284 -0.2910
  792MOL0     H 9248   3.632   8.830  -0.196  0.6880  1.8178 -0.5263
  792MOL0     H 9249   3.605   8.707  -0.070  2.0381 -0.5025 -0.1214
  792MOL0     H 9250   3.518   8.892   0.070 -1.5734 -0.3097 -0.3530
  792MOL0     H 9251   3.543   8.997  -0.069  0.9562  0.4084 -1.3528
  792MOL0     H 9252   3.312   8.923  -0.098  1.1514  0.8365 -0.3517
  792MOL0     H 9253   3.414   8.801  -0.195  1.6128 -2.3583  1.9880
  792MOL0     H 9254   3.233   8.561   0.120  1.3687  0.8261  0.8770
  792MOL0     H 9255   2.912   8.558   0.277  0.5581  0.0285 -1.1712
  792MOL0     H 9256   3.039   8.539   0.406  1.4459 -1.5153 -0.0475
  792MOL0     H 9257   3.055   8.465   0.246 -2.1270 -0.9186 -0.6705
  792MOL0     H 9258   2.924   8.994   0.635 -0.1302 -0.3152 -1.1293
  792MOL0     H 9259   2.777   9.008   0.834 -0.5470  0.0364 -1.9801
  792MOL0     H 9260   2.726   8.973   1.063  1.2657 -0.6564 -1.9889
  792MOL0     H 9261   2.582   8.931   0.966 -2.7673  1.7854  2.1367
  792MOL0     H 9262   2.533   8.734   1.127 -0.9509 -0.3467 -0.5547
  792MOL0     H 9263   2.647   8.796   1.237 -1.7968  0.2405  0.7042
  792MOL0     H 9264   2.455   8.876   1.319  0.0540  0.4439  0.9355
  792MOL0     H 9265   2.408   8.961   1.164  3.1126  1.5378 -2.6386
  792MOL0     H 9266   2.605   9.087   1.184 -0.3923 -3.0709 -1.2594
  792MOL0     H 9267   2.636   9.028   1.351 -1.4836  2.5526  2.6078
  792MOL0     H 9268   2.372   9.156   1.313  0.5145 -2.1236 -0.0255
  792MOL0     H 9269   2.471   9.175   1.443 -3.6836  2.9466 -0.3309
  792MOL0     H 9270   2.475   9.330   1.171 -1.4643  0.4822 -0.3106
  792MOL0     H 9271   2.616   9.307   1.275 -0.4644 -0.7794 -1.0633
  792MOL0     H 9272   2.478   9.400   1.458  1.8672 -2.4482  0.2522
  792MOL0     H 9273   2.346   9.429   1.346  1.1224 -1.7329 -1.2523
  792MOL0     H 9274   2.570   9.587   1.415 -2.3595  0.6751  0.9010
  792MOL0     H 9275   2.449   9.648   1.295  0.0315 -0.0266 -1.5317
  792MOL0     H 9276   2.813   8.571   0.851 -2.8526  0.9400 -1.3366
  792MOL0     H 9277   2.921   8.569   0.654  2.3325 -0.4469 -0.5433
  792MOL0     H 9278   3.116   9.019   0.274 -0.6610  0.7604 -0.8752
  792MOL0     H 9279   3.251   8.995   0.094 -3.2899 -0.1767 -2.5512
  792MOL0     H 9280   3.893   9.113   0.256 -2.1482 -0.7987  0.9483
  792MOL0     H 9281   3.759   9.322   0.193 -1.6861  0.6791  1.0746
  792MOL0     H 9282   3.954   9.768  -0.074 -0.1384 -1.1517  0.4147
  792MOL0     H 9283   3.875   9.978  -0.144  1.1241 -0.9146 -0.7647
  792MOL0     H 9284   3.502  10.145   0.011  1.6346 -2.9992  2.9032
  792MOL0     H 9285   3.637  10.216   0.099 -1.0682 -3.6326  1.9900
  792MOL0     H 9286   3.504  10.309  -0.160 -0.5790 -0.0956 -0.3768
  792MOL0     H 9287   3.683  10.330  -0.140 -1.0617 -0.4873 -0.8095
  792MOL0     H 9288   3.468  10.448   0.034  1.2895  1.1576  2.7137
  792MOL0     H 9289   3.635  10.436   0.082  0.7465 -1.7542 -0.6635
  792MOL0     H 9290   3.704  10.579  -0.130  0.9861 -2.0169  1.2773
  792MOL0     H 9291   3.607  10.667  -0.008  1.5958  1.5162 -4.1296
  792MOL0     H 9292   3.347  10.677  -0.344 -0.4588 -0.3718  0.4708
  792MOL0     H 9293   3.588   9.995   0.185 -0.8892 -1.2387 -0.2337
  792MOL0     H 9294   3.603   9.674   0.279  0.5735 -0.9980  2.0220
  792MOL0     H 9295   3.717   9.774   0.376  0.0958  2.0678 -0.3944
  792MOL0     H 9296   3.577   9.848   0.341  1.6476  0.3658  2.5107
  793MOL0     O 9297   7.876   7.893  10.773  0.2304  0.4271 -0.5188
  793MOL0     C 9298   7.887   7.796  10.694  0.4612  0.2251  0.0477
  793MOL0     O 9299   7.809   7.688  10.700 -0.6926  0.6403  0.3983
  793MOL0     C 9300   7.700   7.680  10.784  0.0143 -0.2985 -0.2414
  793MOL0     C 9301   7.710   7.615  10.910  0.1043 -0.4519 -0.4628
  793MOL0     C 9302   7.598   7.602  10.988 -0.3181 -0.3124 -1.3807
  793MOL0     C 9303   7.472   7.650  10.944 -0.2264 -0.1107 -0.3334
  793MOL0     O 9304   7.364   7.655  11.026 -0.4283 -0.2884 -0.1024
  793MOL0     C 9305   7.360   7.760  11.131 -0.5074 -0.1216  0.7779
  793MOL0     C 9306   7.440   7.740  11.263 -0.3606  0.0388 -0.3793
  793MOL0     C 9307   7.404   7.627  11.369  1.0478 -0.1111  0.2896
  793MOL0     C 9308   7.251   7.625  11.408 -0.1256  0.3426  0.2164
  793MOL0     C 9309   7.205   7.755  11.462  0.4359 -0.2126  0.5916
  793MOL0     C 9310   7.272   7.796  11.596  0.1783 -0.2128  0.6178
  793MOL0     C 9311   7.218   7.717  11.716  1.0884  0.4536 -0.0593
  793MOL0     C 9312   7.300   7.594  11.756 -0.5906  1.1321 -0.4535
  793MOL0     N 9313   7.437   7.625  11.792  0.0486 -0.0332 -0.8330
  793MOL0     C 9314   7.467   7.737  11.868 -0.2065 -0.1291  0.5004
  793MOL0     C 9315   7.577   7.698  11.947 -0.3558  0.2044  0.3966
  793MOL0     C 9316   7.639   7.792  12.043 -0.1879  0.0078  0.3133
  793MOL0     C 9317   7.725   7.714  12.138 -0.2383 -0.1397  0.5769
  793MOL0     C 9318   7.648   7.622  12.241 -1.3673  0.4191  0.1427
  793MOL0     C 9319   7.603   7.707  12.363  0.0856 -0.0265  0.2096
  793MOL0     O 9320   7.475   7.656  12.416 -0.3430 -0.3295  0.1157
  793MOL0     C 9321   7.354   7.675  12.343  0.0363 -0.6809  0.2506
  793MOL0     C 9322   7.321   7.793  12.272  0.2446  0.2400 -0.2615
  793MOL0     C 9323   7.199   7.805  12.202 -0.3602  0.4629 -1.0292
  793MOL0     C 9324   7.181   7.925  12.120  0.7316 -0.2643  0.9045
  793MOL0     C 9325   7.109   7.687  12.208  0.7403  1.5067  0.0375
  793MOL0     C 9326   6.976   7.686  12.143 -0.4049 -0.3602 -0.9961
  793MOL0     O 9327   6.878   7.628  12.207  0.6947 -0.1293  0.4369
  793MOL0     C 9328   6.759   7.621  12.143  0.1152 -0.0520 -0.1205
  793MOL0     C 9329   6.741   7.521  12.040 -1.3072  0.2488 -0.7462
  793MOL0     C 9330   6.621   7.490  11.988  1.1187 -0.0156  0.7164
  793MOL0     C 9331   6.503   7.568  12.018  0.1207  0.2191  0.4104
  793MOL0     O 9332   6.383   7.556  11.958 -0.0901 -0.4517  0.3873
  793MOL0     C 9333   6.356   7.439  11.873 -0.4514 -0.8637 -0.0593
  793MOL0     C 9334   6.221   7.447  11.808 -0.2969 -0.1173 -0.7363
  793MOL0     C 9335   6.204   7.582  11.726 -0.1947  0.2771 -0.2962
  793MOL0     C 9336   6.075   7.596  11.649  0.3377  0.2965 -0.1987
  793MOL0     C 9337   6.072   7.719  11.554  0.2799  0.3596 -0.1602
  793MOL0     C 9338   5.934   7.775  11.527 -0.3442  0.2860 -0.0390
  793MOL0     C 9339   5.948   7.900  11.453 -0.1773 -0.6828 -0.3393
  793MOL0     C 9340   5.812   7.966  11.431 -1.7463  0.0816  0.9665
  793MOL0    Cl 9341   5.697   7.977  11.567 -0.2949 -0.1428  0.4901
  793MOL0     C 9342   6.521   7.671  12.105  1.0741 -0.0523  0.2426
  793MOL0     C 9343   6.644   7.693  12.172 -0.2933 -0.2477 -0.9779
  793MOL0     O 9344   6.972   7.729  12.029  0.3649 -0.0235 -0.2169
  793MOL0     C 9345   7.141   7.567  12.274 -0.9038 -0.5218 -0.2840
  793MOL0     C 9346   7.261   7.571  12.344 -0.3116  0.4553 -0.1803
  793MOL0     N 9347   7.611   7.569  11.913  0.7631 -0.5252 -0.2505
  793MOL0     N 9348   7.523   7.528  11.827 -0.6606  0.3677 -0.2212
  793MOL0     C 9349   7.463   7.720  10.821 -0.7076 -0.2096  0.1888
  793MOL0     C 9350   7.578   7.724  10.734  0.0758 -0.1242 -0.9311
  793MOL0     C 9351   7.987   7.821  10.591  0.1626 -0.0940 -0.2798
  793MOL0     C 9352   8.104   7.898  10.625 -0.2572  0.7738 -0.3310
  793MOL0     C 9353   8.194   7.935  10.522 -0.2321  0.0814 -0.4117
  793MOL0     C 9354   8.182   7.891  10.385  0.8669  0.0471 -0.2992
  793MOL0     O 9355   8.256   7.940  10.279 -0.0505  0.4498 -0.0124
  793MOL0     C 9356   8.384   7.993  10.308 -0.2893 -0.7603 -0.2637
  793MOL0     C 9357   8.445   8.060  10.172 -0.0119 -0.5826  0.6659
  793MOL0     C 9358   8.576   8.135  10.192 -0.0391 -0.1440  1.2801
  793MOL0     C 9359   8.621   8.209  10.070 -0.1917 -0.2903 -0.6021
  793MOL0     C 9360   8.651   8.113   9.967 -0.9985  0.2872 -0.5731
  793MOL0     C 9361   8.679   8.031   9.884 -0.4331  0.1035 -0.0803
  793MOL0     C 9362   8.078   7.803  10.361 -0.6876  0.5294  0.0151
  793MOL0     C 9363   7.979   7.773  10.459 -0.0564  0.4701 -0.2620
  793MOL0     C 9364   7.860   7.686  10.417  0.7931 -0.5201  0.5592
  793MOL0     H 9365   7.797   7.576  10.961 -1.8044 -0.8940  2.7702
  793MOL0     H 9366   7.610   7.564  11.088  2.6300 -1.2689 -2.0027
  793MOL0     H 9367   7.258   7.777  11.165 -0.8017  1.2681 -0.6849
  793MOL0     H 9368   7.392   7.853  11.082 -1.1715  1.1460  2.6413
  793MOL0     H 9369   7.547   7.727  11.243 -0.7700  0.3719 -3.2700
  793MOL0     H 9370   7.425   7.836  11.312  3.7049  1.2262 -1.1200
  793MOL0     H 9371   7.425   7.533  11.318 -1.3925  1.0071 -3.1567
  793MOL0     H 9372   7.477   7.640  11.449  0.7672  0.8102  0.4092
  793MOL0     H 9373   7.202   7.594  11.315  1.4664 -1.0213 -0.2210
  793MOL0     H 9374   7.229   7.545  11.479  0.1174  0.4506  0.4142
  793MOL0     H 9375   7.096   7.753  11.478  0.4355 -1.0448  0.5257
  793MOL0     H 9376   7.229   7.835  11.391  4.2736 -2.1101 -0.4706
  793MOL0     H 9377   7.381   7.782  11.598 -0.0110 -1.8467  3.4207
  793MOL0     H 9378   7.255   7.904  11.609 -2.5071  0.1585 -3.7488
  793MOL0     H 9379   7.115   7.683  11.697  1.1179  0.8227 -0.9463
  793MOL0     H 9380   7.213   7.789  11.799 -0.6369  0.1469  0.1571
  793MOL0     H 9381   7.253   7.535  11.835  0.6135  0.0576 -0.5011
  793MOL0     H 9382   7.303   7.529  11.668 -0.1852  2.1876 -1.2443
  793MOL0     H 9383   7.417   7.834  11.874  1.0050  0.9341 -3.4875
  793MOL0     H 9384   7.559   7.844  12.097  1.3638  1.2684  1.4959
  793MOL0     H 9385   7.697   7.873  11.999  1.6033 -1.4741 -0.1865
  793MOL0     H 9386   7.796   7.658  12.077  0.9590  1.7178  0.1693
  793MOL0     H 9387   7.790   7.786  12.189  1.3464 -2.9983  2.8958
  793MOL0     H 9388   7.566   7.568  12.194 -0.9999 -1.1063  1.1850
  793MOL0     H 9389   7.720   7.548  12.278 -0.1040  2.1137  1.2577
  793MOL0     H 9390   7.686   7.707  12.434 -1.0168  1.9702  1.6166
  793MOL0     H 9391   7.607   7.813  12.337  1.4789  0.3220  1.6779
  793MOL0     H 9392   7.385   7.880  12.267  1.1737 -0.4917 -1.4743
  793MOL0     H 9393   7.138   8.007  12.179  1.6027 -1.0168  2.6407
  793MOL0     H 9394   7.133   7.906  12.024  0.8883  0.1666  0.7387
  793MOL0     H 9395   7.278   7.960  12.085  0.2306 -1.7419 -2.2774
  793MOL0     H 9396   6.826   7.463  12.005 -2.0031 -1.1642 -0.2045
  793MOL0     H 9397   6.623   7.409  11.916 -0.0319  0.9714 -0.4692
  793MOL0     H 9398   6.437   7.419  11.802  0.0610  1.6459 -0.2602
  793MOL0     H 9399   6.359   7.345  11.929 -0.2773 -0.4456  0.6356
  793MOL0     H 9400   6.202   7.361  11.743 -0.9495 -0.3816 -0.2097
  793MOL0     H 9401   6.142   7.446  11.884 -1.0300  3.7172 -1.2429
  793MOL0     H 9402   6.277   7.594  11.645 -3.0891  3.0016 -2.7176
  793MOL0     H 9403   6.197   7.667  11.794 -1.5307  0.3833 -0.5426
  793MOL0     H 9404   5.988   7.605  11.714  1.3687  1.2452  1.1231
  793MOL0     H 9405   6.058   7.502  11.597 -4.1006  0.7376  0.0730
  793MOL0     H 9406   6.129   7.798  11.604  0.1871  0.7309 -0.6328
  793MOL0     H 9407   6.110   7.687  11.456 -0.4097  0.1702 -0.3702
  793MOL0     H 9408   5.893   7.804  11.625  2.3354 -0.7775  1.5214
  793MOL0     H 9409   5.874   7.705  11.469  0.4846  0.5594 -1.2601
  793MOL0     H 9410   5.985   7.872  11.354 -1.5209 -0.8094 -0.8230
  793MOL0     H 9411   6.023   7.962  11.503  0.4711 -2.1183  0.5303
  793MOL0     H 9412   5.772   7.899  11.354  1.1332 -1.7421  0.9123
  793MOL0     H 9413   5.820   8.065  11.386 -1.0062  0.8866  2.7706
  793MOL0     H 9414   6.432   7.727  12.131  1.6602  0.5528  1.0247
  793MOL0     H 9415   6.649   7.760  12.257 -0.5112 -0.8711 -0.4628
  793MOL0     H 9416   7.056   7.500  12.288 -1.3344  0.3809  1.7113
  793MOL0     H 9417   7.286   7.489  12.410  2.0460  1.7996  0.7298
  793MOL0     H 9418   7.356   7.734  10.806 -1.0686 -2.3524  0.4943
  793MOL0     H 9419   7.568   7.778  10.641  0.0009 -0.4350 -1.1040
  793MOL0     H 9420   8.123   7.922  10.730  3.0242 -0.5888 -0.4831
  793MOL0     H 9421   8.283   7.986  10.558 -0.1210 -0.8673  0.7511
  793MOL0     H 9422   8.389   8.077  10.379  0.4655  1.5597 -2.8682
  793MOL0     H 9423   8.450   7.916  10.348  1.6990  1.2089  0.4472
  793MOL0     H 9424   8.367   8.116  10.118  0.8438 -1.5183 -1.6799
  793MOL0     H 9425   8.463   7.984  10.096 -0.5834  2.9386 -3.3996
  793MOL0     H 9426   8.549   8.216  10.260 -0.6836  0.2692  0.5473
  793MOL0     H 9427   8.650   8.076  10.247  1.0000  1.9142  2.1966
  793MOL0     H 9428   8.717   8.240  10.110 -0.3439 -2.7565  1.9238
  793MOL0     H 9429   8.546   8.284  10.042 -0.8067 -0.4535  0.5444
  793MOL0     H 9430   8.689   7.935   9.836  1.6693 -0.2501  0.9415
  793MOL0     H 9431   8.079   7.757  10.263 -1.5753 -1.0415  0.6890
  793MOL0     H 9432   7.862   7.588  10.465  1.4981 -0.0973  1.4282
  793MOL0     H 9433   7.771   7.744  10.439 -1.1855 -2.4225 -1.8749
  793MOL0     H 9434   7.873   7.669  10.310 -1.9781  0.1297  0.0415
  794MOL0     O 9435   2.363   3.539  11.017  0.2242  0.8619 -0.3033
  794MOL0     C 9436   2.464   3.505  11.077 -0.0597  0.5601 -0.7352
  794MOL0     O 9437   2.535   3.390  11.039  0.6219  0.3806 -0.1564
  794MOL0     C 9438   2.497   3.331  10.930  0.2629  0.3163 -0.1274
  794MOL0     C 9439   2.525   3.378  10.795 -0.2159  0.3046  0.0659
  794MOL0     C 9440   2.488   3.309  10.679 -0.2780  0.4049  0.0013
  794MOL0     C 9441   2.439   3.180  10.675  0.8396 -1.0878 -0.4490
  794MOL0     O 9442   2.423   3.118  10.554 -0.5744  0.1843 -0.9517
  794MOL0     C 9443   2.362   2.983  10.544  0.3120  0.1951  0.2710
  794MOL0     C 9444   2.410   2.917  10.411  0.4542 -0.1276 -0.1487
  794MOL0     C 9445   2.410   2.772  10.402  0.2745 -0.3411 -0.0810
  794MOL0     C 9446   2.444   2.718  10.263  0.1093 -0.3185  0.2153
  794MOL0     C 9447   2.528   2.594  10.273 -0.5062  0.5884 -0.4412
  794MOL0     C 9448   2.552   2.531  10.140 -0.2838 -0.1802  0.0558
  794MOL0     C 9449   2.622   2.390  10.153  0.5338 -0.1766 -0.6173
  794MOL0     C 9450   2.687   2.343  10.019  0.0310 -0.0139 -0.3456
  794MOL0     N 9451   2.749   2.214  10.043  0.3778  0.9239 -0.0245
  794MOL0     C 9452   2.881   2.192  10.088  0.4983  0.2716 -0.0274
  794MOL0     C 9453   2.887   2.053  10.089 -0.2743 -0.3517 -0.6984
  794MOL0     C 9454   3.018   1.975  10.115 -0.1265 -1.5406 -0.1898
  794MOL0     C 9455   3.029   1.843  10.047  0.6625  0.0463 -0.2362
  794MOL0     C 9456   3.012   1.730  10.158  0.2299  0.3566 -0.4231
  794MOL0     C 9457   2.987   1.595  10.091  0.9415 -0.6725  0.2821
  794MOL0     O 9458   2.946   1.513  10.191  0.0326  0.3349 -0.7338
  794MOL0     C 9459   2.949   1.374  10.188  0.4085 -0.3583 -0.5732
  794MOL0     C 9460   2.995   1.295  10.085 -0.8202 -0.0764  0.5411
  794MOL0     C 9461   2.979   1.161  10.078  0.2966  0.1848 -0.4648
  794MOL0     C 9462   3.016   1.089   9.951  0.1592  0.6856 -0.1840
  794MOL0     C 9463   2.922   1.088  10.189 -0.1806 -0.2192  0.8756
  794MOL0     C 9464   2.923   0.943  10.197  0.1719 -0.0775 -0.0152
  794MOL0     O 9465   2.829   0.889  10.272 -1.0292  0.8430 -0.6125
  794MOL0     C 9466   2.812   0.754  10.298 -0.1468  0.6241 -1.2950
  794MOL0     C 9467   2.899   0.645  10.278 -0.2504  0.6303 -0.1081
  794MOL0     C 9468   2.868   0.515  10.330  0.0327 -0.3244 -0.3315
  794MOL0     C 9469   2.736   0.488  10.370  0.2502  0.1757  0.6154
  794MOL0     O 9470   2.699   0.358  10.413 -0.6478  0.8647 -0.0383
  794MOL0     C 9471   2.799   0.264  10.441  0.6131  0.5428  0.2820
  794MOL0     C 9472   2.753   0.158  10.548  0.9070  0.0093  0.3459
  794MOL0     C 9473   2.717   0.216  10.677  0.0883  0.4050 -0.7350
  794MOL0     C 9474   2.648   0.118  10.770 -0.6283 -0.1144 -0.0803
  794MOL0     C 9475   2.628   0.193  10.900  0.5682  0.2289 -0.9301
  794MOL0     C 9476   2.545   0.122  11.009 -0.0339  0.4986 -0.1342
  794MOL0     C 9477   2.626   0.012  11.067 -0.3507 -0.1911  0.3291
  794MOL0     C 9478   2.754   0.066  11.143  1.1301  0.6952  0.3316
  794MOL0    Cl 9479   2.699   0.166  11.282 -0.0668 -0.3096  0.4258
  794MOL0     C 9480   2.642   0.588  10.382 -0.2340  0.6873  0.3028
  794MOL0     C 9481   2.681   0.723  10.351  0.7067 -0.4145 -0.9141
  794MOL0     O 9482   3.017   0.881  10.141  0.1858 -0.4531 -1.2213
  794MOL0     C 9483   2.868   1.166  10.296 -0.4925 -0.0184 -0.8579
  794MOL0     C 9484   2.893   1.306  10.296 -0.2105 -0.2499 -0.0860
  794MOL0     N 9485   2.759   2.003  10.090  0.4926 -0.3206 -0.0262
  794MOL0     N 9486   2.677   2.096  10.070  0.7058  0.3395 -0.3068
  794MOL0     C 9487   2.401   3.141  10.808 -0.2258  0.0743  0.6119
  794MOL0     C 9488   2.441   3.202  10.929 -0.4728 -0.0380  0.0799
  794MOL0     C 9489   2.480   3.568  11.210 -0.5794 -0.6697  0.3301
  794MOL0     C 9490   2.587   3.526  11.292  0.3955  0.1287 -0.6814
  794MOL0     C 9491   2.603   3.577  11.420 -0.1293 -0.2168  0.2333
  794MOL0     C 9492   2.523   3.672  11.474 -0.4339  0.2500 -0.5738
  794MOL0     O 9493   2.547   3.695  11.606  0.2069 -0.0735  0.4566
  794MOL0     C 9494   2.462   3.784  11.680  0.6441  0.1960 -0.2403
  794MOL0     C 9495   2.549   3.886  11.738  0.1885  0.6602 -1.2426
  794MOL0     C 9496   2.497   3.970  11.861  0.0990  0.3341 -0.5503
  794MOL0     C 9497   2.369   4.041  11.813 -0.1272 -0.0315 -0.4238
  794MOL0     C 9498   2.334   4.173  11.875  0.5509 -0.4181 -0.0433
  794MOL0     C 9499   2.288   4.275  11.924  0.0201 -0.0515  0.2443
  794MOL0     C 9500   2.410   3.716  11.400 -0.2942 -0.0612  0.4115
  794MOL0     C 9501   2.391   3.668  11.268  0.1017 -0.1992  0.7483
  794MOL0     C 9502   2.281   3.744  11.175 -0.2110 -0.7087 -0.3347
  794MOL0     H 9503   2.572   3.474  10.777  0.6659  0.2420  1.8672
  794MOL0     H 9504   2.511   3.346  10.579  4.1595  1.1039  1.0831
  794MOL0     H 9505   2.256   3.004  10.558  0.9798  3.2389  1.7040
  794MOL0     H 9506   2.390   2.932  10.637 -0.9848  0.9544  1.1134
  794MOL0     H 9507   2.347   2.948  10.327 -0.9077 -0.1677  0.8157
  794MOL0     H 9508   2.509   2.956  10.386  0.4051 -0.3174 -0.6450
  794MOL0     H 9509   2.487   2.733  10.470  0.6735 -1.2842 -1.0331
  794MOL0     H 9510   2.317   2.729  10.439  0.0161 -1.1286 -1.5415
  794MOL0     H 9511   2.350   2.685  10.220 -0.6952  0.3939  1.3640
  794MOL0     H 9512   2.493   2.794  10.201  3.0371 -2.3635 -0.2064
  794MOL0     H 9513   2.492   2.527  10.352  1.8992 -0.2950 -0.0309
  794MOL0     H 9514   2.629   2.608  10.313  1.7060 -2.1968 -4.4150
  794MOL0     H 9515   2.455   2.529  10.091  0.2674  0.1677 -1.0717
  794MOL0     H 9516   2.607   2.613  10.092 -0.2291  1.6456  2.9640
  794MOL0     H 9517   2.550   2.313  10.182  0.6815 -0.6452 -1.4561
  794MOL0     H 9518   2.703   2.382  10.226 -2.8419 -2.7551  3.2767
  794MOL0     H 9519   2.597   2.333   9.957 -1.0626 -0.3518  1.2259
  794MOL0     H 9520   2.759   2.411   9.973 -0.0757 -0.6177 -1.4578
  794MOL0     H 9521   2.970   2.254  10.080  1.2201 -0.8120 -0.7462
  794MOL0     H 9522   3.037   1.970  10.223  0.0239 -3.1819 -0.2692
  794MOL0     H 9523   3.089   2.044  10.070 -1.6496  0.2156 -0.0400
  794MOL0     H 9524   2.945   1.830   9.978 -0.2778 -2.3349  1.2213
  794MOL0     H 9525   3.124   1.838   9.993  1.2604  1.3589  0.6347
  794MOL0     H 9526   3.102   1.706  10.215  2.1124  3.1722 -1.9550
  794MOL0     H 9527   2.926   1.750  10.224  1.8241  3.1201  0.9968
  794MOL0     H 9528   2.911   1.605  10.012  1.3546 -0.5195 -0.0985
  794MOL0     H 9529   3.085   1.565  10.054  0.9094 -0.5590  0.1009
  794MOL0     H 9530   3.037   1.362  10.011 -1.2342  1.4729  1.6407
  794MOL0     H 9531   3.032   1.162   9.871  1.3817  1.1513  0.4586
  794MOL0     H 9532   2.938   1.017   9.924  0.1799 -0.0752  1.6344
  794MOL0     H 9533   3.110   1.035   9.966 -0.6334 -0.3262  1.4115
  794MOL0     H 9534   3.002   0.665  10.252 -0.7950  2.0929 -1.2889
  794MOL0     H 9535   2.943   0.437  10.330  2.9622  2.2877  0.5871
  794MOL0     H 9536   2.827   0.205  10.353  0.7034  1.4734 -0.3235
  794MOL0     H 9537   2.894   0.310  10.473  1.6006 -2.1661  1.5418
  794MOL0     H 9538   2.668   0.111  10.498  0.4165  2.2175 -1.0673
  794MOL0     H 9539   2.834   0.091  10.577 -0.5549 -0.4807  3.9015
  794MOL0     H 9540   2.652   0.303  10.662 -0.1220  0.8733  2.3202
  794MOL0     H 9541   2.809   0.254  10.721  0.8909 -0.4620 -1.6255
  794MOL0     H 9542   2.705   0.025  10.780 -2.4814 -1.5488 -2.1497
  794MOL0     H 9543   2.548   0.088  10.738 -1.2004 -1.4820  2.6517
  794MOL0     H 9544   2.720   0.223  10.949 -0.0910  0.4930  0.1846
  794MOL0     H 9545   2.556   0.273  10.879 -0.4655 -1.3162 -3.8476
  794MOL0     H 9546   2.462   0.074  10.957  1.1383 -1.2686 -0.4487
  794MOL0     H 9547   2.496   0.190  11.079 -0.3306 -0.7758  0.9318
  794MOL0     H 9548   2.651  -0.054  10.983 -0.0666 -0.1293  0.3632
  794MOL0     H 9549   2.571  -0.045  11.141 -0.1827 -0.5245  0.2000
  794MOL0     H 9550   2.831   0.119  11.085  0.8708  0.1889 -0.4758
  794MOL0     H 9551   2.802  -0.025  11.180  2.8303  0.8456 -1.3795
  794MOL0     H 9552   2.542   0.570  10.421 -0.2252 -1.1544 -0.4083
  794MOL0     H 9553   2.614   0.803  10.380 -0.3001 -1.1673 -1.1080
  794MOL0     H 9554   2.826   1.114  10.381 -4.7217 -2.0705 -3.7972
  794MOL0     H 9555   2.872   1.374  10.378 -0.0252  0.4970 -0.6513
  794MOL0     H 9556   2.344   3.049  10.819  0.7130 -0.5116  0.6576
  794MOL0     H 9557   2.419   3.160  11.027  0.8605 -1.1807 -0.0776
  794MOL0     H 9558   2.667   3.456  11.270 -0.2453 -0.0997 -2.5559
  794MOL0     H 9559   2.682   3.539  11.484 -2.3174 -0.0139  3.2775
  794MOL0     H 9560   2.393   3.840  11.615  3.4044  2.1217 -1.7207
  794MOL0     H 9561   2.403   3.731  11.755 -0.6368 -0.5246 -1.7047
  794MOL0     H 9562   2.580   3.954  11.659  1.3790 -0.0673 -1.4254
  794MOL0     H 9563   2.647   3.848  11.767  0.2052 -0.0347 -2.1560
  794MOL0     H 9564   2.473   3.904  11.945  0.9494 -1.5981 -1.7610
  794MOL0     H 9565   2.573   4.045  11.886 -1.5320  1.5892  0.9249
  794MOL0     H 9566   2.279   3.982  11.831 -0.2499  0.2695 -0.0370
  794MOL0     H 9567   2.385   4.076  11.710 -2.1097  3.8660  0.4288
  794MOL0     H 9568   2.250   4.369  11.957  0.3410  0.6293 -1.2151
  794MOL0     H 9569   2.334   3.784  11.436 -0.7014  0.4807 -1.3348
  794MOL0     H 9570   2.201   3.675  11.146 -0.1189 -0.2133 -1.8005
  794MOL0     H 9571   2.227   3.822  11.230 -1.8235 -1.1469 -1.2336
  794MOL0     H 9572   2.323   3.788  11.085  0.8963  2.5089  1.5675
  795MOL0     O 9573   9.775  10.511   7.019 -0.3396 -0.3184 -0.3745
  795MOL0     C 9574   9.701  10.471   7.108 -0.5200 -0.0247 -0.0424
  795MOL0     O 9575   9.721  10.354   7.174 -0.2669 -0.6911 -0.5476
  795MOL0     C 9576   9.798  10.251   7.139 -0.2597  0.1303  0.0905
  795MOL0     C 9577   9.854  10.189   7.253 -0.7085 -1.2787  0.5569
  795MOL0     C 9578   9.931  10.078   7.229 -1.3906 -0.6668 -1.0024
  795MOL0     C 9579   9.970  10.034   7.100 -0.2639 -0.6511  0.1662
  795MOL0     O 9580  10.057   9.927   7.073 -0.0309  1.0149  0.5953
  795MOL0     C 9581  10.118   9.860   7.185  0.5364 -0.2260 -0.1699
  795MOL0     C 9582  10.212   9.746   7.148 -0.2446 -0.0291 -0.1324
  795MOL0     C 9583  10.321   9.776   7.048 -0.8357 -0.2547 -0.1683
  795MOL0     C 9584  10.418   9.890   7.082 -0.7699  0.2422 -0.7419
  795MOL0     C 9585  10.505   9.858   7.209 -0.3937 -0.3401 -0.4270
  795MOL0     C 9586  10.618   9.758   7.192  0.2798  0.0117  0.6586
  795MOL0     C 9587  10.670   9.722   7.330  0.5596 -0.6853  0.2763
  795MOL0     C 9588  10.815   9.667   7.333  0.7809 -0.5161 -0.3817
  795MOL0     N 9589  10.872   9.622   7.463  0.3165  0.4592 -0.6949
  795MOL0     C 9590  10.785   9.603   7.567  0.1214 -0.9445 -0.2234
  795MOL0     C 9591  10.864   9.543   7.660  0.7703  0.0967  0.2249
  795MOL0     C 9592  10.836   9.489   7.795  0.2815  0.2590  0.3267
  795MOL0     C 9593  10.796   9.608   7.887 -0.6322 -0.1232  0.1988
  795MOL0     C 9594  10.928   9.684   7.932 -0.4656  0.5615  0.0070
  795MOL0     C 9595  10.918   9.831   7.940  0.4658  0.4668  0.8145
  795MOL0     O 9596  10.813   9.901   7.861  0.0367  0.5302 -1.0302
  795MOL0     C 9597  10.829   9.926   7.720  0.0499  0.4998 -0.3099
  795MOL0     C 9598  10.740  10.027   7.664 -0.1188 -0.1982  0.3763
  795MOL0     C 9599  10.745  10.075   7.531 -0.3605  0.8507 -0.0456
  795MOL0     C 9600  10.659  10.180   7.481 -0.4513  0.0309  0.0737
  795MOL0     C 9601  10.840  10.005   7.448 -0.6210 -0.3634 -0.2858
  795MOL0     C 9602  10.867  10.040   7.306  0.2169  1.2322  1.0499
  795MOL0     O 9603  10.977   9.975   7.256  0.2429 -0.5377  0.6405
  795MOL0     C 9604  11.011   9.977   7.121  0.3750  0.6164  0.6372
  795MOL0     C 9605  10.910   9.999   7.016 -0.6100 -0.0423 -0.1625
  795MOL0     C 9606  10.958   9.995   6.881  0.0248 -0.0335  0.4837
  795MOL0     C 9607  11.096   9.978   6.854  0.7104 -0.5670  0.9723
  795MOL0     O 9608  11.154   9.974   6.732 -0.5751  0.0044  0.0940
  795MOL0     C 9609  11.087  10.032   6.618  0.4011 -0.1002 -0.5382
  795MOL0     C 9610  11.003   9.925   6.542 -0.2506 -0.2708 -0.2895
  795MOL0     C 9611  10.992   9.967   6.391 -0.2707  0.0621  0.3777
  795MOL0     C 9612  10.869   9.923   6.320 -0.1605  0.3818  0.4612
  795MOL0     C 9613  10.855   9.962   6.171 -0.2717 -0.0660  0.3143
  795MOL0     C 9614  10.740   9.898   6.083 -0.9211  0.1910  0.1144
  795MOL0     C 9615  10.614   9.981   6.091  1.1785 -0.7782 -0.3021
  795MOL0     C 9616  10.487   9.890   6.088  0.1130 -1.1054 -0.0664
  795MOL0    Cl 9617  10.446   9.844   6.252  0.1490  0.5632 -0.2477
  795MOL0     C 9618  11.183   9.948   6.949 -0.2048  0.3314 -0.5211
  795MOL0     C 9619  11.144   9.951   7.085  1.4237 -0.0369  0.5823
  795MOL0     O 9620  10.813  10.131   7.260  0.2504  0.3150 -0.6643
  795MOL0     C 9621  10.926   9.909   7.502  0.0762  0.4476  0.2209
  795MOL0     C 9622  10.928   9.875   7.637 -0.5043  0.0837  0.9827
  795MOL0     N 9623  10.985   9.513   7.602 -0.5853  0.3398  0.4063
  795MOL0     N 9624  10.989   9.559   7.484  0.1148 -0.3540 -0.5718
  795MOL0     C 9625   9.920  10.106   6.986 -0.4870  0.1212 -0.2683
  795MOL0     C 9626   9.825  10.209   7.008 -0.1064  0.4045 -0.8922
  795MOL0     C 9627   9.597  10.563   7.151 -0.0794 -0.6585 -0.0368
  795MOL0     C 9628   9.580  10.675   7.069 -0.3377 -0.1375 -0.5312
  795MOL0     C 9629   9.489  10.774   7.099 -0.6972  0.0709  0.1045
  795MOL0     C 9630   9.402  10.767   7.204 -0.1394  0.6712 -0.2269
  795MOL0     O 9631   9.313  10.867   7.221 -0.4016  0.4462  0.7134
  795MOL0     C 9632   9.232  10.877   7.335  0.1356  0.4048 -0.1384
  795MOL0     C 9633   9.115  10.773   7.335 -0.1152  0.3104 -0.1565
  795MOL0     C 9634   9.084  10.716   7.474 -0.2790  0.2227  0.3803
  795MOL0     C 9635   9.035  10.812   7.585  0.0498 -0.2184 -0.1866
  795MOL0     C 9636   8.902  10.881   7.566 -0.7776 -0.1074  0.0739
  795MOL0     C 9637   8.791  10.925   7.553 -0.1895  0.3980  0.4012
  795MOL0     C 9638   9.415  10.655   7.290  0.6959  0.6430  0.3723
  795MOL0     C 9639   9.509  10.549   7.262 -0.6168 -0.6833  1.1909
  795MOL0     C 9640   9.514  10.424   7.346 -0.3312 -0.0914  0.3907
  795MOL0     H 9641   9.847  10.240   7.348 -0.5787  2.5340 -1.3004
  795MOL0     H 9642   9.978  10.030   7.314 -2.2203 -1.3442 -0.9074
  795MOL0     H 9643  10.037   9.821   7.248 -1.1229  0.3331 -1.8665
  795MOL0     H 9644  10.172   9.934   7.245  0.2442  0.2240 -0.4511
  795MOL0     H 9645  10.258   9.715   7.243 -0.6400  1.0305  0.4153
  795MOL0     H 9646  10.158   9.660   7.107  0.5797 -0.7701  0.2875
  795MOL0     H 9647  10.378   9.685   7.029  0.5145  0.5961 -0.3510
  795MOL0     H 9648  10.279   9.784   6.948 -0.6011 -0.4157 -0.2808
  795MOL0     H 9649  10.480   9.888   6.993 -0.6631 -3.8875 -0.8015
  795MOL0     H 9650  10.362   9.980   7.107  1.4753  0.8385  2.8746
  795MOL0     H 9651  10.443   9.826   7.293  1.9380  0.4893  1.7288
  795MOL0     H 9652  10.554   9.949   7.245 -3.7915  1.8280 -0.7666
  795MOL0     H 9653  10.565   9.672   7.148 -1.4687  0.4251  1.8750
  795MOL0     H 9654  10.689   9.804   7.122 -1.0387  4.7504  2.0888
  795MOL0     H 9655  10.597   9.654   7.374  1.3175 -3.2196 -2.0589
  795MOL0     H 9656  10.668   9.814   7.388  2.1677 -1.2104  1.2159
  795MOL0     H 9657  10.817   9.579   7.267 -1.0226  0.5939 -2.0255
  795MOL0     H 9658  10.884   9.740   7.288 -3.4881  3.1920 -1.5805
  795MOL0     H 9659  10.685   9.635   7.592  0.9954  1.2083  0.6880
  795MOL0     H 9660  10.924   9.434   7.830  2.1180  2.1893 -1.0327
  795MOL0     H 9661  10.755   9.417   7.782  1.8709 -1.4186 -0.8417
  795MOL0     H 9662  10.727   9.675   7.834  1.9630  3.0266  0.5021
  795MOL0     H 9663  10.744   9.577   7.978  1.1453  0.2467  1.3965
  795MOL0     H 9664  10.966   9.642   8.026  2.0892 -0.2405 -1.2927
  795MOL0     H 9665  11.008   9.677   7.858 -0.3154 -1.9840  0.3478
  795MOL0     H 9666  10.885   9.847   8.043 -3.0227  3.0331 -0.5190
  795MOL0     H 9667  11.017   9.876   7.929  2.2632 -3.5680 -1.8988
  795MOL0     H 9668  10.665  10.076   7.725 -0.6951  3.6257 -2.9848
  795MOL0     H 9669  10.720  10.271   7.473  2.1677 -1.5563  0.7017
  795MOL0     H 9670  10.573  10.200   7.546 -0.8573  1.5689 -0.8877
  795MOL0     H 9671  10.619  10.159   7.381  1.1861  2.3376 -1.1608
  795MOL0     H 9672  10.807  10.010   7.049  0.4532 -0.5212  3.9595
  795MOL0     H 9673  10.890  10.002   6.796  0.6923 -0.2170 -0.0766
  795MOL0     H 9674  11.021  10.110   6.656 -1.1182 -2.0505  1.0131
  795MOL0     H 9675  11.157  10.072   6.544 -0.8719  1.2819 -1.0412
  795MOL0     H 9676  11.050   9.827   6.557  1.2702  0.1111 -2.0725
  795MOL0     H 9677  10.902   9.933   6.583  0.2052 -0.6235  0.9474
  795MOL0     H 9678  11.079   9.932   6.335 -1.6051  0.8325 -2.3184
  795MOL0     H 9679  10.992  10.076   6.383  1.5671  0.3798  3.1334
  795MOL0     H 9680  10.778   9.954   6.372  0.6996 -3.0961  4.6003
  795MOL0     H 9681  10.883   9.815   6.330  1.6282  0.3211 -1.8717
  795MOL0     H 9682  10.836  10.070   6.166  0.7094  0.0838 -4.8172
  795MOL0     H 9683  10.956   9.949   6.132 -0.9603 -1.0459 -1.2576
  795MOL0     H 9684  10.720   9.797   6.120  0.0523 -0.2781 -0.5959
  795MOL0     H 9685  10.780   9.891   5.981 -2.9439 -0.7373 -0.6736
  795MOL0     H 9686  10.603  10.055   6.011 -0.9022  0.0975  0.7362
  795MOL0     H 9687  10.606  10.042   6.181 -0.5966 -0.5286 -0.5956
  795MOL0     H 9688  10.510   9.803   6.025 -1.4775 -2.0351  0.5539
  795MOL0     H 9689  10.405   9.928   6.026  0.3344 -2.5977 -1.3541
  795MOL0     H 9690  11.281   9.912   6.921 -0.4263 -1.1866  0.5598
  795MOL0     H 9691  11.211   9.912   7.160 -1.9716 -3.1092  2.3706
  795MOL0     H 9692  11.001   9.848   7.452  0.4430  0.9157  0.1922
  795MOL0     H 9693  10.993   9.799   7.679 -1.6668 -1.5535 -0.0394
  795MOL0     H 9694   9.964  10.075   6.891  1.2340 -0.7031  0.7420
  795MOL0     H 9695   9.775  10.263   6.928  0.5601 -0.7496 -2.1367
  795MOL0     H 9696   9.625  10.674   6.970 -0.6355 -0.7215 -0.6623
  795MOL0     H 9697   9.488  10.868   7.046 -3.5560  1.7308  2.7364
  795MOL0     H 9698   9.293  10.868   7.425  2.4497  1.4371 -1.5293
  795MOL0     H 9699   9.200  10.981   7.348  2.0013  0.9322  0.6198
  795MOL0     H 9700   9.139  10.686   7.274  2.3944  0.0805  1.0504
  795MOL0     H 9701   9.021  10.820   7.302 -0.7971  1.4870  3.0802
  795MOL0     H 9702   9.028  10.626   7.448  1.2018  0.5132 -5.1320
  795MOL0     H 9703   9.183  10.681   7.506  1.3145  0.4232 -3.7107
  795MOL0     H 9704   9.106  10.891   7.613  0.2278  0.0721 -1.3756
  795MOL0     H 9705   9.010  10.753   7.673  2.2775  2.9840  2.8990
  795MOL0     H 9706   8.692  10.964   7.554 -0.5151 -0.4006  0.1444
  795MOL0     H 9707   9.350  10.648   7.376 -0.5553  2.7236 -0.3120
  795MOL0     H 9708   9.611  10.427   7.396  0.0835  3.2887 -0.3960
  795MOL0     H 9709   9.438  10.431   7.424 -0.8657  1.1438 -0.2141
  795MOL0     H 9710   9.484  10.338   7.285 -1.9269 -0.0169  1.0148
  796MOL0     O 9711   9.697   1.661  10.374 -0.2050 -0.4758  0.2139
  796MOL0     C 9712   9.655   1.553  10.342 -0.7606  0.8257 -0.6522
  796MOL0     O 9713   9.688   1.429  10.393 -0.1360 -0.5901 -0.1310
  796MOL0     C 9714   9.798   1.431  10.473  0.9574 -0.6796  0.6632
  796MOL0     C 9715   9.796   1.377  10.605 -0.1580 -0.5235 -0.9199
  796MOL0     C 9716   9.913   1.372  10.686  0.0205  0.6584 -0.2176
  796MOL0     C 9717  10.041   1.411  10.632  0.6039 -0.2882  0.2841
  796MOL0     O 9718  10.151   1.408  10.707  0.4989  0.0938  0.0960
  796MOL0     C 9719  10.251   1.318  10.656 -0.5918 -0.0965  0.0527
  796MOL0     C 9720  10.378   1.311  10.739 -0.8375 -0.0658 -0.6977
  796MOL0     C 9721  10.350   1.288  10.889 -0.9042  0.1628 -0.6612
  796MOL0     C 9722  10.322   1.146  10.922 -0.1542 -0.4218 -0.4109
  796MOL0     C 9723  10.282   1.145  11.069  0.1999  0.7527  0.5630
  796MOL0     C 9724  10.389   1.157  11.182 -0.1710  0.1477 -0.3835
  796MOL0     C 9725  10.324   1.150  11.320 -0.0383 -0.3234 -0.6154
  796MOL0     C 9726  10.375   1.252  11.423  0.3100 -0.6673  0.5011
  796MOL0     N 9727  10.515   1.238  11.445 -0.0174  0.1025 -0.6750
  796MOL0     C 9728  10.570   1.163  11.549 -0.0928 -0.6309 -0.4600
  796MOL0     C 9729  10.701   1.198  11.558  1.2032  0.3818 -0.0794
  796MOL0     C 9730  10.798   1.139  11.662  0.4706 -0.5398  0.0014
  796MOL0     C 9731  10.909   1.046  11.604 -0.1824 -0.6755 -0.4272
  796MOL0     C 9732  11.016   1.037  11.717 -0.7603 -0.0705 -0.0031
  796MOL0     C 9733  11.135   0.933  11.686  0.6053 -0.1813 -0.1821
  796MOL0     O 9734  11.213   0.993  11.585  0.4851  0.7973 -0.3486
  796MOL0     C 9735  11.304   0.934  11.511 -0.3767  0.5092  0.2362
  796MOL0     C 9736  11.349   1.010  11.404  0.2727  0.2242 -0.1574
  796MOL0     C 9737  11.450   0.964  11.319  0.3017 -0.1579  0.0860
  796MOL0     C 9738  11.518   1.065  11.241 -0.5960  0.3006  0.2174
  796MOL0     C 9739  11.484   0.826  11.320  0.6943 -0.1776  0.8919
  796MOL0     C 9740  11.566   0.760  11.209 -0.1292  0.0435  0.5532
  796MOL0     O 9741  11.564   0.621  11.221 -0.5305 -0.0473  0.3117
  796MOL0     C 9742  11.607   0.539  11.121  0.0115  0.0810 -0.8432
  796MOL0     C 9743  11.519   0.433  11.081 -0.3694  0.5790 -0.0539
  796MOL0     C 9744  11.550   0.360  10.969 -0.1317  0.2452 -0.2464
  796MOL0     C 9745  11.657   0.383  10.887 -0.0011  0.0564 -0.5277
  796MOL0     O 9746  11.666   0.302  10.777  0.2662  0.7295 -0.0699
  796MOL0     C 9747  11.791   0.284  10.707 -0.5556 -0.0488 -1.2666
  796MOL0     C 9748  11.770   0.172  10.609 -0.8402  0.2587  0.9872
  796MOL0     C 9749  11.908   0.112  10.569  0.0552  0.1313 -0.7735
  796MOL0     C 9750  11.894  -0.017  10.483 -0.4992  0.0522  0.3501
  796MOL0     C 9751  12.016  -0.106  10.482  0.6592 -0.1012 -0.1520
  796MOL0     C 9752  12.145  -0.049  10.428 -0.6248 -0.5146  1.1686
  796MOL0     C 9753  12.242  -0.165  10.431  0.8835  0.0273  0.1812
  796MOL0     C 9754  12.318  -0.161  10.561 -0.4770  0.0839  0.5283
  796MOL0    Cl 9755  12.471  -0.255  10.528 -0.2204  0.0134 -0.1582
  796MOL0     C 9756  11.753   0.479  10.935  0.3433 -1.0511 -0.2434
  796MOL0     C 9757  11.728   0.559  11.047 -0.0370  1.0325  0.0441
  796MOL0     O 9758  11.621   0.829  11.126 -0.0701 -0.6202  0.2484
  796MOL0     C 9759  11.428   0.749  11.425 -0.8420  0.1419  0.1800
  796MOL0     C 9760  11.341   0.799  11.523 -0.7075  0.3071  0.8299
  796MOL0     N 9761  10.728   1.282  11.454  0.2402 -0.0591  0.4257
  796MOL0     N 9762  10.621   1.297  11.379  0.0595 -0.8642 -0.7881
  796MOL0     C 9763  10.038   1.457  10.498 -0.1562  0.5906 -0.6681
  796MOL0     C 9764   9.923   1.463  10.426 -0.6541 -0.6013  0.1957
  796MOL0     C 9765   9.541   1.556  10.250  0.3210  0.6275  0.9748
  796MOL0     C 9766   9.426   1.600  10.318  0.7064  0.7754  0.8654
  796MOL0     C 9767   9.304   1.606  10.249  0.2013 -0.4793 -0.1607
  796MOL0     C 9768   9.296   1.577  10.115 -0.3738  0.1297 -0.0165
  796MOL0     O 9769   9.171   1.606  10.067 -0.3389  0.2524 -0.2739
  796MOL0     C 9770   9.130   1.580   9.932  0.3635 -0.3567  0.5043
  796MOL0     C 9771   9.006   1.673   9.885 -0.2900  0.0450 -0.4803
  796MOL0     C 9772   9.034   1.814   9.853 -0.4069  0.4709 -0.3343
  796MOL0     C 9773   9.087   1.841   9.711  0.2534  0.0022 -0.1448
  796MOL0     C 9774   8.974   1.819   9.615  0.0401 -0.4545  0.9587
  796MOL0     C 9775   8.886   1.801   9.542 -0.1500  0.3969 -0.4355
  796MOL0     C 9776   9.409   1.527  10.043  0.2821 -0.1847  0.3483
  796MOL0     C 9777   9.532   1.518  10.118  0.8246 -0.1257  0.2214
  796MOL0     C 9778   9.656   1.479  10.045 -0.1524 -0.1026 -0.2214
  796MOL0     H 9779   9.713   1.340  10.664 -0.8828  1.5560 -0.5474
  796MOL0     H 9780   9.909   1.358  10.794 -1.4735  0.4205 -0.2841
  796MOL0     H 9781  10.282   1.345  10.554  2.5422 -0.8835  0.6796
  796MOL0     H 9782  10.207   1.218  10.655 -0.4788 -0.1491  0.3932
  796MOL0     H 9783  10.449   1.241  10.694  1.1818  1.5997 -0.2775
  796MOL0     H 9784  10.418   1.413  10.743  1.4703 -0.9374  0.2928
  796MOL0     H 9785  10.444   1.324  10.931  0.0365  0.1846 -2.6851
  796MOL0     H 9786  10.266   1.347  10.928 -0.7221 -1.9912  3.6263
  796MOL0     H 9787  10.238   1.104  10.865 -0.6963 -0.1139  0.1540
  796MOL0     H 9788  10.412   1.087  10.900  0.8916  1.5948 -1.7816
  796MOL0     H 9789  10.254   1.042  11.092  3.2981 -0.6979 -1.4234
  796MOL0     H 9790  10.192   1.204  11.092 -0.1719  2.2450 -3.7397
  796MOL0     H 9791  10.454   1.069  11.180 -2.0529 -1.5839  3.3091
  796MOL0     H 9792  10.439   1.252  11.164  1.5900 -0.5522  0.5972
  796MOL0     H 9793  10.354   1.056  11.367 -0.7795  0.2289  1.0331
  796MOL0     H 9794  10.218   1.173  11.321 -0.0351 -0.3260 -0.0607
  796MOL0     H 9795  10.359   1.351  11.379 -0.7737 -1.1424 -0.2009
  796MOL0     H 9796  10.321   1.234  11.516  1.3497  1.7346  1.6769
  796MOL0     H 9797  10.517   1.103  11.622 -1.2756  0.6977 -0.1743
  796MOL0     H 9798  10.744   1.088  11.742 -1.3938 -1.6042 -1.8368
  796MOL0     H 9799  10.849   1.223  11.711  1.1608 -1.3841  0.7587
  796MOL0     H 9800  10.883   0.946  11.568  0.0461 -0.5095 -1.0634
  796MOL0     H 9801  10.944   1.102  11.517 -4.9402  2.3382 -0.7625
  796MOL0     H 9802  11.068   1.133  11.730  0.4629 -0.8706  1.2715
  796MOL0     H 9803  10.968   1.015  11.813 -0.8189 -0.6983 -0.1721
  796MOL0     H 9804  11.207   0.921  11.767  0.4558  2.0006  0.3381
  796MOL0     H 9805  11.096   0.834  11.664  0.2617 -0.9951  3.3604
  796MOL0     H 9806  11.315   1.113  11.414  0.7329  0.2635  1.0737
  796MOL0     H 9807  11.513   1.049  11.133 -0.6903 -2.5927  0.5817
  796MOL0     H 9808  11.626   1.057  11.256 -0.6092 -1.6595 -0.4569
  796MOL0     H 9809  11.474   1.163  11.264 -3.2548 -0.5294 -0.9292
  796MOL0     H 9810  11.432   0.401  11.137 -0.5709 -0.5845 -0.9876
  796MOL0     H 9811  11.476   0.293  10.927 -2.1559  1.9316  0.4640
  796MOL0     H 9812  11.814   0.386  10.674  1.2293  0.6843  1.8238
  796MOL0     H 9813  11.866   0.254  10.781 -3.2751  0.2013  1.8433
  796MOL0     H 9814  11.709   0.090  10.647 -0.6221  1.5048  4.3937
  796MOL0     H 9815  11.735   0.217  10.516  2.1115  0.1617 -0.2759
  796MOL0     H 9816  11.961   0.082  10.660 -0.0545 -2.2972 -1.4429
  796MOL0     H 9817  11.968   0.191  10.523  1.0088 -0.9099 -1.3792
  796MOL0     H 9818  11.882   0.017  10.380  2.2408  1.0360  0.2794
  796MOL0     H 9819  11.801  -0.066  10.515  1.0123 -2.0068  1.8221
  796MOL0     H 9820  12.048  -0.137  10.582  2.1594  1.7625 -0.0070
  796MOL0     H 9821  11.981  -0.193  10.425  1.1612 -0.2762 -0.2078
  796MOL0     H 9822  12.178   0.031  10.495  1.1863  0.6450 -0.9958
  796MOL0     H 9823  12.141  -0.012  10.325 -0.3786  1.6662  1.8810
  796MOL0     H 9824  12.305  -0.148  10.343  0.4032  0.1571 -0.1415
  796MOL0     H 9825  12.187  -0.258  10.414 -4.0320  2.5567  0.4769
  796MOL0     H 9826  12.251  -0.198  10.640  1.1415 -0.1462  1.8642
  796MOL0     H 9827  12.355  -0.062  10.588  2.1252 -0.0349 -2.0119
  796MOL0     H 9828  11.850   0.490  10.888  1.2849  0.2359  1.8476
  796MOL0     H 9829  11.806   0.632  11.069 -0.3818  1.4556 -0.1384
  796MOL0     H 9830  11.467   0.647  11.430 -0.9773  0.1444  1.8752
  796MOL0     H 9831  11.301   0.738  11.604  1.3539 -1.3432  0.7018
  796MOL0     H 9832  10.132   1.498  10.463 -0.0483 -0.7460 -2.0915
  796MOL0     H 9833   9.943   1.521  10.336 -0.7268 -0.5623  0.2040
  796MOL0     H 9834   9.426   1.634  10.421 -1.4969 -1.1102  1.5802
  796MOL0     H 9835   9.221   1.650  10.304 -0.7304 -1.8642 -0.4252
  796MOL0     H 9836   9.211   1.596   9.860  1.1399 -0.6384  1.2968
  796MOL0     H 9837   9.085   1.480   9.933 -0.0948 -0.3937 -3.8828
  796MOL0     H 9838   8.924   1.669   9.957 -0.7974  4.4446 -0.5368
  796MOL0     H 9839   8.967   1.624   9.795  0.6383 -3.4220  0.8102
  796MOL0     H 9840   8.940   1.866   9.873 -0.8532 -0.2049 -0.6236
  796MOL0     H 9841   9.108   1.839   9.929  0.5601 -1.6135 -0.5045
  796MOL0     H 9842   9.165   1.770   9.681  1.9313  1.5249  0.4593
  796MOL0     H 9843   9.135   1.939   9.705 -2.1811  1.2990  0.4515
  796MOL0     H 9844   8.804   1.787   9.475 -0.5052  0.6937 -0.0659
  796MOL0     H 9845   9.400   1.506   9.937 -2.5892  1.7271  0.0964
  796MOL0     H 9846   9.622   1.464   9.942 -1.1008  0.1127  0.0558
  796MOL0     H 9847   9.737   1.553  10.040 -0.3179 -0.0012 -3.1085
  796MOL0     H 9848   9.698   1.384  10.080 -1.3168 -1.1371 -1.5113
  797MOL0     O 9849   3.004   8.345   0.785  1.0049  0.0306  0.5940
  797MOL0     C 9850   2.969   8.262   0.868  0.0448  1.2780  1.0376
  797MOL0     O 9851   3.032   8.153   0.904  0.0584 -0.0777 -0.0789
  797MOL0     C 9852   3.117   8.091   0.811  0.5040  0.5354  0.3595
  797MOL0     C 9853   3.210   8.157   0.739 -0.3251  0.9717 -0.6039
  797MOL0     C 9854   3.292   8.094   0.653  0.1451  0.3312 -0.4222
  797MOL0     C 9855   3.270   7.964   0.617 -1.1720 -0.2036  0.2971
  797MOL0     O 9856   3.349   7.897   0.531 -0.9769  0.5219  0.5804
  797MOL0     C 9857   3.386   7.973   0.419 -0.2101 -0.1518 -0.4557
  797MOL0     C 9858   3.500   7.904   0.344 -0.0199 -0.3500 -0.3848
  797MOL0     C 9859   3.618   7.875   0.430 -0.3664  0.2880 -0.7486
  797MOL0     C 9860   3.717   7.791   0.354  0.4909  0.8214 -0.1343
  797MOL0     C 9861   3.832   7.733   0.444 -0.1093 -0.5988 -0.6131
  797MOL0     C 9862   3.953   7.711   0.356  0.4743  1.8264  0.1789
  797MOL0     C 9863   3.930   7.589   0.266  0.3302  0.1358  0.6321
  797MOL0     C 9864   3.977   7.627   0.120  0.7324 -0.1596 -0.0405
  797MOL0     N 9865   3.968   7.518   0.025  0.0184  0.0515  0.4751
  797MOL0     C 9866   3.851   7.458  -0.008  0.3747  0.2638  0.3711
  797MOL0     C 9867   3.888   7.354  -0.086 -0.0552 -0.7471  0.5242
  797MOL0     C 9868   3.791   7.264  -0.157  0.4235 -0.4930 -0.0796
  797MOL0     C 9869   3.794   7.121  -0.123 -0.4706 -1.0282  0.2864
  797MOL0     C 9870   3.698   7.042  -0.208  0.8540 -0.7521  0.4692
  797MOL0     C 9871   3.676   6.904  -0.151 -0.1923  0.2650  0.3080
  797MOL0     O 9872   3.602   6.902  -0.023 -0.8528  0.2154 -0.0683
  797MOL0     C 9873   3.544   6.784   0.007 -0.3004  0.1340  0.0096
  797MOL0     C 9874   3.416   6.799   0.071 -0.3932  0.0747 -0.0578
  797MOL0     C 9875   3.348   6.678   0.105  0.2886  0.1748  0.5794
  797MOL0     C 9876   3.209   6.692   0.167 -0.0705  0.1737 -0.4094
  797MOL0     C 9877   3.400   6.553   0.069 -0.1889 -0.0515  0.4386
  797MOL0     C 9878   3.326   6.425   0.095 -0.3622  0.1218 -0.7258
  797MOL0     O 9879   3.261   6.410   0.217 -0.8291 -0.0064  0.0732
  797MOL0     C 9880   3.177   6.309   0.249 -0.0795  0.1266  0.1112
  797MOL0     C 9881   3.187   6.253   0.377 -0.6844  1.1029  0.7340
  797MOL0     C 9882   3.114   6.127   0.405  0.4118 -0.8333  0.0562
  797MOL0     C 9883   3.028   6.076   0.315 -0.3043  0.6052  0.3822
  797MOL0     O 9884   2.956   5.963   0.347 -0.0662 -0.4437 -0.5585
  797MOL0     C 9885   2.823   5.929   0.304  1.2163 -0.5248 -0.4464
  797MOL0     C 9886   2.728   6.024   0.392  1.0971  0.0394  0.5840
  797MOL0     C 9887   2.583   5.983   0.362 -0.1322  0.3368  0.2688
  797MOL0     C 9888   2.485   6.087   0.409 -0.1423  0.4040 -0.3587
  797MOL0     C 9889   2.341   6.021   0.405 -0.8787  0.0553  0.5957
  797MOL0     C 9890   2.297   5.995   0.261  0.5795  0.6804 -0.1841
  797MOL0     C 9891   2.166   5.914   0.250  1.1818 -0.4101 -0.2887
  797MOL0     C 9892   2.105   5.885   0.116 -0.3868  0.0198  0.6402
  797MOL0    Cl 9893   1.972   5.760   0.148  0.1325 -0.2854 -0.2255
  797MOL0     C 9894   2.999   6.141   0.194  0.2070 -0.7043 -0.0403
  797MOL0     C 9895   3.088   6.246   0.159  0.7250 -0.0597  1.0191
  797MOL0     O 9896   3.353   6.325   0.025 -0.9054  0.0604  0.1213
  797MOL0     C 9897   3.527   6.544  -0.001  0.9798 -0.3701  0.0762
  797MOL0     C 9898   3.602   6.656  -0.025 -0.6081  0.5150 -0.1143
  797MOL0     N 9899   4.021   7.359  -0.102 -0.0309  0.2274 -0.5243
  797MOL0     N 9900   4.071   7.453  -0.030 -0.0684  0.0614  0.3814
  797MOL0     C 9901   3.168   7.895   0.684 -0.2200  0.4406  0.2498
  797MOL0     C 9902   3.093   7.958   0.781 -0.0372  1.3705 -0.8678
  797MOL0     C 9903   2.845   8.295   0.935 -0.3088 -0.2733  0.1211
  797MOL0     C 9904   2.730   8.245   0.866 -0.4024 -0.1588 -0.6862
  797MOL0     C 9905   2.601   8.276   0.898 -0.1484 -0.8154  0.0998
  797MOL0     C 9906   2.580   8.367   1.006 -1.0531 -0.2982 -0.2958
  797MOL0     O 9907   2.458   8.409   1.042  0.0703  0.1712 -0.5039
  797MOL0     C 9908   2.369   8.303   1.078  0.0148  0.1536  0.0051
  797MOL0     C 9909   2.365   8.306   1.236  0.2052  0.4698  0.1197
  797MOL0     C 9910   2.273   8.198   1.277  0.2868  0.4229 -0.1331
  797MOL0     C 9911   2.277   8.181   1.433  0.4004 -0.3662 -0.1617
  797MOL0     C 9912   2.142   8.189   1.498 -0.2928  0.1905  0.3994
  797MOL0     C 9913   2.024   8.181   1.537 -0.7090  0.1468  0.0414
  797MOL0     C 9914   2.691   8.426   1.073 -0.1814 -0.1091 -0.8158
  797MOL0     C 9915   2.822   8.385   1.037 -0.5039  0.4560 -0.4023
  797MOL0     C 9916   2.933   8.433   1.123 -0.9829  0.3498 -0.2563
  797MOL0     H 9917   3.236   8.263   0.746  2.1993  0.5409 -2.0520
  797MOL0     H 9918   3.353   8.169   0.603 -2.5730  1.6060 -2.0737
  797MOL0     H 9919   3.426   8.073   0.440  1.6360 -0.6404 -1.4432
  797MOL0     H 9920   3.300   7.986   0.353 -0.5760  0.2142  0.0831
  797MOL0     H 9921   3.448   7.808   0.331 -0.3047 -0.4877  1.4897
  797MOL0     H 9922   3.522   7.962   0.254  0.4153  0.9455  0.5358
  797MOL0     H 9923   3.672   7.965   0.459 -0.4291  1.5366 -4.0738
  797MOL0     H 9924   3.591   7.822   0.521  1.8033  0.6731  0.1804
  797MOL0     H 9925   3.661   7.709   0.308  1.2051  0.0509  0.3309
  797MOL0     H 9926   3.767   7.852   0.278  2.0753  1.1092  1.0771
  797MOL0     H 9927   3.803   7.645   0.502  0.5765 -0.6532 -0.3481
  797MOL0     H 9928   3.860   7.796   0.529 -0.7642 -1.0542 -0.0489
  797MOL0     H 9929   3.968   7.800   0.294 -0.4973 -0.0421 -3.0001
  797MOL0     H 9930   4.040   7.686   0.418 -0.3563 -0.2197  0.5935
  797MOL0     H 9931   3.825   7.558   0.264  0.4261 -0.1619 -0.6331
  797MOL0     H 9932   3.982   7.501   0.303 -3.4790 -1.4465  2.8454
  797MOL0     H 9933   3.912   7.705   0.080  0.5613 -1.1456 -1.7748
  797MOL0     H 9934   4.078   7.666   0.100 -0.3961  2.8353 -0.5040
  797MOL0     H 9935   3.747   7.481   0.012  0.2339 -0.7653  0.8620
  797MOL0     H 9936   3.813   7.282  -0.262 -1.9236  0.0380 -0.5262
  797MOL0     H 9937   3.696   7.317  -0.153  0.1499 -0.9120 -0.9618
  797MOL0     H 9938   3.896   7.083  -0.138 -0.5783 -0.6231 -1.7399
  797MOL0     H 9939   3.782   7.117  -0.014  1.2985 -1.4500  0.4969
  797MOL0     H 9940   3.597   7.082  -0.216  1.1677 -0.1522 -0.5768
  797MOL0     H 9941   3.722   7.025  -0.313 -0.2608 -0.8191  0.2103
  797MOL0     H 9942   3.617   6.846  -0.221  1.0608 -1.4972  0.6566
  797MOL0     H 9943   3.776   6.863  -0.135 -0.3257  0.4199  1.7563
  797MOL0     H 9944   3.376   6.895   0.100  1.8244  1.4550 -1.2403
  797MOL0     H 9945   3.175   6.796   0.161  1.9373  0.8717 -0.3466
  797MOL0     H 9946   3.205   6.688   0.277  0.6094  1.6861 -0.3014
  797MOL0     H 9947   3.139   6.621   0.122  0.5280 -0.3109 -0.5849
  797MOL0     H 9948   3.251   6.284   0.459  1.0078 -2.5911  1.0189
  797MOL0     H 9949   3.119   6.083   0.504  0.1383 -1.1064 -0.0507
  797MOL0     H 9950   2.807   5.934   0.196 -0.6152  3.3558 -0.1800
  797MOL0     H 9951   2.813   5.824   0.333  1.8688 -1.3108 -2.8969
  797MOL0     H 9952   2.757   6.000   0.495 -0.6376  1.1165  1.3716
  797MOL0     H 9953   2.742   6.131   0.374  0.0200 -0.0210 -0.7778
  797MOL0     H 9954   2.573   5.883   0.406  3.4263 -0.1247  0.2926
  797MOL0     H 9955   2.569   5.960   0.256 -0.6547  1.3000  0.1175
  797MOL0     H 9956   2.487   6.176   0.345  1.3981  0.5669 -0.1245
  797MOL0     H 9957   2.508   6.106   0.514 -0.2160  0.2964 -0.3232
  797MOL0     H 9958   2.350   5.931   0.467 -1.8981 -0.9335 -0.6388
  797MOL0     H 9959   2.272   6.094   0.448  1.4783  1.8649  1.5183
  797MOL0     H 9960   2.377   5.947   0.204  2.6346  3.4383  0.1501
  797MOL0     H 9961   2.263   6.087   0.212  1.2656  1.6766  1.1419
  797MOL0     H 9962   2.097   5.979   0.304  2.0372 -0.5097  0.9621
  797MOL0     H 9963   2.177   5.825   0.312  0.8374  1.4038  2.5608
  797MOL0     H 9964   2.178   5.858   0.040 -3.7390 -0.0191 -2.8589
  797MOL0     H 9965   2.058   5.979   0.084  1.3352  0.9435  0.7409
  797MOL0     H 9966   2.924   6.103   0.126  0.3224  0.0429 -0.5944
  797MOL0     H 9967   3.081   6.291   0.060  4.0620 -0.0271  0.6579
  797MOL0     H 9968   3.570   6.448  -0.030  1.4072 -0.8779  2.2391
  797MOL0     H 9969   3.703   6.652  -0.065 -0.0026 -1.1681  1.4563
  797MOL0     H 9970   3.137   7.800   0.642 -0.5580 -0.2836  2.0406
  797MOL0     H 9971   3.005   7.917   0.829 -1.4874  3.6738 -1.3680
  797MOL0     H 9972   2.744   8.187   0.775 -0.1697 -0.8499 -0.2196
  797MOL0     H 9973   2.508   8.256   0.845 -1.1565 -0.7740  1.7729
  797MOL0     H 9974   2.273   8.342   1.042 -0.0128 -0.8542 -1.0423
  797MOL0     H 9975   2.399   8.205   1.041  1.1187  0.9490 -1.2877
  797MOL0     H 9976   2.347   8.403   1.285  0.1333  1.5185 -1.8764
  797MOL0     H 9977   2.462   8.280   1.279  0.9747  3.8325  0.7002
  797MOL0     H 9978   2.176   8.233   1.242  0.3810  0.5308 -0.2888
  797MOL0     H 9979   2.293   8.101   1.230 -1.3622  0.6597 -1.4307
  797MOL0     H 9980   2.335   8.263   1.476  0.7828 -0.9634  0.4624
  797MOL0     H 9981   2.330   8.093   1.468  1.8764  0.4646 -0.2448
  797MOL0     H 9982   1.924   8.191   1.574  0.4297  0.8626  3.2647
  797MOL0     H 9983   2.686   8.513   1.139  4.6906  0.8351 -1.3101
  797MOL0     H 9984   3.001   8.499   1.067  1.0221 -2.8169 -1.8121
  797MOL0     H 9985   2.892   8.477   1.214  1.4447  0.8550  0.6707
  797MOL0     H 9986   3.005   8.355   1.146  0.4128  1.2257 -1.4135
  798MOL0     O 9987   0.653   7.214   5.607 -0.9754  1.1189 -0.7268
  798MOL0     C 9988   0.622   7.261   5.714  0.3090  0.0143 -0.3900
  798MOL0     O 9989   0.566   7.385   5.733  0.0711 -0.3631  0.1263
  798MOL0     C 9990   0.552   7.467   5.625  1.0597  0.3917 -0.1852
  798MOL0     C 9991   0.447   7.548   5.616  0.1103 -0.6107 -0.9635
  798MOL0     C 9992   0.444   7.661   5.533 -0.4193  0.0289 -0.1290
  798MOL0     C 9993   0.542   7.675   5.428  0.1977  0.7460 -0.3047
  798MOL0     O 9994   0.523   7.775   5.334  0.5245 -0.6727 -0.4245
  798MOL0     C 9995   0.640   7.828   5.266  0.4511  0.0993 -0.7729
  798MOL0     C 9996   0.608   7.935   5.163  0.4004  0.0849 -0.1238
  798MOL0     C 9997   0.728   8.009   5.096  0.0475  0.4925 -0.2869
  798MOL0     C 9998   0.802   8.099   5.198  0.1965  0.0081 -0.5591
  798MOL0     C 9999   0.926   8.161   5.135 -0.3358 -0.0957 -0.7490
  798MOL0     C10000   1.022   8.227   5.233 -0.1115  0.1015 -0.4466
  798MOL0     C10001   1.144   8.286   5.159  0.0288 -0.4408  0.3347
  798MOL0     C10002   1.258   8.187   5.130 -0.2200 -1.2683 -0.5580
  798MOL0     N10003   1.372   8.197   5.231  0.6216  0.0465 -1.1440
  798MOL0     C10004   1.476   8.293   5.225  0.2584  0.8178 -0.1206
  798MOL0     C10005   1.551   8.266   5.331 -0.0035  0.3066  0.6931
  798MOL0     C10006   1.677   8.345   5.345 -0.3360  0.2603  0.9213
  798MOL0     C10007   1.747   8.333   5.489 -0.2735 -0.3660  0.8852
  798MOL0     C10008   1.863   8.428   5.515  0.8113  0.1990  0.2369
  798MOL0     C10009   1.821   8.580   5.509  0.2387  0.3234 -0.0733
  798MOL0     O10010   1.709   8.608   5.593  0.2316 -0.1582 -0.1642
  798MOL0     C10011   1.648   8.725   5.593 -0.2981 -0.3401  0.3013
  798MOL0     C10012   1.544   8.750   5.679 -0.3944 -0.0351  0.3770
  798MOL0     C10013   1.474   8.866   5.704 -0.3994  0.1065  0.5569
  798MOL0     C10014   1.362   8.863   5.806  0.4386  0.2766  0.3074
  798MOL0     C10015   1.522   8.975   5.624  0.4933 -0.6508  0.0402
  798MOL0     C10016   1.459   9.109   5.623  0.0905  0.2083 -0.2042
  798MOL0     O10017   1.397   9.149   5.739  0.0535 -0.4456 -0.0039
  798MOL0     C10018   1.309   9.252   5.743  0.6153  0.6971 -0.1975
  798MOL0     C10019   1.270   9.289   5.876 -1.2611 -0.2128 -0.3241
  798MOL0     C10020   1.172   9.384   5.901 -0.7274  0.4057  0.4466
  798MOL0     C10021   1.089   9.421   5.797  0.9204 -0.0944  0.1444
  798MOL0     O10022   0.989   9.512   5.798 -0.3956  1.0689 -0.4890
  798MOL0     C10023   0.959   9.560   5.932  0.5637  0.7719 -0.6202
  798MOL0     C10024   0.824   9.636   5.935 -0.6544 -0.4068 -0.6312
  798MOL0     C10025   0.834   9.752   5.844 -0.3261  0.5770  1.1228
  798MOL0     C10026   0.698   9.832   5.847  0.2618  0.6440 -0.2569
  798MOL0     C10027   0.706   9.967   5.782 -0.7088  0.3328  0.5471
  798MOL0     C10028   0.587  10.062   5.815 -0.4143  0.0835  0.3603
  798MOL0     C10029   0.634  10.201   5.767  0.4325 -1.0663  0.1814
  798MOL0     C10030   0.546  10.317   5.831  0.0857  0.3966 -0.1482
  798MOL0    Cl10031   0.372  10.278   5.793 -0.1904 -0.3297 -0.4742
  798MOL0     C10032   1.109   9.370   5.668 -0.2215 -0.1085 -0.6383
  798MOL0     C10033   1.215   9.289   5.631 -0.8792 -0.2677 -0.5190
  798MOL0     O10034   1.459   9.175   5.518  0.7888  0.0316 -0.2628
  798MOL0     C10035   1.633   8.962   5.533 -0.2998  0.0960 -0.4928
  798MOL0     C10036   1.697   8.840   5.519  0.3384 -0.0108  1.0139
  798MOL0     N10037   1.492   8.153   5.398  0.5643  0.2139  0.3195
  798MOL0     N10038   1.382   8.119   5.345 -0.6251  0.0731  0.0266
  798MOL0     C10039   0.646   7.597   5.434 -0.1187  0.2532  0.7238
  798MOL0     C10040   0.652   7.497   5.525 -0.5440 -0.3730 -0.2573
  798MOL0     C10041   0.645   7.179   5.836  0.6045 -0.3061  0.7919
  798MOL0     C10042   0.593   7.229   5.959 -0.1599 -0.7337 -0.9208
  798MOL0     C10043   0.624   7.163   6.082  0.1442  0.5677  0.7415
  798MOL0     C10044   0.678   7.037   6.085 -0.7024  0.7149 -0.4458
  798MOL0     O10045   0.684   6.968   6.203 -0.4966  0.0968  0.2757
  798MOL0     C10046   0.810   6.917   6.249 -1.3427  0.3278  0.4971
  798MOL0     C10047   0.788   6.807   6.357  0.4717  0.4582  0.2500
  798MOL0     C10048   0.725   6.685   6.289  0.8435  0.6840  0.6940
  798MOL0     C10049   0.765   6.555   6.355  0.5335 -0.2600  0.2858
  798MOL0     C10050   0.711   6.442   6.280  0.1373  0.7938 -1.0467
  798MOL0     C10051   0.663   6.348   6.219 -1.2149  0.1268  0.8375
  798MOL0     C10052   0.717   6.978   5.964  0.3788  0.0416 -1.0727
  798MOL0     C10053   0.702   7.046   5.838 -0.2877  0.5052 -0.0678
  798MOL0     C10054   0.756   6.977   5.718  0.4231  0.0241  0.0108
  798MOL0     H10055   0.371   7.525   5.690  1.8741 -2.7576  0.2920
  798MOL0     H10056   0.358   7.727   5.541 -1.5159 -0.7708 -3.4065
  798MOL0     H10057   0.705   7.750   5.226  0.8243 -0.2421  0.4438
  798MOL0     H10058   0.698   7.862   5.353  1.1244  0.5383 -1.3811
  798MOL0     H10059   0.561   7.880   5.081 -0.7387  0.9473 -0.0698
  798MOL0     H10060   0.537   8.011   5.197 -2.7801 -0.8187 -3.9319
  798MOL0     H10061   0.806   7.936   5.072 -1.2310 -0.4126 -1.8505
  798MOL0     H10062   0.684   8.055   5.007  1.5450 -0.8853 -1.8249
  798MOL0     H10063   0.740   8.176   5.245  0.4628 -0.3668  0.4317
  798MOL0     H10064   0.830   8.029   5.277 -1.0581  0.5186  0.3610
  798MOL0     H10065   0.891   8.237   5.064 -0.5843  0.4171 -0.0985
  798MOL0     H10066   0.980   8.083   5.082 -1.5580 -2.8089  1.7036
  798MOL0     H10067   0.966   8.301   5.291 -4.6728 -4.5085  1.8610
  798MOL0     H10068   1.061   8.157   5.307  1.2858 -1.0114 -2.1360
  798MOL0     H10069   1.183   8.368   5.221 -3.9009  1.2409  0.9041
  798MOL0     H10070   1.107   8.318   5.061 -2.3111 -0.2598  1.2083
  798MOL0     H10071   1.228   8.082   5.136 -1.4835 -0.8496  3.5067
  798MOL0     H10072   1.299   8.208   5.031 -1.3382 -1.5739 -1.1056
  798MOL0     H10073   1.488   8.371   5.151  1.6288  1.3397  0.6168
  798MOL0     H10074   1.646   8.450   5.335 -2.0104 -0.3654 -1.2028
  798MOL0     H10075   1.745   8.312   5.267 -2.2090 -0.0745 -0.6479
  798MOL0     H10076   1.681   8.344   5.576 -0.5736 -2.6331  0.9982
  798MOL0     H10077   1.782   8.231   5.503 -0.1817 -0.1268  2.7386
  798MOL0     H10078   1.899   8.394   5.613 -2.1727 -0.8553  1.0842
  798MOL0     H10079   1.937   8.415   5.435 -0.1105 -1.7495 -0.3724
  798MOL0     H10080   1.905   8.637   5.551  0.3590 -0.5683  0.9176
  798MOL0     H10081   1.807   8.615   5.406 -2.7676  0.4387  0.2889
  798MOL0     H10082   1.520   8.664   5.741 -2.5838 -1.8237 -2.6762
  798MOL0     H10083   1.399   8.876   5.908 -4.8150  2.5682  2.2696
  798MOL0     H10084   1.316   8.766   5.786 -1.3646  1.2012 -0.1783
  798MOL0     H10085   1.278   8.930   5.790  1.0387  0.5822 -1.8742
  798MOL0     H10086   1.334   9.252   5.955 -0.4796 -2.5869 -1.9616
  798MOL0     H10087   1.167   9.434   5.997  2.6141  1.1472  0.3862
  798MOL0     H10088   0.961   9.475   6.001  2.2601  0.3936 -1.0812
  798MOL0     H10089   1.041   9.620   5.972 -0.2046  1.0790  0.5202
  798MOL0     H10090   0.734   9.575   5.920 -1.0135 -0.5351  1.7045
  798MOL0     H10091   0.816   9.671   6.038 -0.6243  1.7400 -1.3189
  798MOL0     H10092   0.853   9.726   5.739  0.1960  3.7864  0.2940
  798MOL0     H10093   0.918   9.814   5.876 -0.2381  0.8455  0.3952
  798MOL0     H10094   0.684   9.839   5.955  0.7106  3.0097 -0.2975
  798MOL0     H10095   0.615   9.773   5.809  0.1489  0.9510 -0.4938
  798MOL0     H10096   0.793  10.020   5.823 -1.3901  0.8952  1.2757
  798MOL0     H10097   0.727   9.954   5.675 -0.3740  0.1751  0.6300
  798MOL0     H10098   0.570  10.053   5.923 -3.3602 -0.5537 -0.0837
  798MOL0     H10099   0.493  10.044   5.762  0.6373 -1.7217 -1.0040
  798MOL0     H10100   0.630  10.205   5.658  3.6445 -0.8677 -0.0174
  798MOL0     H10101   0.738  10.215   5.797  0.2188 -0.7683  0.7992
  798MOL0     H10102   0.570  10.415   5.790 -1.2511  0.0196 -2.0026
  798MOL0     H10103   0.566  10.324   5.938 -1.0241 -1.3069  0.2120
  798MOL0     H10104   1.039   9.400   5.591  1.1402  1.7265 -1.2259
  798MOL0     H10105   1.217   9.271   5.524 -0.2652  0.0432 -0.5621
  798MOL0     H10106   1.665   9.047   5.475 -0.2865  0.7728  0.4864
  798MOL0     H10107   1.780   8.841   5.449  1.0780  2.2726  1.8554
  798MOL0     H10108   0.725   7.602   5.359 -1.1730  2.6848 -0.3160
  798MOL0     H10109   0.740   7.435   5.513  0.4478  1.1278 -1.0540
  798MOL0     H10110   0.566   7.334   5.966  3.5842  0.5566 -2.7737
  798MOL0     H10111   0.602   7.223   6.169 -0.2782  1.3013  0.1459
  798MOL0     H10112   0.870   6.870   6.170 -0.0290 -0.2667  1.8189
  798MOL0     H10113   0.873   6.998   6.288  0.8180 -0.4260 -1.2209
  798MOL0     H10114   0.738   6.836   6.451  1.4902  0.0683  0.9260
  798MOL0     H10115   0.878   6.771   6.407 -1.7762 -0.1793  4.3474
  798MOL0     H10116   0.616   6.693   6.293  0.7303 -0.9320  1.7075
  798MOL0     H10117   0.751   6.682   6.183  0.9129 -3.4115  0.6957
  798MOL0     H10118   0.724   6.543   6.456 -0.9772 -3.4413 -0.5568
  798MOL0     H10119   0.873   6.541   6.363  0.9472 -0.0387 -3.2250
  798MOL0     H10120   0.624   6.272   6.154 -0.2084 -1.2826  1.8211
  798MOL0     H10121   0.762   6.879   5.977  2.2774  1.1312  1.7975
  798MOL0     H10122   0.845   7.033   5.689 -1.3333  2.1899 -1.5531
  798MOL0     H10123   0.791   6.875   5.738 -2.1360 -1.1199 -0.8950
  798MOL0     H10124   0.691   6.965   5.631  1.6693 -0.2203 -0.9222
  799MOL0     O10125   3.130   4.984   5.666 -0.2038  0.4437 -0.4996
  799MOL0     C10126   3.008   4.966   5.647  0.5296  0.3625  0.4627
  799MOL0     O10127   2.933   4.869   5.713 -0.4631  0.0880 -0.3182
  799MOL0     C10128   2.996   4.811   5.826  0.5486 -0.2301  0.1864
  799MOL0     C10129   3.018   4.886   5.938 -0.4008  0.4212  0.0793
  799MOL0     C10130   3.067   4.814   6.059  0.2192  0.4866 -0.1197
  799MOL0     C10131   3.070   4.674   6.064 -0.7307 -0.4527 -0.6752
  799MOL0     O10132   3.105   4.601   6.176  0.5171  0.4514 -0.6552
  799MOL0     C10133   3.130   4.670   6.301 -0.6585 -0.0163  0.8917
  799MOL0     C10134   3.209   4.572   6.382 -0.6789 -0.4163 -0.7895
  799MOL0     C10135   3.263   4.628   6.504  0.2469  0.6696  0.0448
  799MOL0     C10136   3.372   4.738   6.466  0.2706  0.3201  0.7702
  799MOL0     C10137   3.443   4.792   6.583  0.5152 -0.6680  0.7490
  799MOL0     C10138   3.522   4.691   6.657 -0.9215 -0.6455  0.5752
  799MOL0     C10139   3.576   4.760   6.779 -0.6947 -0.6987 -0.4360
  799MOL0     C10140   3.622   4.657   6.872 -0.1021  0.5841  0.0687
  799MOL0     N10141   3.756   4.603   6.844 -0.6936  0.0228  0.2455
  799MOL0     C10142   3.872   4.653   6.889  0.1974 -0.4370  0.5903
  799MOL0     C10143   3.973   4.571   6.856  0.4987 -0.8944 -0.7273
  799MOL0     C10144   4.108   4.569   6.928 -0.3562  0.6076  0.0897
  799MOL0     C10145   4.212   4.581   6.810  0.4895 -0.1772  0.0737
  799MOL0     C10146   4.351   4.620   6.853  0.2027 -0.8021 -0.2450
  799MOL0     C10147   4.348   4.778   6.873 -0.2881  0.0877 -0.3536
  799MOL0     O10148   4.270   4.819   6.984  0.0696  0.0546  0.0693
  799MOL0     C10149   4.328   4.825   7.111 -0.4950 -0.3085 -1.1708
  799MOL0     C10150   4.239   4.831   7.219  0.1703  0.6886 -0.4275
  799MOL0     C10151   4.287   4.855   7.353  0.1220 -0.6086  0.1852
  799MOL0     C10152   4.174   4.876   7.452  0.5325 -0.2526  0.4642
  799MOL0     C10153   4.425   4.859   7.383  0.5987  0.2822  0.6169
  799MOL0     C10154   4.479   4.893   7.516 -0.5214  0.4172 -0.0432
  799MOL0     O10155   4.622   4.871   7.523  0.6756 -0.1235  0.1030
  799MOL0     C10156   4.665   4.877   7.652  0.5060 -0.7895  0.5537
  799MOL0     C10157   4.637   4.784   7.756 -0.2501 -0.0348  0.9634
  799MOL0     C10158   4.672   4.808   7.889 -0.8346  0.3937 -0.1432
  799MOL0     C10159   4.717   4.942   7.926  0.6110  1.3940  0.3254
  799MOL0     O10160   4.755   4.978   8.051  0.6576  0.6460  0.3036
  799MOL0     C10161   4.789   4.883   8.161  1.3278  0.3981  0.5425
  799MOL0     C10162   4.871   4.949   8.277  0.3526  0.7190 -0.3278
  799MOL0     C10163   4.812   5.082   8.338  0.0264  0.0036  0.7914
  799MOL0     C10164   4.682   5.036   8.398 -0.4283  0.4315  0.1410
  799MOL0     C10165   4.601   5.153   8.447 -0.1450 -0.2284  0.0407
  799MOL0     C10166   4.462   5.137   8.514  0.3360  0.4498 -0.1251
  799MOL0     C10167   4.398   5.273   8.560 -0.5016 -0.7273 -1.0955
  799MOL0     C10168   4.254   5.245   8.611  0.4164 -0.1462  0.9209
  799MOL0    Cl10169   4.140   5.201   8.472 -0.1664  0.1417 -0.1003
  799MOL0     C10170   4.730   5.040   7.831  0.7835 -0.0233  0.4540
  799MOL0     C10171   4.710   5.011   7.697 -0.0865  0.4420  0.8033
  799MOL0     O10172   4.406   4.931   7.603 -0.6900 -0.1069  0.2532
  799MOL0     C10173   4.508   4.828   7.278 -0.1315 -0.8312 -0.6282
  799MOL0     C10174   4.469   4.808   7.143 -0.1387  0.6620 -0.7005
  799MOL0     N10175   3.915   4.485   6.766  0.9555 -0.0978 -0.7213
  799MOL0     N10176   3.788   4.506   6.757  0.4516  0.6466 -0.5832
  799MOL0     C10177   3.039   4.604   5.944  0.3981 -0.9040 -0.3953
  799MOL0     C10178   2.995   4.670   5.829  0.1115 -0.1873  0.2988
  799MOL0     C10179   2.936   5.055   5.549  0.8351  0.6199 -1.1694
  799MOL0     C10180   2.836   5.137   5.597  0.0734 -0.2453 -0.4534
  799MOL0     C10181   2.764   5.224   5.516  0.0981 -0.6622 -0.4451
  799MOL0     C10182   2.811   5.253   5.383 -0.2322  0.1347  0.1979
  799MOL0     O10183   2.743   5.324   5.285 -0.7443 -0.0111 -0.1586
  799MOL0     C10184   2.603   5.326   5.284 -0.3384  0.0194 -0.6824
  799MOL0     C10185   2.551   5.444   5.374  0.5507  0.4385  0.7220
  799MOL0     C10186   2.399   5.457   5.393 -0.7833  0.6657 -0.6433
  799MOL0     C10187   2.324   5.524   5.269 -0.1339 -0.4210 -0.1952
  799MOL0     C10188   2.177   5.482   5.278 -0.0239 -0.1505 -0.2173
  799MOL0     C10189   2.063   5.437   5.298  0.4113 -0.2683  0.5239
  799MOL0     C10190   2.918   5.175   5.337 -0.6555 -0.1798 -0.0502
  799MOL0     C10191   2.982   5.081   5.412  0.1401 -0.2843  0.5573
  799MOL0     C10192   3.086   5.003   5.333  0.6768 -0.6811  0.4497
  799MOL0     H10193   2.997   4.992   5.925 -2.6230  0.0324  0.0424
  799MOL0     H10194   3.080   4.882   6.143 -1.2186 -1.4848  1.8141
  799MOL0     H10195   3.032   4.691   6.345 -2.3535 -3.6303 -0.7897
  799MOL0     H10196   3.193   4.758   6.281 -0.1020 -0.6606 -0.2801
  799MOL0     H10197   3.138   4.490   6.400 -1.1616 -1.1312 -4.8294
  799MOL0     H10198   3.281   4.528   6.312  0.9922 -0.1723  0.7130
  799MOL0     H10199   3.195   4.674   6.576 -1.3131 -0.3587 -0.7006
  799MOL0     H10200   3.318   4.545   6.549  1.4735  0.6623 -1.3803
  799MOL0     H10201   3.453   4.692   6.410 -1.4201 -2.8180  0.7086
  799MOL0     H10202   3.328   4.819   6.407 -0.8641 -0.8388 -0.0313
  799MOL0     H10203   3.369   4.838   6.650  1.3066  1.0019  0.5271
  799MOL0     H10204   3.512   4.872   6.554  1.3696 -1.5641  0.2631
  799MOL0     H10205   3.466   4.605   6.696 -0.8425 -1.1263 -0.3593
  799MOL0     H10206   3.607   4.663   6.595  1.3968  3.1071  1.7265
  799MOL0     H10207   3.512   4.830   6.834  1.2532  2.1352 -1.5803
  799MOL0     H10208   3.662   4.815   6.741  0.2173 -3.6032 -2.9552
  799MOL0     H10209   3.629   4.700   6.973 -3.9504 -2.1692  1.7709
  799MOL0     H10210   3.559   4.567   6.868  2.5707 -1.4283 -0.0240
  799MOL0     H10211   3.873   4.732   6.964  0.7362  0.3901 -0.2591
  799MOL0     H10212   4.137   4.485   6.992 -0.9204 -0.3354 -0.8543
  799MOL0     H10213   4.101   4.651   7.000  1.0962  2.7265 -2.0260
  799MOL0     H10214   4.215   4.483   6.761  1.9519  0.5183 -1.3124
  799MOL0     H10215   4.177   4.659   6.742  0.1862  1.6193  2.1925
  799MOL0     H10216   4.388   4.576   6.945  1.3846 -1.2737 -0.9298
  799MOL0     H10217   4.418   4.609   6.767 -2.6921 -0.6581 -2.6943
  799MOL0     H10218   4.451   4.812   6.886 -0.6436  1.5813 -1.1840
  799MOL0     H10219   4.306   4.826   6.784 -0.2263 -0.7540 -0.8550
  799MOL0     H10220   4.135   4.836   7.189 -0.3743  0.6764  1.3057
  799MOL0     H10221   4.183   4.978   7.490  1.4031  0.9411 -2.6452
  799MOL0     H10222   4.185   4.812   7.540 -4.0807 -0.1143  1.3818
  799MOL0     H10223   4.071   4.864   7.417  0.3685 -3.0642  1.5935
  799MOL0     H10224   4.595   4.690   7.719  0.4204  0.2933 -0.7259
  799MOL0     H10225   4.655   4.737   7.969  2.6349 -0.5153 -0.0142
  799MOL0     H10226   4.711   4.823   8.208  1.4084  0.0833  0.2849
  799MOL0     H10227   4.855   4.808   8.116  0.0477 -0.4036 -0.0263
  799MOL0     H10228   4.896   4.877   8.354 -1.0848 -0.7730 -1.1911
  799MOL0     H10229   4.967   4.980   8.235 -0.4642  1.2962 -1.8641
  799MOL0     H10230   4.803   5.157   8.259  0.9771  0.2280  0.8787
  799MOL0     H10231   4.883   5.116   8.414  0.0584  0.5556  0.5173
  799MOL0     H10232   4.718   4.976   8.482 -2.6486  2.1456  2.4504
  799MOL0     H10233   4.621   4.968   8.337  4.1957 -1.5286 -2.8872
  799MOL0     H10234   4.662   5.208   8.519 -0.7054  0.6372 -0.1246
  799MOL0     H10235   4.583   5.229   8.371  3.3779  0.7705  0.0539
  799MOL0     H10236   4.473   5.070   8.600  0.9278  0.3820 -0.2494
  799MOL0     H10237   4.399   5.100   8.433 -1.6322  0.8759  1.1359
  799MOL0     H10238   4.384   5.337   8.472 -1.3435 -1.3590 -1.4357
  799MOL0     H10239   4.473   5.310   8.630  0.7300  1.4665 -3.3825
  799MOL0     H10240   4.211   5.337   8.652  0.0345 -0.0408  0.3072
  799MOL0     H10241   4.242   5.164   8.683 -0.5807  0.6606  1.6927
  799MOL0     H10242   4.754   5.138   7.872 -1.3973 -0.1085  2.1118
  799MOL0     H10243   4.734   5.086   7.623  3.8877  0.3604  1.7472
  799MOL0     H10244   4.613   4.823   7.303 -0.5395 -0.8759  1.1957
  799MOL0     H10245   4.546   4.803   7.067 -0.8388  0.0490 -1.3850
  799MOL0     H10246   3.033   4.496   5.948  3.7268 -1.1544  0.7849
  799MOL0     H10247   2.952   4.602   5.757 -2.5159 -0.0800  1.6352
  799MOL0     H10248   2.803   5.133   5.700 -1.5973 -0.1048 -0.9523
  799MOL0     H10249   2.681   5.275   5.563  1.0595 -0.5779  1.2765
  799MOL0     H10250   2.561   5.341   5.184  0.3586  0.0150 -0.9833
  799MOL0     H10251   2.571   5.232   5.331  2.0885  1.0281  3.4795
  799MOL0     H10252   2.583   5.542   5.340  0.3856 -0.6989 -3.1494
  799MOL0     H10253   2.594   5.420   5.472 -1.2841  1.2809  1.7978
  799MOL0     H10254   2.351   5.361   5.416 -5.7891  3.1586  0.8850
  799MOL0     H10255   2.379   5.518   5.482  0.9600  1.8643 -1.0314
  799MOL0     H10256   2.370   5.489   5.176  1.8465  2.0358 -0.2400
  799MOL0     H10257   2.337   5.632   5.263 -0.8406 -0.4132 -2.4751
  799MOL0     H10258   1.961   5.409   5.309  1.0117 -2.4931  0.8906
  799MOL0     H10259   2.933   5.183   5.230 -2.0244 -2.4098 -0.4718
  799MOL0     H10260   3.053   4.978   5.232  0.2296  0.8659  0.1781
  799MOL0     H10261   3.180   5.058   5.334  0.3553  0.4510  6.3915
  799MOL0     H10262   3.091   4.912   5.394 -0.8935  1.3634  3.9341
  800MOL0     O10263  11.079   7.422   5.490  0.5957  0.0251  0.5590
  800MOL0     C10264  10.960   7.423   5.457  0.8156 -0.6807  0.0028
  800MOL0     O10265  10.867   7.318   5.484  0.4587 -0.8821 -0.2416
  800MOL0     C10266  10.906   7.220   5.571  0.6189  0.8961 -0.0605
  800MOL0     C10267  10.858   7.231   5.699  0.9060 -0.6224  0.5552
  800MOL0     C10268  10.888   7.140   5.800  0.6153 -1.2174  0.7504
  800MOL0     C10269  10.983   7.040   5.771  0.4514  1.0336 -0.3965
  800MOL0     O10270  11.006   6.955   5.872 -0.3822  0.0362 -0.0069
  800MOL0     C10271  11.144   6.942   5.905  0.2132  0.7420  0.2177
  800MOL0     C10272  11.155   6.888   6.050  0.2069  0.0982  0.2253
  800MOL0     C10273  11.306   6.902   6.080  0.4452  0.3410 -0.1858
  800MOL0     C10274  11.353   6.875   6.223 -0.4722 -0.2387  0.3349
  800MOL0     C10275  11.285   6.978   6.320 -0.4770  0.2565 -0.0439
  800MOL0     C10276  11.357   6.989   6.445 -0.6520  1.0107 -0.9829
  800MOL0     C10277  11.282   7.058   6.561 -0.3092  0.4569  0.4736
  800MOL0     C10278  11.138   7.023   6.586  0.3087  0.7290  0.6219
  800MOL0     N10279  11.072   7.132   6.657 -0.6618  0.0415 -0.0275
  800MOL0     C10280  11.037   7.252   6.602  0.9380 -0.7861  0.2847
  800MOL0     C10281  10.999   7.335   6.705  0.4503  0.8620  0.9643
  800MOL0     C10282  10.929   7.466   6.696  0.0601 -1.0064  0.4776
  800MOL0     C10283  11.038   7.567   6.666  0.0221  0.8364 -1.2592
  800MOL0     C10284  10.977   7.704   6.646  0.8053  0.0214 -0.4255
  800MOL0     C10285  10.899   7.772   6.767 -0.2369  1.2594 -0.7410
  800MOL0     O10286  10.987   7.791   6.884  0.2630  0.1242 -0.3109
  800MOL0     C10287  10.933   7.845   6.998  0.2653 -0.7747  0.2960
  800MOL0     C10288  10.810   7.793   7.037 -0.0732 -0.2875  0.2248
  800MOL0     C10289  10.754   7.833   7.164 -0.8892  0.6390  0.7915
  800MOL0     C10290  10.633   7.763   7.212  1.0478  0.5092  0.1403
  800MOL0     C10291  10.821   7.939   7.241  1.1589  0.0402 -0.1996
  800MOL0     C10292  10.772   7.994   7.371  0.5109 -0.3868  0.4859
  800MOL0     O10293  10.850   8.084   7.425  0.0191  0.0271 -0.2755
  800MOL0     C10294  10.797   8.187   7.504 -1.2511  0.8220  0.3628
  800MOL0     C10295  10.745   8.290   7.433 -0.4995  0.6504  0.6591
  800MOL0     C10296  10.700   8.403   7.501 -0.4132 -0.3899  0.3190
  800MOL0     C10297  10.702   8.419   7.637  0.0754  0.2639 -0.4499
  800MOL0     O10298  10.657   8.517   7.723  0.0626 -0.0979  0.4029
  800MOL0     C10299  10.646   8.647   7.672 -0.2102  0.1781  0.0302
  800MOL0     C10300  10.505   8.658   7.611  0.2185 -0.2325 -0.3313
  800MOL0     C10301  10.405   8.652   7.723  0.2315  0.1522 -0.3420
  800MOL0     C10302  10.263   8.699   7.689  0.4524  0.1091  0.1404
  800MOL0     C10303  10.186   8.652   7.802  0.7075 -0.4337  0.9355
  800MOL0     C10304  10.034   8.652   7.782 -0.0549 -1.0076  0.4141
  800MOL0     C10305   9.956   8.627   7.915  0.8109 -0.6175 -0.7818
  800MOL0     C10306   9.805   8.645   7.897 -0.9978 -0.8613  0.4264
  800MOL0    Cl10307   9.732   8.510   7.805  0.0631  0.1341 -0.6900
  800MOL0     C10308  10.750   8.307   7.707 -0.0982 -0.5107 -0.5133
  800MOL0     C10309  10.801   8.197   7.645 -0.4006  0.8464  0.1272
  800MOL0     O10310  10.676   7.957   7.430  0.6997  0.5048 -0.3697
  800MOL0     C10311  10.943   7.991   7.191  0.2345  0.4663  0.4133
  800MOL0     C10312  11.005   7.936   7.079  0.4422 -0.3481  0.3580
  800MOL0     N10313  11.010   7.258   6.819 -0.6013  0.7818  0.5962
  800MOL0     N10314  11.046   7.138   6.787  0.1465  0.5607 -0.5338
  800MOL0     C10315  11.042   7.033   5.638 -0.6845 -0.0440 -0.0613
  800MOL0     C10316  11.002   7.123   5.545 -0.1599 -0.0093  0.2967
  800MOL0     C10317  10.913   7.541   5.368 -0.6211  0.5668  0.2561
  800MOL0     C10318  11.028   7.611   5.301  0.0692 -1.3312  0.1453
  800MOL0     C10319  10.997   7.705   5.205 -0.5830  0.0700  0.3154
  800MOL0     C10320  10.868   7.736   5.168  0.0603 -0.6395 -0.4641
  800MOL0     O10321  10.862   7.815   5.063 -0.7800  0.5489  0.0905
  800MOL0     C10322  10.743   7.892   5.038 -0.4780  0.1840  0.3159
  800MOL0     C10323  10.700   7.978   5.149 -0.0050 -1.5884  0.8937
  800MOL0     C10324  10.602   8.088   5.096 -0.2208 -0.1202 -0.0573
  800MOL0     C10325  10.570   8.210   5.185 -0.4034 -0.3313 -0.3614
  800MOL0     C10326  10.443   8.260   5.132  0.5705 -0.2791  0.0966
  800MOL0     C10327  10.327   8.297   5.099 -0.5392 -0.0169  0.1860
  800MOL0     C10328  10.758   7.669   5.228  0.3664  0.0746  0.4938
  800MOL0     C10329  10.776   7.575   5.335 -0.4805  0.1855 -0.1811
  800MOL0     C10330  10.651   7.501   5.384  0.1073  1.2251  0.5650
  800MOL0     H10331  10.799   7.314   5.737  3.0699  0.6502  1.3428
  800MOL0     H10332  10.861   7.161   5.903  3.1968  3.5856  0.7498
  800MOL0     H10333  11.201   7.034   5.892  1.5395 -0.3216 -2.1291
  800MOL0     H10334  11.184   6.872   5.831 -0.7374  1.0101 -0.5789
  800MOL0     H10335  11.091   6.951   6.113 -4.1171 -1.5571 -2.0445
  800MOL0     H10336  11.117   6.786   6.062  0.8703 -0.0184  1.4981
  800MOL0     H10337  11.358   6.836   6.010 -0.9045 -1.9297  0.8342
  800MOL0     H10338  11.331   7.006   6.057  0.3049  0.8363  1.6967
  800MOL0     H10339  11.325   6.778   6.264  1.6042  0.2634  3.2749
  800MOL0     H10340  11.462   6.882   6.231 -0.2011  1.1855 -2.7875
  800MOL0     H10341  11.181   6.944   6.322  0.6681 -3.7489 -0.5734
  800MOL0     H10342  11.291   7.079   6.276  1.5118 -1.1082 -3.2904
  800MOL0     H10343  11.383   6.888   6.478 -0.4805  1.0926 -0.8645
  800MOL0     H10344  11.454   7.038   6.431 -0.0997  0.7252  1.3373
  800MOL0     H10345  11.286   7.165   6.538 -2.0095  0.5142  0.3267
  800MOL0     H10346  11.339   7.034   6.651  2.6128 -0.4251 -1.4541
  800MOL0     H10347  11.074   6.987   6.505  0.9990 -3.4420  1.6953
  800MOL0     H10348  11.152   6.942   6.658  0.0105  1.6670  1.7773
  800MOL0     H10349  11.021   7.282   6.499 -2.9321  0.6822  1.1348
  800MOL0     H10350  10.881   7.495   6.790  0.1574 -0.4784  0.3719
  800MOL0     H10351  10.853   7.459   6.617 -0.1956 -2.4289  0.8271
  800MOL0     H10352  11.125   7.575   6.732  2.2062  0.0964 -3.8301
  800MOL0     H10353  11.089   7.525   6.578 -0.1166 -0.1710 -0.8683
  800MOL0     H10354  11.059   7.770   6.618 -2.2899  3.7106 -1.5676
  800MOL0     H10355  10.893   7.698   6.576  0.1586 -1.2599  0.4134
  800MOL0     H10356  10.866   7.870   6.731  1.8785  1.9852 -0.8560
  800MOL0     H10357  10.821   7.701   6.795  2.1800 -2.5628 -2.8032
  800MOL0     H10358  10.751   7.716   6.988 -2.5578 -2.0122  5.1847
  800MOL0     H10359  10.658   7.709   7.304  0.2733  2.0565  1.3022
  800MOL0     H10360  10.580   7.699   7.140 -1.0789  1.6776  0.5800
  800MOL0     H10361  10.565   7.843   7.244  1.7720  0.9807  0.5237
  800MOL0     H10362  10.738   8.278   7.325  0.0506  1.9377  0.4647
  800MOL0     H10363  10.668   8.490   7.444  0.9178  0.2984  0.5775
  800MOL0     H10364  10.663   8.717   7.754  0.7297 -0.3716  0.3230
  800MOL0     H10365  10.717   8.678   7.595  0.4732 -0.2324  0.4766
  800MOL0     H10366  10.483   8.742   7.544  2.2696  1.6826  1.2139
  800MOL0     H10367  10.492   8.575   7.541 -2.6074 -2.5347  2.6069
  800MOL0     H10368  10.437   8.706   7.813  0.4121  0.1988 -0.4331
  800MOL0     H10369  10.412   8.545   7.747 -2.7397 -0.4005 -1.5601
  800MOL0     H10370  10.228   8.652   7.597  1.7328 -2.3411  0.8121
  800MOL0     H10371  10.265   8.808   7.675 -1.4945 -0.0038 -1.5243
  800MOL0     H10372  10.218   8.551   7.830  1.9458 -0.2282  0.3507
  800MOL0     H10373  10.205   8.720   7.886 -0.9792  1.6541 -0.2723
  800MOL0     H10374  10.004   8.566   7.721 -0.7055 -0.7863  0.4088
  800MOL0     H10375  10.000   8.744   7.731  2.4762 -0.1144  0.2218
  800MOL0     H10376   9.978   8.700   7.993 -6.8675  0.0628  1.5534
  800MOL0     H10377   9.992   8.530   7.951 -3.5210 -1.2903  2.6391
  800MOL0     H10378   9.793   8.728   7.826  3.7157 -1.8434 -1.9280
  800MOL0     H10379   9.758   8.684   7.988 -0.3379  3.5143 -0.8825
  800MOL0     H10380  10.736   8.309   7.815  1.2506 -2.0724 -0.2682
  800MOL0     H10381  10.840   8.116   7.706 -0.7927 -0.1224 -0.8787
  800MOL0     H10382  11.004   8.065   7.243  0.8069 -0.0664  0.5093
  800MOL0     H10383  11.109   7.963   7.063  0.6927 -0.5563  1.5704
  800MOL0     H10384  11.111   6.953   5.614  1.6749  0.9973  2.7234
  800MOL0     H10385  11.054   7.115   5.450 -2.4192  1.7764 -1.1871
  800MOL0     H10386  11.131   7.591   5.332 -0.5543 -3.1228  1.2903
  800MOL0     H10387  11.073   7.755   5.147 -0.7213  1.8169  1.5604
  800MOL0     H10388  10.762   7.959   4.953 -1.6163 -3.5086 -3.1297
  800MOL0     H10389  10.656   7.833   5.009  0.5718 -1.8670  1.1274
  800MOL0     H10390  10.782   8.026   5.204  0.6269  0.5533 -1.7220
  800MOL0     H10391  10.659   7.914   5.227  2.9877 -2.8318  1.5973
  800MOL0     H10392  10.643   8.114   4.998 -0.1892 -1.3591 -0.3961
  800MOL0     H10393  10.508   8.036   5.075 -0.2675 -0.0186 -0.1019
  800MOL0     H10394  10.652   8.281   5.203 -1.3762  0.0499  3.3804
  800MOL0     H10395  10.546   8.174   5.285  0.5309  1.0193  0.3758
  800MOL0     H10396  10.227   8.322   5.071 -0.4582 -1.4848 -1.5848
  800MOL0     H10397  10.657   7.692   5.193  0.7500  0.1335 -0.6152
  800MOL0     H10398  10.564   7.561   5.356  0.2086  1.0108 -0.2274
  800MOL0     H10399  10.655   7.413   5.320 -0.4611  0.1526  1.9487
  800MOL0     H10400  10.637   7.467   5.487 -0.4282 -0.7253 -0.1236
  801MOL0     O10401   4.508  10.059   4.971  0.4890 -0.0770  0.0471
  801MOL0     C10402   4.434  10.105   4.886 -0.3062 -0.4004  0.1730
  801MOL0     O10403   4.452  10.222   4.825  0.4429 -0.7733  0.3602
  801MOL0     C10404   4.550  10.304   4.872  0.9602 -0.6425 -0.0298
  801MOL0     C10405   4.632  10.362   4.771  0.4949 -1.0960 -0.7308
  801MOL0     C10406   4.732  10.451   4.800 -1.0185 -0.1317 -0.3870
  801MOL0     C10407   4.752  10.495   4.934 -0.2992 -0.3555 -1.3167
  801MOL0     O10408   4.853  10.583   4.952 -0.9035  0.1204 -0.3294
  801MOL0     C10409   4.972  10.508   5.002 -0.9221  0.2789  0.1849
  801MOL0     C10410   5.001  10.527   5.153  0.2837 -0.0758 -0.3733
  801MOL0     C10411   5.035  10.670   5.198 -0.4039  0.1791 -0.4775
  801MOL0     C10412   5.184  10.695   5.178  0.5461 -0.4999  0.7302
  801MOL0     C10413   5.239  10.806   5.275  0.4689 -0.3569 -0.1741
  801MOL0     C10414   5.380  10.851   5.231 -0.0502  0.2353  0.6503
  801MOL0     C10415   5.400  10.949   5.120 -0.8854 -0.3167 -0.5883
  801MOL0     C10416   5.555  10.955   5.082  0.0817 -0.0532  0.3059
  801MOL0     N10417   5.629  10.985   5.203  0.4031  0.0208  0.6497
  801MOL0     C10418   5.633  11.094   5.285 -0.0318 -1.0534  1.1791
  801MOL0     C10419   5.742  11.076   5.363 -0.2171 -0.1018 -0.0266
  801MOL0     C10420   5.782  11.185   5.465  0.7639 -0.6331  1.1408
  801MOL0     C10421   5.828  11.120   5.591  0.2020  0.2322  0.1895
  801MOL0     C10422   5.974  11.073   5.591 -0.7830  0.0845 -0.9535
  801MOL0     C10423   5.983  10.935   5.645 -0.4361 -0.2853 -0.3870
  801MOL0     O10424   5.963  10.950   5.785  0.2239 -0.5106 -0.5282
  801MOL0     C10425   5.966  10.843   5.869 -0.8966  0.0126 -0.3174
  801MOL0     C10426   6.003  10.714   5.829 -0.0575 -0.2436 -0.6263
  801MOL0     C10427   6.007  10.602   5.920  0.0116 -0.5018  0.0152
  801MOL0     C10428   6.037  10.472   5.856  0.6563  0.1490 -0.5469
  801MOL0     C10429   5.990  10.629   6.062  0.5611 -0.2795  0.4169
  801MOL0     C10430   6.002  10.517   6.167  0.7001 -0.9016 -0.4236
  801MOL0     O10431   6.082  10.534   6.275 -0.7800 -0.2507 -0.5004
  801MOL0     C10432   6.076  10.436   6.370  0.0176 -0.0600 -0.5400
  801MOL0     C10433   6.166  10.333   6.377 -0.4000  0.6680  0.5667
  801MOL0     C10434   6.154  10.237   6.476 -0.4675  0.0231 -0.4628
  801MOL0     C10435   6.043  10.231   6.563  0.7308 -0.5068 -0.5431
  801MOL0     O10436   6.010  10.123   6.653 -0.0966 -0.0267  0.3829
  801MOL0     C10437   6.001  10.163   6.796  0.1829  0.4822  0.0264
  801MOL0     C10438   6.056  10.063   6.893  0.1127 -0.0320  0.6324
  801MOL0     C10439   6.055  10.116   7.037  0.6392 -0.9349  0.1234
  801MOL0     C10440   6.097  10.012   7.137  0.1739  0.9520  0.3907
  801MOL0     C10441   6.007   9.886   7.142 -0.2484 -0.2651 -0.0513
  801MOL0     C10442   6.063   9.785   7.237  0.7679 -0.7667 -0.7768
  801MOL0     C10443   5.973   9.659   7.242  0.3987  0.4016 -0.9829
  801MOL0     C10444   6.001   9.551   7.360 -0.5985  1.2626 -0.7459
  801MOL0    Cl10445   5.896   9.407   7.351 -0.4221 -0.1289 -0.1804
  801MOL0     C10446   5.945  10.339   6.559 -0.7858  0.9222 -0.1511
  801MOL0     C10447   5.965  10.438   6.463  0.6795  0.8302 -0.1361
  801MOL0     O10448   5.950  10.409   6.139 -0.6956  0.2951 -0.0914
  801MOL0     C10449   5.954  10.760   6.097 -0.1664  0.0902  1.3150
  801MOL0     C10450   5.949  10.863   6.008  0.1585  0.1805  0.3984
  801MOL0     N10451   5.809  10.965   5.326  0.6315  0.0137  0.0441
  801MOL0     N10452   5.737  10.914   5.237  0.1657  0.5221  0.1174
  801MOL0     C10453   4.672  10.442   5.039  1.0098 -0.6588  0.4502
  801MOL0     C10454   4.581  10.345   5.001  0.0657 -0.2766 -0.0406
  801MOL0     C10455   4.308  10.046   4.859 -0.5767  0.2959  0.3467
  801MOL0     C10456   4.202  10.131   4.811  0.1360  0.2960  0.8132
  801MOL0     C10457   4.076  10.073   4.788 -0.1152  0.3819  0.9144
  801MOL0     C10458   4.057   9.935   4.791  0.2796  0.1088  0.0610
  801MOL0     O10459   3.932   9.891   4.759  1.1754 -0.1526 -0.3579
  801MOL0     C10460   3.906   9.749   4.759  0.0285  0.1263  0.3014
  801MOL0     C10461   3.759   9.727   4.714 -0.5491  0.1903 -0.6072
  801MOL0     C10462   3.731   9.757   4.572  0.4192  0.2744 -0.2213
  801MOL0     C10463   3.718   9.625   4.500 -0.7626  0.4491  0.6634
  801MOL0     C10464   3.681   9.646   4.358 -0.5614 -0.3465  0.0491
  801MOL0     C10465   3.659   9.663   4.241  0.2758 -0.4061  0.5231
  801MOL0     C10466   4.166   9.856   4.833  1.0785  0.4559 -0.0112
  801MOL0     C10467   4.284   9.905   4.873 -0.1646  0.3179 -0.0981
  801MOL0     C10468   4.385   9.806   4.920 -0.1614 -0.1577  0.0684
  801MOL0     H10469   4.606  10.346   4.667 -0.0332  1.3809 -1.0407
  801MOL0     H10470   4.798  10.494   4.725  1.2610 -1.1702  0.9318
  801MOL0     H10471   5.065  10.540   4.956  1.3997 -2.4206  2.6216
  801MOL0     H10472   4.948  10.402   4.988 -1.3780  0.0454  2.3858
  801MOL0     H10473   4.906  10.504   5.203  0.8898 -3.5342 -0.5678
  801MOL0     H10474   5.075  10.464   5.203 -1.4798 -0.7409  1.5773
  801MOL0     H10475   4.976  10.751   5.155  0.2521  0.7669 -0.2922
  801MOL0     H10476   5.019  10.666   5.307  0.3186 -1.7397 -0.3917
  801MOL0     H10477   5.250  10.608   5.187 -0.1867 -1.0122  1.2543
  801MOL0     H10478   5.194  10.722   5.073 -3.5085  0.6285  0.4579
  801MOL0     H10479   5.244  10.778   5.380  4.1090  0.0060 -0.1490
  801MOL0     H10480   5.166  10.887   5.265  1.0877  0.5134  1.9606
  801MOL0     H10481   5.416  10.891   5.326 -1.3475  1.3543  0.7043
  801MOL0     H10482   5.427  10.757   5.200 -0.8987  0.2125 -0.6913
  801MOL0     H10483   5.365  11.046   5.156 -2.0013 -0.2091 -1.8927
  801MOL0     H10484   5.345  10.908   5.035  2.2026 -1.6317 -2.1096
  801MOL0     H10485   5.588  10.865   5.030 -0.4663 -2.9348  4.4353
  801MOL0     H10486   5.572  11.044   5.021 -0.6006  0.3529  0.6895
  801MOL0     H10487   5.566  11.179   5.278  1.2229 -0.1483 -0.7516
  801MOL0     H10488   5.698  11.250   5.493  0.4121 -0.0332 -1.0876
  801MOL0     H10489   5.861  11.244   5.419  0.8801 -2.2356 -0.8389
  801MOL0     H10490   5.811  11.196   5.668 -0.2742 -0.9407  1.2829
  801MOL0     H10491   5.768  11.038   5.631 -0.7586  0.5090 -0.6495
  801MOL0     H10492   6.002  11.067   5.486 -3.9872  1.7405 -2.0336
  801MOL0     H10493   6.031  11.142   5.654  0.1242 -2.0169  0.6611
  801MOL0     H10494   5.910  10.869   5.599 -1.2294 -0.9800  1.7666
  801MOL0     H10495   6.087  10.908   5.624 -0.2733 -0.6553  0.8329
  801MOL0     H10496   6.012  10.682   5.725  0.6787 -0.4998 -0.4962
  801MOL0     H10497   6.072  10.495   5.755 -0.3092  3.2928 -0.2715
  801MOL0     H10498   5.952  10.404   5.847  1.2195 -0.4932 -1.1122
  801MOL0     H10499   6.119  10.413   5.897  3.2863  2.2194 -2.4173
  801MOL0     H10500   6.244  10.335   6.302 -2.6872  1.3884 -1.9432
  801MOL0     H10501   6.230  10.164   6.501  0.2988  1.1655  0.6382
  801MOL0     H10502   6.046  10.262   6.787 -1.6324  1.1706 -2.8662
  801MOL0     H10503   5.897  10.190   6.815 -0.8341 -1.0664 -2.7050
  801MOL0     H10504   6.001   9.969   6.880 -0.9741  0.5930  0.6094
  801MOL0     H10505   6.159  10.053   6.856  0.6037  0.4683  1.7932
  801MOL0     H10506   5.955  10.149   7.066  0.9394  1.3081 -1.1294
  801MOL0     H10507   6.115  10.206   7.057  0.2622 -1.2891  3.4492
  801MOL0     H10508   6.109  10.055   7.237 -0.4691 -0.5652  1.1495
  801MOL0     H10509   6.189   9.961   7.105 -1.0326 -1.2101  0.1899
  801MOL0     H10510   5.913   9.921   7.185 -0.0371  1.0146 -0.5786
  801MOL0     H10511   5.996   9.847   7.040  0.6864  0.4887 -0.4539
  801MOL0     H10512   6.067   9.823   7.339 -0.1134 -1.2007 -0.5728
  801MOL0     H10513   6.166   9.759   7.211  1.0174 -1.2413  0.6512
  801MOL0     H10514   5.991   9.612   7.145  0.7456  2.8337 -2.1956
  801MOL0     H10515   5.867   9.684   7.242  0.3890  0.3924 -1.8365
  801MOL0     H10516   5.976   9.610   7.449  0.5394 -0.4062  0.7592
  801MOL0     H10517   6.106   9.522   7.369 -0.8022  0.7863  0.2263
  801MOL0     H10518   5.860  10.340   6.626  0.7473  1.7563  1.8908
  801MOL0     H10519   5.897  10.518   6.438  0.7678  0.9708  0.0723
  801MOL0     H10520   5.937  10.780   6.203  0.0427  1.2755  1.1450
  801MOL0     H10521   5.937  10.966   6.041 -1.6633  0.0216  0.3775
  801MOL0     H10522   4.697  10.466   5.142  1.0877 -1.3898  0.6090
  801MOL0     H10523   4.528  10.293   5.081  0.7372  0.3313  0.8239
  801MOL0     H10524   4.210  10.240   4.807  0.4011  0.2430 -0.6060
  801MOL0     H10525   3.984  10.123   4.759 -0.5614  0.0242  1.6733
  801MOL0     H10526   3.953   9.692   4.679 -0.8191  0.3166 -0.3424
  801MOL0     H10527   3.921   9.714   4.861  1.3656  1.2644  0.5247
  801MOL0     H10528   3.701   9.791   4.781  0.9098  0.3112  0.6119
  801MOL0     H10529   3.724   9.627   4.740  1.3727 -0.1771  0.8663
  801MOL0     H10530   3.639   9.816   4.563 -0.3222 -0.9979 -1.2740
  801MOL0     H10531   3.815   9.811   4.528  2.0515 -1.2797  0.8605
  801MOL0     H10532   3.646   9.563   4.554  1.3989 -0.9427  2.0735
  801MOL0     H10533   3.815   9.575   4.497 -1.6574 -1.2837 -1.3748
  801MOL0     H10534   3.609   9.678   4.147  2.8136  2.3035 -0.5476
  801MOL0     H10535   4.145   9.750   4.843 -0.6776  0.9625  2.7119
  801MOL0     H10536   4.468   9.815   4.848  0.2416 -1.1512  0.3847
  801MOL0     H10537   4.413   9.826   5.023  2.3916 -1.2089 -0.3344
  801MOL0     H10538   4.344   9.704   4.923  1.8861 -1.0304  0.8623
  802MOL0     O10539   8.310   3.957   5.468 -0.1384  0.6785  0.6563
  802MOL0     C10540   8.376   3.963   5.568  0.7700 -0.3211 -0.1024
  802MOL0     O10541   8.432   3.854   5.625 -0.0895 -0.0819  0.3984
  802MOL0     C10542   8.345   3.754   5.641 -0.4424  0.9903  0.2535
  802MOL0     C10543   8.408   3.627   5.649 -0.7918  0.2345  1.1692
  802MOL0     C10544   8.347   3.507   5.669  0.1167  0.0482  0.6558
  802MOL0     C10545   8.210   3.512   5.695  0.8681 -0.6633 -0.2505
  802MOL0     O10546   8.142   3.395   5.703 -0.4509 -0.6823  0.0889
  802MOL0     C10547   8.033   3.388   5.610 -0.3100  0.6125  0.8899
  802MOL0     C10548   7.938   3.267   5.644 -0.4529 -0.1837 -1.9243
  802MOL0     C10549   7.998   3.135   5.594 -0.2425  1.0390  0.5303
  802MOL0     C10550   7.895   3.030   5.626 -0.1306  0.3723 -0.2432
  802MOL0     C10551   7.960   2.902   5.678 -0.2391 -0.5959 -0.0972
  802MOL0     C10552   8.075   2.832   5.597  0.0400 -0.2724  0.1475
  802MOL0     C10553   8.132   2.706   5.669 -0.7203  0.1275 -0.2500
  802MOL0     C10554   8.238   2.740   5.776  0.8228 -0.1201 -0.1904
  802MOL0     N10555   8.368   2.777   5.720  0.5790 -1.1882 -0.6718
  802MOL0     C10556   8.412   2.902   5.680  0.1996  0.3962  0.2469
  802MOL0     C10557   8.512   2.886   5.595  0.1004  0.6114  0.2888
  802MOL0     C10558   8.591   2.984   5.512 -0.2423 -0.3008 -0.0436
  802MOL0     C10559   8.617   2.926   5.374 -0.5094 -0.0398 -1.1371
  802MOL0     C10560   8.751   2.847   5.362  0.7236 -0.5549 -0.2709
  802MOL0     C10561   8.876   2.923   5.327  1.3580  0.0382  0.2280
  802MOL0     O10562   8.868   2.975   5.189  0.6177 -0.4423 -0.2510
  802MOL0     C10563   8.986   2.999   5.128  0.1717  0.5586 -0.1970
  802MOL0     C10564   8.991   2.979   4.991  0.0184  0.2464  0.0853
  802MOL0     C10565   9.112   2.988   4.915 -0.0886 -0.7067  0.2516
  802MOL0     C10566   9.108   2.945   4.779  0.1319 -0.5321 -0.4148
  802MOL0     C10567   9.236   3.024   4.985  0.0303  0.4363  0.6823
  802MOL0     C10568   9.358   3.051   4.907  0.6440  0.3031 -0.2375
  802MOL0     O10569   9.346   3.104   4.776 -0.5807  0.8554  0.4457
  802MOL0     C10570   9.460   3.102   4.703  0.0622  0.2844 -0.2739
  802MOL0     C10571   9.514   3.213   4.631 -0.7696 -0.2801 -0.0022
  802MOL0     C10572   9.627   3.198   4.551  0.9307  0.0725 -0.1717
  802MOL0     C10573   9.698   3.073   4.542 -0.5249 -1.0028  0.9060
  802MOL0     O10574   9.807   3.041   4.451 -0.1239 -0.6179  0.2448
  802MOL0     C10575   9.879   3.139   4.376 -0.3816 -0.3904  0.6811
  802MOL0     C10576   9.952   3.056   4.263 -0.2521 -0.2267 -0.6936
  802MOL0     C10577  10.104   3.087   4.253  0.3742 -0.1619  0.0371
  802MOL0     C10578  10.178   3.037   4.137  0.2332  0.9170  0.5051
  802MOL0     C10579  10.333   3.071   4.145  0.3683 -0.7208  0.4897
  802MOL0     C10580  10.401   3.025   4.014 -0.5630  0.5953 -0.3384
  802MOL0     C10581  10.538   3.109   3.998 -0.3846  0.2471 -0.4934
  802MOL0     C10582  10.644   3.073   3.900  0.9254  0.3686  0.0446
  802MOL0    Cl10583  10.746   2.937   3.968 -0.0287 -0.1945  0.1052
  802MOL0     C10584   9.644   2.968   4.611  0.5009  0.5103  1.0239
  802MOL0     C10585   9.521   2.981   4.692 -0.4699  0.1297  0.7367
  802MOL0     O10586   9.461   3.041   4.977  0.2049 -0.2990  0.0341
  802MOL0     C10587   9.233   3.022   5.125 -0.2322 -1.2338  0.0934
  802MOL0     C10588   9.113   3.008   5.195 -0.2143 -0.1126 -0.3037
  802MOL0     N10589   8.545   2.748   5.597  0.7216  0.2394  0.0410
  802MOL0     N10590   8.439   2.690   5.656  0.6423 -0.3386 -0.0731
  802MOL0     C10591   8.146   3.646   5.707  0.3664 -0.4023 -0.0138
  802MOL0     C10592   8.214   3.764   5.680  0.4289  0.3655  0.3398
  802MOL0     C10593   8.439   4.093   5.616  0.0751  0.2937  0.8375
  802MOL0     C10594   8.566   4.082   5.685  0.9925  0.3829  0.2195
  802MOL0     C10595   8.624   4.200   5.736  0.5186 -0.2621 -0.2221
  802MOL0     C10596   8.570   4.328   5.715 -0.1709  0.1822 -0.6939
  802MOL0     O10597   8.641   4.434   5.775  0.1476 -0.2590  0.1451
  802MOL0     C10598   8.578   4.558   5.788  0.7337 -0.6983  0.1339
  802MOL0     C10599   8.621   4.622   5.913 -0.8139 -0.1475 -0.8634
  802MOL0     C10600   8.779   4.655   5.922  0.0047 -0.0342  0.1396
  802MOL0     C10601   8.806   4.736   6.043  0.3830 -0.8615 -0.3301
  802MOL0     C10602   8.736   4.873   6.056  0.0963  0.0749  0.7094
  802MOL0     C10603   8.664   4.971   6.072 -0.5335  0.3734 -0.1920
  802MOL0     C10604   8.445   4.338   5.647  0.1139  0.3616 -0.3224
  802MOL0     C10605   8.382   4.222   5.590  0.1861 -0.1167  0.3340
  802MOL0     C10606   8.255   4.246   5.515  0.1561  0.2262  1.3315
  802MOL0     H10607   8.516   3.627   5.635 -0.5236  0.9647  3.0266
  802MOL0     H10608   8.405   3.416   5.664 -2.3067 -1.5095 -0.8869
  802MOL0     H10609   8.060   3.367   5.506 -5.0098 -0.6833 -0.3226
  802MOL0     H10610   7.977   3.482   5.605  0.1188  0.9098 -3.9854
  802MOL0     H10611   7.923   3.267   5.752  3.9514  1.1903 -1.1500
  802MOL0     H10612   7.838   3.282   5.601 -0.7362  2.2926 -0.6081
  802MOL0     H10613   8.016   3.134   5.486  1.3078  0.8898  0.7752
  802MOL0     H10614   8.095   3.116   5.641 -0.6386  0.6739  1.2113
  802MOL0     H10615   7.838   3.072   5.710 -0.4206  0.9017 -0.6900
  802MOL0     H10616   7.831   3.017   5.538  2.0020 -1.5780 -1.5963
  802MOL0     H10617   7.883   2.827   5.695 -0.7442 -0.3325 -1.1119
  802MOL0     H10618   8.011   2.927   5.772 -0.4088  2.0312 -0.6138
  802MOL0     H10619   8.024   2.797   5.507  0.4707 -0.5628  0.0134
  802MOL0     H10620   8.153   2.901   5.566 -0.4094  1.0378  1.7840
  802MOL0     H10621   8.191   2.648   5.597  3.9085  0.7813  2.6668
  802MOL0     H10622   8.050   2.649   5.714  0.3768  0.2174  1.9851
  802MOL0     H10623   8.186   2.806   5.845  0.6833  1.3984 -1.6906
  802MOL0     H10624   8.260   2.643   5.822  2.6078 -0.1977 -1.1145
  802MOL0     H10625   8.369   2.998   5.703 -2.1857 -0.8542  1.3409
  802MOL0     H10626   8.685   3.004   5.563 -0.5032 -2.1910  1.3018
  802MOL0     H10627   8.527   3.072   5.499 -0.8819 -1.0798 -2.8456
  802MOL0     H10628   8.532   2.861   5.351 -1.4732 -0.1286  2.1712
  802MOL0     H10629   8.624   3.005   5.299  3.4116 -0.5214 -1.4677
  802MOL0     H10630   8.770   2.780   5.447 -1.4872  1.1641  1.6992
  802MOL0     H10631   8.732   2.782   5.276 -3.4035 -0.3357  0.2701
  802MOL0     H10632   8.904   2.999   5.401  0.0699  1.7905 -1.0125
  802MOL0     H10633   8.958   2.850   5.330  0.0536 -1.5658 -1.3481
  802MOL0     H10634   8.907   2.939   4.934  0.1630  0.6676 -0.4284
  802MOL0     H10635   9.208   2.901   4.766  1.3319  1.2794  1.9743
  802MOL0     H10636   9.089   3.026   4.708 -1.0676 -2.0862 -1.9785
  802MOL0     H10637   9.024   2.879   4.752  0.8394 -1.0036 -1.5720
  802MOL0     H10638   9.458   3.306   4.630 -1.0039 -0.3615 -3.3383
  802MOL0     H10639   9.660   3.284   4.494 -1.2388  1.0783  0.0001
  802MOL0     H10640   9.813   3.214   4.332  0.7173  1.3913  1.9044
  802MOL0     H10641   9.945   3.198   4.441 -2.1721  2.9472 -0.3109
  802MOL0     H10642   9.937   2.949   4.282  1.5003 -0.3707  0.0843
  802MOL0     H10643   9.905   3.078   4.167  1.9169  0.8152 -1.6010
  802MOL0     H10644  10.156   3.063   4.346 -0.7705 -0.1930  0.6940
  802MOL0     H10645  10.100   3.197   4.256 -4.1174 -0.1725  1.0600
  802MOL0     H10646  10.141   3.085   4.046 -1.3275  0.1525  0.7099
  802MOL0     H10647  10.162   2.929   4.125  0.6232  0.6229  2.3307
  802MOL0     H10648  10.336   3.180   4.156  2.2037 -0.6805  0.0582
  802MOL0     H10649  10.378   3.033   4.237  0.7504  0.0803  0.6423
  802MOL0     H10650  10.332   3.032   3.930 -0.7773  0.6167 -0.1634
  802MOL0     H10651  10.443   2.926   4.031  1.4408  1.4428 -0.0453
  802MOL0     H10652  10.585   3.107   4.097  0.2200  0.8855 -0.7605
  802MOL0     H10653  10.498   3.210   3.980  1.5557  1.2878  0.7268
  802MOL0     H10654  10.708   3.162   3.893  1.7398 -0.1025  1.1892
  802MOL0     H10655  10.611   3.048   3.798  1.3201 -1.9966  0.4483
  802MOL0     H10656   9.677   2.865   4.605 -0.5093  0.2417 -0.3645
  802MOL0     H10657   9.483   2.892   4.740 -0.1828 -1.4867 -1.8464
  802MOL0     H10658   9.319   3.019   5.192 -0.1011 -2.2229 -0.1095
  802MOL0     H10659   9.114   2.988   5.301 -0.8445 -0.4147 -0.3450
  802MOL0     H10660   8.041   3.656   5.728  0.1903  2.5850 -1.6152
  802MOL0     H10661   8.155   3.854   5.674 -0.0159  0.0028 -1.4031
  802MOL0     H10662   8.612   3.984   5.681 -0.2645 -0.1897 -1.4456
  802MOL0     H10663   8.715   4.196   5.794  0.6246  0.8828 -0.2859
  802MOL0     H10664   8.620   4.623   5.710  2.7831 -3.6361 -1.4127
  802MOL0     H10665   8.469   4.560   5.786  0.7475  0.4112 -1.5550
  802MOL0     H10666   8.586   4.562   5.997  0.4993 -0.4757 -0.5456
  802MOL0     H10667   8.563   4.714   5.927  0.6530  0.3563  3.1570
  802MOL0     H10668   8.823   4.555   5.921 -0.1334 -0.1882  2.8733
  802MOL0     H10669   8.816   4.705   5.832  2.0143 -2.9090 -0.7899
  802MOL0     H10670   8.911   4.766   6.041 -0.9451  4.8229 -1.5401
  802MOL0     H10671   8.793   4.685   6.139  0.5894  0.8475  0.6397
  802MOL0     H10672   8.603   5.059   6.076 -2.4167 -0.9195  1.9205
  802MOL0     H10673   8.396   4.435   5.641  0.9341  0.7040 -1.8530
  802MOL0     H10674   8.230   4.352   5.500 -1.5887 -0.4356 -1.2287
  802MOL0     H10675   8.263   4.207   5.413 -0.5183 -0.4280  1.5217
  802MOL0     H10676   8.177   4.185   5.560 -0.7191 -0.1985 -0.6504
  803MOL0     O10677   8.707   3.707   9.598  0.1515 -0.6079  0.8387
  803MOL0     C10678   8.729   3.823   9.574 -1.0940 -0.4875 -0.3066
  803MOL0     O10679   8.799   3.901   9.660 -0.0177 -0.9309  0.4383
  803MOL0     C10680   8.774   3.885   9.796 -0.1851 -0.6985 -0.7853
  803MOL0     C10681   8.658   3.829   9.855  0.0859  0.1165  0.3388
  803MOL0     C10682   8.645   3.815   9.992  0.5823 -0.1069  0.1167
  803MOL0     C10683   8.743   3.871  10.079 -0.1849  0.0234  0.0476
  803MOL0     O10684   8.740   3.873  10.209 -1.1033  0.0794 -0.5078
  803MOL0     C10685   8.615   3.876  10.275 -0.2941  0.0916  0.4230
  803MOL0     C10686   8.646   3.961  10.399  0.1272  0.5583  0.1980
  803MOL0     C10687   8.713   3.882  10.506  0.0211  0.5999  0.1737
  803MOL0     C10688   8.722   3.938  10.638 -0.3019 -0.0114  1.0786
  803MOL0     C10689   8.779   3.844  10.744 -0.5602 -1.2407  0.1497
  803MOL0     C10690   8.911   3.780  10.729 -0.3016  0.9106  0.0250
  803MOL0     C10691   8.929   3.686  10.845 -0.0454 -0.3470 -0.1568
  803MOL0     C10692   8.848   3.561  10.844 -0.7028  0.1919  0.0694
  803MOL0     N10693   8.873   3.483  10.722  0.3988 -0.3661  0.1627
  803MOL0     C10694   9.004   3.451  10.669  0.8914 -0.1990 -0.6579
  803MOL0     C10695   8.970   3.384  10.558 -0.8543  0.3934  0.1317
  803MOL0     C10696   9.065   3.341  10.449 -0.2398 -0.4713  0.4974
  803MOL0     C10697   9.056   3.431  10.324  0.1823 -0.6830  0.3226
  803MOL0     C10698   9.136   3.563  10.339 -0.0728 -0.6091 -0.3535
  803MOL0     C10699   9.136   3.639  10.203  0.1209 -0.3357  0.0471
  803MOL0     O10700   9.223   3.572  10.107  0.1192 -0.1804  0.3385
  803MOL0     C10701   9.233   3.632   9.984  0.7093  0.4164 -0.0046
  803MOL0     C10702   9.304   3.570   9.884 -0.2354  0.9869 -0.3696
  803MOL0     C10703   9.316   3.617   9.752 -0.8169 -0.1191 -0.1590
  803MOL0     C10704   9.391   3.527   9.648  0.4196  0.0119 -0.9065
  803MOL0     C10705   9.277   3.754   9.722 -0.1331  0.3061 -0.2549
  803MOL0     C10706   9.312   3.837   9.593  0.2336  1.0748 -0.4452
  803MOL0     O10707   9.216   3.900   9.526 -0.0245 -0.2681 -1.4004
  803MOL0     C10708   9.244   3.971   9.412 -0.0631 -0.4585 -1.3610
  803MOL0     C10709   9.151   3.969   9.304  0.0305 -1.0786 -0.1669
  803MOL0     C10710   9.160   4.059   9.203  0.7824  0.2099  0.7896
  803MOL0     C10711   9.255   4.167   9.195 -0.3116  0.8782 -1.1659
  803MOL0     O10712   9.274   4.259   9.093  1.1064  0.0401 -0.2637
  803MOL0     C10713   9.266   4.207   8.958  0.3983 -0.6187  0.0836
  803MOL0     C10714   9.381   4.246   8.861 -0.2344 -0.3715 -0.3412
  803MOL0     C10715   9.518   4.198   8.911  0.7536  0.8675 -0.5805
  803MOL0     C10716   9.577   4.280   9.023  0.2306 -0.0743  0.6308
  803MOL0     C10717   9.675   4.375   8.959 -1.0362 -0.2260  0.3787
  803MOL0     C10718   9.619   4.482   8.867  0.2720 -0.4329  0.5027
  803MOL0     C10719   9.727   4.589   8.832 -0.8356  0.4642  0.2512
  803MOL0     C10720   9.671   4.707   8.747 -0.3653  0.3352  1.1238
  803MOL0    Cl10721   9.492   4.719   8.744  0.5606  0.0240 -0.5007
  803MOL0     C10722   9.346   4.172   9.300 -0.5129  0.0804 -0.5482
  803MOL0     C10723   9.341   4.077   9.404 -0.0413 -0.2048 -0.2686
  803MOL0     O10724   9.434   3.832   9.577  0.1557 -0.1725  0.6980
  803MOL0     C10725   9.214   3.815   9.829 -0.6283 -0.9314 -0.9297
  803MOL0     C10726   9.179   3.764   9.946 -1.9112  0.1055  0.7672
  803MOL0     N10727   8.832   3.373  10.545 -0.7070  0.0086 -0.8971
  803MOL0     N10728   8.782   3.418  10.649 -0.3728 -0.6087 -1.2843
  803MOL0     C10729   8.860   3.923  10.022  0.0085 -0.1629  0.9240
  803MOL0     C10730   8.881   3.919   9.882  0.5306  0.4472  0.0870
  803MOL0     C10731   8.709   3.876   9.437 -0.4966 -0.0419 -0.0956
  803MOL0     C10732   8.798   3.976   9.385  0.5710 -0.7675  0.1165
  803MOL0     C10733   8.775   4.033   9.254 -0.4110  0.9523  0.5100
  803MOL0     C10734   8.672   3.997   9.174  0.3300 -0.2887 -0.7905
  803MOL0     O10735   8.669   4.068   9.053  0.6025 -0.2621 -0.2569
  803MOL0     C10736   8.549   4.128   9.023  0.0244  0.2967 -1.2523
  803MOL0     C10737   8.526   4.137   8.876 -0.6225  0.1285  0.1027
  803MOL0     C10738   8.642   4.109   8.777 -0.0610  0.1964 -0.1115
  803MOL0     C10739   8.742   4.233   8.775  0.5558 -0.2074  0.8410
  803MOL0     C10740   8.859   4.185   8.696 -0.1155 -0.1262 -0.3476
  803MOL0     C10741   8.948   4.155   8.621  0.2275  0.4102 -0.3974
  803MOL0     C10742   8.582   3.903   9.222  0.3872 -0.2297  0.0739
  803MOL0     C10743   8.603   3.843   9.358 -0.0334  0.4997  0.1784
  803MOL0     C10744   8.492   3.741   9.405 -0.1760 -0.0085  0.5514
  803MOL0     H10745   8.591   3.802   9.773  3.2550  1.2295 -2.8889
  803MOL0     H10746   8.557   3.768  10.037 -1.2343  0.4553 -2.6000
  803MOL0     H10747   8.594   3.771  10.299  1.3168 -0.3787 -0.1005
  803MOL0     H10748   8.525   3.920  10.231 -0.3797 -0.1160  0.3863
  803MOL0     H10749   8.711   4.047  10.382 -0.4953  1.0190  0.1003
  803MOL0     H10750   8.554   4.002  10.442  0.7457  2.1431  0.0660
  803MOL0     H10751   8.674   3.780  10.505  2.9955 -0.6491 -1.6380
  803MOL0     H10752   8.810   3.863  10.459 -1.1408 -2.1045 -1.3640
  803MOL0     H10753   8.770   4.037  10.635 -1.2195  0.4340  0.7080
  803MOL0     H10754   8.618   3.967  10.658 -0.8660  0.6625 -2.3295
  803MOL0     H10755   8.703   3.767  10.754 -1.3912 -0.1337  3.9050
  803MOL0     H10756   8.773   3.896  10.840 -3.0541 -0.6688 -0.2608
  803MOL0     H10757   8.911   3.713  10.643 -0.9932 -1.0797  1.5053
  803MOL0     H10758   8.993   3.852  10.729  1.4606 -0.9945 -0.9538
  803MOL0     H10759   8.916   3.744  10.937  0.6928  0.1101 -0.3249
  803MOL0     H10760   9.036   3.663  10.845 -0.0133 -0.2434 -1.4691
  803MOL0     H10761   8.870   3.498  10.931 -1.7058  0.6382  0.6707
  803MOL0     H10762   8.740   3.577  10.842 -1.1915 -2.5768  0.5820
  803MOL0     H10763   9.106   3.462  10.705  0.6487 -1.5141  0.5177
  803MOL0     H10764   9.032   3.240  10.425 -3.1975  0.0710  1.8636
  803MOL0     H10765   9.168   3.347  10.487  0.2686  1.4303 -0.9727
  803MOL0     H10766   9.097   3.372  10.241  0.8813 -2.0461  1.5769
  803MOL0     H10767   8.948   3.441  10.305 -0.1129  0.4639  2.3510
  803MOL0     H10768   9.088   3.627  10.413 -0.8389 -0.3523 -1.0490
  803MOL0     H10769   9.237   3.537  10.372 -0.3606 -1.0733  0.1747
  803MOL0     H10770   9.036   3.651  10.161 -0.1452 -1.1892  0.4034
  803MOL0     H10771   9.170   3.742  10.217  1.3884 -0.5206 -1.4548
  803MOL0     H10772   9.342   3.472   9.913  0.3973  2.0923  3.0454
  803MOL0     H10773   9.351   3.426   9.663  3.3068 -0.8181  2.8537
  803MOL0     H10774   9.498   3.519   9.668  0.5058  1.5996 -0.6147
  803MOL0     H10775   9.375   3.559   9.545  1.8965  1.2749 -0.7805
  803MOL0     H10776   9.069   3.898   9.302 -2.8981  2.0164  0.6164
  803MOL0     H10777   9.085   4.055   9.125  3.0556 -1.1638 -1.5081
  803MOL0     H10778   9.251   4.099   8.964 -1.4094 -0.3247  3.4220
  803MOL0     H10779   9.176   4.250   8.913  0.1943 -2.1410 -1.0340
  803MOL0     H10780   9.358   4.204   8.763 -4.0918  1.3645 -0.3962
  803MOL0     H10781   9.376   4.355   8.851 -0.5348 -0.4789 -1.4846
  803MOL0     H10782   9.584   4.197   8.825 -0.0583 -1.1367 -1.2399
  803MOL0     H10783   9.508   4.094   8.945 -1.0521  1.8896  2.4060
  803MOL0     H10784   9.623   4.208   9.091 -2.4752  0.6090  3.3795
  803MOL0     H10785   9.497   4.333   9.075 -0.2337 -0.5295  0.3877
  803MOL0     H10786   9.717   4.427   9.045 -3.1421 -0.5745  1.7080
  803MOL0     H10787   9.755   4.322   8.907 -0.3282 -3.4086  4.1662
  803MOL0     H10788   9.535   4.534   8.914  0.3569 -0.6950  0.9444
  803MOL0     H10789   9.582   4.444   8.771 -0.0300 -1.4412  1.0151
  803MOL0     H10790   9.803   4.543   8.769 -0.5632 -0.8892  1.5231
  803MOL0     H10791   9.780   4.625   8.921  4.1802  1.8496 -2.8655
  803MOL0     H10792   9.691   4.693   8.640 -2.6403 -5.2043  1.0754
  803MOL0     H10793   9.722   4.797   8.782  2.0513 -0.0193 -1.1269
  803MOL0     H10794   9.419   4.252   9.298 -0.0606 -0.3328 -2.5673
  803MOL0     H10795   9.406   4.080   9.491 -0.6108  1.2984  0.1404
  803MOL0     H10796   9.189   3.920   9.820 -0.6608 -1.0842 -2.9179
  803MOL0     H10797   9.130   3.814  10.029  0.7733 -0.9654  3.1433
  803MOL0     H10798   8.939   3.969  10.081  0.2758 -0.6810  0.9689
  803MOL0     H10799   8.962   3.967   9.828 -1.1817  0.0080 -3.1405
  803MOL0     H10800   8.887   4.007   9.440 -0.0907  0.9168  0.2876
  803MOL0     H10801   8.850   4.101   9.216  4.4781 -2.9058  2.1748
  803MOL0     H10802   8.461   4.081   9.068  0.2136  1.8311  0.8948
  803MOL0     H10803   8.556   4.228   9.069  0.1313 -0.9669  1.7103
  803MOL0     H10804   8.494   4.239   8.855  1.4017  1.1728  1.6635
  803MOL0     H10805   8.444   4.067   8.859 -0.3163 -1.1427  3.1266
  803MOL0     H10806   8.690   4.016   8.810 -2.1414  0.1217  3.0493
  803MOL0     H10807   8.607   4.108   8.673  1.4014  3.3468 -0.7568
  803MOL0     H10808   8.757   4.265   8.879 -2.1630  0.8396  0.9740
  803MOL0     H10809   8.693   4.317   8.726 -0.3633 -0.4129  1.3893
  803MOL0     H10810   9.035   4.117   8.571 -0.5606  0.1424 -1.6084
  803MOL0     H10811   8.517   3.862   9.145  0.9209 -1.8415  0.4425
  803MOL0     H10812   8.412   3.740   9.330 -1.0883  2.4912  1.4061
  803MOL0     H10813   8.514   3.636   9.430 -1.5280 -0.4022  0.1950
  803MOL0     H10814   8.438   3.766   9.497  0.9163  0.8657  0.9734
  804MOL0     O10815   1.379   0.852   4.624  1.0678 -0.6247 -0.7590
  804MOL0     C10816   1.360   0.904   4.733 -0.3473 -0.6116 -0.9574
  804MOL0     O10817   1.460   0.979   4.796 -0.1826 -0.6938 -0.0795
  804MOL0     C10818   1.576   0.993   4.726  0.8606 -0.3146 -0.2249
  804MOL0     C10819   1.570   1.080   4.617 -0.6552 -0.3952 -0.0498
  804MOL0     C10820   1.677   1.089   4.526  0.1813 -0.6059 -0.4681
  804MOL0     C10821   1.788   1.009   4.558  0.6165  1.6543 -0.3483
  804MOL0     O10822   1.898   1.024   4.470  0.3564 -0.3602 -0.1026
  804MOL0     C10823   1.972   0.908   4.429  0.7277 -0.5716 -0.9006
  804MOL0     C10824   2.030   0.925   4.297 -1.2584 -0.0877  0.0599
  804MOL0     C10825   1.947   1.026   4.213  0.0644 -0.9441 -0.3004
  804MOL0     C10826   2.000   1.024   4.077 -0.6634 -0.1075  0.1463
  804MOL0     C10827   1.917   1.101   3.977  0.5613  0.4436  0.2085
  804MOL0     C10828   1.790   1.022   3.936 -0.0098  0.3283 -0.0885
  804MOL0     C10829   1.708   1.104   3.833 -0.7225 -0.7850 -1.2609
  804MOL0     C10830   1.573   1.045   3.798  0.3227  0.2275  0.2302
  804MOL0     N10831   1.589   0.921   3.728  0.1373 -0.6923  0.8855
  804MOL0     C10832   1.659   0.909   3.610  0.7627 -0.6869  0.2706
  804MOL0     C10833   1.661   0.780   3.585 -0.0168  0.3416 -0.5334
  804MOL0     C10834   1.741   0.717   3.479  0.1018  0.9071 -0.2644
  804MOL0     C10835   1.636   0.680   3.374 -0.2701 -0.5936  0.4996
  804MOL0     C10836   1.632   0.765   3.246 -0.4373 -0.0681  0.2240
  804MOL0     C10837   1.494   0.784   3.183  0.2274  0.8989 -0.2693
  804MOL0     O10838   1.477   0.881   3.080  0.4178  0.7910  0.8189
  804MOL0     C10839   1.399   0.857   2.972  1.4828 -0.5767  0.6192
  804MOL0     C10840   1.282   0.781   2.988  0.5718  0.7879 -0.5521
  804MOL0     C10841   1.188   0.776   2.886 -0.0685 -0.8015 -0.5584
  804MOL0     C10842   1.069   0.693   2.920  0.4514 -0.1323 -0.3222
  804MOL0     C10843   1.196   0.841   2.758 -0.8513 -0.5887 -0.9180
  804MOL0     C10844   1.107   0.865   2.646  0.3897 -0.4407  0.2995
  804MOL0     O10845   1.159   0.933   2.533  0.7662  0.2485  0.1870
  804MOL0     C10846   1.080   0.916   2.425 -0.6909  0.2814  0.0557
  804MOL0     C10847   0.965   1.002   2.399 -0.1234  0.0998 -0.1323
  804MOL0     C10848   0.892   0.980   2.283  0.5188 -0.0388 -0.5034
  804MOL0     C10849   0.919   0.862   2.205  0.6324 -0.1681 -0.1736
  804MOL0     O10850   0.837   0.831   2.095  0.2172 -0.0585  0.5001
  804MOL0     C10851   0.897   0.768   1.980  0.1570 -0.4164 -0.2552
  804MOL0     C10852   0.801   0.760   1.863  1.1148  0.6590  0.5887
  804MOL0     C10853   0.659   0.694   1.891  0.6164 -0.5168 -0.3472
  804MOL0     C10854   0.680   0.535   1.880  0.8525 -0.4800 -0.6959
  804MOL0     C10855   0.533   0.478   1.909 -0.0425  0.6196 -0.7690
  804MOL0     C10856   0.526   0.323   1.896  0.1511  0.4486 -0.3447
  804MOL0     C10857   0.513   0.275   1.749 -0.4537 -0.3339 -0.0100
  804MOL0     C10858   0.498   0.128   1.730 -0.4012 -0.3790  0.1691
  804MOL0    Cl10859   0.568   0.087   1.561  0.2489  0.1596  0.2820
  804MOL0     C10860   1.025   0.770   2.240 -0.1347  0.7406 -0.5441
  804MOL0     C10861   1.108   0.800   2.346 -0.6882 -0.3187 -0.3828
  804MOL0     O10862   0.995   0.810   2.653 -0.4490  0.3883 -0.3751
  804MOL0     C10863   1.320   0.912   2.753  0.4571  0.2173  0.8787
  804MOL0     C10864   1.419   0.918   2.850 -0.0236  0.1101  0.0993
  804MOL0     N10865   1.588   0.723   3.681  0.4349  0.1688 -1.0713
  804MOL0     N10866   1.560   0.798   3.777 -0.7017 -0.9050 -0.5544
  804MOL0     C10867   1.792   0.927   4.675 -0.5983  0.0201  0.0123
  804MOL0     C10868   1.687   0.920   4.761  0.0530 -0.1290 -0.2962
  804MOL0     C10869   1.222   0.878   4.796 -0.6027 -0.0647 -0.1683
  804MOL0     C10870   1.153   0.769   4.754  0.6007  0.1771  0.3945
  804MOL0     C10871   1.024   0.735   4.803  0.7426 -0.5801  0.4517
  804MOL0     C10872   0.958   0.810   4.895 -0.6079  0.3308 -0.3150
  804MOL0     O10873   0.849   0.780   4.963  0.7211 -0.8357  1.0271
  804MOL0     C10874   0.745   0.723   4.881  0.1617  0.5618 -0.0474
  804MOL0     C10875   0.614   0.747   4.948 -0.4087  0.1290  0.0047
  804MOL0     C10876   0.605   0.880   5.017 -0.2907 -0.4696  0.3343
  804MOL0     C10877   0.462   0.905   5.063 -0.7534 -0.4945  0.0003
  804MOL0     C10878   0.431   0.849   5.193 -0.3007 -0.2285  0.0060
  804MOL0     C10879   0.404   0.813   5.306 -1.1225  0.2960  0.5837
  804MOL0     C10880   1.036   0.920   4.937 -0.4135 -0.0982  0.6748
  804MOL0     C10881   1.161   0.954   4.897 -0.3004 -0.0557  0.4766
  804MOL0     C10882   1.220   1.085   4.950 -0.1808  0.4603  0.4458
  804MOL0     H10883   1.471   1.114   4.591 -0.7460  0.0671  0.8807
  804MOL0     H10884   1.676   1.171   4.456  0.1587  0.4274  0.6986
  804MOL0     H10885   1.890   0.837   4.412 -1.0536  1.8621 -3.1631
  804MOL0     H10886   2.039   0.867   4.506 -1.5208 -0.7175  1.1186
  804MOL0     H10887   2.127   0.973   4.315 -2.4941  3.6621 -2.1205
  804MOL0     H10888   2.059   0.833   4.245 -1.6692  0.4147 -1.0799
  804MOL0     H10889   1.840   1.004   4.208 -0.2597  0.7513 -3.8995
  804MOL0     H10890   1.961   1.126   4.255  1.6902 -1.9006  1.5736
  804MOL0     H10891   2.095   1.078   4.082 -0.8582  0.1511  1.1881
  804MOL0     H10892   2.003   0.918   4.052  2.5242 -0.2487  0.7971
  804MOL0     H10893   1.968   1.117   3.881 -1.6755 -2.4014 -1.6477
  804MOL0     H10894   1.889   1.193   4.029 -0.0599 -0.1828  1.0040
  804MOL0     H10895   1.822   0.928   3.890  0.1993  1.3779 -2.2305
  804MOL0     H10896   1.728   0.994   4.022 -1.3483  1.2845 -0.7066
  804MOL0     H10897   1.768   1.120   3.743  4.4624 -0.6482  1.7534
  804MOL0     H10898   1.669   1.195   3.880 -2.6203 -1.0645 -2.2065
  804MOL0     H10899   1.519   1.015   3.887  3.7932 -2.2509  1.7571
  804MOL0     H10900   1.516   1.115   3.736 -4.4566 -1.5412  2.1808
  804MOL0     H10901   1.715   0.981   3.552 -0.4047 -1.8508 -2.4750
  804MOL0     H10902   1.783   0.632   3.534  1.2553  0.7985 -1.2647
  804MOL0     H10903   1.823   0.780   3.443  2.8250 -0.9552  2.1923
  804MOL0     H10904   1.651   0.577   3.341 -0.6550 -0.6926  0.6273
  804MOL0     H10905   1.534   0.680   3.413  0.2635  1.4726  2.0897
  804MOL0     H10906   1.658   0.870   3.258 -3.0439  0.9554 -2.1544
  804MOL0     H10907   1.704   0.721   3.176  1.1662  1.8466  0.5906
  804MOL0     H10908   1.462   0.690   3.138 -0.6122  1.1415 -0.1784
  804MOL0     H10909   1.417   0.799   3.259  0.8638 -1.1397  0.8770
  804MOL0     H10910   1.264   0.734   3.084  1.8855 -3.4248 -2.1674
  804MOL0     H10911   1.027   0.644   2.831  3.0584  1.5851 -2.6899
  804MOL0     H10912   0.997   0.755   2.974  1.6745 -1.2313  2.7435
  804MOL0     H10913   1.097   0.612   2.987  1.8716  0.9914  0.5116
  804MOL0     H10914   0.942   1.089   2.459 -0.9892 -0.9115  1.0749
  804MOL0     H10915   0.804   1.037   2.253 -1.1940 -2.8052 -1.1209
  804MOL0     H10916   0.982   0.821   1.936  1.1368  1.0245  3.0938
  804MOL0     H10917   0.915   0.663   2.005 -0.5853 -0.4585  0.1466
  804MOL0     H10918   0.783   0.862   1.829  1.0025  0.4145 -0.0899
  804MOL0     H10919   0.840   0.707   1.776 -1.3028  0.8569 -0.7037
  804MOL0     H10920   0.588   0.726   1.814 -1.2438 -2.9516  0.1969
  804MOL0     H10921   0.624   0.720   1.991 -0.7254  2.7198 -1.5422
  804MOL0     H10922   0.756   0.496   1.948  0.6373  1.0589  0.4808
  804MOL0     H10923   0.711   0.509   1.779  0.7784  1.0652 -1.1364
  804MOL0     H10924   0.503   0.500   2.011 -1.9603 -1.7307 -0.7511
  804MOL0     H10925   0.466   0.531   1.841 -0.1150  0.6349 -0.6851
  804MOL0     H10926   0.437   0.284   1.946  0.0333  1.8255  0.5762
  804MOL0     H10927   0.607   0.268   1.943 -0.8426 -0.7091  0.0834
  804MOL0     H10928   0.590   0.313   1.681 -0.9657  1.0020  0.1297
  804MOL0     H10929   0.424   0.314   1.699 -0.9802 -1.7001 -0.1680
  804MOL0     H10930   0.400   0.079   1.732 -0.9401  0.3766 -2.6733
  804MOL0     H10931   0.569   0.081   1.799  0.1841  3.6285  2.6073
  804MOL0     H10932   1.016   0.680   2.180 -0.4230  0.8165 -0.6161
  804MOL0     H10933   1.191   0.738   2.376  0.0452  0.6114 -0.4475
  804MOL0     H10934   1.350   0.980   2.674 -1.0538 -0.9452 -0.7818
  804MOL0     H10935   1.507   0.980   2.847 -2.7598  4.7230  2.6848
  804MOL0     H10936   1.868   0.850   4.682  0.7665  1.4230  1.5163
  804MOL0     H10937   1.693   0.860   4.851  1.7687  1.3121  0.6253
  804MOL0     H10938   1.199   0.692   4.691 -2.5501  0.3536 -2.4119
  804MOL0     H10939   0.981   0.640   4.772  1.7171 -1.4793  1.7387
  804MOL0     H10940   0.752   0.759   4.778  3.5501 -1.9990 -0.8957
  804MOL0     H10941   0.763   0.616   4.866  2.2181  0.9992 -1.1091
  804MOL0     H10942   0.597   0.665   5.018  1.6183  0.6847  1.2357
  804MOL0     H10943   0.535   0.735   4.873  0.8323 -0.9835 -1.1817
  804MOL0     H10944   0.679   0.882   5.097 -1.6095 -1.9225  1.6337
  804MOL0     H10945   0.627   0.971   4.959 -2.2695  0.7471  1.3491
  804MOL0     H10946   0.395   0.865   4.986 -1.8490 -1.3058  1.3190
  804MOL0     H10947   0.438   1.011   5.080  0.2008 -0.4706  1.3543
  804MOL0     H10948   0.405   0.789   5.411  0.6941  0.5538  0.6446
  804MOL0     H10949   0.993   0.987   5.010 -1.6832 -1.5380  1.2940
  804MOL0     H10950   1.147   1.128   5.019 -0.0731  1.3853  0.0016
  804MOL0     H10951   1.313   1.062   5.003 -1.3090 -0.6376  2.0170
  804MOL0     H10952   1.241   1.148   4.862  1.2984 -0.9663 -0.2726
  805MOL0     O10953   0.446   7.682  10.936 -0.5928  1.0255 -0.8087
  805MOL0     C10954   0.346   7.706  10.881  0.9721  0.2184 -0.0780
  805MOL0     O10955   0.342   7.707  10.743 -0.5233  0.2741  0.5135
  805MOL0     C10956   0.459   7.715  10.678  0.3865 -0.6264 -0.2866
  805MOL0     C10957   0.533   7.607  10.642 -0.1831 -0.1556  0.5173
  805MOL0     C10958   0.641   7.609  10.554 -0.5142 -0.1230 -0.6265
  805MOL0     C10959   0.685   7.733  10.517 -0.0268 -0.1205  0.7363
  805MOL0     O10960   0.787   7.760  10.428 -0.3552 -0.0285 -0.4932
  805MOL0     C10961   0.905   7.680  10.445  0.1635  0.2670 -0.9318
  805MOL0     C10962   1.041   7.745  10.441 -0.3808 -0.4652  0.9409
  805MOL0     C10963   1.050   7.837  10.314  0.6083 -1.0492 -0.1088
  805MOL0     C10964   1.182   7.909  10.316  0.1994 -0.1472  0.3640
  805MOL0     C10965   1.172   8.038  10.228 -0.4117 -0.0523  0.5977
  805MOL0     C10966   1.306   8.102  10.225  0.1626  0.3510 -0.7224
  805MOL0     C10967   1.328   8.181  10.096 -0.4362 -0.5279 -0.1134
  805MOL0     C10968   1.387   8.106   9.984 -0.1604  0.3239  1.0911
  805MOL0     N10969   1.413   8.187   9.860  0.7669 -0.2699 -0.1143
  805MOL0     C10970   1.415   8.130   9.734  0.0555 -0.2933  0.6264
  805MOL0     C10971   1.407   8.236   9.648 -0.2910  0.2695 -0.5408
  805MOL0     C10972   1.396   8.244   9.500 -0.8935 -0.0132 -0.7995
  805MOL0     C10973   1.517   8.185   9.429  0.3472  0.4372  0.2100
  805MOL0     C10974   1.514   8.033   9.409  0.1556  0.1208 -0.6174
  805MOL0     C10975   1.591   8.000   9.273 -0.6301  0.3264  0.0064
  805MOL0     O10976   1.724   8.062   9.282  0.1981  0.2492  0.3918
  805MOL0     C10977   1.793   8.089   9.170 -1.3306  0.3292 -0.0273
  805MOL0     C10978   1.896   8.188   9.171 -0.1114 -0.5353  0.7037
  805MOL0     C10979   1.962   8.237   9.061  0.0855 -0.6352  0.1167
  805MOL0     C10980   2.079   8.340   9.072  0.1980  0.7224 -0.5979
  805MOL0     C10981   1.934   8.176   8.937  0.3006 -0.1625 -0.1536
  805MOL0     C10982   2.010   8.195   8.811  0.3348  0.1196  0.3842
  805MOL0     O10983   2.004   8.092   8.717  0.0480  0.6869  0.4881
  805MOL0     C10984   2.099   8.083   8.621  0.2121 -1.3240 -0.8023
  805MOL0     C10985   2.081   7.994   8.522 -0.1903 -0.1465 -0.9925
  805MOL0     C10986   2.162   7.971   8.417 -0.3344 -0.2037  0.6735
  805MOL0     C10987   2.289   8.037   8.401  0.5520 -0.9064 -0.1531
  805MOL0     O10988   2.372   8.032   8.296 -0.9864 -0.2845 -0.1786
  805MOL0     C10989   2.382   7.902   8.232  0.9512  0.2255 -0.1584
  805MOL0     C10990   2.516   7.877   8.184  0.0331 -0.5912  0.3745
  805MOL0     C10991   2.556   7.967   8.061 -0.0042 -0.3548  0.6891
  805MOL0     C10992   2.675   7.920   7.988  0.1838  0.0723  0.3057
  805MOL0     C10993   2.709   7.988   7.848  0.5165  0.2972  0.7519
  805MOL0     C10994   2.769   8.127   7.874 -0.1288 -0.1532  1.0289
  805MOL0     C10995   2.810   8.202   7.741  0.4716 -0.6253 -0.5246
  805MOL0     C10996   2.903   8.321   7.763  0.3059  0.0951 -0.8803
  805MOL0    Cl10997   3.051   8.250   7.842 -0.1880 -0.0166  0.5832
  805MOL0     C10998   2.312   8.130   8.502  1.3666 -0.0363 -0.3801
  805MOL0     C10999   2.225   8.148   8.611 -0.6086 -1.3013  0.6688
  805MOL0     O11000   2.056   8.304   8.791 -0.2022 -0.1763  0.0218
  805MOL0     C11001   1.835   8.076   8.933  0.5800  0.5948  0.0157
  805MOL0     C11002   1.768   8.031   9.049  0.0341 -0.0421 -0.1478
  805MOL0     N11003   1.417   8.351   9.725 -0.3186  0.4226  0.9534
  805MOL0     N11004   1.411   8.327   9.845 -0.0517 -0.5933 -0.0295
  805MOL0     C11005   0.620   7.847  10.561  0.2497  0.6757  0.2622
  805MOL0     C11006   0.504   7.839  10.638 -0.0675 -1.1325  0.3089
  805MOL0     C11007   0.214   7.733  10.953  0.0347 -0.1430 -0.1606
  805MOL0     C11008   0.097   7.685  10.893  0.5038  0.2577  0.1898
  805MOL0     C11009  -0.028   7.695  10.956  0.3236  0.2601  0.6160
  805MOL0     C11010  -0.038   7.729  11.097  0.4683 -0.7468  0.3525
  805MOL0     O11011  -0.157   7.736  11.165 -0.3100  0.2387 -0.1318
  805MOL0     C11012  -0.229   7.853  11.102 -0.2781  0.0633  0.0119
  805MOL0     C11013  -0.348   7.887  11.190 -0.7638  0.1148 -0.0236
  805MOL0     C11014  -0.440   7.990  11.125  0.4294 -1.2129 -0.9340
  805MOL0     C11015  -0.573   7.988  11.189 -0.2905 -0.3016  1.1639
  805MOL0     C11016  -0.574   8.058  11.321  0.5661 -0.0986  0.9589
  805MOL0     C11017  -0.573   8.118  11.428 -0.5106  0.2093 -0.2753
  805MOL0     C11018   0.084   7.764  11.155 -0.8083  0.2048 -0.4260
  805MOL0     C11019   0.205   7.769  11.091  0.2592 -0.1189  0.8443
  805MOL0     C11020   0.327   7.814  11.162  0.5857  0.4145 -0.2139
  805MOL0     H11021   0.492   7.512  10.675 -1.3862 -0.7413 -2.3878
  805MOL0     H11022   0.688   7.517  10.520  0.1792 -0.3347  0.8108
  805MOL0     H11023   0.893   7.616  10.357 -2.4348 -0.5599 -0.0629
  805MOL0     H11024   0.911   7.606  10.524 -0.3318 -0.5032 -1.6044
  805MOL0     H11025   1.055   7.796  10.536 -2.2146  2.3824 -0.2034
  805MOL0     H11026   1.120   7.672  10.422  0.7845  0.9559  0.0919
  805MOL0     H11027   1.031   7.788  10.219 -1.0783 -3.0892  1.1759
  805MOL0     H11028   0.976   7.915  10.336  1.5119 -0.4059  0.7513
  805MOL0     H11029   1.212   7.942  10.416 -1.1139 -1.9738  1.4095
  805MOL0     H11030   1.262   7.844  10.280 -1.7132 -1.3572 -2.0010
  805MOL0     H11031   1.095   8.105  10.268 -1.0150  0.9977 -2.0802
  805MOL0     H11032   1.154   8.012  10.123  2.3923  2.9099 -0.8017
  805MOL0     H11033   1.318   8.154  10.320 -0.7233 -1.6153  0.5245
  805MOL0     H11034   1.380   8.024  10.241  0.2562  0.3316 -1.2363
  805MOL0     H11035   1.398   8.260  10.126  2.3206 -1.9964 -2.2132
  805MOL0     H11036   1.239   8.236  10.064 -0.5075 -0.1822  0.6553
  805MOL0     H11037   1.483   8.060  10.007 -0.7212 -1.5651 -0.0910
  805MOL0     H11038   1.308   8.034   9.959 -0.3319 -0.0965  2.7325
  805MOL0     H11039   1.421   8.026   9.703  2.4608  0.8893 -3.5017
  805MOL0     H11040   1.393   8.352   9.481 -0.5500  0.5828  2.0905
  805MOL0     H11041   1.312   8.188   9.458  0.7541  0.0195 -4.4970
  805MOL0     H11042   1.511   8.231   9.330 -2.1036  0.7783  0.4570
  805MOL0     H11043   1.608   8.217   9.480 -2.4793  1.5133  5.3543
  805MOL0     H11044   1.541   7.977   9.499 -2.5830  1.7849  1.3816
  805MOL0     H11045   1.411   8.001   9.391  0.8307 -1.0597 -2.8200
  805MOL0     H11046   1.617   7.895   9.257  1.0596  0.6209  0.5976
  805MOL0     H11047   1.546   8.027   9.177 -0.0517 -1.0353 -0.6838
  805MOL0     H11048   1.937   8.229   9.263 -0.3909  2.7293 -0.5254
  805MOL0     H11049   2.041   8.426   9.016 -3.2089 -0.1595  0.1260
  805MOL0     H11050   2.175   8.306   9.033  0.2497  0.8923 -0.6188
  805MOL0     H11051   2.102   8.370   9.175 -0.4707  2.0512 -0.8094
  805MOL0     H11052   1.981   7.951   8.533 -0.1797  0.2778  1.3280
  805MOL0     H11053   2.129   7.901   8.340  2.3481 -0.2779 -0.5592
  805MOL0     H11054   2.355   7.816   8.294 -0.6506 -0.3887 -1.5972
  805MOL0     H11055   2.316   7.912   8.145  4.6567  0.4729 -3.2388
  805MOL0     H11056   2.592   7.881   8.262 -0.7580  1.2478  1.1146
  805MOL0     H11057   2.509   7.772   8.152 -1.9128 -0.3170 -0.2667
  805MOL0     H11058   2.565   8.073   8.088  2.1416 -0.4473  0.5083
  805MOL0     H11059   2.481   7.978   7.983  1.5703 -0.4873 -0.9227
  805MOL0     H11060   2.660   7.812   7.981  0.0318  0.1336 -0.3152
  805MOL0     H11061   2.759   7.930   8.058  1.1879 -0.2992 -0.8228
  805MOL0     H11062   2.783   7.927   7.794 -0.2492 -0.9557  1.0738
  805MOL0     H11063   2.619   7.993   7.786 -0.2575 -3.8035  1.2322
  805MOL0     H11064   2.845   8.120   7.953 -1.6473  2.3458  2.8443
  805MOL0     H11065   2.697   8.193   7.924 -1.0195  0.6788 -1.2497
  805MOL0     H11066   2.725   8.238   7.683  0.8293 -1.2293 -1.4450
  805MOL0     H11067   2.867   8.125   7.688  2.1451 -2.0825  3.0424
  805MOL0     H11068   2.849   8.388   7.830 -1.9650  0.3583 -2.8248
  805MOL0     H11069   2.932   8.377   7.673 -2.3578 -1.7938 -3.0890
  805MOL0     H11070   2.404   8.188   8.500  0.3077  1.6661 -1.1010
  805MOL0     H11071   2.265   8.208   8.693 -0.8602  1.0839 -0.8727
  805MOL0     H11072   1.820   8.019   8.842  3.6086 -1.1525  0.4752
  805MOL0     H11073   1.688   7.960   9.033 -0.9319  1.3397 -1.7449
  805MOL0     H11074   0.651   7.937  10.510  1.2771 -0.6897 -1.6698
  805MOL0     H11075   0.450   7.928  10.667  0.6539 -0.2485 -0.9741
  805MOL0     H11076   0.090   7.642  10.793  2.3203 -3.1141  1.3505
  805MOL0     H11077  -0.111   7.664  10.894  0.6259  1.4891 -0.4603
  805MOL0     H11078  -0.167   7.941  11.084  2.6487 -1.9501 -0.5035
  805MOL0     H11079  -0.261   7.824  11.001  3.9447  2.0681 -2.1470
  805MOL0     H11080  -0.323   7.931  11.287 -2.1012 -1.3963  1.0590
  805MOL0     H11081  -0.413   7.800  11.200 -1.1524  0.2223 -1.4511
  805MOL0     H11082  -0.400   8.092  11.120 -1.6875 -0.3737 -3.5205
  805MOL0     H11083  -0.452   7.965  11.019  0.5768  1.7147 -1.7271
  805MOL0     H11084  -0.613   7.887  11.185 -2.4438  0.5083  1.3533
  805MOL0     H11085  -0.633   8.054  11.125  2.9314  1.2669 -0.5503
  805MOL0     H11086  -0.575   8.153  11.529 -1.3959 -1.3966  0.3111
  805MOL0     H11087   0.074   7.785  11.261  0.1769  1.5537 -0.5745
  805MOL0     H11088   0.399   7.732  11.163 -0.8487 -0.8846 -0.2937
  805MOL0     H11089   0.363   7.897  11.101  2.9035  0.5193  1.1867
  805MOL0     H11090   0.316   7.849  11.265  2.4425 -0.2874  0.2654
  806MOL0     O11091  11.514   6.666   4.558  0.5578 -0.7485 -0.8998
  806MOL0     C11092  11.465   6.558   4.553  0.1127 -0.0687 -0.5084
  806MOL0     O11093  11.409   6.490   4.660  0.4987 -0.0744 -0.5630
  806MOL0     C11094  11.382   6.567   4.772 -0.1162 -0.2671 -0.2974
  806MOL0     C11095  11.279   6.646   4.770  0.6510  0.4786 -0.3737
  806MOL0     C11096  11.258   6.738   4.871 -0.3244  0.6462 -0.6206
  806MOL0     C11097  11.356   6.749   4.972 -0.4562 -0.7898 -1.4728
  806MOL0     O11098  11.347   6.832   5.080 -0.1966 -0.0705 -0.2294
  806MOL0     C11099  11.234   6.807   5.170  0.4567  0.0599  0.3898
  806MOL0     C11100  11.261   6.675   5.252 -0.5733  0.1605  0.0019
  806MOL0     C11101  11.140   6.647   5.334  0.5562  0.5027 -0.3366
  806MOL0     C11102  11.157   6.536   5.436  0.0902  1.1700  0.1470
  806MOL0     C11103  11.279   6.541   5.540 -0.6252  0.1160 -0.1286
  806MOL0     C11104  11.251   6.623   5.661  0.4015 -0.3180 -0.2278
  806MOL0     C11105  11.373   6.656   5.748  0.0683  0.1460 -0.1566
  806MOL0     C11106  11.498   6.729   5.685  0.9838  0.5604  0.7087
  806MOL0     N11107  11.455   6.863   5.636 -0.2227  0.3780 -0.2988
  806MOL0     C11108  11.498   6.972   5.704 -0.8086  0.2439  0.2904
  806MOL0     C11109  11.455   7.077   5.632 -0.5028 -0.9265 -0.3098
  806MOL0     C11110  11.482   7.223   5.663  0.2653  0.5654 -0.6206
  806MOL0     C11111  11.379   7.271   5.754  0.0571 -0.4349 -0.2244
  806MOL0     C11112  11.401   7.419   5.776 -0.2254  0.1878 -1.4214
  806MOL0     C11113  11.406   7.507   5.646 -0.3795  0.5569  0.2294
  806MOL0     O11114  11.403   7.651   5.660  0.5963 -0.1974 -0.0233
  806MOL0     C11115  11.450   7.712   5.545  0.3487 -1.1206 -0.7981
  806MOL0     C11116  11.544   7.822   5.549  0.3364  0.7217 -1.3833
  806MOL0     C11117  11.588   7.884   5.428  0.5908  0.4385 -0.3152
  806MOL0     C11118  11.702   7.989   5.440 -0.3359 -0.9134 -0.0405
  806MOL0     C11119  11.526   7.844   5.308 -0.8881 -0.0558 -0.8224
  806MOL0     C11120  11.543   7.918   5.184  0.2238 -0.9675  0.3902
  806MOL0     O11121  11.572   8.050   5.194 -0.1360  0.8310  0.4612
  806MOL0     C11122  11.644   8.114   5.100  0.5411  0.5743  0.0503
  806MOL0     C11123  11.595   8.233   5.046 -1.0751  0.9255  0.2803
  806MOL0     C11124  11.677   8.297   4.950 -0.8211  0.2582  0.1311
  806MOL0     C11125  11.821   8.267   4.935 -0.0080 -0.2723  0.6480
  806MOL0     O11126  11.907   8.353   4.861 -0.2234  0.3452  0.1637
  806MOL0     C11127  12.030   8.390   4.918  0.2803 -0.5844 -0.2663
  806MOL0     C11128  12.092   8.499   4.832 -0.2009  0.4729 -1.0471
  806MOL0     C11129  12.155   8.447   4.700 -0.6857 -0.1607  1.3211
  806MOL0     C11130  12.222   8.573   4.627  0.2392 -0.1877  0.7766
  806MOL0     C11131  12.339   8.518   4.556 -0.1725  0.3107  0.4651
  806MOL0     C11132  12.432   8.629   4.492  0.3781  0.6534 -0.0269
  806MOL0     C11133  12.519   8.709   4.587  0.0424  0.2731 -0.3712
  806MOL0     C11134  12.613   8.796   4.501  0.0854  0.2803  0.8459
  806MOL0    Cl11135  12.679   8.920   4.606 -0.1032 -0.3515 -0.2557
  806MOL0     C11136  11.864   8.151   4.999  0.3277  0.1975  0.4509
  806MOL0     C11137  11.779   8.066   5.074  0.9309 -0.0414 -0.9316
  806MOL0     O11138  11.528   7.852   5.082 -1.0168 -0.7816  0.2612
  806MOL0     C11139  11.424   7.748   5.310 -0.0919  0.1494  0.3710
  806MOL0     C11140  11.389   7.679   5.425 -0.2678  0.4429 -0.1933
  806MOL0     N11141  11.385   7.023   5.520 -0.4999 -0.8632 -0.3881
  806MOL0     N11142  11.393   6.896   5.518 -0.9762  0.0378  0.0664
  806MOL0     C11143  11.464   6.665   4.970 -0.6519 -0.3339  0.7027
  806MOL0     C11144  11.478   6.568   4.871  0.1505  0.5330  0.2391
  806MOL0     C11145  11.466   6.492   4.417  0.2627  0.1936  0.2331
  806MOL0     C11146  11.558   6.525   4.321 -0.1512  0.9659 -1.0306
  806MOL0     C11147  11.572   6.459   4.201 -0.3088 -1.0396  0.4609
  806MOL0     C11148  11.475   6.361   4.161 -0.2305 -0.0076  0.2476
  806MOL0     O11149  11.486   6.297   4.045 -1.5479  0.1284 -0.1572
  806MOL0     C11150  11.460   6.375   3.930  0.4405 -0.2918 -0.3808
  806MOL0     C11151  11.309   6.373   3.918  0.7530  0.0473 -0.7221
  806MOL0     C11152  11.284   6.446   3.786 -0.7577  0.5448 -0.4312
  806MOL0     C11153  11.153   6.514   3.785  0.4070 -0.8047  0.1743
  806MOL0     C11154  11.045   6.414   3.808 -0.1937 -0.6678 -0.4124
  806MOL0     C11155  10.962   6.323   3.803  0.5453 -0.7583 -0.0208
  806MOL0     C11156  11.365   6.335   4.246  0.0101 -1.0565 -0.9570
  806MOL0     C11157  11.361   6.404   4.374 -0.7294  0.1889 -0.6224
  806MOL0     C11158  11.241   6.383   4.455 -0.6870 -0.2752  0.6768
  806MOL0     H11159  11.207   6.645   4.688 -0.3966 -4.4297  0.2998
  806MOL0     H11160  11.181   6.815   4.866  1.9867  3.3018  1.4727
  806MOL0     H11161  11.139   6.802   5.117  1.4842  0.3339 -1.5826
  806MOL0     H11162  11.203   6.882   5.243  0.3807 -0.5699  1.0105
  806MOL0     H11163  11.285   6.595   5.182 -0.5536  0.9134 -0.8785
  806MOL0     H11164  11.350   6.681   5.316 -1.0095 -4.3663  1.3619
  806MOL0     H11165  11.104   6.740   5.379  1.9366  0.2880  1.3146
  806MOL0     H11166  11.065   6.612   5.263 -0.0932 -0.8850  0.9813
  806MOL0     H11167  11.064   6.518   5.489  1.9582 -0.6584  3.0716
  806MOL0     H11168  11.182   6.445   5.381  0.1305  0.8337  0.7227
  806MOL0     H11169  11.377   6.572   5.501 -0.2180 -2.7830 -1.7839
  806MOL0     H11170  11.311   6.441   5.572  1.0032  0.5295 -0.3532
  806MOL0     H11171  11.204   6.716   5.627  2.3979  0.1253 -1.9237
  806MOL0     H11172  11.172   6.574   5.719 -0.1452 -1.5771 -1.9820
  806MOL0     H11173  11.409   6.562   5.792 -0.3685  0.6462  1.3156
  806MOL0     H11174  11.341   6.712   5.836  0.5737  2.5726 -1.4449
  806MOL0     H11175  11.580   6.735   5.757  1.5799 -1.5301  0.2491
  806MOL0     H11176  11.534   6.682   5.593 -0.7498 -0.6302  0.5947
  806MOL0     H11177  11.568   6.964   5.787 -0.8583  2.4125  0.6045
  806MOL0     H11178  11.482   7.272   5.565 -0.9650  1.9328  0.0207
  806MOL0     H11179  11.583   7.238   5.701 -0.0707 -0.9717  1.0077
  806MOL0     H11180  11.276   7.258   5.719 -1.4871  1.5095  3.1532
  806MOL0     H11181  11.384   7.212   5.846  2.6410  0.8161  0.5354
  806MOL0     H11182  11.319   7.458   5.838  1.1008 -1.1975  1.4080
  806MOL0     H11183  11.494   7.419   5.834 -1.4692 -0.5150  0.7059
  806MOL0     H11184  11.478   7.470   5.572 -1.0740 -0.9421  0.2651
  806MOL0     H11185  11.310   7.494   5.596  0.9408 -0.2434 -2.2699
  806MOL0     H11186  11.587   7.856   5.643 -1.6881 -2.2595  0.8132
  806MOL0     H11187  11.748   7.957   5.534 -1.1408 -0.4631  0.5185
  806MOL0     H11188  11.678   8.094   5.458  0.8535 -0.6076 -0.1380
  806MOL0     H11189  11.776   7.979   5.359  0.9154 -1.1910  1.1041
  806MOL0     H11190  11.499   8.272   5.079 -0.0436  2.7670  1.1889
  806MOL0     H11191  11.630   8.388   4.913 -1.4854  0.4468  1.3783
  806MOL0     H11192  12.019   8.422   5.022  2.9291 -1.0217  0.2234
  806MOL0     H11193  12.097   8.304   4.914  1.2204  0.1760 -3.4525
  806MOL0     H11194  12.016   8.571   4.801 -0.3433  1.2483  0.9189
  806MOL0     H11195  12.156   8.563   4.894 -1.4458 -1.7174  2.8579
  806MOL0     H11196  12.074   8.412   4.634 -0.0970  2.7635 -1.1443
  806MOL0     H11197  12.228   8.366   4.709 -0.5469 -0.3229 -0.7702
  806MOL0     H11198  12.249   8.651   4.699  3.8262 -1.8148  1.4255
  806MOL0     H11199  12.152   8.619   4.556  1.1942 -2.0490 -1.5009
  806MOL0     H11200  12.410   8.469   4.623 -1.5724 -1.0151  1.0589
  806MOL0     H11201  12.306   8.450   4.477 -0.0981 -1.2855  1.7532
  806MOL0     H11202  12.372   8.688   4.422 -3.0575 -1.9728  0.4141
  806MOL0     H11203  12.501   8.570   4.430 -1.5046 -1.7183  0.0058
  806MOL0     H11204  12.589   8.634   4.625 -0.5620 -0.2170 -0.2065
  806MOL0     H11205  12.464   8.769   4.660  1.0356 -0.2089  0.8004
  806MOL0     H11206  12.557   8.839   4.418  2.9781 -0.2540 -1.5599
  806MOL0     H11207  12.695   8.736   4.459  1.5141  0.3337  3.3210
  806MOL0     H11208  11.969   8.125   4.993  0.2957  0.3064 -0.7985
  806MOL0     H11209  11.818   7.974   5.117  0.4272 -0.5430 -1.5261
  806MOL0     H11210  11.361   7.730   5.223 -0.2794 -3.6404  1.1552
  806MOL0     H11211  11.326   7.592   5.408 -0.1026  0.0463  1.1123
  806MOL0     H11212  11.543   6.676   5.044  3.7911 -2.5137 -3.2505
  806MOL0     H11213  11.566   6.506   4.879 -1.1261 -1.3843  0.1266
  806MOL0     H11214  11.639   6.591   4.351  0.3849  1.4165 -3.2186
  806MOL0     H11215  11.662   6.479   4.144 -0.1271 -1.5536  0.5687
  806MOL0     H11216  11.499   6.478   3.935 -1.2712  0.3438  1.7229
  806MOL0     H11217  11.515   6.344   3.841 -0.1433 -3.6061  0.3114
  806MOL0     H11218  11.250   6.417   3.999 -2.3055  0.7628 -3.0995
  806MOL0     H11219  11.274   6.271   3.897 -0.7829  0.0490  1.4932
  806MOL0     H11220  11.360   6.523   3.774  1.5201 -1.5803 -0.5033
  806MOL0     H11221  11.296   6.372   3.706 -0.7087  3.5297 -3.4120
  806MOL0     H11222  11.135   6.570   3.692 -0.1823 -1.8988 -0.4022
  806MOL0     H11223  11.146   6.595   3.858 -2.8300 -2.1334  1.5277
  806MOL0     H11224  10.893   6.242   3.791 -0.6229  0.2633 -0.4176
  806MOL0     H11225  11.303   6.259   4.199 -2.7587  1.6463 -1.9442
  806MOL0     H11226  11.158   6.365   4.386 -0.8824  5.0503 -1.0113
  806MOL0     H11227  11.263   6.308   4.531  4.0166  3.0744  3.1620
  806MOL0     H11228  11.217   6.479   4.503 -0.7120 -0.3312  0.7723
  807MOL0     O11229   5.101   0.077  11.095  0.7438  0.0630  0.5460
  807MOL0     C11230   5.213   0.092  11.149  0.7828  0.2183  0.6474
  807MOL0     O11231   5.311   0.157  11.080 -0.2284  0.2832 -0.0138
  807MOL0     C11232   5.300   0.251  10.982  0.0724  0.1742  0.0709
  807MOL0     C11233   5.179   0.330  10.968  0.0150 -0.0673  0.2853
  807MOL0     C11234   5.171   0.448  10.890  0.5649  0.5313  0.5674
  807MOL0     C11235   5.287   0.485  10.827  0.2511 -0.6863 -0.2435
  807MOL0     O11236   5.287   0.596  10.750 -0.5491  0.2913  0.5786
  807MOL0     C11237   5.362   0.711  10.802  0.0714  1.0749 -0.0382
  807MOL0     C11238   5.409   0.812  10.692 -1.5222  0.6077 -0.3124
  807MOL0     C11239   5.515   0.744  10.611  0.1509  0.3537  0.1969
  807MOL0     C11240   5.561   0.816  10.483  0.4182  0.0585  0.5471
  807MOL0     C11241   5.695   0.780  10.414  0.3125  0.6611  0.9107
  807MOL0     C11242   5.699   0.827  10.269  0.5007  0.3038 -0.8186
  807MOL0     C11243   5.827   0.801  10.194  0.2595 -0.1743  0.9941
  807MOL0     C11244   5.840   0.892  10.067 -0.5604  0.5174 -0.1295
  807MOL0     N11245   5.717   0.891   9.984  0.4201  0.2703 -0.7067
  807MOL0     C11246   5.679   0.810   9.882 -0.9534 -0.7076  0.0656
  807MOL0     C11247   5.567   0.854   9.823 -0.2146 -0.5723 -0.7076
  807MOL0     C11248   5.490   0.775   9.722  0.3404 -0.5071 -0.4219
  807MOL0     C11249   5.438   0.864   9.603 -0.6676 -0.2654 -0.2323
  807MOL0     C11250   5.352   0.790   9.501  0.5495  0.0438  0.8332
  807MOL0     C11251   5.203   0.780   9.532  0.2425 -0.0251 -0.1122
  807MOL0     O11252   5.179   0.697   9.644 -0.1140  0.3033 -0.1277
  807MOL0     C11253   5.049   0.682   9.683  0.8321 -0.6025 -0.9685
  807MOL0     C11254   4.935   0.742   9.637  0.4369 -0.1719  0.7605
  807MOL0     C11255   4.803   0.724   9.682  0.6484  0.1197 -1.3234
  807MOL0     C11256   4.686   0.793   9.612 -0.4392 -0.5263 -0.3449
  807MOL0     C11257   4.792   0.664   9.814  1.5126  1.5124  0.2864
  807MOL0     C11258   4.665   0.635   9.887  0.0494  0.3168 -0.9961
  807MOL0     O11259   4.682   0.600  10.014 -0.2691  0.1539 -0.2533
  807MOL0     C11260   4.576   0.598  10.104  0.1702  0.4206  0.3089
  807MOL0     C11261   4.546   0.477  10.165 -0.0742 -1.4757  0.0623
  807MOL0     C11262   4.449   0.471  10.265  0.5183  0.4405 -0.6044
  807MOL0     C11263   4.364   0.588  10.295 -0.0011 -0.1049  0.4008
  807MOL0     O11264   4.273   0.597  10.394  0.1209  0.2219  0.1452
  807MOL0     C11265   4.287   0.507  10.506 -0.0540 -0.0816 -0.2036
  807MOL0     C11266   4.166   0.532  10.598 -0.1488  0.0888  0.0077
  807MOL0     C11267   4.173   0.668  10.680 -0.1175  0.1301 -0.9333
  807MOL0     C11268   4.207   0.797  10.608  0.4506  1.0276 -0.8575
  807MOL0     C11269   4.229   0.921  10.692  0.5389  0.0165 -0.0165
  807MOL0     C11270   4.105   0.976  10.763  0.1646 -0.0183  0.0747
  807MOL0     C11271   3.991   1.022  10.659 -1.3582  1.1200 -0.2105
  807MOL0     C11272   3.873   1.099  10.715 -0.4743  0.0668 -0.5287
  807MOL0    Cl11273   3.731   1.061  10.624  0.4061  0.1742 -0.4171
  807MOL0     C11274   4.376   0.694  10.208  0.8484  0.0953 -0.1279
  807MOL0     C11275   4.477   0.698  10.119 -0.3937  0.3270  1.0894
  807MOL0     O11276   4.557   0.641   9.829  0.5994 -0.0913  1.2076
  807MOL0     C11277   4.906   0.599   9.865 -0.2121 -0.3615  0.1200
  807MOL0     C11278   5.022   0.605   9.799 -0.9828 -0.2083  1.1159
  807MOL0     N11279   5.548   0.984   9.875  0.2228  0.4509  0.2136
  807MOL0     N11280   5.630   0.996   9.973  0.3021  1.6344  0.4118
  807MOL0     C11281   5.403   0.403  10.826  0.5497 -0.6564  0.7496
  807MOL0     C11282   5.409   0.285  10.901 -0.0374 -0.1523  0.0748
  807MOL0     C11283   5.232   0.069  11.295 -0.3140  0.3777 -0.5823
  807MOL0     C11284   5.347   0.021  11.341  0.2332  0.3275  0.8972
  807MOL0     C11285   5.378   0.000  11.472  1.6395 -0.0548  0.2691
  807MOL0     C11286   5.273   0.028  11.567  0.0205  0.3232  0.1119
  807MOL0     O11287   5.293   0.001  11.700  0.4907  0.3737  0.0554
  807MOL0     C11288   5.291  -0.133  11.739  0.1035  1.1641 -0.3574
  807MOL0     C11289   5.153  -0.168  11.803 -0.8366  1.0557 -0.4669
  807MOL0     C11290   5.126  -0.103  11.940 -0.0407  0.4383 -0.3565
  807MOL0     C11291   5.211  -0.167  12.050 -0.1186  0.9811  0.2621
  807MOL0     C11292   5.190  -0.122  12.184  0.3493 -0.2939  0.6922
  807MOL0     C11293   5.188  -0.085  12.299  0.2942 -0.5808 -1.1414
  807MOL0     C11294   5.152   0.076  11.533  0.2227  0.2021  0.9047
  807MOL0     C11295   5.124   0.093  11.397 -0.3949  0.4145  0.3302
  807MOL0     C11296   4.985   0.149  11.373 -0.6976 -0.3669  0.1885
  807MOL0     H11297   5.093   0.310  11.031 -0.6219  0.6077 -0.3562
  807MOL0     H11298   5.083   0.510  10.875  0.9772  0.8320 -0.7640
  807MOL0     H11299   5.444   0.660  10.853 -1.9759 -1.0720  1.3308
  807MOL0     H11300   5.303   0.758  10.881  5.2231  1.9681  3.8094
  807MOL0     H11301   5.323   0.840  10.630 -2.4926 -0.9855  0.2680
  807MOL0     H11302   5.457   0.889  10.752 -0.7980 -0.3516  0.3666
  807MOL0     H11303   5.602   0.739  10.677 -0.3029  0.0610  0.7875
  807MOL0     H11304   5.488   0.640  10.589  0.9358  0.4050 -1.0855
  807MOL0     H11305   5.476   0.801  10.416 -0.1450 -0.6454  1.3894
  807MOL0     H11306   5.553   0.924  10.502 -1.7963 -0.1434  1.0640
  807MOL0     H11307   5.696   0.671  10.415  0.7223  0.6600  0.7581
  807MOL0     H11308   5.788   0.804  10.467  0.3228  1.3584  0.5888
  807MOL0     H11309   5.616   0.770  10.227  1.5653 -2.7550  0.9330
  807MOL0     H11310   5.675   0.934  10.260 -2.4481 -0.2828 -1.0632
  807MOL0     H11311   5.821   0.698  10.157 -3.5147  0.1636  0.2880
  807MOL0     H11312   5.914   0.819  10.258  0.4294  1.9542  0.2667
  807MOL0     H11313   5.864   0.997  10.086 -2.0270  0.5855  1.6659
  807MOL0     H11314   5.919   0.842  10.010  0.6616 -3.1695  4.1925
  807MOL0     H11315   5.737   0.722   9.857 -0.7276 -0.2693 -1.0309
  807MOL0     H11316   5.403   0.726   9.766  1.1816 -2.7188 -1.0615
  807MOL0     H11317   5.553   0.694   9.684 -1.4338 -1.6676 -1.0122
  807MOL0     H11318   5.380   0.948   9.643 -0.2237 -0.1982  0.2824
  807MOL0     H11319   5.527   0.914   9.562 -2.4275 -0.3585 -4.7860
  807MOL0     H11320   5.346   0.839   9.404 -0.7777 -3.8601 -1.3009
  807MOL0     H11321   5.394   0.690   9.489 -0.8066 -0.4150 -0.5140
  807MOL0     H11322   5.164   0.879   9.556  0.2828  0.1675 -0.8224
  807MOL0     H11323   5.163   0.738   9.438  1.7176  1.0344 -1.2504
  807MOL0     H11324   4.932   0.800   9.546 -2.5961  0.8128  1.3730
  807MOL0     H11325   4.658   0.869   9.686  0.6753 -1.7078  1.3508
  807MOL0     H11326   4.593   0.737   9.605  0.1500 -1.4890 -0.6112
  807MOL0     H11327   4.720   0.849   9.524 -0.5640 -0.2453 -0.2167
  807MOL0     H11328   4.613   0.395  10.138  0.3909 -1.4901  1.1705
  807MOL0     H11329   4.446   0.374  10.315  0.6381  0.7699  0.0562
  807MOL0     H11330   4.281   0.402  10.475 -0.4645  0.0530 -0.5945
  807MOL0     H11331   4.382   0.526  10.556 -0.2517 -2.7679  1.4259
  807MOL0     H11332   4.067   0.530  10.551 -1.0645 -0.7033  1.8384
  807MOL0     H11333   4.157   0.456  10.676 -5.1865 -0.6794 -0.9717
  807MOL0     H11334   4.246   0.656  10.761  1.9937  0.2629 -2.7235
  807MOL0     H11335   4.086   0.680  10.745 -0.2147 -2.0496 -0.5568
  807MOL0     H11336   4.135   0.812  10.527 -0.4112  0.1895 -0.2579
  807MOL0     H11337   4.300   0.777  10.555  1.1555 -2.1683  1.3356
  807MOL0     H11338   4.306   0.909  10.769 -0.5016  1.0868  1.2409
  807MOL0     H11339   4.266   1.006  10.634  0.0461 -0.7469 -1.5034
  807MOL0     H11340   4.138   1.062  10.821 -0.5036 -0.9874  1.9680
  807MOL0     H11341   4.068   0.904  10.836  0.4346  0.1192  0.3501
  807MOL0     H11342   3.952   0.932  10.610  1.4651  2.0652 -4.8283
  807MOL0     H11343   4.032   1.075  10.573  3.1205 -1.7858 -0.1776
  807MOL0     H11344   3.888   1.208  10.716 -4.5956  0.8114 -1.6197
  807MOL0     H11345   3.845   1.055  10.811 -1.4539 -0.6750 -1.1466
  807MOL0     H11346   4.303   0.770  10.236 -1.7488 -1.2561 -2.6163
  807MOL0     H11347   4.490   0.776  10.045  0.6139 -1.5650 -0.7985
  807MOL0     H11348   4.913   0.559   9.966  1.4988  2.9726  1.4701
  807MOL0     H11349   5.117   0.559   9.824 -0.8590 -1.3222 -1.2101
  807MOL0     H11350   5.482   0.446  10.765 -1.9484  2.9794 -0.2672
  807MOL0     H11351   5.496   0.221  10.886  1.8549  2.1965  0.3328
  807MOL0     H11352   5.436  -0.002  11.284  0.1068 -1.8138  1.4728
  807MOL0     H11353   5.479  -0.031  11.495  2.0380  0.0739 -1.2333
  807MOL0     H11354   5.298  -0.192  11.646 -2.0907  0.3686 -0.0791
  807MOL0     H11355   5.373  -0.163  11.804  0.5792  2.0941 -0.5119
  807MOL0     H11356   5.148  -0.276  11.825 -0.2100  1.3270  1.1193
  807MOL0     H11357   5.079  -0.142  11.727 -1.4311 -0.1763 -0.3329
  807MOL0     H11358   5.151   0.003  11.937  0.8611  0.2369 -0.1187
  807MOL0     H11359   5.020  -0.115  11.965  0.2132  0.0478  0.5907
  807MOL0     H11360   5.317  -0.161  12.025  0.0380 -4.2178 -1.6799
  807MOL0     H11361   5.197  -0.276  12.041  0.1595  1.0262 -0.9551
  807MOL0     H11362   5.183  -0.042  12.397 -2.6251 -0.9885 -1.0166
  807MOL0     H11363   5.076   0.106  11.604  1.0750  2.6008  0.8920
  807MOL0     H11364   4.979   0.240  11.434  2.1919  0.9484 -1.3119
  807MOL0     H11365   4.974   0.175  11.267  1.9246  0.9770  0.1637
  807MOL0     H11366   4.919   0.065  11.398 -1.1607  0.2178  0.9624
  808MOL0     O11367   7.301   6.567   3.655 -0.1734  0.4041 -0.1304
  808MOL0     C11368   7.303   6.600   3.532 -1.4209 -0.0800  0.1177
  808MOL0     O11369   7.201   6.660   3.475 -0.1911  0.1001  0.6691
  808MOL0     C11370   7.068   6.623   3.497 -0.8697 -0.0704 -0.1562
  808MOL0     C11371   6.976   6.695   3.420  0.8071  0.5207 -0.7919
  808MOL0     C11372   6.841   6.649   3.424  0.2891  0.2218 -0.4576
  808MOL0     C11373   6.797   6.542   3.506  0.9424  0.7954 -0.0409
  808MOL0     O11374   6.670   6.499   3.517  0.3935  0.1143  0.1097
  808MOL0     C11375   6.609   6.506   3.650 -0.0556  0.1751 -0.1110
  808MOL0     C11376   6.453   6.480   3.639 -0.5495  0.0200 -0.3359
  808MOL0     C11377   6.367   6.604   3.612 -0.5103 -0.0078 -0.0965
  808MOL0     C11378   6.379   6.666   3.476 -0.7901  0.3399  0.2772
  808MOL0     C11379   6.300   6.802   3.463 -0.3373  0.5685  0.0923
  808MOL0     C11380   6.333   6.885   3.345  0.7452 -0.3209 -0.4726
  808MOL0     C11381   6.208   6.991   3.330 -0.5532  0.0031 -0.2872
  808MOL0     C11382   6.215   7.112   3.428 -0.4855  0.0793 -0.1780
  808MOL0     N11383   6.111   7.209   3.399 -0.2708 -0.2953  1.0916
  808MOL0     C11384   5.981   7.192   3.439 -0.5379 -0.2349  0.9669
  808MOL0     C11385   5.918   7.301   3.398 -0.1614 -0.5667  0.5878
  808MOL0     C11386   5.766   7.298   3.431 -0.0575  0.3309  0.1571
  808MOL0     C11387   5.737   7.265   3.582 -0.0380 -0.5085 -0.5334
  808MOL0     C11388   5.832   7.324   3.691  0.1461 -0.2070  0.4183
  808MOL0     C11389   5.842   7.475   3.686  0.6080  0.0038  0.4880
  808MOL0     O11390   5.934   7.523   3.788  0.8070  0.3084 -0.0375
  808MOL0     C11391   6.067   7.517   3.766  0.7777 -0.2917  0.2403
  808MOL0     C11392   6.140   7.574   3.867 -0.3012 -0.9063  0.3228
  808MOL0     C11393   6.276   7.589   3.869  0.1529  1.5423  0.1428
  808MOL0     C11394   6.330   7.620   4.003  0.0252 -0.0643 -0.3649
  808MOL0     C11395   6.347   7.535   3.757  0.8171 -0.9240  0.2143
  808MOL0     C11396   6.492   7.540   3.755 -0.6821 -1.0983 -0.6051
  808MOL0     O11397   6.548   7.423   3.698 -0.5916 -0.0856  0.2600
  808MOL0     C11398   6.681   7.420   3.705 -0.4420 -0.1703  0.0922
  808MOL0     C11399   6.751   7.485   3.597  0.4416  0.3017  0.8540
  808MOL0     C11400   6.894   7.485   3.585  0.1407  0.2613  0.1136
  808MOL0     C11401   6.969   7.426   3.689  0.6071  0.9299 -0.1493
  808MOL0     O11402   7.104   7.432   3.694 -0.8966  0.3973 -0.9025
  808MOL0     C11403   7.180   7.442   3.573 -0.6141 -0.2779 -0.3143
  808MOL0     C11404   7.320   7.397   3.604  0.5106 -0.4981 -0.1391
  808MOL0     C11405   7.376   7.334   3.482 -0.4122  0.2516  0.9296
  808MOL0     C11406   7.397   7.408   3.347 -0.4087  0.6885  0.9722
  808MOL0     C11407   7.453   7.292   3.260 -0.4647  1.0942  0.5552
  808MOL0     C11408   7.604   7.257   3.281 -0.7071  0.2132  0.3606
  808MOL0     C11409   7.698   7.369   3.237 -0.4696 -0.6177 -0.2055
  808MOL0     C11410   7.845   7.327   3.264  0.6926  0.2558  0.3589
  808MOL0    Cl11411   7.976   7.444   3.226  0.0755  0.2048 -0.0928
  808MOL0     C11412   6.899   7.371   3.804  0.3883  0.2304  0.2588
  808MOL0     C11413   6.754   7.361   3.805 -1.1599 -0.4435  0.1122
  808MOL0     O11414   6.551   7.645   3.800 -1.1397 -0.1648 -0.5542
  808MOL0     C11415   6.275   7.485   3.650  0.0394  0.6439  0.5926
  808MOL0     C11416   6.137   7.474   3.653  0.3452  0.4663  0.3748
  808MOL0     N11417   6.015   7.379   3.328 -0.2035 -0.3330  0.1556
  808MOL0     N11418   6.124   7.322   3.323  0.3313  0.1690  0.2780
  808MOL0     C11419   6.894   6.466   3.573 -0.2116  0.4530  1.0874
  808MOL0     C11420   7.030   6.507   3.565  0.4625  0.0013 -0.1909
  808MOL0     C11421   7.424   6.599   3.445  0.3936  0.8178  0.0588
  808MOL0     C11422   7.431   6.695   3.344  0.6391  0.7616  0.4269
  808MOL0     C11423   7.546   6.709   3.265  0.2718  0.0559  0.0881
  808MOL0     C11424   7.654   6.618   3.271 -0.2781 -0.2758 -0.1180
  808MOL0     O11425   7.751   6.635   3.179  0.3282  0.4948  0.5822
  808MOL0     C11426   7.856   6.533   3.174  0.2230  0.6699 -0.3527
  808MOL0     C11427   7.932   6.542   3.042  0.3996  0.5149  0.4323
  808MOL0     C11428   8.078   6.495   3.071 -0.0914 -0.6328  1.0987
  808MOL0     C11429   8.170   6.520   2.953 -0.0883 -0.1555 -0.0460
  808MOL0     C11430   8.161   6.415   2.847  0.5595 -0.6079 -0.5494
  808MOL0     C11431   8.168   6.336   2.753  0.8021 -0.6386  0.5676
  808MOL0     C11432   7.652   6.530   3.379  0.2711  0.3274  0.8183
  808MOL0     C11433   7.543   6.532   3.471  0.2127 -0.6184 -0.2970
  808MOL0     C11434   7.561   6.448   3.590  0.1297 -0.1141 -0.5811
  808MOL0     H11435   7.007   6.791   3.379  1.1250  1.4852  1.5425
  808MOL0     H11436   6.763   6.702   3.370  0.6221 -0.0400 -1.2144
  808MOL0     H11437   6.635   6.601   3.697  2.7081 -0.1614 -0.7847
  808MOL0     H11438   6.655   6.428   3.712  0.7856 -0.2140 -1.1917
  808MOL0     H11439   6.425   6.408   3.562 -1.8665 -3.3122  2.9372
  808MOL0     H11440   6.418   6.433   3.732 -0.9040 -0.6760 -0.8057
  808MOL0     H11441   6.261   6.579   3.627 -0.2025 -0.4895  1.4282
  808MOL0     H11442   6.386   6.676   3.693 -1.2219  1.1893 -0.9518
  808MOL0     H11443   6.481   6.692   3.448 -0.6036  0.4571  1.0625
  808MOL0     H11444   6.324   6.596   3.411 -0.8116 -0.6151  1.2889
  808MOL0     H11445   6.304   6.869   3.550 -4.0792 -2.5091  3.0499
  808MOL0     H11446   6.194   6.773   3.462 -0.0340 -0.6465  0.6651
  808MOL0     H11447   6.433   6.930   3.353  2.3357 -3.7908  1.7713
  808MOL0     H11448   6.328   6.809   3.267 -0.5532 -0.9187  0.1728
  808MOL0     H11449   6.103   6.958   3.333 -1.0784  1.4426 -1.4103
  808MOL0     H11450   6.221   7.030   3.229 -1.1016  1.3170  0.1233
  808MOL0     H11451   6.194   7.079   3.530 -1.5377  2.3744  0.4172
  808MOL0     H11452   6.311   7.162   3.415 -1.6627  1.9992 -2.6264
  808MOL0     H11453   5.942   7.109   3.497 -0.9149 -0.1005  0.9069
  808MOL0     H11454   5.724   7.231   3.356  1.7686  1.8407 -2.3739
  808MOL0     H11455   5.736   7.403   3.419  3.1754  1.4444  0.7523
  808MOL0     H11456   5.634   7.291   3.608 -0.2633  0.8329 -2.4514
  808MOL0     H11457   5.756   7.160   3.605  2.5597  0.6254  3.5101
  808MOL0     H11458   5.796   7.284   3.786 -1.5464 -2.1321 -0.9388
  808MOL0     H11459   5.924   7.266   3.675 -1.9681 -3.7138 -0.0887
  808MOL0     H11460   5.867   7.510   3.585  1.3677 -2.8524 -0.3932
  808MOL0     H11461   5.742   7.512   3.710 -0.1039 -0.9999 -0.8309
  808MOL0     H11462   6.080   7.610   3.951  1.3525 -0.4264  1.3376
  808MOL0     H11463   6.427   7.572   4.017 -0.6819 -0.8247  2.6402
  808MOL0     H11464   6.261   7.595   4.083  0.5558  0.1987  0.1847
  808MOL0     H11465   6.345   7.728   3.986 -0.4167  0.4315  2.0468
  808MOL0     H11466   6.696   7.519   3.510 -0.2136 -2.1785  0.2116
  808MOL0     H11467   6.941   7.545   3.508  1.4004  0.0025  0.6631
  808MOL0     H11468   7.133   7.398   3.484  0.2729  1.4605 -1.7230
  808MOL0     H11469   7.204   7.544   3.540  1.6077 -0.7362 -0.2635
  808MOL0     H11470   7.378   7.481   3.643  0.0519 -0.2554  0.0279
  808MOL0     H11471   7.311   7.318   3.679 -0.2577  0.3469  0.6908
  808MOL0     H11472   7.310   7.247   3.472  1.1918 -0.7786 -1.9777
  808MOL0     H11473   7.472   7.298   3.520 -0.7040  0.2325  1.6751
  808MOL0     H11474   7.464   7.494   3.353 -0.3544  0.7580 -0.2759
  808MOL0     H11475   7.302   7.438   3.303  0.0916  1.0007  0.0887
  808MOL0     H11476   7.401   7.197   3.278  1.4497  0.2010  1.7061
  808MOL0     H11477   7.433   7.308   3.154 -0.8555 -3.1268 -0.1850
  808MOL0     H11478   7.623   7.173   3.213  0.7067  1.3510 -0.7104
  808MOL0     H11479   7.620   7.213   3.380 -0.2018 -1.9945 -0.6201
  808MOL0     H11480   7.675   7.459   3.295 -0.3045 -0.9928  0.4529
  808MOL0     H11481   7.682   7.384   3.130  2.2671  2.2605 -0.3700
  808MOL0     H11482   7.862   7.226   3.228  0.4466  0.3032  0.1030
  808MOL0     H11483   7.845   7.324   3.374  1.7225  1.5256  0.4292
  808MOL0     H11484   6.944   7.350   3.901  1.5802  2.9616  0.3869
  808MOL0     H11485   6.706   7.322   3.893 -0.3949 -0.7830  0.3879
  808MOL0     H11486   6.310   7.423   3.568  3.7703  2.0570  0.9589
  808MOL0     H11487   6.083   7.420   3.575  0.0703  1.0861  0.1305
  808MOL0     H11488   6.888   6.367   3.617  0.4295 -0.8047 -1.4257
  808MOL0     H11489   7.099   6.427   3.593  1.2247  0.3456 -1.0381
  808MOL0     H11490   7.341   6.751   3.318 -0.4004 -0.3101  1.5916
  808MOL0     H11491   7.555   6.777   3.181  1.2064 -0.8009 -0.5312
  808MOL0     H11492   7.922   6.526   3.261 -0.1644  2.0527  0.0773
  808MOL0     H11493   7.803   6.438   3.168  2.2347 -0.5299 -0.1687
  808MOL0     H11494   7.945   6.644   3.004  0.9945  0.5453  0.6979
  808MOL0     H11495   7.882   6.481   2.966  0.9682  1.1244 -0.4489
  808MOL0     H11496   8.121   6.552   3.154  0.8911  1.0739 -0.5232
  808MOL0     H11497   8.083   6.390   3.102  2.6584 -0.6549  0.8060
  808MOL0     H11498   8.274   6.537   2.983 -0.3177  0.2712  0.5351
  808MOL0     H11499   8.132   6.607   2.898 -2.5234 -1.0766  0.0398
  808MOL0     H11500   8.176   6.270   2.669  2.2935 -0.8661  0.8578
  808MOL0     H11501   7.748   6.488   3.406  1.5254  1.2672 -1.7588
  808MOL0     H11502   7.645   6.380   3.577  1.0778  0.8108  0.5246
  808MOL0     H11503   7.592   6.510   3.675  0.3399  1.4732 -1.7515
  808MOL0     H11504   7.468   6.392   3.603 -0.4603  1.1070  0.7592
  809MOL0     O11505   0.391   5.714  10.654  0.1241  0.2215  0.2411
  809MOL0     C11506   0.266   5.702  10.668  0.2918  1.2733  0.5352
  809MOL0     O11507   0.163   5.796  10.687 -0.3486  0.0282  1.0271
  809MOL0     C11508   0.184   5.930  10.652  0.1202  0.3770  0.2442
  809MOL0     C11509   0.301   6.004  10.630 -0.3814  0.1691 -0.8498
  809MOL0     C11510   0.302   6.141  10.633 -0.0017 -0.7903  0.1910
  809MOL0     C11511   0.185   6.213  10.640  0.6450 -0.3505  0.2139
  809MOL0     O11512   0.190   6.344  10.612  0.6225  0.2965  0.4775
  809MOL0     C11513   0.088   6.430  10.668  0.2556  0.2157  0.6200
  809MOL0     C11514   0.136   6.573  10.655  0.7620  0.0026  0.1969
  809MOL0     C11515   0.125   6.610  10.509 -0.9731  0.3432 -0.0536
  809MOL0     C11516   0.180   6.757  10.488 -0.6407  0.2043  0.0700
  809MOL0     C11517   0.123   6.824  10.365 -0.6366 -0.3464 -0.3097
  809MOL0     C11518   0.152   6.973  10.384  0.2120  1.0496 -0.4518
  809MOL0     C11519   0.297   7.002  10.378  0.4017 -0.1845  0.5623
  809MOL0     C11520   0.315   7.151  10.344  0.1907 -0.4448  0.3909
  809MOL0     N11521   0.451   7.199  10.348  0.4168 -0.4637 -0.8082
  809MOL0     C11522   0.554   7.165  10.257  0.6868  0.4890  0.2159
  809MOL0     C11523   0.666   7.227  10.300 -0.5128 -0.5261 -0.3479
  809MOL0     C11524   0.813   7.208  10.247 -0.3435  0.2822 -0.2592
  809MOL0     C11525   0.858   7.334  10.176  0.5347 -0.6570  0.0531
  809MOL0     C11526   0.774   7.381  10.055 -0.9667 -0.1363 -0.2332
  809MOL0     C11527   0.873   7.437   9.947  0.9582  0.5974 -0.2242
  809MOL0     O11528   0.931   7.319   9.876  0.1686  0.8491 -0.2154
  809MOL0     C11529   1.006   7.337   9.768  1.1301  0.6049 -0.3956
  809MOL0     C11530   1.013   7.462   9.707  0.9778  0.9567 -0.6284
  809MOL0     C11531   1.088   7.482   9.588  0.1133 -0.4616 -0.2724
  809MOL0     C11532   1.085   7.618   9.517 -0.0490 -0.1685 -0.0633
  809MOL0     C11533   1.145   7.367   9.518 -0.0312  0.5775  0.2212
  809MOL0     C11534   1.214   7.370   9.388 -0.6795 -0.3772 -0.3993
  809MOL0     O11535   1.229   7.258   9.312  0.1995  0.0128 -0.5210
  809MOL0     C11536   1.328   7.248   9.219  0.5495  0.1655 -0.7214
  809MOL0     C11537   1.459   7.261   9.239  0.4230 -1.0540 -0.6233
  809MOL0     C11538   1.546   7.258   9.135 -0.6053  0.4436  0.0706
  809MOL0     C11539   1.498   7.258   9.002 -0.7617  0.2305  0.1995
  809MOL0     O11540   1.583   7.283   8.901  0.5086 -0.1000 -0.1991
  809MOL0     C11541   1.567   7.207   8.781  0.7749 -0.1146 -0.9910
  809MOL0     C11542   1.686   7.222   8.692 -0.1698  0.0795  0.0006
  809MOL0     C11543   1.818   7.178   8.755  0.9821  0.9648  1.0555
  809MOL0     C11544   1.919   7.123   8.655 -0.2066  0.7459 -1.3871
  809MOL0     C11545   1.907   6.990   8.583  0.0696  0.7611 -0.7536
  809MOL0     C11546   1.912   6.869   8.676  0.3497  0.0756 -0.3719
  809MOL0     C11547   1.908   6.733   8.610 -0.4398 -0.5391  0.2302
  809MOL0     C11548   2.050   6.687   8.557  0.3575  1.0139  0.2670
  809MOL0    Cl11549   2.155   6.639   8.700  0.0545 -0.1507  0.0156
  809MOL0     C11550   1.361   7.237   8.989 -0.0234  0.1568  0.5547
  809MOL0     C11551   1.276   7.219   9.094  0.2788  0.1539 -0.0083
  809MOL0     O11552   1.282   7.476   9.371  0.4324  0.0532  0.2778
  809MOL0     C11553   1.118   7.242   9.579 -0.7801 -0.3597  0.7119
  809MOL0     C11554   1.060   7.230   9.705 -0.0576  0.5401  0.1453
  809MOL0     N11555   0.624   7.286  10.417  0.0093 -0.2165  0.0109
  809MOL0     N11556   0.501   7.267  10.448 -0.4332 -0.8057  0.5690
  809MOL0     C11557   0.071   6.142  10.658  0.7077 -0.0800  0.1559
  809MOL0     C11558   0.069   6.002  10.665  0.2434 -0.4962 -0.6872
  809MOL0     C11559   0.218   5.560  10.674 -0.6520 -0.4472 -0.2921
  809MOL0     C11560   0.124   5.523  10.584  0.4199 -0.2094 -0.2590
  809MOL0     C11561   0.055   5.404  10.602  0.7999  0.8727  0.1363
  809MOL0     C11562   0.108   5.309  10.684 -0.1605 -0.0909 -0.1654
  809MOL0     O11563   0.036   5.189  10.681 -0.0042 -0.2957 -0.5911
  809MOL0     C11564   0.089   5.074  10.747  0.2418  0.1266 -0.9534
  809MOL0     C11565  -0.013   4.962  10.716  0.1401 -0.5346 -0.1493
  809MOL0     C11566  -0.158   4.980  10.764 -0.4773  0.2743  0.5679
  809MOL0     C11567  -0.236   4.836  10.744  0.2937 -0.7043 -0.1745
  809MOL0     C11568  -0.175   4.718  10.809  0.3438 -0.1458 -0.1084
  809MOL0     C11569  -0.096   4.636  10.854 -0.1590  0.7676  0.4962
  809MOL0     C11570   0.214   5.343  10.772 -0.1295 -0.4483  0.3080
  809MOL0     C11571   0.273   5.464  10.763 -0.5956  0.1308  0.2655
  809MOL0     C11572   0.390   5.488  10.850  0.1070  0.5590 -0.4190
  809MOL0     H11573   0.404   5.969  10.633 -0.1600  0.7856 -1.0838
  809MOL0     H11574   0.390   6.203  10.626 -1.4366  1.1665 -2.0437
  809MOL0     H11575   0.084   6.406  10.775  0.6156  3.6191  1.5076
  809MOL0     H11576  -0.003   6.405  10.613  2.6389 -0.7409 -3.2923
  809MOL0     H11577   0.069   6.632  10.718  3.7053  3.7855  0.1732
  809MOL0     H11578   0.233   6.586  10.704  0.1812 -0.3628  1.4874
  809MOL0     H11579   0.186   6.535  10.458 -0.0789 -0.2594  1.8232
  809MOL0     H11580   0.019   6.599  10.486 -0.8171 -1.8538  0.1117
  809MOL0     H11581   0.140   6.824  10.565 -0.9568  2.0661 -1.6385
  809MOL0     H11582   0.289   6.756  10.481 -0.6453  2.6579 -1.4212
  809MOL0     H11583   0.016   6.806  10.359 -0.4659 -2.7591  1.9581
  809MOL0     H11584   0.170   6.787  10.273 -1.1561  4.2021 -2.6772
  809MOL0     H11585   0.099   7.020  10.301 -1.6408 -0.2254 -0.0396
  809MOL0     H11586   0.110   7.006  10.479 -1.2137 -0.3440 -0.5698
  809MOL0     H11587   0.344   6.943  10.299 -1.1055  1.1600 -1.3994
  809MOL0     H11588   0.332   6.979  10.480 -2.8333 -0.2003  1.7948
  809MOL0     H11589   0.272   7.183  10.249  0.1477  0.8783  0.8294
  809MOL0     H11590   0.258   7.211  10.416  0.3398  1.2146 -0.8355
  809MOL0     H11591   0.540   7.083  10.187 -0.6088 -0.5871  1.6733
  809MOL0     H11592   0.825   7.118  10.186  0.9053 -1.8306  2.8359
  809MOL0     H11593   0.879   7.196  10.333 -2.3452  1.0453  1.4688
  809MOL0     H11594   0.840   7.419  10.243 -1.4280 -0.6380 -0.4447
  809MOL0     H11595   0.963   7.339  10.146 -0.2947 -1.2230 -3.3126
  809MOL0     H11596   0.715   7.301  10.009  1.3722 -2.1137  0.0056
  809MOL0     H11597   0.710   7.467  10.076  1.0207  1.3507  0.0392
  809MOL0     H11598   0.806   7.479   9.872 -0.1860 -0.2342  0.2965
  809MOL0     H11599   0.946   7.507   9.990  0.9563 -0.7196  2.1097
  809MOL0     H11600   0.955   7.546   9.745  0.2215 -0.1262  0.6878
  809MOL0     H11601   1.026   7.688   9.577  1.7398 -0.7249  2.4827
  809MOL0     H11602   1.046   7.596   9.417  0.3684 -2.7693  0.2745
  809MOL0     H11603   1.189   7.653   9.510  0.2521 -1.3173 -2.8233
  809MOL0     H11604   1.483   7.280   9.343  0.0145  2.8923 -1.0869
  809MOL0     H11605   1.653   7.276   9.142 -0.2062 -1.8840  0.6368
  809MOL0     H11606   1.562   7.099   8.795  0.2332 -0.2798 -2.2649
  809MOL0     H11607   1.482   7.243   8.722 -1.4425 -0.7626  1.6021
  809MOL0     H11608   1.674   7.158   8.605 -0.2614  1.0004 -0.6724
  809MOL0     H11609   1.700   7.325   8.657 -1.6808  0.0556 -0.7297
  809MOL0     H11610   1.803   7.090   8.819  0.2630 -1.8565 -2.6496
  809MOL0     H11611   1.853   7.261   8.817 -2.5937  3.2580  0.3046
  809MOL0     H11612   2.013   7.105   8.709 -0.7381  2.8470  0.3604
  809MOL0     H11613   1.934   7.201   8.579  2.8463 -0.1105 -1.7894
  809MOL0     H11614   1.809   6.982   8.536 -0.6139 -2.6374  0.9648
  809MOL0     H11615   1.990   6.981   8.512  0.1947 -0.5598 -0.4589
  809MOL0     H11616   1.821   6.865   8.736  0.1539  1.5268 -0.5516
  809MOL0     H11617   1.997   6.877   8.745  0.3983  2.8671 -0.6682
  809MOL0     H11618   1.842   6.733   8.522  0.9098 -0.1807 -0.8275
  809MOL0     H11619   1.870   6.657   8.678  2.2875 -1.3972  0.9246
  809MOL0     H11620   2.085   6.774   8.502 -1.0301 -0.0266 -2.4434
  809MOL0     H11621   2.039   6.597   8.496  0.4925  0.8958  0.4155
  809MOL0     H11622   1.331   7.230   8.885 -1.8846 -0.4720  1.1057
  809MOL0     H11623   1.171   7.191   9.085  0.0025  0.7745  1.0007
  809MOL0     H11624   1.150   7.155   9.524 -2.5892 -0.4300 -0.3245
  809MOL0     H11625   1.039   7.132   9.748 -2.0475  0.8703  0.0269
  809MOL0     H11626  -0.028   6.183  10.678 -0.0886 -3.0063  3.2751
  809MOL0     H11627  -0.027   5.957  10.690 -0.3921  0.5990 -1.1049
  809MOL0     H11628   0.097   5.593  10.505  2.8865  0.9379 -0.1790
  809MOL0     H11629  -0.030   5.379  10.539  0.2667 -1.5000  1.6642
  809MOL0     H11630   0.191   5.054  10.714  0.6054  1.0227 -0.4322
  809MOL0     H11631   0.096   5.092  10.855 -2.2768 -2.5975 -0.2076
  809MOL0     H11632   0.020   4.880  10.781 -0.2930 -1.7073 -1.3710
  809MOL0     H11633  -0.013   4.944  10.608 -1.8978  0.3230 -0.3382
  809MOL0     H11634  -0.165   4.999  10.872 -1.5576 -1.3313  0.8111
  809MOL0     H11635  -0.203   5.061  10.706  3.1951  1.8981 -0.2656
  809MOL0     H11636  -0.245   4.811  10.638 -0.6570 -1.1680  0.0122
  809MOL0     H11637  -0.335   4.854  10.786  1.9962  6.2432  2.0885
  809MOL0     H11638  -0.028   4.563  10.895 -0.9756 -0.8129 -0.8472
  809MOL0     H11639   0.237   5.256  10.834 -3.5440 -0.6462  1.5108
  809MOL0     H11640   0.484   5.487  10.795  1.4354  1.3325  1.7118
  809MOL0     H11641   0.385   5.588  10.894  0.5269  0.9862 -1.3299
  809MOL0     H11642   0.407   5.412  10.927 -0.6872  0.9769  0.1886
  810MOL0     O11643   5.928   0.259   3.324  0.3359 -0.0276  0.3104
  810MOL0     C11644   5.895   0.319   3.422  0.0624 -0.0122 -0.0730
  810MOL0     O11645   5.821   0.275   3.538 -0.7264  0.2634  0.5687
  810MOL0     C11646   5.790   0.142   3.544 -0.7656 -0.1300  0.4923
  810MOL0     C11647   5.682   0.104   3.461 -0.2765 -0.0696 -0.4165
  810MOL0     C11648   5.636  -0.029   3.474 -0.0715 -0.3314  1.0793
  810MOL0     C11649   5.704  -0.126   3.546 -0.4555  0.1691 -1.1603
  810MOL0     O11650   5.653  -0.257   3.557  0.2918  0.5766  0.0767
  810MOL0     C11651   5.653  -0.343   3.675  0.8444 -0.0228  0.7095
  810MOL0     C11652   5.580  -0.480   3.637  0.2320  0.2107 -0.1994
  810MOL0     C11653   5.623  -0.600   3.712  0.1414 -0.9876  0.2865
  810MOL0     C11654   5.631  -0.565   3.863 -0.2684  0.8133  1.3072
  810MOL0     C11655   5.642  -0.700   3.947  0.0835  0.1037 -0.5384
  810MOL0     C11656   5.518  -0.788   3.933 -0.1030  0.2030 -1.0607
  810MOL0     C11657   5.536  -0.904   4.038 -0.1040  0.3725 -0.2977
  810MOL0     C11658   5.654  -1.004   4.027  1.1240 -0.2715 -0.7680
  810MOL0     N11659   5.644  -1.082   3.912  0.2166  0.2087  0.2652
  810MOL0     C11660   5.587  -1.214   3.900  0.0059 -0.0706 -0.8817
  810MOL0     C11661   5.610  -1.251   3.776 -0.1287 -0.5116  0.0129
  810MOL0     C11662   5.583  -1.381   3.712 -0.0938 -0.3282  0.7790
  810MOL0     C11663   5.703  -1.430   3.626 -0.7297 -0.1699  0.0103
  810MOL0     C11664   5.667  -1.577   3.574  0.3649  0.8317  0.2930
  810MOL0     C11665   5.760  -1.623   3.462  0.0924 -0.0640 -0.4876
  810MOL0     O11666   5.769  -1.762   3.463 -0.1002 -0.1196 -0.3335
  810MOL0     C11667   5.664  -1.841   3.414  0.5797 -0.6904  0.4881
  810MOL0     C11668   5.543  -1.799   3.350 -0.0414 -0.2858 -1.0350
  810MOL0     C11669   5.454  -1.883   3.289  0.9734 -0.0050 -0.5576
  810MOL0     C11670   5.336  -1.814   3.224 -0.5445  0.2098  0.3493
  810MOL0     C11671   5.481  -2.023   3.300  0.7284 -0.2265 -0.5244
  810MOL0     C11672   5.373  -2.127   3.261  0.9048 -0.1849 -0.3118
  810MOL0     O11673   5.420  -2.259   3.242 -0.0712 -0.0120  0.2337
  810MOL0     C11674   5.321  -2.352   3.202 -0.6639  0.3509 -0.1036
  810MOL0     C11675   5.223  -2.385   3.292  0.2221 -0.0956  0.2037
  810MOL0     C11676   5.110  -2.454   3.241 -0.0858  0.2804  0.2880
  810MOL0     C11677   5.102  -2.487   3.105  1.0905  1.3583 -0.1883
  810MOL0     O11678   4.996  -2.563   3.047 -0.2418 -0.1888 -0.5225
  810MOL0     C11679   4.999  -2.699   3.084 -0.5632 -0.2854 -0.5707
  810MOL0     C11680   4.936  -2.792   2.986  0.2578 -0.6612 -0.7256
  810MOL0     C11681   4.909  -2.930   3.035  0.1829 -0.0708  0.2427
  810MOL0     C11682   4.865  -3.016   2.926  1.1927 -0.0325  0.4166
  810MOL0     C11683   4.815  -3.154   2.967  0.7162  0.0643  0.7595
  810MOL0     C11684   4.929  -3.257   3.014  0.6065  1.1539  0.4423
  810MOL0     C11685   4.873  -3.389   3.083  0.7225  1.1180 -0.1803
  810MOL0     C11686   4.861  -3.520   2.997 -0.1503  0.2705  0.7665
  810MOL0    Cl11687   4.716  -3.513   2.897  0.0507  0.0348 -0.0159
  810MOL0     C11688   5.203  -2.456   3.021 -0.8716 -0.3650  0.4017
  810MOL0     C11689   5.321  -2.390   3.066  0.5601  0.5606 -0.6216
  810MOL0     O11690   5.255  -2.090   3.253 -0.6813 -0.1026  0.2454
  810MOL0     C11691   5.596  -2.067   3.356 -0.2004  0.5963 -0.3077
  810MOL0     C11692   5.685  -1.971   3.401 -0.1950 -0.0739  0.3442
  810MOL0     N11693   5.683  -1.156   3.711 -0.3218 -0.1071  0.0089
  810MOL0     N11694   5.702  -1.057   3.789  0.7778 -0.2527  0.0624
  810MOL0     C11695   5.819  -0.092   3.601  0.2116 -0.6463  0.0034
  810MOL0     C11696   5.864   0.039   3.608  0.5810  0.3501  0.2824
  810MOL0     C11697   5.955   0.456   3.424  0.1828  0.2534 -0.6085
  810MOL0     C11698   6.095   0.474   3.421  0.2343 -0.7236  0.2858
  810MOL0     C11699   6.148   0.604   3.439 -0.3031  0.2490  0.3648
  810MOL0     C11700   6.063   0.716   3.438  0.4568  0.7927  0.0029
  810MOL0     O11701   6.117   0.841   3.439 -0.3140 -0.6973  0.0623
  810MOL0     C11702   6.069   0.970   3.481  1.2771  0.8870 -0.1276
  810MOL0     C11703   6.058   1.061   3.364  0.3310  0.7000 -0.1561
  810MOL0     C11704   6.199   1.106   3.301  0.2689  0.3082  0.0891
  810MOL0     C11705   6.179   1.192   3.180 -0.2348 -0.2987 -0.1558
  810MOL0     C11706   6.303   1.263   3.155  0.1642  0.4570 -0.6793
  810MOL0     C11707   6.405   1.324   3.134  0.2533  0.0318 -0.1093
  810MOL0     C11708   5.922   0.697   3.452  0.4641 -0.0593 -0.1400
  810MOL0     C11709   5.867   0.572   3.447 -0.6591  0.9203  0.2294
  810MOL0     C11710   5.712   0.550   3.442 -0.6221 -0.5023  0.8362
  810MOL0     H11711   5.631   0.190   3.420  1.1997  1.0931  0.0770
  810MOL0     H11712   5.553  -0.057   3.409  0.1343 -0.0810  0.7093
  810MOL0     H11713   5.602  -0.294   3.758 -3.1047 -1.0119 -0.9136
  810MOL0     H11714   5.752  -0.380   3.704  0.2566 -1.6837  0.7119
  810MOL0     H11715   5.471  -0.469   3.632 -0.0502 -2.5151 -2.5614
  810MOL0     H11716   5.596  -0.505   3.532 -3.4083 -0.5773 -0.6902
  810MOL0     H11717   5.548  -0.679   3.701  0.9804 -1.9257  1.0459
  810MOL0     H11718   5.721  -0.631   3.673  0.9733  3.5347 -1.8240
  810MOL0     H11719   5.726  -0.511   3.871 -0.0139  0.7904 -0.9728
  810MOL0     H11720   5.547  -0.504   3.895 -1.0422  0.0877  0.6972
  810MOL0     H11721   5.672  -0.667   4.047  2.6579 -1.0910 -0.8330
  810MOL0     H11722   5.712  -0.772   3.903 -0.5685 -0.9370  0.0787
  810MOL0     H11723   5.426  -0.730   3.948 -1.9018 -2.8608  0.7801
  810MOL0     H11724   5.500  -0.833   3.835 -0.9233 -1.9510  0.0232
  810MOL0     H11725   5.444  -0.963   4.052 -0.1853  0.8689  1.4958
  810MOL0     H11726   5.553  -0.852   4.132  0.2000  1.3808 -0.8932
  810MOL0     H11727   5.752  -0.955   4.032  0.7264  0.6665 -1.8902
  810MOL0     H11728   5.634  -1.066   4.115 -1.7361  3.1079  1.1786
  810MOL0     H11729   5.557  -1.282   3.979  0.6803 -3.2255 -3.1229
  810MOL0     H11730   5.493  -1.367   3.653  0.1610 -2.2250 -0.1172
  810MOL0     H11731   5.555  -1.456   3.786 -3.4089  0.8405  0.8461
  810MOL0     H11732   5.728  -1.362   3.545  2.8730 -2.9019 -1.4650
  810MOL0     H11733   5.795  -1.432   3.685 -0.8676  1.7787  0.3470
  810MOL0     H11734   5.667  -1.652   3.654  1.2007 -1.0131 -1.3411
  810MOL0     H11735   5.564  -1.589   3.540 -0.2019 -4.2024  2.8555
  810MOL0     H11736   5.726  -1.581   3.367 -1.0491  0.9083  0.3267
  810MOL0     H11737   5.857  -1.580   3.488  0.7010 -2.1498  0.9818
  810MOL0     H11738   5.525  -1.692   3.343  0.6734  0.1034  2.0341
  810MOL0     H11739   5.316  -1.857   3.125  2.2866 -0.1461 -0.1488
  810MOL0     H11740   5.337  -1.707   3.201 -1.6423  0.2818  0.5747
  810MOL0     H11741   5.252  -1.842   3.289 -0.8684  1.2072  0.3739
  810MOL0     H11742   5.223  -2.353   3.395 -2.5009 -1.9244  0.8854
  810MOL0     H11743   5.019  -2.481   3.295 -1.9348  1.2529 -2.1383
  810MOL0     H11744   5.105  -2.726   3.089  0.1040  1.7562 -2.2181
  810MOL0     H11745   4.945  -2.711   3.178 -0.6209 -0.7267 -0.6604
  810MOL0     H11746   4.840  -2.752   2.954 -0.5707 -2.4079 -0.5787
  810MOL0     H11747   5.001  -2.801   2.899  0.4814  0.1362 -0.6459
  810MOL0     H11748   4.822  -2.919   3.100 -2.4068  1.0125 -3.0795
  810MOL0     H11749   4.993  -2.963   3.096  0.6743 -0.3029 -0.5522
  810MOL0     H11750   4.949  -3.031   2.858 -1.0885 -0.7205 -2.5034
  810MOL0     H11751   4.791  -2.965   2.863  2.2062  0.1129 -0.7034
  810MOL0     H11752   4.747  -3.138   3.052  0.8554 -0.4620  0.9778
  810MOL0     H11753   4.754  -3.192   2.885  1.2818  2.0493 -0.6376
  810MOL0     H11754   5.003  -3.202   3.072  2.6654  2.1678 -2.8497
  810MOL0     H11755   4.985  -3.293   2.927  2.7972  1.7300  1.5514
  810MOL0     H11756   4.783  -3.377   3.143 -0.3546 -3.1651 -0.6493
  810MOL0     H11757   4.952  -3.423   3.150  0.0942  0.7714  0.3962
  810MOL0     H11758   4.859  -3.610   3.060  0.1207  0.4413  1.0217
  810MOL0     H11759   4.944  -3.534   2.927 -0.1291 -2.7231  1.2559
  810MOL0     H11760   5.204  -2.481   2.915 -1.9337  1.5022 -0.1021
  810MOL0     H11761   5.396  -2.351   2.998  0.3645 -0.6259 -1.5590
  810MOL0     H11762   5.624  -2.172   3.354 -0.9829  0.3464  0.8129
  810MOL0     H11763   5.790  -1.992   3.421 -0.2774  0.3792  1.3403
  810MOL0     H11764   5.879  -0.170   3.646 -1.3404 -1.2396  1.1345
  810MOL0     H11765   5.961   0.071   3.643  2.8142 -3.0407 -2.1695
  810MOL0     H11766   6.149   0.381   3.404  0.6033 -0.5943  0.7397
  810MOL0     H11767   6.256   0.613   3.432 -0.3677 -0.1110 -1.8125
  810MOL0     H11768   5.967   0.970   3.520  1.1906  0.3813 -0.3455
  810MOL0     H11769   6.144   1.011   3.550  0.8205 -0.7949  1.4818
  810MOL0     H11770   5.999   1.146   3.399 -2.6642 -0.1787 -2.6723
  810MOL0     H11771   5.997   1.020   3.283  0.1680 -0.8237  0.6938
  810MOL0     H11772   6.257   1.162   3.375 -1.1236  2.0652 -0.0928
  810MOL0     H11773   6.246   1.010   3.276 -0.8390 -1.0821  2.9270
  810MOL0     H11774   6.096   1.257   3.208 -0.3394  0.4216 -1.9894
  810MOL0     H11775   6.160   1.124   3.097 -1.6708 -1.0433  0.7461
  810MOL0     H11776   6.491   1.388   3.127 -2.1928  3.3968 -2.7960
  810MOL0     H11777   5.851   0.779   3.458  1.2440  0.6132  0.2728
  810MOL0     H11778   5.664   0.609   3.521  0.9925  2.3991 -0.1874
  810MOL0     H11779   5.681   0.593   3.346 -1.1630 -1.9695  0.3234
  810MOL0     H11780   5.680   0.446   3.433  1.0374 -1.3111  3.3235
  811MOL0     O11781   7.249  10.614   9.867 -0.7919 -0.1591  0.0201
  811MOL0     C11782   7.353  10.691   9.857  0.5495  0.1236 -0.2613
  811MOL0     O11783   7.481  10.643   9.839  0.1006  0.1312  0.0257
  811MOL0     C11784   7.506  10.506   9.841 -0.2571 -0.2096 -0.1553
  811MOL0     C11785   7.625  10.459   9.903  0.2772  0.5310  0.0541
  811MOL0     C11786   7.653  10.322   9.916 -0.4794 -0.3603 -0.7704
  811MOL0     C11787   7.560  10.227   9.881 -0.3847  0.2854  1.0742
  811MOL0     O11788   7.581  10.093   9.903 -0.7013 -0.6000 -0.3091
  811MOL0     C11789   7.467  10.005   9.929  0.6601 -0.4425  0.0490
  811MOL0     C11790   7.490   9.865   9.988  0.4424  0.3958  0.1161
  811MOL0     C11791   7.460   9.851  10.129 -0.0304  0.6315 -0.0271
  811MOL0     C11792   7.512   9.710  10.178 -0.1232  0.8710 -0.7929
  811MOL0     C11793   7.427   9.650  10.288  0.3229 -0.7798 -0.3975
  811MOL0     C11794   7.449   9.502  10.289 -0.3349  0.4870 -0.2496
  811MOL0     C11795   7.375   9.444  10.408  0.5238 -0.0855  0.4449
  811MOL0     C11796   7.387   9.297  10.430 -0.1453 -0.5741  0.7734
  811MOL0     N11797   7.278   9.235  10.507 -1.5533  1.0985  0.5971
  811MOL0     C11798   7.143   9.247  10.498 -0.8528  0.4792 -0.9245
  811MOL0     C11799   7.097   9.167  10.601  0.3026  0.3962 -1.2911
  811MOL0     C11800   6.950   9.172  10.632  0.1091  0.6262  0.8705
  811MOL0     C11801   6.852   9.117  10.520 -0.4013  0.1433 -0.0216
  811MOL0     C11802   6.705   9.108  10.546  0.5881  0.3587 -0.4992
  811MOL0     C11803   6.661   9.018  10.667 -0.8339  0.6234  0.3173
  811MOL0     O11804   6.697   8.880  10.666 -0.0454  0.1362  0.2807
  811MOL0     C11805   6.614   8.793  10.591  0.4770 -0.3788  0.7535
  811MOL0     C11806   6.671   8.664  10.559  0.6735 -0.3806  0.2750
  811MOL0     C11807   6.586   8.559  10.498  0.3744 -0.0047 -1.0197
  811MOL0     C11808   6.649   8.420  10.473 -0.2445  0.0657 -0.0909
  811MOL0     C11809   6.451   8.585  10.459 -0.6108  0.0047 -0.0012
  811MOL0     C11810   6.362   8.479  10.408  0.1601 -0.0254 -0.6404
  811MOL0     O11811   6.370   8.363  10.467 -0.6590 -0.4106  1.0982
  811MOL0     C11812   6.325   8.250  10.404 -0.8480  0.1201  0.1926
  811MOL0     C11813   6.271   8.150  10.480 -0.3648  0.2478 -1.0812
  811MOL0     C11814   6.245   8.017  10.434  0.3526 -0.4539 -0.2668
  811MOL0     C11815   6.268   7.992  10.299 -0.8515 -0.1696 -0.0493
  811MOL0     O11816   6.269   7.862  10.267 -0.8384 -0.7330  0.7094
  811MOL0     C11817   6.308   7.837  10.132  0.2358  0.1914  0.0532
  811MOL0     C11818   6.458   7.831  10.109 -0.0777  0.0006  0.3603
  811MOL0     C11819   6.484   7.742   9.994 -0.0861 -0.3664 -0.5716
  811MOL0     C11820   6.634   7.758   9.969  0.3514 -0.2839  0.0266
  811MOL0     C11821   6.683   7.687   9.835  0.4537  0.4375 -0.0861
  811MOL0     C11822   6.643   7.545   9.849 -0.8732  0.5809 -0.0773
  811MOL0     C11823   6.712   7.458   9.751 -0.5459 -0.0052 -0.8103
  811MOL0     C11824   6.658   7.468   9.604  0.6221  0.5339 -0.0759
  811MOL0    Cl11825   6.480   7.439   9.592  0.6722  0.7635  0.4925
  811MOL0     C11826   6.300   8.100  10.217  0.0915  0.0383 -0.5977
  811MOL0     C11827   6.338   8.230  10.268 -0.0037  0.0063  0.2135
  811MOL0     O11828   6.289   8.517  10.320  0.5464 -0.0877  0.1668
  811MOL0     C11829   6.403   8.717  10.488  0.0479  0.1783  0.6466
  811MOL0     C11830   6.479   8.817  10.558 -0.2013 -0.0893 -0.1780
  811MOL0     N11831   7.210   9.092  10.645  0.0722  1.0548  0.5327
  811MOL0     N11832   7.321   9.140  10.598  1.0572 -0.3409  0.1911
  811MOL0     C11833   7.451  10.265   9.804  0.4532  0.9530 -0.5193
  811MOL0     C11834   7.421  10.402   9.789 -0.1732 -0.8543 -0.0150
  811MOL0     C11835   7.319  10.829   9.842  0.8814 -1.1189 -0.7922
  811MOL0     C11836   7.227  10.867   9.748  0.3155  0.5491 -0.6937
  811MOL0     C11837   7.183  10.993   9.735  0.6116 -0.1038 -1.0042
  811MOL0     C11838   7.206  11.090   9.838 -0.2238 -0.4898 -0.4110
  811MOL0     O11839   7.151  11.217   9.818 -0.0096  0.0362 -0.4616
  811MOL0     C11840   7.121  11.281   9.936  0.6360 -0.4464  0.6953
  811MOL0     C11841   7.220  11.400   9.957 -0.0941  0.5930  1.2612
  811MOL0     C11842   7.206  11.497   9.828  0.5524 -0.1576  0.8482
  811MOL0     C11843   7.331  11.482   9.747  0.5439 -0.1548 -0.0461
  811MOL0     C11844   7.450  11.547   9.799 -0.2501  0.7316  0.1028
  811MOL0     C11845   7.542  11.607   9.858 -0.4990  1.1620  0.1384
  811MOL0     C11846   7.308  11.057   9.932 -0.2497  0.1573 -0.4059
  811MOL0     C11847   7.349  10.927   9.939  0.1010  0.1652  0.0365
  811MOL0     C11848   7.422  10.879  10.067  0.7595 -1.0008  0.8922
  811MOL0     H11849   7.688  10.537   9.945 -0.2837  2.7543 -2.8531
  811MOL0     H11850   7.751  10.298   9.957 -0.7922 -2.0818 -0.9678
  811MOL0     H11851   7.405   9.997   9.839  0.1774 -4.0243  0.5461
  811MOL0     H11852   7.402  10.057  10.000  1.2462 -0.9500  0.9721
  811MOL0     H11853   7.411   9.809   9.937  1.1965  0.4019 -1.1088
  811MOL0     H11854   7.589   9.829   9.958  1.0527  0.7140  1.6681
  811MOL0     H11855   7.508   9.933  10.181  0.6912  0.3345 -0.2190
  811MOL0     H11856   7.351   9.847  10.144  0.0367  1.5648  0.8234
  811MOL0     H11857   7.512   9.641  10.093  1.0403 -0.4701  0.2312
  811MOL0     H11858   7.616   9.702  10.212 -0.6154  0.8332  0.7724
  811MOL0     H11859   7.325   9.684  10.268  1.0229  2.0247  0.4092
  811MOL0     H11860   7.446   9.691  10.388 -3.3059  0.5944 -0.1470
  811MOL0     H11861   7.409   9.454  10.199 -0.7475  3.6552 -1.9018
  811MOL0     H11862   7.553   9.474  10.311 -0.6715 -0.1421  0.5884
  811MOL0     H11863   7.269   9.469  10.420 -0.4682 -3.9828  0.9696
  811MOL0     H11864   7.434   9.477  10.494  0.1832  2.4337 -0.2056
  811MOL0     H11865   7.400   9.241  10.337  0.7095  0.2668  0.3742
  811MOL0     H11866   7.484   9.276  10.476 -0.0091 -0.4267  0.5530
  811MOL0     H11867   7.091   9.324  10.441  0.4416  0.6649 -1.8945
  811MOL0     H11868   6.928   9.276  10.658 -0.6180  0.5844  0.4575
  811MOL0     H11869   6.932   9.122  10.727 -0.9906  1.9398  1.3700
  811MOL0     H11870   6.879   9.176  10.432 -0.2388 -0.2278 -0.2202
  811MOL0     H11871   6.890   9.017  10.499  2.1046  0.8297  0.8002
  811MOL0     H11872   6.667   9.209  10.567  1.1840  0.4224  0.3496
  811MOL0     H11873   6.660   9.075  10.452  1.3535  0.7447 -1.0097
  811MOL0     H11874   6.708   9.061  10.756 -0.3532 -0.9797  0.8530
  811MOL0     H11875   6.554   9.024  10.689 -1.2147  0.9414 -1.4566
  811MOL0     H11876   6.777   8.641  10.570  0.8301 -0.2605 -0.8669
  811MOL0     H11877   6.618   8.340  10.540 -3.6328 -0.8432 -2.4642
  811MOL0     H11878   6.758   8.415  10.475 -0.1463  0.1856 -2.4103
  811MOL0     H11879   6.621   8.373  10.378 -3.8921 -0.9213  1.3314
  811MOL0     H11880   6.244   8.166  10.584 -1.6202 -1.4259 -1.1119
  811MOL0     H11881   6.224   7.941  10.508 -0.3979  0.0075  0.0133
  811MOL0     H11882   6.258   7.742  10.111 -1.8887  1.5507 -1.4214
  811MOL0     H11883   6.248   7.902  10.068 -1.0852  0.5258  1.5800
  811MOL0     H11884   6.494   7.932  10.092 -1.7182  0.9175  2.0191
  811MOL0     H11885   6.507   7.796  10.200  0.1649 -1.6719 -0.3670
  811MOL0     H11886   6.428   7.761   9.902  1.9524 -2.2077 -2.2828
  811MOL0     H11887   6.457   7.640  10.023 -1.6762 -0.3135 -1.7123
  811MOL0     H11888   6.684   7.715  10.056 -2.1986 -0.0418  1.7242
  811MOL0     H11889   6.652   7.866   9.968 -3.7032  0.5672 -1.0843
  811MOL0     H11890   6.641   7.731   9.744  1.1024 -0.7463 -0.9842
  811MOL0     H11891   6.791   7.705   9.829  0.3216  1.6563  0.7729
  811MOL0     H11892   6.535   7.525   9.847 -0.2063 -4.3151  0.0420
  811MOL0     H11893   6.683   7.519   9.948 -2.8812  1.3907  1.0017
  811MOL0     H11894   6.694   7.357   9.787  0.5056  0.5245  1.3401
  811MOL0     H11895   6.819   7.480   9.751 -1.0265  2.8932 -1.7362
  811MOL0     H11896   6.711   7.402   9.534 -1.7837  0.5570 -2.0548
  811MOL0     H11897   6.676   7.569   9.567 -0.0650  1.6399  2.4034
  811MOL0     H11898   6.311   8.088  10.110 -1.2862 -5.9554 -0.3893
  811MOL0     H11899   6.368   8.303  10.194  2.5736 -1.6274 -0.4885
  811MOL0     H11900   6.298   8.730  10.464  0.0429 -1.7744 -0.7014
  811MOL0     H11901   6.430   8.911  10.581  0.1267  0.8045 -2.7414
  811MOL0     H11902   7.388  10.184   9.769  1.5559 -0.4130  0.5128
  811MOL0     H11903   7.338  10.439   9.729  2.2089  3.1269 -1.2045
  811MOL0     H11904   7.182  10.784   9.694  0.8585 -1.9423  2.3807
  811MOL0     H11905   7.100  11.019   9.670  1.3107  0.5190 -1.6626
  811MOL0     H11906   7.018  11.317   9.926 -0.3661 -3.1284  0.4129
  811MOL0     H11907   7.121  11.216  10.024  1.3246  1.5534  2.2347
  811MOL0     H11908   7.318  11.356   9.972 -0.8309 -3.1734 -2.6531
  811MOL0     H11909   7.193  11.449  10.051 -0.4127  1.7772  0.5756
  811MOL0     H11910   7.127  11.471   9.758  2.0349 -2.9805  0.0639
  811MOL0     H11911   7.194  11.602   9.858  1.4325  0.0405  0.5493
  811MOL0     H11912   7.309  11.520   9.646  0.4752 -1.6206 -0.6068
  811MOL0     H11913   7.352  11.375   9.738  0.7439  0.0083 -2.1172
  811MOL0     H11914   7.621  11.663   9.903 -0.8528  1.6713  0.1354
  811MOL0     H11915   7.349  11.119  10.011  3.3719 -1.7409 -0.5768
  811MOL0     H11916   7.354  10.812  10.121 -0.8473  1.2429  1.8362
  811MOL0     H11917   7.521  10.838  10.045  2.0954  0.6229  3.3355
  811MOL0     H11918   7.440  10.967  10.130 -0.2497  0.8566 -1.2371
  812MOL0     O11919   5.967   5.513   8.229  0.2987 -0.7926 -0.1235
  812MOL0     C11920   6.027   5.540   8.333 -0.0795  0.1914 -0.4266
  812MOL0     O11921   5.975   5.583   8.458  0.6586 -0.7108  0.1799
  812MOL0     C11922   5.837   5.603   8.467 -0.7483 -0.2997 -0.6777
  812MOL0     C11923   5.795   5.727   8.507  0.3768  0.5895 -0.2506
  812MOL0     C11924   5.663   5.752   8.551  0.3087  0.0203 -1.0441
  812MOL0     C11925   5.568   5.653   8.531 -0.3341  0.7392 -0.6058
  812MOL0     O11926   5.444   5.683   8.578  0.2293 -0.4189  0.2168
  812MOL0     C11927   5.343   5.579   8.566  0.6665  0.4508 -0.9170
  812MOL0     C11928   5.217   5.648   8.616 -0.5935  0.3490 -0.3844
  812MOL0     C11929   5.233   5.661   8.773  0.5227  0.2809 -0.5150
  812MOL0     C11930   5.116   5.732   8.829  0.4220 -0.0872 -0.1643
  812MOL0     C11931   5.108   5.735   8.982 -0.0191  0.1133  0.1683
  812MOL0     C11932   4.968   5.756   9.021 -0.1692  0.1909  0.1649
  812MOL0     C11933   4.923   5.895   8.995  0.7289 -0.2496 -0.5220
  812MOL0     C11934   4.824   5.889   8.877  0.2813 -0.3691 -0.2397
  812MOL0     N11935   4.807   6.019   8.813 -0.1875  0.5174  0.3196
  812MOL0     C11936   4.759   6.138   8.874  0.0759 -0.1609  0.2153
  812MOL0     C11937   4.772   6.234   8.778 -0.3197 -0.5518 -0.3188
  812MOL0     C11938   4.736   6.375   8.790  0.3769  0.9658  0.4760
  812MOL0     C11939   4.597   6.404   8.720 -0.4251 -0.4720 -0.1408
  812MOL0     C11940   4.572   6.556   8.712  0.0651 -0.5763  0.2844
  812MOL0     C11941   4.604   6.613   8.568 -0.2404 -0.5232 -0.0807
  812MOL0     O11942   4.624   6.753   8.595 -0.1623  0.5968 -0.7313
  812MOL0     C11943   4.643   6.827   8.485  0.6371 -0.4845 -0.2165
  812MOL0     C11944   4.671   6.781   8.359  0.4831  0.6899  0.6969
  812MOL0     C11945   4.680   6.868   8.245 -0.5259 -0.2542 -0.4355
  812MOL0     C11946   4.710   6.810   8.106  0.6885  0.8015 -0.4977
  812MOL0     C11947   4.666   7.008   8.271  0.6244 -0.3617 -0.0409
  812MOL0     C11948   4.677   7.125   8.175 -0.5465 -0.2932  0.3491
  812MOL0     O11949   4.699   7.260   8.214 -0.0317  0.5280 -0.3985
  812MOL0     C11950   4.686   7.360   8.124 -0.7091 -0.6454  0.2982
  812MOL0     C11951   4.758   7.366   8.003 -1.2285 -0.1704 -0.1554
  812MOL0     C11952   4.753   7.481   7.919  0.1121 -0.1609  0.5111
  812MOL0     C11953   4.673   7.591   7.957  0.6916  1.1787  0.0895
  812MOL0     O11954   4.671   7.714   7.892  0.5876  0.1346  1.0788
  812MOL0     C11955   4.787   7.745   7.814  0.2869 -1.2461  0.1491
  812MOL0     C11956   4.830   7.889   7.851  0.4067  0.8469 -0.5966
  812MOL0     C11957   4.854   7.908   7.997 -0.2774  0.5191  0.6589
  812MOL0     C11958   4.907   8.050   8.013 -0.3855  0.1053  0.0463
  812MOL0     C11959   4.916   8.100   8.155  0.5283  0.1814 -0.5653
  812MOL0     C11960   5.011   8.011   8.241  0.7381  0.2463 -0.9604
  812MOL0     C11961   5.022   8.065   8.390 -0.7017  0.2103 -0.6322
  812MOL0     C11962   5.131   7.986   8.467 -0.4280  0.0277  0.3833
  812MOL0    Cl11963   5.080   7.814   8.516 -0.1615 -0.4031 -0.5262
  812MOL0     C11964   4.589   7.578   8.066  0.4786 -0.3164 -0.1152
  812MOL0     C11965   4.610   7.473   8.160 -0.9639 -0.1109 -0.6736
  812MOL0     O11966   4.654   7.087   8.059  0.3050  0.7046 -0.8486
  812MOL0     C11967   4.637   7.044   8.397  0.0922  0.0986 -0.4762
  812MOL0     C11968   4.625   6.959   8.505 -0.1859  0.5119  0.4601
  812MOL0     N11969   4.844   6.184   8.667  0.3945  0.6672  0.4397
  812MOL0     N11970   4.868   6.057   8.694 -0.4630  0.5870 -0.3860
  812MOL0     C11971   5.612   5.530   8.483  0.2814  0.8656  0.3617
  812MOL0     C11972   5.743   5.506   8.440 -0.3739  0.4330 -0.0952
  812MOL0     C11973   6.180   5.533   8.327  0.2605 -0.8147 -0.3248
  812MOL0     C11974   6.249   5.607   8.425  0.2784 -0.4198  0.2148
  812MOL0     C11975   6.388   5.623   8.415  0.3852  0.2817  0.2627
  812MOL0     C11976   6.458   5.573   8.307 -0.4050  0.0259  0.4535
  812MOL0     O11977   6.597   5.608   8.296  0.0582  0.3936  1.0411
  812MOL0     C11978   6.696   5.502   8.286  0.7533  0.6070  0.1122
  812MOL0     C11979   6.744   5.478   8.143  0.1934  0.4466 -0.0502
  812MOL0     C11980   6.800   5.600   8.068  1.1358 -0.5053 -0.6580
  812MOL0     C11981   6.863   5.713   8.150  0.6038  0.6428  0.8934
  812MOL0     C11982   6.936   5.818   8.083  1.5765 -0.1790 -0.7032
  812MOL0     C11983   6.988   5.900   8.009  0.5805 -0.5271  0.5797
  812MOL0     C11984   6.397   5.485   8.216  0.7043  0.0456  0.5606
  812MOL0     C11985   6.256   5.462   8.223 -0.7497 -0.2985  0.1022
  812MOL0     C11986   6.198   5.351   8.132 -0.0657  1.2030 -0.0618
  812MOL0     H11987   5.871   5.805   8.508  1.2516 -0.2623  0.9763
  812MOL0     H11988   5.632   5.848   8.591  2.0582  0.6471 -1.0940
  812MOL0     H11989   5.359   5.485   8.618 -3.4331 -1.2114 -2.3007
  812MOL0     H11990   5.340   5.563   8.457  0.6300 -0.0065 -0.8480
  812MOL0     H11991   5.207   5.739   8.556  0.8704 -1.7954 -4.2288
  812MOL0     H11992   5.135   5.581   8.590  0.6158 -1.6227  0.6938
  812MOL0     H11993   5.235   5.558   8.811  4.0629 -0.2399 -1.7555
  812MOL0     H11994   5.328   5.706   8.802 -0.1404  2.1313 -1.0617
  812MOL0     H11995   5.124   5.834   8.790 -4.5588  0.2367 -1.0385
  812MOL0     H11996   5.022   5.699   8.785 -0.8741  1.8122  1.0465
  812MOL0     H11997   5.185   5.802   9.022  1.5554 -1.1280 -0.6676
  812MOL0     H11998   5.138   5.635   9.017 -0.3217 -0.7509 -1.8739
  812MOL0     H11999   4.900   5.681   8.979  0.9502 -1.4623  1.2286
  812MOL0     H12000   4.962   5.761   9.130 -2.2007  3.2675  0.0607
  812MOL0     H12001   4.998   5.969   8.963 -0.2079  1.5015  1.1731
  812MOL0     H12002   4.883   5.938   9.087  3.2139 -3.5483  2.3881
  812MOL0     H12003   4.861   5.822   8.799  2.6010  1.4450 -0.8075
  812MOL0     H12004   4.727   5.851   8.912 -0.7430  1.0352 -1.4390
  812MOL0     H12005   4.707   6.135   8.970 -3.8777 -3.0073 -1.7051
  812MOL0     H12006   4.809   6.440   8.740 -0.0394 -0.3612 -2.0780
  812MOL0     H12007   4.737   6.408   8.894  0.9894 -0.5698  0.9798
  812MOL0     H12008   4.601   6.371   8.616 -0.8998  0.0095 -0.3107
  812MOL0     H12009   4.517   6.350   8.772 -1.5550 -0.3178 -1.6549
  812MOL0     H12010   4.466   6.575   8.729 -0.6061 -1.4272 -2.4796
  812MOL0     H12011   4.642   6.600   8.785  1.2389 -2.3360  0.2822
  812MOL0     H12012   4.700   6.574   8.533  0.7662  1.6656  0.1064
  812MOL0     H12013   4.526   6.587   8.496 -0.4089 -2.4405  0.7243
  812MOL0     H12014   4.677   6.675   8.335 -0.0080  0.9107 -0.5181
  812MOL0     H12015   4.673   6.707   8.104  0.2010  0.8718  2.0759
  812MOL0     H12016   4.820   6.810   8.104  0.7475 -1.7628 -2.6329
  812MOL0     H12017   4.668   6.868   8.023  2.2964 -0.2127 -2.0994
  812MOL0     H12018   4.826   7.286   7.974 -1.1487 -0.2467  0.2427
  812MOL0     H12019   4.817   7.486   7.831 -0.1459 -0.5261  0.3004
  812MOL0     H12020   4.872   7.679   7.838  0.4486 -0.7766  0.9164
  812MOL0     H12021   4.781   7.733   7.706  0.6452 -5.1422  0.4157
  812MOL0     H12022   4.927   7.907   7.803  1.7244 -0.9959  1.1719
  812MOL0     H12023   4.747   7.952   7.819  1.2691  1.5064 -1.6130
  812MOL0     H12024   4.934   7.841   8.029  0.0885  0.6634  0.0590
  812MOL0     H12025   4.762   7.886   8.053 -0.1328  1.0873  1.1268
  812MOL0     H12026   4.844   8.126   7.967  0.5133  0.0341 -1.3522
  812MOL0     H12027   5.005   8.054   7.964  0.9245 -1.1439  2.3676
  812MOL0     H12028   4.966   8.197   8.160  1.9307 -0.5354 -0.1708
  812MOL0     H12029   4.820   8.106   8.206  1.3802 -1.5243  1.3765
  812MOL0     H12030   5.116   8.016   8.210  1.4364 -0.7442  1.0541
  812MOL0     H12031   4.970   7.910   8.246  1.5036 -0.0458 -0.1986
  812MOL0     H12032   4.931   8.046   8.446 -1.2311  1.8026 -0.8938
  812MOL0     H12033   5.043   8.172   8.379  2.4477 -0.3969 -1.5369
  812MOL0     H12034   5.161   8.047   8.553  0.0618  0.9598 -0.4350
  812MOL0     H12035   5.221   7.974   8.407 -0.8486  0.6297 -0.3843
  812MOL0     H12036   4.522   7.656   8.103  1.6672  0.7354 -0.1314
  812MOL0     H12037   4.556   7.469   8.254 -1.4590  1.3899 -0.8663
  812MOL0     H12038   4.631   7.150   8.420  0.8312  0.5175 -2.1141
  812MOL0     H12039   4.612   7.002   8.604  0.5593 -1.8434  1.6609
  812MOL0     H12040   5.549   5.442   8.486 -0.1203  1.1552  0.4068
  812MOL0     H12041   5.785   5.416   8.394  1.4548  2.1106 -1.9185
  812MOL0     H12042   6.208   5.654   8.514 -1.0247  2.8428 -1.9264
  812MOL0     H12043   6.437   5.670   8.499 -0.8441 -0.6181  1.5285
  812MOL0     H12044   6.777   5.536   8.351 -1.1358  3.1720  1.2685
  812MOL0     H12045   6.661   5.404   8.319  0.0790  0.1362 -1.8680
  812MOL0     H12046   6.664   5.442   8.078  0.3323  3.9677 -2.4742
  812MOL0     H12047   6.823   5.404   8.159 -2.4804 -1.9184  3.8306
  812MOL0     H12048   6.863   5.554   7.991  2.7900  0.6342 -0.0150
  812MOL0     H12049   6.715   5.639   8.010  0.5535 -0.6172  0.1047
  812MOL0     H12050   6.931   5.662   8.219  0.6308  1.4081  1.4526
  812MOL0     H12051   6.781   5.769   8.198 -0.3726  0.7364 -0.8014
  812MOL0     H12052   7.035   5.963   7.936 -1.9792  1.2418  0.2790
  812MOL0     H12053   6.451   5.423   8.145 -1.9811  0.9458 -2.5071
  812MOL0     H12054   6.270   5.304   8.065 -0.9179  0.1405 -0.2764
  812MOL0     H12055   6.151   5.270   8.190 -1.5899  1.5669 -0.7358
  812MOL0     H12056   6.114   5.381   8.069 -2.9327 -0.0993  2.8409
  813MOL0     O12057   3.291   0.941   4.328 -0.6585 -0.0552 -0.9436
  813MOL0     C12058   3.350   1.004   4.240  0.2385 -0.3854  0.0174
  813MOL0     O12059   3.423   0.946   4.139 -0.1449  0.3084 -0.1692
  813MOL0     C12060   3.454   0.810   4.141 -0.6844 -0.3802 -0.4629
  813MOL0     C12061   3.477   0.748   4.026  0.4047 -0.0417  0.3467
  813MOL0     C12062   3.510   0.616   4.010 -0.0950 -0.1091 -0.1234
  813MOL0     C12063   3.525   0.533   4.126  0.2955  0.3258 -0.5563
  813MOL0     O12064   3.559   0.399   4.106  0.6360 -0.4984  0.4266
  813MOL0     C12065   3.520   0.307   4.216  0.0146 -1.0907 -0.8649
  813MOL0     C12066   3.513   0.160   4.160  0.8857 -0.4017  0.1400
  813MOL0     C12067   3.432   0.081   4.261 -0.2885  0.1521  0.4645
  813MOL0     C12068   3.510   0.054   4.390 -0.1762 -0.0559  0.6899
  813MOL0     C12069   3.418  -0.008   4.490 -0.0915 -0.8718 -1.3796
  813MOL0     C12070   3.481  -0.045   4.625  0.1941  0.2124 -0.9258
  813MOL0     C12071   3.556   0.076   4.686 -0.3790  0.1384 -0.7059
  813MOL0     C12072   3.604   0.032   4.828  0.3745  1.0392  0.0097
  813MOL0     N12073   3.502   0.012   4.934 -0.7671  1.0158 -0.2004
  813MOL0     C12074   3.435   0.110   4.988  0.4310  0.1963 -0.5685
  813MOL0     C12075   3.346   0.052   5.073  0.6043 -0.0313  0.0159
  813MOL0     C12076   3.243   0.113   5.158 -0.4656 -0.1427 -0.2455
  813MOL0     C12077   3.283   0.112   5.310  0.5435  0.1301  0.0067
  813MOL0     C12078   3.406   0.192   5.319 -0.1563  0.8624  0.9290
  813MOL0     C12079   3.437   0.240   5.456  0.0369  0.1124 -0.4083
  813MOL0     O12080   3.343   0.340   5.490  0.5911 -0.0176 -0.5535
  813MOL0     C12081   3.351   0.468   5.467  0.1386  0.4277  0.8986
  813MOL0     C12082   3.263   0.543   5.537  0.2004  0.0878 -0.5464
  813MOL0     C12083   3.272   0.682   5.536  0.3361  0.8454 -0.1449
  813MOL0     C12084   3.167   0.755   5.622  0.3113  1.0916 -0.3920
  813MOL0     C12085   3.373   0.756   5.469  1.0480 -0.3604  0.2151
  813MOL0     C12086   3.393   0.904   5.481 -1.2497 -1.1602 -0.5854
  813MOL0     O12087   3.292   0.984   5.531  0.5181 -0.1658 -0.8015
  813MOL0     C12088   3.316   1.116   5.533 -0.2638  0.2604 -0.1518
  813MOL0     C12089   3.357   1.189   5.422  0.2643  0.2520 -0.2881
  813MOL0     C12090   3.382   1.327   5.435  0.0006  1.2478 -0.4837
  813MOL0     C12091   3.345   1.400   5.553  0.0473 -0.5253 -0.2341
  813MOL0     O12092   3.349   1.532   5.538  0.3748 -0.0092  0.2272
  813MOL0     C12093   3.327   1.597   5.660 -0.1543 -0.0048 -0.0875
  813MOL0     C12094   3.331   1.752   5.654  0.1681 -0.1692 -0.3419
  813MOL0     C12095   3.236   1.811   5.757 -0.2243 -1.4311  0.2647
  813MOL0     C12096   3.255   1.961   5.772  0.1101 -0.6474 -0.2340
  813MOL0     C12097   3.157   2.025   5.889 -0.4107  1.0595 -1.0014
  813MOL0     C12098   3.067   2.119   5.808 -0.9531  0.1648 -0.2843
  813MOL0     C12099   2.990   2.201   5.909 -0.1776 -0.4127 -0.2650
  813MOL0     C12100   2.874   2.281   5.845  0.8464  0.1601 -0.2980
  813MOL0    Cl12101   2.763   2.349   5.967 -0.0441 -0.0026 -0.5772
  813MOL0     C12102   3.318   1.319   5.672 -0.7677  0.2751 -0.3885
  813MOL0     C12103   3.296   1.186   5.655  0.2672  0.1909 -0.3534
  813MOL0     O12104   3.504   0.948   5.428 -0.2315  1.0360 -0.3067
  813MOL0     C12105   3.461   0.676   5.394 -1.0461 -0.2059 -0.2060
  813MOL0     C12106   3.446   0.532   5.392 -1.1979  0.6376  0.5866
  813MOL0     N12107   3.362  -0.083   5.070 -0.2847  0.4948  1.0490
  813MOL0     N12108   3.460  -0.106   4.984  0.8183  0.0563 -0.7133
  813MOL0     C12109   3.508   0.603   4.254 -0.4423 -0.7287  0.7831
  813MOL0     C12110   3.474   0.739   4.262 -0.6889 -0.1381  0.7214
  813MOL0     C12111   3.323   1.154   4.236 -0.6848  0.1290 -0.6012
  813MOL0     C12112   3.339   1.215   4.107 -0.0612 -0.1074  0.3410
  813MOL0     C12113   3.302   1.345   4.084 -1.1611 -0.4958 -0.1768
  813MOL0     C12114   3.283   1.430   4.197 -0.0656 -0.4398  0.5268
  813MOL0     O12115   3.257   1.570   4.188  0.3670  0.0475 -0.1784
  813MOL0     C12116   3.257   1.635   4.059 -0.3701 -0.0709  0.5939
  813MOL0     C12117   3.242   1.789   4.069  0.2917 -0.1108  0.0556
  813MOL0     C12118   3.105   1.831   4.126  0.6745 -0.0620  1.1107
  813MOL0     C12119   3.089   1.997   4.134  0.4702  0.4860  0.3237
  813MOL0     C12120   3.047   2.050   4.002 -1.2007 -0.1976 -0.6729
  813MOL0     C12121   3.010   2.098   3.900 -0.5789 -0.6995 -0.0203
  813MOL0     C12122   3.262   1.377   4.318  0.8130 -0.8892  0.3302
  813MOL0     C12123   3.275   1.238   4.338  0.6255  0.1354 -0.1636
  813MOL0     C12124   3.249   1.188   4.476 -0.5143 -0.7578 -0.0963
  813MOL0     H12125   3.472   0.802   3.931  1.2118 -2.3338 -1.0774
  813MOL0     H12126   3.526   0.574   3.912  1.4082 -0.2179  0.1443
  813MOL0     H12127   3.433   0.344   4.270  0.6122 -0.5143 -0.2791
  813MOL0     H12128   3.591   0.329   4.296 -1.9718  2.1908  0.2018
  813MOL0     H12129   3.458   0.157   4.066 -1.4711  2.5115  1.2563
  813MOL0     H12130   3.614   0.124   4.139  1.8456  1.5487  1.1849
  813MOL0     H12131   3.334   0.127   4.276 -1.9932 -3.3793  1.2274
  813MOL0     H12132   3.404  -0.014   4.213  2.7298  0.3334 -2.0014
  813MOL0     H12133   3.599  -0.007   4.369  2.3032  3.0416  1.3154
  813MOL0     H12134   3.546   0.149   4.431  0.8619  1.0666 -2.5244
  813MOL0     H12135   3.358  -0.090   4.451 -0.0744 -1.1465 -0.8349
  813MOL0     H12136   3.344   0.067   4.519  1.5355  0.1911  0.1983
  813MOL0     H12137   3.397  -0.071   4.690 -1.1541  3.3710 -1.2419
  813MOL0     H12138   3.552  -0.128   4.623 -1.3858 -1.2138 -0.4310
  813MOL0     H12139   3.509   0.171   4.711  3.3827  1.3865  2.7487
  813MOL0     H12140   3.639   0.106   4.622 -0.2343 -1.2688 -1.2083
  813MOL0     H12141   3.652  -0.064   4.809  3.2790  2.6233 -1.3803
  813MOL0     H12142   3.677   0.105   4.865 -1.1147  2.4705  0.2211
  813MOL0     H12143   3.447   0.216   4.968  1.2126 -0.2728 -2.9987
  813MOL0     H12144   3.155   0.050   5.143  1.2521 -2.6449 -0.2347
  813MOL0     H12145   3.232   0.217   5.126  1.0777  0.2940  0.5760
  813MOL0     H12146   3.207   0.170   5.364  0.7460 -2.1949  3.0695
  813MOL0     H12147   3.287   0.014   5.360 -2.7013 -0.3155 -0.4029
  813MOL0     H12148   3.480   0.116   5.294 -1.3117  0.2467 -0.8174
  813MOL0     H12149   3.410   0.274   5.247 -1.7365 -0.7429 -1.1314
  813MOL0     H12150   3.421   0.166   5.535  1.5145  0.3298  0.1159
  813MOL0     H12151   3.537   0.283   5.456 -0.1556  0.5763  0.2851
  813MOL0     H12152   3.187   0.480   5.583  1.3887  0.0194  1.4373
  813MOL0     H12153   3.213   0.810   5.705 -1.1736  1.8610 -0.0329
  813MOL0     H12154   3.095   0.685   5.666 -1.0478  3.3311  1.1749
  813MOL0     H12155   3.115   0.816   5.547 -0.1969 -1.5481 -2.3015
  813MOL0     H12156   3.383   1.133   5.333 -1.4975 -0.4099 -0.4217
  813MOL0     H12157   3.406   1.391   5.351 -1.9467  0.8045 -1.4354
  813MOL0     H12158   3.235   1.563   5.708 -0.7664 -0.4317 -1.5006
  813MOL0     H12159   3.412   1.566   5.721  1.1832  1.7728 -0.9635
  813MOL0     H12160   3.437   1.771   5.676  0.9900 -4.2132 -0.1488
  813MOL0     H12161   3.316   1.805   5.559 -0.6136 -0.6295 -0.4820
  813MOL0     H12162   3.253   1.772   5.857  1.4812  2.3311  1.6250
  813MOL0     H12163   3.135   1.793   5.719  0.3982 -2.4408 -0.9711
  813MOL0     H12164   3.233   2.001   5.673  0.3470  0.3234  0.0933
  813MOL0     H12165   3.359   1.993   5.785 -1.1254  4.1797 -0.4339
  813MOL0     H12166   3.093   1.948   5.931  0.3936  0.4950 -0.7866
  813MOL0     H12167   3.216   2.075   5.967  2.4006 -1.3533 -1.3948
  813MOL0     H12168   3.003   2.055   5.746  1.1151 -1.3176 -0.9803
  813MOL0     H12169   3.124   2.197   5.757 -0.5888 -0.7066 -1.2336
  813MOL0     H12170   3.053   2.275   5.961 -1.2287  0.9553 -0.8598
  813MOL0     H12171   2.945   2.137   5.985  2.3136 -0.4814  1.2619
  813MOL0     H12172   2.810   2.217   5.784 -1.0046  1.5767  0.0640
  813MOL0     H12173   2.923   2.354   5.780 -2.3902  0.9913 -2.0119
  813MOL0     H12174   3.289   1.358   5.769  0.7028 -1.1490  0.6862
  813MOL0     H12175   3.270   1.128   5.743 -1.3830  4.2275  2.0910
  813MOL0     H12176   3.540   0.726   5.340 -2.6957  2.3710 -0.3892
  813MOL0     H12177   3.507   0.465   5.331 -0.9042 -0.6234  2.2029
  813MOL0     H12178   3.533   0.556   4.348 -0.1631 -0.9285  0.6105
  813MOL0     H12179   3.470   0.793   4.356 -1.4998  2.8697 -0.8985
  813MOL0     H12180   3.380   1.160   4.023  4.1392  1.9357  0.8526
  813MOL0     H12181   3.338   1.396   3.995  1.3924 -0.3381  0.8590
  813MOL0     H12182   3.355   1.617   4.016 -0.7130  0.9948 -0.7032
  813MOL0     H12183   3.181   1.598   3.990 -0.5855  0.8012  0.3504
  813MOL0     H12184   3.255   1.844   3.975  3.2179 -0.5537  0.1194
  813MOL0     H12185   3.312   1.825   4.145  3.3016 -0.2954 -2.4474
  813MOL0     H12186   3.037   1.798   4.048  1.4437  0.0514  0.3861
  813MOL0     H12187   3.080   1.782   4.221 -0.1295 -3.0097 -0.5133
  813MOL0     H12188   3.189   2.036   4.156  1.2544 -0.3888 -1.4566
  813MOL0     H12189   3.024   2.041   4.210  3.6002  3.1881  1.7017
  813MOL0     H12190   2.986   2.156   3.813 -2.2726 -1.6571 -0.2401
  813MOL0     H12191   3.234   1.449   4.393  0.7841  0.9677 -1.3978
  813MOL0     H12192   3.333   1.138   4.524 -1.3532 -2.5238 -0.3989
  813MOL0     H12193   3.207   1.269   4.535 -1.9940  0.6404 -2.8573
  813MOL0     H12194   3.169   1.114   4.474  0.7427 -2.2681  2.0774
  814MOL0     O12195   3.941   6.955   5.539  0.1785 -0.5924  0.1702
  814MOL0     C12196   3.877   6.866   5.486 -0.5417  0.0177  0.3413
  814MOL0     O12197   3.858   6.734   5.534 -0.0359 -0.2894 -0.5149
  814MOL0     C12198   3.908   6.708   5.664 -0.1226 -0.6980  0.3689
  814MOL0     C12199   3.815   6.689   5.774 -0.6633 -0.8942  0.7519
  814MOL0     C12200   3.870   6.630   5.892  0.2149 -0.0211  0.6400
  814MOL0     C12201   4.008   6.594   5.903  0.4525 -0.2131  0.3819
  814MOL0     O12202   4.042   6.552   6.033  0.7810 -0.6425  0.2831
  814MOL0     C12203   4.112   6.424   6.047  0.8800 -0.2577  0.3773
  814MOL0     C12204   4.141   6.391   6.183 -0.3210 -0.2808 -0.5249
  814MOL0     C12205   4.206   6.498   6.271 -0.1546 -0.1451 -0.6213
  814MOL0     C12206   4.221   6.438   6.408 -0.2955 -0.1061 -0.1206
  814MOL0     C12207   4.084   6.429   6.486 -1.2019 -0.1826  0.5699
  814MOL0     C12208   4.101   6.386   6.634 -1.5278  0.3137 -0.3029
  814MOL0     C12209   3.991   6.431   6.732 -0.2122 -0.8365  1.2026
  814MOL0     C12210   4.012   6.361   6.864  0.6129  0.1941 -0.2386
  814MOL0     N12211   3.899   6.393   6.955 -0.0512  1.1872  0.0285
  814MOL0     C12212   3.845   6.297   7.030  0.3492 -0.9150 -0.4971
  814MOL0     C12213   3.749   6.359   7.099 -0.0484 -1.0232 -0.2864
  814MOL0     C12214   3.660   6.300   7.198  0.1067  1.0429 -0.1492
  814MOL0     C12215   3.519   6.356   7.206 -0.1285 -0.2654 -0.4962
  814MOL0     C12216   3.434   6.310   7.332  0.1689  0.4687  0.1069
  814MOL0     C12217   3.338   6.408   7.404 -0.2963 -0.0673 -1.2418
  814MOL0     O12218   3.261   6.360   7.509  0.6394  0.8880  0.0124
  814MOL0     C12219   3.318   6.284   7.606 -0.4880  0.7815 -1.4357
  814MOL0     C12220   3.234   6.182   7.673 -0.7301  0.5760  0.4605
  814MOL0     C12221   3.278   6.098   7.778 -0.1715  0.3956  0.4158
  814MOL0     C12222   3.179   5.999   7.840 -0.2857  0.6922  0.6286
  814MOL0     C12223   3.409   6.131   7.824  0.1357  1.0894  0.1865
  814MOL0     C12224   3.466   6.063   7.944  0.3074 -0.3711 -0.2782
  814MOL0     O12225   3.608   6.048   7.941 -0.1393 -0.2539  0.2881
  814MOL0     C12226   3.682   5.970   8.027  0.8841  0.2732  0.9292
  814MOL0     C12227   3.645   5.839   8.044  1.1316  0.1335  0.3301
  814MOL0     C12228   3.728   5.745   8.112  0.0790  0.4701 -0.2997
  814MOL0     C12229   3.846   5.788   8.170 -0.5245 -0.5854 -1.0647
  814MOL0     O12230   3.937   5.710   8.234 -0.4727 -0.1652 -0.5563
  814MOL0     C12231   3.926   5.569   8.220  0.2338 -0.6573 -0.1694
  814MOL0     C12232   4.025   5.537   8.108  1.4665 -0.2832  0.3990
  814MOL0     C12233   4.020   5.385   8.083 -0.6795 -0.1306  0.1061
  814MOL0     C12234   4.160   5.322   8.056  0.3310 -0.9824  0.3486
  814MOL0     C12235   4.132   5.182   8.008 -0.1745 -0.0703  0.6494
  814MOL0     C12236   4.266   5.098   7.982  0.1453 -1.0719  0.0562
  814MOL0     C12237   4.381   5.172   7.920 -0.6078 -0.2120 -0.3396
  814MOL0     C12238   4.343   5.234   7.786  0.1360 -0.4659 -0.1985
  814MOL0    Cl12239   4.493   5.282   7.691  0.1116  0.1058  0.4761
  814MOL0     C12240   3.865   5.927   8.181 -0.8537 -0.4785 -0.3349
  814MOL0     C12241   3.779   6.018   8.119  0.1901  0.6284 -0.0147
  814MOL0     O12242   3.402   6.004   8.027  0.2961 -0.2495  0.0723
  814MOL0     C12243   3.490   6.222   7.766  0.2851  0.0441 -0.2536
  814MOL0     C12244   3.445   6.298   7.658  0.0430 -0.1201 -0.1542
  814MOL0     N12245   3.756   6.497   7.074 -0.6528 -0.5568  0.6857
  814MOL0     N12246   3.837   6.513   6.979 -0.6956 -0.0972 -0.1414
  814MOL0     C12247   4.096   6.626   5.806 -0.6795  0.1814  1.7660
  814MOL0     C12248   4.048   6.685   5.689  0.6753 -0.3847 -0.8128
  814MOL0     C12249   3.818   6.898   5.354 -0.6272 -0.3062 -1.0357
  814MOL0     C12250   3.895   6.994   5.274  0.8445  0.0989 -0.7631
  814MOL0     C12251   3.847   7.024   5.143 -0.6329  0.5846 -0.8743
  814MOL0     C12252   3.714   6.986   5.104 -0.5910 -0.6661  0.3855
  814MOL0     O12253   3.650   7.028   4.988  0.2955  0.5491  0.3099
  814MOL0     C12254   3.720   7.110   4.888 -0.2984  0.1711 -1.4801
  814MOL0     C12255   3.650   7.100   4.753  0.6579  0.0688 -0.6440
  814MOL0     C12256   3.731   7.172   4.640 -0.4374  0.4851 -0.6235
  814MOL0     C12257   3.687   7.329   4.611 -0.4669 -0.4053 -0.1495
  814MOL0     C12258   3.802   7.406   4.632 -0.6117  0.1184 -0.1678
  814MOL0     C12259   3.886   7.490   4.658  0.1945 -0.6795  0.8994
  814MOL0     C12260   3.639   6.903   5.194 -0.6330  0.8379 -1.8010
  814MOL0     C12261   3.690   6.849   5.320  0.4782 -0.6009  0.7532
  814MOL0     C12262   3.614   6.754   5.398  0.2893 -0.1454 -0.3968
  814MOL0     H12263   3.708   6.701   5.764 -0.2994  2.1600 -0.5755
  814MOL0     H12264   3.796   6.602   5.966 -0.1705  2.6324  1.3840
  814MOL0     H12265   4.200   6.413   5.983  0.9404  2.0914 -0.0164
  814MOL0     H12266   4.041   6.353   6.002  1.3517 -1.5147  1.5452
  814MOL0     H12267   4.041   6.368   6.221 -0.6629  0.8984 -0.6524
  814MOL0     H12268   4.199   6.299   6.185  0.0806 -0.0225  0.0134
  814MOL0     H12269   4.299   6.541   6.232 -1.6751  2.2316 -1.9075
  814MOL0     H12270   4.132   6.579   6.277 -1.4530 -1.4004  1.6935
  814MOL0     H12271   4.274   6.342   6.417  0.3560  0.2989  0.5632
  814MOL0     H12272   4.287   6.503   6.467  2.1025 -1.1356 -1.5091
  814MOL0     H12273   4.007   6.366   6.441 -2.6083  2.2379 -0.6394
  814MOL0     H12274   4.032   6.525   6.492 -2.7395 -0.8690 -1.0004
  814MOL0     H12275   4.108   6.277   6.631  1.0000  0.4319 -1.4128
  814MOL0     H12276   4.194   6.433   6.669 -2.6058  1.4117  1.1985
  814MOL0     H12277   3.897   6.423   6.678 -0.2539  0.1366  1.1090
  814MOL0     H12278   3.992   6.540   6.743 -0.3960 -0.4490 -1.7280
  814MOL0     H12279   4.024   6.254   6.848  4.2427 -0.0330  2.6682
  814MOL0     H12280   4.107   6.389   6.910  2.3690 -1.0293 -2.9222
  814MOL0     H12281   3.871   6.191   7.029 -0.1929 -1.0566 -0.1735
  814MOL0     H12282   3.707   6.296   7.297 -2.3457 -0.5658  1.0603
  814MOL0     H12283   3.647   6.193   7.183 -0.8967  0.9860  0.9375
  814MOL0     H12284   3.521   6.465   7.201 -0.2911 -0.2114  0.3379
  814MOL0     H12285   3.460   6.328   7.119  0.9711 -4.0959 -0.2188
  814MOL0     H12286   3.368   6.230   7.296  0.1906 -0.4986  2.0954
  814MOL0     H12287   3.495   6.249   7.399 -2.0212  1.0601  2.7887
  814MOL0     H12288   3.397   6.490   7.447  0.8717 -0.2114 -2.5084
  814MOL0     H12289   3.275   6.449   7.325 -1.3037  0.9204  0.0330
  814MOL0     H12290   3.130   6.178   7.641 -0.3155 -0.2209 -0.8652
  814MOL0     H12291   3.130   6.035   7.931 -2.9367 -1.0997  0.0443
  814MOL0     H12292   3.243   5.913   7.863 -1.1950 -0.4324 -0.8646
  814MOL0     H12293   3.104   5.958   7.772  2.3768 -0.4001 -1.8307
  814MOL0     H12294   3.569   5.791   7.983  1.8390 -0.7272  0.1149
  814MOL0     H12295   3.712   5.638   8.115  0.2979  0.4543  2.3735
  814MOL0     H12296   3.964   5.527   8.313 -2.9710 -4.2065 -0.2665
  814MOL0     H12297   3.826   5.527   8.214  0.4823 -1.1791 -0.8598
  814MOL0     H12298   3.994   5.589   8.017  3.0083  0.1147  0.0658
  814MOL0     H12299   4.119   5.576   8.148  0.2169  1.6643  1.6184
  814MOL0     H12300   3.949   5.364   8.002 -1.5142 -0.6204  0.9343
  814MOL0     H12301   3.968   5.324   8.158 -0.2879 -2.6801 -1.5530
  814MOL0     H12302   4.232   5.318   8.138 -0.7658 -3.5784  1.3005
  814MOL0     H12303   4.199   5.388   7.979 -1.5087  2.8194  2.3862
  814MOL0     H12304   4.072   5.129   8.082 -0.1158 -0.5229  0.3800
  814MOL0     H12305   4.075   5.183   7.914 -1.3723 -1.4205  1.3100
  814MOL0     H12306   4.246   5.001   7.936 -2.7837 -0.2225 -0.6963
  814MOL0     H12307   4.300   5.075   8.084 -0.2118 -2.3609 -0.0970
  814MOL0     H12308   4.462   5.099   7.913  1.6487  2.1008  0.0576
  814MOL0     H12309   4.407   5.246   7.997  1.1585 -0.2670 -0.8274
  814MOL0     H12310   4.281   5.322   7.807  1.6692  0.7929 -0.7371
  814MOL0     H12311   4.295   5.155   7.727 -1.5611  1.4001 -1.4360
  814MOL0     H12312   3.943   5.981   8.234  0.1826 -1.1418 -1.1433
  814MOL0     H12313   3.793   6.126   8.121 -1.7617  1.0439 -3.0887
  814MOL0     H12314   3.591   6.244   7.800  0.7421 -1.1435 -0.7657
  814MOL0     H12315   3.520   6.371   7.629  0.7918  0.6017  3.2089
  814MOL0     H12316   4.202   6.609   5.821 -0.1561  2.6557  1.2204
  814MOL0     H12317   4.112   6.689   5.601  0.9685  0.2610 -0.5708
  814MOL0     H12318   3.988   7.039   5.305  0.0619  1.5025 -0.3480
  814MOL0     H12319   3.910   7.085   5.079 -0.7668  1.1205 -0.5040
  814MOL0     H12320   3.730   7.213   4.925 -1.3045 -0.5530  1.0756
  814MOL0     H12321   3.824   7.075   4.890 -0.6865 -1.0709  0.7165
  814MOL0     H12322   3.548   7.135   4.767 -0.3252 -2.9047  0.3779
  814MOL0     H12323   3.628   6.996   4.730  1.0652 -0.5292  1.4526
  814MOL0     H12324   3.837   7.150   4.652 -1.0776 -2.3564  0.7130
  814MOL0     H12325   3.694   7.118   4.552 -0.0058 -0.2267 -0.3710
  814MOL0     H12326   3.601   7.360   4.671 -1.1216  0.6105 -1.5497
  814MOL0     H12327   3.656   7.347   4.507 -0.7700 -1.7221 -0.3129
  814MOL0     H12328   3.953   7.565   4.696 -2.2059  1.5409  0.9893
  814MOL0     H12329   3.538   6.878   5.166 -1.4201  2.0454 -0.2306
  814MOL0     H12330   3.513   6.750   5.358 -0.6411 -0.9165  1.9064
  814MOL0     H12331   3.651   6.651   5.387  1.1382 -0.0823  1.4693
  814MOL0     H12332   3.616   6.777   5.505  1.6150 -2.7282  0.2309
  815MOL0     O12333   9.915   8.282   0.634 -0.1391  0.3178 -1.3736
  815MOL0     C12334   9.975   8.391   0.628 -0.1007 -0.8631 -1.3158
  815MOL0     O12335  10.056   8.436   0.519 -0.3040  0.5347  0.4072
  815MOL0     C12336  10.093   8.354   0.416  0.0017  0.6695 -0.1040
  815MOL0     C12337  10.012   8.269   0.338 -0.1692 -0.2062 -0.4626
  815MOL0     C12338  10.060   8.195   0.225 -0.0154 -0.0230  0.3003
  815MOL0     C12339  10.201   8.198   0.193  0.5648  1.1537  1.6634
  815MOL0     O12340  10.259   8.135   0.088  0.5557 -0.4154  0.4426
  815MOL0     C12341  10.177   8.056   0.003 -0.5645  0.4122 -0.8010
  815MOL0     C12342  10.263   7.988  -0.102 -0.5126 -0.0362 -0.5004
  815MOL0     C12343  10.178   7.991  -0.235 -0.3029 -0.2847 -0.2834
  815MOL0     C12344  10.075   7.883  -0.242  0.3353 -0.2761 -0.1914
  815MOL0     C12345  10.009   7.851  -0.373  0.4318 -0.6383  0.2863
  815MOL0     C12346   9.924   7.969  -0.436  0.4976 -0.2446  0.2452
  815MOL0     C12347   9.810   7.998  -0.340 -0.3286 -0.0704 -0.0443
  815MOL0     C12348   9.683   8.037  -0.417 -0.4320 -0.1364 -1.2122
  815MOL0     N12349   9.552   8.028  -0.346 -0.1061  0.0808 -1.1252
  815MOL0     C12350   9.523   7.950  -0.241 -0.2950 -0.4863 -0.1603
  815MOL0     C12351   9.392   7.982  -0.217 -0.1288 -0.1367 -0.8554
  815MOL0     C12352   9.313   7.959  -0.092  0.1061 -0.3635  0.5942
  815MOL0     C12353   9.348   8.035   0.036 -0.1400 -0.0288 -1.5598
  815MOL0     C12354   9.247   8.052   0.149  0.7663 -0.1985  0.6786
  815MOL0     C12355   9.305   8.106   0.276 -0.2174 -0.4916  0.1052
  815MOL0     O12356   9.202   8.108   0.379  0.6531 -0.3502 -0.3148
  815MOL0     C12357   9.164   8.229   0.428 -0.6410 -0.6236 -0.1864
  815MOL0     C12358   9.112   8.319   0.342 -0.2291  0.4497 -0.7973
  815MOL0     C12359   9.054   8.441   0.379  0.6946 -0.8266 -0.1621
  815MOL0     C12360   8.970   8.506   0.271 -0.5370 -0.8244 -0.6050
  815MOL0     C12361   9.051   8.476   0.520  0.1498  0.4333  0.1732
  815MOL0     C12362   8.994   8.599   0.587 -0.1690  0.0476  0.0112
  815MOL0     O12363   8.963   8.712   0.511 -0.2209  0.5900 -0.3599
  815MOL0     C12364   8.863   8.793   0.545  0.3487  0.7280 -0.0718
  815MOL0     C12365   8.865   8.913   0.476  0.4195 -0.3568  0.1770
  815MOL0     C12366   8.775   9.018   0.503  0.0387 -0.3290 -0.8870
  815MOL0     C12367   8.676   9.001   0.601  0.1634 -0.3036  0.0895
  815MOL0     O12368   8.588   9.099   0.615  0.2025 -0.8465  0.5629
  815MOL0     C12369   8.476   9.092   0.697 -0.0057 -1.8126  0.2187
  815MOL0     C12370   8.378   9.198   0.647  0.2372  0.4228 -0.2806
  815MOL0     C12371   8.243   9.192   0.705  0.6066 -0.1808  0.1794
  815MOL0     C12372   8.180   9.327   0.670 -0.0831 -0.1501  0.0773
  815MOL0     C12373   8.033   9.335   0.711  0.6505 -0.1851  0.0902
  815MOL0     C12374   7.973   9.475   0.675  1.0797 -0.3128 -0.1702
  815MOL0     C12375   7.817   9.481   0.669 -0.2857  0.1855  0.6080
  815MOL0     C12376   7.769   9.617   0.695  0.8456  0.0617  0.3527
  815MOL0    Cl12377   7.584   9.616   0.690 -0.1120  0.5395 -0.3467
  815MOL0     C12378   8.675   8.893   0.677 -0.6605 -0.3249 -0.6901
  815MOL0     C12379   8.767   8.781   0.653 -0.7431  0.1159  0.5499
  815MOL0     O12380   8.980   8.588   0.708  0.4637 -0.1174 -0.3150
  815MOL0     C12381   9.113   8.377   0.603  0.3654  0.3015 -0.2215
  815MOL0     C12382   9.161   8.254   0.557 -0.2227 -0.4189 -0.1065
  815MOL0     N12383   9.345   8.066  -0.321  0.1178  0.5940  0.6081
  815MOL0     N12384   9.444   8.092  -0.393  0.3649  0.2316 -0.0440
  815MOL0     C12385  10.277   8.274   0.276 -0.1489  0.0607  0.3669
  815MOL0     C12386  10.224   8.350   0.378  0.2639  0.1429  1.0197
  815MOL0     C12387   9.945   8.481   0.743  0.4494 -0.0760  0.7759
  815MOL0     C12388   9.807   8.496   0.769 -0.0475 -0.9509  0.4660
  815MOL0     C12389   9.761   8.567   0.881  1.1526  0.1268 -0.4642
  815MOL0     C12390   9.851   8.623   0.969  0.1829 -0.5730 -0.3030
  815MOL0     O12391   9.828   8.699   1.081 -0.6828 -0.2830 -0.1462
  815MOL0     C12392   9.692   8.722   1.132  0.2552 -0.8661  1.2195
  815MOL0     C12393   9.626   8.597   1.178 -0.4401 -0.5630  0.2176
  815MOL0     C12394   9.719   8.533   1.287 -0.0489  0.6035 -0.1334
  815MOL0     C12395   9.699   8.392   1.332 -0.0895  0.3564  0.8142
  815MOL0     C12396   9.559   8.361   1.355  1.1342 -1.0387  0.4685
  815MOL0     C12397   9.446   8.322   1.357  0.1690  0.0667  0.8169
  815MOL0     C12398   9.987   8.618   0.938 -0.7630  0.1180  1.0816
  815MOL0     C12399  10.037   8.538   0.827 -0.4582 -0.0840 -0.3603
  815MOL0     C12400  10.187   8.512   0.813 -0.0881 -0.4394 -0.7112
  815MOL0     H12401   9.906   8.256   0.358  0.3876 -4.3074  0.8726
  815MOL0     H12402   9.986   8.136   0.173  1.1731 -0.0541 -1.4522
  815MOL0     H12403  10.098   8.123  -0.032  2.1448  2.7292 -2.9877
  815MOL0     H12404  10.145   7.971   0.064  1.8677 -1.5181 -1.9884
  815MOL0     H12405  10.354   8.046  -0.120  0.3134 -0.6101  1.5397
  815MOL0     H12406  10.286   7.884  -0.077 -0.3314  0.4470  1.5495
  815MOL0     H12407  10.135   8.089  -0.255 -0.2546 -0.0603  0.6792
  815MOL0     H12408  10.252   7.961  -0.310 -0.3144 -3.0845  0.7080
  815MOL0     H12409  10.115   7.786  -0.213  0.0859  0.2323  2.0141
  815MOL0     H12410  10.001   7.908  -0.165  0.6440  0.3115 -0.0761
  815MOL0     H12411   9.954   7.757  -0.374  0.0674 -0.4328 -1.0109
  815MOL0     H12412  10.090   7.838  -0.444 -1.6328 -0.2112 -2.2952
  815MOL0     H12413   9.984   8.059  -0.445 -2.7590  2.0812 -0.1065
  815MOL0     H12414   9.886   7.938  -0.534  0.5178  0.7028 -0.0713
  815MOL0     H12415   9.835   8.078  -0.270 -4.6144  1.6285 -0.1869
  815MOL0     H12416   9.792   7.901  -0.291 -0.8298 -2.8039 -5.0070
  815MOL0     H12417   9.690   8.142  -0.450 -0.8257 -0.1689 -1.4028
  815MOL0     H12418   9.681   7.980  -0.511  2.6170 -0.8307 -0.9685
  815MOL0     H12419   9.599   7.894  -0.189 -1.0411 -1.5489 -0.1749
  815MOL0     H12420   9.329   7.854  -0.068 -1.8608 -0.6986  0.5934
  815MOL0     H12421   9.207   7.980  -0.111 -0.9015 -2.5583  3.1343
  815MOL0     H12422   9.434   7.984   0.080  1.5246  1.4452 -2.9416
  815MOL0     H12423   9.394   8.130   0.006 -3.4510  2.5283  0.6449
  815MOL0     H12424   9.161   8.111   0.116  0.2851 -0.1409  1.9785
  815MOL0     H12425   9.215   7.950   0.171  1.4512 -1.2108 -2.5057
  815MOL0     H12426   9.390   8.044   0.306  1.2543  1.0488 -0.6738
  815MOL0     H12427   9.343   8.209   0.269  1.1172 -0.7389  2.5122
  815MOL0     H12428   9.122   8.290   0.238  0.8326 -3.3322  0.2061
  815MOL0     H12429   8.910   8.434   0.215 -1.9852 -0.3858  0.3259
  815MOL0     H12430   9.033   8.564   0.203 -1.1218 -0.9526 -1.2728
  815MOL0     H12431   8.899   8.576   0.316  1.6422  2.0939 -1.3773
  815MOL0     H12432   8.930   8.929   0.391 -0.3708 -1.4375 -0.6602
  815MOL0     H12433   8.768   9.097   0.429  0.6670  0.6237  0.0484
  815MOL0     H12434   8.430   8.995   0.716 -0.7452 -1.0020  2.9519
  815MOL0     H12435   8.502   9.120   0.799 -1.3738 -0.0096  0.1097
  815MOL0     H12436   8.419   9.298   0.666  2.6973 -0.7298  0.9466
  815MOL0     H12437   8.367   9.189   0.539  0.5069  0.6990 -0.3328
  815MOL0     H12438   8.233   9.177   0.813 -1.8980  0.6508  0.1145
  815MOL0     H12439   8.187   9.114   0.652  1.2481 -0.3780 -0.2193
  815MOL0     H12440   8.165   9.333   0.562  0.7047  1.0277  0.0217
  815MOL0     H12441   8.226   9.417   0.710 -0.8972  0.0237  0.6652
  815MOL0     H12442   7.983   9.267   0.641 -2.6124  2.0166  0.0720
  815MOL0     H12443   8.011   9.294   0.810  1.5213 -1.5924 -0.2704
  815MOL0     H12444   8.003   9.514   0.577  3.2258 -1.2115  0.0803
  815MOL0     H12445   8.014   9.555   0.737  1.1401  0.5030 -1.2393
  815MOL0     H12446   7.784   9.422   0.755  0.4161  1.0796  1.5162
  815MOL0     H12447   7.794   9.429   0.576  0.5494  0.9581 -0.0497
  815MOL0     H12448   7.799   9.686   0.616 -1.9877  1.1181  0.0826
  815MOL0     H12449   7.791   9.668   0.790 -0.8150  1.1568  0.1928
  815MOL0     H12450   8.616   8.883   0.767  0.8214 -2.3746  0.1107
  815MOL0     H12451   8.770   8.696   0.720  0.8728  0.8058  1.3968
  815MOL0     H12452   9.117   8.389   0.711  0.0374  0.7120 -0.2509
  815MOL0     H12453   9.189   8.174   0.625 -1.8354 -0.8596  0.0841
  815MOL0     H12454  10.385   8.270   0.265  0.0753 -3.0540  2.3513
  815MOL0     H12455  10.300   8.405   0.432  1.1681 -0.1872  0.1065
  815MOL0     H12456   9.737   8.450   0.700  1.2957  1.5100 -2.7607
  815MOL0     H12457   9.654   8.579   0.889  1.2441 -0.2976  2.4550
  815MOL0     H12458   9.689   8.793   1.214  1.0547 -1.2752  1.6191
  815MOL0     H12459   9.625   8.763   1.056 -0.3244 -1.3025  1.4911
  815MOL0     H12460   9.594   8.530   1.097 -0.9262  2.5411 -2.3737
  815MOL0     H12461   9.540   8.628   1.237 -0.1048  0.8912 -0.0139
  815MOL0     H12462   9.821   8.520   1.249 -0.2363 -0.2695 -0.3652
  815MOL0     H12463   9.696   8.580   1.383 -0.3492  1.0257 -0.4082
  815MOL0     H12464   9.764   8.367   1.417  2.6601  2.0555 -0.6353
  815MOL0     H12465   9.725   8.327   1.248  1.9075  0.4051  1.3506
  815MOL0     H12466   9.346   8.282   1.355 -1.0244  2.8370 -1.1361
  815MOL0     H12467  10.054   8.665   1.008 -0.8515 -1.4585  2.2862
  815MOL0     H12468  10.246   8.589   0.864 -0.5909 -0.4736 -0.0721
  815MOL0     H12469  10.210   8.422   0.870 -0.7889  0.4548  1.0553
  815MOL0     H12470  10.226   8.491   0.712  1.3414 -0.8514 -0.1044
  816MOL0     O12471  10.699   9.103   0.128 -0.0583  0.4500 -0.1162
  816MOL0     C12472  10.744   9.125   0.021  0.4673 -0.2194  0.8378
  816MOL0     O12473  10.857   9.076  -0.032 -0.6831  0.6575 -0.0037
  816MOL0     C12474  10.976   9.040   0.040  0.5190  0.2891 -0.5376
  816MOL0     C12475  11.003   9.090   0.167 -0.8615  0.4892 -1.1170
  816MOL0     C12476  11.141   9.075   0.220  1.4850 -0.1035  1.2144
  816MOL0     C12477  11.234   8.994   0.153 -0.1885  0.3085  0.5142
  816MOL0     O12478  11.357   8.976   0.208  0.4209 -0.1391  0.0228
  816MOL0     C12479  11.440   8.871   0.158 -1.1534 -0.4251 -0.3997
  816MOL0     C12480  11.558   8.828   0.242  0.2056  0.6319  0.5320
  816MOL0     C12481  11.645   8.725   0.181 -0.4650 -0.1590  0.4995
  816MOL0     C12482  11.756   8.687   0.278  0.0488  0.6592  0.0786
  816MOL0     C12483  11.817   8.554   0.256 -0.4162 -0.1219  0.5268
  816MOL0     C12484  11.943   8.557   0.159  0.6997 -0.3179 -0.6217
  816MOL0     C12485  11.993   8.404   0.135  0.5092 -0.1964  0.2445
  816MOL0     C12486  12.115   8.382   0.047  0.5190  0.3782 -0.2957
  816MOL0     N12487  12.096   8.269  -0.050  0.4066 -0.3944 -0.6390
  816MOL0     C12488  12.103   8.288  -0.187  0.0041  0.0787 -0.4061
  816MOL0     C12489  12.119   8.157  -0.233 -0.2178 -0.0813  0.6461
  816MOL0     C12490  12.132   8.113  -0.384  0.1956  0.5672  0.5676
  816MOL0     C12491  12.018   8.161  -0.465 -0.0342  0.0196 -0.2244
  816MOL0     C12492  12.031   8.127  -0.616  0.1268 -0.4364 -0.6727
  816MOL0     C12493  11.894   8.166  -0.682 -0.4095  0.2534  0.2538
  816MOL0     O12494  11.782   8.090  -0.625 -0.2513  0.2451 -1.1473
  816MOL0     C12495  11.669   8.123  -0.695  0.7081  0.2343 -0.7482
  816MOL0     C12496  11.650   8.209  -0.805  0.6037 -0.1801 -0.8729
  816MOL0     C12497  11.520   8.263  -0.828  0.3574  0.2221  0.1428
  816MOL0     C12498  11.510   8.366  -0.926 -0.2081 -0.5303  0.1726
  816MOL0     C12499  11.413   8.225  -0.752  0.3028 -0.0961  1.7801
  816MOL0     C12500  11.267   8.264  -0.772 -0.4519 -0.9068 -0.3875
  816MOL0     O12501  11.182   8.225  -0.666 -0.2299 -0.2090 -0.3681
  816MOL0     C12502  11.049   8.243  -0.677 -0.0199 -0.0886  0.0998
  816MOL0     C12503  10.981   8.307  -0.574  0.0876  1.0599 -0.8382
  816MOL0     C12504  10.844   8.316  -0.566  0.6852  0.1849  0.2151
  816MOL0     C12505  10.767   8.256  -0.675 -0.0839 -0.5136 -0.8687
  816MOL0     O12506  10.628   8.258  -0.683 -0.4588 -0.5829  0.5909
  816MOL0     C12507  10.566   8.268  -0.557  0.3001  0.8632 -0.1941
  816MOL0     C12508  10.418   8.242  -0.561  1.2066 -0.1714  0.1518
  816MOL0     C12509  10.369   8.096  -0.572  0.0767  0.7873 -0.2930
  816MOL0     C12510  10.451   8.000  -0.656  0.2288  0.9496 -0.4979
  816MOL0     C12511  10.394   7.855  -0.637 -0.0040  0.0007 -0.2491
  816MOL0     C12512  10.461   7.765  -0.746  0.5122 -0.7343  0.7261
  816MOL0     C12513  10.604   7.750  -0.713 -0.1439 -0.2622 -0.4183
  816MOL0     C12514  10.667   7.655  -0.814 -0.5997  0.1363  0.6084
  816MOL0    Cl12515  10.836   7.615  -0.775 -0.0302 -0.5044 -0.3393
  816MOL0     C12516  10.833   8.190  -0.774 -0.1421  1.3270 -0.3317
  816MOL0     C12517  10.977   8.182  -0.781 -0.0031 -0.1843  0.3169
  816MOL0     O12518  11.241   8.348  -0.858  0.8620 -0.0299  0.2614
  816MOL0     C12519  11.433   8.145  -0.646 -0.6206  0.1585  0.6714
  816MOL0     C12520  11.562   8.081  -0.628  1.0706 -0.2269 -0.8862
  816MOL0     N12521  12.126   8.069  -0.126  0.0989  0.5948  0.1647
  816MOL0     N12522  12.111   8.137  -0.022  0.0406 -0.7570 -0.1271
  816MOL0     C12523  11.196   8.941   0.028 -0.5246 -0.0647  0.4054
  816MOL0     C12524  11.072   8.960  -0.024 -0.3479 -0.2734 -0.4033
  816MOL0     C12525  10.677   9.218  -0.076  0.6966 -0.4783 -0.7786
  816MOL0     C12526  10.718   9.232  -0.212  0.2381 -0.4676  0.2959
  816MOL0     C12527  10.650   9.294  -0.321  0.4507  0.5502  0.0781
  816MOL0     C12528  10.535   9.362  -0.293 -0.6803 -0.6247  0.7123
  816MOL0     O12529  10.475   9.433  -0.393 -0.1156  0.4993  0.4861
  816MOL0     C12530  10.346   9.381  -0.437 -0.5868  0.3605  0.1144
  816MOL0     C12531  10.357   9.297  -0.570 -0.7168 -1.0309 -0.2717
  816MOL0     C12532  10.277   9.368  -0.678 -0.6440  0.9064 -0.2614
  816MOL0     C12533  10.281   9.296  -0.819  0.1794  0.6192 -0.2512
  816MOL0     C12534  10.206   9.364  -0.925 -0.8628  0.0026  0.4345
  816MOL0     C12535  10.143   9.413  -1.010 -0.0056  0.7670  0.0690
  816MOL0     C12536  10.494   9.365  -0.159  0.3244  0.4391 -0.7384
  816MOL0     C12537  10.551   9.283  -0.059 -0.2181 -1.4957 -0.6692
  816MOL0     C12538  10.475   9.283   0.075  0.3211  0.8205  0.4688
  816MOL0     H12539  10.930   9.146   0.224 -0.1628  1.0943 -0.7952
  816MOL0     H12540  11.153   9.111   0.321 -2.5671 -1.5355  2.4160
  816MOL0     H12541  11.499   8.896   0.069  4.0901 -1.8393  2.2867
  816MOL0     H12542  11.378   8.785   0.130 -1.6122  0.4225 -2.2079
  816MOL0     H12543  11.621   8.917   0.245  0.6216  0.5247 -2.3023
  816MOL0     H12544  11.541   8.799   0.346  0.3420  1.9188  0.9271
  816MOL0     H12545  11.583   8.639   0.154  2.0559 -1.8661 -0.1469
  816MOL0     H12546  11.691   8.770   0.092  0.3698 -1.8552  0.0471
  816MOL0     H12547  11.831   8.767   0.278  0.5163  0.2266  0.5353
  816MOL0     H12548  11.719   8.676   0.381  0.0991 -1.7664 -0.1217
  816MOL0     H12549  11.735   8.488   0.227 -1.5056  1.6786 -0.7211
  816MOL0     H12550  11.846   8.513   0.353 -0.6964 -2.8570 -0.4650
  816MOL0     H12551  11.919   8.613   0.068  0.8375  3.3964  1.4002
  816MOL0     H12552  12.034   8.598   0.205  1.0367  1.1572 -2.4648
  816MOL0     H12553  11.918   8.337   0.090  0.8013  1.7744 -3.6139
  816MOL0     H12554  12.018   8.371   0.236 -1.2612  0.9772  1.1089
  816MOL0     H12555  12.123   8.477  -0.007 -1.4518  1.9141  1.8765
  816MOL0     H12556  12.192   8.363   0.123  0.9848 -0.5619 -0.9826
  816MOL0     H12557  12.121   8.371  -0.255  1.9759 -0.8364 -1.0958
  816MOL0     H12558  12.131   8.004  -0.387 -0.1989  0.5150  1.8572
  816MOL0     H12559  12.227   8.148  -0.426  2.6860 -2.9859  2.6677
  816MOL0     H12560  11.929   8.108  -0.428 -1.3187  1.9868 -0.3367
  816MOL0     H12561  12.006   8.268  -0.447  0.0441 -0.0030 -0.0314
  816MOL0     H12562  12.103   8.203  -0.647 -0.1941 -0.0939 -0.5890
  816MOL0     H12563  12.069   8.028  -0.643  1.5489  0.2849 -1.4491
  816MOL0     H12564  11.880   8.274  -0.667 -2.8189 -0.0152  0.2472
  816MOL0     H12565  11.907   8.152  -0.789 -1.2750  2.5262 -0.2127
  816MOL0     H12566  11.739   8.251  -0.850  0.1288  2.9525  0.8204
  816MOL0     H12567  11.482   8.335  -1.028  1.9438 -1.6176 -0.1616
  816MOL0     H12568  11.602   8.425  -0.927  0.0049 -0.5786  3.7147
  816MOL0     H12569  11.433   8.438  -0.896  0.4461  0.4977 -0.5851
  816MOL0     H12570  11.026   8.342  -0.482  1.2104 -2.1037 -0.0630
  816MOL0     H12571  10.801   8.371  -0.483 -3.4925 -2.4342  0.0518
  816MOL0     H12572  10.600   8.185  -0.494 -1.8447 -1.3544 -1.7889
  816MOL0     H12573  10.584   8.363  -0.506  2.4851 -0.3939  1.5940
  816MOL0     H12574  10.382   8.283  -0.466  1.7108  1.7578 -0.4552
  816MOL0     H12575  10.366   8.308  -0.631  3.4323 -0.0550 -1.4879
  816MOL0     H12576  10.264   8.087  -0.602  0.8621 -2.8705 -2.6027
  816MOL0     H12577  10.376   8.049  -0.474  3.4413 -2.1635 -1.7567
  816MOL0     H12578  10.556   8.008  -0.630  0.2241 -1.0596  0.2654
  816MOL0     H12579  10.427   8.027  -0.760 -1.0817  0.0901 -0.4467
  816MOL0     H12580  10.410   7.819  -0.535 -0.6788 -1.9504 -0.7831
  816MOL0     H12581  10.286   7.843  -0.646 -0.1145 -0.8186  1.6025
  816MOL0     H12582  10.449   7.819  -0.840  1.6348  0.3961  1.2058
  816MOL0     H12583  10.404   7.673  -0.761 -0.2180 -0.0182 -1.1587
  816MOL0     H12584  10.614   7.696  -0.618 -1.0473  0.7844  0.2970
  816MOL0     H12585  10.657   7.846  -0.703  0.4579 -0.3843 -2.1359
  816MOL0     H12586  10.659   7.709  -0.909  0.3379 -0.8478 -0.0596
  816MOL0     H12587  10.619   7.556  -0.815  1.3203 -0.8610  1.4781
  816MOL0     H12588  10.781   8.146  -0.858 -0.2489  0.6017  0.1046
  816MOL0     H12589  11.022   8.132  -0.866  2.6941  1.1802  0.8357
  816MOL0     H12590  11.361   8.116  -0.570  1.2565  0.5683  2.7516
  816MOL0     H12591  11.578   8.013  -0.545  1.3880  1.2660  0.3288
  816MOL0     H12592  11.263   8.883  -0.034 -0.2592 -0.2447  0.8608
  816MOL0     H12593  11.052   8.923  -0.124 -0.2901 -0.1978 -0.4428
  816MOL0     H12594  10.807   9.178  -0.243  1.4239  2.3636 -1.6484
  816MOL0     H12595  10.697   9.283  -0.419  1.9280 -2.7492  1.0163
  816MOL0     H12596  10.298   9.322  -0.359 -1.1634 -1.5171 -1.5691
  816MOL0     H12597  10.271   9.460  -0.449 -1.6211 -0.2496  2.2149
  816MOL0     H12598  10.326   9.193  -0.557 -2.5162 -0.6158 -0.9341
  816MOL0     H12599  10.464   9.295  -0.592  0.3021  1.8201  3.3796
  816MOL0     H12600  10.178   9.392  -0.638 -0.1558  1.9058  0.3797
  816MOL0     H12601  10.324   9.465  -0.701  0.6282  0.3510 -0.1174
  816MOL0     H12602  10.249   9.194  -0.797  0.1845  0.4924 -0.8117
  816MOL0     H12603  10.387   9.291  -0.849  0.4092  3.0274  0.0010
  816MOL0     H12604  10.083   9.444  -1.093 -2.0366 -1.6132  0.5226
  816MOL0     H12605  10.406   9.421  -0.131  0.3283  0.6897 -1.2122
  816MOL0     H12606  10.526   9.350   0.145  1.6412 -3.2640  3.8443
  816MOL0     H12607  10.377   9.332   0.070  0.3082  0.6876 -0.8770
  816MOL0     H12608  10.469   9.191   0.133  0.5201  0.6858  0.2766
  817MOL0     O12609   7.440   9.500   3.356  0.0941 -0.1561  0.9682
  817MOL0     C12610   7.407   9.459   3.468 -0.0023 -0.3420  0.6336
  817MOL0     O12611   7.482   9.472   3.575 -0.2679  0.3436  0.7983
  817MOL0     C12612   7.603   9.535   3.572 -0.9793 -0.6076 -0.2021
  817MOL0     C12613   7.703   9.495   3.485  0.0985 -0.5395  0.2527
  817MOL0     C12614   7.836   9.548   3.497  0.1355 -0.2783 -0.3002
  817MOL0     C12615   7.858   9.657   3.583 -0.7926  0.5548 -0.7536
  817MOL0     O12616   7.987   9.723   3.598  0.1234 -0.1340 -0.1049
  817MOL0     C12617   8.052   9.764   3.478 -0.6059 -0.5813 -0.5782
  817MOL0     C12618   7.995   9.895   3.433 -0.6810 -0.1301  0.1893
  817MOL0     C12619   8.024  10.010   3.536 -0.4068  0.8976  0.3919
  817MOL0     C12620   8.003  10.148   3.479 -0.3313 -0.8245  0.7077
  817MOL0     C12621   8.119  10.180   3.385  0.1767  0.0702 -0.1170
  817MOL0     C12622   8.097  10.318   3.309 -1.0465 -0.7551  0.4229
  817MOL0     C12623   8.222  10.412   3.321 -0.0101 -0.2646 -0.6852
  817MOL0     C12624   8.238  10.488   3.461 -0.8465  1.0080 -0.4727
  817MOL0     N12625   8.354  10.580   3.460  0.6769  1.2038 -0.0710
  817MOL0     C12626   8.464  10.584   3.544  0.2723 -1.0921  1.7831
  817MOL0     C12627   8.531  10.699   3.505  0.0129 -1.0712 -0.3235
  817MOL0     C12628   8.649  10.755   3.580 -0.5770  0.0700  0.2828
  817MOL0     C12629   8.607  10.861   3.684 -0.4087 -0.3258 -0.2243
  817MOL0     C12630   8.486  10.823   3.769  1.0460  0.4854 -0.5864
  817MOL0     C12631   8.467  10.931   3.878 -0.1991  0.1915 -0.2120
  817MOL0     O12632   8.335  10.903   3.935  0.7418  0.2221 -0.3332
  817MOL0     C12633   8.296  10.959   4.055  0.2694  0.2108  0.4187
  817MOL0     C12634   8.361  11.046   4.126 -0.0645 -0.3769 -0.4790
  817MOL0     C12635   8.312  11.108   4.234  0.6122  0.5570 -0.3861
  817MOL0     C12636   8.402  11.215   4.294  0.1874 -0.6096  0.3636
  817MOL0     C12637   8.183  11.065   4.288 -0.2779  0.1468 -0.2645
  817MOL0     C12638   8.116  11.126   4.403  0.1036  0.5601  0.6385
  817MOL0     O12639   7.996  11.067   4.437 -0.0252 -0.8711 -0.2675
  817MOL0     C12640   7.922  11.144   4.527 -0.5922  0.9583  0.3559
  817MOL0     C12641   7.960  11.177   4.652  0.2314  0.0307 -0.2211
  817MOL0     C12642   7.880  11.262   4.728 -0.1919  0.3647 -1.0895
  817MOL0     C12643   7.758  11.310   4.672  0.1088 -0.2149 -0.6930
  817MOL0     O12644   7.676  11.407   4.731  0.3694 -0.0427 -0.0663
  817MOL0     C12645   7.699  11.453   4.867 -0.4652 -0.9972  0.1746
  817MOL0     C12646   7.640  11.362   4.977  0.4949 -0.2293  0.5043
  817MOL0     C12647   7.666  11.402   5.122  0.0378 -1.2455 -0.0105
  817MOL0     C12648   7.600  11.304   5.222 -0.2798  0.7119 -0.2372
  817MOL0     C12649   7.590  11.351   5.364 -0.0252  0.2323  0.2912
  817MOL0     C12650   7.560  11.224   5.459  0.3799  0.2233  0.3926
  817MOL0     C12651   7.559  11.253   5.610  0.4935 -0.2437  0.8556
  817MOL0     C12652   7.442  11.195   5.685  1.3295  0.2702  0.0106
  817MOL0    Cl12653   7.469  11.236   5.855  0.3891 -0.0276 -0.6841
  817MOL0     C12654   7.717  11.276   4.543  0.3608  0.0191  1.2883
  817MOL0     C12655   7.794  11.180   4.481 -0.1813 -0.2742 -0.1953
  817MOL0     O12656   8.152  11.230   4.445 -0.2906 -0.4804 -0.0289
  817MOL0     C12657   8.108  10.970   4.212  0.2395  0.5866  0.1374
  817MOL0     C12658   8.169  10.919   4.099  0.7133 -0.1533 -0.1656
  817MOL0     N12659   8.460  10.755   3.404  0.1552 -1.0887 -0.0657
  817MOL0     N12660   8.348  10.687   3.387 -0.4178 -0.0982  0.0578
  817MOL0     C12661   7.748   9.708   3.666 -0.5246  1.1557 -0.0897
  817MOL0     C12662   7.625   9.649   3.653 -0.3895  1.0533 -0.2861
  817MOL0     C12663   7.282   9.378   3.485  0.7620 -0.5759  0.3418
  817MOL0     C12664   7.285   9.276   3.585  0.6580  0.6606 -0.6505
  817MOL0     C12665   7.176   9.203   3.615 -0.0570  0.5018  1.3091
  817MOL0     C12666   7.067   9.208   3.533 -0.0533  0.4857 -0.1510
  817MOL0     O12667   6.954   9.157   3.587  1.0610 -0.1256 -0.1741
  817MOL0     C12668   6.848   9.108   3.498 -0.0164 -0.5379 -0.4197
  817MOL0     C12669   6.781   8.988   3.554 -0.0224 -0.2353  0.0603
  817MOL0     C12670   6.863   8.867   3.572 -0.0436  1.5083 -0.8291
  817MOL0     C12671   6.912   8.795   3.439  0.5542  0.1302 -0.2281
  817MOL0     C12672   6.793   8.727   3.383  0.9361  0.2258  0.1400
  817MOL0     C12673   6.691   8.685   3.342 -0.9689  0.6668  0.0019
  817MOL0     C12674   7.066   9.292   3.413  0.8233 -0.1755 -0.2835
  817MOL0     C12675   7.178   9.378   3.394 -0.2401 -0.3403 -0.4226
  817MOL0     C12676   7.170   9.461   3.271 -0.7777 -0.7127 -0.3813
  817MOL0     H12677   7.677   9.417   3.415 -2.7503  1.0997 -0.6643
  817MOL0     H12678   7.920   9.524   3.433  0.5365 -0.0513  0.1293
  817MOL0     H12679   8.050   9.690   3.397  1.8356 -1.7357  0.3100
  817MOL0     H12680   8.159   9.781   3.490 -0.5382  0.6388 -2.4468
  817MOL0     H12681   8.045   9.921   3.340 -2.0757  0.6037 -0.3998
  817MOL0     H12682   7.887   9.884   3.420 -0.5355 -2.1767  0.4534
  817MOL0     H12683   7.941  10.004   3.606 -2.2830 -1.3464 -1.8498
  817MOL0     H12684   8.126  10.009   3.575 -0.5727  3.5465  1.0631
  817MOL0     H12685   7.920  10.140   3.407  0.3420 -0.5699 -0.1072
  817MOL0     H12686   7.995  10.231   3.550  0.0060  0.2237 -0.4451
  817MOL0     H12687   8.135  10.103   3.308  1.8514 -1.5394  1.7043
  817MOL0     H12688   8.209  10.188   3.448 -1.7809  2.4740  2.6398
  817MOL0     H12689   8.086  10.305   3.200 -0.1819  0.1741  0.2117
  817MOL0     H12690   8.010  10.370   3.350 -0.0215 -0.0328  1.7377
  817MOL0     H12691   8.189  10.496   3.259  1.8110  0.1193 -1.1791
  817MOL0     H12692   8.319  10.366   3.300 -0.8418 -0.8117 -3.8594
  817MOL0     H12693   8.146  10.545   3.477 -1.3646 -0.1457  0.9210
  817MOL0     H12694   8.247  10.419   3.545 -2.3230 -1.9209 -2.5303
  817MOL0     H12695   8.485  10.521   3.630 -2.2402 -0.9893  2.5534
  817MOL0     H12696   8.710  10.811   3.507 -3.7942  1.0909 -1.8283
  817MOL0     H12697   8.721  10.688   3.627 -0.7790  1.2687  2.4438
  817MOL0     H12698   8.692  10.875   3.752 -1.6311 -0.5353  1.4168
  817MOL0     H12699   8.591  10.946   3.618 -0.9403 -1.0965 -1.1040
  817MOL0     H12700   8.404  10.812   3.697  2.3591  0.8886 -2.2357
  817MOL0     H12701   8.513  10.732   3.822  1.1902  0.2124 -1.1210
  817MOL0     H12702   8.548  10.922   3.951  0.0219  1.4349 -0.2935
  817MOL0     H12703   8.460  11.033   3.840  3.5102  0.8192  0.4431
  817MOL0     H12704   8.454  11.074   4.076 -1.7457  1.7622 -2.6256
  817MOL0     H12705   8.399  11.216   4.403  0.3018  0.4323  0.3684
  817MOL0     H12706   8.369  11.317   4.270 -1.0700 -1.4125 -1.6457
  817MOL0     H12707   8.502  11.205   4.250  0.3210  0.9141  0.2425
  817MOL0     H12708   8.055  11.138   4.684  1.1408 -1.9214 -4.4851
  817MOL0     H12709   7.916  11.292   4.826  1.2941  0.4019 -1.6206
  817MOL0     H12710   7.806  11.461   4.890 -0.3341 -1.5210 -0.2345
  817MOL0     H12711   7.645  11.548   4.871 -1.5345 -1.6425  1.6798
  817MOL0     H12712   7.532  11.370   4.966  0.2340  0.9186  3.2554
  817MOL0     H12713   7.664  11.257   4.959 -1.4649 -0.5750 -0.2818
  817MOL0     H12714   7.622  11.500   5.145 -1.1705 -1.3818 -1.5978
  817MOL0     H12715   7.773  11.413   5.140 -0.2979  2.7581  0.6430
  817MOL0     H12716   7.648  11.206   5.224  1.8235  1.6589 -1.1160
  817MOL0     H12717   7.499  11.295   5.182 -0.5546  2.7693 -0.1227
  817MOL0     H12718   7.677  11.404   5.402  1.1959 -2.0723  0.9260
  817MOL0     H12719   7.509  11.423   5.374  0.9176  1.3437  0.1971
  817MOL0     H12720   7.615  11.132   5.436  0.1579  0.8560 -3.2426
  817MOL0     H12721   7.459  11.191   5.437  0.2115 -0.0345  1.4844
  817MOL0     H12722   7.550  11.362   5.616  2.5492  0.0209 -0.1746
  817MOL0     H12723   7.651  11.222   5.659  0.1372 -2.9488 -0.0356
  817MOL0     H12724   7.436  11.087   5.674  0.6812  0.2897  0.1268
  817MOL0     H12725   7.355  11.240   5.637 -0.2403 -2.3214  0.3052
  817MOL0     H12726   7.636  11.323   4.487  2.5128  0.1086 -1.9843
  817MOL0     H12727   7.766  11.139   4.385  1.5315  1.4883 -1.5319
  817MOL0     H12728   8.010  10.935   4.243  1.0198 -1.6065  0.3099
  817MOL0     H12729   8.118  10.836   4.051 -0.5363  0.0677  0.7048
  817MOL0     H12730   7.770   9.770   3.752 -1.9385 -0.0348  1.2083
  817MOL0     H12731   7.540   9.679   3.712  0.0063  0.0831  0.8160
  817MOL0     H12732   7.373   9.274   3.648 -0.4148  0.2499  0.9083
  817MOL0     H12733   7.186   9.141   3.704  1.7690  0.8674  1.3978
  817MOL0     H12734   6.774   9.187   3.480 -0.9921 -1.0014  1.3674
  817MOL0     H12735   6.898   9.088   3.403 -2.0158 -1.4957 -1.3264
  817MOL0     H12736   6.700   8.959   3.487  1.5134  0.8163 -2.3818
  817MOL0     H12737   6.750   9.016   3.656  0.4724  1.8461 -0.3111
  817MOL0     H12738   6.946   8.880   3.642  0.1980  1.9478 -1.1894
  817MOL0     H12739   6.800   8.793   3.624  0.2347  1.6485 -0.2847
  817MOL0     H12740   6.981   8.715   3.467 -3.1146 -2.6060  1.9136
  817MOL0     H12741   6.935   8.861   3.355  2.8141  2.2397  1.8910
  817MOL0     H12742   6.600   8.630   3.327 -1.0419  0.9392 -0.5843
  817MOL0     H12743   6.989   9.286   3.336  2.3401 -0.5129 -1.8222
  817MOL0     H12744   7.185   9.567   3.295  0.4060 -1.0772  0.6074
  817MOL0     H12745   7.248   9.437   3.198  1.6046 -3.0896  2.6542
  817MOL0     H12746   7.073   9.455   3.221 -0.7893  3.1158 -1.1345
  818MOL0     O12747   7.641   9.287   3.773  0.4292  0.7841  0.0940
  818MOL0     C12748   7.717   9.313   3.870 -1.2162  0.1348  0.3452
  818MOL0     O12749   7.839   9.259   3.877  0.4354 -0.7270 -0.0307
  818MOL0     C12750   7.904   9.227   3.761 -0.0783 -0.5504  0.5748
  818MOL0     C12751   7.899   9.099   3.717 -0.0248  0.0418  0.7446
  818MOL0     C12752   7.954   9.066   3.588 -0.3005 -0.3806  0.7253
  818MOL0     C12753   8.016   9.165   3.509 -0.5658  0.0770 -0.3345
  818MOL0     O12754   8.076   9.156   3.382 -1.2787  0.7611  0.0074
  818MOL0     C12755   8.012   9.080   3.275  0.0583 -0.3247  0.4107
  818MOL0     C12756   8.087   9.097   3.141  0.0264  0.0048 -0.3116
  818MOL0     C12757   8.049   8.982   3.046  0.4549 -0.1926 -0.9625
  818MOL0     C12758   7.940   9.023   2.945 -0.0236  0.0567 -0.6654
  818MOL0     C12759   7.927   8.916   2.845 -0.4203  0.4139  0.0992
  818MOL0     C12760   7.831   8.977   2.746 -1.4620 -0.6917 -1.0135
  818MOL0     C12761   7.778   8.865   2.658  0.3505 -0.7299  0.1718
  818MOL0     C12762   7.877   8.778   2.588 -0.7424  0.1512 -0.2815
  818MOL0     N12763   7.799   8.676   2.510 -0.4092  0.3006  0.7010
  818MOL0     C12764   7.852   8.612   2.402 -0.9880  0.5422  0.8541
  818MOL0     C12765   7.758   8.526   2.359  0.1529  0.0269 -0.1482
  818MOL0     C12766   7.789   8.429   2.254  0.7020  0.4360 -0.2484
  818MOL0     C12767   7.707   8.301   2.268  0.6638  0.1238  0.9371
  818MOL0     C12768   7.759   8.202   2.369 -0.1386  0.4137  0.9533
  818MOL0     C12769   7.670   8.080   2.383 -0.1775 -0.4001  0.7202
  818MOL0     O12770   7.547   8.115   2.440  0.7206  0.2712 -1.0988
  818MOL0     C12771   7.510   8.147   2.564  0.0135 -0.5676  0.2467
  818MOL0     C12772   7.597   8.174   2.671 -0.5663 -0.2977  0.7071
  818MOL0     C12773   7.554   8.208   2.805 -0.4376  1.1433 -0.2190
  818MOL0     C12774   7.660   8.219   2.915  0.4436 -0.3004 -0.3241
  818MOL0     C12775   7.418   8.221   2.825 -0.3128 -0.3368 -0.2099
  818MOL0     C12776   7.357   8.269   2.953 -0.4140  0.4852 -0.5265
  818MOL0     O12777   7.251   8.352   2.941  0.4143 -0.8304  0.5249
  818MOL0     C12778   7.144   8.334   3.028 -0.1216  0.1415 -0.4987
  818MOL0     C12779   7.106   8.425   3.128  0.8504 -0.4155  0.2891
  818MOL0     C12780   6.999   8.398   3.220  0.3664 -0.0348 -0.1178
  818MOL0     C12781   6.919   8.287   3.196 -0.1785 -0.5049  0.9957
  818MOL0     O12782   6.820   8.253   3.290 -0.3708 -0.3992  0.4317
  818MOL0     C12783   6.694   8.289   3.236 -0.5289 -0.3963  0.1028
  818MOL0     C12784   6.599   8.192   3.296 -0.8394  0.0433  0.3857
  818MOL0     C12785   6.576   8.182   3.443 -0.3656 -0.4897  0.5419
  818MOL0     C12786   6.510   8.308   3.495  0.1355 -0.7026  0.7510
  818MOL0     C12787   6.451   8.304   3.635  0.3233  1.4654  0.2565
  818MOL0     C12788   6.337   8.198   3.655 -1.0301  0.4807 -0.4213
  818MOL0     C12789   6.388   8.086   3.752  0.4998  0.4565  0.3176
  818MOL0     C12790   6.332   7.953   3.717 -0.3430 -0.6799 -0.1774
  818MOL0    Cl12791   6.152   7.969   3.766 -0.2243 -0.0033  0.3315
  818MOL0     C12792   6.947   8.208   3.081 -0.3881  0.4436  0.1584
  818MOL0     C12793   7.061   8.226   3.006 -1.0018  0.0606  0.2469
  818MOL0     O12794   7.399   8.231   3.056  0.3133  0.1096  0.4178
  818MOL0     C12795   7.330   8.183   2.718  0.4095  0.0403  0.1790
  818MOL0     C12796   7.374   8.154   2.590 -0.7787 -0.0230  0.7786
  818MOL0     N12797   7.644   8.542   2.438 -0.2080  0.4260 -0.5057
  818MOL0     N12798   7.672   8.622   2.531  0.1805 -0.1015  0.1341
  818MOL0     C12799   8.020   9.297   3.559 -0.8864 -0.2267 -0.1706
  818MOL0     C12800   7.961   9.316   3.684 -0.6131  0.0603 -0.0691
  818MOL0     C12801   7.685   9.414   3.972 -0.7447  0.0998 -0.2364
  818MOL0     C12802   7.781   9.481   4.053  0.3152 -0.3305  0.1094
  818MOL0     C12803   7.745   9.568   4.157 -0.2546 -0.3754  0.8390
  818MOL0     C12804   7.619   9.617   4.165  0.8784  1.0418 -0.4010
  818MOL0     O12805   7.601   9.708   4.270 -0.3643  0.2015 -0.4142
  818MOL0     C12806   7.468   9.717   4.337  0.3006  0.6295 -0.6866
  818MOL0     C12807   7.472   9.809   4.451 -0.4135  0.8866  0.0384
  818MOL0     C12808   7.524   9.952   4.405 -0.7034  0.7536 -0.2935
  818MOL0     C12809   7.443  10.052   4.474 -0.0850  0.1112 -0.7347
  818MOL0     C12810   7.494  10.078   4.615  0.5685 -0.6739 -0.4944
  818MOL0     C12811   7.536  10.105   4.724 -0.6507 -0.7628 -0.4853
  818MOL0     C12812   7.516   9.559   4.085 -0.6189 -0.8508  0.0873
  818MOL0     C12813   7.549   9.454   3.998  0.1363  0.1388  0.3649
  818MOL0     C12814   7.425   9.396   3.933 -1.5573 -0.0641 -1.0626
  818MOL0     H12815   7.859   9.013   3.770  0.6904 -1.4183 -0.9841
  818MOL0     H12816   7.958   8.961   3.561 -1.3001 -0.4309  0.7476
  818MOL0     H12817   7.907   9.107   3.264 -0.2969 -0.9997  1.9941
  818MOL0     H12818   8.017   8.971   3.290  0.7442 -0.8232 -2.6315
  818MOL0     H12819   8.054   9.188   3.090  3.4306  1.3467 -0.4001
  818MOL0     H12820   8.195   9.102   3.159  0.0150  0.2771 -0.3172
  818MOL0     H12821   8.140   8.941   2.999  1.4378 -2.8596  2.8391
  818MOL0     H12822   8.015   8.904   3.113 -0.4924  3.3189  3.0457
  818MOL0     H12823   7.850   9.029   3.007  2.0118  1.5463  2.3999
  818MOL0     H12824   7.975   9.114   2.895 -2.7235  0.3804 -2.2016
  818MOL0     H12825   7.881   8.828   2.891 -1.6086 -0.8457 -3.2163
  818MOL0     H12826   8.023   8.893   2.798  0.4359 -1.3055  2.4568
  818MOL0     H12827   7.754   9.019   2.812 -0.0192 -1.4259  1.2483
  818MOL0     H12828   7.890   9.046   2.686 -2.3955  0.3254 -0.7876
  818MOL0     H12829   7.713   8.911   2.583 -0.2994  0.5466  1.4715
  818MOL0     H12830   7.705   8.806   2.716 -0.7649  1.3115  0.9659
  818MOL0     H12831   7.950   8.843   2.537  3.3852 -2.2718  1.9881
  818MOL0     H12832   7.941   8.729   2.661 -0.7457  0.9646  0.2840
  818MOL0     H12833   7.952   8.630   2.364 -1.2041 -0.9473 -0.5231
  818MOL0     H12834   7.893   8.398   2.246 -0.3832 -3.4333 -1.5222
  818MOL0     H12835   7.757   8.485   2.166  0.3706  1.4781  0.5191
  818MOL0     H12836   7.606   8.339   2.285  0.8647  1.9832 -1.5090
  818MOL0     H12837   7.708   8.259   2.167  0.7187  3.0120 -0.3579
  818MOL0     H12838   7.856   8.173   2.328 -0.2938 -0.0210  0.8910
  818MOL0     H12839   7.783   8.253   2.462 -0.6045  1.9278  0.2743
  818MOL0     H12840   7.647   8.038   2.285 -0.9639  1.6388 -0.0270
  818MOL0     H12841   7.719   8.007   2.448  2.3039  0.4096 -0.1613
  818MOL0     H12842   7.704   8.167   2.659 -0.6853  0.8131 -1.4791
  818MOL0     H12843   7.717   8.126   2.918 -1.0970 -1.2624  0.2251
  818MOL0     H12844   7.621   8.229   3.017  1.6626 -1.2200  0.2507
  818MOL0     H12845   7.722   8.304   2.884 -1.2017  1.3890  0.7820
  818MOL0     H12846   7.160   8.518   3.140 -5.1855  3.9229 -1.4735
  818MOL0     H12847   6.978   8.466   3.302 -1.7548 -0.3367 -0.3567
  818MOL0     H12848   6.671   8.392   3.264 -3.6034 -0.5122 -1.5865
  818MOL0     H12849   6.691   8.281   3.127  2.0682  2.2061 -0.2980
  818MOL0     H12850   6.501   8.222   3.257 -0.5480  0.2651 -0.1892
  818MOL0     H12851   6.628   8.089   3.272  1.1844  0.4443  0.9072
  818MOL0     H12852   6.676   8.178   3.488 -0.8466 -1.5585  1.5706
  818MOL0     H12853   6.513   8.094   3.460 -0.8416 -0.3046 -0.2173
  818MOL0     H12854   6.438   8.332   3.416  1.9559 -1.6135 -1.2962
  818MOL0     H12855   6.585   8.388   3.487  0.2771 -1.0092 -1.8464
  818MOL0     H12856   6.529   8.288   3.710 -0.7391 -4.7808  0.5625
  818MOL0     H12857   6.404   8.402   3.651 -1.0765  1.2187 -1.9152
  818MOL0     H12858   6.298   8.158   3.560  0.6770 -3.4752  0.3385
  818MOL0     H12859   6.258   8.251   3.708 -1.9891  1.0659 -2.3264
  818MOL0     H12860   6.362   8.112   3.856 -1.4798 -1.2568  0.3180
  818MOL0     H12861   6.496   8.070   3.743  0.5127  0.5150  0.3606
  818MOL0     H12862   6.385   7.877   3.776  2.6469 -0.0180 -1.8109
  818MOL0     H12863   6.345   7.932   3.610 -0.6810 -3.9594  0.3113
  818MOL0     H12864   6.884   8.125   3.050  1.4043 -0.5966 -0.8908
  818MOL0     H12865   7.096   8.158   2.929  3.2838 -0.0599  2.0261
  818MOL0     H12866   7.223   8.193   2.733  0.4133  2.3350 -0.9640
  818MOL0     H12867   7.311   8.141   2.502  1.3449 -0.4295 -0.7766
  818MOL0     H12868   8.079   9.372   3.506 -0.7619  0.9238  1.5196
  818MOL0     H12869   7.974   9.417   3.720  2.9093 -0.1845 -0.3317
  818MOL0     H12870   7.888   9.472   4.033  0.0846 -1.5764 -0.6091
  818MOL0     H12871   7.815   9.604   4.231  0.6206  1.2608 -0.6958
  818MOL0     H12872   7.395   9.759   4.268 -0.6336  2.2197  1.2016
  818MOL0     H12873   7.437   9.621   4.380  0.5422  1.3798  1.2677
  818MOL0     H12874   7.557   9.770   4.509 -0.5733 -2.8602 -1.9457
  818MOL0     H12875   7.388   9.811   4.521  0.2024 -0.5991  0.8578
  818MOL0     H12876   7.631   9.959   4.430 -0.5356 -0.7977 -0.4747
  818MOL0     H12877   7.516   9.974   4.298 -3.1281  0.0235 -0.3214
  818MOL0     H12878   7.342  10.019   4.501  0.8027 -3.0366 -0.8483
  818MOL0     H12879   7.442  10.141   4.410  0.0907 -1.0537 -2.4223
  818MOL0     H12880   7.573  10.121   4.823 -1.3438 -0.2556 -0.2999
  818MOL0     H12881   7.419   9.607   4.072  0.2515  0.1823 -4.8869
  818MOL0     H12882   7.436   9.287   3.928 -0.3344 -0.0568  0.6844
  818MOL0     H12883   7.330   9.429   3.976 -0.3599  2.7270 -0.3170
  818MOL0     H12884   7.415   9.440   3.833 -0.9211  1.9356 -0.3005
  819MOL0     O12885   4.496   1.743   0.004 -0.2337  0.3754  0.0138
  819MOL0     C12886   4.446   1.638   0.018 -0.1958 -0.1049  0.3581
  819MOL0     O12887   4.408   1.586   0.134  0.3248  0.0921  0.3817
  819MOL0     C12888   4.461   1.635   0.245  0.3340 -0.4227 -0.1101
  819MOL0     C12889   4.382   1.624   0.360 -0.0265 -0.3291  0.4558
  819MOL0     C12890   4.416   1.671   0.492 -0.1403  0.1710 -0.1532
  819MOL0     C12891   4.546   1.732   0.509  0.4195  0.0706  0.4243
  819MOL0     O12892   4.589   1.762   0.636  0.3854  0.2789 -0.2633
  819MOL0     C12893   4.720   1.823   0.650  0.6113 -0.9044  0.4776
  819MOL0     C12894   4.694   1.884   0.788  0.9691  0.1772 -0.2303
  819MOL0     C12895   4.827   1.946   0.846 -0.5207 -0.6467  0.1669
  819MOL0     C12896   4.939   1.839   0.865  0.7418 -0.0489  0.0267
  819MOL0     C12897   5.032   1.887   0.970 -0.0982  0.6070  0.8331
  819MOL0     C12898   5.125   1.772   1.027 -0.0175  0.0241  0.8649
  819MOL0     C12899   5.228   1.821   1.134 -0.5023 -0.7745  0.7370
  819MOL0     C12900   5.179   1.912   1.250  0.3976  1.0009 -0.1718
  819MOL0     N12901   5.103   1.836   1.344  1.2996  0.0293 -0.2932
  819MOL0     C12902   5.165   1.750   1.435 -0.5271  0.0536 -0.2493
  819MOL0     C12903   5.065   1.723   1.527  0.0547 -0.0204  0.5719
  819MOL0     C12904   5.069   1.644   1.659  0.1367  0.4904  0.1617
  819MOL0     C12905   5.085   1.735   1.779  0.0214  0.6159 -0.8641
  819MOL0     C12906   5.109   1.675   1.916 -0.7801  0.1570 -0.0790
  819MOL0     C12907   5.241   1.611   1.931 -0.3898  0.0845  0.0555
  819MOL0     O12908   5.267   1.547   2.052 -0.2797 -0.0754  0.9563
  819MOL0     C12909   5.278   1.609   2.168  0.2593  0.4447  0.3801
  819MOL0     C12910   5.356   1.720   2.177  0.2522  0.0233  0.1664
  819MOL0     C12911   5.364   1.780   2.303 -0.1919  0.0614 -0.0369
  819MOL0     C12912   5.423   1.915   2.291 -0.4704 -0.0368 -0.9042
  819MOL0     C12913   5.319   1.719   2.426 -0.3141  0.0179  0.3811
  819MOL0     C12914   5.349   1.778   2.562 -0.6488  0.3906 -0.1459
  819MOL0     O12915   5.327   1.699   2.670  0.0008  0.2719  0.7164
  819MOL0     C12916   5.357   1.742   2.793  0.2224  0.3320  0.2352
  819MOL0     C12917   5.263   1.789   2.886 -0.0841 -0.0122 -0.5306
  819MOL0     C12918   5.305   1.828   3.017 -0.1292 -0.1441 -0.5751
  819MOL0     C12919   5.436   1.825   3.062 -0.4917 -0.6133 -0.3516
  819MOL0     O12920   5.466   1.865   3.188 -0.1660 -0.2927  0.3733
  819MOL0     C12921   5.581   1.949   3.206 -0.1077  0.0422 -0.1022
  819MOL0     C12922   5.600   1.960   3.363 -0.5163  0.3297  0.3447
  819MOL0     C12923   5.592   1.839   3.455 -0.1698 -0.2891  0.5921
  819MOL0     C12924   5.561   1.894   3.602 -1.1442  0.3950  0.2786
  819MOL0     C12925   5.687   1.962   3.660  0.2030 -0.0467 -0.6231
  819MOL0     C12926   5.662   2.036   3.795  0.0758 -0.1243  0.3895
  819MOL0     C12927   5.790   2.085   3.863 -0.6099  0.8079  0.5456
  819MOL0     C12928   5.768   2.125   4.009 -0.4635  0.4433 -0.2558
  819MOL0    Cl12929   5.912   2.118   4.107 -0.7719  0.2250 -0.0459
  819MOL0     C12930   5.533   1.774   2.971 -0.1917  0.2747  0.1323
  819MOL0     C12931   5.493   1.733   2.843 -0.0050 -0.5859  0.2188
  819MOL0     O12932   5.404   1.884   2.571 -0.2676 -2.0017 -0.0173
  819MOL0     C12933   5.251   1.598   2.415  0.4041 -0.0320  0.1301
  819MOL0     C12934   5.228   1.548   2.281 -1.3715  0.3361 -0.8685
  819MOL0     N12935   4.950   1.796   1.493  0.0650 -0.9171  0.6351
  819MOL0     N12936   4.973   1.864   1.387 -0.6416  0.4205  0.8652
  819MOL0     C12937   4.631   1.740   0.388 -0.1056  0.1518 -0.4125
  819MOL0     C12938   4.586   1.691   0.267 -0.1504 -1.1615 -1.4408
  819MOL0     C12939   4.390   1.583  -0.115 -0.0506  0.6698  0.1350
  819MOL0     C12940   4.383   1.670  -0.224  0.5466  0.5691 -0.4481
  819MOL0     C12941   4.311   1.636  -0.341 -0.1277  0.1825  0.2342
  819MOL0     C12942   4.260   1.509  -0.356  0.3331  0.5201  0.5763
  819MOL0     O12943   4.185   1.467  -0.468 -0.1699 -0.3159  0.2753
  819MOL0     C12944   4.217   1.515  -0.600 -0.0686 -0.2692 -0.3037
  819MOL0     C12945   4.135   1.426  -0.698 -0.3413  0.8275 -0.2321
  819MOL0     C12946   4.182   1.456  -0.842 -1.0829 -0.2417 -0.2778
  819MOL0     C12947   4.078   1.477  -0.953 -0.1505 -0.7499 -0.4328
  819MOL0     C12948   3.991   1.595  -0.921 -0.4068 -0.1145 -0.4125
  819MOL0     C12949   3.932   1.693  -0.878  1.0386  1.4627 -0.1031
  819MOL0     C12950   4.259   1.425  -0.249 -0.3282  0.5969  0.2671
  819MOL0     C12951   4.318   1.458  -0.130  0.7772 -0.1731 -0.3032
  819MOL0     C12952   4.297   1.366  -0.016 -0.0336  0.1616 -0.2085
  819MOL0     H12953   4.286   1.576   0.371 -0.9683  0.9887 -1.4707
  819MOL0     H12954   4.355   1.654   0.580  0.9451 -4.7756 -0.0643
  819MOL0     H12955   4.741   1.905   0.580 -3.7962  0.0451 -0.0340
  819MOL0     H12956   4.800   1.749   0.639  0.4102 -1.2445  1.2676
  819MOL0     H12957   4.605   1.947   0.794  0.1615 -0.9458 -0.0596
  819MOL0     H12958   4.674   1.808   0.864  3.8993  0.3738  0.8715
  819MOL0     H12959   4.864   2.021   0.775 -1.8246 -2.6109 -2.7838
  819MOL0     H12960   4.796   1.999   0.936 -0.7204 -3.5877  1.9491
  819MOL0     H12961   4.906   1.739   0.895  0.6846  0.1942  0.7806
  819MOL0     H12962   4.989   1.835   0.768  0.3346  2.3023 -0.3366
  819MOL0     H12963   4.965   1.925   1.048  0.2170  1.3734  0.7372
  819MOL0     H12964   5.089   1.973   0.934  1.3464 -0.7662 -0.3039
  819MOL0     H12965   5.073   1.692   1.081  0.9192 -2.2196 -1.3387
  819MOL0     H12966   5.178   1.730   0.941  0.3875  0.5864  0.8390
  819MOL0     H12967   5.296   1.879   1.071 -1.3171 -1.6604 -1.0583
  819MOL0     H12968   5.283   1.736   1.176  0.8919  0.2975  1.1240
  819MOL0     H12969   5.264   1.961   1.299 -2.4401  2.8823  3.3205
  819MOL0     H12970   5.116   1.997   1.221  1.0099  2.0448  1.4408
  819MOL0     H12971   5.266   1.712   1.434 -0.9761 -1.4870  2.2816
  819MOL0     H12972   5.137   1.559   1.664  2.1631  2.0920  1.1114
  819MOL0     H12973   4.966   1.612   1.678  0.5209  1.1131  4.1130
  819MOL0     H12974   5.172   1.798   1.759  1.5116 -0.0627  2.6620
  819MOL0     H12975   5.000   1.803   1.791  0.0489  0.2555  2.2245
  819MOL0     H12976   5.095   1.745   1.999 -0.5769  1.8940 -1.4561
  819MOL0     H12977   5.028   1.603   1.931 -0.0954 -1.1851 -2.3705
  819MOL0     H12978   5.258   1.539   1.850  1.4551  2.0210 -1.3931
  819MOL0     H12979   5.321   1.680   1.903  1.6064 -0.9946  2.6273
  819MOL0     H12980   5.386   1.773   2.088  1.6847 -0.6175  0.2435
  819MOL0     H12981   5.439   1.955   2.190  0.2061  0.6544 -0.5283
  819MOL0     H12982   5.525   1.911   2.329 -1.0585  0.8570  0.8742
  819MOL0     H12983   5.352   1.974   2.349  0.2718 -1.1021  1.2082
  819MOL0     H12984   5.166   1.797   2.839  1.6390  1.2202 -4.3213
  819MOL0     H12985   5.226   1.876   3.074 -1.8749  0.8693 -3.5946
  819MOL0     H12986   5.668   1.903   3.158  1.7469 -1.2376  4.0806
  819MOL0     H12987   5.561   2.051   3.170  1.1762  0.1281 -0.5994
  819MOL0     H12988   5.697   2.006   3.384  0.5791 -0.9340 -1.6307
  819MOL0     H12989   5.531   2.037   3.396 -0.4162  0.8500 -0.6361
  819MOL0     H12990   5.689   1.790   3.458  0.2553  0.4834 -0.1193
  819MOL0     H12991   5.525   1.758   3.425  0.9742 -0.4532 -1.7683
  819MOL0     H12992   5.530   1.806   3.660 -2.0866  1.2145  1.0402
  819MOL0     H12993   5.475   1.962   3.603 -0.1664  1.6535  0.4611
  819MOL0     H12994   5.768   1.889   3.670  1.5269  1.3281 -0.8782
  819MOL0     H12995   5.719   2.033   3.583 -0.0155  0.2119 -0.4765
  819MOL0     H12996   5.611   1.959   3.854 -3.1774  1.3620 -0.2390
  819MOL0     H12997   5.595   2.122   3.784  0.4807  0.4445  2.1267
  819MOL0     H12998   5.851   2.160   3.811  3.5806 -0.6379  2.8552
  819MOL0     H12999   5.860   2.000   3.863  0.9060  1.9780 -1.5098
  819MOL0     H13000   5.702   2.054   4.061  0.9902 -0.6005  0.2214
  819MOL0     H13001   5.737   2.230   4.012  2.2622  1.2770  1.8606
  819MOL0     H13002   5.631   1.749   3.010 -0.8512 -1.8450  0.5837
  819MOL0     H13003   5.562   1.682   2.776 -0.6976  1.7278 -2.4445
  819MOL0     H13004   5.207   1.557   2.505  0.5750  1.2513  0.8180
  819MOL0     H13005   5.188   1.448   2.276 -1.0544  0.1903 -0.5487
  819MOL0     H13006   4.727   1.792   0.383  0.5029 -0.8309  0.6798
  819MOL0     H13007   4.655   1.723   0.189  1.1492 -0.5416 -0.0989
  819MOL0     H13008   4.432   1.767  -0.215 -1.0007  1.2592  1.4029
  819MOL0     H13009   4.286   1.709  -0.417  1.0250  0.9235  0.5579
  819MOL0     H13010   4.186   1.620  -0.608  0.5732  0.0262  0.9064
  819MOL0     H13011   4.324   1.500  -0.613  0.1150 -0.3942  1.2510
  819MOL0     H13012   4.030   1.454  -0.685 -0.0573  1.2547  1.4568
  819MOL0     H13013   4.158   1.323  -0.673  0.0923 -0.0409 -3.6563
  819MOL0     H13014   4.245   1.546  -0.843 -0.8634 -0.3986 -0.5691
  819MOL0     H13015   4.255   1.375  -0.857  0.8850  1.1449  1.2029
  819MOL0     H13016   4.023   1.385  -0.969  0.2360 -0.5830 -3.1414
  819MOL0     H13017   4.132   1.494  -1.047  1.5649 -1.1802  0.4264
  819MOL0     H13018   3.875   1.773  -0.835 -1.4723 -0.1024 -0.2955
  819MOL0     H13019   4.202   1.333  -0.252 -2.1824  1.7157 -1.9324
  819MOL0     H13020   4.249   1.277  -0.057 -1.9208  1.2912 -0.5646
  819MOL0     H13021   4.390   1.343   0.037 -0.0542 -0.5146 -0.4516
  819MOL0     H13022   4.241   1.418   0.062  0.7252  0.9659 -0.1847
  820MOL0     O13023   7.645   1.276   4.467  0.6463  0.8580  0.4610
  820MOL0     C13024   7.592   1.306   4.575 -0.3235  0.6604 -0.2528
  820MOL0     O13025   7.451   1.331   4.596  0.1562  0.1008  0.1089
  820MOL0     C13026   7.361   1.281   4.499 -0.2787  0.1259  0.2093
  820MOL0     C13027   7.263   1.372   4.454 -0.2512  0.3370 -1.2373
  820MOL0     C13028   7.193   1.340   4.336 -0.1575 -0.7562 -0.3264
  820MOL0     C13029   7.222   1.223   4.264 -0.1419  0.1102 -0.5332
  820MOL0     O13030   7.167   1.187   4.144  0.0758 -0.2573 -0.4235
  820MOL0     C13031   7.140   1.299   4.069 -0.4302 -1.0836  0.2685
  820MOL0     C13032   7.133   1.260   3.915 -0.4544 -0.3327 -0.2465
  820MOL0     C13033   7.097   1.383   3.828 -0.4877 -0.0518  0.4218
  820MOL0     C13034   7.093   1.344   3.681 -0.1744 -0.2127  0.0970
  820MOL0     C13035   7.194   1.451   3.613  1.0826  0.3182  0.8820
  820MOL0     C13036   7.339   1.425   3.662  0.4583  0.3864  0.0154
  820MOL0     C13037   7.444   1.497   3.576 -0.4804 -0.5924 -0.0892
  820MOL0     C13038   7.426   1.656   3.585 -0.9090  0.0440  0.1841
  820MOL0     N13039   7.470   1.701   3.715  0.4252  0.3172 -0.1945
  820MOL0     C13040   7.387   1.763   3.810 -0.2373 -0.2149 -0.2678
  820MOL0     C13041   7.475   1.825   3.905  0.1044 -0.1675 -0.1705
  820MOL0     C13042   7.435   1.913   4.022 -0.2484  0.6040  0.5512
  820MOL0     C13043   7.464   2.057   3.979  0.1867 -0.1645 -0.8191
  820MOL0     C13044   7.331   2.151   4.012 -0.8590 -0.3100 -0.1588
  820MOL0     C13045   7.370   2.295   4.043 -0.0358 -0.0342  0.6111
  820MOL0     O13046   7.380   2.369   3.920 -0.0909 -0.3174 -0.4575
  820MOL0     C13047   7.309   2.486   3.902  0.0944  0.6271 -0.3326
  820MOL0     C13048   7.342   2.597   3.973 -0.0743 -0.5194 -0.5253
  820MOL0     C13049   7.280   2.721   3.948  1.3843 -0.3087  0.0861
  820MOL0     C13050   7.339   2.849   4.020  0.0710  0.3013  0.1553
  820MOL0     C13051   7.159   2.725   3.861 -0.4139  0.3874 -0.3193
  820MOL0     C13052   7.083   2.849   3.834 -0.5316 -0.8482  0.1476
  820MOL0     O13053   6.983   2.829   3.741  0.0193 -0.7066  1.1504
  820MOL0     C13054   6.908   2.930   3.692 -0.1431 -0.4072 -1.3830
  820MOL0     C13055   6.931   2.969   3.565 -0.1423 -0.6231 -0.0211
  820MOL0     C13056   6.853   3.074   3.512  0.0239 -0.1601 -1.0971
  820MOL0     C13057   6.756   3.142   3.587  0.8040 -1.3389  0.3431
  820MOL0     O13058   6.678   3.245   3.534  0.1405  1.0993  0.2011
  820MOL0     C13059   6.659   3.242   3.391  0.4606  0.1854  0.2775
  820MOL0     C13060   6.564   3.352   3.349 -0.1265 -0.4229  0.1974
  820MOL0     C13061   6.566   3.345   3.198 -0.4338  0.0595  0.4714
  820MOL0     C13062   6.467   3.454   3.158  0.3287 -0.4767  0.1065
  820MOL0     C13063   6.420   3.439   3.020  0.2113  0.0168  0.0238
  820MOL0     C13064   6.344   3.566   2.979 -0.4116 -0.8436  0.6114
  820MOL0     C13065   6.216   3.585   3.060 -0.7239  0.3622 -0.6347
  820MOL0     C13066   6.121   3.481   3.061 -0.5827 -0.4246  0.0012
  820MOL0    Cl13067   5.975   3.532   3.143  0.5637 -0.3317 -0.2894
  820MOL0     C13068   6.739   3.098   3.714 -0.8362  0.3530 -0.3457
  820MOL0     C13069   6.816   3.001   3.774  0.0607  0.2565 -0.0871
  820MOL0     O13070   7.108   2.952   3.892  0.7877 -0.2897  0.6689
  820MOL0     C13071   7.126   2.605   3.798  0.3732  0.4141  0.2516
  820MOL0     C13072   7.199   2.486   3.807 -0.7726  0.7807 -0.0557
  820MOL0     N13073   7.601   1.791   3.866 -0.6336  0.1879  0.0598
  820MOL0     N13074   7.600   1.716   3.756  0.3591  0.9410 -0.1859
  820MOL0     C13075   7.300   1.120   4.324 -0.2388  0.4100  1.3163
  820MOL0     C13076   7.373   1.159   4.431 -0.1413 -0.2140 -1.0407
  820MOL0     C13077   7.673   1.348   4.685 -0.8420  0.4839  0.5252
  820MOL0     C13078   7.620   1.432   4.784 -0.1213  0.2436 -0.0835
  820MOL0     C13079   7.704   1.481   4.888  0.6523  0.0966  0.1944
  820MOL0     C13080   7.832   1.433   4.908 -0.2109  0.0565 -0.1585
  820MOL0     O13081   7.906   1.473   5.015  0.2891 -0.3844  0.7058
  820MOL0     C13082   7.893   1.392   5.122 -0.2326 -0.5043 -1.5798
  820MOL0     C13083   8.008   1.294   5.155 -0.4285 -0.1060 -0.4947
  820MOL0     C13084   8.129   1.378   5.193  0.2113  1.1569  0.3086
  820MOL0     C13085   8.119   1.469   5.315 -0.0788 -0.4020 -0.2143
  820MOL0     C13086   8.048   1.414   5.432  0.0565  0.8414  0.0861
  820MOL0     C13087   7.987   1.366   5.523  0.7041 -0.3787 -0.0711
  820MOL0     C13088   7.881   1.346   4.811 -0.0918  0.1265 -0.8351
  820MOL0     C13089   7.808   1.305   4.697 -0.0870  0.8847 -0.6231
  820MOL0     C13090   7.879   1.216   4.598  0.4569 -0.8795 -0.0201
  820MOL0     H13091   7.253   1.471   4.499 -0.4922 -0.8038  1.3409
  820MOL0     H13092   7.116   1.407   4.298 -1.1637 -0.4331  2.1076
  820MOL0     H13093   7.215   1.379   4.074 -0.2551 -1.2048 -0.3523
  820MOL0     H13094   7.040   1.329   4.102 -1.9891 -0.8911 -4.0650
  820MOL0     H13095   7.230   1.218   3.889  1.3552  2.4872  1.5179
  820MOL0     H13096   7.057   1.181   3.913  1.1532 -2.1028  2.3010
  820MOL0     H13097   7.002   1.432   3.853 -2.5554 -1.8032 -3.1745
  820MOL0     H13098   7.163   1.466   3.854  0.0315 -0.5605  0.7334
  820MOL0     H13099   7.113   1.239   3.658 -0.7690 -0.5086  0.8820
  820MOL0     H13100   6.995   1.361   3.635 -0.0203  2.0165  0.4488
  820MOL0     H13101   7.159   1.553   3.631  0.6952 -0.0021  2.0773
  820MOL0     H13102   7.200   1.445   3.504 -0.3667  2.5757  0.6195
  820MOL0     H13103   7.359   1.442   3.768  0.9400 -3.2271  0.6524
  820MOL0     H13104   7.346   1.316   3.648  1.8175  0.5885 -1.0866
  820MOL0     H13105   7.464   1.456   3.477  5.3859 -1.0531  0.9130
  820MOL0     H13106   7.537   1.472   3.628  0.8279  3.0633 -0.3879
  820MOL0     H13107   7.490   1.703   3.510  0.9559 -1.2766  0.8742
  820MOL0     H13108   7.326   1.687   3.554  0.2694  1.0443 -3.0102
  820MOL0     H13109   7.282   1.781   3.793  0.0397  0.7242 -1.0323
  820MOL0     H13110   7.495   1.888   4.109 -2.0993 -2.4018  1.1269
  820MOL0     H13111   7.327   1.899   4.037  0.1144 -0.9117  2.0526
  820MOL0     H13112   7.547   2.093   4.041 -2.7176  4.7726  0.7898
  820MOL0     H13113   7.487   2.056   3.872 -0.0181  0.0749 -0.8673
  820MOL0     H13114   7.257   2.165   3.933 -0.8199 -0.7828 -0.2861
  820MOL0     H13115   7.278   2.128   4.105 -0.7243  3.3266  0.9705
  820MOL0     H13116   7.292   2.337   4.106 -0.8413 -1.8081  0.8642
  820MOL0     H13117   7.463   2.303   4.100 -1.0372  0.0794  2.2792
  820MOL0     H13118   7.430   2.598   4.036  0.1343  3.2433 -0.6642
  820MOL0     H13119   7.258   2.907   4.066  0.8370  2.4499 -1.0654
  820MOL0     H13120   7.389   2.907   3.943 -0.2947  2.0355  1.1750
  820MOL0     H13121   7.422   2.834   4.089  0.0532  0.7066  0.2685
  820MOL0     H13122   7.003   2.916   3.505  0.5124 -0.4428  0.5998
  820MOL0     H13123   6.857   3.080   3.403 -2.7521 -1.4093 -1.3462
  820MOL0     H13124   6.751   3.263   3.335  1.0420 -1.1873  0.6911
  820MOL0     H13125   6.614   3.150   3.354 -0.4178  0.8889 -0.4473
  820MOL0     H13126   6.465   3.345   3.396 -0.0209 -0.8102  0.3685
  820MOL0     H13127   6.610   3.450   3.366  1.4726 -0.8703 -1.2259
  820MOL0     H13128   6.512   3.254   3.170 -1.3635  0.5357  0.6716
  820MOL0     H13129   6.661   3.346   3.143 -0.7676 -2.9185 -0.3376
  820MOL0     H13130   6.497   3.556   3.186 -0.6773 -0.4401  1.1327
  820MOL0     H13131   6.373   3.431   3.210  0.5672  1.9515  1.7635
  820MOL0     H13132   6.508   3.420   2.958 -0.3208  1.8157 -1.3668
  820MOL0     H13133   6.356   3.351   3.023 -0.4840  0.5353  1.3925
  820MOL0     H13134   6.310   3.551   2.876 -0.2341 -0.3239  0.4736
  820MOL0     H13135   6.412   3.651   2.966  0.9421 -2.0600 -0.6771
  820MOL0     H13136   6.164   3.672   3.019 -0.7967 -0.5138 -2.5017
  820MOL0     H13137   6.233   3.603   3.167  1.2720 -0.1525 -0.8258
  820MOL0     H13138   6.163   3.389   3.103  2.7795  0.4766 -1.0283
  820MOL0     H13139   6.105   3.471   2.953  0.0018  3.5636 -0.5885
  820MOL0     H13140   6.671   3.155   3.777  0.6696  1.0608  0.6834
  820MOL0     H13141   6.814   2.971   3.879  1.9762 -1.4416 -0.4676
  820MOL0     H13142   7.036   2.599   3.738 -0.9905 -0.4080  2.2789
  820MOL0     H13143   7.160   2.405   3.746  0.2811  1.0637 -1.1358
  820MOL0     H13144   7.325   1.026   4.275  0.1634  1.0890  0.1738
  820MOL0     H13145   7.446   1.083   4.453 -3.1594 -4.0621 -3.0309
  820MOL0     H13146   7.516   1.461   4.798  0.1533  0.9378  0.5665
  820MOL0     H13147   7.672   1.565   4.949 -2.2690  0.8802 -2.1365
  820MOL0     H13148   7.876   1.452   5.212  0.4656 -0.8867 -1.1853
  820MOL0     H13149   7.811   1.322   5.112  0.0736 -1.4421  1.3460
  820MOL0     H13150   8.030   1.236   5.065  0.1934  0.4874 -0.7314
  820MOL0     H13151   7.994   1.221   5.235 -3.1004  2.7057  1.8598
  820MOL0     H13152   8.203   1.300   5.212  0.5270  1.6556  1.1989
  820MOL0     H13153   8.163   1.440   5.109  0.5371  0.0559 -0.4013
  820MOL0     H13154   8.078   1.566   5.283  3.8483  1.9922  1.1863
  820MOL0     H13155   8.218   1.483   5.359  0.4232 -0.4635 -1.2961
  820MOL0     H13156   7.911   1.342   5.596 -0.4673 -3.2714 -2.0581
  820MOL0     H13157   7.986   1.318   4.818 -0.2205 -0.0330  1.0830
  820MOL0     H13158   7.898   1.283   4.513  0.9752 -1.0298 -0.0285
  820MOL0     H13159   7.978   1.178   4.625  0.4824 -0.8418 -0.0592
  820MOL0     H13160   7.822   1.126   4.576  0.2969 -1.7875  3.5412
  821MOL0     O13161   3.221   9.692   3.915  1.4713 -0.7137  0.1516
  821MOL0     C13162   3.235   9.573   3.923 -0.2694  0.1463  0.3647
  821MOL0     O13163   3.138   9.484   3.974 -0.3048  0.4462  0.8693
  821MOL0     C13164   3.004   9.520   3.987 -0.2388  0.9027 -0.5138
  821MOL0     C13165   2.941   9.510   4.114 -0.8701 -0.0046 -1.0686
  821MOL0     C13166   2.807   9.522   4.135 -0.4115  0.3049  0.7339
  821MOL0     C13167   2.727   9.540   4.020 -1.1667 -0.9094  0.0338
  821MOL0     O13168   2.595   9.540   4.046  0.4553 -0.3579  0.3329
  821MOL0     C13169   2.499   9.622   3.964 -0.7686 -0.0793 -0.0249
  821MOL0     C13170   2.381   9.535   3.936  0.6866  0.0461  0.2122
  821MOL0     C13171   2.406   9.443   3.822 -0.3481 -0.0765  0.4353
  821MOL0     C13172   2.404   9.510   3.673  0.7171 -0.5990  0.3241
  821MOL0     C13173   2.449   9.414   3.562 -0.2388 -0.7510  0.6122
  821MOL0     C13174   2.323   9.347   3.505 -0.3867 -0.4755  0.1311
  821MOL0     C13175   2.345   9.280   3.368  0.0433  0.8026  0.0571
  821MOL0     C13176   2.390   9.131   3.393  0.2357 -0.2846 -0.0658
  821MOL0     N13177   2.295   9.061   3.477 -0.3826  0.1998 -1.1184
  821MOL0     C13178   2.158   9.062   3.465 -0.2697  0.0212 -0.0973
  821MOL0     C13179   2.108   9.009   3.578  1.5329  0.0876  0.6838
  821MOL0     C13180   1.964   8.971   3.599 -0.0461 -0.3244 -0.1648
  821MOL0     C13181   1.939   8.833   3.537 -0.0236 -0.2629 -0.1821
  821MOL0     C13182   1.815   8.769   3.588 -0.4959 -0.1165 -0.0809
  821MOL0     C13183   1.802   8.624   3.526 -0.4047  0.3963 -0.2273
  821MOL0     O13184   1.781   8.619   3.384  0.4225 -0.0007  0.3980
  821MOL0     C13185   1.665   8.566   3.335  0.3089  0.9710 -0.3079
  821MOL0     C13186   1.547   8.589   3.385 -0.0264 -0.8242 -0.6968
  821MOL0     C13187   1.428   8.537   3.336 -1.3151 -0.0661  0.4266
  821MOL0     C13188   1.298   8.591   3.397  0.0349  0.6591  0.4243
  821MOL0     C13189   1.427   8.482   3.206 -0.5748 -0.0467  0.3795
  821MOL0     C13190   1.307   8.450   3.134 -0.7979  1.1304 -0.4944
  821MOL0     O13191   1.267   8.533   3.035  0.8689  0.3027 -0.1239
  821MOL0     C13192   1.141   8.510   2.991  0.4506 -0.6145  0.9465
  821MOL0     C13193   1.059   8.628   2.963 -0.4691 -1.1829 -0.3629
  821MOL0     C13194   0.938   8.612   2.902 -0.1321  0.0164 -0.1904
  821MOL0     C13195   0.896   8.489   2.854 -0.1571  0.0118  0.3543
  821MOL0     O13196   0.773   8.496   2.799  0.1240 -0.3967 -0.3365
  821MOL0     C13197   0.695   8.375   2.768  0.0127 -0.0822  1.5686
  821MOL0     C13198   0.562   8.397   2.687  0.0818 -0.6672 -0.0481
  821MOL0     C13199   0.602   8.473   2.556 -0.2652 -0.1378  0.2988
  821MOL0     C13200   0.503   8.459   2.437 -0.5574 -0.1394 -0.9745
  821MOL0     C13201   0.544   8.551   2.318  0.4015 -0.1184 -1.1655
  821MOL0     C13202   0.666   8.508   2.235  0.1915 -0.3153 -0.0921
  821MOL0     C13203   0.711   8.619   2.131 -0.3688 -0.2856 -0.6900
  821MOL0     C13204   0.799   8.551   2.019  0.4892  0.9393 -0.3725
  821MOL0    Cl13205   0.888   8.401   2.077  0.0877  0.2285  0.3867
  821MOL0     C13206   0.977   8.378   2.862 -0.7124  0.9097  0.3293
  821MOL0     C13207   1.096   8.386   2.932 -0.1526  1.1719  0.2657
  821MOL0     O13208   1.241   8.358   3.177  0.1015 -0.3966  0.1664
  821MOL0     C13209   1.560   8.458   3.151 -0.4278 -0.2848  0.2652
  821MOL0     C13210   1.669   8.492   3.218 -0.1898 -0.9925 -0.1240
  821MOL0     N13211   2.222   8.978   3.663  0.4351  0.5255  0.0590
  821MOL0     N13212   2.328   9.012   3.600 -0.2201 -0.5735  0.1933
  821MOL0     C13213   2.785   9.574   3.892  0.3386 -0.6884 -0.2296
  821MOL0     C13214   2.918   9.551   3.883 -0.4033 -0.0493 -0.0508
  821MOL0     C13215   3.374   9.523   3.922  0.5003  0.4133 -0.2511
  821MOL0     C13216   3.395   9.397   3.980  0.1968 -0.5734  0.4259
  821MOL0     C13217   3.516   9.335   3.987  0.1447  0.1080 -0.0369
  821MOL0     C13218   3.628   9.387   3.927  0.1190 -0.1580  0.2200
  821MOL0     O13219   3.742   9.310   3.928 -0.0287  0.5803  0.1984
  821MOL0     C13220   3.866   9.363   3.905  0.0208 -0.0551  0.0997
  821MOL0     C13221   3.917   9.435   4.030  0.8036  0.7122  0.3908
  821MOL0     C13222   4.043   9.530   3.988  0.0201  0.7978 -0.0865
  821MOL0     C13223   4.016   9.660   3.913  0.4555  0.8483 -0.1101
  821MOL0     C13224   4.113   9.768   3.936  0.1186  0.5183 -0.4590
  821MOL0     C13225   4.209   9.840   3.962 -0.4501  0.4808  0.7830
  821MOL0     C13226   3.614   9.516   3.886  0.1508 -1.0627 -0.0555
  821MOL0     C13227   3.489   9.592   3.880 -0.1353 -0.1079 -1.0593
  821MOL0     C13228   3.490   9.736   3.822  1.6864  1.1584  0.6339
  821MOL0     H13229   3.013   9.477   4.188 -0.8543 -2.5435 -2.1047
  821MOL0     H13230   2.764   9.515   4.234 -3.2712  0.1608 -0.4359
  821MOL0     H13231   2.552   9.669   3.881  2.0466  1.2291  2.3201
  821MOL0     H13232   2.463   9.703   4.029 -2.6483 -1.7664  1.1850
  821MOL0     H13233   2.353   9.490   4.031 -1.5675 -0.7069 -0.7481
  821MOL0     H13234   2.301   9.605   3.910 -0.4339 -2.2526 -3.2918
  821MOL0     H13235   2.505   9.398   3.830  1.2023  3.2342  1.2750
  821MOL0     H13236   2.332   9.362   3.819 -0.2719 -0.1223 -0.2242
  821MOL0     H13237   2.303   9.547   3.652  1.0331 -0.6648 -1.4709
  821MOL0     H13238   2.474   9.593   3.662  0.8297 -0.8056 -0.5577
  821MOL0     H13239   2.527   9.350   3.604  0.4430  1.5727  3.2305
  821MOL0     H13240   2.502   9.472   3.486 -2.7092  2.4096  1.0740
  821MOL0     H13241   2.284   9.283   3.585  0.6798 -1.1297  0.1616
  821MOL0     H13242   2.253   9.431   3.499  0.2938  0.2643  1.8355
  821MOL0     H13243   2.428   9.329   3.317  0.2156  0.7120  0.2520
  821MOL0     H13244   2.258   9.293   3.302 -1.2008  0.7302  1.6049
  821MOL0     H13245   2.392   9.078   3.298 -0.9857 -0.6433  0.0896
  821MOL0     H13246   2.490   9.124   3.438  1.0905  2.9644 -1.1532
  821MOL0     H13247   2.095   9.082   3.379 -1.9813 -4.1164 -0.0197
  821MOL0     H13248   1.898   9.042   3.548  3.1047  1.4026 -2.1877
  821MOL0     H13249   1.947   8.969   3.707  2.0480 -3.1057  0.2179
  821MOL0     H13250   1.931   8.831   3.428  3.7178 -1.2932 -0.5699
  821MOL0     H13251   2.029   8.779   3.568 -1.0180 -0.8906  1.7879
  821MOL0     H13252   1.817   8.750   3.696 -1.3729 -1.9795 -0.3615
  821MOL0     H13253   1.734   8.841   3.572 -1.7540 -1.0657  1.6521
  821MOL0     H13254   1.888   8.567   3.563 -1.2748 -0.6853  0.1997
  821MOL0     H13255   1.714   8.580   3.573  1.5348 -0.6927  2.6671
  821MOL0     H13256   1.551   8.660   3.467  1.6071 -0.0667 -1.3861
  821MOL0     H13257   1.224   8.512   3.410  1.4923 -0.8364 -0.1378
  821MOL0     H13258   1.246   8.656   3.325  2.8532 -0.2376 -2.6742
  821MOL0     H13259   1.313   8.643   3.492  0.4883 -1.4953  1.5795
  821MOL0     H13260   1.084   8.727   2.999 -5.3682  1.2074 -2.6099
  821MOL0     H13261   0.875   8.698   2.884 -1.1286 -0.3068  1.4812
  821MOL0     H13262   0.759   8.298   2.723 -1.8754 -1.6873  1.5065
  821MOL0     H13263   0.656   8.335   2.862 -1.9780 -0.7938  0.4925
  821MOL0     H13264   0.523   8.296   2.669 -0.9871 -0.2470 -0.1726
  821MOL0     H13265   0.491   8.451   2.750 -0.1744 -0.7793 -0.2411
  821MOL0     H13266   0.699   8.429   2.532  0.6324  2.8388 -2.2019
  821MOL0     H13267   0.618   8.579   2.577 -0.7107  0.1143 -0.5845
  821MOL0     H13268   0.399   8.477   2.463 -0.3246  0.0290 -0.1512
  821MOL0     H13269   0.510   8.359   2.391  3.0456 -1.0194  1.0964
  821MOL0     H13270   0.458   8.550   2.250 -0.7469 -0.2330  0.2401
  821MOL0     H13271   0.553   8.653   2.358  1.7655 -0.4846 -0.4893
  821MOL0     H13272   0.646   8.417   2.179 -1.0074  0.8458 -1.6470
  821MOL0     H13273   0.751   8.484   2.299 -1.4005 -0.3464  2.1322
  821MOL0     H13274   0.781   8.685   2.185  0.4577 -0.8409 -1.0611
  821MOL0     H13275   0.632   8.679   2.086 -1.3171 -1.0432 -0.0718
  821MOL0     H13276   0.876   8.614   1.972  2.6452 -1.2932 -0.0671
  821MOL0     H13277   0.741   8.528   1.929  1.5075  2.5144 -1.4827
  821MOL0     H13278   0.957   8.274   2.837 -0.1523  0.5536  1.3368
  821MOL0     H13279   1.161   8.300   2.942  2.6310  3.3417  3.3406
  821MOL0     H13280   1.584   8.396   3.065  5.0997  1.4204  0.2237
  821MOL0     H13281   1.769   8.461   3.192 -0.0062  0.1268 -0.8049
  821MOL0     H13282   2.721   9.567   3.804 -0.9463 -2.5041  0.7777
  821MOL0     H13283   2.958   9.557   3.782  0.2884  2.7792  0.3039
  821MOL0     H13284   3.316   9.339   4.028 -0.0731 -3.3572 -3.0117
  821MOL0     H13285   3.518   9.231   4.020 -1.5660  0.3614  1.0019
  821MOL0     H13286   3.928   9.277   3.877 -1.2285 -1.0734  0.3599
  821MOL0     H13287   3.865   9.432   3.821  3.8979  1.1713  0.8187
  821MOL0     H13288   3.957   9.356   4.094 -2.0805  0.8117  2.5362
  821MOL0     H13289   3.846   9.488   4.093  1.6026  1.8613  0.3528
  821MOL0     H13290   4.082   9.544   4.089  0.2725 -1.7241  0.2185
  821MOL0     H13291   4.116   9.477   3.925  0.8138  1.2593  0.4240
  821MOL0     H13292   3.915   9.699   3.930  1.1425  2.5589  0.1479
  821MOL0     H13293   4.022   9.648   3.804 -2.4108 -0.1334 -0.2375
  821MOL0     H13294   4.286   9.910   3.987 -0.1126 -0.0476  1.2438
  821MOL0     H13295   3.703   9.565   3.847  0.1682 -2.5974 -2.0917
  821MOL0     H13296   3.412   9.755   3.747 -0.0905  2.2348  2.6469
  821MOL0     H13297   3.479   9.810   3.902  0.1609  1.5352  0.1262
  821MOL0     H13298   3.584   9.753   3.768  0.0758 -1.6100 -3.6143
  822MOL0     O13299   3.210  10.393   5.748 -0.4002 -0.2160  0.6720
  822MOL0     C13300   3.300  10.387   5.662 -0.2859  0.5422 -0.6458
  822MOL0     O13301   3.375  10.487   5.612 -0.4184  0.3527  0.3010
  822MOL0     C13302   3.390  10.600   5.689 -0.0483 -0.3023  0.1821
  822MOL0     C13303   3.376  10.727   5.629 -0.1006 -0.3378  0.6474
  822MOL0     C13304   3.377  10.841   5.699  0.8224  0.0812 -0.0217
  822MOL0     C13305   3.400  10.848   5.834  0.1236  0.2164  0.1654
  822MOL0     O13306   3.401  10.976   5.885 -0.0653 -0.1048 -0.2134
  822MOL0     C13307   3.402  10.999   6.030 -1.0818 -0.9923  0.0710
  822MOL0     C13308   3.282  11.041   6.096  0.6758 -0.5202 -0.2978
  822MOL0     C13309   3.183  10.924   6.069 -0.0444 -0.4837 -0.3127
  822MOL0     C13310   3.058  10.946   6.161  0.1673  0.5184 -0.4176
  822MOL0     C13311   2.985  11.080   6.147 -0.0250  0.3451  0.3090
  822MOL0     C13312   2.920  11.092   6.008  0.7971 -0.4132  0.9845
  822MOL0     C13313   2.814  11.206   6.000  0.1963 -0.0084 -0.3949
  822MOL0     C13314   2.768  11.211   5.853  0.9175 -1.0209  0.4572
  822MOL0     N13315   2.670  11.321   5.838  0.8797  0.2114  0.0652
  822MOL0     C13316   2.550  11.292   5.779 -0.0911 -0.3944  0.1386
  822MOL0     C13317   2.501  11.412   5.739 -1.4555 -0.8140 -0.1072
  822MOL0     C13318   2.377  11.438   5.665  0.9276 -0.2048 -0.5398
  822MOL0     C13319   2.247  11.428   5.755 -0.2832 -0.3602  0.6872
  822MOL0     C13320   2.117  11.434   5.678 -0.6045 -0.1017  0.1358
  822MOL0     C13321   1.988  11.396   5.759  0.3243 -0.4262  0.6791
  822MOL0     O13322   1.973  11.257   5.731 -0.3063 -0.2178 -0.3967
  822MOL0     C13323   1.873  11.184   5.795  0.6476 -0.0622  0.1505
  822MOL0     C13324   1.805  11.220   5.919 -0.1855 -0.5934 -0.5793
  822MOL0     C13325   1.699  11.132   5.963  0.3478  0.3347 -1.5178
  822MOL0     C13326   1.634  11.176   6.104  0.3750 -0.3564  1.1159
  822MOL0     C13327   1.655  11.021   5.896  0.1278 -0.0684  0.2977
  822MOL0     C13328   1.544  10.928   5.919 -0.5004 -1.0300  0.4604
  822MOL0     O13329   1.558  10.794   5.875  0.4033 -0.7410 -0.2641
  822MOL0     C13330   1.477  10.696   5.929  0.6645 -0.0099 -0.0815
  822MOL0     C13331   1.386  10.697   6.038  0.7967  0.1557 -0.3844
  822MOL0     C13332   1.323  10.580   6.086 -0.0698 -0.2512  0.6165
  822MOL0     C13333   1.369  10.456   6.040  0.2770 -0.2177  0.7928
  822MOL0     O13334   1.300  10.350   6.097  0.6474 -0.7171 -0.8224
  822MOL0     C13335   1.348  10.221   6.056 -0.4842  0.4051 -0.1814
  822MOL0     C13336   1.473  10.173   6.124  0.3147 -0.6921  0.2743
  822MOL0     C13337   1.482  10.024   6.106 -0.4842 -0.3879  0.5281
  822MOL0     C13338   1.520   9.989   5.955  0.2300 -0.1302 -1.0233
  822MOL0     C13339   1.549   9.837   5.947 -1.0355 -0.3689  0.1906
  822MOL0     C13340   1.625   9.802   5.819  0.5962  0.9116 -1.0944
  822MOL0     C13341   1.659   9.645   5.814 -0.5126  0.6965 -0.6418
  822MOL0     C13342   1.707   9.599   5.680  0.1137  0.0067  0.4270
  822MOL0    Cl13343   1.695   9.426   5.646 -0.4656 -0.0076  0.1742
  822MOL0     C13344   1.453  10.448   5.933 -0.6246 -0.4546  0.3877
  822MOL0     C13345   1.503  10.566   5.870 -0.1213  1.0478 -0.0058
  822MOL0     O13346   1.449  10.981   5.972 -1.0638  0.6917 -0.3884
  822MOL0     C13347   1.721  10.990   5.762  0.1141 -0.4012  0.6092
  822MOL0     C13348   1.825  11.075   5.714  0.3293  0.1050 -0.3454
  822MOL0     N13349   2.594  11.516   5.782  0.9953  0.7478  0.4057
  822MOL0     N13350   2.692  11.463   5.838 -0.2825 -0.3062 -0.7025
  822MOL0     C13351   3.406  10.721   5.903 -0.4071 -0.1622  0.2874
  822MOL0     C13352   3.391  10.604   5.833  0.9475  0.6961  0.9738
  822MOL0     C13353   3.322  10.263   5.596 -0.6563  0.7924 -0.8120
  822MOL0     C13354   3.454  10.223   5.576 -0.9752 -0.1249  0.6017
  822MOL0     C13355   3.483  10.101   5.514 -0.4278  0.4352 -0.0925
  822MOL0     C13356   3.390  10.028   5.449  0.1624  0.4156  0.8292
  822MOL0     O13357   3.408   9.913   5.380 -0.3630 -0.2052  0.0603
  822MOL0     C13358   3.536   9.845   5.374 -0.4723 -0.2775  0.0929
  822MOL0     C13359   3.653   9.901   5.293 -0.6949 -0.0927  0.8718
  822MOL0     C13360   3.623   9.922   5.140 -0.0241  0.7412 -0.4698
  822MOL0     C13361   3.732   9.932   5.034  0.5636  0.2300 -0.2656
  822MOL0     C13362   3.820  10.044   5.066 -0.1924 -0.1691 -0.9564
  822MOL0     C13363   3.909  10.130   5.075 -0.7394  0.1761  0.4353
  822MOL0     C13364   3.251  10.062   5.478  0.6983 -0.3726  0.1057
  822MOL0     C13365   3.220  10.183   5.542 -1.0404  0.1349  0.8403
  822MOL0     C13366   3.078  10.231   5.553 -0.0654  0.2345 -0.1630
  822MOL0     H13367   3.375  10.734   5.521  0.9546 -0.3859  0.6270
  822MOL0     H13368   3.351  10.934   5.649 -0.7788 -0.3767 -0.1272
  822MOL0     H13369   3.464  11.083   6.060 -0.5518 -2.1396  2.4112
  822MOL0     H13370   3.452  10.915   6.079  0.6873  0.1472  0.2920
  822MOL0     H13371   3.289  11.060   6.204 -1.8864  0.0474 -0.1772
  822MOL0     H13372   3.250  11.140   6.063  2.6849 -0.1878 -1.4075
  822MOL0     H13373   3.146  10.937   5.967  2.6646  0.4608 -1.2794
  822MOL0     H13374   3.218  10.823   6.088  0.6053  0.1607  2.2850
  822MOL0     H13375   2.990  10.862   6.146 -0.3578  1.0280 -0.9312
  822MOL0     H13376   3.102  10.938   6.261  2.0400 -3.1553 -1.3405
  822MOL0     H13377   3.056  11.163   6.160  1.4295 -0.5736 -1.3397
  822MOL0     H13378   2.912  11.093   6.227 -0.6676 -1.1709 -0.0147
  822MOL0     H13379   3.007  11.097   5.942  2.7090 -1.3067  3.2740
  822MOL0     H13380   2.865  11.003   5.977  1.2288 -0.6482  0.8919
  822MOL0     H13381   2.852  11.302   6.037  0.3946 -0.0388 -0.5201
  822MOL0     H13382   2.727  11.177   6.059 -0.3519  0.5728 -0.8949
  822MOL0     H13383   2.850  11.235   5.785 -0.0716  3.0039  0.4367
  822MOL0     H13384   2.728  11.112   5.829 -2.6837  0.6965 -1.4371
  822MOL0     H13385   2.520  11.188   5.774  2.3344 -1.1200 -1.0285
  822MOL0     H13386   2.368  11.373   5.579  0.3415 -1.1368  0.2048
  822MOL0     H13387   2.378  11.542   5.630 -3.7585  1.2527  2.6351
  822MOL0     H13388   2.257  11.329   5.799  0.9000  0.0305  1.3489
  822MOL0     H13389   2.242  11.511   5.826 -0.2499  1.9173 -1.8160
  822MOL0     H13390   2.100  11.535   5.640 -1.6563 -0.0562  0.6899
  822MOL0     H13391   2.117  11.370   5.589  2.1807 -0.4501  0.2989
  822MOL0     H13392   1.994  11.429   5.863 -0.4331  4.3391 -0.5582
  822MOL0     H13393   1.904  11.445   5.709 -0.1177 -2.8177 -1.0692
  822MOL0     H13394   1.833  11.307   5.978  0.7656 -1.6510  0.5947
  822MOL0     H13395   1.531  11.211   6.089  0.3519 -0.5255  0.8733
  822MOL0     H13396   1.693  11.264   6.131 -0.0836  0.2562  0.1788
  822MOL0     H13397   1.639  11.103   6.185  1.4129  0.8781  2.2098
  822MOL0     H13398   1.346  10.782   6.092 -1.7049 -0.3227 -1.3637
  822MOL0     H13399   1.251  10.572   6.166  0.1342 -0.6165  0.7628
  822MOL0     H13400   1.263  10.154   6.076 -0.8929  0.8781 -0.3035
  822MOL0     H13401   1.353  10.214   5.947 -3.0096  0.5241 -0.3649
  822MOL0     H13402   1.562  10.218   6.078 -0.2312  0.1195 -0.0029
  822MOL0     H13403   1.463  10.193   6.230  0.3043  1.7546 -0.1408
  822MOL0     H13404   1.389   9.976   6.138  0.2810 -0.7875  2.2711
  822MOL0     H13405   1.552   9.989   6.182 -1.0898 -2.2058  0.2803
  822MOL0     H13406   1.603  10.050   5.917 -1.9508  2.4287 -1.9296
  822MOL0     H13407   1.436  10.018   5.893  1.5038 -0.6832 -3.0946
  822MOL0     H13408   1.613   9.824   6.035 -0.0217  1.8398 -0.1541
  822MOL0     H13409   1.458   9.777   5.964 -2.3940  1.7597  0.8394
  822MOL0     H13410   1.722   9.849   5.801 -0.5606  2.7748 -2.9305
  822MOL0     H13411   1.557   9.826   5.737 -3.8595 -2.9836  0.9519
  822MOL0     H13412   1.573   9.582   5.840 -1.6351  1.9113 -1.3055
  822MOL0     H13413   1.730   9.618   5.893 -1.0654  1.4287  0.1273
  822MOL0     H13414   1.812   9.628   5.682 -0.4207  2.2281 -0.1343
  822MOL0     H13415   1.671   9.658   5.595 -1.9647  1.7941  2.4202
  822MOL0     H13416   1.493  10.354   5.897  3.3632  2.1711 -2.9428
  822MOL0     H13417   1.568  10.558   5.783 -0.1142 -0.7296  0.1450
  822MOL0     H13418   1.684  10.909   5.700 -0.0208 -0.3741  0.6529
  822MOL0     H13419   1.885  11.047   5.628  1.6828 -1.5195  1.0557
  822MOL0     H13420   3.413  10.723   6.011  1.9683 -1.4657  0.2280
  822MOL0     H13421   3.378  10.510   5.886  0.3004 -0.8702 -1.7573
  822MOL0     H13422   3.534  10.285   5.616 -0.8062 -0.5858  0.9772
  822MOL0     H13423   3.589  10.077   5.509 -0.9874 -2.0572 -1.9112
  822MOL0     H13424   3.569   9.836   5.478 -1.1950 -0.3604  0.3216
  822MOL0     H13425   3.514   9.743   5.343 -1.3622 -0.0854  0.0706
  822MOL0     H13426   3.735   9.829   5.297 -1.6447 -1.1430  1.8684
  822MOL0     H13427   3.695   9.994   5.333 -0.9040  0.7996 -0.8891
  822MOL0     H13428   3.566   9.835   5.106  1.3334 -0.9938  1.4843
  822MOL0     H13429   3.551  10.003   5.126  0.2453  1.1057  0.2026
  822MOL0     H13430   3.673   9.947   4.943 -1.6566 -0.5918  0.9522
  822MOL0     H13431   3.784   9.837   5.020  1.0136  0.4958 -0.4384
  822MOL0     H13432   3.982  10.202   5.104  0.0262  0.0359 -1.0757
  822MOL0     H13433   3.173  10.001   5.433  2.4663 -4.0709  1.6165
  822MOL0     H13434   3.072  10.339   5.537  0.8806  0.5852  1.5675
  822MOL0     H13435   3.020  10.169   5.484  1.7575 -0.4738 -1.1289
  822MOL0     H13436   3.037  10.220   5.654  1.2196  5.4864  1.2545
  823MOL0     O13437  11.472   4.287   9.946 -0.5845  0.4570 -1.5816
  823MOL0     C13438  11.591   4.268   9.978  0.4371 -1.1635 -0.2534
  823MOL0     O13439  11.643   4.149  10.027  0.2281 -0.4272  0.5533
  823MOL0     C13440  11.563   4.058  10.079  0.4804 -0.3494 -0.4198
  823MOL0     C13441  11.490   4.088  10.196  0.1788  0.1942  0.2811
  823MOL0     C13442  11.420   3.983  10.268  0.2084  0.0388  0.3796
  823MOL0     C13443  11.412   3.856  10.210  0.3092 -0.1865 -0.7437
  823MOL0     O13444  11.348   3.763  10.277 -0.5562 -0.1276  0.3209
  823MOL0     C13445  11.412   3.639  10.295  0.1764  0.0782  0.7338
  823MOL0     C13446  11.390   3.602  10.452  0.9905  0.7396 -0.1018
  823MOL0     C13447  11.378   3.461  10.496 -0.7184 -0.1510  0.2573
  823MOL0     C13448  11.344   3.457  10.645 -0.2032 -0.0070 -0.6978
  823MOL0     C13449  11.300   3.323  10.684  0.1455 -0.4749  0.6540
  823MOL0     C13450  11.279   3.318  10.831 -0.1952  0.0627 -1.3656
  823MOL0     C13451  11.402   3.332  10.918  0.1198 -0.5710 -0.0097
  823MOL0     C13452  11.517   3.221  10.895  0.5594  0.0067 -0.8837
  823MOL0     N13453  11.612   3.256  10.798 -0.5134  0.1268 -0.7858
  823MOL0     C13454  11.693   3.364  10.823 -0.2885  0.6538 -0.2642
  823MOL0     C13455  11.767   3.386  10.710  0.0152 -0.6273  0.8468
  823MOL0     C13456  11.886   3.481  10.697  0.3011 -0.3298 -0.0734
  823MOL0     C13457  11.841   3.622  10.642  0.9482 -0.3314 -0.3585
  823MOL0     C13458  11.802   3.625  10.490 -0.1490  0.8657 -0.2728
  823MOL0     C13459  11.788   3.758  10.428 -0.5943  0.4985  0.3930
  823MOL0     O13460  11.702   3.833  10.509 -0.1225  0.2888 -0.4174
  823MOL0     C13461  11.734   3.969  10.519 -0.5065  0.2970 -0.8266
  823MOL0     C13462  11.781   4.051  10.417  1.1194 -0.1146  0.7551
  823MOL0     C13463  11.789   4.191  10.424 -0.5438 -0.1431  1.1957
  823MOL0     C13464  11.820   4.262  10.289 -0.1138  1.4921 -0.0470
  823MOL0     C13465  11.763   4.250  10.546  0.0255 -0.6103 -1.2584
  823MOL0     C13466  11.779   4.391  10.574  0.2234  0.3817  0.2581
  823MOL0     O13467  11.874   4.450  10.494  0.4886 -0.2439  0.2724
  823MOL0     C13468  11.906   4.582  10.504  0.0746  1.1077  0.1616
  823MOL0     C13469  11.903   4.663  10.619 -0.3925  0.3558  0.1804
  823MOL0     C13470  11.931   4.797  10.606 -0.2289  0.5999 -0.1488
  823MOL0     C13471  11.940   4.855  10.476  0.4094 -0.1464 -0.6947
  823MOL0     O13472  11.959   4.991  10.479  1.0952 -0.8058 -0.1013
  823MOL0     C13473  12.063   5.040  10.390 -0.8769 -0.2403 -0.0677
  823MOL0     C13474  12.120   5.155  10.479  0.0383 -0.2872  0.0070
  823MOL0     C13475  12.234   5.245  10.414  0.6423 -0.0962 -0.1493
  823MOL0     C13476  12.179   5.334  10.314 -1.0804 -1.4595  0.3375
  823MOL0     C13477  12.293   5.431  10.265  0.0619  0.1427 -0.6419
  823MOL0     C13478  12.246   5.543  10.168  0.6511 -1.1034 -0.3571
  823MOL0     C13479  12.270   5.678  10.236 -0.1032 -0.1077  0.0754
  823MOL0     C13480  12.247   5.809  10.157 -0.9870  0.0818  0.4243
  823MOL0    Cl13481  12.133   5.900  10.252 -0.9552 -0.0246  0.4263
  823MOL0     C13482  11.929   4.779  10.366  0.1753  0.3262 -0.5314
  823MOL0     C13483  11.921   4.643  10.381 -0.2408  0.1899  0.0678
  823MOL0     O13484  11.701   4.450  10.653 -0.3665  0.3884 -0.3249
  823MOL0     C13485  11.719   4.170  10.657  0.5113  0.3925  0.5268
  823MOL0     C13486  11.704   4.025  10.644  0.4131 -0.1873  0.6853
  823MOL0     N13487  11.716   3.291  10.617 -0.1088 -1.0286  0.0452
  823MOL0     N13488  11.619   3.224  10.668 -0.4569  0.7238 -0.0350
  823MOL0     C13489  11.489   3.831  10.096 -1.0494 -0.6147 -0.7335
  823MOL0     C13490  11.572   3.929  10.031 -0.8915 -0.4755 -0.2878
  823MOL0     C13491  11.688   4.380   9.960 -0.6797 -0.1930  1.0721
  823MOL0     C13492  11.629   4.511   9.978 -0.8039  0.7935  1.0906
  823MOL0     C13493  11.717   4.620   9.975  0.1764 -0.1457 -0.3357
  823MOL0     C13494  11.849   4.617   9.958 -0.4119  0.1579  0.3100
  823MOL0     O13495  11.912   4.741   9.958 -0.2550  0.1496 -0.0139
  823MOL0     C13496  12.042   4.753   9.898  0.7974  0.1756 -0.2878
  823MOL0     C13497  12.065   4.899   9.881 -0.1232 -0.5825 -0.1102
  823MOL0     C13498  12.027   4.961   9.745  0.5008  0.7342  0.4309
  823MOL0     C13499  11.891   4.912   9.689  0.6484  0.4351  0.2550
  823MOL0     C13500  11.845   4.987   9.564  0.1672 -0.1108 -0.0117
  823MOL0     C13501  11.792   5.030   9.464  0.4098  0.4945  0.1752
  823MOL0     C13502  11.912   4.493   9.951  0.5024 -0.2074  0.0387
  823MOL0     C13503  11.828   4.375   9.950 -0.1430  0.5470  0.4055
  823MOL0     C13504  11.914   4.244   9.947 -0.2916  0.6177  0.0286
  823MOL0     H13505  11.508   4.191  10.226  1.6935  0.9759 -2.8207
  823MOL0     H13506  11.362   3.999  10.358 -0.3408 -0.2114  0.0798
  823MOL0     H13507  11.518   3.635  10.268 -0.4849  0.4516 -2.2816
  823MOL0     H13508  11.358   3.565  10.235  0.5629 -1.0756  1.7613
  823MOL0     H13509  11.471   3.647  10.510  1.7141  2.0706 -2.0671
  823MOL0     H13510  11.293   3.648  10.472  0.6937 -0.2966  0.9350
  823MOL0     H13511  11.303   3.412  10.434  1.1036 -0.5835 -1.7079
  823MOL0     H13512  11.475   3.412  10.483  0.6124  2.3441 -0.0209
  823MOL0     H13513  11.429   3.491  10.706 -1.3343  0.3080  0.7540
  823MOL0     H13514  11.258   3.520  10.667  1.9781  2.8503  0.3239
  823MOL0     H13515  11.370   3.245  10.653  0.6995  0.2734 -0.0064
  823MOL0     H13516  11.207   3.306  10.630 -0.7700  0.6876  1.7882
  823MOL0     H13517  11.215   3.401  10.863  0.2711 -1.0591  3.0576
  823MOL0     H13518  11.235   3.224  10.864 -1.9236  1.3041  0.0490
  823MOL0     H13519  11.369   3.327  11.022 -1.7094  0.0321 -0.5242
  823MOL0     H13520  11.443   3.431  10.896 -3.0965  0.2123 -3.6772
  823MOL0     H13521  11.577   3.210  10.985 -1.4658  2.8452  0.9913
  823MOL0     H13522  11.472   3.122  10.880 -0.5806 -0.0259  2.1462
  823MOL0     H13523  11.714   3.414  10.917 -1.5446  1.6072 -0.4785
  823MOL0     H13524  11.961   3.451  10.623  0.4492 -0.2889  0.0584
  823MOL0     H13525  11.928   3.485  10.798  0.1821  0.0847 -0.0360
  823MOL0     H13526  11.754   3.642  10.706  3.1998  0.4774  2.6838
  823MOL0     H13527  11.913   3.703  10.662  0.4721 -0.1694  0.7594
  823MOL0     H13528  11.888   3.577  10.442  0.1494  0.9890  0.1286
  823MOL0     H13529  11.718   3.565  10.455 -0.2107  0.0955  1.1222
  823MOL0     H13530  11.886   3.805  10.412  0.5502 -1.5863  0.9032
  823MOL0     H13531  11.746   3.741  10.329 -1.4787  0.8690  0.6961
  823MOL0     H13532  11.824   4.004  10.329  0.5576 -1.0869  0.9781
  823MOL0     H13533  11.770   4.208  10.208 -1.6655 -1.5429  2.7115
  823MOL0     H13534  11.927   4.280  10.276  0.3825 -1.3718 -0.4538
  823MOL0     H13535  11.768   4.358  10.277 -0.0846  1.3420 -1.5238
  823MOL0     H13536  11.886   4.617  10.716 -0.4972  0.2646  0.1198
  823MOL0     H13537  11.923   4.855  10.697 -1.7814 -0.9722  0.7803
  823MOL0     H13538  12.138   4.962  10.372 -1.3216 -0.4202 -1.2793
  823MOL0     H13539  12.020   5.089  10.302  0.6035  0.9403 -0.1633
  823MOL0     H13540  12.040   5.223  10.510  0.5095  0.3871 -0.2209
  823MOL0     H13541  12.137   5.113  10.579  0.4220 -0.1785 -0.0092
  823MOL0     H13542  12.316   5.186  10.373  1.1497  1.3788 -1.3439
  823MOL0     H13543  12.288   5.301  10.491  2.5269 -1.5993 -0.2906
  823MOL0     H13544  12.096   5.398  10.347 -1.0476 -2.6387  2.9480
  823MOL0     H13545  12.146   5.285  10.223 -2.4097  0.8887 -0.5303
  823MOL0     H13546  12.340   5.475  10.353  1.2172 -2.1211 -0.0357
  823MOL0     H13547  12.363   5.375  10.202  1.1497  0.6285  0.1102
  823MOL0     H13548  12.140   5.536  10.142  0.2824  0.3104  0.6742
  823MOL0     H13549  12.300   5.527  10.074  1.1339 -1.6549  0.0054
  823MOL0     H13550  12.378   5.678  10.253  0.1632  2.3001 -1.1909
  823MOL0     H13551  12.228   5.687  10.336 -0.9394 -1.3061 -0.1454
  823MOL0     H13552  12.221   5.795  10.052  1.9863  2.8106 -0.8312
  823MOL0     H13553  12.340   5.866  10.159 -0.6962 -0.2795 -1.3562
  823MOL0     H13554  11.932   4.822  10.267 -2.3470  3.5837  0.6075
  823MOL0     H13555  11.924   4.564  10.306  2.1310 -0.8794  1.2150
  823MOL0     H13556  11.682   4.220  10.746 -3.0034 -1.0814  0.0639
  823MOL0     H13557  11.667   3.962  10.724 -0.8697 -1.9418 -1.2058
  823MOL0     H13558  11.495   3.730  10.056  1.9788 -1.2173  0.9051
  823MOL0     H13559  11.655   3.913   9.963 -2.0880 -3.5421 -1.2037
  823MOL0     H13560  11.521   4.508   9.983 -0.7763 -0.9880  1.3269
  823MOL0     H13561  11.657   4.706  10.004 -0.8475 -0.8742 -0.2110
  823MOL0     H13562  12.114   4.710   9.969 -0.5979 -0.3430  0.8712
  823MOL0     H13563  12.041   4.694   9.806 -0.9571 -1.0334  0.4722
  823MOL0     H13564  12.172   4.923   9.885 -1.1592  6.2182 -0.8820
  823MOL0     H13565  12.020   4.959   9.961  2.3098  1.6908 -0.3185
  823MOL0     H13566  12.021   5.069   9.761  0.3839  0.8283 -0.2196
  823MOL0     H13567  12.103   4.936   9.671  1.3925  1.3631  1.1245
  823MOL0     H13568  11.822   4.932   9.772 -0.7788 -0.1138 -0.7628
  823MOL0     H13569  11.887   4.805   9.670  2.3665  0.0750  1.6339
  823MOL0     H13570  11.742   5.057   9.373  1.3799  2.4713  0.1820
  823MOL0     H13571  12.019   4.497   9.969  0.3359 -0.8468  1.2853
  823MOL0     H13572  11.964   4.221  10.042 -2.7694  1.4785  1.6348
  823MOL0     H13573  11.858   4.161   9.904 -1.5208  2.6901 -2.6262
  823MOL0     H13574  11.992   4.266   9.874  1.3685 -0.5320  1.3638
  824MOL0     O13575  10.954   0.216   4.251 -0.1090 -0.0229  0.3165
  824MOL0     C13576  10.968   0.157   4.356  0.3235 -0.0214 -0.1245
  824MOL0     O13577  11.027   0.037   4.373 -0.3790 -0.3382  0.4912
  824MOL0     C13578  11.101  -0.026   4.267 -0.0457  0.2699 -0.0271
  824MOL0     C13579  11.073  -0.017   4.126 -0.7144 -0.2619  0.5870
  824MOL0     C13580  11.164  -0.069   4.036  0.1391 -0.0217 -0.6281
  824MOL0     C13581  11.275  -0.146   4.080 -1.0391 -0.7683  0.0281
  824MOL0     O13582  11.372  -0.197   3.996 -0.8855  0.4709 -0.2385
  824MOL0     C13583  11.391  -0.121   3.867 -0.5011 -0.8074 -0.4242
  824MOL0     C13584  11.516  -0.168   3.789 -0.8022  0.3990 -1.1196
  824MOL0     C13585  11.652  -0.153   3.870  0.1914 -0.2179  0.2424
  824MOL0     C13586  11.682  -0.020   3.922 -0.2043 -0.9390  0.3017
  824MOL0     C13587  11.758   0.072   3.809  0.5582 -0.2846 -0.0012
  824MOL0     C13588  11.783   0.221   3.850 -0.3740 -0.9098  0.1935
  824MOL0     C13589  11.833   0.305   3.735 -0.4439 -1.1705 -0.3603
  824MOL0     C13590  11.969   0.249   3.685 -0.7646 -0.5311 -0.7031
  824MOL0     N13591  11.994   0.313   3.561 -0.0303 -0.3045  0.3432
  824MOL0     C13592  12.061   0.433   3.548 -0.4486 -0.4742 -0.1291
  824MOL0     C13593  12.086   0.450   3.420  0.4958  0.0250 -0.0936
  824MOL0     C13594  12.140   0.580   3.351  0.0722 -0.4560  0.2518
  824MOL0     C13595  12.248   0.661   3.431  0.1119 -0.1320 -1.3740
  824MOL0     C13596  12.391   0.615   3.435 -0.1224  0.6003  0.3682
  824MOL0     C13597  12.464   0.632   3.297 -0.2129  0.5512 -0.0628
  824MOL0     O13598  12.563   0.534   3.303 -0.3655 -0.7607 -0.0134
  824MOL0     C13599  12.558   0.407   3.256  0.3159 -0.5485  0.5585
  824MOL0     C13600  12.666   0.324   3.237 -0.1343  1.0698 -0.0006
  824MOL0     C13601  12.663   0.195   3.186  0.0800  0.3789 -1.0245
  824MOL0     C13602  12.797   0.131   3.183 -0.3272  0.2212 -0.2317
  824MOL0     C13603  12.552   0.124   3.154  0.7372 -0.8780 -0.2031
  824MOL0     C13604  12.541  -0.008   3.088 -0.2290  0.8734 -0.1238
  824MOL0     O13605  12.412  -0.052   3.079 -0.1079  0.1777  0.7023
  824MOL0     C13606  12.395  -0.179   3.028 -1.2116 -1.4176  0.0700
  824MOL0     C13607  12.419  -0.216   2.899 -0.1663  1.0087  0.0537
  824MOL0     C13608  12.386  -0.340   2.848 -0.4935  0.7545 -0.9068
  824MOL0     C13609  12.347  -0.442   2.944  1.0295  0.1111  0.5804
  824MOL0     O13610  12.352  -0.577   2.914  1.0007 -0.0296 -0.1607
  824MOL0     C13611  12.238  -0.636   2.856 -0.2769 -0.0650  0.6661
  824MOL0     C13612  12.138  -0.689   2.958 -0.0600  0.1374  0.9861
  824MOL0     C13613  12.007  -0.751   2.898  0.3994 -1.1475  0.4365
  824MOL0     C13614  12.025  -0.886   2.825 -0.5285 -0.1367 -0.0676
  824MOL0     C13615  11.885  -0.933   2.795 -0.7669 -0.0164 -0.5200
  824MOL0     C13616  11.809  -0.846   2.696  0.6525  0.4964  0.1162
  824MOL0     C13617  11.664  -0.904   2.678  0.0589  0.0887 -0.0574
  824MOL0     C13618  11.655  -1.045   2.642 -0.2622  0.6409 -0.3361
  824MOL0    Cl13619  11.749  -1.077   2.497 -0.1117  0.0729 -0.5463
  824MOL0     C13620  12.315  -0.406   3.077 -0.3520  0.0532 -0.0751
  824MOL0     C13621  12.334  -0.274   3.113 -0.6836 -0.2074 -0.1712
  824MOL0     O13622  12.636  -0.083   3.067  0.2006  0.2449  0.3959
  824MOL0     C13623  12.432   0.202   3.176 -0.0964 -0.7249  1.1237
  824MOL0     C13624  12.433   0.339   3.222 -0.5454  0.3799 -0.3113
  824MOL0     N13625  12.043   0.336   3.353 -0.0002 -0.3932 -1.0275
  824MOL0     N13626  11.994   0.257   3.440 -0.1284  0.2885  0.0770
  824MOL0     C13627  11.291  -0.156   4.222 -0.7733 -0.5747 -0.6022
  824MOL0     C13628  11.208  -0.102   4.318 -0.5669 -0.0567  0.3904
  824MOL0     C13629  10.898   0.235   4.469  0.2310 -0.6619  0.2729
  824MOL0     C13630  10.821   0.349   4.428 -1.1572  0.2964  0.1948
  824MOL0     C13631  10.768   0.441   4.519 -0.0615  0.2459  0.0152
  824MOL0     C13632  10.774   0.405   4.657  0.5270  0.2372  0.6442
  824MOL0     O13633  10.729   0.510   4.730 -0.2167  0.0262 -0.0846
  824MOL0     C13634  10.716   0.474   4.878  0.6482 -0.5359  0.1625
  824MOL0     C13635  10.579   0.525   4.915  0.1516 -0.7894 -0.3990
  824MOL0     C13636  10.561   0.675   4.916  0.1564 -0.5016  0.1875
  824MOL0     C13637  10.419   0.714   4.967 -0.1964  1.2023  0.1824
  824MOL0     C13638  10.397   0.859   4.972  0.1923  0.1430  0.1048
  824MOL0     C13639  10.386   0.983   4.976  1.0813  0.0159 -0.0851
  824MOL0     C13640  10.842   0.292   4.696  0.5044 -0.5101  0.3206
  824MOL0     C13641  10.908   0.200   4.610  0.1456 -0.8216 -0.0893
  824MOL0     C13642  10.974   0.084   4.680 -0.2794  0.3755 -0.4718
  824MOL0     H13643  10.984   0.031   4.086 -1.5709 -1.4589  1.0075
  824MOL0     H13644  11.139  -0.066   3.930 -0.3693 -0.2764 -0.5183
  824MOL0     H13645  11.384  -0.012   3.877  0.2001 -0.9465  2.2690
  824MOL0     H13646  11.312  -0.148   3.796  1.2163  0.2253 -2.8666
  824MOL0     H13647  11.495  -0.273   3.772  1.2237 -0.1578 -0.5161
  824MOL0     H13648  11.509  -0.115   3.694 -1.4074 -0.8075 -1.7673
  824MOL0     H13649  11.638  -0.219   3.956 -0.4241  0.0325  0.3367
  824MOL0     H13650  11.736  -0.192   3.811  0.3689  1.7234 -0.8607
  824MOL0     H13651  11.599   0.037   3.966  2.2427  5.9406 -2.5484
  824MOL0     H13652  11.763  -0.034   3.994  0.7464  2.4829  0.0890
  824MOL0     H13653  11.704   0.070   3.714  0.7310  1.5199 -0.1722
  824MOL0     H13654  11.854   0.027   3.783  0.5119  0.4835 -1.6243
  824MOL0     H13655  11.698   0.266   3.902 -1.7339 -1.6739 -1.2710
  824MOL0     H13656  11.869   0.236   3.917 -0.0522  1.7203 -0.7004
  824MOL0     H13657  11.861   0.408   3.758  0.3827 -0.9145 -2.3210
  824MOL0     H13658  11.761   0.315   3.653 -0.8513 -3.1034 -0.2997
  824MOL0     H13659  12.051   0.281   3.750  1.8135 -1.0754 -3.4849
  824MOL0     H13660  11.967   0.140   3.676  0.2116 -0.9430  2.5879
  824MOL0     H13661  12.088   0.493   3.634  0.6350 -1.3533  0.1750
  824MOL0     H13662  12.054   0.648   3.348  0.1379 -0.3376  0.8419
  824MOL0     H13663  12.168   0.563   3.247  0.8466 -0.6772  0.4898
  824MOL0     H13664  12.256   0.757   3.379 -0.6308 -1.2231 -3.6551
  824MOL0     H13665  12.219   0.680   3.535  0.4454  0.7326 -1.4262
  824MOL0     H13666  12.452   0.673   3.505  0.0719 -1.6429  2.2064
  824MOL0     H13667  12.389   0.510   3.466 -1.9568  0.0799 -1.2495
  824MOL0     H13668  12.389   0.599   3.225 -0.8292 -0.4400  0.9782
  824MOL0     H13669  12.499   0.732   3.272 -0.1403  0.5286 -0.0513
  824MOL0     H13670  12.759   0.372   3.264 -0.9298  2.8127 -0.2205
  824MOL0     H13671  12.803   0.035   3.235 -0.9912 -0.1023 -0.7361
  824MOL0     H13672  12.871   0.198   3.228  1.1351 -1.3955 -0.1450
  824MOL0     H13673  12.820   0.116   3.077  1.1417 -1.6778  0.2995
  824MOL0     H13674  12.471  -0.145   2.835  4.7770 -0.1750  2.2405
  824MOL0     H13675  12.411  -0.379   2.750 -0.2076 -0.9461 -0.1951
  824MOL0     H13676  12.198  -0.550   2.801  1.7888  0.3474 -0.3068
  824MOL0     H13677  12.269  -0.715   2.787 -0.1349 -0.4073  1.1129
  824MOL0     H13678  12.180  -0.780   3.003  2.5210 -0.8414 -2.9180
  824MOL0     H13679  12.124  -0.611   3.034  0.5626  0.3005  0.9367
  824MOL0     H13680  11.984  -0.673   2.826  1.5535 -2.2663 -1.1992
  824MOL0     H13681  11.925  -0.758   2.971  0.8101 -2.2943  0.8075
  824MOL0     H13682  12.075  -0.955   2.893  0.3700  0.9269  0.3928
  824MOL0     H13683  12.086  -0.882   2.735 -3.2076  0.6806 -1.9628
  824MOL0     H13684  11.883  -1.035   2.755 -1.1828 -0.1841 -0.0804
  824MOL0     H13685  11.825  -0.929   2.887  1.7232  3.4576  1.1702
  824MOL0     H13686  11.867  -0.845   2.603  0.8040  1.0400  0.2127
  824MOL0     H13687  11.801  -0.743   2.731  2.2602  0.9381 -0.6840
  824MOL0     H13688  11.607  -0.847   2.605  2.0785  2.7804  0.3120
  824MOL0     H13689  11.610  -0.900   2.774 -1.9181 -1.4678 -1.0343
  824MOL0     H13690  11.554  -1.077   2.617  0.6162 -1.6214 -1.2311
  824MOL0     H13691  11.696  -1.107   2.723 -2.1728  0.7723  0.7940
  824MOL0     H13692  12.277  -0.483   3.144 -2.5368  0.3923 -0.8529
  824MOL0     H13693  12.314  -0.262   3.218 -2.7371  0.6445 -0.6158
  824MOL0     H13694  12.329   0.172   3.158 -1.0523  2.3843  0.9088
  824MOL0     H13695  12.337   0.385   3.244 -0.7925 -0.2325 -0.0804
  824MOL0     H13696  11.384  -0.193   4.263  1.4921  1.5807 -3.4633
  824MOL0     H13697  11.227  -0.125   4.422 -2.3163  0.2186  0.8088
  824MOL0     H13698  10.811   0.374   4.323  1.0292  1.4115  0.1993
  824MOL0     H13699  10.734   0.539   4.488 -0.0165  1.6013  3.6897
  824MOL0     H13700  10.726   0.368   4.903  0.0659 -0.7012 -0.3112
  824MOL0     H13701  10.795   0.522   4.938 -0.3668 -0.3271  1.3745
  824MOL0     H13702  10.560   0.485   5.015  1.2318 -4.5707 -1.5494
  824MOL0     H13703  10.504   0.475   4.853  0.5758 -0.5116 -1.1568
  824MOL0     H13704  10.638   0.717   4.982  1.6057 -1.2996 -0.9475
  824MOL0     H13705  10.592   0.717   4.820 -1.0257 -0.3666 -0.1457
  824MOL0     H13706  10.387   0.674   5.064  1.8481 -0.1103  0.3584
  824MOL0     H13707  10.340   0.673   4.903 -0.6008 -0.5362  1.7100
  824MOL0     H13708  10.383   1.090   4.979 -1.4787  0.0245 -0.7665
  824MOL0     H13709  10.858   0.268   4.800  2.5355 -0.1559  0.1423
  824MOL0     H13710  11.079   0.113   4.693  0.0132  0.2760 -2.3367
  824MOL0     H13711  10.936   0.065   4.781  1.1977 -0.1853  0.0081
  824MOL0     H13712  10.971  -0.012   4.628 -3.6297  0.6144 -0.9483
  825MOL0     O13713   9.503   1.532   1.430  0.2007 -0.1361 -0.4555
  825MOL0     C13714   9.486   1.651   1.443 -0.0173  0.2001 -0.3916
  825MOL0     O13715   9.492   1.725   1.556  0.5472 -0.3950 -0.1605
  825MOL0     C13716   9.509   1.683   1.682 -0.3515  0.6144  0.4291
  825MOL0     C13717   9.546   1.785   1.768 -0.1455  0.6291 -0.4100
  825MOL0     C13718   9.543   1.745   1.904 -0.4325  0.7059 -0.7136
  825MOL0     C13719   9.489   1.627   1.953 -0.0278  0.6873  0.7939
  825MOL0     O13720   9.475   1.592   2.089  1.3042  0.2370 -0.8894
  825MOL0     C13721   9.599   1.545   2.144  0.7707 -0.7844  0.4933
  825MOL0     C13722   9.585   1.518   2.291 -0.5869 -0.4397  0.6019
  825MOL0     C13723   9.468   1.425   2.333 -0.7798 -0.0038  1.0101
  825MOL0     C13724   9.457   1.393   2.485  0.0562 -0.1088  0.3150
  825MOL0     C13725   9.310   1.361   2.527 -0.1066 -0.7168  0.4774
  825MOL0     C13726   9.255   1.230   2.478 -0.2774 -0.1153  0.8308
  825MOL0     C13727   9.201   1.235   2.337  0.8322 -0.8535  0.3795
  825MOL0     C13728   9.067   1.302   2.309  0.2756 -0.4268 -0.1388
  825MOL0     N13729   9.076   1.451   2.278  0.4776 -0.4830  0.0281
  825MOL0     C13730   9.142   1.519   2.176 -0.8570  0.8531 -0.4993
  825MOL0     C13731   9.127   1.652   2.214  0.6832  0.6254 -0.8990
  825MOL0     C13732   9.166   1.769   2.132 -0.0665 -0.1577  0.2809
  825MOL0     C13733   9.096   1.758   1.989 -0.7483 -0.0567  0.6164
  825MOL0     C13734   9.091   1.899   1.931  0.5818 -0.6609  0.4793
  825MOL0     C13735   9.225   1.960   1.885 -0.7128  0.8067  0.2104
  825MOL0     O13736   9.197   2.087   1.825  0.1233 -0.1024  0.7797
  825MOL0     C13737   9.269   2.146   1.731  0.0825  0.0073  0.2615
  825MOL0     C13738   9.400   2.111   1.691 -0.1790 -0.1108  0.5196
  825MOL0     C13739   9.468   2.161   1.580  0.4377  0.6803 -0.1838
  825MOL0     C13740   9.607   2.101   1.552  0.4257 -0.0812 -0.2533
  825MOL0     C13741   9.393   2.253   1.505 -0.6839 -0.1188 -0.8388
  825MOL0     C13742   9.449   2.306   1.375  0.7540 -0.0574  0.1339
  825MOL0     O13743   9.436   2.441   1.346  0.4421 -0.6906 -0.2445
  825MOL0     C13744   9.476   2.491   1.227 -0.1259  0.5992 -0.1369
  825MOL0     C13745   9.419   2.444   1.110  0.3673  0.7712  0.0693
  825MOL0     C13746   9.447   2.496   0.986 -0.3711 -0.1468 -0.3562
  825MOL0     C13747   9.548   2.594   0.969 -0.4633  0.5585 -0.5381
  825MOL0     O13748   9.574   2.633   0.838  0.2623 -0.6809 -0.3266
  825MOL0     C13749   9.713   2.606   0.801  0.4488  0.1353 -0.2926
  825MOL0     C13750   9.709   2.625   0.645 -0.3855 -0.1378  0.9117
  825MOL0     C13751   9.584   2.569   0.569 -0.8230  0.9124 -0.0800
  825MOL0     C13752   9.596   2.579   0.418  0.0523 -0.7389  0.2320
  825MOL0     C13753   9.503   2.470   0.356  0.2698  0.7244  0.6289
  825MOL0     C13754   9.517   2.460   0.212  0.0973 -0.5179 -0.4427
  825MOL0     C13755   9.409   2.380   0.135  0.8453  0.3473  1.0176
  825MOL0     C13756   9.425   2.409  -0.012 -0.0975  0.4105 -0.1293
  825MOL0    Cl13757   9.570   2.337  -0.062  0.0086 -0.2124  0.0822
  825MOL0     C13758   9.625   2.635   1.082 -1.1810 -0.8316 -1.1869
  825MOL0     C13759   9.582   2.591   1.210  1.0976  0.1265  0.0943
  825MOL0     O13760   9.503   2.225   1.299  0.1537  0.2463  0.1867
  825MOL0     C13761   9.257   2.280   1.532  1.3780  0.0759 -0.7895
  825MOL0     C13762   9.199   2.237   1.651  0.0549  0.2223 -0.1901
  825MOL0     N13763   9.052   1.664   2.331 -0.4797 -0.8015  0.2949
  825MOL0     N13764   9.017   1.544   2.359  0.2880  0.2585 -0.3066
  825MOL0     C13765   9.440   1.532   1.864 -0.5875  0.4577 -0.6949
  825MOL0     C13766   9.457   1.559   1.731 -0.7561 -0.0403  0.4573
  825MOL0     C13767   9.502   1.722   1.317  0.0538  0.0086  0.1906
  825MOL0     C13768   9.442   1.847   1.310 -0.6857 -0.5987 -0.7243
  825MOL0     C13769   9.458   1.930   1.201  0.7559 -0.2529  1.2069
  825MOL0     C13770   9.540   1.896   1.090  0.3949 -0.3735 -0.0650
  825MOL0     O13771   9.571   1.970   0.984  0.2495 -0.1125 -0.5874
  825MOL0     C13772   9.506   2.101   0.976  0.1504 -0.5895  0.0871
  825MOL0     C13773   9.557   2.139   0.844  0.2906 -0.4205 -0.2885
  825MOL0     C13774   9.701   2.196   0.849 -0.0429 -0.0408  0.3919
  825MOL0     C13775   9.788   2.075   0.787 -0.3952 -0.2649 -0.6995
  825MOL0     C13776   9.918   2.130   0.777 -0.6496 -0.1214 -0.4308
  825MOL0     C13777  10.037   2.174   0.768  0.6340 -0.4952 -0.0066
  825MOL0     C13778   9.599   1.765   1.092  0.3194 -0.6364 -0.1326
  825MOL0     C13779   9.577   1.673   1.201  0.3673 -0.5648 -0.3456
  825MOL0     C13780   9.663   1.548   1.191 -0.3897 -0.5728 -0.3125
  825MOL0     H13781   9.583   1.879   1.728  0.4849  1.7489  2.5369
  825MOL0     H13782   9.578   1.804   1.988 -1.4232 -0.3123  0.4760
  825MOL0     H13783   9.670   1.626   2.125 -2.6706  2.4151  0.0982
  825MOL0     H13784   9.627   1.454   2.091  4.2637 -0.0265  0.8176
  825MOL0     H13785   9.673   1.474   2.338 -1.4017  0.6209  3.3786
  825MOL0     H13786   9.568   1.619   2.331 -2.8965  0.8987 -3.1930
  825MOL0     H13787   9.375   1.470   2.297 -0.3420 -2.7308 -4.4739
  825MOL0     H13788   9.467   1.331   2.278 -0.6650  1.7081 -2.1337
  825MOL0     H13789   9.517   1.302   2.496  0.3849  0.0485 -0.1377
  825MOL0     H13790   9.496   1.472   2.550 -1.9050  1.4967 -0.3602
  825MOL0     H13791   9.243   1.446   2.507 -2.1982 -2.4860 -0.5015
  825MOL0     H13792   9.322   1.353   2.636  2.7037 -0.9496  0.2204
  825MOL0     H13793   9.322   1.146   2.496  0.1350  0.0887  0.2746
  825MOL0     H13794   9.164   1.206   2.534 -0.3862 -1.1066  0.2613
  825MOL0     H13795   9.191   1.131   2.305 -0.1309 -0.7312  0.2390
  825MOL0     H13796   9.271   1.286   2.270 -0.6162 -0.1867 -0.6889
  825MOL0     H13797   9.024   1.269   2.214 -0.6239  2.2182 -0.7364
  825MOL0     H13798   8.992   1.299   2.389 -1.4770 -2.7378 -1.7363
  825MOL0     H13799   9.203   1.478   2.096 -0.6558  2.2844 -1.1132
  825MOL0     H13800   9.273   1.776   2.112 -0.2298 -2.0416 -1.6347
  825MOL0     H13801   9.132   1.862   2.179  1.8867  0.6564  0.1815
  825MOL0     H13802   9.147   1.679   1.932 -1.0490 -1.2920  1.9873
  825MOL0     H13803   9.000   1.706   1.996  0.1117 -2.1445 -1.4703
  825MOL0     H13804   9.025   1.879   1.846 -1.2110 -1.6297  2.0271
  825MOL0     H13805   9.022   1.956   1.993  0.8113  0.5196 -0.3137
  825MOL0     H13806   9.285   1.973   1.976  1.4393  0.1818 -1.0393
  825MOL0     H13807   9.276   1.888   1.820 -1.0794  0.9061 -0.1935
  825MOL0     H13808   9.456   2.042   1.753  1.8227  0.9353 -0.0533
  825MOL0     H13809   9.683   2.173   1.518  2.2143 -1.8219 -0.0920
  825MOL0     H13810   9.594   2.026   1.473 -4.2282 -2.4277  2.2873
  825MOL0     H13811   9.639   2.048   1.642 -1.8569  1.3885  1.5593
  825MOL0     H13812   9.356   2.356   1.116  1.7693 -0.4527 -1.8056
  825MOL0     H13813   9.402   2.460   0.894 -0.6812 -0.8502  0.0659
  825MOL0     H13814   9.776   2.673   0.860  1.4544 -1.3695  0.3943
  825MOL0     H13815   9.742   2.501   0.807  0.1514 -0.0834 -2.1754
  825MOL0     H13816   9.722   2.730   0.617  2.1626 -0.2759  1.3319
  825MOL0     H13817   9.807   2.590   0.610 -0.1907  0.3411  0.9630
  825MOL0     H13818   9.493   2.618   0.604 -1.0733  1.6140 -1.6359
  825MOL0     H13819   9.575   2.463   0.595 -0.5290  1.3265  1.8248
  825MOL0     H13820   9.702   2.567   0.393  0.0040  0.1119 -0.4591
  825MOL0     H13821   9.564   2.678   0.384 -1.0884 -0.6750  1.4208
  825MOL0     H13822   9.528   2.371   0.396  0.5356 -0.3950 -2.1319
  825MOL0     H13823   9.398   2.492   0.374  0.2515  2.5580 -1.3610
  825MOL0     H13824   9.619   2.432   0.186  2.3044  4.8904  1.0681
  825MOL0     H13825   9.508   2.564   0.180  1.6800 -0.4553 -0.7703
  825MOL0     H13826   9.315   2.421   0.172  0.7091  0.6812  0.3161
  825MOL0     H13827   9.414   2.271   0.149 -0.7091  0.2057  0.6174
  825MOL0     H13828   9.447   2.516  -0.024 -1.5531  0.6337 -0.9840
  825MOL0     H13829   9.340   2.368  -0.066 -0.0275 -0.6916  0.5736
  825MOL0     H13830   9.707   2.706   1.080  0.1235 -2.2866 -0.5731
  825MOL0     H13831   9.628   2.636   1.297  1.4412 -1.1648  0.5993
  825MOL0     H13832   9.214   2.350   1.461  1.1142 -2.1698 -2.9517
  825MOL0     H13833   9.093   2.257   1.664 -0.7414 -1.9887 -2.5616
  825MOL0     H13834   9.397   1.438   1.896  3.1154 -1.6220 -1.2303
  825MOL0     H13835   9.435   1.480   1.659  3.3846  0.8170 -2.0772
  825MOL0     H13836   9.382   1.888   1.391 -0.8256  0.1684 -1.2039
  825MOL0     H13837   9.393   2.017   1.200 -1.5355 -1.8185 -1.3102
  825MOL0     H13838   9.397   2.097   0.987  0.1105  1.9522  1.5867
  825MOL0     H13839   9.537   2.166   1.059  1.0704 -0.8919 -0.0067
  825MOL0     H13840   9.504   2.228   0.809  4.0683  3.2324  2.2555
  825MOL0     H13841   9.545   2.057   0.772  4.4251  1.5991 -3.7890
  825MOL0     H13842   9.712   2.292   0.798 -1.4058 -0.4680 -0.7605
  825MOL0     H13843   9.735   2.215   0.951  2.3500 -2.1516  0.0912
  825MOL0     H13844   9.756   2.048   0.686  1.8134 -4.9332 -0.4182
  825MOL0     H13845   9.781   1.984   0.848 -1.6672 -0.6804 -1.4280
  825MOL0     H13846  10.135   2.215   0.756  1.1129 -2.0287 -1.8323
  825MOL0     H13847   9.657   1.725   1.010  1.0745 -0.7344  0.4331
  825MOL0     H13848   9.699   1.528   1.090 -0.2486 -1.8649 -0.0185
  825MOL0     H13849   9.752   1.559   1.254 -0.0406  2.5125 -1.1517
  825MOL0     H13850   9.601   1.464   1.225 -1.9099  1.5500  2.6741
  826MOL0     O13851   5.189  10.656  11.010  0.1541  0.5546  0.7415
  826MOL0     C13852   5.087  10.629  10.955 -0.5824  0.8219 -0.9740
  826MOL0     O13853   5.050  10.647  10.822 -0.1549 -0.1278  0.0821
  826MOL0     C13854   5.153  10.663  10.741  0.1603 -0.6304  0.6016
  826MOL0     C13855   5.179  10.796  10.702  0.3927 -0.7128 -0.9720
  826MOL0     C13856   5.263  10.819  10.598  0.1938 -0.0011 -0.0575
  826MOL0     C13857   5.328  10.719  10.530 -0.9753  0.5414  0.4700
  826MOL0     O13858   5.409  10.764  10.432 -0.3118  0.2066  0.1452
  826MOL0     C13859   5.500  10.671  10.364 -0.1872 -0.3288 -1.2676
  826MOL0     C13860   5.636  10.742  10.334 -0.5351 -0.1026  0.7923
  826MOL0     C13861   5.633  10.880  10.250 -0.2552  0.6493 -0.3012
  826MOL0     C13862   5.782  10.914  10.221 -1.0144  0.3496  0.4365
  826MOL0     C13863   5.789  11.047  10.141 -0.2269  0.4087  0.1769
  826MOL0     C13864   5.931  11.077  10.112  0.1630 -0.3012  0.0251
  826MOL0     C13865   5.960  11.224  10.083  0.6393 -0.2704 -0.7259
  826MOL0     C13866   5.960  11.323  10.206  0.6759  0.8437  0.4256
  826MOL0     N13867   6.040  11.260  10.311 -0.1247 -0.5159 -0.8997
  826MOL0     C13868   5.999  11.260  10.444  0.3979 -0.6210 -0.1535
  826MOL0     C13869   6.103  11.236  10.521 -0.2474 -0.6534 -0.4936
  826MOL0     C13870   6.113  11.218  10.674  0.0664 -0.2350  1.1530
  826MOL0     C13871   6.162  11.082  10.721 -0.2618 -0.3320  0.3694
  826MOL0     C13872   6.056  10.993  10.784  0.5059 -0.6113  0.1878
  826MOL0     C13873   6.031  10.873  10.700  0.4849  0.5149  0.2787
  826MOL0     O13874   5.980  10.914  10.571 -0.1310  0.2487 -0.6114
  826MOL0     C13875   6.016  10.837  10.469  0.8204 -0.3808  0.7201
  826MOL0     C13876   5.982  10.700  10.442 -0.1093  0.1573  0.2651
  826MOL0     C13877   6.028  10.627  10.334  0.2049 -0.3408  0.1830
  826MOL0     C13878   5.980  10.493  10.313 -0.0736  0.9846 -0.7610
  826MOL0     C13879   6.124  10.693  10.253 -1.6851  0.7835  0.0867
  826MOL0     C13880   6.194  10.621  10.140  1.0166 -0.6760  1.0483
  826MOL0     O13881   6.234  10.688  10.030 -0.6011  0.0165  0.3990
  826MOL0     C13882   6.350  10.653   9.958  0.0030  0.0898 -0.5663
  826MOL0     C13883   6.460  10.583  10.016 -0.8270 -0.3810 -0.0468
  826MOL0     C13884   6.580  10.567   9.935  0.2482  0.4975  0.4238
  826MOL0     C13885   6.580  10.616   9.798 -0.0493  0.1956  0.8741
  826MOL0     O13886   6.682  10.586   9.715  0.6426 -0.0108  0.7336
  826MOL0     C13887   6.815  10.624   9.754 -1.0273 -0.9261 -1.4088
  826MOL0     C13888   6.889  10.686   9.635 -1.2763 -0.7783  0.1559
  826MOL0     C13889   6.907  10.591   9.518  0.1881  0.3357 -0.6946
  826MOL0     C13890   7.020  10.487   9.559 -0.2054  0.1567 -0.7735
  826MOL0     C13891   7.015  10.352   9.472 -0.1548 -0.5093  0.0650
  826MOL0     C13892   7.140  10.269   9.521  0.1587  0.9938  0.5595
  826MOL0     C13893   7.163  10.150   9.421 -0.4291  0.4532  0.0669
  826MOL0     C13894   7.309  10.144   9.379 -0.3028 -1.1384  0.4049
  826MOL0    Cl13895   7.340   9.993   9.297 -0.2567  0.1427  0.0440
  826MOL0     C13896   6.469  10.681   9.747 -0.0032 -0.2025 -0.1912
  826MOL0     C13897   6.360  10.693   9.828  0.6566  0.0805  0.1788
  826MOL0     O13898   6.200  10.497  10.142 -0.6781 -0.6134 -0.4212
  826MOL0     C13899   6.161  10.825  10.269  0.2303 -1.0053  0.5555
  826MOL0     C13900   6.109  10.891  10.379 -0.2364  0.1548 -1.0256
  826MOL0     N13901   6.213  11.229  10.443  0.0186  0.2359 -0.2348
  826MOL0     N13902   6.180  11.262  10.320 -0.0931  1.4605  0.8736
  826MOL0     C13903   5.298  10.584  10.567  0.4915 -0.2996  0.0106
  826MOL0     C13904   5.204  10.561  10.673 -1.0248  0.2179  0.3287
  826MOL0     C13905   4.983  10.563  11.038 -0.1723  0.0032  0.2565
  826MOL0     C13906   4.900  10.466  10.978  0.2961 -0.1234 -0.2492
  826MOL0     C13907   4.799  10.391  11.045 -0.1620  1.4077  0.2313
  826MOL0     C13908   4.785  10.418  11.180  1.1230 -0.3198  0.1601
  826MOL0     O13909   4.682  10.364  11.254 -0.4975  0.6733  0.5409
  826MOL0     C13910   4.549  10.407  11.219  0.1165 -0.4356 -1.2825
  826MOL0     C13911   4.494  10.497  11.338 -0.1975 -0.5915  1.1655
  826MOL0     C13912   4.501  10.425  11.477 -0.1798  0.2038 -0.3017
  826MOL0     C13913   4.374  10.435  11.553  0.5791  0.5302  0.0151
  826MOL0     C13914   4.352  10.570  11.602  0.4209  0.7380 -0.1529
  826MOL0     C13915   4.332  10.677  11.650 -0.1254 -1.2612  0.5444
  826MOL0     C13916   4.864  10.509  11.245 -0.0502 -1.0934 -0.4826
  826MOL0     C13917   4.975  10.573  11.179  0.3469  0.5132  0.6625
  826MOL0     C13918   5.072  10.627  11.272 -0.5826 -0.2010  0.6266
  826MOL0     H13919   5.130  10.869  10.765 -0.5363 -1.2230 -1.0772
  826MOL0     H13920   5.274  10.918  10.553  2.7284 -1.3384 -2.7092
  826MOL0     H13921   5.454  10.633  10.272 -0.4430  0.3370 -1.4230
  826MOL0     H13922   5.527  10.592  10.435 -3.8701 -1.3314 -0.7373
  826MOL0     H13923   5.685  10.757  10.430  0.1896 -0.4735  0.4905
  826MOL0     H13924   5.703  10.674  10.280 -0.8322  0.8177 -0.8093
  826MOL0     H13925   5.574  10.868  10.159 -0.2509  1.8569 -0.4761
  826MOL0     H13926   5.571  10.948  10.309 -0.2160  0.1796  0.2963
  826MOL0     H13927   5.826  10.932  10.320 -3.2964 -1.3634  1.8581
  826MOL0     H13928   5.833  10.830  10.173  1.4557  3.1680 -2.2839
  826MOL0     H13929   5.747  11.131  10.196 -1.0071 -0.1030  0.3935
  826MOL0     H13930   5.743  11.031  10.043 -0.4963 -4.8043  0.8334
  826MOL0     H13931   5.983  11.050  10.204 -0.8091  0.4744  0.8410
  826MOL0     H13932   5.963  11.020  10.025 -2.0192  1.2459 -1.9452
  826MOL0     H13933   5.876  11.261  10.022 -2.0536 -4.0701  0.3280
  826MOL0     H13934   6.057  11.233  10.032  0.9880 -2.1877 -0.4520
  826MOL0     H13935   6.004  11.420  10.180  3.6305 -0.5085 -0.0002
  826MOL0     H13936   5.854  11.336  10.231  0.7532  0.9306  0.7214
  826MOL0     H13937   5.896  11.256  10.476  0.1479 -2.6623 -1.0164
  826MOL0     H13938   6.015  11.233  10.720  1.1223 -0.8093  3.7719
  826MOL0     H13939   6.174  11.302  10.709 -1.5041  1.3243  0.3151
  826MOL0     H13940   6.222  11.025  10.650  1.7933  1.0560  0.8980
  826MOL0     H13941   6.237  11.112  10.795  1.7462  3.3424 -2.7619
  826MOL0     H13942   6.086  10.955  10.883 -2.3615 -2.8625  0.3140
  826MOL0     H13943   5.963  11.046  10.804 -0.1009 -1.3482 -0.6209
  826MOL0     H13944   6.118  10.808  10.689 -1.0548 -1.4387 -1.3388
  826MOL0     H13945   5.961  10.803  10.747  0.8068  0.5659  0.8474
  826MOL0     H13946   5.909  10.660  10.511  0.6991  1.9953  2.3002
  826MOL0     H13947   5.896  10.468  10.378 -0.8820  2.0586 -1.3774
  826MOL0     H13948   6.070  10.439  10.346  0.1045  1.0420 -1.1515
  826MOL0     H13949   5.952  10.462  10.212  0.3925  0.4652 -0.7409
  826MOL0     H13950   6.451  10.551  10.119  2.0627 -1.5153 -0.0777
  826MOL0     H13951   6.668  10.519   9.977 -0.8906 -1.8914  0.2341
  826MOL0     H13952   6.814  10.706   9.827 -1.4755 -0.6025 -1.7770
  826MOL0     H13953   6.861  10.533   9.793  0.9952  0.3932 -0.5026
  826MOL0     H13954   6.832  10.775   9.604  2.0059  0.8031 -1.9091
  826MOL0     H13955   6.986  10.724   9.669 -2.4028  0.5580  2.1310
  826MOL0     H13956   6.934  10.645   9.427 -1.6634  3.1383  0.2972
  826MOL0     H13957   6.820  10.528   9.500  0.5898 -0.0785 -1.2480
  826MOL0     H13958   7.002  10.449   9.660  1.7013  1.8525  0.2883
  826MOL0     H13959   7.111  10.548   9.552 -0.8952  1.4793  1.0099
  826MOL0     H13960   6.924  10.298   9.498  0.3156 -1.4227 -0.1440
  826MOL0     H13961   7.025  10.377   9.365 -2.8876  0.5344 -0.0375
  826MOL0     H13962   7.110  10.230   9.619  0.2003 -0.3015  0.0746
  826MOL0     H13963   7.225  10.337   9.510  0.0039  1.3582  1.4876
  826MOL0     H13964   7.090  10.145   9.340  1.6307 -1.2993 -1.7756
  826MOL0     H13965   7.160  10.054   9.473  0.9395 -0.2654 -1.1471
  826MOL0     H13966   7.379  10.164   9.460 -2.2040  1.0657  1.6220
  826MOL0     H13967   7.313  10.230   9.313 -3.1076 -0.6591  0.7172
  826MOL0     H13968   6.467  10.717   9.645 -0.4730  1.1035  0.2599
  826MOL0     H13969   6.270  10.740   9.789  1.6384  1.0845 -0.9619
  826MOL0     H13970   6.235  10.879  10.211 -2.1906  2.9386  0.7201
  826MOL0     H13971   6.153  10.987  10.405  2.6797 -1.7782  1.8829
  826MOL0     H13972   5.323  10.499  10.504  0.3236  0.6721 -1.3897
  826MOL0     H13973   5.165  10.460  10.682  0.6641 -0.4042  1.1690
  826MOL0     H13974   4.899  10.456  10.870 -0.8746  0.9140 -0.3590
  826MOL0     H13975   4.723  10.332  10.995  0.1316 -0.4874  1.8767
  826MOL0     H13976   4.541  10.454  11.121 -3.6752  0.7571 -0.5633
  826MOL0     H13977   4.489  10.316  11.231 -1.9692  0.8546 -1.4693
  826MOL0     H13978   4.393  10.536  11.320  0.1807 -0.7043 -1.5050
  826MOL0     H13979   4.562  10.582  11.345 -5.1726  3.8395  2.6402
  826MOL0     H13980   4.524  10.319  11.463  0.5282 -0.0496  2.3507
  826MOL0     H13981   4.584  10.465  11.535 -0.3163 -1.6661  1.2747
  826MOL0     H13982   4.385  10.374  11.643  1.1925  1.3920  0.5416
  826MOL0     H13983   4.289  10.405  11.492  0.3765 -1.1308  1.0479
  826MOL0     H13984   4.318  10.768  11.705  1.0576  0.3710 -1.7272
  826MOL0     H13985   4.840  10.552  11.341 -2.4530 -1.6252 -0.7774
  826MOL0     H13986   5.152  10.553  11.269 -1.7468 -1.4844  0.3581
  826MOL0     H13987   5.112  10.726  11.246  0.9108  0.0869  3.5600
  826MOL0     H13988   5.028  10.626  11.372 -2.2489  0.5125 -0.0587
  827MOL0     O13989   3.584   7.423   8.330 -0.6035  0.7356 -0.4355
  827MOL0     C13990   3.672   7.457   8.251 -1.0319  0.0680  0.0310
  827MOL0     O13991   3.728   7.578   8.241  0.0507 -0.0630 -0.5462
  827MOL0     C13992   3.650   7.683   8.285  0.0972  0.3340 -0.6862
  827MOL0     C13993   3.672   7.745   8.414 -0.1789 -0.3705  1.0367
  827MOL0     C13994   3.595   7.854   8.462 -0.8324 -0.1486 -0.7179
  827MOL0     C13995   3.514   7.927   8.378 -0.8158 -0.1810 -0.7252
  827MOL0     O13996   3.452   8.045   8.423  0.9358  0.2744 -0.1761
  827MOL0     C13997   3.369   8.016   8.539 -0.1136 -0.2190 -0.7051
  827MOL0     C13998   3.320   8.140   8.616 -0.6538  0.1324  0.2546
  827MOL0     C13999   3.237   8.239   8.525 -0.6192  0.0286 -0.1291
  827MOL0     C14000   3.332   8.314   8.418  0.3435  1.2026 -0.4720
  827MOL0     C14001   3.284   8.456   8.386 -1.1515 -0.8627  0.3447
  827MOL0     C14002   3.148   8.445   8.312  0.3025  0.0226  0.3614
  827MOL0     C14003   3.110   8.569   8.229 -0.3140 -0.2289 -0.2371
  827MOL0     C14004   3.186   8.569   8.096 -0.0586  0.3523  0.4009
  827MOL0     N14005   3.139   8.681   8.015  0.1291  0.4052  0.0794
  827MOL0     C14006   3.023   8.672   7.943  0.3732 -0.1719  0.3135
  827MOL0     C14007   3.029   8.775   7.852 -0.0625  0.0023 -0.2965
  827MOL0     C14008   2.919   8.824   7.771  0.1503 -0.6623  0.3066
  827MOL0     C14009   2.873   8.723   7.669 -0.3402 -0.0528  0.6621
  827MOL0     C14010   2.770   8.775   7.577  0.8910 -0.6869  0.8041
  827MOL0     C14011   2.682   8.662   7.523  1.2145 -0.3920 -0.3291
  827MOL0     O14012   2.762   8.546   7.487 -0.1081 -0.4291 -0.3094
  827MOL0     C14013   2.699   8.443   7.420  0.5552  0.3618 -0.0414
  827MOL0     C14014   2.561   8.422   7.413  0.3026 -0.8472  0.4572
  827MOL0     C14015   2.500   8.305   7.362 -0.7529  0.3142  0.4372
  827MOL0     C14016   2.351   8.297   7.389  0.2282 -0.6757  0.4228
  827MOL0     C14017   2.580   8.206   7.323 -0.4282 -0.2021  1.1529
  827MOL0     C14018   2.533   8.074   7.289 -0.6222  0.2529  0.2535
  827MOL0     O14019   2.599   7.965   7.339 -0.4585 -1.6708 -0.6664
  827MOL0     C14020   2.587   7.842   7.282 -0.3674 -0.9802 -0.0460
  827MOL0     C14021   2.477   7.754   7.311  0.0928  0.8697 -0.3602
  827MOL0     C14022   2.469   7.629   7.256 -0.0016  0.7486  0.3018
  827MOL0     C14023   2.559   7.589   7.155 -0.2624  0.6599 -0.4519
  827MOL0     O14024   2.532   7.468   7.109 -0.0465  0.1649 -0.6522
  827MOL0     C14025   2.524   7.356   7.203 -0.5025 -0.2094 -0.8914
  827MOL0     C14026   2.387   7.307   7.215 -0.1927  0.3001 -0.9189
  827MOL0     C14027   2.387   7.186   7.317 -0.6597 -0.2501  0.6084
  827MOL0     C14028   2.257   7.165   7.388 -0.0572  0.7802 -0.5398
  827MOL0     C14029   2.279   7.053   7.489 -0.5896  0.0817  0.1728
  827MOL0     C14030   2.155   7.022   7.580 -0.1058  0.0844  0.1501
  827MOL0     C14031   2.195   6.915   7.688 -0.5710 -0.3640  0.3571
  827MOL0     C14032   2.075   6.852   7.764  0.5630  0.8279 -0.5824
  827MOL0    Cl14033   2.112   6.685   7.829  0.1277  0.2412 -0.3192
  827MOL0     C14034   2.664   7.675   7.117 -0.3064  0.4191 -0.0393
  827MOL0     C14035   2.677   7.800   7.183  0.4235 -0.3160 -0.8219
  827MOL0     O14036   2.440   8.067   7.210 -0.3476 -0.3735  1.0420
  827MOL0     C14037   2.723   8.221   7.329  0.5934  0.5561  0.5092
  827MOL0     C14038   2.783   8.339   7.376 -0.3873 -0.3459  0.8993
  827MOL0     N14039   3.150   8.843   7.880 -0.5459  0.8607 -0.0799
  827MOL0     N14040   3.211   8.792   7.986 -0.3543 -0.8319  0.0947
  827MOL0     C14041   3.486   7.867   8.256  0.4931  0.7577 -0.3471
  827MOL0     C14042   3.557   7.754   8.206 -0.2279 -0.7609  0.3379
  827MOL0     C14043   3.714   7.372   8.142 -0.6208  0.1102 -0.9052
  827MOL0     C14044   3.717   7.426   8.020 -0.0733  0.6951  0.7687
  827MOL0     C14045   3.784   7.357   7.915  0.2783  0.2113  0.1822
  827MOL0     C14046   3.857   7.243   7.934  0.0753 -0.4191 -0.8613
  827MOL0     O14047   3.934   7.211   7.829  0.5082  0.5548  0.2943
  827MOL0     C14048   4.004   7.086   7.845 -0.4267  0.2939 -0.0219
  827MOL0     C14049   3.901   6.963   7.825  0.9471  0.0377 -0.3458
  827MOL0     C14050   3.891   6.913   7.682  0.3858  0.4838  0.1209
  827MOL0     C14051   3.837   7.015   7.592  0.0450 -0.4912  0.6976
  827MOL0     C14052   3.896   6.984   7.460 -0.7119  0.6533  0.0240
  827MOL0     C14053   3.940   6.952   7.353  0.3751  0.5416 -0.0448
  827MOL0     C14054   3.827   7.167   8.050  0.6653 -0.1981  0.9159
  827MOL0     C14055   3.758   7.233   8.154 -0.2468  1.3250 -0.5517
  827MOL0     C14056   3.746   7.154   8.287 -0.2659  0.9236  0.2322
  827MOL0     H14057   3.736   7.686   8.481  0.1021 -0.3350  0.8023
  827MOL0     H14058   3.624   7.888   8.561 -0.0207  1.4711 -1.4650
  827MOL0     H14059   3.427   7.965   8.616 -0.4272 -0.2163 -0.4628
  827MOL0     H14060   3.277   7.962   8.513  0.0879 -1.5551  1.1904
  827MOL0     H14061   3.266   8.117   8.709 -1.9525  3.0346  0.3149
  827MOL0     H14062   3.407   8.199   8.648  2.5425 -2.9836 -1.9444
  827MOL0     H14063   3.150   8.196   8.475  2.1113 -2.6243 -3.0397
  827MOL0     H14064   3.195   8.317   8.590 -0.5414  0.5137 -0.6571
  827MOL0     H14065   3.432   8.320   8.462  1.1658 -2.0049 -1.6312
  827MOL0     H14066   3.333   8.258   8.324 -0.1319 -3.6145  2.0946
  827MOL0     H14067   3.362   8.491   8.319 -0.0666 -2.0019  0.9707
  827MOL0     H14068   3.277   8.521   8.474  2.9631  0.9000 -0.4016
  827MOL0     H14069   3.135   8.360   8.245 -2.4089  1.0598 -0.5707
  827MOL0     H14070   3.084   8.429   8.400  0.4728  2.5272  1.0000
  827MOL0     H14071   3.133   8.657   8.289 -0.7228 -0.9836  1.0869
  827MOL0     H14072   3.002   8.579   8.216 -0.5946 -1.4685  0.8569
  827MOL0     H14073   3.295   8.562   8.100  0.1150 -1.5745 -3.1027
  827MOL0     H14074   3.161   8.471   8.052 -0.9055  1.0257 -0.6864
  827MOL0     H14075   2.931   8.617   7.960 -0.0247  0.9608  2.0397
  827MOL0     H14076   2.943   8.926   7.738  3.7382  1.3538  7.1975
  827MOL0     H14077   2.831   8.845   7.834  0.5882  0.9335  0.4381
  827MOL0     H14078   2.962   8.681   7.621 -1.0279 -0.3104 -0.4134
  827MOL0     H14079   2.835   8.631   7.713  2.7854 -1.0499  1.5448
  827MOL0     H14080   2.712   8.852   7.627  0.5276 -0.7284  0.4522
  827MOL0     H14081   2.813   8.831   7.493 -1.6213  1.7436  0.9873
  827MOL0     H14082   2.612   8.631   7.601 -0.1926 -1.7147 -2.0242
  827MOL0     H14083   2.636   8.705   7.434  2.1023 -2.7842 -2.0696
  827MOL0     H14084   2.505   8.498   7.467  3.7440  3.2809 -1.2529
  827MOL0     H14085   2.295   8.204   7.403 -0.9545  0.2894  2.3753
  827MOL0     H14086   2.303   8.334   7.298 -0.6533 -0.7662  0.8459
  827MOL0     H14087   2.327   8.356   7.477  1.6485  1.3276 -0.4606
  827MOL0     H14088   2.403   7.777   7.386  1.0196 -1.3206  1.3406
  827MOL0     H14089   2.384   7.568   7.284 -0.0892  1.1037  0.8383
  827MOL0     H14090   2.595   7.280   7.170 -0.3053 -0.0645 -0.8009
  827MOL0     H14091   2.540   7.390   7.306 -4.2440 -2.2601  0.5638
  827MOL0     H14092   2.309   7.375   7.252 -2.8799 -2.9487 -0.1086
  827MOL0     H14093   2.360   7.272   7.114 -1.3704 -0.2958 -0.4219
  827MOL0     H14094   2.458   7.214   7.395 -0.8307  0.6531  0.4506
  827MOL0     H14095   2.413   7.096   7.261 -2.4504 -1.1568  1.1597
  827MOL0     H14096   2.179   7.151   7.313 -0.5550 -2.3424  0.4253
  827MOL0     H14097   2.240   7.253   7.451 -0.7117 -1.4267  2.5849
  827MOL0     H14098   2.312   6.962   7.439 -3.9791 -0.9187 -0.5526
  827MOL0     H14099   2.359   7.079   7.559  0.5681 -0.7034 -0.8402
  827MOL0     H14100   2.073   6.988   7.516  0.0862 -0.8579  0.3772
  827MOL0     H14101   2.119   7.114   7.626  2.0647  0.0994  2.0232
  827MOL0     H14102   2.264   6.959   7.760 -1.2852 -0.1082  0.8987
  827MOL0     H14103   2.237   6.828   7.638 -0.6212 -1.7098  2.5405
  827MOL0     H14104   1.983   6.833   7.708  0.6599 -0.1206 -0.4410
  827MOL0     H14105   2.045   6.905   7.855 -1.5843  0.8366 -1.2476
  827MOL0     H14106   2.738   7.656   7.040  1.1743 -2.2539  1.8696
  827MOL0     H14107   2.770   7.852   7.161  1.7796 -1.9065  0.8474
  827MOL0     H14108   2.782   8.134   7.302  1.4241  1.2288  0.0998
  827MOL0     H14109   2.891   8.352   7.385 -0.3319 -0.8464  1.0393
  827MOL0     H14110   3.405   7.907   8.196  2.2127  2.8169 -1.4317
  827MOL0     H14111   3.541   7.707   8.110  2.9561 -2.4041  0.4943
  827MOL0     H14112   3.675   7.523   7.996  0.6164  0.2391 -2.8591
  827MOL0     H14113   3.800   7.395   7.815  0.7121 -4.0492 -1.5692
  827MOL0     H14114   4.084   7.074   7.771 -0.0468 -1.6663  0.6393
  827MOL0     H14115   4.058   7.072   7.939 -0.9010 -1.4887  0.0251
  827MOL0     H14116   3.795   6.990   7.837  1.2124  1.5785 -1.2907
  827MOL0     H14117   3.920   6.879   7.892 -2.1855 -0.3917  0.1589
  827MOL0     H14118   3.993   6.876   7.665  0.9123  0.4570  2.9108
  827MOL0     H14119   3.821   6.829   7.680 -1.5430  1.9345  1.9953
  827MOL0     H14120   3.872   7.115   7.621 -2.2032  0.7685 -0.6908
  827MOL0     H14121   3.728   7.020   7.595  0.0831  0.1017  2.1861
  827MOL0     H14122   3.993   6.920   7.266  0.3089  0.7902 -0.1765
  827MOL0     H14123   3.872   7.070   8.065  3.2688  0.6150 -0.8823
  827MOL0     H14124   3.640   7.130   8.302 -0.7224  1.5627 -1.6681
  827MOL0     H14125   3.798   7.058   8.301 -1.0453  0.6240  1.1739
  827MOL0     H14126   3.781   7.222   8.365  1.4476  3.5785 -2.6341
  828MOL0     O14127   7.225   6.051   9.000 -0.0117 -0.5144 -0.6384
  828MOL0     C14128   7.123   5.996   9.032  0.7318  0.5409 -0.9919
  828MOL0     O14129   7.012   5.989   8.951 -0.3543  0.1292  0.3546
  828MOL0     C14130   7.001   6.037   8.821  0.1719 -0.9684 -0.3256
  828MOL0     C14131   6.880   5.992   8.767  0.0686  0.0815  0.3915
  828MOL0     C14132   6.845   6.030   8.635 -1.1815  1.3089  0.2894
  828MOL0     C14133   6.932   6.113   8.564  1.0338 -0.3225  0.6039
  828MOL0     O14134   6.892   6.170   8.445 -0.2898 -0.5424 -0.0543
  828MOL0     C14135   6.828   6.304   8.454  0.3579 -0.2906  0.2898
  828MOL0     C14136   6.764   6.342   8.326  0.3446 -0.2151  0.2823
  828MOL0     C14137   6.648   6.438   8.331  0.3313 -0.0965 -0.1785
  828MOL0     C14138   6.683   6.579   8.394  0.1789 -0.1530 -0.0127
  828MOL0     C14139   6.553   6.672   8.417  0.4180 -0.2050  0.3348
  828MOL0     C14140   6.586   6.819   8.437  0.0695 -0.3931 -0.1645
  828MOL0     C14141   6.618   6.843   8.593 -0.7269  0.0807  0.3898
  828MOL0     C14142   6.665   6.987   8.616 -0.7052  0.8401  0.3453
  828MOL0     N14143   6.756   6.995   8.738  0.0364 -1.1761 -0.0828
  828MOL0     C14144   6.769   7.110   8.811  0.1211 -0.5540  0.1036
  828MOL0     C14145   6.877   7.071   8.891  0.0739 -0.9264  0.5567
  828MOL0     C14146   6.952   7.143   8.997  0.0884  0.0636 -0.7377
  828MOL0     C14147   6.898   7.132   9.138  1.2055 -0.1621  0.4937
  828MOL0     C14148   6.924   6.998   9.204 -0.8944  0.0183  0.0886
  828MOL0     C14149   6.837   6.966   9.328  0.3856  0.2014  0.5220
  828MOL0     O14150   6.856   7.060   9.429  0.5690  0.5424  0.3414
  828MOL0     C14151   6.977   7.056   9.508 -0.5301 -0.0745 -0.2251
  828MOL0     C14152   7.004   7.160   9.590  0.3094 -0.6614  0.3952
  828MOL0     C14153   7.102   7.150   9.685  0.2537 -0.2532 -0.3970
  828MOL0     C14154   7.119   7.249   9.797  0.4150  0.0852  1.0450
  828MOL0     C14155   7.201   7.047   9.678  0.6089  0.1562  0.1944
  828MOL0     C14156   7.318   7.047   9.771  0.0370 -0.0714  0.7367
  828MOL0     O14157   7.360   6.926   9.805  0.0797  1.3432  0.2132
  828MOL0     C14158   7.465   6.904   9.900 -0.0867 -0.1100  0.1141
  828MOL0     C14159   7.591   6.867   9.850 -0.6309  0.3788 -0.2632
  828MOL0     C14160   7.694   6.829   9.942 -0.3215 -0.0401 -0.4467
  828MOL0     C14161   7.668   6.832  10.082 -0.0700  0.0389 -0.1272
  828MOL0     O14162   7.777   6.796  10.156  1.1460 -0.0530 -0.0386
  828MOL0     C14163   7.856   6.908  10.214 -0.6040 -0.4462 -1.1678
  828MOL0     C14164   7.949   6.975  10.118  0.2318 -0.3424  0.5934
  828MOL0     C14165   8.027   7.097  10.164 -0.1914  0.8672  0.4656
  828MOL0     C14166   8.077   7.166  10.036  0.6914  0.1359  0.2627
  828MOL0     C14167   8.193   7.256  10.065 -0.4245 -0.0962  0.4749
  828MOL0     C14168   8.154   7.378  10.153 -0.8081 -0.6337 -0.3618
  828MOL0     C14169   8.232   7.367  10.288  1.5350  0.1395  0.0270
  828MOL0     C14170   8.240   7.501  10.361  0.1962  1.1513  0.2457
  828MOL0    Cl14171   8.345   7.595  10.265  0.0396  0.3451  0.4323
  828MOL0     C14172   7.551   6.885  10.129 -0.3657 -0.4176  1.0934
  828MOL0     C14173   7.449   6.921  10.030  0.7309 -0.1912 -0.9997
  828MOL0     O14174   7.374   7.147   9.797 -0.5590  0.4682  1.0322
  828MOL0     C14175   7.190   6.952   9.589  0.7926  0.0623 -0.0652
  828MOL0     C14176   7.073   6.949   9.508  0.6103  0.0216  0.0277
  828MOL0     N14177   6.924   6.938   8.867 -0.5674  0.3160  0.3123
  828MOL0     N14178   6.841   6.901   8.773 -1.1297  0.0208 -0.3555
  828MOL0     C14179   7.051   6.159   8.623 -0.2859 -0.1903 -0.0393
  828MOL0     C14180   7.090   6.114   8.750 -0.5738  0.2683 -0.0664
  828MOL0     C14181   7.105   5.920   9.161 -0.5408  1.1561  0.6740
  828MOL0     C14182   7.009   5.946   9.256 -1.1029 -0.7475  0.0328
  828MOL0     C14183   7.001   5.888   9.373  0.0130 -0.2668 -0.2875
  828MOL0     C14184   7.102   5.798   9.407 -0.7053  0.0622 -0.0506
  828MOL0     O14185   7.085   5.739   9.533 -0.5523  0.1283 -0.1778
  828MOL0     C14186   7.165   5.630   9.575  1.2471 -0.3210 -0.1182
  828MOL0     C14187   7.130   5.495   9.501 -0.1182 -0.3709 -0.9017
  828MOL0     C14188   7.019   5.427   9.576 -0.1495  0.0726 -0.4377
  828MOL0     C14189   6.973   5.292   9.524 -0.0772  0.4233  0.0577
  828MOL0     C14190   7.079   5.194   9.539 -0.1910  0.4697  0.3185
  828MOL0     C14191   7.178   5.119   9.536 -0.0101  0.0506 -0.6040
  828MOL0     C14192   7.211   5.778   9.321  0.9413  0.4239  0.0229
  828MOL0     C14193   7.204   5.825   9.192  0.1338 -0.1845 -0.3137
  828MOL0     C14194   7.320   5.797   9.102  0.2923  0.6635 -0.1205
  828MOL0     H14195   6.812   5.925   8.819  0.3019 -0.8415 -0.4579
  828MOL0     H14196   6.751   5.989   8.599 -0.4829 -1.4604  1.3008
  828MOL0     H14197   6.893   6.388   8.481  0.2569 -0.4019  0.9020
  828MOL0     H14198   6.750   6.297   8.531 -0.5149 -1.6560 -0.6680
  828MOL0     H14199   6.835   6.396   8.263 -0.1678  2.5539  1.9374
  828MOL0     H14200   6.711   6.256   8.282 -0.0421 -0.6354  1.5389
  828MOL0     H14201   6.599   6.448   8.233 -1.3712  0.9200  0.7292
  828MOL0     H14202   6.571   6.399   8.398  0.4334  1.8898  1.1648
  828MOL0     H14203   6.727   6.563   8.492 -0.9317 -1.6951  0.2778
  828MOL0     H14204   6.753   6.628   8.326 -1.0204  1.5818 -0.0569
  828MOL0     H14205   6.508   6.627   8.505 -0.4535 -2.6875 -1.2931
  828MOL0     H14206   6.494   6.667   8.325  0.3244 -0.2842  0.3994
  828MOL0     H14207   6.675   6.840   8.377 -0.5930  0.9355 -0.7071
  828MOL0     H14208   6.499   6.878   8.406  0.6048  1.3305  1.4551
  828MOL0     H14209   6.691   6.767   8.622 -0.0999  0.3990 -0.3276
  828MOL0     H14210   6.526   6.834   8.651 -1.8851  0.0906 -1.3750
  828MOL0     H14211   6.725   7.020   8.531 -0.3728  0.3303  0.3797
  828MOL0     H14212   6.576   7.042   8.645 -2.3167 -3.7393  6.0367
  828MOL0     H14213   6.727   7.210   8.805  0.6939 -0.3716 -1.3857
  828MOL0     H14214   6.957   7.249   8.968  1.2302  0.7993  1.8350
  828MOL0     H14215   7.056   7.108   9.002  0.0369 -0.2154 -1.5464
  828MOL0     H14216   6.937   7.212   9.202 -1.4584 -0.1489  2.2457
  828MOL0     H14217   6.794   7.167   9.137  1.4824  0.6979  0.9385
  828MOL0     H14218   6.913   6.913   9.135  1.5442  1.8522 -2.8290
  828MOL0     H14219   7.030   6.998   9.230 -0.9923  1.5490  0.5961
  828MOL0     H14220   6.735   6.957   9.289  1.2081 -0.8532 -1.5384
  828MOL0     H14221   6.857   6.865   9.364 -2.5535 -0.8711 -0.5672
  828MOL0     H14222   6.955   7.257   9.593  2.6516  0.5817  1.0584
  828MOL0     H14223   7.183   7.333   9.770 -0.4945  0.1024 -1.2441
  828MOL0     H14224   7.142   7.184   9.882 -2.3643 -3.3051 -0.5728
  828MOL0     H14225   7.026   7.305   9.813  1.8961  3.0283  0.0680
  828MOL0     H14226   7.602   6.847   9.744 -0.9461  3.6570 -1.0324
  828MOL0     H14227   7.786   6.793   9.896 -1.4763 -2.9813 -0.6896
  828MOL0     H14228   7.781   6.971  10.264 -0.3562 -2.8985  2.6923
  828MOL0     H14229   7.914   6.871  10.299 -1.0441  1.7291  0.1707
  828MOL0     H14230   8.019   6.896  10.091  0.6152 -0.4304  1.7793
  828MOL0     H14231   7.888   6.997  10.030  2.3191  0.0599 -0.8382
  828MOL0     H14232   8.105   7.066  10.233 -2.0083  0.6655  2.5508
  828MOL0     H14233   7.959   7.171  10.208 -0.1687  1.7755 -0.9675
  828MOL0     H14234   8.005   7.210   9.967 -0.4570 -2.1504 -0.1053
  828MOL0     H14235   8.109   7.083   9.973 -0.7361 -0.0753 -0.2124
  828MOL0     H14236   8.277   7.203  10.110  1.8470  2.5938 -0.2919
  828MOL0     H14237   8.228   7.290   9.967 -0.5749  2.1780  1.1462
  828MOL0     H14238   8.048   7.375  10.181 -0.5610  2.5758  1.2995
  828MOL0     H14239   8.181   7.470  10.099 -0.1518 -0.3210  0.4772
  828MOL0     H14240   8.333   7.329  10.273  1.5962  0.7522 -1.2409
  828MOL0     H14241   8.172   7.299  10.351 -0.6045  1.1325 -0.8364
  828MOL0     H14242   8.279   7.487  10.462 -0.4029  3.8285  0.9151
  828MOL0     H14243   8.137   7.536  10.373  0.5378  2.0615  0.5633
  828MOL0     H14244   7.519   6.896  10.232 -1.2248  2.1389  0.6268
  828MOL0     H14245   7.351   6.945  10.069  1.2409  0.0895  0.1741
  828MOL0     H14246   7.260   6.869   9.586  1.5896  0.6585  1.1920
  828MOL0     H14247   7.059   6.862   9.445 -1.0453  2.2790 -2.9905
  828MOL0     H14248   7.113   6.225   8.564 -1.1472  0.7376  0.0630
  828MOL0     H14249   7.190   6.146   8.779 -1.4140  1.2800  1.8685
  828MOL0     H14250   6.931   6.021   9.242 -3.1672 -2.9286 -0.7522
  828MOL0     H14251   6.925   5.905   9.449 -1.1549 -1.0338 -1.2403
  828MOL0     H14252   7.270   5.660   9.569  0.8935  0.6982 -1.8518
  828MOL0     H14253   7.136   5.614   9.679 -0.5748 -1.3902 -0.7408
  828MOL0     H14254   7.221   5.435   9.503  1.4001  1.8285 -0.4055
  828MOL0     H14255   7.104   5.514   9.397  0.8544  0.3000 -1.0359
  828MOL0     H14256   7.052   5.422   9.680  1.5398  1.8226 -0.8082
  828MOL0     H14257   6.931   5.492   9.575 -0.0710  0.2702 -3.4549
  828MOL0     H14258   6.938   5.294   9.421 -1.8721 -1.1605  0.5507
  828MOL0     H14259   6.891   5.256   9.589 -1.4524  1.1757 -1.2070
  828MOL0     H14260   7.252   5.043   9.547 -2.2551 -1.9933  1.6046
  828MOL0     H14261   7.284   5.700   9.342 -2.9879 -3.6615 -0.0263
  828MOL0     H14262   7.405   5.863   9.119 -0.1627  2.0263 -2.6643
  828MOL0     H14263   7.357   5.694   9.108 -3.8635 -1.0271 -0.2294
  828MOL0     H14264   7.292   5.809   8.997  1.7281  0.3833 -0.5557
  829MOL0     O14265   0.472   4.658   9.508  0.6896  0.3701  0.4064
  829MOL0     C14266   0.564   4.590   9.552 -0.3747  0.2724 -0.7899
  829MOL0     O14267   0.566   4.459   9.599  0.2771 -0.5209 -0.2579
  829MOL0     C14268   0.459   4.377   9.584  0.4587 -0.0143  1.2538
  829MOL0     C14269   0.477   4.246   9.542 -1.4175 -0.6331  0.0228
  829MOL0     C14270   0.366   4.166   9.531 -0.1615  0.6954  0.3385
  829MOL0     C14271   0.236   4.204   9.554 -0.7663 -0.2424  0.2314
  829MOL0     O14272   0.134   4.110   9.541 -0.3907 -0.1955  0.1778
  829MOL0     C14273   0.051   4.107   9.661  0.1706 -0.4174 -0.4456
  829MOL0     C14274  -0.024   3.972   9.668  0.4137 -0.6192 -0.0987
  829MOL0     C14275  -0.148   3.989   9.757 -0.5015  0.3912  0.6303
  829MOL0     C14276  -0.235   3.859   9.753  0.1375 -0.1901 -0.2202
  829MOL0     C14277  -0.352   3.887   9.846 -1.0499  0.8611  0.2121
  829MOL0     C14278  -0.438   3.761   9.882 -0.6424  0.0200 -0.5011
  829MOL0     C14279  -0.369   3.680   9.990 -0.2771 -0.2198 -0.5840
  829MOL0     C14280  -0.420   3.541  10.015 -0.5853  0.2536 -0.3324
  829MOL0     N14281  -0.564   3.536  10.047 -0.0419  0.3514  0.6835
  829MOL0     C14282  -0.670   3.525   9.964 -0.9168 -0.6813  0.2264
  829MOL0     C14283  -0.766   3.486  10.044 -0.1134 -0.1404  0.5440
  829MOL0     C14284  -0.910   3.468  10.006 -0.7980  0.8128 -0.1874
  829MOL0     C14285  -1.012   3.478  10.119  0.1585  0.6142 -0.8724
  829MOL0     C14286  -1.167   3.471  10.085 -1.3314 -0.1794 -0.7920
  829MOL0     C14287  -1.216   3.336  10.047  0.5011 -0.8437 -0.2724
  829MOL0     O14288  -1.142   3.263   9.956  0.1106 -0.0397 -1.0362
  829MOL0     C14289  -1.186   3.138   9.926  0.2187 -0.0142 -1.4098
  829MOL0     C14290  -1.310   3.082   9.947  0.4035 -0.2218  0.0043
  829MOL0     C14291  -1.341   2.947   9.921 -0.8271 -0.2962  0.1175
  829MOL0     C14292  -1.475   2.902   9.973  0.0729  0.4242  0.8341
  829MOL0     C14293  -1.236   2.870   9.866 -0.2880  0.7124  0.8496
  829MOL0     C14294  -1.253   2.727   9.841 -0.9134  0.1782 -0.1714
  829MOL0     O14295  -1.145   2.666   9.771  0.3240  0.3184  0.0904
  829MOL0     C14296  -1.174   2.539   9.739 -0.6257 -0.2826 -0.3274
  829MOL0     C14297  -1.143   2.431   9.832  0.2201 -0.7577  0.3256
  829MOL0     C14298  -1.172   2.305   9.785 -0.2304  0.6438 -0.2288
  829MOL0     C14299  -1.225   2.271   9.659  0.5382  0.8209  0.0316
  829MOL0     O14300  -1.258   2.141   9.627 -0.2770 -0.1488  0.6776
  829MOL0     C14301  -1.226   2.093   9.495  1.2428  0.2108  0.7030
  829MOL0     C14302  -1.200   1.937   9.491 -0.0244 -0.4834  0.2808
  829MOL0     C14303  -1.074   1.912   9.571  0.2340  0.1789 -0.1546
  829MOL0     C14304  -1.093   1.793   9.659 -0.1239 -0.0449  0.1351
  829MOL0     C14305  -0.960   1.733   9.722 -0.1422  0.6061 -0.0247
  829MOL0     C14306  -0.985   1.623   9.821  0.7048  0.5531 -0.0905
  829MOL0     C14307  -0.863   1.576   9.902  0.1130  0.4974 -0.8002
  829MOL0     C14308  -0.853   1.423   9.913 -1.1881  0.2061  0.8220
  829MOL0    Cl14309  -0.782   1.374   9.754 -0.0657  0.1801  0.4163
  829MOL0     C14310  -1.260   2.382   9.577  0.0482 -0.0382 -0.7153
  829MOL0     C14311  -1.232   2.507   9.615 -1.2201 -0.4997 -0.0644
  829MOL0     O14312  -1.350   2.665   9.886 -0.8056 -0.3466 -0.6757
  829MOL0     C14313  -1.112   2.923   9.841  0.8685 -0.0024  0.5011
  829MOL0     C14314  -1.091   3.059   9.883 -0.9368 -0.6046  0.0176
  829MOL0     N14315  -0.732   3.472  10.173 -0.5850 -0.5791 -1.1141
  829MOL0     N14316  -0.604   3.500  10.170 -0.0573  0.4108 -0.1014
  829MOL0     C14317   0.215   4.342   9.591 -0.0417  1.2873 -0.9937
  829MOL0     C14318   0.327   4.431   9.603  0.4694  0.8208  0.1573
  829MOL0     C14319   0.693   4.657   9.576 -0.7695 -0.3108 -0.0849
  829MOL0     C14320   0.760   4.637   9.704  0.0165 -0.5982  0.1993
  829MOL0     C14321   0.873   4.710   9.745  0.2868 -0.8827  0.2010
  829MOL0     C14322   0.923   4.814   9.659 -0.4240  0.0136  0.7295
  829MOL0     O14323   1.030   4.901   9.664 -0.8234 -0.1419  0.2682
  829MOL0     C14324   1.062   4.969   9.791  0.3040 -0.2325 -0.6745
  829MOL0     C14325   0.945   5.033   9.852  1.1909 -0.2006  0.6567
  829MOL0     C14326   0.871   5.148   9.765  0.3206  0.9728  0.1281
  829MOL0     C14327   0.827   5.265   9.850 -0.2725  0.0929 -0.3506
  829MOL0     C14328   0.698   5.236   9.928  0.1457  0.0158  0.2454
  829MOL0     C14329   0.585   5.225   9.966  0.1239 -0.9335  0.7730
  829MOL0     C14330   0.851   4.842   9.538  0.0010 -0.1762 -0.6937
  829MOL0     C14331   0.751   4.757   9.494 -0.2519 -1.1881  1.0440
  829MOL0     C14332   0.689   4.797   9.362 -0.1211 -0.2376 -0.4840
  829MOL0     H14333   0.580   4.213   9.528 -0.1686  2.4405  1.0269
  829MOL0     H14334   0.381   4.060   9.513 -3.4386 -0.2312  2.2927
  829MOL0     H14335  -0.012   4.195   9.654 -0.5017 -0.6093  2.2908
  829MOL0     H14336   0.112   4.111   9.752 -1.6043  0.7029  0.7392
  829MOL0     H14337  -0.052   3.948   9.565 -0.5943 -0.1326  0.0477
  829MOL0     H14338   0.031   3.883   9.698  2.2307  0.7177  0.7701
  829MOL0     H14339  -0.121   4.029   9.856  0.4581 -0.8964  0.9118
  829MOL0     H14340  -0.204   4.071   9.711  0.4384  1.3694  1.1529
  829MOL0     H14341  -0.257   3.837   9.649  2.9470 -0.6587 -0.8049
  829MOL0     H14342  -0.182   3.768   9.782 -2.6976 -2.7184 -2.4337
  829MOL0     H14343  -0.425   3.957   9.805 -1.0053  1.0830  0.5126
  829MOL0     H14344  -0.313   3.924   9.941 -0.5940  1.2325 -0.1151
  829MOL0     H14345  -0.526   3.802   9.933 -0.7554 -1.8456  0.8964
  829MOL0     H14346  -0.468   3.702   9.795  0.3900 -0.9539 -0.2232
  829MOL0     H14347  -0.386   3.732  10.085 -1.2256 -3.0967  0.9679
  829MOL0     H14348  -0.261   3.677   9.973 -0.1409 -2.1614  0.2852
  829MOL0     H14349  -0.397   3.480   9.927 -0.2588 -0.2329  0.0785
  829MOL0     H14350  -0.364   3.491  10.095  0.0644 -3.4982 -2.8635
  829MOL0     H14351  -0.674   3.532   9.856  0.5835  0.9902  0.2261
  829MOL0     H14352  -0.911   3.366   9.966 -1.3088  0.5218  0.5656
  829MOL0     H14353  -0.928   3.532   9.919 -0.9825 -0.6194 -1.2429
  829MOL0     H14354  -0.989   3.393  10.184  1.5023  1.0793 -0.6984
  829MOL0     H14355  -0.993   3.569  10.177 -0.2816  0.2643 -0.1526
  829MOL0     H14356  -1.219   3.510  10.173 -0.0350 -0.8324  0.3002
  829MOL0     H14357  -1.189   3.550  10.013  1.4356  0.6479 -0.8271
  829MOL0     H14358  -1.222   3.273  10.136  2.7716 -0.3100  0.3278
  829MOL0     H14359  -1.311   3.361  10.000  0.9657  3.3970  0.6417
  829MOL0     H14360  -1.390   3.142   9.989 -0.1599  0.3564 -1.7965
  829MOL0     H14361  -1.548   2.877   9.895  1.8651  1.2339 -1.1965
  829MOL0     H14362  -1.515   2.981  10.037  0.5582  1.9703 -0.6965
  829MOL0     H14363  -1.463   2.813  10.036  0.0233 -0.3347 -0.1916
  829MOL0     H14364  -1.096   2.437   9.930 -0.9847  0.9530  0.8477
  829MOL0     H14365  -1.137   2.223   9.847  2.6041  1.4370 -0.6366
  829MOL0     H14366  -1.306   2.111   9.423 -0.6543 -3.1234  1.7759
  829MOL0     H14367  -1.134   2.149   9.473  1.3039  0.8579  2.4708
  829MOL0     H14368  -1.286   1.879   9.528  0.3014 -1.8897 -1.0678
  829MOL0     H14369  -1.179   1.902   9.389 -2.7745 -0.4471 -0.3654
  829MOL0     H14370  -1.047   1.999   9.631 -1.9077 -0.2113  1.5050
  829MOL0     H14371  -0.993   1.884   9.503 -0.5306  1.4774 -1.6457
  829MOL0     H14372  -1.132   1.720   9.588  1.6691 -0.3618 -0.5654
  829MOL0     H14373  -1.168   1.800   9.738  2.0023  2.1420  2.1321
  829MOL0     H14374  -0.896   1.681   9.650  0.8045 -1.4495  2.1502
  829MOL0     H14375  -0.900   1.815   9.762  0.3434  1.1995 -1.8655
  829MOL0     H14376  -1.023   1.543   9.756 -0.8797 -0.5489  2.0660
  829MOL0     H14377  -1.068   1.647   9.889 -0.3220  0.0812 -1.1331
  829MOL0     H14378  -0.869   1.616  10.004 -0.0945 -1.0073 -0.1857
  829MOL0     H14379  -0.771   1.615   9.857  0.0323  0.7598 -0.7363
  829MOL0     H14380  -0.942   1.369   9.947 -1.3616 -1.0904 -1.5013
  829MOL0     H14381  -0.775   1.402   9.987  1.8555  4.5136 -0.7430
  829MOL0     H14382  -1.317   2.366   9.486 -0.0857  1.1258 -0.8431
  829MOL0     H14383  -1.265   2.577   9.539 -3.1238 -1.1461  0.1266
  829MOL0     H14384  -1.023   2.874   9.803  1.5366  0.3249  1.5910
  829MOL0     H14385  -0.990   3.098   9.884 -1.0289 -0.3140 -0.9954
  829MOL0     H14386   0.112   4.369   9.616 -0.1907  0.5176 -0.7234
  829MOL0     H14387   0.303   4.528   9.645  1.5101  0.5846  1.3530
  829MOL0     H14388   0.714   4.564   9.769  0.7353 -1.6594 -0.4634
  829MOL0     H14389   0.929   4.677   9.832  3.2186  1.1467 -0.7437
  829MOL0     H14390   1.108   4.899   9.861  1.5072  3.2293  2.2854
  829MOL0     H14391   1.138   5.046   9.778 -0.9041  1.2723  0.7264
  829MOL0     H14392   0.967   5.074   9.951 -2.8650  2.7329  0.5924
  829MOL0     H14393   0.878   4.952   9.881 -2.3612  2.4946  0.6419
  829MOL0     H14394   0.945   5.188   9.695  2.9061 -0.3735  1.9249
  829MOL0     H14395   0.779   5.112   9.719  1.3253 -1.5728 -0.0283
  829MOL0     H14396   0.811   5.355   9.791 -1.6268  0.2226  0.1914
  829MOL0     H14397   0.900   5.300   9.923 -6.4796  6.3348  4.2004
  829MOL0     H14398   0.485   5.216  10.003 -1.2658 -0.8402 -2.6218
  829MOL0     H14399   0.889   4.925   9.479 -1.2652 -0.4071 -1.8740
  829MOL0     H14400   0.631   4.710   9.330  0.9485 -2.4495  2.9780
  829MOL0     H14401   0.618   4.878   9.378 -1.7423 -1.3612 -1.6251
  829MOL0     H14402   0.771   4.831   9.298  0.0521  2.0200  0.8420
  830MOL0     O14403   7.994  11.257   3.423  0.5455  0.0853 -0.4212
  830MOL0     C14404   8.082  11.331   3.454 -0.2549  0.8555  0.0477
  830MOL0     O14405   8.072  11.458   3.502 -0.7597 -0.6065 -0.5464
  830MOL0     C14406   7.947  11.496   3.550 -0.0645  0.6532 -0.3439
  830MOL0     C14407   7.893  11.610   3.507  0.2533 -0.3177 -0.1256
  830MOL0     C14408   7.773  11.664   3.550  0.3380 -0.6500 -0.1650
  830MOL0     C14409   7.697  11.588   3.638 -1.2105  0.0431 -0.5685
  830MOL0     O14410   7.569  11.624   3.670  1.2992  0.3995 -0.1638
  830MOL0     C14411   7.566  11.697   3.789  0.7574 -0.5491 -1.1768
  830MOL0     C14412   7.419  11.711   3.828 -0.0627  0.5915  0.0248
  830MOL0     C14413   7.341  11.577   3.837  0.0582  0.7573 -0.2252
  830MOL0     C14414   7.213  11.569   3.748 -0.2527  0.9856 -0.0668
  830MOL0     C14415   7.093  11.652   3.782 -0.5388  0.0958  0.1195
  830MOL0     C14416   7.028  11.592   3.907 -0.1683  0.4137  0.8583
  830MOL0     C14417   6.886  11.643   3.931 -0.2989 -0.3681  0.1688
  830MOL0     C14418   6.817  11.568   4.051  0.8069  0.6013  0.2743
  830MOL0     N14419   6.673  11.616   4.064  0.7547  0.1677  0.2887
  830MOL0     C14420   6.635  11.705   4.163  0.3521 -0.1453 -0.3025
  830MOL0     C14421   6.503  11.694   4.162  0.5606  0.3684 -0.4041
  830MOL0     C14422   6.405  11.780   4.245 -0.2971 -0.0189  0.9849
  830MOL0     C14423   6.325  11.678   4.328  0.1990  0.1856 -0.2785
  830MOL0     C14424   6.222  11.756   4.401  0.4194  1.6275 -1.5719
  830MOL0     C14425   6.143  11.656   4.502  0.2884 -0.0013  0.1561
  830MOL0     O14426   6.227  11.613   4.609  0.1375 -0.5605 -0.8505
  830MOL0     C14427   6.211  11.484   4.660 -0.2072  0.6367  0.2073
  830MOL0     C14428   6.317  11.408   4.715 -0.1546 -0.6516 -0.7855
  830MOL0     C14429   6.295  11.280   4.777 -0.3142 -0.1895  0.2639
  830MOL0     C14430   6.421  11.205   4.824 -0.0718 -0.7124  0.6082
  830MOL0     C14431   6.159  11.229   4.785 -0.7609  0.6353 -0.0231
  830MOL0     C14432   6.130  11.098   4.845  0.1575  0.2195 -0.6157
  830MOL0     O14433   6.032  11.025   4.784  0.0553  0.0163  0.7948
  830MOL0     C14434   6.024  10.886   4.806 -0.5389 -0.9982 -0.2577
  830MOL0     C14435   6.094  10.794   4.733 -0.5855  0.8856  0.2577
  830MOL0     C14436   6.089  10.657   4.767  0.5229 -0.5904 -0.1232
  830MOL0     C14437   6.010  10.615   4.876  0.5125 -0.6982 -0.0338
  830MOL0     O14438   6.020  10.480   4.903 -0.2939  0.2755 -0.5161
  830MOL0     C14439   5.888  10.414   4.912 -0.1074  0.5990  0.3606
  830MOL0     C14440   5.890  10.260   4.933  0.5890 -0.4361  0.2392
  830MOL0     C14441   5.758  10.219   4.868  0.0763 -0.9460 -0.6370
  830MOL0     C14442   5.718  10.075   4.914 -0.8835 -0.1040  0.2660
  830MOL0     C14443   5.585  10.037   4.850 -0.9402  0.6291 -0.4993
  830MOL0     C14444   5.544   9.898   4.888 -0.2262  0.2011 -0.5412
  830MOL0     C14445   5.434   9.853   4.784 -0.1540 -0.1458 -0.3524
  830MOL0     C14446   5.309   9.936   4.790  0.2359  0.0527 -0.0848
  830MOL0    Cl14447   5.243   9.984   4.956  0.7959  0.1102  0.2634
  830MOL0     C14448   5.931  10.705   4.946 -0.2747  0.2144  0.3238
  830MOL0     C14449   5.949  10.842   4.918 -0.7356 -0.5229 -0.3005
  830MOL0     O14450   6.205  11.060   4.936  0.3203 -0.2308 -0.1122
  830MOL0     C14451   6.052  11.295   4.730 -0.0534 -0.3450 -0.5394
  830MOL0     C14452   6.075  11.423   4.666 -0.2238  0.2695  0.1261
  830MOL0     N14453   6.463  11.605   4.064  0.8541 -0.4984  0.0177
  830MOL0     N14454   6.563  11.558   4.010 -1.2395  0.2559  0.4412
  830MOL0     C14455   7.770  11.480   3.701  0.2580 -0.1157 -0.0927
  830MOL0     C14456   7.891  11.432   3.659 -0.8998  0.1584  0.1788
  830MOL0     C14457   8.227  11.306   3.431 -0.6850 -0.0215  0.5702
  830MOL0     C14458   8.316  11.416   3.403  0.2127 -0.4122 -0.8627
  830MOL0     C14459   8.449  11.404   3.365  0.0121 -0.0391 -0.2279
  830MOL0     C14460   8.494  11.272   3.337 -0.2281 -1.2021 -0.1476
  830MOL0     O14461   8.627  11.270   3.287 -0.0110 -0.3855  0.0632
  830MOL0     C14462   8.672  11.139   3.234 -0.5294 -0.6157  0.2997
  830MOL0     C14463   8.788  11.168   3.135  0.3938  0.0063  0.3187
  830MOL0     C14464   8.888  11.277   3.163  0.4585 -0.5141  0.4461
  830MOL0     C14465   8.833  11.416   3.106  0.5770 -0.4686 -0.4172
  830MOL0     C14466   8.947  11.517   3.103  0.4832 -0.1353  0.3732
  830MOL0     C14467   9.050  11.589   3.098 -0.0063  0.3935  0.2657
  830MOL0     C14468   8.412  11.155   3.355  0.4994  0.3216 -0.5765
  830MOL0     C14469   8.282  11.173   3.400  0.5526 -0.0288 -0.1967
  830MOL0     C14470   8.198  11.044   3.416 -0.1251  0.0760  0.0436
  830MOL0     H14471   7.955  11.666   3.437  0.1588  1.4781  1.1632
  830MOL0     H14472   7.733  11.753   3.502  3.0421  0.7859  0.0538
  830MOL0     H14473   7.614  11.794   3.775 -1.2851  0.5912 -0.6043
  830MOL0     H14474   7.627  11.649   3.866 -1.3884 -1.7646 -0.1532
  830MOL0     H14475   7.422  11.759   3.926 -0.6207  2.2941 -0.7407
  830MOL0     H14476   7.368  11.781   3.760  0.9571  0.8598 -0.4881
  830MOL0     H14477   7.406  11.494   3.809 -0.9593 -0.3354  0.5215
  830MOL0     H14478   7.310  11.548   3.938  0.9491 -2.6338 -0.8023
  830MOL0     H14479   7.242  11.578   3.643 -2.5397  1.1550 -0.7273
  830MOL0     H14480   7.182  11.465   3.762  0.1871  0.8828  0.1735
  830MOL0     H14481   7.030  11.648   3.692  0.7596 -0.3993 -0.8026
  830MOL0     H14482   7.106  11.758   3.806 -4.7201  0.4715  1.5648
  830MOL0     H14483   7.011  11.485   3.889 -0.9422  0.0018  3.6009
  830MOL0     H14484   7.093  11.603   3.994  2.6330 -1.5744 -0.7930
  830MOL0     H14485   6.835  11.642   3.835  0.8855 -0.6056 -0.4800
  830MOL0     H14486   6.886  11.750   3.956 -0.4392 -0.7660  2.0526
  830MOL0     H14487   6.814  11.463   4.020 -3.0808  1.1557 -1.9389
  830MOL0     H14488   6.865  11.571   4.149  2.1271  0.2112 -0.3462
  830MOL0     H14489   6.699  11.751   4.238 -1.0443 -1.5848  1.8945
  830MOL0     H14490   6.346  11.841   4.176  2.3663  2.4575  0.6948
  830MOL0     H14491   6.454  11.854   4.309  0.9894  2.9259 -2.9552
  830MOL0     H14492   6.274  11.605   4.264  1.7398 -0.4639 -0.8300
  830MOL0     H14493   6.393  11.618   4.389  0.0489 -0.8668 -1.1207
  830MOL0     H14494   6.263  11.829   4.472 -1.1838 -1.3835  2.8912
  830MOL0     H14495   6.161  11.801   4.323  0.0470  0.9242 -1.6927
  830MOL0     H14496   6.060  11.703   4.555  0.6122 -0.0577  0.7245
  830MOL0     H14497   6.106  11.573   4.441  0.1901  0.3116 -0.2056
  830MOL0     H14498   6.412  11.459   4.718  0.8330 -2.4382  1.4351
  830MOL0     H14499   6.501  11.207   4.749  2.1142  0.3379  2.8314
  830MOL0     H14500   6.410  11.098   4.844  1.3915 -1.0190 -0.1286
  830MOL0     H14501   6.468  11.244   4.914 -2.2981  2.1939  0.6494
  830MOL0     H14502   6.161  10.823   4.653 -0.3460  0.6390  0.3644
  830MOL0     H14503   6.146  10.575   4.723  0.4806 -2.2069  2.5940
  830MOL0     H14504   5.830  10.450   4.997 -0.9684  1.5172 -0.5845
  830MOL0     H14505   5.835  10.452   4.824  2.5408  4.3884  0.1815
  830MOL0     H14506   5.974  10.214   4.882  1.4941  2.2052 -0.8528
  830MOL0     H14507   5.895  10.252   5.042 -0.5293  1.3782  0.4763
  830MOL0     H14508   5.759  10.223   4.759 -4.7299 -1.5795 -0.9223
  830MOL0     H14509   5.683  10.290   4.906  1.1274 -1.0680  1.8446
  830MOL0     H14510   5.708  10.067   5.022  0.6123 -0.7105  0.3715
  830MOL0     H14511   5.787  10.000   4.877 -0.5774  0.7942 -1.0705
  830MOL0     H14512   5.515  10.117   4.879 -2.4278 -0.1045 -1.8995
  830MOL0     H14513   5.592  10.032   4.741  0.8660 -1.7144 -0.3336
  830MOL0     H14514   5.514   9.887   4.993 -0.6454  0.2047 -0.6549
  830MOL0     H14515   5.631   9.833   4.879  1.6440  1.5545  4.4545
  830MOL0     H14516   5.395   9.754   4.811 -0.4631 -0.4323 -1.7603
  830MOL0     H14517   5.463   9.854   4.679 -0.0418 -0.7945 -0.3359
  830MOL0     H14518   5.240   9.878   4.729  3.1830  1.1906 -5.0585
  830MOL0     H14519   5.326  10.026   4.731 -2.2468 -0.7195 -2.1628
  830MOL0     H14520   5.873  10.686   5.035  0.8441 -1.3107  0.7693
  830MOL0     H14521   5.899  10.917   4.978 -1.9819 -0.0202 -1.8752
  830MOL0     H14522   5.952  11.253   4.741  0.3677 -0.8431  2.1651
  830MOL0     H14523   5.996  11.482   4.619  1.2022 -0.9659 -4.2447
  830MOL0     H14524   7.722  11.421   3.779  0.2213  1.6609  1.3037
  830MOL0     H14525   7.945  11.356   3.714 -0.5935 -0.4713 -0.9608
  830MOL0     H14526   8.277  11.517   3.412  1.6720  0.0365  1.5701
  830MOL0     H14527   8.502  11.497   3.345 -0.6421  0.4214  0.1261
  830MOL0     H14528   8.704  11.081   3.321  0.0025  1.1409  1.3399
  830MOL0     H14529   8.599  11.071   3.191  1.7876 -1.9609 -1.7587
  830MOL0     H14530   8.748  11.187   3.034  0.7300  2.6221  0.6004
  830MOL0     H14531   8.843  11.073   3.128  1.3105  0.4929  0.6770
  830MOL0     H14532   8.914  11.286   3.269  2.0875 -1.3288  0.1464
  830MOL0     H14533   8.982  11.255   3.111 -0.4198  1.4823 -2.1910
  830MOL0     H14534   8.760  11.447   3.181 -0.3084  4.1347 -2.8295
  830MOL0     H14535   8.792  11.410   3.005  0.1978  2.8970 -0.5884
  830MOL0     H14536   9.139  11.648   3.107  0.6374 -0.6991  1.2854
  830MOL0     H14537   8.443  11.056   3.326  0.3530  0.2052 -0.3392
  830MOL0     H14538   8.256  10.951   3.417 -1.3726 -0.7690 -1.7482
  830MOL0     H14539   8.153  11.058   3.515 -1.2912 -1.6729 -0.1983
  830MOL0     H14540   8.116  11.041   3.344 -1.9151  5.3608  1.4122
  831MOL0     O14541  11.528   6.527   3.331  1.0692 -0.0251 -0.2679
  831MOL0     C14542  11.497   6.538   3.442 -0.2279 -0.3693 -0.1791
  831MOL0     O14543  11.395   6.608   3.490  0.1268 -0.9732 -0.4693
  831MOL0     C14544  11.289   6.643   3.412  0.1089  0.7767 -0.3730
  831MOL0     C14545  11.233   6.564   3.309 -0.5585 -0.5155  0.1342
  831MOL0     C14546  11.128   6.615   3.235  0.7873  0.7884  0.1335
  831MOL0     C14547  11.065   6.738   3.268  0.2109 -0.7309 -0.9926
  831MOL0     O14548  10.961   6.794   3.203 -0.0810 -0.0923  0.2936
  831MOL0     C14549  10.857   6.710   3.138 -0.3239 -0.8727  0.7279
  831MOL0     C14550  10.750   6.804   3.092 -0.5230  0.1593 -0.0726
  831MOL0     C14551  10.645   6.719   3.025 -0.4188 -0.6765  0.4893
  831MOL0     C14552  10.529   6.798   2.982  0.4918  0.0545 -0.0118
  831MOL0     C14553  10.404   6.716   2.961 -0.1357  0.2115 -1.5974
  831MOL0     C14554  10.285   6.805   2.925  1.2423  0.1153  0.4654
  831MOL0     C14555  10.183   6.831   3.040  0.2027  1.5212  0.6251
  831MOL0     C14556  10.046   6.885   3.003  0.8270 -0.0967  0.6400
  831MOL0     N14557   9.972   6.925   3.117 -0.7253  0.0697 -0.1062
  831MOL0     C14558   9.930   6.839   3.218 -0.1344 -0.2156  0.0712
  831MOL0     C14559   9.897   6.910   3.326 -0.4270  0.1816 -0.1560
  831MOL0     C14560   9.846   6.857   3.461  0.1025 -0.5856  0.0055
  831MOL0     C14561   9.956   6.783   3.537 -0.6999  0.0981 -0.6181
  831MOL0     C14562   9.895   6.740   3.670  0.0275  0.1016  0.1049
  831MOL0     C14563   9.977   6.635   3.735 -1.0142  0.4210 -0.9121
  831MOL0     O14564   9.984   6.504   3.674 -0.1735 -0.2873  0.3574
  831MOL0     C14565   9.877   6.425   3.701 -0.3218  1.2355  0.6346
  831MOL0     C14566   9.750   6.435   3.644 -0.7209 -0.1655  0.4413
  831MOL0     C14567   9.658   6.330   3.654 -0.3346  0.3509  0.8057
  831MOL0     C14568   9.544   6.333   3.552  0.3788 -0.2425  0.8039
  831MOL0     C14569   9.690   6.228   3.743  0.1295  0.2801 -0.6117
  831MOL0     C14570   9.588   6.123   3.756  0.2669  0.1416  0.6860
  831MOL0     O14571   9.472   6.154   3.818  0.5329  0.5824 -0.1601
  831MOL0     C14572   9.382   6.055   3.815  1.1856 -0.8660  0.1239
  831MOL0     C14573   9.373   5.982   3.920  0.6736  0.3271 -0.4708
  831MOL0     C14574   9.259   5.895   3.938 -0.2478  0.2035  0.7819
  831MOL0     C14575   9.164   5.894   3.833  0.4484  0.5152  0.1899
  831MOL0     O14576   9.048   5.825   3.862 -0.0127 -0.2119  0.2361
  831MOL0     C14577   8.929   5.908   3.844  0.0205  0.7865 -0.1268
  831MOL0     C14578   8.830   5.858   3.951 -0.2055  0.8543 -0.2589
  831MOL0     C14579   8.696   5.912   3.917  0.6115 -1.0153 -0.0278
  831MOL0     C14580   8.600   5.867   4.032 -1.0059  0.5434 -0.7372
  831MOL0     C14581   8.455   5.901   4.002  0.3591 -0.1176 -0.5481
  831MOL0     C14582   8.390   5.784   3.918 -0.7181 -0.1355 -0.5549
  831MOL0     C14583   8.240   5.796   3.908  0.0509  0.1774 -0.3262
  831MOL0     C14584   8.168   5.729   4.019  0.0686 -0.4227 -0.0710
  831MOL0    Cl14585   7.990   5.743   3.980  0.1241 -0.0962 -0.1772
  831MOL0     C14586   9.181   5.974   3.720  0.0711  0.0821 -0.5623
  831MOL0     C14587   9.296   6.048   3.709  0.1281  1.0503  0.0976
  831MOL0     O14588   9.620   6.016   3.699 -0.1634  0.5223  0.1688
  831MOL0     C14589   9.812   6.220   3.812 -0.3956 -0.1734  0.9050
  831MOL0     C14590   9.902   6.320   3.792 -0.0867 -0.7857 -0.1033
  831MOL0     N14591   9.933   7.037   3.294  0.6438 -0.2998 -0.3361
  831MOL0     N14592   9.972   7.048   3.166  0.2696  0.2280 -0.0261
  831MOL0     C14593  11.118   6.812   3.377  0.3952  1.3383 -0.5244
  831MOL0     C14594  11.217   6.759   3.452 -0.4218 -0.0584 -0.2026
  831MOL0     C14595  11.602   6.515   3.537 -0.4293 -0.4992  0.7105
  831MOL0     C14596  11.653   6.624   3.614  0.6348  0.7292 -0.4958
  831MOL0     C14597  11.745   6.603   3.724 -1.2126  0.2443 -0.3087
  831MOL0     C14598  11.783   6.476   3.752  0.3100 -0.0747  0.0141
  831MOL0     O14599  11.856   6.430   3.857 -0.8422  0.3778 -0.3163
  831MOL0     C14600  11.935   6.521   3.919  1.0422 -0.9704  0.7413
  831MOL0     C14601  12.056   6.578   3.834  0.4818  0.2717  0.4124
  831MOL0     C14602  12.142   6.451   3.800  0.6155 -0.2284  0.3545
  831MOL0     C14603  12.280   6.496   3.752  0.9722 -0.0915  0.1850
  831MOL0     C14604  12.264   6.576   3.631  1.4244 -0.0857 -0.7376
  831MOL0     C14605  12.221   6.633   3.531 -0.1338  0.4823  0.5878
  831MOL0     C14606  11.734   6.368   3.674 -0.9190 -1.0038  0.1683
  831MOL0     C14607  11.652   6.385   3.568  0.1687 -0.5898 -0.1783
  831MOL0     C14608  11.602   6.269   3.497  0.8116 -0.2752  0.1337
  831MOL0     H14609  11.275   6.465   3.295  0.3202 -0.1027 -0.1921
  831MOL0     H14610  11.094   6.548   3.157  1.2719  0.5861  0.0906
  831MOL0     H14611  10.826   6.631   3.208  1.9276 -1.8091  0.7651
  831MOL0     H14612  10.907   6.667   3.051 -1.4501  1.4883 -1.2050
  831MOL0     H14613  10.700   6.840   3.181 -0.5445 -4.1774  1.9387
  831MOL0     H14614  10.792   6.886   3.033  0.7265  0.9945  1.8814
  831MOL0     H14615  10.699   6.662   2.948  2.2754 -1.2228  2.6308
  831MOL0     H14616  10.614   6.640   3.094  0.5552  0.5055  2.3414
  831MOL0     H14617  10.506   6.866   3.065 -2.6000 -0.8572  0.0103
  831MOL0     H14618  10.548   6.858   2.893  1.9102 -0.5285 -0.1278
  831MOL0     H14619  10.390   6.665   3.057  0.3086  1.4282 -0.8606
  831MOL0     H14620  10.420   6.640   2.884 -1.0393 -1.7955  0.1002
  831MOL0     H14621  10.321   6.905   2.897  1.5004 -0.0144  0.3273
  831MOL0     H14622  10.231   6.753   2.845  2.5037  1.9235 -1.7224
  831MOL0     H14623  10.218   6.906   3.111  1.4419  1.7589 -0.2035
  831MOL0     H14624  10.172   6.743   3.105 -0.0001  2.5079  1.9657
  831MOL0     H14625  10.054   6.967   2.931  0.5319 -2.1289 -1.8921
  831MOL0     H14626   9.991   6.808   2.948  1.2911 -0.3784  0.5635
  831MOL0     H14627   9.914   6.733   3.206 -1.9192  0.3413 -4.1607
  831MOL0     H14628   9.766   6.793   3.424  0.0097  0.8485 -2.5332
  831MOL0     H14629   9.798   6.939   3.515 -0.5886 -1.5217  0.8438
  831MOL0     H14630   9.994   6.699   3.478  1.1837  0.1176  0.5208
  831MOL0     H14631  10.048   6.842   3.543  0.5846 -1.8774 -0.1074
  831MOL0     H14632   9.892   6.825   3.740  0.6473  0.7137 -0.5971
  831MOL0     H14633   9.792   6.704   3.655 -0.2294  1.0962 -0.6893
  831MOL0     H14634  10.081   6.667   3.741 -0.3289 -1.8411  0.6947
  831MOL0     H14635   9.939   6.622   3.837  0.5588  4.1041  0.3234
  831MOL0     H14636   9.737   6.520   3.577 -1.4191  0.5463  1.4400
  831MOL0     H14637   9.582   6.368   3.456 -1.1878 -1.0302 -0.1352
  831MOL0     H14638   9.461   6.398   3.582 -1.4033 -0.1471 -3.5834
  831MOL0     H14639   9.498   6.239   3.522 -1.2817  1.7552 -3.7270
  831MOL0     H14640   9.438   5.989   4.006  1.9804  2.3690 -1.5456
  831MOL0     H14641   9.244   5.839   4.030  2.4695 -0.4758  0.9022
  831MOL0     H14642   8.949   6.015   3.858  0.0395  0.7674 -0.0058
  831MOL0     H14643   8.900   5.893   3.739  6.3193 -2.2198 -1.8908
  831MOL0     H14644   8.832   5.749   3.947  3.8613  0.8097 -1.0168
  831MOL0     H14645   8.845   5.891   4.054 -3.0120  0.4456  0.3831
  831MOL0     H14646   8.667   5.870   3.820  2.0620 -1.2505 -0.3774
  831MOL0     H14647   8.686   6.021   3.922  1.6640 -0.8471 -1.1445
  831MOL0     H14648   8.637   5.908   4.126  0.3308 -0.3592 -0.8408
  831MOL0     H14649   8.613   5.759   4.044  0.8493  0.9288  1.4152
  831MOL0     H14650   8.396   5.924   4.092 -0.9010  0.7356 -1.5591
  831MOL0     H14651   8.459   5.979   3.926  0.6365  0.1082 -0.3020
  831MOL0     H14652   8.400   5.687   3.969  0.5069  0.1965 -0.1262
  831MOL0     H14653   8.422   5.775   3.814 -1.1936 -0.1925 -0.6997
  831MOL0     H14654   8.205   5.743   3.818  0.3028 -2.7792  1.1960
  831MOL0     H14655   8.213   5.902   3.900  0.6153  0.1934 -2.5931
  831MOL0     H14656   8.175   5.778   4.116 -3.3418 -1.3556  0.7855
  831MOL0     H14657   8.182   5.622   4.033 -2.7715 -0.7359  1.0462
  831MOL0     H14658   9.110   5.972   3.637 -1.3079 -4.1701  0.4207
  831MOL0     H14659   9.302   6.120   3.628 -0.4086  0.2096 -0.7072
  831MOL0     H14660   9.837   6.125   3.857 -0.1911  0.6020  2.4676
  831MOL0     H14661  10.003   6.309   3.831 -0.0208 -1.1393 -0.3629
  831MOL0     H14662  11.067   6.903   3.407 -1.0246  0.3260  0.2688
  831MOL0     H14663  11.252   6.811   3.541  0.0787 -3.8499  2.0578
  831MOL0     H14664  11.630   6.725   3.583 -0.3899  1.3841  2.1419
  831MOL0     H14665  11.763   6.685   3.793 -3.6261 -0.5869  1.4314
  831MOL0     H14666  11.879   6.602   3.967 -4.3368 -2.2822 -2.4577
  831MOL0     H14667  11.980   6.479   4.008  2.0601  2.2934  1.9100
  831MOL0     H14668  12.113   6.654   3.888  1.8978 -0.8887  0.6119
  831MOL0     H14669  12.030   6.617   3.735  3.9079 -1.1772 -1.2287
  831MOL0     H14670  12.146   6.386   3.888  2.3538 -1.9229 -0.8894
  831MOL0     H14671  12.093   6.381   3.731 -2.4926  2.0555 -0.0002
  831MOL0     H14672  12.340   6.406   3.734 -1.1802 -2.0216  1.8805
  831MOL0     H14673  12.315   6.559   3.834 -0.8461 -0.9393  1.7129
  831MOL0     H14674  12.190   6.694   3.448 -0.2455 -1.1011 -0.5881
  831MOL0     H14675  11.750   6.274   3.726 -2.9070 -0.3533  2.0875
  831MOL0     H14676  11.506   6.286   3.448  0.7849  2.9910  1.1343
  831MOL0     H14677  11.671   6.237   3.418 -1.1147 -1.3082 -1.2180
  831MOL0     H14678  11.580   6.186   3.566  1.0334 -0.1675  0.3366
  832MOL0     O14679   8.326   7.272   7.409  0.6067 -0.1925  0.3067
  832MOL0     C14680   8.269   7.199   7.331  0.3833 -0.3513  0.2462
  832MOL0     O14681   8.135   7.212   7.301  0.0849  0.1816  0.0611
  832MOL0     C14682   8.054   7.280   7.385 -0.8051 -0.6222  0.2194
  832MOL0     C14683   8.050   7.264   7.520 -0.0617  0.1402 -0.0037
  832MOL0     C14684   7.966   7.341   7.595  1.2566  1.1105  0.5317
  832MOL0     C14685   7.867   7.424   7.532  0.4419  0.5426 -0.4129
  832MOL0     O14686   7.760   7.476   7.602 -0.0797 -0.1085  0.6987
  832MOL0     C14687   7.628   7.500   7.549 -0.1974 -0.3820 -1.0419
  832MOL0     C14688   7.578   7.368   7.491 -0.2033  0.2020  0.0735
  832MOL0     C14689   7.437   7.388   7.433 -0.2086  0.0366  0.2173
  832MOL0     C14690   7.434   7.494   7.319 -0.0449 -0.1391 -0.1685
  832MOL0     C14691   7.300   7.487   7.247 -0.1835  0.0467 -0.1658
  832MOL0     C14692   7.184   7.534   7.327  1.0242  0.0908  0.2487
  832MOL0     C14693   7.072   7.571   7.230 -0.4674  0.2932  0.0577
  832MOL0     C14694   6.953   7.605   7.320 -0.2826 -0.1305  0.8265
  832MOL0     N14695   6.859   7.702   7.247 -0.1938 -0.1507  0.3434
  832MOL0     C14696   6.798   7.812   7.303 -0.2840 -0.0656 -0.1876
  832MOL0     C14697   6.728   7.881   7.208 -0.0527  0.0211 -0.4728
  832MOL0     C14698   6.666   8.012   7.237  0.7048 -0.5730 -0.0790
  832MOL0     C14699   6.552   7.989   7.340 -0.6675 -0.1326 -0.0856
  832MOL0     C14700   6.584   8.042   7.477 -0.1766  0.2656  0.5573
  832MOL0     C14701   6.480   8.012   7.583 -0.2953 -0.1227  0.6096
  832MOL0     O14702   6.527   8.050   7.705 -0.1262 -0.9377  0.0542
  832MOL0     C14703   6.468   8.003   7.817  0.8036 -0.5350  0.4393
  832MOL0     C14704   6.555   7.969   7.922  0.2055  0.0098  0.8066
  832MOL0     C14705   6.504   7.921   8.044  0.4965 -1.3691 -0.2312
  832MOL0     C14706   6.606   7.902   8.158 -0.3803  0.2849 -1.2204
  832MOL0     C14707   6.363   7.899   8.059 -0.6362  0.4358 -0.1437
  832MOL0     C14708   6.298   7.838   8.180 -0.3226  0.3709  0.5203
  832MOL0     O14709   6.160   7.815   8.170  0.2680  0.6911  0.1884
  832MOL0     C14710   6.097   7.754   8.273  0.3531 -0.3758 -0.5346
  832MOL0     C14711   6.033   7.630   8.265  0.6573 -0.2246 -0.9770
  832MOL0     C14712   5.980   7.565   8.383 -0.1949  0.3114  0.4781
  832MOL0     C14713   5.995   7.619   8.506 -0.4805 -0.4365 -0.6479
  832MOL0     O14714   5.947   7.562   8.621 -0.2580  1.0593 -0.1829
  832MOL0     C14715   5.840   7.467   8.624 -0.4318  0.0045 -1.2871
  832MOL0     C14716   5.810   7.436   8.770 -0.3555 -0.2637 -0.2430
  832MOL0     C14717   5.747   7.549   8.851  0.4527  0.5754  0.2605
  832MOL0     C14718   5.605   7.588   8.797 -0.6258 -0.2945  0.3417
  832MOL0     C14719   5.552   7.711   8.865 -0.0514  0.3516  0.0976
  832MOL0     C14720   5.404   7.718   8.847  0.1341  0.5834 -0.1825
  832MOL0     C14721   5.334   7.839   8.927 -0.5921 -0.2436  0.9487
  832MOL0     C14722   5.227   7.901   8.834  0.2583 -0.4496 -0.5264
  832MOL0    Cl14723   5.130   8.026   8.906 -0.2725 -0.0750 -0.2638
  832MOL0     C14724   6.047   7.749   8.510 -0.2779  0.0474  0.2681
  832MOL0     C14725   6.095   7.812   8.399 -0.5136  0.0552 -0.2068
  832MOL0     O14726   6.361   7.804   8.279  0.2574  0.4293  0.1089
  832MOL0     C14727   6.280   7.940   7.954  0.4683 -1.3886 -0.7417
  832MOL0     C14728   6.328   7.993   7.833  0.2924  0.4496  0.1836
  832MOL0     N14729   6.726   7.790   7.095 -0.2405  0.0423  0.0515
  832MOL0     N14730   6.805   7.695   7.121 -0.3579  0.6733 -0.1327
  832MOL0     C14731   7.883   7.450   7.399  0.9890  0.1564  0.0468
  832MOL0     C14732   7.971   7.372   7.324  0.0514 -0.0159 -0.8312
  832MOL0     C14733   8.334   7.108   7.244 -0.6742 -0.2678  0.5055
  832MOL0     C14734   8.396   7.008   7.309 -0.5825  0.0023 -1.4407
  832MOL0     C14735   8.461   6.903   7.246 -0.5878  0.3937 -0.1239
  832MOL0     C14736   8.455   6.900   7.111 -1.1507 -0.2714  0.1897
  832MOL0     O14737   8.535   6.807   7.041 -0.3888  0.0266  0.5075
  832MOL0     C14738   8.453   6.717   6.959  0.2175  0.2740  0.8713
  832MOL0     C14739   8.546   6.619   6.891 -0.2555  0.0289  0.1128
  832MOL0     C14740   8.456   6.515   6.833  0.0374 -0.1811  0.0021
  832MOL0     C14741   8.543   6.415   6.769  0.3644 -0.1647  0.1084
  832MOL0     C14742   8.471   6.314   6.698  1.1490 -0.1588  0.4260
  832MOL0     C14743   8.416   6.230   6.637  0.3559  0.9297  0.5930
  832MOL0     C14744   8.397   7.011   7.040 -0.2098 -0.0545  0.0837
  832MOL0     C14745   8.342   7.121   7.103  0.5471  0.5799  0.0352
  832MOL0     C14746   8.289   7.249   7.036  0.2619  0.4264  0.3267
  832MOL0     H14747   8.095   7.177   7.566  0.3871  0.3694 -0.0049
  832MOL0     H14748   7.960   7.327   7.703  0.0627 -0.2335  0.3193
  832MOL0     H14749   7.637   7.584   7.479  0.8351  1.1289  0.8099
  832MOL0     H14750   7.562   7.525   7.632 -0.1673 -0.6946 -0.9255
  832MOL0     H14751   7.644   7.335   7.410 -1.7541 -1.6955 -0.4998
  832MOL0     H14752   7.570   7.288   7.565 -0.4533  0.0452 -0.1178
  832MOL0     H14753   7.407   7.292   7.391 -0.8691  1.4731 -2.9200
  832MOL0     H14754   7.373   7.419   7.516 -0.2600 -1.4906  0.7711
  832MOL0     H14755   7.447   7.591   7.368 -0.3274  0.2958 -0.9357
  832MOL0     H14756   7.521   7.477   7.254  2.5477 -1.1600  3.2935
  832MOL0     H14757   7.281   7.384   7.216 -1.7094 -0.3934  1.9822
  832MOL0     H14758   7.303   7.544   7.154  2.3497 -2.2377 -1.6049
  832MOL0     H14759   7.148   7.451   7.387 -0.0158 -1.0486 -1.8401
  832MOL0     H14760   7.214   7.613   7.396  1.0085 -1.2914  1.8817
  832MOL0     H14761   7.055   7.496   7.152 -1.3945  1.6043 -1.0402
  832MOL0     H14762   7.110   7.658   7.176  1.3189 -0.8610 -0.6216
  832MOL0     H14763   6.896   7.521   7.361 -0.0418  2.1785  6.7521
  832MOL0     H14764   6.993   7.649   7.411  0.6933  1.5586 -0.3692
  832MOL0     H14765   6.831   7.855   7.397  0.0033  2.4584 -1.3759
  832MOL0     H14766   6.620   8.059   7.149 -2.3190  0.3122  1.8300
  832MOL0     H14767   6.740   8.080   7.279  0.7441 -0.0748 -0.9317
  832MOL0     H14768   6.455   8.024   7.302 -0.5871 -1.3930 -1.5186
  832MOL0     H14769   6.543   7.883   7.364  0.9432  0.2191  2.4398
  832MOL0     H14770   6.683   8.011   7.509 -0.1998  0.5640  0.9253
  832MOL0     H14771   6.580   8.151   7.472 -1.3029  0.5183  4.0584
  832MOL0     H14772   6.397   8.077   7.552 -0.6502 -0.7166  0.2972
  832MOL0     H14773   6.433   7.913   7.574  0.1512 -0.3783  1.0704
  832MOL0     H14774   6.662   7.986   7.914  0.2593 -0.8831 -0.7464
  832MOL0     H14775   6.565   7.926   8.257 -3.0120  1.0022 -2.3949
  832MOL0     H14776   6.683   7.980   8.156 -0.5567  0.7190  2.3011
  832MOL0     H14777   6.648   7.801   8.161  0.6001  0.6739  1.0505
  832MOL0     H14778   6.022   7.567   8.178 -1.4081 -2.1084  0.5080
  832MOL0     H14779   5.931   7.469   8.369  0.6492  0.2224 -2.5287
  832MOL0     H14780   5.749   7.511   8.581 -1.9219  0.8791  2.3803
  832MOL0     H14781   5.872   7.377   8.570 -1.2795 -0.1012 -1.6319
  832MOL0     H14782   5.760   7.341   8.790  1.5754 -1.2156  0.2748
  832MOL0     H14783   5.906   7.413   8.817  0.0132  0.7333 -0.4802
  832MOL0     H14784   5.808   7.639   8.838 -0.9657  1.6493  0.7284
  832MOL0     H14785   5.744   7.521   8.957  1.5091  1.2123  0.4835
  832MOL0     H14786   5.531   7.508   8.813 -0.4310 -1.0268 -1.9148
  832MOL0     H14787   5.610   7.613   8.690 -1.8657  1.8452  0.7372
  832MOL0     H14788   5.588   7.713   8.968  0.8938  0.8353 -0.2298
  832MOL0     H14789   5.588   7.799   8.810 -0.8608 -0.2587 -1.4739
  832MOL0     H14790   5.358   7.625   8.882 -1.0135  1.1952 -0.0072
  832MOL0     H14791   5.373   7.723   8.742  1.3615  1.0334 -0.5351
  832MOL0     H14792   5.417   7.906   8.949 -0.5947 -0.1922  0.8031
  832MOL0     H14793   5.296   7.798   9.021  1.7883 -1.3555  1.4911
  832MOL0     H14794   5.147   7.840   8.791 -1.7994  1.5357  0.3264
  832MOL0     H14795   5.277   7.949   8.749 -3.1226  0.9590 -1.8887
  832MOL0     H14796   6.056   7.797   8.607 -1.5020 -0.4477  0.6429
  832MOL0     H14797   6.138   7.911   8.407  0.1416 -0.3233  1.1369
  832MOL0     H14798   6.172   7.945   7.954  0.4655 -1.4435 -1.0195
  832MOL0     H14799   6.248   8.020   7.764  0.2376  2.6940  1.0460
  832MOL0     H14800   7.813   7.516   7.349  1.0615 -1.0781 -1.8147
  832MOL0     H14801   7.960   7.387   7.217 -1.6109  0.2096 -0.6485
  832MOL0     H14802   8.405   7.025   7.416  0.6594 -0.6478 -1.4316
  832MOL0     H14803   8.517   6.832   7.306 -1.9060 -1.4698 -0.9742
  832MOL0     H14804   8.373   6.667   7.014  1.2160  0.1323  2.2583
  832MOL0     H14805   8.391   6.767   6.884  1.5492  1.5622  0.5734
  832MOL0     H14806   8.613   6.575   6.965 -0.6383 -0.7860 -0.0150
  832MOL0     H14807   8.614   6.651   6.812 -1.9442  1.2109 -0.9086
  832MOL0     H14808   8.406   6.460   6.913  3.4362 -1.6707  1.2821
  832MOL0     H14809   8.376   6.552   6.768 -2.8973 -0.9794  2.8898
  832MOL0     H14810   8.605   6.354   6.835 -0.7598 -3.1574 -1.3788
  832MOL0     H14811   8.603   6.472   6.698  1.3063  0.0194  1.0308
  832MOL0     H14812   8.362   6.170   6.568 -0.2350  0.7189  1.2266
  832MOL0     H14813   8.407   7.007   6.932  1.7217 -1.6073  0.2548
  832MOL0     H14814   8.184   7.272   7.057 -0.0507  1.0696 -1.7687
  832MOL0     H14815   8.353   7.330   7.074  0.6265 -0.0570  0.7641
  832MOL0     H14816   8.299   7.248   6.927  2.0642 -0.3363  0.4498
  833MOL0     O14817  10.967   4.225   7.282 -0.1823  0.3675 -0.7296
  833MOL0     C14818  10.856   4.169   7.288 -0.4359 -0.5338 -0.8597
  833MOL0     O14819  10.814   4.081   7.380 -0.5983 -0.1623 -0.1863
  833MOL0     C14820  10.903   4.032   7.476  1.3392 -0.2668  0.5930
  833MOL0     C14821  10.986   4.114   7.551 -0.8668  0.3237 -1.0219
  833MOL0     C14822  11.064   4.062   7.655 -0.5714  0.8544 -0.0175
  833MOL0     C14823  11.059   3.927   7.684  0.5842 -0.4134 -0.1088
  833MOL0     O14824  11.110   3.863   7.798 -0.1250  0.0546  0.2166
  833MOL0     C14825  11.202   3.938   7.882  0.2465 -0.2329  0.0708
  833MOL0     C14826  11.347   3.918   7.836  0.2641 -0.2788  0.2932
  833MOL0     C14827  11.449   3.990   7.929  0.1693 -1.4952  0.2865
  833MOL0     C14828  11.415   4.144   7.954  0.2347 -0.3298 -0.8140
  833MOL0     C14829  11.539   4.218   8.015 -0.6530 -0.2055 -0.6323
  833MOL0     C14830  11.600   4.155   8.145  0.1426  1.4677 -0.0971
  833MOL0     C14831  11.702   4.243   8.205 -0.5078 -0.3905 -0.4088
  833MOL0     C14832  11.837   4.218   8.135 -0.2381  1.0319 -0.0070
  833MOL0     N14833  11.939   4.291   8.207  0.5931 -0.1960  0.0335
  833MOL0     C14834  12.053   4.233   8.245 -0.8637  0.4495  0.1010
  833MOL0     C14835  12.121   4.344   8.304  0.6938  1.4294 -0.1996
  833MOL0     C14836  12.251   4.329   8.372  1.1607  0.2875 -0.3717
  833MOL0     C14837  12.341   4.440   8.319 -1.1791 -0.1463  0.0466
  833MOL0     C14838  12.490   4.419   8.361  0.2785  1.1364  0.5161
  833MOL0     C14839  12.580   4.498   8.266 -0.1226 -0.7625 -0.0129
  833MOL0     O14840  12.564   4.637   8.290  0.0138 -0.3192  0.6188
  833MOL0     C14841  12.630   4.734   8.229  0.7689 -0.0212  0.0919
  833MOL0     C14842  12.748   4.708   8.150  1.0999 -0.1332  0.4649
  833MOL0     C14843  12.822   4.817   8.098 -0.3874 -0.5032  0.0578
  833MOL0     C14844  12.933   4.774   8.006 -0.6220 -0.0488  0.0974
  833MOL0     C14845  12.776   4.948   8.111 -0.4137  0.1935  0.5833
  833MOL0     C14846  12.838   5.070   8.055  0.2019 -0.6507 -0.1327
  833MOL0     O14847  12.752   5.177   8.040 -0.2184  0.6150  0.2955
  833MOL0     C14848  12.815   5.301   8.040 -0.4299 -0.4370  0.1171
  833MOL0     C14849  12.790   5.397   8.152 -1.1129  0.3054 -0.1641
  833MOL0     C14850  12.833   5.526   8.142  0.3572  0.1915  0.9442
  833MOL0     C14851  12.909   5.570   8.029  0.1634  1.0600 -0.1826
  833MOL0     O14852  12.950   5.696   8.014 -0.2602  0.6136  0.8508
  833MOL0     C14853  12.852   5.794   8.041 -0.4846 -0.6340  1.1490
  833MOL0     C14854  12.900   5.920   7.968 -0.1827 -0.9669 -0.3524
  833MOL0     C14855  12.819   6.042   8.008 -0.3504  0.0961 -0.0947
  833MOL0     C14856  12.816   6.166   7.908 -0.1665  0.0041 -0.7197
  833MOL0     C14857  12.755   6.278   7.981 -0.2148 -0.0865  0.0449
  833MOL0     C14858  12.702   6.379   7.878  0.0375  0.2118 -0.5478
  833MOL0     C14859  12.649   6.509   7.950  0.5472  0.0187  0.6394
  833MOL0     C14860  12.751   6.617   7.933 -0.0839  1.2801  0.0725
  833MOL0    Cl14861  12.889   6.582   8.025  0.4997 -0.0704 -0.2331
  833MOL0     C14862  12.922   5.478   7.923  0.0770 -0.0694  0.6163
  833MOL0     C14863  12.883   5.348   7.921 -0.6656  1.0176  0.1271
  833MOL0     O14864  12.965   5.074   8.029 -0.5381  0.2086  0.1233
  833MOL0     C14865  12.663   4.968   8.188  1.2751  0.0675 -0.2600
  833MOL0     C14866  12.597   4.862   8.254 -0.6553  0.2440 -0.4457
  833MOL0     N14867  12.057   4.467   8.270  0.7077  0.0395 -0.4134
  833MOL0     N14868  11.937   4.430   8.223 -0.6301  0.4017  0.7086
  833MOL0     C14869  10.983   3.839   7.598 -0.2089  0.1424  0.0539
  833MOL0     C14870  10.907   3.895   7.490 -0.3798 -0.1934  1.2265
  833MOL0     C14871  10.740   4.215   7.212  0.0891  0.3730  0.2785
  833MOL0     C14872  10.615   4.146   7.231  0.4331 -0.1708  0.6676
  833MOL0     C14873  10.509   4.191   7.145  0.5437  0.4258  1.2198
  833MOL0     C14874  10.522   4.284   7.042  0.5179 -0.4368  0.1618
  833MOL0     O14875  10.420   4.306   6.958 -0.1066 -0.6534  0.3971
  833MOL0     C14876  10.443   4.270   6.820  0.3034  0.6144  0.3118
  833MOL0     C14877  10.339   4.328   6.732  0.5293 -0.3533 -0.4464
  833MOL0     C14878  10.207   4.242   6.725  0.6442  0.5235  0.2128
  833MOL0     C14879  10.099   4.288   6.618  0.1306  0.1651  0.5817
  833MOL0     C14880  10.108   4.432   6.581  0.9974  0.1028  0.9124
  833MOL0     C14881  10.097   4.555   6.553 -0.2822  0.2330  0.6246
  833MOL0     C14882  10.641   4.342   7.017 -0.3256  0.2339  0.0322
  833MOL0     C14883  10.747   4.317   7.107 -0.5164  0.5891 -0.3475
  833MOL0     C14884  10.865   4.411   7.101  0.0648 -0.1455  0.2070
  833MOL0     H14885  10.993   4.222   7.543  1.7773  0.1013 -3.1645
  833MOL0     H14886  11.098   4.129   7.734 -0.9725 -0.7101  1.5232
  833MOL0     H14887  11.183   3.903   7.984 -2.9744 -2.7797 -1.2166
  833MOL0     H14888  11.178   4.045   7.878  2.4160  0.2481 -1.6380
  833MOL0     H14889  11.366   3.811   7.822 -0.6791 -0.6126  1.3666
  833MOL0     H14890  11.355   3.968   7.739 -0.2914 -1.3613 -0.3337
  833MOL0     H14891  11.457   3.931   8.021 -1.2396  0.1365  1.5269
  833MOL0     H14892  11.545   3.995   7.877  1.5867  2.1542  2.8008
  833MOL0     H14893  11.388   4.188   7.857  1.2437 -2.3586 -2.0816
  833MOL0     H14894  11.334   4.159   8.025  2.0542  2.5485  0.8720
  833MOL0     H14895  11.509   4.318   8.045 -1.3623 -0.6662  0.2577
  833MOL0     H14896  11.620   4.221   7.941  0.0442 -2.1065 -0.0151
  833MOL0     H14897  11.528   4.127   8.223 -0.8674  0.4424 -1.3665
  833MOL0     H14898  11.637   4.056   8.118 -2.9751 -0.2046  1.2201
  833MOL0     H14899  11.713   4.213   8.310  1.7239  2.4104  0.2809
  833MOL0     H14900  11.671   4.348   8.194  0.9478  0.1522  0.3788
  833MOL0     H14901  11.849   4.109   8.136 -3.5877  0.5633  0.8382
  833MOL0     H14902  11.835   4.254   8.032 -0.7735 -0.4157 -0.5257
  833MOL0     H14903  12.088   4.130   8.249  2.1887  1.4066  1.9849
  833MOL0     H14904  12.291   4.230   8.348 -2.2185 -1.8075  1.6223
  833MOL0     H14905  12.237   4.329   8.481 -0.2158 -0.9572 -0.5075
  833MOL0     H14906  12.338   4.443   8.209 -3.4577  0.5883  0.0844
  833MOL0     H14907  12.302   4.536   8.354 -1.9182  0.1389 -1.4698
  833MOL0     H14908  12.512   4.448   8.464  1.6415 -2.1159  1.2923
  833MOL0     H14909  12.522   4.314   8.361  0.4505  1.1584 -1.2412
  833MOL0     H14910  12.684   4.467   8.284  1.5453  2.7662 -2.4198
  833MOL0     H14911  12.567   4.463   8.164  6.2181 -0.1338 -1.4758
  833MOL0     H14912  12.775   4.603   8.138  1.0057 -0.1055 -0.0095
  833MOL0     H14913  12.962   4.672   8.035 -1.0625 -0.5989 -1.2868
  833MOL0     H14914  13.021   4.836   8.019  3.0669 -4.9910  1.9447
  833MOL0     H14915  12.901   4.775   7.901 -1.9363  0.7973  0.4834
  833MOL0     H14916  12.732   5.368   8.238 -2.6878 -1.2419 -1.6719
  833MOL0     H14917  12.812   5.595   8.222  1.3827  1.7513 -0.0796
  833MOL0     H14918  12.757   5.771   7.992  0.0341  1.7567 -1.2206
  833MOL0     H14919  12.834   5.811   8.147 -1.9960 -0.6736  0.9155
  833MOL0     H14920  13.003   5.948   7.992 -0.3774 -0.1735 -0.4301
  833MOL0     H14921  12.887   5.912   7.860  1.4675 -0.4742 -0.6098
  833MOL0     H14922  12.855   6.074   8.107  0.9018 -1.7580  0.0900
  833MOL0     H14923  12.717   6.009   8.032 -0.1598 -0.4411 -0.0074
  833MOL0     H14924  12.758   6.133   7.822 -1.0405 -0.1202 -0.0950
  833MOL0     H14925  12.918   6.179   7.872 -0.0129  0.9318  0.0196
  833MOL0     H14926  12.665   6.245   8.033 -1.3525  0.7374 -1.3421
  833MOL0     H14927  12.830   6.324   8.046  1.8669  0.0219 -2.2846
  833MOL0     H14928  12.619   6.328   7.828 -0.6359  2.2893 -1.6537
  833MOL0     H14929  12.769   6.403   7.794 -1.7899 -2.0998 -2.8374
  833MOL0     H14930  12.634   6.486   8.056  2.4306  0.2334  0.9854
  833MOL0     H14931  12.558   6.546   7.903 -0.3025  0.5398  2.5866
  833MOL0     H14932  12.700   6.709   7.963  0.2140  2.6342 -3.1829
  833MOL0     H14933  12.781   6.620   7.828 -1.2113  1.7294 -0.2548
  833MOL0     H14934  12.954   5.523   7.829  0.3746  1.9775  1.6473
  833MOL0     H14935  12.901   5.284   7.834 -0.7516  0.1812  0.7099
  833MOL0     H14936  12.627   5.069   8.205  1.0142 -0.1647  0.6339
  833MOL0     H14937  12.519   4.892   8.322  0.9800  0.5836  1.3808
  833MOL0     H14938  10.979   3.733   7.619  0.6945 -0.4420 -2.4864
  833MOL0     H14939  10.848   3.839   7.418  2.5428  0.7804 -2.2063
  833MOL0     H14940  10.598   4.067   7.303  0.1406 -1.5598 -0.8391
  833MOL0     H14941  10.413   4.143   7.162 -0.1443  0.5426 -1.7697
  833MOL0     H14942  10.541   4.303   6.784 -1.0335  4.8307 -0.0190
  833MOL0     H14943  10.440   4.161   6.813  0.6447  0.4999  1.5908
  833MOL0     H14944  10.389   4.340   6.635  0.6578  0.5004 -0.2783
  833MOL0     H14945  10.305   4.425   6.768  3.4240 -0.0903  1.9147
  833MOL0     H14946  10.243   4.145   6.690  0.7020  0.2197  1.1084
  833MOL0     H14947  10.163   4.237   6.825  0.0805  0.4390 -0.0368
  833MOL0     H14948  10.001   4.272   6.664  0.0911 -2.1038 -0.1832
  833MOL0     H14949  10.111   4.241   6.520  0.3389  3.2131 -1.0001
  833MOL0     H14950  10.111   4.656   6.521  1.0903 -0.1798 -0.1425
  833MOL0     H14951  10.650   4.405   6.929 -2.7370 -1.6752 -1.7583
  833MOL0     H14952  10.887   4.475   7.187 -0.3097 -1.2460  1.1611
  833MOL0     H14953  10.951   4.359   7.059  1.6483  1.1223  1.7218
  833MOL0     H14954  10.829   4.489   7.034 -2.1050 -0.0426  1.3834
  834MOL0     O14955   5.600  10.977  11.164  0.1499  0.0200  0.1553
  834MOL0     C14956   5.514  11.028  11.235  1.1869 -0.1098 -0.4833
  834MOL0     O14957   5.490  11.167  11.242 -0.2909  0.3670 -0.0301
  834MOL0     C14958   5.567  11.250  11.171  0.2839  0.5439 -0.0093
  834MOL0     C14959   5.517  11.331  11.079  0.3870 -1.0467  0.0257
  834MOL0     C14960   5.604  11.408  11.003  0.0861  0.9137 -0.5429
  834MOL0     C14961   5.739  11.414  11.017 -0.6263  0.5827 -0.0945
  834MOL0     O14962   5.816  11.496  10.940  1.0501  0.3482  0.5510
  834MOL0     C14963   5.958  11.491  10.939  0.5498  0.2276  0.3310
  834MOL0     C14964   6.023  11.586  10.832  0.1219 -0.3011 -1.2669
  834MOL0     C14965   6.017  11.739  10.881  0.8502  0.3220 -0.3254
  834MOL0     C14966   6.114  11.784  10.996 -0.5559  0.5516  0.3388
  834MOL0     C14967   6.140  11.933  11.003  0.3202  0.2449 -0.4541
  834MOL0     C14968   6.205  11.969  11.140 -0.0882  0.5047 -0.3189
  834MOL0     C14969   6.329  11.886  11.177 -0.8271 -0.0372 -0.3502
  834MOL0     C14970   6.382  11.885  11.318 -0.5136 -0.5638 -0.1502
  834MOL0     N14971   6.266  11.845  11.406 -0.5317 -0.3998 -0.0743
  834MOL0     C14972   6.209  11.727  11.398  0.8158  0.7165 -0.5283
  834MOL0     C14973   6.121  11.724  11.499 -0.2929 -0.6506 -0.1490
  834MOL0     C14974   6.036  11.611  11.539  0.1431 -0.1527 -0.8602
  834MOL0     C14975   5.968  11.534  11.426  1.2039 -0.7243 -0.0488
  834MOL0     C14976   5.860  11.627  11.356 -0.8921 -0.5063 -0.7661
  834MOL0     C14977   5.745  11.663  11.446  0.1371 -0.0142 -0.7657
  834MOL0     O14978   5.674  11.770  11.376 -0.2298 -0.5153  0.0032
  834MOL0     C14979   5.561  11.817  11.442 -1.0247  0.4691 -0.8680
  834MOL0     C14980   5.472  11.889  11.355  0.2345 -0.4090 -0.4889
  834MOL0     C14981   5.354  11.953  11.396  0.4367 -0.9171  0.3977
  834MOL0     C14982   5.280  12.019  11.278 -0.5278  0.1051 -0.3779
  834MOL0     C14983   5.310  11.925  11.526 -0.0624 -0.0102  0.0774
  834MOL0     C14984   5.175  11.970  11.565  0.6241 -0.0139 -0.0879
  834MOL0     O14985   5.173  12.004  11.696 -0.2295  0.5986  0.0837
  834MOL0     C14986   5.063  12.061  11.750 -0.1342  0.6706  0.1299
  834MOL0     C14987   5.017  12.010  11.876 -0.0754  0.4305  1.5647
  834MOL0     C14988   4.899  12.057  11.935 -0.0121  0.0380  0.3563
  834MOL0     C14989   4.828  12.157  11.877 -0.6605 -0.3524  0.3507
  834MOL0     O14990   4.714  12.221  11.921  0.0731  0.3550 -0.2371
  834MOL0     C14991   4.674  12.193  12.059 -0.3286  0.3721  0.7578
  834MOL0     C14992   4.574  12.297  12.101  0.0950  0.6823  0.1763
  834MOL0     C14993   4.649  12.421  12.099  0.6151 -0.1524 -1.0262
  834MOL0     C14994   4.563  12.544  12.126 -0.5550  0.7622  0.0197
  834MOL0     C14995   4.651  12.666  12.113  1.2285  0.8669  0.5081
  834MOL0     C14996   4.563  12.788  12.140  0.9151 -0.3178  0.4870
  834MOL0     C14997   4.619  12.905  12.065 -0.0467 -0.9932 -0.6503
  834MOL0     C14998   4.752  12.946  12.119  0.4648 -0.8459 -1.3318
  834MOL0    Cl14999   4.734  13.007  12.288 -0.0913 -0.4051 -0.4527
  834MOL0     C15000   4.878  12.210  11.750  0.1602 -0.2124  1.1063
  834MOL0     C15001   4.984  12.157  11.687  0.1558 -0.6074 -0.1627
  834MOL0     O15002   5.086  11.990  11.483  0.0151  0.8094  0.0434
  834MOL0     C15003   5.398  11.868  11.618 -0.2740 -0.4489  0.3619
  834MOL0     C15004   5.527  11.811  11.575  0.3722 -0.0738 -0.8009
  834MOL0     N15005   6.122  11.846  11.565 -0.4621 -0.1494  0.3314
  834MOL0     N15006   6.214  11.916  11.514  0.1744 -0.3375  0.2876
  834MOL0     C15007   5.795  11.335  11.126  0.5074 -0.0359  0.2178
  834MOL0     C15008   5.706  11.254  11.201  0.2169  0.4208  0.7668
  834MOL0     C15009   5.442  10.941  11.336  0.3596 -0.6027  0.1559
  834MOL0     C15010   5.385  11.010  11.449 -0.6904  0.1020 -1.1180
  834MOL0     C15011   5.339  10.930  11.559  0.3966  0.4224 -0.5788
  834MOL0     C15012   5.335  10.793  11.555 -1.2071  0.2188  1.3279
  834MOL0     O15013   5.289  10.736  11.667 -0.5268  0.0779  0.8860
  834MOL0     C15014   5.267  10.595  11.660  0.5203 -0.2661  0.3189
  834MOL0     C15015   5.190  10.557  11.789 -0.3631 -0.0657 -0.8031
  834MOL0     C15016   5.295  10.544  11.906  0.0814 -1.3201  0.4005
  834MOL0     C15017   5.225  10.499  12.037 -0.4914  0.3028 -0.1013
  834MOL0     C15018   5.156  10.608  12.114 -0.7462  0.9028  0.6523
  834MOL0     C15019   5.097  10.685  12.186 -0.6602  0.1702  0.4929
  834MOL0     C15020   5.375  10.731  11.438  0.3545  0.1281 -0.3426
  834MOL0     C15021   5.434  10.796  11.327  0.0492  0.0369  0.6079
  834MOL0     C15022   5.476  10.711  11.208  0.1236 -0.4501  0.3438
  834MOL0     H15023   5.411  11.329  11.054  0.5920 -2.9744 -0.7775
  834MOL0     H15024   5.558  11.461  10.921  1.0411  1.7193 -0.5759
  834MOL0     H15025   5.972  11.387  10.907 -0.2874  0.6037 -1.4055
  834MOL0     H15026   5.981  11.504  11.045  2.1918 -2.2283  0.3506
  834MOL0     H15027   6.125  11.549  10.828  0.9361  1.4531  1.0480
  834MOL0     H15028   5.969  11.578  10.738 -2.9672  1.7422  0.1549
  834MOL0     H15029   6.029  11.791  10.785 -6.1264  1.7543 -0.9314
  834MOL0     H15030   5.913  11.750  10.912 -0.4247 -2.0981 -3.2265
  834MOL0     H15031   6.068  11.757  11.092 -1.9678  1.6963  0.0294
  834MOL0     H15032   6.214  11.743  10.979  0.0390  3.0468 -3.2646
  834MOL0     H15033   6.045  11.986  10.997 -0.1750  0.1248  3.6740
  834MOL0     H15034   6.201  11.954  10.914  2.0088 -1.1288  0.3008
  834MOL0     H15035   6.231  12.075  11.135 -0.6082  0.5901 -3.1902
  834MOL0     H15036   6.128  11.956  11.216  0.6290 -2.7549  0.0164
  834MOL0     H15037   6.403  11.932  11.110 -0.0135 -1.6134 -0.5696
  834MOL0     H15038   6.317  11.783  11.142  1.7868 -1.0981  1.5867
  834MOL0     H15039   6.456  11.806  11.329  3.2706  2.7926  1.1302
  834MOL0     H15040   6.431  11.975  11.358 -0.2608 -1.3514  1.3901
  834MOL0     H15041   6.216  11.648  11.323 -0.4928  0.5476 -0.4977
  834MOL0     H15042   5.964  11.645  11.613 -0.1942 -1.4396 -0.5626
  834MOL0     H15043   6.101  11.532  11.579  1.2009  0.2215 -1.7730
  834MOL0     H15044   6.045  11.506  11.353  3.8827  0.8191  2.0029
  834MOL0     H15045   5.916  11.441  11.451  0.3231  0.0203  0.9604
  834MOL0     H15046   5.903  11.724  11.329 -0.2823 -0.1121  1.4469
  834MOL0     H15047   5.820  11.584  11.264 -1.4805  3.2962 -2.5126
  834MOL0     H15048   5.683  11.573  11.452 -1.7560  1.0642 -2.7686
  834MOL0     H15049   5.770  11.708  11.542  0.3921 -1.1569 -0.2751
  834MOL0     H15050   5.498  11.907  11.251 -3.8725  0.6656 -1.4867
  834MOL0     H15051   5.223  12.111  11.296 -0.4878  0.2204 -0.8178
  834MOL0     H15052   5.198  11.950  11.257 -1.9379  0.7396  2.5387
  834MOL0     H15053   5.350  12.041  11.196  1.7577 -2.8362  0.6166
  834MOL0     H15054   5.081  11.940  11.929 -1.9072 -1.5682  1.2963
  834MOL0     H15055   4.867  12.022  12.033 -1.3927 -0.7217 -0.3373
  834MOL0     H15056   4.634  12.092  12.055 -0.6118  0.5108 -2.5674
  834MOL0     H15057   4.759  12.192  12.129 -2.0226 -1.4641  2.9153
  834MOL0     H15058   4.493  12.300  12.028 -0.5984 -0.9086  0.8308
  834MOL0     H15059   4.533  12.262  12.196 -2.0280  1.1952 -0.4792
  834MOL0     H15060   4.704  12.442  12.007  2.5121 -1.5317 -0.2754
  834MOL0     H15061   4.727  12.413  12.175  1.9127 -0.2848 -2.3283
  834MOL0     H15062   4.522  12.539  12.227  2.2609 -2.2760  1.1945
  834MOL0     H15063   4.474  12.551  12.062 -0.2420  2.9270 -0.2532
  834MOL0     H15064   4.729  12.676  12.188 -0.2795  1.1739  2.0959
  834MOL0     H15065   4.691  12.658  12.012  0.5797 -2.0241  0.3873
  834MOL0     H15066   4.558  12.813  12.246  1.1303  1.6525  0.0639
  834MOL0     H15067   4.461  12.762  12.110  1.1685 -1.9182  0.9275
  834MOL0     H15068   4.549  12.987  12.081 -0.1089 -1.0040 -0.8697
  834MOL0     H15069   4.618  12.883  11.958 -2.1826  0.9121 -1.0976
  834MOL0     H15070   4.802  13.023  12.060  2.1617 -1.3813 -0.6571
  834MOL0     H15071   4.828  12.867  12.127  1.3300  0.1100  0.5085
  834MOL0     H15072   4.821  12.290  11.703  0.3230  0.3564  1.8676
  834MOL0     H15073   5.025  12.201  11.597  2.5615  0.8866  1.5531
  834MOL0     H15074   5.362  11.853  11.719  2.5501  1.2344  1.7349
  834MOL0     H15075   5.592  11.763  11.648  1.6138  3.3946  0.6238
  834MOL0     H15076   5.900  11.313  11.139  0.2694 -1.3445  0.1001
  834MOL0     H15077   5.737  11.180  11.275 -1.2034 -0.0091  0.9635
  834MOL0     H15078   5.381  11.118  11.456 -2.4249  0.1034 -1.7331
  834MOL0     H15079   5.304  10.971  11.653 -0.6497  2.4995 -1.7903
  834MOL0     H15080   5.201  10.564  11.578 -0.4006 -1.4164  1.4513
  834MOL0     H15081   5.360  10.540  11.649  0.8323  0.6902 -2.4851
  834MOL0     H15082   5.135  10.463  11.778 -1.0400  0.3711 -1.2173
  834MOL0     H15083   5.124  10.640  11.817  2.4726  2.1329 -0.1703
  834MOL0     H15084   5.367  10.467  11.875 -0.9864 -1.7339 -1.1499
  834MOL0     H15085   5.348  10.633  11.941 -1.5925 -0.4156  0.7373
  834MOL0     H15086   5.301  10.449  12.099 -2.2818 -0.6446  1.4121
  834MOL0     H15087   5.157  10.414  12.025  0.8165 -0.7995  0.0009
  834MOL0     H15088   5.045  10.761  12.241 -0.3797 -1.3888  3.0797
  834MOL0     H15089   5.371  10.623  11.427  0.3486 -0.2899  2.8238
  834MOL0     H15090   5.434  10.745  11.112 -0.1813 -0.9666  0.2892
  834MOL0     H15091   5.584  10.720  11.196  0.1255  1.4515  1.3951
  834MOL0     H15092   5.447  10.606  11.224  1.0431 -0.4277  2.4669
  835MOL0     O15093   2.725   7.276  11.060 -0.4993 -0.4856 -0.5831
  835MOL0     C15094   2.636   7.356  11.033 -0.0060 -0.2111  0.1353
  835MOL0     O15095   2.598   7.389  10.909 -0.4278  0.2046  0.0480
  835MOL0     C15096   2.694   7.366  10.806  0.6583 -0.3828 -0.6947
  835MOL0     C15097   2.638   7.299  10.699  0.2558  0.2876 -1.0005
  835MOL0     C15098   2.705   7.299  10.580 -0.0665  0.9442 -0.0587
  835MOL0     C15099   2.841   7.340  10.576  0.8337 -0.1255 -0.6683
  835MOL0     O15100   2.904   7.314  10.464  0.0716 -0.3496  0.6402
  835MOL0     C15101   3.009   7.405  10.429 -0.4878  0.2473  0.3382
  835MOL0     C15102   3.074   7.324  10.314 -0.7250  0.3965  0.0590
  835MOL0     C15103   3.192   7.410  10.249  0.3239  0.3146 -0.3146
  835MOL0     C15104   3.246   7.352  10.127 -0.3679 -0.2508  0.1765
  835MOL0     C15105   3.373   7.423  10.068  0.5329 -0.0267  0.3282
  835MOL0     C15106   3.340   7.565  10.009  0.7540  0.9551  0.1848
  835MOL0     C15107   3.462   7.601   9.926 -0.3430 -0.3491 -0.1601
  835MOL0     C15108   3.450   7.740   9.860 -0.2403 -0.2057  0.3840
  835MOL0     N15109   3.314   7.753   9.795 -0.5694  0.5656  0.5611
  835MOL0     C15110   3.305   7.680   9.678  0.3137 -0.4280 -0.5803
  835MOL0     C15111   3.177   7.693   9.632  0.4832 -0.6032  0.1326
  835MOL0     C15112   3.115   7.619   9.527 -0.5001  0.0448  0.0543
  835MOL0     C15113   2.964   7.634   9.508  0.7343 -0.2319  0.4813
  835MOL0     C15114   2.942   7.779   9.449 -0.8181  0.1918  0.7357
  835MOL0     C15115   2.796   7.790   9.394 -0.1671  0.6801 -0.4055
  835MOL0     O15116   2.735   7.916   9.386  0.3231  0.3933 -0.2599
  835MOL0     C15117   2.726   7.997   9.496 -0.8607  0.2776 -1.4305
  835MOL0     C15118   2.722   8.133   9.476  1.3343  0.1520  1.0761
  835MOL0     C15119   2.707   8.225   9.575 -1.0167 -0.3642 -0.7697
  835MOL0     C15120   2.720   8.373   9.539 -0.0184 -0.5377 -0.0118
  835MOL0     C15121   2.676   8.185   9.713  0.4786 -0.2699 -0.2486
  835MOL0     C15122   2.633   8.274   9.831 -0.0797  0.2535 -0.3374
  835MOL0     O15123   2.601   8.408   9.809  0.1968  0.7801  0.4383
  835MOL0     C15124   2.547   8.475   9.916 -0.1935  0.4968  0.2125
  835MOL0     C15125   2.618   8.572   9.981  0.3402 -0.8341 -0.1347
  835MOL0     C15126   2.564   8.653  10.084  0.2796 -0.4067  0.5321
  835MOL0     C15127   2.431   8.646  10.115  0.3856  0.0619  0.0588
  835MOL0     O15128   2.372   8.731  10.201  0.0094 -0.4514  0.0818
  835MOL0     C15129   2.230   8.746  10.224 -0.6545  0.2003 -0.1640
  835MOL0     C15130   2.213   8.860  10.326  0.5177  0.3520 -0.0952
  835MOL0     C15131   2.085   8.941  10.280 -0.6183 -0.1312  0.0931
  835MOL0     C15132   2.121   9.043  10.171 -0.2107  1.2420 -0.9299
  835MOL0     C15133   2.001   9.092  10.100  0.8485 -0.6197 -0.1973
  835MOL0     C15134   1.888   9.136  10.197  0.6419  0.6657  0.0964
  835MOL0     C15135   1.780   9.213  10.128 -0.1096 -0.5980  0.4798
  835MOL0     C15136   1.675   9.126  10.073  0.3963  0.8443  0.3499
  835MOL0    Cl15137   1.583   9.226   9.951 -0.0958 -0.2734 -0.2373
  835MOL0     C15138   2.355   8.549  10.042  0.1934  0.3948 -0.1867
  835MOL0     C15139   2.409   8.457   9.950  0.6150 -0.2350  0.1920
  835MOL0     O15140   2.646   8.221   9.940  0.6450  0.0202 -0.4034
  835MOL0     C15141   2.688   8.043   9.740 -0.4582  1.0861 -0.5658
  835MOL0     C15142   2.717   7.957   9.635 -0.7487  0.4250  0.2476
  835MOL0     N15143   3.120   7.774   9.728  0.9255 -0.1363  0.2458
  835MOL0     N15144   3.192   7.809   9.825  0.3640  0.4396  0.3842
  835MOL0     C15145   2.896   7.409  10.683  0.6171 -0.1721 -0.0222
  835MOL0     C15146   2.819   7.423  10.794  0.1739 -1.1393 -0.4229
  835MOL0     C15147   2.565   7.412  11.147 -0.4298  0.5285  0.9159
  835MOL0     C15148   2.493   7.524  11.120 -0.4369 -0.0382 -0.1987
  835MOL0     C15149   2.416   7.590  11.214 -0.4037  0.3359 -0.0847
  835MOL0     C15150   2.416   7.544  11.347  0.3437  0.4407  0.0139
  835MOL0     O15151   2.325   7.608  11.432  0.3764 -0.1255 -0.3741
  835MOL0     C15152   2.336   7.563  11.574 -0.6375  0.0845 -0.2352
  835MOL0     C15153   2.272   7.673  11.649 -1.1138  0.0083  0.8652
  835MOL0     C15154   2.124   7.650  11.670  0.6479  0.4011  0.6273
  835MOL0     C15155   2.066   7.763  11.766 -0.4255  0.0911 -0.6717
  835MOL0     C15156   1.916   7.732  11.790  0.6719  0.3828  0.7623
  835MOL0     C15157   1.797   7.714  11.816  0.4485 -0.0216  0.5365
  835MOL0     C15158   2.499   7.427  11.379 -0.4308 -0.3780  0.8939
  835MOL0     C15159   2.576   7.364  11.280 -0.4887 -1.0390 -0.6689
  835MOL0     C15160   2.665   7.251  11.326 -0.1574 -0.0261 -0.7621
  835MOL0     H15161   2.537   7.262  10.717  1.5623 -2.4059  1.6022
  835MOL0     H15162   2.664   7.251  10.493 -3.8474  2.5137  0.6308
  835MOL0     H15163   3.075   7.420  10.515 -0.4565 -1.2892  0.6099
  835MOL0     H15164   2.971   7.500  10.388  0.0240  1.2956  2.1627
  835MOL0     H15165   3.109   7.225  10.342 -1.9235  0.0461  0.3841
  835MOL0     H15166   3.002   7.320  10.231 -1.6763  0.4551  0.8618
  835MOL0     H15167   3.158   7.511  10.226 -0.1080  0.5255  1.1081
  835MOL0     H15168   3.276   7.422  10.318 -1.0859 -2.4792  2.1395
  835MOL0     H15169   3.278   7.249  10.147  0.9754  0.0576 -0.2691
  835MOL0     H15170   3.168   7.363  10.051  0.4484  0.8917 -0.5213
  835MOL0     H15171   3.406   7.356   9.989 -0.7667 -1.1960  0.7210
  835MOL0     H15172   3.442   7.428  10.153 -2.2182 -1.6416  2.8879
  835MOL0     H15173   3.260   7.552   9.935  1.3678  1.1460 -0.5312
  835MOL0     H15174   3.299   7.637  10.080  2.2204  1.4648  0.5563
  835MOL0     H15175   3.487   7.522   9.855 -2.1209 -0.3812 -0.7952
  835MOL0     H15176   3.546   7.613   9.996 -2.4395  1.5880  2.2451
  835MOL0     H15177   3.460   7.820   9.933 -0.0638  1.7584 -1.6812
  835MOL0     H15178   3.538   7.750   9.796  0.8408 -2.9935  1.2568
  835MOL0     H15179   3.390   7.636   9.626  0.4524 -2.0901  0.9471
  835MOL0     H15180   3.142   7.520   9.564  2.5778  1.0813  0.9444
  835MOL0     H15181   3.175   7.637   9.437  0.9569  0.6565  1.1003
  835MOL0     H15182   2.929   7.557   9.438  1.6137  0.5701 -0.8930
  835MOL0     H15183   2.912   7.633   9.603 -0.0983 -0.5405  0.0318
  835MOL0     H15184   2.975   7.855   9.520 -2.2856  0.3486  1.2949
  835MOL0     H15185   2.990   7.799   9.353 -0.5037 -0.3933  0.7726
  835MOL0     H15186   2.794   7.746   9.294  0.3829  0.0835 -0.1572
  835MOL0     H15187   2.740   7.731   9.467  1.8383  0.2401  0.8513
  835MOL0     H15188   2.727   8.173   9.376  2.9165  0.6558  1.3208
  835MOL0     H15189   2.627   8.426   9.561  0.5150 -0.3226  1.8753
  835MOL0     H15190   2.748   8.390   9.434  0.4555  3.4847  0.6177
  835MOL0     H15191   2.789   8.432   9.600  0.5430  0.8297 -1.8855
  835MOL0     H15192   2.717   8.595   9.943  0.1526 -1.0677 -0.7801
  835MOL0     H15193   2.626   8.730  10.127 -0.3747  0.0586  0.6633
  835MOL0     H15194   2.183   8.773  10.129 -1.4483  2.5878  0.8219
  835MOL0     H15195   2.194   8.655  10.272  2.3429 -1.7884 -1.3658
  835MOL0     H15196   2.174   8.813  10.417  0.2094 -0.8485 -0.8223
  835MOL0     H15197   2.289   8.936  10.343 -0.0672  0.6413  1.3709
  835MOL0     H15198   2.041   8.980  10.372 -0.3111 -1.9006  1.0492
  835MOL0     H15199   2.009   8.870  10.247 -0.5638 -0.2751  0.2762
  835MOL0     H15200   2.186   8.997  10.097  2.0839 -1.0339  2.2086
  835MOL0     H15201   2.177   9.125  10.218 -1.3142  0.3324  2.2913
  835MOL0     H15202   2.029   9.176  10.036  0.7449  0.2349  0.8535
  835MOL0     H15203   1.973   9.014  10.029  0.2475 -0.9859  0.4195
  835MOL0     H15204   1.931   9.208  10.267  1.3571  1.5718 -1.2355
  835MOL0     H15205   1.840   9.047  10.239 -1.4390  1.5847 -0.1997
  835MOL0     H15206   1.822   9.267  10.042 -1.8878  0.1330  0.0179
  835MOL0     H15207   1.733   9.288  10.192 -1.0866 -0.6225 -0.1861
  835MOL0     H15208   1.620   9.084  10.158 -0.7698  0.1416 -0.7084
  835MOL0     H15209   1.712   9.036  10.022 -0.2880  0.8867 -0.2507
  835MOL0     H15210   2.249   8.536  10.063  0.3218  1.7485  1.5664
  835MOL0     H15211   2.347   8.383   9.900 -0.7939 -0.4102  2.1129
  835MOL0     H15212   2.677   7.999   9.839  0.4426 -2.2690 -1.8446
  835MOL0     H15213   2.718   7.855   9.673 -0.4834  0.5473  0.5735
  835MOL0     H15214   2.998   7.446  10.687  1.3828 -2.1995  0.2103
  835MOL0     H15215   2.846   7.486  10.878  0.7690 -2.2711  0.2742
  835MOL0     H15216   2.484   7.563  11.019 -1.9389 -2.3754 -1.0600
  835MOL0     H15217   2.362   7.679  11.182 -0.8001 -0.1692 -0.8311
  835MOL0     H15218   2.285   7.467  11.588 -1.4793  0.5923  0.2961
  835MOL0     H15219   2.443   7.562  11.597 -0.3594  1.0809 -1.3237
  835MOL0     H15220   2.292   7.767  11.597 -2.7936  0.6269  1.2569
  835MOL0     H15221   2.321   7.678  11.746  1.0647 -0.4466 -0.1495
  835MOL0     H15222   2.068   7.651  11.577 -1.9640  2.7388  2.0907
  835MOL0     H15223   2.106   7.553  11.718  0.6300 -0.5385 -1.2007
  835MOL0     H15224   2.068   7.864  11.724 -1.4699  0.3435 -0.1726
  835MOL0     H15225   2.114   7.761  11.865  0.9107 -0.6984 -1.3123
  835MOL0     H15226   1.696   7.697  11.847 -0.2124  1.4350 -0.6826
  835MOL0     H15227   2.499   7.390  11.481  1.0815 -1.1599  0.6454
  835MOL0     H15228   2.664   7.254  11.435  0.1034 -2.1019 -0.6534
  835MOL0     H15229   2.606   7.169  11.283  0.2066 -0.3951 -0.5613
  835MOL0     H15230   2.769   7.254  11.293  0.3328 -1.7183  0.4850
  836MOL0     O15231  11.239  10.433   5.206  0.2017  0.2549 -0.3415
  836MOL0     C15232  11.251  10.380   5.095  0.5394 -0.8524  0.2404
  836MOL0     O15233  11.243  10.445   4.975 -0.1016  0.3545  0.0382
  836MOL0     C15234  11.193  10.577   4.968  0.8113 -0.7515  0.8620
  836MOL0     C15235  11.070  10.618   5.022 -0.3666 -0.1063  0.7558
  836MOL0     C15236  11.020  10.745   5.003 -0.7427 -0.4675  0.5705
  836MOL0     C15237  11.090  10.840   4.928 -0.6523 -0.0826  0.2949
  836MOL0     O15238  11.043  10.955   4.878  0.1660 -0.3932  0.3126
  836MOL0     C15239  10.919  11.000   4.931 -0.7583  0.0432 -0.4111
  836MOL0     C15240  10.884  11.142   4.877  0.3694  1.2893  0.7633
  836MOL0     C15241  10.851  11.137   4.730 -0.0547  0.4627 -0.7753
  836MOL0     C15242  10.898  11.267   4.655  0.3577  0.1775 -0.6228
  836MOL0     C15243  10.891  11.251   4.495  1.1058  0.8754  1.2056
  836MOL0     C15244  10.992  11.146   4.441 -0.6103 -0.5572  0.6448
  836MOL0     C15245  10.966  11.111   4.297 -0.4121 -1.0755 -0.7694
  836MOL0     C15246  11.087  11.044   4.231  0.3828  0.3157  0.7720
  836MOL0     N15247  11.071  11.058   4.085 -0.0302  0.1088  0.2557
  836MOL0     C15248  11.167  11.075   3.998  0.0779 -0.0311  0.1080
  836MOL0     C15249  11.113  11.069   3.875 -0.4481 -0.3206  0.8304
  836MOL0     C15250  11.166  11.057   3.737  0.6990  0.4728 -0.5968
  836MOL0     C15251  11.059  11.071   3.618  0.5430  0.2273  0.7130
  836MOL0     C15252  11.017  11.220   3.590  0.5828 -0.4774 -0.3932
  836MOL0     C15253  10.946  11.291   3.708 -0.2051  0.1626 -0.3223
  836MOL0     O15254  10.918  11.427   3.685 -0.4925  0.0829 -0.0886
  836MOL0     C15255  10.858  11.488   3.789  0.2617 -0.5790 -1.3825
  836MOL0     C15256  10.805  11.424   3.908  0.2698 -0.4358  0.4279
  836MOL0     C15257  10.757  11.504   4.015 -0.7339 -0.4930  0.2497
  836MOL0     C15258  10.717  11.431   4.146  0.3773  0.1491 -0.2192
  836MOL0     C15259  10.743  11.639   4.000  0.6985  0.2678  0.8501
  836MOL0     C15260  10.673  11.725   4.091 -0.1281 -0.4027  0.4795
  836MOL0     O15261  10.684  11.862   4.071  0.4578  0.2949  0.1399
  836MOL0     C15262  10.623  11.956   4.155  0.4905  0.0930  1.2843
  836MOL0     C15263  10.512  11.934   4.235  0.1973  0.1472 -0.0752
  836MOL0     C15264  10.461  12.028   4.322 -0.7420 -0.3292  0.4088
  836MOL0     C15265  10.531  12.155   4.328  0.8089  0.6784 -0.3181
  836MOL0     O15266  10.484  12.266   4.389 -0.2732  0.4440  0.9445
  836MOL0     C15267  10.365  12.253   4.469  0.7096 -0.6884  0.4471
  836MOL0     C15268  10.318  12.389   4.497 -0.1230 -1.1726 -0.4984
  836MOL0     C15269  10.199  12.381   4.581 -0.2732  0.8438 -0.1403
  836MOL0     C15270  10.178  12.521   4.642  0.3703  0.1378  0.3744
  836MOL0     C15271  10.052  12.527   4.736 -0.9750  0.0981 -0.2306
  836MOL0     C15272   9.993  12.668   4.751 -0.3891 -0.3871  0.2067
  836MOL0     C15273   9.864  12.653   4.833 -0.1137  0.0068  0.6299
  836MOL0     C15274   9.810  12.787   4.870  0.2702  0.4453 -0.4615
  836MOL0    Cl15275   9.762  12.884   4.733 -0.8149  0.1030  0.0065
  836MOL0     C15276  10.643  12.176   4.248  0.7926 -0.0534  0.1013
  836MOL0     C15277  10.680  12.080   4.161  0.0290 -0.0273  0.4193
  836MOL0     O15278  10.617  11.673   4.189  0.9325 -0.2311  0.7936
  836MOL0     C15279  10.791  11.704   3.884  0.9019  0.1988  0.6261
  836MOL0     C15280  10.857  11.632   3.783  0.6801  1.0287  0.4987
  836MOL0     N15281  10.980  11.038   3.899  0.1725 -1.0575 -0.8419
  836MOL0     N15282  10.953  11.047   4.025 -1.0044  0.2927 -1.0370
  836MOL0     C15283  11.214  10.801   4.873 -0.7555 -0.3985  0.2704
  836MOL0     C15284  11.262  10.673   4.888 -0.5948 -0.3872 -0.7748
  836MOL0     C15285  11.254  10.237   5.092 -0.3624 -0.2602  0.0664
  836MOL0     C15286  11.228  10.168   5.218  0.7399 -0.5019  0.1036
  836MOL0     C15287  11.242  10.029   5.225  0.0587 -0.5370 -0.8831
  836MOL0     C15288  11.264   9.957   5.114  0.7140  0.1821  1.7242
  836MOL0     O15289  11.288   9.823   5.125  0.0752 -0.8623  0.4196
  836MOL0     C15290  11.194   9.734   5.065  0.3368 -0.6146 -0.1569
  836MOL0     C15291  11.255   9.591   5.067 -0.2001  0.3719  0.2171
  836MOL0     C15292  11.391   9.583   4.978  0.8562 -0.7288 -0.1951
  836MOL0     C15293  11.452   9.451   4.939 -0.3895 -0.9166  0.1434
  836MOL0     C15294  11.378   9.391   4.830 -0.5538 -0.9427  0.3048
  836MOL0     C15295  11.318   9.330   4.742  0.3025 -0.5494 -1.0211
  836MOL0     C15296  11.273  10.021   4.986  0.5289 -0.5916  0.8474
  836MOL0     C15297  11.280  10.167   4.971 -0.0263 -0.7136 -0.4113
  836MOL0     C15298  11.311  10.223   4.826 -0.6272  0.3345 -0.0649
  836MOL0     H15299  11.014  10.541   5.073 -2.1741  0.3572 -0.4554
  836MOL0     H15300  10.918  10.755   5.039 -0.4258 -2.2182  2.1636
  836MOL0     H15301  10.916  10.999   5.040  0.0207  1.1671 -0.3571
  836MOL0     H15302  10.846  10.929   4.894  0.0158 -0.4989 -0.9352
  836MOL0     H15303  10.805  11.176   4.945 -1.8284 -0.1837 -0.9393
  836MOL0     H15304  10.969  11.209   4.895  2.5033 -0.8694 -0.6337
  836MOL0     H15305  10.907  11.050   4.693 -0.1323  0.1737 -0.2247
  836MOL0     H15306  10.747  11.118   4.703 -0.4384  2.0415 -0.4828
  836MOL0     H15307  10.847  11.348   4.709 -0.5731 -2.3357  2.5894
  836MOL0     H15308  11.003  11.282   4.680  0.2055  0.6539 -0.2521
  836MOL0     H15309  10.903  11.344   4.438 -1.2653 -0.6036 -2.0567
  836MOL0     H15310  10.790  11.221   4.465  0.3156  2.5718  1.9942
  836MOL0     H15311  11.093  11.189   4.440  0.8467 -3.6507 -1.2429
  836MOL0     H15312  10.998  11.051   4.494  0.0021 -2.4076 -2.4840
  836MOL0     H15313  10.939  11.208   4.253  0.5796  0.9481  2.6846
  836MOL0     H15314  10.879  11.046   4.297 -3.0400  1.8317  4.7360
  836MOL0     H15315  11.185  11.079   4.264 -0.5596  0.9120  3.1314
  836MOL0     H15316  11.088  10.936   4.249 -0.5306  0.0686 -0.5426
  836MOL0     H15317  11.273  11.088   4.018 -0.0403  1.3616 -0.0780
  836MOL0     H15318  11.214  10.959   3.729 -0.0301  0.2091 -2.2723
  836MOL0     H15319  11.246  11.132   3.728  1.0575  0.1156 -0.4103
  836MOL0     H15320  11.101  11.019   3.532 -0.8483 -3.1613  1.9088
  836MOL0     H15321  10.972  11.009   3.640  2.3557 -1.8293  2.7319
  836MOL0     H15322  11.114  11.266   3.569  0.6924 -0.9410 -0.9437
  836MOL0     H15323  10.958  11.233   3.498  1.5885 -2.0742 -1.3327
  836MOL0     H15324  10.859  11.228   3.731  1.6091 -1.2049  3.4827
  836MOL0     H15325  11.008  11.281   3.797 -0.1575  3.0800  0.0543
  836MOL0     H15326  10.783  11.318   3.915 -1.9723  0.0232  1.1646
  836MOL0     H15327  10.772  11.465   4.234  2.6106 -3.1456 -0.1709
  836MOL0     H15328  10.750  11.327   4.136 -1.2863 -0.4448  0.0565
  836MOL0     H15329  10.613  11.419   4.178  0.4138  0.7461  0.1291
  836MOL0     H15330  10.455  11.842   4.238  1.5553 -0.7327 -0.3762
  836MOL0     H15331  10.384  11.978   4.379  2.1406  0.3179  5.4451
  836MOL0     H15332  10.284  12.203   4.415 -0.8216  0.9813  1.1024
  836MOL0     H15333  10.395  12.201   4.560  0.5175 -0.9435  0.3671
  836MOL0     H15334  10.392  12.448   4.552 -1.7539 -0.9546  1.6369
  836MOL0     H15335  10.291  12.443   4.406  0.0330  3.8205  2.0660
  836MOL0     H15336  10.224  12.308   4.659 -2.5111  2.2893  2.0941
  836MOL0     H15337  10.108  12.340   4.535 -0.9264  0.4412  1.4456
  836MOL0     H15338  10.167  12.588   4.556 -1.0247  1.5104  1.5521
  836MOL0     H15339  10.259  12.541   4.712 -0.0260  0.5219  0.7299
  836MOL0     H15340   9.975  12.462   4.692 -0.0081 -0.4428 -1.1751
  836MOL0     H15341  10.085  12.490   4.833  0.3275  0.0132 -0.6892
  836MOL0     H15342   9.967  12.717   4.656 -1.2024  4.5594  2.6412
  836MOL0     H15343  10.065  12.734   4.800 -1.5981  1.8139 -0.8463
  836MOL0     H15344   9.872  12.588   4.921  0.4820 -0.0738  0.5267
  836MOL0     H15345   9.788  12.621   4.761 -0.0709  4.7980 -1.9225
  836MOL0     H15346   9.889  12.827   4.933  1.4296 -1.2266 -0.7644
  836MOL0     H15347   9.723  12.773   4.935  0.4798  0.0504 -0.2580
  836MOL0     H15348  10.684  12.276   4.254 -2.2490  1.2004  2.9506
  836MOL0     H15349  10.759  12.097   4.088  0.9918 -2.2835  0.8533
  836MOL0     H15350  10.778  11.812   3.873  3.0916  0.2576 -3.4164
  836MOL0     H15351  10.908  11.674   3.697  0.4798 -0.2345 -0.2611
  836MOL0     H15352  11.274  10.865   4.810  0.9093 -1.8437  0.3180
  836MOL0     H15353  11.345  10.623   4.841 -0.4356  0.5234 -1.4846
  836MOL0     H15354  11.202  10.221   5.309  2.7980  0.7913  0.0004
  836MOL0     H15355  11.229   9.991   5.326 -2.4446  0.0286 -0.9292
  836MOL0     H15356  11.096   9.732   5.113  0.1121  1.6571 -0.3930
  836MOL0     H15357  11.182   9.773   4.963  1.0238  0.2737  0.0859
  836MOL0     H15358  11.181   9.527   5.018 -0.1983 -0.3764  1.1616
  836MOL0     H15359  11.272   9.547   5.166  0.1229  0.9951  0.4395
  836MOL0     H15360  11.362   9.643   4.891 -0.3135  0.8482  1.2249
  836MOL0     H15361  11.460   9.649   5.030 -1.9140  1.7269  0.6456
  836MOL0     H15362  11.451   9.390   5.030 -2.9558  2.4147  2.5806
  836MOL0     H15363  11.560   9.455   4.921 -0.0848 -0.3349  1.9122
  836MOL0     H15364  11.260   9.290   4.662 -1.7156 -1.9679  1.0092
  836MOL0     H15365  11.307   9.963   4.900  2.9058 -0.7329  1.8028
  836MOL0     H15366  11.397  10.289   4.827 -2.1348  2.3964  1.3396
  836MOL0     H15367  11.330  10.139   4.758 -0.6079 -0.6392  1.1073
  836MOL0     H15368  11.226  10.278   4.786 -0.3776  0.6589 -0.1495
  837MOL0     O15369  10.312   8.979   8.148 -0.0798 -0.2036 -0.5419
  837MOL0     C15370  10.244   8.890   8.196  0.4234 -0.2524  0.9277
  837MOL0     O15371  10.283   8.754   8.213 -0.0453 -1.2199 -0.0355
  837MOL0     C15372  10.392   8.693   8.157  0.0656  0.1988  0.5472
  837MOL0     C15373  10.492   8.753   8.066 -0.4273 -0.2774 -0.6993
  837MOL0     C15374  10.600   8.679   8.032 -0.8287 -0.1317 -0.0545
  837MOL0     C15375  10.624   8.554   8.078 -0.3387  0.3000 -0.2680
  837MOL0     O15376  10.746   8.500   8.035  0.7542 -0.3154  0.2202
  837MOL0     C15377  10.812   8.424   8.140 -0.3125 -0.1510 -0.1116
  837MOL0     C15378  10.957   8.405   8.099  0.8790 -0.4844  0.1811
  837MOL0     C15379  11.059   8.488   8.191 -0.2805  0.4582 -0.3686
  837MOL0     C15380  11.073   8.628   8.149 -0.7828 -0.1713 -0.0638
  837MOL0     C15381  11.208   8.688   8.201 -0.5610  0.9526  0.0864
  837MOL0     C15382  11.222   8.842   8.186 -0.5739 -0.1027  0.2359
  837MOL0     C15383  11.316   8.898   8.301  1.1176  0.0405 -0.2095
  837MOL0     C15384  11.228   8.965   8.403 -0.2991  0.0452 -0.4541
  837MOL0     N15385  11.300   9.041   8.510  0.4723 -0.1446  1.0508
  837MOL0     C15386  11.379   9.153   8.485  0.8286  0.1108 -0.0486
  837MOL0     C15387  11.450   9.172   8.597  0.4338 -0.3717 -0.1375
  837MOL0     C15388  11.544   9.275   8.620 -0.5186 -0.1390  0.6371
  837MOL0     C15389  11.674   9.247   8.538 -0.0031  0.2361  0.2441
  837MOL0     C15390  11.729   9.107   8.548 -0.4088 -0.4895 -0.2518
  837MOL0     C15391  11.781   9.084   8.693  0.3137  0.3072  0.0004
  837MOL0     O15392  11.897   9.159   8.718 -0.5288 -0.1450 -0.1181
  837MOL0     C15393  11.953   9.135   8.840 -0.6914  0.4571  0.8073
  837MOL0     C15394  11.891   9.075   8.948  0.5612 -0.2627  0.1535
  837MOL0     C15395  11.956   9.059   9.070 -0.4001 -0.4639  0.4521
  837MOL0     C15396  11.868   9.000   9.179 -0.3327 -0.2255 -0.8163
  837MOL0     C15397  12.099   9.083   9.082 -0.3932  0.4988 -0.6124
  837MOL0     C15398  12.188   9.052   9.206  0.2002 -0.0665  0.5383
  837MOL0     O15399  12.313   9.089   9.206 -0.2436  0.6406 -1.1613
  837MOL0     C15400  12.398   9.057   9.310  0.8202 -0.2729 -0.0840
  837MOL0     C15401  12.366   9.024   9.439 -0.7703  0.4257  0.0716
  837MOL0     C15402  12.471   8.991   9.526 -0.0574 -0.5476 -0.1490
  837MOL0     C15403  12.607   8.991   9.492 -0.3590  0.4533  0.1541
  837MOL0     O15404  12.709   8.979   9.577 -0.7308  0.1592  0.7194
  837MOL0     C15405  12.832   8.924   9.537  0.8743 -0.3657 -0.1089
  837MOL0     C15406  12.896   8.876   9.666 -0.6648 -0.3646 -0.0563
  837MOL0     C15407  12.944   8.724   9.660  1.1437 -0.4004  0.4526
  837MOL0     C15408  13.047   8.685   9.774 -0.2123  0.5938  1.0122
  837MOL0     C15409  13.007   8.751   9.915 -0.6072 -0.7316 -0.3272
  837MOL0     C15410  13.108   8.719  10.020  0.4688 -0.0455  0.3380
  837MOL0     C15411  13.148   8.573  10.039  0.0330  0.8588  0.5046
  837MOL0     C15412  13.272   8.538   9.971  0.4783  0.5575  0.1051
  837MOL0    Cl15413  13.414   8.630  10.036 -0.5336  0.5913  0.0831
  837MOL0     C15414  12.634   9.020   9.354 -0.0740 -1.1107 -0.2727
  837MOL0     C15415  12.530   9.059   9.265 -1.6850  0.9611 -0.3212
  837MOL0     O15416  12.137   8.978   9.285 -0.3363 -0.5740 -0.0741
  837MOL0     C15417  12.163   9.134   8.971 -0.1381 -0.2035 -0.7925
  837MOL0     C15418  12.092   9.157   8.851 -0.3811  0.1156 -0.0156
  837MOL0     N15419  11.416   9.071   8.685  0.1469 -0.6414  0.1852
  837MOL0     N15420  11.323   9.002   8.631 -0.5462  0.1650  1.0863
  837MOL0     C15421  10.539   8.488   8.170  0.1425 -0.4384  0.0219
  837MOL0     C15422  10.418   8.560   8.205  0.3905  1.1346  0.1624
  837MOL0     C15423  10.100   8.929   8.202 -0.1088  1.0402 -0.4536
  837MOL0     C15424  10.041   8.905   8.327 -0.5153 -1.0439 -0.1558
  837MOL0     C15425   9.902   8.932   8.347  0.3818 -0.0283 -0.3337
  837MOL0     C15426   9.825   8.977   8.239 -1.1020 -0.3913  0.4190
  837MOL0     O15427   9.692   9.007   8.248 -0.5094 -0.2778  0.4714
  837MOL0     C15428   9.635   9.059   8.365 -0.5074  0.2204  0.6392
  837MOL0     C15429   9.620   9.211   8.337  0.3330 -0.1483 -0.3075
  837MOL0     C15430   9.550   9.271   8.460  0.1464 -0.0132  0.5174
  837MOL0     C15431   9.521   9.422   8.433 -0.7031  0.2934 -0.9437
  837MOL0     C15432   9.415   9.466   8.338 -0.5300 -0.9997  0.7247
  837MOL0     C15433   9.344   9.521   8.256 -0.3342  0.1564  0.8754
  837MOL0     C15434   9.886   8.997   8.119 -0.2960  0.6564  1.0548
  837MOL0     C15435  10.022   8.972   8.095  0.5061 -0.1307 -0.0205
  837MOL0     C15436  10.074   8.992   7.960  0.3888  0.0932 -1.2925
  837MOL0     H15437  10.486   8.852   8.022  2.0631  1.2388  1.9912
  837MOL0     H15438  10.673   8.728   7.968 -1.4942  0.7583 -0.1397
  837MOL0     H15439  10.759   8.328   8.150 -0.4668  0.1099  2.0570
  837MOL0     H15440  10.806   8.468   8.240  0.7951  0.3541 -0.2610
  837MOL0     H15441  10.973   8.300   8.126 -0.9588 -0.4279  1.6935
  837MOL0     H15442  10.971   8.417   7.992 -1.0494 -2.8681 -0.4241
  837MOL0     H15443  11.022   8.492   8.294 -1.4093  3.8760 -0.7805
  837MOL0     H15444  11.160   8.447   8.190  0.2731  1.7698 -1.4520
  837MOL0     H15445  11.064   8.627   8.040 -3.9603 -2.0344  0.0870
  837MOL0     H15446  10.997   8.693   8.191  0.8937  0.8422  1.5638
  837MOL0     H15447  11.292   8.639   8.150  0.3433  0.4389  1.9681
  837MOL0     H15448  11.208   8.670   8.309 -0.7152 -0.8347 -0.1827
  837MOL0     H15449  11.261   8.869   8.088 -3.3866  0.6957 -0.7600
  837MOL0     H15450  11.121   8.885   8.188 -0.0639  1.2158  2.7083
  837MOL0     H15451  11.389   8.967   8.258  2.0184 -2.0185 -2.1857
  837MOL0     H15452  11.374   8.820   8.350 -1.0902 -0.5502  1.6722
  837MOL0     H15453  11.158   9.035   8.356  0.0809  0.7376 -0.0064
  837MOL0     H15454  11.168   8.888   8.452 -0.3297  0.7126  0.5696
  837MOL0     H15455  11.372   9.216   8.398  1.3683 -0.1523 -0.2844
  837MOL0     H15456  11.564   9.283   8.727 -0.3412  0.5539  0.5547
  837MOL0     H15457  11.505   9.374   8.592  0.0420  1.0172  3.6222
  837MOL0     H15458  11.647   9.269   8.434 -1.2279 -0.9490  0.2909
  837MOL0     H15459  11.756   9.319   8.548  0.8361 -0.6155 -0.2785
  837MOL0     H15460  11.649   9.042   8.512  0.8516 -1.2039 -1.9560
  837MOL0     H15461  11.820   9.080   8.492  0.7957 -0.3362  1.5527
  837MOL0     H15462  11.707   9.106   8.770 -1.0594  1.3300 -1.5646
  837MOL0     H15463  11.800   8.976   8.698 -1.5987 -0.0477  0.2153
  837MOL0     H15464  11.790   9.036   8.939  0.2292  0.6206  0.0364
  837MOL0     H15465  11.851   9.085   9.247  3.6865  0.5092 -0.4740
  837MOL0     H15466  11.911   8.912   9.227 -1.4621  0.9568  2.6835
  837MOL0     H15467  11.773   8.962   9.140  1.1116 -1.2344 -3.6442
  837MOL0     H15468  12.265   9.026   9.480 -0.0777  0.7289  1.8905
  837MOL0     H15469  12.453   8.951   9.625  1.1301 -0.4040  0.1365
  837MOL0     H15470  12.814   8.832   9.479 -0.8445 -0.1687  0.0595
  837MOL0     H15471  12.895   8.984   9.471 -0.6810  2.0231  0.4728
  837MOL0     H15472  12.973   8.947   9.699  0.0214 -2.0137  2.1784
  837MOL0     H15473  12.818   8.882   9.742 -0.7880  0.5198 -0.2466
  837MOL0     H15474  12.989   8.703   9.562  0.9308  0.2395  0.2142
  837MOL0     H15475  12.852   8.666   9.672 -0.0867  1.6737  1.4945
  837MOL0     H15476  13.149   8.714   9.745 -0.2581 -1.8182 -2.2253
  837MOL0     H15477  13.038   8.577   9.785 -1.2957  0.1057 -3.0018
  837MOL0     H15478  12.992   8.860   9.915 -0.2038 -0.6616  1.3015
  837MOL0     H15479  12.914   8.703   9.946  1.0685 -4.4158 -0.5980
  837MOL0     H15480  13.061   8.766  10.107  0.7856  1.9946 -0.5113
  837MOL0     H15481  13.200   8.776  10.001  1.1013 -1.5742 -1.5877
  837MOL0     H15482  13.074   8.514   9.985  0.7564 -0.8008  1.2504
  837MOL0     H15483  13.158   8.550  10.145  4.6867 -4.4247 -0.5737
  837MOL0     H15484  13.257   8.542   9.862 -2.3615 -2.0738  0.2348
  837MOL0     H15485  13.290   8.431   9.986 -2.7202 -0.0279  0.3566
  837MOL0     H15486  12.738   9.018   9.324 -0.0380  1.1793 -0.4222
  837MOL0     H15487  12.558   9.093   9.165  0.9673  1.2553  0.4543
  837MOL0     H15488  12.270   9.150   8.981  0.1079 -1.6281 -0.9930
  837MOL0     H15489  12.138   9.199   8.762 -0.8433  1.1841  0.2411
  837MOL0     H15490  10.562   8.389   8.208 -0.0362  0.3285  2.2263
  837MOL0     H15491  10.351   8.506   8.271 -1.3829  0.9380 -1.7038
  837MOL0     H15492  10.084   8.859   8.415 -3.3241 -0.4482  1.6507
  837MOL0     H15493   9.848   8.900   8.435 -1.1563 -1.3467 -1.6976
  837MOL0     H15494   9.536   9.014   8.377 -2.3126  3.7987  0.6060
  837MOL0     H15495   9.695   9.039   8.454 -1.2283 -1.4182  0.8007
  837MOL0     H15496   9.567   9.228   8.242 -0.9393 -2.4075 -0.0612
  837MOL0     H15497   9.717   9.261   8.337  1.3033 -1.9412 -1.1303
  837MOL0     H15498   9.461   9.211   8.482 -1.4364  2.1158  0.2231
  837MOL0     H15499   9.605   9.257   8.553 -2.7602  2.1382  2.7437
  837MOL0     H15500   9.611   9.481   8.412  1.9176 -3.0477  0.0353
  837MOL0     H15501   9.493   9.446   8.536  0.7865  1.0694 -0.6768
  837MOL0     H15502   9.272   9.566   8.191  1.9051  1.4163 -0.8923
  837MOL0     H15503   9.820   9.030   8.039  0.6482  1.5785  0.6355
  837MOL0     H15504   9.997   8.967   7.887  0.6350 -0.0741 -1.4952
  837MOL0     H15505  10.098   9.099   7.951  0.1524  0.2270 -0.4439
  837MOL0     H15506  10.159   8.925   7.940 -0.6284 -0.5383 -3.7888
  838MOL0     O15507   7.123   1.737   8.913 -0.2183  0.4766  0.2436
  838MOL0     C15508   7.011   1.791   8.915  0.7926 -0.4092  0.1203
  838MOL0     O15509   6.957   1.860   8.812 -0.1580 -0.1917 -0.1796
  838MOL0     C15510   7.028   1.877   8.692 -0.9612  0.3210 -0.2111
  838MOL0     C15511   6.967   1.819   8.582  0.6373  0.4848  0.2759
  838MOL0     C15512   7.029   1.831   8.464 -0.1233 -0.0646 -0.0323
  838MOL0     C15513   7.154   1.898   8.446  0.9826  0.2433 -0.7017
  838MOL0     O15514   7.231   1.897   8.334  0.4888  1.0112 -1.0611
  838MOL0     C15515   7.205   1.851   8.206 -0.0396 -0.3670 -0.9901
  838MOL0     C15516   7.267   1.944   8.090 -0.7435 -1.2077  0.1388
  838MOL0     C15517   7.409   1.888   8.056 -0.7914 -0.2970  0.0729
  838MOL0     C15518   7.503   1.896   8.175  0.1066  0.9293 -0.0912
  838MOL0     C15519   7.640   1.831   8.153 -0.3218  0.2639 -0.3261
  838MOL0     C15520   7.643   1.679   8.144 -1.3661 -0.3599 -0.8157
  838MOL0     C15521   7.786   1.634   8.092  0.3915 -0.6564  0.2666
  838MOL0     C15522   7.904   1.680   8.172 -0.4480  0.2999  0.5887
  838MOL0     N15523   7.885   1.643   8.314  0.2625  0.8996  0.3985
  838MOL0     C15524   7.938   1.528   8.363 -0.2948  0.5817 -0.1511
  838MOL0     C15525   7.925   1.538   8.501 -0.0191 -0.1434 -0.7816
  838MOL0     C15526   7.983   1.443   8.612 -0.6727  0.3372  0.6873
  838MOL0     C15527   8.102   1.513   8.684  0.2159  0.7949 -0.5777
  838MOL0     C15528   8.237   1.437   8.673  1.0265 -0.5750 -0.1857
  838MOL0     C15529   8.237   1.295   8.736 -0.1257 -0.2743  0.5246
  838MOL0     O15530   8.368   1.240   8.723 -0.0860  0.4345  0.3437
  838MOL0     C15531   8.382   1.102   8.740  0.2509  0.4363 -0.2025
  838MOL0     C15532   8.488   1.071   8.830  0.8698  0.5403  0.1340
  838MOL0     C15533   8.494   0.941   8.885 -0.1815 -0.5419  0.1633
  838MOL0     C15534   8.600   0.909   8.987 -0.3350  0.2412 -1.0168
  838MOL0     C15535   8.415   0.841   8.834  0.4966  0.2801  0.1814
  838MOL0     C15536   8.410   0.691   8.878 -0.3791  0.0939 -1.1508
  838MOL0     O15537   8.433   0.665   9.011 -0.8653 -0.4845 -0.6614
  838MOL0     C15538   8.447   0.540   9.060 -0.0907 -0.0888  0.3919
  838MOL0     C15539   8.416   0.537   9.201 -0.5095  0.2565 -0.4886
  838MOL0     C15540   8.438   0.419   9.270 -0.0472 -0.7063  0.5348
  838MOL0     C15541   8.489   0.306   9.202  0.7481  0.6084 -0.1786
  838MOL0     O15542   8.507   0.189   9.269 -0.3831  0.3715  0.4934
  838MOL0     C15543   8.521   0.173   9.413  0.2613 -0.1141  0.5469
  838MOL0     C15544   8.387   0.124   9.455 -0.5446  0.1428  0.3723
  838MOL0     C15545   8.388   0.056   9.598  0.0322  0.7097  0.0378
  838MOL0     C15546   8.490   0.110   9.706 -0.5733  1.0820  0.0438
  838MOL0     C15547   8.470   0.023   9.825  0.5519 -0.5095  0.3501
  838MOL0     C15548   8.575   0.074   9.926  0.5058 -0.3348 -0.1465
  838MOL0     C15549   8.562  -0.018  10.052 -0.0805 -0.1247 -0.2476
  838MOL0     C15550   8.662   0.027  10.162 -0.0610 -0.4667 -0.2516
  838MOL0    Cl15551   8.845   0.020  10.116 -0.2087 -0.6436  0.4124
  838MOL0     C15552   8.511   0.306   9.068 -0.6364  0.0818  0.4524
  838MOL0     C15553   8.480   0.420   8.993  0.1284 -0.0992 -0.0138
  838MOL0     O15554   8.374   0.612   8.792 -0.3692  0.2923 -0.9149
  838MOL0     C15555   8.313   0.868   8.741 -0.5483  0.0923  0.5725
  838MOL0     C15556   8.291   1.002   8.699  0.3585  0.7447  0.1727
  838MOL0     N15557   7.854   1.651   8.527  0.7419 -0.4021  0.9234
  838MOL0     N15558   7.820   1.712   8.417  0.0975 -0.2630 -0.3190
  838MOL0     C15559   7.201   1.971   8.553 -0.5387  0.4102  0.0517
  838MOL0     C15560   7.141   1.952   8.678 -1.0019 -0.2161  0.1958
  838MOL0     C15561   6.918   1.776   9.033 -0.3618 -0.6669  0.1665
  838MOL0     C15562   6.969   1.701   9.137  0.4769  0.3463 -1.3246
  838MOL0     C15563   6.900   1.673   9.251 -0.4227  0.1288  0.4692
  838MOL0     C15564   6.773   1.728   9.276 -0.2283 -0.4654  0.8528
  838MOL0     O15565   6.687   1.698   9.382 -0.7872  0.5909  0.5311
  838MOL0     C15566   6.740   1.593   9.469 -0.7705  0.5994  0.5417
  838MOL0     C15567   6.629   1.551   9.563 -0.5991  0.0022  0.6126
  838MOL0     C15568   6.537   1.459   9.487  0.6799 -0.3006  0.3100
  838MOL0     C15569   6.431   1.382   9.566  1.2907  0.3327 -0.3008
  838MOL0     C15570   6.338   1.470   9.645  0.5675  0.3219 -0.2000
  838MOL0     C15571   6.253   1.546   9.690 -1.4590 -0.5123 -0.5008
  838MOL0     C15572   6.714   1.802   9.168  0.5265  0.0731  0.7707
  838MOL0     C15573   6.788   1.828   9.043 -0.5958  0.2231 -0.2082
  838MOL0     C15574   6.705   1.904   8.943 -0.6540 -0.8048  0.7643
  838MOL0     H15575   6.879   1.758   8.598  0.9468  0.2822  1.2928
  838MOL0     H15576   6.971   1.785   8.385 -2.9536  0.3370  1.6842
  838MOL0     H15577   7.098   1.848   8.184 -0.3575 -1.4703  0.5448
  838MOL0     H15578   7.248   1.751   8.192  2.9808  0.9236 -1.6638
  838MOL0     H15579   7.191   1.952   8.011 -0.3819 -0.1199 -0.1290
  838MOL0     H15580   7.273   2.047   8.127 -0.6870 -1.4429  0.7930
  838MOL0     H15581   7.395   1.785   8.022 -1.3419 -0.5137  0.9196
  838MOL0     H15582   7.460   1.942   7.976  5.6899 -1.3505  2.8019
  838MOL0     H15583   7.515   2.001   8.204  0.0702  1.0266 -0.4312
  838MOL0     H15584   7.459   1.837   8.257  0.2280  0.4961 -0.3349
  838MOL0     H15585   7.713   1.855   8.231  2.6874  0.0645 -2.8730
  838MOL0     H15586   7.682   1.876   8.063  0.1423 -1.1142 -0.8168
  838MOL0     H15587   7.633   1.644   8.248 -0.8521  0.2051 -0.5676
  838MOL0     H15588   7.564   1.637   8.083 -1.0301 -0.4572 -1.1880
  838MOL0     H15589   7.802   1.668   7.989  3.8404  0.3667  1.0211
  838MOL0     H15590   7.784   1.525   8.082 -0.6640 -0.6336  0.0274
  838MOL0     H15591   7.992   1.631   8.130 -2.0561 -1.1996 -1.2202
  838MOL0     H15592   7.930   1.786   8.170  1.9173 -0.1533  2.2237
  838MOL0     H15593   7.990   1.455   8.302  0.2165  0.8240 -0.0119
  838MOL0     H15594   8.021   1.352   8.566 -1.6266 -0.6475  1.7887
  838MOL0     H15595   7.913   1.404   8.686 -1.3650 -1.7207 -0.9298
  838MOL0     H15596   8.121   1.609   8.635 -3.7161  1.6080 -0.8291
  838MOL0     H15597   8.095   1.528   8.792  3.7437 -1.6408  0.1942
  838MOL0     H15598   8.269   1.438   8.569  3.9071  3.6793  0.4658
  838MOL0     H15599   8.317   1.496   8.718 -1.8559  3.0027  0.7721
  838MOL0     H15600   8.200   1.299   8.839 -0.4578 -2.8958  0.5781
  838MOL0     H15601   8.161   1.235   8.685 -2.1154  2.8344 -0.4295
  838MOL0     H15602   8.558   1.149   8.858  2.1151 -1.2744  2.4508
  838MOL0     H15603   8.695   0.960   8.965  0.2637 -0.6625 -0.6078
  838MOL0     H15604   8.618   0.801   8.983 -1.4994 -0.2018  2.3304
  838MOL0     H15605   8.572   0.936   9.090  1.0733 -0.8538 -0.3005
  838MOL0     H15606   8.403   0.630   9.256  1.1118 -0.9589  2.1615
  838MOL0     H15607   8.435   0.410   9.378 -0.4588 -1.3861  0.4717
  838MOL0     H15608   8.599   0.097   9.427 -2.8417 -3.7953 -0.3686
  838MOL0     H15609   8.550   0.264   9.466 -0.9477  0.6774 -0.1018
  838MOL0     H15610   8.318   0.208   9.468  2.4601  2.4669  2.9118
  838MOL0     H15611   8.355   0.052   9.379 -1.4877  0.0900  0.8062
  838MOL0     H15612   8.394  -0.053   9.595 -0.0370  0.7104 -0.1375
  838MOL0     H15613   8.289   0.073   9.643  0.0543 -1.2789  0.9537
  838MOL0     H15614   8.471   0.214   9.734  0.7973  1.6504 -1.0531
  838MOL0     H15615   8.590   0.111   9.662 -1.1101 -0.0137 -1.2774
  838MOL0     H15616   8.376   0.028   9.879  0.7620 -5.6331  1.7615
  838MOL0     H15617   8.480  -0.084   9.803 -0.3378 -0.2583 -1.5197
  838MOL0     H15618   8.561   0.180   9.950 -2.8902 -0.8993  0.8478
  838MOL0     H15619   8.675   0.056   9.885  0.2816  2.0422 -1.9375
  838MOL0     H15620   8.572  -0.127  10.045  2.8195 -0.3774  3.9800
  838MOL0     H15621   8.465  -0.002  10.099  1.7303  2.2652  3.1373
  838MOL0     H15622   8.665  -0.039  10.249  0.2250 -0.3038 -0.1390
  838MOL0     H15623   8.635   0.127  10.197  1.5084 -0.1041 -0.0126
  838MOL0     H15624   8.542   0.216   9.017 -0.1786  0.4952 -0.0150
  838MOL0     H15625   8.513   0.410   8.890  1.5438  1.1841  0.2668
  838MOL0     H15626   8.244   0.795   8.700 -0.3014  0.0958  0.1339
  838MOL0     H15627   8.218   1.031   8.625 -1.3914 -1.2375  1.0182
  838MOL0     H15628   7.297   2.022   8.556 -0.4809  0.4410 -1.6511
  838MOL0     H15629   7.185   1.986   8.771 -1.0153 -1.0242  0.5054
  838MOL0     H15630   7.075   1.680   9.130  1.4924  2.9371  2.7846
  838MOL0     H15631   6.946   1.597   9.313 -0.6549 -1.1210 -0.8342
  838MOL0     H15632   6.795   1.520   9.409  0.6618  1.7217  0.4273
  838MOL0     H15633   6.821   1.646   9.520  1.4548 -0.1010 -2.0335
  838MOL0     H15634   6.584   1.643   9.599  1.3117  2.1167 -1.9969
  838MOL0     H15635   6.681   1.488   9.636  1.6944 -1.7606 -2.3223
  838MOL0     H15636   6.495   1.514   9.402 -0.3830 -0.4363  0.7333
  838MOL0     H15637   6.599   1.376   9.452  0.2333 -0.9281  0.9571
  838MOL0     H15638   6.476   1.312   9.638  2.9395  1.3000 -0.3327
  838MOL0     H15639   6.369   1.333   9.491 -0.4134  0.4380  0.9832
  838MOL0     H15640   6.176   1.611   9.726  1.6129  2.8899  0.5547
  838MOL0     H15641   6.609   1.828   9.180 -0.9675 -3.9365 -1.4910
  838MOL0     H15642   6.604   1.932   8.975 -0.5125  0.5028  0.1074
  838MOL0     H15643   6.754   1.998   8.918  1.1101 -2.2841 -1.8193
  838MOL0     H15644   6.701   1.852   8.847 -4.2256 -0.0093  0.3424
  839MOL0     O15645   8.764   0.808  10.405  0.7228  0.2105  0.4588
  839MOL0     C15646   8.700   0.755  10.493  0.3499 -0.0838 -0.1153
  839MOL0     O15647   8.762   0.722  10.615 -0.0783  0.3899  0.5067
  839MOL0     C15648   8.887   0.659  10.617  0.1265 -0.6053 -0.3258
  839MOL0     C15649   8.940   0.594  10.505  0.1599  0.0470 -0.0917
  839MOL0     C15650   9.078   0.560  10.508  0.4225  0.4977 -0.1905
  839MOL0     C15651   9.155   0.591  10.622 -0.4472  0.5916 -0.4629
  839MOL0     O15652   9.289   0.583  10.613 -0.1340  0.0212  0.2421
  839MOL0     C15653   9.355   0.502  10.709 -0.2731  0.8409  0.6153
  839MOL0     C15654   9.370   0.349  10.679  0.1337 -0.6644  0.5333
  839MOL0     C15655   9.413   0.313  10.535 -0.7316 -0.2110  0.3011
  839MOL0     C15656   9.552   0.358  10.508  0.0447  0.5288 -0.3124
  839MOL0     C15657   9.629   0.282  10.397 -0.0934  0.5378  0.0963
  839MOL0     C15658   9.550   0.281  10.263 -0.3439  0.3340  0.3672
  839MOL0     C15659   9.620   0.222  10.136 -0.0847  0.0494 -1.1482
  839MOL0     C15660   9.715   0.320  10.079  0.9738  0.0276  0.1923
  839MOL0     N15661   9.781   0.262   9.968 -0.2188 -0.3849  0.6472
  839MOL0     C15662   9.728   0.229   9.848  0.3621 -0.1674 -0.3201
  839MOL0     C15663   9.838   0.194   9.770 -0.4302 -1.0605  0.2694
  839MOL0     C15664   9.843   0.182   9.619 -0.1437  0.8242 -1.1703
  839MOL0     C15665   9.844   0.326   9.564  0.6334  1.1522 -0.8171
  839MOL0     C15666   9.960   0.403   9.618  0.1570 -0.2775  0.4698
  839MOL0     C15667   9.968   0.528   9.525 -0.0915  0.3686 -1.2802
  839MOL0     O15668  10.002   0.648   9.591 -0.6567 -0.7770  0.5729
  839MOL0     C15669  10.140   0.657   9.628 -0.1617 -0.3744 -0.4661
  839MOL0     C15670  10.245   0.568   9.592 -0.1523  0.1458 -0.4639
  839MOL0     C15671  10.379   0.573   9.641 -0.3828 -0.1614 -0.0288
  839MOL0     C15672  10.488   0.475   9.590 -0.1835  0.8906  0.0713
  839MOL0     C15673  10.406   0.689   9.730 -0.0901 -0.6838 -0.1548
  839MOL0     C15674  10.539   0.715   9.797  0.4102  0.1577  0.2780
  839MOL0     O15675  10.569   0.846   9.809 -0.3708 -0.1235  0.5201
  839MOL0     C15676  10.671   0.892   9.882  0.0849 -0.3503 -0.3818
  839MOL0     C15677  10.707   0.846  10.011 -0.0321  0.2379  0.2880
  839MOL0     C15678  10.802   0.900  10.090  0.1996  0.4911 -0.0314
  839MOL0     C15679  10.891   1.005  10.049 -0.3464  0.4571 -0.4349
  839MOL0     O15680  11.002   1.033  10.125 -0.6465  0.1849 -0.1086
  839MOL0     C15681  11.086   1.145  10.082  0.3298  0.3733  0.4118
  839MOL0     C15682  11.181   1.166  10.205 -1.6539 -0.4493 -0.3437
  839MOL0     C15683  11.202   1.316  10.209 -0.0766 -0.9440 -0.2849
  839MOL0     C15684  11.282   1.356  10.083  1.0100 -0.0169 -0.5319
  839MOL0     C15685  11.327   1.500  10.090 -0.0117 -0.7914 -0.0727
  839MOL0     C15686  11.399   1.554   9.963 -0.1599  0.6223  0.7603
  839MOL0     C15687  11.450   1.697   9.949  0.0373 -0.1298  0.0611
  839MOL0     C15688  11.385   1.763   9.835  0.1958 -0.2749 -0.4012
  839MOL0    Cl15689  11.214   1.806   9.872  0.2799  0.1395  0.3393
  839MOL0     C15690  10.862   1.053   9.924 -0.5201  0.4878 -0.0144
  839MOL0     C15691  10.751   1.009   9.842  0.1907  0.5944 -0.6575
  839MOL0     O15692  10.599   0.614   9.835 -0.5736 -0.2827 -0.2924
  839MOL0     C15693  10.301   0.775   9.762 -0.6848  0.2517  0.6902
  839MOL0     C15694  10.173   0.769   9.706 -0.0159 -0.9109 -0.3094
  839MOL0     N15695   9.943   0.180   9.858  0.6944 -0.3388 -0.4799
  839MOL0     N15696   9.916   0.225   9.975  0.2917  0.2319  0.9220
  839MOL0     C15697   9.097   0.657  10.733 -0.6389  0.0596 -1.1678
  839MOL0     C15698   8.963   0.701  10.724  0.6057  0.3893 -0.3575
  839MOL0     C15699   8.550   0.730  10.474 -1.0535  0.5108  0.9119
  839MOL0     C15700   8.488   0.655  10.574 -0.1650 -0.5302  0.3117
  839MOL0     C15701   8.357   0.610  10.561  0.1944  0.2592 -0.9403
  839MOL0     C15702   8.275   0.641  10.452 -0.1307 -0.0795  0.5280
  839MOL0     O15703   8.149   0.599  10.439  0.6214  0.2598  0.2386
  839MOL0     C15704   8.119   0.485  10.352 -0.5101  0.2776 -0.8769
  839MOL0     C15705   7.962   0.463  10.351 -0.2907 -0.1534 -0.2971
  839MOL0     C15706   7.901   0.592  10.291  0.4038  0.3687 -0.2636
  839MOL0     C15707   7.752   0.576  10.288  0.9860 -0.7172 -0.0636
  839MOL0     C15708   7.694   0.698  10.239 -0.0441  0.0280  0.2548
  839MOL0     C15709   7.638   0.800  10.200  0.1417  0.9133 -0.3641
  839MOL0     C15710   8.333   0.722  10.356  0.1180  0.4660 -0.3676
  839MOL0     C15711   8.470   0.763  10.358  0.1585 -0.8485  0.6826
  839MOL0     C15712   8.529   0.849  10.238  0.7462 -0.5839 -1.0478
  839MOL0     H15713   8.879   0.568  10.419  1.8386 -1.2518 -0.9477
  839MOL0     H15714   9.107   0.503  10.420 -1.8336  0.2170 -0.7951
  839MOL0     H15715   9.316   0.522  10.809  1.1701 -0.5099  1.4860
  839MOL0     H15716   9.452   0.552  10.713  0.0734  0.8015 -3.3821
  839MOL0     H15717   9.436   0.287  10.740  0.7467  0.6106  1.2022
  839MOL0     H15718   9.265   0.319  10.683 -0.9962  2.3415 -2.0117
  839MOL0     H15719   9.404   0.204  10.528 -4.2076 -0.0899  0.8520
  839MOL0     H15720   9.350   0.361  10.460  0.4274 -0.6603 -1.0049
  839MOL0     H15721   9.524   0.463  10.494 -4.0330 -0.4812 -1.2363
  839MOL0     H15722   9.615   0.353  10.597  0.6255 -2.8539 -0.7848
  839MOL0     H15723   9.653   0.182  10.434  2.9322  1.4695  0.9348
  839MOL0     H15724   9.717   0.343  10.376  0.9445 -0.9283  0.0726
  839MOL0     H15725   9.462   0.220  10.283  0.8743 -1.5685  0.1928
  839MOL0     H15726   9.514   0.383  10.245  0.4928  0.3866 -1.1576
  839MOL0     H15727   9.538   0.205  10.066  1.3142 -1.8211 -2.4484
  839MOL0     H15728   9.661   0.123  10.159 -2.4755 -0.4468  1.5616
  839MOL0     H15729   9.651   0.403  10.049 -3.0907 -2.1932  1.9554
  839MOL0     H15730   9.782   0.367  10.152  0.3748  2.3801 -0.7014
  839MOL0     H15731   9.625   0.255   9.826  0.0898 -1.1061 -0.1976
  839MOL0     H15732   9.763   0.120   9.578 -1.3346  0.0913  1.9631
  839MOL0     H15733   9.934   0.129   9.590  0.4131  0.3033  1.3345
  839MOL0     H15734   9.856   0.324   9.455  2.3524  1.0779 -0.6525
  839MOL0     H15735   9.752   0.382   9.586  0.7742  0.5254  1.6010
  839MOL0     H15736   9.943   0.429   9.723 -2.2842 -1.1396  0.3742
  839MOL0     H15737  10.055   0.350   9.615  0.2407 -0.0655 -1.6692
  839MOL0     H15738  10.042   0.502   9.449 -1.1109 -4.8784 -0.8865
  839MOL0     H15739   9.873   0.541   9.472  0.0323  2.1947 -1.1111
  839MOL0     H15740  10.230   0.481   9.527  0.2315  0.2583 -0.7093
  839MOL0     H15741  10.568   0.538   9.549 -0.6653  1.6859  0.3233
  839MOL0     H15742  10.453   0.411   9.509 -1.0206 -0.3934  1.3981
  839MOL0     H15743  10.534   0.412   9.667 -0.0037 -0.7397 -1.3145
  839MOL0     H15744  10.655   0.759  10.050 -0.1442  0.1357 -0.0827
  839MOL0     H15745  10.823   0.842  10.180 -3.5548  0.5269  1.0588
  839MOL0     H15746  11.139   1.124   9.988 -1.7537 -1.3494 -0.4347
  839MOL0     H15747  11.012   1.225  10.072 -2.4310 -2.1162 -0.2011
  839MOL0     H15748  11.119   1.130  10.287 -1.7087 -2.2280 -1.1143
  839MOL0     H15749  11.270   1.103  10.216  0.2948  2.0652 -0.6815
  839MOL0     H15750  11.250   1.335  10.306  1.3238  1.7292 -1.4090
  839MOL0     H15751  11.102   1.359  10.210  0.2955  0.0778  2.5151
  839MOL0     H15752  11.218   1.345   9.994  2.2006  1.4937 -1.6137
  839MOL0     H15753  11.365   1.285  10.072  0.7659 -0.0469 -2.7181
  839MOL0     H15754  11.239   1.559  10.117 -0.6277 -1.5527 -0.3919
  839MOL0     H15755  11.395   1.516  10.174 -2.8086 -0.4475  2.2682
  839MOL0     H15756  11.321   1.544   9.888  0.4758  1.3527 -0.0263
  839MOL0     H15757  11.485   1.494   9.933  0.8619  2.3535  0.0844
  839MOL0     H15758  11.557   1.720   9.949 -0.0928  0.5419  0.7820
  839MOL0     H15759  11.420   1.755  10.036  3.0514  1.1888  0.3651
  839MOL0     H15760  11.389   1.693   9.751 -1.1380 -1.1812  0.2561
  839MOL0     H15761  11.446   1.850   9.808  0.9154  0.2506  2.6396
  839MOL0     H15762  10.930   1.132   9.894  2.4022 -1.9328 -0.3296
  839MOL0     H15763  10.730   1.051   9.744 -1.2634 -0.2533 -0.7431
  839MOL0     H15764  10.327   0.854   9.832  0.2355  0.5286  0.0544
  839MOL0     H15765  10.103   0.848   9.732  1.4651 -0.5386  3.0255
  839MOL0     H15766   9.160   0.662  10.821 -1.0935 -1.2778 -0.7413
  839MOL0     H15767   8.907   0.756  10.798  0.3652  2.9541 -2.3075
  839MOL0     H15768   8.541   0.618  10.661 -0.1561  1.7939  1.3571
  839MOL0     H15769   8.324   0.541  10.639  2.4652  0.4236  0.2534
  839MOL0     H15770   8.166   0.488  10.253 -1.7947 -0.1381 -1.5083
  839MOL0     H15771   8.166   0.400  10.402  1.1280 -0.8566 -4.0312
  839MOL0     H15772   7.919   0.438  10.449 -1.0242 -1.0235 -0.8310
  839MOL0     H15773   7.941   0.385  10.277  1.3216 -0.4449 -0.4846
  839MOL0     H15774   7.930   0.669  10.364  0.2687  0.5211 -0.3704
  839MOL0     H15775   7.930   0.615  10.188  0.3740 -3.8984 -1.4197
  839MOL0     H15776   7.709   0.559  10.387  0.2720  0.3109 -0.1860
  839MOL0     H15777   7.725   0.494  10.220 -2.3461  1.7810 -2.0928
  839MOL0     H15778   7.600   0.891  10.157  1.4938  2.0615  0.7715
  839MOL0     H15779   8.270   0.755  10.274 -0.2064 -1.0941 -0.7958
  839MOL0     H15780   8.461   0.885  10.161  4.4592  0.6788 -4.0288
  839MOL0     H15781   8.569   0.941  10.283 -0.0261 -0.0592 -1.4294
  839MOL0     H15782   8.603   0.778  10.199  0.9622 -0.6897 -0.4654
  840MOL0     O15783   7.576   8.039   9.704 -0.0815  0.0194 -0.0001
  840MOL0     C15784   7.462   8.026   9.671  0.0228  1.1355  0.3180
  840MOL0     O15785   7.353   8.032   9.747 -0.5659 -0.8214  0.7670
  840MOL0     C15786   7.348   8.112   9.862  0.8828 -0.3444  0.2735
  840MOL0     C15787   7.224   8.182   9.873  0.8549  0.4254  0.2593
  840MOL0     C15788   7.192   8.277   9.969 -0.1346  0.1647  0.7032
  840MOL0     C15789   7.299   8.318  10.048 -1.2438 -0.1010  0.2865
  840MOL0     O15790   7.298   8.418  10.142 -1.0000 -0.6262  0.0947
  840MOL0     C15791   7.174   8.434  10.212  0.2650 -0.1235  0.5407
  840MOL0     C15792   7.167   8.564  10.298 -0.0224  0.5107  0.9812
  840MOL0     C15793   7.165   8.693  10.216  0.5240  0.1765  0.5111
  840MOL0     C15794   7.127   8.809  10.305 -0.5599 -0.1588  0.3628
  840MOL0     C15795   7.179   8.945  10.251 -0.2689 -0.0025  0.2918
  840MOL0     C15796   7.126   8.980  10.102 -0.2885  0.4603  0.2569
  840MOL0     C15797   7.177   9.111  10.063 -0.4593 -0.0352  0.0412
  840MOL0     C15798   7.321   9.110  10.016 -0.4229 -0.5552  0.8954
  840MOL0     N15799   7.330   9.197   9.903  0.3978  0.3891  0.8140
  840MOL0     C15800   7.392   9.165   9.787 -0.0177  0.6855  0.1574
  840MOL0     C15801   7.410   9.282   9.720 -0.4897 -0.5943  0.6279
  840MOL0     C15802   7.459   9.276   9.574 -1.1394  0.2366 -0.1240
  840MOL0     C15803   7.586   9.195   9.565 -0.8488  0.2201 -0.7814
  840MOL0     C15804   7.660   9.238   9.434 -0.2588  0.1391  0.2682
  840MOL0     C15805   7.793   9.167   9.435  0.1768 -0.3704  0.2165
  840MOL0     O15806   7.886   9.245   9.518  0.2119  0.1585 -0.5845
  840MOL0     C15807   7.990   9.183   9.594  0.3139 -0.6160 -0.2406
  840MOL0     C15808   8.013   9.041   9.608 -0.0356 -0.3940 -0.6048
  840MOL0     C15809   8.110   8.996   9.699  0.7911  0.7203  0.3987
  840MOL0     C15810   8.131   8.841   9.708  0.0577 -0.6105  0.3308
  840MOL0     C15811   8.178   9.087   9.771  0.4647  0.4051  0.0262
  840MOL0     C15812   8.289   9.043   9.859 -0.1231  0.1852 -0.4797
  840MOL0     O15813   8.285   9.110   9.980 -0.2373 -0.3495  0.4328
  840MOL0     C15814   8.399   9.134  10.054  0.0295 -0.6065 -0.4416
  840MOL0     C15815   8.368   9.206  10.176  0.4561  0.5395 -0.5661
  840MOL0     C15816   8.463   9.237  10.266 -0.0339  0.6995  0.7119
  840MOL0     C15817   8.596   9.199  10.241  0.0607  0.3315 -1.0859
  840MOL0     O15818   8.701   9.221  10.328 -0.1735 -0.4812 -0.2081
  840MOL0     C15819   8.677   9.332  10.418 -0.4245  0.1274  0.1399
  840MOL0     C15820   8.795   9.348  10.506 -1.1632 -0.9074  0.2350
  840MOL0     C15821   8.811   9.458  10.602 -0.0865  0.6357  0.0785
  840MOL0     C15822   8.806   9.597  10.537  0.0918  0.5617  0.2123
  840MOL0     C15823   8.834   9.718  10.634 -0.5011  0.4891  0.0751
  840MOL0     C15824   8.964   9.713  10.711  0.2813 -0.1944 -0.3320
  840MOL0     C15825   8.950   9.807  10.828 -0.1847  0.2724  1.0287
  840MOL0     C15826   9.087   9.847  10.885 -0.3899  0.2906 -0.8021
  840MOL0    Cl15827   9.160   9.693  10.935  0.4894 -0.0426 -0.4879
  840MOL0     C15828   8.630   9.141  10.121  0.6597  0.0142  0.2230
  840MOL0     C15829   8.532   9.102  10.028 -1.2361  0.3551  0.4062
  840MOL0     O15830   8.386   8.980   9.817  0.0836  0.0251 -1.1494
  840MOL0     C15831   8.153   9.223   9.771 -1.3031  0.0493  0.1085
  840MOL0     C15832   8.063   9.273   9.677  0.2286  0.2280  1.0838
  840MOL0     N15833   7.389   9.387   9.801 -0.2429 -0.4345 -0.4427
  840MOL0     N15834   7.339   9.333   9.910 -0.0966 -0.3632 -0.3636
  840MOL0     C15835   7.430   8.266  10.028  0.1845  0.8484 -0.4556
  840MOL0     C15836   7.454   8.156   9.939  0.2538  0.5585 -0.3551
  840MOL0     C15837   7.449   8.001   9.526  0.1671 -1.4964  0.6030
  840MOL0     C15838   7.328   8.033   9.473 -0.1619 -0.7457  1.0251
  840MOL0     C15839   7.296   8.017   9.340 -0.4672  0.1292  0.6182
  840MOL0     C15840   7.385   7.987   9.244  0.4405  0.7246  0.1916
  840MOL0     O15841   7.339   7.996   9.115 -0.0341  0.7936  0.2727
  840MOL0     C15842   7.420   7.970   9.010 -0.1012 -0.7357  0.0428
  840MOL0     C15843   7.376   8.030   8.874 -0.1435 -0.1751 -0.4522
  840MOL0     C15844   7.242   7.988   8.835  0.0340  0.0381  0.2233
  840MOL0     C15845   7.172   8.076   8.730  0.0484 -0.1463 -0.8991
  840MOL0     C15846   7.254   8.087   8.606  0.4920 -1.4082  0.7159
  840MOL0     C15847   7.319   8.078   8.499 -0.1972 -0.7760 -0.4370
  840MOL0     C15848   7.499   7.936   9.299 -0.3255  0.5913  0.1832
  840MOL0     C15849   7.536   7.935   9.437 -0.8058  0.2089  0.4536
  840MOL0     C15850   7.654   7.860   9.487  0.0512 -0.7409  0.3437
  840MOL0     H15851   7.142   8.141   9.814  2.2658 -1.4627 -0.4592
  840MOL0     H15852   7.090   8.313   9.973  0.4862  1.9545  3.6307
  840MOL0     H15853   7.163   8.362  10.295  2.3281  0.4812  1.4020
  840MOL0     H15854   7.090   8.427  10.143  0.3406 -0.8290  0.5024
  840MOL0     H15855   7.080   8.559  10.365 -1.5724 -1.6379 -1.0359
  840MOL0     H15856   7.258   8.563  10.359 -0.6584 -1.3182  2.0001
  840MOL0     H15857   7.263   8.723  10.177 -0.0549  2.5473  0.7312
  840MOL0     H15858   7.098   8.678  10.130  0.1384 -0.5340  0.9204
  840MOL0     H15859   7.021   8.809  10.334 -1.4248 -1.1067 -2.4702
  840MOL0     H15860   7.189   8.794  10.394  3.5899 -0.9046 -2.3704
  840MOL0     H15861   7.287   8.960  10.264 -0.0914 -1.2429  0.4344
  840MOL0     H15862   7.149   9.025  10.319  0.9664  0.5817  0.1776
  840MOL0     H15863   7.148   8.907  10.023 -1.2282  0.8413 -0.3680
  840MOL0     H15864   7.018   8.965  10.108 -0.0465 -1.4470  0.3836
  840MOL0     H15865   7.159   9.183  10.143  0.6083  1.1619 -0.7726
  840MOL0     H15866   7.115   9.158   9.986  0.1230  1.3064  0.3622
  840MOL0     H15867   7.393   9.142  10.093  2.8143 -1.1021 -1.6810
  840MOL0     H15868   7.338   9.006   9.987 -0.0147 -0.3874  0.5227
  840MOL0     H15869   7.395   9.061   9.758 -1.6984  0.6555 -0.0286
  840MOL0     H15870   7.487   9.380   9.555 -0.6779 -0.0438 -1.0268
  840MOL0     H15871   7.382   9.236   9.506 -1.7793 -2.9710  2.2559
  840MOL0     H15872   7.644   9.236   9.647 -1.5139  2.9684 -1.5641
  840MOL0     H15873   7.561   9.089   9.573 -2.8402  0.6359 -0.9807
  840MOL0     H15874   7.599   9.205   9.349  0.1700  0.8240 -0.3099
  840MOL0     H15875   7.671   9.346   9.426  0.1987 -0.0284 -2.0303
  840MOL0     H15876   7.790   9.062   9.464  0.7621 -1.0211 -1.8926
  840MOL0     H15877   7.813   9.165   9.327 -1.8949  1.6067 -0.2688
  840MOL0     H15878   7.954   8.974   9.546  1.1715 -1.1034 -1.0143
  840MOL0     H15879   8.036   8.788   9.720 -1.2404  0.4522 -3.7000
  840MOL0     H15880   8.193   8.821   9.796  0.5437  0.2559  0.1935
  840MOL0     H15881   8.171   8.807   9.612 -0.3152  0.8000 -0.3523
  840MOL0     H15882   8.261   9.209  10.195  0.4864 -0.8491 -0.0576
  840MOL0     H15883   8.430   9.279  10.360  1.3567  1.8262  0.7283
  840MOL0     H15884   8.660   9.426  10.364 -0.8047  0.8208  1.4376
  840MOL0     H15885   8.594   9.310  10.485 -0.5565 -0.2057 -0.1301
  840MOL0     H15886   8.800   9.247  10.548 -1.2932 -2.0594 -2.3388
  840MOL0     H15887   8.879   9.348  10.437  0.2392  3.1331  1.6316
  840MOL0     H15888   8.904   9.445  10.658  0.1659  2.3513  0.1212
  840MOL0     H15889   8.730   9.449  10.674 -0.4885 -1.1000 -0.5383
  840MOL0     H15890   8.702   9.613  10.507  0.2227 -0.8211 -1.1117
  840MOL0     H15891   8.878   9.606  10.455  2.0441  0.6902  1.8563
  840MOL0     H15892   8.815   9.813  10.585 -0.4758  1.3508  1.6557
  840MOL0     H15893   8.754   9.704  10.708  0.9544 -2.6512  1.2566
  840MOL0     H15894   9.034   9.756  10.639  0.6918 -1.4004 -0.6867
  840MOL0     H15895   9.012   9.617  10.731  3.2419  1.0113 -1.0742
  840MOL0     H15896   8.890   9.771  10.912 -1.1818  1.8715  1.0488
  840MOL0     H15897   8.901   9.898  10.792  0.2691  0.4656  0.9021
  840MOL0     H15898   9.076   9.907  10.976  0.3364 -3.8448  2.3077
  840MOL0     H15899   9.150   9.895  10.809  0.4661  4.5296  2.2186
  840MOL0     H15900   8.737   9.138  10.101  0.7197 -2.4265  0.6314
  840MOL0     H15901   8.562   9.049   9.938 -0.3686 -1.3252  1.6339
  840MOL0     H15902   8.198   9.304   9.829  2.5053 -0.0890 -2.2864
  840MOL0     H15903   8.043   9.379   9.662 -2.2265 -0.2568  0.5618
  840MOL0     H15904   7.513   8.308  10.083  2.1928 -0.2193 -2.5291
  840MOL0     H15905   7.558   8.127   9.927  0.5669 -0.2693  3.2230
  840MOL0     H15906   7.243   8.073   9.527 -0.6201  1.3062 -1.1111
  840MOL0     H15907   7.195   8.053   9.323 -2.3612 -2.6146  4.6270
  840MOL0     H15908   7.524   7.994   9.033  0.0506 -0.5456 -0.7966
  840MOL0     H15909   7.408   7.865   8.982 -1.6901 -0.3592 -0.8650
  840MOL0     H15910   7.441   7.990   8.796  3.1961  0.7767  1.6187
  840MOL0     H15911   7.376   8.139   8.872 -1.1916 -0.1821 -1.7854
  840MOL0     H15912   7.247   7.883   8.804 -1.8096  0.2837 -1.0758
  840MOL0     H15913   7.164   7.988   8.912 -2.1006  3.9952 -1.6247
  840MOL0     H15914   7.155   8.171   8.781 -2.4553 -0.1902 -1.5665
  840MOL0     H15915   7.074   8.035   8.706 -1.2429  4.0279 -4.1077
  840MOL0     H15916   7.380   8.075   8.411 -1.2458 -0.1852 -1.1981
  840MOL0     H15917   7.578   7.896   9.236  0.4775 -0.0959  1.5717
  840MOL0     H15918   7.738   7.925   9.514  0.4767 -1.5136  0.9389
  840MOL0     H15919   7.616   7.812   9.578  0.0671 -1.1505  0.1359
  840MOL0     H15920   7.681   7.802   9.399 -0.8698  2.6318 -2.3840
  841MOL0     O15921   6.677   1.128   1.856 -0.8419 -0.0594 -0.4202
  841MOL0     C15922   6.751   1.209   1.804  1.0122 -0.9512  0.0258
  841MOL0     O15923   6.788   1.201   1.677 -0.4801 -0.0409 -0.3821
  841MOL0     C15924   6.742   1.100   1.595 -0.7491  0.9432 -0.6869
  841MOL0     C15925   6.836   1.037   1.510  0.5193  0.3359  0.6917
  841MOL0     C15926   6.796   0.942   1.413 -0.6382  0.6159 -0.7073
  841MOL0     C15927   6.661   0.903   1.413 -0.1174  0.8216 -0.3037
  841MOL0     O15928   6.623   0.805   1.326 -0.3301  0.0186  0.2460
  841MOL0     C15929   6.678   0.681   1.343  0.0420 -0.3108  0.1914
  841MOL0     C15930   6.569   0.579   1.361  0.0676 -0.9922 -0.5764
  841MOL0     C15931   6.465   0.610   1.463 -0.4926  0.6724 -0.9137
  841MOL0     C15932   6.526   0.633   1.608  0.3868 -0.5140 -0.3405
  841MOL0     C15933   6.407   0.679   1.698  0.7202 -0.6207  0.5624
  841MOL0     C15934   6.443   0.683   1.846 -0.2114 -0.3873  0.2175
  841MOL0     C15935   6.533   0.800   1.901 -0.2931  0.1429  0.6869
  841MOL0     C15936   6.518   0.802   2.053 -0.2057  0.1332  0.8426
  841MOL0     N15937   6.545   0.676   2.136  0.3840 -0.9813  0.7615
  841MOL0     C15938   6.467   0.626   2.238  0.5873 -0.3498 -0.5494
  841MOL0     C15939   6.516   0.497   2.272  0.1504 -0.6479  0.4195
  841MOL0     C15940   6.465   0.394   2.365 -0.1854  0.2195  0.1239
  841MOL0     C15941   6.493   0.436   2.508 -0.4047  0.0936  0.8927
  841MOL0     C15942   6.402   0.351   2.593  0.3183 -0.8331 -0.5663
  841MOL0     C15943   6.477   0.321   2.719 -0.3777 -0.0045 -0.4134
  841MOL0     O15944   6.397   0.239   2.797  0.0547 -0.0614 -1.1158
  841MOL0     C15945   6.454   0.192   2.913 -1.0207  0.3832  1.0086
  841MOL0     C15946   6.365   0.173   3.013 -0.1180 -0.9685 -0.0265
  841MOL0     C15947   6.409   0.141   3.138  0.7363 -0.1749  0.5800
  841MOL0     C15948   6.303   0.147   3.250  0.6210 -0.5061 -0.0181
  841MOL0     C15949   6.536   0.095   3.161  0.0232  0.7414  0.2621
  841MOL0     C15950   6.587   0.036   3.295  0.3396  0.8986 -0.0238
  841MOL0     O15951   6.717  -0.023   3.291  0.4971 -0.3191  0.3061
  841MOL0     C15952   6.779  -0.086   3.396  0.0829  1.0533  0.2851
  841MOL0     C15953   6.727  -0.126   3.520  0.7867 -0.5622  0.1470
  841MOL0     C15954   6.805  -0.188   3.622 -0.8206  0.6759  0.4110
  841MOL0     C15955   6.941  -0.204   3.605  0.1397  0.5074  0.3445
  841MOL0     O15956   7.030  -0.256   3.689 -0.2155  0.5009  0.0436
  841MOL0     C15957   6.974  -0.346   3.802 -0.2162 -1.3856 -0.0491
  841MOL0     C15958   7.093  -0.407   3.878 -0.2950 -0.8582 -0.1174
  841MOL0     C15959   7.198  -0.302   3.914 -0.6526  0.0723  0.3331
  841MOL0     C15960   7.311  -0.380   3.993 -0.3300 -0.8012  0.6477
  841MOL0     C15961   7.433  -0.292   4.029  0.3405  0.6484  0.1729
  841MOL0     C15962   7.527  -0.358   4.127 -0.8679  0.7005 -0.2614
  841MOL0     C15963   7.565  -0.499   4.072 -0.4177  0.7520 -0.4803
  841MOL0     C15964   7.626  -0.494   3.929 -0.1928 -0.3331  1.2199
  841MOL0    Cl15965   7.761  -0.369   3.921 -0.2015 -0.2098  0.4856
  841MOL0     C15966   6.989  -0.154   3.484  0.0320 -0.1404 -0.0188
  841MOL0     C15967   6.915  -0.103   3.378  0.2397  0.8786 -0.8415
  841MOL0     O15968   6.528   0.050   3.397  0.1439 -0.1842 -0.1223
  841MOL0     C15969   6.633   0.111   3.059  0.3377  0.2594  0.2864
  841MOL0     C15970   6.587   0.166   2.937  0.3415 -0.1205 -0.0893
  841MOL0     N15971   6.624   0.479   2.189  0.3767  0.0584 -0.3655
  841MOL0     N15972   6.639   0.585   2.114 -0.4888  0.2228  0.7269
  841MOL0     C15973   6.568   0.968   1.503 -0.7083 -0.4658  0.1519
  841MOL0     C15974   6.606   1.070   1.591  0.3010  0.4644 -0.7639
  841MOL0     C15975   6.807   1.329   1.872  0.1298  0.3471 -0.2550
  841MOL0     C15976   6.851   1.435   1.791 -0.1597 -0.4763  0.3325
  841MOL0     C15977   6.910   1.547   1.842 -0.3222  0.3816  0.0862
  841MOL0     C15978   6.921   1.561   1.976 -0.2118 -0.1222 -0.0592
  841MOL0     O15979   6.977   1.664   2.042  0.0557 -0.2537 -0.7317
  841MOL0     C15980   7.094   1.731   1.984  0.7981 -0.6300 -0.4454
  841MOL0     C15981   7.052   1.867   1.921 -0.7614  0.2998  0.0796
  841MOL0     C15982   6.977   1.953   2.027 -0.1206 -0.0635  0.3394
  841MOL0     C15983   7.073   2.020   2.123 -0.3878  0.1375 -1.1114
  841MOL0     C15984   7.111   2.155   2.093 -0.3649  0.4844 -0.9027
  841MOL0     C15985   7.134   2.270   2.073  0.5365 -1.0535 -0.6924
  841MOL0     C15986   6.884   1.453   2.062  0.7117 -0.5537 -0.3405
  841MOL0     C15987   6.834   1.332   2.008  0.8660 -0.9767 -0.8641
  841MOL0     C15988   6.813   1.213   2.106 -0.1540  0.2295 -1.1818
  841MOL0     H15989   6.940   1.067   1.501  0.1463  0.9315 -2.7188
  841MOL0     H15990   6.869   0.895   1.347 -0.7021 -0.4141 -0.0627
  841MOL0     H15991   6.740   0.686   1.433 -0.3747  1.0922  0.4336
  841MOL0     H15992   6.742   0.647   1.262  2.9125  2.4719  1.0437
  841MOL0     H15993   6.509   0.574   1.269 -0.3934 -1.6215 -0.2536
  841MOL0     H15994   6.608   0.482   1.393 -1.5028 -2.5035 -2.8580
  841MOL0     H15995   6.409   0.697   1.426 -1.9412 -0.4147 -1.3390
  841MOL0     H15996   6.388   0.534   1.472 -2.2528  2.3564 -1.0068
  841MOL0     H15997   6.577   0.543   1.643  0.4890 -0.1243  0.5382
  841MOL0     H15998   6.596   0.717   1.605 -1.0154  0.6781 -1.5486
  841MOL0     H15999   6.319   0.617   1.679 -0.9054  2.3036 -2.4609
  841MOL0     H16000   6.384   0.781   1.669  1.1511 -0.6378  0.1518
  841MOL0     H16001   6.353   0.683   1.908  0.9589  0.1769  2.0143
  841MOL0     H16002   6.494   0.589   1.871 -2.1977 -2.0464 -1.6165
  841MOL0     H16003   6.498   0.895   1.861  0.9607  1.0725  1.6913
  841MOL0     H16004   6.639   0.798   1.873  0.0093  1.5056  1.6438
  841MOL0     H16005   6.572   0.888   2.093 -1.1944  1.7121 -1.0801
  841MOL0     H16006   6.411   0.814   2.072 -0.1411  1.8213  0.2706
  841MOL0     H16007   6.381   0.671   2.286  1.3536  1.4522 -0.8057
  841MOL0     H16008   6.509   0.299   2.334  1.4513  1.8264 -2.9334
  841MOL0     H16009   6.357   0.384   2.353 -0.5009  0.0274  2.5995
  841MOL0     H16010   6.598   0.419   2.534  0.1279  0.8901 -0.6758
  841MOL0     H16011   6.487   0.542   2.532 -1.4390  0.5536 -1.1579
  841MOL0     H16012   6.312   0.408   2.619  0.0379 -0.0134 -3.0552
  841MOL0     H16013   6.371   0.261   2.539 -0.8289 -0.9686  0.2880
  841MOL0     H16014   6.574   0.273   2.701  0.5674  0.4699  2.8287
  841MOL0     H16015   6.490   0.414   2.775 -0.2376  0.9781 -2.0017
  841MOL0     H16016   6.260   0.187   2.992 -0.1553  0.6531  1.0470
  841MOL0     H16017   6.287   0.043   3.281  0.0413 -1.1954 -2.3665
  841MOL0     H16018   6.214   0.192   3.204  3.6499  3.0146 -3.0781
  841MOL0     H16019   6.326   0.200   3.343  2.9792 -1.1578 -0.1661
  841MOL0     H16020   6.619  -0.117   3.533  0.5583  3.1843 -2.4375
  841MOL0     H16021   6.746  -0.206   3.712  0.2271 -0.5836  0.8830
  841MOL0     H16022   6.919  -0.285   3.874  0.1352 -2.0622  0.8182
  841MOL0     H16023   6.921  -0.435   3.764  1.6025 -2.1500 -0.9154
  841MOL0     H16024   7.067  -0.453   3.974  0.1124  0.7169  0.7949
  841MOL0     H16025   7.146  -0.477   3.813  1.7276  0.6086 -0.1644
  841MOL0     H16026   7.170  -0.216   3.974  2.6326  0.0440  2.1384
  841MOL0     H16027   7.248  -0.269   3.822  2.1627 -1.5673  1.1537
  841MOL0     H16028   7.340  -0.471   3.940  0.7747 -0.6425  0.9635
  841MOL0     H16029   7.261  -0.413   4.084  0.6954  0.0628  1.5527
  841MOL0     H16030   7.486  -0.261   3.939  1.8997 -0.7099  0.5757
  841MOL0     H16031   7.407  -0.198   4.079 -1.0422 -1.0815  2.9287
  841MOL0     H16032   7.481  -0.375   4.224 -1.0353  5.7266  0.7787
  841MOL0     H16033   7.616  -0.295   4.126 -1.1610  1.1124 -0.6009
  841MOL0     H16034   7.477  -0.564   4.080 -1.1488  1.9186  2.7639
  841MOL0     H16035   7.638  -0.547   4.137  2.1310  3.3741 -1.2067
  841MOL0     H16036   7.547  -0.488   3.853  2.3861 -0.9256 -1.7102
  841MOL0     H16037   7.679  -0.586   3.901 -1.0161  0.0096 -1.7795
  841MOL0     H16038   7.097  -0.157   3.467 -0.1008 -2.4235 -0.8243
  841MOL0     H16039   6.958  -0.088   3.279  2.9115 -2.9538 -0.4879
  841MOL0     H16040   6.738   0.083   3.065 -0.2692 -2.3930 -0.2360
  841MOL0     H16041   6.670   0.194   2.872 -0.4222  1.7949 -0.3278
  841MOL0     H16042   6.461   0.953   1.511 -0.4671 -1.4390  3.3301
  841MOL0     H16043   6.527   1.111   1.654 -0.5347 -1.3761 -0.5411
  841MOL0     H16044   6.841   1.416   1.685  0.8025 -0.5357  0.2476
  841MOL0     H16045   6.939   1.632   1.781  0.4457  0.7732  0.9613
  841MOL0     H16046   7.172   1.747   2.059  0.9183  2.2677 -1.0670
  841MOL0     H16047   7.142   1.669   1.908  3.7936  1.4414 -0.4171
  841MOL0     H16048   6.987   1.863   1.834 -0.4718  2.6426 -0.3270
  841MOL0     H16049   7.137   1.923   1.881 -1.1695 -1.5588 -3.8636
  841MOL0     H16050   6.910   2.024   1.978 -0.3134 -0.0526  0.6169
  841MOL0     H16051   6.901   1.904   2.087 -0.5980  2.9311  2.4221
  841MOL0     H16052   7.160   1.955   2.131 -2.0595 -2.1865 -0.6872
  841MOL0     H16053   7.032   2.018   2.224  3.4101  1.4026  0.6218
  841MOL0     H16054   7.150   2.369   2.036 -1.7390 -0.9706 -1.5913
  841MOL0     H16055   6.910   1.456   2.168 -2.7494  1.3707  0.6288
  841MOL0     H16056   6.708   1.182   2.113  0.5101 -2.8123 -3.0226
  841MOL0     H16057   6.863   1.119   2.083 -0.0801 -1.0762  3.3490
  841MOL0     H16058   6.829   1.241   2.211 -1.5075 -0.3312 -0.8064
  842MOL0     O16059   8.346  10.840   7.256 -0.0177 -0.0479  0.3803
  842MOL0     C16060   8.377  10.733   7.218 -0.4438  0.5679 -0.0577
  842MOL0     O16061   8.329  10.610   7.264 -0.3112  0.4739  1.0800
  842MOL0     C16062   8.200  10.604   7.302 -0.4509  0.0663 -0.8872
  842MOL0     C16063   8.102  10.666   7.221 -0.2490 -0.2197 -0.4803
  842MOL0     C16064   7.971  10.672   7.265  0.5746  0.1593 -0.0851
  842MOL0     C16065   7.924  10.617   7.387 -0.4918 -0.1520 -0.1154
  842MOL0     O16066   7.787  10.610   7.420 -0.0259 -0.2154  0.2675
  842MOL0     C16067   7.745  10.507   7.510  0.7075 -0.0126 -0.4525
  842MOL0     C16068   7.592  10.525   7.531  0.3485 -0.3258  0.5272
  842MOL0     C16069   7.558  10.416   7.637  0.7060 -0.0237  0.1115
  842MOL0     C16070   7.402  10.409   7.649  0.5150  1.1311 -0.3326
  842MOL0     C16071   7.341  10.293   7.738  0.8396 -0.3759  0.8732
  842MOL0     C16072   7.418  10.273   7.870  0.2680 -0.0717 -0.7777
  842MOL0     C16073   7.364  10.162   7.954 -0.6016 -0.5472 -0.3723
  842MOL0     C16074   7.437  10.043   7.914 -0.7574  0.4684  0.5569
  842MOL0     N16075   7.394   9.948   8.015 -0.1481  0.2523 -0.4090
  842MOL0     C16076   7.455   9.947   8.135 -0.0612  1.2615 -0.0778
  842MOL0     C16077   7.402   9.856   8.211 -1.4087 -0.0620 -1.3649
  842MOL0     C16078   7.462   9.802   8.347 -0.5622 -0.5341  0.3091
  842MOL0     C16079   7.366   9.816   8.462 -0.2442 -0.3200  0.2610
  842MOL0     C16080   7.347   9.966   8.500 -0.1552  0.0402 -0.2319
  842MOL0     C16081   7.242   9.975   8.605  0.9164 -0.0489  0.8621
  842MOL0     O16082   7.274   9.912   8.722 -0.1859 -0.0418 -0.2717
  842MOL0     C16083   7.189   9.922   8.831 -0.2278 -0.4801  0.1775
  842MOL0     C16084   7.069   9.981   8.847  0.1008 -0.7295  0.4220
  842MOL0     C16085   6.989   9.973   8.961  0.3487 -0.1309 -0.3234
  842MOL0     C16086   6.865  10.048   8.966  0.8856  0.7324 -0.6757
  842MOL0     C16087   7.022   9.878   9.057  0.3812  0.1647  0.9822
  842MOL0     C16088   6.927   9.845   9.173 -0.3312  0.1874 -0.4391
  842MOL0     O16089   6.971   9.892   9.291  0.4446  0.2907 -0.4092
  842MOL0     C16090   6.900   9.869   9.404 -0.5402 -0.1393  0.6746
  842MOL0     C16091   6.883   9.976   9.489  0.3178 -0.4500 -0.6013
  842MOL0     C16092   6.805   9.965   9.603  0.1419  0.3188  0.2464
  842MOL0     C16093   6.747   9.845   9.645 -0.1890  0.3500  0.5045
  842MOL0     O16094   6.672   9.831   9.766  0.1350 -1.0296 -0.4233
  842MOL0     C16095   6.571   9.736   9.778  0.2236 -0.2772 -0.4076
  842MOL0     C16096   6.534   9.743   9.929  0.1718 -0.1646 -0.1630
  842MOL0     C16097   6.414   9.843   9.948 -0.9918 -0.2221  0.1550
  842MOL0     C16098   6.375   9.859  10.094 -0.6131  0.8325 -0.4005
  842MOL0     C16099   6.287   9.987  10.124 -0.0004 -0.1589  0.1344
  842MOL0     C16100   6.324  10.064  10.259 -0.4851  0.2521  0.1482
  842MOL0     C16101   6.242  10.196  10.290 -0.2556  0.1817 -0.0776
  842MOL0     C16102   6.279  10.249  10.426 -0.7298  0.3987 -0.5662
  842MOL0    Cl16103   6.452  10.309  10.424  0.0957  0.4052  0.1075
  842MOL0     C16104   6.779   9.732   9.563 -0.4689 -0.5977  0.1498
  842MOL0     C16105   6.846   9.745   9.444 -0.3026 -1.2858 -0.1731
  842MOL0     O16106   6.830   9.768   9.155  0.3147  0.3706 -0.2456
  842MOL0     C16107   7.142   9.824   9.044 -0.3407 -0.1360 -0.0662
  842MOL0     C16108   7.231   9.849   8.937  0.2989  0.2767 -1.3538
  842MOL0     N16109   7.300   9.804   8.134 -0.1886  0.6249  0.0568
  842MOL0     N16110   7.292   9.858   8.013 -0.0035 -0.7069 -0.3361
  842MOL0     C16111   8.030  10.572   7.470  0.1563 -0.5220 -0.3480
  842MOL0     C16112   8.160  10.567   7.433 -0.3269  0.1491  0.4594
  842MOL0     C16113   8.496  10.737   7.135 -0.6753  0.0512  0.4797
  842MOL0     C16114   8.617  10.739   7.210  0.0337 -0.1179 -0.8661
  842MOL0     C16115   8.744  10.737   7.145  0.5339  0.3257 -0.3976
  842MOL0     C16116   8.754  10.736   7.011  1.9388 -0.5954 -0.1863
  842MOL0     O16117   8.879  10.749   6.961 -0.6875  0.3584 -0.1960
  842MOL0     C16118   8.911  10.677   6.840  0.0794 -0.7421 -0.9743
  842MOL0     C16119   9.064  10.644   6.845 -0.0966  0.9441  0.2048
  842MOL0     C16120   9.142  10.776   6.827 -0.0716  0.4964 -0.3400
  842MOL0     C16121   9.287  10.760   6.807  0.6400 -0.5366  0.1110
  842MOL0     C16122   9.327  10.705   6.675  0.0864 -0.2776 -0.1169
  842MOL0     C16123   9.351  10.658   6.572 -0.1334  0.4581  0.4265
  842MOL0     C16124   8.634  10.715   6.933 -0.6171 -0.3632 -0.7334
  842MOL0     C16125   8.511  10.721   6.995 -0.4838 -0.7052 -0.2059
  842MOL0     C16126   8.389  10.703   6.907 -0.4186 -0.5578  0.8994
  842MOL0     H16127   8.126  10.703   7.122 -2.3008 -0.5170 -1.1143
  842MOL0     H16128   7.897  10.711   7.196  0.8236  0.6996 -0.0564
  842MOL0     H16129   7.795  10.513   7.607  2.3456  0.5044 -1.2945
  842MOL0     H16130   7.764  10.408   7.467  0.9780  1.2622 -3.5367
  842MOL0     H16131   7.565  10.623   7.571 -2.1605 -0.7357 -0.0248
  842MOL0     H16132   7.537  10.515   7.437  0.3437  1.0197  0.3628
  842MOL0     H16133   7.586  10.315   7.606 -0.4280  0.3380 -2.3596
  842MOL0     H16134   7.612  10.455   7.723  2.8669 -1.6255 -0.4205
  842MOL0     H16135   7.379  10.513   7.674  0.3545  1.5440 -2.0782
  842MOL0     H16136   7.357  10.393   7.551 -0.2380 -1.6786  0.3559
  842MOL0     H16137   7.350  10.202   7.678  0.4110 -0.3140  0.7117
  842MOL0     H16138   7.240  10.330   7.757  1.3852  0.7138  1.8163
  842MOL0     H16139   7.522  10.245   7.850  1.1020 -0.5087  3.4037
  842MOL0     H16140   7.416  10.358   7.938  0.8648 -1.1390  0.6189
  842MOL0     H16141   7.258  10.150   7.928 -0.1280  1.6532 -3.9428
  842MOL0     H16142   7.378  10.180   8.061  3.3744 -1.5220 -0.5816
  842MOL0     H16143   7.416  10.023   7.808 -0.5473 -0.0518  0.6127
  842MOL0     H16144   7.545  10.052   7.921 -0.4838 -0.2375 -1.8720
  842MOL0     H16145   7.537  10.010   8.168  0.7982 -0.5497  1.4501
  842MOL0     H16146   7.554   9.854   8.372 -0.1184  1.5252 -4.4937
  842MOL0     H16147   7.485   9.695   8.338 -1.2608 -0.9435  2.6953
  842MOL0     H16148   7.264   9.787   8.436 -0.6781  2.0568 -0.9750
  842MOL0     H16149   7.399   9.750   8.543  2.1191 -0.8186 -1.0078
  842MOL0     H16150   7.440  10.007   8.542  0.4335 -2.5794  1.2755
  842MOL0     H16151   7.324  10.028   8.413  1.1262 -0.5060 -0.9830
  842MOL0     H16152   7.228  10.079   8.635  2.3982  1.2651 -2.4875
  842MOL0     H16153   7.144   9.939   8.570  0.6289 -1.2863  2.8010
  842MOL0     H16154   7.036  10.040   8.762  0.7309 -1.0138 -0.0372
  842MOL0     H16155   6.862  10.132   8.896 -1.8310  0.5116 -0.9310
  842MOL0     H16156   6.850  10.082   9.069 -2.3829 -2.5265  0.1410
  842MOL0     H16157   6.780   9.982   8.944  0.9688  0.1745  0.6041
  842MOL0     H16158   6.913  10.079   9.474 -2.4350  0.9328  2.3463
  842MOL0     H16159   6.786  10.053   9.665 -0.5824 -0.3791  1.0417
  842MOL0     H16160   6.487   9.766   9.714 -0.3979  1.1519  0.9924
  842MOL0     H16161   6.603   9.633   9.759 -0.6214 -0.2628 -2.0887
  842MOL0     H16162   6.504   9.645   9.968 -1.7870  1.1324  1.8765
  842MOL0     H16163   6.619   9.778   9.989  0.4816 -0.1043 -0.6366
  842MOL0     H16164   6.325   9.804   9.899 -1.7974  0.2143  1.2312
  842MOL0     H16165   6.449   9.937   9.905  0.7765 -0.5785  0.7085
  842MOL0     H16166   6.465   9.855  10.156 -1.6527 -1.0417  1.0878
  842MOL0     H16167   6.325   9.767  10.126  1.0160  0.2007  0.4901
  842MOL0     H16168   6.318  10.056  10.045 -1.4274 -0.1688 -0.4756
  842MOL0     H16169   6.183   9.953  10.130 -0.0542  0.1126  4.9831
  842MOL0     H16170   6.433  10.063  10.266 -0.4419 -0.4566 -0.4624
  842MOL0     H16171   6.297   9.994  10.338  1.7084 -0.2353  0.5428
  842MOL0     H16172   6.135  10.174  10.286 -0.1698 -0.0706 -2.2665
  842MOL0     H16173   6.274  10.269  10.215  1.3870  1.1072  1.4450
  842MOL0     H16174   6.281  10.180  10.511  0.3573  2.8986  1.5844
  842MOL0     H16175   6.225  10.337  10.463  1.1698  1.4850 -0.2672
  842MOL0     H16176   6.751   9.636   9.607  1.7905 -0.0447  3.1344
  842MOL0     H16177   6.857   9.651   9.390 -1.8965 -0.0301 -2.9097
  842MOL0     H16178   7.179   9.763   9.126  2.7957  0.2383 -1.0885
  842MOL0     H16179   7.333   9.812   8.926  0.9267  2.4171 -4.2830
  842MOL0     H16180   8.010  10.537   7.571 -0.2689 -2.3052 -0.9914
  842MOL0     H16181   8.233  10.519   7.497  2.0757  2.0765 -0.6472
  842MOL0     H16182   8.606  10.748   7.318  0.1217  2.0997 -0.9984
  842MOL0     H16183   8.837  10.752   7.199  1.7109  3.2506 -2.9937
  842MOL0     H16184   8.849  10.588   6.835 -1.9929  0.3794  1.9432
  842MOL0     H16185   8.882  10.739   6.755 -3.8679  0.4535  1.0173
  842MOL0     H16186   9.080  10.575   6.761  0.1537  2.6906 -1.2469
  842MOL0     H16187   9.092  10.599   6.940  0.1537  1.4999  0.3971
  842MOL0     H16188   9.102  10.840   6.748 -2.0680  0.0659  0.2728
  842MOL0     H16189   9.126  10.830   6.921 -0.0154  1.2227 -0.7426
  842MOL0     H16190   9.342  10.716   6.891  0.7322  0.0208  0.3510
  842MOL0     H16191   9.326  10.863   6.807 -0.9364  0.1197 -1.8766
  842MOL0     H16192   9.371  10.605   6.481 -3.4318 -2.5368  1.2384
  842MOL0     H16193   8.634  10.715   6.825 -0.5481  2.1358 -0.7866
  842MOL0     H16194   8.311  10.774   6.938  0.2879  1.0658 -0.8288
  842MOL0     H16195   8.410  10.711   6.800  0.5672  1.5153  1.1902
  842MOL0     H16196   8.341  10.605   6.903 -0.2011 -0.6260 -1.1585
  843MOL0     O16197   6.464   9.051   7.174  0.6863  0.1721 -0.8042
  843MOL0     C16198   6.395   8.947   7.182 -0.3030 -0.9334  0.7913
  843MOL0     O16199   6.389   8.848   7.078  0.2268 -0.6018 -0.1167
  843MOL0     C16200   6.504   8.833   6.999  0.3504 -1.2126 -0.5175
  843MOL0     C16201   6.543   8.916   6.901 -0.0243  0.2297 -0.2692
  843MOL0     C16202   6.648   8.884   6.827 -0.5785 -0.4433  0.6716
  843MOL0     C16203   6.719   8.768   6.842  0.1787  0.0497  0.1687
  843MOL0     O16204   6.826   8.750   6.764  0.0943 -0.0336  0.2122
  843MOL0     C16205   6.869   8.613   6.760 -1.1266  0.5163 -0.2546
  843MOL0     C16206   6.967   8.616   6.652 -0.0663  0.7898 -0.7326
  843MOL0     C16207   7.054   8.482   6.642 -0.9934 -0.7618  0.8310
  843MOL0     C16208   7.063   8.428   6.498  0.0668  0.2495  0.0788
  843MOL0     C16209   7.037   8.281   6.488 -0.6403  0.4662  0.3002
  843MOL0     C16210   7.158   8.197   6.531 -0.3216  0.2877  0.2601
  843MOL0     C16211   7.273   8.208   6.436  0.1158  0.2458 -0.5749
  843MOL0     C16212   7.387   8.114   6.477 -0.4414  1.0251  0.6348
  843MOL0     N16213   7.502   8.139   6.392 -0.2171  0.0221 -0.2756
  843MOL0     C16214   7.515   8.083   6.266 -0.4562 -0.0654 -0.9078
  843MOL0     C16215   7.630   8.133   6.219 -0.4852  0.7935  0.4116
  843MOL0     C16216   7.699   8.100   6.088  0.3883 -0.4669 -0.0666
  843MOL0     C16217   7.792   7.972   6.108  0.2757  0.0248 -0.2422
  843MOL0     C16218   7.906   7.986   6.215 -0.6426  0.2504  0.1037
  843MOL0     C16219   7.985   7.853   6.231  0.0171 -0.4021  0.2631
  843MOL0     O16220   8.080   7.814   6.128  0.0411  0.7093 -0.0130
  843MOL0     C16221   8.178   7.906   6.112  0.9747 -0.5560 -0.1829
  843MOL0     C16222   8.273   7.932   6.202  0.5939 -0.0499 -0.1365
  843MOL0     C16223   8.376   8.031   6.178 -0.0548 -0.1967  0.0877
  843MOL0     C16224   8.477   8.056   6.288 -0.8156  0.3395  0.6389
  843MOL0     C16225   8.374   8.101   6.056 -0.1268  0.3036  0.2509
  843MOL0     C16226   8.473   8.185   6.019  0.3151 -1.2872 -0.2944
  843MOL0     O16227   8.534   8.175   5.896 -0.5686  0.0662 -0.2487
  843MOL0     C16228   8.624   8.272   5.860  0.7930 -0.3995 -0.6486
  843MOL0     C16229   8.759   8.259   5.893  0.6205 -1.1306 -0.3776
  843MOL0     C16230   8.846   8.365   5.860  0.5120  0.9902  0.3284
  843MOL0     C16231   8.812   8.481   5.797  1.2210 -0.1426  0.2507
  843MOL0     O16232   8.890   8.584   5.759  0.2591 -0.8167 -0.2499
  843MOL0     C16233   8.947   8.660   5.871  0.3902  0.1095 -0.1169
  843MOL0     C16234   9.097   8.687   5.838  0.1394 -0.6604 -0.4227
  843MOL0     C16235   9.184   8.562   5.827  0.1972  0.3263  0.0264
  843MOL0     C16236   9.325   8.583   5.769  0.1850 -0.5381 -0.2909
  843MOL0     C16237   9.427   8.469   5.785  0.1816 -0.6839 -0.0619
  843MOL0     C16238   9.534   8.475   5.674 -0.9501  0.6244  0.1426
  843MOL0     C16239   9.620   8.598   5.664 -0.5600 -0.5981 -0.0705
  843MOL0     C16240   9.659   8.615   5.519  0.0715  0.7272 -0.5818
  843MOL0    Cl16241   9.728   8.780   5.481 -0.3933 -0.2948 -0.1446
  843MOL0     C16242   8.682   8.487   5.758 -0.5463  0.7164 -0.2044
  843MOL0     C16243   8.588   8.391   5.800  0.0340 -0.7948  0.7560
  843MOL0     O16244   8.498   8.273   6.103  0.5392 -0.3706 -0.6587
  843MOL0     C16245   8.275   8.074   5.967 -0.1504 -0.0955  0.0722
  843MOL0     C16246   8.174   7.986   5.995  0.0731  0.4081 -1.0097
  843MOL0     N16247   7.673   8.219   6.315 -0.1850  0.0883 -0.3715
  843MOL0     N16248   7.601   8.226   6.419  0.3179  0.3321 -0.1073
  843MOL0     C16249   6.674   8.680   6.939 -0.8317 -0.7780 -0.1110
  843MOL0     C16250   6.561   8.709   7.009  0.1019 -0.1285  0.2288
  843MOL0     C16251   6.297   8.924   7.290  0.1937  0.1300 -0.0425
  843MOL0     C16252   6.277   8.796   7.332 -0.4289 -0.3662  0.2304
  843MOL0     C16253   6.197   8.772   7.439  0.2226  0.3609  0.4710
  843MOL0     C16254   6.122   8.865   7.507  0.0639  0.5642  0.6949
  843MOL0     O16255   6.042   8.808   7.608  0.2245  0.1276 -0.4499
  843MOL0     C16256   5.952   8.903   7.669 -0.2477  0.0796  0.2151
  843MOL0     C16257   5.870   8.822   7.779 -0.9416 -0.1223 -0.3391
  843MOL0     C16258   5.787   8.712   7.715  0.1270  0.7788 -1.4010
  843MOL0     C16259   5.712   8.638   7.822 -0.8585  1.0847 -0.1307
  843MOL0     C16260   5.648   8.515   7.769  0.4324 -0.7118  0.4468
  843MOL0     C16261   5.580   8.428   7.722 -0.2335  0.4544 -0.0056
  843MOL0     C16262   6.145   9.000   7.465  0.0120  0.0658  0.4910
  843MOL0     C16263   6.227   9.028   7.355 -0.4843 -1.1340 -0.0138
  843MOL0     C16264   6.243   9.174   7.319 -0.2950 -0.8863 -1.1074
  843MOL0     H16265   6.491   9.009   6.881 -0.2201 -0.4303 -3.2872
  843MOL0     H16266   6.676   8.938   6.738  3.8617  1.8418  3.1036
  843MOL0     H16267   6.792   8.539   6.740 -0.5694 -0.8802  2.2340
  843MOL0     H16268   6.919   8.578   6.851  2.4741  0.3911 -2.0938
  843MOL0     H16269   6.918   8.642   6.557 -1.1635  0.8332 -0.1715
  843MOL0     H16270   7.033   8.701   6.672 -1.0498  2.3445 -3.4217
  843MOL0     H16271   7.148   8.504   6.693 -0.9449  1.0168  0.0168
  843MOL0     H16272   7.016   8.397   6.700 -1.3354  0.1442  1.9856
  843MOL0     H16273   6.990   8.479   6.434 -1.3309 -0.4469  1.0827
  843MOL0     H16274   7.158   8.453   6.448  0.5060 -0.9770  0.2669
  843MOL0     H16275   7.020   8.256   6.383  1.7019 -1.3424  0.2636
  843MOL0     H16276   6.949   8.252   6.546  0.8545  2.5101  3.9979
  843MOL0     H16277   7.190   8.217   6.634 -1.3464  0.9817  0.4533
  843MOL0     H16278   7.124   8.093   6.536 -1.0227  0.5435  1.2122
  843MOL0     H16279   7.311   8.310   6.444 -2.6989  1.3747 -0.0823
  843MOL0     H16280   7.229   8.183   6.339  0.3936  2.0296 -1.1854
  843MOL0     H16281   7.399   8.129   6.585 -3.7408  2.0753  0.9907
  843MOL0     H16282   7.345   8.013   6.474 -0.0891  0.8634  1.0161
  843MOL0     H16283   7.452   8.015   6.210  0.6253 -3.2660  1.5303
  843MOL0     H16284   7.775   8.175   6.062 -0.0465 -0.2096 -0.6108
  843MOL0     H16285   7.627   8.089   6.007  1.3896  4.4591 -1.9720
  843MOL0     H16286   7.724   7.887   6.114 -0.0587  0.1098 -2.3690
  843MOL0     H16287   7.848   7.961   6.014 -0.6185  0.4146 -0.8262
  843MOL0     H16288   7.971   8.068   6.183  0.4611 -1.0914 -1.2396
  843MOL0     H16289   7.867   8.010   6.315 -2.3626 -3.4152  0.4750
  843MOL0     H16290   8.038   7.868   6.325  2.5208 -3.2418 -0.5389
  843MOL0     H16291   7.921   7.767   6.255  0.3166 -1.3618 -2.0846
  843MOL0     H16292   8.278   7.878   6.296 -0.6361  0.7606  0.4293
  843MOL0     H16293   8.462   7.993   6.375 -0.5766 -0.0106  0.4274
  843MOL0     H16294   8.468   8.153   6.337  1.2210  1.1501 -0.4541
  843MOL0     H16295   8.581   8.055   6.251 -0.8590  0.9184  0.4908
  843MOL0     H16296   8.791   8.178   5.959 -2.1605 -0.0527  2.5209
  843MOL0     H16297   8.947   8.336   5.888  0.2023 -2.7091 -1.7780
  843MOL0     H16298   8.889   8.751   5.891  0.8405  0.4331 -0.2767
  843MOL0     H16299   8.933   8.593   5.957 -2.5420 -0.1651 -0.6854
  843MOL0     H16300   9.108   8.733   5.739 -0.4036 -1.9090 -1.0749
  843MOL0     H16301   9.144   8.751   5.913  2.9747 -2.1583 -0.7746
  843MOL0     H16302   9.126   8.489   5.771 -0.9980  0.3427  1.1903
  843MOL0     H16303   9.192   8.524   5.930 -0.2280 -0.9350 -0.3902
  843MOL0     H16304   9.357   8.678   5.812 -1.8471  0.5776 -1.0789
  843MOL0     H16305   9.316   8.610   5.663  1.4661  5.2217  0.7828
  843MOL0     H16306   9.465   8.483   5.887  0.5959 -1.5672 -0.0863
  843MOL0     H16307   9.378   8.371   5.786 -1.9266  0.2987  0.7776
  843MOL0     H16308   9.496   8.456   5.574  3.0151 -1.3492 -1.2074
  843MOL0     H16309   9.601   8.390   5.689  0.1031  0.9990 -1.9983
  843MOL0     H16310   9.703   8.596   5.735 -0.6079  1.6254  0.1219
  843MOL0     H16311   9.566   8.687   5.698 -0.6598  0.4157 -2.6250
  843MOL0     H16312   9.570   8.608   5.456  0.0603  1.8823 -0.7276
  843MOL0     H16313   9.720   8.536   5.476 -3.0092 -2.6725  0.8327
  843MOL0     H16314   8.632   8.572   5.711 -0.9940 -0.7490 -2.5490
  843MOL0     H16315   8.482   8.402   5.782 -0.0612  0.7832  2.0400
  843MOL0     H16316   8.275   8.126   5.872 -0.7152  1.8205  1.0816
  843MOL0     H16317   8.097   7.965   5.921 -0.2713  0.0814 -0.5652
  843MOL0     H16318   6.724   8.586   6.963 -0.1260 -0.1880  0.8118
  843MOL0     H16319   6.517   8.640   7.080 -0.6068  1.2347  1.1660
  843MOL0     H16320   6.319   8.718   7.271 -3.1917  0.0120 -2.3764
  843MOL0     H16321   6.174   8.670   7.467 -4.3402  0.9364 -0.4412
  843MOL0     H16322   6.012   8.979   7.719  0.4387  0.3744 -1.0409
  843MOL0     H16323   5.878   8.944   7.599 -0.0138 -1.2140 -0.8302
  843MOL0     H16324   5.801   8.883   7.838 -0.1293 -0.6549  1.2192
  843MOL0     H16325   5.945   8.792   7.853 -2.1269  2.9655  2.3798
  843MOL0     H16326   5.717   8.756   7.643 -2.3980  1.7757  1.4371
  843MOL0     H16327   5.841   8.626   7.676 -2.9369 -1.3795 -1.2741
  843MOL0     H16328   5.637   8.699   7.875 -0.6764  2.3246 -1.2490
  843MOL0     H16329   5.780   8.601   7.899  0.8366 -2.2101 -2.9944
  843MOL0     H16330   5.512   8.356   7.682 -0.1382  0.9132 -1.0096
  843MOL0     H16331   6.093   9.076   7.522  1.2462  2.3646 -1.2804
  843MOL0     H16332   6.160   9.234   7.357  0.2601 -0.4053 -0.6317
  843MOL0     H16333   6.343   9.203   7.351 -0.9083 -0.5440  0.6490
  843MOL0     H16334   6.234   9.187   7.211  1.9252 -0.0688 -1.2282
  844MOL0     O16335   8.239   2.539   8.084 -0.4871  0.7570  0.4551
  844MOL0     C16336   8.256   2.661   8.093  0.8932 -0.1412  0.2957
  844MOL0     O16337   8.312   2.716   8.209  0.2581  0.4299 -0.3107
  844MOL0     C16338   8.370   2.631   8.297  0.2927  0.3118 -0.1591
  844MOL0     C16339   8.507   2.616   8.312  0.2544 -0.8802 -0.4702
  844MOL0     C16340   8.554   2.546   8.423  0.3015  0.0414 -0.3812
  844MOL0     C16341   8.468   2.487   8.517 -1.0382 -0.8695 -0.1930
  844MOL0     O16342   8.521   2.415   8.625 -0.1395  0.5806 -0.2744
  844MOL0     C16343   8.493   2.275   8.632  0.6328  0.0603 -0.5658
  844MOL0     C16344   8.573   2.195   8.536 -0.1864 -0.2153  0.4224
  844MOL0     C16345   8.725   2.217   8.553 -0.3204 -0.3617 -1.3731
  844MOL0     C16346   8.803   2.232   8.424 -0.1985  0.0555  0.7350
  844MOL0     C16347   8.962   2.247   8.447  0.0975  1.0432  0.2708
  844MOL0     C16348   9.014   2.342   8.554  0.7428  0.1990  0.2432
  844MOL0     C16349   8.990   2.491   8.519  0.6051 -0.3248  0.7047
  844MOL0     C16350   9.012   2.580   8.641 -0.4433 -0.4497  0.0440
  844MOL0     N16351   9.020   2.711   8.585  0.0372 -0.6507  0.0368
  844MOL0     C16352   8.899   2.781   8.561 -0.1821 -0.0969  0.3084
  844MOL0     C16353   8.937   2.899   8.513  0.1532 -0.5161  0.5401
  844MOL0     C16354   8.840   2.998   8.458  0.0931 -0.7511 -0.1496
  844MOL0     C16355   8.906   3.063   8.326  0.4992 -0.5789 -0.0333
  844MOL0     C16356   8.912   2.976   8.204  0.1734  0.4002  0.7619
  844MOL0     C16357   8.943   3.049   8.076  0.6100 -0.3689  0.3487
  844MOL0     O16358   8.928   2.958   7.963 -0.6535 -1.0971 -0.8293
  844MOL0     C16359   8.969   3.005   7.841  0.6254 -0.8071  0.4387
  844MOL0     C16360   8.975   2.914   7.739  0.0219 -0.2576  0.5465
  844MOL0     C16361   8.976   2.955   7.599 -0.2774 -0.2834  0.1105
  844MOL0     C16362   8.959   2.847   7.496  0.6067 -0.0248 -0.3994
  844MOL0     C16363   8.990   3.096   7.567  0.7746  0.4242  0.3823
  844MOL0     C16364   8.993   3.150   7.434  0.1273 -0.4492 -0.2760
  844MOL0     O16365   9.029   3.067   7.331 -0.5909 -0.3291  0.2989
  844MOL0     C16366   9.047   3.127   7.205 -0.2509 -0.5555 -0.7841
  844MOL0     C16367   8.966   3.088   7.095  0.4331 -1.0778  0.1782
  844MOL0     C16368   8.998   3.129   6.965 -0.6133  0.7614  0.0295
  844MOL0     C16369   9.114   3.218   6.942 -0.3572 -0.1593  0.2497
  844MOL0     O16370   9.155   3.274   6.819 -0.6658 -0.6386 -0.1032
  844MOL0     C16371   9.042   3.321   6.739  0.6074  0.8183  0.0216
  844MOL0     C16372   9.059   3.466   6.738 -0.4626  0.4168  0.2730
  844MOL0     C16373   8.948   3.557   6.675  0.3655 -0.6435 -0.2728
  844MOL0     C16374   9.010   3.647   6.569 -1.1840  0.4791 -0.2343
  844MOL0     C16375   9.059   3.592   6.432 -0.8792  0.0560  0.6917
  844MOL0     C16376   8.944   3.586   6.322 -0.5849 -0.7088 -0.9198
  844MOL0     C16377   8.925   3.728   6.259  0.6461  0.1606  0.6136
  844MOL0     C16378   8.823   3.708   6.151  0.6501 -0.3269  0.6421
  844MOL0    Cl16379   8.880   3.599   6.017 -0.0505 -0.6176  0.1244
  844MOL0     C16380   9.202   3.242   7.054  0.0588  0.4169  0.0133
  844MOL0     C16381   9.169   3.200   7.191 -0.6702  0.2097  0.9662
  844MOL0     O16382   8.960   3.271   7.428  0.7639 -0.2897  0.5574
  844MOL0     C16383   9.007   3.182   7.678 -0.2994  0.1487 -0.3555
  844MOL0     C16384   9.002   3.140   7.811 -0.5668 -0.4431  0.3018
  844MOL0     N16385   9.074   2.906   8.523  1.0363  0.2689 -0.6989
  844MOL0     N16386   9.119   2.796   8.562  0.1298 -0.1635  0.2178
  844MOL0     C16387   8.328   2.500   8.504 -0.2192  0.3880 -0.1345
  844MOL0     C16388   8.281   2.568   8.395 -0.7027  0.4554  0.3796
  844MOL0     C16389   8.225   2.753   7.971  0.0795  0.5297 -0.5123
  844MOL0     C16390   8.258   2.889   7.978 -0.4192  0.1389  0.1928
  844MOL0     C16391   8.214   2.981   7.882 -0.8189 -0.4445  0.0416
  844MOL0     C16392   8.163   2.933   7.760  0.4556  0.3421  0.1839
  844MOL0     O16393   8.151   3.003   7.644 -0.3030 -0.3047 -0.5909
  844MOL0     C16394   8.168   3.152   7.643 -0.1699 -0.5224 -0.5323
  844MOL0     C16395   8.131   3.212   7.503  0.5143 -0.4008 -0.2234
  844MOL0     C16396   8.006   3.143   7.429 -0.0249  0.3276  0.3315
  844MOL0     C16397   7.983   3.189   7.286  0.3576 -0.5032 -0.8001
  844MOL0     C16398   7.836   3.181   7.258  0.2937  0.3331 -0.0540
  844MOL0     C16399   7.713   3.169   7.244 -0.5422  0.7090 -0.1999
  844MOL0     C16400   8.152   2.789   7.733 -0.6488 -0.2257 -0.6826
  844MOL0     C16401   8.171   2.702   7.847 -0.7365 -0.1409  0.2395
  844MOL0     C16402   8.132   2.559   7.814  0.5613 -0.0901  1.5099
  844MOL0     H16403   8.566   2.672   8.241 -3.2982  3.6646 -0.3130
  844MOL0     H16404   8.660   2.542   8.446 -0.2657  1.8188  3.4435
  844MOL0     H16405   8.386   2.258   8.614  0.4093  1.0978 -0.3218
  844MOL0     H16406   8.512   2.252   8.737  0.4912 -0.2514 -0.6069
  844MOL0     H16407   8.559   2.087   8.538  1.9237 -0.5099  0.8933
  844MOL0     H16408   8.535   2.217   8.435 -0.2033 -0.7332  0.3139
  844MOL0     H16409   8.749   2.293   8.627 -3.2159  0.7995 -1.5016
  844MOL0     H16410   8.755   2.126   8.606 -2.5430  1.2583  3.1718
  844MOL0     H16411   8.779   2.142   8.366 -0.4188  1.1263 -0.9158
  844MOL0     H16412   8.759   2.316   8.369 -0.8738 -0.4680  0.4711
  844MOL0     H16413   9.014   2.262   8.352  0.9504 -2.6708  0.0044
  844MOL0     H16414   8.997   2.151   8.485  0.9904  2.2003  2.5903
  844MOL0     H16415   8.973   2.314   8.651 -1.3794 -0.1787 -0.7115
  844MOL0     H16416   9.123   2.338   8.544  0.8475  3.9752 -2.2345
  844MOL0     H16417   8.886   2.514   8.493  0.7528  1.1448  1.3061
  844MOL0     H16418   9.049   2.529   8.435 -0.2074 -0.2601  0.1454
  844MOL0     H16419   8.933   2.571   8.716 -1.0308  3.9923  0.2334
  844MOL0     H16420   9.108   2.554   8.685  1.3896  3.8971 -0.8308
  844MOL0     H16421   8.802   2.736   8.579  0.9589 -2.6059  0.7444
  844MOL0     H16422   8.833   3.063   8.546  3.2487 -2.3709  1.4459
  844MOL0     H16423   8.742   2.954   8.437 -2.2839  3.1482  1.6325
  844MOL0     H16424   8.861   3.163   8.317  1.1766 -0.1551  1.0493
  844MOL0     H16425   9.012   3.086   8.339  0.3276  0.4902 -0.4097
  844MOL0     H16426   8.992   2.905   8.228  0.5290  1.9773  5.0910
  844MOL0     H16427   8.818   2.926   8.180 -0.9006  3.4247 -1.9669
  844MOL0     H16428   8.882   3.140   8.067  0.4709 -0.5063 -0.1363
  844MOL0     H16429   9.044   3.090   8.086 -0.2446  2.7636 -2.1509
  844MOL0     H16430   8.945   2.813   7.765  2.0326 -1.1248 -0.2657
  844MOL0     H16431   8.966   2.753   7.551  2.7858  2.0119  3.3112
  844MOL0     H16432   9.038   2.852   7.421  3.0561  1.6836  2.0491
  844MOL0     H16433   8.863   2.868   7.449  0.0934 -1.2953  0.0412
  844MOL0     H16434   8.889   3.011   7.098 -0.1121 -0.5113  1.7766
  844MOL0     H16435   8.934   3.101   6.882 -0.1329 -0.6247  0.1082
  844MOL0     H16436   9.061   3.281   6.639 -1.7086 -2.1314  0.6302
  844MOL0     H16437   8.947   3.277   6.770  1.5660 -1.1963  0.1794
  844MOL0     H16438   9.111   3.518   6.819  4.4798  2.5717 -3.7103
  844MOL0     H16439   9.147   3.465   6.673 -0.1709 -0.2011  0.6639
  844MOL0     H16440   8.914   3.630   6.750  2.5697  0.5902 -0.3877
  844MOL0     H16441   8.868   3.498   6.630  0.8535 -0.3383 -1.5700
  844MOL0     H16442   9.101   3.695   6.606  2.7694 -4.7119 -1.9612
  844MOL0     H16443   8.936   3.720   6.536 -0.4510  1.4143  0.1608
  844MOL0     H16444   9.128   3.661   6.383 -3.0564  1.7583 -0.1500
  844MOL0     H16445   9.104   3.492   6.437  0.7566  0.6393 -1.2167
  844MOL0     H16446   8.847   3.565   6.369  0.5371 -0.9521  1.4075
  844MOL0     H16447   8.956   3.503   6.252 -2.3328 -2.6294  0.9168
  844MOL0     H16448   9.023   3.769   6.233  0.2548  1.0321  0.4708
  844MOL0     H16449   8.885   3.783   6.345  2.3359  1.3072  0.7031
  844MOL0     H16450   8.805   3.807   6.109 -0.7595 -0.4153  0.9814
  844MOL0     H16451   8.728   3.687   6.202 -1.5678  1.2636 -2.4729
  844MOL0     H16452   9.298   3.292   7.049 -0.3211  1.0538 -1.7816
  844MOL0     H16453   9.234   3.233   7.272  2.5300 -2.9774 -0.0444
  844MOL0     H16454   9.032   3.286   7.657 -0.7240  0.2305 -0.4699
  844MOL0     H16455   9.017   3.211   7.892 -0.4926 -1.0722  0.8523
  844MOL0     H16456   8.256   2.453   8.570 -0.1036  1.2728  0.6450
  844MOL0     H16457   8.173   2.579   8.390 -1.0583 -2.7472 -0.9825
  844MOL0     H16458   8.318   2.927   8.060  1.1884  0.6541 -1.1825
  844MOL0     H16459   8.241   3.086   7.896  1.9334 -1.2068  1.1131
  844MOL0     H16460   8.105   3.196   7.721  0.6678  2.6901 -1.5609
  844MOL0     H16461   8.270   3.186   7.663  0.4511 -1.4972 -1.8602
  844MOL0     H16462   8.223   3.205   7.444  1.2451  2.2669  0.4597
  844MOL0     H16463   8.102   3.317   7.511  1.8128 -0.1907  3.1522
  844MOL0     H16464   8.009   3.034   7.430 -0.6663  0.2839 -0.9723
  844MOL0     H16465   7.916   3.165   7.488  0.1006 -0.9275  1.0222
  844MOL0     H16466   8.048   3.134   7.217 -2.8000 -0.5031 -4.0863
  844MOL0     H16467   8.007   3.295   7.294  0.1577 -0.6009  2.5324
  844MOL0     H16468   7.610   3.163   7.218  0.0489 -1.6872 -2.4450
  844MOL0     H16469   8.115   2.756   7.636 -1.6508 -3.1978  0.6035
  844MOL0     H16470   8.215   2.491   7.833  2.5107  0.8057 -2.6565
  844MOL0     H16471   8.046   2.529   7.874 -0.2264 -0.5458  0.2054
  844MOL0     H16472   8.119   2.550   7.706  0.5551  4.4337  0.9181
  845MOL0     O16473   9.851   9.404   9.730 -0.6286  0.9670 -0.2089
  845MOL0     C16474   9.966   9.432   9.753 -0.1418  0.3927  0.0714
  845MOL0     O16475  10.074   9.345   9.767  0.6609 -0.2586 -0.6588
  845MOL0     C16476  10.018   9.214   9.766 -0.7414  0.4261  0.3362
  845MOL0     C16477   9.992   9.150   9.883  0.4844  0.3618 -0.6235
  845MOL0     C16478   9.949   9.012   9.892 -0.2224 -0.2379 -0.0407
  845MOL0     C16479   9.932   8.944   9.776  0.0733  0.3632 -0.1757
  845MOL0     O16480   9.886   8.814   9.776  0.4614  0.0320 -0.2056
  845MOL0     C16481   9.744   8.787   9.747  0.1143 -1.6568  0.4654
  845MOL0     C16482   9.732   8.635   9.777  0.2636 -0.3916 -0.9873
  845MOL0     C16483   9.742   8.555   9.651  0.0588  0.5524  0.5205
  845MOL0     C16484   9.691   8.419   9.663  0.0008 -0.5615  0.6185
  845MOL0     C16485   9.712   8.334   9.531 -0.0445  0.2243  0.6245
  845MOL0     C16486   9.670   8.192   9.557 -0.9113  0.2647  0.7020
  845MOL0     C16487   9.656   8.108   9.431 -0.3952  0.2665  0.4418
  845MOL0     C16488   9.651   7.956   9.463  0.1198 -0.0469  0.6219
  845MOL0     N16489   9.571   7.918   9.583 -0.4016  0.4073  0.2050
  845MOL0     C16490   9.437   7.911   9.593  0.3277 -0.7355 -0.3115
  845MOL0     C16491   9.418   7.874   9.720 -0.8173  0.3313  0.6176
  845MOL0     C16492   9.274   7.846   9.765 -0.2164  0.0164  0.1203
  845MOL0     C16493   9.218   7.711   9.702 -0.7196 -0.4809 -0.4088
  845MOL0     C16494   9.066   7.704   9.682 -0.1464 -0.1749 -0.5775
  845MOL0     C16495   8.982   7.710   9.810 -0.0345 -0.2612 -0.0669
  845MOL0     O16496   9.002   7.835   9.876 -0.0076 -0.4373  0.2524
  845MOL0     C16497   8.965   7.847  10.006 -0.1917  0.8410 -0.2718
  845MOL0     C16498   8.862   7.769  10.061 -0.9058  0.0952  0.2438
  845MOL0     C16499   8.815   7.781  10.197 -0.8123 -0.1006 -0.1300
  845MOL0     C16500   8.735   7.670  10.242 -0.1596 -0.5298 -0.1158
  845MOL0     C16501   8.867   7.893  10.271 -0.1431 -0.6120  0.8411
  845MOL0     C16502   8.820   7.925  10.408 -0.0134 -0.2342  0.0129
  845MOL0     O16503   8.694   7.873  10.441 -0.2607 -0.3906 -0.0373
  845MOL0     C16504   8.632   7.910  10.560 -0.6215 -0.0232 -0.6508
  845MOL0     C16505   8.587   8.036  10.586  0.3112 -0.0640 -0.4185
  845MOL0     C16506   8.510   8.066  10.693 -0.6595 -0.7977  0.1156
  845MOL0     C16507   8.469   7.963  10.780 -0.9096 -0.2454 -0.0907
  845MOL0     O16508   8.375   7.977  10.875  0.6560  0.0404 -0.6649
  845MOL0     C16509   8.311   8.105  10.895  0.2140  0.9589 -0.1779
  845MOL0     C16510   8.207   8.109  11.013 -0.0024 -0.2499 -1.9188
  845MOL0     C16511   8.108   7.993  11.005  0.0672 -0.1490  0.0306
  845MOL0     C16512   8.011   7.985  11.130  0.5561 -0.8672 -0.0763
  845MOL0     C16513   7.873   8.046  11.107  0.5591  1.2002  0.4987
  845MOL0     C16514   7.793   8.064  11.228 -0.4388  0.9714  0.0448
  845MOL0     C16515   7.655   8.136  11.195 -0.7970 -0.0041 -0.6758
  845MOL0     C16516   7.575   8.143  11.320  1.0305 -0.6559  0.4831
  845MOL0    Cl16517   7.597   8.290  11.415 -0.2679 -0.4887 -0.6796
  845MOL0     C16518   8.529   7.843  10.770 -0.3261  0.4326  0.8042
  845MOL0     C16519   8.602   7.802  10.655 -0.5285 -0.6168 -0.1627
  845MOL0     O16520   8.894   7.988  10.483 -0.4934 -1.1724 -0.3972
  845MOL0     C16521   8.956   7.988  10.208 -0.3022  0.7470  0.8630
  845MOL0     C16522   9.014   7.952  10.080 -0.4693 -0.6377  0.1147
  845MOL0     N16523   9.536   7.843   9.781  0.4756 -0.0401  0.0622
  845MOL0     N16524   9.628   7.877   9.701  0.4610  0.2785 -0.6174
  845MOL0     C16525   9.954   9.009   9.648 -0.5410  0.5533  0.2406
  845MOL0     C16526   9.997   9.141   9.637 -0.0378  0.9566  0.2081
  845MOL0     C16527   9.999   9.577   9.753  0.3343  0.0083  0.1353
  845MOL0     C16528  10.126   9.611   9.813  0.1538  0.0180  0.5051
  845MOL0     C16529  10.191   9.740   9.805  0.2279  0.3423 -0.0223
  845MOL0     C16530  10.136   9.832   9.713  0.0068 -0.4691  0.3850
  845MOL0     O16531  10.190   9.962   9.723  0.0913  0.2082 -0.4558
  845MOL0     C16532  10.196  10.029   9.599  0.5802  0.2540 -0.9124
  845MOL0     C16533  10.336  10.042   9.547  1.3971 -0.1982  0.7275
  845MOL0     C16534  10.342  10.093   9.401  0.2426  0.0238 -0.1337
  845MOL0     C16535  10.481  10.113   9.342  0.6184 -0.2713 -0.5712
  845MOL0     C16536  10.524   9.990   9.267  0.4367 -0.6274 -0.5297
  845MOL0     C16537  10.565   9.897   9.201 -0.0769  0.5016 -0.8948
  845MOL0     C16538  10.012   9.798   9.648 -1.2252 -0.3486  0.9647
  845MOL0     C16539   9.941   9.676   9.672  0.1452 -0.3208 -0.2688
  845MOL0     C16540   9.799   9.660   9.608 -0.2234 -0.2181  0.1988
  845MOL0     H16541  10.000   9.204   9.977  0.0141 -0.0208 -0.3616
  845MOL0     H16542   9.936   8.955   9.984 -1.2729 -2.5911 -1.5453
  845MOL0     H16543   9.720   8.812   9.643 -4.7088  1.2922  1.9657
  845MOL0     H16544   9.674   8.848   9.805 -1.0859 -2.0800 -0.4932
  845MOL0     H16545   9.809   8.602   9.847  2.0816 -0.7399 -3.0652
  845MOL0     H16546   9.633   8.618   9.822  0.3000  1.9395  0.1364
  845MOL0     H16547   9.688   8.608   9.571  0.7864  2.8969  1.5076
  845MOL0     H16548   9.844   8.543   9.613 -0.6106 -3.2932 -0.5351
  845MOL0     H16549   9.738   8.374   9.751  2.3084  0.9266  0.2172
  845MOL0     H16550   9.583   8.416   9.683 -0.7072  2.4781 -1.8865
  845MOL0     H16551   9.817   8.351   9.507 -0.3816  1.6274  0.0240
  845MOL0     H16552   9.647   8.375   9.453  0.6692  0.7157  0.2767
  845MOL0     H16553   9.747   8.147   9.620 -2.3785 -0.9435  1.6968
  845MOL0     H16554   9.576   8.189   9.612  0.9858  3.6562  4.6682
  845MOL0     H16555   9.745   8.127   9.369  0.2286 -1.2918  0.8086
  845MOL0     H16556   9.569   8.137   9.371 -1.4242  0.0758  1.8130
  845MOL0     H16557   9.611   7.906   9.374  1.9309 -0.6297  0.0836
  845MOL0     H16558   9.753   7.919   9.476  1.2329  1.8269 -2.0637
  845MOL0     H16559   9.356   7.937   9.526  0.7349  1.0159 -0.1520
  845MOL0     H16560   9.222   7.930   9.717 -0.3729  0.1328  0.4882
  845MOL0     H16561   9.268   7.861   9.873  1.3773 -2.4008  0.6209
  845MOL0     H16562   9.258   7.678   9.606 -2.8628 -3.2845 -0.4813
  845MOL0     H16563   9.253   7.628   9.764  0.0835 -0.1843 -0.4639
  845MOL0     H16564   9.038   7.793   9.625  0.5841  2.2637  2.5771
  845MOL0     H16565   9.031   7.610   9.639  1.3662 -1.2675  0.4710
  845MOL0     H16566   8.875   7.710   9.788 -0.1154 -0.1487  0.3300
  845MOL0     H16567   8.998   7.622   9.873 -1.1908  0.3536  1.1264
  845MOL0     H16568   8.827   7.689   9.996 -2.0834  2.9615 -2.9469
  845MOL0     H16569   8.730   7.583  10.175 -0.1149  0.9048 -2.0745
  845MOL0     H16570   8.636   7.713  10.260  0.7262  0.8447  1.7740
  845MOL0     H16571   8.772   7.634  10.338  0.9400  0.4958 -0.1305
  845MOL0     H16572   8.608   8.117  10.517 -2.9600 -1.0650 -2.8393
  845MOL0     H16573   8.488   8.171  10.705 -1.4059 -1.1890  2.8458
  845MOL0     H16574   8.384   8.185  10.906  2.3565 -0.8563 -0.5463
  845MOL0     H16575   8.245   8.126  10.809 -0.3590 -3.4784 -1.0908
  845MOL0     H16576   8.265   8.090  11.104  0.2808 -1.2295 -2.2874
  845MOL0     H16577   8.169   8.211  11.021  0.4751 -0.2141  2.1263
  845MOL0     H16578   8.157   7.897  10.983  1.1015  1.0382 -3.5767
  845MOL0     H16579   8.050   8.028  10.919  3.6131  0.8500 -2.1724
  845MOL0     H16580   8.042   8.041  11.219 -1.5057  1.8389 -0.9333
  845MOL0     H16581   7.999   7.878  11.152  1.2944 -1.1986 -1.2353
  845MOL0     H16582   7.877   8.142  11.055 -2.7423 -0.0301 -2.4490
  845MOL0     H16583   7.813   7.989  11.035 -0.5571  0.5180  1.9206
  845MOL0     H16584   7.851   8.128  11.294 -0.1003  1.9062 -1.1321
  845MOL0     H16585   7.756   7.974  11.279 -0.9638  0.5588 -1.0279
  845MOL0     H16586   7.603   8.073  11.123  1.7625 -1.4230 -1.3992
  845MOL0     H16587   7.681   8.235  11.156 -0.7904  1.0172  1.7224
  845MOL0     H16588   7.585   8.056  11.386 -1.4769 -0.0574  1.7749
  845MOL0     H16589   7.473   8.152  11.282  1.7305  0.0762 -1.3773
  845MOL0     H16590   8.506   7.765  10.842 -1.0817 -1.7752 -1.6475
  845MOL0     H16591   8.638   7.702  10.631 -0.0898 -1.1136  2.2705
  845MOL0     H16592   8.992   8.073  10.263  4.0613  1.5749 -2.7071
  845MOL0     H16593   9.077   8.021  10.025 -1.2865 -0.3983 -0.5469
  845MOL0     H16594   9.938   8.962   9.551  0.0705  2.6791 -0.9510
  845MOL0     H16595  10.018   9.180   9.538 -2.3572 -0.6078 -0.9838
  845MOL0     H16596  10.185   9.545   9.875 -0.7896 -0.5491  0.8231
  845MOL0     H16597  10.285   9.762   9.856  1.4979 -1.0512 -1.6304
  845MOL0     H16598  10.134   9.979   9.523 -1.4249 -0.8118  1.3106
  845MOL0     H16599  10.160  10.131   9.614  1.7411  0.3625  1.6461
  845MOL0     H16600  10.383   9.944   9.556 -0.7638 -1.3992 -0.1952
  845MOL0     H16601  10.398  10.112   9.604  2.1288  1.1524 -1.6183
  845MOL0     H16602  10.282  10.030   9.334  0.0681 -0.4486  0.4551
  845MOL0     H16603  10.292  10.191   9.405  0.2305 -0.0172  2.3535
  845MOL0     H16604  10.540  10.130   9.433  0.4077 -1.7466 -0.1381
  845MOL0     H16605  10.474  10.202   9.279 -1.2084  0.1772  0.1891
  845MOL0     H16606  10.587   9.816   9.136  0.0403 -2.2007  2.2297
  845MOL0     H16607   9.970   9.882   9.594  0.3384  1.1575  1.9653
  845MOL0     H16608   9.765   9.756   9.567  0.3659 -0.3214 -0.5521
  845MOL0     H16609   9.804   9.591   9.523 -3.3792  0.1760 -0.4518
  845MOL0     H16610   9.716   9.633   9.674 -2.9545  0.3340 -2.7566
  846MOL0     O16611   8.312   1.580   3.126  0.6225  0.0715 -0.5889
  846MOL0     C16612   8.425   1.616   3.102  0.3382 -0.5369  0.4570
  846MOL0     O16613   8.540   1.579   3.166 -0.0409  0.0121  0.4373
  846MOL0     C16614   8.528   1.460   3.230  0.1152  0.0873  0.6185
  846MOL0     C16615   8.566   1.456   3.365 -0.8052 -0.1569 -0.2112
  846MOL0     C16616   8.605   1.334   3.432  0.1554 -0.2500  0.3812
  846MOL0     C16617   8.580   1.210   3.365  0.0951  0.1647  0.1385
  846MOL0     O16618   8.611   1.096   3.432 -0.4485 -0.2173 -0.5148
  846MOL0     C16619   8.587   1.087   3.573  1.1231  1.0633  0.6686
  846MOL0     C16620   8.731   1.070   3.633  0.4472 -0.9120 -0.0949
  846MOL0     C16621   8.746   1.068   3.784 -0.2256 -0.2597 -0.5273
  846MOL0     C16622   8.711   0.935   3.860  0.6350 -0.4303  0.1761
  846MOL0     C16623   8.699   0.976   4.008 -0.0053  0.9077 -0.4826
  846MOL0     C16624   8.717   0.850   4.097  0.2472 -0.2187  0.2170
  846MOL0     C16625   8.686   0.866   4.247 -1.2227 -0.1515 -0.0160
  846MOL0     C16626   8.674   0.732   4.313  0.0707 -0.2836  1.1365
  846MOL0     N16627   8.567   0.646   4.255 -0.0229 -0.2432  0.3777
  846MOL0     C16628   8.581   0.544   4.161 -0.4907  0.5393 -0.0883
  846MOL0     C16629   8.457   0.498   4.136 -0.6932 -0.0934 -0.0901
  846MOL0     C16630   8.423   0.376   4.056 -0.0597  0.5181  0.0755
  846MOL0     C16631   8.397   0.402   3.902  0.5746 -0.4549  0.0394
  846MOL0     C16632   8.507   0.377   3.804 -0.6484 -0.2847 -0.1303
  846MOL0     C16633   8.521   0.221   3.767  0.8586  0.3218 -0.4830
  846MOL0     O16634   8.595   0.200   3.652  0.0652 -0.8455 -0.4670
  846MOL0     C16635   8.640   0.073   3.630  0.7628  0.0358  1.2455
  846MOL0     C16636   8.575  -0.038   3.685 -0.2586 -0.8688 -0.2128
  846MOL0     C16637   8.628  -0.165   3.677 -0.0191  0.1968  0.1832
  846MOL0     C16638   8.536  -0.277   3.732  0.0659 -0.1110 -0.3216
  846MOL0     C16639   8.750  -0.179   3.613  0.2251 -0.2808 -0.1233
  846MOL0     C16640   8.811  -0.313   3.604 -0.4336 -0.0763 -0.9382
  846MOL0     O16641   8.944  -0.308   3.576  0.0306 -0.1842  0.4501
  846MOL0     C16642   9.024  -0.418   3.561  0.5527  0.7050 -0.6942
  846MOL0     C16643   9.012  -0.499   3.452 -0.1429  0.3466  0.0390
  846MOL0     C16644   9.099  -0.611   3.447  0.4024  0.1052  0.3179
  846MOL0     C16645   9.192  -0.636   3.540  0.2382 -0.1350 -0.6034
  846MOL0     O16646   9.274  -0.744   3.521 -0.5515 -0.2094 -0.1058
  846MOL0     C16647   9.348  -0.792   3.637 -0.1344 -0.6336 -0.6364
  846MOL0     C16648   9.497  -0.741   3.662 -0.5396  0.3352  0.6060
  846MOL0     C16649   9.568  -0.757   3.798 -0.5090 -0.1619  0.3282
  846MOL0     C16650   9.714  -0.740   3.796  0.5717 -0.1307 -0.4002
  846MOL0     C16651   9.762  -0.691   3.933  0.2094  0.0403  0.2398
  846MOL0     C16652   9.919  -0.666   3.935  0.1671 -0.6709  0.9663
  846MOL0     C16653   9.977  -0.595   4.064 -0.3267 -0.8041 -0.1827
  846MOL0     C16654  10.121  -0.632   4.086 -0.3987 -0.8237 -0.0816
  846MOL0    Cl16655  10.182  -0.551   4.236  0.2203  0.2589  0.3702
  846MOL0     C16656   9.191  -0.556   3.658 -1.4481 -0.0939  0.3559
  846MOL0     C16657   9.104  -0.446   3.672 -0.2227 -0.0565  0.5621
  846MOL0     O16658   8.759  -0.411   3.662 -0.8034  0.2820  0.8375
  846MOL0     C16659   8.803  -0.073   3.546 -0.5713 -0.3828 -0.2066
  846MOL0     C16660   8.759   0.057   3.558 -0.4154  0.6828 -0.4237
  846MOL0     N16661   8.366   0.573   4.211  0.3071  0.4036 -0.0889
  846MOL0     N16662   8.434   0.663   4.269 -0.0578  0.2134  0.2539
  846MOL0     C16663   8.534   1.210   3.229  0.3277 -0.0847 -0.0860
  846MOL0     C16664   8.514   1.339   3.161 -0.5070 -0.3599 -0.6195
  846MOL0     C16665   8.448   1.718   2.999  0.5457  0.8938 -0.8529
  846MOL0     C16666   8.573   1.784   3.002 -0.0036 -0.7154 -0.9621
  846MOL0     C16667   8.599   1.881   2.905 -0.0657 -0.1170  0.4847
  846MOL0     C16668   8.500   1.914   2.807  0.3628 -0.6488  0.2357
  846MOL0     O16669   8.510   2.019   2.711  0.2465 -0.1389  0.6197
  846MOL0     C16670   8.638   2.086   2.722 -0.5667 -0.3192 -0.2687
  846MOL0     C16671   8.659   2.190   2.605  0.4582 -0.2943  0.3126
  846MOL0     C16672   8.669   2.109   2.479 -0.3181  0.2541  0.1815
  846MOL0     C16673   8.580   2.155   2.360 -0.7067 -0.2367 -0.3116
  846MOL0     C16674   8.654   2.261   2.287  0.9728  0.2348 -0.7421
  846MOL0     C16675   8.726   2.342   2.238 -0.5620  0.0570  1.1686
  846MOL0     C16676   8.375   1.858   2.819 -0.3592 -0.2613 -0.0776
  846MOL0     C16677   8.353   1.749   2.898  1.3879 -0.7522 -0.5352
  846MOL0     C16678   8.217   1.676   2.881  0.0908  0.0824  1.0070
  846MOL0     H16679   8.573   1.554   3.411 -0.3155  0.1172 -0.8659
  846MOL0     H16680   8.639   1.337   3.535 -0.5510 -0.2377  0.6174
  846MOL0     H16681   8.534   0.995   3.600  0.9604  0.9914  0.1105
  846MOL0     H16682   8.530   1.175   3.601 -0.9420  1.2283 -3.4011
  846MOL0     H16683   8.789   0.988   3.589  0.7514 -1.0050  0.4774
  846MOL0     H16684   8.785   1.159   3.601 -0.1213 -1.3725 -2.5580
  846MOL0     H16685   8.849   1.098   3.806  0.4032 -0.5605 -2.8434
  846MOL0     H16686   8.678   1.146   3.820 -1.7094 -1.3060 -0.9567
  846MOL0     H16687   8.623   0.881   3.826  1.3553 -1.0396 -0.7621
  846MOL0     H16688   8.796   0.867   3.846  1.3624  0.0219  2.0122
  846MOL0     H16689   8.604   1.028   4.020  0.8451  2.6819 -1.2429
  846MOL0     H16690   8.778   1.048   4.031 -1.1123  2.5970 -1.7404
  846MOL0     H16691   8.655   0.771   4.056  0.2387 -0.2304  0.2529
  846MOL0     H16692   8.819   0.815   4.079  0.5490  0.4435  0.5916
  846MOL0     H16693   8.588   0.915   4.253 -0.0593  2.4348 -0.6491
  846MOL0     H16694   8.759   0.929   4.299 -0.7551  1.4839 -2.5011
  846MOL0     H16695   8.775   0.692   4.303 -0.4599 -1.0471 -3.0876
  846MOL0     H16696   8.642   0.745   4.417 -0.2221 -1.0876  1.1504
  846MOL0     H16697   8.678   0.504   4.131 -0.4231  1.0092 -0.5129
  846MOL0     H16698   8.329   0.330   4.089 -2.0788  2.3543 -2.6109
  846MOL0     H16699   8.502   0.302   4.067 -0.7635  0.0153  2.1217
  846MOL0     H16700   8.317   0.328   3.885  2.0852 -2.1613  0.0636
  846MOL0     H16701   8.363   0.504   3.880 -1.0941 -1.3787 -2.1317
  846MOL0     H16702   8.486   0.444   3.720 -2.0566  0.7134  0.9805
  846MOL0     H16703   8.605   0.400   3.847 -1.8611 -0.7140  3.1794
  846MOL0     H16704   8.556   0.173   3.859 -0.5350 -1.1914 -0.6890
  846MOL0     H16705   8.418   0.189   3.750  0.3399  0.9382  1.1918
  846MOL0     H16706   8.481  -0.029   3.738 -1.0859 -2.2515 -1.3827
  846MOL0     H16707   8.446  -0.227   3.770 -0.1883  1.4778 -2.8142
  846MOL0     H16708   8.574  -0.340   3.813 -1.2319 -3.1070 -1.8606
  846MOL0     H16709   8.510  -0.345   3.650  1.5323  1.1452 -1.8941
  846MOL0     H16710   8.937  -0.490   3.374 -2.8538  3.1556  2.7010
  846MOL0     H16711   9.095  -0.680   3.363  0.0165 -0.6316  0.9250
  846MOL0     H16712   9.296  -0.777   3.732  1.8785 -0.9094  0.5768
  846MOL0     H16713   9.348  -0.901   3.626 -0.0864 -0.5012 -2.1913
  846MOL0     H16714   9.559  -0.790   3.586 -0.3000  2.4910 -0.6845
  846MOL0     H16715   9.493  -0.633   3.641  0.4468  1.1693  4.0246
  846MOL0     H16716   9.545  -0.861   3.824 -0.3706 -0.8843 -2.1894
  846MOL0     H16717   9.521  -0.693   3.873  0.6513 -0.0047  0.9460
  846MOL0     H16718   9.732  -0.666   3.717 -2.1145  2.4785  1.1946
  846MOL0     H16719   9.770  -0.831   3.775  2.7291  1.1032 -0.2690
  846MOL0     H16720   9.713  -0.599   3.966  2.9130  1.4575  0.5747
  846MOL0     H16721   9.739  -0.765   4.010 -1.3171 -0.4295 -0.6184
  846MOL0     H16722   9.944  -0.603   3.849 -4.7155 -1.1238 -1.1044
  846MOL0     H16723   9.964  -0.764   3.916 -2.3593 -1.4754 -1.6352
  846MOL0     H16724   9.916  -0.623   4.150  2.0819 -0.9795  1.5546
  846MOL0     H16725   9.973  -0.486   4.057  0.4140 -0.8456 -1.5515
  846MOL0     H16726  10.180  -0.599   4.000 -1.7963 -0.4212 -0.9232
  846MOL0     H16727  10.131  -0.740   4.092  0.3121 -0.9551 -2.6970
  846MOL0     H16728   9.257  -0.561   3.744 -0.6931  0.6634 -0.1646
  846MOL0     H16729   9.096  -0.399   3.769 -0.1437 -0.5020  0.7912
  846MOL0     H16730   8.897  -0.089   3.494  0.6184  1.9503  1.0555
  846MOL0     H16731   8.807   0.141   3.509  1.1356  2.0991  3.2304
  846MOL0     H16732   8.528   1.119   3.170 -1.1798  0.4579 -0.8149
  846MOL0     H16733   8.483   1.347   3.057 -3.4466  1.0599  0.2458
  846MOL0     H16734   8.654   1.773   3.073  1.9785 -4.7111 -3.4580
  846MOL0     H16735   8.698   1.925   2.896 -1.2463  2.2883 -1.8985
  846MOL0     H16736   8.620   2.139   2.816 -3.4693  0.4854 -1.1775
  846MOL0     H16737   8.716   2.010   2.725 -0.9673 -0.7427 -0.4726
  846MOL0     H16738   8.749   2.251   2.614  2.1140 -2.5717 -0.1015
  846MOL0     H16739   8.576   2.261   2.606  2.2037  1.8925 -0.9953
  846MOL0     H16740   8.774   2.123   2.449 -0.6398 -1.8751 -2.2522
  846MOL0     H16741   8.652   2.004   2.502 -0.4202  0.5312  1.4342
  846MOL0     H16742   8.484   2.188   2.401 -0.2068 -1.4189  1.9394
  846MOL0     H16743   8.567   2.084   2.277  0.2360  2.3097 -2.8311
  846MOL0     H16744   8.775   2.421   2.186  0.7535 -1.3802  0.1170
  846MOL0     H16745   8.297   1.887   2.749 -0.2690  0.3667  0.0775
  846MOL0     H16746   8.175   1.694   2.781  0.1253  1.4141  1.2224
  846MOL0     H16747   8.210   1.567   2.893 -0.2037 -0.3536 -2.2338
  846MOL0     H16748   8.151   1.730   2.949 -0.3279  1.1608 -0.2025
  847MOL0     O16749   5.535  11.419   2.454  0.3647 -0.0162 -0.4305
  847MOL0     C16750   5.624  11.338   2.453  0.0695  0.0499 -0.6697
  847MOL0     O16751   5.741  11.350   2.381 -0.1888  0.3199 -0.1053
  847MOL0     C16752   5.731  11.430   2.273  0.3371 -0.1815  0.5748
  847MOL0     C16753   5.720  11.566   2.288  0.5108  0.2904  0.6715
  847MOL0     C16754   5.709  11.648   2.175 -0.2910  0.0579 -0.6012
  847MOL0     C16755   5.709  11.584   2.052  0.0674  0.3651 -0.7583
  847MOL0     O16756   5.705  11.632   1.921 -0.0407  0.2178  0.0206
  847MOL0     C16757   5.724  11.772   1.897  0.9189 -0.5151  0.1130
  847MOL0     C16758   5.865  11.799   1.842  0.0977 -0.1420 -0.7022
  847MOL0     C16759   5.973  11.749   1.940 -0.2215 -0.3869  0.6187
  847MOL0     C16760   6.105  11.782   1.884  0.0455 -0.0553  0.3703
  847MOL0     C16761   6.202  11.711   1.968 -0.4563  1.6644 -0.4057
  847MOL0     C16762   6.346  11.744   1.937 -0.6957 -0.4220  0.0463
  847MOL0     C16763   6.452  11.674   2.016  0.7481 -0.6717  0.0844
  847MOL0     C16764   6.590  11.728   2.010  0.5630  0.3011  0.4226
  847MOL0     N16765   6.690  11.648   2.086 -0.0663 -0.1109 -0.1510
  847MOL0     C16766   6.714  11.662   2.215  0.7760  0.4074 -0.1012
  847MOL0     C16767   6.820  11.573   2.241  1.4422 -0.1775  1.6942
  847MOL0     C16768   6.888  11.565   2.368 -0.1690 -0.4306 -0.0118
  847MOL0     C16769   7.031  11.628   2.364 -0.4094  0.9856  0.4063
  847MOL0     C16770   7.102  11.647   2.505  0.5514  0.1427  0.3807
  847MOL0     C16771   7.221  11.739   2.512 -0.9032  0.4304  0.1482
  847MOL0     O16772   7.281  11.719   2.637  0.0869 -0.3677 -0.4256
  847MOL0     C16773   7.391  11.788   2.673 -0.3354 -0.6787 -0.5181
  847MOL0     C16774   7.477  11.738   2.766 -0.1956 -0.5533  0.2275
  847MOL0     C16775   7.597  11.800   2.795 -0.1794  0.6275  0.3715
  847MOL0     C16776   7.690  11.730   2.875  0.9238  0.9106 -0.9943
  847MOL0     C16777   7.626  11.930   2.748  0.0693  0.5033  0.2048
  847MOL0     C16778   7.753  11.996   2.781 -0.2177 -0.9306  0.3108
  847MOL0     O16779   7.736  12.125   2.810 -0.1051  0.1747 -0.0957
  847MOL0     C16780   7.835  12.217   2.822 -0.6897 -0.1516  0.3651
  847MOL0     C16781   7.800  12.322   2.903  0.3157  0.9757 -1.5037
  847MOL0     C16782   7.892  12.423   2.926  0.0334  0.1965  0.2132
  847MOL0     C16783   8.019  12.431   2.869 -0.0222  0.1290 -0.6002
  847MOL0     O16784   8.100  12.540   2.875 -0.0622 -0.7227  0.7117
  847MOL0     C16785   8.118  12.621   2.999 -1.0141  0.1098  0.6093
  847MOL0     C16786   8.047  12.753   2.993 -0.1759  0.7640  0.3858
  847MOL0     C16787   8.055  12.830   3.120  0.5679 -0.1631 -0.5717
  847MOL0     C16788   7.975  12.956   3.126  0.6405  0.0159  0.5034
  847MOL0     C16789   7.950  12.991   3.273  0.0163 -0.4910  0.1183
  847MOL0     C16790   7.927  13.140   3.300 -0.0661 -0.5721  0.9877
  847MOL0     C16791   7.843  13.149   3.427  0.1769  0.2608  0.3645
  847MOL0     C16792   7.767  13.287   3.432 -0.2292  0.2841 -1.1082
  847MOL0    Cl16793   7.887  13.429   3.453  0.0812  0.2612 -0.3689
  847MOL0     C16794   8.053  12.317   2.788  0.2140  0.5608 -0.5580
  847MOL0     C16795   7.962  12.216   2.761 -1.1955  0.4441  0.3598
  847MOL0     O16796   7.866  11.947   2.775 -0.2973  0.2325 -0.6289
  847MOL0     C16797   7.528  11.985   2.666 -0.6333 -0.0688  0.0296
  847MOL0     C16798   7.420  11.911   2.619 -0.3777  0.3349 -0.3355
  847MOL0     N16799   6.855  11.510   2.121 -0.5528 -0.3763 -0.0893
  847MOL0     N16800   6.789  11.562   2.027  0.4006  0.0717  0.2909
  847MOL0     C16801   5.702  11.447   2.043 -0.1693  0.3233  1.1270
  847MOL0     C16802   5.717  11.367   2.149  0.4858 -0.3263 -0.6039
  847MOL0     C16803   5.610  11.227   2.535 -0.8295  0.0857 -0.5592
  847MOL0     C16804   5.635  11.101   2.474 -0.7453  0.1588 -0.1786
  847MOL0     C16805   5.619  10.980   2.548  0.3197 -0.7956  0.5686
  847MOL0     C16806   5.591  10.986   2.676  0.1714  0.1262  0.2812
  847MOL0     O16807   5.573  10.864   2.740 -0.7611  0.2414  0.1788
  847MOL0     C16808   5.466  10.864   2.829 -0.0910  0.4980 -0.0985
  847MOL0     C16809   5.400  10.727   2.843 -0.2774 -0.7737 -0.7374
  847MOL0     C16810   5.307  10.688   2.722 -0.3443 -0.1933 -0.0337
  847MOL0     C16811   5.357  10.711   2.581  0.3004  0.4699 -0.5090
  847MOL0     C16812   5.261  10.678   2.481  0.4495  0.0720 -0.1570
  847MOL0     C16813   5.166  10.675   2.401 -0.6574 -0.0685 -0.3189
  847MOL0     C16814   5.578  11.107   2.745 -0.5881 -0.1421  0.7752
  847MOL0     C16815   5.574  11.231   2.678 -0.4848  0.3419 -0.1920
  847MOL0     C16816   5.544  11.349   2.765 -0.0083  0.0540  0.9243
  847MOL0     H16817   5.714  11.602   2.390  4.0023 -1.0507  1.5035
  847MOL0     H16818   5.698  11.756   2.178  0.2832  0.1037  0.4876
  847MOL0     H16819   5.707  11.835   1.984  0.7793  0.4523 -0.6045
  847MOL0     H16820   5.641  11.785   1.827 -0.3772 -2.1723  1.2509
  847MOL0     H16821   5.881  11.755   1.743  1.5190  1.0409 -1.0180
  847MOL0     H16822   5.881  11.906   1.830  1.5859  0.0051  1.9109
  847MOL0     H16823   5.953  11.799   2.035  0.2805  4.0707 -1.3393
  847MOL0     H16824   5.955  11.642   1.949  1.9658 -0.7995  0.4171
  847MOL0     H16825   6.102  11.732   1.786  0.8737 -2.2073  1.3698
  847MOL0     H16826   6.117  11.890   1.873  0.2553 -0.0475  0.6731
  847MOL0     H16827   6.179  11.607   1.942 -0.1680  0.9310  1.9939
  847MOL0     H16828   6.172  11.737   2.070  1.0989  1.0884  0.2261
  847MOL0     H16829   6.359  11.720   1.831 -2.5826  2.0672 -0.8550
  847MOL0     H16830   6.372  11.850   1.935  0.4545 -0.6726  0.8265
  847MOL0     H16831   6.441  11.572   1.980 -2.2580 -1.4957  2.8813
  847MOL0     H16832   6.431  11.680   2.123 -3.0356 -1.6535 -0.4797
  847MOL0     H16833   6.634  11.740   1.911  0.0193 -5.0922 -0.8057
  847MOL0     H16834   6.589  11.832   2.043 -0.0044  0.0924  1.0772
  847MOL0     H16835   6.668  11.742   2.273 -0.1837  0.0246 -0.3300
  847MOL0     H16836   6.873  11.459   2.393 -2.2232 -1.4540 -4.6449
  847MOL0     H16837   6.822  11.615   2.439 -0.4571 -0.5741 -0.1760
  847MOL0     H16838   7.094  11.558   2.309 -0.5504 -0.2128  1.7094
  847MOL0     H16839   7.034  11.725   2.314  2.7896  1.5513  1.4830
  847MOL0     H16840   7.029  11.675   2.581  1.2689 -0.0086  1.1402
  847MOL0     H16841   7.147  11.553   2.538  1.4086  0.5434  0.3827
  847MOL0     H16842   7.303  11.712   2.445  4.0841  1.0314  5.2185
  847MOL0     H16843   7.171  11.836   2.505 -0.7176  0.4659 -0.8111
  847MOL0     H16844   7.457  11.641   2.810 -0.2978 -1.1042 -0.9984
  847MOL0     H16845   7.789  11.721   2.830 -0.0015  0.7605 -3.0986
  847MOL0     H16846   7.657  11.631   2.909  2.9506  1.1932  2.3238
  847MOL0     H16847   7.681  11.776   2.974 -0.4770 -1.3820  0.0527
  847MOL0     H16848   7.705  12.305   2.952  0.7448 -0.4193 -1.1196
  847MOL0     H16849   7.866  12.515   2.977 -1.8764  0.6209 -1.4222
  847MOL0     H16850   8.083  12.561   3.083  0.1501 -1.1421  0.2409
  847MOL0     H16851   8.223  12.645   3.018 -0.8519  0.0263 -0.1492
  847MOL0     H16852   8.087  12.808   2.907 -2.6579  2.5866  0.2688
  847MOL0     H16853   7.940  12.742   2.972 -0.1644  1.1979  0.0898
  847MOL0     H16854   8.155  12.846   3.161 -0.4299  2.3439  1.0985
  847MOL0     H16855   8.005  12.757   3.184 -2.8961  0.4881 -2.3112
  847MOL0     H16856   7.872  12.941   3.092 -0.2384  3.0053  1.5379
  847MOL0     H16857   8.029  13.031   3.068  1.2872 -1.7222 -1.2837
  847MOL0     H16858   7.873  12.923   3.309  1.4043 -1.8188  0.7102
  847MOL0     H16859   8.030  12.951   3.336 -1.1082 -2.9532  0.1247
  847MOL0     H16860   7.884  13.200   3.219  0.7458  0.2663  1.1580
  847MOL0     H16861   8.026  13.187   3.310 -0.0820 -0.1752 -0.4889
  847MOL0     H16862   7.912  13.142   3.512 -1.5660 -1.4220  1.7501
  847MOL0     H16863   7.767  13.072   3.443 -0.6420  0.7172 -1.1690
  847MOL0     H16864   7.691  13.279   3.510 -1.7034 -2.5875 -2.6564
  847MOL0     H16865   7.717  13.294   3.335  1.9698  1.7474 -2.2129
  847MOL0     H16866   8.142  12.312   2.726  0.7998  0.3228  0.2910
  847MOL0     H16867   7.985  12.136   2.692 -1.1956  0.2419  0.5927
  847MOL0     H16868   7.557  12.084   2.632  0.7298  0.1676  1.7562
  847MOL0     H16869   7.350  11.961   2.553  0.5468  0.8405 -0.9508
  847MOL0     H16870   5.700  11.396   1.947 -0.4706  0.0714  1.2616
  847MOL0     H16871   5.723  11.259   2.147 -0.0785 -0.3613 -0.7412
  847MOL0     H16872   5.661  11.086   2.370  0.3831 -0.4778  0.1821
  847MOL0     H16873   5.608  10.885   2.496 -0.6757  0.5988 -1.9429
  847MOL0     H16874   5.509  10.897   2.924  1.6120  1.0168 -1.0038
  847MOL0     H16875   5.387  10.930   2.791 -0.4689  1.0566  1.5832
  847MOL0     H16876   5.336  10.727   2.932 -1.1868  3.3248 -1.1919
  847MOL0     H16877   5.477  10.651   2.857 -0.0011 -0.0368  2.4184
  847MOL0     H16878   5.279  10.582   2.729 -0.8401 -0.1787 -1.5561
  847MOL0     H16879   5.215  10.741   2.748 -1.7444 -0.1660 -4.2754
  847MOL0     H16880   5.456  10.666   2.568  0.9864  1.1415  1.8349
  847MOL0     H16881   5.373  10.818   2.570 -0.5143  0.7415  0.7821
  847MOL0     H16882   5.077  10.690   2.343  0.2766  2.3477 -1.2718
  847MOL0     H16883   5.564  11.122   2.852  0.9078 -0.2989  1.0142
  847MOL0     H16884   5.629  11.411   2.795  1.9774 -0.8143 -2.4329
  847MOL0     H16885   5.476  11.409   2.704  2.3931 -0.7935 -2.9220
  847MOL0     H16886   5.492  11.316   2.856 -0.0903 -1.8662  0.2361
  848MOL0     O16887   9.131   9.627   8.786 -0.2498  0.6158  0.0325
  848MOL0     C16888   9.069   9.618   8.891  0.2306  0.1805  0.6933
  848MOL0     O16889   8.938   9.660   8.914 -0.4817  0.3648  0.3675
  848MOL0     C16890   8.885   9.722   8.812  0.3112  0.2503  1.0159
  848MOL0     C16891   8.781   9.660   8.734 -0.1110  0.2437  0.6480
  848MOL0     C16892   8.725   9.716   8.621 -0.4285 -0.4665 -0.0209
  848MOL0     C16893   8.763   9.849   8.585  0.7111 -0.4238  0.0622
  848MOL0     O16894   8.726   9.907   8.465 -0.2398  0.5229 -0.1370
  848MOL0     C16895   8.704   9.818   8.353 -0.5284  0.6542 -0.6280
  848MOL0     C16896   8.690   9.911   8.222 -0.2340 -0.0931 -0.8128
  848MOL0     C16897   8.573  10.021   8.250  0.1739 -0.3838 -0.0155
  848MOL0     C16898   8.425   9.966   8.247  0.3153  0.2669 -0.2836
  848MOL0     C16899   8.311  10.083   8.273  0.0449  0.9705  0.2061
  848MOL0     C16900   8.315  10.204   8.167 -0.1715  0.2296 -0.7766
  848MOL0     C16901   8.200  10.287   8.186 -0.5604  0.0307  0.1362
  848MOL0     C16902   8.230  10.388   8.304 -0.3348 -0.1769 -0.4826
  848MOL0     N16903   8.101  10.456   8.324  0.2423 -0.1228  0.2354
  848MOL0     C16904   8.067  10.575   8.266 -1.0141  0.5380 -0.5795
  848MOL0     C16905   7.942  10.601   8.307 -0.2210 -0.4932  1.2951
  848MOL0     C16906   7.855  10.714   8.268  0.7795 -0.2095 -0.4362
  848MOL0     C16907   7.740  10.750   8.369  0.0633 -0.0392 -0.2830
  848MOL0     C16908   7.603  10.708   8.310 -0.0626  0.2226 -0.0053
  848MOL0     C16909   7.476  10.746   8.399 -1.0765  0.0425 -0.4943
  848MOL0     O16910   7.476  10.890   8.418  0.4233  0.3323  0.4429
  848MOL0     C16911   7.399  10.949   8.517  0.6355 -0.4160  0.1720
  848MOL0     C16912   7.332  10.877   8.616 -0.3097  0.0899  0.5618
  848MOL0     C16913   7.272  10.932   8.722 -0.0593 -0.2651  0.7854
  848MOL0     C16914   7.198  10.851   8.823  0.4766  0.6205  0.0578
  848MOL0     C16915   7.273  11.070   8.726  0.0405 -0.0146  0.9514
  848MOL0     C16916   7.222  11.145   8.839  0.9457  0.3153  0.2109
  848MOL0     O16917   7.148  11.259   8.815 -1.1248 -0.2644  0.0700
  848MOL0     C16918   7.149  11.338   8.928 -0.1532  0.4155 -0.0157
  848MOL0     C16919   7.216  11.455   8.924  0.8472 -0.6050  0.2940
  848MOL0     C16920   7.211  11.548   9.031  0.7358  0.0506  0.2330
  848MOL0     C16921   7.145  11.516   9.150  1.0460 -0.2789  0.1247
  848MOL0     O16922   7.133  11.599   9.261  0.9363  0.5490  0.0468
  848MOL0     C16923   7.179  11.729   9.243 -0.3938 -0.5382 -0.5410
  848MOL0     C16924   7.117  11.827   9.346  0.3125  0.6443  1.1275
  848MOL0     C16925   7.141  11.778   9.493 -0.1127  0.1401  0.6649
  848MOL0     C16926   7.127  11.899   9.583 -0.4323  1.5141 -0.5263
  848MOL0     C16927   7.115  11.854   9.727  0.1732  0.0469 -0.0992
  848MOL0     C16928   7.049  11.976   9.807  0.0506  0.2927 -0.1090
  848MOL0     C16929   6.908  12.019   9.774  0.0259 -0.4954  0.7084
  848MOL0     C16930   6.839  12.101   9.888 -0.6626 -0.2502 -0.6707
  848MOL0    Cl16931   6.771  11.992  10.019 -0.4121 -0.3336 -0.0304
  848MOL0     C16932   7.070  11.395   9.153  0.0975  0.1542  0.2822
  848MOL0     C16933   7.072  11.306   9.043 -0.3049 -0.2647 -0.3724
  848MOL0     O16934   7.256  11.105   8.949 -0.5437  0.4014 -0.0641
  848MOL0     C16935   7.338  11.157   8.633  0.5288  0.2820 -0.9365
  848MOL0     C16936   7.406  11.092   8.526 -0.1837  0.9064 -1.3816
  848MOL0     N16937   7.897  10.492   8.377 -0.2257  0.3956  0.1513
  848MOL0     N16938   7.997  10.408   8.386  0.4306  0.0257  0.8492
  848MOL0     C16939   8.859   9.913   8.665  0.0150 -0.1381 -0.2328
  848MOL0     C16940   8.912   9.855   8.786  0.8410 -0.4061 -0.2935
  848MOL0     C16941   9.138   9.554   9.001  0.2323 -0.2544 -0.1145
  848MOL0     C16942   9.077   9.472   9.093 -0.5503  0.7555  0.0651
  848MOL0     C16943   9.141   9.430   9.209 -0.1502  0.7132  0.1631
  848MOL0     C16944   9.271   9.462   9.245  0.1814  0.5301  0.7118
  848MOL0     O16945   9.314   9.408   9.364  0.1614 -0.3302 -0.4314
  848MOL0     C16946   9.446   9.451   9.397 -0.2118  0.4077  0.2098
  848MOL0     C16947   9.472   9.395   9.542  0.0747 -0.0757 -0.4385
  848MOL0     C16948   9.500   9.242   9.563 -0.3284  0.6591 -0.0931
  848MOL0     C16949   9.563   9.223   9.705  0.3540 -1.3455  0.3484
  848MOL0     C16950   9.487   9.134   9.787 -0.1251  0.1697 -0.8946
  848MOL0     C16951   9.415   9.047   9.835  0.0476 -0.0832  0.6243
  848MOL0     C16952   9.336   9.548   9.148 -0.9106 -0.0768 -0.1655
  848MOL0     C16953   9.271   9.602   9.036  0.2600 -0.0197  0.4526
  848MOL0     C16954   9.347   9.691   8.957  0.8486 -0.8620  0.9073
  848MOL0     H16955   8.738   9.567   8.771  0.6072  1.3257  4.6542
  848MOL0     H16956   8.647   9.666   8.565  0.5757  1.7694 -3.7091
  848MOL0     H16957   8.613   9.759   8.362  0.8540 -1.4763 -0.0217
  848MOL0     H16958   8.782   9.743   8.337 -1.9568 -0.8140 -0.9697
  848MOL0     H16959   8.789   9.955   8.204 -0.3619 -0.3966 -2.4620
  848MOL0     H16960   8.668   9.859   8.128  1.0944  0.0339 -1.2210
  848MOL0     H16961   8.579  10.062   8.351  1.6706 -1.4259  0.3582
  848MOL0     H16962   8.589  10.101   8.178 -1.9520  0.4942  0.4146
  848MOL0     H16963   8.418   9.934   8.142 -0.6249  1.2132 -0.5221
  848MOL0     H16964   8.414   9.875   8.307  1.2884 -0.9555 -1.8666
  848MOL0     H16965   8.312  10.121   8.375  1.0354 -2.4111  1.6098
  848MOL0     H16966   8.215  10.031   8.261  1.7889 -2.1996 -1.3945
  848MOL0     H16967   8.405  10.261   8.189 -2.0435  1.9601  3.4734
  848MOL0     H16968   8.332  10.157   8.069  5.0738  1.3508 -0.6786
  848MOL0     H16969   8.122  10.217   8.215  0.2037 -2.0312 -2.4368
  848MOL0     H16970   8.157  10.338   8.099 -1.1302 -0.2483  0.2492
  848MOL0     H16971   8.268  10.354   8.401  0.7265  0.3733 -0.6868
  848MOL0     H16972   8.314  10.451   8.273 -0.4971 -0.4443 -1.5097
  848MOL0     H16973   8.127  10.639   8.202 -0.0137  0.3433  0.1293
  848MOL0     H16974   7.821  10.695   8.165 -0.7410 -1.2494  0.2159
  848MOL0     H16975   7.925  10.796   8.282 -1.0607  1.4348 -0.4023
  848MOL0     H16976   7.779  10.694   8.454  2.6673 -0.5706 -1.7162
  848MOL0     H16977   7.730  10.854   8.402  2.5878 -0.7863  3.4151
  848MOL0     H16978   7.595  10.758   8.213 -1.1980  0.8906  0.4139
  848MOL0     H16979   7.584  10.601   8.302  2.0287 -0.0862 -1.5322
  848MOL0     H16980   7.385  10.709   8.351 -1.2188 -0.4054  0.1027
  848MOL0     H16981   7.485  10.690   8.492  2.1633 -0.4316 -0.9693
  848MOL0     H16982   7.328  10.769   8.608  1.2000  0.0254  0.5544
  848MOL0     H16983   7.105  10.896   8.858  0.6251  1.7799 -0.9705
  848MOL0     H16984   7.263  10.830   8.908 -1.8996 -0.3265  1.7533
  848MOL0     H16985   7.164  10.768   8.760 -0.2315  2.6938 -2.4376
  848MOL0     H16986   7.285  11.465   8.841 -0.2794 -3.2396 -1.0562
  848MOL0     H16987   7.274  11.634   9.013  1.2461  0.5366  3.7040
  848MOL0     H16988   7.288  11.733   9.253 -0.4987  0.2939  0.3621
  848MOL0     H16989   7.151  11.773   9.146 -0.7339  1.9188  0.6052
  848MOL0     H16990   7.147  11.929   9.322  0.1043  0.4270 -0.1156
  848MOL0     H16991   7.009  11.824   9.328  0.6592 -0.2002 -1.0883
  848MOL0     H16992   7.244  11.742   9.502 -0.3352 -0.4566  0.8986
  848MOL0     H16993   7.069  11.701   9.524  0.9141 -0.1394  2.5487
  848MOL0     H16994   7.026  11.937   9.570 -1.8556 -1.2522  1.4948
  848MOL0     H16995   7.211  11.966   9.559  1.0997  0.2587  1.0586
  848MOL0     H16996   7.047  11.769   9.740  0.8879 -0.2087  2.5796
  848MOL0     H16997   7.213  11.824   9.764  0.5511  1.0910 -0.2197
  848MOL0     H16998   7.111  12.064   9.790 -1.1515  1.5865  1.7758
  848MOL0     H16999   7.052  11.954   9.915 -1.0496  2.9082  0.5527
  848MOL0     H17000   6.853  11.928   9.747  0.8815 -0.4665 -1.3236
  848MOL0     H17001   6.913  12.073   9.679  1.1057 -2.0625 -0.1803
  848MOL0     H17002   6.752  12.149   9.842 -2.3212 -0.7907  1.7497
  848MOL0     H17003   6.908  12.169   9.938 -1.7992  0.8255 -0.5198
  848MOL0     H17004   7.007  11.374   9.239  1.7450  2.4326  2.1897
  848MOL0     H17005   7.017  11.212   9.051 -2.4594  0.7949 -1.7842
  848MOL0     H17006   7.349  11.260   8.663  2.8115  0.1902 -1.2877
  848MOL0     H17007   7.443  11.155   8.446 -0.5716  0.8954 -1.5684
  848MOL0     H17008   8.900  10.004   8.622 -0.9704  0.0822 -0.7376
  848MOL0     H17009   8.994   9.910   8.832  0.1134  0.8815 -0.4818
  848MOL0     H17010   8.974   9.444   9.073 -0.0298 -1.4617  0.1698
  848MOL0     H17011   9.073   9.362   9.259 -1.2008  1.8631  0.3565
  848MOL0     H17012   9.519   9.417   9.323 -0.7630  1.2088 -0.7173
  848MOL0     H17013   9.452   9.561   9.396 -0.5234  0.4212 -0.9643
  848MOL0     H17014   9.388   9.427   9.604  2.8406  4.4291  1.5374
  848MOL0     H17015   9.556   9.456   9.576 -0.8961  0.7956  0.4531
  848MOL0     H17016   9.403   9.191   9.563  1.1410 -2.4074  0.9114
  848MOL0     H17017   9.574   9.205   9.491 -1.4841 -0.5841 -0.6821
  848MOL0     H17018   9.593   9.318   9.750  1.0260 -1.4405  0.1091
  848MOL0     H17019   9.659   9.171   9.700  0.7110 -0.9248  2.1050
  848MOL0     H17020   9.368   8.965   9.886  0.8783 -1.0790 -0.1490
  848MOL0     H17021   9.441   9.571   9.164 -1.4703  1.6964  1.2350
  848MOL0     H17022   9.291   9.785   8.947 -1.1343 -1.7406  2.9329
  848MOL0     H17023   9.438   9.710   9.014 -0.9768  2.0995  3.2013
  848MOL0     H17024   9.365   9.650   8.857 -0.1101  1.0914 -0.1329
  849MOL0     O17025   6.397   6.392   4.621  0.4395  0.1863  0.7155
  849MOL0     C17026   6.328   6.411   4.724  0.3202 -0.7883 -0.5155
  849MOL0     O17027   6.263   6.321   4.793  0.7831  0.7206  0.2331
  849MOL0     C17028   6.271   6.205   4.732  0.1005 -0.0599 -0.0607
  849MOL0     C17029   6.192   6.179   4.617  0.0982  0.9961 -1.1449
  849MOL0     C17030   6.202   6.054   4.555 -0.7842  0.1898  0.1679
  849MOL0     C17031   6.287   5.953   4.595  0.6737 -0.2205  0.1032
  849MOL0     O17032   6.295   5.828   4.521  1.1345 -0.1640  0.2671
  849MOL0     C17033   6.399   5.726   4.551  1.0029 -0.4407 -0.1189
  849MOL0     C17034   6.407   5.641   4.426  0.8111 -0.5411  0.9225
  849MOL0     C17035   6.481   5.519   4.445  0.1891  0.6702 -0.1709
  849MOL0     C17036   6.455   5.422   4.320 -0.4937 -0.3318  0.0177
  849MOL0     C17037   6.571   5.318   4.303  0.3745  0.1733 -0.4240
  849MOL0     C17038   6.558   5.240   4.176 -0.8383  0.5846  0.1480
  849MOL0     C17039   6.673   5.142   4.173  0.2828 -0.3112 -0.0660
  849MOL0     C17040   6.652   5.051   4.049  0.4161  0.4988 -0.2395
  849MOL0     N17041   6.737   4.927   4.034 -0.1827  0.7403  0.5666
  849MOL0     C17042   6.866   4.925   3.989 -0.5068  0.5987  0.0046
  849MOL0     C17043   6.902   4.794   3.974  0.7722 -0.9596  0.3849
  849MOL0     C17044   7.031   4.746   3.910 -0.3573  0.1789 -0.2181
  849MOL0     C17045   7.102   4.663   4.018  0.0858 -0.0061 -0.2119
  849MOL0     C17046   7.224   4.590   3.972  0.2937  0.2911  0.0154
  849MOL0     C17047   7.187   4.483   3.868  0.9890 -0.0148 -0.6190
  849MOL0     O17048   7.304   4.446   3.802 -0.5355 -0.0277 -0.2274
  849MOL0     C17049   7.301   4.354   3.705  0.1605  0.4123  0.1542
  849MOL0     C17050   7.302   4.211   3.730  0.4829  0.0014  0.6450
  849MOL0     C17051   7.309   4.121   3.626  0.1835  0.5206 -0.4692
  849MOL0     C17052   7.308   3.970   3.677  0.1120 -0.4702 -0.1696
  849MOL0     C17053   7.314   4.160   3.491 -0.3230 -0.7764 -0.1927
  849MOL0     C17054   7.316   4.076   3.376 -0.0293  0.2876 -0.9857
  849MOL0     O17055   7.232   4.108   3.268  0.2580 -0.1724 -0.2790
  849MOL0     C17056   7.206   4.025   3.166 -0.2832  0.5134 -0.2541
  849MOL0     C17057   7.142   4.083   3.053 -1.3242  0.6016 -1.1695
  849MOL0     C17058   7.130   4.004   2.939 -1.0774  0.4587 -0.5029
  849MOL0     C17059   7.156   3.873   2.931  0.1797 -0.7344  0.3122
  849MOL0     O17060   7.120   3.813   2.814 -0.7561 -0.2298 -0.5566
  849MOL0     C17061   7.117   3.664   2.805  0.1783  0.2469 -0.6894
  849MOL0     C17062   7.248   3.608   2.755  0.2975  0.8145  0.0031
  849MOL0     C17063   7.239   3.453   2.749  0.2887  0.9260  0.1879
  849MOL0     C17064   7.367   3.380   2.704  0.3938 -0.5532 -0.4608
  849MOL0     C17065   7.393   3.411   2.560 -1.0090  0.2370 -0.7159
  849MOL0     C17066   7.517   3.347   2.500 -0.9144  0.0682  0.4548
  849MOL0     C17067   7.515   3.337   2.348 -0.0691  0.2126 -0.4354
  849MOL0     C17068   7.479   3.467   2.270  0.3867  0.3004  0.1868
  849MOL0    Cl17069   7.308   3.480   2.233  0.1591 -0.0885  0.6989
  849MOL0     C17070   7.195   3.806   3.048 -0.3020 -0.2005  0.2392
  849MOL0     C17071   7.222   3.882   3.165 -0.0217  0.0525 -0.4225
  849MOL0     O17072   7.388   3.980   3.381  0.0672  0.4532 -0.9576
  849MOL0     C17073   7.321   4.302   3.470  0.3757 -0.6534  0.6103
  849MOL0     C17074   7.308   4.396   3.575  0.7492 -0.4686  0.2447
  849MOL0     N17075   6.787   4.718   4.008 -0.3988  0.3015  0.3535
  849MOL0     N17076   6.687   4.796   4.031  0.2761 -0.2469 -0.0072
  849MOL0     C17077   6.365   5.979   4.707 -0.5348  0.2922 -0.1241
  849MOL0     C17078   6.352   6.101   4.781 -0.2177  0.1028  0.3160
  849MOL0     C17079   6.323   6.555   4.770 -1.2849 -0.1620  0.5088
  849MOL0     C17080   6.384   6.653   4.687 -0.6658 -0.2313  0.6304
  849MOL0     C17081   6.385   6.789   4.717  0.0636 -0.0246  0.1314
  849MOL0     C17082   6.318   6.834   4.823 -1.2056 -0.0570  0.3496
  849MOL0     O17083   6.329   6.965   4.846 -0.0248 -0.2900 -0.4808
  849MOL0     C17084   6.237   7.041   4.925 -0.6235  0.2957  0.3984
  849MOL0     C17085   6.099   7.045   4.847  0.5179 -0.6929  0.4291
  849MOL0     C17086   5.979   7.123   4.908  0.3295 -0.3960  0.0613
  849MOL0     C17087   6.021   7.266   4.923 -0.1338 -0.5860 -0.1617
  849MOL0     C17088   5.896   7.347   4.945  0.1042 -0.5978  0.0091
  849MOL0     C17089   5.798   7.419   4.969  0.2580  0.4203 -0.4819
  849MOL0     C17090   6.248   6.747   4.902  0.1782 -0.0718 -0.0542
  849MOL0     C17091   6.250   6.608   4.883  0.0382 -0.9000  0.0030
  849MOL0     C17092   6.158   6.525   4.978  0.4695  0.5278  0.5941
  849MOL0     H17093   6.126   6.262   4.591  1.7502  2.2240 -1.5477
  849MOL0     H17094   6.140   6.038   4.467 -0.1801 -0.8768 -0.0788
  849MOL0     H17095   6.366   5.678   4.643 -1.8710  0.3909 -0.6013
  849MOL0     H17096   6.501   5.763   4.567  0.6319 -0.1404  1.7860
  849MOL0     H17097   6.305   5.630   4.387  0.5476  1.5669  0.9147
  849MOL0     H17098   6.456   5.701   4.349 -1.0688 -2.6814 -2.1813
  849MOL0     H17099   6.587   5.540   4.460  0.8836 -1.0080 -2.1943
  849MOL0     H17100   6.453   5.473   4.540  0.8353  0.6496  0.0092
  849MOL0     H17101   6.359   5.370   4.337  0.6624 -3.1270 -1.3310
  849MOL0     H17102   6.454   5.488   4.233  2.3935  0.5860  0.5844
  849MOL0     H17103   6.569   5.253   4.391  0.6379 -0.8580 -1.1572
  849MOL0     H17104   6.663   5.375   4.286  0.9168 -0.4616  0.3056
  849MOL0     H17105   6.461   5.190   4.171 -1.0887  1.1137 -0.4574
  849MOL0     H17106   6.572   5.306   4.090 -2.8011  2.2378  1.0277
  849MOL0     H17107   6.675   5.085   4.266 -1.5981 -0.4234 -0.0512
  849MOL0     H17108   6.767   5.198   4.168 -0.9213  1.7104 -1.9953
  849MOL0     H17109   6.552   5.008   4.055  1.0739 -0.9569  1.2414
  849MOL0     H17110   6.663   5.101   3.953  1.8941  1.6287  0.4878
  849MOL0     H17111   6.927   5.008   3.955 -0.7433  0.5624 -0.5269
  849MOL0     H17112   7.094   4.830   3.880  1.1342 -0.1626  1.7691
  849MOL0     H17113   6.996   4.694   3.820 -0.4648  0.7053 -0.4855
  849MOL0     H17114   7.119   4.729   4.104 -1.3649  0.4642 -0.2582
  849MOL0     H17115   7.037   4.587   4.061  1.4297 -0.9586  0.2133
  849MOL0     H17116   7.301   4.657   3.933 -0.5075  1.4837  0.4382
  849MOL0     H17117   7.260   4.530   4.056 -3.0411 -1.3821  0.4326
  849MOL0     H17118   7.144   4.402   3.927 -3.0993  1.3253 -1.4005
  849MOL0     H17119   7.105   4.512   3.802 -0.8234  1.8495  2.2393
  849MOL0     H17120   7.303   4.174   3.832 -2.4744 -0.0825  0.7211
  849MOL0     H17121   7.408   3.933   3.700  0.6797  1.9960  1.7579
  849MOL0     H17122   7.257   3.911   3.600 -1.4713  1.9405 -1.1077
  849MOL0     H17123   7.246   3.973   3.767  0.4951 -2.0675  0.1819
  849MOL0     H17124   7.122   4.189   3.040  2.6177  1.6301 -0.1828
  849MOL0     H17125   7.083   4.066   2.864 -2.6498 -0.2111 -0.1020
  849MOL0     H17126   7.079   3.608   2.891 -1.0937 -0.6598 -1.8123
  849MOL0     H17127   7.044   3.638   2.728  0.3917  0.2255 -0.8858
  849MOL0     H17128   7.270   3.639   2.652  0.7016 -0.5041 -0.3296
  849MOL0     H17129   7.324   3.633   2.830  0.2439  0.4198  0.1901
  849MOL0     H17130   7.158   3.421   2.684 -1.5424 -0.6042  3.0408
  849MOL0     H17131   7.215   3.407   2.845  1.8061  0.6071  0.4505
  849MOL0     H17132   7.350   3.272   2.706  2.5028 -0.9115 -0.4609
  849MOL0     H17133   7.450   3.389   2.775  1.3258 -2.9247 -1.1719
  849MOL0     H17134   7.307   3.390   2.495 -2.0121  2.9031 -0.3674
  849MOL0     H17135   7.414   3.518   2.556 -2.0447  0.4813 -0.2002
  849MOL0     H17136   7.539   3.252   2.549 -1.5950 -0.3562 -0.0368
  849MOL0     H17137   7.601   3.412   2.527  0.4197 -0.6447 -1.7075
  849MOL0     H17138   7.452   3.257   2.307  0.0037  1.4636 -3.1851
  849MOL0     H17139   7.615   3.299   2.325  0.5057  0.5577  1.4039
  849MOL0     H17140   7.520   3.463   2.169 -2.5843  1.1328 -1.1789
  849MOL0     H17141   7.522   3.557   2.314  0.8855 -0.0627  0.4421
  849MOL0     H17142   7.223   3.701   3.047  1.1671  0.1633 -0.7020
  849MOL0     H17143   7.259   3.838   3.257 -0.3432  1.9329  0.6594
  849MOL0     H17144   7.326   4.349   3.372  1.8636 -1.7155  0.1361
  849MOL0     H17145   7.302   4.503   3.562  0.8663 -0.0980  2.8106
  849MOL0     H17146   6.440   5.905   4.735 -1.6759 -1.0557 -0.4977
  849MOL0     H17147   6.418   6.107   4.867 -2.5928 -2.0459  2.4480
  849MOL0     H17148   6.458   6.638   4.609  0.4552 -0.2592  1.6697
  849MOL0     H17149   6.449   6.861   4.666  0.5682 -0.7319 -0.2577
  849MOL0     H17150   6.220   6.991   5.021 -0.7036 -1.1271 -0.3314
  849MOL0     H17151   6.277   7.140   4.949  1.2507 -0.3206 -0.0007
  849MOL0     H17152   6.054   6.946   4.831 -0.8564 -0.1305  0.7522
  849MOL0     H17153   6.117   7.083   4.747 -2.3406 -2.2256 -0.7828
  849MOL0     H17154   5.892   7.112   4.843 -1.0528  0.2111  1.7347
  849MOL0     H17155   5.963   7.079   5.007  0.5545 -0.3905  0.1007
  849MOL0     H17156   6.072   7.295   4.830  1.2476  1.7316  1.2150
  849MOL0     H17157   6.090   7.275   5.007 -0.8139  2.0518  0.1963
  849MOL0     H17158   5.711   7.472   5.001  0.5554 -0.0161  1.1529
  849MOL0     H17159   6.198   6.794   4.986 -1.3946  0.2647 -1.1324
  849MOL0     H17160   6.058   6.505   4.939  1.5369 -3.7611 -0.4276
  849MOL0     H17161   6.209   6.431   4.998  0.6234  0.7129  1.0981
  849MOL0     H17162   6.132   6.576   5.072 -0.4528 -2.0688  1.8395
  850MOL0     O17163  10.756   1.507   3.910 -0.4436 -0.0920  0.4490
  850MOL0     C17164  10.657   1.482   3.972  0.6711 -0.4534 -0.9518
  850MOL0     O17165  10.538   1.550   3.952  0.0808  0.3768  0.2862
  850MOL0     C17166  10.516   1.587   3.827  0.2366 -0.8824  0.0976
  850MOL0     C17167  10.558   1.718   3.790 -0.5578  0.4688  0.0833
  850MOL0     C17168  10.500   1.780   3.675  0.4688  0.3622 -0.6956
  850MOL0     C17169  10.410   1.710   3.600  0.5146 -0.0218 -0.3512
  850MOL0     O17170  10.376   1.785   3.493 -0.2045 -0.8181 -0.1373
  850MOL0     C17171  10.376   1.713   3.367 -0.0349  0.0014  0.3532
  850MOL0     C17172  10.339   1.812   3.257  0.7497 -0.7498 -0.0373
  850MOL0     C17173  10.458   1.866   3.185 -0.0897 -0.0927  0.7108
  850MOL0     C17174  10.432   1.993   3.100 -1.1038  0.1165 -0.0582
  850MOL0     C17175  10.550   2.039   3.022 -0.9573  0.2147 -0.1466
  850MOL0     C17176  10.657   2.109   3.112  0.7021  0.8798 -0.6206
  850MOL0     C17177  10.796   2.099   3.063 -0.4543 -0.4089 -0.7653
  850MOL0     C17178  10.874   2.232   3.086 -0.4569 -0.3308 -1.2006
  850MOL0     N17179  10.996   2.244   2.995  0.1517 -0.1563  0.3365
  850MOL0     C17180  11.057   2.359   2.969 -1.0071  0.0123 -0.0214
  850MOL0     C17181  11.168   2.324   2.907 -0.8212  1.1164 -0.1055
  850MOL0     C17182  11.272   2.424   2.862 -0.5307 -0.4116  0.1472
  850MOL0     C17183  11.395   2.437   2.950  0.7814 -0.2499  0.5480
  850MOL0     C17184  11.383   2.486   3.097  0.2141  0.3690  0.2702
  850MOL0     C17185  11.388   2.644   3.108 -0.6132  0.2053  0.4930
  850MOL0     O17186  11.512   2.707   3.072  0.1808 -0.3662  0.1700
  850MOL0     C17187  11.484   2.835   3.029  0.7294  0.3316 -0.5441
  850MOL0     C17188  11.464   2.853   2.892 -0.0671  0.3224 -1.3269
  850MOL0     C17189  11.448   2.980   2.844  1.3171 -1.2815 -0.0117
  850MOL0     C17190  11.408   2.993   2.697 -0.3120 -1.4174  0.2754
  850MOL0     C17191  11.456   3.095   2.930  0.1743 -0.1177 -0.6352
  850MOL0     C17192  11.449   3.242   2.887  0.7856 -0.4816  0.8326
  850MOL0     O17193  11.404   3.331   2.981 -0.6930 -0.5662 -0.1509
  850MOL0     C17194  11.401   3.463   2.941  0.7350 -0.1822  0.3856
  850MOL0     C17195  11.509   3.532   2.884  0.3300 -0.3103  0.5709
  850MOL0     C17196  11.494   3.659   2.827 -0.0555 -0.3330  0.0759
  850MOL0     C17197  11.375   3.733   2.847 -0.2899 -0.1421 -0.9725
  850MOL0     O17198  11.359   3.861   2.792 -0.4237 -0.2375  0.0277
  850MOL0     C17199  11.471   3.954   2.803 -0.0046  0.4301 -0.3494
  850MOL0     C17200  11.425   4.103   2.779  0.0698 -0.3364 -0.0586
  850MOL0     C17201  11.543   4.210   2.780 -0.1014 -0.5779 -0.0110
  850MOL0     C17202  11.626   4.208   2.914  0.5441 -0.4629 -1.1080
  850MOL0     C17203  11.755   4.133   2.896  0.6323  0.1840  0.6360
  850MOL0     C17204  11.841   4.145   3.021 -0.4177 -0.7185  0.2607
  850MOL0     C17205  11.949   4.030   3.024 -0.9202 -0.1533  0.1398
  850MOL0     C17206  12.063   4.058   2.924 -0.7427  0.5171 -0.2209
  850MOL0    Cl17207  12.168   3.911   2.886  0.0093 -0.2875 -0.1797
  850MOL0     C17208  11.275   3.671   2.915  0.3015  0.0675  0.0400
  850MOL0     C17209  11.284   3.537   2.950 -0.1841 -0.2607 -0.1251
  850MOL0     O17210  11.471   3.268   2.771  0.5067  0.8658  0.4340
  850MOL0     C17211  11.473   3.075   3.064  0.4574  1.0754  0.4366
  850MOL0     C17212  11.489   2.945   3.117  0.5134 -0.8009 -1.1133
  850MOL0     N17213  11.180   2.182   2.906 -0.6205  0.0588 -0.5746
  850MOL0     N17214  11.066   2.141   2.947 -0.5933 -0.0514 -1.4740
  850MOL0     C17215  10.367   1.588   3.637 -0.7486  0.6139 -0.9770
  850MOL0     C17216  10.414   1.532   3.755  0.0913  0.9896  0.1322
  850MOL0     C17217  10.651   1.392   4.091  0.5113 -0.0070  0.0523
  850MOL0     C17218  10.526   1.374   4.148 -0.3902 -0.0224  0.6515
  850MOL0     C17219  10.509   1.273   4.244 -0.1484  0.2638 -0.4233
  850MOL0     C17220  10.625   1.214   4.303  0.0440  0.3967 -0.0820
  850MOL0     O17221  10.591   1.138   4.408 -0.2862  0.6883  0.8572
  850MOL0     C17222  10.680   1.099   4.507 -0.8605 -0.3958  0.4143
  850MOL0     C17223  10.697   1.209   4.605  0.3103  0.4222  0.0248
  850MOL0     C17224  10.589   1.235   4.712 -0.4810 -0.2996  0.8732
  850MOL0     C17225  10.464   1.315   4.664 -0.1064  0.5709 -0.6743
  850MOL0     C17226  10.360   1.332   4.764  0.4366 -0.7633  0.2026
  850MOL0     C17227  10.282   1.331   4.862  1.1032  0.9553  0.2748
  850MOL0     C17228  10.747   1.238   4.245  0.1487 -0.4536  0.2438
  850MOL0     C17229  10.766   1.314   4.132 -0.0928 -0.4287  0.5793
  850MOL0     C17230  10.899   1.322   4.065  0.2702  0.3123  0.5743
  850MOL0     H17231  10.640   1.766   3.841  0.9586 -0.6263 -1.2120
  850MOL0     H17232  10.524   1.883   3.650 -2.1435  2.2769  3.5282
  850MOL0     H17233  10.306   1.630   3.378  0.6775 -0.7593 -0.7136
  850MOL0     H17234  10.471   1.665   3.347  0.2187  0.2493  0.9575
  850MOL0     H17235  10.270   1.761   3.189  0.9320 -3.1991  1.4880
  850MOL0     H17236  10.305   1.903   3.306  3.8657  1.0296 -0.9673
  850MOL0     H17237  10.528   1.890   3.266  2.4664  0.2434 -1.4830
  850MOL0     H17238  10.491   1.787   3.117  1.3171 -0.2487  1.5331
  850MOL0     H17239  10.360   1.965   3.023  0.2788  0.0302 -1.3818
  850MOL0     H17240  10.389   2.077   3.155  2.3393  2.6026 -0.8585
  850MOL0     H17241  10.518   2.106   2.942  0.5839 -2.9816 -3.7493
  850MOL0     H17242  10.588   1.950   2.972  0.7843  0.3943  0.7860
  850MOL0     H17243  10.625   2.211   3.133 -1.3959  0.8081 -2.9917
  850MOL0     H17244  10.653   2.062   3.211  0.7307 -0.5096 -1.2559
  850MOL0     H17245  10.776   2.082   2.956 -4.5340 -2.1000  0.0679
  850MOL0     H17246  10.839   2.012   3.114  0.2045  0.8270  0.8644
  850MOL0     H17247  10.804   2.315   3.076  1.8490  1.8214 -0.4507
  850MOL0     H17248  10.912   2.225   3.189  1.6994 -0.9499 -1.9720
  850MOL0     H17249  11.027   2.460   2.998 -2.3092 -0.8683  1.9362
  850MOL0     H17250  11.219   2.520   2.861 -0.9261 -0.6251 -1.4943
  850MOL0     H17251  11.300   2.414   2.757 -3.3137 -0.5859 -0.6359
  850MOL0     H17252  11.438   2.337   2.958  1.2312 -0.0439  0.6966
  850MOL0     H17253  11.458   2.501   2.888 -2.1639  0.8002 -1.6294
  850MOL0     H17254  11.305   2.446   3.161 -1.7845  2.1513 -0.9292
  850MOL0     H17255  11.482   2.454   3.131  1.3316  1.6867 -1.5460
  850MOL0     H17256  11.307   2.680   3.045  0.1275  0.4045 -0.3615
  850MOL0     H17257  11.367   2.670   3.213 -1.1559 -1.4787  0.8349
  850MOL0     H17258  11.450   2.768   2.827  1.0130 -1.1503  0.2822
  850MOL0     H17259  11.505   3.000   2.648 -1.0306  0.6171 -0.9809
  850MOL0     H17260  11.348   3.078   2.664  0.4917 -0.4231  1.3389
  850MOL0     H17261  11.356   2.901   2.668 -1.7372 -0.6514  0.3015
  850MOL0     H17262  11.602   3.475   2.879  0.8797  0.5154  1.1055
  850MOL0     H17263  11.561   3.705   2.755 -1.3446  1.1180 -0.2494
  850MOL0     H17264  11.508   3.950   2.906  0.1056  1.9269 -0.3123
  850MOL0     H17265  11.548   3.924   2.731 -0.4044 -0.6379 -0.3479
  850MOL0     H17266  11.362   4.120   2.692 -0.9442  0.6881  0.8398
  850MOL0     H17267  11.364   4.132   2.865 -2.1202 -1.1258 -1.2617
  850MOL0     H17268  11.483   4.301   2.768 -2.7704 -2.5203 -3.1453
  850MOL0     H17269  11.608   4.190   2.694  0.0181 -2.8955  0.5620
  850MOL0     H17270  11.576   4.159   2.999 -0.4049  1.7127 -0.3354
  850MOL0     H17271  11.651   4.311   2.940  0.5952 -0.0682 -2.6585
  850MOL0     H17272  11.734   4.028   2.874  0.8574  0.3977 -0.7029
  850MOL0     H17273  11.810   4.171   2.809 -0.0387  0.3310  0.2696
  850MOL0     H17274  11.784   4.125   3.111 -0.6803  2.4965  0.9017
  850MOL0     H17275  11.893   4.241   3.030  0.8141 -1.2951 -0.3213
  850MOL0     H17276  11.889   3.943   2.993  1.4622 -2.1407  0.7467
  850MOL0     H17277  11.985   4.013   3.126  1.2538  0.0131 -0.5575
  850MOL0     H17278  12.116   4.146   2.962 -1.5195  0.9299 -0.0748
  850MOL0     H17279  12.034   4.084   2.822  0.3720  0.1951 -0.6354
  850MOL0     H17280  11.180   3.724   2.919  1.5703  2.4897 -0.2923
  850MOL0     H17281  11.199   3.493   3.002  0.4689 -0.6247  0.6644
  850MOL0     H17282  11.457   3.158   3.133 -0.7556 -2.2006  4.5297
  850MOL0     H17283  11.509   2.930   3.222 -1.1197 -2.1251 -0.9340
  850MOL0     H17284  10.289   1.537   3.581  1.4066 -2.2478 -1.5900
  850MOL0     H17285  10.374   1.439   3.794 -0.7916 -0.5790 -4.0175
  850MOL0     H17286  10.440   1.427   4.107 -2.1651 -3.8970 -1.1594
  850MOL0     H17287  10.410   1.250   4.284  0.2039  0.9846  0.9471
  850MOL0     H17288  10.640   1.012   4.560  1.2978  0.0480  2.9762
  850MOL0     H17289  10.781   1.083   4.467  0.1991  1.9597  1.9143
  850MOL0     H17290  10.715   1.294   4.538  1.5426  0.2812  0.1557
  850MOL0     H17291  10.796   1.203   4.651  1.0539 -1.0065 -1.6218
  850MOL0     H17292  10.544   1.144   4.753 -0.0538  0.8864  4.2693
  850MOL0     H17293  10.634   1.278   4.802  1.2245  0.7109 -0.4078
  850MOL0     H17294  10.426   1.254   4.581 -1.2913 -0.9691  0.9058
  850MOL0     H17295  10.498   1.410   4.623  1.2673 -0.1437 -1.2600
  850MOL0     H17296  10.212   1.328   4.943 -0.4937  0.6448 -1.0605
  850MOL0     H17297  10.829   1.192   4.299 -2.0773 -1.1708  3.3329
  850MOL0     H17298  10.885   1.270   3.970 -0.4439 -1.3231  1.5323
  850MOL0     H17299  10.930   1.426   4.054 -2.4583  1.4016  2.1787
  850MOL0     H17300  10.972   1.262   4.119  0.7374  0.7553  0.4373
  851MOL0     O17301   8.102   4.201   9.227 -0.5798 -0.0443 -0.3539
  851MOL0     C17302   8.005   4.166   9.160  0.2110 -0.1259  0.6607
  851MOL0     O17303   7.900   4.091   9.213  0.1224 -0.5517 -0.2222
  851MOL0     C17304   7.881   4.078   9.348  0.1332 -0.0969 -0.5171
  851MOL0     C17305   7.764   4.124   9.407 -0.6936  0.1982 -0.4315
  851MOL0     C17306   7.751   4.110   9.548  0.6655 -0.7247  0.1452
  851MOL0     C17307   7.853   4.059   9.628 -0.1008 -0.2948  0.5323
  851MOL0     O17308   7.830   4.053   9.762  0.3946 -0.6543  0.1034
  851MOL0     C17309   7.869   3.942   9.832 -0.4074  0.3721 -0.5629
  851MOL0     C17310   7.847   3.964   9.980 -0.3259  1.0376  0.1244
  851MOL0     C17311   7.700   3.985  10.021  0.0755 -0.2600 -0.1604
  851MOL0     C17312   7.691   3.977  10.178 -0.4982 -0.3948  0.0997
  851MOL0     C17313   7.555   4.014  10.236  0.6534  0.2772 -0.1814
  851MOL0     C17314   7.449   3.902  10.244  0.1238 -1.0849 -0.0472
  851MOL0     C17315   7.386   3.856  10.112 -0.1074  0.6051 -0.0020
  851MOL0     C17316   7.353   3.957  10.003  0.0830 -0.2965 -0.7846
  851MOL0     N17317   7.358   3.892   9.871  0.0458  0.4232 -0.4210
  851MOL0     C17318   7.450   3.921   9.781  0.5113 -0.6564  0.1518
  851MOL0     C17319   7.428   3.829   9.686  0.6406  0.9827 -0.5074
  851MOL0     C17320   7.524   3.789   9.576 -0.1795  0.1147  0.6420
  851MOL0     C17321   7.487   3.865   9.456  0.2013 -0.5192  0.6723
  851MOL0     C17322   7.583   3.832   9.333 -0.1335  0.4283  0.1107
  851MOL0     C17323   7.515   3.875   9.199  0.4584 -0.4625  0.7992
  851MOL0     O17324   7.505   4.017   9.184 -0.1395 -0.3092  0.7573
  851MOL0     C17325   7.488   4.076   9.059  0.4138  0.3670  0.6637
  851MOL0     C17326   7.492   4.218   9.057 -0.2955  0.1321  0.1544
  851MOL0     C17327   7.487   4.298   8.938  0.0041  0.4536 -0.5076
  851MOL0     C17328   7.505   4.443   8.949 -1.0032 -0.1313  0.3919
  851MOL0     C17329   7.440   4.233   8.819  0.3022  0.3674 -0.6300
  851MOL0     C17330   7.393   4.300   8.700  0.2361  0.1777  0.6582
  851MOL0     O17331   7.303   4.402   8.706  0.2959  0.2455  0.2288
  851MOL0     C17332   7.242   4.458   8.596  0.2212  0.9523 -0.5890
  851MOL0     C17333   7.311   4.508   8.483  1.2765  1.0818 -0.2797
  851MOL0     C17334   7.242   4.581   8.389 -0.2607  0.8114  0.6966
  851MOL0     C17335   7.109   4.608   8.400 -0.5383 -0.4245  0.4129
  851MOL0     O17336   7.039   4.693   8.317  0.3915  0.5058 -0.0679
  851MOL0     C17337   7.079   4.680   8.175  0.0049  0.2489 -0.1456
  851MOL0     C17338   6.978   4.773   8.100  0.0792  0.2070 -0.2114
  851MOL0     C17339   7.012   4.781   7.949  0.6304 -0.5883  0.3027
  851MOL0     C17340   6.942   4.896   7.872 -0.1449  0.0324 -0.9931
  851MOL0     C17341   6.966   4.889   7.728  0.1328  0.1453 -0.1513
  851MOL0     C17342   6.874   4.990   7.659 -0.7493  0.1500  0.0115
  851MOL0     C17343   6.908   4.997   7.515 -0.3526  0.2672  0.6361
  851MOL0     C17344   6.904   5.138   7.462  0.4717  1.0515 -0.5418
  851MOL0    Cl17345   6.745   5.210   7.494 -0.1871 -0.5547 -0.7086
  851MOL0     C17346   7.035   4.550   8.498 -0.4377  0.8825 -0.0430
  851MOL0     C17347   7.100   4.483   8.605 -0.3917 -0.6541  0.1124
  851MOL0     O17348   7.457   4.266   8.602  0.1916 -0.9234 -0.8121
  851MOL0     C17349   7.444   4.086   8.824 -0.2747 -0.5557 -0.0232
  851MOL0     C17350   7.464   4.008   8.939 -1.0450 -0.1636  0.1870
  851MOL0     N17351   7.310   3.772   9.705 -0.0328  1.2123  0.0291
  851MOL0     N17352   7.267   3.806   9.821  0.2150 -1.0942  0.3277
  851MOL0     C17353   7.955   3.993   9.561  0.0569 -0.7314 -1.1983
  851MOL0     C17354   7.980   4.004   9.426  0.9152  0.4334  0.7203
  851MOL0     C17355   8.000   4.210   9.017  0.5602  0.4278 -0.3612
  851MOL0     C17356   7.893   4.165   8.941 -0.3208 -0.0381 -0.7921
  851MOL0     C17357   7.872   4.200   8.809  0.8255 -0.6122  0.0047
  851MOL0     C17358   7.961   4.292   8.746 -0.4247  0.0673  0.7162
  851MOL0     O17359   7.967   4.322   8.613 -0.0820  0.5605  0.3703
  851MOL0     C17360   7.856   4.284   8.525 -0.1604 -0.3807  0.5801
  851MOL0     C17361   7.882   4.332   8.380  1.0364  0.2757  0.0547
  851MOL0     C17362   7.995   4.261   8.302  0.1938 -0.8236 -0.7417
  851MOL0     C17363   8.069   4.352   8.207 -0.3734  0.7368  0.7143
  851MOL0     C17364   7.984   4.420   8.121  0.0687  0.8071 -0.2123
  851MOL0     C17365   7.907   4.455   8.029 -0.5764 -0.5863 -0.3449
  851MOL0     C17366   8.069   4.336   8.817 -0.4729  1.3647  0.3309
  851MOL0     C17367   8.089   4.298   8.952  0.2100  0.1040  0.1624
  851MOL0     C17368   8.196   4.370   9.022 -0.6078  0.2247  0.7251
  851MOL0     H17369   7.675   4.170   9.364 -2.4514 -1.1812  1.5179
  851MOL0     H17370   7.659   4.150   9.589  0.0719 -0.8564 -1.0132
  851MOL0     H17371   7.977   3.924   9.824 -0.5583 -0.2463 -1.3758
  851MOL0     H17372   7.806   3.858   9.803 -0.9991 -0.4240  2.6708
  851MOL0     H17373   7.892   3.879  10.031 -0.1252  0.5950 -0.7804
  851MOL0     H17374   7.911   4.049  10.006 -1.8031  3.1222 -2.4701
  851MOL0     H17375   7.663   4.080   9.982  0.8278  0.3642  0.6491
  851MOL0     H17376   7.633   3.903   9.990 -3.4723  1.5010  2.1049
  851MOL0     H17377   7.714   3.874  10.207 -3.0287 -0.9060  0.5177
  851MOL0     H17378   7.762   4.042  10.230 -0.4172  0.1048 -0.6192
  851MOL0     H17379   7.527   4.105  10.183  0.9155 -0.9003 -2.4526
  851MOL0     H17380   7.566   4.045  10.340 -3.2690  2.7172 -0.3077
  851MOL0     H17381   7.499   3.817  10.292  0.9083 -0.0590  1.0239
  851MOL0     H17382   7.366   3.928  10.310  0.5706 -1.7614  0.8177
  851MOL0     H17383   7.304   3.785  10.123  0.3748 -0.4549 -2.6233
  851MOL0     H17384   7.459   3.786  10.070  0.2075 -1.1688  3.1469
  851MOL0     H17385   7.245   3.973  10.016  0.2717 -0.3014  1.1073
  851MOL0     H17386   7.399   4.054  10.019 -0.8362 -0.2119  1.8252
  851MOL0     H17387   7.529   3.995   9.787  0.6042 -0.7712  0.3626
  851MOL0     H17388   7.491   3.686   9.558 -3.8444  1.0970  1.1201
  851MOL0     H17389   7.630   3.801   9.603 -0.1727  1.1037  0.2119
  851MOL0     H17390   7.386   3.831   9.428  0.5380 -2.0699  1.2549
  851MOL0     H17391   7.481   3.973   9.474  2.2027 -0.2408 -0.1311
  851MOL0     H17392   7.685   3.870   9.347  0.1112  0.8344 -2.4351
  851MOL0     H17393   7.598   3.724   9.325 -4.0409 -0.1530 -1.7501
  851MOL0     H17394   7.581   3.848   9.116  0.9363 -0.5890  1.2163
  851MOL0     H17395   7.423   3.818   9.186  0.8892 -1.4480  1.8401
  851MOL0     H17396   7.521   4.268   9.149  2.8478  1.9744 -1.6298
  851MOL0     H17397   7.593   4.469   9.008  0.9237 -3.0781 -0.9519
  851MOL0     H17398   7.420   4.477   9.009 -1.4499 -1.5889  0.6189
  851MOL0     H17399   7.507   4.502   8.856  1.6507  1.4775  1.3697
  851MOL0     H17400   7.417   4.498   8.465  1.7784  0.5329  2.4791
  851MOL0     H17401   7.304   4.629   8.313 -0.0698  2.2604  1.7196
  851MOL0     H17402   7.184   4.705   8.159  0.6688 -1.3805  1.3340
  851MOL0     H17403   7.062   4.578   8.137 -0.4752 -1.8502  4.9842
  851MOL0     H17404   6.879   4.728   8.109  0.2430 -0.1752 -0.2917
  851MOL0     H17405   6.981   4.873   8.143  0.3754  0.0020  0.2485
  851MOL0     H17406   6.982   4.681   7.916  0.9694 -0.7933  0.6054
  851MOL0     H17407   7.119   4.791   7.932  0.5634 -1.2279 -0.5810
  851MOL0     H17408   6.972   4.990   7.919  0.5031 -1.2706  1.3675
  851MOL0     H17409   6.834   4.885   7.887  0.1946 -1.0314  1.0738
  851MOL0     H17410   7.070   4.911   7.702  2.0228 -3.0205  3.7350
  851MOL0     H17411   6.940   4.788   7.695  5.1203 -0.5346 -3.0435
  851MOL0     H17412   6.908   5.085   7.701 -0.0438  0.2394 -0.7389
  851MOL0     H17413   6.767   4.986   7.678 -0.6035 -1.5403  0.6253
  851MOL0     H17414   6.834   4.936   7.462 -1.6867  0.2971  2.3701
  851MOL0     H17415   7.007   4.954   7.498 -0.2671  0.9747 -0.8185
  851MOL0     H17416   6.919   5.143   7.354 -0.7665 -1.4903 -0.9149
  851MOL0     H17417   6.983   5.191   7.516 -1.4751  0.1974  3.5043
  851MOL0     H17418   6.929   4.570   8.510 -0.7773 -1.3860  1.1616
  851MOL0     H17419   7.042   4.462   8.694  0.1732  0.3697  0.7459
  851MOL0     H17420   7.415   4.033   8.733  0.9694 -1.0022 -0.1868
  851MOL0     H17421   7.467   3.900   8.936  0.8299 -0.1178 -1.9854
  851MOL0     H17422   8.016   3.934   9.630 -0.4945  0.8697  0.7610
  851MOL0     H17423   8.066   3.967   9.371 -0.6818 -0.9923 -0.9880
  851MOL0     H17424   7.833   4.089   8.990  0.1272 -1.1460 -1.9001
  851MOL0     H17425   7.777   4.177   8.762 -0.0250  3.2314 -0.5424
  851MOL0     H17426   7.854   4.175   8.516  0.4323 -0.2269 -1.9907
  851MOL0     H17427   7.762   4.328   8.560 -1.3271 -1.4842 -1.0457
  851MOL0     H17428   7.883   4.441   8.374  2.5011  0.2086 -1.8120
  851MOL0     H17429   7.794   4.315   8.317  0.2604  2.3583  0.5083
  851MOL0     H17430   8.073   4.223   8.369 -0.6653 -0.1440  0.6549
  851MOL0     H17431   7.970   4.169   8.247  5.8015 -2.5386 -1.0815
  851MOL0     H17432   8.152   4.296   8.162 -1.4966  1.5808 -2.7264
  851MOL0     H17433   8.116   4.431   8.266  0.2631 -0.6739  2.1908
  851MOL0     H17434   7.832   4.468   7.953  0.2349 -1.1188 -1.2644
  851MOL0     H17435   8.149   4.401   8.780 -1.1852  1.4574 -1.1079
  851MOL0     H17436   8.163   4.439   9.100 -2.2387  0.6115 -0.2548
  851MOL0     H17437   8.273   4.305   9.064 -1.9702 -1.2834  0.9671
  851MOL0     H17438   8.246   4.434   8.948 -1.0732 -0.3483 -0.1049
  852MOL0     O17439   5.066   6.754   5.987 -0.4165 -0.8624  0.3536
  852MOL0     C17440   4.997   6.818   6.069 -0.1398 -0.2584 -0.1236
  852MOL0     O17441   4.980   6.783   6.203  0.0874  0.2030 -0.4393
  852MOL0     C17442   5.092   6.731   6.266 -0.3597  0.8898 -0.3358
  852MOL0     C17443   5.155   6.803   6.361  0.3228 -0.2336  0.3661
  852MOL0     C17444   5.273   6.759   6.418  0.1696  0.8721 -0.9547
  852MOL0     C17445   5.322   6.637   6.392 -0.4366  0.8667  0.8965
  852MOL0     O17446   5.433   6.588   6.467 -0.3732 -0.7038 -0.0213
  852MOL0     C17447   5.532   6.693   6.494 -0.4928 -0.8510 -0.0540
  852MOL0     C17448   5.676   6.638   6.499  0.1907 -0.0224 -0.7563
  852MOL0     C17449   5.771   6.747   6.573  0.2445  0.9670  0.1069
  852MOL0     C17450   5.772   6.715   6.721 -0.7583  0.5430  0.7188
  852MOL0     C17451   5.896   6.762   6.809 -0.2324 -0.3124  0.2326
  852MOL0     C17452   5.906   6.916   6.792 -0.7582  0.0097 -0.1687
  852MOL0     C17453   6.006   6.962   6.689  0.6718 -0.5698  0.3521
  852MOL0     C17454   5.969   7.112   6.661 -0.3996  0.0169 -0.0568
  852MOL0     N17455   5.934   7.195   6.781 -0.8399  0.3263  0.2636
  852MOL0     C17456   6.031   7.228   6.871 -0.8689 -0.2812 -0.1699
  852MOL0     C17457   5.968   7.275   6.975 -1.0501  0.1191  0.3604
  852MOL0     C17458   6.019   7.343   7.104 -0.8202 -0.3925 -0.4623
  852MOL0     C17459   5.927   7.448   7.163  0.0158 -0.2039  0.5446
  852MOL0     C17460   5.798   7.398   7.229 -0.5940  0.0052 -0.3213
  852MOL0     C17461   5.727   7.491   7.322  0.0668 -0.0973  0.8537
  852MOL0     O17462   5.804   7.518   7.433 -0.3810  0.1572  0.1426
  852MOL0     C17463   5.815   7.418   7.522 -0.8296  0.4524 -0.0525
  852MOL0     C17464   5.928   7.347   7.537  0.0695  0.5068  0.3211
  852MOL0     C17465   5.936   7.240   7.628  0.1095  0.3148 -0.2987
  852MOL0     C17466   6.068   7.174   7.622 -0.5162  0.8383  0.2342
  852MOL0     C17467   5.824   7.206   7.714 -1.2768 -0.3012  0.2548
  852MOL0     C17468   5.822   7.098   7.810 -0.0943 -0.0839  0.7842
  852MOL0     O17469   5.740   7.119   7.917  0.0836 -0.0111 -0.0936
  852MOL0     C17470   5.708   7.010   8.001  0.1740 -0.1455  0.1175
  852MOL0     C17471   5.622   6.905   7.970 -0.2218 -0.4889  0.3065
  852MOL0     C17472   5.604   6.792   8.041  0.6907 -0.3927 -0.2173
  852MOL0     C17473   5.681   6.773   8.159  0.8941  0.4450  0.2484
  852MOL0     O17474   5.677   6.652   8.229  0.1678  0.4261 -0.0069
  852MOL0     C17475   5.653   6.527   8.152 -0.4408  0.1060 -0.5209
  852MOL0     C17476   5.510   6.474   8.189 -0.2937 -0.2600  0.2022
  852MOL0     C17477   5.489   6.404   8.327  0.0191  0.1587  0.7145
  852MOL0     C17478   5.352   6.354   8.336  0.5440 -0.0302  0.2567
  852MOL0     C17479   5.323   6.317   8.483  0.2212  0.3050 -0.4145
  852MOL0     C17480   5.358   6.174   8.524 -0.6707 -0.0466 -0.4223
  852MOL0     C17481   5.320   6.141   8.672 -1.1167 -0.3203 -0.1554
  852MOL0     C17482   5.370   6.001   8.712 -0.1522  0.0541 -0.0186
  852MOL0    Cl17483   5.356   5.974   8.891  0.2044 -0.1160 -0.1955
  852MOL0     C17484   5.764   6.880   8.203 -0.2958  0.0192 -0.3360
  852MOL0     C17485   5.782   7.002   8.122  1.3145 -0.6576 -0.0552
  852MOL0     O17486   5.871   6.991   7.780 -0.8601 -0.2616  0.7136
  852MOL0     C17487   5.715   7.298   7.709  0.0034  0.8580 -0.6042
  852MOL0     C17488   5.710   7.395   7.613  1.1158  0.0573  0.3740
  852MOL0     N17489   5.837   7.268   6.945  0.6194  0.8130  0.1340
  852MOL0     N17490   5.815   7.211   6.835  0.0222 -0.3026  0.3543
  852MOL0     C17491   5.258   6.560   6.295 -0.8161 -0.1443  0.5669
  852MOL0     C17492   5.142   6.604   6.231 -0.2210 -0.9115  0.1115
  852MOL0     C17493   4.924   6.932   6.020  0.3003  0.1230 -0.0285
  852MOL0     C17494   4.916   7.045   6.107 -0.7682  0.7892 -0.0589
  852MOL0     C17495   4.831   7.150   6.090  0.2465 -0.3719  0.4683
  852MOL0     C17496   4.756   7.158   5.966  0.8961  0.8510 -0.1177
  852MOL0     O17497   4.665   7.255   5.937  0.5996 -0.3671  0.0217
  852MOL0     C17498   4.519   7.233   5.951 -1.0496  0.1476  0.6074
  852MOL0     C17499   4.450   7.335   6.044 -0.3217 -0.1828 -0.1679
  852MOL0     C17500   4.497   7.319   6.188 -0.4230  0.4866 -0.1518
  852MOL0     C17501   4.432   7.419   6.279  0.5071 -0.3642  0.1498
  852MOL0     C17502   4.288   7.389   6.320 -0.0191  0.1952  0.7262
  852MOL0     C17503   4.171   7.357   6.344 -0.0718 -0.3462 -0.5095
  852MOL0     C17504   4.772   7.051   5.881 -0.1767 -0.6972 -0.2589
  852MOL0     C17505   4.856   6.943   5.908  0.5693 -0.2810  0.6751
  852MOL0     C17506   4.872   6.844   5.790  0.1828  0.2134  0.4178
  852MOL0     H17507   5.101   6.892   6.393 -2.5018 -1.5467 -0.4101
  852MOL0     H17508   5.316   6.822   6.495 -0.6245 -1.1007  1.2496
  852MOL0     H17509   5.520   6.736   6.594 -1.0775 -1.9080  0.3405
  852MOL0     H17510   5.519   6.763   6.411  1.2565 -0.8614 -0.3827
  852MOL0     H17511   5.682   6.540   6.546 -0.0902 -1.1309 -2.8742
  852MOL0     H17512   5.695   6.631   6.391 -2.2350  0.6024 -1.2779
  852MOL0     H17513   5.875   6.744   6.537  0.2263 -3.5222 -0.1169
  852MOL0     H17514   5.717   6.842   6.564 -4.6681 -1.4521  0.6051
  852MOL0     H17515   5.681   6.750   6.770 -1.1967 -2.8322  2.6260
  852MOL0     H17516   5.775   6.606   6.735 -0.3291  0.4482 -0.0151
  852MOL0     H17517   5.989   6.715   6.776 -0.1104 -0.0914  0.2629
  852MOL0     H17518   5.883   6.723   6.911  0.9566  0.8800  0.8693
  852MOL0     H17519   5.806   6.951   6.765 -0.9279  0.0068  0.4371
  852MOL0     H17520   5.937   6.954   6.890 -1.9422 -0.9319  0.6058
  852MOL0     H17521   5.982   6.899   6.602 -2.1577 -0.3429  0.8684
  852MOL0     H17522   6.111   6.959   6.720  1.2789 -0.6903 -1.5833
  852MOL0     H17523   6.055   7.155   6.609 -0.9548  0.4656 -0.6221
  852MOL0     H17524   5.883   7.122   6.594 -0.5275  0.1698  0.1323
  852MOL0     H17525   6.137   7.208   6.862 -1.0801 -0.6779 -2.3149
  852MOL0     H17526   6.116   7.389   7.083 -0.7957 -0.1870  0.0704
  852MOL0     H17527   6.040   7.260   7.172  0.8454 -1.6057 -2.3393
  852MOL0     H17528   5.984   7.520   7.224  1.6229 -0.4688 -0.5921
  852MOL0     H17529   5.901   7.505   7.074  2.6076 -0.9343 -0.8100
  852MOL0     H17530   5.729   7.363   7.152 -1.6397 -0.7483  0.9294
  852MOL0     H17531   5.810   7.310   7.291 -1.0877  0.6968  0.7793
  852MOL0     H17532   5.705   7.582   7.265 -1.5939 -2.2866 -2.3304
  852MOL0     H17533   5.638   7.443   7.362 -0.2924  0.2656  0.4990
  852MOL0     H17534   6.019   7.365   7.480 -0.3884  1.8542 -0.0188
  852MOL0     H17535   6.083   7.132   7.522  1.5814  3.0551 -0.4882
  852MOL0     H17536   6.079   7.102   7.704 -3.2819 -0.4308 -0.4105
  852MOL0     H17537   6.141   7.252   7.645  1.0010 -0.5107  0.1796
  852MOL0     H17538   5.567   6.912   7.877 -0.8413 -1.3696  0.5918
  852MOL0     H17539   5.543   6.710   8.004  0.2056 -1.0957  1.9822
  852MOL0     H17540   5.663   6.557   8.047 -1.6510  1.5589 -0.2641
  852MOL0     H17541   5.720   6.451   8.192  0.9407  1.8584  0.6472
  852MOL0     H17542   5.443   6.560   8.197 -0.0646 -0.2398  3.0300
  852MOL0     H17543   5.463   6.416   8.109 -1.9183 -0.2582  1.0984
  852MOL0     H17544   5.516   6.477   8.404 -0.6632  1.5999 -0.3674
  852MOL0     H17545   5.556   6.318   8.333 -1.6356 -1.2068  0.5474
  852MOL0     H17546   5.322   6.273   8.269 -1.9385  0.4311  0.7251
  852MOL0     H17547   5.287   6.438   8.312  3.9330  2.1770 -2.1388
  852MOL0     H17548   5.375   6.386   8.549  0.3565  0.3745 -0.5922
  852MOL0     H17549   5.215   6.323   8.499  0.2468  1.9178 -0.6377
  852MOL0     H17550   5.465   6.151   8.516 -0.5973  0.4416 -0.8760
  852MOL0     H17551   5.315   6.093   8.464 -0.2830 -3.5851  3.5994
  852MOL0     H17552   5.211   6.146   8.684 -0.9334  1.1089  1.3336
  852MOL0     H17553   5.361   6.217   8.740  0.4897 -0.8473 -0.4937
  852MOL0     H17554   5.478   5.989   8.699 -0.2862 -1.2168 -0.1254
  852MOL0     H17555   5.316   5.933   8.645 -2.4526  1.0157  0.7695
  852MOL0     H17556   5.814   6.881   8.300 -2.0539 -0.3957  0.6248
  852MOL0     H17557   5.839   7.090   8.148 -2.1250  2.6519 -2.4963
  852MOL0     H17558   5.625   7.296   7.769 -0.2464  1.8358 -0.9357
  852MOL0     H17559   5.621   7.452   7.590  1.0154  1.2594  3.3165
  852MOL0     H17560   5.302   6.466   6.264 -2.0395 -0.2704 -0.9241
  852MOL0     H17561   5.069   6.554   6.169  0.7390  0.1318 -1.9466
  852MOL0     H17562   4.963   7.045   6.205 -0.4688  1.9579 -0.1917
  852MOL0     H17563   4.816   7.228   6.165  3.4525  1.6134 -0.7556
  852MOL0     H17564   4.479   7.222   5.850 -1.6797 -3.0666  1.1097
  852MOL0     H17565   4.498   7.136   5.997  0.0885  0.4094  1.7440
  852MOL0     H17566   4.344   7.312   6.055 -0.5300  1.3733  1.6057
  852MOL0     H17567   4.446   7.437   6.003 -1.9821  0.2114  0.9030
  852MOL0     H17568   4.480   7.218   6.227 -0.3719  0.2445 -0.7402
  852MOL0     H17569   4.605   7.334   6.201  0.4519 -5.2316  2.4352
  852MOL0     H17570   4.435   7.512   6.222 -0.1345 -1.3282 -1.5366
  852MOL0     H17571   4.495   7.423   6.369  1.1644  1.2157 -0.3635
  852MOL0     H17572   4.070   7.329   6.369 -0.2706  2.9747  3.4511
  852MOL0     H17573   4.728   7.068   5.783  0.0215  0.1335 -0.2124
  852MOL0     H17574   4.979   6.836   5.765 -0.3324 -3.5119 -1.2524
  852MOL0     H17575   4.840   6.744   5.823 -1.9373  1.1319  1.3088
  852MOL0     H17576   4.815   6.865   5.699 -0.4568 -2.3739  0.1343
  853MOL0     O17577   2.871   2.095  10.675 -0.1536  0.5171 -0.2384
  853MOL0     C17578   2.811   1.988  10.659  0.5676  0.1107 -0.5168
  853MOL0     O17579   2.862   1.862  10.675  0.7076  0.1113 -0.5272
  853MOL0     C17580   2.988   1.835  10.725 -0.0604 -1.3429  0.1832
  853MOL0     C17581   3.103   1.897  10.662  0.7952  0.8638  1.1837
  853MOL0     C17582   3.234   1.856  10.707  0.8896 -0.2354  0.4488
  853MOL0     C17583   3.244   1.751  10.810  0.7326  0.5776  0.2724
  853MOL0     O17584   3.365   1.695  10.858  0.1057 -0.4530  0.3367
  853MOL0     C17585   3.477   1.708  10.774 -0.3238  0.0017  0.5824
  853MOL0     C17586   3.601   1.653  10.841 -0.1653  0.2551  0.0389
  853MOL0     C17587   3.621   1.500  10.816  0.1490  0.2155  0.1567
  853MOL0     C17588   3.548   1.406  10.915 -0.4009  0.2239 -0.0798
  853MOL0     C17589   3.593   1.257  10.882 -0.4454 -1.4530  1.4612
  853MOL0     C17590   3.509   1.147  10.931 -0.4484 -0.1371  0.1733
  853MOL0     C17591   3.501   1.158  11.087 -0.3173 -0.0547  1.0518
  853MOL0     C17592   3.443   1.033  11.149 -0.3238  0.1705  0.5400
  853MOL0     N17593   3.313   0.987  11.102  0.5716 -1.0903  0.0618
  853MOL0     C17594   3.195   1.002  11.173 -0.3640 -0.5444 -0.0407
  853MOL0     C17595   3.097   0.959  11.088  0.1579  0.1546 -0.0759
  853MOL0     C17596   2.951   0.955  11.111 -0.3653  0.3369  0.2751
  853MOL0     C17597   2.917   0.825  11.186 -0.6624 -0.6514  0.9683
  853MOL0     C17598   2.877   0.723  11.084 -0.0757  0.2640  0.4468
  853MOL0     C17599   2.837   0.585  11.147  0.0499 -0.1006 -0.2450
  853MOL0     O17600   2.740   0.594  11.244 -0.0546  0.1354 -0.3499
  853MOL0     C17601   2.767   0.560  11.377  0.2007  1.0388  0.2185
  853MOL0     C17602   2.891   0.509  11.432  0.0497  0.3006  1.1915
  853MOL0     C17603   2.899   0.481  11.569  0.9478 -0.3995 -1.7477
  853MOL0     C17604   3.033   0.423  11.619 -0.3685 -0.0102 -0.4001
  853MOL0     C17605   2.793   0.531  11.661 -0.0653  0.4294 -0.0113
  853MOL0     C17606   2.801   0.532  11.812  0.2163  0.8516  0.1062
  853MOL0     O17607   2.916   0.481  11.870  0.4396  0.6093  0.0904
  853MOL0     C17608   2.928   0.479  12.003 -0.1764 -0.0640 -0.2211
  853MOL0     C17609   2.996   0.575  12.085  0.7494 -0.1518 -0.4659
  853MOL0     C17610   3.000   0.565  12.225  0.0239  0.7915  0.2519
  853MOL0     C17611   2.951   0.453  12.288  0.9357  0.3736  0.3722
  853MOL0     O17612   2.944   0.447  12.421  0.4317  0.3825  0.5239
  853MOL0     C17613   2.889   0.327  12.482  0.1992  0.0633 -0.4152
  853MOL0     C17614   2.906   0.340  12.633 -0.3946 -0.4818  0.2270
  853MOL0     C17615   2.875   0.212  12.713  0.8250  0.8488 -0.0079
  853MOL0     C17616   2.893   0.237  12.862 -0.5269  0.6372 -0.1476
  853MOL0     C17617   2.825   0.140  12.967  0.6157  0.1762 -0.3097
  853MOL0     C17618   2.847  -0.015  12.948 -0.3146 -0.3963 -0.0202
  853MOL0     C17619   2.756  -0.092  13.034  0.2487  0.6143 -0.1587
  853MOL0     C17620   2.780  -0.064  13.180  0.6814  0.6546 -0.0057
  853MOL0    Cl17621   2.705  -0.181  13.289  0.5259 -0.2255  0.0702
  853MOL0     C17622   2.883   0.358  12.206 -0.4796  0.4426  0.7542
  853MOL0     C17623   2.868   0.370  12.062  1.0707  0.3064 -0.6187
  853MOL0     O17624   2.718   0.598  11.868  0.6413 -0.0232 -1.2814
  853MOL0     C17625   2.669   0.576  11.598 -0.2097 -0.6921 -0.5205
  853MOL0     C17626   2.662   0.590  11.456  0.4489  0.3050 -0.8471
  853MOL0     N17627   3.165   0.923  10.964  0.8047  0.4499 -0.1419
  853MOL0     N17628   3.288   0.938  10.981  0.3817 -0.5371  0.1286
  853MOL0     C17629   3.126   1.697  10.865 -0.6566 -0.8669  0.7901
  853MOL0     C17630   3.001   1.749  10.833  0.6637 -0.6152  1.3835
  853MOL0     C17631   2.671   2.001  10.625 -0.2833 -0.7451 -0.0743
  853MOL0     C17632   2.629   1.968  10.496 -0.3314 -0.4004 -1.2709
  853MOL0     C17633   2.500   2.004  10.452 -0.4763  0.8534 -0.2235
  853MOL0     C17634   2.403   2.062  10.539  0.8821  0.8515 -0.6421
  853MOL0     O17635   2.266   2.077  10.503 -0.6283  0.3768 -0.5245
  853MOL0     C17636   2.227   2.092  10.366  0.0929  0.4460 -0.1448
  853MOL0     C17637   2.246   2.226  10.293 -0.1705 -0.0508 -0.7754
  853MOL0     C17638   2.128   2.327  10.331 -0.1082  0.3991  0.0722
  853MOL0     C17639   2.154   2.461  10.250  0.7618  0.4014  0.0112
  853MOL0     C17640   2.095   2.578  10.328  1.3969 -0.3526 -0.2289
  853MOL0     C17641   2.057   2.676  10.383  0.2256  0.1413 -0.0748
  853MOL0     C17642   2.443   2.078  10.674  0.2907 -0.1970 -0.8546
  853MOL0     C17643   2.578   2.058  10.716  0.4637  0.7624 -0.1794
  853MOL0     C17644   2.614   2.099  10.859  0.4100 -0.0766 -0.8269
  853MOL0     H17645   3.090   1.971  10.584  0.8701 -2.4660 -2.2723
  853MOL0     H17646   3.320   1.907  10.663  0.9601 -1.4415 -0.8787
  853MOL0     H17647   3.487   1.815  10.753 -3.1259  0.1000 -0.6775
  853MOL0     H17648   3.466   1.661  10.676 -0.0628 -2.2969  1.6039
  853MOL0     H17649   3.686   1.709  10.802 -0.3528  0.6339  0.1661
  853MOL0     H17650   3.594   1.661  10.950  2.1875  1.3048  0.1858
  853MOL0     H17651   3.596   1.474  10.713  3.8808  2.9008 -1.6645
  853MOL0     H17652   3.728   1.479  10.827 -0.4626 -2.8715  1.2125
  853MOL0     H17653   3.582   1.442  11.013  1.9537  0.5425 -0.9562
  853MOL0     H17654   3.440   1.423  10.910 -0.6027 -0.7322  0.7660
  853MOL0     H17655   3.699   1.248  10.906  0.2260  0.5137 -0.4127
  853MOL0     H17656   3.585   1.244  10.773 -3.1937 -0.8750  1.5274
  853MOL0     H17657   3.409   1.172  10.895  0.5934  0.4444 -2.5928
  853MOL0     H17658   3.548   1.051  10.894 -1.5430 -0.0322 -1.3633
  853MOL0     H17659   3.442   1.243  11.121 -0.3938 -0.9392  3.2523
  853MOL0     H17660   3.604   1.173  11.122  0.4358  2.4066 -1.8082
  853MOL0     H17661   3.503   0.947  11.119 -1.5243  0.1441 -2.0954
  853MOL0     H17662   3.451   1.044  11.257 -0.3924  1.7581  0.4098
  853MOL0     H17663   3.179   1.036  11.275  2.1436  2.7991 -0.6212
  853MOL0     H17664   2.904   0.960  11.012 -0.5199  1.6703  0.3973
  853MOL0     H17665   2.911   1.039  11.168 -0.5721 -0.2644  1.0211
  853MOL0     H17666   3.000   0.786  11.246 -0.0257  0.8180  1.0668
  853MOL0     H17667   2.830   0.859  11.241 -1.9352  3.1873 -2.9089
  853MOL0     H17668   2.797   0.760  11.020  0.1510  0.8294  0.4759
  853MOL0     H17669   2.957   0.707  11.011  1.4904  0.7284  1.9697
  853MOL0     H17670   2.786   0.529  11.067 -0.8779  0.6218 -0.1743
  853MOL0     H17671   2.929   0.533  11.177 -0.3394 -0.8028 -0.2362
  853MOL0     H17672   2.977   0.488  11.370 -1.0558 -2.5185  0.4131
  853MOL0     H17673   3.022   0.349  11.699 -3.0134  0.0034 -0.6516
  853MOL0     H17674   3.089   0.502  11.669 -0.2984 -0.7675  0.7670
  853MOL0     H17675   3.079   0.367  11.538 -2.7200  1.3251 -2.8285
  853MOL0     H17676   3.048   0.656  12.035  3.2071 -1.8429 -0.8370
  853MOL0     H17677   3.058   0.644  12.272  2.3023 -1.3341  1.2266
  853MOL0     H17678   2.781   0.320  12.472 -0.0871  0.5174  1.8098
  853MOL0     H17679   2.941   0.236  12.450 -0.9348 -1.3877  1.6608
  853MOL0     H17680   3.012   0.367  12.640 -0.2830  0.1664 -2.7246
  853MOL0     H17681   2.848   0.427  12.667 -0.0263  0.0369 -0.4390
  853MOL0     H17682   2.943   0.129  12.691 -0.1846  0.2934 -1.1289
  853MOL0     H17683   2.769   0.194  12.692  0.9693 -1.3499  0.8585
  853MOL0     H17684   2.856   0.336  12.888 -2.5369 -0.2933  0.7001
  853MOL0     H17685   2.998   0.231  12.893 -0.4379 -1.4947 -0.6752
  853MOL0     H17686   2.840   0.173  13.070  0.8773 -1.1907  0.1032
  853MOL0     H17687   2.717   0.156  12.962  0.3389 -1.4432  0.2115
  853MOL0     H17688   2.949  -0.042  12.977 -1.3263 -0.3931  4.1821
  853MOL0     H17689   2.823  -0.038  12.843 -0.1469  0.4268 -0.2390
  853MOL0     H17690   2.769  -0.199  13.015  0.1271  0.7600 -1.0916
  853MOL0     H17691   2.650  -0.072  13.016  0.5235  2.0606 -0.3082
  853MOL0     H17692   2.733   0.029  13.212  0.7042  0.6860 -0.0627
  853MOL0     H17693   2.886  -0.065  13.206  0.8060 -0.9935 -0.4818
  853MOL0     H17694   2.829   0.270  12.240 -0.5244  0.4187  0.6198
  853MOL0     H17695   2.817   0.290  12.009 -1.9535  1.2091  0.7231
  853MOL0     H17696   2.596   0.611  11.671  2.4069 -1.4246  2.7393
  853MOL0     H17697   2.575   0.634  11.408 -0.6528  1.3595  1.9458
  853MOL0     H17698   3.152   1.622  10.939  0.7530 -1.2957 -0.0876
  853MOL0     H17699   2.916   1.732  10.898 -1.7205  1.2699 -1.0717
  853MOL0     H17700   2.706   1.932  10.428 -1.8124 -3.2166 -1.5863
  853MOL0     H17701   2.485   1.981  10.347  1.8929 -4.0762  0.2101
  853MOL0     H17702   2.276   2.009  10.315  0.9188  0.4193  0.6609
  853MOL0     H17703   2.120   2.068  10.363  0.1168  0.3564 -2.9021
  853MOL0     H17704   2.251   2.223  10.184 -1.6967 -0.2658 -0.8618
  853MOL0     H17705   2.333   2.277  10.335 -0.8975  1.3563 -0.9003
  853MOL0     H17706   2.034   2.279  10.305  0.8227 -0.8277 -1.1625
  853MOL0     H17707   2.142   2.348  10.437  2.5582 -0.7367  0.0207
  853MOL0     H17708   2.092   2.451  10.160  0.6918  1.0164 -0.0115
  853MOL0     H17709   2.259   2.489  10.241  0.8745  0.8648  2.1046
  853MOL0     H17710   2.016   2.754  10.444  1.6488  0.6640  0.2591
  853MOL0     H17711   2.361   2.123  10.728 -1.4804  0.7360 -4.0337
  853MOL0     H17712   2.546   2.111  10.943 -0.5689  2.6373 -1.9281
  853MOL0     H17713   2.702   2.042  10.893  1.8806  1.5440 -1.7756
  853MOL0     H17714   2.662   2.196  10.848 -0.1492 -0.0127 -3.2558
  854MOL0     O17715   1.125  11.022   2.643 -0.0127  0.2129 -0.0836
  854MOL0     C17716   1.114  10.920   2.701  0.5344  0.6707 -0.8109
  854MOL0     O17717   1.175  10.882   2.817  0.1115  0.0355 -0.5759
  854MOL0     C17718   1.266  10.974   2.868 -0.4398  0.0434  0.7187
  854MOL0     C17719   1.222  11.102   2.919  0.2083 -0.0253 -0.3161
  854MOL0     C17720   1.318  11.202   2.955  0.0632  0.5346  0.2277
  854MOL0     C17721   1.454  11.174   2.938 -0.1413  0.1132  0.7528
  854MOL0     O17722   1.548  11.258   2.977  0.0019  0.2238 -0.3275
  854MOL0     C17723   1.571  11.250   3.120 -0.1701  0.4796 -0.6471
  854MOL0     C17724   1.696  11.333   3.151  0.2081  0.1717 -0.2330
  854MOL0     C17725   1.694  11.362   3.302 -0.2924 -0.0117  0.1383
  854MOL0     C17726   1.828  11.374   3.362  0.6520  0.4718  0.2605
  854MOL0     C17727   1.825  11.409   3.517 -0.1782  0.8270 -1.2892
  854MOL0     C17728   1.777  11.295   3.604  0.5756  0.6308 -0.3351
  854MOL0     C17729   1.776  11.346   3.751 -0.3544  0.8869  0.1143
  854MOL0     C17730   1.749  11.229   3.847 -0.5870  0.7120  0.0911
  854MOL0     N17731   1.614  11.175   3.842 -0.1603 -0.9738  0.3640
  854MOL0     C17732   1.514  11.259   3.881 -0.1827  0.5653  0.8793
  854MOL0     C17733   1.403  11.201   3.834 -1.0995  0.6850 -0.9886
  854MOL0     C17734   1.265  11.239   3.847  0.7186  0.3121  0.3378
  854MOL0     C17735   1.219  11.247   3.987  0.5337  1.1219  0.2838
  854MOL0     C17736   1.066  11.281   3.996 -0.4660  0.0107 -0.2045
  854MOL0     C17737   1.034  11.264   4.152  0.5776 -0.6389  0.7161
  854MOL0     O17738   1.046  11.130   4.208 -0.4328  0.3827  0.0169
  854MOL0     C17739   0.953  11.028   4.196 -1.3010 -0.1620  0.1155
  854MOL0     C17740   0.969  10.909   4.263 -0.4392 -0.0440  0.3602
  854MOL0     C17741   0.876  10.807   4.258 -0.9588  0.4893  0.2265
  854MOL0     C17742   0.912  10.679   4.328 -0.4684  0.6777  0.2374
  854MOL0     C17743   0.759  10.819   4.190  0.1371 -0.1363  0.5435
  854MOL0     C17744   0.667  10.707   4.170 -0.2354  0.1931  0.0133
  854MOL0     O17745   0.557  10.742   4.099 -0.4637 -0.5889  0.8794
  854MOL0     C17746   0.443  10.660   4.091 -1.0397 -0.3263  0.0732
  854MOL0     C17747   0.438  10.555   4.002 -0.2808  0.7992  0.0539
  854MOL0     C17748   0.333  10.467   4.000 -0.0322  0.3626 -0.3735
  854MOL0     C17749   0.230  10.480   4.093 -0.3334  2.0508  0.7529
  854MOL0     O17750   0.132  10.379   4.098  0.1640 -0.5788 -0.5506
  854MOL0     C17751   0.151  10.239   4.064 -0.5485  0.1381 -0.6662
  854MOL0     C17752   0.235  10.156   4.161 -0.0240  0.4323  0.2882
  854MOL0     C17753   0.203  10.197   4.303  0.1333  0.5711  0.0130
  854MOL0     C17754   0.206  10.082   4.405 -0.0521 -0.5124 -0.2798
  854MOL0     C17755   0.170  10.113   4.546  1.1544 -1.2016  0.3303
  854MOL0     C17756   0.161   9.996   4.638 -0.9605 -0.1277  0.2288
  854MOL0     C17757   0.087  10.020   4.772 -0.4596 -0.5192  0.1776
  854MOL0     C17758   0.080   9.899   4.851 -0.3995  0.0941 -0.5653
  854MOL0    Cl17759   0.228   9.823   4.907 -0.0570  0.5088 -0.1497
  854MOL0     C17760   0.231  10.593   4.180  0.5320  0.5169  0.3968
  854MOL0     C17761   0.336  10.678   4.179  0.4024  0.8159  0.8714
  854MOL0     O17762   0.679  10.597   4.223 -0.0837  0.0857  0.0221
  854MOL0     C17763   0.735  10.943   4.124 -0.8602 -0.1788  0.0870
  854MOL0     C17764   0.833  11.045   4.134 -0.1732  0.5434  0.7699
  854MOL0     N17765   1.441  11.087   3.767 -0.3917 -0.6597 -0.5873
  854MOL0     N17766   1.572  11.068   3.776  0.5578  0.4039 -0.4713
  854MOL0     C17767   1.495  11.046   2.893 -0.1550 -0.2438  0.0965
  854MOL0     C17768   1.406  10.947   2.858  0.9004 -1.4140  0.5376
  854MOL0     C17769   1.026  10.813   2.644  0.5335 -0.5821  0.3077
  854MOL0     C17770   1.022  10.687   2.710 -0.0918  0.2553 -0.2680
  854MOL0     C17771   0.938  10.589   2.668 -0.1874  0.0860 -0.3854
  854MOL0     C17772   0.843  10.600   2.561 -0.5740 -0.2180  0.8080
  854MOL0     O17773   0.757  10.500   2.527 -0.5182  0.0382  0.0335
  854MOL0     C17774   0.667  10.527   2.429  0.0702  1.0570 -0.3244
  854MOL0     C17775   0.551  10.436   2.444  0.2117  0.0923 -0.5054
  854MOL0     C17776   0.586  10.285   2.416 -0.5959 -0.0688  0.9961
  854MOL0     C17777   0.462  10.199   2.406  0.3434  0.0059 -0.5794
  854MOL0     C17778   0.411  10.151   2.542  0.4868  0.8136  1.6886
  854MOL0     C17779   0.359  10.110   2.638 -1.2366 -0.9247 -0.2027
  854MOL0     C17780   0.864  10.720   2.487 -0.4204 -0.2508 -0.7065
  854MOL0     C17781   0.941  10.829   2.526  0.5293  0.1267 -0.8417
  854MOL0     C17782   0.922  10.950   2.446 -0.1136 -0.6050 -0.8086
  854MOL0     H17783   1.117  11.121   2.936  0.3106 -1.5111  2.5242
  854MOL0     H17784   1.296  11.294   3.007  1.9404  1.5398 -0.6427
  854MOL0     H17785   1.558  11.148   3.155  0.1983  1.0930  1.3975
  854MOL0     H17786   1.490  11.311   3.160 -0.5582 -1.2015  1.2906
  854MOL0     H17787   1.781  11.267   3.135 -2.8885 -4.3021  0.0480
  854MOL0     H17788   1.698  11.423   3.089 -1.8478 -0.0332 -0.6662
  854MOL0     H17789   1.632  11.452   3.316 -1.0522 -0.0369 -2.5020
  854MOL0     H17790   1.654  11.281   3.363 -2.7063  0.3390 -0.8527
  854MOL0     H17791   1.879  11.278   3.347 -2.9129 -1.4323 -0.6916
  854MOL0     H17792   1.883  11.451   3.308  3.1700  1.0337  3.3359
  854MOL0     H17793   1.751  11.488   3.530 -0.6368  0.4185 -1.4022
  854MOL0     H17794   1.922  11.446   3.553 -0.9831  0.5363  1.4192
  854MOL0     H17795   1.669  11.282   3.588  0.0058  3.4756  0.5353
  854MOL0     H17796   1.846  11.211   3.596  0.5921  0.2420  2.5871
  854MOL0     H17797   1.707  11.430   3.765 -0.1292  1.0535  0.2264
  854MOL0     H17798   1.872  11.381   3.790  1.1068  0.4109 -2.7591
  854MOL0     H17799   1.825  11.153   3.826 -0.3617  1.6437 -2.8701
  854MOL0     H17800   1.757  11.266   3.950 -0.3689 -0.7125  0.6123
  854MOL0     H17801   1.532  11.352   3.934 -0.5835  0.7295  0.7334
  854MOL0     H17802   1.188  11.178   3.799  0.4449  1.2699 -0.4876
  854MOL0     H17803   1.247  11.342   3.812  0.5416 -0.1978 -1.1521
  854MOL0     H17804   1.241  11.150   4.034 -0.7674 -0.4077 -2.0484
  854MOL0     H17805   1.272  11.320   4.049  1.5151 -2.5756  4.2963
  854MOL0     H17806   1.056  11.381   3.952 -1.6155  0.3483  0.7807
  854MOL0     H17807   1.007  11.206   3.943 -0.5862  0.3744 -0.5880
  854MOL0     H17808   1.108  11.322   4.209  0.9898 -1.1209  0.6802
  854MOL0     H17809   0.937  11.310   4.170  0.9526 -0.0948  1.4079
  854MOL0     H17810   1.061  10.903   4.320 -0.0899 -0.2256 -0.2103
  854MOL0     H17811   1.004  10.702   4.383  0.3104  2.3012 -1.6055
  854MOL0     H17812   0.923  10.592   4.262 -0.5098  0.6217  0.3041
  854MOL0     H17813   0.834  10.652   4.399 -1.3981  0.3497 -0.8787
  854MOL0     H17814   0.519  10.548   3.931  0.4844  2.7774  0.6509
  854MOL0     H17815   0.333  10.378   3.939  0.5010 -0.8570  1.3144
  854MOL0     H17816   0.052  10.193   4.057 -0.2631 -0.7502  0.7293
  854MOL0     H17817   0.186  10.224   3.961  0.5332 -1.3499 -0.1233
  854MOL0     H17818   0.203  10.054   4.139 -2.8586  1.9420 -3.6410
  854MOL0     H17819   0.342  10.161   4.142  0.4799  3.5784  2.9696
  854MOL0     H17820   0.110  10.253   4.313  0.3678  1.3398 -1.6590
  854MOL0     H17821   0.281  10.267   4.335 -0.6176  0.8861  1.1763
  854MOL0     H17822   0.307  10.041   4.410  0.9370  1.8647  0.5246
  854MOL0     H17823   0.130  10.010   4.373 -0.4323 -0.0930 -0.3307
  854MOL0     H17824   0.233  10.194   4.586  0.1144 -0.8616  1.3280
  854MOL0     H17825   0.069  10.155   4.543  1.0697 -1.3558  0.8979
  854MOL0     H17826   0.261   9.956   4.652 -1.3013 -1.2418 -0.3502
  854MOL0     H17827   0.111   9.913   4.587  0.3987 -0.8714  0.0735
  854MOL0     H17828  -0.018  10.043   4.753 -0.2534 -0.7410 -1.2930
  854MOL0     H17829   0.133  10.095   4.838 -0.2149 -1.8108  1.5134
  854MOL0     H17830   0.040   9.819   4.789  2.1119 -1.4043 -0.3611
  854MOL0     H17831   0.015   9.928   4.935 -2.4258 -0.0052 -2.0179
  854MOL0     H17832   0.147  10.596   4.248  0.5804  0.5019  0.4576
  854MOL0     H17833   0.348  10.754   4.256 -2.2855 -2.1845  4.6304
  854MOL0     H17834   0.666  10.964   4.043 -0.8276 -0.8595 -0.1249
  854MOL0     H17835   0.825  11.130   4.067  2.2042  0.1431 -0.1089
  854MOL0     H17836   1.601  11.023   2.888 -0.0678  0.3547 -1.2033
  854MOL0     H17837   1.447  10.854   2.819  2.6799 -0.7582  0.7393
  854MOL0     H17838   1.085  10.673   2.798 -3.1059 -0.8488  1.8940
  854MOL0     H17839   0.949  10.502   2.732  2.3903 -0.1479 -1.0697
  854MOL0     H17840   0.633  10.630   2.445 -0.4700  1.0429 -1.2715
  854MOL0     H17841   0.695  10.533   2.323 -0.4108  0.9832 -0.4580
  854MOL0     H17842   0.464  10.466   2.385  0.7491 -2.3302 -2.7473
  854MOL0     H17843   0.505  10.451   2.542 -0.5777  0.8214 -0.9708
  854MOL0     H17844   0.650  10.272   2.329  0.8259  2.1680  1.6209
  854MOL0     H17845   0.637  10.245   2.504  0.2250 -1.9586 -0.2984
  854MOL0     H17846   0.491  10.112   2.346  1.5535 -0.0926  0.1072
  854MOL0     H17847   0.386  10.244   2.343  0.2543 -0.7737 -1.0367
  854MOL0     H17848   0.287  10.067   2.704 -1.0158 -0.3893  0.3906
  854MOL0     H17849   0.807  10.738   2.396  0.5514  1.3980 -1.0237
  854MOL0     H17850   0.925  11.037   2.511  0.6700 -1.4652  0.3375
  854MOL0     H17851   1.004  10.954   2.374 -2.3428 -0.1358 -3.5229
  854MOL0     H17852   0.825  10.961   2.395 -0.0141 -1.2436 -1.1533
  855MOL0     O17853   0.334   5.288   4.770  0.3236  0.0410 -0.5980
  855MOL0     C17854   0.273   5.252   4.665 -0.2243 -0.3273 -0.1436
  855MOL0     O17855   0.209   5.341   4.586 -0.0562 -0.1636 -0.4567
  855MOL0     C17856   0.209   5.472   4.617  0.3165  0.0966  0.1294
  855MOL0     C17857   0.122   5.529   4.712 -0.1008 -0.1412 -0.5957
  855MOL0     C17858   0.126   5.662   4.750  1.1415 -0.1788  0.5299
  855MOL0     C17859   0.206   5.751   4.671 -0.9096  0.7149  0.1016
  855MOL0     O17860   0.200   5.887   4.699  0.0306  0.1787  0.3239
  855MOL0     C17861   0.316   5.939   4.767 -0.5277  0.2215  0.9615
  855MOL0     C17862   0.290   6.082   4.824 -0.7367 -0.0011 -0.2678
  855MOL0     C17863   0.209   6.067   4.950  0.5799  0.5602 -0.0804
  855MOL0     C17864   0.179   6.195   5.042 -0.3328  0.2832  0.5772
  855MOL0     C17865   0.104   6.140   5.163  0.3320  0.7164 -0.2431
  855MOL0     C17866  -0.016   6.214   5.218 -0.5371  0.0322 -0.6461
  855MOL0     C17867   0.006   6.364   5.247  0.7872 -0.0347 -0.8616
  855MOL0     C17868   0.099   6.390   5.374  0.3485 -0.0304 -0.3393
  855MOL0     N17869   0.155   6.521   5.366  0.7636  0.8877 -0.1092
  855MOL0     C17870   0.095   6.627   5.305  0.3541 -0.4773  0.3127
  855MOL0     C17871   0.163   6.739   5.351 -0.4537 -1.4649 -0.1040
  855MOL0     C17872   0.154   6.875   5.298  1.1700 -0.1041  1.1810
  855MOL0     C17873   0.276   6.916   5.216 -0.2765  0.3147  0.1183
  855MOL0     C17874   0.298   6.836   5.088 -0.6718 -0.3720  0.6008
  855MOL0     C17875   0.218   6.897   4.973  0.8260 -0.1415 -0.7218
  855MOL0     O17876   0.264   7.034   4.950  0.6361 -0.4454 -0.0830
  855MOL0     C17877   0.216   7.104   4.848  0.5673 -1.1068 -0.7224
  855MOL0     C17878   0.288   7.221   4.827 -0.3191 -0.0843  0.3538
  855MOL0     C17879   0.263   7.305   4.721 -0.5737 -0.6197 -0.5425
  855MOL0     C17880   0.365   7.400   4.686 -0.6233  0.4932  0.0264
  855MOL0     C17881   0.156   7.270   4.635  0.3575 -0.7147  0.1354
  855MOL0     C17882   0.117   7.352   4.517 -0.9993 -0.0710  0.4468
  855MOL0     O17883   0.039   7.300   4.415  0.1211 -0.1306  0.1587
  855MOL0     C17884   0.054   7.364   4.290 -0.9368 -0.1619 -0.2101
  855MOL0     C17885  -0.002   7.479   4.254 -0.3605 -0.2591 -0.0611
  855MOL0     C17886   0.010   7.527   4.120  0.8261 -0.0552  0.7497
  855MOL0     C17887   0.080   7.451   4.030  0.5597 -0.1547 -1.4947
  855MOL0     O17888   0.100   7.507   3.904 -0.3282  0.5240 -0.2734
  855MOL0     C17889  -0.020   7.515   3.822 -0.0348 -0.2214  0.4390
  855MOL0     C17890   0.021   7.557   3.683  0.3962  0.1502  0.6007
  855MOL0     C17891   0.088   7.687   3.662  0.7102 -0.3525  0.1998
  855MOL0     C17892   0.153   7.708   3.524 -0.0953  0.3249  0.5280
  855MOL0     C17893   0.244   7.832   3.535  0.2464  0.1831  0.2883
  855MOL0     C17894   0.316   7.862   3.409 -0.0194  0.0410 -0.0379
  855MOL0     C17895   0.233   7.923   3.299  0.0206 -0.7747  1.1446
  855MOL0     C17896   0.303   7.899   3.166  0.5040 -1.3403  0.0289
  855MOL0    Cl17897   0.335   7.730   3.111 -0.2375  0.0188 -0.7992
  855MOL0     C17898   0.143   7.335   4.061  0.4840  0.1928  0.0541
  855MOL0     C17899   0.124   7.289   4.189  0.4229 -0.4005  0.8224
  855MOL0     O17900   0.136   7.474   4.537  0.4729  0.8231 -0.6282
  855MOL0     C17901   0.094   7.146   4.647  0.4129  0.1965  0.2947
  855MOL0     C17902   0.129   7.066   4.753  0.3175  0.8710  0.2719
  855MOL0     N17903   0.264   6.695   5.437  0.9384  0.3227 -0.4627
  855MOL0     N17904   0.254   6.562   5.448 -0.6854 -0.3042 -0.0763
  855MOL0     C17905   0.293   5.706   4.569  0.3961  0.0824  0.3374
  855MOL0     C17906   0.304   5.566   4.547 -0.0999  0.2584  0.1373
  855MOL0     C17907   0.279   5.111   4.630  1.4772 -0.0230 -0.1826
  855MOL0     C17908   0.161   5.033   4.614  0.4595 -0.0239  0.6500
  855MOL0     C17909   0.165   4.907   4.564 -0.5667  0.1791  0.4123
  855MOL0     C17910   0.283   4.841   4.524 -0.3435  0.6294 -0.5237
  855MOL0     O17911   0.279   4.720   4.471 -0.8509  0.8974  0.0889
  855MOL0     C17912   0.394   4.632   4.489 -0.7363  0.4911 -0.0849
  855MOL0     C17913   0.486   4.614   4.364  0.3673 -0.5865  0.7158
  855MOL0     C17914   0.452   4.484   4.283 -0.0349 -0.1984 -0.6618
  855MOL0     C17915   0.517   4.351   4.340  0.8235 -0.3696  1.3172
  855MOL0     C17916   0.662   4.359   4.363 -0.4459  0.4022 -1.0103
  855MOL0     C17917   0.779   4.350   4.406 -0.0050 -0.1252  0.4918
  855MOL0     C17918   0.402   4.921   4.529  0.5766 -0.6126 -0.3063
  855MOL0     C17919   0.401   5.056   4.582 -0.0549 -0.9349 -0.4369
  855MOL0     C17920   0.527   5.150   4.563  1.0429  0.2775 -0.0400
  855MOL0     H17921   0.043   5.470   4.757  0.9791 -2.0295 -1.0493
  855MOL0     H17922   0.060   5.709   4.823 -1.8152  0.3229 -2.2601
  855MOL0     H17923   0.394   5.944   4.691 -1.5786  1.4742 -0.0921
  855MOL0     H17924   0.359   5.878   4.847  1.5728 -0.8573 -0.8989
  855MOL0     H17925   0.392   6.113   4.850 -0.2543 -2.3126  0.9615
  855MOL0     H17926   0.251   6.151   4.749  2.5653  0.3086 -1.8902
  855MOL0     H17927   0.115   6.024   4.913  1.1056  0.8527 -1.8505
  855MOL0     H17928   0.248   5.991   5.018 -1.6073  0.1330  0.7855
  855MOL0     H17929   0.271   6.246   5.071 -1.6279  2.7745  0.6205
  855MOL0     H17930   0.121   6.267   4.983  0.7703 -0.8264 -2.0188
  855MOL0     H17931   0.174   6.126   5.245 -1.2823  0.6094  1.1664
  855MOL0     H17932   0.062   6.041   5.142 -0.4852  1.3269 -1.6808
  855MOL0     H17933  -0.093   6.203   5.141  1.2143 -0.9268 -2.3384
  855MOL0     H17934  -0.053   6.169   5.311 -1.4481 -1.0800 -1.5034
  855MOL0     H17935  -0.089   6.417   5.260  2.0881  1.8712  1.7512
  855MOL0     H17936   0.042   6.413   5.156 -0.5874  0.2806 -1.2655
  855MOL0     H17937   0.042   6.383   5.467 -1.9302  1.6075 -1.5273
  855MOL0     H17938   0.182   6.319   5.381  0.5968  0.3309  0.4077
  855MOL0     H17939   0.023   6.631   5.223  3.4300  0.5362 -2.5500
  855MOL0     H17940   0.144   6.950   5.376 -3.2809  1.9005 -0.9544
  855MOL0     H17941   0.061   6.872   5.240  2.3765 -1.5807 -0.8248
  855MOL0     H17942   0.280   7.023   5.198  1.6734  0.6197  1.8886
  855MOL0     H17943   0.364   6.894   5.278 -0.4189  1.0368  0.5897
  855MOL0     H17944   0.404   6.842   5.061 -1.2071  0.5297 -1.3977
  855MOL0     H17945   0.274   6.729   5.100  2.4999 -1.3774 -0.9423
  855MOL0     H17946   0.229   6.843   4.878  0.4797  3.4440 -2.9869
  855MOL0     H17947   0.115   6.894   5.009  1.4053  1.5953  1.2836
  855MOL0     H17948   0.375   7.227   4.891 -0.3309 -0.3609  0.3992
  855MOL0     H17949   0.323   7.495   4.721 -0.6980  1.3802 -2.2542
  855MOL0     H17950   0.381   7.411   4.578 -2.1759  0.7846 -0.1961
  855MOL0     H17951   0.460   7.388   4.739 -0.5351  1.4895  0.1028
  855MOL0     H17952  -0.070   7.544   4.308 -0.0355  0.1798 -0.1792
  855MOL0     H17953  -0.031   7.623   4.090 -0.6774 -0.9021 -0.0162
  855MOL0     H17954  -0.062   7.414   3.808  0.4772 -0.0600 -3.0811
  855MOL0     H17955  -0.087   7.588   3.868 -2.0521 -1.6859 -0.0108
  855MOL0     H17956   0.090   7.478   3.652 -1.4032 -0.0418 -3.4570
  855MOL0     H17957  -0.055   7.560   3.605  0.7755  1.1217  0.2561
  855MOL0     H17958   0.174   7.679   3.729  3.8766  1.6581 -3.1947
  855MOL0     H17959   0.030   7.775   3.692  3.5441  1.4984  0.6237
  855MOL0     H17960   0.069   7.726   3.456  0.2120 -1.0074 -0.2431
  855MOL0     H17961   0.203   7.617   3.491  0.3238  0.4545  0.7926
  855MOL0     H17962   0.179   7.918   3.556 -0.1750 -0.7898  3.5072
  855MOL0     H17963   0.315   7.822   3.617 -2.5951 -3.0972  2.6574
  855MOL0     H17964   0.377   7.776   3.381  1.0893  0.1566  1.8342
  855MOL0     H17965   0.388   7.938   3.441 -0.8133  1.7745 -2.1157
  855MOL0     H17966   0.228   8.030   3.322  0.8997 -0.5929  0.5579
  855MOL0     H17967   0.130   7.885   3.297 -0.1108 -0.4331  1.3028
  855MOL0     H17968   0.405   7.939   3.172  1.5250 -3.6228 -0.9074
  855MOL0     H17969   0.250   7.955   3.089  1.0192 -2.1995 -0.9788
  855MOL0     H17970   0.187   7.274   3.982  2.4399  2.6236 -0.8962
  855MOL0     H17971   0.151   7.187   4.214  1.7494 -0.9286 -2.3468
  855MOL0     H17972   0.012   7.104   4.590  2.0191 -0.5035 -1.6065
  855MOL0     H17973   0.078   6.972   4.768  0.9233  1.1026  6.1385
  855MOL0     H17974   0.346   5.776   4.505  0.0998  0.7840  0.8478
  855MOL0     H17975   0.374   5.526   4.475 -1.8545  1.9242 -2.6761
  855MOL0     H17976   0.061   5.064   4.642  0.5873 -0.0128  1.0977
  855MOL0     H17977   0.073   4.852   4.545 -1.5985  1.7065  0.7720
  855MOL0     H17978   0.456   4.675   4.568 -2.8207 -0.3843  2.1676
  855MOL0     H17979   0.356   4.537   4.529  2.2202 -1.0387 -0.6519
  855MOL0     H17980   0.592   4.597   4.383  0.8532 -0.1965 -1.3672
  855MOL0     H17981   0.485   4.708   4.306 -0.1675  0.3020  2.1263
  855MOL0     H17982   0.344   4.467   4.286 -0.0746  0.0408  2.5377
  855MOL0     H17983   0.486   4.500   4.181 -0.6511  2.2952 -0.5226
  855MOL0     H17984   0.515   4.274   4.262  3.7035  0.5896  0.1707
  855MOL0     H17985   0.474   4.327   4.438  0.3508 -3.7844  0.4271
  855MOL0     H17986   0.879   4.342   4.445  0.3927  1.2307 -0.1734
  855MOL0     H17987   0.498   4.896   4.485  1.5268  1.1072  0.7003
  855MOL0     H17988   0.576   5.153   4.661  0.3057 -1.6610  0.4303
  855MOL0     H17989   0.600   5.108   4.494  1.2297 -4.2810  2.5476
  855MOL0     H17990   0.502   5.254   4.537  1.4850 -0.2128 -2.7592
  856MOL0     O17991   8.372   9.304   7.277 -0.2176 -0.1121 -0.8143
  856MOL0     C17992   8.269   9.249   7.239  0.9323 -0.1945 -1.1407
  856MOL0     O17993   8.255   9.194   7.116 -0.6061  0.2128  0.0261
  856MOL0     C17994   8.349   9.183   7.016  0.0384  0.2493  0.5276
  856MOL0     C17995   8.479   9.245   7.017 -0.6725  0.3512 -0.9599
  856MOL0     C17996   8.563   9.215   6.905  0.3222 -0.1402  0.3957
  856MOL0     C17997   8.520   9.122   6.809 -0.1313  0.1262  0.0968
  856MOL0     O17998   8.594   9.077   6.697 -1.0283 -0.3562  0.6049
  856MOL0     C17999   8.703   8.988   6.731 -0.3007 -0.8425 -0.0462
  856MOL0     C18000   8.695   8.858   6.646 -0.5407  0.0769 -0.5408
  856MOL0     C18001   8.558   8.805   6.656  0.3250 -0.8288  0.4941
  856MOL0     C18002   8.563   8.655   6.615  1.0986  0.0439 -1.0507
  856MOL0     C18003   8.426   8.586   6.647 -0.8035 -0.3834 -0.3389
  856MOL0     C18004   8.449   8.434   6.637 -0.1282 -0.2240 -0.3909
  856MOL0     C18005   8.330   8.347   6.692 -0.5560  0.9765  1.1122
  856MOL0     C18006   8.281   8.247   6.584  0.3259  0.4756 -0.4527
  856MOL0     N18007   8.180   8.162   6.643  0.2938  0.2711 -0.4008
  856MOL0     C18008   8.047   8.171   6.613  0.9018  0.2087 -1.1286
  856MOL0     C18009   7.990   8.071   6.679 -0.2264  0.0463 -0.4746
  856MOL0     C18010   7.845   8.024   6.670  0.2822  0.4500  0.1740
  856MOL0     C18011   7.786   7.988   6.812 -0.5634 -1.1439 -0.3001
  856MOL0     C18012   7.634   7.948   6.813 -0.4776  0.7860  0.3119
  856MOL0     C18013   7.533   8.055   6.827 -0.6776  0.3150  0.5489
  856MOL0     O18014   7.411   7.993   6.849 -0.0836 -0.6755  0.2949
  856MOL0     C18015   7.321   8.083   6.903  0.1730 -0.8363 -0.4002
  856MOL0     C18016   7.337   8.213   6.956  0.2823 -0.9538  0.3695
  856MOL0     C18017   7.222   8.300   6.991  0.3043  0.4710 -0.0655
  856MOL0     C18018   7.242   8.447   7.022 -0.9426  0.1191  0.1394
  856MOL0     C18019   7.090   8.238   6.986  1.2111 -0.4282  0.0140
  856MOL0     C18020   6.970   8.322   7.012  0.0183  0.2114 -0.4700
  856MOL0     O18021   6.976   8.410   7.117  0.4817  0.1412  0.6046
  856MOL0     C18022   6.864   8.469   7.178  0.0504  0.4603  0.4276
  856MOL0     C18023   6.755   8.390   7.220  0.2689  0.2667  0.3518
  856MOL0     C18024   6.676   8.425   7.330  0.5333 -1.0556 -0.4180
  856MOL0     C18025   6.684   8.560   7.373  0.0483  0.4431 -0.0244
  856MOL0     O18026   6.603   8.624   7.462 -0.2907 -0.6485 -0.3048
  856MOL0     C18027   6.500   8.543   7.531  0.8924  0.0095 -0.2334
  856MOL0     C18028   6.439   8.624   7.635 -0.0449  0.4837 -0.5539
  856MOL0     C18029   6.512   8.602   7.773 -0.1039  0.3356  0.9595
  856MOL0     C18030   6.618   8.707   7.814  0.2237 -0.6199 -0.1919
  856MOL0     C18031   6.616   8.737   7.966 -1.1048 -0.3400  0.4431
  856MOL0     C18032   6.704   8.856   8.017  0.1237  0.6240 -0.7062
  856MOL0     C18033   6.664   8.998   7.976  0.1404 -0.4299 -0.1433
  856MOL0     C18034   6.774   9.102   8.006 -0.0545 -0.8690  0.1714
  856MOL0    Cl18035   6.741   9.250   7.921  0.4310  0.1880 -0.3960
  856MOL0     C18036   6.771   8.648   7.313 -0.4412  0.2679  0.7041
  856MOL0     C18037   6.875   8.594   7.234 -0.5108  1.6496 -0.0867
  856MOL0     O18038   6.869   8.289   6.959  0.0099 -0.0232 -0.4306
  856MOL0     C18039   7.073   8.109   6.931 -0.4187 -0.7003 -0.8719
  856MOL0     C18040   7.187   8.038   6.891 -0.3474  0.5113  1.0832
  856MOL0     N18041   8.088   8.010   6.762 -0.4797  0.3805 -0.7076
  856MOL0     N18042   8.202   8.070   6.741  0.1294 -0.0273  0.0799
  856MOL0     C18043   8.393   9.063   6.815 -0.6187 -0.0926  0.1475
  856MOL0     C18044   8.305   9.104   6.910  0.4232  0.3243  0.3185
  856MOL0     C18045   8.154   9.259   7.331  0.7987  0.0766  0.2087
  856MOL0     C18046   8.145   9.362   7.427  0.1291  0.6619  0.1764
  856MOL0     C18047   8.023   9.392   7.479  0.0353  0.8620  0.1754
  856MOL0     C18048   7.909   9.312   7.476  0.4429 -0.3813 -0.1523
  856MOL0     O18049   7.794   9.342   7.542 -0.8477 -0.3243  0.8158
  856MOL0     C18050   7.714   9.409   7.451  0.2831 -0.5866 -0.9274
  856MOL0     C18051   7.568   9.401   7.501 -0.4261  1.2037 -0.1566
  856MOL0     C18052   7.528   9.265   7.532  1.0446  0.3308 -0.1926
  856MOL0     C18053   7.506   9.161   7.411  0.5161  0.0933 -0.1719
  856MOL0     C18054   7.389   9.196   7.333 -0.1081  0.6356 -0.9167
  856MOL0     C18055   7.283   9.226   7.280  0.5505 -0.1447  0.0834
  856MOL0     C18056   7.927   9.189   7.418 -0.1767 -0.2014  0.0403
  856MOL0     C18057   8.045   9.162   7.339 -0.1399  0.5934  0.7917
  856MOL0     C18058   8.045   9.033   7.259  0.0341 -0.0357 -0.8856
  856MOL0     H18059   8.513   9.303   7.102  0.6892 -2.4743  0.5691
  856MOL0     H18060   8.660   9.259   6.888  0.8195 -2.2769 -3.5512
  856MOL0     H18061   8.705   8.966   6.838  2.9439 -1.4325 -0.1368
  856MOL0     H18062   8.804   9.027   6.715 -0.7260  0.7004  0.8872
  856MOL0     H18063   8.725   8.874   6.542  0.0094 -0.9903 -0.5587
  856MOL0     H18064   8.766   8.782   6.679 -0.9677  0.3018  0.9918
  856MOL0     H18065   8.508   8.821   6.752 -0.6278  0.5534 -0.1969
  856MOL0     H18066   8.498   8.857   6.581  0.4434  1.0812  1.6453
  856MOL0     H18067   8.559   8.657   6.506 -2.0653  4.4726 -1.1288
  856MOL0     H18068   8.647   8.591   6.642  1.2256 -0.6410 -2.9016
  856MOL0     H18069   8.341   8.618   6.586 -0.8911  0.4732  0.2210
  856MOL0     H18070   8.407   8.610   6.752  1.2440  0.9150 -0.2050
  856MOL0     H18071   8.469   8.415   6.531  0.2332 -3.0813  0.0946
  856MOL0     H18072   8.543   8.395   6.679  0.2377 -0.3350 -1.2949
  856MOL0     H18073   8.242   8.407   6.716 -0.3877  1.7048 -0.0135
  856MOL0     H18074   8.364   8.289   6.778  0.1478  1.6234  1.2819
  856MOL0     H18075   8.240   8.291   6.492 -0.3055 -2.6265 -1.7810
  856MOL0     H18076   8.369   8.190   6.551  0.2619  0.1421 -0.0443
  856MOL0     H18077   7.996   8.243   6.551 -3.2762 -0.9658  0.5764
  856MOL0     H18078   7.825   7.946   6.596  1.3988 -0.0562  0.3819
  856MOL0     H18079   7.789   8.105   6.623  0.8223  0.9658  0.4217
  856MOL0     H18080   7.849   7.905   6.843  3.7069  1.4483 -1.2098
  856MOL0     H18081   7.798   8.079   6.872 -2.1136 -0.7219 -0.5717
  856MOL0     H18082   7.602   7.884   6.731 -2.3808 -1.6202  2.7435
  856MOL0     H18083   7.626   7.883   6.901 -3.8492 -1.7709 -1.6127
  856MOL0     H18084   7.571   8.121   6.906 -0.3245 -0.7829  1.3185
  856MOL0     H18085   7.544   8.116   6.737 -0.9189 -1.1749 -0.5253
  856MOL0     H18086   7.430   8.268   6.962 -0.2247 -0.1490  1.0332
  856MOL0     H18087   7.187   8.527   6.971  0.3619  2.8204  2.6406
  856MOL0     H18088   7.346   8.480   7.013 -1.4197  1.2920 -1.4217
  856MOL0     H18089   7.229   8.460   7.130 -2.5705  1.2080 -0.1412
  856MOL0     H18090   6.749   8.286   7.189  3.1259 -0.1562  0.8915
  856MOL0     H18091   6.604   8.361   7.379  1.1058  1.0135  3.5898
  856MOL0     H18092   6.431   8.516   7.451 -0.5594  1.8906  0.3010
  856MOL0     H18093   6.547   8.450   7.564  2.3055 -0.5753 -3.4985
  856MOL0     H18094   6.430   8.730   7.610  0.0538  0.0534 -2.5365
  856MOL0     H18095   6.335   8.592   7.649 -0.7059  3.0630  1.1526
  856MOL0     H18096   6.534   8.495   7.780 -2.1949 -0.1969  0.2449
  856MOL0     H18097   6.427   8.608   7.841 -1.5798  1.4347 -0.8759
  856MOL0     H18098   6.591   8.798   7.759  0.1436 -2.1516 -2.8753
  856MOL0     H18099   6.711   8.664   7.776 -0.8906 -4.6645  1.1632
  856MOL0     H18100   6.512   8.754   7.995 -1.7159 -0.7642 -1.3579
  856MOL0     H18101   6.634   8.646   8.024  0.0728 -0.6583 -0.3861
  856MOL0     H18102   6.806   8.832   7.983  0.3907 -2.4067  1.7565
  856MOL0     H18103   6.704   8.849   8.126 -4.5358 -0.5555 -0.5696
  856MOL0     H18104   6.567   9.035   8.011  1.0191  1.6930  0.2675
  856MOL0     H18105   6.641   9.002   7.869 -3.2605 -1.0325  0.4521
  856MOL0     H18106   6.871   9.071   7.963  0.2595  0.8009 -0.3940
  856MOL0     H18107   6.793   9.121   8.112  0.4424  1.8071 -0.3269
  856MOL0     H18108   6.766   8.754   7.336  1.9534 -0.1079  3.5900
  856MOL0     H18109   6.968   8.649   7.222  1.0236 -0.7093  0.4032
  856MOL0     H18110   6.976   8.067   6.909  0.4822 -1.5238 -3.6398
  856MOL0     H18111   7.174   7.937   6.854 -1.1345  0.5204  1.3267
  856MOL0     H18112   8.358   8.990   6.743 -0.4964  1.6988 -1.8188
  856MOL0     H18113   8.201   9.074   6.910 -0.7586  3.9650  0.5128
  856MOL0     H18114   8.224   9.432   7.450 -0.3678  0.8543  1.3905
  856MOL0     H18115   8.030   9.486   7.533  1.2880  0.5621  0.5699
  856MOL0     H18116   7.738   9.515   7.437 -0.9724 -0.4670 -2.5313
  856MOL0     H18117   7.726   9.361   7.354  0.9638 -0.0166 -1.1369
  856MOL0     H18118   7.500   9.447   7.429 -0.3813 -2.2911 -2.7025
  856MOL0     H18119   7.573   9.457   7.595 -2.3285 -0.4416  0.9971
  856MOL0     H18120   7.606   9.226   7.598 -1.4901 -1.9246  1.7081
  856MOL0     H18121   7.443   9.262   7.601  1.6934 -0.2431  0.5976
  856MOL0     H18122   7.493   9.061   7.453  3.4010  0.0861  0.9533
  856MOL0     H18123   7.598   9.172   7.353  2.0380 -1.2342  1.8446
  856MOL0     H18124   7.191   9.254   7.231 -0.7644 -1.5899  1.6190
  856MOL0     H18125   7.850   9.113   7.415  0.4904 -0.8941  0.2264
  856MOL0     H18126   8.039   9.056   7.152 -0.5288 -2.0211 -1.3275
  856MOL0     H18127   8.140   8.982   7.280 -1.1395 -2.5872 -1.4213
  856MOL0     H18128   7.958   8.975   7.289 -1.0748  1.3467 -1.3488
  857MOL0     O18129   6.935   1.546   8.234  0.0856  1.2150 -0.5442
  857MOL0     C18130   7.054   1.512   8.236 -0.7123 -0.5235  0.0024
  857MOL0     O18131   7.120   1.452   8.339  0.6249 -0.0279 -0.5235
  857MOL0     C18132   7.058   1.424   8.460  0.7225 -1.2496  0.4528
  857MOL0     C18133   6.975   1.312   8.471  0.0351 -0.8163 -0.0611
  857MOL0     C18134   6.888   1.299   8.579 -0.4012  0.9241 -0.5086
  857MOL0     C18135   6.920   1.370   8.696 -0.0662  0.0974 -0.4474
  857MOL0     O18136   6.853   1.325   8.806 -0.6687 -0.5768  0.8188
  857MOL0     C18137   6.845   1.408   8.922  0.3208 -0.3257  0.1381
  857MOL0     C18138   6.738   1.341   9.018 -1.0855 -1.0000  0.0568
  857MOL0     C18139   6.782   1.199   9.080  0.1947  1.0412  0.4833
  857MOL0     C18140   6.679   1.130   9.164  0.1836  0.1180  0.9796
  857MOL0     C18141   6.753   1.036   9.265 -0.6586 -0.9719  0.5372
  857MOL0     C18142   6.665   0.953   9.365 -1.0498  0.5423 -0.6490
  857MOL0     C18143   6.755   0.895   9.483  0.0187  1.5621  0.1019
  857MOL0     C18144   6.828   0.765   9.452 -0.3922  0.5103  0.6654
  857MOL0     N18145   6.744   0.635   9.460  0.9166  0.2567 -0.8086
  857MOL0     C18146   6.629   0.613   9.527  0.7833 -0.4518 -0.5201
  857MOL0     C18147   6.614   0.479   9.523 -0.6008 -0.0311 -1.2241
  857MOL0     C18148   6.510   0.406   9.606 -0.2274  1.0122  0.0224
  857MOL0     C18149   6.505   0.443   9.746 -0.8077 -0.1255  1.1115
  857MOL0     C18150   6.403   0.370   9.826  0.3965  0.5420 -0.4570
  857MOL0     C18151   6.454   0.343   9.962 -0.0679 -0.5754  0.1497
  857MOL0     O18152   6.344   0.293  10.043 -0.1460 -0.0339  0.0318
  857MOL0     C18153   6.355   0.277  10.183  0.3753 -0.1899  1.3637
  857MOL0     C18154   6.252   0.209  10.249  0.5240  0.1989 -0.2397
  857MOL0     C18155   6.261   0.180  10.388 -0.3459 -0.3796  0.5810
  857MOL0     C18156   6.163   0.100  10.457 -0.4224  0.5640 -0.6725
  857MOL0     C18157   6.374   0.245  10.452  0.2617 -0.3402 -0.8394
  857MOL0     C18158   6.396   0.235  10.604 -0.4692  0.2404 -0.1954
  857MOL0     O18159   6.494   0.158  10.642 -0.1609  1.0068 -0.4457
  857MOL0     C18160   6.548   0.182  10.765  0.1178 -0.2238 -0.7532
  857MOL0     C18161   6.640   0.285  10.788 -0.3448  0.8631  0.7928
  857MOL0     C18162   6.691   0.308  10.910  0.2663 -0.0560 -0.1480
  857MOL0     C18163   6.662   0.217  11.011 -0.2697 -0.3970  0.0259
  857MOL0     O18164   6.721   0.220  11.131  0.3947  0.0645 -0.0718
  857MOL0     C18165   6.829   0.303  11.169  0.5754  0.8209  0.3040
  857MOL0     C18166   6.783   0.417  11.252 -0.3090  0.4436  0.9453
  857MOL0     C18167   6.904   0.480  11.306 -1.0966  0.3832 -0.6110
  857MOL0     C18168   6.877   0.591  11.404  0.3493  0.7066 -1.3686
  857MOL0     C18169   6.999   0.668  11.437  0.6954  0.8603 -1.3719
  857MOL0     C18170   7.093   0.596  11.532  0.2463  0.3901 -1.0583
  857MOL0     C18171   7.222   0.674  11.555 -0.8488 -0.4893 -0.3913
  857MOL0     C18172   7.308   0.612  11.654 -0.7182  1.2045  0.1404
  857MOL0    Cl18173   7.356   0.447  11.593 -0.4045 -0.0142 -0.2380
  857MOL0     C18174   6.571   0.110  10.994 -0.2387  0.5625 -0.1692
  857MOL0     C18175   6.514   0.091  10.871 -0.2697 -0.9447  0.3999
  857MOL0     O18176   6.322   0.299  10.678  0.3376  0.5354  0.4149
  857MOL0     C18177   6.476   0.301  10.383 -0.1952  1.0677  1.0773
  857MOL0     C18178   6.467   0.325  10.249  0.9270 -0.8083 -0.1761
  857MOL0     N18179   6.715   0.420   9.452  0.3369 -0.8797  0.5186
  857MOL0     N18180   6.795   0.512   9.419 -0.0624  0.4149  0.2550
  857MOL0     C18181   7.024   1.475   8.688 -0.1264  0.8308  0.1846
  857MOL0     C18182   7.087   1.505   8.568 -0.0235  0.9668 -0.3380
  857MOL0     C18183   7.124   1.526   8.105 -0.2826 -1.2267 -0.1188
  857MOL0     C18184   7.263   1.489   8.110  0.4154  0.3234 -0.8795
  857MOL0     C18185   7.344   1.496   7.996  0.9075  0.4508 -0.4538
  857MOL0     C18186   7.283   1.542   7.871  0.4156 -0.4587 -0.0668
  857MOL0     O18187   7.344   1.535   7.748 -0.1612  0.0196 -0.4121
  857MOL0     C18188   7.485   1.512   7.747 -0.4735  0.9892  0.4701
  857MOL0     C18189   7.518   1.353   7.753 -0.4112  0.6858 -0.2782
  857MOL0     C18190   7.665   1.337   7.799  1.4486 -0.8145 -0.5659
  857MOL0     C18191   7.704   1.201   7.836  0.6947 -0.0366  0.4917
  857MOL0     C18192   7.825   1.217   7.916  0.0311 -0.2042 -0.1339
  857MOL0     C18193   7.922   1.251   7.991  1.1804 -0.1244  0.4168
  857MOL0     C18194   7.154   1.594   7.876 -0.5236  0.2015  0.9807
  857MOL0     C18195   7.076   1.597   7.986  0.5668  0.0235  0.1682
  857MOL0     C18196   6.935   1.662   7.974  1.1460  0.2960 -0.6515
  857MOL0     H18197   6.944   1.267   8.377 -2.4542  0.1465  0.2030
  857MOL0     H18198   6.823   1.212   8.587 -0.3596  0.9272 -0.0790
  857MOL0     H18199   6.812   1.509   8.896 -1.4285 -1.0930 -0.8313
  857MOL0     H18200   6.940   1.410   8.976  1.4042  1.1362 -1.7185
  857MOL0     H18201   6.717   1.419   9.092  1.0773  1.7972 -2.0227
  857MOL0     H18202   6.645   1.333   8.962 -0.2056 -1.1514 -1.4175
  857MOL0     H18203   6.809   1.131   8.999 -0.0558  0.4664  0.8778
  857MOL0     H18204   6.869   1.204   9.146 -0.3529 -3.2085  1.8429
  857MOL0     H18205   6.625   1.205   9.223 -1.1089  2.1389 -2.4673
  857MOL0     H18206   6.608   1.072   9.106  0.7077  0.9580 -0.5624
  857MOL0     H18207   6.821   1.108   9.311 -2.0221  0.8603 -0.1735
  857MOL0     H18208   6.831   0.976   9.217  2.1963  1.7234  1.5168
  857MOL0     H18209   6.601   1.031   9.405 -0.4812  1.1935 -0.9828
  857MOL0     H18210   6.614   0.874   9.310  0.9897 -0.9360 -0.5608
  857MOL0     H18211   6.698   0.875   9.574 -1.7958  2.1678 -0.8609
  857MOL0     H18212   6.832   0.967   9.514  4.0820 -1.5729 -1.6957
  857MOL0     H18213   6.884   0.770   9.358  0.4770  1.4669  1.2157
  857MOL0     H18214   6.909   0.755   9.525  0.9528 -0.1864 -0.8442
  857MOL0     H18215   6.572   0.690   9.579  0.6668 -2.0547  1.9145
  857MOL0     H18216   6.531   0.299   9.601 -2.9922  0.4447 -4.0616
  857MOL0     H18217   6.415   0.429   9.557 -1.6125 -2.7604  0.6210
  857MOL0     H18218   6.608   0.422   9.775 -0.1414  3.1031  1.4860
  857MOL0     H18219   6.504   0.552   9.756  0.9457  0.1340 -0.8153
  857MOL0     H18220   6.320   0.441   9.838  0.7081  0.8127  0.1128
  857MOL0     H18221   6.372   0.278   9.776 -1.0090  2.8407 -4.1879
  857MOL0     H18222   6.538   0.273   9.950  1.1851  1.3061 -4.3955
  857MOL0     H18223   6.487   0.434  10.012 -0.2150 -0.0346 -0.7121
  857MOL0     H18224   6.166   0.165  10.201  0.5400 -1.1813  0.9277
  857MOL0     H18225   6.224   0.038  10.524 -1.3070  0.1598 -0.2290
  857MOL0     H18226   6.133   0.020  10.389 -0.3788  0.3977 -0.4968
  857MOL0     H18227   6.077   0.153  10.499  0.3032  0.7914  0.5841
  857MOL0     H18228   6.678   0.344  10.704  3.4092 -1.6612  0.4930
  857MOL0     H18229   6.755   0.395  10.923  0.0184 -0.1387  1.8018
  857MOL0     H18230   6.885   0.227  11.225 -0.5906  1.2224  2.1039
  857MOL0     H18231   6.892   0.333  11.084 -0.0613  3.1868  0.5907
  857MOL0     H18232   6.724   0.483  11.189 -1.1046 -1.1807 -0.0878
  857MOL0     H18233   6.718   0.369  11.327 -1.7229 -1.0272 -1.0953
  857MOL0     H18234   6.963   0.531  11.229  1.5463  1.0714  1.6951
  857MOL0     H18235   6.978   0.411  11.347  0.1398  1.3636 -1.1169
  857MOL0     H18236   6.836   0.554  11.498  0.6741 -0.8119 -1.7961
  857MOL0     H18237   6.819   0.671  11.356  0.9699  1.4864 -0.8499
  857MOL0     H18238   7.052   0.697  11.346 -0.1298 -1.5286 -2.6938
  857MOL0     H18239   6.978   0.764  11.486  0.0155  0.6869 -1.3099
  857MOL0     H18240   7.115   0.498  11.488 -0.3251 -0.4931  0.5209
  857MOL0     H18241   7.045   0.573  11.628  3.6094  2.2016  1.2500
  857MOL0     H18242   7.198   0.774  11.592  1.5061 -0.4834  1.3626
  857MOL0     H18243   7.281   0.676  11.463 -1.2229  2.9671 -0.7176
  857MOL0     H18244   7.259   0.600  11.752  1.6995 -1.8942  1.1257
  857MOL0     H18245   7.396   0.672  11.680  0.1542  1.0755 -2.3167
  857MOL0     H18246   6.537   0.038  11.068 -1.0381  0.1536 -0.9208
  857MOL0     H18247   6.448   0.007  10.853  0.4163 -2.4054  4.0067
  857MOL0     H18248   6.568   0.337  10.427 -0.7729 -0.0860  3.3571
  857MOL0     H18249   6.555   0.368  10.202  0.8233  1.1932  1.3220
  857MOL0     H18250   7.037   1.516   8.788  0.4257  0.4157  0.2862
  857MOL0     H18251   7.160   1.585   8.571  2.4924 -1.1261 -1.7475
  857MOL0     H18252   7.301   1.453   8.205 -3.6238  1.2834  1.3321
  857MOL0     H18253   7.449   1.469   8.004  2.1842  4.5715 -0.6754
  857MOL0     H18254   7.525   1.551   7.653 -0.9537 -0.2300 -0.2631
  857MOL0     H18255   7.528   1.561   7.835  1.0816 -1.9861  1.5178
  857MOL0     H18256   7.495   1.304   7.658 -0.6122 -1.9207  1.0395
  857MOL0     H18257   7.459   1.304   7.832 -1.1528  0.4911 -0.9397
  857MOL0     H18258   7.731   1.390   7.730  0.2054  2.9616  0.8419
  857MOL0     H18259   7.667   1.395   7.893 -0.6940  1.3045 -1.7165
  857MOL0     H18260   7.715   1.131   7.753  0.9760  0.2053  0.3221
  857MOL0     H18261   7.637   1.161   7.913 -0.8139  2.4020  0.5338
  857MOL0     H18262   8.000   1.306   8.041  2.6014 -1.3531 -0.3524
  857MOL0     H18263   7.125   1.628   7.777  3.2304  0.8622 -0.0534
  857MOL0     H18264   6.855   1.592   7.951  2.7284 -2.0886  0.7132
  857MOL0     H18265   6.898   1.707   8.067  1.2879 -1.8135  0.4887
  857MOL0     H18266   6.945   1.734   7.892  3.6931 -0.0680 -0.7424
  858MOL0     O18267   4.848   1.390   4.291 -0.1860  0.3381 -0.6513
  858MOL0     C18268   4.954   1.449   4.275  0.6125 -0.4133 -0.3743
  858MOL0     O18269   4.974   1.567   4.205 -0.3392  0.3057 -0.8837
  858MOL0     C18270   4.883   1.612   4.115 -0.3975 -1.0626  0.3336
  858MOL0     C18271   4.826   1.514   4.026 -1.1696 -0.1763  0.0850
  858MOL0     C18272   4.750   1.572   3.922  0.3296  0.4493 -0.2801
  858MOL0     C18273   4.735   1.710   3.900 -0.1421  0.1620 -0.4206
  858MOL0     O18274   4.663   1.746   3.786 -0.4355 -0.5599  0.4970
  858MOL0     C18275   4.619   1.882   3.790  0.0564  0.0867  0.0587
  858MOL0     C18276   4.549   1.927   3.657 -0.0279 -0.8360 -0.4390
  858MOL0     C18277   4.646   2.005   3.568 -0.1215 -1.2705  0.2187
  858MOL0     C18278   4.767   1.925   3.517  0.5249 -0.3482 -0.4479
  858MOL0     C18279   4.846   2.018   3.424 -0.3105  0.1862 -0.0004
  858MOL0     C18280   4.952   1.951   3.334 -0.4660 -0.0459  0.2095
  858MOL0     C18281   5.034   1.836   3.395  0.3975 -0.6822  0.0774
  858MOL0     C18282   5.178   1.860   3.378 -0.2149 -0.1989  0.3772
  858MOL0     N18283   5.224   1.981   3.458  0.5908  0.3755  0.4344
  858MOL0     C18284   5.216   1.998   3.595  0.7262 -0.1344  0.3037
  858MOL0     C18285   5.239   2.130   3.623 -0.1849  0.3755  0.2029
  858MOL0     C18286   5.237   2.200   3.749 -0.1143 -0.5487  0.1531
  858MOL0     C18287   5.190   2.136   3.883  0.4023  0.2547  0.1600
  858MOL0     C18288   5.268   2.012   3.920 -0.7147 -1.1718 -0.9876
  858MOL0     C18289   5.177   1.909   3.985 -0.4175  0.3152 -0.3718
  858MOL0     O18290   5.223   1.774   3.996  0.0558  0.2784  0.3454
  858MOL0     C18291   5.244   1.703   3.872  0.0974  0.2424  0.1333
  858MOL0     C18292   5.131   1.659   3.809  0.0470  0.7226  0.8811
  858MOL0     C18293   5.136   1.580   3.680 -0.1836 -0.0193 -0.5278
  858MOL0     C18294   5.002   1.522   3.643  0.1785 -0.1398 -0.1955
  858MOL0     C18295   5.269   1.550   3.629 -0.4271 -0.5715 -0.5110
  858MOL0     C18296   5.297   1.463   3.508 -0.0533 -0.2071 -0.0995
  858MOL0     O18297   5.189   1.415   3.431  0.4099 -0.1195 -0.1614
  858MOL0     C18298   5.223   1.383   3.307  0.4398  0.3858  0.1672
  858MOL0     C18299   5.190   1.263   3.253  0.2373 -0.4039 -0.3411
  858MOL0     C18300   5.217   1.233   3.114  0.9525  0.1937 -0.1760
  858MOL0     C18301   5.276   1.328   3.031  0.1710  0.0470 -0.5367
  858MOL0     O18302   5.338   1.285   2.915 -0.4221  0.6062 -0.6801
  858MOL0     C18303   5.425   1.362   2.840 -1.0876 -0.3831 -1.5376
  858MOL0     C18304   5.433   1.300   2.707  0.2808 -0.5214  0.4492
  858MOL0     C18305   5.559   1.359   2.634  0.0790  0.2890 -0.1609
  858MOL0     C18306   5.539   1.351   2.490  0.4684  0.2606  0.5858
  858MOL0     C18307   5.665   1.402   2.425 -0.0940 -1.2365 -0.0145
  858MOL0     C18308   5.701   1.369   2.274  0.3859 -0.2470  0.2424
  858MOL0     C18309   5.597   1.429   2.184  0.3182 -0.7575  0.6416
  858MOL0     C18310   5.623   1.415   2.035 -1.3257 -0.0062  0.6793
  858MOL0    Cl18311   5.789   1.475   1.986 -0.3528 -0.1534 -0.1295
  858MOL0     C18312   5.290   1.460   3.081 -0.4903  0.3300  1.0599
  858MOL0     C18313   5.276   1.477   3.221 -0.1076  0.0441 -0.4161
  858MOL0     O18314   5.419   1.456   3.480  0.0334 -0.0692 -0.0082
  858MOL0     C18315   5.379   1.599   3.706  0.1249 -0.4488 -0.2643
  858MOL0     C18316   5.371   1.670   3.823  0.8028 -0.3742  0.0063
  858MOL0     N18317   5.262   2.186   3.503  0.1923  0.0260  0.1786
  858MOL0     N18318   5.252   2.105   3.398  0.2885  0.2035  0.7396
  858MOL0     C18319   4.801   1.806   3.983  0.9989  0.3750 -0.0320
  858MOL0     C18320   4.879   1.750   4.094 -0.1294 -0.5950  0.6248
  858MOL0     C18321   5.080   1.393   4.329  0.4798 -0.0702  0.0910
  858MOL0     C18322   5.203   1.428   4.260  0.2665  1.8032 -0.1768
  858MOL0     C18323   5.325   1.384   4.306 -0.1973 -0.0289 -0.4375
  858MOL0     C18324   5.337   1.289   4.411 -0.1815  0.2105 -0.9616
  858MOL0     O18325   5.463   1.256   4.459 -0.1296  0.1130 -0.6645
  858MOL0     C18326   5.567   1.223   4.355  0.2070  0.2544  0.7598
  858MOL0     C18327   5.679   1.140   4.423 -0.2444 -0.4387  0.4377
  858MOL0     C18328   5.796   1.119   4.334  0.3931 -0.1038 -0.3464
  858MOL0     C18329   5.915   1.072   4.412 -0.6910  0.6158 -0.4561
  858MOL0     C18330   5.914   0.928   4.453 -0.8760 -0.7540  0.1278
  858MOL0     C18331   5.910   0.813   4.488  0.5940  0.1372 -0.1759
  858MOL0     C18332   5.220   1.266   4.484 -0.4830 -0.0894  0.8272
  858MOL0     C18333   5.089   1.310   4.448 -0.0386  0.4034  0.0726
  858MOL0     C18334   4.977   1.279   4.541  0.2881 -0.0732 -0.2808
  858MOL0     H18335   4.845   1.408   4.039 -0.5266  0.1155  1.7317
  858MOL0     H18336   4.711   1.498   3.853 -0.4909  2.3034 -1.9125
  858MOL0     H18337   4.691   1.958   3.820  1.0222 -1.1714  1.0651
  858MOL0     H18338   4.538   1.875   3.863 -0.5593 -1.0199 -0.6949
  858MOL0     H18339   4.510   1.841   3.602 -0.8710 -1.8742  1.6789
  858MOL0     H18340   4.470   1.996   3.686  2.1464  1.0136  1.5667
  858MOL0     H18341   4.574   2.041   3.494 -1.1678 -2.3894  0.6468
  858MOL0     H18342   4.680   2.092   3.624 -0.4892 -1.5707  0.9216
  858MOL0     H18343   4.821   1.901   3.609  1.1863 -1.1279 -1.0196
  858MOL0     H18344   4.733   1.834   3.467 -3.0118  0.7272 -0.2376
  858MOL0     H18345   4.892   2.096   3.485  0.1235 -0.0557 -0.0148
  858MOL0     H18346   4.780   2.082   3.366 -0.8142  2.1275  2.5116
  858MOL0     H18347   4.893   1.908   3.252 -1.5934  0.9228  0.4767
  858MOL0     H18348   5.018   2.032   3.301 -0.2397  0.2080  1.2594
  858MOL0     H18349   5.006   1.737   3.358  2.4784 -1.4885  0.5538
  858MOL0     H18350   5.010   1.833   3.502  4.3795  1.8427  1.2272
  858MOL0     H18351   5.244   1.782   3.418  3.7026  3.1573  1.1003
  858MOL0     H18352   5.206   1.863   3.273  1.2313 -0.8206  0.7147
  858MOL0     H18353   5.172   1.923   3.660  1.9513 -1.8494 -0.7701
  858MOL0     H18354   5.171   2.286   3.733 -3.6338 -3.2556 -1.2036
  858MOL0     H18355   5.339   2.228   3.777 -0.7647  0.5741  1.5617
  858MOL0     H18356   5.185   2.207   3.966 -1.4482  1.8674 -1.2353
  858MOL0     H18357   5.086   2.113   3.859  0.7388  0.1143 -1.2218
  858MOL0     H18358   5.325   1.972   3.835 -0.3065 -0.6622 -0.9563
  858MOL0     H18359   5.350   2.035   3.988 -0.4861  0.1570 -1.6718
  858MOL0     H18360   5.135   1.940   4.082 -0.4074  1.9467 -0.8519
  858MOL0     H18361   5.092   1.901   3.917 -1.2268  0.9037  0.5326
  858MOL0     H18362   5.030   1.681   3.841 -1.1196 -0.8876 -1.3977
  858MOL0     H18363   5.002   1.412   3.645  2.6360 -0.1814  0.2096
  858MOL0     H18364   4.990   1.554   3.539  1.3478 -0.4642 -0.4419
  858MOL0     H18365   4.924   1.560   3.710  1.8105  0.1324  1.6363
  858MOL0     H18366   5.157   1.190   3.326 -0.7197  1.9098  1.7093
  858MOL0     H18367   5.189   1.136   3.075 -1.6382  1.4765 -1.7487
  858MOL0     H18368   5.384   1.462   2.827 -1.1559 -0.4193 -1.5995
  858MOL0     H18369   5.529   1.373   2.874 -0.9925 -0.3531 -1.8329
  858MOL0     H18370   5.451   1.193   2.722 -0.6427 -0.5631  1.4112
  858MOL0     H18371   5.340   1.327   2.655 -0.6578  0.9852  2.7161
  858MOL0     H18372   5.641   1.292   2.660  1.1589  1.6403  0.0359
  858MOL0     H18373   5.572   1.466   2.657  0.2746  0.3504 -0.5443
  858MOL0     H18374   5.458   1.422   2.472 -0.3919 -0.5842  1.1102
  858MOL0     H18375   5.514   1.251   2.455 -2.4143  1.8833 -2.5847
  858MOL0     H18376   5.670   1.509   2.444  3.1610 -1.6064  2.0329
  858MOL0     H18377   5.755   1.366   2.476  0.5822 -2.4655 -1.9564
  858MOL0     H18378   5.729   1.264   2.258  1.5146  0.2734 -1.5238
  858MOL0     H18379   5.790   1.421   2.239 -0.1536  1.4949  1.3508
  858MOL0     H18380   5.577   1.534   2.207  1.7394 -0.1211 -0.8166
  858MOL0     H18381   5.504   1.376   2.205 -0.1770  0.4674  1.6946
  858MOL0     H18382   5.544   1.472   1.985  0.4969  1.6092 -0.5122
  858MOL0     H18383   5.613   1.312   2.000 -1.5952 -0.3188  1.6588
  858MOL0     H18384   5.344   1.538   3.030  0.9022  1.6077  4.2164
  858MOL0     H18385   5.294   1.575   3.263 -0.2816 -0.7677  1.6593
  858MOL0     H18386   5.483   1.570   3.688  0.3022 -0.2027  0.3344
  858MOL0     H18387   5.469   1.686   3.866 -0.1729 -0.6992  2.4684
  858MOL0     H18388   4.805   1.914   3.978 -1.0634  0.4389 -1.6980
  858MOL0     H18389   4.932   1.824   4.153 -1.8811  0.9016  0.4325
  858MOL0     H18390   5.201   1.485   4.167 -1.9554  0.1108 -1.2630
  858MOL0     H18391   5.409   1.402   4.239 -0.9357 -1.0096 -1.6736
  858MOL0     H18392   5.521   1.176   4.268  1.5690 -0.5859  0.4495
  858MOL0     H18393   5.602   1.313   4.304  0.1964 -1.9480 -3.5285
  858MOL0     H18394   5.645   1.046   4.465  0.1517  0.2320  2.3571
  858MOL0     H18395   5.720   1.196   4.507 -0.0354 -1.4755  1.0321
  858MOL0     H18396   5.780   1.043   4.257  1.4424  1.1544 -1.8594
  858MOL0     H18397   5.809   1.215   4.283  0.1349  1.0294  1.6335
  858MOL0     H18398   5.924   1.135   4.501  2.4304 -0.4867  0.1208
  858MOL0     H18399   6.002   1.085   4.348 -1.1552 -0.3419 -1.3023
  858MOL0     H18400   5.871   0.715   4.508 -2.4599  0.8923 -1.7883
  858MOL0     H18401   5.212   1.213   4.578 -0.9636 -3.6962 -1.0631
  858MOL0     H18402   4.936   1.180   4.516  0.4524 -0.9124  2.4711
  858MOL0     H18403   5.010   1.263   4.644  1.5677 -1.2985 -0.8408
  858MOL0     H18404   4.894   1.349   4.543 -0.5401 -0.9292  3.9873
  859MOL0     O18405   3.743  11.288   2.199 -0.0640 -1.0886  0.6733
  859MOL0     C18406   3.676  11.189   2.169  0.0784  0.5071 -0.1208
  859MOL0     O18407   3.702  11.121   2.060  0.2121  0.1274  0.6382
  859MOL0     C18408   3.749  11.201   1.959 -0.5382  0.5486 -0.9242
  859MOL0     C18409   3.866  11.153   1.895 -0.0310  0.4425 -0.6802
  859MOL0     C18410   3.903  11.219   1.784 -0.1502 -0.2456  0.2065
  859MOL0     C18411   3.836  11.328   1.728 -0.4769  0.5241  0.1217
  859MOL0     O18412   3.893  11.385   1.619 -0.2394  0.1819  0.2529
  859MOL0     C18413   3.996  11.483   1.648 -0.1157 -0.4930 -0.2072
  859MOL0     C18414   4.132  11.425   1.616 -0.1171  0.1941 -0.1836
  859MOL0     C18415   4.146  11.363   1.469 -0.9962  0.7204 -1.2085
  859MOL0     C18416   4.273  11.270   1.463  0.2876 -1.1866  0.2441
  859MOL0     C18417   4.321  11.259   1.317  0.4516  0.0576 -0.4624
  859MOL0     C18418   4.459  11.200   1.301  0.2016 -0.4623 -0.1716
  859MOL0     C18419   4.567  11.287   1.371 -0.6965  0.7152  0.5161
  859MOL0     C18420   4.646  11.210   1.470 -0.2179 -0.0424 -0.3883
  859MOL0     N18421   4.758  11.277   1.542 -0.2325 -0.1620  0.5437
  859MOL0     C18422   4.890  11.229   1.553  0.0296  0.1271 -0.0686
  859MOL0     C18423   4.956  11.327   1.626  0.5358 -0.9544 -0.0083
  859MOL0     C18424   5.101  11.311   1.672  1.1864 -0.4520  0.7140
  859MOL0     C18425   5.183  11.447   1.664 -0.0540 -1.0169  0.1114
  859MOL0     C18426   5.325  11.440   1.729 -0.2166  0.2914  0.0491
  859MOL0     C18427   5.424  11.545   1.673  0.2429 -0.1668  0.1219
  859MOL0     O18428   5.462  11.527   1.540  0.0961  0.7064 -0.4206
  859MOL0     C18429   5.586  11.502   1.499 -0.6608  0.2525 -0.4183
  859MOL0     C18430   5.695  11.454   1.579  0.2487  0.0620 -0.5521
  859MOL0     C18431   5.826  11.452   1.522  0.3368 -0.3809 -0.4459
  859MOL0     C18432   5.929  11.386   1.611 -0.0525  0.0255 -0.0522
  859MOL0     C18433   5.849  11.496   1.382  0.3017  0.8664 -0.3459
  859MOL0     C18434   5.980  11.520   1.331 -0.4797 -0.1568 -0.4594
  859MOL0     O18435   6.093  11.475   1.398 -0.6869 -0.4658 -0.4446
  859MOL0     C18436   6.211  11.539   1.367  0.2350 -0.2073  0.1392
  859MOL0     C18437   6.287  11.528   1.248  0.0030 -0.3293 -0.9576
  859MOL0     C18438   6.415  11.584   1.244  0.7897 -0.7446 -0.4872
  859MOL0     C18439   6.452  11.690   1.326 -0.1459 -0.0638 -0.0011
  859MOL0     O18440   6.571  11.763   1.305  0.5043  0.0244 -0.0337
  859MOL0     C18441   6.669  11.716   1.218  0.6609  0.7225 -0.1666
  859MOL0     C18442   6.780  11.824   1.215 -0.5673  1.0663 -0.3302
  859MOL0     C18443   6.910  11.750   1.173  0.4419 -0.1900 -0.0516
  859MOL0     C18444   7.039  11.836   1.156 -0.9289  0.5811 -0.9739
  859MOL0     C18445   7.147  11.755   1.079  0.9445  0.1901  0.2191
  859MOL0     C18446   7.284  11.842   1.054 -0.0786 -0.5386  0.0046
  859MOL0     C18447   7.372  11.780   0.944  0.8942 -1.0681 -0.3332
  859MOL0     C18448   7.518  11.832   0.959 -0.0989  0.6142 -0.2313
  859MOL0    Cl18449   7.533  12.002   0.928  0.1705  0.2021  0.1865
  859MOL0     C18450   6.372  11.716   1.441  0.1465 -0.6004  0.7410
  859MOL0     C18451   6.258  11.638   1.463  0.0457  0.0441 -0.2618
  859MOL0     O18452   5.981  11.576   1.219 -0.6925 -0.3457  0.0504
  859MOL0     C18453   5.742  11.543   1.320  0.2958 -1.1105  0.9425
  859MOL0     C18454   5.610  11.553   1.373 -0.6150  0.0199 -0.0264
  859MOL0     N18455   4.863  11.425   1.650 -0.1749  0.3349 -0.7745
  859MOL0     N18456   4.753  11.396   1.612  0.0808  0.0279  0.2441
  859MOL0     C18457   3.720  11.374   1.794 -0.3156  0.2175  0.1399
  859MOL0     C18458   3.678  11.304   1.904  0.6008  0.5149 -0.2710
  859MOL0     C18459   3.577  11.128   2.259  0.3715 -0.7614  0.2180
  859MOL0     C18460   3.552  10.987   2.247  0.2558 -0.2012 -0.3082
  859MOL0     C18461   3.459  10.921   2.327 -0.0699 -0.1703 -0.3928
  859MOL0     C18462   3.397  10.985   2.441 -0.4427  0.2441 -0.0919
  859MOL0     O18463   3.298  10.936   2.526  0.1020  0.3370 -0.1212
  859MOL0     C18464   3.242  10.808   2.514  0.2676  0.0947 -1.0565
  859MOL0     C18465   3.318  10.704   2.593  0.3303  0.0962 -0.0920
  859MOL0     C18466   3.255  10.675   2.738 -0.0343  0.0715  0.6117
  859MOL0     C18467   3.302  10.554   2.804 -0.5906  0.0472  0.0633
  859MOL0     C18468   3.230  10.437   2.766 -0.2955  0.4746 -0.1532
  859MOL0     C18469   3.154  10.355   2.737 -0.6800  0.6965 -0.4621
  859MOL0     C18470   3.424  11.118   2.454  0.0862  0.4439 -0.6715
  859MOL0     C18471   3.509  11.193   2.370 -0.2754  0.9573  0.3953
  859MOL0     C18472   3.515  11.335   2.395  0.7237 -0.6832  0.7436
  859MOL0     H18473   3.914  11.062   1.932 -0.4951 -0.0812 -1.3412
  859MOL0     H18474   3.986  11.177   1.728  0.6830  0.3265  1.0006
  859MOL0     H18475   4.001  11.514   1.752  3.1078 -2.0401  0.2181
  859MOL0     H18476   3.966  11.561   1.577 -0.8193 -4.1655 -4.4167
  859MOL0     H18477   4.193  11.517   1.616  1.1957 -0.6530 -0.8082
  859MOL0     H18478   4.158  11.361   1.701 -3.7440  0.8744  1.6689
  859MOL0     H18479   4.056  11.302   1.453 -0.1961 -0.9969  0.3436
  859MOL0     H18480   4.143  11.448   1.400  0.3885  0.6174 -1.4319
  859MOL0     H18481   4.352  11.310   1.527  0.8616 -1.0671 -0.5213
  859MOL0     H18482   4.255  11.173   1.510 -1.1539 -0.9266  0.2903
  859MOL0     H18483   4.329  11.360   1.275  2.2836  0.9043  1.7570
  859MOL0     H18484   4.239  11.203   1.269 -1.6444  1.4213  1.3314
  859MOL0     H18485   4.465  11.097   1.339  1.0543 -0.5214 -0.4391
  859MOL0     H18486   4.471  11.207   1.192  1.2356 -1.6166 -0.1542
  859MOL0     H18487   4.528  11.372   1.429  0.0878  1.3466  0.1414
  859MOL0     H18488   4.639  11.320   1.295 -3.1188  1.2930 -1.6629
  859MOL0     H18489   4.580  11.170   1.548 -1.9353 -0.0437 -1.7881
  859MOL0     H18490   4.684  11.124   1.414 -0.9257 -1.0399  0.6078
  859MOL0     H18491   4.938  11.134   1.528  1.3110  0.5507  0.6785
  859MOL0     H18492   5.141  11.229   1.611  1.8016  0.0412  0.4370
  859MOL0     H18493   5.106  11.275   1.775  1.0086 -4.9058 -0.6041
  859MOL0     H18494   5.210  11.463   1.559  2.1743 -3.0207  0.3025
  859MOL0     H18495   5.127  11.530   1.709  2.3033 -0.5066  2.3400
  859MOL0     H18496   5.312  11.447   1.837  2.0414  1.3028  0.3272
  859MOL0     H18497   5.365  11.342   1.699  3.7488  0.0946  4.6838
  859MOL0     H18498   5.368  11.637   1.691  0.2514 -0.6768  3.2103
  859MOL0     H18499   5.510  11.555   1.740  0.3206  0.4975 -0.0643
  859MOL0     H18500   5.660  11.424   1.677 -0.1178 -0.8883 -0.9613
  859MOL0     H18501   6.012  11.455   1.631  0.3719 -0.5869  0.3175
  859MOL0     H18502   5.968  11.296   1.562  3.2090  2.8551 -3.2663
  859MOL0     H18503   5.889  11.360   1.709  1.3510  0.3173  0.6249
  859MOL0     H18504   6.255  11.458   1.173 -2.7941 -2.3914  1.9238
  859MOL0     H18505   6.475  11.551   1.159  2.0711 -2.6512  1.0728
  859MOL0     H18506   6.708  11.626   1.266  1.2285  1.0843  0.0597
  859MOL0     H18507   6.640  11.703   1.113  2.7655  2.5585 -1.0654
  859MOL0     H18508   6.757  11.907   1.148 -0.1418  2.7148  1.4960
  859MOL0     H18509   6.801  11.857   1.317 -2.5170 -1.2776  0.9347
  859MOL0     H18510   6.890  11.698   1.080  1.6880  0.3265 -0.6289
  859MOL0     H18511   6.925  11.676   1.252 -0.5815  1.0432  1.3608
  859MOL0     H18512   7.066  11.867   1.258  1.3616  0.9264 -1.6260
  859MOL0     H18513   7.018  11.930   1.105  1.5362  2.2786  0.9144
  859MOL0     H18514   7.165  11.660   1.130 -3.0559 -1.0063 -0.1727
  859MOL0     H18515   7.103  11.733   0.981 -0.5690  1.5113  0.5478
  859MOL0     H18516   7.331  11.844   1.152  0.2379 -1.8991 -0.1000
  859MOL0     H18517   7.260  11.945   1.024 -0.7634 -0.9723 -0.9859
  859MOL0     H18518   7.325  11.789   0.845  0.2317 -2.1008 -0.1224
  859MOL0     H18519   7.370  11.675   0.974 -0.6670 -0.8719  0.3733
  859MOL0     H18520   7.581  11.773   0.891 -0.6760  0.2840 -0.4835
  859MOL0     H18521   7.548  11.819   1.063 -1.2026  0.6314  0.0999
  859MOL0     H18522   6.396  11.792   1.514  1.2262  0.5213 -0.7196
  859MOL0     H18523   6.214  11.647   1.562  2.5821 -0.2326  0.9597
  859MOL0     H18524   5.750  11.584   1.220  1.9313  0.5013  1.6871
  859MOL0     H18525   5.539  11.622   1.327  1.0205  2.6044  1.0480
  859MOL0     H18526   3.653  11.457   1.769 -0.9852 -0.5059 -0.5113
  859MOL0     H18527   3.585  11.335   1.952  0.1865  0.9034 -1.3000
  859MOL0     H18528   3.615  10.929   2.180  0.0862  0.6908 -1.2732
  859MOL0     H18529   3.443  10.814   2.316  0.2755 -0.3153  0.4352
  859MOL0     H18530   3.149  10.811   2.572  2.3475  1.9717  2.5774
  859MOL0     H18531   3.223  10.782   2.410 -0.1931  1.6266 -1.3924
  859MOL0     H18532   3.420  10.739   2.612 -0.5904  2.1662  1.5749
  859MOL0     H18533   3.308  10.607   2.545 -2.1150 -0.1801  0.8168
  859MOL0     H18534   3.295  10.757   2.798  1.8268  2.5940 -3.5870
  859MOL0     H18535   3.146  10.675   2.740 -0.0730 -2.1350  1.2848
  859MOL0     H18536   3.303  10.560   2.913  5.8940  1.9993  0.2954
  859MOL0     H18537   3.407  10.540   2.776 -0.3241 -0.8544  1.4202
  859MOL0     H18538   3.076  10.287   2.710 -0.3938  0.4810 -0.7549
  859MOL0     H18539   3.368  11.170   2.531 -0.8287  0.3388 -1.2511
  859MOL0     H18540   3.444  11.364   2.473  0.6121 -1.1310  0.8119
  859MOL0     H18541   3.611  11.369   2.434 -0.7744  1.7938  2.5151
  859MOL0     H18542   3.490  11.385   2.301  0.1900 -0.7963  0.8247
  860MOL0     O18543  11.031   9.010   2.229 -0.1607 -0.0762 -0.8355
  860MOL0     C18544  10.934   9.064   2.184 -0.1041 -0.3701  0.3384
  860MOL0     O18545  10.911   9.202   2.171  0.2547  0.4626  0.0277
  860MOL0     C18546  10.993   9.279   2.257 -0.0434 -0.2798  0.2330
  860MOL0     C18547  10.989   9.266   2.390  0.1585  0.0607  0.5922
  860MOL0     C18548  11.061   9.351   2.473 -0.5847 -0.2515  0.5676
  860MOL0     C18549  11.155   9.444   2.412 -0.0354 -1.0315 -0.5392
  860MOL0     O18550  11.254   9.536   2.471 -0.2382 -0.5582  0.2794
  860MOL0     C18551  11.233   9.553   2.611 -0.2410  0.6663  0.3209
  860MOL0     C18552  11.113   9.640   2.638  0.6606 -0.2930 -0.1282
  860MOL0     C18553  11.117   9.770   2.562  0.5591  0.1521 -0.3280
  860MOL0     C18554  11.032   9.881   2.643  0.5133  0.3576 -0.5841
  860MOL0     C18555  11.025  10.011   2.561 -0.7208 -0.4720  0.1704
  860MOL0     C18556  10.906  10.012   2.464 -0.2300 -0.6517 -0.4575
  860MOL0     C18557  10.916  10.130   2.360  0.0919 -0.2546  0.0803
  860MOL0     C18558  10.778  10.122   2.278 -0.4048 -0.0970  0.4127
  860MOL0     N18559  10.766  10.243   2.192  0.2131 -0.1890  1.1895
  860MOL0     C18560  10.861  10.280   2.097  0.0093 -0.0419 -0.2090
  860MOL0     C18561  10.819  10.398   2.052  1.0093 -0.3964 -0.5424
  860MOL0     C18562  10.888  10.476   1.943 -0.4202 -0.5465  0.3101
  860MOL0     C18563  10.833  10.613   1.917 -0.0526  0.1062 -0.0337
  860MOL0     C18564  10.892  10.679   1.786  0.1032  0.2311 -0.4200
  860MOL0     C18565  10.823  10.810   1.769  0.3894 -0.5022  0.1080
  860MOL0     O18566  10.815  10.846   1.630  0.3705 -0.2839 -0.3849
  860MOL0     C18567  10.922  10.927   1.601  0.5301 -0.1944  0.4428
  860MOL0     C18568  10.899  11.064   1.611  0.5885 -0.1519 -0.1024
  860MOL0     C18569  10.992  11.159   1.571  0.5045  0.9212  0.0191
  860MOL0     C18570  10.962  11.303   1.589 -0.4639 -0.1434  0.8490
  860MOL0     C18571  11.110  11.107   1.514  0.0115 -0.4719 -0.0428
  860MOL0     C18572  11.220  11.199   1.461 -0.2325 -0.4354 -0.8503
  860MOL0     O18573  11.330  11.131   1.397  0.7184  0.4863 -0.4833
  860MOL0     C18574  11.433  11.210   1.331  0.3716  0.6076 -0.0901
  860MOL0     C18575  11.405  11.294   1.227 -0.0057 -0.0135  0.3832
  860MOL0     C18576  11.504  11.373   1.166 -0.0748  0.0861  0.1385
  860MOL0     C18577  11.634  11.361   1.205 -0.1307  0.5014 -0.2207
  860MOL0     O18578  11.724  11.439   1.135  0.2680 -0.2781  0.0228
  860MOL0     C18579  11.869  11.419   1.156  1.0156 -0.3924 -0.7965
  860MOL0     C18580  11.951  11.518   1.077  0.1288 -0.3116  0.2627
  860MOL0     C18581  11.948  11.500   0.926  1.1553  0.6554  0.6885
  860MOL0     C18582  12.019  11.618   0.862  0.2328  0.0856  0.6635
  860MOL0     C18583  12.032  11.587   0.701  0.3735 -0.2097 -0.9461
  860MOL0     C18584  12.149  11.501   0.665 -0.9930  0.3562 -0.0874
  860MOL0     C18585  12.148  11.454   0.519 -0.0771  0.6334 -0.3216
  860MOL0     C18586  12.273  11.401   0.456 -0.5222 -0.4644  0.2715
  860MOL0    Cl18587  12.326  11.237   0.508  0.3998  0.0681 -0.3630
  860MOL0     C18588  11.661  11.269   1.308 -0.2911  0.1927 -0.6311
  860MOL0     C18589  11.564  11.207   1.381  0.6569  0.3402  0.1286
  860MOL0     O18590  11.202  11.321   1.449 -0.0375 -0.8357  0.2474
  860MOL0     C18591  11.136  10.966   1.506 -0.9374 -0.7112  0.3020
  860MOL0     C18592  11.037  10.880   1.537  0.8107  0.3542  0.1402
  860MOL0     N18593  10.703  10.436   2.122 -0.0278 -0.3414 -0.1161
  860MOL0     N18594  10.678  10.345   2.209  0.1223  0.4043 -1.0622
  860MOL0     C18595  11.155   9.454   2.274  0.1873 -0.2087 -0.9000
  860MOL0     C18596  11.072   9.372   2.203 -0.4462 -0.5111 -0.1317
  860MOL0     C18597  10.830   8.974   2.112  0.1655  0.8117 -0.3947
  860MOL0     C18598  10.754   9.036   2.013 -0.5348 -0.2999 -0.0324
  860MOL0     C18599  10.658   8.962   1.943 -0.3055  0.4775 -0.0670
  860MOL0     C18600  10.646   8.821   1.965 -0.3273  0.0438  0.4868
  860MOL0     O18601  10.573   8.736   1.886  0.5089 -0.4316 -0.6653
  860MOL0     C18602  10.468   8.790   1.796 -0.3763  0.5491 -0.7609
  860MOL0     C18603  10.378   8.667   1.745  0.0743  0.1270 -0.2221
  860MOL0     C18604  10.466   8.557   1.661  0.6056  0.1644  0.5430
  860MOL0     C18605  10.376   8.432   1.630 -0.1261  0.7789 -0.1379
  860MOL0     C18606  10.373   8.356   1.751 -0.1600  0.8438 -0.4336
  860MOL0     C18607  10.371   8.304   1.862 -0.1937  0.6363 -0.1814
  860MOL0     C18608  10.719   8.760   2.064 -0.7983  0.8200  0.2803
  860MOL0     C18609  10.807   8.835   2.142  1.0064  0.5720  0.4654
  860MOL0     C18610  10.875   8.763   2.256 -0.2003  0.1739  0.0756
  860MOL0     H18611  10.920   9.193   2.432 -0.5706  0.1020 -0.4989
  860MOL0     H18612  11.065   9.342   2.581  2.0161 -0.2940  0.5367
  860MOL0     H18613  11.326   9.597   2.649  0.7029  1.4040 -2.5679
  860MOL0     H18614  11.231   9.453   2.655 -1.4125  0.5202 -0.0341
  860MOL0     H18615  11.019   9.591   2.611  0.4650  0.5875 -1.1022
  860MOL0     H18616  11.096   9.663   2.744  2.3255  0.9237 -0.0645
  860MOL0     H18617  11.223   9.793   2.553  0.3083  1.0122 -1.2250
  860MOL0     H18618  11.065   9.763   2.465  0.3556  3.0564 -0.5220
  860MOL0     H18619  10.933   9.846   2.673 -1.3680  3.3796 -2.6980
  860MOL0     H18620  11.082   9.914   2.735 -0.8496 -1.2729  0.7978
  860MOL0     H18621  11.115  10.004   2.500 -1.2357 -0.9813 -0.5514
  860MOL0     H18622  11.028  10.105   2.616  0.3185 -0.2764 -0.2057
  860MOL0     H18623  10.914   9.915   2.412  0.7700  0.0853 -1.7310
  860MOL0     H18624  10.827  10.028   2.538  2.0579  1.8613  1.6096
  860MOL0     H18625  11.005  10.116   2.298  0.2696 -0.7230  0.4355
  860MOL0     H18626  10.922  10.229   2.406  2.1294 -0.7043  0.8593
  860MOL0     H18627  10.782  10.032   2.217  3.4926  0.0743  0.1459
  860MOL0     H18628  10.695  10.109   2.348 -1.7970  0.6347 -1.0405
  860MOL0     H18629  10.948  10.223   2.067  1.2830  2.6920 -2.1733
  860MOL0     H18630  10.875  10.416   1.852  1.0459  0.6043 -0.7164
  860MOL0     H18631  10.995  10.493   1.962 -0.0575 -1.4380 -0.8245
  860MOL0     H18632  10.724  10.609   1.909 -0.1746  1.6603  0.4928
  860MOL0     H18633  10.861  10.658   2.012  2.0093 -2.4800  0.6881
  860MOL0     H18634  10.998  10.702   1.798 -0.1619  1.7464 -0.7045
  860MOL0     H18635  10.871  10.614   1.701  2.6597 -0.0036 -0.9407
  860MOL0     H18636  10.721  10.805   1.807  0.6109 -1.1987  0.6439
  860MOL0     H18637  10.877  10.889   1.822 -1.7539  1.3806 -0.4034
  860MOL0     H18638  10.809  11.091   1.665 -0.4878 -6.4768  2.1062
  860MOL0     H18639  10.868  11.316   1.644 -1.8313 -1.9667 -0.8784
  860MOL0     H18640  10.967  11.357   1.494  1.2312  1.9689  2.0526
  860MOL0     H18641  11.037  11.350   1.653 -1.1650  1.4468  0.5482
  860MOL0     H18642  11.304  11.316   1.193  1.3307  0.0147 -4.3029
  860MOL0     H18643  11.462  11.443   1.094  0.2863  1.9876  1.7069
  860MOL0     H18644  11.879  11.425   1.265 -2.4003  1.2055 -0.4087
  860MOL0     H18645  11.899  11.321   1.119 -2.4996 -2.3420  1.0118
  860MOL0     H18646  11.907  11.616   1.098 -0.5015 -1.1283  3.2478
  860MOL0     H18647  12.055  11.516   1.111  0.2947  2.2233  0.1278
  860MOL0     H18648  11.845  11.491   0.890  1.8698  3.0454 -2.4402
  860MOL0     H18649  12.000  11.409   0.894 -1.6376 -1.3530  1.4983
  860MOL0     H18650  12.120  11.636   0.902  0.4228 -1.5719  0.9865
  860MOL0     H18651  11.973  11.716   0.878  0.3307  0.0553  1.1281
  860MOL0     H18652  11.944  11.534   0.662  0.0175 -1.7942  1.7666
  860MOL0     H18653  12.044  11.682   0.649 -0.0440 -0.7246 -2.0135
  860MOL0     H18654  12.163  11.426   0.743  2.4708  0.7628 -0.1680
  860MOL0     H18655  12.233  11.571   0.668 -0.7383  0.4220  6.5719
  860MOL0     H18656  12.114  11.538   0.458 -0.5116  0.3156 -0.5263
  860MOL0     H18657  12.077  11.371   0.517 -0.9555  1.3143  1.1332
  860MOL0     H18658  12.357  11.467   0.481 -1.0081  0.2875 -0.0293
  860MOL0     H18659  12.275  11.413   0.347 -0.9996 -1.6406  0.1202
  860MOL0     H18660  11.761  11.262   1.349 -0.1508 -1.5154 -1.2008
  860MOL0     H18661  11.586  11.149   1.470  0.2770 -0.1986 -0.1248
  860MOL0     H18662  11.230  10.928   1.468 -1.3013 -0.4740 -0.9024
  860MOL0     H18663  11.054  10.774   1.526 -3.4159 -0.7160  2.1674
  860MOL0     H18664  11.217   9.528   2.224 -3.0031  1.7512 -2.2659
  860MOL0     H18665  11.084   9.390   2.096 -2.3450 -1.6745 -0.5897
  860MOL0     H18666  10.777   9.139   1.989 -1.3868  0.2041  1.2003
  860MOL0     H18667  10.605   9.006   1.859 -0.7114 -2.6416 -1.5809
  860MOL0     H18668  10.410   8.850   1.866  1.4764  0.7336  0.6985
  860MOL0     H18669  10.491   8.853   1.709 -1.8398 -1.9616 -3.1373
  860MOL0     H18670  10.289   8.710   1.698  0.3392  1.0828  0.1462
  860MOL0     H18671  10.337   8.622   1.836  2.5594  0.9558  1.4051
  860MOL0     H18672  10.489   8.605   1.565  0.6043  0.3392  0.6292
  860MOL0     H18673  10.562   8.528   1.705 -1.0057 -2.3628  2.6644
  860MOL0     H18674  10.419   8.375   1.547  1.3779  0.9816  0.4760
  860MOL0     H18675  10.273   8.466   1.621 -1.1628 -1.4578  2.0546
  860MOL0     H18676  10.368   8.242   1.949 -0.5132 -3.2074 -2.6790
  860MOL0     H18677  10.715   8.652   2.067  0.9372  0.3050 -4.9739
  860MOL0     H18678  10.985   8.757   2.251 -0.3545 -2.3205 -3.6079
  860MOL0     H18679  10.855   8.827   2.343 -2.6554 -0.7619  0.2749
  860MOL0     H18680  10.838   8.662   2.277 -1.1056  0.5055  0.0963
  861MOL0     O18681  10.454   6.169   2.067 -0.0683 -0.4983  0.3390
  861MOL0     C18682  10.487   6.210   2.181 -0.6206 -0.4883 -0.2286
  861MOL0     O18683  10.466   6.134   2.293 -0.1509 -0.3507  0.2262
  861MOL0     C18684  10.455   5.994   2.269  0.0371 -0.4234  0.5213
  861MOL0     C18685  10.365   5.930   2.356 -0.1890 -0.2453  0.0855
  861MOL0     C18686  10.357   5.793   2.351  1.2785  0.6991 -0.8536
  861MOL0     C18687  10.454   5.718   2.271 -0.0411  0.2861  0.4213
  861MOL0     O18688  10.452   5.585   2.275  0.6486 -0.4424  0.2821
  861MOL0     C18689  10.532   5.511   2.184  0.1827 -0.2246  0.0652
  861MOL0     C18690  10.515   5.354   2.180 -0.2529 -0.9278  0.0248
  861MOL0     C18691  10.377   5.310   2.127 -0.0216  1.3225 -0.1072
  861MOL0     C18692  10.331   5.186   2.219 -0.3663  0.2993  0.1256
  861MOL0     C18693  10.182   5.153   2.207 -0.6087  0.1289 -0.0691
  861MOL0     C18694  10.145   5.132   2.059 -1.0331  0.1200 -0.4691
  861MOL0     C18695   9.999   5.083   2.033  0.9923  0.0014  0.2694
  861MOL0     C18696   9.972   4.945   2.096 -0.3771  0.0277 -0.2685
  861MOL0     N18697  10.072   4.852   2.047 -0.4551  0.7075 -0.7004
  861MOL0     C18698  10.166   4.793   2.124 -0.8269  0.0384  0.8245
  861MOL0     C18699  10.230   4.702   2.045  0.4326 -0.2191 -0.1265
  861MOL0     C18700  10.357   4.635   2.077 -0.2429  0.1492  0.0254
  861MOL0     C18701  10.465   4.727   2.132  0.0576  1.0474 -0.5078
  861MOL0     C18702  10.523   4.834   2.049  0.0175  0.0803  1.2737
  861MOL0     C18703  10.651   4.894   2.099 -0.5795  0.1439 -0.2398
  861MOL0     O18704  10.750   4.786   2.112 -1.0079  0.4690  0.1101
  861MOL0     C18705  10.883   4.816   2.131  0.6328  0.0333 -0.2923
  861MOL0     C18706  10.932   4.946   2.165  0.0979 -0.2528 -0.3618
  861MOL0     C18707  11.079   4.964   2.178  1.2448  0.0825  0.3524
  861MOL0     C18708  11.120   5.107   2.217 -0.7031  0.1454 -0.2092
  861MOL0     C18709  11.164   4.858   2.175  0.1902  0.8322 -0.2011
  861MOL0     C18710  11.312   4.870   2.214 -0.0477 -0.0667  0.0692
  861MOL0     O18711  11.392   4.764   2.175  1.1886  0.1309  0.3249
  861MOL0     C18712  11.526   4.772   2.199 -0.3227  0.6316 -0.1720
  861MOL0     C18713  11.607   4.867   2.134 -0.7254 -0.2159  0.0090
  861MOL0     C18714  11.741   4.878   2.168 -1.0432 -0.0046  0.3607
  861MOL0     C18715  11.803   4.802   2.266  0.7890  0.8750 -0.2606
  861MOL0     O18716  11.930   4.805   2.302 -0.2697  0.0581 -0.2212
  861MOL0     C18717  11.991   4.929   2.355 -0.7484  0.6374  0.2038
  861MOL0     C18718  11.939   4.956   2.497 -0.7929  0.6740 -0.5607
  861MOL0     C18719  11.789   4.981   2.513 -0.3816  0.1233 -0.2227
  861MOL0     C18720  11.746   5.018   2.651  0.6592 -0.1497  0.2522
  861MOL0     C18721  11.596   5.031   2.680  0.3066 -0.8879  0.2874
  861MOL0     C18722  11.509   4.913   2.635 -0.0223  0.2115  0.3684
  861MOL0     C18723  11.373   4.910   2.689  0.5691  0.0725 -0.1442
  861MOL0     C18724  11.272   4.834   2.589  0.0876 -1.1348  0.1989
  861MOL0    Cl18725  11.341   4.658   2.589 -0.2384 -0.1191 -0.1407
  861MOL0     C18726  11.720   4.706   2.335  0.5727 -1.0351 -0.3110
  861MOL0     C18727  11.585   4.693   2.299 -0.1593 -1.0935  0.5724
  861MOL0     O18728  11.353   4.961   2.288 -0.2535 -0.4708  0.3346
  861MOL0     C18729  11.112   4.727   2.152  0.8429  0.5334 -0.5637
  861MOL0     C18730  10.976   4.707   2.122  0.2966 -0.0041  0.4061
  861MOL0     N18731  10.161   4.693   1.925 -0.0351 -0.6976  0.8615
  861MOL0     N18732  10.067   4.787   1.927  0.4119  0.2743 -1.0022
  861MOL0     C18733  10.551   5.787   2.195  0.4133  0.4315  0.4028
  861MOL0     C18734  10.549   5.920   2.195  0.0025 -0.6338 -0.1452
  861MOL0     C18735  10.523   6.357   2.192  1.1156  0.0353 -0.7375
  861MOL0     C18736  10.644   6.386   2.270 -0.3628  0.7171 -0.5115
  861MOL0     C18737  10.671   6.519   2.301 -0.7091  0.1331 -0.8790
  861MOL0     C18738  10.594   6.620   2.254  0.0347  0.0552  0.4295
  861MOL0     O18739  10.633   6.740   2.309 -0.7418 -0.5691  0.1293
  861MOL0     C18740  10.566   6.860   2.281 -0.0614  0.2944 -0.5639
  861MOL0     C18741  10.428   6.874   2.344 -0.1578 -0.2849 -0.0606
  861MOL0     C18742  10.457   6.886   2.500 -0.8445 -0.2507 -0.1722
  861MOL0     C18743  10.342   6.948   2.578 -0.0655 -0.0768 -1.0966
  861MOL0     C18744  10.228   6.852   2.583 -0.1574 -0.2692  0.5656
  861MOL0     C18745  10.138   6.778   2.587  0.3031  0.6438  0.1400
  861MOL0     C18746  10.485   6.600   2.172 -0.6614  0.0761  0.2377
  861MOL0     C18747  10.445   6.465   2.141  0.2787 -0.8446 -0.4473
  861MOL0     C18748  10.325   6.444   2.051 -0.2236 -0.6803  0.0913
  861MOL0     H18749  10.302   5.995   2.415  1.8590  2.5423 -0.6096
  861MOL0     H18750  10.293   5.724   2.405  2.0032 -1.2326 -2.3117
  861MOL0     H18751  10.637   5.530   2.206 -0.4786  0.2190  3.4002
  861MOL0     H18752  10.517   5.543   2.081  0.0973 -2.7188 -0.7641
  861MOL0     H18753  10.588   5.321   2.105  0.3023 -0.8520  0.5227
  861MOL0     H18754  10.556   5.314   2.274  0.0195  1.4183  0.9705
  861MOL0     H18755  10.310   5.396   2.121  0.1947  1.3872 -2.0855
  861MOL0     H18756  10.406   5.270   2.029  1.9862 -0.3026  1.0581
  861MOL0     H18757  10.397   5.102   2.193 -0.8045  0.2645 -0.9585
  861MOL0     H18758  10.350   5.219   2.321 -4.6797  0.8441  0.9278
  861MOL0     H18759  10.132   5.237   2.258  0.4882 -0.8998  2.9549
  861MOL0     H18760  10.164   5.062   2.265 -0.2442  0.9766  1.4592
  861MOL0     H18761  10.168   5.227   2.010 -1.2997  0.1493 -0.5352
  861MOL0     H18762  10.209   5.057   2.012 -0.2385 -0.2169  1.0540
  861MOL0     H18763   9.992   5.072   1.925 -1.4170  0.4610  0.3216
  861MOL0     H18764   9.945   5.173   2.066  2.7637  0.4645  2.1562
  861MOL0     H18765   9.971   4.948   2.205 -0.5199 -1.8532 -0.1889
  861MOL0     H18766   9.875   4.904   2.064 -0.4305  1.2543 -1.8329
  861MOL0     H18767  10.192   4.805   2.228  0.5221 -1.3391  0.6810
  861MOL0     H18768  10.399   4.580   1.992  1.3356  1.1728  0.1023
  861MOL0     H18769  10.319   4.568   2.155 -0.8512  1.6976  1.0859
  861MOL0     H18770  10.431   4.763   2.229 -0.7886 -2.6057  0.7008
  861MOL0     H18771  10.543   4.652   2.148 -0.3347  0.8993  0.7658
  861MOL0     H18772  10.538   4.781   1.954 -0.3650 -2.2046  2.4169
  861MOL0     H18773  10.445   4.910   2.041 -0.2303 -0.3140 -0.5281
  861MOL0     H18774  10.671   4.966   2.020 -3.9281 -0.3998 -1.7514
  861MOL0     H18775  10.631   4.936   2.198  3.1232 -0.2133  0.8160
  861MOL0     H18776  10.863   5.027   2.183  0.2035 -0.4628  1.2210
  861MOL0     H18777  11.128   5.114   2.326 -0.8479  4.5750 -0.3179
  861MOL0     H18778  11.041   5.175   2.181 -0.3455  0.4634 -0.3985
  861MOL0     H18779  11.209   5.139   2.164  0.5483  1.8549  2.7020
  861MOL0     H18780  11.567   4.929   2.055 -1.6071 -2.6574 -1.6048
  861MOL0     H18781  11.804   4.940   2.106  0.2142 -2.0668 -0.5077
  861MOL0     H18782  12.099   4.920   2.371 -0.7842  0.3997  0.3194
  861MOL0     H18783  11.964   5.015   2.294  0.0209 -1.1586 -2.8654
  861MOL0     H18784  11.979   4.881   2.565  2.2433  0.3630 -2.4888
  861MOL0     H18785  11.976   5.052   2.533 -1.2602  0.5192  0.3729
  861MOL0     H18786  11.738   4.888   2.488 -0.1234  0.4866 -2.3149
  861MOL0     H18787  11.760   5.056   2.438 -1.8338  0.3503  0.5509
  861MOL0     H18788  11.789   5.117   2.670 -1.4125  0.6187  1.2040
  861MOL0     H18789  11.793   4.961   2.731 -0.3735  2.0365  2.5412
  861MOL0     H18790  11.606   5.043   2.788  1.4247  0.2723  0.0840
  861MOL0     H18791  11.548   5.122   2.641  0.5096 -1.1086 -0.4979
  861MOL0     H18792  11.553   4.822   2.677 -2.3466 -0.6966  1.0008
  861MOL0     H18793  11.508   4.908   2.526 -1.3805  1.1409  0.3131
  861MOL0     H18794  11.343   5.011   2.721  1.5867 -0.2002  1.8304
  861MOL0     H18795  11.379   4.859   2.786  2.1514 -0.1407 -0.3279
  861MOL0     H18796  11.258   4.874   2.488 -2.6406  1.0774  1.3155
  861MOL0     H18797  11.172   4.841   2.634 -1.1084  0.9644 -2.4810
  861MOL0     H18798  11.747   4.635   2.413 -0.5048 -1.0141  0.0957
  861MOL0     H18799  11.522   4.620   2.350 -1.1174 -0.3844  0.4319
  861MOL0     H18800  11.188   4.650   2.145  0.1740 -0.0057 -4.8308
  861MOL0     H18801  10.925   4.612   2.116  1.8472 -1.1992  3.6377
  861MOL0     H18802  10.625   5.743   2.128 -0.4577  0.1656 -0.4000
  861MOL0     H18803  10.616   5.968   2.124  0.4695 -4.2715 -2.4315
  861MOL0     H18804  10.700   6.304   2.314 -0.3915 -0.1445 -2.0298
  861MOL0     H18805  10.757   6.550   2.360 -3.1147  0.7481  2.6137
  861MOL0     H18806  10.633   6.939   2.318 -1.7760  2.1329 -1.2289
  861MOL0     H18807  10.564   6.863   2.172 -3.7076 -0.1166 -0.6110
  861MOL0     H18808  10.369   6.784   2.325  0.7292 -0.9795  0.3704
  861MOL0     H18809  10.360   6.954   2.314 -1.9305 -0.7464  2.3862
  861MOL0     H18810  10.492   6.793   2.546 -1.0702 -0.5896 -0.6741
  861MOL0     H18811  10.542   6.955   2.510  1.8509 -3.2620 -0.7076
  861MOL0     H18812  10.306   7.042   2.535 -0.6603  1.2999  2.0852
  861MOL0     H18813  10.369   6.961   2.684 -3.7089 -0.6832  0.0565
  861MOL0     H18814  10.061   6.704   2.594  1.8304 -1.1764 -1.4313
  861MOL0     H18815  10.417   6.679   2.143  1.3152  0.7776 -3.0406
  861MOL0     H18816  10.258   6.373   2.099  0.3944  0.4483  2.7964
  861MOL0     H18817  10.255   6.528   2.047  0.0550 -0.4478 -3.4400
  861MOL0     H18818  10.346   6.417   1.947  0.4366 -1.8150  0.4996
  862MOL0     O18819  10.600   2.219   4.003  0.1544 -0.4282  0.0024
  862MOL0     C18820  10.601   2.338   4.033  0.0639 -0.2964 -0.3817
  862MOL0     O18821  10.694   2.399   4.113  0.2648  0.0421 -0.2935
  862MOL0     C18822  10.779   2.315   4.175  0.1997  0.0802 -0.7982
  862MOL0     C18823  10.749   2.194   4.243  0.3684 -0.2386  0.4137
  862MOL0     C18824  10.848   2.120   4.299 -0.1074  0.1720 -0.0408
  862MOL0     C18825  10.983   2.170   4.311  0.2994  0.2796 -0.1058
  862MOL0     O18826  11.072   2.098   4.392  0.7095 -0.8490 -0.1035
  862MOL0     C18827  11.011   2.026   4.508  0.1229  0.2960  0.3183
  862MOL0     C18828  11.133   1.965   4.583 -1.2937 -0.6244 -0.5894
  862MOL0     C18829  11.155   1.818   4.523  0.0789 -0.9113  0.0254
  862MOL0     C18830  11.242   1.740   4.617 -0.3049  0.6000  0.0218
  862MOL0     C18831  11.394   1.762   4.590 -0.6139  0.1738 -0.0265
  862MOL0     C18832  11.485   1.681   4.682  0.1688  0.1387  0.2444
  862MOL0     C18833  11.474   1.528   4.659  0.4191  0.1000  0.9376
  862MOL0     C18834  11.572   1.447   4.746 -0.7377  0.1383  0.6457
  862MOL0     N18835  11.576   1.305   4.718 -0.7638 -0.3589 -0.1428
  862MOL0     C18836  11.569   1.204   4.808 -0.4158 -1.1210 -0.1111
  862MOL0     C18837  11.596   1.091   4.737  0.4203 -1.2282 -0.4753
  862MOL0     C18838  11.587   0.954   4.812  0.2242  0.7219  0.4966
  862MOL0     C18839  11.672   0.847   4.743 -0.9123  0.2181 -0.0767
  862MOL0     C18840  11.701   0.727   4.834  0.8876 -0.6680  0.1875
  862MOL0     C18841  11.614   0.610   4.798  0.1130 -0.7337  0.7393
  862MOL0     O18842  11.663   0.566   4.667 -0.4595 -0.0121  0.0082
  862MOL0     C18843  11.638   0.439   4.626  1.0890  0.6992 -0.3614
  862MOL0     C18844  11.722   0.373   4.544 -0.2206  0.5565  0.2136
  862MOL0     C18845  11.693   0.242   4.502  0.2053  0.2061 -0.6003
  862MOL0     C18846  11.798   0.187   4.400 -0.9309 -0.2729  0.0281
  862MOL0     C18847  11.579   0.162   4.536 -0.1647  0.0387 -1.3101
  862MOL0     C18848  11.539   0.026   4.500 -0.1109 -1.0875  0.1299
  862MOL0     O18849  11.472  -0.039   4.596 -0.6580 -0.4323  0.4208
  862MOL0     C18850  11.481  -0.168   4.607  0.9318  1.0261  0.2436
  862MOL0     C18851  11.368  -0.248   4.648 -0.4338 -0.9439  0.9533
  862MOL0     C18852  11.359  -0.383   4.669 -0.6609  0.2422 -0.6222
  862MOL0     C18853  11.471  -0.457   4.633  1.1774 -0.0081  0.0693
  862MOL0     O18854  11.456  -0.594   4.624  0.9936 -0.7047 -0.5633
  862MOL0     C18855  11.578  -0.658   4.628 -0.2912  0.2773  0.3432
  862MOL0     C18856  11.535  -0.805   4.618 -0.2462  0.1021 -0.3412
  862MOL0     C18857  11.449  -0.844   4.493  0.2871  0.1568  0.5127
  862MOL0     C18858  11.343  -0.955   4.525  0.8940 -0.1927  0.6155
  862MOL0     C18859  11.254  -0.995   4.399  0.0200 -0.7388 -0.0078
  862MOL0     C18860  11.209  -1.140   4.410 -0.7012  0.1684 -0.1400
  862MOL0     C18861  11.102  -1.161   4.521 -0.3793  0.6148 -0.9133
  862MOL0     C18862  11.039  -1.306   4.529 -0.0991 -0.1986 -0.3627
  862MOL0    Cl18863  11.180  -1.418   4.542  0.4893  0.1078  0.1647
  862MOL0     C18864  11.591  -0.386   4.598  0.5005  0.1405  2.0257
  862MOL0     C18865  11.597  -0.240   4.592  0.7504  0.1259 -0.4402
  862MOL0     O18866  11.571  -0.017   4.388 -0.4000  0.3476  0.3012
  862MOL0     C18867  11.485   0.231   4.625 -0.5851  0.4970  0.3972
  862MOL0     C18868  11.520   0.366   4.665  1.4902  0.8082 -1.0758
  862MOL0     N18869  11.628   1.128   4.604  0.3230  0.7542  0.5677
  862MOL0     N18870  11.617   1.257   4.594  0.1089  0.0377  0.2333
  862MOL0     C18871  11.015   2.292   4.250 -0.6555 -0.6015 -0.6312
  862MOL0     C18872  10.912   2.360   4.176  0.2103  0.1978  0.1446
  862MOL0     C18873  10.490   2.427   3.990  0.0542  0.4179 -0.1318
  862MOL0     C18874  10.531   2.554   3.926 -0.1955 -0.5302 -0.0360
  862MOL0     C18875  10.431   2.637   3.872 -1.4749  0.9120  0.7832
  862MOL0     C18876  10.299   2.609   3.882 -0.0945  0.9368  0.7683
  862MOL0     O18877  10.222   2.714   3.839 -0.3314  0.2294  0.2241
  862MOL0     C18878  10.083   2.708   3.865  0.7664 -0.0935 -0.5631
  862MOL0     C18879  10.021   2.834   3.815 -0.1430 -0.6766  0.0075
  862MOL0     C18880   9.868   2.818   3.790 -0.2173  0.3688  0.5146
  862MOL0     C18881   9.783   2.837   3.918  0.3786  0.5344 -0.3157
  862MOL0     C18882   9.784   2.715   3.997  0.3555 -0.3055 -0.1899
  862MOL0     C18883   9.789   2.616   4.064 -0.3220  0.0847 -0.1370
  862MOL0     C18884  10.259   2.488   3.946 -0.1319 -0.0062  0.1254
  862MOL0     C18885  10.354   2.393   3.991  0.0949  0.0783 -0.2116
  862MOL0     C18886  10.309   2.264   4.064  0.6881  0.2069  0.9576
  862MOL0     H18887  10.644   2.168   4.256  0.2633  0.0173  0.0831
  862MOL0     H18888  10.815   2.044   4.370  1.2719 -0.3775  0.0508
  862MOL0     H18889  10.948   1.949   4.462  0.9050  0.7340 -1.5775
  862MOL0     H18890  10.942   2.087   4.568 -2.1301 -0.5841 -1.2368
  862MOL0     H18891  11.219   2.032   4.584 -0.1105 -2.0756 -0.8899
  862MOL0     H18892  11.107   1.964   4.689  0.2994 -1.6783 -0.1743
  862MOL0     H18893  11.056   1.774   4.509  0.6434 -1.6507 -1.8087
  862MOL0     H18894  11.184   1.814   4.418 -0.7617  0.6225 -0.2945
  862MOL0     H18895  11.224   1.768   4.721 -0.2780 -3.5924  1.3439
  862MOL0     H18896  11.226   1.633   4.596  3.4517  0.3330 -2.2524
  862MOL0     H18897  11.421   1.866   4.611  1.4234 -0.6032  1.4441
  862MOL0     H18898  11.412   1.743   4.483 -4.6518  0.2745 -0.8982
  862MOL0     H18899  11.589   1.710   4.661 -0.6091  1.6502 -1.8928
  862MOL0     H18900  11.466   1.721   4.782 -1.2788 -1.4623  0.6547
  862MOL0     H18901  11.484   1.517   4.550 -1.6305  1.5276  0.5478
  862MOL0     H18902  11.371   1.497   4.680  0.6583 -1.5363 -0.1006
  862MOL0     H18903  11.666   1.501   4.730 -1.3034  0.8116 -0.5594
  862MOL0     H18904  11.545   1.474   4.848  0.6324 -0.1528  1.1059
  862MOL0     H18905  11.539   1.219   4.911 -1.7145  1.3528 -0.7633
  862MOL0     H18906  11.482   0.926   4.804  1.2853 -4.8174  1.8465
  862MOL0     H18907  11.619   0.951   4.917  3.1166 -0.8149 -0.3100
  862MOL0     H18908  11.615   0.823   4.653  1.4203  0.2679 -1.6602
  862MOL0     H18909  11.764   0.888   4.700  0.1919 -1.4950  0.5522
  862MOL0     H18910  11.806   0.698   4.825  1.7854  2.4574 -0.3968
  862MOL0     H18911  11.686   0.756   4.938  1.0839  1.3114 -0.3090
  862MOL0     H18912  11.623   0.530   4.872 -0.4758 -1.2380  0.2820
  862MOL0     H18913  11.508   0.637   4.787  0.1818 -0.6853  0.1485
  862MOL0     H18914  11.820   0.413   4.523  0.0382 -0.5855 -0.9088
  862MOL0     H18915  11.743   0.177   4.306 -1.5932  0.9529  0.2661
  862MOL0     H18916  11.826   0.085   4.430 -1.4054  0.0191  1.4858
  862MOL0     H18917  11.888   0.243   4.373 -0.7414 -1.5590 -2.3207
  862MOL0     H18918  11.279  -0.190   4.666  0.3687  1.7403 -2.6048
  862MOL0     H18919  11.271  -0.440   4.699 -0.6149  1.1677  1.4476
  862MOL0     H18920  11.642  -0.633   4.544  1.2510 -0.6564  1.1972
  862MOL0     H18921  11.635  -0.653   4.721 -1.2485 -2.2772  1.1858
  862MOL0     H18922  11.619  -0.875   4.624 -1.7546 -1.8512 -0.8453
  862MOL0     H18923  11.477  -0.820   4.709 -0.1011 -1.6399 -0.4934
  862MOL0     H18924  11.503  -0.885   4.407 -1.8449  1.8807 -1.7781
  862MOL0     H18925  11.403  -0.760   4.442 -2.5739 -2.5203 -1.7084
  862MOL0     H18926  11.293  -0.920   4.616  0.9763 -0.0723  0.6158
  862MOL0     H18927  11.401  -1.043   4.555 -0.2118 -1.5736 -1.1731
  862MOL0     H18928  11.163  -0.935   4.386  0.4163 -0.1385 -0.0704
  862MOL0     H18929  11.316  -0.980   4.310  1.7418  0.7814  1.3769
  862MOL0     H18930  11.297  -1.203   4.427 -1.0408  0.1743  1.9178
  862MOL0     H18931  11.164  -1.178   4.319  0.2868  1.9452 -1.4436
  862MOL0     H18932  11.018  -1.093   4.507 -2.0685 -1.1114  0.3806
  862MOL0     H18933  11.145  -1.137   4.618 -2.9665 -3.2070  1.4528
  862MOL0     H18934  10.987  -1.338   4.438 -0.4313 -2.5809  0.6177
  862MOL0     H18935  10.968  -1.324   4.609 -0.1671 -0.0527 -0.3897
  862MOL0     H18936  11.683  -0.442   4.580 -0.4338 -0.4200 -2.1207
  862MOL0     H18937  11.688  -0.181   4.600 -0.6308  2.2058  0.4966
  862MOL0     H18938  11.393   0.185   4.660  0.1526 -0.2725  1.4113
  862MOL0     H18939  11.448   0.432   4.713  1.9545  0.6730 -0.1697
  862MOL0     H18940  11.115   2.332   4.262  1.1526 -5.3387  3.0840
  862MOL0     H18941  10.926   2.459   4.132  3.4581  0.8386  2.1946
  862MOL0     H18942  10.634   2.586   3.918  0.2200 -1.9944 -0.9697
  862MOL0     H18943  10.456   2.733   3.829 -0.6870  0.7494  0.8638
  862MOL0     H18944  10.025   2.622   3.829  0.8164 -1.0607  1.4657
  862MOL0     H18945  10.077   2.686   3.973  0.7342 -0.9295 -0.7245
  862MOL0     H18946  10.074   2.868   3.725 -0.8416  3.8555  1.0597
  862MOL0     H18947  10.032   2.924   3.876 -1.3264 -1.2536  1.1037
  862MOL0     H18948   9.841   2.893   3.715  0.2948 -0.3020 -0.3776
  862MOL0     H18949   9.853   2.715   3.755  2.8149 -0.1894  0.5293
  862MOL0     H18950   9.677   2.859   3.899 -0.0354  0.7771  2.0122
  862MOL0     H18951   9.819   2.921   3.977 -0.0763 -0.1290  0.9420
  862MOL0     H18952   9.782   2.529   4.126  1.4430  0.1410  0.1850
  862MOL0     H18953  10.153   2.468   3.957 -1.5275  4.5215 -2.2865
  862MOL0     H18954  10.369   2.177   4.035  0.5336  0.6906 -0.9389
  862MOL0     H18955  10.300   2.267   4.173 -2.8503  1.7307  0.7422
  862MOL0     H18956  10.209   2.236   4.032  2.5799 -5.1235 -1.5031
  863MOL0     O18957   7.802   1.002   3.724  0.9033 -0.4617 -0.3538
  863MOL0     C18958   7.838   1.040   3.837  0.4086  0.2864  0.0107
  863MOL0     O18959   7.923   0.965   3.923  0.8969 -0.3235 -0.2446
  863MOL0     C18960   7.949   0.833   3.903 -0.3111 -0.0365  0.3502
  863MOL0     C18961   7.846   0.747   3.865 -0.4005  0.0051  0.1513
  863MOL0     C18962   7.877   0.618   3.842 -0.2947 -0.2181 -0.0565
  863MOL0     C18963   8.011   0.578   3.866 -0.0648  0.5249 -0.0523
  863MOL0     O18964   8.053   0.453   3.833  0.7331 -0.0655 -0.1515
  863MOL0     C18965   7.964   0.355   3.797 -0.2054  0.7120 -0.1519
  863MOL0     C18966   8.060   0.232   3.794 -0.0604  0.0428  0.3597
  863MOL0     C18967   8.091   0.158   3.920  0.6375  0.2117 -0.6586
  863MOL0     C18968   8.168   0.025   3.894  0.4249 -0.0149 -0.2502
  863MOL0     C18969   8.234  -0.024   4.030 -0.2019  0.4764  0.7015
  863MOL0     C18970   8.139  -0.026   4.154 -0.4488  0.3221 -0.2229
  863MOL0     C18971   8.019  -0.113   4.129 -0.1980  0.8782  0.2485
  863MOL0     C18972   7.911  -0.122   4.247  0.5917 -0.8574  0.5138
  863MOL0     N18973   7.826  -0.007   4.230  0.8020 -0.1584 -0.2417
  863MOL0     C18974   7.850   0.113   4.287 -0.0475 -0.4744 -0.6217
  863MOL0     C18975   7.765   0.204   4.227 -0.0477 -0.3614 -0.7393
  863MOL0     C18976   7.763   0.347   4.265  0.3249 -0.4897 -0.1620
  863MOL0     C18977   7.900   0.407   4.235 -0.5887 -0.3014 -0.4080
  863MOL0     C18978   7.905   0.547   4.280 -0.4133 -0.3286 -0.2835
  863MOL0     C18979   8.048   0.604   4.267  0.7923  0.7531 -0.3250
  863MOL0     O18980   8.061   0.712   4.357 -0.2368 -1.2759 -0.4020
  863MOL0     C18981   8.074   0.839   4.302 -1.0685  0.5241  0.6348
  863MOL0     C18982   8.180   0.887   4.232 -0.4546 -0.2950  0.7477
  863MOL0     C18983   8.203   1.030   4.204  0.0395 -0.3388  0.1398
  863MOL0     C18984   8.322   1.072   4.129  0.4450  0.2307  0.9563
  863MOL0     C18985   8.085   1.112   4.237 -0.2570  0.2475 -0.1793
  863MOL0     C18986   8.103   1.268   4.228  0.1535  0.0415  0.0817
  863MOL0     O18987   8.062   1.335   4.342  0.0319  0.0159  0.3801
  863MOL0     C18988   8.051   1.470   4.348 -0.4142 -0.8237  0.1328
  863MOL0     C18989   8.041   1.534   4.465  0.7631 -0.4197 -0.1223
  863MOL0     C18990   8.017   1.675   4.473 -0.0652 -0.2644 -0.0938
  863MOL0     C18991   8.002   1.752   4.367 -0.5373 -0.7474 -0.4086
  863MOL0     O18992   7.984   1.887   4.372 -0.1389  0.0864  0.5196
  863MOL0     C18993   7.918   1.950   4.259  0.2096 -0.5191 -0.1481
  863MOL0     C18994   7.904   2.093   4.298  0.3989  0.3742  0.1060
  863MOL0     C18995   7.821   2.165   4.196  0.6266 -0.4810  0.2957
  863MOL0     C18996   7.768   2.299   4.255  0.7527 -0.5368  0.3430
  863MOL0     C18997   7.664   2.299   4.365  1.1121 -0.0068 -0.2483
  863MOL0     C18998   7.595   2.442   4.375 -0.1705 -0.4483  0.7421
  863MOL0     C18999   7.472   2.466   4.459 -0.1164  0.8177 -0.0074
  863MOL0     C19000   7.494   2.420   4.599  0.2787 -0.5293  0.2518
  863MOL0    Cl19001   7.365   2.458   4.708 -0.3361 -0.1201 -0.2517
  863MOL0     C19002   8.015   1.691   4.242  0.0466  1.2962  0.0379
  863MOL0     C19003   8.030   1.553   4.234  0.2387 -0.5361 -0.6191
  863MOL0     O19004   8.166   1.313   4.129  0.4988 -0.0376 -0.3890
  863MOL0     C19005   7.973   1.060   4.304  1.1934 -0.6103  0.3089
  863MOL0     C19006   7.979   0.925   4.347  0.3662  0.2464  0.0680
  863MOL0     N19007   7.703   0.145   4.120  0.3872  0.8192 -0.5183
  863MOL0     N19008   7.730   0.015   4.124  0.4459 -0.0020  0.1265
  863MOL0     C19009   8.111   0.662   3.922 -0.2010  0.1059 -0.1669
  863MOL0     C19010   8.080   0.796   3.925  0.2092 -0.3444  0.1952
  863MOL0     C19011   7.784   1.166   3.893  0.0472  0.5117 -0.0496
  863MOL0     C19012   7.783   1.174   4.030 -0.0735  1.1336 -0.4856
  863MOL0     C19013   7.733   1.284   4.095  0.1788 -0.0109 -0.0526
  863MOL0     C19014   7.697   1.402   4.028 -0.0233 -0.2064 -0.6247
  863MOL0     O19015   7.645   1.511   4.090  0.7605  0.3346 -1.3353
  863MOL0     C19016   7.654   1.515   4.235 -0.0930  0.5940 -0.6862
  863MOL0     C19017   7.636   1.648   4.281 -0.6119 -1.1402 -0.3523
  863MOL0     C19018   7.616   1.666   4.436 -0.9837 -0.4288  0.5826
  863MOL0     C19019   7.656   1.808   4.481  1.1029 -0.6883  0.1379
  863MOL0     C19020   7.687   1.827   4.621 -0.3047 -0.3105 -0.0335
  863MOL0     C19021   7.700   1.830   4.741 -0.1583 -0.0466  0.0183
  863MOL0     C19022   7.708   1.397   3.885 -0.0520 -0.5812 -0.1926
  863MOL0     C19023   7.749   1.277   3.822  0.2034  0.3314  0.4466
  863MOL0     C19024   7.773   1.295   3.671 -0.3893  0.4244 -0.1603
  863MOL0     H19025   7.743   0.781   3.858 -0.8362 -0.9951  1.3926
  863MOL0     H19026   7.795   0.553   3.812 -0.8182  0.4986 -0.2040
  863MOL0     H19027   7.924   0.379   3.698  1.8086  0.0441 -1.1720
  863MOL0     H19028   7.884   0.342   3.870  1.6959 -0.0151  1.9001
  863MOL0     H19029   7.999   0.168   3.731 -1.1706  1.0343  0.4057
  863MOL0     H19030   8.158   0.243   3.747  1.6342  0.8051  3.7369
  863MOL0     H19031   8.145   0.226   3.986 -0.9574 -1.3405  2.5220
  863MOL0     H19032   7.993   0.147   3.968 -0.3310 -0.2726 -2.6563
  863MOL0     H19033   8.091  -0.049   3.868 -0.7732  0.9063  0.5672
  863MOL0     H19034   8.241   0.034   3.813  0.3559  1.8022 -0.1436
  863MOL0     H19035   8.324   0.034   4.054  1.2885 -1.9469  1.3633
  863MOL0     H19036   8.271  -0.126   4.014  0.1418  0.6380  0.4419
  863MOL0     H19037   8.192  -0.057   4.244  0.1590 -1.2323 -1.0779
  863MOL0     H19038   8.111   0.076   4.182  0.5915  1.4622 -2.9752
  863MOL0     H19039   8.061  -0.212   4.105  0.4381  0.5927  2.2579
  863MOL0     H19040   7.970  -0.072   4.041  0.1296 -2.7028 -1.7916
  863MOL0     H19041   7.851  -0.213   4.235  1.2157 -1.0736 -1.2621
  863MOL0     H19042   7.957  -0.132   4.345  3.3849  2.3642 -0.3059
  863MOL0     H19043   7.924   0.125   4.365 -1.9601 -3.0237  1.7904
  863MOL0     H19044   7.731   0.362   4.369 -1.5197  2.8899 -1.0617
  863MOL0     H19045   7.692   0.402   4.202  0.3810  1.6976  1.5786
  863MOL0     H19046   7.983   0.353   4.281  1.1339  1.6108 -1.1480
  863MOL0     H19047   7.900   0.393   4.126  0.6079 -2.7900 -0.1591
  863MOL0     H19048   7.851   0.610   4.209  0.4559  2.7285  1.6016
  863MOL0     H19049   7.859   0.567   4.377  1.1607 -0.3727  0.5029
  863MOL0     H19050   8.126   0.528   4.281 -0.8821 -0.5855  2.6739
  863MOL0     H19051   8.052   0.643   4.165 -0.9559  0.6030 -0.4763
  863MOL0     H19052   8.248   0.812   4.193 -2.2284 -0.6615 -1.9499
  863MOL0     H19053   8.382   0.983   4.108 -1.6566 -1.3172  1.1702
  863MOL0     H19054   8.381   1.148   4.181 -1.8059  2.3673  0.5930
  863MOL0     H19055   8.298   1.126   4.036  2.2755  1.8522  1.3583
  863MOL0     H19056   8.079   1.490   4.557  0.9309 -0.8627 -0.3998
  863MOL0     H19057   8.023   1.724   4.570 -1.9229 -1.1371  0.5118
  863MOL0     H19058   7.985   1.957   4.173  0.6894  0.8576  0.3056
  863MOL0     H19059   7.829   1.901   4.218 -0.3460  0.3119  0.0525
  863MOL0     H19060   7.857   2.111   4.395 -2.7780 -0.9652 -1.0597
  863MOL0     H19061   8.008   2.126   4.310  1.0525 -2.1500  2.3232
  863MOL0     H19062   7.736   2.101   4.174  1.6942 -1.7342 -0.3522
  863MOL0     H19063   7.871   2.180   4.100  2.2010 -2.1184  0.7961
  863MOL0     H19064   7.733   2.359   4.170  0.4979  0.7534  1.3307
  863MOL0     H19065   7.856   2.349   4.297  2.5058 -3.2978  0.2908
  863MOL0     H19066   7.584   2.232   4.333  1.8602 -0.9813 -0.1256
  863MOL0     H19067   7.705   2.262   4.459  1.6985  1.9988  0.3228
  863MOL0     H19068   7.555   2.462   4.275 -3.2170 -0.1489  1.9226
  863MOL0     H19069   7.668   2.522   4.391 -1.9811  1.1477  1.3000
  863MOL0     H19070   7.386   2.408   4.423  0.2872 -1.0042  1.7820
  863MOL0     H19071   7.457   2.573   4.445  0.9985  0.8341 -1.3701
  863MOL0     H19072   7.587   2.460   4.640  0.5947 -0.8540 -0.1382
  863MOL0     H19073   7.489   2.311   4.591 -1.0658 -0.5305  0.8128
  863MOL0     H19074   8.020   1.744   4.147  1.1303 -0.0861 -0.7217
  863MOL0     H19075   8.012   1.510   4.136  0.3162 -0.3545 -0.7153
  863MOL0     H19076   7.885   1.118   4.332  0.9052  0.9606 -3.3461
  863MOL0     H19077   7.902   0.880   4.409 -0.4280 -0.9250 -1.6961
  863MOL0     H19078   8.210   0.622   3.943 -0.6287  0.5506  3.1382
  863MOL0     H19079   8.149   0.874   3.957 -0.2597 -0.8928  2.7822
  863MOL0     H19080   7.820   1.093   4.091 -0.8147  0.1368 -1.3223
  863MOL0     H19081   7.717   1.294   4.202 -0.3941  1.6112 -0.2571
  863MOL0     H19082   7.573   1.451   4.271  0.6690 -0.7234 -1.2525
  863MOL0     H19083   7.752   1.482   4.271  0.5312  2.3865 -0.6110
  863MOL0     H19084   7.552   1.694   4.229 -0.7797 -1.8687 -0.7319
  863MOL0     H19085   7.719   1.714   4.252 -2.4779  2.1577  1.2628
  863MOL0     H19086   7.507   1.655   4.446 -0.8976 -0.8486  1.0747
  863MOL0     H19087   7.665   1.591   4.498 -3.0390 -1.6410  0.8598
  863MOL0     H19088   7.573   1.873   4.450  1.7199 -1.3163 -3.2545
  863MOL0     H19089   7.737   1.850   4.421  1.9208 -2.4625 -0.0858
  863MOL0     H19090   7.711   1.825   4.847  1.1620  0.6188 -0.0513
  863MOL0     H19091   7.706   1.488   3.826  0.2289 -0.4914 -0.0660
  863MOL0     H19092   7.772   1.400   3.642  4.1023  0.6319 -0.3064
  863MOL0     H19093   7.877   1.269   3.649 -0.2054  3.0061 -2.9599
  863MOL0     H19094   7.713   1.229   3.607  2.2640 -2.4363  0.0828
  864MOL0     O19095   4.905  10.026   2.723 -0.1350  0.7968  0.0548
  864MOL0     C19096   4.863   9.926   2.666  0.8742 -0.7464 -0.3309
  864MOL0     O19097   4.950   9.841   2.598  0.0784 -0.3064  0.3945
  864MOL0     C19098   5.082   9.864   2.622  0.4740 -0.3758 -0.1888
  864MOL0     C19099   5.126   9.833   2.749 -0.6489  0.7732  0.6487
  864MOL0     C19100   5.261   9.848   2.793 -0.0477  1.2125  0.1632
  864MOL0     C19101   5.356   9.913   2.701  1.0283 -0.1883 -0.6175
  864MOL0     O19102   5.484   9.948   2.728  0.4296  0.7032 -0.0742
  864MOL0     C19103   5.512   9.989   2.865  0.1988 -0.4747  0.5019
  864MOL0     C19104   5.573   9.880   2.948 -0.1437  0.1020  1.1416
  864MOL0     C19105   5.694   9.810   2.883  0.0237  0.6340 -0.6584
  864MOL0     C19106   5.798   9.771   2.995 -0.0180  0.2692 -0.1919
  864MOL0     C19107   5.753   9.664   3.087 -0.8978  0.5041 -0.2908
  864MOL0     C19108   5.826   9.532   3.040 -0.2376 -0.6486 -0.4155
  864MOL0     C19109   5.766   9.450   2.929 -0.2758  0.8591  0.6562
  864MOL0     C19110   5.621   9.385   2.938 -0.0724 -0.7283  0.3877
  864MOL0     N19111   5.562   9.347   2.814 -0.0008 -0.9279  0.0080
  864MOL0     C19112   5.579   9.239   2.738 -1.2880 -0.4039  0.0992
  864MOL0     C19113   5.540   9.275   2.612 -0.3199  0.6464  0.2903
  864MOL0     C19114   5.573   9.186   2.499 -0.1949 -0.0197  0.3005
  864MOL0     C19115   5.484   9.067   2.480  1.9338 -0.6780 -0.0166
  864MOL0     C19116   5.340   9.115   2.425 -0.8244  0.4074  0.4048
  864MOL0     C19117   5.356   9.207   2.299 -0.9526 -0.5628 -0.7640
  864MOL0     O19118   5.416   9.134   2.194 -0.5078  0.2583 -0.3352
  864MOL0     C19119   5.480   9.208   2.092  0.7953 -0.1337 -0.1098
  864MOL0     C19120   5.489   9.141   1.962  0.2299 -0.2844 -0.2448
  864MOL0     C19121   5.539   9.206   1.850  0.1651 -1.1859 -0.0561
  864MOL0     C19122   5.527   9.143   1.716  0.3740  0.2812 -1.3436
  864MOL0     C19123   5.579   9.345   1.860 -0.0938  0.1394  1.1897
  864MOL0     C19124   5.649   9.417   1.747 -1.4435 -0.2861 -0.3005
  864MOL0     O19125   5.619   9.550   1.733  0.4299 -0.0132 -0.5213
  864MOL0     C19126   5.695   9.630   1.653 -0.8215  0.0159  0.6338
  864MOL0     C19127   5.716   9.601   1.514 -0.0959 -0.0938  0.0874
  864MOL0     C19128   5.789   9.683   1.429  0.2102  0.1749  0.4520
  864MOL0     C19129   5.854   9.802   1.470 -0.3823 -0.3541  0.2111
  864MOL0     O19130   5.915   9.879   1.375 -0.0726  0.5323  1.1484
  864MOL0     C19131   5.907  10.025   1.399  0.3663  0.0554 -0.9535
  864MOL0     C19132   5.923  10.094   1.263  0.8990  0.5348 -0.9959
  864MOL0     C19133   5.838  10.035   1.149 -0.0307  0.4368 -0.5550
  864MOL0     C19134   5.869  10.107   1.017 -0.1433 -0.4246  0.2550
  864MOL0     C19135   5.800  10.042   0.898  0.6977 -0.8106  0.0397
  864MOL0     C19136   5.645  10.053   0.921  0.0173  0.0168 -0.2237
  864MOL0     C19137   5.575  10.043   0.784  0.5679  0.6079  0.6950
  864MOL0     C19138   5.427  10.080   0.815  0.6894  0.3114 -0.7261
  864MOL0    Cl19139   5.322  10.042   0.683  0.1379  0.0980 -0.0234
  864MOL0     C19140   5.839   9.835   1.611  0.7230 -1.0363 -0.2889
  864MOL0     C19141   5.753   9.755   1.695 -0.4978  0.1580 -0.2622
  864MOL0     O19142   5.740   9.354   1.689 -0.2299 -0.5098  0.1667
  864MOL0     C19143   5.564   9.407   1.982 -1.3164 -0.6860 -0.0136
  864MOL0     C19144   5.513   9.343   2.095 -0.3887  1.2075  0.6378
  864MOL0     N19145   5.502   9.408   2.609  0.3186  0.7047 -0.1117
  864MOL0     N19146   5.511   9.446   2.732  0.2074 -0.2458  0.0320
  864MOL0     C19147   5.310   9.932   2.571 -0.1155  0.0738  0.2535
  864MOL0     C19148   5.173   9.902   2.532  0.8044 -0.4714  0.0538
  864MOL0     C19149   4.718   9.916   2.666  0.3282  0.7245  0.0876
  864MOL0     C19150   4.633   9.978   2.770 -0.4783  0.0372 -0.3206
  864MOL0     C19151   4.500   9.990   2.769  1.0862  0.2892  0.5416
  864MOL0     C19152   4.430   9.914   2.674  0.7023 -0.6140 -0.2077
  864MOL0     O19153   4.299   9.903   2.652  0.4141 -0.2302 -0.9541
  864MOL0     C19154   4.211   9.981   2.744 -0.3058 -0.3808  0.5077
  864MOL0     C19155   4.077   9.929   2.725  0.9992  0.8806  0.2616
  864MOL0     C19156   4.063   9.790   2.773  0.3682 -0.3304 -0.3181
  864MOL0     C19157   4.081   9.777   2.926  1.0103 -0.4009  0.3587
  864MOL0     C19158   3.989   9.860   3.010 -0.8073  0.0107 -0.2891
  864MOL0     C19159   3.912   9.918   3.088  0.9284  0.3384  0.3040
  864MOL0     C19160   4.509   9.831   2.591 -0.0197 -0.5246  0.7115
  864MOL0     C19161   4.647   9.835   2.575 -0.7221  0.3187  0.3790
  864MOL0     C19162   4.699   9.788   2.450  0.3013 -0.1229  0.2510
  864MOL0     H19163   5.055   9.782   2.814  1.5928 -0.7983  2.0243
  864MOL0     H19164   5.295   9.833   2.895 -0.9930 -0.7142  0.2318
  864MOL0     H19165   5.420  10.023   2.913 -1.2875 -1.7962 -1.2817
  864MOL0     H19166   5.577  10.076   2.864 -0.7315  0.3734  3.4802
  864MOL0     H19167   5.601   9.920   3.046 -1.4661  2.1447  0.7473
  864MOL0     H19168   5.504   9.796   2.961  1.3632 -1.2277  0.8741
  864MOL0     H19169   5.668   9.722   2.824 -0.0967  1.0442 -1.2365
  864MOL0     H19170   5.744   9.879   2.814  1.2637  0.3611 -0.0789
  864MOL0     H19171   5.885   9.729   2.944  0.0200 -1.2109  1.0327
  864MOL0     H19172   5.824   9.860   3.053 -0.7068 -0.5626  1.4629
  864MOL0     H19173   5.644   9.661   3.083 -0.9246 -0.3203  0.5654
  864MOL0     H19174   5.792   9.672   3.189  0.5972 -1.0809 -0.6784
  864MOL0     H19175   5.930   9.550   3.013 -0.4586  0.6232 -0.4825
  864MOL0     H19176   5.825   9.459   3.122 -0.9998 -1.6656 -1.2983
  864MOL0     H19177   5.827   9.359   2.933  0.9252  1.4393 -1.9902
  864MOL0     H19178   5.780   9.493   2.829 -3.2525 -0.5550 -0.4740
  864MOL0     H19179   5.628   9.304   3.012 -0.2875 -1.7707 -0.7111
  864MOL0     H19180   5.565   9.465   2.989  0.6885  0.1658 -0.1420
  864MOL0     H19181   5.645   9.157   2.767 -1.7148  0.7105  5.1166
  864MOL0     H19182   5.680   9.165   2.510  0.2926  2.6902  1.7285
  864MOL0     H19183   5.572   9.240   2.404  0.5100 -1.5663 -0.6282
  864MOL0     H19184   5.531   9.004   2.404  0.6826  0.1462 -1.5160
  864MOL0     H19185   5.474   9.019   2.578 -4.7582 -1.1723 -0.4617
  864MOL0     H19186   5.282   9.029   2.389 -0.9733  0.9498 -0.6905
  864MOL0     H19187   5.285   9.177   2.496 -2.6664 -1.7231  0.9576
  864MOL0     H19188   5.256   9.232   2.262 -1.3610  1.4544  1.4649
  864MOL0     H19189   5.400   9.303   2.328  0.1027 -1.1442 -0.3563
  864MOL0     H19190   5.441   9.045   1.948 -2.2090  0.5096  1.9211
  864MOL0     H19191   5.620   9.092   1.693 -0.1403 -0.6372 -1.4400
  864MOL0     H19192   5.497   9.222   1.647  1.4745  1.6296 -0.3369
  864MOL0     H19193   5.449   9.066   1.715  1.9180 -1.3762  0.2251
  864MOL0     H19194   5.687   9.501   1.482  1.6924 -1.3146  2.0315
  864MOL0     H19195   5.814   9.642   1.331 -1.5771 -0.4584  0.2220
  864MOL0     H19196   5.806  10.048   1.434  0.2309 -0.4777 -0.9836
  864MOL0     H19197   5.981  10.059   1.471 -0.4622  0.0067 -0.0543
  864MOL0     H19198   5.889  10.197   1.279 -3.7151 -0.8496 -0.4361
  864MOL0     H19199   6.030  10.085   1.244  1.4824 -1.2707  2.3930
  864MOL0     H19200   5.732  10.044   1.178  0.4901  1.7424  1.1255
  864MOL0     H19201   5.849   9.929   1.126  0.3993  0.3475  0.0471
  864MOL0     H19202   5.977  10.097   1.000  0.4565  1.1946  2.5546
  864MOL0     H19203   5.842  10.212   1.024  1.8818  0.3488 -1.9535
  864MOL0     H19204   5.826  10.083   0.800  0.2132  2.5631  1.1689
  864MOL0     H19205   5.827   9.936   0.895 -1.2649 -1.3788 -3.3859
  864MOL0     H19206   5.609  10.143   0.971  0.0202 -0.5719  0.8708
  864MOL0     H19207   5.624   9.967   0.986  1.2426  1.7436  2.6565
  864MOL0     H19208   5.585   9.946   0.733 -2.0296  0.3645  0.5047
  864MOL0     H19209   5.609  10.115   0.709  0.5024 -1.2768 -1.2645
  864MOL0     H19210   5.417  10.188   0.827  2.4011  0.3001  1.4188
  864MOL0     H19211   5.400  10.028   0.907  0.7501  1.0278 -0.2944
  864MOL0     H19212   5.893   9.919   1.653  2.3730 -1.8124 -0.7565
  864MOL0     H19213   5.733   9.796   1.794 -0.9647  2.8161 -1.3597
  864MOL0     H19214   5.601   9.509   1.972 -1.5249 -0.6442 -0.3590
  864MOL0     H19215   5.496   9.396   2.188  0.6719  0.8302  1.0581
  864MOL0     H19216   5.380   9.982   2.506  0.8226 -3.4304 -1.7095
  864MOL0     H19217   5.148   9.905   2.427 -1.5659 -0.1788  0.5654
  864MOL0     H19218   4.695  10.030   2.843 -2.3049 -1.1663  2.2209
  864MOL0     H19219   4.452  10.064   2.832 -0.4598 -0.8816  0.8175
  864MOL0     H19220   4.234   9.986   2.851 -2.0727 -2.2928  1.0446
  864MOL0     H19221   4.221  10.079   2.696  4.8164 -1.9409 -2.2921
  864MOL0     H19222   4.048   9.916   2.620  1.1113  1.3632  0.1672
  864MOL0     H19223   3.995   9.981   2.776 -0.7487 -0.0419 -1.4783
  864MOL0     H19224   3.964   9.753   2.747  1.7685 -1.8352 -4.1099
  864MOL0     H19225   4.140   9.720   2.740 -0.2087 -0.7920 -0.7073
  864MOL0     H19226   4.185   9.785   2.958  0.3537  2.4906  2.0931
  864MOL0     H19227   4.058   9.672   2.947  0.3502 -0.6417 -1.4133
  864MOL0     H19228   3.857   9.966   3.166  1.3560 -1.4200  1.7688
  864MOL0     H19229   4.458   9.791   2.504 -0.9156  4.2596 -1.3204
  864MOL0     H19230   4.775   9.854   2.404 -0.1940 -0.8778 -1.7618
  864MOL0     H19231   4.759   9.699   2.468  1.5015  0.2247 -1.6302
  864MOL0     H19232   4.622   9.779   2.373 -0.6797  0.5343  1.1327
  865MOL0     O19233   0.439   2.565   5.141 -0.3007  0.3859  0.6768
  865MOL0     C19234   0.526   2.639   5.188  0.2167 -0.3591 -0.5374
  865MOL0     O19235   0.648   2.595   5.219  0.7511 -0.5849  0.2031
  865MOL0     C19236   0.721   2.655   5.318 -1.0447 -0.3417 -0.6494
  865MOL0     C19237   0.864   2.661   5.312 -0.3919 -0.2790  0.4016
  865MOL0     C19238   0.945   2.717   5.415 -0.0799  0.4030  0.2375
  865MOL0     C19239   0.881   2.784   5.528  0.7912  0.7229  0.0711
  865MOL0     O19240   0.962   2.831   5.620 -0.3427  0.1128  1.0513
  865MOL0     C19241   0.922   2.946   5.705  0.5083  0.7134  0.3760
  865MOL0     C19242   0.904   3.079   5.624  0.2815  0.0542 -0.0656
  865MOL0     C19243   0.791   3.083   5.519 -0.0958  0.3619  0.8830
  865MOL0     C19244   0.742   3.223   5.484 -0.1227  0.4839 -0.0539
  865MOL0     C19245   0.617   3.228   5.391  0.8349  0.1479  0.2642
  865MOL0     C19246   0.470   3.195   5.456 -0.5931 -1.1166 -0.7681
  865MOL0     C19247   0.460   3.266   5.597 -0.5050  0.1286  0.9993
  865MOL0     C19248   0.320   3.264   5.643  0.0718  0.3076 -0.4839
  865MOL0     N19249   0.277   3.131   5.692 -0.9368 -0.2969  0.8945
  865MOL0     C19250   0.313   3.080   5.815  0.3865  0.8708  0.8260
  865MOL0     C19251   0.248   2.958   5.817 -0.1206 -0.0926 -0.5364
  865MOL0     C19252   0.258   2.847   5.919 -0.5142  0.4605 -0.0342
  865MOL0     C19253   0.382   2.756   5.892  0.8935  0.1608  0.1514
  865MOL0     C19254   0.518   2.823   5.887  0.7643 -0.1327  0.8199
  865MOL0     C19255   0.564   2.890   6.012 -0.5511  1.2233 -0.2325
  865MOL0     O19256   0.659   2.985   5.963  0.5025  0.5873  1.1463
  865MOL0     C19257   0.698   3.088   6.039  0.3966  0.0876 -0.6236
  865MOL0     C19258   0.687   3.089   6.176 -0.6724 -0.5798 -0.8179
  865MOL0     C19259   0.720   3.195   6.253 -0.0796  0.5542  0.6101
  865MOL0     C19260   0.671   3.182   6.398 -0.5752 -0.5747 -0.3016
  865MOL0     C19261   0.783   3.306   6.196  0.2242  0.0023 -0.0935
  865MOL0     C19262   0.812   3.432   6.268 -1.0501 -0.1092  0.4748
  865MOL0     O19263   0.918   3.510   6.217  1.0722 -0.3256 -0.0141
  865MOL0     C19264   0.945   3.647   6.235  0.3811 -0.0008 -0.2991
  865MOL0     C19265   1.061   3.696   6.188  0.4308  0.2564 -0.1096
  865MOL0     C19266   1.100   3.829   6.218 -0.3531  0.5848 -0.8662
  865MOL0     C19267   1.008   3.918   6.269  0.3031 -0.3022 -0.5190
  865MOL0     O19268   1.042   4.049   6.299 -0.3360 -0.1077  0.6376
  865MOL0     C19269   1.156   4.050   6.388  0.1608  0.0752 -0.4571
  865MOL0     C19270   1.174   4.193   6.436 -0.5863 -0.7900  0.1901
  865MOL0     C19271   1.204   4.288   6.312  0.1605 -0.0855  0.2289
  865MOL0     C19272   1.221   4.427   6.361  0.5411 -1.1967 -0.3509
  865MOL0     C19273   1.193   4.530   6.258 -0.6301 -0.9181  0.6936
  865MOL0     C19274   1.299   4.563   6.156  0.0525 -0.9084 -0.4438
  865MOL0     C19275   1.319   4.456   6.053  0.6532 -0.4322  0.1084
  865MOL0     C19276   1.398   4.505   5.928  0.3216 -0.2308 -1.0664
  865MOL0    Cl19277   1.430   4.374   5.812 -0.3250 -0.6442 -0.3324
  865MOL0     C19278   0.880   3.876   6.295  0.4108 -0.5373 -0.1402
  865MOL0     C19279   0.854   3.742   6.286  0.0199  0.5916  0.2825
  865MOL0     O19280   0.747   3.467   6.367  1.1790  0.5640  0.4681
  865MOL0     C19281   0.819   3.300   6.052  0.1736  0.6004 -0.0844
  865MOL0     C19282   0.764   3.194   5.971  0.4794  0.0060 -0.3868
  865MOL0     N19283   0.183   2.935   5.696  0.0599 -0.9095 -0.4825
  865MOL0     N19284   0.202   3.039   5.623  0.4399  0.2502 -0.6906
  865MOL0     C19285   0.737   2.777   5.536  0.6311 -0.8062  0.5683
  865MOL0     C19286   0.667   2.728   5.432  0.1563  0.8399  0.2733
  865MOL0     C19287   0.520   2.779   5.155 -0.2913  0.8228 -0.8775
  865MOL0     C19288   0.627   2.842   5.085 -0.1703  0.4395  0.2987
  865MOL0     C19289   0.619   2.978   5.049  0.7359  0.1766 -0.2872
  865MOL0     C19290   0.502   3.055   5.083  0.1673  1.0553 -1.1270
  865MOL0     O19291   0.479   3.187   5.048 -0.0589  0.3244 -0.1600
  865MOL0     C19292   0.522   3.212   4.918  0.2433 -0.2284 -0.6918
  865MOL0     C19293   0.481   3.352   4.889 -1.0908  0.1391 -0.5155
  865MOL0     C19294   0.330   3.359   4.867  0.1793 -0.6159  0.1478
  865MOL0     C19295   0.272   3.496   4.919 -0.6043  0.0566 -1.1124
  865MOL0     C19296   0.336   3.615   4.864  0.1853 -0.9268 -0.0120
  865MOL0     C19297   0.412   3.690   4.811  0.4120 -0.2312  0.6888
  865MOL0     C19298   0.405   2.988   5.155  1.4286 -0.1692  0.6882
  865MOL0     C19299   0.416   2.857   5.199  0.3637 -0.6669 -0.3717
  865MOL0     C19300   0.301   2.819   5.292 -0.4426 -0.2952  0.8029
  865MOL0     H19301   0.926   2.610   5.240 -0.8646  0.0615 -0.2603
  865MOL0     H19302   1.053   2.706   5.404 -0.2226  1.1233 -2.8638
  865MOL0     H19303   0.989   2.962   5.789 -1.4809  1.4622  1.9068
  865MOL0     H19304   0.825   2.928   5.753  0.0603 -1.6173 -1.2558
  865MOL0     H19305   0.897   3.168   5.688  0.0152  2.3379 -3.0303
  865MOL0     H19306   0.997   3.103   5.572 -0.5911  1.0755 -1.1992
  865MOL0     H19307   0.835   3.041   5.428  2.4656  2.5910  0.9832
  865MOL0     H19308   0.703   3.034   5.563  0.2721  0.1956  1.4325
  865MOL0     H19309   0.723   3.266   5.582  1.4825 -0.1244  0.5652
  865MOL0     H19310   0.829   3.284   5.458  1.3037 -1.3037  0.2861
  865MOL0     H19311   0.626   3.157   5.309  1.6579  0.7760 -0.2033
  865MOL0     H19312   0.618   3.328   5.347  1.4050 -0.7572 -1.8790
  865MOL0     H19313   0.406   3.252   5.389  1.3651 -0.2554 -2.0051
  865MOL0     H19314   0.443   3.089   5.461 -1.8870 -0.7615  0.2238
  865MOL0     H19315   0.492   3.369   5.579  1.8401 -0.6138  0.5759
  865MOL0     H19316   0.519   3.215   5.673 -0.8631 -0.1509  1.0924
  865MOL0     H19317   0.290   3.322   5.731 -2.2682 -0.4227 -0.7314
  865MOL0     H19318   0.255   3.301   5.564  1.4108  0.1471 -1.7049
  865MOL0     H19319   0.379   3.126   5.888  0.4730 -2.6344  3.2134
  865MOL0     H19320   0.163   2.792   5.919 -0.9660  1.2165  0.9210
  865MOL0     H19321   0.276   2.894   6.016  0.7220 -0.1909  0.0766
  865MOL0     H19322   0.373   2.670   5.959  1.9967  0.7753  1.1308
  865MOL0     H19323   0.356   2.706   5.799  1.2592  0.3341 -0.0463
  865MOL0     H19324   0.591   2.744   5.864 -0.1353 -1.0260  0.9425
  865MOL0     H19325   0.518   2.896   5.805  1.0204 -0.8402  0.1762
  865MOL0     H19326   0.481   2.949   6.052 -0.9816  2.7020 -3.0498
  865MOL0     H19327   0.597   2.807   6.075 -1.2736  0.3617 -0.9783
  865MOL0     H19328   0.641   3.011   6.235 -2.0340  0.4751 -0.4190
  865MOL0     H19329   0.633   3.081   6.412 -3.1429  0.2954 -0.5363
  865MOL0     H19330   0.590   3.253   6.414 -0.3005 -0.8576  2.8337
  865MOL0     H19331   0.755   3.205   6.464 -0.7560  0.2166 -0.3389
  865MOL0     H19332   1.141   3.641   6.139  1.6433 -0.4840  2.4942
  865MOL0     H19333   1.202   3.863   6.204  1.1552 -0.4537  4.8926
  865MOL0     H19334   1.138   3.981   6.472  2.1394  0.6755  0.5111
  865MOL0     H19335   1.247   4.025   6.333  0.6864 -1.5259  1.0440
  865MOL0     H19336   1.078   4.212   6.486  0.1300  0.1636  1.2574
  865MOL0     H19337   1.256   4.208   6.507  0.4057  2.5267 -1.4884
  865MOL0     H19338   1.118   4.296   6.245  1.2965  0.2985 -1.2288
  865MOL0     H19339   1.288   4.253   6.251  0.2782  0.3758  0.1227
  865MOL0     H19340   1.324   4.442   6.395  0.4079  2.5625 -1.0848
  865MOL0     H19341   1.147   4.445   6.439 -0.2813 -0.0694 -1.3462
  865MOL0     H19342   1.094   4.520   6.212 -1.3356  3.4323  0.7957
  865MOL0     H19343   1.180   4.625   6.311  0.4123 -0.1800 -0.3221
  865MOL0     H19344   1.396   4.583   6.203  0.8439  1.0214 -2.7372
  865MOL0     H19345   1.279   4.657   6.104 -0.4919 -1.5621 -1.4336
  865MOL0     H19346   1.224   4.418   6.014 -0.0542 -1.4909  2.6581
  865MOL0     H19347   1.371   4.372   6.101 -0.8856  0.5336  3.8721
  865MOL0     H19348   1.494   4.532   5.974 -0.2474 -0.8894  0.6017
  865MOL0     H19349   1.353   4.595   5.885  2.5975  0.9362 -1.1684
  865MOL0     H19350   0.800   3.946   6.314  1.1673  1.3502 -3.2935
  865MOL0     H19351   0.757   3.701   6.308  1.2219 -1.9871  1.1588
  865MOL0     H19352   0.864   3.386   6.002  0.4424  1.0998  0.9716
  865MOL0     H19353   0.767   3.197   5.862 -1.2695  1.0677 -0.4474
  865MOL0     H19354   0.678   2.820   5.615  1.1171  2.1522 -0.5603
  865MOL0     H19355   0.559   2.727   5.443  0.1623  0.8217  0.3283
  865MOL0     H19356   0.722   2.794   5.068 -0.2257  0.1949  0.6615
  865MOL0     H19357   0.694   3.035   4.995  1.4469 -0.7552 -0.3017
  865MOL0     H19358   0.631   3.214   4.912  0.2072  2.5985 -2.2183
  865MOL0     H19359   0.473   3.142   4.850  1.4889  0.2118 -2.0785
  865MOL0     H19360   0.539   3.394   4.807  0.5167  0.2033  0.6032
  865MOL0     H19361   0.513   3.412   4.974  1.1360 -3.1782  1.1949
  865MOL0     H19362   0.292   3.345   4.766 -0.7213  3.2048 -0.1996
  865MOL0     H19363   0.282   3.278   4.923 -2.5460  1.3302  0.8736
  865MOL0     H19364   0.280   3.494   5.028 -1.4736 -3.9213 -0.9585
  865MOL0     H19365   0.164   3.489   4.903 -0.8463  0.5555  0.1398
  865MOL0     H19366   0.489   3.741   4.757 -0.6939  0.6985 -0.0630
  865MOL0     H19367   0.319   3.046   5.187  1.1894 -0.4707  0.6022
  865MOL0     H19368   0.222   2.760   5.246  0.0426 -0.5054  0.2174
  865MOL0     H19369   0.356   2.768   5.371  3.6680  3.8731  1.0842
  865MOL0     H19370   0.258   2.906   5.342 -0.3623 -0.5901  1.3879
  866MOL0     O19371   0.948   5.599   1.564  0.3099 -0.9256 -0.8376
  866MOL0     C19372   0.913   5.494   1.617  0.5705 -0.1281 -0.0337
  866MOL0     O19373   0.898   5.376   1.544 -0.6224  0.2357  0.3283
  866MOL0     C19374   0.926   5.382   1.409  0.4164  0.0966  0.9300
  866MOL0     C19375   0.832   5.441   1.314 -0.1834 -0.3299 -0.6784
  866MOL0     C19376   0.861   5.438   1.176  0.4483 -0.0099 -0.3175
  866MOL0     C19377   0.978   5.385   1.131  0.1686 -0.5574  0.0908
  866MOL0     O19378   1.012   5.397   1.001  0.1754 -0.5837  0.4778
  866MOL0     C19379   1.042   5.280   0.922 -0.2240  0.1351 -0.6001
  866MOL0     C19380   1.079   5.308   0.778  0.0816 -0.2496  0.1466
  866MOL0     C19381   1.200   5.388   0.755  0.0212  0.2602 -0.4949
  866MOL0     C19382   1.256   5.378   0.604  0.6246 -0.5876 -0.6765
  866MOL0     C19383   1.335   5.249   0.563 -0.1265 -1.0480 -0.1628
  866MOL0     C19384   1.366   5.239   0.413 -0.1301 -0.5931 -0.2822
  866MOL0     C19385   1.240   5.240   0.331  0.8102  0.4779 -0.0840
  866MOL0     C19386   1.295   5.223   0.189  1.4007 -0.8213  0.0937
  866MOL0     N19387   1.185   5.213   0.091 -0.8119 -0.0687 -0.1909
  866MOL0     C19388   1.200   5.170  -0.036 -0.0357 -0.8408  0.1107
  866MOL0     C19389   1.075   5.169  -0.080  0.3609  0.0444  0.2921
  866MOL0     C19390   1.042   5.108  -0.217 -0.0595  0.1658 -0.0879
  866MOL0     C19391   1.099   4.961  -0.240  0.3731 -0.6362 -0.3894
  866MOL0     C19392   1.052   4.866  -0.138 -0.5856 -0.3534  0.3797
  866MOL0     C19393   0.920   4.804  -0.168  1.0266  0.2653  0.8511
  866MOL0     O19394   0.931   4.678  -0.246 -0.1057 -0.6978 -0.3711
  866MOL0     C19395   0.827   4.587  -0.246  0.0453  0.1028 -0.0974
  866MOL0     C19396   0.698   4.619  -0.188  0.3192  0.1861 -0.0209
  866MOL0     C19397   0.585   4.532  -0.209  0.9756 -0.0958 -0.6520
  866MOL0     C19398   0.464   4.576  -0.141 -0.5671  0.0782  0.6482
  866MOL0     C19399   0.611   4.408  -0.285  0.3239  0.4735 -0.5536
  866MOL0     C19400   0.503   4.309  -0.325  0.9420  0.6188  0.4415
  866MOL0     O19401   0.408   4.368  -0.392  1.1355  0.4160 -0.1045
  866MOL0     C19402   0.285   4.311  -0.390  0.4298 -0.1634 -0.5355
  866MOL0     C19403   0.219   4.244  -0.280  0.0419 -0.4164  0.1501
  866MOL0     C19404   0.103   4.167  -0.294 -0.2833  0.1248 -0.1828
  866MOL0     C19405   0.032   4.182  -0.421 -0.6815 -0.0987 -0.1881
  866MOL0     O19406  -0.078   4.103  -0.439 -0.2253 -0.6620  0.1392
  866MOL0     C19407  -0.177   4.135  -0.332 -0.2234 -0.5455 -0.2396
  866MOL0     C19408  -0.296   4.043  -0.356  0.7317 -0.6427 -0.7214
  866MOL0     C19409  -0.427   4.055  -0.270 -0.6674 -0.4229  0.8680
  866MOL0     C19410  -0.515   4.173  -0.321  0.3644  0.3961  0.0124
  866MOL0     C19411  -0.671   4.162  -0.281 -0.7447  0.5264  0.3573
  866MOL0     C19412  -0.690   4.115  -0.136 -0.4443 -0.7224  0.2671
  866MOL0     C19413  -0.771   3.988  -0.125  0.4011 -0.1234  0.5053
  866MOL0     C19414  -0.818   3.958   0.018 -0.1727 -0.1917  0.3955
  866MOL0    Cl19415  -0.944   3.836   0.021 -0.1085  0.1024  0.0405
  866MOL0     C19416   0.080   4.273  -0.513 -0.3686  0.5093 -0.3346
  866MOL0     C19417   0.204   4.325  -0.506  0.0916 -0.4583  0.6782
  866MOL0     O19418   0.516   4.187  -0.304 -0.2822 -1.2370 -0.5487
  866MOL0     C19419   0.742   4.380  -0.324  0.5920 -0.0696 -0.2364
  866MOL0     C19420   0.850   4.465  -0.306  0.1399  0.2921 -0.5653
  866MOL0     N19421   0.990   5.224   0.015  0.7412 -0.7668 -0.2269
  866MOL0     N19422   1.060   5.245   0.123 -0.6026 -0.0554  0.0209
  866MOL0     C19423   1.069   5.317   1.216  0.1746  0.1620  0.0894
  866MOL0     C19424   1.042   5.323   1.356  0.0758  0.4020  0.4719
  866MOL0     C19425   0.877   5.490   1.763 -0.3999 -0.1507  0.6606
  866MOL0     C19426   0.918   5.604   1.837  0.5684  0.3116  0.5424
  866MOL0     C19427   0.909   5.612   1.971  0.1119  0.2642  0.0085
  866MOL0     C19428   0.869   5.500   2.045 -0.1686  0.1423  0.0203
  866MOL0     O19429   0.867   5.513   2.183 -0.5610 -0.4802  0.8091
  866MOL0     C19430   0.847   5.387   2.250  0.1064  0.1280 -0.3785
  866MOL0     C19431   0.800   5.412   2.394 -0.8365 -0.0268  0.1655
  866MOL0     C19432   0.702   5.533   2.400  0.2071  0.8863 -0.1245
  866MOL0     C19433   0.564   5.501   2.343 -0.1570  0.0309 -0.1566
  866MOL0     C19434   0.478   5.420   2.425  0.3288  0.3258 -0.3713
  866MOL0     C19435   0.396   5.362   2.500 -0.0907  0.7498 -0.4496
  866MOL0     C19436   0.824   5.392   1.971  0.1827 -0.3919 -0.8351
  866MOL0     C19437   0.817   5.389   1.829 -0.3489  0.2120 -0.3041
  866MOL0     C19438   0.762   5.260   1.777  0.4613 -0.0457  0.9340
  866MOL0     H19439   0.750   5.494   1.361  2.3381  1.5116  2.0462
  866MOL0     H19440   0.799   5.499   1.110 -1.3353 -1.3277  0.0568
  866MOL0     H19441   0.952   5.219   0.910 -1.2671  1.5640 -0.2210
  866MOL0     H19442   1.125   5.224   0.967  0.5629  1.7492  0.0400
  866MOL0     H19443   1.088   5.207   0.736  1.7827 -0.4381  0.8554
  866MOL0     H19444   0.991   5.355   0.734 -1.6808 -1.0223  2.6113
  866MOL0     H19445   1.189   5.491   0.789 -1.0050  0.4209 -1.2592
  866MOL0     H19446   1.281   5.348   0.817  0.7869  0.5350 -1.2983
  866MOL0     H19447   1.173   5.394   0.535  1.0742 -2.6917 -1.7814
  866MOL0     H19448   1.321   5.465   0.591 -1.4657  0.8702 -1.9516
  866MOL0     H19449   1.286   5.162   0.607  0.6249 -2.2812 -1.6848
  866MOL0     H19450   1.434   5.254   0.608  0.0047 -0.4927 -0.5014
  866MOL0     H19451   1.437   5.317   0.388  0.3138 -0.1333  2.1693
  866MOL0     H19452   1.417   5.144   0.396  1.0925 -0.0378  0.1953
  866MOL0     H19453   1.192   5.338   0.330  0.9385  0.5612  0.7155
  866MOL0     H19454   1.174   5.156   0.354  0.1343  0.4027 -2.1217
  866MOL0     H19455   1.355   5.307   0.153 -0.3365  0.1607 -0.5948
  866MOL0     H19456   1.346   5.125   0.189 -3.1912 -3.4853  0.0087
  866MOL0     H19457   1.291   5.135  -0.083  0.0214 -1.3307  0.5889
  866MOL0     H19458   1.074   5.178  -0.294  0.1461 -0.2196 -0.3562
  866MOL0     H19459   0.933   5.112  -0.225 -0.3199  1.3997  2.7140
  866MOL0     H19460   1.072   4.934  -0.343  1.5253 -0.1340 -0.8452
  866MOL0     H19461   1.209   4.963  -0.239  0.5080 -0.8665  3.8982
  866MOL0     H19462   1.129   4.790  -0.124 -3.4011 -3.2992  0.9692
  866MOL0     H19463   1.044   4.920  -0.043 -0.9925 -1.7536  1.1682
  866MOL0     H19464   0.884   4.783  -0.067  0.1154  0.1247  0.5041
  866MOL0     H19465   0.859   4.879  -0.219  3.1223  3.7202  3.0514
  866MOL0     H19466   0.678   4.717  -0.147  0.4861  0.0853  0.3001
  866MOL0     H19467   0.377   4.525  -0.183 -0.4373  1.0011 -0.8400
  866MOL0     H19468   0.446   4.680  -0.170  3.1072  0.8816  0.8281
  866MOL0     H19469   0.480   4.571  -0.033  0.8542 -0.3232  0.4437
  866MOL0     H19470   0.273   4.236  -0.186 -1.0335 -1.6602  0.6987
  866MOL0     H19471   0.066   4.112  -0.208 -2.5565  1.9304  0.1093
  866MOL0     H19472  -0.144   4.123  -0.228 -2.3648 -1.0954  0.4297
  866MOL0     H19473  -0.213   4.237  -0.345  2.2375  0.7587  2.1421
  866MOL0     H19474  -0.322   4.046  -0.462 -2.4525 -1.3127 -0.0423
  866MOL0     H19475  -0.257   3.942  -0.339 -1.6619 -1.4532  0.3508
  866MOL0     H19476  -0.400   4.074  -0.166 -0.6256  1.1136  0.6077
  866MOL0     H19477  -0.480   3.961  -0.287 -0.4505 -0.3521 -0.3029
  866MOL0     H19478  -0.504   4.185  -0.429  0.7455 -1.9418 -0.2492
  866MOL0     H19479  -0.475   4.265  -0.278 -2.6132 -0.0007  4.3423
  866MOL0     H19480  -0.718   4.260  -0.289  0.5249  1.3823  2.6116
  866MOL0     H19481  -0.701   4.085  -0.354  3.4689 -1.4448  0.3927
  866MOL0     H19482  -0.731   4.201  -0.081 -1.2778  0.9681 -2.7976
  866MOL0     H19483  -0.593   4.088  -0.093 -0.6110 -0.8705  0.5509
  866MOL0     H19484  -0.721   3.901  -0.168 -4.0527 -2.0149 -1.4942
  866MOL0     H19485  -0.856   4.008  -0.191  0.5950  1.2305  0.6412
  866MOL0     H19486  -0.853   4.049   0.066  2.2783 -0.0678  2.1544
  866MOL0     H19487  -0.725   3.934   0.070  1.7694  1.1415 -2.2212
  866MOL0     H19488   0.024   4.295  -0.604  1.2911  2.1930 -1.0296
  866MOL0     H19489   0.249   4.379  -0.589  2.3462  0.5091  2.4214
  866MOL0     H19490   0.743   4.283  -0.373 -2.2819  0.5866 -1.8164
  866MOL0     H19491   0.946   4.443  -0.350  0.4063  1.7980 -0.7800
  866MOL0     H19492   1.167   5.279   1.191 -0.6496 -3.3765  1.6519
  866MOL0     H19493   1.117   5.280   1.422  0.6417  0.9406  0.1862
  866MOL0     H19494   0.969   5.678   1.775  1.2182 -1.2578 -0.9019
  866MOL0     H19495   0.937   5.698   2.032 -1.2573  0.9332 -0.2669
  866MOL0     H19496   0.776   5.317   2.205  0.2109  0.0026 -0.3493
  866MOL0     H19497   0.941   5.332   2.259 -0.2258 -0.1046  3.3314
  866MOL0     H19498   0.883   5.438   2.460 -0.2220 -0.6165 -0.3723
  866MOL0     H19499   0.750   5.318   2.416  0.0078  0.0521  2.7795
  866MOL0     H19500   0.705   5.568   2.503  3.4889  2.5195 -0.6500
  866MOL0     H19501   0.733   5.622   2.345 -2.2824 -0.4718 -4.2347
  866MOL0     H19502   0.571   5.456   2.243 -3.8992  2.7403 -1.9292
  866MOL0     H19503   0.502   5.590   2.324 -0.4490 -0.3701 -1.1613
  866MOL0     H19504   0.316   5.313   2.551  1.7767 -1.1548  0.8423
  866MOL0     H19505   0.795   5.301   2.022 -1.2169  0.8472  0.6760
  866MOL0     H19506   0.833   5.179   1.761  1.2915  0.8710 -0.1511
  866MOL0     H19507   0.683   5.227   1.846  2.6615 -1.5072  2.9077
  866MOL0     H19508   0.716   5.288   1.682 -0.1885  2.4208  1.8624
  867MOL0     O19509   2.708   6.285   9.262  0.1837 -0.1049  0.4430
  867MOL0     C19510   2.771   6.387   9.232 -0.8170 -1.1591  0.1946
  867MOL0     O19511   2.873   6.432   9.307 -0.1636 -0.1323 -0.4708
  867MOL0     C19512   2.927   6.337   9.393  0.5835 -0.8707 -0.2721
  867MOL0     C19513   2.913   6.355   9.534  0.3126  0.1229 -0.9139
  867MOL0     C19514   2.976   6.266   9.623 -0.2213 -0.2045  0.2106
  867MOL0     C19515   3.034   6.154   9.571  0.3089  0.1378  0.1656
  867MOL0     O19516   3.114   6.083   9.659  0.0399  0.0478 -0.6684
  867MOL0     C19517   3.094   5.945   9.641  0.4613  0.1456  0.3167
  867MOL0     C19518   3.117   5.848   9.759  0.1474  0.1470 -0.2685
  867MOL0     C19519   3.050   5.716   9.719 -0.7183 -0.5280  0.1633
  867MOL0     C19520   3.078   5.619   9.826  0.5364 -0.0374 -0.5328
  867MOL0     C19521   3.033   5.479   9.779  0.3081  0.5039  0.2486
  867MOL0     C19522   3.036   5.360   9.889  0.7190  0.0950  0.6044
  867MOL0     C19523   3.177   5.333   9.943  0.1094 -0.2301 -0.5062
  867MOL0     C19524   3.200   5.190  10.010 -0.5059  0.1728  0.7125
  867MOL0     N19525   3.115   5.173  10.123  0.2789 -0.1281 -0.3039
  867MOL0     C19526   3.024   5.072  10.155 -0.0056 -0.1182  0.0292
  867MOL0     C19527   2.981   5.105  10.283  0.0562  0.6924  0.1419
  867MOL0     C19528   2.891   5.023  10.374 -1.0560 -0.5422 -0.1194
  867MOL0     C19529   2.784   4.951  10.290 -0.3708  0.2952 -0.8169
  867MOL0     C19530   2.680   5.048  10.219 -0.1414 -0.5071  0.1691
  867MOL0     C19531   2.586   5.136  10.302 -0.5365 -0.3566  0.2906
  867MOL0     O19532   2.498   5.200  10.215  0.2382 -0.0415  1.0029
  867MOL0     C19533   2.548   5.327  10.178 -0.0910 -0.1947 -0.7911
  867MOL0     C19534   2.670   5.396  10.204 -0.5521  0.5215 -0.8994
  867MOL0     C19535   2.686   5.536  10.171  0.3131  0.4118 -0.1847
  867MOL0     C19536   2.825   5.589  10.192 -0.0958 -0.6158 -0.5184
  867MOL0     C19537   2.583   5.608  10.111 -0.3159 -0.3557 -0.5398
  867MOL0     C19538   2.605   5.754  10.071  0.5088 -0.1561 -0.2611
  867MOL0     O19539   2.527   5.788   9.970 -0.6210 -0.5401  0.0188
  867MOL0     C19540   2.524   5.926   9.931 -0.4788 -0.3917 -0.0914
  867MOL0     C19541   2.407   5.999   9.922  1.1111  0.9936  0.7126
  867MOL0     C19542   2.399   6.118   9.856  0.1835  0.2928  0.3699
  867MOL0     C19543   2.523   6.178   9.826 -0.3598 -1.2443  0.2623
  867MOL0     O19544   2.493   6.298   9.766  0.4238  0.4455 -0.5317
  867MOL0     C19545   2.592   6.385   9.705 -0.7092 -0.7798 -0.3624
  867MOL0     C19546   2.534   6.469   9.586 -0.4743  0.9363 -0.3909
  867MOL0     C19547   2.441   6.583   9.616 -1.4387  0.1730 -0.5963
  867MOL0     C19548   2.367   6.605   9.489  0.5803 -0.2783 -0.5224
  867MOL0     C19549   2.285   6.726   9.490  0.9788  0.0468 -0.0978
  867MOL0     C19550   2.198   6.735   9.363  0.8505  1.6129 -0.7558
  867MOL0     C19551   2.203   6.863   9.282  1.3707  0.2928 -0.2633
  867MOL0     C19552   2.126   6.843   9.146 -0.0142 -0.3854 -0.3094
  867MOL0    Cl19553   2.197   6.716   9.048  0.3887 -0.4753  0.4306
  867MOL0     C19554   2.643   6.123   9.847  0.4436  1.0145  0.3897
  867MOL0     C19555   2.638   5.995   9.901  0.3464 -0.5705 -0.3874
  867MOL0     O19556   2.687   5.828  10.128  0.9270 -0.3669  0.0628
  867MOL0     C19557   2.465   5.536  10.079  0.1847  0.2835  0.2349
  867MOL0     C19558   2.457   5.405  10.106  0.3924  0.4327 -0.7475
  867MOL0     N19559   3.043   5.229  10.322  0.8422 -0.3142  0.5867
  867MOL0     N19560   3.110   5.273  10.216 -0.0994  0.3299  0.0202
  867MOL0     C19561   3.047   6.132   9.428  0.5593  0.1480  0.2822
  867MOL0     C19562   2.988   6.222   9.345  0.5186 -0.0150 -0.1553
  867MOL0     C19563   2.715   6.485   9.130  0.3717  0.6081  0.7922
  867MOL0     C19564   2.816   6.569   9.073  1.1649  0.2505  0.0743
  867MOL0     C19565   2.787   6.662   8.964  0.0464 -0.1946 -0.1289
  867MOL0     C19566   2.659   6.659   8.907 -0.5450 -0.9637 -0.4273
  867MOL0     O19567   2.632   6.751   8.802  0.7219  0.7368  0.5741
  867MOL0     C19568   2.494   6.761   8.753 -0.7011 -0.5186 -0.5217
  867MOL0     C19569   2.500   6.852   8.629  0.8542  1.1589 -0.2898
  867MOL0     C19570   2.362   6.875   8.577  0.2683  1.1355 -0.9019
  867MOL0     C19571   2.349   6.982   8.482 -0.0744 -0.4486 -0.4158
  867MOL0     C19572   2.417   6.939   8.357 -0.1363 -0.0771  0.0236
  867MOL0     C19573   2.462   6.916   8.246  0.3116  0.6131 -0.0098
  867MOL0     C19574   2.562   6.568   8.960 -0.0731  0.9631 -0.3204
  867MOL0     C19575   2.591   6.487   9.069 -0.0100  0.2665 -0.9232
  867MOL0     C19576   2.485   6.393   9.112  0.2958  0.2643 -0.4640
  867MOL0     H19577   2.841   6.431   9.564  0.0997  0.2874 -1.8029
  867MOL0     H19578   2.972   6.268   9.731 -1.8932  0.6230  0.1768
  867MOL0     H19579   3.160   5.913   9.560  2.4205 -0.3668  2.0493
  867MOL0     H19580   2.991   5.929   9.606  0.1721 -1.2144  1.7001
  867MOL0     H19581   3.222   5.848   9.789 -0.7536  0.8997  3.2737
  867MOL0     H19582   3.073   5.901   9.844  2.6900  2.6760 -0.4043
  867MOL0     H19583   2.946   5.750   9.726 -0.5688 -0.0904  0.2914
  867MOL0     H19584   3.078   5.673   9.623  0.0398 -2.0843  1.0450
  867MOL0     H19585   3.184   5.627   9.851  0.5556  1.5407 -1.0298
  867MOL0     H19586   3.014   5.645   9.911 -1.0176 -2.0306 -1.0135
  867MOL0     H19587   3.103   5.435   9.708  0.2436 -0.8998  1.0168
  867MOL0     H19588   2.935   5.482   9.732  1.3950  0.5467 -2.1239
  867MOL0     H19589   2.964   5.381   9.968 -2.0328  2.4241 -2.2483
  867MOL0     H19590   2.999   5.267   9.844  2.7539 -1.5344  2.0974
  867MOL0     H19591   3.187   5.415  10.016 -0.2398  3.0388 -3.8181
  867MOL0     H19592   3.256   5.350   9.869  1.1045  1.3416  0.8205
  867MOL0     H19593   3.169   5.117   9.934 -0.7817  0.1402  0.8541
  867MOL0     H19594   3.307   5.172  10.027 -0.0986  1.1098 -0.7358
  867MOL0     H19595   3.001   4.983  10.099 -1.7281 -1.7256  3.0510
  867MOL0     H19596   2.855   5.091  10.451 -0.0846  0.1860 -0.2877
  867MOL0     H19597   2.951   4.952  10.432  0.0987 -0.6460 -1.3948
  867MOL0     H19598   2.823   4.889  10.209  3.5171 -1.1722  1.8954
  867MOL0     H19599   2.746   4.880  10.365  1.1827  1.2865  1.0128
  867MOL0     H19600   2.723   5.110  10.139 -0.1296  1.2660  1.4754
  867MOL0     H19601   2.609   4.977  10.178 -0.1138  0.4317 -1.6084
  867MOL0     H19602   2.530   5.078  10.376  2.9733 -2.2383  1.6850
  867MOL0     H19603   2.650   5.204  10.360  0.8670 -0.5904 -0.9278
  867MOL0     H19604   2.749   5.349  10.261 -1.4718 -0.7684 -0.6489
  867MOL0     H19605   2.877   5.623  10.101  0.0046  1.9772  0.4130
  867MOL0     H19606   2.891   5.514  10.236  2.5339  0.3454 -2.5587
  867MOL0     H19607   2.828   5.676  10.259 -0.4666 -1.0613  0.0857
  867MOL0     H19608   2.315   5.951   9.955  1.8917 -1.8456 -0.8362
  867MOL0     H19609   2.300   6.159   9.839  1.5200  3.0799 -1.5921
  867MOL0     H19610   2.635   6.445   9.786 -2.4429  0.1167 -0.0587
  867MOL0     H19611   2.668   6.328   9.650  0.9504  0.4988  0.5142
  867MOL0     H19612   2.626   6.512   9.545  0.6830 -1.6978 -0.7072
  867MOL0     H19613   2.499   6.400   9.509 -0.1286 -0.4088  0.6332
  867MOL0     H19614   2.502   6.670   9.644  0.9516 -1.3042 -0.9595
  867MOL0     H19615   2.378   6.563   9.703 -1.0230  2.8497  0.4196
  867MOL0     H19616   2.306   6.514   9.485  0.7059 -0.8283  4.1207
  867MOL0     H19617   2.436   6.627   9.407  1.7503  2.0762  0.9863
  867MOL0     H19618   2.219   6.733   9.577  1.9093  0.7165  0.5727
  867MOL0     H19619   2.346   6.817   9.486 -1.6653  1.9396 -0.2834
  867MOL0     H19620   2.095   6.720   9.397  1.5911 -3.4409  0.0776
  867MOL0     H19621   2.221   6.646   9.303  1.8361 -0.6723  2.6681
  867MOL0     H19622   2.305   6.900   9.270  0.6493  2.2715 -0.5918
  867MOL0     H19623   2.156   6.936   9.349 -0.6601 -0.2649 -1.0139
  867MOL0     H19624   2.141   6.934   9.087  3.2300 -0.1847  0.6338
  867MOL0     H19625   2.019   6.832   9.164 -0.1382 -0.4927 -1.0845
  867MOL0     H19626   2.729   6.170   9.801 -0.2449  0.5600 -1.4651
  867MOL0     H19627   2.735   5.945   9.907  0.2428 -0.7820 -0.4644
  867MOL0     H19628   2.385   5.586  10.026  1.4617 -0.2029 -2.2992
  867MOL0     H19629   2.364   5.362  10.070 -0.6584  3.2319 -1.5598
  867MOL0     H19630   3.091   6.042   9.386  1.3396  0.6449  0.0070
  867MOL0     H19631   2.992   6.206   9.238 -2.3673  1.1282 -0.5231
  867MOL0     H19632   2.919   6.571   9.104  1.2763  0.2081 -0.2832
  867MOL0     H19633   2.870   6.717   8.918  1.0993 -0.2087  1.6738
  867MOL0     H19634   2.459   6.662   8.721 -1.2886 -0.9557  1.3399
  867MOL0     H19635   2.420   6.803   8.821 -2.7336 -1.8471 -1.8045
  867MOL0     H19636   2.566   6.808   8.554  2.6690  0.0470  1.8462
  867MOL0     H19637   2.548   6.948   8.654 -0.3065  1.3801  1.2949
  867MOL0     H19638   2.332   6.786   8.521  1.5986  0.3380 -0.3867
  867MOL0     H19639   2.284   6.893   8.651 -1.9105  2.0944 -3.2761
  867MOL0     H19640   2.385   7.077   8.521  1.3987 -0.2011 -2.2710
  867MOL0     H19641   2.244   6.999   8.455  0.3111 -0.7357 -2.2236
  867MOL0     H19642   2.488   6.892   8.144 -1.6149  0.0384 -0.4061
  867MOL0     H19643   2.457   6.569   8.935  0.0071 -2.3937 -1.2462
  867MOL0     H19644   2.499   6.288   9.085 -0.9482 -0.2636  0.8524
  867MOL0     H19645   2.490   6.400   9.221  1.3399 -0.8661 -0.4193
  867MOL0     H19646   2.386   6.420   9.075  0.2522 -1.9521 -2.1808
  868MOL0     O19647   4.551   0.762   3.287  0.8250 -0.3838 -0.1929
  868MOL0     C19648   4.535   0.876   3.256 -0.4794 -0.9052  0.3039
  868MOL0     O19649   4.625   0.970   3.285 -0.2538 -0.4059 -0.5406
  868MOL0     C19650   4.751   0.937   3.267 -1.8856  0.0459  0.2953
  868MOL0     C19651   4.806   0.954   3.144  1.1452  0.6290  0.7234
  868MOL0     C19652   4.936   0.914   3.109 -0.7882 -0.1255 -0.6075
  868MOL0     C19653   5.026   0.863   3.208 -0.1810 -0.4419  0.1459
  868MOL0     O19654   5.160   0.861   3.176  1.0511 -0.0523 -0.3319
  868MOL0     C19655   5.222   0.734   3.186 -0.1167  0.6603  0.6266
  868MOL0     C19656   5.372   0.752   3.179  0.1230  0.3277 -0.0869
  868MOL0     C19657   5.456   0.619   3.201  0.3398  0.0230  0.3272
  868MOL0     C19658   5.387   0.502   3.151  1.2851  0.1049  0.3535
  868MOL0     C19659   5.442   0.356   3.187  0.0663  0.3851  0.2699
  868MOL0     C19660   5.529   0.305   3.075  0.2365  0.2080 -0.3920
  868MOL0     C19661   5.562   0.157   3.105 -0.0277 -0.1384  0.2486
  868MOL0     C19662   5.439   0.069   3.077  0.2842 -0.1065 -1.1163
  868MOL0     N19663   5.466  -0.067   3.117  0.2153  1.1563  0.2434
  868MOL0     C19664   5.582  -0.126   3.168 -0.1986  0.7323  0.0536
  868MOL0     C19665   5.535  -0.249   3.204  0.0265 -0.6586 -0.1624
  868MOL0     C19666   5.632  -0.357   3.255 -0.7284  0.9243  0.2484
  868MOL0     C19667   5.652  -0.444   3.138  0.4147  0.7437  0.0439
  868MOL0     C19668   5.761  -0.554   3.165 -0.1874 -0.2113  0.5637
  868MOL0     C19669   5.792  -0.623   3.026 -0.2035  0.3493  0.3400
  868MOL0     O19670   5.920  -0.681   3.034  0.1567 -0.0532 -0.0049
  868MOL0     C19671   6.005  -0.655   2.923  0.5610  0.8422  0.3383
  868MOL0     C19672   6.149  -0.644   2.949 -0.7408 -0.6703 -0.0706
  868MOL0     C19673   6.233  -0.583   2.848 -0.6463  0.8075  0.1425
  868MOL0     C19674   6.383  -0.574   2.880 -0.9714 -0.7413  1.0492
  868MOL0     C19675   6.181  -0.549   2.727 -0.1349  0.5284 -0.2112
  868MOL0     C19676   6.256  -0.499   2.617  0.2836  0.6913 -0.1225
  868MOL0     O19677   6.248  -0.564   2.497  0.1394  0.3407 -0.2701
  868MOL0     C19678   6.308  -0.528   2.379  0.3428  0.1488  0.8356
  868MOL0     C19679   6.322  -0.400   2.332  0.8498  0.2264  0.3232
  868MOL0     C19680   6.397  -0.369   2.218 -0.4880  0.4655 -0.5367
  868MOL0     C19681   6.463  -0.468   2.147  0.5915  0.4924  0.4118
  868MOL0     O19682   6.538  -0.458   2.033 -0.3886 -0.6309 -0.3231
  868MOL0     C19683   6.631  -0.340   2.044  0.3308  0.4439 -0.7227
  868MOL0     C19684   6.744  -0.353   1.943 -0.8770  0.2082 -0.0888
  868MOL0     C19685   6.835  -0.471   1.987  0.2748 -0.1835  0.3754
  868MOL0     C19686   6.979  -0.438   1.943 -0.3417  0.6761  1.0534
  868MOL0     C19687   7.074  -0.563   1.968  0.9022 -0.5714 -0.5538
  868MOL0     C19688   7.177  -0.542   2.078  0.1943 -0.5608 -0.4889
  868MOL0     C19689   7.289  -0.637   2.067 -0.0572  1.0089 -0.0456
  868MOL0     C19690   7.396  -0.593   1.963  0.3994 -0.3628  0.5695
  868MOL0    Cl19691   7.541  -0.691   1.974  0.5494 -0.1255  0.1522
  868MOL0     C19692   6.437  -0.602   2.186 -0.3376 -0.8323  0.3663
  868MOL0     C19693   6.366  -0.633   2.303  1.0021 -0.3216 -0.6818
  868MOL0     O19694   6.317  -0.400   2.637 -0.1776 -0.1256 -0.4660
  868MOL0     C19695   6.048  -0.572   2.695 -0.5857  0.7991 -0.5497
  868MOL0     C19696   5.962  -0.615   2.789 -0.1853  0.3416 -0.9891
  868MOL0     N19697   5.397  -0.252   3.183 -0.8718  0.0341  0.3576
  868MOL0     N19698   5.359  -0.155   3.117  0.6642 -0.1266 -0.8230
  868MOL0     C19699   4.974   0.849   3.336  0.7264  0.1572  0.5356
  868MOL0     C19700   4.842   0.889   3.371  0.1888  1.2573 -0.0939
  868MOL0     C19701   4.404   0.915   3.196 -0.1331  0.1788  0.6091
  868MOL0     C19702   4.309   0.816   3.179  0.3160 -0.1326 -0.1334
  868MOL0     C19703   4.183   0.834   3.114 -0.9532 -0.0305  0.0421
  868MOL0     C19704   4.152   0.954   3.060  0.0083 -0.5749  0.2245
  868MOL0     O19705   4.045   0.950   2.977 -0.0123 -0.1655  0.3683
  868MOL0     C19706   3.977   1.064   2.931  0.9138 -0.0241 -0.3504
  868MOL0     C19707   3.921   1.159   3.037 -0.5559  0.8487  0.1227
  868MOL0     C19708   3.832   1.093   3.137 -0.3072 -0.2619 -0.3032
  868MOL0     C19709   3.803   1.186   3.262 -0.0931 -0.0542  1.3585
  868MOL0     C19710   3.704   1.116   3.344  0.1349 -0.5312  0.1508
  868MOL0     C19711   3.618   1.047   3.403 -0.0621 -2.0193 -0.3515
  868MOL0     C19712   4.246   1.059   3.071 -0.6284  0.7353  0.6627
  868MOL0     C19713   4.365   1.038   3.133 -1.4203  0.4586 -0.7163
  868MOL0     C19714   4.464   1.163   3.137 -0.2112  0.6955 -0.0955
  868MOL0     H19715   4.758   1.003   3.060 -1.3269 -0.9714  1.0944
  868MOL0     H19716   4.968   0.921   3.005  0.3929  0.6886 -0.2073
  868MOL0     H19717   5.179   0.668   3.109  2.0269 -2.3308  1.7757
  868MOL0     H19718   5.196   0.689   3.283 -2.6994 -0.6651 -0.5563
  868MOL0     H19719   5.398   0.795   3.082 -0.8438 -0.6564 -0.8079
  868MOL0     H19720   5.398   0.830   3.252 -1.6757  0.3559  0.5826
  868MOL0     H19721   5.555   0.632   3.155  0.4513  0.4239  0.6692
  868MOL0     H19722   5.472   0.613   3.309  2.7029 -1.8396 -0.0347
  868MOL0     H19723   5.286   0.493   3.192 -0.3798  0.6040 -3.2600
  868MOL0     H19724   5.386   0.509   3.042  2.7461 -0.0261  0.3141
  868MOL0     H19725   5.348   0.300   3.176 -0.9182  2.3978 -2.8902
  868MOL0     H19726   5.493   0.358   3.284  0.9656 -0.6808 -0.1583
  868MOL0     H19727   5.481   0.301   2.977  0.3125  0.0179 -0.4228
  868MOL0     H19728   5.624   0.358   3.068  1.2254 -1.6013 -1.5392
  868MOL0     H19729   5.607   0.148   3.205  0.8425  3.0921  0.2823
  868MOL0     H19730   5.635   0.122   3.031 -1.9018 -2.0477 -0.7982
  868MOL0     H19731   5.350   0.099   3.133  1.7642  0.8490  0.8381
  868MOL0     H19732   5.404   0.079   2.973 -2.0604 -2.2789 -0.6266
  868MOL0     H19733   5.680  -0.083   3.185 -0.4048  1.5056 -0.6853
  868MOL0     H19734   5.577  -0.424   3.323  0.9339 -2.4980 -1.5271
  868MOL0     H19735   5.725  -0.313   3.292  0.0809 -0.9775  0.5981
  868MOL0     H19736   5.564  -0.494   3.094  2.2801 -1.6391 -1.2381
  868MOL0     H19737   5.690  -0.383   3.056  0.6521  0.3270 -0.1597
  868MOL0     H19738   5.857  -0.510   3.192  1.2976  1.3064 -5.5789
  868MOL0     H19739   5.728  -0.633   3.233 -0.0959 -2.5157 -1.9057
  868MOL0     H19740   5.727  -0.707   3.002 -0.7687  1.4387 -2.3452
  868MOL0     H19741   5.781  -0.559   2.938  1.6600 -2.9879 -2.5634
  868MOL0     H19742   6.201  -0.660   3.043  0.8984 -0.2338 -0.8711
  868MOL0     H19743   6.435  -0.626   2.799  0.4554  1.8588  0.1846
  868MOL0     H19744   6.416  -0.613   2.976  1.3604 -2.3014 -0.3080
  868MOL0     H19745   6.421  -0.472   2.864 -0.3444 -1.1658 -0.2958
  868MOL0     H19746   6.267  -0.322   2.383 -0.4390 -1.2177  1.2213
  868MOL0     H19747   6.399  -0.262   2.202 -1.1060  0.9166  1.8970
  868MOL0     H19748   6.564  -0.254   2.030 -0.4291  0.2295  1.2186
  868MOL0     H19749   6.662  -0.329   2.148 -0.0143 -1.8954 -0.3267
  868MOL0     H19750   6.707  -0.382   1.845 -0.3864  0.2804 -0.3004
  868MOL0     H19751   6.790  -0.255   1.925 -0.6584 -0.1026 -1.3465
  868MOL0     H19752   6.800  -0.566   1.945  1.1983  0.2819 -1.5408
  868MOL0     H19753   6.835  -0.486   2.096 -0.0022  0.5086  0.4753
  868MOL0     H19754   7.034  -0.358   1.995  3.0873 -0.1873 -0.9255
  868MOL0     H19755   7.000  -0.399   1.843  0.5827  1.3850  1.4995
  868MOL0     H19756   7.009  -0.644   2.001 -0.8879  0.0415 -2.4178
  868MOL0     H19757   7.122  -0.591   1.874 -1.5743 -1.7962 -1.5527
  868MOL0     H19758   7.126  -0.555   2.174 -1.0820  0.9444 -0.9212
  868MOL0     H19759   7.221  -0.443   2.062 -1.3145  0.5944  1.9783
  868MOL0     H19760   7.241  -0.733   2.046 -0.6428  0.9799  1.3678
  868MOL0     H19761   7.334  -0.650   2.166  2.2722 -0.2224 -1.1808
  868MOL0     H19762   7.412  -0.485   1.968 -1.4171  0.0456 -0.9742
  868MOL0     H19763   7.353  -0.602   1.862  0.4505  0.0995  0.5048
  868MOL0     H19764   6.444  -0.689   2.121 -2.5923 -0.5571 -0.3415
  868MOL0     H19765   6.357  -0.730   2.351 -0.7386  1.3767  2.8593
  868MOL0     H19766   6.019  -0.540   2.596 -1.1377 -2.0583 -1.4046
  868MOL0     H19767   5.857  -0.613   2.760  0.0806  0.7840 -1.9538
  868MOL0     H19768   5.035   0.820   3.420  0.2531 -1.5718  0.3276
  868MOL0     H19769   4.828   0.886   3.479  0.5241  0.6738 -0.0662
  868MOL0     H19770   4.322   0.715   3.217  1.7247  0.5602  1.3198
  868MOL0     H19771   4.125   0.743   3.101 -0.3319 -1.0305  3.1752
  868MOL0     H19772   4.044   1.117   2.863  1.6257 -0.5520 -0.0734
  868MOL0     H19773   3.892   1.034   2.869  0.6023  0.6495 -0.2588
  868MOL0     H19774   3.888   1.244   2.977  2.1118  1.1020 -1.1447
  868MOL0     H19775   4.005   1.207   3.088 -0.8284  0.8246  0.5882
  868MOL0     H19776   3.738   1.082   3.082 -0.7574 -1.2202  0.6113
  868MOL0     H19777   3.874   0.998   3.169 -0.9166  0.1578  1.9622
  868MOL0     H19778   3.750   1.276   3.230 -0.1715 -0.1920  1.0928
  868MOL0     H19779   3.896   1.212   3.314  0.3595  1.4080 -0.1053
  868MOL0     H19780   3.539   0.991   3.451  0.7176 -2.6724  0.2072
  868MOL0     H19781   4.222   1.155   3.026  4.9463  2.0548 -0.2085
  868MOL0     H19782   4.460   1.205   3.238 -0.7427 -2.2620  1.2118
  868MOL0     H19783   4.564   1.127   3.111  0.3334  1.0239  1.4413
  868MOL0     H19784   4.439   1.243   3.066  1.1160 -0.2947 -1.7435
  869MOL0     O19785   3.765   9.953   8.036 -0.3222 -0.2241 -0.1049
  869MOL0     C19786   3.805   9.863   8.113  0.2173  0.1046 -0.0084
  869MOL0     O19787   3.860   9.876   8.238 -0.5073  0.3103 -0.3345
  869MOL0     C19788   3.831   9.987   8.307 -0.1622  0.5580  0.1022
  869MOL0     C19789   3.723   9.981   8.400 -1.1018 -0.1994 -0.2893
  869MOL0     C19790   3.687  10.106   8.462  0.4820  0.4531  0.4807
  869MOL0     C19791   3.757  10.225   8.433 -0.1254 -0.4845  1.0289
  869MOL0     O19792   3.713  10.347   8.491 -0.0362  0.4642  0.1498
  869MOL0     C19793   3.793  10.460   8.460  0.0512  0.8782  0.8132
  869MOL0     C19794   3.718  10.588   8.515 -0.0973 -0.1067 -0.3883
  869MOL0     C19795   3.734  10.593   8.667  0.0370  0.2045  0.7947
  869MOL0     C19796   3.652  10.707   8.733  0.4531 -0.0673  1.1420
  869MOL0     C19797   3.645  10.707   8.879  0.2228  0.9878 -0.1953
  869MOL0     C19798   3.775  10.755   8.946  0.3210  0.2573 -0.4579
  869MOL0     C19799   3.753  10.794   9.093 -0.6732  0.5244 -0.0300
  869MOL0     C19800   3.888  10.849   9.154  0.3981 -0.2509 -0.1331
  869MOL0     N19801   4.000  10.757   9.117  0.3083 -0.2386  0.5329
  869MOL0     C19802   4.022  10.635   9.179 -0.1630 -1.2890  0.5745
  869MOL0     C19803   4.126  10.578   9.107  0.8925 -0.0981  1.1946
  869MOL0     C19804   4.205  10.453   9.142 -0.3507 -0.3663 -0.8869
  869MOL0     C19805   4.340  10.484   9.228  1.4222 -0.4786 -0.0564
  869MOL0     C19806   4.453  10.386   9.195  0.2002  0.5519 -0.5450
  869MOL0     C19807   4.436  10.252   9.293  0.6058 -1.0511  1.2557
  869MOL0     O19808   4.458  10.131   9.225 -0.1371 -0.3477  0.8655
  869MOL0     C19809   4.583  10.080   9.217 -0.6757 -0.2506  0.0249
  869MOL0     C19810   4.583   9.947   9.205 -0.1809  0.4993 -0.0826
  869MOL0     C19811   4.706   9.884   9.168 -0.1224 -0.1404  0.4877
  869MOL0     C19812   4.701   9.732   9.141  0.3454  0.8535 -0.5432
  869MOL0     C19813   4.830   9.954   9.147  0.4744 -0.1641  1.2543
  869MOL0     C19814   4.971   9.899   9.121  0.0227 -0.4594 -0.3704
  869MOL0     O19815   5.073   9.977   9.154  0.1895 -0.1611 -0.4702
  869MOL0     C19816   5.206   9.943   9.141  0.1456 -0.0370 -0.3731
  869MOL0     C19817   5.248   9.885   9.023 -0.0147 -0.9635 -0.4588
  869MOL0     C19818   5.385   9.852   9.005  0.5350 -0.4309  0.1758
  869MOL0     C19819   5.482   9.891   9.096  0.1229  0.1816  0.8749
  869MOL0     O19820   5.612   9.862   9.078 -0.4447 -0.0020  0.2840
  869MOL0     C19821   5.674   9.935   8.967 -0.1178  0.0210  0.2842
  869MOL0     C19822   5.792   9.858   8.907  0.3674 -0.3181 -0.0739
  869MOL0     C19823   5.754   9.719   8.842 -0.3790  0.0705 -0.6862
  869MOL0     C19824   5.709   9.728   8.698 -1.2942  0.7099  0.1134
  869MOL0     C19825   5.651   9.587   8.660 -0.9283  0.1189  0.5342
  869MOL0     C19826   5.758   9.474   8.657 -0.6785 -0.8419 -0.0057
  869MOL0     C19827   5.688   9.350   8.591 -0.0770 -0.7226 -0.0661
  869MOL0     C19828   5.783   9.252   8.531 -0.1373  0.0091  0.9295
  869MOL0    Cl19829   5.885   9.194   8.665 -0.1316  0.3838  0.3100
  869MOL0     C19830   5.447   9.957   9.204  0.1811  0.1146  0.1349
  869MOL0     C19831   5.307   9.986   9.231  0.9150  0.4728  0.3168
  869MOL0     O19832   4.983   9.785   9.081 -0.2157  0.6974  0.3571
  869MOL0     C19833   4.819  10.093   9.163 -0.0952  0.4074 -1.3285
  869MOL0     C19834   4.700  10.155   9.205 -0.4467 -0.1007  0.2893
  869MOL0     N19835   4.165  10.662   9.003  0.4879 -0.1321  0.6401
  869MOL0     N19836   4.087  10.767   9.008  0.1482  0.4794  0.6418
  869MOL0     C19837   3.871  10.226   8.348  0.0182  0.3190  0.0747
  869MOL0     C19838   3.901  10.103   8.286 -0.2846  1.0428 -0.7442
  869MOL0     C19839   3.780   9.723   8.070 -0.9452  0.6250 -0.9637
  869MOL0     C19840   3.838   9.622   8.159  0.6885  0.0675  0.9775
  869MOL0     C19841   3.835   9.485   8.117 -0.0803 -0.4316 -0.0020
  869MOL0     C19842   3.762   9.445   8.002 -0.9709  0.3459 -0.5309
  869MOL0     O19843   3.746   9.315   7.963 -0.1970 -0.4703 -0.1797
  869MOL0     C19844   3.728   9.219   8.073 -0.5048 -0.0300  0.6499
  869MOL0     C19845   3.586   9.161   8.071 -0.3747  0.0195  0.0398
  869MOL0     C19846   3.585   9.050   8.174  0.3014  0.1811  0.1305
  869MOL0     C19847   3.485   8.936   8.131 -0.1146 -0.2116 -0.1836
  869MOL0     C19848   3.454   8.850   8.251 -0.6390 -1.0518 -0.0938
  869MOL0     C19849   3.417   8.784   8.348 -0.3219  0.3388  0.6076
  869MOL0     C19850   3.693   9.541   7.934 -0.4854  0.1055  0.4284
  869MOL0     C19851   3.705   9.677   7.962  0.3220  0.1892  0.9591
  869MOL0     C19852   3.626   9.760   7.864 -0.0582  0.7411 -1.2583
  869MOL0     H19853   3.672   9.888   8.425  1.2811 -1.1564  1.4524
  869MOL0     H19854   3.605  10.117   8.532 -1.7284  0.7760 -2.0103
  869MOL0     H19855   3.799  10.473   8.352 -2.7967 -2.8869 -0.0019
  869MOL0     H19856   3.890  10.440   8.505  0.9057  3.4103  0.2943
  869MOL0     H19857   3.760  10.677   8.467 -1.1314 -0.2744 -1.6348
  869MOL0     H19858   3.613  10.601   8.487  0.2325  2.7945 -0.5345
  869MOL0     H19859   3.704  10.503   8.722 -1.8794  0.7307  0.6811
  869MOL0     H19860   3.837  10.611   8.700 -0.6323  1.6187  2.2417
  869MOL0     H19861   3.698  10.803   8.709 -1.6675  0.0791 -3.5807
  869MOL0     H19862   3.555  10.724   8.685  2.0178  3.1614 -1.2391
  869MOL0     H19863   3.613  10.607   8.910  0.4631  0.9695 -0.0024
  869MOL0     H19864   3.564  10.777   8.903 -2.0401 -0.7923 -2.1124
  869MOL0     H19865   3.841  10.668   8.940 -0.1137 -0.1303  0.3451
  869MOL0     H19866   3.819  10.844   8.899 -1.5503  1.0042 -0.8938
  869MOL0     H19867   3.712  10.709   9.149  0.8541  1.0516  1.9710
  869MOL0     H19868   3.685  10.880   9.089 -1.1066  0.1666 -0.3982
  869MOL0     H19869   3.902  10.943   9.099 -2.1788  0.3478  0.0700
  869MOL0     H19870   3.889  10.844   9.263 -1.6253 -1.5631 -0.1218
  869MOL0     H19871   3.975  10.596   9.269  0.8534 -2.4090  0.6395
  869MOL0     H19872   4.245  10.398   9.057  3.1763 -0.9010  0.9011
  869MOL0     H19873   4.129  10.397   9.198 -0.1350 -0.1950 -0.4104
  869MOL0     H19874   4.373  10.587   9.213  3.6605 -1.0717  0.5240
  869MOL0     H19875   4.299  10.462   9.327 -0.6571 -1.8892 -1.1460
  869MOL0     H19876   4.464  10.359   9.090 -1.2161 -0.4741 -0.4557
  869MOL0     H19877   4.542  10.436   9.234 -2.2442  3.2519  1.9899
  869MOL0     H19878   4.499  10.254   9.382  1.5255 -0.3042  0.5968
  869MOL0     H19879   4.333  10.253   9.332  0.2926  0.3405  0.4667
  869MOL0     H19880   4.492   9.889   9.212  0.5615 -0.4863  3.0205
  869MOL0     H19881   4.601   9.694   9.164 -0.3658 -0.2453 -4.6064
  869MOL0     H19882   4.781   9.674   9.188  0.7601 -1.0500 -3.3654
  869MOL0     H19883   4.722   9.706   9.037  2.9636  1.6255 -0.2873
  869MOL0     H19884   5.177   9.864   8.944 -2.1869  3.0070  0.2050
  869MOL0     H19885   5.415   9.789   8.921  2.1922 -0.6881  0.9132
  869MOL0     H19886   5.600   9.956   8.889  0.5516 -1.2212 -0.7247
  869MOL0     H19887   5.714  10.033   8.994  0.0646  0.6081 -1.9376
  869MOL0     H19888   5.841   9.910   8.824  2.3263 -0.8872  0.6594
  869MOL0     H19889   5.869   9.838   8.982  2.0480 -0.8976 -1.8724
  869MOL0     H19890   5.680   9.659   8.895  0.8913 -2.1212 -1.2640
  869MOL0     H19891   5.845   9.658   8.854 -1.8939 -2.0161  1.0238
  869MOL0     H19892   5.787   9.760   8.628 -0.9318  0.1710  0.2688
  869MOL0     H19893   5.633   9.807   8.699 -3.9791 -1.5344  4.3109
  869MOL0     H19894   5.564   9.552   8.715  0.6296 -1.6282  2.0161
  869MOL0     H19895   5.621   9.602   8.556  2.7404  1.6691 -0.4659
  869MOL0     H19896   5.789   9.439   8.756  1.5078 -0.0388 -0.3544
  869MOL0     H19897   5.840   9.506   8.592  0.8319 -2.3983  1.0488
  869MOL0     H19898   5.617   9.384   8.515 -0.0311  1.7272  0.8967
  869MOL0     H19899   5.636   9.303   8.674  1.8841 -0.7102  1.2296
  869MOL0     H19900   5.848   9.296   8.455 -0.2438 -2.0136 -0.4107
  869MOL0     H19901   5.730   9.172   8.479  1.6469 -2.2906  2.4785
  869MOL0     H19902   5.530   9.988   9.268 -0.3083  1.6781  0.0631
  869MOL0     H19903   5.288  10.048   9.318 -2.7384  1.0342 -0.7459
  869MOL0     H19904   4.904  10.160   9.151 -0.7866  1.1525 -2.1726
  869MOL0     H19905   4.690  10.262   9.224 -1.3968 -0.8203  4.8485
  869MOL0     H19906   3.932  10.310   8.316 -1.3177  0.9386 -0.9527
  869MOL0     H19907   3.981  10.096   8.214  2.0577  2.2820  1.5810
  869MOL0     H19908   3.894   9.630   8.252  0.7748 -1.1145  1.0469
  869MOL0     H19909   3.890   9.418   8.182  0.5480  1.9568  2.1260
  869MOL0     H19910   3.787   9.133   8.039  2.3793  2.6439 -1.8258
  869MOL0     H19911   3.762   9.259   8.169 -0.8355  0.0723  0.7261
  869MOL0     H19912   3.554   9.122   7.974 -2.5819 -0.7573  1.0109
  869MOL0     H19913   3.517   9.237   8.107 -0.7070 -1.2860  2.3859
  869MOL0     H19914   3.680   8.997   8.166 -2.0204 -4.4963 -0.0120
  869MOL0     H19915   3.560   9.088   8.273 -0.4320  3.6441 -1.2507
  869MOL0     H19916   3.522   8.868   8.054 -1.3946 -1.7844  0.5229
  869MOL0     H19917   3.384   8.972   8.106 -0.5629 -0.7712  0.7767
  869MOL0     H19918   3.384   8.751   8.444 -0.7273  1.3982  0.8475
  869MOL0     H19919   3.634   9.505   7.851 -1.1475 -3.5272  2.2369
  869MOL0     H19920   3.692   9.834   7.817  2.3014  0.7951  1.8151
  869MOL0     H19921   3.579   9.700   7.785  0.7436 -1.7308  0.0450
  869MOL0     H19922   3.538   9.807   7.909 -0.2109  1.0316 -1.8453
  870MOL0     O19923   1.200   3.691   5.202 -0.0955  0.3131  0.2680
  870MOL0     C19924   1.209   3.804   5.156  0.0808  0.6927  0.2084
  870MOL0     O19925   1.108   3.896   5.157  0.0202 -0.1155 -0.1702
  870MOL0     C19926   0.982   3.848   5.190  0.1885 -0.8976 -0.7984
  870MOL0     C19927   0.942   3.880   5.327  0.9066 -0.1805 -0.8598
  870MOL0     C19928   0.821   3.830   5.377  0.1867  0.0739 -0.0688
  870MOL0     C19929   0.726   3.774   5.292  0.2060  1.8722  0.9586
  870MOL0     O19930   0.601   3.742   5.325  0.4983  0.0894 -1.1198
  870MOL0     C19931   0.561   3.609   5.300  0.6834 -1.1897 -0.0115
  870MOL0     C19932   0.409   3.588   5.274 -0.8185  0.0681  0.4405
  870MOL0     C19933   0.334   3.602   5.397  0.3113  0.1431  0.0591
  870MOL0     C19934   0.195   3.665   5.372  0.4994  0.2936  0.4155
  870MOL0     C19935   0.111   3.569   5.268 -0.2846 -0.2339 -0.3728
  870MOL0     C19936   0.081   3.426   5.316 -0.6130 -0.4358 -0.7481
  870MOL0     C19937   0.030   3.340   5.193 -0.4855  0.8677  0.7829
  870MOL0     C19938  -0.091   3.386   5.112  0.7845 -1.0839  0.1685
  870MOL0     N19939  -0.217   3.360   5.181  0.4374  0.0054  0.1376
  870MOL0     C19940  -0.273   3.439   5.273  0.7689  0.1878  0.4115
  870MOL0     C19941  -0.409   3.421   5.268  0.0297  0.2807 -0.1937
  870MOL0     C19942  -0.505   3.471   5.368  0.0230  0.3918  0.4286
  870MOL0     C19943  -0.518   3.386   5.493  0.0013 -0.4869 -1.0706
  870MOL0     C19944  -0.613   3.456   5.591 -0.3419  0.2661  0.1373
  870MOL0     C19945  -0.674   3.353   5.687 -0.0906  0.1839  0.3921
  870MOL0     O19946  -0.776   3.418   5.766 -0.2566 -0.3985  0.2413
  870MOL0     C19947  -0.740   3.489   5.877 -0.5986  0.2239  0.1959
  870MOL0     C19948  -0.830   3.578   5.932  0.6088  0.1865  0.1700
  870MOL0     C19949  -0.806   3.658   6.037 -0.9668 -0.7388  0.1645
  870MOL0     C19950  -0.921   3.751   6.077 -0.1187  0.0409 -0.3790
  870MOL0     C19951  -0.676   3.660   6.098 -0.8732 -0.1361 -0.2091
  870MOL0     C19952  -0.629   3.753   6.210  0.5920 -0.6837  0.9124
  870MOL0     O19953  -0.506   3.731   6.263 -0.4932  0.2151  0.3363
  870MOL0     C19954  -0.457   3.819   6.354  0.4197  0.5061 -0.0629
  870MOL0     C19955  -0.484   3.818   6.494  0.0254  0.2955 -0.7935
  870MOL0     C19956  -0.445   3.917   6.575 -1.0623 -0.9117 -0.6486
  870MOL0     C19957  -0.346   4.007   6.528  0.5311 -0.2276  0.0611
  870MOL0     O19958  -0.305   4.076   6.636 -0.8462 -0.3030 -0.0831
  870MOL0     C19959  -0.155   4.062   6.649  0.2319  0.5027  0.7919
  870MOL0     C19960  -0.092   4.072   6.788 -1.3212 -0.0876  0.3689
  870MOL0     C19961  -0.100   4.206   6.855 -1.2351 -0.0522 -0.8546
  870MOL0     C19962  -0.027   4.209   6.991 -0.2033 -1.0369 -0.2289
  870MOL0     C19963   0.070   4.323   7.005 -0.3384  0.1374  0.7650
  870MOL0     C19964   0.164   4.329   7.127 -0.1564 -0.5167 -0.0147
  870MOL0     C19965   0.203   4.479   7.161 -0.2927  0.7393 -0.6710
  870MOL0     C19966   0.261   4.535   7.036 -0.1094 -0.7211  0.6892
  870MOL0    Cl19967   0.332   4.692   7.080 -0.2223 -0.3947  0.6916
  870MOL0     C19968  -0.316   4.016   6.392  1.0224  0.9081 -0.2325
  870MOL0     C19969  -0.365   3.916   6.304  0.4990  1.4958 -0.0627
  870MOL0     O19970  -0.704   3.844   6.251 -0.2756 -1.3127  0.2858
  870MOL0     C19971  -0.578   3.572   6.042  0.0804  0.4111  0.2288
  870MOL0     C19972  -0.615   3.491   5.935 -0.2824  0.1299  0.6488
  870MOL0     N19973  -0.429   3.333   5.165  0.2652  1.0038 -0.1637
  870MOL0     N19974  -0.311   3.293   5.117  0.7534 -0.4749 -0.6416
  870MOL0     C19975   0.773   3.757   5.155 -0.7034  0.1441 -0.9671
  870MOL0     C19976   0.896   3.786   5.107  0.2319  0.3201 -0.0662
  870MOL0     C19977   1.337   3.832   5.091 -0.3171 -0.5479  0.3644
  870MOL0     C19978   1.437   3.729   5.102  0.1468 -0.4934 -0.4228
  870MOL0     C19979   1.561   3.744   5.038  0.2978 -0.7598  0.0890
  870MOL0     C19980   1.582   3.857   4.958 -0.2075  0.1215 -0.3541
  870MOL0     O19981   1.708   3.849   4.899  0.0334 -0.9356 -0.0557
  870MOL0     C19982   1.743   3.942   4.794 -0.4751  1.2366 -0.4152
  870MOL0     C19983   1.823   4.056   4.847 -0.5997  0.6490  0.1589
  870MOL0     C19984   1.868   4.137   4.726 -0.5102  0.3268  0.1831
  870MOL0     C19985   1.949   4.271   4.768  0.7891 -0.0884  0.4225
  870MOL0     C19986   1.985   4.332   4.642 -0.8493 -0.5109  0.5848
  870MOL0     C19987   1.985   4.387   4.529  0.5183 -0.6055 -1.3395
  870MOL0     C19988   1.496   3.965   4.953  0.2785  0.1906  0.7332
  870MOL0     C19989   1.369   3.950   5.018  0.9114 -0.2010  1.0369
  870MOL0     C19990   1.265   4.058   4.995  0.2880  0.4488  0.0622
  870MOL0     H19991   1.012   3.934   5.390  0.3117 -0.5557  0.1286
  870MOL0     H19992   0.785   3.856   5.476  4.8718  2.3783  1.3362
  870MOL0     H19993   0.585   3.560   5.394 -1.1659  0.4592  1.4024
  870MOL0     H19994   0.614   3.553   5.222  2.6394  1.2665 -0.6025
  870MOL0     H19995   0.363   3.638   5.188 -3.0586 -2.1540  0.2255
  870MOL0     H19996   0.399   3.484   5.241 -0.0821 -0.0104  0.4485
  870MOL0     H19997   0.311   3.506   5.444 -1.4311 -1.0424 -2.9383
  870MOL0     H19998   0.389   3.658   5.473 -0.1811  1.1605 -0.3204
  870MOL0     H19999   0.146   3.683   5.468 -2.2115 -0.2239 -0.8030
  870MOL0     H20000   0.219   3.763   5.329  1.1210  0.3079  0.7729
  870MOL0     H20001   0.167   3.568   5.173 -1.1161  0.1486 -0.8765
  870MOL0     H20002   0.017   3.621   5.247 -1.0169  0.1816  3.2955
  870MOL0     H20003   0.177   3.384   5.349 -1.0074  0.0945  1.2249
  870MOL0     H20004   0.019   3.416   5.405 -0.6612 -0.8298 -0.8235
  870MOL0     H20005   0.021   3.240   5.237  0.4134  0.1435 -0.6064
  870MOL0     H20006   0.108   3.331   5.117 -1.2656  1.3397 -0.0900
  870MOL0     H20007  -0.089   3.492   5.085 -1.3409 -1.6141 -2.4524
  870MOL0     H20008  -0.103   3.328   5.020  2.1024  0.2817 -0.9280
  870MOL0     H20009  -0.221   3.492   5.352 -0.9915  0.1804  1.6234
  870MOL0     H20010  -0.604   3.484   5.324 -0.8378 -3.6610  0.7967
  870MOL0     H20011  -0.462   3.561   5.413  3.1459  1.4960 -4.0508
  870MOL0     H20012  -0.560   3.288   5.471 -1.6919 -0.5504  1.8320
  870MOL0     H20013  -0.424   3.366   5.546 -1.7145 -1.0102  2.0427
  870MOL0     H20014  -0.563   3.533   5.652 -0.7314  1.8098 -1.4165
  870MOL0     H20015  -0.692   3.509   5.537  0.3221 -0.1100 -1.2359
  870MOL0     H20016  -0.732   3.274   5.640 -2.1431  0.0405  2.8980
  870MOL0     H20017  -0.596   3.301   5.744 -2.2383 -2.7276  0.9029
  870MOL0     H20018  -0.922   3.579   5.873 -0.2903 -0.2287  1.5202
  870MOL0     H20019  -0.899   3.855   6.053  0.9652  0.2588  1.3545
  870MOL0     H20020  -0.943   3.740   6.184 -0.5009  4.5714  0.1996
  870MOL0     H20021  -1.017   3.732   6.027 -1.1053  1.3513  0.9272
  870MOL0     H20022  -0.550   3.750   6.546  1.1792  0.2623  0.7420
  870MOL0     H20023  -0.455   3.911   6.683  1.2662  1.6699 -0.1785
  870MOL0     H20024  -0.127   3.965   6.608  2.2714  1.8292 -1.2645
  870MOL0     H20025  -0.110   4.140   6.586 -0.3325 -2.2216 -3.3196
  870MOL0     H20026  -0.143   3.995   6.847  0.5794 -1.8053 -0.1244
  870MOL0     H20027   0.012   4.043   6.774 -1.2210  0.4569 -0.0553
  870MOL0     H20028  -0.209   4.222   6.858 -1.4574 -1.6143  0.5980
  870MOL0     H20029  -0.043   4.272   6.789  1.0114 -1.0397  0.0206
  870MOL0     H20030   0.035   4.119   7.001  0.5385 -0.6906 -1.5614
  870MOL0     H20031  -0.093   4.205   7.078  1.9968 -2.5239  1.5257
  870MOL0     H20032   0.126   4.328   6.911 -2.1521 -1.7912 -0.5262
  870MOL0     H20033  -0.000   4.407   6.998 -1.9541 -1.2596 -0.8751
  870MOL0     H20034   0.240   4.254   7.106 -1.2464 -1.9859  1.1053
  870MOL0     H20035   0.109   4.283   7.209  0.6601 -0.2508  0.6959
  870MOL0     H20036   0.289   4.481   7.229 -1.2931  0.1641  0.6610
  870MOL0     H20037   0.121   4.544   7.193  2.4516  4.3830 -0.4288
  870MOL0     H20038   0.179   4.549   6.965 -2.0151  0.2122  2.9302
  870MOL0     H20039   0.341   4.474   6.993 -1.8804 -1.1810 -2.2234
  870MOL0     H20040  -0.244   4.092   6.364  0.1523  1.9796  0.3865
  870MOL0     H20041  -0.335   3.903   6.200  0.2613 -2.0866  0.1792
  870MOL0     H20042  -0.475   3.578   6.076  0.5279 -2.6820 -0.2787
  870MOL0     H20043  -0.537   3.442   5.878 -0.6463 -0.0345  0.2875
  870MOL0     H20044   0.713   3.700   5.084  1.0166  0.7802 -3.0426
  870MOL0     H20045   0.928   3.763   5.006 -3.6721 -0.3878 -1.3020
  870MOL0     H20046   1.427   3.636   5.156 -1.9827  0.2052  0.4990
  870MOL0     H20047   1.632   3.661   5.044  0.3969 -0.7507 -0.8646
  870MOL0     H20048   1.798   3.883   4.719  0.8167 -0.0250  1.4335
  870MOL0     H20049   1.649   3.974   4.748 -3.2071 -1.8292  2.4592
  870MOL0     H20050   1.912   4.032   4.904  0.2211 -0.9370 -1.6526
  870MOL0     H20051   1.762   4.123   4.908 -2.0956 -0.6043  0.1116
  870MOL0     H20052   1.933   4.065   4.677  4.1620  2.1644  2.9504
  870MOL0     H20053   1.786   4.178   4.667 -1.5054 -2.0894 -0.2006
  870MOL0     H20054   2.042   4.247   4.821  1.8161  1.1445 -0.7755
  870MOL0     H20055   1.888   4.327   4.839 -1.8884 -2.5644  0.2663
  870MOL0     H20056   1.991   4.429   4.431  3.2128  1.3932 -0.4251
  870MOL0     H20057   1.517   4.051   4.890  1.0252  0.0203  0.7411
  870MOL0     H20058   1.320   4.150   4.970 -0.7314  0.9329 -0.4370
  870MOL0     H20059   1.188   4.031   4.923  1.1166 -0.3109 -0.5710
  870MOL0     H20060   1.212   4.098   5.082  0.8859  1.0994  0.1381
  871MOL0     O20061  10.830  10.157   2.989  0.4999  0.4898 -0.2697
  871MOL0     C20062  10.785  10.086   3.079  0.2020  1.5498 -0.5338
  871MOL0     O20063  10.708   9.969   3.060 -0.1594 -0.1419  0.2897
  871MOL0     C20064  10.653   9.962   2.931  0.3483 -0.1773  0.3631
  871MOL0     C20065  10.554  10.056   2.883 -0.4213 -0.4902  0.7889
  871MOL0     C20066  10.518  10.040   2.744  0.2534 -0.1899 -0.1201
  871MOL0     C20067  10.557   9.934   2.669  0.5934  1.4678 -1.0782
  871MOL0     O20068  10.506   9.917   2.544  0.6300  0.6252  0.8462
  871MOL0     C20069  10.358   9.899   2.530 -0.5386 -0.0304  0.2459
  871MOL0     C20070  10.298  10.015   2.452  0.1516  1.2580  0.5413
  871MOL0     C20071  10.365  10.049   2.328 -0.5793 -0.0578  0.8071
  871MOL0     C20072  10.294  10.171   2.261 -0.1474 -0.3274  0.8113
  871MOL0     C20073  10.376  10.222   2.136 -0.5150 -0.3452  0.0137
  871MOL0     C20074  10.303  10.343   2.090  0.9891  0.4865  0.4364
  871MOL0     C20075  10.332  10.372   1.940 -0.5710  0.2748  0.4961
  871MOL0     C20076  10.485  10.418   1.913  0.3425 -0.0011 -0.7317
  871MOL0     N20077  10.502  10.444   1.774 -1.3390  1.0233  0.8017
  871MOL0     C20078  10.452  10.552   1.708  0.0482 -0.3594 -1.1921
  871MOL0     C20079  10.522  10.565   1.591  0.2731 -0.0127 -0.0837
  871MOL0     C20080  10.522  10.667   1.474  0.2309 -0.5274 -0.1100
  871MOL0     C20081  10.432  10.619   1.358 -0.2103  0.0881  0.1604
  871MOL0     C20082  10.280  10.615   1.396 -0.3283  0.6664 -0.4118
  871MOL0     C20083  10.214  10.494   1.480  0.5487 -0.1811  1.5406
  871MOL0     O20084  10.276  10.372   1.453  0.6261  0.2727 -0.7709
  871MOL0     C20085  10.239  10.268   1.533  0.4634 -0.0978 -0.1975
  871MOL0     C20086  10.136  10.267   1.622 -0.0338  0.3415  0.3103
  871MOL0     C20087  10.114  10.159   1.709 -1.2608  0.3024 -0.1275
  871MOL0     C20088  10.011  10.183   1.814  0.1154 -0.0130 -0.3365
  871MOL0     C20089  10.194  10.044   1.705  1.4169  0.4730 -0.3887
  871MOL0     C20090  10.179   9.938   1.809 -0.0275  0.1332 -0.6242
  871MOL0     O20091  10.145   9.972   1.933 -0.1004  0.0341  0.3376
  871MOL0     C20092  10.150   9.880   2.032 -0.2386 -0.5146  0.3244
  871MOL0     C20093  10.253   9.784   2.038  0.0814  0.1553 -0.0636
  871MOL0     C20094  10.249   9.701   2.146 -0.9123  0.4710 -0.4789
  871MOL0     C20095  10.139   9.698   2.245 -0.5970  0.4888 -0.0948
  871MOL0     O20096  10.133   9.610   2.346  0.1129  1.1198 -0.0544
  871MOL0     C20097  10.087   9.475   2.312 -0.6959  0.4480  0.2865
  871MOL0     C20098   9.957   9.472   2.233 -0.0607 -0.8877 -0.9388
  871MOL0     C20099   9.830   9.523   2.305  0.3855  0.2271 -0.0637
  871MOL0     C20100   9.699   9.475   2.228 -0.2495  0.4545 -0.3437
  871MOL0     C20101   9.579   9.508   2.315 -0.5096  0.2745 -1.1071
  871MOL0     C20102   9.448   9.484   2.243 -0.1712  0.4534  0.3298
  871MOL0     C20103   9.331   9.445   2.325  0.5412 -0.5965  0.1615
  871MOL0     C20104   9.308   9.526   2.450 -0.0650  0.0492 -0.3428
  871MOL0    Cl20105   9.256   9.675   2.381 -0.2475  0.1136  0.2455
  871MOL0     C20106  10.049   9.803   2.234 -0.6836 -0.0632 -0.2070
  871MOL0     C20107  10.058   9.894   2.132  0.5199 -0.0854  0.7282
  871MOL0     O20108  10.200   9.820   1.771  0.1661  0.0563 -0.3390
  871MOL0     C20109  10.290  10.040   1.610 -0.6417 -0.0642  0.4395
  871MOL0     C20110  10.316  10.151   1.526  0.2960  0.3554 -0.3698
  871MOL0     N20111  10.621  10.479   1.599 -0.3064  0.5305  0.3388
  871MOL0     N20112  10.611  10.397   1.700 -0.3060  0.7829  0.4369
  871MOL0     C20113  10.639   9.831   2.731  0.6604  0.3237  0.2996
  871MOL0     C20114  10.687   9.847   2.853  0.3998  0.3624  0.3805
  871MOL0     C20115  10.839  10.107   3.216  0.2716 -0.0309 -0.5979
  871MOL0     C20116  10.835  10.002   3.306 -0.0332 -0.1385 -0.7846
  871MOL0     C20117  10.877  10.019   3.438  0.5897 -0.1621 -0.2360
  871MOL0     C20118  10.906  10.145   3.486  0.1346 -0.8774 -1.2027
  871MOL0     O20119  10.910  10.160   3.623 -0.6224 -0.3227 -0.6018
  871MOL0     C20120  10.991  10.272   3.668  0.1128  0.1585 -0.0723
  871MOL0     C20121  11.001  10.259   3.828 -0.4851  0.7348 -0.8475
  871MOL0     C20122  11.060  10.122   3.860  0.2728  0.0187  0.0352
  871MOL0     C20123  11.092  10.122   4.014 -0.4988 -0.0252  0.7234
  871MOL0     C20124  11.207  10.204   4.056  0.0665  0.3554  0.7505
  871MOL0     C20125  11.304  10.266   4.093  0.1883 -0.2342 -0.7549
  871MOL0     C20126  10.916  10.251   3.401 -0.5964 -0.4053  0.3107
  871MOL0     C20127  10.887  10.236   3.264 -0.7070  0.8797  0.3710
  871MOL0     C20128  10.916  10.355   3.172  0.0602  1.2741  0.9313
  871MOL0     H20129  10.525  10.140   2.945 -0.8391  0.0293 -0.0984
  871MOL0     H20130  10.452  10.118   2.709  1.2466  0.7617  0.0774
  871MOL0     H20131  10.306   9.880   2.625  0.5914 -3.4445  0.3447
  871MOL0     H20132  10.338   9.813   2.465  0.5339  1.8818 -2.8275
  871MOL0     H20133  10.201   9.969   2.432 -0.1409  0.3971  3.4169
  871MOL0     H20134  10.276  10.099   2.519  1.4212 -0.1007  2.8254
  871MOL0     H20135  10.471  10.075   2.322 -0.8086  0.6796 -0.7209
  871MOL0     H20136  10.351   9.965   2.258 -4.7793 -0.8849  2.3459
  871MOL0     H20137  10.190  10.146   2.240 -1.1396  3.0306  1.1859
  871MOL0     H20138  10.293  10.254   2.332  2.1842  1.3642 -0.9207
  871MOL0     H20139  10.375  10.149   2.055  1.6868 -0.9297  0.4595
  871MOL0     H20140  10.479  10.253   2.154 -0.1013 -0.5514 -1.8696
  871MOL0     H20141  10.194  10.328   2.089  0.8957  1.0886  0.6041
  871MOL0     H20142  10.334  10.423   2.158  5.2549 -0.4213 -0.1585
  871MOL0     H20143  10.271  10.448   1.890 -1.1158  1.0437  2.2774
  871MOL0     H20144  10.315  10.281   1.881  0.4517  2.5088 -3.6512
  871MOL0     H20145  10.509  10.509   1.969  1.7689 -0.6202 -0.2765
  871MOL0     H20146  10.552  10.335   1.937 -0.1770 -0.9827 -2.5201
  871MOL0     H20147  10.377  10.622   1.743  0.0267 -0.5487 -0.8594
  871MOL0     H20148  10.628  10.675   1.445  1.1137  2.1147  3.2269
  871MOL0     H20149  10.488  10.765   1.508  1.8552 -0.3487  1.1743
  871MOL0     H20150  10.439  10.687   1.273  1.3336 -0.9508 -0.5845
  871MOL0     H20151  10.465  10.519   1.329 -1.7433  0.3795 -3.1239
  871MOL0     H20152  10.248  10.706   1.449 -1.4305 -0.4847  0.9656
  871MOL0     H20153  10.229  10.634   1.302  1.7140  1.1753 -1.4750
  871MOL0     H20154  10.223  10.522   1.586  0.7144  3.1149  0.7718
  871MOL0     H20155  10.106  10.490   1.464 -0.1913  5.3480  2.9729
  871MOL0     H20156  10.070  10.352   1.628  1.9469  1.8932  1.0885
  871MOL0     H20157   9.953  10.093   1.835  0.3953 -1.0303 -3.4049
  871MOL0     H20158   9.935  10.257   1.785 -2.4918 -1.6714  1.8190
  871MOL0     H20159  10.048  10.228   1.907  4.5998 -1.0412 -1.4092
  871MOL0     H20160  10.335   9.780   1.967 -0.4974  0.0011 -0.7342
  871MOL0     H20161  10.317   9.616   2.146 -0.1761  1.0291 -1.8899
  871MOL0     H20162  10.164   9.442   2.243  1.0759 -1.6149  3.0398
  871MOL0     H20163  10.066   9.405   2.394 -1.4267 -4.2771 -3.5216
  871MOL0     H20164   9.965   9.549   2.156 -2.1975  1.3179  0.8935
  871MOL0     H20165   9.946   9.370   2.195  3.3170 -1.9777  0.5588
  871MOL0     H20166   9.831   9.632   2.316 -0.6781  0.1972  0.4667
  871MOL0     H20167   9.820   9.486   2.408  0.6921  0.4965  0.0672
  871MOL0     H20168   9.703   9.366   2.216  1.1938  0.3316  0.8912
  871MOL0     H20169   9.697   9.528   2.133 -0.5369  3.8069  1.4031
  871MOL0     H20170   9.591   9.450   2.407 -0.3784 -0.4891 -1.5961
  871MOL0     H20171   9.579   9.614   2.344  1.8795 -0.0143  0.2644
  871MOL0     H20172   9.469   9.402   2.173  3.2799  0.3316  1.2988
  871MOL0     H20173   9.427   9.570   2.178  2.1016  0.2660 -0.7795
  871MOL0     H20174   9.347   9.340   2.351  0.5995 -0.9605 -1.2352
  871MOL0     H20175   9.240   9.456   2.265  0.0129  0.3235  1.0943
  871MOL0     H20176   9.403   9.535   2.503 -0.1359 -0.1948 -0.1724
  871MOL0     H20177   9.231   9.482   2.515 -0.9125  1.1548 -0.5688
  871MOL0     H20178   9.973   9.826   2.309 -1.0172 -0.8449 -0.2991
  871MOL0     H20179   9.990   9.978   2.138 -0.7813 -0.9014 -1.3161
  871MOL0     H20180  10.341   9.945   1.591 -2.3343 -1.0173  0.4935
  871MOL0     H20181  10.396  10.145   1.453  0.1556  4.8782 -1.2177
  871MOL0     H20182  10.656   9.750   2.661  1.9401  2.0655 -1.5329
  871MOL0     H20183  10.752   9.771   2.895 -0.5257 -1.5133 -1.4202
  871MOL0     H20184  10.825   9.897   3.279 -0.8461 -0.1719 -0.3784
  871MOL0     H20185  10.892   9.933   3.502 -0.5611  1.5497  2.5395
  871MOL0     H20186  11.093  10.260   3.629  0.6246 -0.5362  1.4177
  871MOL0     H20187  10.951  10.368   3.634  0.9038  0.4033 -0.3483
  871MOL0     H20188  10.899  10.269   3.867 -1.8092 -1.2250 -3.4483
  871MOL0     H20189  11.061  10.343   3.863  0.9103  0.0511 -1.5225
  871MOL0     H20190  10.995  10.037   3.835  1.1784 -1.2846  1.8831
  871MOL0     H20191  11.153  10.095   3.809 -0.4210 -2.4377 -0.0515
  871MOL0     H20192  11.109  10.018   4.044  0.4659 -1.1648 -3.1336
  871MOL0     H20193  10.994  10.148   4.056 -2.1270 -2.0596 -1.4811
  871MOL0     H20194  11.391  10.326   4.109 -1.7323  2.3532  0.6804
  871MOL0     H20195  10.947  10.350   3.433 -0.1825 -1.6581  4.3211
  871MOL0     H20196  11.014  10.334   3.127 -0.9730 -0.4154 -0.6741
  871MOL0     H20197  10.854  10.377   3.085  1.2216 -0.6922 -0.4827
  871MOL0     H20198  10.916  10.449   3.227 -3.8458  1.3214  1.1083
  872MOL0     O20199   4.094   8.078   2.705  0.2893  0.2274  0.3499
  872MOL0     C20200   4.205   8.064   2.743 -0.4092 -0.9797 -0.2562
  872MOL0     O20201   4.305   8.022   2.655 -0.0644  0.0545  0.3106
  872MOL0     C20202   4.261   7.936   2.559 -0.1790  0.1016 -0.7210
  872MOL0     C20203   4.287   7.954   2.426 -0.3296  0.0649  0.5035
  872MOL0     C20204   4.230   7.877   2.332  0.1395 -0.0562 -0.0451
  872MOL0     C20205   4.131   7.784   2.361 -0.1067  0.9031 -0.9571
  872MOL0     O20206   4.081   7.698   2.269 -0.1575 -0.2525 -0.6091
  872MOL0     C20207   4.102   7.721   2.135  0.4785  0.3352  0.0776
  872MOL0     C20208   4.005   7.633   2.056 -0.3918  0.2429 -0.1812
  872MOL0     C20209   4.058   7.485   2.061  0.3229 -0.6982 -0.2187
  872MOL0     C20210   3.957   7.399   1.980  0.3121  0.8090  0.1322
  872MOL0     C20211   3.806   7.428   1.997  0.6381  0.9748  0.9766
  872MOL0     C20212   3.720   7.325   1.935  0.5118 -0.0644 -0.7689
  872MOL0     C20213   3.579   7.382   1.908 -0.2056 -0.5031 -0.0055
  872MOL0     C20214   3.566   7.444   1.765 -0.0205 -0.4773  0.3150
  872MOL0     N20215   3.658   7.559   1.743 -0.7753  0.0893  0.7009
  872MOL0     C20216   3.627   7.696   1.743  0.3441 -0.0772 -0.3167
  872MOL0     C20217   3.752   7.746   1.706  0.1918  0.4824  0.1332
  872MOL0     C20218   3.770   7.895   1.686 -0.3317  0.7775 -0.2573
  872MOL0     C20219   3.819   7.953   1.809 -0.3026 -0.4929  0.3342
  872MOL0     C20220   3.713   7.957   1.920  0.0008  0.4583  0.3099
  872MOL0     C20221   3.757   8.047   2.032  0.2264 -1.1494  0.1336
  872MOL0     O20222   3.874   7.989   2.071 -0.5438 -0.0239  0.0178
  872MOL0     C20223   3.951   8.065   2.151  0.0274  0.0377 -0.1661
  872MOL0     C20224   4.038   8.156   2.095 -0.2625 -0.1169 -0.3936
  872MOL0     C20225   4.120   8.237   2.174 -0.9344 -0.1364 -0.5595
  872MOL0     C20226   4.208   8.325   2.090 -0.1527  0.1688 -0.3114
  872MOL0     C20227   4.101   8.234   2.307  0.2377 -0.4593 -0.7046
  872MOL0     C20228   4.188   8.317   2.393  1.0185 -0.0983  0.3341
  872MOL0     O20229   4.265   8.257   2.478 -0.4449 -0.2785  0.2335
  872MOL0     C20230   4.325   8.329   2.585  0.5231  0.8839  0.4615
  872MOL0     C20231   4.464   8.316   2.616  0.1075  0.9668 -0.1596
  872MOL0     C20232   4.518   8.402   2.710 -0.8867 -0.5768 -0.0436
  872MOL0     C20233   4.442   8.488   2.786  0.2740 -0.4107  1.1732
  872MOL0     O20234   4.507   8.552   2.889 -0.0452  0.6611 -0.7607
  872MOL0     C20235   4.456   8.686   2.932 -0.6731  1.0860  0.8331
  872MOL0     C20236   4.562   8.723   3.034 -0.3750  0.4218  0.5925
  872MOL0     C20237   4.530   8.855   3.109  1.0765  0.9439  0.6284
  872MOL0     C20238   4.557   8.979   3.022 -0.1559 -0.9786  0.4025
  872MOL0     C20239   4.504   9.098   3.105 -0.4954  0.0552  0.2952
  872MOL0     C20240   4.528   9.244   3.060  0.0332  0.8686  0.5496
  872MOL0     C20241   4.672   9.280   3.023 -0.3992  0.7735  0.5101
  872MOL0     C20242   4.792   9.237   3.118 -0.4844 -0.1190  0.6950
  872MOL0    Cl20243   4.745   9.251   3.292  0.5477 -0.7284  0.1303
  872MOL0     C20244   4.303   8.487   2.774  0.9308 -0.5096 -0.2211
  872MOL0     C20245   4.250   8.409   2.666  0.4061  0.9304  0.2533
  872MOL0     O20246   4.170   8.435   2.385  0.5129  0.3694  0.7495
  872MOL0     C20247   4.011   8.146   2.373  0.6050  0.3192 -0.0576
  872MOL0     C20248   3.944   8.054   2.294 -0.1236 -0.8915 -0.0998
  872MOL0     N20249   3.837   7.647   1.669  0.2736  0.4060  0.3127
  872MOL0     N20250   3.783   7.536   1.695  0.8147  0.5468  0.3052
  872MOL0     C20251   4.115   7.751   2.502 -0.2813  0.3129 -0.1963
  872MOL0     C20252   4.190   7.821   2.597  0.7392 -1.3799  0.2791
  872MOL0     C20253   4.245   8.079   2.886 -0.7136 -0.3092 -0.7143
  872MOL0     C20254   4.370   8.131   2.919 -0.1573 -0.1657  0.8674
  872MOL0     C20255   4.415   8.166   3.048  0.6766 -0.0818 -0.9736
  872MOL0     C20256   4.316   8.144   3.153 -0.8416  0.7712  0.8169
  872MOL0     O20257   4.348   8.156   3.287  0.6807 -0.1062 -0.2839
  872MOL0     C20258   4.468   8.222   3.327  0.3516 -0.0064 -0.0739
  872MOL0     C20259   4.447   8.239   3.478  0.3341 -0.5227 -0.7194
  872MOL0     C20260   4.586   8.243   3.543 -0.4465  0.3644 -0.0409
  872MOL0     C20261   4.587   8.271   3.696 -0.3796  0.9351  0.3114
  872MOL0     C20262   4.709   8.226   3.763 -0.3188  0.1295 -0.5172
  872MOL0     C20263   4.801   8.171   3.823 -0.1287 -0.6593 -1.4248
  872MOL0     C20264   4.194   8.085   3.118 -0.2345 -0.0911  0.0978
  872MOL0     C20265   4.152   8.047   2.992 -0.4987 -0.9510 -0.1821
  872MOL0     C20266   4.018   7.977   2.986 -0.8436  0.3896 -0.0898
  872MOL0     H20267   4.349   8.036   2.391  0.3348 -1.7020 -2.8990
  872MOL0     H20268   4.266   7.895   2.231 -1.1816 -1.9326 -0.9196
  872MOL0     H20269   4.206   7.715   2.103  0.6374 -0.0176  0.6371
  872MOL0     H20270   4.064   7.820   2.108  1.3397 -0.0004 -2.6583
  872MOL0     H20271   3.900   7.637   2.086 -1.4351 -0.5884 -3.2521
  872MOL0     H20272   4.001   7.657   1.949 -2.1419 -0.2848 -0.2722
  872MOL0     H20273   4.161   7.476   2.025  0.6132 -0.8054  0.6239
  872MOL0     H20274   4.060   7.457   2.167  1.4565  1.0446  0.2490
  872MOL0     H20275   3.978   7.412   1.873  1.5706 -4.1455 -0.4811
  872MOL0     H20276   3.972   7.294   2.005 -0.5903  0.7234  0.3617
  872MOL0     H20277   3.777   7.518   1.941  2.1692  0.2528 -1.1152
  872MOL0     H20278   3.773   7.430   2.101 -0.6319  2.3766  0.5936
  872MOL0     H20279   3.764   7.283   1.844 -1.7484 -0.2455 -1.8315
  872MOL0     H20280   3.694   7.241   2.001  1.1145 -0.1780 -0.6702
  872MOL0     H20281   3.561   7.455   1.987  2.3061 -2.2698  2.4018
  872MOL0     H20282   3.506   7.301   1.910  0.4941 -1.1290  0.9400
  872MOL0     H20283   3.596   7.377   1.684  2.5621  0.4778  0.3978
  872MOL0     H20284   3.462   7.474   1.754  0.3192  0.9696  0.8254
  872MOL0     H20285   3.536   7.745   1.777 -0.1114  0.1984 -1.8686
  872MOL0     H20286   3.673   7.941   1.665  0.3865  2.9431  0.8646
  872MOL0     H20287   3.841   7.906   1.602  2.4955 -0.7544  1.7658
  872MOL0     H20288   3.904   7.896   1.850 -1.3512 -1.7973  0.7695
  872MOL0     H20289   3.868   8.050   1.800  0.3812 -0.5194  2.9031
  872MOL0     H20290   3.623   8.008   1.885 -0.2864  1.4480  2.3338
  872MOL0     H20291   3.685   7.857   1.952  1.9783 -0.5522 -0.9410
  872MOL0     H20292   3.777   8.141   1.979 -0.8373 -2.0220 -1.9180
  872MOL0     H20293   3.687   8.057   2.116  1.0202 -1.2416  0.8206
  872MOL0     H20294   4.057   8.169   1.989 -0.8089  0.5270 -0.4173
  872MOL0     H20295   4.147   8.362   2.006 -1.3794 -0.5555  0.2377
  872MOL0     H20296   4.301   8.271   2.067  0.6459  1.4054 -0.0674
  872MOL0     H20297   4.242   8.410   2.150 -1.0621 -0.4039  1.0518
  872MOL0     H20298   4.521   8.249   2.552  0.1686  0.8704 -0.0047
  872MOL0     H20299   4.625   8.408   2.727 -0.2217 -1.2391 -3.2748
  872MOL0     H20300   4.459   8.752   2.845 -6.5865  0.7150 -0.1000
  872MOL0     H20301   4.358   8.662   2.976  0.6733 -5.5379  1.3023
  872MOL0     H20302   4.569   8.648   3.113  0.4127  0.3476  0.4606
  872MOL0     H20303   4.651   8.733   2.971  0.9487 -2.2235  1.8931
  872MOL0     H20304   4.591   8.861   3.200  0.6078  3.2913  0.8402
  872MOL0     H20305   4.423   8.846   3.130  0.5851 -5.2381 -2.2804
  872MOL0     H20306   4.501   8.973   2.928  1.3817  0.2285 -0.6424
  872MOL0     H20307   4.660   8.989   2.985 -0.9935  0.3289 -1.8089
  872MOL0     H20308   4.395   9.098   3.116 -0.8492 -0.4125 -2.4754
  872MOL0     H20309   4.550   9.091   3.204 -2.3355 -0.1864  1.1687
  872MOL0     H20310   4.500   9.310   3.142  2.2388  1.5317  0.8457
  872MOL0     H20311   4.459   9.252   2.976 -2.2090 -3.5253  1.6884
  872MOL0     H20312   4.680   9.389   3.014  0.6264  0.6196 -0.8407
  872MOL0     H20313   4.691   9.239   2.923 -0.4626 -0.4636  0.9946
  872MOL0     H20314   4.887   9.282   3.086  0.1413 -1.0970  1.1217
  872MOL0     H20315   4.811   9.131   3.102  0.8176 -0.5661  4.2598
  872MOL0     H20316   4.235   8.536   2.842 -0.5382 -3.3086  0.4880
  872MOL0     H20317   4.143   8.421   2.654  0.0974  0.0523  1.8506
  872MOL0     H20318   4.002   8.134   2.480 -3.2383 -0.2729 -0.3012
  872MOL0     H20319   3.876   7.980   2.336 -0.1961 -0.4404  0.5988
  872MOL0     H20320   4.044   7.677   2.539 -1.7127  1.9010  0.3508
  872MOL0     H20321   4.168   7.782   2.696 -0.0212 -1.0968  0.2325
  872MOL0     H20322   4.432   8.149   2.832 -1.5693  2.4935  0.3173
  872MOL0     H20323   4.514   8.210   3.054 -0.4777  3.0823 -2.3825
  872MOL0     H20324   4.562   8.170   3.308 -0.3412 -1.0665 -0.7205
  872MOL0     H20325   4.479   8.315   3.270  0.9491 -1.3593 -2.3400
  872MOL0     H20326   4.398   8.151   3.520 -0.7726  0.4771  0.1268
  872MOL0     H20327   4.399   8.333   3.504  2.9319  1.2886 -1.9931
  872MOL0     H20328   4.622   8.142   3.525  0.5423  0.3228  1.8822
  872MOL0     H20329   4.646   8.324   3.499  0.6662 -0.7489 -0.6133
  872MOL0     H20330   4.501   8.223   3.742  0.7745 -1.5288  0.0448
  872MOL0     H20331   4.591   8.380   3.705 -0.0968  0.9643 -0.1429
  872MOL0     H20332   4.868   8.116   3.885 -2.5775 -2.5435 -0.2742
  872MOL0     H20333   4.124   8.080   3.201 -0.2143  1.9931  0.2926
  872MOL0     H20334   3.975   7.956   3.084 -1.7129 -2.7062 -1.0233
  872MOL0     H20335   3.941   8.030   2.930 -3.7997 -1.3557  2.0250
  872MOL0     H20336   4.018   7.874   2.948  1.7395 -1.1378  3.4670
  873MOL0     O20337   7.830  11.454   6.603 -0.9637 -0.1517 -0.2339
  873MOL0     C20338   7.722  11.410   6.596  0.7412 -0.6465 -0.1628
  873MOL0     O20339   7.606  11.483   6.603 -0.1206 -0.3427 -0.3624
  873MOL0     C20340   7.604  11.617   6.605  0.3635 -0.5740  0.0617
  873MOL0     C20341   7.680  11.689   6.698 -0.1676  0.0050 -0.4824
  873MOL0     C20342   7.669  11.832   6.711  1.3712 -0.2586  0.3986
  873MOL0     C20343   7.590  11.893   6.611 -0.0530 -0.5657  0.2718
  873MOL0     O20344   7.557  12.027   6.609  1.3265 -0.1517 -0.1918
  873MOL0     C20345   7.599  12.124   6.700 -0.1809  0.2179  0.0994
  873MOL0     C20346   7.486  12.135   6.813 -0.4344  0.4835  0.5180
  873MOL0     C20347   7.497  12.034   6.927 -0.3400 -0.2462  0.3973
  873MOL0     C20348   7.398  12.054   7.033 -0.0094 -0.1547 -0.7548
  873MOL0     C20349   7.438  12.029   7.184 -0.2680 -0.1357 -0.7859
  873MOL0     C20350   7.464  11.878   7.214  0.5896 -0.8682  0.4698
  873MOL0     C20351   7.453  11.865   7.368 -0.8912  0.2490 -0.5632
  873MOL0     C20352   7.543  11.769   7.435 -0.6237 -1.5861 -0.8181
  873MOL0     N20353   7.683  11.811   7.420 -0.1221 -0.4034 -0.0133
  873MOL0     C20354   7.737  11.936   7.395 -0.0450 -0.0909  0.0630
  873MOL0     C20355   7.868  11.918   7.388  0.0064 -0.2769  0.9371
  873MOL0     C20356   7.963  12.033   7.369  0.5352  0.1310  1.0735
  873MOL0     C20357   8.013  12.050   7.219 -0.3941 -0.9041 -1.2043
  873MOL0     C20358   8.037  11.916   7.153  0.3155  0.2802  0.8750
  873MOL0     C20359   8.104  11.937   7.013 -0.8370  0.5089 -0.4521
  873MOL0     O20360   8.231  12.003   7.026  0.0367  0.3419 -0.3321
  873MOL0     C20361   8.296  12.016   6.908 -0.9395  1.0538 -0.9943
  873MOL0     C20362   8.305  12.144   6.847 -1.0774 -0.0527 -0.2576
  873MOL0     C20363   8.369  12.159   6.720  0.4740  0.2073  0.1777
  873MOL0     C20364   8.362  12.297   6.668  0.5352  0.5579 -0.2513
  873MOL0     C20365   8.424  12.041   6.650  0.9665  0.1094  0.0012
  873MOL0     C20366   8.487  12.042   6.513  0.8619 -0.3982  0.7876
  873MOL0     O20367   8.481  11.932   6.427 -0.0768 -0.6283  0.4502
  873MOL0     C20368   8.374  11.862   6.403 -0.0991  0.3659 -0.2959
  873MOL0     C20369   8.251  11.917   6.376  0.2404  0.2418  0.2444
  873MOL0     C20370   8.139  11.834   6.351  0.3500  1.2466 -0.3960
  873MOL0     C20371   8.146  11.695   6.353  0.1658 -0.1999 -0.1139
  873MOL0     O20372   8.031  11.628   6.317 -0.3774 -0.6857 -0.1611
  873MOL0     C20373   8.033  11.484   6.341  0.1204 -0.8660 -0.0271
  873MOL0     C20374   8.089  11.411   6.214 -0.0445  0.4861  0.5178
  873MOL0     C20375   8.085  11.264   6.236 -0.5174  0.6152 -0.3738
  873MOL0     C20376   8.215  11.221   6.292  0.0040 -0.0953  0.4064
  873MOL0     C20377   8.233  11.067   6.297 -0.5282 -0.3888 -0.0375
  873MOL0     C20378   8.367  11.034   6.363  0.2809 -0.0390  0.2967
  873MOL0     C20379   8.394  10.875   6.364  1.1935 -0.4541  0.1911
  873MOL0     C20380   8.526  10.833   6.403 -0.6121  0.1475  0.3525
  873MOL0    Cl20381   8.567  10.654   6.403  0.0271 -0.0481  0.1268
  873MOL0     C20382   8.277  11.644   6.371  0.9484 -0.4785 -0.2148
  873MOL0     C20383   8.384  11.725   6.397  0.6105  0.4367  0.0893
  873MOL0     O20384   8.542  12.151   6.492 -0.2981  0.4337  0.7452
  873MOL0     C20385   8.403  11.915   6.712  0.3447  0.1901 -0.0220
  873MOL0     C20386   8.350  11.905   6.835 -0.2189  0.1086  0.2318
  873MOL0     N20387   7.901  11.782   7.404  0.4626  0.4932  0.8192
  873MOL0     N20388   7.792  11.721   7.427  0.0845  0.5571  0.4791
  873MOL0     C20389   7.516  11.829   6.518  0.3123 -0.0631  0.7660
  873MOL0     C20390   7.518  11.689   6.518 -0.3736 -0.0882  0.1082
  873MOL0     C20391   7.706  11.267   6.586 -0.6408  0.4729 -0.0178
  873MOL0     C20392   7.580  11.217   6.575 -0.0681  0.2781  0.3177
  873MOL0     C20393   7.547  11.078   6.549  0.0679 -0.4941  0.1402
  873MOL0     C20394   7.649  10.987   6.544 -0.1451  0.4426 -0.8454
  873MOL0     O20395   7.645  10.860   6.528  0.0156 -0.4053  0.5447
  873MOL0     C20396   7.523  10.779   6.531  0.0093 -0.0936 -0.2224
  873MOL0     C20397   7.524  10.698   6.401  0.6276 -0.6992  0.3528
  873MOL0     C20398   7.489  10.782   6.285  0.0874  1.0976  1.4067
  873MOL0     C20399   7.463  10.705   6.147 -0.5673  0.1143 -0.8939
  873MOL0     C20400   7.391  10.801   6.067 -1.1807 -0.2341 -0.0058
  873MOL0     C20401   7.339  10.875   5.991  0.6425 -0.1368  0.3545
  873MOL0     C20402   7.779  11.037   6.562  0.5159  0.1427  0.1276
  873MOL0     C20403   7.807  11.171   6.587 -0.9253 -0.7060 -1.0693
  873MOL0     C20404   7.954  11.207   6.625  0.3008  0.3662 -0.3229
  873MOL0     H20405   7.749  11.651   6.773 -1.8732 -0.6674  0.8147
  873MOL0     H20406   7.719  11.896   6.782 -1.4252  3.2544 -0.4876
  873MOL0     H20407   7.603  12.221   6.650 -0.3970 -0.9375 -2.2879
  873MOL0     H20408   7.701  12.111   6.736  0.6292  1.7152 -1.5027
  873MOL0     H20409   7.506  12.240   6.839  1.0811  0.2211  0.4968
  873MOL0     H20410   7.384  12.130   6.773 -0.5289  1.9970  0.4862
  873MOL0     H20411   7.500  11.930   6.894  0.3870 -0.4384  1.0186
  873MOL0     H20412   7.595  12.059   6.970  0.7424 -1.8859 -0.9711
  873MOL0     H20413   7.363  12.157   7.022 -2.1936 -1.0262 -2.7793
  873MOL0     H20414   7.312  11.995   7.001  0.1783 -0.1928 -1.1875
  873MOL0     H20415   7.349  12.064   7.236  0.3546 -0.3690  0.4673
  873MOL0     H20416   7.525  12.089   7.214  0.4725 -0.4971 -2.1368
  873MOL0     H20417   7.401  11.814   7.152 -0.0303 -0.2171  0.4188
  873MOL0     H20418   7.563  11.849   7.175  0.3955  0.5280 -1.1973
  873MOL0     H20419   7.350  11.839   7.395 -0.7632  2.2246  2.2026
  873MOL0     H20420   7.475  11.960   7.418  3.0598 -2.4126  3.5361
  873MOL0     H20421   7.523  11.779   7.542  2.1889  2.1629 -0.4467
  873MOL0     H20422   7.552  11.667   7.396  0.4780 -0.9719 -2.2957
  873MOL0     H20423   7.691  12.033   7.378 -3.8444 -1.5181  1.2907
  873MOL0     H20424   8.043  12.017   7.441  0.6290 -0.1915  0.8988
  873MOL0     H20425   7.916  12.126   7.401 -1.7308 -0.1345 -1.1244
  873MOL0     H20426   7.936  12.110   7.169 -0.9376 -0.4190  0.1747
  873MOL0     H20427   8.109  12.103   7.225 -1.5636  1.1882  0.2149
  873MOL0     H20428   8.113  11.869   7.215 -1.8506 -0.7033  2.9268
  873MOL0     H20429   7.950  11.851   7.155  1.7462 -2.1056 -2.8622
  873MOL0     H20430   8.121  11.841   6.963 -0.4862 -0.6030  1.6969
  873MOL0     H20431   8.036  11.992   6.947 -1.1381  0.3327 -0.2906
  873MOL0     H20432   8.269  12.234   6.897 -0.9579  1.6363 -3.0130
  873MOL0     H20433   8.295  12.297   6.582 -0.8500  1.8845  0.7753
  873MOL0     H20434   8.461  12.332   6.638  1.7452 -1.3231  1.2815
  873MOL0     H20435   8.318  12.367   6.739  1.4488 -1.4084  2.4281
  873MOL0     H20436   8.234  12.023   6.392 -1.1502 -0.3535  3.4365
  873MOL0     H20437   8.039  11.872   6.335  0.4818  0.2102 -5.0861
  873MOL0     H20438   8.093  11.463   6.429  0.9761 -0.2061 -0.4391
  873MOL0     H20439   7.930  11.450   6.357  0.3070 -0.6637  1.7876
  873MOL0     H20440   8.039  11.443   6.122  0.0870 -1.2666 -0.2036
  873MOL0     H20441   8.191  11.442   6.187 -0.5204  1.2088 -0.5571
  873MOL0     H20442   8.072  11.222   6.135  4.7026  1.0052 -1.4906
  873MOL0     H20443   7.997  11.239   6.295 -0.2392  1.7344  0.5326
  873MOL0     H20444   8.218  11.270   6.390  0.3529 -0.0705  0.3853
  873MOL0     H20445   8.301  11.264   6.239  1.3187 -0.7908  1.8917
  873MOL0     H20446   8.155  11.026   6.362 -3.7914  1.0711 -2.7222
  873MOL0     H20447   8.246  11.018   6.200  4.3366  0.0637  0.1481
  873MOL0     H20448   8.363  11.064   6.468 -0.6235 -1.4625  0.6929
  873MOL0     H20449   8.454  11.088   6.325  1.7496 -1.8047  1.0071
  873MOL0     H20450   8.363  10.834   6.268  0.3458 -0.6547  0.5358
  873MOL0     H20451   8.326  10.825   6.434  0.5591  0.8493  0.5577
  873MOL0     H20452   8.543  10.871   6.505 -0.6250 -0.6669  0.6690
  873MOL0     H20453   8.591  10.893   6.339 -2.5196  0.6185 -1.2249
  873MOL0     H20454   8.294  11.538   6.354 -1.3641 -1.0474  0.6376
  873MOL0     H20455   8.479  11.674   6.410 -1.0233 -2.0709  3.9717
  873MOL0     H20456   8.434  11.829   6.652 -1.8780 -0.1617 -0.7782
  873MOL0     H20457   8.330  11.806   6.875 -4.0529  0.7415  0.3094
  873MOL0     H20458   7.459  11.882   6.442 -2.2828 -1.4565  1.5932
  873MOL0     H20459   7.448  11.648   6.446 -0.6628  2.2258 -1.0019
  873MOL0     H20460   7.487  11.273   6.569 -0.3293 -0.0963  0.7898
  873MOL0     H20461   7.441  11.059   6.536 -0.0909 -0.2030  0.9309
  873MOL0     H20462   7.505  10.712   6.615 -3.2215 -1.0864 -1.5243
  873MOL0     H20463   7.438  10.848   6.529  1.0371  1.2071 -0.1778
  873MOL0     H20464   7.453  10.614   6.401 -0.1299 -0.0655  0.4286
  873MOL0     H20465   7.621  10.654   6.375  0.2259 -1.3695 -0.0370
  873MOL0     H20466   7.398  10.839   6.308 -2.0686 -1.9575  1.0386
  873MOL0     H20467   7.574  10.845   6.260  0.0607 -0.0769 -2.1892
  873MOL0     H20468   7.411  10.611   6.166  0.0210 -0.0678 -0.1059
  873MOL0     H20469   7.561  10.684   6.104 -1.1662 -1.2410 -1.6299
  873MOL0     H20470   7.300  10.946   5.921  1.4283 -0.3040 -0.2628
  873MOL0     H20471   7.850  10.955   6.564  0.4287 -0.2181 -3.6940
  873MOL0     H20472   7.951  11.256   6.723 -0.8809 -0.9147  0.3090
  873MOL0     H20473   8.000  11.108   6.625 -1.4933 -0.5036 -0.3594
  873MOL0     H20474   7.999  11.267   6.546  0.1052  0.5531 -0.2931
  874MOL0     O20475   2.447   0.121   2.232 -0.2157  0.3424  0.3986
  874MOL0     C20476   2.456   0.119   2.108  0.6406 -0.8728 -0.2511
  874MOL0     O20477   2.440   0.017   2.025  0.2916 -0.5787 -0.5262
  874MOL0     C20478   2.453  -0.116   2.063 -0.7384  0.1992 -1.0886
  874MOL0     C20479   2.539  -0.163   2.165  0.1019 -0.4161  0.3968
  874MOL0     C20480   2.547  -0.300   2.193  0.0506  0.0047  0.0071
  874MOL0     C20481   2.468  -0.397   2.127  0.2526  0.1179  1.2964
  874MOL0     O20482   2.478  -0.532   2.155 -0.1700  0.4849 -0.3120
  874MOL0     C20483   2.369  -0.581   2.239  0.4151 -0.3952 -0.4132
  874MOL0     C20484   2.414  -0.602   2.382  0.0507  0.8417  0.4406
  874MOL0     C20485   2.344  -0.727   2.445 -0.2110  0.4092  0.6899
  874MOL0     C20486   2.364  -0.718   2.591  0.8472 -0.6885  0.2503
  874MOL0     C20487   2.304  -0.826   2.677  0.3960 -0.6349 -0.9139
  874MOL0     C20488   2.163  -0.804   2.704 -0.2472 -0.4320 -0.1989
  874MOL0     C20489   2.094  -0.912   2.790  0.1567  1.0963  0.6355
  874MOL0     C20490   2.129  -0.896   2.937  0.5433  0.9450 -1.6084
  874MOL0     N20491   2.036  -0.981   3.014 -0.8300  0.1581 -0.0733
  874MOL0     C20492   2.018  -1.116   2.984  0.2959 -1.1771  0.6042
  874MOL0     C20493   1.906  -1.143   3.047 -0.5132  0.3478 -0.1778
  874MOL0     C20494   1.855  -1.276   3.088 -0.5990  0.1834  0.5818
  874MOL0     C20495   1.831  -1.367   2.979 -0.2747  0.6477 -0.1344
  874MOL0     C20496   1.709  -1.347   2.889 -0.5120  0.8026 -0.4474
  874MOL0     C20497   1.679  -1.447   2.780  0.1522  0.6575 -0.0603
  874MOL0     O20498   1.798  -1.510   2.724 -0.0968  0.6653 -0.7476
  874MOL0     C20499   1.869  -1.427   2.632 -0.1099 -0.1541  0.4941
  874MOL0     C20500   1.987  -1.486   2.596  0.3872  0.8865  0.1501
  874MOL0     C20501   2.066  -1.423   2.498 -0.5097 -0.2496  0.0233
  874MOL0     C20502   2.200  -1.487   2.476  0.3721 -0.6976  0.1842
  874MOL0     C20503   2.028  -1.299   2.436 -1.5068 -0.2247  0.5528
  874MOL0     C20504   2.117  -1.212   2.357  0.3346  0.1298  0.5310
  874MOL0     O20505   2.198  -1.280   2.266 -0.1908 -0.7508 -0.5896
  874MOL0     C20506   2.310  -1.213   2.223 -0.0838  0.8123  1.0648
  874MOL0     C20507   2.401  -1.124   2.292  0.4778 -0.2163  0.1124
  874MOL0     C20508   2.486  -1.044   2.220 -0.5817  0.2097 -0.1077
  874MOL0     C20509   2.510  -1.059   2.085  0.3021  0.0609  0.4062
  874MOL0     O20510   2.599  -0.994   2.002 -0.0607 -0.6371 -0.4610
  874MOL0     C20511   2.628  -0.863   2.047 -0.2269 -1.3750 -0.1693
  874MOL0     C20512   2.683  -0.789   1.923  0.4044 -0.2834  0.1503
  874MOL0     C20513   2.786  -0.679   1.961  0.1670  0.3202  0.1777
  874MOL0     C20514   2.860  -0.607   1.845 -0.6841  0.1228  0.3717
  874MOL0     C20515   2.888  -0.464   1.885 -0.1193 -0.6399  0.3600
  874MOL0     C20516   2.981  -0.406   1.768  0.4230 -0.0640 -0.7603
  874MOL0     C20517   3.060  -0.278   1.814  1.0028  0.7770  0.1468
  874MOL0     C20518   3.145  -0.233   1.691  1.2927 -0.8688 -0.4430
  874MOL0    Cl20519   3.232  -0.088   1.737 -0.6112  0.4803  0.0913
  874MOL0     C20520   2.431  -1.160   2.022 -0.3881 -0.0130  0.2147
  874MOL0     C20521   2.327  -1.228   2.084  0.2407 -0.2653 -1.3699
  874MOL0     O20522   2.095  -1.091   2.365  0.0077 -0.0894  0.3365
  874MOL0     C20523   1.907  -1.243   2.479 -0.1854 -0.2323 -0.3081
  874MOL0     C20524   1.830  -1.303   2.578  1.2791 -0.3802  0.5292
  874MOL0     N20525   1.848  -1.033   3.107 -0.5579  0.3203  0.2148
  874MOL0     N20526   1.933  -0.933   3.090  0.2400 -0.4776  0.2421
  874MOL0     C20527   2.375  -0.348   2.042 -1.3407  0.9402  0.9475
  874MOL0     C20528   2.367  -0.214   2.008 -0.1346  0.7043  1.0421
  874MOL0     C20529   2.501   0.241   2.034 -0.4379 -0.4392  0.4017
  874MOL0     C20530   2.506   0.237   1.892  1.0247 -0.6221  0.0248
  874MOL0     C20531   2.549   0.353   1.823 -0.4324  0.1761 -0.0181
  874MOL0     C20532   2.591   0.473   1.885 -0.3526 -0.4720 -0.5380
  874MOL0     O20533   2.647   0.586   1.825 -0.2396 -0.4481 -0.2036
  874MOL0     C20534   2.603   0.620   1.696  0.4581  0.1815 -0.2951
  874MOL0     C20535   2.674   0.745   1.650  0.7198  0.1367 -0.7241
  874MOL0     C20536   2.806   0.697   1.602  0.2447  0.0215  0.3876
  874MOL0     C20537   2.865   0.811   1.516  0.6040 -1.1479  0.1191
  874MOL0     C20538   2.800   0.793   1.383 -0.0394 -0.5295 -0.1087
  874MOL0     C20539   2.755   0.776   1.272  0.0400  0.5943  0.0715
  874MOL0     C20540   2.575   0.473   2.028 -0.2105 -0.4934 -0.1701
  874MOL0     C20541   2.526   0.363   2.104  0.1328  0.1665  0.4307
  874MOL0     C20542   2.518   0.388   2.248 -0.3770 -0.3383 -0.5561
  874MOL0     H20543   2.596  -0.089   2.220  0.0262 -0.4730  0.5527
  874MOL0     H20544   2.619  -0.315   2.273 -1.6940  3.0156  2.4343
  874MOL0     H20545   2.324  -0.674   2.205 -3.1271  0.7202  0.7544
  874MOL0     H20546   2.286  -0.510   2.250 -2.2722 -3.3204 -0.5218
  874MOL0     H20547   2.523  -0.605   2.380  0.2946  4.8801 -1.1599
  874MOL0     H20548   2.384  -0.515   2.441 -1.8789  1.8979 -1.9132
  874MOL0     H20549   2.238  -0.734   2.419 -0.4540 -1.7966  2.0209
  874MOL0     H20550   2.379  -0.824   2.408 -1.8824 -2.0759  4.9198
  874MOL0     H20551   2.469  -0.709   2.618  0.6747 -2.3380  1.6929
  874MOL0     H20552   2.327  -0.619   2.618 -1.1725 -1.4592  0.5141
  874MOL0     H20553   2.357  -0.829   2.773 -3.1721 -0.8586  1.2381
  874MOL0     H20554   2.309  -0.925   2.631  0.7400  0.4338 -3.3479
  874MOL0     H20555   2.161  -0.702   2.742 -3.1877 -0.4252 -0.1413
  874MOL0     H20556   2.113  -0.809   2.607  0.7820 -1.7554 -0.6834
  874MOL0     H20557   2.108  -1.009   2.740 -1.3157  0.0673  2.1279
  874MOL0     H20558   1.985  -0.898   2.791 -0.7428 -3.6480 -1.8565
  874MOL0     H20559   2.236  -0.914   2.952  0.3252  0.3315 -0.7304
  874MOL0     H20560   2.123  -0.791   2.966  1.8598  0.2363  1.7469
  874MOL0     H20561   2.084  -1.184   2.930  1.2948  0.0702  0.2117
  874MOL0     H20562   1.765  -1.263   3.149 -1.9854  0.4362 -1.4266
  874MOL0     H20563   1.934  -1.327   3.143  1.7673  1.5975 -1.3327
  874MOL0     H20564   1.924  -1.379   2.923 -0.4055  1.0210 -0.4371
  874MOL0     H20565   1.812  -1.467   3.020 -1.9195 -0.4785 -3.2354
  874MOL0     H20566   1.625  -1.332   2.958  1.6932 -2.5858  3.4174
  874MOL0     H20567   1.727  -1.252   2.838  0.7556 -0.4553 -2.4936
  874MOL0     H20568   1.613  -1.521   2.827 -1.1961  0.0496 -2.6899
  874MOL0     H20569   1.613  -1.396   2.710  1.0802  0.7964 -0.8493
  874MOL0     H20570   2.019  -1.581   2.638 -0.7488  0.6914  0.6023
  874MOL0     H20571   2.282  -1.416   2.487  0.0763 -0.0551 -1.4299
  874MOL0     H20572   2.211  -1.517   2.371 -3.9278 -1.4230 -0.2502
  874MOL0     H20573   2.216  -1.580   2.531 -1.4251 -2.1426 -1.5939
  874MOL0     H20574   2.396  -1.093   2.396  0.6676  0.5736 -0.1098
  874MOL0     H20575   2.547  -0.963   2.259 -2.1525  2.2474 -1.6443
  874MOL0     H20576   2.539  -0.810   2.082  0.9468  0.9619 -0.5467
  874MOL0     H20577   2.705  -0.868   2.124  0.2665 -0.3274 -0.5840
  874MOL0     H20578   2.721  -0.867   1.855  1.8559  1.7854 -1.5396
  874MOL0     H20579   2.594  -0.747   1.874 -0.8621 -3.1552 -0.2391
  874MOL0     H20580   2.868  -0.722   2.020 -0.3203  0.2880  0.8361
  874MOL0     H20581   2.730  -0.615   2.029  1.5121  1.0062  0.6700
  874MOL0     H20582   2.782  -0.628   1.771 -0.0123 -3.9866  0.6166
  874MOL0     H20583   2.953  -0.652   1.809  0.3497  1.1728  1.6276
  874MOL0     H20584   2.795  -0.412   1.909  0.1604 -0.7032  1.6167
  874MOL0     H20585   2.947  -0.467   1.977 -0.6271 -0.3096  0.6965
  874MOL0     H20586   2.922  -0.377   1.680  1.3063  2.7200 -0.5315
  874MOL0     H20587   3.060  -0.479   1.747  0.7347  0.2790 -0.7856
  874MOL0     H20588   3.127  -0.306   1.896  1.6686 -0.6067 -0.8182
  874MOL0     H20589   2.993  -0.198   1.845  1.4834  0.3834  2.3428
  874MOL0     H20590   3.081  -0.219   1.604  2.0955  1.1678 -0.7515
  874MOL0     H20591   3.222  -0.310   1.677 -0.3341 -2.7203  0.2124
  874MOL0     H20592   2.436  -1.178   1.915 -0.1492  0.1642  0.1951
  874MOL0     H20593   2.278  -1.300   2.019 -1.3811 -0.1533 -0.3127
  874MOL0     H20594   1.865  -1.150   2.441  0.0672  0.2178  0.4781
  874MOL0     H20595   1.735  -1.251   2.587 -0.4406 -2.0098 -4.4934
  874MOL0     H20596   2.320  -0.426   1.989  1.6514  0.0985 -1.2183
  874MOL0     H20597   2.306  -0.183   1.924 -0.5343 -2.0553  0.2028
  874MOL0     H20598   2.482   0.148   1.835  0.1789 -0.0531 -0.5287
  874MOL0     H20599   2.569   0.357   1.717  1.7121 -1.5951  0.2707
  874MOL0     H20600   2.622   0.536   1.629  0.3443  0.8609 -1.2107
  874MOL0     H20601   2.494   0.632   1.703  0.5990  2.2284 -0.9079
  874MOL0     H20602   2.686   0.819   1.730  2.8670  0.6015 -1.4314
  874MOL0     H20603   2.607   0.785   1.573 -1.2852 -2.4052 -0.4586
  874MOL0     H20604   2.877   0.675   1.682  1.4623 -1.7513 -1.1020
  874MOL0     H20605   2.801   0.605   1.544 -0.5638  0.1705  0.2095
  874MOL0     H20606   2.972   0.794   1.500  0.5255 -0.1190 -1.8316
  874MOL0     H20607   2.836   0.911   1.550 -0.5199 -0.4716 -2.5208
  874MOL0     H20608   2.711   0.767   1.175 -0.5069  0.9872  0.2795
  874MOL0     H20609   2.607   0.562   2.082  2.0844 -0.8526 -0.8014
  874MOL0     H20610   2.592   0.335   2.309 -2.3195  1.2215  3.5358
  874MOL0     H20611   2.517   0.495   2.268 -0.4027 -0.4366 -0.0208
  874MOL0     H20612   2.419   0.344   2.263 -0.0722 -0.5095  1.2345
  875MOL0     O20613  10.411   1.833   0.974  0.6653 -0.0073 -0.3606
  875MOL0     C20614  10.349   1.922   1.039 -0.1712  0.8018  0.9235
  875MOL0     O20615  10.218   1.916   1.076 -0.0968  0.2104  0.6275
  875MOL0     C20616  10.164   1.791   1.107  0.5829  0.4796  0.6093
  875MOL0     C20617  10.109   1.714   1.007  0.2630  0.0010  0.4713
  875MOL0     C20618  10.052   1.590   1.034 -0.0929 -0.9772 -0.0066
  875MOL0     C20619  10.054   1.542   1.167 -0.7699 -1.2815 -0.6943
  875MOL0     O20620  10.007   1.415   1.200 -1.0037 -0.1419 -0.4621
  875MOL0     C20621   9.975   1.334   1.082  0.5492  0.0862 -0.5587
  875MOL0     C20622   9.943   1.193   1.136  0.7199 -0.3472  0.3947
  875MOL0     C20623   9.813   1.192   1.216 -0.1385  0.0659  0.4699
  875MOL0     C20624   9.797   1.060   1.286  1.0747 -0.2584 -0.9033
  875MOL0     C20625   9.658   1.014   1.331  0.2447 -0.4924 -0.3147
  875MOL0     C20626   9.582   1.113   1.418 -0.3564  0.5657  0.3931
  875MOL0     C20627   9.611   1.098   1.570 -0.9264 -0.4341 -0.7151
  875MOL0     C20628   9.502   1.181   1.633 -0.8460  0.3216 -0.4447
  875MOL0     N20629   9.471   1.131   1.767 -0.2385  0.6199 -0.1563
  875MOL0     C20630   9.400   1.010   1.794  0.2361 -0.2427 -0.6534
  875MOL0     C20631   9.405   0.996   1.933  0.0816  0.1823  0.7442
  875MOL0     C20632   9.356   0.878   2.012 -0.0089  0.2863  0.2796
  875MOL0     C20633   9.207   0.842   1.993  0.6793  0.2330 -0.0007
  875MOL0     C20634   9.111   0.938   2.059  0.3063  0.4405  0.4376
  875MOL0     C20635   8.971   0.871   2.050 -0.3034  0.2536 -0.9058
  875MOL0     O20636   8.878   0.938   2.140  0.4877 -0.1250  0.3237
  875MOL0     C20637   8.851   1.072   2.113  0.4388  0.6249 -0.0136
  875MOL0     C20638   8.790   1.141   2.208 -0.4989 -0.5769 -0.2400
  875MOL0     C20639   8.758   1.280   2.193  0.5349  0.0605  0.7188
  875MOL0     C20640   8.687   1.343   2.311 -0.0253 -0.4008  0.0018
  875MOL0     C20641   8.773   1.343   2.070  0.3046 -0.6280  0.1295
  875MOL0     C20642   8.758   1.486   2.046  0.7602 -0.0783  1.7619
  875MOL0     O20643   8.656   1.556   2.116 -0.1726 -0.7293  0.0025
  875MOL0     C20644   8.643   1.690   2.083  0.2438  0.3976  0.2162
  875MOL0     C20645   8.734   1.781   2.134  0.8683  0.2192  0.8332
  875MOL0     C20646   8.720   1.913   2.096  0.4967 -0.1936  0.1142
  875MOL0     C20647   8.614   1.958   2.019 -0.2643  0.5481  0.3468
  875MOL0     O20648   8.581   2.088   1.978  0.7295 -0.3291 -0.6336
  875MOL0     C20649   8.674   2.143   1.891 -0.3204  0.8138  0.5642
  875MOL0     C20650   8.624   2.279   1.842  0.2064 -0.1162 -0.0388
  875MOL0     C20651   8.701   2.330   1.726 -0.0370 -0.2832 -0.0517
  875MOL0     C20652   8.642   2.467   1.664  0.2734 -0.0783 -0.4154
  875MOL0     C20653   8.723   2.507   1.546 -0.2838  0.5049 -0.2824
  875MOL0     C20654   8.679   2.642   1.478  0.5459  0.0137  0.5256
  875MOL0     C20655   8.792   2.693   1.387 -0.6262  0.2337  0.2578
  875MOL0     C20656   8.809   2.601   1.274 -0.1513  0.4253  0.4267
  875MOL0    Cl20657   8.803   2.703   1.120  0.5407  0.1107 -0.2069
  875MOL0     C20658   8.519   1.864   1.970 -0.0152  0.0431  0.5253
  875MOL0     C20659   8.529   1.730   2.010  0.2070 -0.5337 -0.1226
  875MOL0     O20660   8.818   1.531   1.950  0.0229 -0.7923  0.3963
  875MOL0     C20661   8.835   1.262   1.965 -0.2815  1.1143 -0.4724
  875MOL0     C20662   8.857   1.133   1.984 -0.2419 -0.0443 -0.7121
  875MOL0     N20663   9.484   1.096   1.979  0.1413 -0.5045  0.5808
  875MOL0     N20664   9.515   1.183   1.888 -0.8017 -0.8665  0.2439
  875MOL0     C20665  10.108   1.627   1.280  0.6322  1.4980  0.5613
  875MOL0     C20666  10.152   1.748   1.238 -0.5563  0.1108 -0.5697
  875MOL0     C20667  10.417   2.051   1.082  0.8308  0.2740 -0.3931
  875MOL0     C20668  10.349   2.131   1.169  1.5259 -0.4621  0.7023
  875MOL0     C20669  10.400   2.252   1.219  0.1758  0.3465 -0.5368
  875MOL0     C20670  10.540   2.285   1.209  0.3515 -0.0182 -0.3530
  875MOL0     O20671  10.607   2.396   1.265 -0.4247  0.1534  0.3963
  875MOL0     C20672  10.542   2.482   1.354  0.1524  0.2208  0.4673
  875MOL0     C20673  10.636   2.560   1.439 -0.6640  0.1985 -0.0054
  875MOL0     C20674  10.718   2.651   1.354  0.1348 -0.8587  0.5959
  875MOL0     C20675  10.818   2.731   1.445 -0.3307  0.5944  0.6337
  875MOL0     C20676  10.853   2.865   1.395  0.1185  1.2106 -0.9687
  875MOL0     C20677  10.860   2.973   1.351 -0.3335  0.0115  0.4357
  875MOL0     C20678  10.613   2.192   1.123  0.5712 -0.5819  0.1349
  875MOL0     C20679  10.551   2.078   1.061  0.5370  0.2525 -0.4445
  875MOL0     C20680  10.655   1.981   0.984  0.9562  0.2023 -0.7196
  875MOL0     H20681  10.110   1.753   0.905  1.8482  2.7951  1.4265
  875MOL0     H20682  10.031   1.531   0.946  1.8594  0.1895 -1.3150
  875MOL0     H20683  10.055   1.323   1.008  0.0741  1.4900 -1.3245
  875MOL0     H20684   9.895   1.371   1.016  0.2464  1.6075  0.5941
  875MOL0     H20685   9.920   1.121   1.056 -3.3697  2.3330 -1.1215
  875MOL0     H20686  10.029   1.154   1.192  2.0520 -0.3222 -1.5280
  875MOL0     H20687   9.823   1.265   1.296 -2.1597  0.9328 -0.0219
  875MOL0     H20688   9.720   1.205   1.161  1.2507  2.0715 -1.5885
  875MOL0     H20689   9.831   0.985   1.214 -0.1947  0.4418 -2.2688
  875MOL0     H20690   9.880   1.057   1.358  2.3567  0.6605 -2.2687
  875MOL0     H20691   9.662   0.917   1.382  0.3319 -1.2815 -1.7525
  875MOL0     H20692   9.594   0.993   1.245 -0.4937 -2.6357  0.6934
  875MOL0     H20693   9.603   1.219   1.396  2.8276 -0.4199 -2.2980
  875MOL0     H20694   9.476   1.093   1.407 -0.0374 -0.0874 -2.3267
  875MOL0     H20695   9.701   1.155   1.597 -1.9193 -0.0979  2.2951
  875MOL0     H20696   9.620   0.996   1.607  0.0225  0.1468  0.7882
  875MOL0     H20697   9.522   1.288   1.639  3.4957 -0.3293 -0.3657
  875MOL0     H20698   9.410   1.165   1.575 -1.1211  1.1648 -0.2489
  875MOL0     H20699   9.352   0.943   1.724 -0.9656 -1.1392  0.9867
  875MOL0     H20700   9.386   0.884   2.117 -0.0575  2.2648  0.2138
  875MOL0     H20701   9.410   0.792   1.971  1.0016  1.3006 -0.5719
  875MOL0     H20702   9.185   0.848   1.886 -2.0902  1.6628  0.5400
  875MOL0     H20703   9.186   0.740   2.026 -0.7337 -1.1719 -4.5411
  875MOL0     H20704   9.130   0.976   2.160  1.7508 -0.5029  0.5534
  875MOL0     H20705   9.104   1.025   1.993  0.2859 -1.0078 -1.5480
  875MOL0     H20706   8.945   0.892   1.946 -2.1808  2.3938 -0.0733
  875MOL0     H20707   8.962   0.765   2.077  0.4460 -0.1269 -2.0962
  875MOL0     H20708   8.773   1.099   2.306 -0.5691 -0.3366 -0.1486
  875MOL0     H20709   8.582   1.372   2.294 -0.2811 -0.6424  1.1117
  875MOL0     H20710   8.751   1.426   2.343  2.4145 -3.1040  2.8211
  875MOL0     H20711   8.695   1.283   2.402  2.1086  1.1722  0.9505
  875MOL0     H20712   8.823   1.757   2.190  1.2577 -0.7491 -0.1652
  875MOL0     H20713   8.782   1.988   2.145 -1.4406 -0.5097  3.3221
  875MOL0     H20714   8.768   2.169   1.941  0.4331 -2.6032  1.1341
  875MOL0     H20715   8.680   2.080   1.802 -3.5046  1.9951 -0.6372
  875MOL0     H20716   8.519   2.260   1.818  0.9997 -1.6335 -2.6843
  875MOL0     H20717   8.616   2.358   1.917  0.7242  0.8479 -0.9589
  875MOL0     H20718   8.693   2.251   1.651 -4.3950  1.3435 -1.6502
  875MOL0     H20719   8.807   2.338   1.751  0.4861  1.2065 -2.3500
  875MOL0     H20720   8.651   2.550   1.734 -2.7932  1.1850 -1.3718
  875MOL0     H20721   8.538   2.448   1.638 -0.2579  2.5661 -0.4204
  875MOL0     H20722   8.826   2.517   1.584 -0.7688 -1.0469  1.6084
  875MOL0     H20723   8.726   2.429   1.469  0.4685 -0.1422  0.3758
  875MOL0     H20724   8.665   2.717   1.556  0.9591  0.2800  0.3471
  875MOL0     H20725   8.582   2.633   1.428  0.3313  0.2435  0.9008
  875MOL0     H20726   8.885   2.707   1.442 -0.6840  1.4889  0.0859
  875MOL0     H20727   8.760   2.790   1.346  1.2139  1.0408  0.5943
  875MOL0     H20728   8.718   2.542   1.260 -0.8434  1.8093 -1.5018
  875MOL0     H20729   8.900   2.541   1.272 -0.6190 -0.3078 -2.1874
  875MOL0     H20730   8.443   1.888   1.896  1.8302  0.4421 -1.3243
  875MOL0     H20731   8.458   1.654   1.979  2.2230 -2.8247  0.5631
  875MOL0     H20732   8.855   1.301   1.866  0.8773  1.6303 -0.0453
  875MOL0     H20733   8.893   1.092   1.891  2.5098 -0.3185  0.3581
  875MOL0     H20734  10.104   1.571   1.373  1.4384  2.7355  1.3798
  875MOL0     H20735  10.187   1.816   1.316 -0.5529  2.1047 -2.2129
  875MOL0     H20736  10.244   2.115   1.191  0.8359 -0.2894 -2.0603
  875MOL0     H20737  10.333   2.319   1.272 -0.9500 -0.2747 -1.1406
  875MOL0     H20738  10.478   2.552   1.299 -1.5402 -0.0062  2.0622
  875MOL0     H20739  10.477   2.419   1.415 -0.7977  1.5089  0.8301
  875MOL0     H20740  10.693   2.491   1.503 -1.4207  0.7017  1.2539
  875MOL0     H20741  10.587   2.625   1.512  0.9950  0.7175  0.6992
  875MOL0     H20742  10.776   2.604   1.274 -1.3763 -0.1348 -0.9868
  875MOL0     H20743  10.657   2.734   1.317  2.0776  1.3525  2.0309
  875MOL0     H20744  10.911   2.678   1.468 -1.6317 -1.2674  1.9378
  875MOL0     H20745  10.771   2.750   1.542  4.2279  0.0138  3.2156
  875MOL0     H20746  10.875   3.073   1.318 -3.0371  0.1825 -0.5035
  875MOL0     H20747  10.718   2.214   1.105  0.3056  0.6432  0.0161
  875MOL0     H20748  10.636   1.958   0.879  1.1233 -4.1260  0.0436
  875MOL0     H20749  10.758   2.009   1.010  1.5175 -2.3234 -0.0160
  875MOL0     H20750  10.648   1.885   1.035  0.0595 -0.6054 -2.2988
  876MOL0     O20751   6.999   8.735   4.369  0.2363 -0.2522 -0.1665
  876MOL0     C20752   7.087   8.679   4.433 -0.0261  0.4376 -0.0835
  876MOL0     O20753   7.099   8.683   4.560 -0.1054 -0.1223 -0.3909
  876MOL0     C20754   7.020   8.770   4.632 -0.5645 -0.1669  0.2762
  876MOL0     C20755   7.064   8.898   4.668 -0.0670  0.1630  0.0977
  876MOL0     C20756   6.972   8.979   4.735 -0.1949 -0.5164  1.4222
  876MOL0     C20757   6.843   8.944   4.767  0.9480  0.2098 -0.1340
  876MOL0     O20758   6.759   9.021   4.841  0.3793 -0.4747  0.3571
  876MOL0     C20759   6.810   9.086   4.953  0.3126 -0.7624  0.3111
  876MOL0     C20760   6.721   9.078   5.067 -0.0979 -0.2494  0.2200
  876MOL0     C20761   6.589   9.159   5.043  0.5841 -0.7621  0.4615
  876MOL0     C20762   6.607   9.292   5.132  0.2412  0.4459  0.7034
  876MOL0     C20763   6.472   9.369   5.142 -0.2584 -0.3207  0.9519
  876MOL0     C20764   6.425   9.438   5.011  0.0219  0.2688 -0.1015
  876MOL0     C20765   6.276   9.485   5.027 -0.2028  1.0236 -0.0985
  876MOL0     C20766   6.225   9.548   4.903  0.4212  0.3659  0.4305
  876MOL0     N20767   6.116   9.644   4.926  0.6366 -0.0199  0.2069
  876MOL0     C20768   6.011   9.624   5.003  0.0794 -0.1822 -1.1049
  876MOL0     C20769   5.938   9.737   5.013 -0.5063  0.2242 -0.2789
  876MOL0     C20770   5.824   9.758   5.098  0.2415 -0.3094 -0.3368
  876MOL0     C20771   5.855   9.735   5.246  0.2328 -0.0463  0.1438
  876MOL0     C20772   5.733   9.748   5.334  0.3045 -0.8020  0.3183
  876MOL0     C20773   5.758   9.719   5.485  0.6158 -0.6978  0.1580
  876MOL0     O20774   5.829   9.833   5.545 -0.5140  0.4807  0.5169
  876MOL0     C20775   5.895   9.826   5.668 -0.4714 -0.2137  0.5690
  876MOL0     C20776   5.983   9.927   5.704 -0.8681 -0.4590  0.8918
  876MOL0     C20777   6.047   9.915   5.828 -0.3121 -1.3397 -0.3291
  876MOL0     C20778   6.143  10.035   5.865 -0.1378 -0.0061 -0.0275
  876MOL0     C20779   6.025   9.803   5.915 -0.7408 -0.2883  1.1044
  876MOL0     C20780   6.118   9.770   6.026  0.1307 -0.2032  0.5563
  876MOL0     O20781   6.092   9.781   6.158 -1.2193  0.1595  0.5571
  876MOL0     C20782   5.998   9.864   6.190 -0.5796 -0.5596  0.2129
  876MOL0     C20783   6.018   9.998   6.224  0.3909 -0.6951 -0.1476
  876MOL0     C20784   5.901  10.082   6.244 -0.2644 -0.6941  0.6294
  876MOL0     C20785   5.773  10.030   6.236  0.3055  0.9412 -0.8810
  876MOL0     O20786   5.657  10.108   6.239  0.3083  0.9657 -0.3713
  876MOL0     C20787   5.670  10.242   6.300 -0.7463 -0.3389 -0.1139
  876MOL0     C20788   5.534  10.302   6.299 -1.1567 -0.9937  1.0799
  876MOL0     C20789   5.520  10.445   6.358  0.0395 -0.1133 -0.7806
  876MOL0     C20790   5.545  10.448   6.513  0.1399  0.6264 -1.4966
  876MOL0     C20791   5.548  10.587   6.567 -0.2543  0.1224 -0.6457
  876MOL0     C20792   5.521  10.578   6.717  0.6311  0.3078 -0.0161
  876MOL0     C20793   5.532  10.713   6.779 -0.2623 -0.0564 -0.2362
  876MOL0     C20794   5.411  10.811   6.755  0.3690 -0.3072 -0.5093
  876MOL0    Cl20795   5.414  10.951   6.865 -0.4316  0.4104  0.0163
  876MOL0     C20796   5.758   9.896   6.228 -0.4581 -0.0149  0.0445
  876MOL0     C20797   5.868   9.814   6.192  0.6833 -0.2636  0.3576
  876MOL0     O20798   6.219   9.722   5.975 -0.5521 -0.0224  0.0811
  876MOL0     C20799   5.923   9.714   5.878  0.2815 -0.4062  0.4165
  876MOL0     C20800   5.859   9.726   5.755 -0.7359 -0.5243 -0.5475
  876MOL0     N20801   6.003   9.831   4.935 -0.8132  0.0536 -0.4803
  876MOL0     N20802   6.113   9.773   4.890  0.2812 -0.0594 -0.0934
  876MOL0     C20803   6.793   8.818   4.726  0.8005 -0.0383 -0.5368
  876MOL0     C20804   6.890   8.733   4.671  0.4131 -0.1413 -0.3625
  876MOL0     C20805   7.187   8.607   4.351 -0.7918 -0.4525  0.7825
  876MOL0     C20806   7.276   8.521   4.419 -0.0521 -0.3478  0.3014
  876MOL0     C20807   7.374   8.449   4.347  0.2262  0.2046 -0.0482
  876MOL0     C20808   7.404   8.468   4.212  0.1861  0.0924 -0.1168
  876MOL0     O20809   7.511   8.415   4.144 -0.3045 -0.3579 -0.0363
  876MOL0     C20810   7.569   8.296   4.185 -0.9684  0.0426  0.0279
  876MOL0     C20811   7.476   8.167   4.168  0.4193 -0.2339  0.4171
  876MOL0     C20812   7.473   8.121   4.022 -0.3004  0.5933 -0.8469
  876MOL0     C20813   7.346   8.052   4.002 -0.6900  1.0462  0.2185
  876MOL0     C20814   7.337   8.003   3.865 -0.3927 -0.0126  0.4344
  876MOL0     C20815   7.356   7.983   3.750 -1.0289 -0.8100  0.2259
  876MOL0     C20816   7.306   8.545   4.147  0.4009  0.8413 -0.0010
  876MOL0     C20817   7.197   8.614   4.207 -1.2573  0.8498 -0.6345
  876MOL0     C20818   7.125   8.702   4.110 -0.4271 -0.7923 -0.2108
  876MOL0     H20819   7.169   8.926   4.658  0.7349 -0.8673  4.0216
  876MOL0     H20820   7.001   9.079   4.765 -1.2829  0.4179 -0.4042
  876MOL0     H20821   6.800   9.191   4.924 -2.7800 -1.5240 -1.8092
  876MOL0     H20822   6.913   9.053   4.974  0.7968 -0.2152 -1.0588
  876MOL0     H20823   6.691   8.979   5.102  0.2264 -1.1924 -2.0292
  876MOL0     H20824   6.771   9.125   5.153 -1.3105  1.9664 -0.1923
  876MOL0     H20825   6.582   9.177   4.935 -0.3744 -4.7144 -0.2909
  876MOL0     H20826   6.511   9.092   5.079  2.0549 -3.5595 -1.1764
  876MOL0     H20827   6.632   9.264   5.235  1.8551 -3.1573 -0.4811
  876MOL0     H20828   6.685   9.360   5.096  0.8467 -0.5815  0.0063
  876MOL0     H20829   6.473   9.448   5.217 -0.1512 -0.3777  1.0121
  876MOL0     H20830   6.391   9.306   5.179  0.2087  0.3653  3.2735
  876MOL0     H20831   6.482   9.531   5.007  0.3263  0.1790  1.4944
  876MOL0     H20832   6.430   9.373   4.923 -0.4458  0.2952 -0.1489
  876MOL0     H20833   6.269   9.559   5.107 -0.3136  0.4485  0.4210
  876MOL0     H20834   6.208   9.404   5.055 -1.5989  2.2743  0.2683
  876MOL0     H20835   6.310   9.588   4.846 -1.1052  0.5440 -1.8199
  876MOL0     H20836   6.192   9.469   4.835 -0.9839  0.8490  0.5279
  876MOL0     H20837   5.993   9.532   5.058  1.0424  1.3127  1.9052
  876MOL0     H20838   5.740   9.694   5.069  1.1482 -2.3003  1.2054
  876MOL0     H20839   5.788   9.861   5.084  0.3269  0.3561  3.3176
  876MOL0     H20840   5.892   9.632   5.255 -1.7350 -0.8534 -0.4825
  876MOL0     H20841   5.932   9.807   5.275 -0.8004  0.8069  0.8044
  876MOL0     H20842   5.695   9.850   5.324 -0.7195 -1.2599 -0.6427
  876MOL0     H20843   5.654   9.676   5.311  1.1801 -2.1869  1.4467
  876MOL0     H20844   5.656   9.698   5.517  0.6243 -1.6133 -0.3842
  876MOL0     H20845   5.830   9.637   5.490  1.3334 -0.0094  2.7892
  876MOL0     H20846   6.013   9.994   5.624  5.6783 -1.9901  1.5305
  876MOL0     H20847   6.249  10.013   5.850 -0.3665 -0.4736 -1.0211
  876MOL0     H20848   6.139  10.067   5.970 -0.1899  0.0862 -0.0569
  876MOL0     H20849   6.124  10.132   5.817  0.9609  1.1449  1.7465
  876MOL0     H20850   6.118  10.040   6.225  1.4565 -2.9186 -2.4777
  876MOL0     H20851   5.921  10.188   6.252  1.1428 -0.7034 -1.7258
  876MOL0     H20852   5.728  10.244   6.393  0.0077 -0.6742 -0.5633
  876MOL0     H20853   5.729  10.305   6.233  0.0263 -0.3034  0.5825
  876MOL0     H20854   5.499  10.301   6.196  0.9185 -0.0742  0.3298
  876MOL0     H20855   5.463  10.244   6.360 -2.1663 -0.8886  0.0322
  876MOL0     H20856   5.420  10.489   6.346 -1.4878 -2.0927  2.9166
  876MOL0     H20857   5.599  10.497   6.303 -1.0983  0.9157 -1.4991
  876MOL0     H20858   5.635  10.393   6.544 -1.2042  0.7269  3.4395
  876MOL0     H20859   5.460  10.395   6.557 -0.8113  1.8953 -1.7576
  876MOL0     H20860   5.641  10.643   6.551 -0.3837  0.0801 -1.6254
  876MOL0     H20861   5.469  10.646   6.520  0.7273  1.4158 -0.7230
  876MOL0     H20862   5.598  10.511   6.757  1.7372  1.9582  0.7406
  876MOL0     H20863   5.421  10.537   6.731  0.8270 -0.8927 -1.7223
  876MOL0     H20864   5.630  10.755   6.755  2.0907 -1.7092  4.9473
  876MOL0     H20865   5.536  10.687   6.885  0.2936  3.0151  0.5964
  876MOL0     H20866   5.318  10.757   6.769  1.4296 -1.7031  1.6168
  876MOL0     H20867   5.397  10.847   6.652 -0.0562  1.3416  0.0931
  876MOL0     H20868   5.659   9.855   6.248 -0.4246  0.2235  0.6907
  876MOL0     H20869   5.850   9.707   6.187 -1.4746  0.0732 -0.2531
  876MOL0     H20870   5.916   9.632   5.949  1.1528 -2.8586 -2.1172
  876MOL0     H20871   5.807   9.639   5.717  2.7624 -3.1739  0.2712
  876MOL0     H20872   6.692   8.790   4.754 -0.1427  1.9087 -1.8165
  876MOL0     H20873   6.863   8.630   4.648 -0.3648 -0.1356  0.4808
  876MOL0     H20874   7.276   8.497   4.525 -2.3427 -0.7364  0.2664
  876MOL0     H20875   7.432   8.393   4.420 -1.5783  0.3316  1.5641
  876MOL0     H20876   7.661   8.284   4.125 -0.6572 -3.1407  0.9620
  876MOL0     H20877   7.600   8.293   4.290 -0.8051 -2.7093 -0.0178
  876MOL0     H20878   7.374   8.188   4.201 -0.2997 -1.2579 -1.0707
  876MOL0     H20879   7.499   8.084   4.235 -3.7043 -1.7993  0.1748
  876MOL0     H20880   7.476   8.214   3.964 -1.1057  2.1313  1.4146
  876MOL0     H20881   7.565   8.066   4.002 -1.9094 -3.3663  1.5450
  876MOL0     H20882   7.253   8.108   4.010 -1.2647  0.0836  0.4329
  876MOL0     H20883   7.348   7.966   4.070  2.0042  0.1283 -0.8589
  876MOL0     H20884   7.374   7.949   3.650 -1.0351 -1.8455  0.5560
  876MOL0     H20885   7.317   8.560   4.040 -2.2577 -3.9025 -1.2357
  876MOL0     H20886   7.142   8.679   4.005  0.9311  2.3057 -0.7733
  876MOL0     H20887   7.016   8.700   4.123 -0.3813 -0.4638  0.2826
  876MOL0     H20888   7.145   8.809   4.124 -3.5870 -0.1843  0.4354
  877MOL0     O20889   1.686  11.245   6.873  0.3568 -0.6752 -0.0816
  877MOL0     C20890   1.642  11.334   6.951  0.3242  0.4069 -0.1565
  877MOL0     O20891   1.717  11.394   7.048 -0.9391  0.4543 -0.1841
  877MOL0     C20892   1.851  11.364   7.046  0.2551 -0.7445 -0.7324
  877MOL0     C20893   1.942  11.441   6.978 -0.1793 -0.6521  1.0184
  877MOL0     C20894   2.076  11.401   6.976 -0.0011 -0.9303  0.8001
  877MOL0     C20895   2.123  11.294   7.041 -0.5676 -0.6523  0.1086
  877MOL0     O20896   2.258  11.252   7.032  0.3950  0.8556  0.4888
  877MOL0     C20897   2.280  11.111   7.035  0.0572 -0.0588 -0.6378
  877MOL0     C20898   2.402  11.070   6.948  0.0293  1.2366  0.5856
  877MOL0     C20899   2.367  11.073   6.793 -0.1264 -0.9418  0.0590
  877MOL0     C20900   2.477  11.014   6.713  0.0270 -0.2479  0.4246
  877MOL0     C20901   2.432  10.985   6.562  1.0921  0.8917 -1.1426
  877MOL0     C20902   2.568  10.966   6.480  0.0674  0.0709 -0.8521
  877MOL0     C20903   2.538  10.968   6.327 -0.7440  0.0184  0.7501
  877MOL0     C20904   2.510  11.104   6.272  0.0336 -0.8209 -0.6437
  877MOL0     N20905   2.451  11.093   6.140  0.3301 -0.4231 -0.3083
  877MOL0     C20906   2.324  11.129   6.099  0.3510  0.2994 -0.3700
  877MOL0     C20907   2.317  11.085   5.976 -0.0109 -0.8745  0.5813
  877MOL0     C20908   2.185  11.079   5.901  0.1601 -0.6731 -1.2853
  877MOL0     C20909   2.113  10.948   5.906 -0.0215  0.0329  0.6572
  877MOL0     C20910   2.064  10.917   6.052 -0.2906 -0.7624 -0.0576
  877MOL0     C20911   2.157  10.829   6.134  0.4510  0.4719 -0.2299
  877MOL0     O20912   2.086  10.806   6.263  0.5755 -0.1620 -0.1026
  877MOL0     C20913   2.159  10.737   6.365 -0.3177  0.0247  0.0200
  877MOL0     C20914   2.104  10.739   6.497 -0.2350  0.3207  1.1357
  877MOL0     C20915   2.157  10.675   6.605  0.2918 -0.2166  0.1023
  877MOL0     C20916   2.087  10.675   6.738 -0.5837 -0.0117  0.4639
  877MOL0     C20917   2.276  10.593   6.585  0.2191  0.1662 -0.2343
  877MOL0     C20918   2.338  10.507   6.683  0.2126  0.2057 -0.5404
  877MOL0     O20919   2.330  10.539   6.807  0.3555 -0.3347 -0.3621
  877MOL0     C20920   2.437  10.486   6.877  0.1487 -0.3172 -0.3956
  877MOL0     C20921   2.571  10.487   6.840 -0.4658  0.0253 -0.0700
  877MOL0     C20922   2.671  10.416   6.918  1.3856  0.0652 -0.9145
  877MOL0     C20923   2.631  10.372   7.045  0.5086  0.6137 -0.0069
  877MOL0     O20924   2.722  10.305   7.118  0.5321  0.3893  0.2564
  877MOL0     C20925   2.759  10.366   7.246 -0.7216 -0.0808  0.7778
  877MOL0     C20926   2.913  10.343   7.260  0.3781  0.3005  0.9974
  877MOL0     C20927   2.996  10.420   7.164 -0.0026 -0.5909 -0.5354
  877MOL0     C20928   2.991  10.570   7.186 -1.3030  0.7079 -0.9194
  877MOL0     C20929   3.106  10.633   7.110 -0.1816 -0.1792  0.0390
  877MOL0     C20930   3.119  10.791   7.121  0.2600 -0.5204 -1.5682
  877MOL0     C20931   3.222  10.852   7.024  0.3259 -0.4066  0.6199
  877MOL0     C20932   3.237  11.010   7.031 -0.7751  1.3286  0.6961
  877MOL0    Cl20933   3.343  11.061   7.166 -0.1389 -0.1543 -0.7124
  877MOL0     C20934   2.496  10.367   7.085 -0.0748 -1.0141  0.1510
  877MOL0     C20935   2.401  10.423   6.994  1.4219 -0.5453 -0.3691
  877MOL0     O20936   2.369  10.394   6.645 -0.0723 -0.8635 -0.6564
  877MOL0     C20937   2.321  10.581   6.457  0.1278 -0.5019  0.4865
  877MOL0     C20938   2.268  10.654   6.348 -0.0347 -0.7017 -0.6480
  877MOL0     N20939   2.436  11.033   5.939 -1.1870  0.3456  0.4365
  877MOL0     N20940   2.512  11.029   6.040 -0.3287  0.2053  0.3605
  877MOL0     C20941   2.027  11.213   7.120 -0.5019  0.4641  0.0703
  877MOL0     C20942   1.893  11.247   7.111 -0.2869 -0.9741 -1.1721
  877MOL0     C20943   1.503  11.391   6.932 -0.0660  0.0840 -0.4966
  877MOL0     C20944   1.413  11.323   6.846 -0.4920 -0.2600 -0.2732
  877MOL0     C20945   1.291  11.378   6.810 -0.3552  0.5501  0.0711
  877MOL0     C20946   1.255  11.507   6.851  0.3235  0.4006 -0.5328
  877MOL0     O20947   1.147  11.574   6.809  0.5172  0.6752  0.9612
  877MOL0     C20948   1.068  11.519   6.694 -0.2577 -0.1131 -0.3066
  877MOL0     C20949   0.956  11.416   6.716 -0.7827 -0.4330  0.3716
  877MOL0     C20950   0.851  11.465   6.817 -1.4795 -0.5128 -0.3258
  877MOL0     C20951   0.742  11.358   6.832  0.1931  0.6363  0.0378
  877MOL0     C20952   0.680  11.372   6.963 -0.2139 -0.2253  0.3141
  877MOL0     C20953   0.612  11.387   7.063  0.6770  0.1655 -0.5058
  877MOL0     C20954   1.331  11.562   6.958  0.2771 -0.4060  0.3837
  877MOL0     C20955   1.447  11.510   7.003  0.5285  0.7779 -0.1682
  877MOL0     C20956   1.526  11.586   7.099 -0.1703 -0.4304  0.2166
  877MOL0     H20957   1.914  11.535   6.931  3.3638  0.8010  1.4961
  877MOL0     H20958   2.152  11.443   6.912 -1.3426 -0.9190 -0.8519
  877MOL0     H20959   2.196  11.067   6.982  0.4983  1.1953 -2.4782
  877MOL0     H20960   2.284  11.071   7.137 -0.7472 -1.2576 -1.0655
  877MOL0     H20961   2.483  11.141   6.967 -0.0048  0.8545  2.2912
  877MOL0     H20962   2.435  10.972   6.985  0.8586  0.1894 -2.5559
  877MOL0     H20963   2.272  11.022   6.774 -0.7044 -0.9975  2.7311
  877MOL0     H20964   2.349  11.174   6.755  1.1953  0.3287  2.5554
  877MOL0     H20965   2.559  11.087   6.707  1.0033 -1.1594  1.9621
  877MOL0     H20966   2.505  10.913   6.745 -3.6711 -1.7688 -0.6680
  877MOL0     H20967   2.374  11.067   6.518  2.5061  1.9128 -1.1975
  877MOL0     H20968   2.370  10.896   6.566  0.9795  1.0036  1.5082
  877MOL0     H20969   2.646  11.036   6.511 -0.1769 -0.3773  0.8757
  877MOL0     H20970   2.604  10.866   6.508 -2.0237 -0.0731  1.7533
  877MOL0     H20971   2.454  10.900   6.312  0.6426 -1.3006 -1.5142
  877MOL0     H20972   2.632  10.940   6.279 -0.2441 -0.5102  1.9683
  877MOL0     H20973   2.437  11.153   6.337 -1.9343 -1.1665 -2.5044
  877MOL0     H20974   2.603  11.162   6.276 -1.3457  1.5606  3.6507
  877MOL0     H20975   2.242  11.167   6.159  0.9178 -0.5196  0.9898
  877MOL0     H20976   2.206  11.106   5.797  3.3271 -0.2620 -0.6514
  877MOL0     H20977   2.120  11.157   5.941 -0.2102 -0.5279 -2.1524
  877MOL0     H20978   2.031  10.954   5.835  0.8900  0.0858 -0.4225
  877MOL0     H20979   2.176  10.861   5.882 -1.8736 -1.1505 -0.1506
  877MOL0     H20980   2.038  11.000   6.119 -0.9598  0.5243 -1.8255
  877MOL0     H20981   1.981  10.847   6.047 -1.5943  0.8147 -1.7754
  877MOL0     H20982   2.171  10.731   6.088  0.1608  0.1838  0.2788
  877MOL0     H20983   2.255  10.875   6.149 -0.2878  1.8110  0.7429
  877MOL0     H20984   2.003  10.779   6.493 -0.7984 -1.0869 -2.2081
  877MOL0     H20985   2.063  10.573   6.768  3.2323 -0.3455  3.0282
  877MOL0     H20986   2.003  10.745   6.739 -1.1207 -0.4900 -2.2742
  877MOL0     H20987   2.157  10.716   6.811  0.0269  2.0411 -1.1604
  877MOL0     H20988   2.596  10.542   6.749  1.3175 -2.1880 -1.0027
  877MOL0     H20989   2.770  10.424   6.874  2.0641  3.1171  0.8400
  877MOL0     H20990   2.743  10.475   7.245 -0.4311 -0.0356 -0.0449
  877MOL0     H20991   2.699  10.321   7.325 -0.9564  1.2853  1.4132
  877MOL0     H20992   2.953  10.364   7.359 -1.4773  0.4533  1.7713
  877MOL0     H20993   2.922  10.237   7.235 -0.5316  1.1298 -4.1223
  877MOL0     H20994   2.969  10.399   7.061  0.5032  1.1314 -1.0578
  877MOL0     H20995   3.094  10.372   7.172  0.1112 -0.2934 -0.0857
  877MOL0     H20996   3.000  10.604   7.290  0.2503  1.2579 -1.2044
  877MOL0     H20997   2.898  10.603   7.138  0.1861  1.0375 -3.7876
  877MOL0     H20998   3.201  10.591   7.144  0.0631 -0.0534 -0.4758
  877MOL0     H20999   3.098  10.604   7.005 -1.1299  1.0493 -0.2598
  877MOL0     H21000   3.152  10.818   7.222  0.4890 -2.7945 -0.9836
  877MOL0     H21001   3.022  10.837   7.100 -0.7901 -1.7132  0.3610
  877MOL0     H21002   3.185  10.817   6.927  0.8427 -3.3341  1.3668
  877MOL0     H21003   3.322  10.814   7.047  0.2528 -1.3198 -0.4357
  877MOL0     H21004   3.140  11.060   7.035 -0.1825  2.5536  0.1493
  877MOL0     H21005   3.281  11.047   6.938 -1.5004 -0.1518 -0.2849
  877MOL0     H21006   2.454  10.328   7.178 -0.6053 -2.3623 -0.6184
  877MOL0     H21007   2.295  10.418   7.012  1.3326  1.1341 -0.2269
  877MOL0     H21008   2.406  10.519   6.430  1.5955  0.8826  1.7040
  877MOL0     H21009   2.297  10.623   6.248 -2.4557 -2.1396 -0.9902
  877MOL0     H21010   2.060  11.129   7.180 -1.5624 -2.6345 -3.3512
  877MOL0     H21011   1.818  11.180   7.152  0.5554  0.1905  2.6179
  877MOL0     H21012   1.451  11.235   6.794 -0.4775 -2.3356  2.9191
  877MOL0     H21013   1.236  11.326   6.732  1.6207  0.6571 -1.4755
  877MOL0     H21014   1.025  11.606   6.644 -1.9383 -0.4982  0.3771
  877MOL0     H21015   1.139  11.485   6.619  0.8925  0.2520  0.5906
  877MOL0     H21016   1.000  11.323   6.755 -1.4573  0.7056  4.3044
  877MOL0     H21017   0.903  11.400   6.622 -2.2308 -3.2629  1.5526
  877MOL0     H21018   0.900  11.478   6.914 -1.0563  0.9737 -0.7194
  877MOL0     H21019   0.806  11.558   6.782 -2.5848 -0.8193  0.2214
  877MOL0     H21020   0.795  11.262   6.823  0.3036  0.7735 -0.8179
  877MOL0     H21021   0.668  11.369   6.753  0.8693  1.1537 -0.5378
  877MOL0     H21022   0.550  11.405   7.149 -1.4386  2.8511 -2.4145
  877MOL0     H21023   1.290  11.656   6.996 -1.2078 -0.4563 -0.9749
  877MOL0     H21024   1.575  11.525   7.176  0.6831 -1.9225 -1.4179
  877MOL0     H21025   1.607  11.637   7.046 -1.3837  3.7020  1.9222
  877MOL0     H21026   1.483  11.674   7.148 -0.8773 -1.7667  2.1356
  878MOL0     O21027   6.218   3.407  10.936  0.2474 -0.0410 -0.4359
  878MOL0     C21028   6.294   3.415  11.033  0.0997 -0.4452 -0.7213
  878MOL0     O21029   6.335   3.311  11.113 -0.2961 -0.4284  0.2541
  878MOL0     C21030   6.265   3.201  11.104  0.7118  0.1276  0.5793
  878MOL0     C21031   6.126   3.201  11.142 -0.3109 -0.5488 -0.3738
  878MOL0     C21032   6.051   3.079  11.146 -0.7733  0.2541 -0.0172
  878MOL0     C21033   6.120   2.962  11.106  1.0549  0.2711  0.5768
  878MOL0     O21034   6.044   2.846  11.089  0.1606  0.1266  0.2113
  878MOL0     C21035   6.059   2.795  10.952  0.1226  0.4815  0.2798
  878MOL0     C21036   5.938   2.728  10.896  0.5836 -0.7155 -0.3887
  878MOL0     C21037   5.816   2.810  10.906  0.5775 -0.4037  0.5688
  878MOL0     C21038   5.744   2.792  11.037 -0.0778 -0.3946 -0.3668
  878MOL0     C21039   5.622   2.703  11.033 -0.3260 -0.2830  0.2913
  878MOL0     C21040   5.647   2.550  11.022  0.1532 -0.6482 -0.2060
  878MOL0     C21041   5.538   2.450  11.093 -0.0170  0.1674  1.0495
  878MOL0     C21042   5.551   2.472  11.248  0.4861 -0.1093 -1.9983
  878MOL0     N21043   5.679   2.432  11.312 -0.0739 -0.5051  1.0325
  878MOL0     C21044   5.767   2.517  11.366  0.5863 -0.1936  0.1920
  878MOL0     C21045   5.862   2.436  11.433  0.1779 -0.2780  0.4540
  878MOL0     C21046   5.977   2.490  11.511 -0.4031 -0.7563  0.4136
  878MOL0     C21047   6.110   2.466  11.448 -0.4154  0.1440  0.1018
  878MOL0     C21048   6.127   2.569  11.338  0.0457 -0.2146  0.2888
  878MOL0     C21049   6.135   2.716  11.383 -0.2008  0.4935 -0.1341
  878MOL0     O21050   6.210   2.730  11.504  0.3359  0.4446  1.1149
  878MOL0     C21051   6.286   2.846  11.521 -1.0557 -0.1431  0.1325
  878MOL0     C21052   6.389   2.841  11.612  0.0661  0.8454 -0.3221
  878MOL0     C21053   6.470   2.947  11.658  0.0067  0.0733  0.7096
  878MOL0     C21054   6.570   2.912  11.770 -0.2351  0.1302 -0.2327
  878MOL0     C21055   6.464   3.067  11.586 -0.1326  0.1630 -0.7564
  878MOL0     C21056   6.569   3.177  11.605 -0.4014 -0.1844  0.1504
  878MOL0     O21057   6.571   3.282  11.514 -0.1857  0.6931  0.2407
  878MOL0     C21058   6.651   3.390  11.531 -0.7312 -1.3428 -0.9821
  878MOL0     C21059   6.585   3.510  11.557 -0.7233  0.0712  0.0330
  878MOL0     C21060   6.658   3.634  11.561  0.5409 -0.0023  0.5641
  878MOL0     C21061   6.793   3.638  11.567 -0.1450 -0.0104  0.3430
  878MOL0     O21062   6.854   3.763  11.573 -0.2297  0.3904  0.7221
  878MOL0     C21063   6.991   3.767  11.616  0.7509 -0.6584  0.4138
  878MOL0     C21064   7.038   3.908  11.638 -0.1371 -0.1523  0.4841
  878MOL0     C21065   6.981   3.972  11.766  0.5115  0.1597 -0.1880
  878MOL0     C21066   6.993   4.130  11.734  0.1060  0.0616 -0.8241
  878MOL0     C21067   6.882   4.201  11.822 -0.7236 -1.1428  0.2337
  878MOL0     C21068   6.889   4.353  11.824 -0.2535 -0.8523 -0.5640
  878MOL0     C21069   6.766   4.414  11.886  0.8844  0.0155 -0.5736
  878MOL0     C21070   6.759   4.383  12.041  0.4347  0.3373  0.2442
  878MOL0    Cl21071   6.658   4.520  12.111  0.5138 -0.1527 -0.0042
  878MOL0     C21072   6.866   3.516  11.550 -0.4818 -0.3615 -0.9698
  878MOL0     C21073   6.792   3.391  11.526 -0.2169  0.1732  0.9383
  878MOL0     O21074   6.638   3.174  11.708  0.5932 -0.1291  0.7651
  878MOL0     C21075   6.366   3.077  11.485  0.4865  0.0945 -0.0989
  878MOL0     C21076   6.276   2.966  11.459  0.1474 -0.4397  0.2359
  878MOL0     N21077   5.832   2.306  11.408  0.2873  0.0795  0.1711
  878MOL0     N21078   5.729   2.299  11.330 -0.5126 -0.5430  0.6226
  878MOL0     C21079   6.256   2.969  11.069 -0.1509  0.1307 -0.3492
  878MOL0     C21080   6.336   3.088  11.066  1.3314  0.5410 -0.3329
  878MOL0     C21081   6.361   3.544  11.074 -0.9710 -0.0456  0.8988
  878MOL0     C21082   6.404   3.568  11.203 -0.2678  0.6142  0.0976
  878MOL0     C21083   6.465   3.691  11.235  1.5332 -1.0381  0.3970
  878MOL0     C21084   6.481   3.795  11.139  0.2999 -0.6628  1.1345
  878MOL0     O21085   6.535   3.923  11.157 -0.0057 -0.4732  0.1484
  878MOL0     C21086   6.604   3.953  11.280  0.6181 -0.1236 -0.3217
  878MOL0     C21087   6.655   4.099  11.276  0.0316  0.7499  0.2687
  878MOL0     C21088   6.532   4.193  11.275 -0.1178 -0.8475 -0.3745
  878MOL0     C21089   6.562   4.320  11.204 -0.4380 -0.2570 -0.0413
  878MOL0     C21090   6.611   4.418  11.309 -0.1465  0.7365  0.7146
  878MOL0     C21091   6.646   4.498  11.397 -0.0197  0.3419  0.2285
  878MOL0     C21092   6.444   3.770  11.008 -0.2458  0.2878 -0.4314
  878MOL0     C21093   6.391   3.645  10.977 -0.2614  0.2350  1.4023
  878MOL0     C21094   6.371   3.617  10.830  0.9602 -0.0655 -0.0777
  878MOL0     H21095   6.079   3.289  11.184 -1.5502 -1.8290  1.0166
  878MOL0     H21096   5.944   3.083  11.165 -1.4204 -0.7105 -2.9066
  878MOL0     H21097   6.140   2.723  10.960 -0.7548 -0.5236  0.3798
  878MOL0     H21098   6.086   2.879  10.887  0.5542  2.6464  3.0609
  878MOL0     H21099   5.948   2.706  10.789  1.7103 -1.3836 -0.1619
  878MOL0     H21100   5.942   2.636  10.955  1.8738 -2.3306 -2.8325
  878MOL0     H21101   5.840   2.916  10.896  1.1704 -0.2450  2.9246
  878MOL0     H21102   5.752   2.780  10.823  1.0943 -0.4160  0.1717
  878MOL0     H21103   5.812   2.775  11.121 -0.4276  0.9390  0.2092
  878MOL0     H21104   5.706   2.888  11.073 -1.3433 -1.1050  0.2724
  878MOL0     H21105   5.556   2.745  10.956  2.3503  2.5457 -0.6520
  878MOL0     H21106   5.559   2.715  11.122  1.3083 -1.8847  1.7375
  878MOL0     H21107   5.648   2.526  10.915 -1.2824 -0.3703 -0.2959
  878MOL0     H21108   5.750   2.530  11.053  0.6000 -3.6603 -2.9997
  878MOL0     H21109   5.580   2.352  11.070 -0.1992  0.3897 -0.2955
  878MOL0     H21110   5.436   2.462  11.054 -0.1907 -0.0690  1.4303
  878MOL0     H21111   5.533   2.575  11.281 -2.0552 -0.8199 -0.9232
  878MOL0     H21112   5.478   2.419  11.310 -0.6888  0.9380 -2.4409
  878MOL0     H21113   5.765   2.624  11.384 -0.0017 -0.1144 -0.3253
  878MOL0     H21114   5.986   2.456  11.614 -3.9374  0.0595  1.1479
  878MOL0     H21115   5.953   2.597  11.518 -0.4537 -0.6158 -1.3648
  878MOL0     H21116   6.192   2.466  11.520  2.3183 -0.3787 -2.7810
  878MOL0     H21117   6.111   2.365  11.404  2.1432  0.7407 -1.4118
  878MOL0     H21118   6.221   2.548  11.286 -0.4156 -1.7702  0.0212
  878MOL0     H21119   6.041   2.557  11.271  0.5171  0.8025 -0.5215
  878MOL0     H21120   6.185   2.763  11.298  2.3130  0.6468  1.3518
  878MOL0     H21121   6.030   2.745  11.394 -0.4334 -1.1412  3.2875
  878MOL0     H21122   6.398   2.748  11.668 -0.8045  0.9991  0.0807
  878MOL0     H21123   6.558   2.810  11.808  1.0808  1.2161  3.6551
  878MOL0     H21124   6.564   2.980  11.855  2.9026 -0.6327  0.7462
  878MOL0     H21125   6.671   2.925  11.729 -0.7212  3.0744 -0.6884
  878MOL0     H21126   6.477   3.511  11.561 -0.8419 -0.8318 -1.7910
  878MOL0     H21127   6.603   3.727  11.573 -0.4724 -0.3910 -0.8239
  878MOL0     H21128   6.991   3.717  11.713 -0.5971  1.0541  1.3697
  878MOL0     H21129   7.049   3.718  11.538 -0.6282 -2.4187  0.4433
  878MOL0     H21130   7.147   3.895  11.639 -0.0398  0.3874  2.8221
  878MOL0     H21131   7.000   3.966  11.553 -1.1167 -1.4507 -0.0018
  878MOL0     H21132   7.037   3.942  11.855  0.8717 -1.0969 -0.8207
  878MOL0     H21133   6.875   3.947  11.778  0.6371 -0.8109 -1.0133
  878MOL0     H21134   6.969   4.159  11.631 -1.3813 -0.2864 -0.5970
  878MOL0     H21135   7.091   4.168  11.762 -0.1060 -1.3647  2.3136
  878MOL0     H21136   6.786   4.169  11.779 -2.9099  1.7328  2.5273
  878MOL0     H21137   6.892   4.164  11.925  0.8724 -0.9702  0.1539
  878MOL0     H21138   6.885   4.382  11.718  2.0826  0.3849 -0.3931
  878MOL0     H21139   6.983   4.392  11.864 -1.7907  2.6267  0.0479
  878MOL0     H21140   6.669   4.390  11.842  2.0999 -1.5270 -2.5477
  878MOL0     H21141   6.762   4.523  11.876 -2.2008  0.1133  0.7423
  878MOL0     H21142   6.858   4.393  12.086 -0.0906  1.0094  1.2741
  878MOL0     H21143   6.711   4.287  12.061 -1.5176  1.9259  4.1557
  878MOL0     H21144   6.975   3.512  11.542 -0.1903 -0.0465  1.7200
  878MOL0     H21145   6.848   3.299  11.515  3.6293  2.1758  1.7161
  878MOL0     H21146   6.362   3.163  11.418 -0.2763 -0.6610 -1.0473
  878MOL0     H21147   6.186   2.986  11.402 -0.6394 -2.3533  0.7148
  878MOL0     H21148   6.310   2.881  11.035  0.5177  0.1647  0.5945
  878MOL0     H21149   6.437   3.102  11.028  0.7981  2.1671 -1.2637
  878MOL0     H21150   6.381   3.490  11.274 -2.0078  1.0854  0.1145
  878MOL0     H21151   6.490   3.696  11.340  0.2618  0.1276  0.6714
  878MOL0     H21152   6.530   3.943  11.360  0.4860  0.6514 -0.3383
  878MOL0     H21153   6.690   3.887  11.290  0.9898  0.3832 -0.1688
  878MOL0     H21154   6.732   4.113  11.200  0.3169 -0.6533  0.2829
  878MOL0     H21155   6.701   4.123  11.372  0.2870  0.7171  0.1554
  878MOL0     H21156   6.444   4.152  11.225  0.4299 -0.9812 -1.2564
  878MOL0     H21157   6.508   4.215  11.380 -0.5107 -2.3092 -0.1432
  878MOL0     H21158   6.469   4.352  11.156  0.5086  0.7324 -1.2877
  878MOL0     H21159   6.626   4.317  11.116  0.9097 -0.4205  0.9122
  878MOL0     H21160   6.684   4.575  11.461  0.9820 -0.1074  0.1849
  878MOL0     H21161   6.476   3.844  10.936  1.1876  0.2147  0.0916
  878MOL0     H21162   6.265   3.622  10.801  1.0107  0.9933 -0.1112
  878MOL0     H21163   6.421   3.689  10.764  0.4295  0.2610 -0.1363
  878MOL0     H21164   6.415   3.522  10.799 -0.4547  0.1195 -3.0578
  879MOL0     O21165   8.680   4.873   9.304  0.1549 -0.5233 -0.1376
  879MOL0     C21166   8.785   4.938   9.294 -0.4637 -1.0031 -0.4821
  879MOL0     O21167   8.818   5.007   9.182 -0.7190 -0.6454  0.0123
  879MOL0     C21168   8.718   5.051   9.102  0.1082 -0.0778 -0.4205
  879MOL0     C21169   8.714   5.010   8.967  0.2008  0.0579 -0.5667
  879MOL0     C21170   8.617   5.069   8.879  0.1961 -0.0459  0.1781
  879MOL0     C21171   8.525   5.165   8.931  0.1384 -0.8108  0.7173
  879MOL0     O21172   8.437   5.217   8.843  0.6614  0.1746 -0.8367
  879MOL0     C21173   8.311   5.270   8.904 -0.3251 -0.3373 -0.4183
  879MOL0     C21174   8.207   5.278   8.790  0.1460 -0.0279 -0.1247
  879MOL0     C21175   8.118   5.392   8.820  0.0413 -0.9055  0.3296
  879MOL0     C21176   8.057   5.448   8.689  0.5899 -0.0449 -0.2822
  879MOL0     C21177   8.000   5.586   8.692 -0.1206  0.1512 -0.2418
  879MOL0     C21178   7.929   5.616   8.558 -0.7219 -0.9045 -1.1234
  879MOL0     C21179   8.021   5.699   8.468 -0.7493 -0.2083 -0.5483
  879MOL0     C21180   7.989   5.673   8.321  0.2592 -0.7008 -0.0422
  879MOL0     N21181   8.051   5.547   8.283  0.0879  0.8226  0.4294
  879MOL0     C21182   8.009   5.489   8.158 -1.0568 -0.1314  0.1720
  879MOL0     C21183   8.104   5.380   8.143  0.2670 -0.8569 -0.2689
  879MOL0     C21184   8.112   5.283   8.029  0.0271 -0.5002  0.2689
  879MOL0     C21185   8.176   5.364   7.910  0.7538 -1.9150  0.4735
  879MOL0     C21186   8.322   5.388   7.943  0.4542 -0.2838  0.8350
  879MOL0     C21187   8.392   5.419   7.811 -0.0029  0.3021  0.4351
  879MOL0     O21188   8.393   5.299   7.746  0.0939  0.2838  0.5185
  879MOL0     C21189   8.402   5.295   7.611  0.1420 -0.3910 -0.2358
  879MOL0     C21190   8.434   5.413   7.533  0.4860 -0.0385  0.2130
  879MOL0     C21191   8.427   5.423   7.390  0.1655 -0.3371 -0.7391
  879MOL0     C21192   8.455   5.561   7.335 -0.8885  0.4075 -0.1866
  879MOL0     C21193   8.402   5.304   7.322 -0.3499 -0.1775 -1.1217
  879MOL0     C21194   8.380   5.288   7.177  1.0202 -0.4920  0.9469
  879MOL0     O21195   8.448   5.364   7.089  0.0410 -0.4305 -0.3402
  879MOL0     C21196   8.426   5.350   6.956  0.5318  0.3578  0.6054
  879MOL0     C21197   8.316   5.406   6.891 -0.6618  0.3171  0.7986
  879MOL0     C21198   8.299   5.394   6.746 -0.2375 -0.5950 -0.0243
  879MOL0     C21199   8.395   5.324   6.675  0.2000 -0.7123  0.5930
  879MOL0     O21200   8.373   5.315   6.534  0.3425  0.0025  0.1948
  879MOL0     C21201   8.445   5.202   6.471  0.3764  0.4775  0.8129
  879MOL0     C21202   8.395   5.173   6.340  0.7301 -0.6823  0.0688
  879MOL0     C21203   8.287   5.073   6.348  0.0472 -0.5996  0.2618
  879MOL0     C21204   8.208   5.056   6.219 -0.0599 -0.6921  0.2020
  879MOL0     C21205   8.117   4.945   6.203 -0.0574 -0.3551  0.5430
  879MOL0     C21206   8.175   4.803   6.224 -0.3468 -0.7077 -0.2311
  879MOL0     C21207   8.298   4.782   6.125  0.7322 -0.0919 -0.0181
  879MOL0     C21208   8.352   4.645   6.166  0.0196  0.0316  0.6550
  879MOL0    Cl21209   8.282   4.528   6.063 -0.0317  0.0325  0.4820
  879MOL0     C21210   8.502   5.262   6.739 -0.5238  0.1266 -0.3759
  879MOL0     C21211   8.510   5.272   6.881 -0.1812  0.1825  0.3199
  879MOL0     O21212   8.274   5.225   7.148  0.0785 -0.2363  0.5809
  879MOL0     C21213   8.384   5.186   7.398 -0.1592  0.5442 -0.1274
  879MOL0     C21214   8.373   5.179   7.536 -0.6352 -0.1682 -0.5273
  879MOL0     N21215   8.180   5.386   8.262 -0.3210  0.3109 -0.2455
  879MOL0     N21216   8.144   5.474   8.345 -0.3444  0.4083 -1.0541
  879MOL0     C21217   8.538   5.211   9.063  0.0858  0.2502 -0.3393
  879MOL0     C21218   8.633   5.147   9.148 -0.2708  0.1606 -0.1820
  879MOL0     C21219   8.887   4.930   9.402 -0.6830  0.4540 -0.4566
  879MOL0     C21220   8.863   4.849   9.516 -0.5791  0.1091 -0.3417
  879MOL0     C21221   8.969   4.828   9.614  0.1791 -0.4622 -0.0254
  879MOL0     C21222   9.089   4.892   9.602 -0.4489 -0.5798  0.1057
  879MOL0     O21223   9.192   4.904   9.694  0.3188 -0.3074 -0.2510
  879MOL0     C21224   9.196   4.818   9.808 -0.2753  0.9927 -0.4040
  879MOL0     C21225   9.311   4.856   9.904  0.0769 -0.4132 -0.0354
  879MOL0     C21226   9.279   4.970  10.002 -0.7071  0.0992 -0.2033
  879MOL0     C21227   9.380   4.982  10.122 -0.0827  1.0392  0.6209
  879MOL0     C21228   9.316   5.086  10.209  1.0675 -0.2504  0.2937
  879MOL0     C21229   9.277   5.193  10.259  0.4771  0.1548 -0.1301
  879MOL0     C21230   9.110   4.980   9.499  0.3317  0.4773 -0.6121
  879MOL0     C21231   9.015   5.002   9.403 -0.4856  1.0827  1.2838
  879MOL0     C21232   9.046   5.120   9.309 -1.0482  1.0642 -0.7145
  879MOL0     H21233   8.776   4.924   8.944 -0.4303 -1.1589  1.8791
  879MOL0     H21234   8.597   5.035   8.778 -3.9751  3.9196 -0.6517
  879MOL0     H21235   8.327   5.365   8.956  0.3303 -1.8040  2.2852
  879MOL0     H21236   8.263   5.194   8.967  0.3733 -1.2219 -0.9281
  879MOL0     H21237   8.243   5.302   8.690 -0.7594 -2.4859 -1.1190
  879MOL0     H21238   8.152   5.185   8.774 -3.7770  1.9464  0.4967
  879MOL0     H21239   8.040   5.370   8.893  1.1132 -0.0843  1.7540
  879MOL0     H21240   8.174   5.474   8.865 -2.4405 -0.5032  2.9954
  879MOL0     H21241   8.133   5.450   8.611 -0.1975 -0.7872 -1.0822
  879MOL0     H21242   7.974   5.385   8.658 -1.8504  2.2974  1.0902
  879MOL0     H21243   8.065   5.671   8.716 -2.0893  1.2968  1.3051
  879MOL0     H21244   7.935   5.589   8.779 -0.6256 -3.9681 -0.2976
  879MOL0     H21245   7.896   5.529   8.499 -0.4351  0.1997 -3.0051
  879MOL0     H21246   7.844   5.679   8.582  1.5218  1.7456  0.4108
  879MOL0     H21247   8.125   5.674   8.490 -0.0305  2.3496 -0.7668
  879MOL0     H21248   8.018   5.801   8.505 -2.0648 -0.1275 -0.8287
  879MOL0     H21249   7.884   5.685   8.291  1.0566  0.5955 -2.6310
  879MOL0     H21250   8.023   5.767   8.276  1.0132 -1.1691 -0.4573
  879MOL0     H21251   7.941   5.522   8.079 -2.0631  3.4129  2.2923
  879MOL0     H21252   8.014   5.239   8.008 -0.4450  0.8436 -0.5147
  879MOL0     H21253   8.171   5.196   8.058 -1.9485 -1.2584  2.3718
  879MOL0     H21254   8.169   5.307   7.817  1.3015 -1.0321 -0.1312
  879MOL0     H21255   8.124   5.459   7.892 -1.7312 -3.4581 -1.2315
  879MOL0     H21256   8.349   5.483   7.988 -2.8686  0.8855  0.6073
  879MOL0     H21257   8.375   5.303   7.986  1.5402 -0.3249 -0.5000
  879MOL0     H21258   8.324   5.493   7.768 -4.6585 -1.4679  3.8366
  879MOL0     H21259   8.494   5.455   7.819  0.6013 -0.7918 -1.6295
  879MOL0     H21260   8.461   5.503   7.587 -4.6125  2.2636 -0.5082
  879MOL0     H21261   8.456   5.639   7.412 -0.6628  0.2419 -0.0203
  879MOL0     H21262   8.369   5.582   7.270 -1.1609  1.4480  0.4765
  879MOL0     H21263   8.553   5.564   7.286 -0.0536  1.4404  1.4733
  879MOL0     H21264   8.245   5.467   6.947 -3.7300 -0.0174 -2.3804
  879MOL0     H21265   8.223   5.451   6.695  0.7082  1.7695  1.0339
  879MOL0     H21266   8.548   5.238   6.460  0.1812  0.2424 -3.0151
  879MOL0     H21267   8.436   5.110   6.530 -0.7373 -0.9337 -1.4106
  879MOL0     H21268   8.358   5.265   6.296  2.0037  1.1603  2.5883
  879MOL0     H21269   8.476   5.134   6.277  2.0321  0.4356  0.9836
  879MOL0     H21270   8.212   5.100   6.423 -0.2493 -1.2110  0.1816
  879MOL0     H21271   8.337   4.978   6.368  1.6864 -0.6021 -3.1391
  879MOL0     H21272   8.282   5.046   6.139  3.3320 -1.2726  3.2000
  879MOL0     H21273   8.150   5.147   6.201 -0.8810 -1.3657 -0.6719
  879MOL0     H21274   8.030   4.961   6.268 -2.1643  0.0828 -2.1880
  879MOL0     H21275   8.081   4.957   6.100 -0.9859 -0.7101  0.8108
  879MOL0     H21276   8.094   4.738   6.191 -0.9915 -0.4844  0.8702
  879MOL0     H21277   8.193   4.800   6.332  0.3618  0.0643 -0.3174
  879MOL0     H21278   8.376   4.856   6.142  0.6980 -0.8755  4.6749
  879MOL0     H21279   8.273   4.793   6.019 -1.2053  2.1040  0.5738
  879MOL0     H21280   8.310   4.613   6.262 -2.8349  0.1012 -0.4799
  879MOL0     H21281   8.461   4.635   6.162 -0.0062 -0.2256  0.5185
  879MOL0     H21282   8.582   5.208   6.688  0.3307  2.3933 -1.5829
  879MOL0     H21283   8.591   5.228   6.938  1.4694  0.8156 -1.4370
  879MOL0     H21284   8.367   5.094   7.343  0.3279  2.0402 -2.9881
  879MOL0     H21285   8.359   5.083   7.584 -2.6112  1.5684  2.8208
  879MOL0     H21286   8.479   5.283   9.120 -1.1365 -2.3947  1.9647
  879MOL0     H21287   8.639   5.183   9.250  3.1310  0.7167 -0.4701
  879MOL0     H21288   8.769   4.796   9.530 -2.2486  3.4291  3.1282
  879MOL0     H21289   8.949   4.762   9.698  0.0549  2.2028  2.2014
  879MOL0     H21290   9.106   4.813   9.870 -0.0954 -0.3919 -0.2350
  879MOL0     H21291   9.209   4.715   9.773 -1.4328 -0.9328  4.1467
  879MOL0     H21292   9.396   4.886   9.843 -0.2472 -1.9346 -1.3198
  879MOL0     H21293   9.339   4.767   9.961  0.6934  0.8703  1.7123
  879MOL0     H21294   9.285   5.059   9.938  1.0466 -0.3829 -0.7480
  879MOL0     H21295   9.179   4.950  10.043 -0.0702 -1.7938  0.5334
  879MOL0     H21296   9.477   5.018  10.086 -0.6507  1.8624 -0.1173
  879MOL0     H21297   9.390   4.891  10.182 -3.1825  2.7756  4.1495
  879MOL0     H21298   9.242   5.287  10.296 -3.1879 -0.9544 -0.3665
  879MOL0     H21299   9.199   5.042   9.502  2.6410 -2.6371  1.0916
  879MOL0     H21300   9.041   5.081   9.207  0.6610 -1.1217 -0.0406
  879MOL0     H21301   8.971   5.200   9.314 -0.0494  1.9887 -0.0035
  879MOL0     H21302   9.144   5.164   9.329 -1.3327  2.0741 -1.4550
  880MOL0     O21303   3.974   9.068   8.558 -0.0190  0.7956  0.1940
  880MOL0     C21304   4.035   8.966   8.592 -0.1422  0.1252 -0.0473
  880MOL0     O21305   4.133   8.969   8.688  0.2671  0.1217 -0.2391
  880MOL0     C21306   4.154   9.082   8.765 -0.6298  0.1174 -0.3467
  880MOL0     C21307   4.285   9.125   8.783  0.2999 -0.9767  0.6743
  880MOL0     C21308   4.319   9.228   8.871 -0.1482 -0.5221 -0.2182
  880MOL0     C21309   4.235   9.301   8.948 -0.7038  0.4308 -0.7727
  880MOL0     O21310   4.277   9.401   9.033  0.5243  0.9468 -0.3268
  880MOL0     C21311   4.195   9.430   9.152 -0.6215  0.2546 -0.3520
  880MOL0     C21312   4.256   9.522   9.261  0.4931  0.3410 -1.1143
  880MOL0     C21313   4.183   9.656   9.254  0.1761 -0.2667  0.0424
  880MOL0     C21314   4.241   9.739   9.381 -0.6915 -0.5918 -0.2935
  880MOL0     C21315   4.174   9.873   9.364 -0.4163  0.8682 -0.8543
  880MOL0     C21316   4.162   9.944   9.494  0.2276  0.5010 -1.2395
  880MOL0     C21317   4.299  10.002   9.540  0.4752  0.2694 -0.6499
  880MOL0     C21318   4.276  10.086   9.670 -0.4712  1.3572 -0.1663
  880MOL0     N21319   4.397  10.171   9.690  0.1583  0.2432  1.0042
  880MOL0     C21320   4.380  10.309   9.687 -0.0895 -0.5788 -0.5000
  880MOL0     C21321   4.481  10.359   9.771  0.8462  0.6555  0.9036
  880MOL0     C21322   4.508  10.504   9.791  0.0763  0.8458 -0.1886
  880MOL0     C21323   4.602  10.529   9.914 -0.5069  0.7839  0.0723
  880MOL0     C21324   4.748  10.517   9.878  0.2950 -0.7043 -0.7207
  880MOL0     C21325   4.808  10.651   9.816 -0.4224 -1.0638  0.7386
  880MOL0     O21326   4.767  10.659   9.682  0.1138  0.0128 -0.4934
  880MOL0     C21327   4.767  10.784   9.632 -0.0708 -0.7021  0.2623
  880MOL0     C21328   4.893  10.841   9.591  0.3449  0.1018 -1.2810
  880MOL0     C21329   4.902  10.973   9.543  0.4140 -0.2908  0.3529
  880MOL0     C21330   5.023  11.023   9.479  0.2510 -0.3909 -0.5637
  880MOL0     C21331   4.789  11.063   9.549  0.3090  0.7396 -0.2448
  880MOL0     C21332   4.792  11.205   9.499 -0.1993 -0.7743 -0.7499
  880MOL0     O21333   4.861  11.232   9.385  0.2472 -0.0011  1.0743
  880MOL0     C21334   4.883  11.362   9.337  0.1361 -0.3809  0.1698
  880MOL0     C21335   4.879  11.474   9.415  0.0756  0.3921  0.9946
  880MOL0     C21336   4.904  11.594   9.348  0.1496 -0.0383 -0.0477
  880MOL0     C21337   4.900  11.610   9.211 -0.1465  0.1016 -0.4793
  880MOL0     O21338   4.902  11.740   9.163 -0.6353 -0.8926  0.2604
  880MOL0     C21339   4.879  11.767   9.025 -0.2929  0.2451  0.5905
  880MOL0     C21340   4.736  11.765   8.980  0.0514 -0.2636 -0.6137
  880MOL0     C21341   4.707  11.827   8.844 -0.2504  0.0240 -0.2513
  880MOL0     C21342   4.553  11.858   8.811  0.8129  0.5269 -0.7035
  880MOL0     C21343   4.476  11.727   8.787  0.2646  0.5870  0.0041
  880MOL0     C21344   4.329  11.759   8.775  0.5800 -0.3124 -0.1228
  880MOL0     C21345   4.293  11.809   8.635 -0.2128  0.7285  0.1223
  880MOL0     C21346   4.148  11.776   8.599  0.6856 -0.3551  0.9253
  880MOL0    Cl21347   4.053  11.889   8.694 -0.1318 -0.3998  0.1030
  880MOL0     C21348   4.905  11.494   9.133 -0.2060  0.4155 -0.5628
  880MOL0     C21349   4.901  11.370   9.194  0.2924 -0.6737 -0.2379
  880MOL0     O21350   4.714  11.279   9.562 -0.3075 -0.1393  0.0236
  880MOL0     C21351   4.667  11.006   9.585  0.1224  0.0596  0.3667
  880MOL0     C21352   4.658  10.871   9.628 -0.0814 -0.0582  0.3136
  880MOL0     N21353   4.548  10.249   9.822  0.2210 -0.9334  0.3894
  880MOL0     N21354   4.498  10.141   9.770  0.5461 -0.2001 -0.5119
  880MOL0     C21355   4.103   9.262   8.925  0.1235  0.5581  0.0400
  880MOL0     C21356   4.061   9.150   8.844 -0.1463 -0.6808 -0.6301
  880MOL0     C21357   4.006   8.830   8.533 -0.1268 -0.1002  0.5961
  880MOL0     C21358   4.047   8.718   8.601 -0.8502 -0.4270 -0.1974
  880MOL0     C21359   4.011   8.583   8.562  0.9391 -0.3961  0.0149
  880MOL0     C21360   3.918   8.561   8.453 -0.5960  0.2960  0.5774
  880MOL0     O21361   3.891   8.432   8.425  0.8684 -0.6777 -0.1405
  880MOL0     C21362   3.770   8.415   8.349 -0.9272 -0.2914 -0.1990
  880MOL0     C21363   3.741   8.273   8.310 -0.3495  0.9364 -0.1618
  880MOL0     C21364   3.868   8.216   8.233  0.6347 -0.5868  0.1941
  880MOL0     C21365   3.985   8.166   8.325 -0.9293  0.1062 -0.0368
  880MOL0     C21366   3.952   8.030   8.379 -0.8767  0.2413  1.4893
  880MOL0     C21367   3.943   7.917   8.421  0.4600  0.1108 -0.6642
  880MOL0     C21368   3.883   8.675   8.383  1.0421  0.5363  0.1922
  880MOL0     C21369   3.927   8.803   8.415  0.8035  0.8343  0.0724
  880MOL0     C21370   3.875   8.904   8.328 -0.9255 -0.1577 -0.7929
  880MOL0     H21371   4.361   9.090   8.713 -1.2946 -2.6388 -0.3162
  880MOL0     H21372   4.423   9.257   8.880  0.2590 -0.9076 -2.9101
  880MOL0     H21373   4.183   9.337   9.207  0.1122  2.0103  3.0882
  880MOL0     H21374   4.100   9.475   9.121 -0.3535  0.6467 -0.6186
  880MOL0     H21375   4.230   9.467   9.352 -0.6779  3.6209  0.6721
  880MOL0     H21376   4.364   9.530   9.250  0.3323  0.8852 -2.5219
  880MOL0     H21377   4.204   9.707   9.159  2.9145 -1.7962 -0.2720
  880MOL0     H21378   4.074   9.647   9.261  0.2931 -0.4922  2.1685
  880MOL0     H21379   4.204   9.695   9.474 -0.3396 -0.2102  0.0295
  880MOL0     H21380   4.349   9.743   9.367 -1.0495 -1.9821 -5.9973
  880MOL0     H21381   4.073   9.865   9.323 -0.9663  2.1278  0.1436
  880MOL0     H21382   4.229   9.945   9.302  0.1418  1.4418  0.2550
  880MOL0     H21383   4.100  10.033   9.482  3.0095  2.5717 -1.1593
  880MOL0     H21384   4.129   9.867   9.565  1.7798 -1.0737 -2.1471
  880MOL0     H21385   4.354  10.054   9.461 -1.4698  1.8355 -1.0597
  880MOL0     H21386   4.361   9.919   9.573  0.5932 -0.2737 -2.1315
  880MOL0     H21387   4.188  10.149   9.652 -2.3080 -0.7430  1.0100
  880MOL0     H21388   4.260  10.017   9.753 -0.2609 -0.2425 -1.4203
  880MOL0     H21389   4.299  10.369   9.648 -0.0347  0.6158  1.1441
  880MOL0     H21390   4.411  10.543   9.820 -0.2513 -0.2120  0.1870
  880MOL0     H21391   4.530  10.556   9.697  0.7984  0.7410 -0.0895
  880MOL0     H21392   4.574  10.628   9.952 -2.5781  0.4965 -0.5552
  880MOL0     H21393   4.582  10.461   9.997 -2.1395 -0.9583 -1.6512
  880MOL0     H21394   4.796  10.501   9.975  1.4213 -0.9963 -1.3164
  880MOL0     H21395   4.763  10.439   9.803  1.0221  0.9502 -2.3846
  880MOL0     H21396   4.774  10.736   9.874  1.5134  0.7883 -0.6912
  880MOL0     H21397   4.917  10.638   9.824 -0.3033 -2.0275 -1.6074
  880MOL0     H21398   4.976  10.772   9.605  1.0886  1.2607  0.3316
  880MOL0     H21399   5.034  11.127   9.509 -5.3184  0.6088 -0.9503
  880MOL0     H21400   5.019  11.019   9.369  0.1358 -2.9984 -0.5433
  880MOL0     H21401   5.102  10.955   9.513 -0.2785 -2.1990 -2.6402
  880MOL0     H21402   4.869  11.467   9.523  2.1733 -1.2976  1.1608
  880MOL0     H21403   4.921  11.681   9.410 -0.4413  0.8798 -1.1242
  880MOL0     H21404   4.898  11.873   9.005 -0.9368 -0.0520 -1.8639
  880MOL0     H21405   4.939  11.702   8.960 -1.3211  1.5796 -1.8309
  880MOL0     H21406   4.716  11.661   8.956  2.0261 -0.2759 -2.5617
  880MOL0     H21407   4.680  11.811   9.062 -0.6369  0.3876 -1.4301
  880MOL0     H21408   4.748  11.772   8.759  0.5376 -2.9305  1.8917
  880MOL0     H21409   4.756  11.925   8.838  1.5253 -0.8674 -1.1215
  880MOL0     H21410   4.550  11.915   8.718  1.2935 -3.1119 -3.1444
  880MOL0     H21411   4.499  11.923   8.881 -1.7021  0.0843 -2.0858
  880MOL0     H21412   4.515  11.682   8.695  1.0535 -1.3718  1.2240
  880MOL0     H21413   4.480  11.657   8.871  0.6930  0.1232 -0.3995
  880MOL0     H21414   4.300  11.832   8.851 -1.9126  0.1900 -1.4576
  880MOL0     H21415   4.266  11.672   8.798  0.6587  0.2097  2.3514
  880MOL0     H21416   4.348  11.752   8.560  3.5170  1.4510  2.0651
  880MOL0     H21417   4.323  11.914   8.627  0.2893  1.0241  4.0940
  880MOL0     H21418   4.116  11.673   8.619 -0.3972  0.2464  2.4417
  880MOL0     H21419   4.129  11.792   8.492  0.8700 -1.9451  0.6277
  880MOL0     H21420   4.914  11.516   9.027 -2.3941  2.3857 -0.4168
  880MOL0     H21421   4.905  11.276   9.141  0.3677 -0.3652 -0.7870
  880MOL0     H21422   4.573  11.060   9.578  0.4477  0.9729  2.3673
  880MOL0     H21423   4.561  10.831   9.654  0.2662 -0.8218  0.4382
  880MOL0     H21424   4.026   9.327   8.964  0.1767  1.1119 -0.7339
  880MOL0     H21425   3.955   9.131   8.830 -0.2542  0.2118 -1.1141
  880MOL0     H21426   4.107   8.728   8.691 -3.6558  0.1126  1.7495
  880MOL0     H21427   4.047   8.498   8.620 -0.1483 -1.7338 -1.1870
  880MOL0     H21428   3.686   8.450   8.411 -1.9545 -1.6933 -0.7468
  880MOL0     H21429   3.769   8.478   8.260 -0.4239  2.6961  1.7830
  880MOL0     H21430   3.660   8.256   8.239 -0.5038 -2.7814  0.7072
  880MOL0     H21431   3.726   8.220   8.404  2.2499  0.8063  0.2702
  880MOL0     H21432   3.844   8.125   8.175  2.1231 -2.1477  1.9139
  880MOL0     H21433   3.907   8.298   8.173  0.1179 -0.3438  0.1787
  880MOL0     H21434   4.005   8.237   8.406  0.2729 -0.7435  0.4359
  880MOL0     H21435   4.075   8.165   8.263 -0.2381  0.6416  0.9245
  880MOL0     H21436   3.952   7.821   8.466  1.3287 -0.6497 -2.3606
  880MOL0     H21437   3.831   8.655   8.290  1.3117 -2.0239  0.5351
  880MOL0     H21438   3.815   8.873   8.242 -0.0425  0.5708 -1.7110
  880MOL0     H21439   3.819   8.972   8.392  1.6937  0.4120  1.0643
  880MOL0     H21440   3.955   8.973   8.297  0.7821 -1.4094  0.6188
  881MOL0     O21441  11.118   1.155   5.972  0.0813  0.0086  0.3545
  881MOL0     C21442  11.138   1.240   6.055 -0.1183  0.0950  0.1942
  881MOL0     O21443  11.178   1.367   6.040  0.2219  0.3404 -0.6356
  881MOL0     C21444  11.219   1.405   5.920 -0.0468 -0.2324 -0.3863
  881MOL0     C21445  11.321   1.497   5.925 -0.2753 -0.3299  0.6768
  881MOL0     C21446  11.360   1.562   5.812 -0.2376  0.4588  0.7216
  881MOL0     C21447  11.290   1.542   5.694 -0.8098 -0.0345  0.5350
  881MOL0     O21448  11.327   1.608   5.580  0.3424  0.0627 -0.2274
  881MOL0     C21449  11.288   1.741   5.568  1.2008 -1.5553  0.3353
  881MOL0     C21450  11.127   1.763   5.572 -0.4402  0.4482 -0.8601
  881MOL0     C21451  11.077   1.899   5.533  0.0130 -0.3044 -0.7123
  881MOL0     C21452  10.938   1.896   5.473  0.4611 -0.9728  0.4998
  881MOL0     C21453  10.888   2.026   5.411 -0.8762  0.3299 -0.9644
  881MOL0     C21454  10.738   2.014   5.370 -0.6527 -0.1267  0.2157
  881MOL0     C21455  10.690   2.148   5.293  0.1488  0.0376  0.2077
  881MOL0     C21456  10.557   2.111   5.236  0.1823  0.6286  0.1048
  881MOL0     N21457  10.499   2.231   5.165  0.0129  0.3266  0.3042
  881MOL0     C21458  10.427   2.332   5.214  0.0636 -0.5477 -0.5347
  881MOL0     C21459  10.430   2.429   5.118 -0.1626  0.3300 -0.4124
  881MOL0     C21460  10.389   2.575   5.131 -0.1112  1.5743 -0.3056
  881MOL0     C21461  10.293   2.626   5.024  0.9399 -0.7044 -0.3849
  881MOL0     C21462  10.158   2.553   5.009 -0.2482 -0.1875  0.1023
  881MOL0     C21463  10.076   2.566   5.135  0.2202  0.0529  0.6733
  881MOL0     O21464   9.956   2.481   5.125  0.1347 -0.0176  0.0808
  881MOL0     C21465   9.964   2.343   5.142 -0.9908 -0.7268 -0.2200
  881MOL0     C21466  10.075   2.276   5.200  0.0410  0.3829  0.1593
  881MOL0     C21467  10.060   2.133   5.237 -0.1151 -0.2210 -0.3526
  881MOL0     C21468  10.173   2.075   5.318 -0.8079  0.6235  0.9456
  881MOL0     C21469   9.929   2.075   5.218  0.3743  0.8867 -0.4142
  881MOL0     C21470   9.893   1.936   5.249  0.4772 -0.0226  0.6296
  881MOL0     O21471   9.796   1.870   5.180  0.5474  0.2086 -0.2754
  881MOL0     C21472   9.780   1.736   5.209  0.2918  0.5807  0.1670
  881MOL0     C21473   9.651   1.674   5.191 -0.1050  0.3663  1.1508
  881MOL0     C21474   9.639   1.537   5.204 -0.4497 -0.1243 -0.2727
  881MOL0     C21475   9.748   1.456   5.234 -0.4337  0.9658  0.4128
  881MOL0     O21476   9.718   1.325   5.253  1.0513 -0.2866  0.5781
  881MOL0     C21477   9.835   1.239   5.271 -0.6037  0.6715  0.5551
  881MOL0     C21478   9.807   1.086   5.238 -0.0096 -0.1503 -0.2449
  881MOL0     C21479   9.938   1.016   5.203 -0.1006 -0.5044  0.0011
  881MOL0     C21480  10.036   0.981   5.311 -0.4673  0.1655 -0.1905
  881MOL0     C21481  10.129   0.882   5.253 -0.9457  0.3948  0.1979
  881MOL0     C21482  10.231   0.837   5.355  0.3353 -0.4826  0.5296
  881MOL0     C21483  10.368   0.905   5.335  0.1481  0.1631 -0.9697
  881MOL0     C21484  10.373   1.052   5.342  0.2080 -0.3617 -0.1792
  881MOL0    Cl21485  10.541   1.111   5.308  0.0719 -0.2082  0.1955
  881MOL0     C21486   9.873   1.514   5.244 -0.0206 -0.8588  1.3351
  881MOL0     C21487   9.890   1.650   5.227 -0.6132 -0.1742 -0.4857
  881MOL0     O21488   9.945   1.899   5.357  0.0675  0.8683  0.1000
  881MOL0     C21489   9.826   2.153   5.155 -0.1024  0.2493  1.4470
  881MOL0     C21490   9.846   2.275   5.115  0.5735  0.4115 -0.0578
  881MOL0     N21491  10.485   2.378   5.008 -0.6536  0.9502 -0.6283
  881MOL0     N21492  10.537   2.265   5.035 -0.6211 -0.3663 -0.4767
  881MOL0     C21493  11.180   1.459   5.690 -0.4733  0.2196  0.5771
  881MOL0     C21494  11.152   1.385   5.802 -0.0729  0.4238 -0.6983
  881MOL0     C21495  11.118   1.202   6.188 -0.3502 -0.2941  0.6946
  881MOL0     C21496  10.989   1.222   6.249  0.0799 -0.2291  0.7747
  881MOL0     C21497  10.970   1.172   6.381  0.5816  1.0412  0.7178
  881MOL0     C21498  11.073   1.113   6.450  0.4247  0.4683  0.1324
  881MOL0     O21499  11.062   1.054   6.576 -0.3358 -0.7899 -0.3945
  881MOL0     C21500  11.002   1.138   6.682 -0.1233 -0.3797 -0.5147
  881MOL0     C21501  10.942   1.065   6.800  0.1314  0.2832 -0.7108
  881MOL0     C21502  10.826   0.976   6.753  0.3152 -0.0617 -0.2299
  881MOL0     C21503  10.816   0.848   6.843  0.4450  0.3927  1.1553
  881MOL0     C21504  10.799   0.891   6.993 -0.1821  0.3452  0.6006
  881MOL0     C21505  10.796   0.914   7.111  0.0819  0.4349 -0.1854
  881MOL0     C21506  11.198   1.107   6.391  0.8883  0.8368 -0.2658
  881MOL0     C21507  11.225   1.155   6.261 -0.0902 -0.1742 -0.4094
  881MOL0     C21508  11.369   1.158   6.212  0.0258  0.9446  0.4380
  881MOL0     H21509  11.365   1.527   6.020  0.0347  3.0093 -0.3967
  881MOL0     H21510  11.435   1.640   5.811 -1.9433  2.2277  2.4562
  881MOL0     H21511  11.325   1.772   5.470  1.6751 -2.0135  0.3585
  881MOL0     H21512  11.334   1.810   5.639 -2.0950  1.9037 -0.5834
  881MOL0     H21513  11.073   1.691   5.509  0.0005 -1.3008  0.6692
  881MOL0     H21514  11.101   1.747   5.677  3.3707  2.8328  0.6710
  881MOL0     H21515  11.072   1.959   5.624  1.9097  1.0293 -1.4330
  881MOL0     H21516  11.143   1.957   5.468 -1.1764  1.2459 -0.5883
  881MOL0     H21517  10.935   1.818   5.396 -1.4786  1.7374 -2.4400
  881MOL0     H21518  10.861   1.869   5.547 -0.6787 -1.7558 -0.9155
  881MOL0     H21519  10.950   2.044   5.323  0.9895 -4.3847 -0.9256
  881MOL0     H21520  10.900   2.110   5.480 -2.6711  1.9791 -2.5370
  881MOL0     H21521  10.734   1.924   5.309 -0.9794 -0.2282  0.3805
  881MOL0     H21522  10.673   1.998   5.457  1.2261 -0.6503  1.5915
  881MOL0     H21523  10.758   2.177   5.213 -1.1562 -1.5234 -1.5447
  881MOL0     H21524  10.681   2.239   5.353 -1.9257  1.3717 -1.9458
  881MOL0     H21525  10.565   2.031   5.162  0.9028 -0.9827  1.8340
  881MOL0     H21526  10.491   2.083   5.318  1.7051  0.5476  1.3499
  881MOL0     H21527  10.402   2.342   5.320  1.2947 -2.1442 -0.0584
  881MOL0     H21528  10.485   2.626   5.129 -0.1833  1.8177  1.1728
  881MOL0     H21529  10.341   2.587   5.229  0.0271 -0.1528  0.0153
  881MOL0     H21530  10.266   2.732   5.026  3.4043  0.0674 -2.7252
  881MOL0     H21531  10.339   2.621   4.925 -1.3363 -2.2797 -1.4571
  881MOL0     H21532  10.101   2.601   4.929 -0.5242 -3.2883 -1.7327
  881MOL0     H21533  10.164   2.446   4.990 -1.6443 -0.5298  1.3671
  881MOL0     H21534  10.136   2.536   5.221  3.2342  1.8872 -0.6415
  881MOL0     H21535  10.052   2.671   5.156 -1.5105 -0.7362  3.0140
  881MOL0     H21536  10.167   2.320   5.235 -0.4734  0.5195  1.3905
  881MOL0     H21537  10.251   2.145   5.350 -1.7433  0.8421  2.8473
  881MOL0     H21538  10.218   1.980   5.288  0.5921  1.1062  1.4021
  881MOL0     H21539  10.131   2.057   5.417 -1.9539 -1.2336  0.1618
  881MOL0     H21540   9.568   1.742   5.177 -0.4996  0.4239  3.3816
  881MOL0     H21541   9.538   1.496   5.196 -2.0971  3.3119  0.9504
  881MOL0     H21542   9.916   1.273   5.207  0.3873  1.3770  2.1083
  881MOL0     H21543   9.864   1.237   5.377 -1.2784 -0.4501  0.7347
  881MOL0     H21544   9.758   1.036   5.322  0.8275  2.2687  1.8250
  881MOL0     H21545   9.743   1.089   5.149  0.9490 -2.5515 -1.0757
  881MOL0     H21546   9.982   1.061   5.114 -1.0072 -1.2689 -0.8597
  881MOL0     H21547   9.895   0.922   5.166  2.6748 -1.8531 -0.0756
  881MOL0     H21548   9.997   0.932   5.400  1.8530 -1.4636  0.0340
  881MOL0     H21549  10.069   1.079   5.344 -1.9470  0.4155  0.6297
  881MOL0     H21550  10.072   0.795   5.218 -0.5373  1.1970 -2.7828
  881MOL0     H21551  10.176   0.918   5.161 -0.8627  0.8698  0.4240
  881MOL0     H21552  10.253   0.732   5.334 -2.3339 -0.8554 -0.8131
  881MOL0     H21553  10.190   0.856   5.454 -0.7369 -3.6380  0.7845
  881MOL0     H21554  10.402   0.878   5.235 -1.0505  1.3831 -1.7293
  881MOL0     H21555  10.443   0.870   5.407  0.3820  2.3584 -0.0727
  881MOL0     H21556  10.333   1.096   5.434 -3.6522 -0.2606 -1.7170
  881MOL0     H21557  10.302   1.085   5.266 -1.9273 -5.6348 -0.9316
  881MOL0     H21558   9.958   1.454   5.277  0.0430  0.3765  3.5363
  881MOL0     H21559   9.991   1.688   5.234 -0.6136 -0.0535 -1.1355
  881MOL0     H21560   9.727   2.113   5.134 -0.6206  2.9217 -2.1219
  881MOL0     H21561   9.765   2.322   5.060 -0.8213 -1.2733  0.4635
  881MOL0     H21562  11.128   1.450   5.595  1.3310 -1.0859 -0.3452
  881MOL0     H21563  11.071   1.317   5.776 -1.6601  3.2766 -4.1902
  881MOL0     H21564  10.901   1.259   6.199  1.6074  0.9427 -1.2124
  881MOL0     H21565  10.869   1.170   6.421  0.1006  1.2303 -0.4362
  881MOL0     H21566  11.067   1.218   6.719 -1.1060  1.2539 -2.1680
  881MOL0     H21567  10.915   1.189   6.639 -1.3107 -0.8724  1.1957
  881MOL0     H21568  10.919   1.136   6.880  1.3267 -2.0442  1.8577
  881MOL0     H21569  11.023   1.003   6.840 -0.6438 -0.7980 -0.7951
  881MOL0     H21570  10.739   1.040   6.769 -1.0609 -1.3249 -2.2442
  881MOL0     H21571  10.838   0.954   6.647  2.7232  4.0025 -1.0193
  881MOL0     H21572  10.903   0.784   6.831 -1.7578 -2.7048  0.5515
  881MOL0     H21573  10.733   0.783   6.815 -0.5563  1.6230  1.1551
  881MOL0     H21574  10.790   0.947   7.213 -0.7675  1.1606 -0.4491
  881MOL0     H21575  11.285   1.063   6.440  0.4639  2.1619  1.8040
  881MOL0     H21576  11.380   1.154   6.103  0.5486 -0.2311  0.5188
  881MOL0     H21577  11.422   1.246   6.249 -0.3956  1.2609  0.2993
  881MOL0     H21578  11.412   1.068   6.255 -1.1758  0.4177  0.5824
  882MOL0     O21579   5.285   2.942   1.374 -0.3063 -0.8473 -0.2605
  882MOL0     C21580   5.226   2.839   1.368  0.8743 -0.5253  0.2634
  882MOL0     O21581   5.159   2.789   1.465  0.1427 -0.1060 -0.1181
  882MOL0     C21582   5.137   2.870   1.574  0.1956 -0.3895 -0.2392
  882MOL0     C21583   5.180   2.816   1.695 -0.2051 -0.3112 -0.4021
  882MOL0     C21584   5.174   2.889   1.815  0.4171  1.2116 -0.4596
  882MOL0     C21585   5.122   3.020   1.821 -0.3545  1.0232 -0.9115
  882MOL0     O21586   5.118   3.075   1.947 -0.1488 -0.2721 -0.5703
  882MOL0     C21587   5.043   3.188   1.981 -0.1511  0.5230  0.4970
  882MOL0     C21588   5.126   3.315   1.967  0.2667  0.4448  0.3027
  882MOL0     C21589   5.067   3.452   1.997 -0.1974 -0.4772 -0.4486
  882MOL0     C21590   5.130   3.500   2.126 -0.2647  0.3221 -0.0361
  882MOL0     C21591   5.063   3.618   2.193 -0.2745 -1.2674 -0.1741
  882MOL0     C21592   5.020   3.739   2.101 -0.0278  0.4494  0.1059
  882MOL0     C21593   4.999   3.866   2.185 -0.1872  0.5856  0.9345
  882MOL0     C21594   4.873   3.876   2.265  0.7857 -0.5489 -0.1965
  882MOL0     N21595   4.756   3.845   2.182 -0.5315 -0.9195  0.8945
  882MOL0     C21596   4.735   3.898   2.056 -0.1985  0.2869  0.4298
  882MOL0     C21597   4.624   3.841   2.016 -0.2248 -0.4932  0.3451
  882MOL0     C21598   4.539   3.877   1.895  0.0926  0.5518 -0.3956
  882MOL0     C21599   4.509   4.026   1.890  0.4558 -0.7770  0.8378
  882MOL0     C21600   4.374   4.060   1.828  0.4721 -0.2945  0.2322
  882MOL0     C21601   4.360   4.213   1.788  0.1991  0.1225  0.5085
  882MOL0     O21602   4.409   4.260   1.662 -0.0069 -0.2237 -0.5513
  882MOL0     C21603   4.405   4.401   1.641 -0.3671 -0.1759  0.0578
  882MOL0     C21604   4.492   4.444   1.542  0.7252  0.6870 -0.4780
  882MOL0     C21605   4.507   4.579   1.518  0.1211  0.5989  0.7383
  882MOL0     C21606   4.608   4.625   1.413 -0.1539 -0.5151 -0.4242
  882MOL0     C21607   4.434   4.676   1.582  0.1804 -0.3201 -0.2620
  882MOL0     C21608   4.442   4.820   1.566 -0.0021  0.0050 -0.6064
  882MOL0     O21609   4.337   4.891   1.623 -0.1438  0.3748  0.1116
  882MOL0     C21610   4.382   5.005   1.679  0.6871 -0.1528 -0.3148
  882MOL0     C21611   4.358   5.126   1.610 -0.8964 -0.3438 -0.4358
  882MOL0     C21612   4.399   5.244   1.677  1.0450  0.2074 -0.9730
  882MOL0     C21613   4.459   5.242   1.805 -0.2399 -0.6678  0.2044
  882MOL0     O21614   4.502   5.366   1.857  1.0157 -0.3062  0.6969
  882MOL0     C21615   4.576   5.372   1.974 -1.0491  0.8850 -0.3213
  882MOL0     C21616   4.720   5.367   1.927 -0.0713 -0.2916 -0.8433
  882MOL0     C21617   4.808   5.411   2.049  0.7926  0.4947  0.4170
  882MOL0     C21618   4.955   5.369   2.014 -0.3066  0.0921 -0.0868
  882MOL0     C21619   5.056   5.434   2.122  0.2206  0.3362  0.8623
  882MOL0     C21620   5.197   5.393   2.091  0.0190 -0.0266 -0.6336
  882MOL0     C21621   5.240   5.258   2.126  0.0413 -0.0236  0.4102
  882MOL0     C21622   5.299   5.256   2.262  0.1548 -0.8588 -0.5154
  882MOL0    Cl21623   5.345   5.097   2.316 -0.1002 -0.1915  0.1742
  882MOL0     C21624   4.476   5.119   1.862  0.3210 -0.5075  0.2617
  882MOL0     C21625   4.429   4.998   1.811 -0.0863  0.4640  0.8070
  882MOL0     O21626   4.549   4.869   1.528  0.1722 -0.6609 -0.4352
  882MOL0     C21627   4.341   4.632   1.687  0.1878 -0.2221 -0.2006
  882MOL0     C21628   4.326   4.500   1.712 -0.3833  1.1509 -0.3650
  882MOL0     N21629   4.575   3.759   2.118 -0.3956  0.5485  0.7582
  882MOL0     N21630   4.658   3.751   2.210 -0.3036 -0.0429  0.6712
  882MOL0     C21631   5.067   3.076   1.707  0.7605 -0.0594  0.3346
  882MOL0     C21632   5.079   3.000   1.586 -0.0271  0.0236 -0.2903
  882MOL0     C21633   5.242   2.780   1.241 -0.9027  0.9491  1.1562
  882MOL0     C21634   5.369   2.730   1.193 -0.1377  0.6016 -0.1350
  882MOL0     C21635   5.392   2.673   1.063 -0.6582 -0.1862 -0.4448
  882MOL0     C21636   5.290   2.644   0.982  0.4906  0.4019 -0.5915
  882MOL0     O21637   5.318   2.593   0.855  0.1612 -0.1033 -0.1216
  882MOL0     C21638   5.211   2.547   0.772 -0.3507 -0.5076 -0.2830
  882MOL0     C21639   5.261   2.480   0.646 -0.6827 -0.9620  0.0492
  882MOL0     C21640   5.156   2.422   0.548  1.1927  0.2854  0.3733
  882MOL0     C21641   5.073   2.524   0.477  0.6901 -0.2822  1.0210
  882MOL0     C21642   4.966   2.575   0.566  0.6141  0.0018 -0.1347
  882MOL0     C21643   4.859   2.594   0.626  0.3068 -0.1510  0.2548
  882MOL0     C21644   5.164   2.673   1.040 -1.0204 -0.5822  0.6477
  882MOL0     C21645   5.137   2.747   1.155 -0.4440 -0.3845 -0.7298
  882MOL0     C21646   4.991   2.756   1.189  0.3198  0.0287 -0.1204
  882MOL0     H21647   5.230   2.719   1.694  3.5180  1.4306 -1.6389
  882MOL0     H21648   5.213   2.835   1.900 -0.0925 -0.1517 -1.0661
  882MOL0     H21649   5.020   3.176   2.087 -1.4794  0.4227  0.2136
  882MOL0     H21650   4.946   3.205   1.935 -1.5051  1.0741  3.3293
  882MOL0     H21651   5.216   3.298   2.027  0.7519  1.0056 -0.2451
  882MOL0     H21652   5.161   3.317   1.863  1.7964 -1.7742  0.6976
  882MOL0     H21653   5.095   3.521   1.917 -4.2290 -1.5754 -3.1076
  882MOL0     H21654   4.959   3.447   2.010 -0.2813 -0.9285 -1.3007
  882MOL0     H21655   5.140   3.426   2.206  1.2236  0.0363 -0.4480
  882MOL0     H21656   5.236   3.520   2.106  0.9143  0.3912  5.0040
  882MOL0     H21657   5.137   3.649   2.268 -0.4652 -0.2652 -0.3956
  882MOL0     H21658   4.972   3.596   2.250  0.5846  0.6646  2.1415
  882MOL0     H21659   5.093   3.750   2.020  0.4592 -1.5470  0.2116
  882MOL0     H21660   4.925   3.714   2.052 -1.0497  2.5502  0.9229
  882MOL0     H21661   5.004   3.958   2.126  0.2761  0.9951  1.6011
  882MOL0     H21662   5.080   3.876   2.257  1.7538 -2.2632 -0.6613
  882MOL0     H21663   4.885   3.817   2.356  0.1984  2.3339  1.8845
  882MOL0     H21664   4.865   3.982   2.292 -0.0992 -0.4369 -0.8153
  882MOL0     H21665   4.797   3.965   1.997 -1.8593 -0.0228 -1.7627
  882MOL0     H21666   4.452   3.811   1.887  2.2148 -2.3710 -1.3701
  882MOL0     H21667   4.598   3.842   1.810  2.0673  1.6673  0.4520
  882MOL0     H21668   4.505   4.069   1.991 -2.0429  3.1823 -0.6820
  882MOL0     H21669   4.582   4.089   1.840 -2.4316  1.8882 -0.3698
  882MOL0     H21670   4.366   4.005   1.734  1.4162  1.2613 -0.8112
  882MOL0     H21671   4.303   4.018   1.900  0.3478 -0.1527  0.1929
  882MOL0     H21672   4.253   4.236   1.783 -0.1623 -1.5444 -3.5887
  882MOL0     H21673   4.413   4.262   1.870 -1.5341 -1.2094  2.5381
  882MOL0     H21674   4.546   4.359   1.501 -3.2789 -1.5436 -1.7248
  882MOL0     H21675   4.553   4.692   1.346  0.6353  1.3500  0.6856
  882MOL0     H21676   4.649   4.538   1.362  1.6293 -0.4670  0.8016
  882MOL0     H21677   4.690   4.684   1.456  0.9992 -1.1965 -1.6151
  882MOL0     H21678   4.327   5.127   1.506 -0.9739  0.5031 -0.4092
  882MOL0     H21679   4.386   5.338   1.626 -1.3407 -0.3432 -1.5101
  882MOL0     H21680   4.561   5.471   2.016 -0.5089  0.7366  0.2454
  882MOL0     H21681   4.566   5.297   2.053 -0.7991  0.0089 -1.0962
  882MOL0     H21682   4.750   5.262   1.912  2.8657  0.4312 -0.6295
  882MOL0     H21683   4.737   5.426   1.837 -0.5996  0.0366 -0.7284
  882MOL0     H21684   4.777   5.366   2.144 -3.2550 -1.3969 -1.5331
  882MOL0     H21685   4.800   5.519   2.063 -1.0965  0.7289 -1.8355
  882MOL0     H21686   4.982   5.397   1.912  0.7462 -0.0790  0.1310
  882MOL0     H21687   4.956   5.260   2.013  1.8376  0.0815 -0.7101
  882MOL0     H21688   5.043   5.542   2.137 -2.8497  0.3975 -1.3164
  882MOL0     H21689   5.017   5.395   2.216 -0.3910  0.7877  0.8039
  882MOL0     H21690   5.268   5.459   2.142 -0.2856 -0.7417  0.7446
  882MOL0     H21691   5.221   5.399   1.984  1.3040 -1.4682 -0.4612
  882MOL0     H21692   5.309   5.213   2.054 -0.5837 -0.8536  0.3219
  882MOL0     H21693   5.152   5.195   2.112 -0.6722  1.0922 -0.2941
  882MOL0     H21694   5.222   5.303   2.325  0.2326  1.1025 -1.7871
  882MOL0     H21695   5.388   5.318   2.274 -1.1442  0.7377  1.6009
  882MOL0     H21696   4.522   5.114   1.960 -0.9505  0.9488  0.9694
  882MOL0     H21697   4.421   4.903   1.862 -0.2451 -0.7830 -1.4354
  882MOL0     H21698   4.283   4.714   1.729  0.4971  1.0013 -2.0526
  882MOL0     H21699   4.250   4.461   1.780 -0.5102 -0.2074 -1.2502
  882MOL0     H21700   5.014   3.170   1.714  3.9205  1.7779  1.4220
  882MOL0     H21701   5.045   3.050   1.496  1.1395 -1.6298 -1.7195
  882MOL0     H21702   5.456   2.743   1.256  1.8923  3.1760 -3.1417
  882MOL0     H21703   5.495   2.654   1.036 -0.1544  1.6019  0.0842
  882MOL0     H21704   5.138   2.485   0.825  0.0492 -2.1784 -1.6062
  882MOL0     H21705   5.154   2.634   0.737 -0.5095 -1.0268 -1.3543
  882MOL0     H21706   5.333   2.402   0.675 -0.2247 -0.7668 -0.5497
  882MOL0     H21707   5.319   2.548   0.583  0.5819 -0.2686  1.8981
  882MOL0     H21708   5.221   2.370   0.477  0.2513 -1.2047  0.5601
  882MOL0     H21709   5.094   2.349   0.601  0.7805  0.3032 -0.0666
  882MOL0     H21710   5.021   2.471   0.398 -0.3509 -0.7317  1.9808
  882MOL0     H21711   5.134   2.607   0.438  0.7502 -0.4484  0.7608
  882MOL0     H21712   4.770   2.616   0.681  0.7985  1.4792  0.4582
  882MOL0     H21713   5.085   2.657   0.967  3.1087 -0.1729 -4.5244
  882MOL0     H21714   4.973   2.845   1.249  2.1507  0.9645 -0.8726
  882MOL0     H21715   4.934   2.766   1.096  1.4681  1.3159 -0.7277
  882MOL0     H21716   4.963   2.662   1.236 -0.7465  0.5724  0.3381
  883MOL0     O21717   1.516   4.791   5.957  0.5547 -0.8892  0.2775
  883MOL0     C21718   1.530   4.898   5.895 -0.0262 -0.7479 -0.7630
  883MOL0     O21719   1.467   4.934   5.788  0.4160 -0.4872  0.1488
  883MOL0     C21720   1.375   4.856   5.728  0.7676  0.4587 -0.1624
  883MOL0     C21721   1.400   4.768   5.620 -0.2720 -0.5619 -0.2730
  883MOL0     C21722   1.304   4.674   5.571 -0.1624  0.2435  0.2063
  883MOL0     C21723   1.169   4.674   5.626  0.0195  0.1677  0.8856
  883MOL0     O21724   1.075   4.588   5.578  0.9503 -0.5821 -0.2047
  883MOL0     C21725   0.937   4.620   5.600 -0.0423 -0.2603 -0.1401
  883MOL0     C21726   0.852   4.538   5.501 -0.5124 -0.9619 -0.5651
  883MOL0     C21727   0.738   4.454   5.570  0.2378 -0.5904  0.5611
  883MOL0     C21728   0.605   4.443   5.489  0.1114  0.6061  0.5236
  883MOL0     C21729   0.517   4.332   5.559 -0.3377 -0.7820  0.8602
  883MOL0     C21730   0.387   4.297   5.481 -0.4092 -0.0466 -0.2479
  883MOL0     C21731   0.293   4.220   5.571 -0.4611 -0.0143 -0.2810
  883MOL0     C21732   0.184   4.165   5.481  0.6184  1.1192 -0.2107
  883MOL0     N21733   0.110   4.267   5.407 -0.2392  0.3996 -0.0288
  883MOL0     C21734   0.101   4.298   5.274 -0.5360  0.5060  0.3200
  883MOL0     C21735   0.006   4.391   5.267 -0.0901 -0.3490 -0.5563
  883MOL0     C21736  -0.027   4.464   5.134  0.6431  0.2106  0.0517
  883MOL0     C21737   0.080   4.563   5.078 -1.4584 -0.4156 -0.9884
  883MOL0     C21738   0.019   4.648   4.980  0.3522 -0.8009 -0.1193
  883MOL0     C21739   0.108   4.772   4.949  0.6092 -0.3801  0.5769
  883MOL0     O21740   0.217   4.727   4.870 -0.4205  0.4711  0.4623
  883MOL0     C21741   0.329   4.795   4.884 -0.6722 -0.4787  0.3621
  883MOL0     C21742   0.446   4.719   4.875 -0.9883 -0.2085  0.5477
  883MOL0     C21743   0.571   4.785   4.902 -0.2353 -0.6052 -0.8855
  883MOL0     C21744   0.686   4.689   4.906 -0.1273  0.2398 -0.4990
  883MOL0     C21745   0.582   4.923   4.931 -0.0107 -0.6586  0.0070
  883MOL0     C21746   0.710   4.994   4.963  0.9215  0.4655 -0.2965
  883MOL0     O21747   0.723   5.117   4.914 -0.0593 -0.2327  0.0976
  883MOL0     C21748   0.838   5.186   4.953 -0.4216 -0.0881 -0.3578
  883MOL0     C21749   0.964   5.155   4.890 -0.1008 -0.2759 -0.5996
  883MOL0     C21750   1.085   5.222   4.923 -0.6357 -0.2979 -0.5329
  883MOL0     C21751   1.081   5.319   5.030  0.5577 -0.0295  0.0539
  883MOL0     O21752   1.195   5.375   5.070 -0.3823 -0.8616 -0.2187
  883MOL0     C21753   1.189   5.521   5.092 -0.6838  0.0645 -0.2664
  883MOL0     C21754   1.331   5.579   5.072  0.2403  0.0270 -0.4860
  883MOL0     C21755   1.357   5.726   5.101  0.0772  0.1698  0.2635
  883MOL0     C21756   1.376   5.761   5.257 -0.5104 -0.4251 -0.8677
  883MOL0     C21757   1.391   5.919   5.274 -0.8008  0.2121 -0.0739
  883MOL0     C21758   1.420   5.938   5.420 -0.4971 -0.0259  0.1672
  883MOL0     C21759   1.465   6.087   5.424  0.2209  0.1889 -0.7997
  883MOL0     C21760   1.480   6.146   5.570  0.3521  0.2137 -0.0376
  883MOL0    Cl21761   1.502   6.321   5.561  0.1015 -0.2517 -0.4006
  883MOL0     C21762   0.950   5.352   5.091  0.0864  0.7864 -0.3060
  883MOL0     C21763   0.826   5.281   5.060 -0.9230  0.4362  0.4822
  883MOL0     O21764   0.782   4.941   5.037 -0.2975 -0.6710 -0.0728
  883MOL0     C21765   0.464   4.995   4.922  0.3781  0.1348 -0.5096
  883MOL0     C21766   0.343   4.931   4.911  0.2062  0.0165 -0.5032
  883MOL0     N21767  -0.059   4.413   5.389 -0.7220 -0.4017 -0.8126
  883MOL0     N21768   0.016   4.345   5.475  0.0523 -0.5704 -0.1394
  883MOL0     C21769   1.148   4.772   5.727 -0.7100 -0.5076 -0.1562
  883MOL0     C21770   1.244   4.858   5.778  0.3856  0.7651  0.1161
  883MOL0     C21771   1.661   4.972   5.912 -0.3037 -0.4028  0.2200
  883MOL0     C21772   1.781   4.902   5.898  0.6665  0.7672 -0.6282
  883MOL0     C21773   1.906   4.963   5.921 -0.0012  0.7458  0.5963
  883MOL0     C21774   1.910   5.098   5.940  0.1872  1.4429  0.1266
  883MOL0     O21775   2.022   5.167   5.975  0.2243  0.1101 -0.2619
  883MOL0     C21776   2.148   5.111   5.953  0.2616 -0.1890 -0.5074
  883MOL0     C21777   2.261   5.203   6.005  1.5573 -0.7972 -0.7598
  883MOL0     C21778   2.281   5.333   5.918 -0.2234 -0.8987 -0.0522
  883MOL0     C21779   2.268   5.306   5.769 -0.1574 -0.3855 -0.6204
  883MOL0     C21780   2.358   5.206   5.720  0.2312  0.4995 -0.2327
  883MOL0     C21781   2.434   5.126   5.676  0.2674  0.4220  0.3216
  883MOL0     C21782   1.796   5.170   5.954 -0.4335 -0.5453  0.2841
  883MOL0     C21783   1.664   5.114   5.937 -1.2017 -0.3490 -0.1621
  883MOL0     C21784   1.559   5.209   5.960  0.2828 -0.2356  0.2204
  883MOL0     H21785   1.501   4.780   5.583  0.0483  2.7566  1.2822
  883MOL0     H21786   1.328   4.603   5.492 -0.0044  1.1436 -0.5659
  883MOL0     H21787   0.920   4.726   5.574 -3.3371 -0.8221 -0.7595
  883MOL0     H21788   0.899   4.620   5.702 -2.5453  1.8841 -0.9449
  883MOL0     H21789   0.811   4.610   5.430  1.3131  0.0832 -0.6189
  883MOL0     H21790   0.922   4.474   5.448  2.0037  0.8166  0.4132
  883MOL0     H21791   0.786   4.357   5.587 -0.0409 -1.3528 -2.3902
  883MOL0     H21792   0.714   4.502   5.665 -2.9884 -1.2914  0.2336
  883MOL0     H21793   0.547   4.535   5.476 -0.9315  0.0932  1.4383
  883MOL0     H21794   0.647   4.415   5.392  3.1720 -0.8063  2.1150
  883MOL0     H21795   0.486   4.367   5.658  1.6566  0.9365  0.9258
  883MOL0     H21796   0.573   4.241   5.584 -1.4149 -0.9256  3.0001
  883MOL0     H21797   0.334   4.385   5.444  0.0420  0.3825  0.1125
  883MOL0     H21798   0.423   4.237   5.396 -3.4816 -3.3291  0.5187
  883MOL0     H21799   0.251   4.275   5.656 -1.2728 -2.9568  1.3722
  883MOL0     H21800   0.348   4.138   5.619 -0.5741 -0.5863 -1.1162
  883MOL0     H21801   0.223   4.093   5.408  3.8467  1.7198  0.7645
  883MOL0     H21802   0.123   4.098   5.543  1.0171  0.5711 -0.4020
  883MOL0     H21803   0.170   4.269   5.196 -1.7048 -5.0596  0.9589
  883MOL0     H21804  -0.117   4.521   5.159  1.2396  0.1262  2.7911
  883MOL0     H21805  -0.053   4.394   5.055  2.1217 -0.3490  0.0331
  883MOL0     H21806   0.100   4.630   5.162 -2.7402  0.0507 -1.0411
  883MOL0     H21807   0.166   4.508   5.038 -0.1344 -0.4370  1.6699
  883MOL0     H21808   0.011   4.580   4.895 -1.0722 -2.6894  1.4366
  883MOL0     H21809  -0.074   4.686   5.023  1.3164  1.0203  0.5102
  883MOL0     H21810   0.057   4.850   4.892 -1.4586 -0.7630  1.7991
  883MOL0     H21811   0.140   4.811   5.046  2.5252 -1.3660  0.4031
  883MOL0     H21812   0.422   4.614   4.861  0.3853 -0.8745  2.6375
  883MOL0     H21813   0.664   4.591   4.863 -1.7515 -0.7075  2.2978
  883MOL0     H21814   0.712   4.667   5.010 -2.3808 -4.7003 -0.6976
  883MOL0     H21815   0.770   4.735   4.853  2.3798 -1.2571  1.9119
  883MOL0     H21816   0.967   5.079   4.813  1.2576  2.0214 -2.9760
  883MOL0     H21817   1.187   5.193   4.900  0.3582  2.0297  0.6759
  883MOL0     H21818   1.125   5.575   5.022  0.7693  2.0971 -0.1244
  883MOL0     H21819   1.162   5.540   5.196 -2.3648  1.1493 -0.8682
  883MOL0     H21820   1.403   5.522   5.130  0.6931  0.3660 -0.7065
  883MOL0     H21821   1.368   5.560   4.970  2.4720 -0.9969  0.4495
  883MOL0     H21822   1.283   5.794   5.058 -0.1362 -0.6845 -0.7599
  883MOL0     H21823   1.447   5.749   5.043  0.2466  1.5582  1.0479
  883MOL0     H21824   1.472   5.718   5.288 -0.7734 -0.7700 -0.5199
  883MOL0     H21825   1.292   5.725   5.317  0.0349  0.5281  0.5323
  883MOL0     H21826   1.470   5.960   5.210 -0.8426 -1.2900 -1.1584
  883MOL0     H21827   1.308   5.983   5.245 -1.6558 -0.2045  1.3407
  883MOL0     H21828   1.501   5.871   5.452  2.8998  3.0359 -1.3056
  883MOL0     H21829   1.327   5.917   5.473  0.4696 -1.9560  1.2199
  883MOL0     H21830   1.385   6.149   5.382  0.0419  1.4671  1.2840
  883MOL0     H21831   1.557   6.098   5.365  0.0446 -2.7583 -1.8004
  883MOL0     H21832   1.558   6.094   5.627 -0.7610 -0.8080  0.6032
  883MOL0     H21833   1.388   6.132   5.627 -0.3696  0.2316 -1.1563
  883MOL0     H21834   0.944   5.428   5.168  1.9319  0.0323  0.6282
  883MOL0     H21835   0.732   5.305   5.109 -0.8776  2.1513 -0.2022
  883MOL0     H21836   0.461   5.103   4.933 -3.8974 -0.1027  2.9655
  883MOL0     H21837   0.266   5.007   4.918  0.7821  0.7780 -2.0983
  883MOL0     H21838   1.048   4.795   5.762 -0.1968 -0.6698  1.4725
  883MOL0     H21839   1.222   4.922   5.862 -0.5260 -3.3227  3.3117
  883MOL0     H21840   1.774   4.795   5.881 -0.7052  0.6043  0.7786
  883MOL0     H21841   1.997   4.905   5.906 -0.3947  0.3484 -0.3686
  883MOL0     H21842   2.151   5.021   6.016 -0.8837 -1.1970 -1.8165
  883MOL0     H21843   2.159   5.071   5.852 -3.7462  0.0372 -1.1992
  883MOL0     H21844   2.353   5.145   5.993  2.2065  0.2577 -0.9995
  883MOL0     H21845   2.240   5.228   6.109  0.2487 -5.6044  0.3730
  883MOL0     H21846   2.200   5.399   5.951  0.5608  0.3742 -0.5957
  883MOL0     H21847   2.376   5.386   5.926  0.5609 -2.1741 -0.6526
  883MOL0     H21848   2.295   5.399   5.718 -1.6754  1.5650  1.8892
  883MOL0     H21849   2.162   5.287   5.750 -0.9657  0.5434  2.4466
  883MOL0     H21850   2.509   5.059   5.639  1.3845  3.4039 -3.4204
  883MOL0     H21851   1.810   5.276   5.970  1.5683 -0.5952 -0.8933
  883MOL0     H21852   1.586   5.268   6.047 -3.9285  0.4229  1.3010
  883MOL0     H21853   1.547   5.270   5.870 -0.4882 -0.2525  0.3079
  883MOL0     H21854   1.460   5.167   5.979 -0.6143  1.2737 -0.9420
  884MOL0     O21855  10.313   0.213   6.067  0.0616 -0.4030  0.1190
  884MOL0     C21856  10.304   0.233   5.945  0.6337 -0.0029  0.5819
  884MOL0     O21857  10.223   0.322   5.884  0.0696  0.1417  0.0154
  884MOL0     C21858  10.169   0.409   5.974  0.4888 -0.3123  0.5387
  884MOL0     C21859  10.208   0.544   5.965  0.7145  0.4599  0.3919
  884MOL0     C21860  10.139   0.636   6.040  0.1970  0.1552 -0.3348
  884MOL0     C21861  10.042   0.608   6.131 -0.7003 -0.2152  0.3814
  884MOL0     O21862   9.995   0.706   6.213 -0.1771  0.0719  0.2014
  884MOL0     C21863   9.874   0.700   6.292 -0.7688  0.2756 -0.1308
  884MOL0     C21864   9.890   0.812   6.392  0.7377  0.2922  1.4948
  884MOL0     C21865  10.025   0.802   6.459  0.0844  0.0823 -1.2271
  884MOL0     C21866  10.036   0.889   6.589  0.3841  0.4352  0.1146
  884MOL0     C21867  10.177   0.936   6.621 -0.9369  0.0004  0.4553
  884MOL0     C21868  10.211   0.950   6.764  0.4793 -0.7515  0.3110
  884MOL0     C21869  10.353   1.009   6.776 -0.1976 -0.0252  0.1837
  884MOL0     C21870  10.362   1.152   6.745 -0.1930  0.3249 -0.0697
  884MOL0     N21871  10.306   1.250   6.841 -0.5842  0.0324  0.3483
  884MOL0     C21872  10.296   1.246   6.975  0.2456 -0.0682  0.1637
  884MOL0     C21873  10.235   1.360   7.006 -0.4103 -0.2126  0.2484
  884MOL0     C21874  10.195   1.422   7.146  0.1024  0.3276  0.1574
  884MOL0     C21875  10.254   1.358   7.272 -0.2781 -0.2879  0.9435
  884MOL0     C21876  10.168   1.397   7.393 -0.0754 -1.3504 -0.0730
  884MOL0     C21877  10.224   1.320   7.514 -0.4397 -0.9642  1.0139
  884MOL0     O21878  10.156   1.355   7.631  0.0063 -0.3908 -0.2967
  884MOL0     C21879  10.173   1.293   7.760 -1.3865 -0.2133  0.1510
  884MOL0     C21880  10.246   1.169   7.768 -0.6668 -0.0243 -0.1782
  884MOL0     C21881  10.279   1.107   7.881  1.1943 -0.2822 -0.2000
  884MOL0     C21882  10.340   0.966   7.877  0.8713  0.1300 -0.6549
  884MOL0     C21883  10.249   1.171   8.005 -0.2356 -0.1877  0.3154
  884MOL0     C21884  10.295   1.121   8.135  0.3495 -0.5382  0.4718
  884MOL0     O21885  10.228   1.024   8.204  0.5717 -0.6946  0.2538
  884MOL0     C21886  10.269   0.973   8.325  0.5254  0.6137 -1.2369
  884MOL0     C21887  10.239   0.839   8.345 -0.5694  0.2902 -0.4985
  884MOL0     C21888  10.277   0.766   8.467 -0.0141 -0.4597 -0.3300
  884MOL0     C21889  10.334   0.838   8.572 -0.3345  0.3457  0.1073
  884MOL0     O21890  10.366   0.767   8.683 -0.2675 -0.6881  0.7380
  884MOL0     C21891  10.489   0.806   8.749  0.1739  0.2364  0.2153
  884MOL0     C21892  10.508   0.706   8.868 -0.1373 -0.3243 -0.1579
  884MOL0     C21893  10.418   0.739   8.981  0.7805  0.1742 -0.1951
  884MOL0     C21894  10.403   0.622   9.086  0.6507 -0.7770  0.7733
  884MOL0     C21895  10.391   0.681   9.224  0.2678 -0.0357 -0.3265
  884MOL0     C21896  10.281   0.787   9.240  0.8478  0.7915 -0.8065
  884MOL0     C21897  10.135   0.734   9.240 -0.2503 -0.5704  0.2910
  884MOL0     C21898  10.046   0.845   9.264  0.8473  0.1984  1.1511
  884MOL0    Cl21899   9.889   0.789   9.328  0.3890 -0.3699 -0.2931
  884MOL0     C21900  10.347   0.978   8.553 -0.7398 -0.4215 -0.1524
  884MOL0     C21901  10.312   1.042   8.435 -1.4271  0.6039  0.5733
  884MOL0     O21902  10.396   1.180   8.173 -0.6413  0.4012 -0.0452
  884MOL0     C21903  10.176   1.288   8.002  0.2342  0.0649  0.3009
  884MOL0     C21904  10.136   1.347   7.880 -0.7682 -0.7846  0.1219
  884MOL0     N21905  10.216   1.439   6.887 -0.6507 -0.2075 -0.2134
  884MOL0     N21906  10.265   1.373   6.791 -1.3436  0.1946 -0.9861
  884MOL0     C21907  10.013   0.471   6.154  0.3509 -1.3039  0.5259
  884MOL0     C21908  10.070   0.373   6.072  0.1099 -0.0688 -0.2161
  884MOL0     C21909  10.395   0.156   5.851  0.3083  0.2170  0.2652
  884MOL0     C21910  10.416   0.215   5.721  0.2407 -0.3751 -0.8081
  884MOL0     C21911  10.507   0.157   5.632 -0.0944  0.4420 -0.3201
  884MOL0     C21912  10.579   0.044   5.664 -0.4945  1.0374  0.3838
  884MOL0     O21913  10.664  -0.004   5.563  0.0757 -0.4699 -0.6323
  884MOL0     C21914  10.776  -0.079   5.616  0.2555 -0.9146 -0.1177
  884MOL0     C21915  10.870  -0.130   5.505  0.2862 -0.3346 -0.1751
  884MOL0     C21916  10.781  -0.223   5.413 -0.1988  0.5855 -0.0512
  884MOL0     C21917  10.865  -0.317   5.322  0.6912  0.3845  1.3753
  884MOL0     C21918  10.941  -0.240   5.219 -0.7499 -0.5345 -0.3676
  884MOL0     C21919  11.011  -0.169   5.154  0.4401 -0.4998 -0.0786
  884MOL0     C21920  10.563  -0.015   5.795  0.4025 -0.3886 -0.5907
  884MOL0     C21921  10.468   0.042   5.884 -0.0734  0.1361 -0.2398
  884MOL0     C21922  10.457  -0.030   6.013  0.1531 -1.0035  0.1615
  884MOL0     H21923  10.296   0.571   5.908 -0.6733  0.9112 -1.6215
  884MOL0     H21924  10.170   0.740   6.044  1.3463 -0.2116  1.7219
  884MOL0     H21925   9.865   0.607   6.349 -1.1471  0.7169  0.5367
  884MOL0     H21926   9.784   0.707   6.231  1.0984  0.4976 -3.0627
  884MOL0     H21927   9.873   0.894   6.322 -2.7811 -2.3534 -1.2027
  884MOL0     H21928   9.801   0.816   6.456  1.2853 -1.4631  2.4650
  884MOL0     H21929  10.040   0.700   6.498 -0.8167  0.7378  0.9691
  884MOL0     H21930  10.106   0.825   6.389  2.5462 -0.9922  1.0730
  884MOL0     H21931   9.977   0.981   6.588  1.9298  1.4596  0.1701
  884MOL0     H21932   9.992   0.826   6.667  0.7029  3.7170  3.1989
  884MOL0     H21933  10.189   1.028   6.564 -1.1147 -0.0950  0.2612
  884MOL0     H21934  10.253   0.862   6.592 -2.1988 -1.2594  0.2737
  884MOL0     H21935  10.136   1.015   6.809  1.5362  1.9065 -1.5506
  884MOL0     H21936  10.198   0.850   6.808  3.6035 -1.4789 -0.1842
  884MOL0     H21937  10.418   0.960   6.703 -1.0660 -1.0667  0.0805
  884MOL0     H21938  10.399   0.983   6.871  1.8796 -2.8991 -1.4529
  884MOL0     H21939  10.470   1.170   6.737  0.2195 -2.6498 -3.8469
  884MOL0     H21940  10.321   1.177   6.647  2.6341 -0.2475 -1.5198
  884MOL0     H21941  10.352   1.178   7.039 -1.4113 -1.6623  0.0033
  884MOL0     H21942  10.086   1.422   7.143  0.0726 -1.1986  0.3243
  884MOL0     H21943  10.229   1.526   7.135  1.4770  0.0868  1.6717
  884MOL0     H21944  10.252   1.251   7.247 -1.5982  0.1193 -0.9405
  884MOL0     H21945  10.355   1.394   7.289 -1.0746  2.8824 -0.2094
  884MOL0     H21946  10.179   1.504   7.412  2.1760 -1.2542 -1.5682
  884MOL0     H21947  10.060   1.380   7.382  0.0071 -1.9644  0.0412
  884MOL0     H21948  10.204   1.213   7.501 -0.3814 -0.7622 -0.9794
  884MOL0     H21949  10.331   1.343   7.514 -1.2304  4.1216 -1.8399
  884MOL0     H21950  10.269   1.117   7.676 -0.6169 -2.2059  0.9852
  884MOL0     H21951  10.390   0.957   7.974 -1.7057 -0.8660  0.6666
  884MOL0     H21952  10.411   0.959   7.794  0.4117  0.0276 -1.0469
  884MOL0     H21953  10.266   0.887   7.858  0.1664  0.5606  0.2834
  884MOL0     H21954  10.178   0.793   8.268 -1.3783 -3.1284  1.9736
  884MOL0     H21955  10.266   0.660   8.487  6.1882 -1.8269 -2.1568
  884MOL0     H21956  10.562   0.800   8.668 -0.9691 -0.7135 -0.7698
  884MOL0     H21957  10.492   0.908   8.790 -1.4274 -0.0918  1.2447
  884MOL0     H21958  10.497   0.601   8.839  0.1886 -0.6147  0.7595
  884MOL0     H21959  10.610   0.716   8.906 -0.6224 -1.4688  1.5709
  884MOL0     H21960  10.316   0.752   8.946  0.1635 -0.7542  1.1574
  884MOL0     H21961  10.457   0.829   9.029  3.0001 -2.1261  2.7370
  884MOL0     H21962  10.496   0.565   9.092  2.2677  1.3188 -1.8011
  884MOL0     H21963  10.315   0.566   9.052  0.2623  1.0148 -1.4621
  884MOL0     H21964  10.367   0.614   9.306 -0.4292 -0.0238 -0.5194
  884MOL0     H21965  10.484   0.736   9.242 -1.1526  2.8100 -1.1161
  884MOL0     H21966  10.281   0.874   9.174  1.2944  2.4013  1.2298
  884MOL0     H21967  10.307   0.827   9.338 -0.8207 -1.1648  0.5162
  884MOL0     H21968  10.131   0.656   9.317  1.0138 -2.3310 -1.3067
  884MOL0     H21969  10.118   0.676   9.148  4.7998 -4.4861  1.3883
  884MOL0     H21970  10.026   0.879   9.162 -0.1797 -2.6864  0.3115
  884MOL0     H21971  10.084   0.928   9.324 -0.6206  0.7439  1.3795
  884MOL0     H21972  10.386   1.037   8.635  0.3482 -0.0996 -0.8775
  884MOL0     H21973  10.309   1.151   8.441 -1.7672  0.5242  3.4405
  884MOL0     H21974  10.155   1.348   8.091  1.0025  1.5815 -0.5093
  884MOL0     H21975  10.071   1.433   7.869  0.2615 -0.3529 -6.4197
  884MOL0     H21976   9.937   0.447   6.228 -0.7944 -0.7312 -0.4135
  884MOL0     H21977  10.044   0.269   6.086  1.4989 -0.1627  2.2742
  884MOL0     H21978  10.363   0.302   5.681  0.2809 -0.4868 -1.1102
  884MOL0     H21979  10.519   0.186   5.528 -0.2399 -1.2575 -0.8531
  884MOL0     H21980  10.835  -0.022   5.690  1.7125 -0.2762 -1.7063
  884MOL0     H21981  10.739  -0.168   5.667 -0.2031 -0.5216  0.2427
  884MOL0     H21982  10.946  -0.195   5.548 -0.4063 -1.2637 -0.3387
  884MOL0     H21983  10.919  -0.049   5.449  0.4201 -0.6268 -0.4812
  884MOL0     H21984  10.704  -0.270   5.476 -0.4346  0.2840 -0.5645
  884MOL0     H21985  10.726  -0.163   5.339 -1.0119 -0.3647 -0.2418
  884MOL0     H21986  10.805  -0.386   5.263  2.9868 -0.7595  0.2100
  884MOL0     H21987  10.936  -0.375   5.382  1.5334 -0.4129 -0.3131
  884MOL0     H21988  11.078  -0.098   5.110  1.3488  1.4491  3.9783
  884MOL0     H21989  10.626  -0.090   5.841 -0.6197  0.6133  2.6678
  884MOL0     H21990  10.524   0.020   6.085  1.7933 -1.1977 -1.1553
  884MOL0     H21991  10.352  -0.026   6.042  0.3041 -0.6650  0.6771
  884MOL0     H21992  10.494  -0.132   6.005 -0.2576 -1.2799  1.5729
  885MOL0     O21993   5.544   7.288   0.129  0.4035 -0.0498 -1.3757
  885MOL0     C21994   5.655   7.321   0.170  0.2781  0.2873  0.1388
  885MOL0     O21995   5.677   7.436   0.252  0.4868 -0.5631 -0.2980
  885MOL0     C21996   5.568   7.511   0.268  0.3582 -0.3485  0.3404
  885MOL0     C21997   5.501   7.513   0.392 -0.0093 -0.6493  0.7788
  885MOL0     C21998   5.395   7.597   0.417 -0.7136  0.5406 -0.0362
  885MOL0     C21999   5.362   7.705   0.327 -0.1154  0.0618  0.4045
  885MOL0     O22000   5.268   7.799   0.365 -0.1692  0.0511  0.0221
  885MOL0     C22001   5.191   7.849   0.253 -0.0059 -0.3282 -0.2799
  885MOL0     C22002   5.080   7.921   0.321 -0.2928 -0.6649  0.5425
  885MOL0     C22003   4.981   7.840   0.401  0.0885  0.6043 -0.2220
  885MOL0     C22004   4.939   7.714   0.318  0.3605  0.2363 -0.2844
  885MOL0     C22005   4.818   7.645   0.390  0.2685  0.8467  0.4381
  885MOL0     C22006   4.699   7.669   0.302  0.3313  0.0490  1.0662
  885MOL0     C22007   4.584   7.595   0.367 -0.2682 -0.1751 -0.4664
  885MOL0     C22008   4.458   7.593   0.280 -0.0646  0.2538  0.4045
  885MOL0     N22009   4.382   7.720   0.278  0.7793 -0.9587 -0.2442
  885MOL0     C22010   4.389   7.811   0.385  0.7602  0.9476  0.7896
  885MOL0     C22011   4.305   7.914   0.346 -0.8884  0.2593  1.0506
  885MOL0     C22012   4.286   8.042   0.414 -0.0331 -0.6034  0.4221
  885MOL0     C22013   4.189   8.136   0.332  0.6029  0.4123  0.1317
  885MOL0     C22014   4.180   8.282   0.381  0.8271  0.3174 -0.3243
  885MOL0     C22015   4.088   8.362   0.301 -0.7326  0.6811 -0.8555
  885MOL0     O22016   4.125   8.495   0.316  0.1464 -0.6639 -0.6064
  885MOL0     C22017   4.019   8.582   0.338  0.6421 -0.1081  0.2835
  885MOL0     C22018   4.035   8.680   0.433  1.2837 -0.7273 -0.6934
  885MOL0     C22019   3.937   8.774   0.469  0.1779  1.3263  0.5639
  885MOL0     C22020   3.968   8.866   0.577 -0.2351 -0.0806  0.1707
  885MOL0     C22021   3.809   8.771   0.396 -0.3766 -0.7183 -0.8751
  885MOL0     C22022   3.695   8.859   0.430 -0.0476  0.0307 -0.3366
  885MOL0     O22023   3.657   8.856   0.557 -0.2009 -0.5381  0.2982
  885MOL0     C22024   3.538   8.911   0.604  0.8707 -0.0538 -0.2544
  885MOL0     C22025   3.421   8.902   0.522  1.3259  0.9638 -0.5747
  885MOL0     C22026   3.302   8.952   0.578  0.3731 -0.0864  0.0541
  885MOL0     C22027   3.290   9.006   0.706 -0.0756 -0.2294  0.1159
  885MOL0     O22028   3.178   9.076   0.749 -0.3420 -0.8421  0.2025
  885MOL0     C22029   3.186   9.212   0.775  0.1873 -1.1596 -1.0563
  885MOL0     C22030   3.048   9.251   0.834 -0.5175  0.4609  0.1591
  885MOL0     C22031   3.034   9.400   0.846  0.3814  0.3345  0.7010
  885MOL0     C22032   2.981   9.471   0.726 -0.8855 -0.0061  1.0396
  885MOL0     C22033   2.945   9.620   0.757 -0.3162  0.0830 -0.2959
  885MOL0     C22034   2.865   9.657   0.879  0.6083  0.4006 -0.0458
  885MOL0     C22035   2.841   9.805   0.877  0.4397  0.1465  0.4988
  885MOL0     C22036   2.796   9.854   1.023 -0.5298 -0.1543  0.1594
  885MOL0    Cl22037   2.925   9.825   1.143 -0.1142  0.2943 -0.5972
  885MOL0     C22038   3.403   8.999   0.780  0.3855  0.2008  0.4716
  885MOL0     C22039   3.533   8.957   0.735 -0.3413  0.4459 -0.9259
  885MOL0     O22040   3.644   8.927   0.343  0.1644 -0.7434 -0.3419
  885MOL0     C22041   3.792   8.669   0.297  0.4389  0.3146 -0.0831
  885MOL0     C22042   3.894   8.581   0.272 -0.1012  0.8231  0.5898
  885MOL0     N22043   4.257   7.883   0.221 -1.2022  0.4665 -0.3899
  885MOL0     N22044   4.307   7.768   0.180  0.8244 -0.9110 -0.6682
  885MOL0     C22045   5.437   7.714   0.207  1.3969 -0.1449 -0.4234
  885MOL0     C22046   5.538   7.618   0.176  0.5833 -0.9787 -0.0327
  885MOL0     C22047   5.769   7.241   0.137  0.0241  0.3473  0.5454
  885MOL0     C22048   5.767   7.190   0.006 -0.1246  0.3701  1.1155
  885MOL0     C22049   5.869   7.113  -0.049 -0.8098  0.1184 -0.7646
  885MOL0     C22050   5.973   7.078   0.034 -0.5006  1.1296 -0.2419
  885MOL0     O22051   6.083   7.020  -0.024 -0.1103 -0.2022 -0.7154
  885MOL0     C22052   6.082   6.877  -0.032  0.6996 -0.5208 -1.0449
  885MOL0     C22053   6.122   6.798   0.091  0.4179 -0.3923 -0.2332
  885MOL0     C22054   6.246   6.841   0.154  0.1681 -0.6570  0.0529
  885MOL0     C22055   6.264   6.794   0.299 -0.0003  0.5489 -0.3991
  885MOL0     C22056   6.381   6.858   0.351 -0.2705  0.7395  0.1388
  885MOL0     C22057   6.485   6.901   0.382 -0.3117 -0.4856 -0.1403
  885MOL0     C22058   5.979   7.123   0.168 -1.1757  0.3647 -0.1826
  885MOL0     C22059   5.876   7.205   0.223 -0.2233 -0.4497 -0.0887
  885MOL0     C22060   5.888   7.248   0.365  0.0924 -0.3794  0.2988
  885MOL0     H22061   5.533   7.438   0.464  0.0375 -0.4565  0.9598
  885MOL0     H22062   5.335   7.595   0.507 -1.2378 -0.5640 -0.3915
  885MOL0     H22063   5.162   7.760   0.196  5.5242 -0.7512 -3.2115
  885MOL0     H22064   5.244   7.920   0.188  0.6447  0.7028  1.3205
  885MOL0     H22065   5.125   7.999   0.383 -1.1556 -0.6099  1.1222
  885MOL0     H22066   5.023   7.966   0.239  1.9394 -2.0200 -1.9483
  885MOL0     H22067   5.022   7.815   0.499  1.0581  0.3676 -0.6686
  885MOL0     H22068   4.903   7.913   0.420  0.7572  1.1008  0.7070
  885MOL0     H22069   4.916   7.753   0.218  4.8925  1.7645 -0.9695
  885MOL0     H22070   5.016   7.638   0.305 -0.4685 -1.3740  3.2231
  885MOL0     H22071   4.809   7.693   0.488 -0.0490  2.6462 -0.4401
  885MOL0     H22072   4.834   7.538   0.404 -0.4161  0.9187  1.9968
  885MOL0     H22073   4.678   7.775   0.286  1.9731  0.2958  0.2747
  885MOL0     H22074   4.726   7.636   0.201  1.5454 -2.2969  2.0739
  885MOL0     H22075   4.552   7.632   0.465 -2.3465 -5.0505  1.0285
  885MOL0     H22076   4.598   7.491   0.398  0.9856 -0.1202 -0.7804
  885MOL0     H22077   4.490   7.577   0.176  0.4149  2.9900  0.0480
  885MOL0     H22078   4.390   7.513   0.310 -0.4070 -0.4928 -2.0652
  885MOL0     H22079   4.446   7.816   0.477  0.5537 -0.2894  0.9945
  885MOL0     H22080   4.380   8.087   0.448  0.6570 -0.9988 -0.9015
  885MOL0     H22081   4.236   8.016   0.508  2.5350 -1.0861  1.7585
  885MOL0     H22082   4.222   8.134   0.228 -0.0971 -1.5717 -0.0880
  885MOL0     H22083   4.087   8.098   0.326  0.9292 -0.2411 -4.4709
  885MOL0     H22084   4.141   8.286   0.483 -3.5380 -1.5460 -1.7136
  885MOL0     H22085   4.278   8.331   0.371  0.4311  1.7492  1.9783
  885MOL0     H22086   4.102   8.327   0.198  1.2767 -1.9974  0.2149
  885MOL0     H22087   3.984   8.342   0.327 -0.3404 -0.7792 -0.3160
  885MOL0     H22088   4.123   8.674   0.496  2.6412  0.1738 -2.4049
  885MOL0     H22089   3.927   8.963   0.552  0.4949  0.3389  0.5609
  885MOL0     H22090   4.076   8.881   0.588  0.1597 -3.2931  2.1165
  885MOL0     H22091   3.919   8.831   0.668 -0.0998  2.0448  1.1009
  885MOL0     H22092   3.413   8.849   0.428 -0.4568 -2.3831  1.2895
  885MOL0     H22093   3.212   8.951   0.517 -0.3574  1.2848  1.0694
  885MOL0     H22094   3.270   9.229   0.842  1.4502 -3.3830 -1.9785
  885MOL0     H22095   3.204   9.269   0.682  1.2973  0.3783  0.0389
  885MOL0     H22096   2.967   9.234   0.763  0.0668  2.4145 -1.0552
  885MOL0     H22097   3.026   9.200   0.928  1.3294 -0.3620  0.1837
  885MOL0     H22098   3.121   9.447   0.893  0.3702 -0.7385  1.8617
  885MOL0     H22099   2.961   9.409   0.928 -3.4754 -3.9516 -1.8155
  885MOL0     H22100   2.885   9.431   0.693 -0.4875 -0.9995  1.0498
  885MOL0     H22101   3.055   9.456   0.647  1.2432 -0.2671  2.9618
  885MOL0     H22102   3.039   9.673   0.779 -0.8190  0.3185  1.5032
  885MOL0     H22103   2.891   9.660   0.671  1.3817  1.5526 -0.7375
  885MOL0     H22104   2.913   9.629   0.974 -0.7230 -0.5626  0.3643
  885MOL0     H22105   2.771   9.602   0.876  1.9699 -2.2281  1.4174
  885MOL0     H22106   2.779   9.831   0.790  2.4521 -3.2412 -2.2199
  885MOL0     H22107   2.934   9.858   0.853  1.0439 -0.2962  1.7800
  885MOL0     H22108   2.705   9.794   1.037 -1.5426  0.5392 -2.8200
  885MOL0     H22109   2.771   9.960   1.025  0.6209  0.1352  0.0751
  885MOL0     H22110   3.404   9.044   0.879  3.4852  4.9587 -1.3393
  885MOL0     H22111   3.613   8.954   0.808 -1.3493 -1.8150  0.1896
  885MOL0     H22112   3.707   8.667   0.230  0.4787 -1.3867 -0.1249
  885MOL0     H22113   3.871   8.510   0.192 -2.0924  1.8317  0.2070
  885MOL0     H22114   5.426   7.802   0.143 -1.7794  0.1482  0.3354
  885MOL0     H22115   5.596   7.642   0.088 -1.8380  0.2311 -1.4016
  885MOL0     H22116   5.680   7.214  -0.055  2.2190  2.1021 -1.7707
  885MOL0     H22117   5.870   7.097  -0.157  0.8165  1.4830 -0.9997
  885MOL0     H22118   5.980   6.842  -0.046  0.8850 -2.7229  2.1097
  885MOL0     H22119   6.135   6.845  -0.122  0.5933 -0.7230 -1.0358
  885MOL0     H22120   6.120   6.696   0.053  0.5862  0.8591 -3.9515
  885MOL0     H22121   6.045   6.810   0.168  0.7693 -2.3822  0.4839
  885MOL0     H22122   6.333   6.814   0.094 -1.3540  0.3005 -2.7632
  885MOL0     H22123   6.250   6.950   0.153  0.3881 -0.5505 -4.0474
  885MOL0     H22124   6.265   6.685   0.310  2.5587  0.3549 -1.8615
  885MOL0     H22125   6.181   6.836   0.357 -0.2808  1.8977 -1.7065
  885MOL0     H22126   6.585   6.936   0.401 -0.8079  0.7988  0.2220
  885MOL0     H22127   6.058   7.085   0.233 -2.3968 -3.5417 -0.7500
  885MOL0     H22128   5.887   7.356   0.379  2.5469 -0.2798  0.0644
  885MOL0     H22129   5.808   7.215   0.432  0.1235 -1.3562 -0.1332
  885MOL0     H22130   5.983   7.212   0.403 -0.1191  0.9844  2.2613
  886MOL0     O22131  10.779   2.029   7.291 -0.5577 -0.4553  0.0018
  886MOL0     C22132  10.718   2.129   7.258 -0.3478 -0.5173  0.7092
  886MOL0     O22133  10.673   2.221   7.341 -0.5321  0.4254 -0.1854
  886MOL0     C22134  10.679   2.203   7.480  0.9049 -0.5575  0.0151
  886MOL0     C22135  10.748   2.311   7.552  1.3306 -0.3782  0.1910
  886MOL0     C22136  10.752   2.311   7.692 -0.6348 -0.1916  0.6527
  886MOL0     C22137  10.708   2.206   7.767 -0.7690  0.2476  0.2536
  886MOL0     O22138  10.741   2.198   7.904 -0.2359  0.2434  0.3451
  886MOL0     C22139  10.715   2.089   7.975  0.6034  0.3922  0.0982
  886MOL0     C22140  10.763   2.127   8.114  0.7063  0.1686 -0.9107
  886MOL0     C22141  10.777   2.003   8.196  0.1190  0.2470  0.7673
  886MOL0     C22142  10.821   2.029   8.344  0.1544  0.2533 -0.0588
  886MOL0     C22143  10.971   1.987   8.354 -0.7896  0.5719  0.1958
  886MOL0     C22144  11.082   2.082   8.285  0.7015  0.0761  0.5228
  886MOL0     C22145  11.087   2.214   8.362 -1.1424  0.7838  0.0943
  886MOL0     C22146  11.185   2.322   8.292 -0.3015  0.2897 -0.3640
  886MOL0     N22147  11.327   2.291   8.298  0.4274  0.1076 -0.3505
  886MOL0     C22148  11.383   2.231   8.404 -0.4705 -0.7172  0.2127
  886MOL0     C22149  11.514   2.202   8.385  0.3829  0.0553  0.4379
  886MOL0     C22150  11.606   2.133   8.483 -0.0678 -0.0709 -0.5947
  886MOL0     C22151  11.598   1.982   8.470  0.0980 -0.9879  0.1292
  886MOL0     C22152  11.464   1.929   8.525  0.3248  0.4348  0.3740
  886MOL0     C22153  11.438   1.799   8.454 -0.3610  0.9963 -0.1650
  886MOL0     O22154  11.301   1.764   8.476 -0.6484  0.9328 -0.2383
  886MOL0     C22155  11.260   1.655   8.407  0.7438 -0.7486  0.6282
  886MOL0     C22156  11.125   1.636   8.403  0.4202 -1.1537 -0.6871
  886MOL0     C22157  11.067   1.527   8.334 -0.1490  0.4400  0.5834
  886MOL0     C22158  10.918   1.502   8.327 -0.8144 -0.7449 -0.4292
  886MOL0     C22159  11.149   1.426   8.279  0.7785 -0.5728  0.2072
  886MOL0     C22160  11.091   1.308   8.200 -0.8351  0.4159 -0.3600
  886MOL0     O22161  10.975   1.247   8.251  0.4576  0.6579  0.2489
  886MOL0     C22162  10.902   1.161   8.169  0.0978 -0.6076  0.0604
  886MOL0     C22163  10.796   1.224   8.100  0.0046 -0.0143 -0.4652
  886MOL0     C22164  10.736   1.159   7.992  0.5979 -0.7542 -0.0014
  886MOL0     C22165  10.773   1.026   7.957  0.6613 -0.7356 -0.2216
  886MOL0     O22166  10.714   0.974   7.847 -0.0374  0.2454 -0.4217
  886MOL0     C22167  10.769   0.861   7.782 -0.6134 -0.4346 -0.7684
  886MOL0     C22168  10.733   0.843   7.641  0.7742  0.7596  0.8775
  886MOL0     C22169  10.798   0.713   7.585 -0.3152 -0.5485  0.1562
  886MOL0     C22170  10.755   0.683   7.443 -0.4645 -0.2090  0.6353
  886MOL0     C22171  10.845   0.580   7.367  0.0900  0.5316 -0.4123
  886MOL0     C22172  10.817   0.582   7.215  0.2044  0.4067 -0.0103
  886MOL0     C22173  10.910   0.486   7.139 -0.9374  0.2611 -0.7835
  886MOL0     C22174  10.932   0.531   6.993  0.1328 -0.5597 -0.1287
  886MOL0    Cl22175  11.035   0.419   6.903 -0.0701  0.1774 -0.1045
  886MOL0     C22176  10.867   0.959   8.048  0.2209  0.8874  0.4920
  886MOL0     C22177  10.936   1.030   8.138  0.0856 -0.0892  0.5849
  886MOL0     O22178  11.146   1.277   8.093 -0.3743 -0.3008 -0.3704
  886MOL0     C22179  11.294   1.445   8.282 -0.3624 -0.2387  0.5282
  886MOL0     C22180  11.341   1.557   8.344 -0.4329  0.0844  0.3821
  886MOL0     N22181  11.537   2.242   8.252 -0.6359 -0.5399  0.5246
  886MOL0     N22182  11.424   2.299   8.207  0.7887 -0.2624  0.4959
  886MOL0     C22183  10.641   2.101   7.705  0.5129  0.5616  0.7626
  886MOL0     C22184  10.628   2.093   7.554  0.6064  0.2961 -0.1253
  886MOL0     C22185  10.670   2.133   7.115 -0.7169  0.8014  0.2092
  886MOL0     C22186  10.548   2.199   7.087  0.4209  1.0357  0.3359
  886MOL0     C22187  10.491   2.193   6.954 -0.0911 -0.0547 -0.0097
  886MOL0     C22188  10.551   2.118   6.850 -0.7300  0.6392 -0.6847
  886MOL0     O22189  10.496   2.093   6.728  0.2371  0.4658 -0.3886
  886MOL0     C22190  10.472   2.195   6.632 -0.0657 -0.6658  0.7317
  886MOL0     C22191  10.584   2.253   6.540  0.1186 -0.6439  0.8946
  886MOL0     C22192  10.657   2.132   6.471 -0.8387 -0.0435 -0.7653
  886MOL0     C22193  10.575   2.041   6.377 -0.6213 -0.2083 -0.3393
  886MOL0     C22194  10.504   2.103   6.268 -0.9328 -0.5393 -1.3869
  886MOL0     C22195  10.442   2.156   6.182  0.2350  0.1069  0.4860
  886MOL0     C22196  10.673   2.055   6.880 -0.7069 -0.4450  0.6515
  886MOL0     C22197  10.732   2.066   7.007 -0.5175 -0.5132 -0.5746
  886MOL0     C22198  10.870   2.012   7.017 -0.3834  0.4747 -0.4994
  886MOL0     H22199  10.783   2.387   7.483 -0.5582 -1.5899 -2.2748
  886MOL0     H22200  10.804   2.395   7.736 -1.3711  0.8001 -0.3021
  886MOL0     H22201  10.770   2.002   7.938  2.5777  2.0171 -1.0343
  886MOL0     H22202  10.608   2.071   7.988  0.7029  0.8015  1.6018
  886MOL0     H22203  10.858   2.181   8.104  1.9893 -1.5489  1.0005
  886MOL0     H22204  10.680   2.186   8.154  1.0461 -1.3209  2.3117
  886MOL0     H22205  10.675   1.965   8.198  0.8338 -1.7851  1.0151
  886MOL0     H22206  10.852   1.938   8.149 -0.9503  0.4077 -1.2686
  886MOL0     H22207  10.802   2.135   8.367  1.3750  1.2310 -3.1017
  886MOL0     H22208  10.763   1.976   8.419  0.9678  1.2024  1.3042
  886MOL0     H22209  10.997   1.887   8.319  2.3876  2.6826 -4.6450
  886MOL0     H22210  10.982   1.980   8.463 -1.5179 -1.9207  0.1564
  886MOL0     H22211  11.176   2.030   8.305  1.1017  1.1435  1.5092
  886MOL0     H22212  11.063   2.097   8.179 -0.1756 -2.0278  0.3200
  886MOL0     H22213  11.115   2.204   8.467  2.8616  1.0359 -0.8004
  886MOL0     H22214  10.987   2.258   8.359 -1.1551  0.8373 -3.6390
  886MOL0     H22215  11.157   2.332   8.187 -1.5748  3.6581  0.1871
  886MOL0     H22216  11.155   2.414   8.343 -1.1971  0.6655 -1.5234
  886MOL0     H22217  11.336   2.207   8.499 -0.4420 -1.1029  0.1305
  886MOL0     H22218  11.585   2.159   8.587 -0.9952  1.8340 -1.2096
  886MOL0     H22219  11.708   2.168   8.462 -0.4011  1.4623  0.2147
  886MOL0     H22220  11.615   1.967   8.363  3.1726  1.5478  0.1065
  886MOL0     H22221  11.672   1.930   8.530  0.5537  0.8879  1.2652
  886MOL0     H22222  11.468   1.908   8.632  1.1707 -1.0321  0.0954
  886MOL0     H22223  11.377   1.992   8.508 -1.1619 -1.6561 -0.1523
  886MOL0     H22224  11.467   1.793   8.349 -2.1596 -0.4193 -0.6303
  886MOL0     H22225  11.497   1.724   8.507 -0.7756  0.3882 -0.5539
  886MOL0     H22226  11.054   1.700   8.454  0.3522 -0.5339 -1.5311
  886MOL0     H22227  10.889   1.421   8.394 -1.5314  2.2188  3.1980
  886MOL0     H22228  10.890   1.496   8.221  0.1269 -3.1025 -0.5991
  886MOL0     H22229  10.859   1.583   8.371  1.0574 -0.0265  0.8715
  886MOL0     H22230  10.779   1.330   8.109  3.1495  0.6044 -0.7831
  886MOL0     H22231  10.659   1.210   7.935  1.9694  0.0760 -1.1726
  886MOL0     H22232  10.878   0.870   7.786 -0.8046  2.3084  1.1923
  886MOL0     H22233  10.751   0.774   7.847 -1.4052 -0.4434 -0.9862
  886MOL0     H22234  10.627   0.842   7.613  0.9920 -2.5434 -0.1719
  886MOL0     H22235  10.766   0.926   7.578  0.3018 -0.3425 -0.8934
  886MOL0     H22236  10.763   0.638   7.657 -2.8109 -1.3053 -1.7086
  886MOL0     H22237  10.906   0.724   7.598 -0.1555 -3.0799  1.7411
  886MOL0     H22238  10.757   0.770   7.376 -0.3235  0.0607  0.9871
  886MOL0     H22239  10.654   0.643   7.448 -0.2461 -0.7064  1.1969
  886MOL0     H22240  10.940   0.626   7.395 -2.9116  6.0611  2.4573
  886MOL0     H22241  10.833   0.481   7.412 -0.7020  0.7006 -0.2324
  886MOL0     H22242  10.839   0.684   7.184  2.7185  0.6853  2.2725
  886MOL0     H22243  10.716   0.544   7.195  0.2279 -0.9795  2.1705
  886MOL0     H22244  10.890   0.378   7.139 -0.7837  0.2318 -0.2957
  886MOL0     H22245  11.006   0.491   7.192  0.7277  0.3704 -3.5650
  886MOL0     H22246  10.976   0.631   6.991 -2.5244  0.6598 -1.4321
  886MOL0     H22247  10.840   0.538   6.935  0.6449  0.7469 -0.8376
  886MOL0     H22248  10.877   0.851   8.043 -0.6420  0.8462 -2.6827
  886MOL0     H22249  11.006   0.981   8.205  2.0753 -1.4045 -2.2505
  886MOL0     H22250  11.363   1.384   8.225  0.5844  0.9838  0.3482
  886MOL0     H22251  11.448   1.574   8.346  0.0840 -0.9972 -4.6074
  886MOL0     H22252  10.599   2.021   7.766  3.8811 -0.5000  1.9826
  886MOL0     H22253  10.586   2.000   7.515 -1.6564  1.4639 -0.6482
  886MOL0     H22254  10.496   2.258   7.162 -1.5311  2.7350 -2.1712
  886MOL0     H22255  10.402   2.247   6.924 -0.4699  0.3837  1.7705
  886MOL0     H22256  10.396   2.161   6.561  0.0892 -0.7446  0.6015
  886MOL0     H22257  10.434   2.277   6.694  0.9666  0.1151  0.3687
  886MOL0     H22258  10.646   2.316   6.604 -0.3345  0.9868 -0.2256
  886MOL0     H22259  10.543   2.323   6.467  0.6160  2.3110  3.2490
  886MOL0     H22260  10.736   2.182   6.415  0.4552 -2.1141 -0.8717
  886MOL0     H22261  10.717   2.077   6.544  1.1184  2.1703 -0.5909
  886MOL0     H22262  10.496   1.998   6.440  1.0088 -0.4237  1.6650
  886MOL0     H22263  10.646   1.963   6.347  1.6323  0.7064  2.1752
  886MOL0     H22264  10.384   2.209   6.109 -2.3542 -2.3573  0.5474
  886MOL0     H22265  10.709   1.997   6.795  1.5836 -1.9469  2.5339
  886MOL0     H22266  10.899   1.960   6.925  1.0708  1.2334 -0.4940
  886MOL0     H22267  10.934   2.101   7.017  0.5859 -0.2057 -0.6732
  886MOL0     H22268  10.884   1.947   7.103  1.6880  4.2563  2.3077
  887MOL0     O22269   3.082   8.381   9.377  1.0969  0.4771 -0.1347
  887MOL0     C22270   3.069   8.436   9.487  0.2997  0.2100  0.0311
  887MOL0     O22271   3.053   8.573   9.504  0.4159  0.4157  0.3041
  887MOL0     C22272   3.001   8.642   9.394  0.4823 -0.2032 -0.2695
  887MOL0     C22273   3.092   8.696   9.302  0.6422 -0.0993  0.7053
  887MOL0     C22274   3.036   8.774   9.200 -0.3828  0.5529 -0.1925
  887MOL0     C22275   2.895   8.789   9.180 -0.0629 -0.9720 -0.8607
  887MOL0     O22276   2.842   8.870   9.089  0.0441 -1.7967  0.1672
  887MOL0     C22277   2.923   8.967   9.013  0.1030 -0.2102 -0.0667
  887MOL0     C22278   2.839   9.019   8.891 -0.1520  0.2738 -0.1814
  887MOL0     C22279   2.814   8.902   8.788  0.4557  0.0097 -0.1064
  887MOL0     C22280   2.747   8.965   8.664  1.0577 -0.0709 -0.0652
  887MOL0     C22281   2.817   8.923   8.520  0.0854  0.1973  0.3495
  887MOL0     C22282   2.893   9.034   8.435 -0.2995 -0.3784  0.7444
  887MOL0     C22283   2.972   8.985   8.316 -0.7337 -0.4363  0.3953
  887MOL0     C22284   2.900   8.896   8.208  0.4776  0.2910 -1.1796
  887MOL0     N22285   2.811   8.987   8.138 -0.1748 -0.6212 -1.0245
  887MOL0     C22286   2.681   9.026   8.169 -0.1844  0.1555 -0.3413
  887MOL0     C22287   2.643   9.103   8.063  0.6253 -0.1570 -0.2732
  887MOL0     C22288   2.512   9.184   8.080  0.3053  0.9718  0.3348
  887MOL0     C22289   2.382   9.117   8.097 -0.7634  0.7881 -0.5778
  887MOL0     C22290   2.261   9.212   8.083  0.4410  0.8433  0.2833
  887MOL0     C22291   2.222   9.268   8.224 -0.6160  0.4805  0.4088
  887MOL0     O22292   2.190   9.176   8.328 -0.1710 -0.6115 -0.4547
  887MOL0     C22293   2.072   9.108   8.320 -0.1712  0.3275 -0.2013
  887MOL0     C22294   1.947   9.167   8.280 -0.9185  0.6865  0.1981
  887MOL0     C22295   1.831   9.091   8.272  0.2063 -0.0583 -0.3133
  887MOL0     C22296   1.723   9.182   8.240  0.6355  0.4016 -0.5601
  887MOL0     C22297   1.826   8.947   8.291  0.0083 -0.3282  0.6808
  887MOL0     C22298   1.717   8.849   8.260 -0.2266 -0.0454 -0.1534
  887MOL0     O22299   1.737   8.709   8.289  0.2088 -0.1596  0.1450
  887MOL0     C22300   1.631   8.626   8.260 -0.5922 -0.6712  0.0386
  887MOL0     C22301   1.643   8.549   8.144  0.2344 -1.5080  0.1992
  887MOL0     C22302   1.547   8.457   8.117  0.3026  0.7829 -0.1679
  887MOL0     C22303   1.435   8.437   8.188  0.3709  0.2661  0.2159
  887MOL0     O22304   1.340   8.339   8.174  0.0449 -0.0569  0.0091
  887MOL0     C22305   1.356   8.255   8.056 -0.5445 -0.0106  0.3923
  887MOL0     C22306   1.215   8.201   8.030  1.0165  0.7310 -0.5564
  887MOL0     C22307   1.179   8.188   7.888  0.2396 -0.8913  0.3782
  887MOL0     C22308   1.228   8.057   7.822  0.6118 -0.0077 -0.1572
  887MOL0     C22309   1.205   8.036   7.676  1.2603  0.1762 -0.0041
  887MOL0     C22310   1.046   8.014   7.637 -0.9566  0.1341 -0.4248
  887MOL0     C22311   1.016   8.006   7.486 -0.2967  0.3355  0.0951
  887MOL0     C22312   0.868   7.981   7.457 -0.5484  0.1363 -0.2905
  887MOL0    Cl22313   0.858   7.983   7.275  0.0352 -0.4075  0.3007
  887MOL0     C22314   1.417   8.512   8.303  0.5064  0.8333  1.0188
  887MOL0     C22315   1.517   8.601   8.341 -0.1449 -0.3761  0.0329
  887MOL0     O22316   1.622   8.895   8.197 -0.0220  0.7776 -0.0629
  887MOL0     C22317   1.947   8.899   8.341  0.3633  0.6069  0.1424
  887MOL0     C22318   2.070   8.971   8.351 -0.1328  0.1123  0.7552
  887MOL0     N22319   2.741   9.102   7.968  0.3537  0.5360 -0.5103
  887MOL0     N22320   2.839   9.032   8.010 -0.0825 -0.4630 -0.0521
  887MOL0     C22321   2.811   8.726   9.272  0.3386  0.3702 -0.0392
  887MOL0     C22322   2.862   8.665   9.382 -0.5739 -1.0560 -0.2553
  887MOL0     C22323   3.063   8.347   9.618  0.0991 -0.6071  0.1914
  887MOL0     C22324   3.031   8.207   9.616 -0.2489  0.3428 -0.2341
  887MOL0     C22325   3.034   8.127   9.727 -0.9419  0.2773 -0.6625
  887MOL0     C22326   3.068   8.169   9.854  0.0429 -0.5100  0.4172
  887MOL0     O22327   3.079   8.095   9.962 -0.6349 -0.3588 -0.4811
  887MOL0     C22328   2.966   8.027   9.994 -0.6349  0.1783 -1.2273
  887MOL0     C22329   2.991   7.953  10.111 -0.6054  0.6450 -0.5710
  887MOL0     C22330   2.862   7.913  10.185 -1.0015 -0.4122  0.1392
  887MOL0     C22331   2.755   7.823  10.116 -0.0621  0.3326  0.0685
  887MOL0     C22332   2.829   7.723  10.039  0.0343  0.0725 -0.2489
  887MOL0     C22333   2.899   7.639   9.991  0.8009  0.0545 -0.7187
  887MOL0     C22334   3.089   8.312   9.866  0.8003 -0.2889  1.1557
  887MOL0     C22335   3.085   8.401   9.748 -0.1590 -0.2268 -0.5263
  887MOL0     C22336   3.116   8.549   9.779 -0.5984  0.7114  0.4528
  887MOL0     H22337   3.200   8.695   9.294  0.6249  2.2865 -0.6070
  887MOL0     H22338   3.112   8.826   9.144  0.7028  1.1654  1.7634
  887MOL0     H22339   3.022   8.931   8.983  1.0982  0.9484  1.6735
  887MOL0     H22340   2.930   9.046   9.089  2.4566 -2.1286  1.8586
  887MOL0     H22341   2.740   9.059   8.914 -0.9116 -1.2226 -0.7227
  887MOL0     H22342   2.903   9.091   8.838 -1.1912  1.0467 -0.4214
  887MOL0     H22343   2.905   8.862   8.742 -0.9192 -1.1056 -2.0404
  887MOL0     H22344   2.752   8.820   8.824  0.3012 -0.3250 -1.0857
  887MOL0     H22345   2.646   8.925   8.662  1.4538 -1.1030 -0.0642
  887MOL0     H22346   2.745   9.074   8.662 -1.0648 -0.0388 -3.8006
  887MOL0     H22347   2.739   8.890   8.451  0.0627  0.2180  0.3651
  887MOL0     H22348   2.879   8.834   8.537 -0.9165 -0.2336  1.9703
  887MOL0     H22349   2.824   9.113   8.405  0.8754  0.1161 -0.7633
  887MOL0     H22350   2.958   9.088   8.503 -1.2485  1.5468  0.1925
  887MOL0     H22351   3.057   8.927   8.352  0.5211 -0.1150 -1.8232
  887MOL0     H22352   3.032   9.065   8.273  2.6231 -4.2235 -2.8400
  887MOL0     H22353   2.975   8.852   8.142  0.8809 -1.0010  0.0950
  887MOL0     H22354   2.847   8.811   8.251 -3.7692  2.6948 -1.0029
  887MOL0     H22355   2.621   9.012   8.259  0.2409  0.3283 -0.0273
  887MOL0     H22356   2.497   9.234   7.984 -1.8742 -1.1230 -0.5039
  887MOL0     H22357   2.518   9.254   8.164  0.8770  0.2792  0.8773
  887MOL0     H22358   2.374   9.032   8.029  1.0494  0.6594 -0.6635
  887MOL0     H22359   2.384   9.074   8.198  0.5478 -1.4522 -1.4905
  887MOL0     H22360   2.288   9.287   8.009  0.5799  0.1700 -0.3578
  887MOL0     H22361   2.173   9.165   8.040  1.0788 -1.4598  1.3414
  887MOL0     H22362   2.312   9.320   8.259 -0.9695  0.7116  0.9981
  887MOL0     H22363   2.143   9.342   8.208 -2.3985 -1.9348 -3.0660
  887MOL0     H22364   1.952   9.275   8.271  3.2532  0.7019  0.7219
  887MOL0     H22365   1.746   9.253   8.159 -2.2144  0.4671 -1.4296
  887MOL0     H22366   1.678   9.231   8.326 -0.0129 -1.8111  0.4023
  887MOL0     H22367   1.643   9.132   8.184  1.4455 -0.1832 -1.2245
  887MOL0     H22368   1.739   8.566   8.097 -1.0951  2.3556 -1.5490
  887MOL0     H22369   1.552   8.394   8.028  2.9338  0.1321  0.3503
  887MOL0     H22370   1.380   8.315   7.968  1.1124  3.9299  3.2376
  887MOL0     H22371   1.436   8.180   8.061  1.6084  2.2201  1.9475
  887MOL0     H22372   1.223   8.100   8.073  2.0955  0.0769 -2.1795
  887MOL0     H22373   1.135   8.259   8.075 -0.1399 -1.4799  0.4173
  887MOL0     H22374   1.194   8.281   7.833 -0.9759  0.7196  2.6225
  887MOL0     H22375   1.070   8.181   7.885  0.0595  1.3049 -2.2192
  887MOL0     H22376   1.168   7.982   7.875  3.5199 -0.9057  2.1941
  887MOL0     H22377   1.332   8.038   7.852  0.5112 -2.3452 -1.0530
  887MOL0     H22378   1.237   8.125   7.621  0.4903 -1.1165 -2.7194
  887MOL0     H22379   1.260   7.949   7.639 -1.0726 -0.8244 -1.3650
  887MOL0     H22380   0.991   8.098   7.680  0.0199 -0.1906  1.5960
  887MOL0     H22381   1.006   7.929   7.693 -3.1836  0.5618 -1.2901
  887MOL0     H22382   1.073   7.931   7.431  1.9209  1.9645 -0.0196
  887MOL0     H22383   1.056   8.095   7.435  0.5727  0.4882  0.9979
  887MOL0     H22384   0.802   8.053   7.506  1.7920  1.4395  1.0946
  887MOL0     H22385   0.842   7.878   7.481 -0.7406  0.3585  0.4980
  887MOL0     H22386   1.330   8.492   8.365 -0.0978  0.9457  0.2339
  887MOL0     H22387   1.504   8.661   8.430  3.1357  1.2514 -0.4351
  887MOL0     H22388   1.963   8.795   8.366  0.0589  0.1256 -1.4887
  887MOL0     H22389   2.162   8.919   8.375  0.1258 -0.1628 -0.7618
  887MOL0     H22390   2.703   8.724   9.257  0.6501 -2.1673 -2.7492
  887MOL0     H22391   2.792   8.641   9.461 -3.4001  2.5446 -1.3682
  887MOL0     H22392   3.009   8.152   9.525  3.0826 -1.6672  0.0251
  887MOL0     H22393   3.038   8.019   9.718 -2.7521  0.0926  0.2515
  887MOL0     H22394   2.881   8.093  10.014 -0.7085  0.3393 -2.0091
  887MOL0     H22395   2.937   7.957   9.915  0.7172  0.3475 -1.9156
  887MOL0     H22396   3.056   8.008  10.180  0.0928 -0.1585 -0.5803
  887MOL0     H22397   3.049   7.860  10.105 -2.4566 -0.4582 -2.4735
  887MOL0     H22398   2.899   7.859  10.273  2.3927  0.8966 -0.3168
  887MOL0     H22399   2.812   8.009  10.203 -1.4009 -0.6330  0.2317
  887MOL0     H22400   2.701   7.887  10.045  0.6973  3.1168  1.8517
  887MOL0     H22401   2.697   7.769  10.191  0.7326 -1.7794 -0.7563
  887MOL0     H22402   2.948   7.559   9.940  0.0050 -1.8645  1.3773
  887MOL0     H22403   3.097   8.360   9.963  1.8517 -0.9432  1.4033
  887MOL0     H22404   3.197   8.586   9.715 -2.5583 -1.3791 -3.6519
  887MOL0     H22405   3.027   8.602   9.744 -0.1100 -0.0257 -2.1875
  887MOL0     H22406   3.129   8.562   9.887  0.6716 -0.5207  0.4763
  888MOL0     O22407   1.088   6.649   3.077 -0.5629  0.6026  0.1374
  888MOL0     C22408   1.123   6.524   3.091  0.2545 -0.1340  0.2515
  888MOL0     O22409   1.029   6.423   3.078 -0.0581  0.3918 -0.4690
  888MOL0     C22410   0.901   6.457   3.054  0.9129 -0.7804 -0.3029
  888MOL0     C22411   0.822   6.523   3.155  0.3268 -0.7328 -0.4289
  888MOL0     C22412   0.689   6.558   3.125  0.6751 -0.2433  0.4358
  888MOL0     C22413   0.624   6.508   3.014 -0.3405  0.4412 -0.5974
  888MOL0     O22414   0.490   6.514   2.997  0.3975  0.1643 -0.5156
  888MOL0     C22415   0.404   6.516   3.115 -0.1160  0.6087  0.2940
  888MOL0     C22416   0.252   6.507   3.081 -0.2867  0.4543 -0.0672
  888MOL0     C22417   0.194   6.643   3.066 -0.1122  0.9867  0.1683
  888MOL0     C22418   0.075   6.637   2.974  0.6260 -0.8555 -0.7290
  888MOL0     C22419  -0.011   6.765   2.990  0.0951  1.2746  0.1114
  888MOL0     C22420  -0.082   6.774   3.122 -0.4144  0.3609 -0.0590
  888MOL0     C22421  -0.157   6.906   3.153  1.2377  0.1060 -0.2031
  888MOL0     C22422  -0.241   6.945   3.037 -0.6215 -0.1974  0.2480
  888MOL0     N22423  -0.319   7.067   3.067 -0.0959  0.3958 -0.1784
  888MOL0     C22424  -0.440   7.082   3.134 -1.2360 -1.0618 -0.3146
  888MOL0     C22425  -0.479   7.213   3.132 -1.1160  0.5156  0.7101
  888MOL0     C22426  -0.605   7.290   3.169  0.4272  0.1845  0.5754
  888MOL0     C22427  -0.731   7.204   3.136  0.9744  0.7150 -0.0863
  888MOL0     C22428  -0.853   7.239   3.223  0.6011  0.1947  0.2598
  888MOL0     C22429  -0.831   7.204   3.374  0.1915  0.3213  0.8016
  888MOL0     O22430  -0.807   7.065   3.395  0.7312  0.3175  0.3224
  888MOL0     C22431  -0.780   7.024   3.525  0.8485  0.2673 -0.2095
  888MOL0     C22432  -0.745   6.887   3.546 -0.2361 -0.2102  0.4670
  888MOL0     C22433  -0.739   6.833   3.671  0.4958  0.5388  0.6704
  888MOL0     C22434  -0.680   6.693   3.676  0.1497  0.8936 -0.4318
  888MOL0     C22435  -0.770   6.914   3.784 -0.0495 -0.1378 -0.8204
  888MOL0     C22436  -0.758   6.878   3.926 -0.5621 -0.3783  0.8582
  888MOL0     O22437  -0.763   6.975   4.019  0.4407 -0.4246  0.2952
  888MOL0     C22438  -0.746   6.947   4.153  0.5232  0.7784 -0.3516
  888MOL0     C22439  -0.692   7.057   4.226  0.3406  0.4331 -0.8236
  888MOL0     C22440  -0.701   7.059   4.364  0.4249  0.0710  0.2270
  888MOL0     C22441  -0.750   6.936   4.438  0.4774  0.2724 -0.9033
  888MOL0     O22442  -0.777   6.929   4.563  0.0840 -0.5484  0.0368
  888MOL0     C22443  -0.662   6.959   4.655  0.4477  0.1099 -0.0957
  888MOL0     C22444  -0.686   6.916   4.797  0.4672 -0.4437 -0.2223
  888MOL0     C22445  -0.664   6.761   4.804 -0.1968  0.0999 -0.0597
  888MOL0     C22446  -0.774   6.675   4.739  0.2542  0.8444 -0.0234
  888MOL0     C22447  -0.773   6.531   4.804  0.0455  0.1304  0.3250
  888MOL0     C22448  -0.855   6.434   4.714 -0.4914  0.4166  0.3196
  888MOL0     C22449  -1.005   6.455   4.711 -0.6697  0.1228  0.4517
  888MOL0     C22450  -1.049   6.529   4.580  0.6902  0.2556 -0.7202
  888MOL0    Cl22451  -1.038   6.414   4.445 -0.4538  0.0328  0.1379
  888MOL0     C22452  -0.809   6.833   4.372  0.2614 -0.4603 -0.2061
  888MOL0     C22453  -0.819   6.851   4.230 -1.3493  0.5129  0.6084
  888MOL0     O22454  -0.755   6.761   3.946  0.1865  0.3194  0.5941
  888MOL0     C22455  -0.794   7.050   3.766 -0.8179  0.0697  0.6516
  888MOL0     C22456  -0.803   7.102   3.632 -0.3457  0.1397  0.7012
  888MOL0     N22457  -0.371   7.275   3.066 -0.2139  0.1784  0.4416
  888MOL0     N22458  -0.280   7.194   3.044 -0.6590 -0.8979 -0.8055
  888MOL0     C22459   0.699   6.430   2.929  0.5964 -0.6341 -0.0012
  888MOL0     C22460   0.836   6.403   2.948  0.9538 -0.8574  0.8236
  888MOL0     C22461   1.270   6.488   3.116  0.8666  0.0116  0.4718
  888MOL0     C22462   1.296   6.355   3.159 -0.5156 -0.0867  0.3172
  888MOL0     C22463   1.429   6.312   3.177 -0.0805 -0.3563 -0.1574
  888MOL0     C22464   1.535   6.400   3.156 -0.2512 -0.3430  0.6166
  888MOL0     O22465   1.663   6.350   3.160  0.5746 -0.1097 -0.0994
  888MOL0     C22466   1.699   6.269   3.048 -0.8289 -0.3628  1.3966
  888MOL0     C22467   1.805   6.164   3.081 -0.0967 -0.0828 -0.5293
  888MOL0     C22468   1.923   6.190   2.981  0.2286 -1.3236  0.4325
  888MOL0     C22469   1.913   6.134   2.833 -0.3853  0.7025 -0.5182
  888MOL0     C22470   1.823   6.200   2.735  0.6301 -0.4233 -0.0717
  888MOL0     C22471   1.741   6.241   2.660 -0.3066  0.6415  0.1170
  888MOL0     C22472   1.509   6.535   3.124 -0.6169  0.0278 -0.1255
  888MOL0     C22473   1.378   6.577   3.103 -0.3376 -0.1630 -0.5752
  888MOL0     C22474   1.352   6.713   3.044 -0.7519  0.0857 -0.2943
  888MOL0     H22475   0.863   6.553   3.250 -3.8516  3.7064  0.3472
  888MOL0     H22476   0.639   6.612   3.205  0.4535 -1.4635  1.1551
  888MOL0     H22477   0.416   6.601   3.183 -0.2659  1.9746 -1.3392
  888MOL0     H22478   0.422   6.423   3.170  2.4796  1.5990  1.2919
  888MOL0     H22479   0.251   6.446   2.990 -3.8897 -2.0270  1.4013
  888MOL0     H22480   0.204   6.445   3.157  0.7596 -1.6130 -0.9935
  888MOL0     H22481   0.178   6.690   3.163 -2.0848  0.2993  0.2223
  888MOL0     H22482   0.265   6.715   3.025  1.9406 -0.7789  0.4489
  888MOL0     H22483   0.103   6.625   2.869 -0.0812 -2.8936 -0.7312
  888MOL0     H22484   0.018   6.545   2.986  0.2696 -1.1251 -3.7725
  888MOL0     H22485  -0.075   6.775   2.902  0.3625 -0.3229 -0.2917
  888MOL0     H22486   0.061   6.848   2.983  0.8737  0.7224  1.1953
  888MOL0     H22487  -0.152   6.690   3.120  0.2926 -0.2550  0.4922
  888MOL0     H22488  -0.016   6.740   3.202  0.7285 -4.4902 -2.6195
  888MOL0     H22489  -0.095   6.993   3.176  0.1840  0.7128  0.4363
  888MOL0     H22490  -0.226   6.897   3.238  0.0483  2.2025 -0.8961
  888MOL0     H22491  -0.177   6.979   2.955  0.4620  0.2978  1.2682
  888MOL0     H22492  -0.308   6.865   3.005  0.5182 -3.3685  4.7857
  888MOL0     H22493  -0.496   6.993   3.161  0.7285 -2.2754 -0.0341
  888MOL0     H22494  -0.613   7.383   3.112  1.3005 -1.2785 -2.1172
  888MOL0     H22495  -0.586   7.312   3.275  2.9638 -0.6550  0.3468
  888MOL0     H22496  -0.760   7.211   3.031 -0.9801  2.2060  0.4614
  888MOL0     H22497  -0.718   7.097   3.153 -1.8385  0.5449  1.6504
  888MOL0     H22498  -0.868   7.347   3.215  1.8147  0.2869 -1.1452
  888MOL0     H22499  -0.947   7.194   3.191  0.5572  1.1098 -0.9816
  888MOL0     H22500  -0.738   7.253   3.403 -0.9584  3.1492  0.0376
  888MOL0     H22501  -0.916   7.245   3.430 -0.4411 -0.8126  0.7049
  888MOL0     H22502  -0.726   6.839   3.451 -2.4177 -0.0235 -0.1334
  888MOL0     H22503  -0.638   6.666   3.578  2.7257 -0.5487  0.9434
  888MOL0     H22504  -0.761   6.622   3.698 -1.1242  2.3605 -0.2203
  888MOL0     H22505  -0.605   6.683   3.755 -0.1797  4.7126  0.5346
  888MOL0     H22506  -0.635   7.132   4.173 -0.8250  1.8465 -0.1710
  888MOL0     H22507  -0.653   7.137   4.423  0.2292  0.8742 -0.6522
  888MOL0     H22508  -0.565   6.929   4.613  1.7128  0.4224  2.4059
  888MOL0     H22509  -0.656   7.068   4.663  2.6990  0.2321 -2.2732
  888MOL0     H22510  -0.614   6.954   4.870  0.2292 -1.5456  0.6113
  888MOL0     H22511  -0.783   6.952   4.831  0.2839 -1.5652  0.4965
  888MOL0     H22512  -0.656   6.730   4.909 -2.7891 -4.1168 -0.8568
  888MOL0     H22513  -0.571   6.736   4.752 -1.0784 -2.4578 -0.5244
  888MOL0     H22514  -0.764   6.655   4.632 -1.0738  2.1848 -0.4308
  888MOL0     H22515  -0.865   6.735   4.754  0.7194  2.0756 -1.8587
  888MOL0     H22516  -0.669   6.498   4.817 -0.7135 -1.6337  2.7079
  888MOL0     H22517  -0.818   6.530   4.903 -1.6140 -2.2262 -0.3474
  888MOL0     H22518  -0.837   6.338   4.764 -1.7461  0.3896  0.7510
  888MOL0     H22519  -0.817   6.431   4.612 -1.4112 -2.5959 -0.0081
  888MOL0     H22520  -1.049   6.514   4.792 -2.9586 -2.7430  1.4859
  888MOL0     H22521  -1.052   6.357   4.722  0.5330 -0.5613 -0.2673
  888MOL0     H22522  -1.003   6.628   4.566 -2.5703  2.0615  0.2364
  888MOL0     H22523  -1.149   6.564   4.608  1.2020  0.9974  0.2587
  888MOL0     H22524  -0.859   6.750   4.420  1.5797 -0.2223  1.6674
  888MOL0     H22525  -0.887   6.789   4.171  0.2687  0.2295 -1.0644
  888MOL0     H22526  -0.826   7.134   3.827 -0.9816  0.7384 -0.3360
  888MOL0     H22527  -0.822   7.209   3.630  1.8685  0.5712 -1.0467
  888MOL0     H22528   0.647   6.381   2.847 -0.5678  0.5411 -0.0101
  888MOL0     H22529   0.890   6.348   2.871 -1.3128  2.5778 -3.7076
  888MOL0     H22530   1.216   6.282   3.170 -1.5585  0.6979 -1.5869
  888MOL0     H22531   1.453   6.209   3.198 -1.6363 -0.4091  1.7299
  888MOL0     H22532   1.615   6.214   3.004 -1.1851  2.0536 -1.1877
  888MOL0     H22533   1.748   6.330   2.972  2.1350 -2.3903  1.5059
  888MOL0     H22534   1.767   6.061   3.076  2.3910 -1.0085 -2.5776
  888MOL0     H22535   1.829   6.185   3.186  1.0888 -0.2822 -0.7422
  888MOL0     H22536   1.949   6.296   2.982 -0.1923 -1.1929 -0.7153
  888MOL0     H22537   2.001   6.131   3.030  1.5336  0.4266  0.5689
  888MOL0     H22538   1.880   6.033   2.856  1.9161  0.2164  0.9741
  888MOL0     H22539   2.013   6.140   2.788 -0.9378 -0.1250 -1.8937
  888MOL0     H22540   1.667   6.289   2.598 -0.8309 -1.3549 -0.8709
  888MOL0     H22541   1.586   6.610   3.114 -1.3200  0.8139  0.2251
  888MOL0     H22542   1.303   6.713   2.946 -0.4633  0.5223 -0.4426
  888MOL0     H22543   1.282   6.767   3.108  2.3191  2.5550  1.2548
  888MOL0     H22544   1.442   6.775   3.035 -0.2844 -0.1847  2.0608
  889MOL0     O22545   6.267   3.179   5.667 -0.7105 -0.0437 -0.1004
  889MOL0     C22546   6.348   3.255   5.720  0.2412 -0.3397  0.9421
  889MOL0     O22547   6.440   3.216   5.816 -0.6443 -0.4230  1.0928
  889MOL0     C22548   6.448   3.096   5.872  0.8570 -0.8195 -0.1166
  889MOL0     C22549   6.373   2.987   5.849  0.2354 -0.6966 -0.1665
  889MOL0     C22550   6.415   2.857   5.900  0.4359 -0.4438  0.1126
  889MOL0     C22551   6.527   2.842   5.981  0.6256  0.4408  0.6031
  889MOL0     O22552   6.560   2.709   6.022 -0.1091 -0.3517 -0.2049
  889MOL0     C22553   6.684   2.679   6.093  0.3742 -0.3330  0.3380
  889MOL0     C22554   6.704   2.531   6.136  0.6400 -0.1669 -0.9330
  889MOL0     C22555   6.579   2.462   6.184 -0.6526 -0.0817  0.3244
  889MOL0     C22556   6.535   2.528   6.324  0.4961  0.2700  0.7185
  889MOL0     C22557   6.411   2.462   6.382 -0.2084  0.9193  0.5553
  889MOL0     C22558   6.291   2.417   6.291  0.1209 -0.2376 -1.1979
  889MOL0     C22559   6.210   2.545   6.266  0.1040 -0.0314 -0.0438
  889MOL0     C22560   6.256   2.618   6.130  0.5717  0.4275  0.3755
  889MOL0     N22561   6.180   2.745   6.115 -0.1439 -0.1717 -0.0507
  889MOL0     C22562   6.215   2.865   6.166 -0.2704  0.2340  0.7462
  889MOL0     C22563   6.105   2.947   6.143 -0.2010 -0.1636  0.2495
  889MOL0     C22564   6.092   3.093   6.166  0.1893  0.5880 -0.3679
  889MOL0     C22565   6.076   3.129   6.313 -0.1492  0.2032 -0.6485
  889MOL0     C22566   6.006   3.268   6.328 -0.7855 -0.2742 -0.4499
  889MOL0     C22567   6.076   3.382   6.252  0.0090  0.0081 -0.5590
  889MOL0     O22568   6.037   3.519   6.287  0.6597  0.3909  1.0013
  889MOL0     C22569   5.905   3.564   6.269 -0.5285 -0.6644 -0.1896
  889MOL0     C22570   5.866   3.674   6.343  0.4033  0.6297  0.4547
  889MOL0     C22571   5.737   3.725   6.331  0.7223  0.6321  0.0411
  889MOL0     C22572   5.707   3.835   6.426 -0.2032  0.5432  0.2642
  889MOL0     C22573   5.651   3.676   6.226  0.2845  0.3464 -0.7964
  889MOL0     C22574   5.512   3.719   6.194  0.2147 -0.0800 -0.4454
  889MOL0     O22575   5.426   3.646   6.118  0.1722  0.9288  0.1195
  889MOL0     C22576   5.323   3.714   6.064 -0.3307 -0.6044  0.3105
  889MOL0     C22577   5.299   3.722   5.924 -0.3451  0.0432  1.2698
  889MOL0     C22578   5.186   3.783   5.866  0.1545  0.8365 -0.6187
  889MOL0     C22579   5.084   3.839   5.952 -0.1744 -0.9554 -0.8230
  889MOL0     O22580   4.963   3.887   5.909 -0.3031 -0.7707 -0.1756
  889MOL0     C22581   4.940   3.904   5.767 -0.2698  0.0324  0.5877
  889MOL0     C22582   4.801   3.962   5.748  0.5546 -0.3102  0.5249
  889MOL0     C22583   4.782   3.998   5.594  0.6913  0.0418 -0.9687
  889MOL0     C22584   4.703   4.127   5.571  1.6612 -1.2332 -0.4714
  889MOL0     C22585   4.675   4.169   5.430  0.2167  0.7765  0.0960
  889MOL0     C22586   4.610   4.307   5.440  0.1767  0.0462  0.1622
  889MOL0     C22587   4.598   4.374   5.305  0.6951  0.4303  0.6112
  889MOL0     C22588   4.606   4.520   5.320  0.3623  0.4316  0.0470
  889MOL0    Cl22589   4.767   4.577   5.272 -0.0943  0.3807 -0.1658
  889MOL0     C22590   5.107   3.835   6.091  0.0823 -0.4748  1.3876
  889MOL0     C22591   5.221   3.773   6.148  0.1251  0.0240 -0.6624
  889MOL0     O22592   5.481   3.832   6.229  0.4778 -0.9216  0.0161
  889MOL0     C22593   5.688   3.565   6.163 -0.3824  0.2261  0.8011
  889MOL0     C22594   5.814   3.511   6.177  0.2374 -0.2875  0.4633
  889MOL0     N22595   6.004   2.870   6.090 -0.5191  0.7263 -0.7715
  889MOL0     N22596   6.054   2.754   6.061  0.1836  0.0054 -0.0059
  889MOL0     C22597   6.593   2.962   6.015 -0.0452  0.4068  0.6406
  889MOL0     C22598   6.550   3.086   5.961 -0.0960 -0.4022 -0.6680
  889MOL0     C22599   6.357   3.397   5.667 -0.6646 -0.1399 -0.9435
  889MOL0     C22600   6.455   3.478   5.720  0.6301  0.5055  0.1915
  889MOL0     C22601   6.481   3.605   5.683  0.2903  0.5793  0.2456
  889MOL0     C22602   6.409   3.663   5.579 -0.1873 -0.4714 -0.1502
  889MOL0     O22603   6.429   3.796   5.539 -0.1238 -0.4711 -0.3419
  889MOL0     C22604   6.341   3.888   5.611 -0.8371 -0.7947  0.6648
  889MOL0     C22605   6.395   3.938   5.747 -0.5049 -0.3389  0.1530
  889MOL0     C22606   6.485   4.058   5.736  0.2134 -0.2532 -0.7814
  889MOL0     C22607   6.527   4.113   5.869  0.4636  0.4661  0.3813
  889MOL0     C22608   6.569   4.259   5.857  0.0909  0.0900 -0.3040
  889MOL0     C22609   6.601   4.376   5.845 -0.4201 -0.2980 -0.1833
  889MOL0     C22610   6.298   3.601   5.524 -0.1310  0.1057 -0.3285
  889MOL0     C22611   6.273   3.467   5.564 -0.9618  0.3736 -0.4354
  889MOL0     C22612   6.155   3.414   5.496 -0.1358 -0.4110  0.5134
  889MOL0     H22613   6.276   2.994   5.801 -0.2982 -1.2385  0.8089
  889MOL0     H22614   6.364   2.768   5.867  0.2109  0.1363 -1.1494
  889MOL0     H22615   6.689   2.739   6.184 -1.2168  0.1722  0.1292
  889MOL0     H22616   6.765   2.715   6.030 -1.2377  0.7607 -1.2230
  889MOL0     H22617   6.732   2.480   6.043 -0.1201  2.4489 -2.7078
  889MOL0     H22618   6.791   2.528   6.202  0.9720 -1.9174 -1.4114
  889MOL0     H22619   6.504   2.476   6.106  0.6178  1.3248 -0.7012
  889MOL0     H22620   6.604   2.356   6.197  2.4945  0.2712 -1.8782
  889MOL0     H22621   6.614   2.522   6.399 -2.0985  1.5143  3.7918
  889MOL0     H22622   6.525   2.636   6.307 -1.3786  0.0573  0.2049
  889MOL0     H22623   6.370   2.524   6.462 -2.0730 -1.3070  1.4311
  889MOL0     H22624   6.442   2.371   6.436 -3.3122 -1.3003 -1.0993
  889MOL0     H22625   6.329   2.362   6.205 -0.9832 -1.5879 -0.8739
  889MOL0     H22626   6.222   2.348   6.342 -0.8313  1.1195 -0.5967
  889MOL0     H22627   6.214   2.615   6.350  1.8361  0.6298 -0.6173
  889MOL0     H22628   6.104   2.524   6.253 -1.0930  4.5740  0.6623
  889MOL0     H22629   6.363   2.640   6.130  1.2167 -2.3664 -0.0812
  889MOL0     H22630   6.233   2.549   6.049  0.7061  0.6312  0.1642
  889MOL0     H22631   6.309   2.891   6.213 -1.0656  0.5528  2.2073
  889MOL0     H22632   5.997   3.116   6.116 -0.2549 -2.4632 -1.1273
  889MOL0     H22633   6.172   3.159   6.131  0.2384  0.3647 -0.6741
  889MOL0     H22634   6.012   3.057   6.365  1.8880 -0.7276  0.7123
  889MOL0     H22635   6.172   3.118   6.365  0.7493  0.8237 -2.1303
  889MOL0     H22636   5.906   3.252   6.287 -0.4230  0.9531 -1.9003
  889MOL0     H22637   6.009   3.286   6.436 -0.2580  0.8001 -0.6280
  889MOL0     H22638   6.182   3.373   6.277 -0.0317  1.7662  0.4559
  889MOL0     H22639   6.068   3.377   6.143  1.9287  4.9183 -1.1815
  889MOL0     H22640   5.937   3.702   6.419  2.0818  1.4061 -1.3259
  889MOL0     H22641   5.598   3.842   6.431 -0.3115 -0.0412 -0.8476
  889MOL0     H22642   5.748   3.927   6.384  2.6072 -0.5322  0.4346
  889MOL0     H22643   5.762   3.823   6.520  0.8377 -0.9205 -0.4888
  889MOL0     H22644   5.376   3.675   5.863 -2.2443 -1.8953  0.2081
  889MOL0     H22645   5.169   3.775   5.759 -0.4026 -1.5769 -0.4121
  889MOL0     H22646   5.012   3.974   5.725 -0.4418 -0.6526 -0.9087
  889MOL0     H22647   4.959   3.804   5.726 -1.0532 -0.5582  1.6058
  889MOL0     H22648   4.727   3.886   5.776  1.8582 -2.0607 -0.5656
  889MOL0     H22649   4.791   4.048   5.816  1.4561  0.0839  0.1678
  889MOL0     H22650   4.725   3.917   5.548 -0.9859  0.5912  0.0242
  889MOL0     H22651   4.877   4.002   5.540  0.8235  4.5619 -0.7876
  889MOL0     H22652   4.751   4.208   5.626  3.0781 -1.9996 -0.5446
  889MOL0     H22653   4.605   4.110   5.616 -0.1741  2.0626 -2.8028
  889MOL0     H22654   4.767   4.172   5.371 -0.1737  2.4267 -0.5055
  889MOL0     H22655   4.605   4.107   5.373 -1.6689  2.7256  0.1719
  889MOL0     H22656   4.674   4.360   5.511 -1.0489 -0.1555  1.4631
  889MOL0     H22657   4.508   4.297   5.479 -0.3761  4.0026  0.1242
  889MOL0     H22658   4.506   4.351   5.250  2.9435 -1.1411 -2.8459
  889MOL0     H22659   4.683   4.334   5.248 -0.1225 -3.1405  1.6776
  889MOL0     H22660   4.583   4.545   5.424  1.0574 -5.1541  1.9343
  889MOL0     H22661   4.530   4.560   5.253 -1.0424 -0.6951  0.9181
  889MOL0     H22662   5.041   3.893   6.156  0.9682 -1.9330  3.6774
  889MOL0     H22663   5.227   3.769   6.256 -2.1284  1.1008 -0.4446
  889MOL0     H22664   5.630   3.520   6.084 -0.1759 -0.8652  1.2462
  889MOL0     H22665   5.858   3.430   6.120  2.4974 -0.0673  1.7592
  889MOL0     H22666   6.684   2.973   6.073 -0.2706  0.9942  0.8900
  889MOL0     H22667   6.605   3.177   5.981 -0.5941  0.0636 -1.3987
  889MOL0     H22668   6.522   3.450   5.801  1.0140  2.1933  0.4965
  889MOL0     H22669   6.566   3.662   5.719  0.5479 -0.5743  1.5450
  889MOL0     H22670   6.311   3.966   5.541  1.2974 -1.1482 -0.7680
  889MOL0     H22671   6.245   3.839   5.622 -1.4109 -0.1502 -1.0321
  889MOL0     H22672   6.450   3.859   5.799  0.0469 -0.0842 -0.0275
  889MOL0     H22673   6.303   3.962   5.801 -1.4722 -1.1030 -1.0932
  889MOL0     H22674   6.573   4.014   5.689  0.7714 -1.0176  0.9005
  889MOL0     H22675   6.453   4.138   5.669  1.5832  3.0059  2.1157
  889MOL0     H22676   6.607   4.049   5.906  0.8662  1.3256  1.0348
  889MOL0     H22677   6.442   4.106   5.937 -1.9629 -0.3560 -2.4824
  889MOL0     H22678   6.612   4.481   5.825  0.8188 -0.7168 -1.9366
  889MOL0     H22679   6.244   3.653   5.445 -0.6950  0.4569  0.2815
  889MOL0     H22680   6.162   3.433   5.389  2.1276  1.4538  0.9114
  889MOL0     H22681   6.146   3.305   5.500 -1.0216 -0.3551  0.2562
  889MOL0     H22682   6.067   3.453   5.547  0.0838  1.4253 -0.4571
  890MOL0     O22683   3.946   8.573   0.831 -0.5930 -0.0616  0.0231
  890MOL0     C22684   3.885   8.505   0.910 -0.1494 -0.5673 -0.1742
  890MOL0     O22685   3.837   8.555   1.022 -0.3653  0.1278  0.4822
  890MOL0     C22686   3.851   8.684   1.068  0.5801 -0.7654 -0.0280
  890MOL0     C22687   3.842   8.793   0.985  0.2682 -0.6402  0.4667
  890MOL0     C22688   3.847   8.924   1.042 -0.2690  1.1782 -0.5950
  890MOL0     C22689   3.870   8.946   1.180  0.3800 -0.2575  0.6602
  890MOL0     O22690   3.874   9.072   1.232  0.6405 -0.0362 -0.1275
  890MOL0     C22691   3.917   9.188   1.158 -0.0628  1.0075 -0.6085
  890MOL0     C22692   3.893   9.303   1.254 -0.7696  0.3028  0.4809
  890MOL0     C22693   3.954   9.424   1.185 -0.6547  0.3931 -0.4041
  890MOL0     C22694   3.947   9.538   1.289 -0.9167 -0.0579  0.5366
  890MOL0     C22695   3.957   9.678   1.215  0.9151  0.2917 -0.1752
  890MOL0     C22696   3.916   9.791   1.294  0.6021  0.0448  0.8143
  890MOL0     C22697   3.972   9.923   1.245  0.0222  0.2768  0.2678
  890MOL0     C22698   4.128   9.936   1.258  0.1640  0.0785 -0.4064
  890MOL0     N22699   4.195   9.929   1.128  0.3766  0.3152  0.0607
  890MOL0     C22700   4.297   9.839   1.100  0.3158 -0.2984 -0.4324
  890MOL0     C22701   4.336   9.861   0.974 -0.1050 -0.4301  0.7823
  890MOL0     C22702   4.441   9.771   0.907  0.3212 -0.6026 -0.4923
  890MOL0     C22703   4.545   9.855   0.851 -0.4927  0.3401  0.9144
  890MOL0     C22704   4.504   9.951   0.735 -0.3583 -1.2855  0.4557
  890MOL0     C22705   4.411   9.901   0.628 -0.7883  0.5482 -0.7200
  890MOL0     O22706   4.408  10.000   0.527 -0.1669 -0.2849  0.6228
  890MOL0     C22707   4.332  10.113   0.543 -0.3870 -0.3767  0.5224
  890MOL0     C22708   4.370  10.225   0.466  0.0725 -0.0558 -1.0182
  890MOL0     C22709   4.309  10.354   0.463 -1.3603 -0.1181  0.4573
  890MOL0     C22710   4.387  10.452   0.384 -0.6650 -0.8329  0.1897
  890MOL0     C22711   4.189  10.370   0.541 -1.1580  0.5405  0.2701
  890MOL0     C22712   4.120  10.503   0.541  1.5072 -0.1847  0.4975
  890MOL0     O22713   3.996  10.503   0.605  0.2529  0.5244 -0.0054
  890MOL0     C22714   3.926  10.615   0.609 -0.6977  0.4668  0.6994
  890MOL0     C22715   3.843  10.644   0.497  0.8158 -0.7495  0.0093
  890MOL0     C22716   3.774  10.764   0.498  1.0596  1.1355  0.3390
  890MOL0     C22717   3.767  10.846   0.611 -0.0439 -0.0283  0.7742
  890MOL0     O22718   3.689  10.962   0.608  0.3089  0.8622 -0.7409
  890MOL0     C22719   3.685  11.047   0.727 -0.6368  0.5277 -0.3111
  890MOL0     C22720   3.568  11.147   0.723 -0.4596  0.3199  0.2679
  890MOL0     C22721   3.526  11.202   0.857 -0.2491  0.1741  0.3497
  890MOL0     C22722   3.430  11.313   0.857  0.3490 -0.0109  0.9072
  890MOL0     C22723   3.360  11.342   1.000 -0.6767  0.7332  1.1372
  890MOL0     C22724   3.245  11.250   1.042  0.6025  0.6343 -1.0945
  890MOL0     C22725   3.187  11.294   1.179  0.4986  0.2400  0.7010
  890MOL0     C22726   3.080  11.404   1.151 -0.1594 -0.5335 -1.2276
  890MOL0    Cl22727   2.963  11.345   1.053  0.2406  0.4391 -0.4061
  890MOL0     C22728   3.849  10.815   0.717  0.2716 -0.0113 -0.8162
  890MOL0     C22729   3.928  10.701   0.719  0.4739  0.6279  0.1540
  890MOL0     O22730   4.157  10.597   0.470 -0.2635 -0.2876  0.7159
  890MOL0     C22731   4.138  10.256   0.608 -0.4749 -0.3053  0.0233
  890MOL0     C22732   4.211  10.131   0.615  0.3660 -0.1421 -0.7431
  890MOL0     N22733   4.252   9.958   0.916  0.2506 -0.1191  0.5757
  890MOL0     N22734   4.182  10.007   1.024 -0.1847  0.5395  0.7922
  890MOL0     C22735   3.865   8.831   1.262 -0.0595 -1.0623  0.4111
  890MOL0     C22736   3.855   8.698   1.212 -0.8918 -0.5676  0.2206
  890MOL0     C22737   3.848   8.368   0.878 -0.4410  0.2160  0.5212
  890MOL0     C22738   3.853   8.264   0.982  0.1669 -0.2486  1.2081
  890MOL0     C22739   3.823   8.143   0.941 -0.1268  0.1039  0.0461
  890MOL0     C22740   3.784   8.101   0.811  0.1014 -0.1972  0.2902
  890MOL0     O22741   3.762   7.972   0.772  0.0037  0.3480 -0.7427
  890MOL0     C22742   3.754   7.866   0.866 -0.5912  0.0237 -0.3043
  890MOL0     C22743   3.682   7.756   0.801  0.1723  0.0009 -0.3452
  890MOL0     C22744   3.663   7.619   0.875  0.2297 -1.3509 -0.4038
  890MOL0     C22745   3.594   7.515   0.799  0.7354 -0.5152  0.3380
  890MOL0     C22746   3.484   7.557   0.713 -0.1864 -0.5429 -0.6898
  890MOL0     C22747   3.414   7.611   0.633 -0.0136 -0.3335  0.5550
  890MOL0     C22748   3.770   8.203   0.725 -0.1543  0.9777  0.7444
  890MOL0     C22749   3.806   8.338   0.747  0.0962  0.6526  0.2461
  890MOL0     C22750   3.816   8.422   0.633 -0.1657  0.3684  0.3294
  890MOL0     H22751   3.823   8.779   0.879 -4.3181  2.5419  0.5657
  890MOL0     H22752   3.827   9.010   0.978 -4.8731  0.5458 -0.3333
  890MOL0     H22753   3.875   9.196   1.057  2.6120 -0.0123 -1.9040
  890MOL0     H22754   4.018   9.161   1.124 -1.4166 -4.2168 -1.4215
  890MOL0     H22755   3.785   9.316   1.259 -0.6512  1.0039  1.7701
  890MOL0     H22756   3.947   9.283   1.348 -1.1568  1.4405  0.9662
  890MOL0     H22757   4.054   9.400   1.147  0.3142  2.5214  0.6343
  890MOL0     H22758   3.896   9.455   1.098  2.5663  1.3259 -2.4083
  890MOL0     H22759   3.844   9.543   1.325 -0.6384 -0.3783  1.4042
  890MOL0     H22760   4.018   9.535   1.371  0.0197 -0.8256 -0.2763
  890MOL0     H22761   3.894   9.677   1.126  1.8251  1.3219 -0.8589
  890MOL0     H22762   4.058   9.679   1.175  0.5755 -5.7221 -2.1584
  890MOL0     H22763   3.808   9.811   1.287  0.8330  0.8932 -1.0080
  890MOL0     H22764   3.937   9.776   1.400  0.1181  1.5677  1.1490
  890MOL0     H22765   3.927   9.998   1.310 -2.3454 -1.6088  0.9408
  890MOL0     H22766   3.944   9.942   1.142 -0.2929  0.6543  0.4238
  890MOL0     H22767   4.147  10.030   1.312  0.7881 -1.1598  1.6334
  890MOL0     H22768   4.159   9.856   1.326  0.2112  0.3036 -0.1596
  890MOL0     H22769   4.333   9.760   1.165 -1.4808 -2.3947 -1.8171
  890MOL0     H22770   4.401   9.711   0.825  1.2951 -0.0042 -1.4394
  890MOL0     H22771   4.475   9.699   0.982 -2.4336  0.3420  1.8366
  890MOL0     H22772   4.582   9.924   0.927 -0.5912  2.0062 -0.4671
  890MOL0     H22773   4.626   9.788   0.820  0.7786  2.0528  0.3019
  890MOL0     H22774   4.465  10.044   0.777 -0.5772 -1.0777 -0.1891
  890MOL0     H22775   4.599   9.977   0.688 -0.5932  1.1698  1.2128
  890MOL0     H22776   4.450   9.815   0.574  0.5021  0.9385 -0.4697
  890MOL0     H22777   4.314   9.861   0.658  0.5843 -2.9655 -0.4887
  890MOL0     H22778   4.464  10.209   0.413  0.2760  0.4158 -0.8034
  890MOL0     H22779   4.400  10.542   0.446 -1.8407 -1.7873  1.8959
  890MOL0     H22780   4.319  10.490   0.307 -1.9796  0.1372  1.7691
  890MOL0     H22781   4.475  10.405   0.339 -1.1992 -3.9552  2.1257
  890MOL0     H22782   3.854  10.585   0.407 -3.2914 -0.8131 -0.6179
  890MOL0     H22783   3.712  10.791   0.413 -5.1929 -3.5586  2.6306
  890MOL0     H22784   3.677  10.988   0.818  1.4957  1.3805  0.4882
  890MOL0     H22785   3.781  11.098   0.737  0.4925 -1.7309  1.3551
  890MOL0     H22786   3.589  11.225   0.650  2.0261 -0.9274 -0.4421
  890MOL0     H22787   3.491  11.082   0.682  1.4812 -2.7875  1.2000
  890MOL0     H22788   3.615  11.237   0.910 -2.1062  2.6140  2.1025
  890MOL0     H22789   3.481  11.120   0.913  1.7076 -1.0083  0.2549
  890MOL0     H22790   3.351  11.295   0.783  0.7928 -0.1789  0.4726
  890MOL0     H22791   3.487  11.401   0.828  0.3672 -0.2886  0.0711
  890MOL0     H22792   3.430  11.341   1.085 -1.0538 -0.8214  1.4752
  890MOL0     H22793   3.320  11.443   0.992 -0.4380  0.6440 -2.6167
  890MOL0     H22794   3.277  11.147   1.061  4.4977  1.4220 -2.4638
  890MOL0     H22795   3.165  11.244   0.967 -1.6807 -2.4709  1.3106
  890MOL0     H22796   3.267  11.342   1.236 -1.5000  2.6796  1.6226
  890MOL0     H22797   3.137  11.217   1.238 -1.6368  1.2486  0.3047
  890MOL0     H22798   3.116  11.486   1.088  2.0280 -1.2849 -1.0401
  890MOL0     H22799   3.048  11.446   1.247  1.4084 -1.1056 -0.4249
  890MOL0     H22800   3.854  10.882   0.802  0.1373  1.3610 -1.8490
  890MOL0     H22801   4.001  10.688   0.798  3.2454 -1.6238 -2.5497
  890MOL0     H22802   4.049  10.265   0.670  2.1100  1.1893  3.8774
  890MOL0     H22803   4.174  10.048   0.675  0.5594 -1.0671 -1.8727
  890MOL0     H22804   3.874   8.840   1.370 -0.7933 -0.2072  0.4179
  890MOL0     H22805   3.836   8.604   1.263 -0.4192 -1.3539 -0.9917
  890MOL0     H22806   3.870   8.287   1.087  1.1151 -0.5643  1.1295
  890MOL0     H22807   3.852   8.069   1.015 -0.3596 -0.9765 -0.9230
  890MOL0     H22808   3.854   7.829   0.892 -2.1506 -3.8887  0.7639
  890MOL0     H22809   3.701   7.900   0.955 -1.3582  2.4173 -1.5983
  890MOL0     H22810   3.732   7.738   0.705  0.3692 -0.7176 -0.1151
  890MOL0     H22811   3.582   7.796   0.781 -0.4605 -0.8183  1.0483
  890MOL0     H22812   3.764   7.582   0.898 -1.1122 -2.1361  6.6972
  890MOL0     H22813   3.615   7.629   0.973 -0.5859 -1.5207 -0.7768
  890MOL0     H22814   3.555   7.438   0.867 -3.9700  0.9014 -0.3577
  890MOL0     H22815   3.663   7.459   0.736  1.9690 -0.9794  2.0176
  890MOL0     H22816   3.348   7.656   0.561  0.1952 -0.1067  0.5084
  890MOL0     H22817   3.737   8.170   0.627  0.9218 -1.4402  1.1173
  890MOL0     H22818   3.919   8.432   0.596 -0.4742 -1.6613 -1.2556
  890MOL0     H22819   3.771   8.378   0.544 -0.3650 -1.1950  1.1564
  890MOL0     H22820   3.767   8.518   0.651 -0.2719  0.7015 -1.5749
  891MOL0     O22821   1.128   4.546   1.825 -0.5081  0.6389  0.2485
  891MOL0     C22822   1.141   4.552   1.947 -0.4305  0.7809  0.7482
  891MOL0     O22823   1.226   4.640   2.002  0.9114 -0.4571  0.2788
  891MOL0     C22824   1.344   4.678   1.937  0.2546 -1.1926  0.9997
  891MOL0     C22825   1.332   4.748   1.814 -0.1900 -0.0279 -1.0639
  891MOL0     C22826   1.448   4.792   1.746  1.4228 -0.7704 -0.9208
  891MOL0     C22827   1.575   4.752   1.784  0.6002 -0.3580 -0.0615
  891MOL0     O22828   1.678   4.790   1.696  0.5052 -0.6122  0.3155
  891MOL0     C22829   1.805   4.737   1.713 -0.6695 -0.2623 -0.3302
  891MOL0     C22830   1.900   4.805   1.598 -0.3165 -0.1455 -0.0977
  891MOL0     C22831   2.046   4.764   1.606  0.6539 -0.6628 -0.8011
  891MOL0     C22832   2.116   4.857   1.715  0.0599  0.0927  0.6514
  891MOL0     C22833   2.272   4.830   1.729 -0.1473 -0.7389  0.2845
  891MOL0     C22834   2.349   4.864   1.604 -0.0109 -0.3358 -0.1309
  891MOL0     C22835   2.474   4.783   1.563  0.2503 -0.0351 -0.5972
  891MOL0     C22836   2.574   4.777   1.676  0.4663 -0.4978  0.9279
  891MOL0     N22837   2.702   4.729   1.631 -0.6611 -0.4079 -0.0996
  891MOL0     C22838   2.780   4.794   1.541 -0.4002 -0.1408 -0.0657
  891MOL0     C22839   2.896   4.730   1.530 -0.2567 -0.3102 -0.0904
  891MOL0     C22840   3.007   4.752   1.431 -0.1390 -0.0143  0.1541
  891MOL0     C22841   3.073   4.622   1.393  0.1055  0.2518 -0.0753
  891MOL0     C22842   3.195   4.626   1.295 -0.6630  0.5886 -1.2904
  891MOL0     C22843   3.283   4.510   1.321  0.4023 -0.4374  0.2669
  891MOL0     O22844   3.208   4.388   1.288 -0.4856  0.0095  1.0702
  891MOL0     C22845   3.282   4.266   1.307  0.3895 -0.2738  0.1873
  891MOL0     C22846   3.220   4.150   1.275 -0.2827  0.0518  0.5849
  891MOL0     C22847   3.285   4.031   1.273 -0.4412 -0.4879  1.1570
  891MOL0     C22848   3.204   3.907   1.218  0.1998  0.0794 -0.5581
  891MOL0     C22849   3.416   4.022   1.337 -0.6034 -0.5123  1.2256
  891MOL0     C22850   3.502   3.898   1.343 -0.1588 -0.3006  0.1576
  891MOL0     O22851   3.610   3.896   1.426  0.1585  0.1131  0.0968
  891MOL0     C22852   3.694   3.795   1.427 -0.1048 -0.8416  0.4042
  891MOL0     C22853   3.653   3.659   1.445 -0.1616 -0.2269 -0.0089
  891MOL0     C22854   3.753   3.560   1.446  0.4502 -0.5483  0.4446
  891MOL0     C22855   3.886   3.592   1.426 -0.5101  1.2806  0.0012
  891MOL0     O22856   3.976   3.485   1.418  0.7038 -0.2370  0.3518
  891MOL0     C22857   4.021   3.443   1.541 -1.3413  0.4789  0.3593
  891MOL0     C22858   3.946   3.318   1.596  0.2477  0.1004  0.7208
  891MOL0     C22859   4.036   3.254   1.706  0.6627  0.0675 -0.0114
  891MOL0     C22860   3.960   3.144   1.789 -0.3874 -0.6234  0.6696
  891MOL0     C22861   3.920   3.017   1.701  0.1187  0.6879  0.0628
  891MOL0     C22862   3.887   2.895   1.782  0.7643  0.2945  0.1171
  891MOL0     C22863   3.878   2.765   1.710  0.4680  0.0322 -0.5011
  891MOL0     C22864   3.865   2.646   1.810  0.2539 -0.3379  0.1860
  891MOL0    Cl22865   3.740   2.673   1.937 -0.4145 -0.1273 -0.4084
  891MOL0     C22866   3.922   3.719   1.390 -0.8380 -0.8777  0.0731
  891MOL0     C22867   3.828   3.825   1.396  0.2435 -0.4767  0.1487
  891MOL0     O22868   3.477   3.807   1.263  0.2007  0.3698  0.0138
  891MOL0     C22869   3.476   4.139   1.382  0.6388  0.2917 -0.0077
  891MOL0     C22870   3.409   4.255   1.367  0.7570 -0.1005 -0.2776
  891MOL0     N22871   2.890   4.627   1.623 -0.8320  0.1638 -0.1529
  891MOL0     N22872   2.772   4.619   1.674  0.0592  0.1279  0.4380
  891MOL0     C22873   1.589   4.678   1.902 -0.8228  1.1481 -0.5022
  891MOL0     C22874   1.477   4.639   1.976 -0.6930 -0.1225  0.0344
  891MOL0     C22875   1.069   4.451   2.024  0.6511  0.5265 -0.0329
  891MOL0     C22876   1.098   4.431   2.161  0.2530  0.4648 -0.2936
  891MOL0     C22877   1.030   4.343   2.247 -0.0416 -0.2193 -0.2213
  891MOL0     C22878   0.925   4.262   2.194 -0.3552 -0.6037  0.3746
  891MOL0     O22879   0.854   4.166   2.256  1.1801  0.1465 -0.0121
  891MOL0     C22880   0.860   4.140   2.388 -0.1007  1.0481 -0.5495
  891MOL0     C22881   0.726   4.068   2.442 -0.4235 -0.4726  0.4870
  891MOL0     C22882   0.612   4.149   2.421 -0.4584 -0.0858 -0.4241
  891MOL0     C22883   0.519   4.154   2.543  0.6440  0.1619  0.5647
  891MOL0     C22884   0.461   4.025   2.570  0.7468 -0.3760  0.4354
  891MOL0     C22885   0.422   3.911   2.600  0.5953  0.0691 -0.1928
  891MOL0     C22886   0.901   4.276   2.062 -0.0295 -0.0525  1.5799
  891MOL0     C22887   0.956   4.373   1.985 -0.2089  0.0386 -0.6240
  891MOL0     C22888   0.895   4.371   1.844 -0.3242  0.1372  0.3385
  891MOL0     H22889   1.231   4.777   1.787 -0.9535 -0.9027  0.6835
  891MOL0     H22890   1.443   4.861   1.662  0.2857  1.0988  0.5834
  891MOL0     H22891   1.814   4.628   1.703  0.0689 -0.0602 -2.3327
  891MOL0     H22892   1.844   4.773   1.808  0.5035  0.2913 -0.9908
  891MOL0     H22893   1.866   4.773   1.499  1.1937  0.5034 -0.8596
  891MOL0     H22894   1.878   4.912   1.607  2.6580  0.7098 -1.6903
  891MOL0     H22895   2.050   4.656   1.622 -0.5236 -0.6611 -0.4086
  891MOL0     H22896   2.099   4.771   1.511  1.7565 -1.7884 -0.2909
  891MOL0     H22897   2.108   4.964   1.692  3.4036  0.2578 -0.3048
  891MOL0     H22898   2.071   4.833   1.811 -1.6184 -1.5099 -0.4587
  891MOL0     H22899   2.275   4.723   1.751 -2.2682 -1.3392 -1.8801
  891MOL0     H22900   2.309   4.881   1.818 -0.0941  2.1437 -1.2690
  891MOL0     H22901   2.285   4.879   1.516  0.5527 -1.3182 -0.7179
  891MOL0     H22902   2.385   4.963   1.634 -2.9957  0.9755 -0.5007
  891MOL0     H22903   2.509   4.832   1.472 -0.9643  1.3794 -0.3519
  891MOL0     H22904   2.441   4.682   1.541  1.6657 -0.9574  1.1969
  891MOL0     H22905   2.577   4.869   1.735  1.9230 -1.0048  1.7035
  891MOL0     H22906   2.533   4.701   1.744 -0.3766 -0.7414  0.1743
  891MOL0     H22907   2.744   4.873   1.475  0.9074 -1.9796 -3.2553
  891MOL0     H22908   3.082   4.817   1.476  0.5603 -1.4810  1.2198
  891MOL0     H22909   2.969   4.795   1.338  1.9651 -0.4496 -0.9741
  891MOL0     H22910   3.102   4.572   1.486 -0.6352 -1.5413 -0.7620
  891MOL0     H22911   2.998   4.556   1.349 -1.7660  1.7368  0.7783
  891MOL0     H22912   3.159   4.620   1.192  0.2468 -0.0886 -1.5852
  891MOL0     H22913   3.253   4.718   1.308 -1.8618  1.4808 -2.0595
  891MOL0     H22914   3.365   4.517   1.249 -2.4506  4.3052 -3.1093
  891MOL0     H22915   3.322   4.498   1.422  1.2987 -0.7108 -0.1000
  891MOL0     H22916   3.116   4.146   1.243 -0.6467 -3.1469  1.7756
  891MOL0     H22917   3.173   3.846   1.304  0.3120 -0.7177 -1.0733
  891MOL0     H22918   3.251   3.842   1.144 -0.9214 -1.3006 -0.1180
  891MOL0     H22919   3.116   3.942   1.163 -0.9350  1.6127  2.0517
  891MOL0     H22920   3.548   3.631   1.450 -0.1074 -0.2277  2.2141
  891MOL0     H22921   3.706   3.462   1.450  1.5489 -1.3352 -2.9127
  891MOL0     H22922   4.125   3.411   1.537 -0.5610  1.2234  6.0922
  891MOL0     H22923   4.032   3.527   1.609  0.6250 -0.3769  1.1858
  891MOL0     H22924   3.848   3.343   1.637 -0.8199 -1.9478 -0.3719
  891MOL0     H22925   3.938   3.263   1.501  4.2814  1.5701 -0.6839
  891MOL0     H22926   4.064   3.347   1.757 -3.8202  0.6099  1.8814
  891MOL0     H22927   4.122   3.199   1.666 -0.8866 -1.6729 -1.1096
  891MOL0     H22928   3.861   3.179   1.819 -0.9239 -0.3874 -1.2124
  891MOL0     H22929   4.005   3.112   1.884 -1.1809 -0.7158  1.0223
  891MOL0     H22930   3.840   3.050   1.635 -0.5261 -0.1010  0.4446
  891MOL0     H22931   4.007   2.994   1.638 -0.3209 -0.1269 -0.2656
  891MOL0     H22932   3.789   2.905   1.830  0.5379 -0.3797 -0.1871
  891MOL0     H22933   3.957   2.877   1.863 -0.7613 -0.8836  1.2405
  891MOL0     H22934   3.966   2.745   1.649  1.6766  0.6028  0.9770
  891MOL0     H22935   3.793   2.756   1.642 -0.2002 -1.1037  0.4336
  891MOL0     H22936   3.957   2.618   1.863 -0.0186  0.4230  1.0948
  891MOL0     H22937   3.835   2.556   1.757 -0.9367 -1.0591  1.9755
  891MOL0     H22938   4.024   3.750   1.367 -0.5718 -0.5663  1.5788
  891MOL0     H22939   3.857   3.929   1.387 -0.8790 -0.1996 -0.5257
  891MOL0     H22940   3.580   4.145   1.414  0.4906  2.4950  0.2270
  891MOL0     H22941   3.469   4.343   1.389 -0.3548  0.7730 -0.5938
  891MOL0     H22942   1.682   4.645   1.946 -2.3411  0.1644  2.2709
  891MOL0     H22943   1.491   4.581   2.067  1.5444  0.3091  0.0296
  891MOL0     H22944   1.178   4.488   2.206  0.9943  0.6611 -1.8166
  891MOL0     H22945   1.050   4.339   2.353  0.4860  0.7794 -0.2685
  891MOL0     H22946   0.947   4.076   2.403  1.2911  2.7212 -1.2378
  891MOL0     H22947   0.885   4.230   2.445  1.1321 -0.9223  2.2841
  891MOL0     H22948   0.742   4.050   2.549 -0.3563 -3.3917  0.0846
  891MOL0     H22949   0.715   3.973   2.390  0.1292  0.4538 -1.3954
  891MOL0     H22950   0.640   4.253   2.401 -2.0656  0.8173  1.5100
  891MOL0     H22951   0.565   4.115   2.329 -3.8619 -0.5006  1.2921
  891MOL0     H22952   0.436   4.224   2.526 -0.4592 -1.2394 -0.0871
  891MOL0     H22953   0.565   4.197   2.632 -1.2808  1.3201  1.0771
  891MOL0     H22954   0.397   3.809   2.621 -0.1967  0.3788  0.4175
  891MOL0     H22955   0.834   4.203   2.017  1.1034  0.3600 -0.9245
  891MOL0     H22956   0.814   4.298   1.831 -0.3192 -0.3654  2.7688
  891MOL0     H22957   0.861   4.471   1.819 -1.8647 -0.4969 -0.2150
  891MOL0     H22958   0.975   4.339   1.776 -1.3199  3.8536 -2.9937
  892MOL0     O22959   2.473   8.909   0.736  0.0526 -0.4783 -0.6443
  892MOL0     C22960   2.447   8.791   0.753 -0.7879 -0.8955  0.5831
  892MOL0     O22961   2.355   8.732   0.835 -0.7007  0.9262  0.1973
  892MOL0     C22962   2.286   8.803   0.930 -0.6557  0.2810  0.4766
  892MOL0     C22963   2.249   8.745   1.048  0.0440 -0.7861  0.0268
  892MOL0     C22964   2.179   8.821   1.147 -0.3446 -0.0486  0.7113
  892MOL0     C22965   2.133   8.956   1.126  0.6923  1.1266 -0.3191
  892MOL0     O22966   2.060   9.033   1.216 -0.2584 -0.5202 -0.7988
  892MOL0     C22967   1.972   8.967   1.314 -0.5453 -0.9081  0.6081
  892MOL0     C22968   2.060   8.967   1.442  0.2071  0.4010  1.1584
  892MOL0     C22969   2.083   9.117   1.484  0.0350 -0.4281 -0.4017
  892MOL0     C22970   2.197   9.125   1.584  0.2784 -0.5045  0.0267
  892MOL0     C22971   2.212   9.268   1.629 -0.7371 -0.4016  0.1084
  892MOL0     C22972   2.344   9.264   1.696  0.1635 -0.0359 -0.9980
  892MOL0     C22973   2.360   9.401   1.779  0.0351 -0.1957  0.1150
  892MOL0     C22974   2.494   9.411   1.848 -0.7715  0.8699  0.2857
  892MOL0     N22975   2.600   9.464   1.761  0.7025 -0.4776  0.5054
  892MOL0     C22976   2.679   9.400   1.671  0.1296  0.1399 -0.2211
  892MOL0     C22977   2.769   9.496   1.636  0.0167  0.7212 -1.6805
  892MOL0     C22978   2.892   9.486   1.568  0.4761 -0.0798  0.3587
  892MOL0     C22979   2.900   9.358   1.477  0.4024 -0.6504 -0.2822
  892MOL0     C22980   3.014   9.365   1.375 -0.5727  0.1390  0.3435
  892MOL0     C22981   3.148   9.400   1.427 -0.3805  0.1348  0.8187
  892MOL0     O22982   3.161   9.543   1.430 -0.1543 -0.3053  0.0766
  892MOL0     C22983   3.194   9.602   1.314 -0.9563  1.0783 -0.4510
  892MOL0     C22984   3.205   9.739   1.323 -0.4694  0.1437  0.2804
  892MOL0     C22985   3.249   9.804   1.216 -0.2811 -1.2033  0.8581
  892MOL0     C22986   3.250   9.955   1.226  0.9778  0.2773  0.0293
  892MOL0     C22987   3.290   9.738   1.096  0.2556  0.4958 -0.3405
  892MOL0     C22988   3.332   9.802   0.969  0.2696 -0.6117 -0.0109
  892MOL0     O22989   3.243   9.822   0.865 -0.8784  0.5817 -0.7578
  892MOL0     C22990   3.285   9.905   0.770  0.1293  0.1365  0.0676
  892MOL0     C22991   3.361   9.859   0.657  0.2023 -0.0258 -0.8626
  892MOL0     C22992   3.401   9.948   0.567 -0.8273 -0.6334  0.0948
  892MOL0     C22993   3.365  10.082   0.574  0.3593  0.8454  0.3562
  892MOL0     O22994   3.388  10.163   0.463 -0.0044  0.5000  0.1604
  892MOL0     C22995   3.354  10.304   0.472  0.1661  0.2747 -0.8110
  892MOL0     C22996   3.412  10.377   0.350 -0.0557 -0.3812 -0.3914
  892MOL0     C22997   3.379  10.527   0.357  0.3098 -0.0331  0.4277
  892MOL0     C22998   3.471  10.606   0.458 -0.3257  0.4822  0.4756
  892MOL0     C22999   3.438  10.758   0.452 -0.0585  0.7277 -0.6124
  892MOL0     C23000   3.295  10.793   0.502 -0.5989  0.6859 -0.7834
  892MOL0     C23001   3.296  10.788   0.655  0.7226 -0.5471 -0.2134
  892MOL0     C23002   3.184  10.869   0.718 -0.9259 -0.1676  0.0665
  892MOL0    Cl23003   3.230  11.050   0.722 -0.0144 -0.0317 -0.3289
  892MOL0     C23004   3.300  10.131   0.685  0.2045  0.0351 -0.9509
  892MOL0     C23005   3.260  10.044   0.789 -0.4137  0.4436  0.1130
  892MOL0     O23006   3.450   9.835   0.976 -0.3465  1.0094  0.6022
  892MOL0     C23007   3.264   9.601   1.087 -0.4767  1.0962  1.3990
  892MOL0     C23008   3.212   9.533   1.189 -0.1683  0.3522  0.7672
  892MOL0     N23009   2.731   9.618   1.691 -0.4929 -0.1275 -0.1912
  892MOL0     N23010   2.617   9.599   1.755 -0.6435  0.9271 -0.4218
  892MOL0     C23011   2.169   9.003   0.999  0.1838  0.0090 -0.0083
  892MOL0     C23012   2.227   8.924   0.902 -0.0688 -0.3130  0.7035
  892MOL0     C23013   2.500   8.691   0.652 -0.3118  0.5296 -0.0800
  892MOL0     C23014   2.486   8.557   0.687 -0.5334  0.1347  0.1923
  892MOL0     C23015   2.543   8.457   0.594 -0.3978  0.3975 -0.7559
  892MOL0     C23016   2.619   8.486   0.492 -0.2547  0.1871  1.2605
  892MOL0     O23017   2.693   8.405   0.408 -0.7313 -0.0972 -0.4901
  892MOL0     C23018   2.708   8.272   0.454  0.0190  0.7524 -0.2193
  892MOL0     C23019   2.808   8.215   0.360  0.0210  0.2854 -0.6174
  892MOL0     C23020   2.869   8.088   0.433  0.0036  0.1813  0.2913
  892MOL0     C23021   3.002   8.052   0.379 -0.2497 -0.4244  0.7307
  892MOL0     C23022   2.998   7.999   0.237  0.3214  0.7267 -0.4749
  892MOL0     C23023   2.981   7.947   0.128 -0.7543 -0.1151 -0.7108
  892MOL0     C23024   2.630   8.620   0.449 -0.0153  0.2818 -0.5815
  892MOL0     C23025   2.571   8.717   0.527  1.1039 -0.0599 -0.0560
  892MOL0     C23026   2.579   8.863   0.472 -0.5152 -0.1618  0.2642
  892MOL0     H23027   2.261   8.639   1.065  1.6269 -1.2886 -3.3434
  892MOL0     H23028   2.163   8.769   1.241  0.5200 -1.7193 -0.0313
  892MOL0     H23029   1.936   8.866   1.291 -0.7618 -0.7989  0.4728
  892MOL0     H23030   1.893   9.040   1.332  0.9162  1.0664 -0.6131
  892MOL0     H23031   2.000   8.906   1.510 -0.5588 -2.2446 -1.6746
  892MOL0     H23032   2.155   8.920   1.416  0.0441  0.2363  0.8574
  892MOL0     H23033   2.105   9.188   1.404 -0.1325 -1.9736 -1.8773
  892MOL0     H23034   1.988   9.154   1.524  0.0373 -1.6198  0.7753
  892MOL0     H23035   2.181   9.050   1.663 -0.1697 -1.6562 -1.1069
  892MOL0     H23036   2.296   9.100   1.544  1.0534 -0.0964  1.6071
  892MOL0     H23037   2.126   9.301   1.688 -1.2633  0.4391 -1.0820
  892MOL0     H23038   2.220   9.348   1.554 -1.2270 -2.6451 -2.4722
  892MOL0     H23039   2.345   9.183   1.770 -0.3493  0.0827 -0.8585
  892MOL0     H23040   2.431   9.250   1.631 -0.6859  1.5318 -2.5286
  892MOL0     H23041   2.288   9.402   1.862 -0.0146  0.0200  0.0699
  892MOL0     H23042   2.340   9.485   1.711  2.0238 -1.0090 -1.5884
  892MOL0     H23043   2.479   9.481   1.930  1.4609  1.2968  0.4069
  892MOL0     H23044   2.514   9.311   1.889 -1.6443  0.3731 -0.4533
  892MOL0     H23045   2.679   9.294   1.648 -0.4618  0.6710 -3.0011
  892MOL0     H23046   2.968   9.482   1.647 -1.0268 -0.8622  1.8426
  892MOL0     H23047   2.901   9.570   1.499 -0.5737 -1.1848 -1.1919
  892MOL0     H23048   2.920   9.277   1.547  0.6468 -0.8344 -0.5642
  892MOL0     H23049   2.810   9.338   1.418  1.4674 -0.9514 -1.8717
  892MOL0     H23050   3.002   9.267   1.328 -3.3205  0.5865 -0.0629
  892MOL0     H23051   2.984   9.428   1.291  0.3946 -2.1669 -1.8560
  892MOL0     H23052   3.169   9.376   1.532 -0.5231  3.9554  1.8765
  892MOL0     H23053   3.224   9.347   1.368  2.3329  2.8496  1.5794
  892MOL0     H23054   3.184   9.803   1.408 -1.2198 -0.8766  0.8817
  892MOL0     H23055   3.288  10.005   1.137 -3.1510  0.7259 -1.6905
  892MOL0     H23056   3.308  10.001   1.307  0.5799  2.9984 -1.1241
  892MOL0     H23057   3.145   9.983   1.239  1.2377  1.5646 -0.4093
  892MOL0     H23058   3.379   9.752   0.662 -0.0076 -0.3262 -4.2102
  892MOL0     H23059   3.446   9.918   0.473 -2.1630 -2.1344 -0.1028
  892MOL0     H23060   3.245  10.304   0.481  0.3223 -1.0824  2.0725
  892MOL0     H23061   3.398  10.342   0.564 -0.2896  1.1798 -0.9555
  892MOL0     H23062   3.520  10.362   0.337  0.0360 -0.2006  0.1376
  892MOL0     H23063   3.367  10.339   0.259  1.0793  1.1856 -1.6579
  892MOL0     H23064   3.271  10.539   0.371 -0.0009  0.8226 -2.0307
  892MOL0     H23065   3.402  10.575   0.261 -0.9497  2.2858  1.2029
  892MOL0     H23066   3.571  10.596   0.415 -0.5458  1.6728 -0.3364
  892MOL0     H23067   3.458  10.572   0.561  1.9841  2.5580  1.5762
  892MOL0     H23068   3.504  10.807   0.525 -1.8361  1.4240  0.6354
  892MOL0     H23069   3.455  10.818   0.362 -1.0080  0.8136 -0.7531
  892MOL0     H23070   3.210  10.731   0.472 -0.4234 -0.4431  0.9364
  892MOL0     H23071   3.276  10.897   0.473  1.1843  1.1896 -0.2441
  892MOL0     H23072   3.390  10.825   0.698 -0.4096  0.2431  1.7337
  892MOL0     H23073   3.276  10.683   0.681 -0.5345 -0.8022 -2.0795
  892MOL0     H23074   3.170  10.834   0.821 -1.5464  2.8932  1.1504
  892MOL0     H23075   3.087  10.859   0.667 -0.0248 -0.1161 -1.7420
  892MOL0     H23076   3.260  10.231   0.695 -2.2694 -0.9471 -0.3994
  892MOL0     H23077   3.200  10.086   0.869 -3.8543  3.4185 -3.5758
  892MOL0     H23078   3.279   9.549   0.993 -1.5752  1.2956  1.0982
  892MOL0     H23079   3.199   9.428   1.167  3.4304 -0.1267  0.1768
  892MOL0     H23080   2.125   9.097   0.967  2.5482 -0.0343 -3.8891
  892MOL0     H23081   2.242   8.976   0.808  2.2159 -1.8461  0.1297
  892MOL0     H23082   2.435   8.529   0.779  0.1394 -3.5870 -0.3914
  892MOL0     H23083   2.529   8.351   0.613  2.8700 -0.0314 -0.0522
  892MOL0     H23084   2.751   8.279   0.555 -0.3869 -2.7379  0.3136
  892MOL0     H23085   2.616   8.213   0.462  0.2867 -0.0356 -2.4488
  892MOL0     H23086   2.885   8.289   0.337  2.6327 -1.8180  0.8235
  892MOL0     H23087   2.770   8.180   0.263  3.3488 -1.5923 -1.3852
  892MOL0     H23088   2.877   8.119   0.537 -3.1767  1.0728  0.3645
  892MOL0     H23089   2.798   8.005   0.440  0.3410 -0.0256  1.6018
  892MOL0     H23090   3.062   7.986   0.442 -0.7621 -1.5509  0.0718
  892MOL0     H23091   3.058   8.146   0.384  2.0528 -1.7433  0.9779
  892MOL0     H23092   2.953   7.920   0.027 -2.2592  2.0699 -0.9493
  892MOL0     H23093   2.685   8.659   0.365 -0.3162 -0.9190 -1.3633
  892MOL0     H23094   2.595   8.865   0.364  0.3524  2.3124  0.3766
  892MOL0     H23095   2.494   8.928   0.493 -0.0916  0.6245 -0.3817
  892MOL0     H23096   2.662   8.911   0.525  1.2146 -2.7633  0.0987
  893MOL0     O23097   8.352   9.551   3.487 -0.2028  0.7861 -0.0938
  893MOL0     C23098   8.380   9.529   3.611 -0.0072  0.5169  1.3335
  893MOL0     O23099   8.434   9.411   3.661 -0.1574  0.2814  0.1961
  893MOL0     C23100   8.481   9.331   3.558  0.5154  0.1402  0.5684
  893MOL0     C23101   8.614   9.339   3.510  0.3096  0.7173 -0.2342
  893MOL0     C23102   8.644   9.252   3.396 -0.3876 -0.3773 -0.4808
  893MOL0     C23103   8.544   9.173   3.335  0.9107  0.0376 -0.4346
  893MOL0     O23104   8.579   9.104   3.222 -0.4247  0.5936 -0.4056
  893MOL0     C23105   8.497   8.997   3.180  0.4839 -0.4816  0.1042
  893MOL0     C23106   8.554   8.937   3.060 -1.0224  0.8278  0.6335
  893MOL0     C23107   8.462   8.835   2.995  0.2847  0.0557 -0.0024
  893MOL0     C23108   8.515   8.822   2.858 -0.6908  0.1612  0.9219
  893MOL0     C23109   8.440   8.692   2.799  0.0144  0.2275 -0.5111
  893MOL0     C23110   8.503   8.649   2.670  0.1933 -0.2184  0.3737
  893MOL0     C23111   8.466   8.512   2.607 -0.4840  0.5062 -0.0104
  893MOL0     C23112   8.316   8.485   2.575 -0.9699  0.9377 -0.4240
  893MOL0     N23113   8.314   8.365   2.485 -0.4448 -0.2296 -0.1453
  893MOL0     C23114   8.345   8.370   2.352  0.0073 -0.1324  1.0564
  893MOL0     C23115   8.328   8.240   2.303  1.8202  0.1598 -0.6953
  893MOL0     C23116   8.320   8.180   2.164  1.7626  0.7357  0.3673
  893MOL0     C23117   8.298   8.282   2.060  1.3244  0.0121 -0.8991
  893MOL0     C23118   8.239   8.212   1.937 -0.6852  1.0651 -1.3515
  893MOL0     C23119   8.206   8.315   1.833 -0.2949  1.1432 -0.1231
  893MOL0     O23120   8.104   8.410   1.872  0.5972 -0.0811 -0.1660
  893MOL0     C23121   8.114   8.538   1.831 -0.0951 -0.7922  0.0927
  893MOL0     C23122   8.050   8.635   1.915 -0.6734 -0.1535  0.9420
  893MOL0     C23123   8.064   8.773   1.885 -0.1226 -0.2781  0.7212
  893MOL0     C23124   7.994   8.863   1.982  0.5562  1.0111 -0.7418
  893MOL0     C23125   8.149   8.818   1.783 -0.2076  0.9069 -1.6160
  893MOL0     C23126   8.157   8.965   1.747  0.6682  0.6625  0.9174
  893MOL0     O23127   8.270   9.015   1.694  0.1535  0.0815  0.0652
  893MOL0     C23128   8.285   9.148   1.669  0.0909  0.6030 -0.3511
  893MOL0     C23129   8.248   9.252   1.754 -0.5274 -1.4479 -0.0693
  893MOL0     C23130   8.263   9.384   1.713 -0.3756 -0.8025  0.3407
  893MOL0     C23131   8.337   9.415   1.595 -0.1918 -0.0306 -0.5532
  893MOL0     O23132   8.381   9.541   1.588 -0.3227  0.3853  0.0408
  893MOL0     C23133   8.482   9.578   1.492  0.0643  0.9154  0.2295
  893MOL0     C23134   8.542   9.715   1.536 -0.1864 -0.4687  0.2739
  893MOL0     C23135   8.449   9.832   1.524 -0.2418 -1.0138  0.2806
  893MOL0     C23136   8.415   9.868   1.379 -0.3248  0.2715  0.1487
  893MOL0     C23137   8.337   9.995   1.378 -0.0947 -0.1311 -0.1823
  893MOL0     C23138   8.271  10.020   1.242  0.1066  0.6068 -0.1215
  893MOL0     C23139   8.209  10.165   1.239  0.1944 -0.1737  0.8978
  893MOL0     C23140   8.169  10.191   1.093  1.2801 -0.3217  0.5388
  893MOL0    Cl23141   8.311  10.243   1.004  0.4891 -0.0873  0.3436
  893MOL0     C23142   8.372   9.309   1.508 -0.5047  0.1298 -0.3661
  893MOL0     C23143   8.347   9.179   1.544 -0.2507 -0.8928 -0.3462
  893MOL0     O23144   8.055   9.028   1.750  0.4830  0.4711  0.8273
  893MOL0     C23145   8.229   8.722   1.715  0.2149  0.8303  0.2644
  893MOL0     C23146   8.209   8.584   1.731 -0.1755  0.0176  0.2779
  893MOL0     N23147   8.310   8.157   2.405 -0.0036  0.9111  0.3661
  893MOL0     N23148   8.303   8.234   2.511  0.3302 -0.3170  0.1686
  893MOL0     C23149   8.413   9.169   3.392 -0.5395 -0.3036  0.0710
  893MOL0     C23150   8.383   9.238   3.500 -0.8720  0.7768  0.7543
  893MOL0     C23151   8.324   9.623   3.703  0.9593 -0.0097 -0.0824
  893MOL0     C23152   8.228   9.559   3.794  0.1029 -0.5120  0.2318
  893MOL0     C23153   8.160   9.642   3.884  0.2770  0.7945 -0.9755
  893MOL0     C23154   8.191   9.785   3.900  0.6439  0.4181 -0.9491
  893MOL0     O23155   8.155   9.860   4.004  0.4023  0.0711 -0.1991
  893MOL0     C23156   8.051   9.825   4.100  0.1575 -0.4338 -0.1132
  893MOL0     C23157   7.919   9.864   4.027  0.3396 -0.1793  0.4112
  893MOL0     C23158   7.927  10.003   3.960  0.2280 -0.5039 -0.4207
  893MOL0     C23159   7.802  10.044   3.880  0.5308  0.0901 -0.2431
  893MOL0     C23160   7.690  10.091   3.967  0.1505 -0.7139  0.4826
  893MOL0     C23161   7.619  10.128   4.057 -0.9254 -0.1394  0.0425
  893MOL0     C23162   8.282   9.833   3.815 -0.3694 -0.3301  0.6623
  893MOL0     C23163   8.345   9.765   3.713 -0.5306  0.0817 -0.5044
  893MOL0     C23164   8.435   9.848   3.624 -0.7091  0.2352  0.5586
  893MOL0     H23165   8.695   9.394   3.557 -0.7200  0.7178  1.6586
  893MOL0     H23166   8.748   9.258   3.366  0.7652 -0.2436  3.0502
  893MOL0     H23167   8.405   9.042   3.142 -0.5873 -1.1739  1.7738
  893MOL0     H23168   8.482   8.916   3.252  2.6828 -2.2307 -1.2510
  893MOL0     H23169   8.577   9.015   2.987  4.8289  0.3408  1.5409
  893MOL0     H23170   8.649   8.885   3.075 -1.6156 -0.6837 -0.4901
  893MOL0     H23171   8.473   8.740   3.049  1.1060 -0.1277 -0.4751
  893MOL0     H23172   8.356   8.862   3.005  0.8521  1.9489  1.5757
  893MOL0     H23173   8.476   8.908   2.803 -0.7543  1.5643  3.0684
  893MOL0     H23174   8.624   8.820   2.849 -0.8249 -1.4334 -1.5634
  893MOL0     H23175   8.334   8.719   2.785 -0.5771 -1.2626  0.7840
  893MOL0     H23176   8.452   8.608   2.869  0.4616 -0.8848 -1.8674
  893MOL0     H23177   8.472   8.726   2.600 -0.3897 -1.1705 -0.4470
  893MOL0     H23178   8.610   8.651   2.690 -0.3319  0.1369  3.9235
  893MOL0     H23179   8.494   8.430   2.674 -1.1271 -0.4321 -0.8663
  893MOL0     H23180   8.515   8.509   2.509  0.3901 -2.1638  0.4183
  893MOL0     H23181   8.264   8.454   2.666 -0.1318 -4.0280 -1.3613
  893MOL0     H23182   8.257   8.559   2.521 -1.4162  1.1474  0.3389
  893MOL0     H23183   8.339   8.456   2.286 -1.8739  0.2957  1.7195
  893MOL0     H23184   8.238   8.109   2.176  0.0871  2.3196 -1.2048
  893MOL0     H23185   8.409   8.119   2.144  0.9065 -0.8496  1.1816
  893MOL0     H23186   8.221   8.349   2.101  1.8013 -0.2783  0.5314
  893MOL0     H23187   8.385   8.345   2.043  2.6830 -0.3493  3.4184
  893MOL0     H23188   8.323   8.154   1.897 -0.4429  1.3069 -1.2037
  893MOL0     H23189   8.152   8.147   1.949 -0.8335  1.6434  1.2930
  893MOL0     H23190   8.302   8.365   1.814  1.7674 -1.7293  1.9995
  893MOL0     H23191   8.175   8.249   1.751  1.5455 -2.7636  2.0350
  893MOL0     H23192   8.005   8.611   2.011 -1.7374  3.4744  1.5075
  893MOL0     H23193   7.950   8.806   2.064  2.3571 -0.5450 -0.7747
  893MOL0     H23194   7.915   8.917   1.930  0.8090  3.1564  0.9584
  893MOL0     H23195   8.072   8.935   2.012  2.2926 -0.8681 -0.5281
  893MOL0     H23196   8.215   9.223   1.853  2.0188  0.0302  1.3203
  893MOL0     H23197   8.248   9.464   1.785  1.8501  0.1360 -0.1743
  893MOL0     H23198   8.568   9.513   1.471  0.9690  2.6773 -1.9634
  893MOL0     H23199   8.419   9.582   1.403 -3.4953  0.9738  2.5571
  893MOL0     H23200   8.582   9.694   1.635  2.1469  0.5718 -0.3654
  893MOL0     H23201   8.640   9.733   1.491 -0.6787  1.9303  0.0180
  893MOL0     H23202   8.505   9.917   1.565  2.0580 -1.5163 -1.6181
  893MOL0     H23203   8.357   9.812   1.580  1.2785 -1.6226  2.7073
  893MOL0     H23204   8.364   9.786   1.327  0.7428  2.0091 -4.0136
  893MOL0     H23205   8.513   9.879   1.334  0.1766 -1.9586  0.5583
  893MOL0     H23206   8.257   9.979   1.452  0.3599 -0.0872  0.3249
  893MOL0     H23207   8.400  10.078   1.412 -2.4670  0.1206  4.5572
  893MOL0     H23208   8.187   9.951   1.242  0.1775  0.4939 -1.6880
  893MOL0     H23209   8.340   9.999   1.159  1.9248  1.9455  0.9533
  893MOL0     H23210   8.268  10.248   1.281 -0.7865 -0.1465  2.3014
  893MOL0     H23211   8.123  10.166   1.306 -2.2475  1.5331 -2.0146
  893MOL0     H23212   8.098  10.274   1.090  1.4759 -0.1349  0.9173
  893MOL0     H23213   8.116  10.111   1.042 -2.8880  1.7697  1.2089
  893MOL0     H23214   8.428   9.320   1.416 -2.0944 -1.0541 -1.5166
  893MOL0     H23215   8.390   9.103   1.480 -1.5964  0.8159 -3.4846
  893MOL0     H23216   8.278   8.751   1.623  0.3441 -0.5603 -0.1373
  893MOL0     H23217   8.264   8.529   1.655  0.2996  0.2936  0.4160
  893MOL0     H23218   8.332   9.103   3.362 -0.9623  0.0037  0.5371
  893MOL0     H23219   8.278   9.234   3.526 -1.0971 -1.2076 -0.3200
  893MOL0     H23220   8.218   9.452   3.807 -0.5770 -0.4127  0.5663
  893MOL0     H23221   8.084   9.600   3.949 -1.1437  3.5506 -0.7087
  893MOL0     H23222   8.038   9.720   4.126 -2.3459 -1.6460 -4.9650
  893MOL0     H23223   8.069   9.885   4.190  0.8807 -2.2158  0.9740
  893MOL0     H23224   7.838   9.868   4.101  0.3544  1.9104  0.3866
  893MOL0     H23225   7.892   9.791   3.950  1.8066 -1.2777  0.8930
  893MOL0     H23226   7.940  10.072   4.044  2.1826 -2.0066  0.5928
  893MOL0     H23227   8.015  10.004   3.895  1.7722 -1.1344  1.5594
  893MOL0     H23228   7.768   9.960   3.819 -0.8628  0.1394  0.4389
  893MOL0     H23229   7.825  10.127   3.813  1.3317  1.0330  1.1326
  893MOL0     H23230   7.565  10.166   4.142 -2.8399  2.5987 -2.2201
  893MOL0     H23231   8.299   9.939   3.824 -1.0050 -0.1084 -0.5506
  893MOL0     H23232   8.375   9.903   3.550  2.2275  2.0676 -0.6846
  893MOL0     H23233   8.484   9.921   3.689 -1.4691 -0.2158  1.6556
  893MOL0     H23234   8.499   9.782   3.565 -1.1768  0.4650 -0.2245
  894MOL0     O23235   6.484   0.615   3.017 -0.4289  0.7025  0.4675
  894MOL0     C23236   6.402   0.597   3.108  0.4935 -0.1746 -0.2669
  894MOL0     O23237   6.430   0.549   3.234  0.3879 -0.1792 -0.8886
  894MOL0     C23238   6.564   0.549   3.275  0.4707 -0.2929 -0.8811
  894MOL0     C23239   6.618   0.432   3.323  0.7579  0.3175 -0.6354
  894MOL0     C23240   6.757   0.422   3.368  0.8788  0.6102 -0.1565
  894MOL0     C23241   6.838   0.536   3.362 -0.8644  0.4831 -0.9945
  894MOL0     O23242   6.962   0.509   3.409  0.9340  1.0028  0.2110
  894MOL0     C23243   7.058   0.612   3.426 -0.0672  0.1612 -0.2376
  894MOL0     C23244   7.032   0.699   3.553 -0.7676  0.2164 -0.1299
  894MOL0     C23245   7.017   0.626   3.683 -1.0282 -0.1594  0.4595
  894MOL0     C23246   7.033   0.733   3.800  0.2596  0.1602 -0.4848
  894MOL0     C23247   6.987   0.677   3.940  0.8669  0.8173  0.2530
  894MOL0     C23248   7.005   0.785   4.043 -0.6069  0.7264 -0.1639
  894MOL0     C23249   7.005   0.740   4.188 -0.0575 -0.2052  0.0320
  894MOL0     C23250   7.100   0.616   4.221  0.3725 -1.1522  0.1743
  894MOL0     N23251   7.114   0.572   4.361 -0.1962 -0.6356 -0.5521
  894MOL0     C23252   7.112   0.661   4.465  0.2856  0.8470 -0.5267
  894MOL0     C23253   7.140   0.592   4.574  0.1639  0.6126 -0.5691
  894MOL0     C23254   7.126   0.629   4.723  0.5882  0.0953 -0.3021
  894MOL0     C23255   7.152   0.775   4.740 -0.2017 -0.3162  0.3312
  894MOL0     C23256   7.280   0.827   4.668 -0.1770  0.1210  0.0391
  894MOL0     C23257   7.333   0.948   4.748  0.4763 -0.1903 -0.2580
  894MOL0     O23258   7.232   1.053   4.747 -0.4184  0.5169  0.3318
  894MOL0     C23259   7.256   1.159   4.821 -0.0166  0.1333 -0.9573
  894MOL0     C23260   7.152   1.243   4.819  0.7306 -0.5647 -0.0502
  894MOL0     C23261   7.146   1.350   4.908  0.4193 -1.2908  0.0369
  894MOL0     C23262   7.021   1.436   4.918  0.3032 -0.0017 -0.3283
  894MOL0     C23263   7.265   1.391   4.972 -0.4756 -0.4565 -1.0048
  894MOL0     C23264   7.295   1.520   5.052 -0.5427  0.0704  0.1456
  894MOL0     O23265   7.187   1.595   5.083 -0.4082  0.3980 -0.0833
  894MOL0     C23266   7.200   1.729   5.119 -0.5785  0.1174 -0.4635
  894MOL0     C23267   7.108   1.784   5.214  0.0196 -0.3423 -0.5734
  894MOL0     C23268   7.106   1.927   5.237 -0.0978  0.1159 -1.3012
  894MOL0     C23269   7.209   2.013   5.191  0.4119  0.0417 -0.0016
  894MOL0     O23270   7.196   2.143   5.232  0.1606  0.1043  0.2628
  894MOL0     C23271   7.327   2.206   5.244 -0.6729 -0.4581  0.6211
  894MOL0     C23272   7.303   2.350   5.309 -0.4527 -0.5192  1.0501
  894MOL0     C23273   7.236   2.448   5.207 -0.4446  0.3666  0.6553
  894MOL0     C23274   7.215   2.593   5.263 -0.7638 -0.1212 -0.3847
  894MOL0     C23275   7.127   2.663   5.159  0.4863  0.3366 -0.1645
  894MOL0     C23276   7.229   2.731   5.050  0.0676  0.4627 -0.4201
  894MOL0     C23277   7.146   2.806   4.955  0.6445  0.1801 -0.2606
  894MOL0     C23278   7.212   2.855   4.828  0.9006  0.2351 -0.6939
  894MOL0    Cl23279   7.091   2.902   4.703  0.2256  0.2829  0.2097
  894MOL0     C23280   7.304   1.952   5.113 -0.3902 -0.1195 -0.2482
  894MOL0     C23281   7.300   1.818   5.071 -0.3294  0.2224 -0.9575
  894MOL0     O23282   7.411   1.555   5.078  0.1343 -0.1347  0.8029
  894MOL0     C23283   7.373   1.306   4.966 -0.4495 -1.0769  0.7392
  894MOL0     C23284   7.367   1.191   4.898 -0.0080  0.1653  0.9364
  894MOL0     N23285   7.181   0.469   4.528 -0.4387 -0.1230  0.5992
  894MOL0     N23286   7.179   0.462   4.396  0.1257 -0.2806 -0.4218
  894MOL0     C23287   6.783   0.655   3.324  0.3500 -0.0245  0.2457
  894MOL0     C23288   6.646   0.666   3.281  0.1157 -0.2280 -0.1621
  894MOL0     C23289   6.267   0.603   3.079  0.2171  1.2657  0.4483
  894MOL0     C23290   6.183   0.502   3.131  0.7506  0.3505  0.4487
  894MOL0     C23291   6.041   0.500   3.103 -0.0104  0.6370 -0.0128
  894MOL0     C23292   5.983   0.595   3.014 -0.2277 -0.3220  0.6917
  894MOL0     O23293   5.849   0.601   2.991 -0.7157  0.4159 -0.7041
  894MOL0     C23294   5.797   0.679   2.876  0.0367 -0.9419  0.1754
  894MOL0     C23295   5.641   0.658   2.838  0.0999  0.3727 -0.2134
  894MOL0     C23296   5.616   0.723   2.695  1.2488 -0.3844  0.2303
  894MOL0     C23297   5.467   0.764   2.688 -1.2462 -0.8529  0.8804
  894MOL0     C23298   5.420   0.863   2.782  0.2502 -0.7493  0.3058
  894MOL0     C23299   5.386   0.959   2.856  0.2787  0.4090 -0.9352
  894MOL0     C23300   6.080   0.691   2.965 -0.0343  0.8312  0.5172
  894MOL0     C23301   6.212   0.712   3.004 -0.4242 -0.1769 -0.5630
  894MOL0     C23302   6.299   0.834   2.975  0.3388 -0.7986  0.5156
  894MOL0     H23303   6.560   0.341   3.313 -0.6003  1.0126  0.5043
  894MOL0     H23304   6.796   0.325   3.397 -4.0139 -0.7140  3.2425
  894MOL0     H23305   7.056   0.672   3.334 -4.8926  1.6782  0.5640
  894MOL0     H23306   7.158   0.568   3.429  0.1812  0.7401  2.3507
  894MOL0     H23307   7.119   0.763   3.570  0.0697 -1.3450  1.9054
  894MOL0     H23308   6.940   0.757   3.540 -0.4184  0.4985 -1.6270
  894MOL0     H23309   6.913   0.592   3.687 -1.9498  2.0755 -1.8135
  894MOL0     H23310   7.095   0.551   3.701  0.9176  1.6949  0.1283
  894MOL0     H23311   7.137   0.764   3.811  0.2914  0.5001 -1.5818
  894MOL0     H23312   6.977   0.822   3.768 -1.5237 -1.1282 -1.1073
  894MOL0     H23313   7.041   0.583   3.954 -0.3060 -0.6699 -3.7361
  894MOL0     H23314   6.882   0.647   3.937  0.7344  1.2731  0.1262
  894MOL0     H23315   7.101   0.835   4.026  0.9011 -1.9541 -0.0345
  894MOL0     H23316   6.926   0.858   4.022 -4.9240 -3.4068  0.1827
  894MOL0     H23317   6.905   0.709   4.219  0.7671 -0.7980  2.2769
  894MOL0     H23318   7.042   0.822   4.250 -0.3955  0.2678 -0.3843
  894MOL0     H23319   7.070   0.531   4.159  1.1132 -3.8095  3.1687
  894MOL0     H23320   7.206   0.636   4.199 -0.4225  1.1698 -2.0130
  894MOL0     H23321   7.067   0.760   4.470 -1.2489  0.1452  0.2349
  894MOL0     H23322   7.192   0.565   4.782 -3.2931  0.3112  5.0089
  894MOL0     H23323   7.022   0.613   4.754  1.2032 -0.7420  1.4532
  894MOL0     H23324   7.070   0.832   4.695 -0.6918  0.7261  2.4127
  894MOL0     H23325   7.143   0.803   4.846 -2.3038 -2.1823  0.7118
  894MOL0     H23326   7.357   0.750   4.671 -0.4980 -0.1827  1.2123
  894MOL0     H23327   7.267   0.851   4.562 -0.5104 -1.7393 -0.3791
  894MOL0     H23328   7.347   0.919   4.853 -0.5453  1.0505  0.2512
  894MOL0     H23329   7.425   0.987   4.705 -0.5054  1.9158 -0.5848
  894MOL0     H23330   7.063   1.223   4.760 -0.0757  0.0193  0.9361
  894MOL0     H23331   6.988   1.458   5.020 -2.1016  4.8092 -1.8109
  894MOL0     H23332   6.945   1.373   4.872 -0.0339  1.2140 -1.5210
  894MOL0     H23333   7.030   1.529   4.861  2.2849  1.9644  2.9124
  894MOL0     H23334   7.029   1.715   5.245 -0.0127 -0.0735 -0.0509
  894MOL0     H23335   7.026   1.960   5.303  0.2828 -1.0479 -0.2130
  894MOL0     H23336   7.392   2.158   5.318  1.5670  1.3538 -0.0720
  894MOL0     H23337   7.376   2.229   5.149 -2.9670  0.5507 -0.3909
  894MOL0     H23338   7.227   2.342   5.388 -1.0014  1.0460  0.7098
  894MOL0     H23339   7.389   2.397   5.357 -0.2496 -1.8625  2.0832
  894MOL0     H23340   7.152   2.387   5.172  2.5453 -3.1098 -1.0719
  894MOL0     H23341   7.299   2.454   5.118  0.9659 -0.3651  1.5672
  894MOL0     H23342   7.308   2.649   5.273 -1.6254  1.4321 -0.8102
  894MOL0     H23343   7.161   2.591   5.359  0.4067 -1.5909  0.2973
  894MOL0     H23344   7.049   2.598   5.117  0.0466  0.8967 -0.2200
  894MOL0     H23345   7.079   2.742   5.217  0.1209 -0.7959  1.1203
  894MOL0     H23346   7.285   2.651   5.001 -0.6791 -0.6335  0.4632
  894MOL0     H23347   7.304   2.789   5.106  0.8340 -1.5743  0.8073
  894MOL0     H23348   7.114   2.889   5.018 -1.3060 -0.5751 -0.1972
  894MOL0     H23349   7.064   2.741   4.922  3.9574 -3.0967 -2.9311
  894MOL0     H23350   7.271   2.770   4.793  0.2410  0.0153 -1.2859
  894MOL0     H23351   7.288   2.931   4.852  1.4596  0.5417 -3.1620
  894MOL0     H23352   7.382   2.022   5.083 -3.0883  3.8090  1.0554
  894MOL0     H23353   7.382   1.780   5.010 -0.0996  1.4986 -1.4669
  894MOL0     H23354   7.471   1.328   5.008 -0.1390  0.4194 -0.7066
  894MOL0     H23355   7.452   1.124   4.897  0.1117  0.3244  0.4768
  894MOL0     H23356   6.850   0.741   3.328  0.0371  0.1834  1.4101
  894MOL0     H23357   6.596   0.762   3.265 -2.0336 -1.2903 -0.1893
  894MOL0     H23358   6.214   0.424   3.201 -0.2264  1.0823  1.7461
  894MOL0     H23359   5.980   0.420   3.144 -2.5249  2.1742 -0.4721
  894MOL0     H23360   5.798   0.782   2.913  0.5064 -1.7985  2.7569
  894MOL0     H23361   5.857   0.660   2.786 -1.8416 -0.0355 -1.3375
  894MOL0     H23362   5.587   0.708   2.918 -0.2106 -0.3030  0.0045
  894MOL0     H23363   5.615   0.552   2.838 -1.5597  0.5744 -4.1878
  894MOL0     H23364   5.667   0.818   2.677  0.1235  0.3546  0.8209
  894MOL0     H23365   5.648   0.659   2.613  2.7651 -0.3191  0.7401
  894MOL0     H23366   5.400   0.678   2.699 -0.8389 -1.2168  0.5615
  894MOL0     H23367   5.462   0.803   2.587  0.4117 -0.8185  0.7820
  894MOL0     H23368   5.377   1.048   2.915  1.0906 -1.2112  1.8027
  894MOL0     H23369   6.041   0.765   2.895 -3.0950 -0.7006  0.4529
  894MOL0     H23370   6.390   0.807   2.920  0.0694 -2.9018  1.0223
  894MOL0     H23371   6.241   0.908   2.920 -0.6777 -0.5073  1.9140
  894MOL0     H23372   6.322   0.883   3.071 -0.5410  0.5043  0.0937
  895MOL0     O23373   6.115   3.851  10.595  0.7053 -0.1964  0.4123
  895MOL0     C23374   6.056   3.957  10.629 -0.0699  0.1999  0.0902
  895MOL0     O23375   6.114   4.055  10.692 -0.7903  0.3583 -0.4546
  895MOL0     C23376   6.253   4.059  10.705  0.2185  0.2343  0.0028
  895MOL0     C23377   6.305   4.155  10.797  0.3317 -0.0731  0.1100
  895MOL0     C23378   6.440   4.192  10.820 -0.2150  0.6757  0.0153
  895MOL0     C23379   6.534   4.116  10.747 -0.2303  0.5058 -0.1146
  895MOL0     O23380   6.669   4.119  10.767 -0.0547  0.2188 -0.1208
  895MOL0     C23381   6.728   4.200  10.868 -0.3915 -0.2476 -0.8249
  895MOL0     C23382   6.872   4.148  10.904  0.2611  0.2143  0.0588
  895MOL0     C23383   6.999   4.182  10.815  0.4391  0.0983 -0.0363
  895MOL0     C23384   7.132   4.139  10.881 -0.0910  0.2243 -0.1078
  895MOL0     C23385   7.243   4.108  10.778  0.6159 -0.0874  0.3262
  895MOL0     C23386   7.216   3.955  10.736 -0.6162 -0.5756  0.2756
  895MOL0     C23387   7.328   3.904  10.644  0.1861 -0.6566 -0.0886
  895MOL0     C23388   7.472   3.891  10.716  0.3246 -1.3736 -0.1665
  895MOL0     N23389   7.574   3.802  10.641 -0.4725 -0.5823 -0.2257
  895MOL0     C23390   7.699   3.854  10.604  0.1486 -0.8582 -0.6756
  895MOL0     C23391   7.736   3.762  10.516 -0.2986  0.2234  0.3136
  895MOL0     C23392   7.861   3.777  10.441  0.3091  0.0355  1.2788
  895MOL0     C23393   7.991   3.743  10.517 -0.0486  1.0062 -0.2142
  895MOL0     C23394   8.109   3.840  10.520  0.4021  0.5329 -0.3762
  895MOL0     C23395   8.129   3.922  10.399  0.0841  0.8728 -0.3367
  895MOL0     O23396   8.177   3.822  10.303  0.0787  0.7237  0.1292
  895MOL0     C23397   8.202   3.861  10.172 -0.2099  0.4743  0.2849
  895MOL0     C23398   8.190   3.984  10.118 -0.1510  0.2133  0.2806
  895MOL0     C23399   8.237   4.014   9.983 -0.8620  0.1966  0.4133
  895MOL0     C23400   8.210   4.154   9.937  1.1608 -0.6101  0.8364
  895MOL0     C23401   8.284   3.909   9.894 -0.2166  0.0009 -0.0068
  895MOL0     C23402   8.330   3.938   9.761 -1.2194 -0.1868 -0.6682
  895MOL0     O23403   8.429   4.038   9.742  1.3271  0.0864 -0.6930
  895MOL0     C23404   8.459   4.083   9.618 -0.5042 -0.8401 -0.7996
  895MOL0     C23405   8.391   4.084   9.497 -0.1324 -0.2493  0.1725
  895MOL0     C23406   8.435   4.163   9.389  0.4722 -0.2308 -0.4991
  895MOL0     C23407   8.553   4.238   9.388  0.5247 -0.7207  0.7858
  895MOL0     O23408   8.576   4.326   9.284  0.1044 -0.1809  0.7174
  895MOL0     C23409   8.675   4.428   9.306 -0.0902 -0.0065 -0.1300
  895MOL0     C23410   8.694   4.484   9.164 -0.2162  0.1667 -0.4838
  895MOL0     C23411   8.830   4.556   9.150  0.6459  0.4164  0.7443
  895MOL0     C23412   8.867   4.585   9.008  1.0190  0.0786 -0.2914
  895MOL0     C23413   8.989   4.680   9.000 -0.2987  0.3422 -0.6716
  895MOL0     C23414   9.033   4.716   8.865  0.0544  0.5936  0.1200
  895MOL0     C23415   9.116   4.597   8.798 -0.3296 -0.7642  0.4630
  895MOL0     C23416   9.177   4.635   8.658 -0.3505 -0.0543  0.3567
  895MOL0    Cl23417   9.254   4.485   8.604  0.2264 -0.0964 -0.1850
  895MOL0     C23418   8.631   4.228   9.507 -0.0722  0.1775 -0.0339
  895MOL0     C23419   8.581   4.157   9.616  0.7753  0.1061  1.0459
  895MOL0     O23420   8.285   3.869   9.666  0.1470  0.4737  0.0462
  895MOL0     C23421   8.286   3.781   9.962 -1.2980 -0.0758  0.3312
  895MOL0     C23422   8.250   3.760  10.093 -0.2111 -0.6000  0.6032
  895MOL0     N23423   7.637   3.664  10.486 -0.2982 -0.2215 -0.1229
  895MOL0     N23424   7.545   3.692  10.573 -0.8951  0.8514 -0.1570
  895MOL0     C23425   6.492   4.031  10.641  0.2244 -0.7149  0.6825
  895MOL0     C23426   6.355   4.011  10.620 -0.3140  0.8578  0.9976
  895MOL0     C23427   5.918   3.975  10.574 -0.2168 -0.3628 -0.5731
  895MOL0     C23428   5.839   4.059  10.642 -0.0693  0.4191  0.3679
  895MOL0     C23429   5.702   4.061  10.617  0.1755 -0.5192  0.2968
  895MOL0     C23430   5.647   3.991  10.509  0.0021 -0.6261  0.0851
  895MOL0     O23431   5.510   3.981  10.511 -0.0673 -0.1351  0.4011
  895MOL0     C23432   5.439   3.897  10.409  0.1315 -0.6741  1.2627
  895MOL0     C23433   5.287   3.915  10.430 -0.9231  0.8575 -0.4599
  895MOL0     C23434   5.203   3.815  10.356  0.4811 -0.8021  0.2943
  895MOL0     C23435   5.260   3.783  10.212 -0.2576  0.3821  0.0765
  895MOL0     C23436   5.257   3.884  10.113 -0.4731  0.6349  0.3566
  895MOL0     C23437   5.236   3.961  10.025  0.1624  0.0936 -0.1554
  895MOL0     C23438   5.727   3.914  10.427 -0.3081  0.2633 -0.0171
  895MOL0     C23439   5.862   3.918  10.461  0.2383  0.5677 -0.1463
  895MOL0     C23440   5.931   3.836  10.362  0.1523  0.4368  0.5032
  895MOL0     H23441   6.230   4.205  10.856  1.4744 -1.0054  2.4988
  895MOL0     H23442   6.459   4.263  10.899 -2.2643  1.6829 -0.3378
  895MOL0     H23443   6.669   4.191  10.959  0.3178  0.6912 -0.2550
  895MOL0     H23444   6.735   4.306  10.843 -1.7115  0.2005  0.6238
  895MOL0     H23445   6.890   4.186  11.006  0.8701  1.1795 -0.3956
  895MOL0     H23446   6.864   4.040  10.914  0.4748  0.1192 -0.7550
  895MOL0     H23447   6.986   4.135  10.717 -0.7097  3.5073 -1.6751
  895MOL0     H23448   6.994   4.288  10.788  2.5845  0.4540  0.7939
  895MOL0     H23449   7.176   4.227  10.928  0.7512 -0.8315  1.1406
  895MOL0     H23450   7.125   4.054  10.949  1.0038 -0.1246 -0.3958
  895MOL0     H23451   7.338   4.100  10.831  0.8282 -1.7264 -0.2452
  895MOL0     H23452   7.262   4.179  10.698 -1.6582  1.3480  0.9613
  895MOL0     H23453   7.198   3.890  10.822 -2.2276 -0.9290 -0.2921
  895MOL0     H23454   7.114   3.961  10.697 -0.9167  0.8523  1.2143
  895MOL0     H23455   7.328   3.972  10.558 -0.6396  3.7799  3.0618
  895MOL0     H23456   7.301   3.800  10.623 -1.7598 -0.3430  0.7268
  895MOL0     H23457   7.519   3.989  10.731 -2.2565 -0.4229  2.9896
  895MOL0     H23458   7.456   3.850  10.816  0.9147 -3.6831 -0.9573
  895MOL0     H23459   7.751   3.947  10.625  2.8988 -2.3926 -0.1283
  895MOL0     H23460   7.865   3.882  10.411  2.0111 -0.2094  0.5002
  895MOL0     H23461   7.853   3.725  10.345 -1.9175 -2.1589  2.5495
  895MOL0     H23462   7.974   3.724  10.624  3.3072  0.7160  0.3594
  895MOL0     H23463   8.023   3.645  10.482 -1.9300  1.1123 -2.5069
  895MOL0     H23464   8.090   3.913  10.599  0.0663 -1.7968  1.7854
  895MOL0     H23465   8.194   3.777  10.545 -1.8323 -2.4396  0.1985
  895MOL0     H23466   8.035   3.973  10.376 -0.0454  2.2774  2.8453
  895MOL0     H23467   8.209   3.993  10.422  1.5784 -1.1600  1.0693
  895MOL0     H23468   8.159   4.064  10.184  2.8890  2.7474 -1.1061
  895MOL0     H23469   8.290   4.197   9.877  0.0204  1.6953  0.8723
  895MOL0     H23470   8.183   4.226  10.015  0.5102 -0.7214  0.7238
  895MOL0     H23471   8.125   4.149   9.869  2.5637 -2.9747 -0.8880
  895MOL0     H23472   8.300   4.026   9.487  1.6603 -3.1433 -0.2925
  895MOL0     H23473   8.381   4.169   9.295 -2.7219  0.3581  1.2424
  895MOL0     H23474   8.631   4.500   9.375 -2.3573 -1.2423 -0.1798
  895MOL0     H23475   8.762   4.368   9.333  0.6564 -0.4682 -3.2016
  895MOL0     H23476   8.699   4.395   9.100  0.6882  0.3376 -0.6520
  895MOL0     H23477   8.609   4.544   9.130  0.0098  0.6455 -0.1983
  895MOL0     H23478   8.915   4.502   9.192 -0.0080 -1.4101 -0.1797
  895MOL0     H23479   8.806   4.641   9.215 -1.5725 -0.2051  0.8306
  895MOL0     H23480   8.785   4.634   8.956 -0.6002 -0.9105  1.2219
  895MOL0     H23481   8.884   4.486   8.965  2.0280  0.3234 -0.4843
  895MOL0     H23482   8.967   4.773   9.054 -1.6980 -0.8449  0.9405
  895MOL0     H23483   9.065   4.623   9.053 -1.3702 -0.0874  0.4724
  895MOL0     H23484   9.093   4.807   8.860  2.7482 -1.1343 -1.0468
  895MOL0     H23485   8.945   4.732   8.802 -0.1448 -1.6012 -0.2470
  895MOL0     H23486   9.048   4.512   8.795  0.6537 -1.5330 -1.8704
  895MOL0     H23487   9.190   4.548   8.863 -0.8225 -1.8979  0.1729
  895MOL0     H23488   9.246   4.719   8.671 -0.7729  0.3705 -0.1217
  895MOL0     H23489   9.101   4.672   8.588  4.2665  4.8254 -2.9299
  895MOL0     H23490   8.726   4.279   9.521  0.9780 -1.9680  1.1871
  895MOL0     H23491   8.630   4.160   9.713 -0.8695 -3.2092  2.1324
  895MOL0     H23492   8.317   3.696   9.902  0.9359 -0.5919  2.0639
  895MOL0     H23493   8.262   3.658  10.127 -0.2524 -0.7095  0.2883
  895MOL0     H23494   6.553   3.976  10.569 -1.7262  0.1567 -1.7749
  895MOL0     H23495   6.324   3.942  10.542 -1.4873  2.8936 -0.4035
  895MOL0     H23496   5.877   4.107  10.732  1.4365 -0.4487  0.2160
  895MOL0     H23497   5.637   4.116  10.685  2.6223  1.5813  1.1035
  895MOL0     H23498   5.455   3.929  10.306 -1.3051 -1.1019  0.8768
  895MOL0     H23499   5.477   3.794  10.413  1.0436 -0.3935  0.1411
  895MOL0     H23500   5.268   4.017  10.398  3.6473  1.3113 -2.6468
  895MOL0     H23501   5.266   3.900  10.536  5.1081  1.6712  1.2218
  895MOL0     H23502   5.215   3.726  10.418 -1.2215  1.3355  4.0609
  895MOL0     H23503   5.100   3.853  10.356  0.6222 -0.0430  4.0047
  895MOL0     H23504   5.186   3.717  10.165 -0.8765  0.8834  0.3381
  895MOL0     H23505   5.361   3.739  10.215 -0.2066  0.2700 -1.8618
  895MOL0     H23506   5.211   4.032   9.949 -0.2713  0.0828 -0.0283
  895MOL0     H23507   5.687   3.862  10.341 -0.2814  1.3218 -0.6843
  895MOL0     H23508   6.040   3.842  10.362  0.1373  0.8339 -0.1102
  895MOL0     H23509   5.912   3.728  10.365  0.8912  0.1098 -2.6408
  895MOL0     H23510   5.914   3.870  10.259  2.8733  1.7814  0.4267
  896MOL0     O23511   6.750   4.994   9.010 -1.1923 -0.1582  0.3606
  896MOL0     C23512   6.763   5.110   9.044 -0.4365 -0.1910 -0.1984
  896MOL0     O23513   6.844   5.204   8.984 -0.2825  0.1404  0.0507
  896MOL0     C23514   6.899   5.165   8.869 -0.3771 -0.2011  0.2726
  896MOL0     C23515   6.822   5.138   8.754 -0.4961  0.6540 -0.3623
  896MOL0     C23516   6.885   5.118   8.626 -0.3711 -0.2293  0.5986
  896MOL0     C23517   7.023   5.151   8.607 -0.1608 -0.3834  0.5591
  896MOL0     O23518   7.100   5.145   8.497  0.0968  0.5913  0.5442
  896MOL0     C23519   7.038   5.098   8.377  0.1952  0.0509 -0.5504
  896MOL0     C23520   7.123   5.116   8.251  0.1465 -0.5610  0.5526
  896MOL0     C23521   7.244   5.022   8.225 -0.6770  0.1422 -0.8991
  896MOL0     C23522   7.306   5.024   8.085  0.5569 -0.3466  0.4027
  896MOL0     C23523   7.449   4.975   8.096 -1.2644  0.0701  0.5692
  896MOL0     C23524   7.499   4.949   7.952 -0.0750  0.2661 -0.2653
  896MOL0     C23525   7.633   4.885   7.964 -0.2132 -0.2170 -0.3258
  896MOL0     C23526   7.704   4.863   7.831  0.3033  0.2536  0.3057
  896MOL0     N23527   7.849   4.871   7.835  0.1437 -0.4828 -0.2101
  896MOL0     C23528   7.940   4.781   7.894  0.3466 -0.8863 -0.0738
  896MOL0     C23529   8.050   4.863   7.922 -0.4579 -0.3946  0.2145
  896MOL0     C23530   8.179   4.831   7.992  0.9326 -0.0262  0.5585
  896MOL0     C23531   8.162   4.837   8.146 -0.6886  0.2874 -0.4698
  896MOL0     C23532   8.228   4.716   8.210  0.1191 -0.0621  0.3036
  896MOL0     C23533   8.199   4.714   8.353 -0.0283  0.2419 -0.3363
  896MOL0     O23534   8.056   4.705   8.367  0.2976  0.1612  0.8982
  896MOL0     C23535   7.995   4.679   8.493 -0.4923  0.3412  0.2649
  896MOL0     C23536   7.862   4.667   8.498  0.5745  0.5060  0.2203
  896MOL0     C23537   7.789   4.636   8.616 -0.6131 -0.8926 -0.4909
  896MOL0     C23538   7.639   4.625   8.617 -0.2013 -0.2316  0.6238
  896MOL0     C23539   7.863   4.626   8.741 -0.7314  0.1166  0.9531
  896MOL0     C23540   7.810   4.625   8.875  0.2548  0.2484  1.4969
  896MOL0     O23541   7.897   4.563   8.965  0.2040  0.4401 -0.0773
  896MOL0     C23542   7.873   4.575   9.101 -0.2680 -0.1269 -0.4251
  896MOL0     C23543   7.797   4.471   9.164 -0.4117 -0.5631  1.3914
  896MOL0     C23544   7.768   4.476   9.299  0.6548 -0.4016  0.4090
  896MOL0     C23545   7.827   4.584   9.374 -0.1942 -0.0397  0.2286
  896MOL0     O23546   7.822   4.593   9.516 -0.1941 -0.3144  0.1959
  896MOL0     C23547   7.726   4.498   9.583  0.2965 -0.7637  0.6686
  896MOL0     C23548   7.726   4.535   9.732  0.3857 -0.0509  0.0164
  896MOL0     C23549   7.870   4.534   9.771 -0.3598 -0.4400  0.7423
  896MOL0     C23550   7.899   4.554   9.916 -0.4746  0.6010  0.5458
  896MOL0     C23551   8.047   4.539   9.933 -0.7774 -0.1461  0.5979
  896MOL0     C23552   8.082   4.561  10.081  0.0795 -0.5208 -0.3582
  896MOL0     C23553   8.228   4.571  10.099 -0.2574 -0.1324  0.2834
  896MOL0     C23554   8.268   4.550  10.245 -1.1825  0.2779  0.2783
  896MOL0    Cl23555   8.177   4.648  10.354  0.5734 -0.0035  0.2625
  896MOL0     C23556   7.908   4.684   9.318  0.1187 -0.9892  0.1901
  896MOL0     C23557   7.930   4.680   9.180 -1.3068  0.3953 -0.0483
  896MOL0     O23558   7.707   4.685   8.909  0.1431  0.2541 -0.0475
  896MOL0     C23559   8.008   4.654   8.729  0.0645  0.7112 -0.1113
  896MOL0     C23560   8.067   4.687   8.610 -0.4245 -0.4454 -0.3723
  896MOL0     N23561   8.029   4.990   7.873 -0.1474 -0.4986 -0.0470
  896MOL0     N23562   7.908   4.993   7.818 -1.4496 -0.4993  1.2404
  896MOL0     C23563   7.090   5.186   8.722  0.6310  0.5506 -0.2431
  896MOL0     C23564   7.031   5.193   8.843 -0.1587 -0.3112  1.1595
  896MOL0     C23565   6.694   5.154   9.176 -0.0441  0.3325  0.5649
  896MOL0     C23566   6.711   5.297   9.189 -0.0692  0.5707  0.2797
  896MOL0     C23567   6.665   5.354   9.311  0.2118 -0.0983  0.2058
  896MOL0     C23568   6.590   5.288   9.398  0.4571 -0.9718  0.2475
  896MOL0     O23569   6.543   5.371   9.509  0.2272  0.1492 -0.1901
  896MOL0     C23570   6.454   5.306   9.603 -0.2022 -0.2983 -0.7185
  896MOL0     C23571   6.427   5.379   9.736  0.3676 -0.0245 -0.5976
  896MOL0     C23572   6.314   5.309   9.818  0.1662  0.3811 -0.2392
  896MOL0     C23573   6.172   5.373   9.778  0.4611  1.3180 -0.8478
  896MOL0     C23574   6.055   5.328   9.862 -1.0250  0.1514 -0.1706
  896MOL0     C23575   5.964   5.276   9.920 -0.0997  0.0463  0.2311
  896MOL0     C23576   6.547   5.163   9.366 -0.7050  0.5566  0.1347
  896MOL0     C23577   6.611   5.081   9.268 -0.2805 -0.5931  0.2205
  896MOL0     C23578   6.583   4.939   9.240  0.4169 -0.6279  0.4738
  896MOL0     H23579   6.713   5.134   8.759 -0.4137 -2.0887  2.5205
  896MOL0     H23580   6.820   5.088   8.545  0.3852 -1.6813  0.5057
  896MOL0     H23581   6.952   5.164   8.363 -0.1334 -0.6631 -2.0392
  896MOL0     H23582   7.001   4.996   8.387 -2.1242  0.6328 -2.3168
  896MOL0     H23583   7.060   5.112   8.162  0.9831 -1.7373 -0.0204
  896MOL0     H23584   7.160   5.220   8.253  0.0883 -0.4891 -1.0090
  896MOL0     H23585   7.319   5.059   8.296 -1.8096  0.5163  0.1482
  896MOL0     H23586   7.218   4.921   8.258 -3.1819  0.6111 -1.2235
  896MOL0     H23587   7.250   4.963   8.014  0.1072  1.9003 -1.3025
  896MOL0     H23588   7.302   5.128   8.049  3.0162 -0.7057 -1.1453
  896MOL0     H23589   7.443   4.877   8.145  1.6817 -0.0148  0.9199
  896MOL0     H23590   7.518   5.037   8.155  2.3934 -5.9167  3.5714
  896MOL0     H23591   7.421   4.891   7.901  0.7880  0.7654 -2.2466
  896MOL0     H23592   7.506   5.041   7.894 -3.4380 -0.3378 -1.8674
  896MOL0     H23593   7.627   4.804   8.037 -1.9128  1.2062  1.2532
  896MOL0     H23594   7.694   4.964   8.008 -1.1114  0.2445  0.1310
  896MOL0     H23595   7.678   4.771   7.778 -1.4122  2.0227 -2.1064
  896MOL0     H23596   7.663   4.930   7.756 -0.4092 -2.4699 -1.9136
  896MOL0     H23597   7.919   4.678   7.923 -1.1189 -0.3883  0.7290
  896MOL0     H23598   8.246   4.914   7.970 -0.4583  1.1391  0.5550
  896MOL0     H23599   8.226   4.743   7.947 -1.2654 -0.1101 -1.8184
  896MOL0     H23600   8.209   4.928   8.184 -1.9688  0.9876 -0.5182
  896MOL0     H23601   8.053   4.845   8.155 -0.9697  0.6061 -3.1510
  896MOL0     H23602   8.192   4.625   8.162 -0.0546 -1.7127  3.3267
  896MOL0     H23603   8.337   4.717   8.204  0.2930 -2.6004  1.7199
  896MOL0     H23604   8.254   4.624   8.382  2.3931  1.0617 -2.1162
  896MOL0     H23605   8.248   4.806   8.386 -0.7490  1.5928 -2.8167
  896MOL0     H23606   7.802   4.694   8.412 -0.4405 -0.9590  0.4309
  896MOL0     H23607   7.612   4.544   8.685 -2.4649 -0.2111 -0.1576
  896MOL0     H23608   7.608   4.593   8.517 -1.8594  2.0885  0.2996
  896MOL0     H23609   7.590   4.713   8.660 -0.3564  0.1382 -0.2689
  896MOL0     H23610   7.773   4.382   9.107 -0.1889 -0.6761  1.4711
  896MOL0     H23611   7.707   4.394   9.337 -1.4540  0.0823 -1.7582
  896MOL0     H23612   7.627   4.505   9.537  1.2169 -2.8844 -1.9409
  896MOL0     H23613   7.753   4.393   9.569  1.0292 -0.8454  2.5427
  896MOL0     H23614   7.665   4.624   9.753 -0.9846 -0.4670 -1.9236
  896MOL0     H23615   7.671   4.459   9.788  0.6054 -0.8071 -0.7792
  896MOL0     H23616   7.926   4.618   9.728  0.2918 -1.8676 -1.3702
  896MOL0     H23617   7.908   4.437   9.737  0.5836 -0.0363  0.6005
  896MOL0     H23618   7.837   4.480   9.966 -1.0398 -2.4025 -3.9734
  896MOL0     H23619   7.865   4.654   9.947  1.2639  1.0008  1.2609
  896MOL0     H23620   8.085   4.452   9.878 -2.6303 -0.3790 -0.3849
  896MOL0     H23621   8.096   4.618   9.875 -0.2051 -1.5426 -0.8968
  896MOL0     H23622   8.048   4.488  10.156 -0.6637 -3.8189 -3.6075
  896MOL0     H23623   8.044   4.661  10.105  2.0783  0.2912 -0.3785
  896MOL0     H23624   8.258   4.675  10.083 -2.3411  0.5372  0.4706
  896MOL0     H23625   8.284   4.513  10.025 -1.0695  0.3345 -0.7181
  896MOL0     H23626   8.375   4.565  10.265 -0.9001 -0.9545 -0.2479
  896MOL0     H23627   8.257   4.444  10.268 -1.1751  0.8200  3.1355
  896MOL0     H23628   7.954   4.758   9.382  2.1791 -2.3145  0.3631
  896MOL0     H23629   7.996   4.750   9.130  3.0922 -2.6867  0.9379
  896MOL0     H23630   8.069   4.655   8.819 -1.8836  0.1685  1.2947
  896MOL0     H23631   8.174   4.709   8.607 -0.2234 -0.9213  1.7087
  896MOL0     H23632   7.195   5.213   8.724  1.0006 -0.8986  1.2537
  896MOL0     H23633   7.094   5.226   8.925 -2.3412  0.5634  2.5619
  896MOL0     H23634   6.768   5.362   9.123 -2.3889  3.1843  0.6389
  896MOL0     H23635   6.688   5.458   9.334 -2.1329  0.3069  1.0534
  896MOL0     H23636   6.355   5.311   9.556 -0.1010  1.5456 -0.8303
  896MOL0     H23637   6.489   5.204   9.618 -1.3842 -0.3892  2.1991
  896MOL0     H23638   6.396   5.479   9.705 -2.1363 -0.0657  1.4543
  896MOL0     H23639   6.522   5.378   9.790  1.9023  0.6473 -3.1515
  896MOL0     H23640   6.312   5.200   9.806 -2.3555 -0.1125  3.2193
  896MOL0     H23641   6.327   5.316   9.926  2.7282 -4.0151 -0.0283
  896MOL0     H23642   6.143   5.370   9.673  0.1477 -0.0082 -0.7451
  896MOL0     H23643   6.187   5.478   9.804  0.6600  1.0988 -0.0404
  896MOL0     H23644   5.883   5.226   9.969  1.6111 -1.6898  1.4393
  896MOL0     H23645   6.461   5.119   9.416  0.0180 -3.2376 -1.6439
  896MOL0     H23646   6.504   4.921   9.166  0.4104 -1.6904  0.7214
  896MOL0     H23647   6.678   4.895   9.208  1.6272  3.2196 -1.9478
  896MOL0     H23648   6.548   4.895   9.334 -0.0705  1.0631  1.1276
  897MOL0     O23649   2.838   6.815   2.595 -0.2049  0.3880  1.2636
  897MOL0     C23650   2.854   6.725   2.511 -1.1625 -0.0611  0.1499
  897MOL0     O23651   2.965   6.725   2.421  0.0997 -0.2898 -0.5085
  897MOL0     C23652   3.043   6.832   2.399  1.3871 -0.1037 -0.2148
  897MOL0     C23653   3.176   6.809   2.369 -0.0746  0.8498 -0.0653
  897MOL0     C23654   3.270   6.911   2.332  0.3379  0.6313  0.9233
  897MOL0     C23655   3.219   7.038   2.295 -0.3105 -0.0782 -0.2661
  897MOL0     O23656   3.297   7.150   2.255 -0.3817  0.4886  0.3152
  897MOL0     C23657   3.428   7.135   2.213 -0.7708 -1.5722 -0.4034
  897MOL0     C23658   3.535   7.132   2.333 -0.7677 -0.6831  0.0833
  897MOL0     C23659   3.520   7.249   2.435 -0.1305 -0.3189  1.2432
  897MOL0     C23660   3.398   7.238   2.527 -0.7927  0.0004  0.1824
  897MOL0     C23661   3.395   7.104   2.618 -0.8778 -0.0183  0.5055
  897MOL0     C23662   3.336   7.125   2.756  0.3108  0.2165 -0.3555
  897MOL0     C23663   3.186   7.168   2.749  0.2002  0.2115  0.1226
  897MOL0     C23664   3.110   7.137   2.879  0.7093 -0.0152  0.7201
  897MOL0     N23665   2.979   7.206   2.867  0.1256  0.8093 -0.1499
  897MOL0     C23666   2.872   7.155   2.799 -0.3809 -0.9035 -0.0392
  897MOL0     C23667   2.809   7.267   2.756  0.1638  0.4144 -0.1986
  897MOL0     C23668   2.688   7.266   2.671  1.0443 -0.3485  0.7197
  897MOL0     C23669   2.594   7.379   2.715  0.7677  0.1722  0.2958
  897MOL0     C23670   2.472   7.403   2.623  0.1051  0.4579  0.0820
  897MOL0     C23671   2.389   7.513   2.676  0.3071 -0.8128 -0.3002
  897MOL0     O23672   2.265   7.527   2.602 -1.0695  0.2065  0.1256
  897MOL0     C23673   2.174   7.441   2.644 -0.9160  0.3798  0.4629
  897MOL0     C23674   2.134   7.339   2.560  0.2377 -0.6522 -0.6722
  897MOL0     C23675   2.038   7.245   2.596  1.4504 -0.9152  0.1581
  897MOL0     C23676   1.983   7.144   2.492  0.6947 -0.7214 -0.4750
  897MOL0     C23677   1.972   7.256   2.727  0.6101  0.1405  0.6294
  897MOL0     C23678   1.871   7.166   2.792 -0.1046 -0.1275  0.2831
  897MOL0     O23679   1.795   7.222   2.893  0.0415 -0.3833 -0.2500
  897MOL0     C23680   1.747   7.126   2.985  0.1048 -0.8030  0.2839
  897MOL0     C23681   1.826   7.098   3.096 -0.0161 -0.2485 -0.7772
  897MOL0     C23682   1.780   7.011   3.194  0.7882  0.2711  0.4150
  897MOL0     C23683   1.648   6.967   3.191  0.1635 -0.0917  0.1769
  897MOL0     O23684   1.578   6.889   3.277  0.7080  0.2081 -0.3929
  897MOL0     C23685   1.638   6.859   3.401  0.0754  0.0661  0.0459
  897MOL0     C23686   1.553   6.790   3.508  0.8769 -0.2099 -0.3993
  897MOL0     C23687   1.398   6.774   3.465  0.3197  0.2461  0.9102
  897MOL0     C23688   1.318   6.690   3.563  0.3562 -0.6516 -0.1359
  897MOL0     C23689   1.168   6.700   3.526  0.3144  0.4872 -0.6449
  897MOL0     C23690   1.071   6.623   3.619  0.3585  0.0992 -0.2074
  897MOL0     C23691   1.104   6.467   3.626  0.2174  0.2593  0.3932
  897MOL0     C23692   1.057   6.410   3.494  0.0239  1.3785 -0.2996
  897MOL0    Cl23693   1.137   6.248   3.468  0.3183  0.1260  0.3384
  897MOL0     C23694   1.569   7.007   3.088  0.8192 -0.8124  0.9086
  897MOL0     C23695   1.616   7.075   2.979 -0.1210 -0.6562  0.0925
  897MOL0     O23696   1.861   7.052   2.751 -0.1735  0.2582 -0.6027
  897MOL0     C23697   2.019   7.353   2.820 -0.4275 -0.6278 -0.3042
  897MOL0     C23698   2.119   7.443   2.773 -0.2625 -0.5521  0.3941
  897MOL0     N23699   2.882   7.378   2.791 -0.9259  0.0451  0.4704
  897MOL0     N23700   2.974   7.339   2.856 -0.6045 -0.3374 -0.1345
  897MOL0     C23701   3.083   7.069   2.336 -0.2673 -0.4541 -0.1119
  897MOL0     C23702   2.996   6.962   2.386  0.5479 -1.0008  0.9319
  897MOL0     C23703   2.762   6.606   2.524 -0.3556 -0.5668  0.4111
  897MOL0     C23704   2.631   6.620   2.579  0.6048 -0.9048 -0.1908
  897MOL0     C23705   2.544   6.511   2.585 -0.9248  0.9228 -0.3162
  897MOL0     C23706   2.581   6.388   2.539 -0.6680  0.2528 -0.9701
  897MOL0     O23707   2.492   6.287   2.548  0.3860 -0.1341 -0.7832
  897MOL0     C23708   2.385   6.284   2.451 -0.2113 -0.4534  0.2119
  897MOL0     C23709   2.242   6.273   2.514 -0.0435 -0.3850 -0.5158
  897MOL0     C23710   2.143   6.326   2.406  0.3556  0.2288  0.3536
  897MOL0     C23711   2.006   6.317   2.465  1.0240 -0.0914  0.2258
  897MOL0     C23712   1.906   6.395   2.389 -0.4432 -0.7863  0.6398
  897MOL0     C23713   1.822   6.462   2.330  1.0340 -0.2504  0.1246
  897MOL0     C23714   2.703   6.372   2.492 -0.2869 -0.0056 -0.1245
  897MOL0     C23715   2.800   6.470   2.491 -0.5601 -0.1909  0.5192
  897MOL0     C23716   2.944   6.433   2.446  0.5431 -0.0309 -0.0232
  897MOL0     H23717   3.215   6.710   2.388 -2.5880 -0.0192  1.0697
  897MOL0     H23718   3.376   6.894   2.320 -0.0435 -2.4646  0.9832
  897MOL0     H23719   3.436   7.223   2.148 -2.6744 -1.2633 -0.2775
  897MOL0     H23720   3.445   7.048   2.149  2.0157 -1.1670 -0.3520
  897MOL0     H23721   3.520   7.041   2.392 -1.3684 -2.0350 -2.0604
  897MOL0     H23722   3.639   7.149   2.303  0.0149 -0.0791  2.8699
  897MOL0     H23723   3.616   7.243   2.488 -0.9620  1.3682  3.0754
  897MOL0     H23724   3.509   7.343   2.380 -1.4412  1.2374  3.9980
  897MOL0     H23725   3.400   7.318   2.601  0.1260  2.1334 -2.0325
  897MOL0     H23726   3.309   7.267   2.471 -0.8320  0.4464  0.4698
  897MOL0     H23727   3.491   7.054   2.631  0.5969  2.6495  0.6417
  897MOL0     H23728   3.332   7.027   2.573 -0.6640  1.3352 -2.3585
  897MOL0     H23729   3.339   7.035   2.819 -2.8547  2.0354  2.7560
  897MOL0     H23730   3.399   7.201   2.803  0.9709  1.2548 -2.8148
  897MOL0     H23731   3.132   7.117   2.669  1.9984  0.5231 -1.3605
  897MOL0     H23732   3.177   7.274   2.725 -0.9324 -0.2114 -1.5138
  897MOL0     H23733   3.085   7.031   2.889  2.1649 -0.3945  0.6214
  897MOL0     H23734   3.174   7.154   2.966 -0.3349  4.2317  0.8771
  897MOL0     H23735   2.855   7.052   2.767  0.5300 -0.7953 -0.9701
  897MOL0     H23736   2.637   7.169   2.674  1.3030 -0.5342 -0.5260
  897MOL0     H23737   2.713   7.273   2.565 -1.0624 -0.2335  0.1780
  897MOL0     H23738   2.557   7.357   2.815  0.3452  1.3808  0.4228
  897MOL0     H23739   2.654   7.470   2.726  0.2715  0.2358  3.2999
  897MOL0     H23740   2.505   7.429   2.522  0.0265  0.6990  0.1156
  897MOL0     H23741   2.400   7.321   2.619 -0.6228  0.9045  2.4837
  897MOL0     H23742   2.373   7.485   2.781  1.4714  0.6292  0.3094
  897MOL0     H23743   2.450   7.603   2.690  1.6455 -1.6571 -0.4508
  897MOL0     H23744   2.186   7.334   2.465  1.6858 -5.5999  0.0996
  897MOL0     H23745   2.031   7.156   2.395  1.5786  1.6626  0.1946
  897MOL0     H23746   1.874   7.148   2.482  0.5851  0.4831  0.8967
  897MOL0     H23747   2.017   7.047   2.530 -0.3426 -0.4925  1.1350
  897MOL0     H23748   1.924   7.143   3.111 -0.7515  1.4940 -0.8820
  897MOL0     H23749   1.849   7.004   3.277 -0.8537 -0.6944  1.7583
  897MOL0     H23750   1.723   6.791   3.393  2.2163  1.9839  3.7203
  897MOL0     H23751   1.688   6.949   3.438 -1.4579  1.0687 -0.2279
  897MOL0     H23752   1.602   6.694   3.527  0.6185 -0.1167  0.8455
  897MOL0     H23753   1.545   6.842   3.604  1.2312  0.0879 -0.5294
  897MOL0     H23754   1.398   6.736   3.363  3.1205  3.7939 -0.6750
  897MOL0     H23755   1.350   6.873   3.463  1.9576  1.1245  2.1688
  897MOL0     H23756   1.334   6.721   3.666 -0.7193 -2.6871  0.6929
  897MOL0     H23757   1.354   6.587   3.556  3.2464  0.3046 -0.5214
  897MOL0     H23758   1.128   6.801   3.522 -0.7728  0.1202  0.5584
  897MOL0     H23759   1.151   6.660   3.425 -1.1429  0.4097 -0.3946
  897MOL0     H23760   0.964   6.635   3.599 -0.2812 -1.9856  1.5825
  897MOL0     H23761   1.084   6.649   3.725 -2.7433 -2.0929  0.8636
  897MOL0     H23762   1.047   6.423   3.708 -0.0977 -1.0899 -0.5124
  897MOL0     H23763   1.210   6.447   3.640  0.6085  0.9741 -1.3262
  897MOL0     H23764   1.079   6.469   3.405 -1.2088 -0.3464 -1.8364
  897MOL0     H23765   0.949   6.400   3.500  0.0748  1.7795  3.3964
  897MOL0     H23766   1.462   6.989   3.081  0.2320  2.1747  0.7615
  897MOL0     H23767   1.551   7.080   2.893 -1.0347 -2.0740  0.6683
  897MOL0     H23768   1.986   7.359   2.923 -0.8903  1.4720 -0.5200
  897MOL0     H23769   2.134   7.530   2.837 -1.8639  0.6167 -0.7238
  897MOL0     H23770   3.055   7.173   2.325  2.6809  0.4296 -0.2639
  897MOL0     H23771   2.894   6.985   2.417  0.2542 -1.3138  0.2146
  897MOL0     H23772   2.606   6.719   2.617 -3.2507 -1.9693  0.5019
  897MOL0     H23773   2.441   6.525   2.616 -2.3862 -5.3995 -0.9016
  897MOL0     H23774   2.387   6.370   2.384  2.5363  0.0101  0.7830
  897MOL0     H23775   2.403   6.192   2.395  1.1090 -1.6145  2.3890
  897MOL0     H23776   2.248   6.337   2.603 -0.4960  2.0847 -2.1486
  897MOL0     H23777   2.225   6.170   2.544  0.7665  0.2999  2.6067
  897MOL0     H23778   2.161   6.431   2.382 -0.8411  0.3563 -0.0668
  897MOL0     H23779   2.140   6.273   2.311 -0.7146  0.9045 -0.0152
  897MOL0     H23780   2.001   6.348   2.569 -0.9779 -0.3106  0.2411
  897MOL0     H23781   1.973   6.213   2.451  0.5327  0.3177 -1.9917
  897MOL0     H23782   1.742   6.515   2.283 -2.9175 -3.0300  3.0007
  897MOL0     H23783   2.718   6.269   2.461 -1.1029 -0.4119  0.7478
  897MOL0     H23784   2.963   6.475   2.347  0.1942 -1.4292 -0.7112
  897MOL0     H23785   3.015   6.475   2.518  0.2120  0.7131 -0.1213
  897MOL0     H23786   2.972   6.327   2.450 -1.0456 -0.4620  3.4718
  898MOL0     O23787  10.167   5.402   6.823  0.7288 -0.9426  0.1361
  898MOL0     C23788  10.089   5.337   6.749 -1.4324 -0.0447 -0.5290
  898MOL0     O23789   9.970   5.370   6.709 -0.8350 -0.5467  0.6594
  898MOL0     C23790   9.922   5.485   6.756 -0.6747  0.2961 -0.6372
  898MOL0     C23791   9.929   5.604   6.678  0.2256 -0.0575  0.0596
  898MOL0     C23792   9.880   5.716   6.746 -0.3263  0.0191 -0.2869
  898MOL0     C23793   9.814   5.713   6.870  0.2204 -0.8786  0.3325
  898MOL0     O23794   9.752   5.824   6.932 -0.0745  0.1416  0.6719
  898MOL0     C23795   9.785   5.954   6.890 -0.1725 -0.7721  0.1205
  898MOL0     C23796   9.726   6.058   6.985 -0.3156 -0.4337  0.2563
  898MOL0     C23797   9.766   6.198   6.941  0.4222 -0.1603  0.0232
  898MOL0     C23798   9.771   6.296   7.068 -0.0707 -0.2481  0.3224
  898MOL0     C23799   9.782   6.443   7.015 -0.0787  0.5668  0.0624
  898MOL0     C23800   9.856   6.544   7.106 -0.5861  1.3200 -0.5591
  898MOL0     C23801  10.015   6.519   7.140 -0.0069 -0.4236  0.4511
  898MOL0     C23802  10.066   6.624   7.251  0.1306  0.0936 -0.2530
  898MOL0     N23803   9.967   6.628   7.360  0.3658  0.0083  0.8015
  898MOL0     C23804   9.948   6.521   7.450  0.4373  0.1738  0.3065
  898MOL0     C23805   9.835   6.560   7.519 -0.3425  0.6010  0.0376
  898MOL0     C23806   9.775   6.489   7.629  0.7162 -0.4107  0.2995
  898MOL0     C23807   9.703   6.361   7.588 -0.5558  0.4123 -1.0901
  898MOL0     C23808   9.578   6.378   7.503 -0.7103 -0.6140 -0.1109
  898MOL0     C23809   9.483   6.254   7.491  0.8083  0.5495  0.7718
  898MOL0     O23810   9.365   6.299   7.414 -0.3651  0.4566  0.1354
  898MOL0     C23811   9.373   6.280   7.278  0.0396 -0.7877  0.0492
  898MOL0     C23812   9.340   6.159   7.221  0.1658 -0.5171 -0.0238
  898MOL0     C23813   9.342   6.138   7.084 -0.5766 -1.1235  0.4320
  898MOL0     C23814   9.294   5.999   7.043 -0.3809  0.1168 -0.8238
  898MOL0     C23815   9.392   6.243   7.002  0.3575  0.3869 -0.7706
  898MOL0     C23816   9.408   6.240   6.854 -0.5290 -0.0640  0.3987
  898MOL0     O23817   9.461   6.352   6.796  0.7836 -0.3053  0.7101
  898MOL0     C23818   9.494   6.349   6.662 -1.3749 -0.0100 -0.2870
  898MOL0     C23819   9.627   6.383   6.632 -0.3276 -0.4663  0.3622
  898MOL0     C23820   9.663   6.404   6.497 -0.0482 -0.2561  0.3413
  898MOL0     C23821   9.567   6.396   6.399  1.0527  0.1579 -0.0039
  898MOL0     O23822   9.572   6.434   6.267 -0.4149  0.3332 -0.2384
  898MOL0     C23823   9.698   6.494   6.229  0.5185 -0.0514 -0.1329
  898MOL0     C23824   9.818   6.396   6.186 -0.3119 -0.3783  0.8393
  898MOL0     C23825   9.940   6.482   6.161  0.4163  0.5597 -0.1694
  898MOL0     C23826   9.935   6.535   6.014  0.3929  1.1008  0.4852
  898MOL0     C23827  10.070   6.542   5.940 -0.2267 -0.3548 -0.4754
  898MOL0     C23828  10.057   6.535   5.794 -0.6519  0.4221 -0.3528
  898MOL0     C23829   9.960   6.654   5.749 -0.8687 -0.5839 -0.5793
  898MOL0     C23830   9.984   6.684   5.599  0.3104  0.3197  0.3949
  898MOL0    Cl23831   9.879   6.825   5.562 -0.4573 -0.2031  0.0221
  898MOL0     C23832   9.435   6.366   6.433 -0.2363 -1.0187  0.7676
  898MOL0     C23833   9.405   6.325   6.561  0.7356  1.3936 -0.4353
  898MOL0     O23834   9.408   6.129   6.803 -0.4399 -0.0563 -0.3100
  898MOL0     C23835   9.436   6.361   7.063  0.5437 -0.2072 -0.7258
  898MOL0     C23836   9.427   6.378   7.195 -0.1289  0.0303  0.8344
  898MOL0     N23837   9.790   6.686   7.471  0.4429  0.6124  0.1552
  898MOL0     N23838   9.871   6.727   7.380  0.3475 -1.1305 -0.3920
  898MOL0     C23839   9.806   5.590   6.938 -0.4960  1.3300 -1.0157
  898MOL0     C23840   9.860   5.475   6.879 -0.2839  0.6044 -1.0571
  898MOL0     C23841  10.142   5.218   6.680  1.1597  0.1579  0.2570
  898MOL0     C23842  10.059   5.116   6.662 -0.1043  0.1280  0.7094
  898MOL0     C23843  10.116   4.985   6.636 -0.8467 -0.1682  0.6104
  898MOL0     C23844  10.245   4.960   6.591  0.2623  0.2867 -0.3496
  898MOL0     O23845  10.276   4.834   6.560 -0.8075 -0.5774 -0.6106
  898MOL0     C23846  10.418   4.812   6.564 -0.6493 -0.1055  0.2240
  898MOL0     C23847  10.455   4.673   6.503 -0.2650  0.2061  0.7542
  898MOL0     C23848  10.404   4.648   6.360 -0.7855  0.6160  0.1046
  898MOL0     C23849  10.435   4.502   6.307  0.3938  0.2092 -0.4984
  898MOL0     C23850  10.582   4.483   6.288  0.1838 -0.1917  0.1892
  898MOL0     C23851  10.700   4.468   6.265 -0.2994  1.0121 -0.5082
  898MOL0     C23852  10.330   5.079   6.602  0.5849  0.5182  0.3904
  898MOL0     C23853  10.278   5.208   6.649  0.2107 -0.1474  0.3229
  898MOL0     C23854  10.364   5.323   6.638 -0.3503  0.4637 -1.2799
  898MOL0     H23855   9.978   5.612   6.581 -1.0068  0.4516 -0.5377
  898MOL0     H23856   9.894   5.812   6.696  0.0287  0.5957  0.8779
  898MOL0     H23857   9.760   5.971   6.785  1.0824 -0.1144 -0.0863
  898MOL0     H23858   9.894   5.965   6.885 -0.2867  0.2766 -0.3390
  898MOL0     H23859   9.618   6.042   6.983  0.0443 -4.2890  2.4112
  898MOL0     H23860   9.769   6.041   7.084  2.5053  0.5499 -0.7142
  898MOL0     H23861   9.861   6.190   6.888  0.5896 -2.4907  0.5633
  898MOL0     H23862   9.687   6.240   6.878  0.9573  0.5225 -0.2127
  898MOL0     H23863   9.682   6.281   7.131  0.8349 -3.1198  1.0732
  898MOL0     H23864   9.849   6.278   7.142  0.7949  0.8615 -0.2907
  898MOL0     H23865   9.682   6.478   6.987  1.0186  1.0330 -3.7309
  898MOL0     H23866   9.826   6.437   6.916 -0.1969 -0.2168  0.0494
  898MOL0     H23867   9.841   6.646   7.070  1.3829  1.1958 -1.8821
  898MOL0     H23868   9.806   6.541   7.203 -0.5615  3.4859 -0.4474
  898MOL0     H23869  10.085   6.530   7.056  1.9438 -0.9933  1.9039
  898MOL0     H23870  10.031   6.416   7.174 -1.0186  0.2632  3.2044
  898MOL0     H23871  10.161   6.591   7.293  0.1409  0.7607  0.2693
  898MOL0     H23872  10.086   6.722   7.205 -1.4038 -0.3612 -2.0148
  898MOL0     H23873  10.009   6.432   7.457  1.5984  0.7132 -2.0021
  898MOL0     H23874   9.706   6.551   7.688  2.0265 -0.6863  2.2351
  898MOL0     H23875   9.857   6.462   7.697 -1.0882 -1.1932  2.2959
  898MOL0     H23876   9.771   6.291   7.537 -2.0539 -1.1509 -1.0459
  898MOL0     H23877   9.675   6.301   7.675  0.2411  0.2236 -0.9520
  898MOL0     H23878   9.533   6.470   7.542  1.1646 -0.0072  0.7537
  898MOL0     H23879   9.619   6.404   7.405  2.0936  2.0649  1.5973
  898MOL0     H23880   9.544   6.180   7.439 -1.9364 -2.0173  0.9082
  898MOL0     H23881   9.443   6.210   7.583 -2.3776 -1.8316 -1.5080
  898MOL0     H23882   9.303   6.074   7.278 -1.8776 -3.0857 -4.6001
  898MOL0     H23883   9.222   5.955   7.112  0.1314 -0.9710 -0.9576
  898MOL0     H23884   9.383   5.936   7.028 -1.8079 -1.8830 -1.2375
  898MOL0     H23885   9.248   5.994   6.944  0.4893 -6.0974 -1.3218
  898MOL0     H23886   9.703   6.404   6.706 -0.4259 -1.3649  0.7277
  898MOL0     H23887   9.763   6.433   6.466 -1.6348  0.9109 -4.4928
  898MOL0     H23888   9.674   6.547   6.136  2.3685  2.6719  0.8282
  898MOL0     H23889   9.734   6.567   6.302 -1.1661  2.7973 -1.9590
  898MOL0     H23890   9.836   6.333   6.274  0.8467  0.9470  1.6024
  898MOL0     H23891   9.787   6.338   6.099  0.6353 -1.1285  0.9880
  898MOL0     H23892  10.024   6.413   6.177  0.0122 -0.0209 -0.5196
  898MOL0     H23893   9.951   6.562   6.235 -1.6329  1.1669 -0.4571
  898MOL0     H23894   9.896   6.637   6.017 -3.5948 -0.2736  2.4810
  898MOL0     H23895   9.863   6.480   5.952 -0.1095 -0.9976  2.7882
  898MOL0     H23896  10.123   6.634   5.968 -1.5787 -0.4745  2.9481
  898MOL0     H23897  10.136   6.464   5.981 -0.0870  0.7635  1.5411
  898MOL0     H23898  10.020   6.434   5.771  3.9874 -1.3411 -1.1295
  898MOL0     H23899  10.152   6.536   5.741  0.3986 -1.3780  1.3475
  898MOL0     H23900   9.988   6.740   5.811  1.9310 -0.6482 -1.5815
  898MOL0     H23901   9.854   6.629   5.757 -1.5152  2.1712  0.9868
  898MOL0     H23902   9.967   6.592   5.542 -4.5510  0.3540  1.3781
  898MOL0     H23903  10.087   6.712   5.576  0.9983 -2.4205 -0.2988
  898MOL0     H23904   9.350   6.356   6.365 -0.1570 -1.9148  0.7866
  898MOL0     H23905   9.314   6.275   6.594  1.5853  0.4288  0.5162
  898MOL0     H23906   9.453   6.453   7.007 -0.4881 -0.3020 -1.2182
  898MOL0     H23907   9.451   6.477   7.232 -1.7799 -0.4268  3.4364
  898MOL0     H23908   9.764   5.573   7.036  3.6213 -3.5644  0.2785
  898MOL0     H23909   9.835   5.388   6.939 -0.4454  1.0004 -0.5407
  898MOL0     H23910   9.952   5.126   6.675 -0.3530  0.8425 -1.4405
  898MOL0     H23911  10.047   4.901   6.638  2.0419 -2.7234 -0.0029
  898MOL0     H23912  10.475   4.882   6.502  0.4338 -1.8097 -0.8101
  898MOL0     H23913  10.462   4.806   6.664  2.5336  1.8391 -0.9179
  898MOL0     H23914  10.412   4.604   6.577 -2.0750  2.1360  1.6352
  898MOL0     H23915  10.562   4.655   6.511 -0.5729 -1.6601  1.0719
  898MOL0     H23916  10.294   4.653   6.359 -0.7583  1.3794 -0.9284
  898MOL0     H23917  10.447   4.722   6.291 -0.4345  0.1545 -0.1779
  898MOL0     H23918  10.390   4.473   6.211  1.7862  1.4067 -1.5568
  898MOL0     H23919  10.408   4.426   6.381  1.1752  0.4181  0.0087
  898MOL0     H23920  10.798   4.437   6.235 -1.1898 -0.9639 -1.6124
  898MOL0     H23921  10.434   5.070   6.570  0.2113 -1.1283 -0.4946
  898MOL0     H23922  10.304   5.413   6.620  1.5529  2.3744  1.1280
  898MOL0     H23923  10.415   5.339   6.734 -1.0962 -0.4504 -0.7188
  898MOL0     H23924  10.433   5.320   6.553 -1.8241  0.8428 -2.5295
  899MOL0     O23925   4.548   9.808   1.301  0.6292 -0.2153 -0.5904
  899MOL0     C23926   4.613   9.704   1.302 -0.4418 -0.0747  0.8793
  899MOL0     O23927   4.754   9.698   1.283  0.4548 -0.0418  0.2270
  899MOL0     C23928   4.822   9.812   1.262 -0.0186  0.7588 -0.1849
  899MOL0     C23929   4.920   9.854   1.349  0.1602 -0.1682 -0.5193
  899MOL0     C23930   4.970   9.979   1.336 -0.0161  0.0605 -0.2335
  899MOL0     C23931   4.957  10.057   1.211  0.7132  0.1140 -0.9938
  899MOL0     O23932   5.049  10.156   1.164  0.3062 -0.4188  0.8287
  899MOL0     C23933   5.181  10.144   1.219  0.1916  0.1679 -0.0743
  899MOL0     C23934   5.291  10.213   1.140 -0.4213  0.2078 -0.6435
  899MOL0     C23935   5.259  10.370   1.126  0.7152 -0.2103  0.3931
  899MOL0     C23936   5.184  10.400   1.004  0.8809 -0.1648 -0.1202
  899MOL0     C23937   5.140  10.552   1.000 -0.0600 -0.1594 -0.6100
  899MOL0     C23938   4.991  10.565   1.036 -0.4582 -0.3153  0.2417
  899MOL0     C23939   4.955  10.711   1.014 -0.5655 -0.2960 -0.1189
  899MOL0     C23940   4.810  10.751   1.068 -0.0281 -0.3621 -0.0126
  899MOL0     N23941   4.793  10.894   1.063  0.0791 -0.3288 -0.6696
  899MOL0     C23942   4.778  10.960   0.946 -0.4909 -0.3424  0.1423
  899MOL0     C23943   4.772  11.089   0.988  0.3121 -0.1824  1.0142
  899MOL0     C23944   4.769  11.213   0.897 -0.6971 -0.1136  0.4139
  899MOL0     C23945   4.903  11.239   0.826  0.1400  0.4533 -0.1074
  899MOL0     C23946   4.956  11.130   0.720 -0.3049  0.7075  0.3207
  899MOL0     C23947   4.889  11.134   0.585  0.6012  0.3940  0.5976
  899MOL0     O23948   4.963  11.052   0.497 -0.2915 -0.1741 -0.0723
  899MOL0     C23949   4.947  11.073   0.359 -0.6441  0.2298  0.3254
  899MOL0     C23950   4.861  11.167   0.312  0.0275 -0.2998 -0.2210
  899MOL0     C23951   4.850  11.197   0.172 -0.7480 -0.1819 -0.1932
  899MOL0     C23952   4.748  11.299   0.132  0.2473  0.6728 -0.2398
  899MOL0     C23953   4.948  11.134   0.083 -0.0918 -0.0178  0.4748
  899MOL0     C23954   4.955  11.160  -0.069 -0.6365 -0.3863 -0.9546
  899MOL0     O23955   5.071  11.117  -0.130  0.0049 -0.0127 -0.2316
  899MOL0     C23956   5.090  11.144  -0.267  0.2729 -0.0586 -0.0218
  899MOL0     C23957   5.047  11.258  -0.343  0.4375 -0.0006  0.0271
  899MOL0     C23958   5.076  11.268  -0.481  0.4414 -1.4056 -0.2834
  899MOL0     C23959   5.143  11.158  -0.544  0.5727  1.4153  0.2877
  899MOL0     O23960   5.165  11.129  -0.679 -1.0929 -0.0171 -0.5238
  899MOL0     C23961   5.127  11.219  -0.783  0.5621  0.0615 -0.2624
  899MOL0     C23962   5.215  11.349  -0.799  0.0019  0.0560  0.2851
  899MOL0     C23963   5.189  11.416  -0.934 -0.6587 -0.7659  0.3753
  899MOL0     C23964   5.275  11.540  -0.924 -0.8436  0.2542  0.1009
  899MOL0     C23965   5.317  11.619  -1.057  0.6824  0.3915  0.7722
  899MOL0     C23966   5.384  11.756  -1.033 -0.5149 -0.6390 -0.3608
  899MOL0     C23967   5.471  11.796  -1.147 -0.7882 -0.8077 -0.4730
  899MOL0     C23968   5.495  11.947  -1.147 -0.0823  0.3151 -1.0716
  899MOL0    Cl23969   5.611  11.988  -1.270 -0.1219  0.2130  0.0692
  899MOL0     C23970   5.182  11.048  -0.460 -0.5145 -0.2544  0.5118
  899MOL0     C23971   5.152  11.044  -0.327 -0.3690 -0.0819  0.3361
  899MOL0     O23972   4.858  11.208  -0.122 -0.6352  0.1106 -0.0167
  899MOL0     C23973   5.021  11.028   0.137  0.5298  0.7440  0.2319
  899MOL0     C23974   5.015  10.989   0.272 -0.0968  0.2812 -0.0219
  899MOL0     N23975   4.779  11.100   1.128 -0.1101  0.8945 -0.6242
  899MOL0     N23976   4.795  10.981   1.174  0.1515 -0.5801  0.9203
  899MOL0     C23977   4.864  10.005   1.120  0.0094 -0.3495  0.1619
  899MOL0     C23978   4.801   9.886   1.145 -0.5226 -0.3063 -0.7194
  899MOL0     C23979   4.542   9.574   1.320  0.0649  0.3816  0.7384
  899MOL0     C23980   4.448   9.571   1.425  0.1125 -0.0069 -0.2671
  899MOL0     C23981   4.382   9.446   1.447  1.0786  0.7555  0.7753
  899MOL0     C23982   4.384   9.336   1.358 -0.1259 -0.0834  0.0123
  899MOL0     O23983   4.293   9.229   1.360 -0.0086  0.5082 -0.3556
  899MOL0     C23984   4.268   9.193   1.501 -0.6693 -0.3885  0.2911
  899MOL0     C23985   4.212   9.055   1.515  0.5569 -0.5905 -0.3766
  899MOL0     C23986   4.224   9.008   1.657 -0.0515  0.2509 -0.2871
  899MOL0     C23987   4.191   8.861   1.672  1.1470  0.5367  0.0892
  899MOL0     C23988   4.228   8.804   1.801  0.7299  0.3210 -0.2818
  899MOL0     C23989   4.254   8.749   1.908  0.3218  0.3837 -0.2001
  899MOL0     C23990   4.478   9.346   1.251  0.2459 -0.2028 -0.5048
  899MOL0     C23991   4.550   9.461   1.231  0.0221  0.5328  0.2105
  899MOL0     C23992   4.615   9.463   1.091 -1.0195 -0.4426 -0.2553
  899MOL0     H23993   4.951   9.783   1.425 -2.7429  0.0359  1.0138
  899MOL0     H23994   5.041  10.010   1.411  0.8021  1.2542 -1.4490
  899MOL0     H23995   5.195  10.036   1.223 -1.2413 -0.0462 -0.2379
  899MOL0     H23996   5.174  10.182   1.321  0.9008 -2.1665  0.8918
  899MOL0     H23997   5.389  10.204   1.188  0.2726 -0.5436 -2.1359
  899MOL0     H23998   5.304  10.173   1.040  4.4413 -0.5966  0.0371
  899MOL0     H23999   5.203  10.409   1.212 -3.2584 -2.3741 -0.9386
  899MOL0     H24000   5.360  10.410   1.120  1.4453 -1.9765  0.1865
  899MOL0     H24001   5.245  10.362   0.922 -1.1463 -3.5284 -0.2463
  899MOL0     H24002   5.082  10.360   0.993  0.7636  0.4968 -1.7753
  899MOL0     H24003   5.154  10.584   0.897  0.6124 -2.0921 -1.1650
  899MOL0     H24004   5.204  10.626   1.050 -3.6891  3.5008 -0.8373
  899MOL0     H24005   4.922  10.506   0.975  0.0714 -1.3460  0.6099
  899MOL0     H24006   4.970  10.532   1.139 -1.1133 -0.6305  0.0139
  899MOL0     H24007   4.954  10.749   0.911 -3.4731  3.7769  1.1496
  899MOL0     H24008   5.027  10.774   1.066 -0.3972 -1.2344  0.8072
  899MOL0     H24009   4.736  10.710   1.000 -0.4145  1.1885 -0.5625
  899MOL0     H24010   4.800  10.710   1.169  1.6675  0.1306  0.3981
  899MOL0     H24011   4.774  10.920   0.845 -2.9768  0.2826 -0.0817
  899MOL0     H24012   4.758  11.306   0.954  2.0472 -1.8807  4.1810
  899MOL0     H24013   4.693  11.209   0.818  1.4663 -0.9004 -1.7261
  899MOL0     H24014   4.905  11.339   0.782  2.0743  2.7024  4.5100
  899MOL0     H24015   4.978  11.245   0.904 -1.1483 -1.8789  1.4279
  899MOL0     H24016   5.060  11.154   0.695 -0.5495  0.7395 -0.7431
  899MOL0     H24017   4.946  11.028   0.755 -1.2900  0.4904 -0.5269
  899MOL0     H24018   4.784  11.104   0.589  0.2373  1.0119 -2.0937
  899MOL0     H24019   4.896  11.235   0.544  2.9686 -0.2687 -0.8593
  899MOL0     H24020   4.800  11.229   0.377  0.8737  1.4717 -1.0490
  899MOL0     H24021   4.786  11.377   0.066 -1.3738  1.3195 -0.4571
  899MOL0     H24022   4.705  11.351   0.218 -3.9104 -1.3878 -0.8272
  899MOL0     H24023   4.658  11.260   0.084  0.1534  2.3392 -1.5052
  899MOL0     H24024   5.002  11.333  -0.279  0.4121 -0.4584  0.5544
  899MOL0     H24025   5.043  11.350  -0.544 -1.7266 -0.8142  1.5049
  899MOL0     H24026   5.147  11.166  -0.876 -3.2990  2.7374 -2.9684
  899MOL0     H24027   5.018  11.229  -0.791  0.0786 -1.9904  2.2935
  899MOL0     H24028   5.177  11.417  -0.721 -1.7966 -0.9677  0.3502
  899MOL0     H24029   5.316  11.311  -0.783  0.0202  0.8247  2.3745
  899MOL0     H24030   5.087  11.448  -0.956 -0.8717  1.3185  3.7028
  899MOL0     H24031   5.225  11.342  -1.007  2.4797 -1.3328  2.3004
  899MOL0     H24032   5.368  11.502  -0.881 -1.6365 -0.1547  1.5069
  899MOL0     H24033   5.238  11.616  -0.855  0.3776  1.4973 -0.5628
  899MOL0     H24034   5.367  11.551  -1.127  0.0268 -2.5054  2.8833
  899MOL0     H24035   5.228  11.643  -1.117  0.1289 -3.1230 -0.0911
  899MOL0     H24036   5.446  11.743  -0.944  0.3362 -2.5726 -1.1648
  899MOL0     H24037   5.302  11.825  -1.009  1.0072  0.8333  0.7795
  899MOL0     H24038   5.422  11.763  -1.239 -1.4055 -2.3598  0.3611
  899MOL0     H24039   5.566  11.742  -1.138 -0.6776 -0.7562 -1.3004
  899MOL0     H24040   5.532  11.977  -1.049  1.8549  0.3966 -1.7820
  899MOL0     H24041   5.401  12.003  -1.147 -1.0327 -1.1994 -0.1551
  899MOL0     H24042   5.249  10.984  -0.517  2.3642  1.7061  1.4178
  899MOL0     H24043   5.183  10.954  -0.273  2.0632  1.2423  1.3226
  899MOL0     H24044   5.076  10.955   0.077 -1.7276 -1.8313  1.0610
  899MOL0     H24045   5.068  10.902   0.308 -2.1709 -1.2785 -0.5443
  899MOL0     H24046   4.856  10.058   1.026  1.2355  3.7598  2.1630
  899MOL0     H24047   4.742   9.840   1.066 -2.3481  1.5421 -0.5222
  899MOL0     H24048   4.432   9.655   1.491 -1.6831 -1.9976  2.0088
  899MOL0     H24049   4.305   9.443   1.524 -1.2221 -2.1239 -1.4074
  899MOL0     H24050   4.361   9.196   1.559  1.0207 -2.3637 -2.0481
  899MOL0     H24051   4.195   9.269   1.527 -0.1156 -0.1383  1.1416
  899MOL0     H24052   4.273   8.981   1.463  1.2138 -1.4180  1.4648
  899MOL0     H24053   4.104   9.048   1.496 -0.9349 -1.6790  5.8990
  899MOL0     H24054   4.327   9.014   1.691 -0.7175  0.0015  1.9034
  899MOL0     H24055   4.170   9.056   1.739  1.2061  0.7395  0.2724
  899MOL0     H24056   4.247   8.803   1.597 -2.8848 -4.2406  0.2224
  899MOL0     H24057   4.084   8.849   1.652  0.2637  2.7221  2.8680
  899MOL0     H24058   4.273   8.693   1.997  1.5017 -1.6738 -1.6621
  899MOL0     H24059   4.489   9.265   1.180  1.9328 -0.4721  0.0171
  899MOL0     H24060   4.635   9.569   1.074  1.5377 -0.9024 -0.6227
  899MOL0     H24061   4.716   9.422   1.090 -0.2022  1.2653 -3.5367
  899MOL0     H24062   4.546   9.420   1.018 -2.2096  3.9944 -2.1166
  900MOL0     O24063   1.121   3.256   8.316 -0.0767 -0.1342 -0.2193
  900MOL0     C24064   1.064   3.187   8.399  0.5024  0.0700  0.4755
  900MOL0     O24065   1.062   3.201   8.537 -0.7786  0.0898  0.0058
  900MOL0     C24066   1.108   3.318   8.595  0.0337 -0.1165  0.5468
  900MOL0     C24067   1.026   3.369   8.684  0.3139 -0.1794 -0.0824
  900MOL0     C24068   1.066   3.478   8.762 -0.2779 -0.5542  0.0938
  900MOL0     C24069   1.190   3.539   8.745  0.0390  0.8258 -0.4316
  900MOL0     O24070   1.219   3.642   8.821  0.7192 -0.4839 -0.0362
  900MOL0     C24071   1.312   3.740   8.754  0.0546  0.1511 -0.3770
  900MOL0     C24072   1.312   3.876   8.820  0.5632 -0.0126 -0.1211
  900MOL0     C24073   1.355   3.860   8.960  0.2237  0.4575  0.9331
  900MOL0     C24074   1.371   4.004   9.020  0.2621 -0.9892 -0.3182
  900MOL0     C24075   1.389   3.986   9.172  0.5627  0.1256 -1.0424
  900MOL0     C24076   1.377   4.119   9.250 -1.2060 -0.2056  0.1300
  900MOL0     C24077   1.385   4.087   9.396  0.8204  0.7101  0.1168
  900MOL0     C24078   1.395   4.202   9.494  0.3467 -0.7831  0.7136
  900MOL0     N24079   1.527   4.255   9.537  0.0529  0.2802 -0.0644
  900MOL0     C24080   1.569   4.384   9.533 -0.4574  0.2621 -0.5510
  900MOL0     C24081   1.693   4.381   9.591 -0.7767  1.1419 -0.5992
  900MOL0     C24082   1.757   4.513   9.619  0.4427  0.2251  0.2412
  900MOL0     C24083   1.884   4.521   9.702  0.2389  0.5212  0.5197
  900MOL0     C24084   1.954   4.654   9.690 -0.3044 -1.1395  0.5310
  900MOL0     C24085   1.887   4.762   9.786  0.0266 -0.1564  0.6230
  900MOL0     O24086   1.881   4.713   9.921 -0.0539 -0.1569  0.4411
  900MOL0     C24087   1.990   4.733  10.008  0.9637  1.2022  0.7306
  900MOL0     C24088   2.115   4.786   9.968 -0.4579 -0.5387  0.2581
  900MOL0     C24089   2.230   4.793  10.048  0.2041 -0.1529  0.5777
  900MOL0     C24090   2.343   4.880   9.986 -1.0869 -0.3295 -0.2485
  900MOL0     C24091   2.217   4.746  10.179  0.0542  0.3991  0.2075
  900MOL0     C24092   2.327   4.758  10.276 -0.8027  0.7412  0.8339
  900MOL0     O24093   2.304   4.710  10.405  0.5073  0.5046 -0.3710
  900MOL0     C24094   2.415   4.689  10.474 -0.2354 -0.2182 -0.9838
  900MOL0     C24095   2.487   4.568  10.469 -0.8882 -0.3250  0.8064
  900MOL0     C24096   2.613   4.565  10.519 -0.0548  0.1418 -0.8883
  900MOL0     C24097   2.672   4.677  10.590 -0.4962 -0.1679 -0.4819
  900MOL0     O24098   2.790   4.657  10.650 -0.1658 -0.0174 -0.7676
  900MOL0     C24099   2.778   4.542  10.737  0.3414 -0.0986  0.5171
  900MOL0     C24100   2.896   4.528  10.825  0.5488  0.9202  0.1126
  900MOL0     C24101   2.924   4.651  10.906  0.1331 -0.2340  0.3351
  900MOL0     C24102   2.987   4.630  11.044 -0.1920 -0.2546 -0.6271
  900MOL0     C24103   3.002   4.752  11.123 -0.6320 -0.3084  0.0089
  900MOL0     C24104   3.066   4.700  11.247 -0.2632  0.2510  0.1396
  900MOL0     C24105   3.073   4.812  11.355 -0.7237 -0.4028  0.2625
  900MOL0     C24106   3.154   4.778  11.477 -0.2958  0.3801 -0.4235
  900MOL0    Cl24107   3.069   4.639  11.560  0.3059  0.1195  0.1709
  900MOL0     C24108   2.596   4.792  10.606  0.1656 -0.7465  0.5927
  900MOL0     C24109   2.463   4.792  10.548 -0.2273 -0.3305 -1.0702
  900MOL0     O24110   2.439   4.810  10.238 -0.5730 -0.2585 -0.9862
  900MOL0     C24111   2.099   4.688  10.221 -0.4786  0.3432 -0.3700
  900MOL0     C24112   1.989   4.689  10.137 -0.1487  0.0401  0.1623
  900MOL0     N24113   1.726   4.253   9.623  0.3653  0.5017 -0.8422
  900MOL0     N24114   1.631   4.177   9.581  0.9517 -0.2454 -0.3233
  900MOL0     C24115   1.282   3.473   8.657  0.1638 -0.1541  0.1660
  900MOL0     C24116   1.240   3.367   8.574 -0.5000  0.7280  0.0352
  900MOL0     C24117   0.987   3.073   8.347 -0.2960 -0.3628 -0.0052
  900MOL0     C24118   0.950   3.083   8.214  0.1174 -0.5673  0.2764
  900MOL0     C24119   0.864   2.996   8.152  0.7065  0.4846 -0.5571
  900MOL0     C24120   0.821   2.883   8.217  0.0809 -0.1094 -0.1995
  900MOL0     O24121   0.737   2.805   8.150  1.4976 -0.0715  0.2033
  900MOL0     C24122   0.627   2.753   8.235 -0.0053  0.3697 -0.0363
  900MOL0     C24123   0.520   2.685   8.143  0.2103 -0.1153 -0.2412
  900MOL0     C24124   0.465   2.549   8.195  0.7071 -0.0751  0.0649
  900MOL0     C24125   0.555   2.429   8.156  0.7242 -0.0404  0.1808
  900MOL0     C24126   0.507   2.378   8.031  0.2355  0.2983  0.1185
  900MOL0     C24127   0.471   2.333   7.925  0.4475 -0.1445  0.7778
  900MOL0     C24128   0.859   2.870   8.358 -0.3346  0.4255 -0.7238
  900MOL0     C24129   0.934   2.966   8.420  0.0435  0.5319 -0.5996
  900MOL0     C24130   0.958   2.936   8.569  0.2242  0.4250  0.1888
  900MOL0     H24131   0.939   3.306   8.700  0.5173 -0.0777  1.6134
  900MOL0     H24132   0.994   3.517   8.833 -2.1041 -2.9759 -0.2758
  900MOL0     H24133   1.283   3.747   8.649 -1.7405 -3.9807 -0.3501
  900MOL0     H24134   1.413   3.696   8.757 -0.4636 -1.0491  0.8778
  900MOL0     H24135   1.383   3.945   8.774  4.1210 -4.1222 -1.5548
  900MOL0     H24136   1.214   3.923   8.808  0.3633 -0.5977 -0.8846
  900MOL0     H24137   1.280   3.807   9.019  2.3082 -1.6976  1.8584
  900MOL0     H24138   1.446   3.798   8.969  1.2027  1.3050 -2.1324
  900MOL0     H24139   1.449   4.066   8.975 -0.2688 -0.4555 -0.5207
  900MOL0     H24140   1.280   4.061   9.001  0.0200 -0.1190  2.9427
  900MOL0     H24141   1.486   3.937   9.180  0.7852  0.7502  0.2537
  900MOL0     H24142   1.306   3.929   9.214 -2.4134  3.6930 -1.4970
  900MOL0     H24143   1.454   4.187   9.213  0.3672 -1.5388  0.8620
  900MOL0     H24144   1.281   4.166   9.225 -0.1768  0.9774 -1.8958
  900MOL0     H24145   1.472   4.021   9.405 -1.6619 -2.8212  0.4763
  900MOL0     H24146   1.294   4.027   9.407  2.2727 -1.2962  1.9189
  900MOL0     H24147   1.324   4.280   9.465  0.8598 -0.3632  0.5670
  900MOL0     H24148   1.338   4.156   9.576 -2.9705 -0.4751 -1.2448
  900MOL0     H24149   1.511   4.473   9.511 -1.1549  0.1531  0.7191
  900MOL0     H24150   1.688   4.577   9.675  1.5181 -0.5813  2.6587
  900MOL0     H24151   1.764   4.570   9.526  0.6809  3.7144  2.2311
  900MOL0     H24152   1.851   4.500   9.804 -1.8102  2.0186  0.2371
  900MOL0     H24153   1.946   4.437   9.668 -0.9680  0.4610 -1.7594
  900MOL0     H24154   2.055   4.641   9.731 -0.5149 -0.8198  1.1614
  900MOL0     H24155   1.960   4.684   9.585  3.6066 -1.8142  0.3946
  900MOL0     H24156   1.942   4.856   9.778  0.8600 -0.7830 -1.7499
  900MOL0     H24157   1.789   4.794   9.749  0.6940  0.2623 -0.8472
  900MOL0     H24158   2.120   4.833   9.870 -0.0800  1.9931  1.4156
  900MOL0     H24159   2.380   4.949  10.062 -1.0138 -0.1619 -0.4356
  900MOL0     H24160   2.306   4.937   9.900  1.4696  0.8781 -0.6242
  900MOL0     H24161   2.432   4.829   9.947 -1.7457 -0.2834 -1.9142
  900MOL0     H24162   2.445   4.481  10.419 -2.9761  0.6089  0.8131
  900MOL0     H24163   2.666   4.471  10.505  0.6805  0.5490 -0.9063
  900MOL0     H24164   2.685   4.552  10.795  0.3886  1.3217  0.3618
  900MOL0     H24165   2.770   4.454  10.673 -0.3637 -0.5278  1.1719
  900MOL0     H24166   2.862   4.447  10.890 -0.9596  1.7071  0.3584
  900MOL0     H24167   2.985   4.507  10.765 -0.7832 -1.0351 -1.3017
  900MOL0     H24168   2.828   4.701  10.920  0.7819  0.9316  0.7450
  900MOL0     H24169   2.988   4.721  10.851  0.8560 -0.3905  0.9633
  900MOL0     H24170   3.083   4.577  11.039  0.4568  0.6767  0.9944
  900MOL0     H24171   2.910   4.564  11.085 -2.0256  0.5843 -2.5886
  900MOL0     H24172   3.069   4.821  11.070 -1.7183  0.9566  0.2373
  900MOL0     H24173   2.906   4.798  11.146  0.4284  3.1199 -1.6672
  900MOL0     H24174   3.172   4.677  11.234 -0.3765 -0.0218 -0.2924
  900MOL0     H24175   3.025   4.607  11.289  1.3728 -0.6287 -0.1326
  900MOL0     H24176   2.973   4.837  11.391  0.3428  0.7453  2.6499
  900MOL0     H24177   3.118   4.904  11.316  0.7553 -1.6821 -1.1837
  900MOL0     H24178   3.152   4.864  11.545  1.8145  0.8092 -0.8142
  900MOL0     H24179   3.259   4.758  11.453 -0.7270 -0.3554 -1.7928
  900MOL0     H24180   2.634   4.884  10.650 -1.7869  0.8313 -0.8368
  900MOL0     H24181   2.409   4.886  10.556  0.6601  0.0628  0.8396
  900MOL0     H24182   2.089   4.651  10.322  4.1690  0.0685  0.1960
  900MOL0     H24183   1.895   4.650  10.175 -0.4775 -0.1136 -0.7585
  900MOL0     H24184   1.382   3.516   8.657 -1.0679  3.0284  0.7947
  900MOL0     H24185   1.297   3.315   8.497  2.1317  0.2107  2.1578
  900MOL0     H24186   0.988   3.164   8.152  2.7577 -3.0420 -1.6474
  900MOL0     H24187   0.826   3.014   8.052 -1.7342  0.5264  0.3103
  900MOL0     H24188   0.665   2.688   8.314 -1.1266  1.6023  1.5810
  900MOL0     H24189   0.571   2.827   8.294 -0.3906 -1.7013  2.3754
  900MOL0     H24190   0.557   2.659   8.044 -0.9435 -1.1474 -0.4293
  900MOL0     H24191   0.436   2.756   8.143  0.2226 -0.0779 -1.5638
  900MOL0     H24192   0.464   2.556   8.305  1.4333  0.3209  0.0531
  900MOL0     H24193   0.359   2.530   8.174  0.4745 -0.9097  1.8108
  900MOL0     H24194   0.530   2.351   8.229 -2.8263 -1.3667 -2.1958
  900MOL0     H24195   0.662   2.451   8.156  0.7466 -0.1354  0.4745
  900MOL0     H24196   0.438   2.291   7.832  1.9929 -1.0973  0.6224
  900MOL0     H24197   0.824   2.791   8.424  0.8153  1.4326  1.1746
  900MOL0     H24198   0.926   2.833   8.590  0.1155 -0.0196 -1.9081
  900MOL0     H24199   1.066   2.945   8.583  0.4636  3.0419 -2.4318
  900MOL0     H24200   0.908   2.998   8.643 -1.7571 -0.4504 -0.3616
  901MOL0     O24201   3.375  10.814   1.295  0.9072  0.2825  1.1270
  901MOL0     C24202   3.363  10.933   1.294  0.6710 -0.3217 -0.4006
  901MOL0     O24203   3.248  10.995   1.329 -0.0773  0.1671 -0.3596
  901MOL0     C24204   3.139  10.912   1.349  0.0363  0.1148  0.1377
  901MOL0     C24205   3.070  10.909   1.467  0.6558 -0.7543 -0.8569
  901MOL0     C24206   2.954  10.827   1.486 -0.2979 -0.2184 -1.3049
  901MOL0     C24207   2.926  10.738   1.392  0.8958  0.2638 -0.6680
  901MOL0     O24208   2.834  10.639   1.413 -0.2490 -0.2105 -0.0058
  901MOL0     C24209   2.758  10.609   1.539 -0.4688  0.6107  0.7722
  901MOL0     C24210   2.658  10.491   1.530  0.3353 -0.5824  0.2249
  901MOL0     C24211   2.719  10.362   1.482  0.1438 -0.6997  0.4660
  901MOL0     C24212   2.835  10.320   1.579 -0.5092 -0.0294 -0.8013
  901MOL0     C24213   2.877  10.170   1.551  0.9117 -0.0836 -0.0284
  901MOL0     C24214   2.796  10.084   1.651  0.5889 -0.1549 -0.6902
  901MOL0     C24215   2.796   9.930   1.625 -0.2931 -0.0020 -0.6660
  901MOL0     C24216   2.733   9.892   1.499 -0.1537  1.1077 -0.1231
  901MOL0     N24217   2.588   9.922   1.493 -0.2899  0.5357 -0.1291
  901MOL0     C24218   2.487   9.853   1.562 -0.1797 -0.4508 -0.9491
  901MOL0     C24219   2.373   9.917   1.541  0.1306  0.0241 -0.2442
  901MOL0     C24220   2.244   9.871   1.608  0.3791  0.6397  0.8439
  901MOL0     C24221   2.214   9.728   1.567  0.0061  0.6878  1.0818
  901MOL0     C24222   2.078   9.683   1.631 -0.0575  0.3617  0.8917
  901MOL0     C24223   1.965   9.777   1.595 -0.1561 -0.8401 -0.7607
  901MOL0     O24224   1.953   9.796   1.454 -0.2653 -0.0180 -0.0623
  901MOL0     C24225   1.840   9.862   1.423  0.5523  0.4575  0.1432
  901MOL0     C24226   1.716   9.796   1.424 -0.0647 -0.1187  0.5427
  901MOL0     C24227   1.596   9.862   1.396 -0.3185  0.2851  0.6027
  901MOL0     C24228   1.465   9.783   1.405  0.4197  0.1521 -0.4142
  901MOL0     C24229   1.605   9.997   1.361 -0.2136 -0.1874  0.1768
  901MOL0     C24230   1.474  10.078   1.337  0.4500  0.2456  0.6289
  901MOL0     O24231   1.469  10.197   1.394  0.3949 -0.1356 -0.2518
  901MOL0     C24232   1.369  10.293   1.357 -0.2324  0.6283 -0.3316
  901MOL0     C24233   1.232  10.272   1.378  0.7551 -0.3736 -0.0013
  901MOL0     C24234   1.139  10.373   1.336  0.3970 -0.4016  0.2009
  901MOL0     C24235   1.180  10.489   1.269  0.3557 -0.4542 -0.6720
  901MOL0     O24236   1.086  10.587   1.229 -0.3684 -0.4967  0.8762
  901MOL0     C24237   1.111  10.719   1.280 -1.1169 -0.1218 -0.2293
  901MOL0     C24238   1.082  10.722   1.429  0.0661 -0.8523 -0.4102
  901MOL0     C24239   0.933  10.679   1.454  0.7045  0.0239 -0.0095
  901MOL0     C24240   0.886  10.686   1.609 -0.4238 -0.7269 -1.0931
  901MOL0     C24241   0.869  10.832   1.647  0.0327 -0.8248  0.2187
  901MOL0     C24242   0.850  10.846   1.802  0.1026  0.9331  0.3729
  901MOL0     C24243   0.804  10.981   1.859 -0.3524  0.1798 -0.2572
  901MOL0     C24244   0.841  11.011   2.013 -0.4302  0.4184  0.5978
  901MOL0    Cl24245   0.811  10.873   2.120  0.0763 -0.6820 -0.2951
  901MOL0     C24246   1.320  10.501   1.247 -0.2436 -0.1307 -0.3260
  901MOL0     C24247   1.411  10.409   1.298 -0.1933  0.6231 -0.1671
  901MOL0     O24248   1.381  10.024   1.275 -0.2759 -0.5003 -0.1993
  901MOL0     C24249   1.728  10.066   1.347  0.8127  0.5179  1.4487
  901MOL0     C24250   1.843   9.991   1.380  0.3953 -0.5989 -0.2352
  901MOL0     N24251   2.400  10.013   1.440  0.2660  0.4041  0.8518
  901MOL0     N24252   2.525  10.022   1.427 -0.8330  0.3845 -0.0057
  901MOL0     C24253   2.987  10.742   1.264  0.9638 -0.6583  0.2937
  901MOL0     C24254   3.086  10.843   1.236 -0.0603  0.2045  0.2112
  901MOL0     C24255   3.480  11.021   1.249 -0.0929  0.2666  0.2043
  901MOL0     C24256   3.501  11.150   1.300 -0.5044  0.7524 -1.0706
  901MOL0     C24257   3.614  11.227   1.254  0.3205  0.3014 -0.2603
  901MOL0     C24258   3.707  11.169   1.167  0.3119  0.0231 -0.5936
  901MOL0     O24259   3.817  11.242   1.142  0.4174 -0.3844  0.8980
  901MOL0     C24260   3.923  11.180   1.065  0.4694 -0.1042  0.1884
  901MOL0     C24261   4.036  11.283   1.041  0.4074  0.0594  0.5947
  901MOL0     C24262   3.995  11.428   1.002 -0.3148 -0.2825 -0.1590
  901MOL0     C24263   3.883  11.438   0.893  0.2179 -0.4398 -0.2017
  901MOL0     C24264   3.925  11.382   0.763  0.6480 -0.3609 -0.2591
  901MOL0     C24265   3.953  11.314   0.665 -0.1530  0.3928 -0.2625
  901MOL0     C24266   3.677  11.047   1.113  0.6639  0.4334  0.6687
  901MOL0     C24267   3.562  10.971   1.146 -1.1581 -0.3195  0.4699
  901MOL0     C24268   3.554  10.838   1.065 -0.0438  0.2582 -0.1946
  901MOL0     H24269   3.108  10.958   1.556 -1.3107 -1.8438  0.6588
  901MOL0     H24270   2.904  10.828   1.583  1.2435 -2.3581 -0.4080
  901MOL0     H24271   2.702  10.702   1.551 -1.9917  0.5009 -3.5420
  901MOL0     H24272   2.838  10.600   1.613  3.2742 -2.9852 -3.0937
  901MOL0     H24273   2.605  10.476   1.625 -1.8571 -1.8753 -1.1204
  901MOL0     H24274   2.579  10.514   1.458 -2.0218 -2.4977  2.0207
  901MOL0     H24275   2.637  10.289   1.492 -1.6224  1.1501  0.2794
  901MOL0     H24276   2.744  10.376   1.377 -0.3629 -0.2233  0.3994
  901MOL0     H24277   2.918  10.387   1.555 -1.8703  2.7225  1.5507
  901MOL0     H24278   2.810  10.332   1.685 -0.2020 -0.9445 -0.6125
  901MOL0     H24279   2.984  10.158   1.564  0.9745 -1.6744 -1.6409
  901MOL0     H24280   2.857  10.151   1.445 -0.0688  1.0218 -0.0665
  901MOL0     H24281   2.840  10.101   1.749 -0.4583  1.0219 -0.4114
  901MOL0     H24282   2.693  10.119   1.651  0.6310  0.1373 -2.8352
  901MOL0     H24283   2.737   9.877   1.701 -2.4454  0.1134 -2.1817
  901MOL0     H24284   2.900   9.895   1.627 -0.0982  0.5713  0.5356
  901MOL0     H24285   2.783   9.948   1.419  0.3859  0.0924 -0.5073
  901MOL0     H24286   2.727   9.784   1.487 -0.4134  0.8866  1.7810
  901MOL0     H24287   2.524   9.785   1.638  4.6761  4.0398  1.3131
  901MOL0     H24288   2.165   9.943   1.585 -0.7153  0.1065  2.7774
  901MOL0     H24289   2.234   9.873   1.717 -3.0857  0.7132  0.6326
  901MOL0     H24290   2.214   9.722   1.457 -0.5114  1.5132  1.0268
  901MOL0     H24291   2.290   9.660   1.606 -0.4055 -1.5543 -1.6790
  901MOL0     H24292   2.057   9.580   1.602 -0.9529  1.1301 -1.4450
  901MOL0     H24293   2.100   9.676   1.738 -0.0233 -1.5759  0.7898
  901MOL0     H24294   1.879   9.726   1.640  0.5185 -0.7086  0.7380
  901MOL0     H24295   1.974   9.871   1.650  2.2840 -0.7278 -1.2117
  901MOL0     H24296   1.720   9.692   1.454  0.3291  0.4993  2.8429
  901MOL0     H24297   1.465   9.687   1.457 -3.3292  1.3028  2.0896
  901MOL0     H24298   1.442   9.752   1.303  0.2894  1.3210 -0.7635
  901MOL0     H24299   1.382   9.841   1.448 -0.1644  0.2304 -1.6001
  901MOL0     H24300   1.207  10.179   1.427  3.1529 -0.3736  1.3655
  901MOL0     H24301   1.034  10.345   1.339  0.6760 -1.4075  1.6094
  901MOL0     H24302   1.218  10.740   1.281 -1.3371  0.9986  0.9844
  901MOL0     H24303   1.050  10.789   1.222 -1.8381 -0.5457 -0.0029
  901MOL0     H24304   1.152  10.659   1.485  1.6433 -0.0481 -1.4126
  901MOL0     H24305   1.090  10.826   1.460  1.3130 -1.6085  2.1460
  901MOL0     H24306   0.937  10.570   1.438  0.8761 -0.0915  0.7505
  901MOL0     H24307   0.858  10.725   1.390 -0.8839  2.5268  3.3603
  901MOL0     H24308   0.962  10.636   1.670  0.3960 -0.5609 -1.9402
  901MOL0     H24309   0.795  10.632   1.635  1.0503 -2.7043  0.2523
  901MOL0     H24310   0.960  10.881   1.613 -0.0614 -0.0708  1.0344
  901MOL0     H24311   0.789  10.882   1.593  1.7749  1.6772 -0.1952
  901MOL0     H24312   0.943  10.816   1.851 -2.1394 -2.4615  3.0837
  901MOL0     H24313   0.775  10.773   1.835  1.1425 -0.1370  0.4629
  901MOL0     H24314   0.696  10.988   1.846 -0.0920  2.1138 -1.7343
  901MOL0     H24315   0.853  11.055   1.795  2.4789 -1.2436  0.0993
  901MOL0     H24316   0.767  11.086   2.044 -0.5826  0.4574  0.1516
  901MOL0     H24317   0.947  11.035   2.024 -0.3473  0.3728 -0.0681
  901MOL0     H24318   1.351  10.584   1.183  1.0444 -1.7938 -1.9823
  901MOL0     H24319   1.517  10.424   1.278 -0.2446  0.6651 -0.4173
  901MOL0     H24320   1.738  10.170   1.318  0.9890  0.9145  2.8690
  901MOL0     H24321   1.932  10.054   1.383  0.6607 -0.9624  2.9439
  901MOL0     H24322   2.948  10.682   1.182  2.5396 -2.9911  1.1485
  901MOL0     H24323   3.126  10.853   1.135  1.6911  0.5113  0.9006
  901MOL0     H24324   3.444  11.186   1.385  3.0987  0.7685  1.5685
  901MOL0     H24325   3.642  11.324   1.294 -1.5537  0.9285 -0.3758
  901MOL0     H24326   3.968  11.102   1.126 -0.7211  1.2839  3.0033
  901MOL0     H24327   3.892  11.144   0.966  1.2985  1.8278 -0.8243
  901MOL0     H24328   4.098  11.258   0.954 -0.6103 -1.1446  0.1820
  901MOL0     H24329   4.097  11.267   1.130 -0.4092 -2.8853  0.7421
  901MOL0     H24330   3.948  11.469   1.092 -2.4386 -4.6968  1.0758
  901MOL0     H24331   4.080  11.482   0.960 -1.4544  0.0389 -2.1658
  901MOL0     H24332   3.874  11.544   0.867  1.1126 -0.9660 -2.9603
  901MOL0     H24333   3.782  11.407   0.921 -0.1691  0.2954 -0.7302
  901MOL0     H24334   3.976  11.243   0.589  2.2949 -3.2608  3.4250
  901MOL0     H24335   3.743  11.004   1.038  1.1292 -0.2744  1.4628
  901MOL0     H24336   3.446  10.823   1.052 -0.0261 -1.0849  1.0051
  901MOL0     H24337   3.589  10.832   0.961  2.0476 -1.3938  0.5457
  901MOL0     H24338   3.600  10.757   1.122  3.2280  3.4632  2.1431
  902MOL0     O24339  10.771   4.141   1.695  1.1077  0.0848 -0.7044
  902MOL0     C24340  10.757   4.029   1.751  0.5929  1.0929 -0.1389
  902MOL0     O24341  10.654   3.933   1.726 -0.2152  0.1503  0.2768
  902MOL0     C24342  10.536   3.986   1.680  0.4064 -0.4133  0.7331
  902MOL0     C24343  10.422   3.947   1.745 -0.0957 -0.6919 -0.0422
  902MOL0     C24344  10.297   3.974   1.686  0.3910 -1.0991 -0.8957
  902MOL0     C24345  10.277   4.038   1.562  0.1327  0.4795 -0.0717
  902MOL0     O24346  10.158   4.052   1.493 -0.6055 -0.0164 -0.0680
  902MOL0     C24347  10.109   3.932   1.440 -0.1928  0.1281  0.2099
  902MOL0     C24348   9.969   3.961   1.396  0.0037 -0.2237 -0.7448
  902MOL0     C24349   9.883   4.028   1.511 -0.3623  0.2110 -0.8334
  902MOL0     C24350   9.736   4.041   1.481 -0.6304 -0.5600  0.2910
  902MOL0     C24351   9.658   4.136   1.572 -0.8504  0.2621 -1.3815
  902MOL0     C24352   9.509   4.131   1.556  0.2814  0.1199  0.0989
  902MOL0     C24353   9.435   4.119   1.690 -0.4998  0.0213  0.6175
  902MOL0     C24354   9.283   4.146   1.686  0.1757 -0.2329  0.5274
  902MOL0     N24355   9.227   4.154   1.821  0.5907 -0.3860 -0.2642
  902MOL0     C24356   9.220   4.261   1.903 -0.1070 -0.5098 -0.3155
  902MOL0     C24357   9.145   4.233   2.012 -0.3811 -0.1991  0.2435
  902MOL0     C24358   9.116   4.317   2.135 -0.5602 -0.2141 -1.0148
  902MOL0     C24359   8.964   4.313   2.155  0.1660  0.3807 -0.4061
  902MOL0     C24360   8.915   4.377   2.280  0.1874  0.4082 -0.7595
  902MOL0     C24361   8.775   4.322   2.302  0.6224  0.0864 -0.2359
  902MOL0     O24362   8.728   4.372   2.429  0.3469  0.2705  0.4795
  902MOL0     C24363   8.643   4.478   2.417  1.3277 -0.4240 -0.0636
  902MOL0     C24364   8.505   4.448   2.399  0.7215  0.6873 -1.7497
  902MOL0     C24365   8.411   4.545   2.366 -0.0121 -0.0602  0.4314
  902MOL0     C24366   8.271   4.510   2.318 -0.5075  0.3837  0.1285
  902MOL0     C24367   8.441   4.686   2.366  0.8875 -0.2462 -0.1367
  902MOL0     C24368   8.352   4.800   2.342 -0.7068  0.4180  0.1041
  902MOL0     O24369   8.406   4.916   2.291 -0.1778  0.2835 -1.0986
  902MOL0     C24370   8.322   5.033   2.290 -0.9103  0.0381  0.5905
  902MOL0     C24371   8.247   5.075   2.400 -0.2232  0.1292 -0.3830
  902MOL0     C24372   8.188   5.199   2.393  0.4588  0.6785 -0.4033
  902MOL0     C24373   8.190   5.283   2.284 -0.4721 -0.9538  0.5134
  902MOL0     O24374   8.127   5.404   2.274  0.2702  0.2590 -1.1618
  902MOL0     C24375   8.180   5.510   2.353  0.7719  0.4297  0.4466
  902MOL0     C24376   8.081   5.596   2.443  0.1321 -0.0118 -0.0128
  902MOL0     C24377   7.969   5.655   2.368  0.3655 -0.5109  0.0922
  902MOL0     C24378   7.896   5.747   2.450  0.3724 -0.9095 -1.2724
  902MOL0     C24379   7.809   5.834   2.369 -0.0074  0.3368  0.1768
  902MOL0     C24380   7.750   5.924   2.473 -0.0949  0.6520  0.5660
  902MOL0     C24381   7.649   6.015   2.399  0.1470 -0.9732  0.6255
  902MOL0     C24382   7.588   6.124   2.482 -0.0049 -0.9101  0.8189
  902MOL0    Cl24383   7.650   6.284   2.465  0.1435 -0.1652  0.1038
  902MOL0     C24384   8.256   5.242   2.169  0.0714  0.1706  0.2975
  902MOL0     C24385   8.320   5.120   2.175 -0.4005 -0.1756  0.3756
  902MOL0     O24386   8.235   4.784   2.392 -0.9068 -0.3982  0.3843
  902MOL0     C24387   8.574   4.716   2.398  0.8729  0.3950  0.3525
  902MOL0     C24388   8.672   4.615   2.416  0.1288  0.6777 -0.3137
  902MOL0     N24389   9.112   4.103   1.997  0.0457  0.1264  0.2539
  902MOL0     N24390   9.164   4.055   1.895  1.0665 -0.0717  0.8581
  902MOL0     C24391  10.398   4.077   1.496  0.5686 -0.4576 -0.0847
  902MOL0     C24392  10.521   4.051   1.551  0.4751  0.0406 -0.3121
  902MOL0     C24393  10.838   4.022   1.878  0.3623 -0.4659  0.4661
  902MOL0     C24394  10.784   3.944   1.974  0.1406  0.7271 -0.6263
  902MOL0     C24395  10.852   3.937   2.102  0.1776 -0.2805 -0.5245
  902MOL0     C24396  10.970   3.999   2.129  0.0128 -0.5710  0.8364
  902MOL0     O24397  11.027   3.976   2.252 -0.0447  0.1062 -0.0965
  902MOL0     C24398  11.166   3.961   2.258 -0.1582  0.4946  0.2669
  902MOL0     C24399  11.206   3.852   2.361  0.4767 -0.3911 -0.0666
  902MOL0     C24400  11.361   3.812   2.348 -0.4458  0.1290  0.1663
  902MOL0     C24401  11.383   3.731   2.476 -0.1565  0.8114  0.6685
  902MOL0     C24402  11.361   3.593   2.445  0.0737  0.3325 -0.0815
  902MOL0     C24403  11.346   3.486   2.391 -0.5633  0.0218  0.2172
  902MOL0     C24404  11.025   4.076   2.022 -0.0954  0.2114  0.1395
  902MOL0     C24405  10.961   4.088   1.899  0.1176 -0.8432 -0.0322
  902MOL0     C24406  11.034   4.148   1.782 -0.4621 -0.2731 -0.3259
  902MOL0     H24407  10.437   3.880   1.829 -0.1035 -0.1459  0.4020
  902MOL0     H24408  10.199   3.952   1.728 -0.1313  0.8899 -0.9634
  902MOL0     H24409  10.106   3.855   1.518  0.5488  0.8446  0.9553
  902MOL0     H24410  10.172   3.897   1.357 -1.7601 -3.4732  0.3371
  902MOL0     H24411   9.979   4.038   1.319  1.0847  2.1597  1.6233
  902MOL0     H24412   9.926   3.874   1.345 -2.4552  0.1823  0.4998
  902MOL0     H24413   9.894   3.974   1.606  0.2286  1.1080 -0.3719
  902MOL0     H24414   9.926   4.121   1.549 -1.9944  1.0625 -1.0113
  902MOL0     H24415   9.734   4.079   1.378 -1.2987  0.8096  0.7769
  902MOL0     H24416   9.688   3.943   1.483  0.8812 -1.3054  1.2124
  902MOL0     H24417   9.689   4.237   1.545 -1.0281  0.0969 -2.2374
  902MOL0     H24418   9.677   4.118   1.678 -0.4747 -1.8477 -1.7473
  902MOL0     H24419   9.471   4.222   1.508  1.5394  0.4724 -0.2623
  902MOL0     H24420   9.486   4.043   1.495 -2.8147  3.1843 -3.7034
  902MOL0     H24421   9.483   4.187   1.761  2.7290 -1.3152 -0.0855
  902MOL0     H24422   9.453   4.018   1.730 -1.7955  0.6893  3.1079
  902MOL0     H24423   9.254   4.237   1.632 -2.9393 -1.1728  0.4288
  902MOL0     H24424   9.237   4.067   1.627 -1.3769  2.0546 -1.5397
  902MOL0     H24425   9.277   4.352   1.883 -1.3550 -0.1717 -2.7811
  902MOL0     H24426   9.144   4.422   2.120  1.8144 -0.7910 -1.0239
  902MOL0     H24427   9.177   4.282   2.219  0.9840  0.6768 -1.7375
  902MOL0     H24428   8.922   4.364   2.068 -0.9961 -0.6888 -0.4949
  902MOL0     H24429   8.946   4.205   2.157 -4.1844  0.9665  0.6972
  902MOL0     H24430   8.977   4.356   2.367 -0.3155 -1.8419 -0.8786
  902MOL0     H24431   8.902   4.485   2.270 -1.5537  0.1484 -1.9736
  902MOL0     H24432   8.702   4.326   2.220  0.4526 -0.1218 -0.0950
  902MOL0     H24433   8.794   4.216   2.320  2.9637  0.7793  1.9134
  902MOL0     H24434   8.479   4.343   2.388 -2.4280  1.4232 -2.3021
  902MOL0     H24435   8.244   4.557   2.224  2.0357  2.7817  0.4614
  902MOL0     H24436   8.200   4.549   2.392 -0.0113  5.2555 -1.6369
  902MOL0     H24437   8.249   4.405   2.296  3.6223 -0.4016 -1.0677
  902MOL0     H24438   8.230   5.004   2.481 -1.7495 -1.8034 -2.2662
  902MOL0     H24439   8.122   5.223   2.476 -0.4447 -1.2466 -0.5165
  902MOL0     H24440   8.262   5.478   2.418  0.1321  1.0469  1.5908
  902MOL0     H24441   8.233   5.565   2.275 -0.2917 -0.9830 -1.3720
  902MOL0     H24442   8.045   5.539   2.529  2.9226 -0.1271  1.1829
  902MOL0     H24443   8.137   5.679   2.486 -2.0174  0.7031  1.5888
  902MOL0     H24444   7.894   5.580   2.341 -1.1068  0.3528  1.5833
  902MOL0     H24445   8.005   5.702   2.277  0.5042  0.4757  0.6397
  902MOL0     H24446   7.970   5.808   2.504 -2.1661 -0.1557  1.6925
  902MOL0     H24447   7.838   5.691   2.524  0.5789  1.2577  0.6645
  902MOL0     H24448   7.863   5.885   2.289  1.6045  1.0805  1.6802
  902MOL0     H24449   7.729   5.770   2.330  0.4586  0.2401 -0.6368
  902MOL0     H24450   7.832   5.990   2.505 -0.8051  1.2337  1.2328
  902MOL0     H24451   7.702   5.873   2.557 -1.7498  2.2394  0.6527
  902MOL0     H24452   7.566   5.953   2.364  0.3901 -1.0799  0.2380
  902MOL0     H24453   7.697   6.051   2.308  0.7674 -0.4606  1.1486
  902MOL0     H24454   7.610   6.099   2.586  3.4062 -0.2656  0.3719
  902MOL0     H24455   7.480   6.135   2.467  0.3149  1.3634 -0.3922
  902MOL0     H24456   8.247   5.287   2.071 -1.2317  0.4973  0.5502
  902MOL0     H24457   8.377   5.080   2.091 -2.2348  0.1752 -1.0907
  902MOL0     H24458   8.612   4.816   2.411  1.1762  0.4954 -1.0937
  902MOL0     H24459   8.777   4.642   2.427  0.8072 -1.0956 -1.8581
  902MOL0     H24460  10.383   4.136   1.406 -2.4550 -2.0738 -0.7679
  902MOL0     H24461  10.613   4.069   1.496  0.6056 -1.2330 -0.5624
  902MOL0     H24462  10.686   3.898   1.972 -1.1881  3.3351  0.2381
  902MOL0     H24463  10.793   3.893   2.181 -2.4189  4.0590  0.2636
  902MOL0     H24464  11.216   3.953   2.161 -0.8311  2.7291 -0.3405
  902MOL0     H24465  11.203   4.054   2.302  0.8062  0.6481 -0.8178
  902MOL0     H24466  11.156   3.757   2.343 -0.2039 -0.2311  0.9042
  902MOL0     H24467  11.170   3.897   2.454 -1.3327  2.1904 -1.8716
  902MOL0     H24468  11.393   3.754   2.261 -1.9344 -0.4215 -0.0458
  902MOL0     H24469  11.423   3.902   2.352 -2.3848  1.5437 -0.1043
  902MOL0     H24470  11.308   3.758   2.551  0.2451  2.4031  0.5304
  902MOL0     H24471  11.488   3.734   2.506  0.3108  0.1440 -0.8202
  902MOL0     H24472  11.332   3.394   2.338  2.7469  0.0524 -0.9435
  902MOL0     H24473  11.122   4.124   2.030 -0.2443  0.4093  0.8552
  902MOL0     H24474  11.038   4.087   1.691 -0.3962 -0.9733  0.1462
  902MOL0     H24475  10.981   4.236   1.744 -0.3892 -0.6697 -1.3861
  902MOL0     H24476  11.136   4.181   1.803 -1.4027  2.4314  0.4768
  903MOL0     O24477   1.725   3.323   1.142 -0.7892 -0.0244 -0.1620
  903MOL0     C24478   1.759   3.210   1.105  0.3031 -0.5565 -1.0864
  903MOL0     O24479   1.871   3.182   1.041  0.1358 -0.9781 -0.1501
  903MOL0     C24480   1.951   3.291   1.011  0.7606  0.4878  0.1600
  903MOL0     C24481   1.978   3.316   0.874 -0.1010  0.1434  0.6775
  903MOL0     C24482   2.072   3.416   0.840  0.9682 -0.4035  0.7332
  903MOL0     C24483   2.130   3.484   0.939 -1.2542  0.5619 -0.7644
  903MOL0     O24484   2.211   3.586   0.884 -0.1825 -0.2130  0.3635
  903MOL0     C24485   2.346   3.552   0.888 -0.9798  0.4338 -0.4335
  903MOL0     C24486   2.444   3.622   0.799 -0.0766 -0.7316  0.2332
  903MOL0     C24487   2.587   3.609   0.855 -0.8131  0.7467 -0.2763
  903MOL0     C24488   2.700   3.622   0.751 -0.8974  0.8981 -0.3680
  903MOL0     C24489   2.706   3.494   0.670 -0.2466  0.4013  1.1828
  903MOL0     C24490   2.769   3.500   0.540 -0.1237  0.4365  0.4473
  903MOL0     C24491   2.769   3.369   0.452  0.5492  1.2485  0.9981
  903MOL0     C24492   2.829   3.386   0.308  0.1378  0.5262  0.7800
  903MOL0     N24493   2.797   3.272   0.227  0.3472  0.3787 -0.1029
  903MOL0     C24494   2.678   3.282   0.152  0.7559 -1.1695  0.1517
  903MOL0     C24495   2.705   3.190   0.063 -0.3947  0.4951 -0.2381
  903MOL0     C24496   2.598   3.150  -0.035 -0.2972 -0.2238 -0.1677
  903MOL0     C24497   2.639   3.028  -0.128 -0.3073  0.6399 -0.3495
  903MOL0     C24498   2.753   3.061  -0.226  0.0201  0.4013 -0.4557
  903MOL0     C24499   2.705   3.124  -0.355  0.0027  0.2577  0.7496
  903MOL0     O24500   2.647   3.023  -0.442  0.1510 -0.2774 -0.6091
  903MOL0     C24501   2.716   2.986  -0.554 -0.6604  0.2159  0.3407
  903MOL0     C24502   2.853   3.008  -0.572 -0.3235  1.5012  0.7023
  903MOL0     C24503   2.923   2.978  -0.697  0.4796  0.8428  0.1582
  903MOL0     C24504   3.080   2.999  -0.688  0.6668  0.0793  0.2370
  903MOL0     C24505   2.848   2.924  -0.811  0.3895 -0.1728  1.0980
  903MOL0     C24506   2.900   2.903  -0.954  0.7162  0.4312 -0.1752
  903MOL0     O24507   2.831   2.820  -1.028 -0.0868 -0.2312  0.7139
  903MOL0     C24508   2.882   2.781  -1.150 -0.0408 -0.0140 -0.6604
  903MOL0     C24509   2.900   2.643  -1.166  0.0714  1.3723 -0.1987
  903MOL0     C24510   2.937   2.590  -1.287 -0.2156  0.9201  0.8626
  903MOL0     C24511   2.948   2.677  -1.391 -0.3153  0.2936  0.6159
  903MOL0     O24512   2.984   2.636  -1.519  0.2169 -0.2872 -0.1551
  903MOL0     C24513   3.063   2.523  -1.545 -0.1607  0.0885 -0.2173
  903MOL0     C24514   3.129   2.556  -1.670 -0.0757  0.1851  0.7293
  903MOL0     C24515   3.218   2.683  -1.654 -0.1041 -1.1484  1.1325
  903MOL0     C24516   3.292   2.717  -1.784 -0.6832 -0.8167  0.4548
  903MOL0     C24517   3.362   2.849  -1.778  0.6989  0.3438 -0.3291
  903MOL0     C24518   3.406   2.875  -1.923 -0.2380  1.1186  0.5261
  903MOL0     C24519   3.513   2.987  -1.937 -0.8270  0.3996  0.1366
  903MOL0     C24520   3.556   3.023  -2.083 -0.1043 -0.2971 -0.7401
  903MOL0    Cl24521   3.673   3.162  -2.088  0.2425  0.0647  0.4280
  903MOL0     C24522   2.916   2.809  -1.381 -0.9214  0.1056  0.4102
  903MOL0     C24523   2.877   2.869  -1.259  0.8835 -0.5229 -0.0004
  903MOL0     O24524   3.008   2.951  -0.983  0.1263  0.1250 -0.4183
  903MOL0     C24525   2.706   2.898  -0.785 -0.2945  0.6644  0.3691
  903MOL0     C24526   2.642   2.924  -0.663 -0.2946 -0.0444  0.0220
  903MOL0     N24527   2.814   3.108   0.099 -0.8330 -0.6058  0.1430
  903MOL0     N24528   2.883   3.178   0.191 -0.5944  0.3074  0.3748
  903MOL0     C24529   2.120   3.453   1.075 -0.4419 -0.7760  0.3195
  903MOL0     C24530   2.022   3.362   1.114 -0.2227  0.5113  0.0789
  903MOL0     C24531   1.666   3.092   1.141 -0.0709  0.3112  0.3837
  903MOL0     C24532   1.641   3.068   1.277  0.7112 -0.1781 -0.4675
  903MOL0     C24533   1.542   2.965   1.311 -0.6755  0.0120 -0.3258
  903MOL0     C24534   1.483   2.885   1.210  0.4530  0.4937 -0.5509
  903MOL0     O24535   1.389   2.805   1.261  0.0261  0.2113 -0.3235
  903MOL0     C24536   1.315   2.719   1.172  0.1324 -1.4708 -0.3325
  903MOL0     C24537   1.384   2.595   1.148 -0.8290  0.5912  0.1166
  903MOL0     C24538   1.437   2.529   1.285  0.9673 -0.2943 -0.2784
  903MOL0     C24539   1.570   2.481   1.279  0.4827  0.4421  0.7050
  903MOL0     C24540   1.672   2.572   1.233 -0.8394 -0.0842  0.3906
  903MOL0     C24541   1.743   2.670   1.211  0.2809  1.5184  1.0787
  903MOL0     C24542   1.518   2.915   1.075  0.5550  0.7933 -0.2340
  903MOL0     C24543   1.618   3.004   1.041  1.0796  0.9181 -0.0704
  903MOL0     C24544   1.649   3.022   0.892 -0.1689  0.0234  0.2379
  903MOL0     H24545   1.950   3.247   0.794  0.2112  1.3436 -0.4889
  903MOL0     H24546   2.098   3.432   0.736  0.3216  2.4013  0.9288
  903MOL0     H24547   2.356   3.444   0.874 -1.3644  0.4564 -0.9148
  903MOL0     H24548   2.373   3.559   0.994  2.8953 -0.1679 -1.2375
  903MOL0     H24549   2.440   3.566   0.705  1.3087 -1.4568  0.5728
  903MOL0     H24550   2.404   3.722   0.782 -1.4393 -1.3386 -0.2075
  903MOL0     H24551   2.609   3.688   0.928 -0.5496  1.8488 -1.5062
  903MOL0     H24552   2.600   3.509   0.898  1.2486  0.4114 -1.5431
  903MOL0     H24553   2.678   3.705   0.684 -2.2837  1.6340  0.9416
  903MOL0     H24554   2.796   3.645   0.798 -1.0170 -0.7205  0.7541
  903MOL0     H24555   2.610   3.449   0.646 -1.6995  2.2803  3.0307
  903MOL0     H24556   2.767   3.417   0.718  3.2439 -0.8904 -4.4039
  903MOL0     H24557   2.720   3.583   0.488  1.5787  0.8699 -0.5381
  903MOL0     H24558   2.871   3.538   0.549  0.4654 -1.1394  0.8160
  903MOL0     H24559   2.662   3.346   0.443  0.6253  0.6665  1.4818
  903MOL0     H24560   2.816   3.286   0.507  1.0018  1.0153  0.2649
  903MOL0     H24561   2.800   3.485   0.270 -0.1106 -0.3164 -1.3763
  903MOL0     H24562   2.935   3.414   0.304  0.4624 -0.7929 -0.9991
  903MOL0     H24563   2.600   3.357   0.146  0.4059 -1.5998 -0.8630
  903MOL0     H24564   2.574   3.237  -0.097  1.3828  1.0786  0.9182
  903MOL0     H24565   2.511   3.116   0.022  0.6648 -5.8952 -1.4038
  903MOL0     H24566   2.674   2.942  -0.071  1.1341 -0.1014 -2.2154
  903MOL0     H24567   2.548   3.001  -0.183 -0.2989  1.3854 -0.7456
  903MOL0     H24568   2.833   3.119  -0.179 -0.5739  0.2481  0.7965
  903MOL0     H24569   2.812   2.971  -0.245 -1.0515 -0.3116 -0.4926
  903MOL0     H24570   2.633   3.204  -0.338  2.3193  2.4334  0.8699
  903MOL0     H24571   2.785   3.181  -0.402 -0.6006  3.7774  3.6043
  903MOL0     H24572   2.909   3.053  -0.492  1.0215  1.0194  0.0608
  903MOL0     H24573   3.138   2.943  -0.762 -0.9677 -3.9716  1.7347
  903MOL0     H24574   3.107   2.969  -0.586 -0.1113 -1.5619 -0.0155
  903MOL0     H24575   3.109   3.105  -0.691  0.5493  0.2979  3.1671
  903MOL0     H24576   2.903   2.585  -1.075  0.0788  1.6676 -0.0087
  903MOL0     H24577   2.959   2.487  -1.314 -3.1391  0.3872  0.1433
  903MOL0     H24578   3.129   2.498  -1.462 -4.1272 -1.0901  2.8780
  903MOL0     H24579   3.002   2.433  -1.552  0.0071 -0.2023  1.6748
  903MOL0     H24580   3.185   2.467  -1.700  0.8310  1.8331 -3.0366
  903MOL0     H24581   3.049   2.571  -1.743  0.3441  0.8058  0.3950
  903MOL0     H24582   3.296   2.651  -1.584  1.3338  1.3234  0.8021
  903MOL0     H24583   3.157   2.762  -1.610  0.4295 -2.9590  5.5998
  903MOL0     H24584   3.225   2.717  -1.871  1.6288 -3.9522 -1.5528
  903MOL0     H24585   3.360   2.634  -1.809  0.6500  0.4218 -0.1762
  903MOL0     H24586   3.287   2.925  -1.752 -0.7696 -1.5402  1.2729
  903MOL0     H24587   3.443   2.852  -1.705 -0.3990 -1.1395  1.0222
  903MOL0     H24588   3.316   2.917  -1.970 -0.4858  2.7338  2.3520
  903MOL0     H24589   3.425   2.781  -1.975 -2.8538  2.0683 -2.5454
  903MOL0     H24590   3.604   2.973  -1.879 -1.9990  2.4589  2.6992
  903MOL0     H24591   3.468   3.079  -1.899 -0.3348  0.3402  0.8877
  903MOL0     H24592   3.473   3.046  -2.152  2.5366 -0.1933 -4.1858
  903MOL0     H24593   3.620   2.942  -2.119  2.0902  1.1402 -0.2398
  903MOL0     H24594   2.920   2.871  -1.470 -0.8652  1.2285  1.1788
  903MOL0     H24595   2.859   2.975  -1.243  4.0292 -0.0222  0.8731
  903MOL0     H24596   2.653   2.840  -0.859 -2.5533  1.3999  1.3176
  903MOL0     H24597   2.543   2.883  -0.644  0.9413 -2.0663  2.7172
  903MOL0     H24598   2.176   3.506   1.151 -1.9718  2.1665 -0.4335
  903MOL0     H24599   2.010   3.336   1.218 -1.3612 -0.5524 -0.2857
  903MOL0     H24600   1.687   3.128   1.355 -1.3183  1.6656 -0.5897
  903MOL0     H24601   1.521   2.928   1.411 -0.6725 -3.4872 -1.4744
  903MOL0     H24602   1.231   2.687   1.235  2.8036 -1.4994  3.5589
  903MOL0     H24603   1.285   2.780   1.086 -2.4682 -1.0027  0.8140
  903MOL0     H24604   1.477   2.605   1.092 -1.1523 -4.4669 -1.7829
  903MOL0     H24605   1.319   2.520   1.103  1.1026 -2.2904  1.8020
  903MOL0     H24606   1.438   2.602   1.367 -1.1842 -2.1187  1.5063
  903MOL0     H24607   1.370   2.449   1.318  0.0624  0.3646 -0.4754
  903MOL0     H24608   1.578   2.401   1.205  3.2689  0.5290  0.8144
  903MOL0     H24609   1.600   2.427   1.369  0.5235 -0.6452  0.0658
  903MOL0     H24610   1.804   2.751   1.178 -0.6035  1.5810 -0.5236
  903MOL0     H24611   1.461   2.876   0.991 -1.3934  1.5538  0.6775
  903MOL0     H24612   1.586   2.957   0.831 -1.6323 -0.2158  1.9123
  903MOL0     H24613   1.637   3.125   0.858 -3.4070 -0.8267 -1.6129
  903MOL0     H24614   1.754   3.000   0.870 -0.1778 -0.2397  0.4506
  904MOL0     O24615   3.608   3.162   4.894 -0.4266  0.9989  0.4040
  904MOL0     C24616   3.632   3.061   4.819 -0.1279 -1.4056  0.3514
  904MOL0     O24617   3.663   3.073   4.681  0.6311  0.4098 -0.7120
  904MOL0     C24618   3.647   3.192   4.608  0.2606  0.4905 -0.2734
  904MOL0     C24619   3.532   3.231   4.532 -0.3431  0.5108  0.5128
  904MOL0     C24620   3.533   3.347   4.458 -0.0934  0.4568 -0.4313
  904MOL0     C24621   3.653   3.426   4.449  0.0889  0.6204  0.4107
  904MOL0     O24622   3.652   3.536   4.367 -0.7102 -0.4691  0.1612
  904MOL0     C24623   3.772   3.595   4.327 -0.0185 -0.1180 -0.4495
  904MOL0     C24624   3.751   3.686   4.215 -0.4097 -0.4114 -1.1007
  904MOL0     C24625   3.691   3.637   4.085 -1.0493  0.1551 -0.6599
  904MOL0     C24626   3.793   3.546   4.020  0.5624  0.6140  0.6320
  904MOL0     C24627   3.732   3.441   3.927 -0.3093  0.2769  0.2825
  904MOL0     C24628   3.850   3.364   3.858 -0.6156  0.5424 -0.0630
  904MOL0     C24629   3.810   3.287   3.737  0.0106  0.2327  0.1034
  904MOL0     C24630   3.937   3.249   3.659 -0.5667 -0.2751  0.0266
  904MOL0     N24631   3.924   3.216   3.515 -0.2313 -0.2498  0.9154
  904MOL0     C24632   3.850   3.103   3.476 -0.7984 -0.2010  0.8779
  904MOL0     C24633   3.851   3.116   3.336 -0.1012  0.2512 -1.3359
  904MOL0     C24634   3.783   3.035   3.226 -0.0321  0.2347  1.1397
  904MOL0     C24635   3.869   3.036   3.094  0.5825  0.1511  0.7333
  904MOL0     C24636   3.801   2.957   2.981  0.5639 -0.6868 -0.1739
  904MOL0     C24637   3.875   2.974   2.851  0.8942 -0.2934  1.0436
  904MOL0     O24638   3.819   2.888   2.749 -0.2411 -0.1353  0.3512
  904MOL0     C24639   3.740   2.945   2.648 -0.2778  0.4472  0.3252
  904MOL0     C24640   3.769   2.895   2.519 -1.0471  0.6565 -0.6686
  904MOL0     C24641   3.704   2.950   2.413  0.4243  0.7578  0.0143
  904MOL0     C24642   3.745   2.906   2.271  0.5535 -0.6626  0.3602
  904MOL0     C24643   3.607   3.046   2.431 -0.1812 -0.2935  0.0020
  904MOL0     C24644   3.517   3.104   2.331  0.0109 -0.4012 -0.3848
  904MOL0     O24645   3.391   3.084   2.344 -0.5708  0.2313  0.1218
  904MOL0     C24646   3.300   3.139   2.250  0.0526  0.3830 -0.4643
  904MOL0     C24647   3.204   3.041   2.195  0.0389 -0.5425  0.5959
  904MOL0     C24648   3.094   3.091   2.118  0.2799 -0.0904 -0.1568
  904MOL0     C24649   3.087   3.232   2.096 -0.1091 -0.1962  0.2719
  904MOL0     O24650   2.991   3.297   2.018  0.3074  0.6302  0.8694
  904MOL0     C24651   2.857   3.233   2.024  0.4326  0.2217 -0.2979
  904MOL0     C24652   2.746   3.329   2.006 -0.0798 -0.7776 -0.6615
  904MOL0     C24653   2.750   3.407   1.879  0.3642 -0.1913  0.6669
  904MOL0     C24654   2.608   3.466   1.848  0.4533 -0.9708 -0.5349
  904MOL0     C24655   2.583   3.518   1.703  0.0832 -0.4746  0.0041
  904MOL0     C24656   2.646   3.655   1.675  0.9429  0.4560  0.4635
  904MOL0     C24657   2.614   3.696   1.522  0.5032  0.2089 -1.3264
  904MOL0     C24658   2.463   3.710   1.492  0.6251  0.6564  0.3990
  904MOL0    Cl24659   2.417   3.769   1.331 -0.6577  0.0969 -0.2606
  904MOL0     C24660   3.186   3.315   2.144  1.0610  0.8168  0.4908
  904MOL0     C24661   3.293   3.275   2.221 -0.0694 -0.2550 -0.3098
  904MOL0     O24662   3.569   3.160   2.236  0.3260  0.0996 -0.0864
  904MOL0     C24663   3.567   3.081   2.559  0.9228 -0.2659  0.7595
  904MOL0     C24664   3.640   3.043   2.674  0.7887  0.4987  0.0608
  904MOL0     N24665   3.926   3.228   3.303 -0.6291 -0.1490  0.2050
  904MOL0     N24666   3.967   3.285   3.413  0.3179  0.1288  0.1767
  904MOL0     C24667   3.763   3.386   4.523 -0.0056 -0.0813 -0.3255
  904MOL0     C24668   3.755   3.276   4.613 -0.3383  0.2696 -0.6146
  904MOL0     C24669   3.615   2.928   4.877  0.4061 -0.4484  0.5101
  904MOL0     C24670   3.575   2.826   4.794  1.5900  1.6448 -0.0345
  904MOL0     C24671   3.563   2.695   4.832 -0.1371  0.5338 -0.0070
  904MOL0     C24672   3.607   2.653   4.958  1.6187 -0.2870 -0.4690
  904MOL0     O24673   3.611   2.527   4.996  0.3875 -0.2541  0.4773
  904MOL0     C24674   3.505   2.479   5.080  0.4855  0.2598 -0.5482
  904MOL0     C24675   3.457   2.346   5.014 -0.4403  0.3860 -0.4060
  904MOL0     C24676   3.374   2.363   4.882 -0.3141  0.2872  0.1374
  904MOL0     C24677   3.278   2.247   4.857 -0.0905 -0.1918 -0.0752
  904MOL0     C24678   3.333   2.115   4.859  0.2735  0.1897  0.3811
  904MOL0     C24679   3.377   2.006   4.857  0.2252 -0.7523  0.9426
  904MOL0     C24680   3.637   2.758   5.049 -0.4569  0.5899  0.5760
  904MOL0     C24681   3.661   2.888   5.010  0.2241 -0.6974 -0.2096
  904MOL0     C24682   3.706   2.990   5.117 -0.2437 -0.0799  0.5983
  904MOL0     H24683   3.448   3.164   4.546 -3.3229  4.0727  1.1541
  904MOL0     H24684   3.444   3.370   4.402  0.5529 -0.1217 -1.7432
  904MOL0     H24685   3.855   3.529   4.300 -0.5065 -0.3339 -1.4576
  904MOL0     H24686   3.809   3.654   4.412 -1.0344  1.4146 -1.0347
  904MOL0     H24687   3.691   3.768   4.257 -2.4118 -1.7399 -1.2424
  904MOL0     H24688   3.850   3.726   4.193  0.9739 -2.3081  1.3028
  904MOL0     H24689   3.589   3.603   4.101 -1.5800  1.6585 -0.6637
  904MOL0     H24690   3.658   3.712   4.012 -0.3486 -0.3626 -1.5277
  904MOL0     H24691   3.842   3.617   3.952  1.9967 -0.8537  0.0809
  904MOL0     H24692   3.860   3.493   4.088  2.8935  0.7680 -1.3931
  904MOL0     H24693   3.676   3.510   3.863  1.6794 -0.6763 -2.6789
  904MOL0     H24694   3.660   3.375   3.977 -0.3236  1.4924  1.9320
  904MOL0     H24695   3.932   3.429   3.828  1.1957 -0.0968  3.0413
  904MOL0     H24696   3.901   3.301   3.932  3.9259  3.7843 -0.0436
  904MOL0     H24697   3.757   3.350   3.665  2.8157  1.1544 -1.3005
  904MOL0     H24698   3.753   3.197   3.764  0.5230 -1.1945 -3.1117
  904MOL0     H24699   4.014   3.327   3.664  0.9802 -1.8068  0.9602
  904MOL0     H24700   3.987   3.160   3.697  0.5972  0.1657 -0.4252
  904MOL0     H24701   3.796   3.021   3.522 -0.5820 -1.2226 -0.6120
  904MOL0     H24702   3.688   3.081   3.194  1.2406  1.3941 -1.2796
  904MOL0     H24703   3.775   2.932   3.261  3.2631 -0.8967 -0.9911
  904MOL0     H24704   3.898   3.135   3.056 -2.6411 -0.0767 -2.9478
  904MOL0     H24705   3.964   2.984   3.111  1.0724  0.7917  0.0381
  904MOL0     H24706   3.772   2.855   3.007 -2.2619  0.2155  0.5428
  904MOL0     H24707   3.705   3.008   2.969  0.2464 -1.2057  0.1250
  904MOL0     H24708   3.864   3.079   2.823  0.5803  0.2156  2.9173
  904MOL0     H24709   3.982   2.953   2.864  1.4945  0.7905 -1.5808
  904MOL0     H24710   3.854   2.833   2.493 -0.4383  1.0642  0.2962
  904MOL0     H24711   3.828   2.963   2.227 -2.7024  3.1642 -1.4914
  904MOL0     H24712   3.665   2.912   2.197  1.1245 -0.3181 -0.2360
  904MOL0     H24713   3.769   2.800   2.279  3.7783  0.0912  3.2429
  904MOL0     H24714   3.210   2.934   2.212  0.7135 -1.0454 -2.2325
  904MOL0     H24715   3.022   3.020   2.079  1.2314 -0.5207 -1.1867
  904MOL0     H24716   2.852   3.163   1.940  1.5094  3.4874 -3.3548
  904MOL0     H24717   2.846   3.194   2.125 -0.2800 -2.9986 -1.5097
  904MOL0     H24718   2.655   3.269   2.000 -0.8495  0.3732 -0.8155
  904MOL0     H24719   2.746   3.399   2.090 -3.4607 -1.6164  0.2077
  904MOL0     H24720   2.781   3.331   1.807  0.7135  0.3444  0.2507
  904MOL0     H24721   2.830   3.481   1.873 -1.7445  2.0782 -2.1688
  904MOL0     H24722   2.591   3.550   1.915  4.2401  1.0959 -1.8634
  904MOL0     H24723   2.538   3.384   1.867 -0.9129  0.7963  2.9999
  904MOL0     H24724   2.614   3.446   1.627  0.4087  0.6986 -1.0080
  904MOL0     H24725   2.475   3.533   1.695  0.3102  2.5654  1.1031
  904MOL0     H24726   2.751   3.645   1.702  1.3469  1.1838 -0.7625
  904MOL0     H24727   2.600   3.724   1.746 -4.4700 -0.4125 -1.6978
  904MOL0     H24728   2.659   3.610   1.471 -0.0932 -2.7406  2.6165
  904MOL0     H24729   2.667   3.787   1.493 -1.3811  1.9881  0.4950
  904MOL0     H24730   2.420   3.782   1.562 -1.7588  2.3372 -2.5535
  904MOL0     H24731   2.409   3.616   1.509 -0.8846  1.5096  0.5369
  904MOL0     H24732   3.172   3.421   2.124  1.1765  0.1674 -4.0868
  904MOL0     H24733   3.362   3.348   2.263 -1.5741 -0.1477  2.1159
  904MOL0     H24734   3.480   3.145   2.568  0.6617 -0.5592  0.3164
  904MOL0     H24735   3.623   3.076   2.776  0.8156  1.6678 -0.2909
  904MOL0     H24736   3.860   3.436   4.527  0.5770 -0.7134 -3.7200
  904MOL0     H24737   3.846   3.247   4.665  0.2662 -0.7738 -2.1668
  904MOL0     H24738   3.544   2.841   4.692 -0.7907 -0.9558  0.1864
  904MOL0     H24739   3.532   2.621   4.759 -0.6272  0.6830  0.0460
  904MOL0     H24740   3.539   2.465   5.183  1.1028 -2.7227 -1.0578
  904MOL0     H24741   3.419   2.546   5.085 -2.4462 -3.2838  1.9995
  904MOL0     H24742   3.392   2.296   5.086 -0.0267  1.9587  1.1228
  904MOL0     H24743   3.549   2.292   4.989  0.4549  2.1396 -1.0687
  904MOL0     H24744   3.315   2.455   4.890 -2.5840 -0.9532 -1.2494
  904MOL0     H24745   3.440   2.374   4.796 -1.4492 -0.4825 -0.8708
  904MOL0     H24746   3.237   2.257   4.756 -0.2095 -1.1036 -0.1241
  904MOL0     H24747   3.188   2.264   4.917 -0.0804  1.7492 -0.5372
  904MOL0     H24748   3.422   1.911   4.880 -0.7769 -1.3806  0.3998
  904MOL0     H24749   3.663   2.730   5.150  0.4110  2.8537  1.0613
  904MOL0     H24750   3.782   3.058   5.077  1.3898 -1.3204  1.4692
  904MOL0     H24751   3.614   3.037   5.151  0.0270 -0.7326  2.3171
  904MOL0     H24752   3.741   2.936   5.205 -0.8504 -2.9013 -0.8061
  905MOL0     O24753   9.910   5.014   0.642  0.2339  0.1890  0.9949
  905MOL0     C24754   9.930   4.902   0.687 -0.2665  0.3896  1.1004
  905MOL0     O24755   9.867   4.845   0.798  0.0110  0.3574  0.2107
  905MOL0     C24756   9.765   4.930   0.847  0.0031 -0.2922 -0.8333
  905MOL0     C24757   9.776   4.963   0.981  0.2318 -0.4183 -0.6570
  905MOL0     C24758   9.673   5.047   1.031 -0.0626 -0.8258 -0.3840
  905MOL0     C24759   9.565   5.096   0.965 -0.5201  0.3133 -0.8229
  905MOL0     O24760   9.466   5.176   1.025  0.2013 -0.2597  0.5972
  905MOL0     C24761   9.339   5.117   1.053  0.2049 -0.4473  0.3571
  905MOL0     C24762   9.285   5.164   1.193 -0.2332 -0.7383 -0.3325
  905MOL0     C24763   9.385   5.106   1.303 -0.8879 -0.3078  1.2770
  905MOL0     C24764   9.307   5.062   1.425  0.5565  0.4114  0.2706
  905MOL0     C24765   9.396   4.993   1.529 -0.0454  0.3100 -0.2065
  905MOL0     C24766   9.501   5.089   1.591 -0.0833  0.3462  1.0590
  905MOL0     C24767   9.615   5.010   1.658 -0.2954  0.4287  0.0050
  905MOL0     C24768   9.724   5.102   1.715  0.0679 -0.2664  0.0950
  905MOL0     N24769   9.675   5.199   1.819 -0.0005 -0.4895 -0.9755
  905MOL0     C24770   9.660   5.337   1.790 -0.7064 -0.3380 -0.1901
  905MOL0     C24771   9.634   5.389   1.913 -0.0915 -1.0870 -0.1193
  905MOL0     C24772   9.585   5.523   1.943 -0.2451  0.0662  0.9374
  905MOL0     C24773   9.439   5.541   1.978  0.3720  0.1503  0.4335
  905MOL0     C24774   9.416   5.668   2.068  0.8635  0.3119  0.3849
  905MOL0     C24775   9.484   5.791   2.021  0.3797 -0.7576  0.4308
  905MOL0     O24776   9.407   5.874   1.927  0.4320  0.0333  0.6334
  905MOL0     C24777   9.436   6.010   1.926 -0.6802  0.1871 -0.2882
  905MOL0     C24778   9.340   6.093   1.873 -0.7282 -0.7890  0.7262
  905MOL0     C24779   9.373   6.230   1.854  0.6859  0.0527 -0.7269
  905MOL0     C24780   9.266   6.310   1.776  0.9225 -0.1151 -1.5533
  905MOL0     C24781   9.495   6.291   1.899  0.7505 -0.2902  1.0291
  905MOL0     C24782   9.533   6.428   1.880  0.4610  0.0032 -0.2636
  905MOL0     O24783   9.441   6.520   1.881 -0.9909 -1.1225  0.3050
  905MOL0     C24784   9.472   6.655   1.877  0.5687  0.0095  0.8349
  905MOL0     C24785   9.567   6.717   1.951 -0.1885 -0.2296  0.0707
  905MOL0     C24786   9.576   6.858   1.957  0.2527  0.1572 -0.2810
  905MOL0     C24787   9.495   6.942   1.880 -0.1003 -0.4913 -0.5617
  905MOL0     O24788   9.515   7.081   1.880 -0.5873 -0.5439 -0.1320
  905MOL0     C24789   9.571   7.144   2.001  0.4253 -0.1135 -0.4615
  905MOL0     C24790   9.516   7.287   1.997 -0.4563 -0.1410  0.4262
  905MOL0     C24791   9.527   7.371   2.120  0.4938  0.4848  0.0649
  905MOL0     C24792   9.461   7.509   2.112 -0.0081  0.6713  0.6502
  905MOL0     C24793   9.443   7.582   2.256 -0.4787  0.1682  0.5812
  905MOL0     C24794   9.321   7.679   2.280 -0.8504  0.1651  0.0521
  905MOL0     C24795   9.201   7.600   2.341 -0.4102  1.0479 -0.4661
  905MOL0     C24796   9.170   7.465   2.293  0.3589 -0.0420 -0.3399
  905MOL0    Cl24797   9.010   7.416   2.364 -0.0572  0.4123  0.0627
  905MOL0     C24798   9.400   6.879   1.797  0.2634 -0.1401 -0.7202
  905MOL0     C24799   9.392   6.741   1.794  0.1427  0.0883  0.3810
  905MOL0     O24800   9.653   6.446   1.857  0.4984 -0.1555  0.7867
  905MOL0     C24801   9.586   6.206   1.958 -0.2540 -0.5722 -0.0002
  905MOL0     C24802   9.558   6.070   1.982 -0.3169 -0.8883  0.0323
  905MOL0     N24803   9.638   5.290   2.006  0.5754  0.1303  0.2864
  905MOL0     N24804   9.675   5.176   1.954 -0.3626 -0.6655  0.6486
  905MOL0     C24805   9.547   5.058   0.843 -0.0883 -0.0521  0.6619
  905MOL0     C24806   9.652   4.977   0.776 -0.6119 -0.1740  0.0869
  905MOL0     C24807  10.042   4.813   0.628 -0.0757  0.6421 -0.2662
  905MOL0     C24808  10.100   4.714   0.719  0.5290 -0.4850  0.2895
  905MOL0     C24809  10.208   4.638   0.675  0.2950  0.2641  0.5474
  905MOL0     C24810  10.275   4.654   0.549 -0.6180 -0.0576 -0.1576
  905MOL0     O24811  10.389   4.580   0.508  0.2705 -0.5561  0.6627
  905MOL0     C24812  10.449   4.618   0.376 -0.1366 -0.4862 -2.0209
  905MOL0     C24813  10.575   4.547   0.355 -0.1739  0.1529  0.5144
  905MOL0     C24814  10.677   4.580   0.464 -0.4737  0.4784 -0.3590
  905MOL0     C24815  10.813   4.515   0.419  0.8610 -0.2539  0.3346
  905MOL0     C24816  10.908   4.544   0.522  0.4625 -0.0208  0.0970
  905MOL0     C24817  10.995   4.558   0.607  0.6554  0.3651  0.7256
  905MOL0     C24818  10.208   4.743   0.468  1.7112 -1.0589  0.0306
  905MOL0     C24819  10.096   4.822   0.497 -1.1517  0.3878 -0.8916
  905MOL0     C24820  10.043   4.912   0.387  0.8511  0.0772  0.3521
  905MOL0     H24821   9.865   4.939   1.038 -1.1815 -1.9832  1.0389
  905MOL0     H24822   9.687   5.066   1.137 -0.4972 -1.1882 -0.2605
  905MOL0     H24823   9.353   5.009   1.046 -4.8544 -1.2311 -2.0639
  905MOL0     H24824   9.264   5.140   0.977 -2.0031 -2.1807  1.8791
  905MOL0     H24825   9.295   5.273   1.194  1.3179 -0.8503 -0.1044
  905MOL0     H24826   9.181   5.140   1.216 -0.0822 -0.9590  0.1429
  905MOL0     H24827   9.439   5.021   1.260  2.7164  3.7560 -3.3257
  905MOL0     H24828   9.460   5.182   1.326  1.0612 -2.1313  1.3053
  905MOL0     H24829   9.254   5.150   1.462  1.8020  0.4320  2.0951
  905MOL0     H24830   9.226   4.998   1.388 -1.6643  1.8968  2.2648
  905MOL0     H24831   9.444   4.911   1.476 -0.3806 -0.4627  0.6561
  905MOL0     H24832   9.326   4.953   1.603 -0.2298 -1.9095 -1.5148
  905MOL0     H24833   9.550   5.146   1.512 -0.9815 -1.9240 -1.3061
  905MOL0     H24834   9.459   5.146   1.674  2.1910 -0.8789  3.1779
  905MOL0     H24835   9.663   4.940   1.589  0.6229  0.2797  0.7676
  905MOL0     H24836   9.581   4.949   1.742  1.9625 -0.4789  0.3446
  905MOL0     H24837   9.805   5.054   1.771  0.3414 -1.5986 -1.3675
  905MOL0     H24838   9.761   5.157   1.629 -2.2940 -0.4184 -1.1056
  905MOL0     H24839   9.656   5.381   1.691 -1.7656  0.7556  0.3171
  905MOL0     H24840   9.600   5.578   1.850 -0.1711  0.0603  0.9454
  905MOL0     H24841   9.667   5.556   2.008 -0.3466  1.8161  0.2320
  905MOL0     H24842   9.371   5.545   1.892 -1.1364 -2.8205  1.3787
  905MOL0     H24843   9.396   5.454   2.027  2.8177 -2.1114 -1.1527
  905MOL0     H24844   9.312   5.684   2.096  1.3599  0.4395  2.2574
  905MOL0     H24845   9.461   5.647   2.165 -0.5169 -0.7200  0.8356
  905MOL0     H24846   9.497   5.853   2.109 -0.6512  0.7785 -0.4570
  905MOL0     H24847   9.584   5.778   1.979 -0.5521  0.0506 -2.2949
  905MOL0     H24848   9.256   6.038   1.832 -2.0803 -0.8346  3.3700
  905MOL0     H24849   9.170   6.258   1.778 -0.5113  2.2254  2.5540
  905MOL0     H24850   9.294   6.329   1.672 -1.9789  2.4059 -2.0171
  905MOL0     H24851   9.249   6.405   1.828  0.3094  0.9095 -3.5021
  905MOL0     H24852   9.635   6.656   2.009 -0.4175  0.5269  1.1772
  905MOL0     H24853   9.659   6.896   2.016  1.0662 -1.9974  0.0842
  905MOL0     H24854   9.534   7.085   2.085  0.0993  0.1644 -0.4067
  905MOL0     H24855   9.679   7.129   1.999  0.2691 -1.4387  0.1473
  905MOL0     H24856   9.563   7.339   1.913 -0.5961 -2.6979 -1.3711
  905MOL0     H24857   9.407   7.286   1.981 -0.6597  0.5617  1.6845
  905MOL0     H24858   9.632   7.384   2.148  0.7394  0.9605 -1.0312
  905MOL0     H24859   9.485   7.320   2.208 -0.1334  0.8243 -0.0253
  905MOL0     H24860   9.363   7.491   2.065 -0.7468  0.7257  2.1089
  905MOL0     H24861   9.532   7.575   2.062  0.6438  0.8491  1.7732
  905MOL0     H24862   9.428   7.505   2.332 -3.8679 -2.0704 -2.0960
  905MOL0     H24863   9.532   7.641   2.281 -0.2096 -0.0227  0.0841
  905MOL0     H24864   9.283   7.721   2.185 -1.6312  0.0246  0.2945
  905MOL0     H24865   9.333   7.760   2.353  1.2566  0.0498 -0.1196
  905MOL0     H24866   9.115   7.664   2.320  0.5706  2.5770 -0.0132
  905MOL0     H24867   9.204   7.587   2.450  0.6418 -3.9744 -0.8592
  905MOL0     H24868   9.242   7.396   2.338 -1.3429 -1.6672 -0.0019
  905MOL0     H24869   9.161   7.465   2.184  1.0024  3.6485 -0.5400
  905MOL0     H24870   9.330   6.923   1.727 -1.6005 -3.7382 -1.3455
  905MOL0     H24871   9.319   6.695   1.728  1.0035 -1.9639  0.7797
  905MOL0     H24872   9.682   6.242   1.992  0.4833  2.0760 -4.1504
  905MOL0     H24873   9.630   6.014   2.041 -0.3719  1.3402  2.4165
  905MOL0     H24874   9.463   5.095   0.786  1.8219 -0.5138 -2.7332
  905MOL0     H24875   9.622   4.941   0.678 -1.8518 -2.5120  1.2360
  905MOL0     H24876  10.054   4.701   0.816 -0.7023 -3.0994 -0.5244
  905MOL0     H24877  10.245   4.563   0.745  0.8585 -1.3052 -1.3464
  905MOL0     H24878  10.390   4.597   0.287  0.2104  0.2880 -2.4421
  905MOL0     H24879  10.468   4.725   0.374 -2.0222 -0.1358 -3.4350
  905MOL0     H24880  10.626   4.570   0.261 -2.2340  0.1253 -0.6617
  905MOL0     H24881  10.558   4.439   0.350 -1.7895  0.3055  1.9569
  905MOL0     H24882  10.669   4.689   0.469 -3.8631  0.3905 -1.0646
  905MOL0     H24883  10.649   4.540   0.561 -1.8271  2.3401  0.0845
  905MOL0     H24884  10.839   4.558   0.322  0.3614 -1.0743 -0.1736
  905MOL0     H24885  10.794   4.408   0.409  2.7534 -0.6094  0.1024
  905MOL0     H24886  11.077   4.582   0.671  2.0889  0.1582 -0.9827
  905MOL0     H24887  10.253   4.759   0.371 -0.7854 -0.3795 -1.1166
  905MOL0     H24888   9.936   4.904   0.366  1.0347 -1.0704 -0.2125
  905MOL0     H24889  10.071   5.018   0.383 -0.3842  0.4009 -0.1207
  905MOL0     H24890  10.090   4.866   0.299 -0.0133 -0.6571  0.2655
  906MOL0     O24891   3.954   7.776   3.738 -0.5150  0.0553 -0.4694
  906MOL0     C24892   4.021   7.678   3.755  0.3971  0.0617 -0.2159
  906MOL0     O24893   4.030   7.606   3.874 -0.4402 -0.0437  0.6816
  906MOL0     C24894   3.970   7.667   3.979  0.1983  0.5307  0.3846
  906MOL0     C24895   4.040   7.740   4.068 -1.1318  0.3171  0.0080
  906MOL0     C24896   3.989   7.794   4.188 -0.3161  0.2369  0.6660
  906MOL0     C24897   3.851   7.757   4.220 -0.6105  0.0902 -0.5981
  906MOL0     O24898   3.776   7.792   4.327  0.0003  0.6597  0.1762
  906MOL0     C24899   3.824   7.753   4.454  0.6270 -0.9336  0.2004
  906MOL0     C24900   3.704   7.760   4.550 -0.4183  0.2491 -0.1148
  906MOL0     C24901   3.650   7.905   4.554  0.0306  0.5579 -0.8588
  906MOL0     C24902   3.547   7.905   4.671  0.6597  0.0032 -0.2200
  906MOL0     C24903   3.464   8.035   4.691  0.0233 -0.1383 -0.2813
  906MOL0     C24904   3.365   8.027   4.814 -0.2980 -0.4089  0.8297
  906MOL0     C24905   3.320   8.176   4.847 -0.1128  1.1950  0.3519
  906MOL0     C24906   3.246   8.168   4.982  0.1185 -0.4339  0.4756
  906MOL0     N24907   3.232   8.308   5.028 -0.0856 -0.7519 -0.0261
  906MOL0     C24908   3.120   8.380   4.997 -0.9523 -0.7085  0.0842
  906MOL0     C24909   3.146   8.499   5.066  0.3276  0.3408 -0.8866
  906MOL0     C24910   3.062   8.623   5.068  0.0316  0.5398 -0.1188
  906MOL0     C24911   3.019   8.667   4.923 -0.6406  0.1359 -0.0703
  906MOL0     C24912   2.903   8.772   4.927 -1.1999  0.2357 -0.3632
  906MOL0     C24913   2.936   8.888   5.025  0.6234 -0.1716  0.5090
  906MOL0     O24914   2.840   8.982   4.981  0.5758  0.3966 -0.1127
  906MOL0     C24915   2.873   9.113   4.968 -0.2286 -0.3675  0.0120
  906MOL0     C24916   2.914   9.192   5.075  0.2392  0.6352 -0.0875
  906MOL0     C24917   2.943   9.326   5.067 -0.4629 -0.4072  1.0319
  906MOL0     C24918   3.009   9.387   5.186 -0.7401  0.1424 -0.6662
  906MOL0     C24919   2.933   9.390   4.940  1.2227  0.6666  0.0112
  906MOL0     C24920   2.963   9.528   4.921  0.7161  1.3841 -0.2159
  906MOL0     O24921   2.915   9.621   5.011 -0.2460  0.0530 -0.2404
  906MOL0     C24922   2.978   9.741   5.004 -0.7512 -0.1224  0.6431
  906MOL0     C24923   2.904   9.845   4.944  0.0069 -0.0229  0.1585
  906MOL0     C24924   2.958   9.969   4.938 -0.1427 -0.5695 -0.4175
  906MOL0     C24925   3.082  10.002   4.995  0.3087  0.5723 -0.0714
  906MOL0     O24926   3.119  10.135   4.998  0.3530 -0.2405 -0.7678
  906MOL0     C24927   3.244  10.169   5.069  0.5032 -0.6506 -0.6739
  906MOL0     C24928   3.260  10.321   5.099  0.9266  0.3845 -0.5855
  906MOL0     C24929   3.396  10.355   5.163  0.7483 -0.4913  0.7005
  906MOL0     C24930   3.392  10.484   5.242  0.1857  0.5169 -0.1057
  906MOL0     C24931   3.516  10.515   5.316  0.0517 -0.9508  0.6423
  906MOL0     C24932   3.635  10.539   5.226  0.1230 -0.0284 -1.0234
  906MOL0     C24933   3.762  10.590   5.294  0.0428  0.4724  0.4331
  906MOL0     C24934   3.883  10.495   5.298  0.1039 -0.1005  0.2268
  906MOL0    Cl24935   3.856  10.379   5.445  0.2251 -0.4247 -0.3746
  906MOL0     C24936   3.153   9.896   5.056 -0.0104 -0.4521 -0.5952
  906MOL0     C24937   3.102   9.766   5.052 -0.6985  0.1289 -0.1292
  906MOL0     O24938   3.028   9.549   4.824  0.3395 -0.4677 -0.0784
  906MOL0     C24939   2.896   9.314   4.834  0.4563  0.3653  0.2763
  906MOL0     C24940   2.878   9.174   4.844  0.0214  0.5281 -0.5230
  906MOL0     N24941   3.276   8.486   5.129  0.0702 -0.1405  0.9713
  906MOL0     N24942   3.322   8.373   5.102  0.0475 -0.0829 -0.2530
  906MOL0     C24943   3.772   7.693   4.120  0.3935 -0.6297 -0.1447
  906MOL0     C24944   3.835   7.646   4.003 -0.0083  0.2518 -0.2009
  906MOL0     C24945   4.085   7.621   3.635 -0.3086 -0.4270  0.2156
  906MOL0     C24946   4.138   7.490   3.634  0.5832 -0.1604 -0.5084
  906MOL0     C24947   4.198   7.434   3.519 -0.2168 -0.2962  0.3607
  906MOL0     C24948   4.195   7.503   3.397 -0.0725  0.1690  0.1042
  906MOL0     O24949   4.255   7.455   3.286  0.0519 -0.0798  0.1325
  906MOL0     C24950   4.260   7.314   3.260 -0.2669 -0.8710 -0.1883
  906MOL0     C24951   4.280   7.310   3.114 -0.1311 -0.4448 -0.1688
  906MOL0     C24952   4.228   7.171   3.061  0.5471 -0.6048 -0.1227
  906MOL0     C24953   4.250   7.163   2.905  0.2162  0.0435  0.0874
  906MOL0     C24954   4.264   7.024   2.861 -0.2437 -0.2158 -0.6452
  906MOL0     C24955   4.281   6.915   2.813  0.5708  0.8916  0.0454
  906MOL0     C24956   4.148   7.633   3.400  0.5074 -0.1155 -0.4969
  906MOL0     C24957   4.099   7.696   3.514 -0.4298 -0.5865  0.7494
  906MOL0     C24958   4.058   7.837   3.492 -0.5221  0.2383 -0.0427
  906MOL0     H24959   4.140   7.755   4.028 -0.9536  2.2539  1.0570
  906MOL0     H24960   4.061   7.841   4.255  0.4026  0.3953 -0.1937
  906MOL0     H24961   3.902   7.814   4.501 -0.7832 -0.9391  2.6748
  906MOL0     H24962   3.863   7.652   4.444  1.3399 -0.7904  1.4118
  906MOL0     H24963   3.626   7.694   4.511 -1.2562 -0.0024  1.8971
  906MOL0     H24964   3.737   7.725   4.648 -0.5338 -1.9405 -0.8179
  906MOL0     H24965   3.730   7.977   4.575  0.2916 -0.1490  0.7179
  906MOL0     H24966   3.607   7.921   4.454  1.7084  1.2147 -1.5094
  906MOL0     H24967   3.476   7.822   4.660 -0.1021  0.8109 -1.6936
  906MOL0     H24968   3.606   7.885   4.761  0.7240 -1.3821 -0.5501
  906MOL0     H24969   3.410   8.074   4.605  0.7782 -0.3826 -0.8752
  906MOL0     H24970   3.538   8.112   4.715  1.1840 -2.0184  2.7975
  906MOL0     H24971   3.273   7.972   4.793 -0.7099  0.6222 -0.1805
  906MOL0     H24972   3.416   7.982   4.899  0.4236 -1.2507 -0.0167
  906MOL0     H24973   3.259   8.198   4.759 -2.6256 -1.3580  1.3118
  906MOL0     H24974   3.412   8.235   4.843  0.6244  0.0792  0.4056
  906MOL0     H24975   3.151   8.114   4.972  1.3680 -3.1606  2.1466
  906MOL0     H24976   3.289   8.115   5.067 -0.5182 -0.8572  0.5451
  906MOL0     H24977   3.031   8.361   4.938 -2.1656  3.2503  0.3018
  906MOL0     H24978   3.121   8.703   5.112  1.3692 -1.8026  2.6303
  906MOL0     H24979   2.961   8.608   5.109 -1.0593  2.5156 -1.8308
  906MOL0     H24980   3.112   8.694   4.872 -0.9423 -0.6053 -1.0442
  906MOL0     H24981   2.974   8.575   4.884 -1.0276  0.6034 -0.7620
  906MOL0     H24982   2.897   8.811   4.825 -0.7231  2.5370  0.4272
  906MOL0     H24983   2.807   8.724   4.950  0.6627 -2.6650  2.2150
  906MOL0     H24984   2.935   8.869   5.132  0.1205 -0.7823  0.4025
  906MOL0     H24985   3.041   8.914   5.008  1.1720 -1.4056  1.8081
  906MOL0     H24986   2.915   9.154   5.177 -2.4719  1.0856  0.1874
  906MOL0     H24987   3.082   9.313   5.221 -2.0262 -0.9773 -0.2608
  906MOL0     H24988   2.930   9.389   5.261 -1.8415 -0.0219 -1.7922
  906MOL0     H24989   3.041   9.491   5.174 -0.2061  0.0898  0.2435
  906MOL0     H24990   2.810   9.815   4.898 -0.7660  2.1811  0.2115
  906MOL0     H24991   2.910  10.057   4.896 -2.6986 -0.2327  2.7745
  906MOL0     H24992   3.250  10.127   5.170 -0.1732  0.2968 -0.2218
  906MOL0     H24993   3.337  10.140   5.018  0.5432  1.6824 -2.0891
  906MOL0     H24994   3.246  10.380   5.008  0.1044 -0.8763 -1.3045
  906MOL0     H24995   3.181  10.342   5.171 -0.4416  0.8655 -2.1474
  906MOL0     H24996   3.479  10.363   5.091 -0.8764  0.3541 -1.1654
  906MOL0     H24997   3.414  10.275   5.236  0.2244  1.1428  2.6908
  906MOL0     H24998   3.300  10.491   5.301 -0.6120  2.9792 -1.5111
  906MOL0     H24999   3.365  10.564   5.173 -1.3210  2.8511  2.9541
  906MOL0     H25000   3.503  10.610   5.369  1.8775 -0.1172 -0.3224
  906MOL0     H25001   3.539  10.433   5.384 -0.5344 -1.4968  0.1944
  906MOL0     H25002   3.611  10.616   5.152  0.8875  1.0662 -0.1739
  906MOL0     H25003   3.662  10.448   5.172 -0.0861 -0.7981  0.1446
  906MOL0     H25004   3.734  10.630   5.392  1.5879 -0.7073  1.4186
  906MOL0     H25005   3.794  10.681   5.244  1.7287 -0.4207 -0.2014
  906MOL0     H25006   3.981  10.542   5.310 -0.2115  0.0616  2.5984
  906MOL0     H25007   3.890  10.442   5.202 -1.0311  0.3787 -0.1296
  906MOL0     H25008   3.253   9.911   5.095 -1.0064 -1.7482  2.8630
  906MOL0     H25009   3.165   9.693   5.102 -0.9263  1.1494  1.7064
  906MOL0     H25010   2.882   9.353   4.734  2.6815 -3.2962 -1.6738
  906MOL0     H25011   2.863   9.115   4.754 -3.1819  3.4732 -2.1372
  906MOL0     H25012   3.667   7.672   4.138  0.8955 -1.1683  2.6448
  906MOL0     H25013   3.773   7.604   3.925  0.9415  2.6496 -2.4079
  906MOL0     H25014   4.137   7.436   3.728 -0.9639 -1.0398 -0.9832
  906MOL0     H25015   4.254   7.341   3.524  0.9729  0.4438  1.3619
  906MOL0     H25016   4.342   7.258   3.305  0.6125  0.1184 -0.5384
  906MOL0     H25017   4.163   7.275   3.292 -1.5744  0.1098 -2.6434
  906MOL0     H25018   4.387   7.333   3.107 -0.2187  0.1985  0.5640
  906MOL0     H25019   4.221   7.389   3.067 -2.6501 -3.8725 -3.4889
  906MOL0     H25020   4.285   7.095   3.114 -1.4924 -1.5565  0.8508
  906MOL0     H25021   4.123   7.156   3.091  0.9688 -0.4068  1.5471
  906MOL0     H25022   4.340   7.216   2.874  0.0307  0.7861  0.7736
  906MOL0     H25023   4.172   7.218   2.851 -0.5985 -0.8682  0.3096
  906MOL0     H25024   4.303   6.825   2.759  0.4167  0.7956  0.1422
  906MOL0     H25025   4.150   7.687   3.306  2.3227  1.0189  0.1397
  906MOL0     H25026   4.083   7.901   3.577 -1.8143  2.0798 -0.9972
  906MOL0     H25027   4.091   7.874   3.394  0.2906  0.7321  0.4032
  906MOL0     H25028   3.949   7.839   3.491 -0.5159  1.8541  0.2362
  907MOL0     O25029   3.751   4.103   0.035 -1.2107  0.1142 -0.2646
  907MOL0     C25030   3.775   4.002  -0.037  0.2520  0.0740 -0.5476
  907MOL0     O25031   3.881   3.908  -0.025  0.1877 -0.0545 -0.0803
  907MOL0     C25032   3.954   3.924   0.083 -0.6467 -1.3501  1.2960
  907MOL0     C25033   3.928   3.855   0.199  0.1089 -0.2415 -0.0883
  907MOL0     C25034   3.997   3.870   0.320 -0.1361  0.1437 -0.4399
  907MOL0     C25035   4.098   3.966   0.327 -0.1500  0.1988  0.3014
  907MOL0     O25036   4.181   3.985   0.436  0.5276  0.9557  0.5694
  907MOL0     C25037   4.126   4.038   0.561 -0.1833  0.6620 -0.6397
  907MOL0     C25038   4.042   4.172   0.531  0.6288 -0.8024 -0.4656
  907MOL0     C25039   3.882   4.152   0.526  0.0432  0.9863 -0.2580
  907MOL0     C25040   3.809   4.228   0.647  0.1893 -0.8756  0.1417
  907MOL0     C25041   3.817   4.380   0.622  0.8063  0.0251 -0.0149
  907MOL0     C25042   3.771   4.455   0.743  0.5861  0.1166  0.4849
  907MOL0     C25043   3.820   4.596   0.759 -0.7964  0.0532 -0.1027
  907MOL0     C25044   3.736   4.655   0.876 -0.3950 -0.6703  0.9120
  907MOL0     N25045   3.760   4.795   0.897  0.1438 -0.2033 -1.2502
  907MOL0     C25046   3.705   4.892   0.819 -0.6823 -0.0255  0.1933
  907MOL0     C25047   3.769   5.007   0.848  0.1051  0.0106 -0.3469
  907MOL0     C25048   3.735   5.140   0.790  0.9451  0.5304  0.2634
  907MOL0     C25049   3.683   5.250   0.880  0.6183 -0.4392 -0.4690
  907MOL0     C25050   3.637   5.373   0.804 -0.0465  0.5421  0.1968
  907MOL0     C25051   3.488   5.367   0.769  0.3509 -0.3992 -0.4877
  907MOL0     O25052   3.450   5.491   0.700  0.2929 -0.5901  0.0938
  907MOL0     C25053   3.343   5.477   0.614 -1.4560  0.3688 -0.1980
  907MOL0     C25054   3.305   5.588   0.539  0.7067 -0.2140  0.7248
  907MOL0     C25055   3.192   5.579   0.449  0.4970 -1.0835 -0.7009
  907MOL0     C25056   3.160   5.708   0.370  0.4896  1.0224  0.7726
  907MOL0     C25057   3.109   5.466   0.455  0.2581 -0.5667 -0.2521
  907MOL0     C25058   2.984   5.448   0.374 -0.3305 -0.1230 -0.2874
  907MOL0     O25059   2.897   5.355   0.408  0.5243 -0.1291 -0.5480
  907MOL0     C25060   2.772   5.349   0.345 -0.0526  0.6424  0.0508
  907MOL0     C25061   2.745   5.240   0.271 -0.5150  0.1353  0.4430
  907MOL0     C25062   2.613   5.230   0.221  0.0518  0.0584  1.3118
  907MOL0     C25063   2.511   5.321   0.241  1.3642  0.1738  0.0926
  907MOL0     O25064   2.409   5.316   0.140 -0.9338 -0.2754 -0.0465
  907MOL0     C25065   2.348   5.437   0.102  0.5050  0.3536  0.4903
  907MOL0     C25066   2.237   5.406  -0.005  0.9839  0.4861  0.7246
  907MOL0     C25067   2.293   5.384  -0.149  0.0786 -0.1656  0.1993
  907MOL0     C25068   2.170   5.377  -0.242 -0.3872  0.1636 -0.2510
  907MOL0     C25069   2.173   5.491  -0.344 -0.3958 -0.0627  0.1592
  907MOL0     C25070   2.066   5.476  -0.448  0.9273  0.2498 -0.4804
  907MOL0     C25071   2.052   5.608  -0.520  0.3059  0.5276  1.3516
  907MOL0     C25072   1.965   5.608  -0.653  0.0974  0.1310 -0.8536
  907MOL0    Cl25073   1.806   5.519  -0.627 -0.0595  0.1408  0.3523
  907MOL0     C25074   2.540   5.431   0.320 -0.5510 -0.0852 -0.1584
  907MOL0     C25075   2.667   5.440   0.366 -0.8466  0.1298 -0.8496
  907MOL0     O25076   2.959   5.530   0.285 -0.7008 -0.2583  0.1602
  907MOL0     C25077   3.152   5.357   0.530 -0.6274  0.0697 -0.0506
  907MOL0     C25078   3.263   5.361   0.611  0.4723  0.0209  0.4450
  907MOL0     N25079   3.856   4.972   0.950 -0.5537  0.0212 -0.3590
  907MOL0     N25080   3.857   4.850   0.975 -0.9831  0.1320 -0.2140
  907MOL0     C25081   4.122   4.046   0.210  0.2511  0.1630 -0.3039
  907MOL0     C25082   4.056   4.027   0.088  0.1529  0.5302 -0.8065
  907MOL0     C25083   3.658   3.962  -0.121 -1.0396  0.5166  0.1179
  907MOL0     C25084   3.677   3.828  -0.168 -0.1718  0.2694  0.1388
  907MOL0     C25085   3.585   3.762  -0.253 -0.7896  0.6698 -0.0908
  907MOL0     C25086   3.468   3.836  -0.291  0.0577 -0.3984 -0.3995
  907MOL0     O25087   3.369   3.796  -0.376 -0.5816 -0.4655  0.3203
  907MOL0     C25088   3.399   3.668  -0.450  0.1152 -0.6156  0.3926
  907MOL0     C25089   3.357   3.687  -0.597 -0.0853  0.1631  0.6592
  907MOL0     C25090   3.451   3.787  -0.668 -1.1520 -0.1433 -0.6101
  907MOL0     C25091   3.391   3.831  -0.798  0.6563  0.2650 -0.3620
  907MOL0     C25092   3.476   3.918  -0.870 -0.0255  0.3531 -0.4537
  907MOL0     C25093   3.549   3.996  -0.929  0.7444 -0.7281 -0.6443
  907MOL0     C25094   3.453   3.968  -0.241  0.5293  0.7774  0.6589
  907MOL0     C25095   3.540   4.033  -0.158 -0.2950  1.0592  0.0082
  907MOL0     C25096   3.512   4.175  -0.130  0.3741 -0.7263  0.0194
  907MOL0     H25097   3.850   3.779   0.192  1.1262 -1.5999  2.0795
  907MOL0     H25098   3.970   3.815   0.409  0.0149  0.5694 -0.1225
  907MOL0     H25099   4.211   4.049   0.629  0.9791  0.8546 -2.0726
  907MOL0     H25100   4.056   3.974   0.614  0.0469  1.8604  1.1883
  907MOL0     H25101   4.066   4.236   0.617 -1.6755  0.8676 -0.9722
  907MOL0     H25102   4.068   4.221   0.437 -0.6188 -3.2477 -2.1812
  907MOL0     H25103   3.840   4.189   0.433  1.1971  0.0005 -1.2011
  907MOL0     H25104   3.868   4.044   0.537  1.5004  0.8929  1.0769
  907MOL0     H25105   3.704   4.197   0.646 -0.3024  0.7054  0.4047
  907MOL0     H25106   3.854   4.206   0.744 -0.8526 -0.5169  0.7313
  907MOL0     H25107   3.756   4.393   0.532 -3.7762 -3.6459  2.1576
  907MOL0     H25108   3.922   4.397   0.595  0.4491 -0.2137 -1.6383
  907MOL0     H25109   3.662   4.453   0.748  0.5707  1.3801  1.0101
  907MOL0     H25110   3.798   4.406   0.837 -1.0048  2.9998  2.6300
  907MOL0     H25111   3.806   4.657   0.669  0.6091  0.7170  0.0989
  907MOL0     H25112   3.926   4.597   0.785 -0.6616  1.1745 -0.6332
  907MOL0     H25113   3.631   4.644   0.849 -0.4020 -3.5654  1.7098
  907MOL0     H25114   3.762   4.600   0.968 -1.2742  0.0821  1.6275
  907MOL0     H25115   3.624   4.886   0.748 -0.5674  1.0303 -0.0493
  907MOL0     H25116   3.656   5.122   0.716 -0.2418  1.1551  1.3365
  907MOL0     H25117   3.818   5.182   0.732 -2.6320  3.8452 -2.9936
  907MOL0     H25118   3.595   5.200   0.924  0.8037 -1.9688 -1.7317
  907MOL0     H25119   3.766   5.273   0.948  0.2187 -0.8024  0.1593
  907MOL0     H25120   3.638   5.461   0.869 -2.1611 -1.0188  2.5169
  907MOL0     H25121   3.702   5.385   0.716  1.3654  3.1968  1.4813
  907MOL0     H25122   3.488   5.277   0.707 -0.0956  0.9910 -2.6246
  907MOL0     H25123   3.418   5.359   0.852  0.3786  0.8604 -0.3328
  907MOL0     H25124   3.374   5.670   0.559  0.4567 -0.2736  1.9361
  907MOL0     H25125   3.162   5.685   0.263 -1.8742 -0.2899  0.9527
  907MOL0     H25126   3.232   5.791   0.378  0.5605  0.9825  0.5535
  907MOL0     H25127   3.056   5.739   0.381  0.0318 -0.6049  1.3899
  907MOL0     H25128   2.824   5.168   0.250 -0.0251  0.3151  1.5898
  907MOL0     H25129   2.592   5.143   0.160 -0.5815 -0.1378  1.7987
  907MOL0     H25130   2.298   5.479   0.190 -2.4684 -3.6561  0.9922
  907MOL0     H25131   2.424   5.502   0.057  0.7217 -0.5224 -0.4465
  907MOL0     H25132   2.208   5.312   0.043 -1.0340  0.0875 -1.1008
  907MOL0     H25133   2.152   5.475  -0.001 -0.0662 -0.8242  3.6447
  907MOL0     H25134   2.353   5.293  -0.162  2.3912  1.5153 -1.7290
  907MOL0     H25135   2.355   5.472  -0.168  1.7739 -1.7442 -2.2760
  907MOL0     H25136   2.079   5.389  -0.182 -1.0314 -0.4155 -1.0790
  907MOL0     H25137   2.166   5.279  -0.290 -2.0718 -1.9859  3.8167
  907MOL0     H25138   2.156   5.581  -0.284 -0.5524 -1.6491  2.5932
  907MOL0     H25139   2.263   5.501  -0.406 -1.9108 -1.7816 -2.5727
  907MOL0     H25140   1.971   5.439  -0.409  2.2816 -1.1339  1.7460
  907MOL0     H25141   2.100   5.400  -0.519  1.0284 -3.4450  3.1468
  907MOL0     H25142   2.147   5.658  -0.538  0.0273  1.4826  2.3834
  907MOL0     H25143   2.010   5.686  -0.455  1.4331  1.2121  1.2870
  907MOL0     H25144   2.034   5.572  -0.730  1.1266  0.2759 -0.0309
  907MOL0     H25145   1.932   5.708  -0.683 -0.0884  0.1973 -0.4344
  907MOL0     H25146   2.469   5.511   0.337  0.9854  0.9808  1.7486
  907MOL0     H25147   2.701   5.525   0.425  0.7764 -0.5062 -0.8095
  907MOL0     H25148   3.102   5.260   0.527 -2.5207  0.9008 -5.5333
  907MOL0     H25149   3.278   5.270   0.667 -1.2908 -0.0296  0.9176
  907MOL0     H25150   4.200   4.121   0.213 -1.5216  2.0592 -0.0214
  907MOL0     H25151   4.087   4.091   0.006  0.0508  0.7286 -0.6928
  907MOL0     H25152   3.761   3.763  -0.146 -0.1978 -0.4473 -1.7133
  907MOL0     H25153   3.615   3.659  -0.270  0.4178  0.8683  0.6934
  907MOL0     H25154   3.506   3.646  -0.457 -0.1397 -1.4446 -1.9845
  907MOL0     H25155   3.338   3.583  -0.419 -2.0146 -1.1417 -4.3439
  907MOL0     H25156   3.255   3.728  -0.601 -0.5548 -0.7081  2.6151
  907MOL0     H25157   3.357   3.593  -0.654  1.5597  0.7928 -0.4445
  907MOL0     H25158   3.478   3.871  -0.604 -0.3926 -0.7178 -0.1446
  907MOL0     H25159   3.542   3.726  -0.680  0.8126  2.2194  1.1494
  907MOL0     H25160   3.294   3.875  -0.773 -0.3870 -1.8177 -0.6154
  907MOL0     H25161   3.372   3.743  -0.860 -0.7198 -0.2297  0.7200
  907MOL0     H25162   3.617   4.069  -0.968 -0.3814  1.1087  0.7125
  907MOL0     H25163   3.371   4.027  -0.281 -0.2494  1.6517  3.3269
  907MOL0     H25164   3.422   4.217  -0.175  0.2979  0.5339  1.2688
  907MOL0     H25165   3.490   4.193  -0.024 -5.0600 -0.3073 -0.9120
  907MOL0     H25166   3.597   4.237  -0.160  1.4132 -1.3387  1.5921
  908MOL0     O25167  10.074   4.017   7.424  0.5969 -0.1281  0.4880
  908MOL0     C25168  10.132   4.093   7.341  0.6191 -0.4020 -0.8278
  908MOL0     O25169  10.110   4.089   7.205 -0.6315 -0.4789 -0.4630
  908MOL0     C25170  10.038   3.991   7.155 -0.2947 -0.3248 -0.9441
  908MOL0     C25171   9.905   3.968   7.202 -0.1704  0.0287 -0.1550
  908MOL0     C25172   9.835   3.859   7.160  0.2554 -0.5521  0.4921
  908MOL0     C25173   9.890   3.774   7.063  0.8027 -0.2915 -1.0951
  908MOL0     O25174   9.833   3.662   7.001 -0.5756 -0.3728 -0.9029
  908MOL0     C25175   9.753   3.592   7.088  0.6621  0.0024 -0.1984
  908MOL0     C25176   9.820   3.505   7.202  1.0247  0.2232  0.0794
  908MOL0     C25177   9.933   3.416   7.173 -0.1723 -0.5932 -0.7631
  908MOL0     C25178   9.990   3.342   7.299 -0.7012  0.1635 -0.2956
  908MOL0     C25179  10.090   3.424   7.394 -0.0726 -0.2134 -0.0914
  908MOL0     C25180  10.194   3.503   7.321  1.1766  0.2871  0.0415
  908MOL0     C25181  10.173   3.657   7.351  0.3316 -0.4196  0.5298
  908MOL0     C25182  10.248   3.734   7.239  0.5794 -0.6289  0.6891
  908MOL0     N25183  10.392   3.728   7.239 -0.0281  0.3187 -1.0381
  908MOL0     C25184  10.473   3.630   7.190  0.4553  0.8985 -0.2615
  908MOL0     C25185  10.605   3.661   7.220 -0.2246  0.3609  0.4997
  908MOL0     C25186  10.725   3.579   7.184 -0.5115  0.4733  0.4999
  908MOL0     C25187  10.687   3.438   7.134 -0.1109 -0.6492  0.0965
  908MOL0     C25188  10.643   3.332   7.231 -0.2530 -0.0822  0.3010
  908MOL0     C25189  10.769   3.287   7.305 -0.7648  0.3512 -1.1453
  908MOL0     O25190  10.788   3.387   7.409  1.2303 -0.3807 -0.0862
  908MOL0     C25191  10.892   3.368   7.492 -0.2149  0.4299  0.5453
  908MOL0     C25192  10.885   3.447   7.609  0.2627  0.2054  0.4663
  908MOL0     C25193  10.984   3.449   7.706 -0.3900  0.4130 -0.5155
  908MOL0     C25194  10.951   3.535   7.832  0.9957  0.2191  0.1627
  908MOL0     C25195  11.104   3.379   7.691 -0.7707 -0.3538 -0.7472
  908MOL0     C25196  11.231   3.386   7.774  0.0463  0.2666  0.7387
  908MOL0     O25197  11.323   3.282   7.771 -0.1508 -0.1708  0.2696
  908MOL0     C25198  11.442   3.295   7.841  0.3684 -1.1905  0.9193
  908MOL0     C25199  11.470   3.352   7.969 -0.2403  0.0580 -0.7413
  908MOL0     C25200  11.604   3.359   8.016 -0.0081 -0.2996  0.6172
  908MOL0     C25201  11.711   3.318   7.930 -0.2742 -0.1937 -0.0070
  908MOL0     O25202  11.843   3.323   7.954  0.4943  0.0590 -0.7077
  908MOL0     C25203  11.873   3.401   8.069  0.0580  0.1310  0.6090
  908MOL0     C25204  12.022   3.423   8.073  0.5115  0.0855 -0.0742
  908MOL0     C25205  12.067   3.520   7.964  0.1704 -0.0096  0.3517
  908MOL0     C25206  12.217   3.540   7.971  0.0154  0.3182  0.8962
  908MOL0     C25207  12.313   3.421   7.946 -0.3792 -0.0443  0.3391
  908MOL0     C25208  12.460   3.479   7.944 -0.0441 -0.0781  0.5357
  908MOL0     C25209  12.567   3.380   7.899 -0.7002  0.2436 -0.0435
  908MOL0     C25210  12.706   3.453   7.904 -0.4648  0.3740  0.2832
  908MOL0    Cl25211  12.719   3.577   7.776  0.0945 -0.1207 -0.3947
  908MOL0     C25212  11.676   3.258   7.803 -0.5011  0.1586  0.9307
  908MOL0     C25213  11.545   3.241   7.768 -0.1793 -0.1801 -0.0540
  908MOL0     O25214  11.238   3.478   7.853  0.0140  0.0841 -0.7426
  908MOL0     C25215  11.104   3.284   7.589  0.5077  0.3915 -0.0659
  908MOL0     C25216  11.006   3.287   7.487 -0.1419  0.6283  0.2139
  908MOL0     N25217  10.600   3.790   7.282  0.5410 -0.3965  0.4601
  908MOL0     N25218  10.471   3.822   7.294 -0.3737 -0.2699  0.7383
  908MOL0     C25219  10.019   3.804   7.006  1.0576 -0.5658 -0.3851
  908MOL0     C25220  10.095   3.914   7.049 -0.0718 -0.7397 -0.0344
  908MOL0     C25221  10.227   4.190   7.399  0.8056 -0.7553 -0.0588
  908MOL0     C25222  10.300   4.143   7.507  0.4607  0.0607 -0.1168
  908MOL0     C25223  10.389   4.228   7.574 -0.7880 -0.7341 -0.7589
  908MOL0     C25224  10.417   4.353   7.528  0.3970 -0.2266 -1.2478
  908MOL0     O25225  10.513   4.437   7.581 -0.3769 -0.1529  0.0692
  908MOL0     C25226  10.610   4.370   7.655 -0.1566 -0.3647 -0.9580
  908MOL0     C25227  10.735   4.460   7.683 -0.4060 -0.4935  0.3873
  908MOL0     C25228  10.806   4.490   7.548  0.4806 -0.3563 -0.1583
  908MOL0     C25229  10.933   4.584   7.557  1.2938 -1.2172 -0.1706
  908MOL0     C25230  11.039   4.526   7.636  0.3205 -0.5951 -0.2767
  908MOL0     C25231  11.124   4.483   7.715 -0.1063 -0.7495  0.8330
  908MOL0     C25232  10.345   4.399   7.419 -1.1173 -0.1329 -0.4594
  908MOL0     C25233  10.257   4.319   7.344  0.3412 -0.2703 -0.2569
  908MOL0     C25234  10.193   4.374   7.217  0.9676 -0.1261  0.3244
  908MOL0     H25235   9.866   4.033   7.280 -1.4279 -0.5187 -0.3060
  908MOL0     H25236   9.743   3.846   7.216 -0.7009 -1.3275 -1.1853
  908MOL0     H25237   9.697   3.519   7.028  0.6699 -2.4629  2.6061
  908MOL0     H25238   9.673   3.658   7.124  1.5873  1.6143 -0.9476
  908MOL0     H25239   9.840   3.570   7.287 -1.8144 -1.2343  2.0425
  908MOL0     H25240   9.747   3.431   7.236 -2.3762  0.4501 -5.4432
  908MOL0     H25241   9.896   3.333   7.111  0.9065  0.5259 -3.0343
  908MOL0     H25242  10.005   3.480   7.121  0.4678 -1.2386 -0.6800
  908MOL0     H25243   9.899   3.317   7.355 -0.4172 -0.3276 -0.0484
  908MOL0     H25244  10.041   3.257   7.254 -0.6536  1.4005 -2.7455
  908MOL0     H25245  10.124   3.350   7.467 -3.5215  0.0185  1.9751
  908MOL0     H25246  10.028   3.492   7.453  0.9069 -0.5028  1.3366
  908MOL0     H25247  10.294   3.465   7.345  0.6475 -2.5144 -1.7081
  908MOL0     H25248  10.183   3.483   7.214 -0.8148  0.3511  0.2051
  908MOL0     H25249  10.211   3.683   7.450 -1.9445  1.3161  1.0140
  908MOL0     H25250  10.068   3.683   7.336  1.1935  3.0823 -0.3884
  908MOL0     H25251  10.204   3.693   7.147  1.2534 -1.0446  0.5492
  908MOL0     H25252  10.224   3.841   7.244  1.7327 -0.3850  5.3797
  908MOL0     H25253  10.423   3.553   7.132 -0.5747  2.5789 -1.7055
  908MOL0     H25254  10.787   3.580   7.274 -0.1953 -0.9553  0.3314
  908MOL0     H25255  10.782   3.632   7.107 -0.8214  2.3341  1.4961
  908MOL0     H25256  10.605   3.441   7.062  1.8441  0.0769 -2.2860
  908MOL0     H25257  10.780   3.404   7.085  1.0007  0.9257  1.0237
  908MOL0     H25258  10.575   3.370   7.307  1.3501  1.3846  1.0581
  908MOL0     H25259  10.606   3.242   7.180  1.8900 -1.6015  1.3198
  908MOL0     H25260  10.755   3.194   7.362 -0.2327  1.8822  1.6836
  908MOL0     H25261  10.858   3.276   7.242 -0.9141 -2.1167 -1.0041
  908MOL0     H25262  10.795   3.507   7.615 -1.2517 -1.6981 -1.5640
  908MOL0     H25263  10.912   3.633   7.803  0.8070 -0.5767 -2.5756
  908MOL0     H25264  11.037   3.553   7.897  1.8162 -1.0646 -0.5272
  908MOL0     H25265  10.878   3.485   7.897  0.8870  1.8207  1.3137
  908MOL0     H25266  11.389   3.395   8.028 -1.0223 -2.0869 -0.1342
  908MOL0     H25267  11.631   3.402   8.113  0.4173 -0.4772  0.5754
  908MOL0     H25268  11.824   3.499   8.070  1.3775  1.1190 -4.6822
  908MOL0     H25269  11.851   3.342   8.159  0.5785  0.5728  1.0318
  908MOL0     H25270  12.050   3.469   8.169  2.1915  1.7661 -1.2947
  908MOL0     H25271  12.074   3.328   8.060  1.5540  0.3163  1.9755
  908MOL0     H25272  12.008   3.611   7.980  4.4055  3.1251 -0.2104
  908MOL0     H25273  12.044   3.479   7.864 -1.4042  3.9114 -1.0754
  908MOL0     H25274  12.238   3.585   8.068 -1.0328  0.6189  0.9928
  908MOL0     H25275  12.247   3.610   7.892  0.0243 -1.2995 -0.5840
  908MOL0     H25276  12.299   3.334   8.009 -1.8864  0.1589  0.3178
  908MOL0     H25277  12.287   3.381   7.847 -1.5375 -1.2567  1.1130
  908MOL0     H25278  12.484   3.509   8.046 -2.2415  3.1743  0.2619
  908MOL0     H25279  12.471   3.560   7.872  2.3939 -0.8129  0.0064
  908MOL0     H25280  12.541   3.347   7.798  0.8671  3.4689 -1.6540
  908MOL0     H25281  12.568   3.299   7.972  3.3752 -1.1054 -1.3360
  908MOL0     H25282  12.785   3.378   7.896 -0.8394  0.1213 -1.4551
  908MOL0     H25283  12.703   3.509   7.998 -1.4028 -0.8277  1.0012
  908MOL0     H25284  11.759   3.217   7.745 -0.4319  1.8864 -0.2697
  908MOL0     H25285  11.521   3.182   7.680 -0.9036  2.4187 -1.7366
  908MOL0     H25286  11.194   3.226   7.576 -1.8200 -3.7129  0.3770
  908MOL0     H25287  11.028   3.224   7.401  0.4489  1.6010 -0.3850
  908MOL0     H25288  10.048   3.728   6.934 -2.6305  0.1004 -2.9160
  908MOL0     H25289  10.196   3.936   7.018 -0.9996  3.4021 -0.6717
  908MOL0     H25290  10.283   4.043   7.546  1.5358  0.6486  2.0465
  908MOL0     H25291  10.450   4.201   7.659  0.7141 -0.8244 -1.8181
  908MOL0     H25292  10.562   4.345   7.749  0.9520  1.9634  0.3154
  908MOL0     H25293  10.640   4.274   7.611  1.5655 -0.0130 -0.6165
  908MOL0     H25294  10.799   4.403   7.751 -2.1952  0.6633  3.2449
  908MOL0     H25295  10.698   4.552   7.730 -0.5028  0.0571 -0.7352
  908MOL0     H25296  10.829   4.391   7.509 -1.2984 -0.0495 -2.2465
  908MOL0     H25297  10.732   4.540   7.484  1.0109 -0.0697 -0.5546
  908MOL0     H25298  10.900   4.682   7.595 -1.2837 -1.4662 -1.5128
  908MOL0     H25299  10.966   4.605   7.455 -1.0534  1.5353 -0.5011
  908MOL0     H25300  11.202   4.451   7.781 -1.8437 -2.1530  2.2877
  908MOL0     H25301  10.387   4.495   7.394  1.4630 -1.3442 -1.0454
  908MOL0     H25302  10.085   4.364   7.203  0.8183  2.4794 -0.9660
  908MOL0     H25303  10.207   4.482   7.217 -1.0907  0.1943  1.1908
  908MOL0     H25304  10.251   4.337   7.132  1.6264  0.6565  0.4339
  909MOL0     O25305   8.183   4.634   5.509  0.1657 -0.8618 -0.2965
  909MOL0     C25306   8.137   4.731   5.574  0.2206  0.0022  0.3192
  909MOL0     O25307   7.999   4.753   5.587 -0.6302 -0.2045 -0.0646
  909MOL0     C25308   7.910   4.663   5.532  0.5094 -0.3483 -0.8204
  909MOL0     C25309   7.908   4.526   5.544 -0.7024 -0.2022  0.1667
  909MOL0     C25310   7.800   4.447   5.489  0.1501  0.8150  0.6320
  909MOL0     C25311   7.700   4.501   5.412 -0.0393 -0.7948  0.6864
  909MOL0     O25312   7.603   4.417   5.364  0.5706  0.0351  0.0566
  909MOL0     C25313   7.522   4.451   5.244 -0.7293  0.0649 -0.3027
  909MOL0     C25314   7.510   4.318   5.170  0.3249  0.0915  0.0641
  909MOL0     C25315   7.424   4.221   5.240 -0.3090  0.9024  0.5634
  909MOL0     C25316   7.456   4.071   5.185  0.1154 -1.3929 -0.1520
  909MOL0     C25317   7.365   3.960   5.237  0.3651  0.6807  0.2421
  909MOL0     C25318   7.355   3.954   5.396  0.1789 -0.0063  0.3344
  909MOL0     C25319   7.280   3.827   5.434  0.2907  0.3290  0.1744
  909MOL0     C25320   7.215   3.861   5.563  0.5981  0.2619  0.0485
  909MOL0     N25321   7.152   3.736   5.616 -0.1782  0.6421  0.5363
  909MOL0     C25322   7.049   3.666   5.555  0.0913  0.0385 -0.6778
  909MOL0     C25323   7.007   3.578   5.649  0.4216 -0.4365 -0.0734
  909MOL0     C25324   6.902   3.479   5.618  0.0371  1.4535  0.3965
  909MOL0     C25325   6.816   3.468   5.744  0.0230  0.5950 -0.6067
  909MOL0     C25326   6.866   3.391   5.874 -0.2685  1.4488  0.4846
  909MOL0     C25327   6.896   3.243   5.848  0.4808  0.5367  0.2764
  909MOL0     O25328   6.928   3.185   5.975 -0.4775 -0.3121  0.1190
  909MOL0     C25329   6.955   3.050   5.977  0.3106 -0.4702  0.3290
  909MOL0     C25330   6.975   3.002   6.108  0.3109  0.6359  0.0207
  909MOL0     C25331   7.029   2.877   6.130  0.3313  0.1877  0.1590
  909MOL0     C25332   7.074   2.836   6.266 -0.4593 -0.9304 -0.2053
  909MOL0     C25333   7.052   2.795   6.017  0.5098 -0.6555 -0.4567
  909MOL0     C25334   7.078   2.652   6.032 -0.3231 -0.5125 -0.3129
  909MOL0     O25335   7.189   2.606   5.968 -0.3936  1.0046  0.5585
  909MOL0     C25336   7.220   2.475   5.991 -0.0227  0.0422 -0.2250
  909MOL0     C25337   7.145   2.373   5.934  0.0873 -0.9161  0.1155
  909MOL0     C25338   7.186   2.241   5.950  1.3581 -0.2369 -0.1754
  909MOL0     C25339   7.313   2.219   6.003  0.1577 -0.2323  0.4193
  909MOL0     O25340   7.350   2.088   6.009  0.9321 -0.0117  0.5676
  909MOL0     C25341   7.487   2.049   6.031 -0.6059  0.3885  0.1778
  909MOL0     C25342   7.501   1.901   5.996 -0.3530  0.7530  0.2701
  909MOL0     C25343   7.446   1.811   6.100 -1.0132 -0.2027  0.0117
  909MOL0     C25344   7.472   1.663   6.066  0.2422 -0.4830  0.0270
  909MOL0     C25345   7.427   1.573   6.186 -0.0147  0.0222  0.5504
  909MOL0     C25346   7.442   1.423   6.145  0.2679  0.6365 -1.1823
  909MOL0     C25347   7.417   1.334   6.271  0.5525 -0.4610  0.1190
  909MOL0     C25348   7.509   1.350   6.385 -0.2127  0.1153 -0.3235
  909MOL0    Cl25349   7.445   1.242   6.508  0.3037  0.0150 -0.4938
  909MOL0     C25350   7.397   2.321   6.052  0.2822  0.0922 -0.0386
  909MOL0     C25351   7.349   2.458   6.052 -0.1419  0.0353  0.4582
  909MOL0     O25352   7.018   2.591   6.119  0.2306  0.3804  0.1676
  909MOL0     C25353   7.029   2.845   5.896 -1.1345 -0.0118 -0.2075
  909MOL0     C25354   6.983   2.973   5.872 -0.8536  0.7016 -0.0260
  909MOL0     N25355   7.100   3.586   5.746  0.2123 -0.3457 -1.1611
  909MOL0     N25356   7.182   3.692   5.738  0.7349  0.6731  0.5074
  909MOL0     C25357   7.706   4.634   5.386 -0.3837 -0.2960  0.7964
  909MOL0     C25358   7.807   4.714   5.447 -0.3510  0.2008  0.1082
  909MOL0     C25359   8.227   4.817   5.651  0.6505 -0.1770  0.2212
  909MOL0     C25360   8.174   4.911   5.745  0.6521  0.6783  0.3301
  909MOL0     C25361   8.255   5.008   5.808 -0.0860  0.8120  0.8374
  909MOL0     C25362   8.390   5.006   5.786 -0.3128  0.7219 -0.0630
  909MOL0     O25363   8.467   5.108   5.831 -0.2623  0.4915  0.5818
  909MOL0     C25364   8.408   5.236   5.813  0.2693  0.3931  0.4239
  909MOL0     C25365   8.417   5.271   5.656 -0.0361 -0.0179  0.0251
  909MOL0     C25366   8.560   5.275   5.594  0.7750  0.0449  0.4690
  909MOL0     C25367   8.563   5.249   5.442  0.1465  0.0411 -0.6150
  909MOL0     C25368   8.565   5.104   5.414 -0.0932  0.2159 -0.7726
  909MOL0     C25369   8.561   4.986   5.373 -0.3201  0.6529  0.5283
  909MOL0     C25370   8.448   4.913   5.704  0.2723 -0.0087  0.7737
  909MOL0     C25371   8.370   4.823   5.624  0.7166 -0.2943  0.0126
  909MOL0     C25372   8.447   4.729   5.530 -0.2667  0.4468 -0.1018
  909MOL0     H25373   7.993   4.471   5.584 -0.5556 -0.0797  0.0276
  909MOL0     H25374   7.806   4.343   5.521 -3.3837  1.0843  2.8106
  909MOL0     H25375   7.578   4.512   5.174 -0.3746 -0.5137 -0.5289
  909MOL0     H25376   7.427   4.503   5.261 -0.4788  0.6522 -0.6561
  909MOL0     H25377   7.480   4.326   5.065  0.3496  1.3030  0.1374
  909MOL0     H25378   7.614   4.287   5.163 -0.5759 -3.0492 -1.3722
  909MOL0     H25379   7.444   4.223   5.348 -3.2259  0.3648  1.1996
  909MOL0     H25380   7.316   4.234   5.236 -0.6093 -1.4090  0.1106
  909MOL0     H25381   7.456   4.073   5.075  0.9239  1.9814 -0.1773
  909MOL0     H25382   7.562   4.056   5.210  0.6137  0.0266 -1.2653
  909MOL0     H25383   7.400   3.867   5.192  0.7401  0.3585  1.1789
  909MOL0     H25384   7.269   3.982   5.191  0.6084  1.2413 -0.0152
  909MOL0     H25385   7.455   3.947   5.441  1.0601  1.4491 -1.2428
  909MOL0     H25386   7.318   4.046   5.440  2.4562  1.3620 -0.4032
  909MOL0     H25387   7.344   3.739   5.433 -0.4029 -0.2209 -2.2592
  909MOL0     H25388   7.207   3.814   5.354  0.0790 -0.4038  0.4812
  909MOL0     H25389   7.287   3.912   5.627  0.6357 -0.2905  0.4484
  909MOL0     H25390   7.131   3.930   5.549 -2.1511 -3.0018 -0.8821
  909MOL0     H25391   6.996   3.680   5.461 -0.7529 -1.5053 -0.4694
  909MOL0     H25392   6.946   3.380   5.608 -0.3683  1.2514  0.5663
  909MOL0     H25393   6.853   3.501   5.522  0.5915  0.5397 -0.1022
  909MOL0     H25394   6.790   3.569   5.777  0.7658  0.9998 -1.2372
  909MOL0     H25395   6.733   3.411   5.701  0.9145 -1.6746  0.5304
  909MOL0     H25396   6.950   3.437   5.927  0.2285  0.2069  0.8030
  909MOL0     H25397   6.788   3.395   5.950 -2.7845  0.0779 -1.8216
  909MOL0     H25398   6.821   3.183   5.796  1.0576 -1.7054  1.8448
  909MOL0     H25399   6.996   3.243   5.802  1.6444 -2.8410  2.3991
  909MOL0     H25400   6.963   3.065   6.196 -0.3977  1.3464 -0.5670
  909MOL0     H25401   6.989   2.823   6.334  1.1301  2.7594  2.8527
  909MOL0     H25402   7.127   2.920   6.312 -0.7352 -0.4820 -0.6881
  909MOL0     H25403   7.133   2.745   6.261 -0.7560 -1.0575 -3.6827
  909MOL0     H25404   7.045   2.397   5.898  0.2373  0.6910  0.6908
  909MOL0     H25405   7.126   2.154   5.925 -0.9560  1.5533 -1.1562
  909MOL0     H25406   7.554   2.107   5.966  0.4931  0.8376  1.6616
  909MOL0     H25407   7.517   2.055   6.136  0.3862 -1.0531  0.0174
  909MOL0     H25408   7.454   1.880   5.900 -1.0203 -0.8748  0.9174
  909MOL0     H25409   7.609   1.886   5.987 -0.4943 -0.6596  0.7318
  909MOL0     H25410   7.338   1.823   6.111 -0.9169  1.8875 -0.9486
  909MOL0     H25411   7.495   1.826   6.197 -0.4106 -0.6882 -0.2115
  909MOL0     H25412   7.579   1.656   6.046  0.4268  3.4013 -1.2060
  909MOL0     H25413   7.415   1.635   5.977 -1.2875  0.3322  0.7086
  909MOL0     H25414   7.481   1.593   6.279  1.6976  0.1435 -0.4205
  909MOL0     H25415   7.321   1.598   6.185  0.5511  3.1212 -2.8276
  909MOL0     H25416   7.541   1.401   6.104  0.8878 -0.1239  0.6461
  909MOL0     H25417   7.360   1.410   6.074 -4.1963  0.3427  3.4803
  909MOL0     H25418   7.427   1.233   6.230 -1.8409 -0.9712  0.6180
  909MOL0     H25419   7.316   1.357   6.308 -0.4293 -0.7300 -2.2422
  909MOL0     H25420   7.506   1.452   6.424 -0.4542 -0.2188  0.5566
  909MOL0     H25421   7.611   1.330   6.350 -0.9791 -0.7224 -2.2241
  909MOL0     H25422   7.496   2.304   6.092 -0.3566 -2.9245  0.4842
  909MOL0     H25423   7.405   2.542   6.092  0.4394 -0.7503  1.3479
  909MOL0     H25424   7.043   2.780   5.811 -1.5232 -0.5213  0.1093
  909MOL0     H25425   6.962   3.001   5.770 -1.5350  0.1499 -0.0411
  909MOL0     H25426   7.643   4.675   5.309  0.7015 -0.2827 -0.1142
  909MOL0     H25427   7.803   4.822   5.441 -1.5965  1.5820  9.7314
  909MOL0     H25428   8.068   4.926   5.764  0.5265  0.0821  0.1373
  909MOL0     H25429   8.203   5.076   5.875 -1.9949 -0.1263  0.3966
  909MOL0     H25430   8.311   5.251   5.861  0.8686  0.0364  1.7844
  909MOL0     H25431   8.472   5.315   5.854 -0.7894  2.3387 -1.4459
  909MOL0     H25432   8.367   5.367   5.639 -1.0160 -0.5749 -0.3128
  909MOL0     H25433   8.361   5.197   5.598  3.2794 -2.5631 -0.2685
  909MOL0     H25434   8.590   5.380   5.605  0.9281  0.2822 -1.7039
  909MOL0     H25435   8.624   5.207   5.651  1.6924  2.1071  2.0255
  909MOL0     H25436   8.655   5.288   5.398  1.6967  0.5653  2.7650
  909MOL0     H25437   8.477   5.289   5.388 -0.8756 -1.3138 -0.0545
  909MOL0     H25438   8.566   4.886   5.334 -3.5562  0.3811  0.6078
  909MOL0     H25439   8.554   4.934   5.692 -0.0563  1.0797 -0.5761
  909MOL0     H25440   8.394   4.750   5.436 -0.2457  1.1088  0.0309
  909MOL0     H25441   8.555   4.743   5.522 -0.1333 -0.6892 -0.4618
  909MOL0     H25442   8.430   4.627   5.566 -0.9810  0.0722 -1.4190
  910MOL0     O25443   1.900   2.676   1.953 -0.9217 -0.7983  0.1210
  910MOL0     C25444   1.785   2.700   1.913 -1.3571  0.8182 -0.0849
  910MOL0     O25445   1.730   2.667   1.790  0.0689 -0.3003  0.7678
  910MOL0     C25446   1.814   2.606   1.693 -0.4726  0.9573  0.1132
  910MOL0     C25447   1.845   2.663   1.565  0.3520 -0.3352 -0.2613
  910MOL0     C25448   1.925   2.589   1.477  0.4952 -0.7045  0.5128
  910MOL0     C25449   1.975   2.466   1.496 -0.3158  0.0322 -0.0495
  910MOL0     O25450   2.061   2.417   1.403  0.2772 -0.3870 -0.0898
  910MOL0     C25451   2.060   2.287   1.362 -0.5323  0.1443 -0.3718
  910MOL0     C25452   1.926   2.258   1.282  0.3225 -0.0029  0.2039
  910MOL0     C25453   1.942   2.294   1.137  0.1042  0.1010  0.9827
  910MOL0     C25454   1.806   2.268   1.057 -0.4482  0.2378 -0.8414
  910MOL0     C25455   1.803   2.294   0.901 -0.2076 -0.4398 -0.7197
  910MOL0     C25456   1.683   2.266   0.818  0.2303 -0.4571 -0.1019
  910MOL0     C25457   1.642   2.123   0.814 -0.3791  0.1859 -0.3837
  910MOL0     C25458   1.489   2.097   0.803  0.4836  0.7059 -0.6236
  910MOL0     N25459   1.405   2.121   0.932  0.0532 -0.8348 -0.2011
  910MOL0     C25460   1.281   2.063   0.958 -0.2453 -0.8169 -0.1905
  910MOL0     C25461   1.243   2.101   1.086  0.2185 -0.2205 -0.1268
  910MOL0     C25462   1.128   2.058   1.173  0.1746  0.9725  0.5080
  910MOL0     C25463   0.995   2.049   1.098  0.7116 -0.1094 -0.0241
  910MOL0     C25464   0.888   1.978   1.175  0.5279 -0.3630 -0.6031
  910MOL0     C25465   0.766   1.959   1.093  0.4055 -0.1411 -0.6181
  910MOL0     O25466   0.791   1.857   1.003  0.7803  0.2412  1.2604
  910MOL0     C25467   0.724   1.882   0.883  0.1371 -0.4232 -0.3610
  910MOL0     C25468   0.769   1.968   0.776 -0.0771 -0.1714  1.3320
  910MOL0     C25469   0.692   1.999   0.669 -1.1012 -1.0791 -0.0621
  910MOL0     C25470   0.754   2.095   0.573  0.5805  0.3117  0.4918
  910MOL0     C25471   0.566   1.941   0.650 -0.1141  0.1119  0.7629
  910MOL0     C25472   0.470   1.974   0.545  0.3467  0.1201  0.0569
  910MOL0     O25473   0.362   1.894   0.542 -0.0320  0.1465 -0.1699
  910MOL0     C25474   0.282   1.883   0.426  0.2226  0.7187  0.2158
  910MOL0     C25475   0.295   1.941   0.301  0.0789  0.1678  0.5163
  910MOL0     C25476   0.213   1.907   0.187  0.8630 -0.6597  0.2667
  910MOL0     C25477   0.112   1.817   0.200  0.7427  1.2631  0.4134
  910MOL0     O25478   0.033   1.776   0.097  0.5226 -0.2071  0.2653
  910MOL0     C25479   0.097   1.707  -0.011 -0.4194 -0.1872 -0.5153
  910MOL0     C25480   0.009   1.598  -0.048  0.0099  0.7580 -0.0393
  910MOL0     C25481   0.060   1.508  -0.164 -0.4654 -1.3410 -0.6915
  910MOL0     C25482   0.193   1.437  -0.134  0.8005 -0.0476 -0.2500
  910MOL0     C25483   0.236   1.364  -0.266 -0.3021 -0.5452 -0.6730
  910MOL0     C25484   0.375   1.293  -0.243  0.5305  0.2722  0.4824
  910MOL0     C25485   0.507   1.363  -0.237 -0.4946 -0.2047  0.6464
  910MOL0     C25486   0.560   1.381  -0.094  0.0356 -0.2091  0.0470
  910MOL0    Cl25487   0.738   1.381  -0.110 -0.1883 -0.0491  0.5586
  910MOL0     C25488   0.084   1.761   0.329  0.0315  1.2398 -0.4545
  910MOL0     C25489   0.170   1.799   0.438 -0.7282  0.5222 -0.3369
  910MOL0     O25490   0.487   2.077   0.485  0.2677  0.3628  0.7403
  910MOL0     C25491   0.526   1.845   0.750 -0.0596 -0.7094 -0.2900
  910MOL0     C25492   0.601   1.818   0.863 -0.1150 -0.2548  0.2084
  910MOL0     N25493   1.329   2.193   1.125 -0.3836 -0.2361  0.5000
  910MOL0     N25494   1.429   2.206   1.037  0.3091  0.9904  0.9095
  910MOL0     C25495   1.938   2.401   1.612 -0.2031  0.1112  0.8155
  910MOL0     C25496   1.853   2.470   1.709 -0.3413  0.3086  0.0007
  910MOL0     C25497   1.721   2.813   1.994 -0.6576  0.1454  0.5855
  910MOL0     C25498   1.756   2.827   2.127 -0.1902  0.3461  0.6222
  910MOL0     C25499   1.718   2.936   2.205 -0.1952  0.4227  0.4791
  910MOL0     C25500   1.644   3.035   2.157  0.8511  0.3620  0.5188
  910MOL0     O25501   1.622   3.130   2.246  0.3898 -0.0410 -0.3919
  910MOL0     C25502   1.533   3.245   2.224 -0.7415  0.6219 -0.0164
  910MOL0     C25503   1.612   3.342   2.147  0.0385 -0.3216 -0.1625
  910MOL0     C25504   1.746   3.383   2.211 -0.2210  0.4340  0.2901
  910MOL0     C25505   1.839   3.411   2.101  0.2382 -0.3975 -0.2715
  910MOL0     C25506   1.809   3.539   2.035  0.1137  0.5056 -0.2507
  910MOL0     C25507   1.784   3.638   1.978  0.7020  0.9059  0.2811
  910MOL0     C25508   1.599   3.024   2.031  0.4704 -0.7753  0.0055
  910MOL0     C25509   1.639   2.921   1.941  0.5015  0.5506  0.6866
  910MOL0     C25510   1.591   2.916   1.797  0.9351 -1.3732 -0.1470
  910MOL0     H25511   1.802   2.760   1.537 -2.1830 -1.6633 -1.3743
  910MOL0     H25512   1.959   2.640   1.387 -0.7257  0.5090  0.7079
  910MOL0     H25513   2.068   2.229   1.455  0.8422  1.9508  0.7080
  910MOL0     H25514   2.132   2.268   1.282 -1.9611  0.1323 -1.6843
  910MOL0     H25515   1.903   2.152   1.296  3.8797 -1.1187 -1.4174
  910MOL0     H25516   1.849   2.321   1.328  0.1058 -0.2697  0.2111
  910MOL0     H25517   1.991   2.392   1.130  1.1520 -0.2384  2.9740
  910MOL0     H25518   2.004   2.219   1.087 -2.1693 -0.8579 -0.5984
  910MOL0     H25519   1.788   2.161   1.072 -4.0469  0.8218  0.1281
  910MOL0     H25520   1.721   2.327   1.093 -1.4885 -1.5636 -0.1999
  910MOL0     H25521   1.887   2.234   0.866  1.1484  0.1943  1.2514
  910MOL0     H25522   1.821   2.402   0.896  1.6966 -0.6482  0.6129
  910MOL0     H25523   1.601   2.318   0.868  2.8029  0.8176  3.1190
  910MOL0     H25524   1.695   2.297   0.713  1.4043 -1.2394 -0.2169
  910MOL0     H25525   1.681   2.079   0.907  0.3840 -0.0883 -0.8235
  910MOL0     H25526   1.686   2.073   0.727  0.1077 -0.4933  0.2378
  910MOL0     H25527   1.443   2.157   0.724 -2.6928 -0.2877  0.3335
  910MOL0     H25528   1.483   1.991   0.774 -1.0531  0.8536 -0.9212
  910MOL0     H25529   1.235   1.988   0.895 -1.1689  0.0349 -0.5559
  910MOL0     H25530   1.118   2.130   1.254  2.8164  3.2922 -1.0559
  910MOL0     H25531   1.154   1.960   1.213  1.4445  1.3199  0.5891
  910MOL0     H25532   0.948   2.145   1.074 -1.9080 -0.5564  2.7658
  910MOL0     H25533   1.010   1.999   1.002 -0.2764 -1.7999  0.6614
  910MOL0     H25534   0.925   1.880   1.205  4.4929  1.2075  0.2767
  910MOL0     H25535   0.858   2.019   1.272 -1.3981  0.9132 -1.6630
  910MOL0     H25536   0.672   1.941   1.147  0.1490 -0.6046 -1.2079
  910MOL0     H25537   0.753   2.051   1.035  0.9507 -0.5051 -1.3244
  910MOL0     H25538   0.861   2.025   0.789  2.0434 -3.2106  0.8722
  910MOL0     H25539   0.724   2.081   0.468  0.7799  3.7221 -0.1549
  910MOL0     H25540   0.863   2.099   0.585  0.5556  4.7667  1.0496
  910MOL0     H25541   0.719   2.197   0.593 -2.5194 -0.0748 -2.1348
  910MOL0     H25542   0.368   2.021   0.287  0.7309 -0.3123  1.1205
  910MOL0     H25543   0.225   1.968   0.098  1.0617 -1.1399 -0.0362
  910MOL0     H25544   0.109   1.766  -0.102 -1.1976 -2.5263 -2.2581
  910MOL0     H25545   0.192   1.674   0.031 -0.7764  0.4403  0.8051
  910MOL0     H25546  -0.003   1.552   0.050  2.7533 -0.2417 -0.0742
  910MOL0     H25547  -0.091   1.633  -0.074 -0.0592  0.7938  0.2774
  910MOL0     H25548   0.071   1.562  -0.258  1.2067  0.8043  0.6523
  910MOL0     H25549  -0.015   1.429  -0.178  0.1074 -1.9730 -0.2923
  910MOL0     H25550   0.168   1.372  -0.050  0.3946  2.1659  1.4355
  910MOL0     H25551   0.269   1.507  -0.097 -0.1358  3.4761 -4.1895
  910MOL0     H25552   0.155   1.295  -0.290  0.6583 -1.3712 -1.6616
  910MOL0     H25553   0.246   1.437  -0.348 -0.0571  1.1417  0.7904
  910MOL0     H25554   0.387   1.225  -0.328 -0.1707 -0.1512  0.7117
  910MOL0     H25555   0.362   1.234  -0.151 -2.1086 -0.8685 -0.5238
  910MOL0     H25556   0.500   1.464  -0.278  2.2891  0.7325  2.1640
  910MOL0     H25557   0.587   1.309  -0.289  2.3737  1.2510  3.1560
  910MOL0     H25558   0.530   1.296  -0.032  0.4578  0.7014  1.5650
  910MOL0     H25559   0.509   1.469  -0.055 -2.3231 -0.3726 -2.3895
  910MOL0     H25560  -0.005   1.700   0.344  0.9995 -0.4808 -1.4591
  910MOL0     H25561   0.158   1.748   0.533 -2.9940 -0.8047 -1.2541
  910MOL0     H25562   0.437   1.785   0.741 -2.2773  2.6052 -3.7955
  910MOL0     H25563   0.578   1.738   0.933 -0.9043  1.0987  1.5675
  910MOL0     H25564   1.975   2.307   1.651 -0.9828 -0.7281 -0.4120
  910MOL0     H25565   1.806   2.416   1.790  0.3575  2.8843  2.2594
  910MOL0     H25566   1.810   2.745   2.173 -0.9721 -0.5143  0.0578
  910MOL0     H25567   1.763   2.930   2.304  1.7833  1.4957 -0.3128
  910MOL0     H25568   1.446   3.208   2.169 -0.4064 -2.0099  1.0953
  910MOL0     H25569   1.510   3.275   2.327  0.9478  2.2913 -0.0825
  910MOL0     H25570   1.556   3.435   2.131  0.0304  0.2727  2.7411
  910MOL0     H25571   1.631   3.294   2.051 -0.1397  1.7624 -1.3070
  910MOL0     H25572   1.740   3.472   2.275 -1.8017  0.4656  0.1437
  910MOL0     H25573   1.786   3.302   2.273  1.6196 -2.7496 -4.4745
  910MOL0     H25574   1.841   3.323   2.036  1.2903 -1.2563  0.8801
  910MOL0     H25575   1.938   3.415   2.147  0.2589  0.6475 -0.3938
  910MOL0     H25576   1.761   3.732   1.932 -1.6744 -0.9331 -2.6928
  910MOL0     H25577   1.522   3.088   1.991 -0.2353 -3.1922 -2.8696
  910MOL0     H25578   1.532   3.004   1.771 -1.2711 -2.7572 -0.0884
  910MOL0     H25579   1.679   2.908   1.732  1.0229 -0.0317 -0.2212
  910MOL0     H25580   1.526   2.829   1.791  0.2049 -0.7587 -4.9000
  911MOL0     O25581   1.551   9.719   9.584 -0.3607  0.1896  0.4761
  911MOL0     C25582   1.618   9.807   9.626 -0.6655  0.1510  0.0271
  911MOL0     O25583   1.582   9.935   9.635  0.0195  0.7568 -0.0367
  911MOL0     C25584   1.452   9.974   9.626 -0.7520  0.2123 -0.8631
  911MOL0     C25585   1.412  10.042   9.508 -0.4414  0.2239  0.5519
  911MOL0     C25586   1.268  10.071   9.491 -0.1489  0.3672  0.0504
  911MOL0     C25587   1.182  10.055   9.603 -0.1063  0.4767  0.3140
  911MOL0     O25588   1.054  10.087   9.613 -0.1762  0.6325  0.9346
  911MOL0     C25589   0.981  10.118   9.489  0.5006 -0.2370 -0.8313
  911MOL0     C25590   0.980  10.273   9.456  0.0571  0.5623  0.0273
  911MOL0     C25591   0.909  10.366   9.555 -0.5634  0.2785 -0.1084
  911MOL0     C25592   0.759  10.344   9.548  0.0517 -0.1902  0.0301
  911MOL0     C25593   0.700  10.448   9.646 -0.3597 -0.1017 -0.4441
  911MOL0     C25594   0.559  10.428   9.677  0.2291 -0.3616 -1.0737
  911MOL0     C25595   0.505  10.298   9.730 -0.4222 -0.4450 -0.5767
  911MOL0     C25596   0.362  10.248   9.677  0.0355 -0.4044 -0.1843
  911MOL0     N25597   0.269  10.359   9.674 -0.4781  0.1954  0.0393
  911MOL0     C25598   0.214  10.425   9.776  0.4022 -0.2849  0.2291
  911MOL0     C25599   0.141  10.524   9.725  0.7608 -0.1367  0.3552
  911MOL0     C25600   0.059  10.623   9.800  0.2219  0.0054 -0.4227
  911MOL0     C25601   0.011  10.568   9.938  0.5568  0.1376  0.4346
  911MOL0     C25602  -0.110  10.642   9.984 -0.6817 -0.4090  0.0104
  911MOL0     C25603  -0.237  10.558   9.973 -0.2392 -0.0103 -0.3728
  911MOL0     O25604  -0.261  10.541   9.832  0.0740  0.1636  0.4636
  911MOL0     C25605  -0.357  10.446   9.796 -0.2224  0.4905  0.4405
  911MOL0     C25606  -0.434  10.370   9.885  0.6191 -0.1063  0.5997
  911MOL0     C25607  -0.527  10.274   9.848 -0.2588  1.0912 -0.7020
  911MOL0     C25608  -0.592  10.180   9.957  0.8282  0.1817  0.1345
  911MOL0     C25609  -0.545  10.246   9.706  0.0558 -0.6087  0.3332
  911MOL0     C25610  -0.658  10.160   9.647 -0.2190  0.2661  0.5698
  911MOL0     O25611  -0.679  10.041   9.707  0.0161 -0.6919  0.3516
  911MOL0     C25612  -0.754   9.939   9.644 -0.5895 -0.6117  0.3084
  911MOL0     C25613  -0.737   9.895   9.509 -0.3874  0.2652  0.0659
  911MOL0     C25614  -0.812   9.783   9.465 -0.4289  0.3709 -0.1757
  911MOL0     C25615  -0.908   9.727   9.553 -0.3793 -1.0396  0.5579
  911MOL0     O25616  -1.003   9.635   9.535 -0.3134 -0.0048  0.4979
  911MOL0     C25617  -1.055   9.646   9.401 -0.7411 -0.9851  0.4109
  911MOL0     C25618  -1.172   9.541   9.384  0.9069 -0.9743 -0.2388
  911MOL0     C25619  -1.308   9.590   9.433  0.0311 -0.8377  0.5614
  911MOL0     C25620  -1.430   9.509   9.392  0.2764 -0.7514 -0.1946
  911MOL0     C25621  -1.475   9.526   9.252 -0.6591  0.5876 -0.1476
  911MOL0     C25622  -1.466   9.391   9.174 -0.3549 -0.2356 -0.3285
  911MOL0     C25623  -1.558   9.275   9.209 -0.2058  0.4228  0.0117
  911MOL0     C25624  -1.702   9.322   9.239 -0.3956 -0.6826 -0.1195
  911MOL0    Cl25625  -1.819   9.185   9.213 -0.1625  0.2365 -0.4240
  911MOL0     C25626  -0.924   9.783   9.675  0.4080  0.1512  0.1603
  911MOL0     C25627  -0.857   9.891   9.720 -0.1343 -1.1736  1.0709
  911MOL0     O25628  -0.701  10.194   9.529  0.0359  0.1705 -0.2772
  911MOL0     C25629  -0.465  10.317   9.617  0.2473 -0.0755  0.1406
  911MOL0     C25630  -0.371  10.412   9.665 -0.0746  1.1481 -1.5316
  911MOL0     N25631   0.151  10.517   9.587 -0.8430 -0.8281  0.0987
  911MOL0     N25632   0.227  10.421   9.557  0.3126 -0.1754  0.0182
  911MOL0     C25633   1.226   9.979   9.713  0.5407 -0.2331 -0.6289
  911MOL0     C25634   1.356   9.927   9.720 -0.6411 -0.9520  0.1649
  911MOL0     C25635   1.761   9.789   9.656 -0.2526 -0.0229 -0.1977
  911MOL0     C25636   1.865   9.855   9.598 -0.3377 -0.2299 -0.0343
  911MOL0     C25637   1.992   9.823   9.634 -1.1239 -0.9252 -0.6648
  911MOL0     C25638   2.022   9.717   9.713  0.2615  0.8021 -0.7312
  911MOL0     O25639   2.149   9.681   9.755 -0.0364  0.4254 -0.4840
  911MOL0     C25640   2.262   9.746   9.694  0.3864  0.4032  0.4814
  911MOL0     C25641   2.298   9.885   9.751  0.6595 -0.1770 -0.4955
  911MOL0     C25642   2.318   9.878   9.905  1.0005  0.4683  0.1257
  911MOL0     C25643   2.362  10.009   9.975  0.5025 -0.3491  0.6939
  911MOL0     C25644   2.444   9.979  10.094  0.1756 -0.4303  0.2514
  911MOL0     C25645   2.492   9.960  10.201 -0.7558 -0.1961 -0.7620
  911MOL0     C25646   1.921   9.646   9.763  0.1115 -0.0028  0.1419
  911MOL0     C25647   1.785   9.675   9.739 -0.1419 -0.6567  0.6003
  911MOL0     C25648   1.675   9.598   9.812  1.3450 -0.8426  1.0417
  911MOL0     H25649   1.482  10.080   9.434 -2.7679  1.8082 -0.9498
  911MOL0     H25650   1.242  10.127   9.402 -0.3783  0.2329  0.0322
  911MOL0     H25651   0.879  10.086   9.510  0.6150 -0.3021 -0.3683
  911MOL0     H25652   1.023  10.059   9.406  0.8156  0.2223 -1.0058
  911MOL0     H25653   1.083  10.308   9.450 -0.5084  2.3328 -0.0686
  911MOL0     H25654   0.945  10.274   9.353 -0.6880 -0.1505  0.2595
  911MOL0     H25655   0.947  10.345   9.656 -1.5811 -2.5539 -0.2388
  911MOL0     H25656   0.933  10.468   9.523 -4.4686  0.2139 -4.2530
  911MOL0     H25657   0.722  10.375   9.450  2.3635 -0.4706 -1.0105
  911MOL0     H25658   0.716  10.245   9.564 -2.7426  0.8878 -0.3353
  911MOL0     H25659   0.717  10.544   9.597 -0.3949 -1.6986 -3.8608
  911MOL0     H25660   0.757  10.432   9.738 -1.8550  2.4818  1.0405
  911MOL0     H25661   0.536  10.515   9.739  2.8002  1.4174 -2.4155
  911MOL0     H25662   0.504  10.456   9.587 -1.1079  0.3465 -0.0645
  911MOL0     H25663   0.512  10.294   9.839  1.3708 -0.4639 -0.6748
  911MOL0     H25664   0.578  10.221   9.702  0.7520 -0.1256  1.3632
  911MOL0     H25665   0.365  10.217   9.572  2.4595  1.7337 -0.8616
  911MOL0     H25666   0.320  10.174   9.745  3.6813 -2.2619  0.2881
  911MOL0     H25667   0.230  10.404   9.881  0.2357  0.0519  0.3256
  911MOL0     H25668  -0.031  10.647   9.742 -0.4827  0.6718  0.8904
  911MOL0     H25669   0.108  10.721   9.807 -1.7494  0.9510  1.4340
  911MOL0     H25670  -0.005  10.460   9.931  0.1127  0.2380 -0.2170
  911MOL0     H25671   0.087  10.577  10.016 -0.6886  3.4999  1.4118
  911MOL0     H25672  -0.110  10.672  10.089  0.8671 -0.1816 -0.0337
  911MOL0     H25673  -0.124  10.741   9.940  2.9827  0.1291 -0.2037
  911MOL0     H25674  -0.227  10.461  10.022  0.9018  1.7995  3.3787
  911MOL0     H25675  -0.311  10.613  10.032  1.4175  0.0023  1.8054
  911MOL0     H25676  -0.433  10.402   9.989 -1.0727 -0.1461  0.6533
  911MOL0     H25677  -0.566  10.074   9.947 -4.0424 -1.3774  1.2552
  911MOL0     H25678  -0.700  10.169   9.944  1.1865 -1.8045 -1.7572
  911MOL0     H25679  -0.584  10.219  10.059 -0.6840  0.0766  0.3062
  911MOL0     H25680  -0.661   9.940   9.447 -0.3293  0.5348  0.3313
  911MOL0     H25681  -0.806   9.734   9.368  1.3946 -3.7034  1.7624
  911MOL0     H25682  -1.099   9.744   9.381  1.8822  0.4144  1.0714
  911MOL0     H25683  -0.971   9.622   9.335  0.0641  1.4466  0.4371
  911MOL0     H25684  -1.183   9.514   9.279 -1.1629  1.4307 -0.7685
  911MOL0     H25685  -1.133   9.454   9.436  0.6386 -1.1272 -0.2920
  911MOL0     H25686  -1.329   9.690   9.395  0.0996 -0.6981  0.8862
  911MOL0     H25687  -1.316   9.592   9.542 -2.5925 -1.9628  0.4776
  911MOL0     H25688  -1.515   9.541   9.453  1.9555  1.4368  1.1270
  911MOL0     H25689  -1.404   9.406   9.418 -3.2208 -1.6323  0.2293
  911MOL0     H25690  -1.570   9.579   9.247 -0.8455  1.5145  5.8174
  911MOL0     H25691  -1.404   9.593   9.202 -2.0738  0.8788 -1.8587
  911MOL0     H25692  -1.363   9.354   9.183 -1.0768 -2.6410 -1.2651
  911MOL0     H25693  -1.482   9.407   9.067  0.3738 -0.2731 -0.4470
  911MOL0     H25694  -1.522   9.224   9.299  2.4862  0.4808 -0.9306
  911MOL0     H25695  -1.540   9.196   9.135  0.9171  2.0420 -1.5230
  911MOL0     H25696  -1.754   9.402   9.186 -0.0469 -0.6588 -0.4300
  911MOL0     H25697  -1.702   9.352   9.345 -3.7481 -1.4209  0.1765
  911MOL0     H25698  -0.982   9.724   9.745  0.2547 -0.3435 -0.3817
  911MOL0     H25699  -0.869   9.914   9.826  1.7099  0.8411  0.9275
  911MOL0     H25700  -0.485  10.292   9.513 -2.8771 -4.9164  1.5655
  911MOL0     H25701  -0.309  10.472   9.599  0.6214  1.7656 -0.3508
  911MOL0     H25702   1.157   9.937   9.785  0.8891  0.0265 -0.1358
  911MOL0     H25703   1.384   9.850   9.791 -0.7970  1.3457  2.8481
  911MOL0     H25704   1.855   9.941   9.532  0.8270  0.9011  1.2085
  911MOL0     H25705   2.072   9.881   9.590 -0.1465 -0.2390  1.8369
  911MOL0     H25706   2.353   9.689   9.712 -0.2839 -0.8500  0.0399
  911MOL0     H25707   2.248   9.766   9.587  0.2941  0.6122  0.5327
  911MOL0     H25708   2.220   9.957   9.728  0.7552 -0.4032 -1.5926
  911MOL0     H25709   2.394   9.920   9.712  3.2759 -5.3808  0.3442
  911MOL0     H25710   2.219   9.850   9.942  1.3061 -1.8651 -0.6643
  911MOL0     H25711   2.389   9.800   9.932 -1.9180 -1.8178  1.9369
  911MOL0     H25712   2.272  10.062  10.009 -2.0664 -3.6624 -0.3556
  911MOL0     H25713   2.420  10.070   9.906 -4.7094  0.8651 -3.2395
  911MOL0     H25714   2.522   9.961  10.304  2.6085  2.5816 -1.5698
  911MOL0     H25715   1.944   9.572   9.838 -1.3386 -1.0879 -0.4305
  911MOL0     H25716   1.717   9.555   9.904  1.3486 -0.5571  1.1769
  911MOL0     H25717   1.596   9.669   9.839 -1.2582 -1.4423 -3.8736
  911MOL0     H25718   1.627   9.520   9.752 -1.7121  2.6987 -1.5250
  912MOL0     O25719   4.025   4.778   2.757  0.5181 -0.7006  0.5027
  912MOL0     C25720   3.915   4.813   2.788  0.7349  0.3719 -1.0530
  912MOL0     O25721   3.886   4.930   2.848 -0.5056 -0.3943 -0.2897
  912MOL0     C25722   3.994   5.021   2.857  0.2158  0.7944 -0.0980
  912MOL0     C25723   4.063   5.068   2.745 -0.2073 -0.5896 -0.1701
  912MOL0     C25724   4.151   5.185   2.750  0.3015  0.0313 -0.7176
  912MOL0     C25725   4.175   5.249   2.879  1.3126  0.7711  0.0654
  912MOL0     O25726   4.260   5.355   2.905 -0.2744 -0.3070 -0.0643
  912MOL0     C25727   4.383   5.348   2.832 -2.0626 -0.4000  0.1250
  912MOL0     C25728   4.472   5.228   2.879 -0.0440 -0.8857  0.4497
  912MOL0     C25729   4.614   5.234   2.818 -1.0431  0.3856 -0.0018
  912MOL0     C25730   4.716   5.149   2.904  0.4335 -0.1181 -0.5363
  912MOL0     C25731   4.853   5.118   2.855 -0.7297  0.8664 -0.3949
  912MOL0     C25732   4.845   4.997   2.761  0.2194  0.3723  0.2247
  912MOL0     C25733   4.985   4.939   2.716  0.7497  0.4639  0.1579
  912MOL0     C25734   5.065   5.052   2.642  0.1938 -0.2899 -0.5061
  912MOL0     N25735   5.009   5.089   2.509  0.4072 -0.0480  0.0292
  912MOL0     C25736   4.984   5.006   2.401 -0.5810  0.0015 -0.3795
  912MOL0     C25737   4.911   5.081   2.324 -0.3632 -0.8691  0.2946
  912MOL0     C25738   4.854   5.042   2.195 -0.5024  1.0338  0.2501
  912MOL0     C25739   4.707   5.027   2.197  0.6778 -0.1576 -0.9805
  912MOL0     C25740   4.654   4.895   2.240 -0.5136  0.0912 -1.1612
  912MOL0     C25741   4.511   4.878   2.227  0.1725  0.3333 -0.0840
  912MOL0     O25742   4.475   4.847   2.087  0.1287 -0.7114 -0.6129
  912MOL0     C25743   4.388   4.740   2.065 -0.0842 -0.3430 -0.2281
  912MOL0     C25744   4.266   4.753   2.006  0.1332 -0.4730  0.4567
  912MOL0     C25745   4.175   4.652   1.989  0.8672  0.4234 -0.2003
  912MOL0     C25746   4.039   4.690   1.926  0.0250 -0.2002 -0.5211
  912MOL0     C25747   4.208   4.521   2.033 -0.3960  0.1339 -0.5107
  912MOL0     C25748   4.109   4.412   2.032 -0.3460  0.4854 -0.8139
  912MOL0     O25749   4.122   4.330   2.153 -0.3692 -0.0638  0.4407
  912MOL0     C25750   4.109   4.191   2.143  0.6557  0.5332 -0.5838
  912MOL0     C25751   3.987   4.142   2.090  0.5526 -0.5344 -0.5927
  912MOL0     C25752   3.964   4.003   2.098  0.0509 -0.1806  0.1146
  912MOL0     C25753   4.066   3.916   2.141 -0.2003 -0.3230  0.2604
  912MOL0     O25754   4.025   3.783   2.153  0.9805  0.2811  0.1781
  912MOL0     C25755   4.132   3.679   2.135 -0.1300 -0.3174 -0.1093
  912MOL0     C25756   4.177   3.667   1.989 -0.3084  0.2250  0.0695
  912MOL0     C25757   4.288   3.564   1.985  0.5045 -0.0435  0.7960
  912MOL0     C25758   4.299   3.539   1.837  0.2637 -0.1110 -0.5710
  912MOL0     C25759   4.412   3.428   1.813 -0.1882  0.4621 -0.0923
  912MOL0     C25760   4.557   3.480   1.836 -0.9662  0.0131  0.1460
  912MOL0     C25761   4.643   3.369   1.787  0.2094  0.2418  0.3113
  912MOL0     C25762   4.785   3.407   1.763  0.1128  0.0982  0.1184
  912MOL0    Cl25763   4.816   3.475   1.599 -0.0460 -0.0282 -0.0647
  912MOL0     C25764   4.191   3.973   2.174 -0.2275  0.0192 -0.1383
  912MOL0     C25765   4.209   4.104   2.188  0.5412 -0.3169 -1.3288
  912MOL0     O25766   4.050   4.383   1.929  0.3977  0.2460 -0.1906
  912MOL0     C25767   4.330   4.505   2.100  0.0105 -0.3655 -0.1576
  912MOL0     C25768   4.416   4.616   2.111 -0.5333 -0.1683  0.3564
  912MOL0     N25769   4.912   5.220   2.373 -0.7266  0.7710 -0.0944
  912MOL0     N25770   4.968   5.219   2.487 -0.2516 -0.5666 -1.1717
  912MOL0     C25771   4.089   5.200   2.982 -0.4369 -0.7224 -0.3109
  912MOL0     C25772   4.011   5.090   2.972 -0.0193  0.2132 -1.4503
  912MOL0     C25773   3.796   4.730   2.747  0.7078 -0.5298  1.4253
  912MOL0     C25774   3.795   4.595   2.777  0.5667  0.0202  0.0278
  912MOL0     C25775   3.692   4.505   2.749 -0.3839  0.6964  0.4346
  912MOL0     C25776   3.585   4.554   2.679 -0.3584  0.0523  0.9013
  912MOL0     O25777   3.481   4.465   2.652 -0.3247 -0.4882 -0.1978
  912MOL0     C25778   3.424   4.457   2.526 -0.1823 -0.5676  0.2259
  912MOL0     C25779   3.528   4.435   2.416 -0.6182 -1.0518 -0.4956
  912MOL0     C25780   3.595   4.299   2.431 -0.2091 -0.1567  0.2407
  912MOL0     C25781   3.681   4.271   2.308  0.2088 -0.0747 -0.3461
  912MOL0     C25782   3.621   4.251   2.183 -0.2595 -0.0605  0.4285
  912MOL0     C25783   3.586   4.216   2.074  0.9284  0.9402 -0.4604
  912MOL0     C25784   3.584   4.688   2.640  0.8281 -0.4414  0.2008
  912MOL0     C25785   3.676   4.781   2.673  1.0568 -0.8300 -0.5411
  912MOL0     C25786   3.659   4.923   2.632 -0.3548 -0.0690  0.9855
  912MOL0     H25787   4.054   5.019   2.648 -1.8207  1.2753 -1.0186
  912MOL0     H25788   4.198   5.224   2.661  3.1090  0.3373  0.7964
  912MOL0     H25789   4.450   5.434   2.843 -1.8635 -0.3200 -1.5256
  912MOL0     H25790   4.373   5.329   2.725 -0.2144 -2.7117  0.2939
  912MOL0     H25791   4.488   5.231   2.987  0.6586  1.1437  0.3403
  912MOL0     H25792   4.429   5.131   2.855  0.6507 -1.1615  0.2908
  912MOL0     H25793   4.602   5.202   2.714  2.1183 -1.8358  0.1763
  912MOL0     H25794   4.648   5.337   2.831 -2.2217  0.9407 -1.1709
  912MOL0     H25795   4.726   5.185   3.006  1.2497 -1.6364 -0.0387
  912MOL0     H25796   4.672   5.048   2.906  0.3644 -0.0879 -0.5283
  912MOL0     H25797   4.921   5.101   2.939  0.8113  0.7130 -1.6234
  912MOL0     H25798   4.895   5.203   2.802  1.6287  0.4391  0.6443
  912MOL0     H25799   4.783   4.916   2.800 -0.4018  0.2962 -0.8885
  912MOL0     H25800   4.793   5.031   2.671  3.3293  0.2140 -1.7779
  912MOL0     H25801   4.957   4.852   2.655 -1.0062  1.3269 -0.3330
  912MOL0     H25802   5.039   4.902   2.803  3.0928  1.3824 -0.8140
  912MOL0     H25803   5.070   5.141   2.706  2.6980 -1.3559  0.9304
  912MOL0     H25804   5.166   5.014   2.626  0.9491  1.0483  0.8774
  912MOL0     H25805   5.017   4.904   2.384 -1.3007 -0.2613 -0.2305
  912MOL0     H25806   4.895   4.945   2.166 -2.0019  0.6063 -0.5275
  912MOL0     H25807   4.882   5.110   2.115  1.0895  0.4993  0.3142
  912MOL0     H25808   4.672   5.103   2.268 -0.1299 -3.0507  1.9663
  912MOL0     H25809   4.678   5.050   2.095 -2.7576 -1.2299 -0.3504
  912MOL0     H25810   4.699   4.816   2.180  3.6843  3.0677 -2.4423
  912MOL0     H25811   4.683   4.878   2.344  0.2348 -1.7336 -1.6331
  912MOL0     H25812   4.486   4.784   2.278 -1.4369 -0.4258 -2.0970
  912MOL0     H25813   4.450   4.951   2.280 -0.8022 -1.9150  2.0665
  912MOL0     H25814   4.249   4.851   1.964 -1.4164 -1.6713 -1.8971
  912MOL0     H25815   4.021   4.797   1.939 -0.4008 -0.3914  0.5544
  912MOL0     H25816   3.960   4.625   1.965  2.2213 -1.1481  2.7682
  912MOL0     H25817   4.051   4.666   1.820  1.8004 -1.3159 -0.1160
  912MOL0     H25818   3.908   4.206   2.052  1.4981  0.3537 -1.1207
  912MOL0     H25819   3.869   3.961   2.066  0.4709 -2.2014  1.4175
  912MOL0     H25820   4.218   3.699   2.201  1.1448  3.2604 -2.5197
  912MOL0     H25821   4.094   3.580   2.159  0.2538 -0.4118  0.1223
  912MOL0     H25822   4.088   3.637   1.933 -0.6536 -3.2266  2.1761
  912MOL0     H25823   4.203   3.763   1.944  2.4335 -1.2849 -1.9437
  912MOL0     H25824   4.266   3.466   2.028  0.5174 -0.7901 -0.8109
  912MOL0     H25825   4.376   3.611   2.030  0.1849  0.7865  0.5705
  912MOL0     H25826   4.316   3.638   1.792  0.2915  0.7114  1.1435
  912MOL0     H25827   4.207   3.505   1.789  1.3116 -0.1111 -2.7129
  912MOL0     H25828   4.397   3.333   1.865 -3.6834  2.0599  2.2138
  912MOL0     H25829   4.400   3.398   1.708 -3.3236 -1.5416  0.6969
  912MOL0     H25830   4.583   3.517   1.935  3.1345 -0.0716 -0.7055
  912MOL0     H25831   4.569   3.570   1.774 -1.8230 -1.1268 -1.7679
  912MOL0     H25832   4.606   3.327   1.693  2.5068 -0.5542 -0.3036
  912MOL0     H25833   4.651   3.293   1.864 -1.6988 -0.7948 -0.4488
  912MOL0     H25834   4.843   3.317   1.786 -3.7529 -1.5237  5.3975
  912MOL0     H25835   4.814   3.481   1.838  3.1433 -1.6853  0.9030
  912MOL0     H25836   4.268   3.901   2.199  0.9884  0.8618 -1.3391
  912MOL0     H25837   4.302   4.139   2.232  1.0871 -0.8266 -2.0309
  912MOL0     H25838   4.361   4.410   2.142  1.1044 -0.3829 -0.9444
  912MOL0     H25839   4.518   4.599   2.143  0.6937 -1.5259 -3.6388
  912MOL0     H25840   4.094   5.242   3.082  1.1510  0.0134 -0.6824
  912MOL0     H25841   3.958   5.049   3.058  0.4653 -0.2951 -1.3861
  912MOL0     H25842   3.886   4.555   2.822  2.6776  3.3561 -0.8310
  912MOL0     H25843   3.710   4.401   2.773 -2.1448  0.8840  2.9376
  912MOL0     H25844   3.344   4.383   2.536 -0.2189 -0.5787 -0.1394
  912MOL0     H25845   3.364   4.545   2.502 -3.3836 -2.8690 -0.9873
  912MOL0     H25846   3.598   4.519   2.409 -0.7495 -1.0460 -2.2681
  912MOL0     H25847   3.472   4.439   2.322 -0.9013 -3.0777 -0.4472
  912MOL0     H25848   3.636   4.295   2.532 -1.3919  3.2092  0.9875
  912MOL0     H25849   3.516   4.225   2.418  0.0210 -0.2755 -0.5901
  912MOL0     H25850   3.734   4.183   2.345  0.5454  0.5459  0.7352
  912MOL0     H25851   3.760   4.347   2.307 -0.9470  1.2521  1.3518
  912MOL0     H25852   3.568   4.175   1.976  1.0358 -1.5885  0.4888
  912MOL0     H25853   3.499   4.735   2.591  2.3071  3.0766  0.7085
  912MOL0     H25854   3.740   4.954   2.566 -1.1606  1.7678  0.7821
  912MOL0     H25855   3.566   4.932   2.574  0.2547 -0.7431 -0.1349
  912MOL0     H25856   3.644   4.990   2.717 -1.8883  0.7565  0.1090
  913MOL0     O25857   3.726   9.387   8.427  0.3299  0.5334 -0.5618
  913MOL0     C25858   3.686   9.492   8.483  0.4190  0.5446 -0.6347
  913MOL0     O25859   3.560   9.555   8.464  1.1614 -0.3969  0.0172
  913MOL0     C25860   3.473   9.511   8.372  1.1024 -0.1301  0.8972
  913MOL0     C25861   3.378   9.402   8.395 -0.3364 -0.0956 -0.4207
  913MOL0     C25862   3.294   9.358   8.292  0.3019 -0.5895 -0.0525
  913MOL0     C25863   3.296   9.418   8.165 -1.1671 -0.4900 -1.0373
  913MOL0     O25864   3.211   9.396   8.062 -0.3437  0.2422 -0.4198
  913MOL0     C25865   3.177   9.254   8.043 -0.6671  0.1852  0.1149
  913MOL0     C25866   3.157   9.224   7.899  0.2288 -0.0854  0.3466
  913MOL0     C25867   3.295   9.219   7.826  0.2715 -0.0361 -0.3471
  913MOL0     C25868   3.275   9.175   7.681 -0.0854 -0.0790  0.2535
  913MOL0     C25869   3.396   9.110   7.614 -0.1136  0.0206  0.2014
  913MOL0     C25870   3.364   9.078   7.463  0.6075 -0.1564 -0.2235
  913MOL0     C25871   3.472   8.993   7.416  0.0787  0.5010 -0.2554
  913MOL0     C25872   3.432   8.921   7.284  0.1723  0.7235 -0.2587
  913MOL0     N25873   3.550   8.880   7.202 -0.6134 -0.1107 -0.3526
  913MOL0     C25874   3.691   8.886   7.228  0.1814 -0.3628 -0.5002
  913MOL0     C25875   3.752   8.830   7.126  0.2356  0.3433 -0.8335
  913MOL0     C25876   3.902   8.828   7.097 -0.0576 -0.9413 -0.0963
  913MOL0     C25877   3.962   8.965   7.048 -0.1975  0.1314 -0.5177
  913MOL0     C25878   4.099   8.941   6.986  0.4756 -0.0186 -0.5126
  913MOL0     C25879   4.205   8.958   7.088 -0.4041 -0.1555 -0.8549
  913MOL0     O25880   4.201   9.092   7.133 -0.1250 -1.0667 -0.1519
  913MOL0     C25881   4.241   9.121   7.265 -0.2134 -0.1430 -0.1351
  913MOL0     C25882   4.335   9.048   7.334  0.5905 -0.2218  0.5362
  913MOL0     C25883   4.397   9.084   7.451 -0.6952 -0.1840  1.0600
  913MOL0     C25884   4.501   8.989   7.510 -0.3204  0.2498  0.3255
  913MOL0     C25885   4.348   9.203   7.509  0.6678  0.4944 -0.4547
  913MOL0     C25886   4.394   9.249   7.636 -0.2675  0.7713  0.1536
  913MOL0     O25887   4.307   9.325   7.713  0.2342 -0.0325 -0.2757
  913MOL0     C25888   4.337   9.399   7.825  0.0819 -0.1533 -0.0231
  913MOL0     C25889   4.236   9.410   7.929 -0.1503 -0.4841 -0.5874
  913MOL0     C25890   4.257   9.493   8.040 -0.1652 -0.7150  0.3288
  913MOL0     C25891   4.368   9.575   8.051  0.6493  0.4055  0.5985
  913MOL0     O25892   4.377   9.651   8.162  0.9432  0.2741  0.1371
  913MOL0     C25893   4.384   9.803   8.146 -0.7984  0.5731 -0.0747
  913MOL0     C25894   4.275   9.851   8.246  0.8616  0.5410  0.6190
  913MOL0     C25895   4.247   9.999   8.230 -0.0059 -0.0275 -0.0472
  913MOL0     C25896   4.375  10.087   8.257  0.2454  1.3715  0.0539
  913MOL0     C25897   4.340  10.235   8.275 -0.3963 -0.3508 -0.7480
  913MOL0     C25898   4.282  10.299   8.150 -0.6384 -0.1248 -0.7864
  913MOL0     C25899   4.392  10.336   8.050 -0.8262 -0.3817 -0.2228
  913MOL0     C25900   4.331  10.458   7.977 -0.3447 -0.3175  0.7895
  913MOL0    Cl25901   4.423  10.516   7.838 -0.2511 -0.0649 -0.2220
  913MOL0     C25902   4.465   9.571   7.945  0.0258 -0.6618 -0.1534
  913MOL0     C25903   4.446   9.487   7.837  0.4638  0.0511  0.5137
  913MOL0     O25904   4.515   9.242   7.656 -0.1086  0.4796 -1.1364
  913MOL0     C25905   4.261   9.284   7.441 -0.0518 -0.5608  0.2879
  913MOL0     C25906   4.202   9.237   7.317 -0.9695  0.0924  0.7200
  913MOL0     N25907   3.655   8.777   7.051  0.0088  0.0256 -0.5031
  913MOL0     N25908   3.537   8.807   7.088 -0.2011 -1.1054  0.9972
  913MOL0     C25909   3.389   9.522   8.139 -1.3005 -0.8369  0.0588
  913MOL0     C25910   3.476   9.571   8.249 -0.4433 -0.5770  0.0554
  913MOL0     C25911   3.782   9.560   8.566 -0.8967 -0.3236 -0.8355
  913MOL0     C25912   3.742   9.678   8.619  0.4381 -0.6016 -0.7416
  913MOL0     C25913   3.821   9.755   8.704 -0.1326  0.1420  1.2383
  913MOL0     C25914   3.953   9.720   8.729 -0.0377 -0.5094  0.3068
  913MOL0     O25915   4.041   9.790   8.810  0.0036  0.1434  0.0357
  913MOL0     C25916   3.997   9.913   8.877  0.6703 -0.0298 -0.0875
  913MOL0     C25917   4.130   9.999   8.931  0.7045  0.8735  0.6654
  913MOL0     C25918   4.097  10.071   9.059 -0.2691 -0.1622 -0.7035
  913MOL0     C25919   3.963  10.150   9.065  0.2315 -0.2144 -0.1705
  913MOL0     C25920   3.958  10.263   8.973  0.1286  1.0712  0.7724
  913MOL0     C25921   3.976  10.353   8.894 -0.4146  0.4114 -0.2250
  913MOL0     C25922   3.998   9.600   8.681  0.0964  0.0521 -0.0548
  913MOL0     C25923   3.918   9.521   8.603  0.3818  0.1389 -0.1823
  913MOL0     C25924   3.976   9.383   8.565  0.4935 -0.7265 -0.1317
  913MOL0     H25925   3.379   9.363   8.497 -1.2791 -1.1471 -0.7986
  913MOL0     H25926   3.213   9.288   8.309 -0.0629  0.1827  1.5341
  913MOL0     H25927   3.087   9.223   8.098 -0.9149 -1.0982 -0.9549
  913MOL0     H25928   3.249   9.185   8.088 -2.5764 -1.1812  1.2390
  913MOL0     H25929   3.108   9.127   7.887  0.9096 -0.4710  0.5891
  913MOL0     H25930   3.097   9.309   7.865  0.5871  1.4088  3.1572
  913MOL0     H25931   3.331   9.322   7.818 -5.1520  2.0708 -1.6505
  913MOL0     H25932   3.352   9.147   7.886 -2.8798 -4.3600 -2.0169
  913MOL0     H25933   3.187   9.111   7.680 -0.3084  0.2067  1.0909
  913MOL0     H25934   3.255   9.265   7.622 -1.4374 -0.1213  0.6303
  913MOL0     H25935   3.420   9.019   7.669  4.9283 -0.4787 -2.2802
  913MOL0     H25936   3.479   9.181   7.619  0.0854 -0.2489  0.7626
  913MOL0     H25937   3.273   9.019   7.479 -1.4205  2.6393 -0.6863
  913MOL0     H25938   3.332   9.154   7.392 -2.0179  1.0877  2.1058
  913MOL0     H25939   3.496   8.915   7.488 -0.2481  1.4061  0.8606
  913MOL0     H25940   3.554   9.064   7.399  1.8754 -1.2596  0.5277
  913MOL0     H25941   3.359   8.842   7.305 -0.0071  0.9160 -0.1427
  913MOL0     H25942   3.372   8.982   7.216 -1.8257  0.5936  1.2999
  913MOL0     H25943   3.736   8.931   7.316  0.0031 -1.7250  0.3168
  913MOL0     H25944   3.920   8.754   7.018 -0.7197 -0.6125 -0.5652
  913MOL0     H25945   3.957   8.802   7.188  0.9592  2.6422  0.4875
  913MOL0     H25946   3.900   8.982   6.959  1.2520 -0.8975 -1.7667
  913MOL0     H25947   3.959   9.042   7.125 -0.1780 -2.1917  1.9466
  913MOL0     H25948   4.098   8.843   6.936 -0.0831  0.6635 -1.9091
  913MOL0     H25949   4.123   9.018   6.911 -0.6651 -2.4940 -3.6738
  913MOL0     H25950   4.192   8.888   7.171  2.0345 -1.9185 -1.8137
  913MOL0     H25951   4.300   8.933   7.039  0.0822 -0.3748  0.1844
  913MOL0     H25952   4.371   8.954   7.292  4.3226  0.5061  1.7195
  913MOL0     H25953   4.587   9.035   7.559  0.4883 -1.5607  0.6847
  913MOL0     H25954   4.542   8.920   7.437 -2.1057  1.8767 -2.3913
  913MOL0     H25955   4.446   8.925   7.580 -1.4546 -0.8737 -1.5243
  913MOL0     H25956   4.150   9.343   7.923 -1.0740  0.7168 -1.4049
  913MOL0     H25957   4.173   9.505   8.109 -0.8451 -2.4954 -0.1398
  913MOL0     H25958   4.489   9.822   8.170 -0.8015  0.0664  0.3516
  913MOL0     H25959   4.368   9.840   8.045 -3.2067  0.0773  0.0655
  913MOL0     H25960   4.178   9.807   8.219  1.7081  0.4939 -2.8393
  913MOL0     H25961   4.305   9.838   8.350 -0.5515  1.6030  1.1849
  913MOL0     H25962   4.178  10.018   8.313  1.3078 -1.3939  1.4400
  913MOL0     H25963   4.183  10.003   8.141 -0.2395 -4.1077 -0.2583
  913MOL0     H25964   4.445  10.075   8.174  2.4466  0.9192  1.8774
  913MOL0     H25965   4.434  10.053   8.342  1.8047  0.0349 -1.4975
  913MOL0     H25966   4.264  10.241   8.354  1.5247  0.8517  1.1242
  913MOL0     H25967   4.432  10.286   8.303 -0.6128  0.4360 -1.4592
  913MOL0     H25968   4.226  10.385   8.188 -0.1439 -0.7471  1.4855
  913MOL0     H25969   4.213  10.229   8.101 -0.8765 -0.7294  0.3861
  913MOL0     H25970   4.407  10.254   7.979  0.6776  0.9948 -1.5748
  913MOL0     H25971   4.482  10.364   8.106 -1.8882  0.3292  1.1853
  913MOL0     H25972   4.307  10.552   8.028  0.0749  1.1398 -1.5468
  913MOL0     H25973   4.237  10.421   7.933 -0.5631  2.0080 -0.8976
  913MOL0     H25974   4.560   9.624   7.953  0.4447 -1.6904  2.9294
  913MOL0     H25975   4.520   9.480   7.758  0.5095 -0.0563  0.5663
  913MOL0     H25976   4.237   9.384   7.475  0.2751  0.7245 -2.8895
  913MOL0     H25977   4.141   9.310   7.264 -1.1631 -0.2698  0.4370
  913MOL0     H25978   3.382   9.557   8.037 -4.5533 -2.0600 -0.2489
  913MOL0     H25979   3.547   9.646   8.217 -1.3492 -0.7419 -2.6075
  913MOL0     H25980   3.643   9.716   8.598  1.4502  1.5716 -1.8410
  913MOL0     H25981   3.769   9.842   8.740  2.9544  3.2230 -1.0229
  913MOL0     H25982   3.938   9.968   8.804 -1.1409 -2.5392 -0.6365
  913MOL0     H25983   3.934   9.885   8.961  1.5790  0.4564  0.7747
  913MOL0     H25984   4.147  10.073   8.852 -1.3775  1.4186  0.6577
  913MOL0     H25985   4.218   9.937   8.948  1.2807  1.2627 -0.7696
  913MOL0     H25986   4.088  10.003   9.145  0.9473 -1.1400 -1.3158
  913MOL0     H25987   4.180  10.138   9.079 -1.1318  0.3071  1.5315
  913MOL0     H25988   3.949  10.177   9.170  1.1159 -0.5100  0.0386
  913MOL0     H25989   3.875  10.089   9.044  0.4491 -0.8119  0.6075
  913MOL0     H25990   3.978  10.442   8.835 -0.4164  0.1508 -0.6233
  913MOL0     H25991   4.099   9.570   8.705  0.4487  1.4348  0.2469
  913MOL0     H25992   4.063   9.355   8.624 -1.2392 -1.7583  2.0970
  913MOL0     H25993   3.904   9.305   8.590 -0.3920 -0.0273 -0.4339
  913MOL0     H25994   4.005   9.387   8.459  2.0500  3.2825  0.2476
  914MOL0     O25995   8.030   0.891   1.771  0.0547  0.5769  0.0772
  914MOL0     C25996   7.938   0.869   1.852  1.0131  0.0700 -0.1664
  914MOL0     O25997   7.889   0.744   1.885 -0.4807 -0.6905 -0.3395
  914MOL0     C25998   7.923   0.625   1.830 -0.7691  0.4575 -0.0412
  914MOL0     C25999   7.904   0.510   1.907 -0.3954 -0.5436  0.3756
  914MOL0     C26000   7.920   0.383   1.849  0.9690  0.5163  0.1768
  914MOL0     C26001   7.972   0.373   1.721 -0.3593  0.2105  0.4216
  914MOL0     O26002   7.994   0.254   1.665 -0.2658  0.2191 -0.8902
  914MOL0     C26003   8.119   0.213   1.705 -0.1963  0.2981 -0.2841
  914MOL0     C26004   8.157   0.084   1.627  0.1774 -0.5724 -0.7057
  914MOL0     C26005   8.299   0.044   1.670  0.7192 -0.0106 -0.4699
  914MOL0     C26006   8.326  -0.094   1.617 -0.4424 -0.3567  0.7007
  914MOL0     C26007   8.463  -0.136   1.650 -0.1298  0.2184  0.5979
  914MOL0     C26008   8.497  -0.284   1.594  0.1819  0.4772  0.1611
  914MOL0     C26009   8.629  -0.334   1.656 -0.3043 -0.4437 -0.1246
  914MOL0     C26010   8.612  -0.387   1.801 -0.1778 -0.5500 -0.3548
  914MOL0     N26011   8.533  -0.507   1.799  0.3102 -0.1738 -0.7634
  914MOL0     C26012   8.587  -0.638   1.811  1.0357  0.2138 -0.4355
  914MOL0     C26013   8.492  -0.724   1.861 -0.6509 -0.0191  0.3686
  914MOL0     C26014   8.525  -0.869   1.911  0.5330 -1.0492  0.3946
  914MOL0     C26015   8.410  -0.959   1.872  0.3365 -0.1246  0.3034
  914MOL0     C26016   8.447  -1.110   1.868  0.5937 -0.3354 -0.2294
  914MOL0     C26017   8.323  -1.201   1.838 -0.5525 -0.2638  0.3121
  914MOL0     O26018   8.258  -1.153   1.724  0.6660 -0.4230  0.3354
  914MOL0     C26019   8.162  -1.236   1.667 -0.4303  0.3270  0.1612
  914MOL0     C26020   8.086  -1.195   1.555 -0.0183 -0.2319 -0.3446
  914MOL0     C26021   7.972  -1.268   1.510  1.0930 -0.3977 -0.4012
  914MOL0     C26022   7.894  -1.194   1.404  0.7116  0.0751  0.8205
  914MOL0     C26023   7.930  -1.392   1.575 -0.4599  0.0508  0.1089
  914MOL0     C26024   7.817  -1.475   1.541 -0.4786 -0.3423 -0.9238
  914MOL0     O26025   7.730  -1.519   1.635 -0.2483 -0.0550 -0.3265
  914MOL0     C26026   7.615  -1.584   1.579 -0.7582 -0.3793  0.2850
  914MOL0     C26027   7.505  -1.501   1.586  0.2784  1.5672 -0.0953
  914MOL0     C26028   7.387  -1.564   1.547  0.6230 -1.0764  0.0247
  914MOL0     C26029   7.380  -1.692   1.490  1.0495  0.3382  0.5942
  914MOL0     O26030   7.264  -1.755   1.446  0.1741  0.9505 -0.1246
  914MOL0     C26031   7.157  -1.672   1.405 -0.3750 -0.3266  0.5411
  914MOL0     C26032   7.109  -1.718   1.269  0.0608 -0.7006 -0.2936
  914MOL0     C26033   7.113  -1.619   1.158  0.3698  0.2825 -0.0452
  914MOL0     C26034   7.044  -1.677   1.028  0.0825  0.6369  0.0521
  914MOL0     C26035   7.033  -1.582   0.914 -0.4864 -0.4290 -0.7460
  914MOL0     C26036   7.162  -1.526   0.844 -0.4736  0.8605 -1.1020
  914MOL0     C26037   7.231  -1.636   0.773  0.2569  0.4724  0.0234
  914MOL0     C26038   7.381  -1.617   0.785  0.3260  0.1234 -0.1677
  914MOL0    Cl26039   7.435  -1.448   0.724 -0.2131  0.2365  0.1134
  914MOL0     C26040   7.489  -1.774   1.505 -1.0733  0.5528  0.0468
  914MOL0     C26041   7.609  -1.715   1.532 -0.3714 -0.1200  0.9449
  914MOL0     O26042   7.805  -1.490   1.423 -0.3886  0.6454  0.5812
  914MOL0     C26043   8.012  -1.435   1.683  0.9419  0.4456  0.3885
  914MOL0     C26044   8.122  -1.361   1.727  0.1824 -0.2759 -0.1148
  914MOL0     N26045   8.380  -0.650   1.889  0.1416  0.5701  0.7108
  914MOL0     N26046   8.414  -0.528   1.864  1.4268 -1.1607 -0.4168
  914MOL0     C26047   8.002   0.489   1.653 -0.1274  0.2239 -0.3249
  914MOL0     C26048   7.966   0.615   1.701 -1.2624 -0.9912  0.6506
  914MOL0     C26049   7.869   0.981   1.929  0.2060 -0.3141  0.0014
  914MOL0     C26050   7.921   1.108   1.904  0.1349  0.5631 -0.7028
  914MOL0     C26051   7.864   1.218   1.959  0.4916 -0.7201 -0.9596
  914MOL0     C26052   7.750   1.208   2.040  0.5404  0.3179 -0.1225
  914MOL0     O26053   7.701   1.325   2.101 -0.4488  0.6329  0.1088
  914MOL0     C26054   7.593   1.330   2.190  0.3929 -0.4246  0.7112
  914MOL0     C26055   7.646   1.266   2.318  0.5514 -0.4715  0.0898
  914MOL0     C26056   7.525   1.193   2.392  0.5164  0.1430  0.4805
  914MOL0     C26057   7.457   1.267   2.505 -0.3685  0.7445  0.4361
  914MOL0     C26058   7.462   1.413   2.495 -0.5934 -0.1897 -0.2378
  914MOL0     C26059   7.466   1.531   2.478  0.0820  0.5699  0.6560
  914MOL0     C26060   7.704   1.078   2.071  0.8940 -0.2947 -0.3194
  914MOL0     C26061   7.760   0.965   2.014 -0.6163  0.2956 -0.8339
  914MOL0     C26062   7.718   0.830   2.072  0.1756 -0.7846  0.9023
  914MOL0     H26063   7.885   0.508   2.014  2.1949  1.3627  0.9551
  914MOL0     H26064   7.889   0.296   1.906 -3.1668  0.5902 -1.5418
  914MOL0     H26065   8.121   0.196   1.813 -0.3713 -0.0488 -0.3346
  914MOL0     H26066   8.197   0.287   1.683  1.3116 -1.0461  0.3260
  914MOL0     H26067   8.088   0.006   1.657 -1.2866  1.7808  2.5777
  914MOL0     H26068   8.167   0.088   1.518  1.5146 -0.9066 -0.6223
  914MOL0     H26069   8.366   0.117   1.624 -1.9453  3.0844  0.1935
  914MOL0     H26070   8.318   0.035   1.777  2.8985 -5.8888 -0.9756
  914MOL0     H26071   8.263  -0.171   1.663 -1.4374 -0.3529 -0.5968
  914MOL0     H26072   8.307  -0.095   1.510 -0.0370 -0.3666  0.6269
  914MOL0     H26073   8.483  -0.134   1.758  5.0307  1.2624 -0.1306
  914MOL0     H26074   8.536  -0.073   1.600 -1.8848  2.1483  0.3350
  914MOL0     H26075   8.425  -0.361   1.621  0.8948 -0.3541 -0.2657
  914MOL0     H26076   8.504  -0.269   1.486 -1.8896 -0.0113 -0.0875
  914MOL0     H26077   8.707  -0.259   1.640  0.0608 -0.9201 -0.6161
  914MOL0     H26078   8.663  -0.418   1.594 -2.2096 -0.5653 -1.0728
  914MOL0     H26079   8.715  -0.399   1.833 -0.6279  0.0672  1.4603
  914MOL0     H26080   8.558  -0.310   1.858  1.4205  0.2039  0.1897
  914MOL0     H26081   8.687  -0.665   1.777  0.8422  1.8413 -2.5325
  914MOL0     H26082   8.534  -0.862   2.019  0.4070  0.4877  0.3272
  914MOL0     H26083   8.629  -0.890   1.888 -0.0927 -1.5614 -2.3951
  914MOL0     H26084   8.332  -0.945   1.947 -1.9101 -1.6518 -1.5982
  914MOL0     H26085   8.385  -0.933   1.769  0.6168  2.6931  0.8830
  914MOL0     H26086   8.518  -1.138   1.791  0.9880 -5.9304  1.7676
  914MOL0     H26087   8.482  -1.143   1.966 -0.1443 -1.3732 -0.2979
  914MOL0     H26088   8.367  -1.298   1.812 -1.6834 -0.5125 -0.7680
  914MOL0     H26089   8.251  -1.216   1.920 -1.5382  0.4681 -0.3924
  914MOL0     H26090   8.113  -1.097   1.518  1.3522 -1.1130 -1.7612
  914MOL0     H26091   7.891  -1.091   1.440 -0.1834 -0.8016  3.4831
  914MOL0     H26092   7.795  -1.237   1.389  1.8687 -2.0497 -1.5858
  914MOL0     H26093   7.942  -1.205   1.306 -0.7619 -0.6266  0.1445
  914MOL0     H26094   7.509  -1.401   1.629 -0.9145  0.5595  2.6337
  914MOL0     H26095   7.300  -1.499   1.556  0.8709  0.1907 -4.3796
  914MOL0     H26096   7.073  -1.666   1.474 -2.1134 -0.2059 -1.4825
  914MOL0     H26097   7.190  -1.568   1.392  0.4134 -0.5587  0.6067
  914MOL0     H26098   7.164  -1.808   1.242 -2.2259 -2.1305 -0.4764
  914MOL0     H26099   7.004  -1.742   1.289  0.1515 -1.3148 -0.5270
  914MOL0     H26100   7.218  -1.603   1.133 -0.5683  2.8235 -2.9622
  914MOL0     H26101   7.072  -1.525   1.196 -1.7100 -1.4091  2.2691
  914MOL0     H26102   6.943  -1.714   1.044  0.8655 -1.7920 -0.3063
  914MOL0     H26103   7.104  -1.764   0.998 -1.3424 -0.6924  0.9466
  914MOL0     H26104   6.965  -1.635   0.847  0.1813 -2.9710  0.4545
  914MOL0     H26105   6.984  -1.489   0.947 -1.8642 -1.3542 -0.0783
  914MOL0     H26106   7.218  -1.475   0.923  0.8690 -3.1037  0.8049
  914MOL0     H26107   7.135  -1.447   0.774 -0.3895  0.5336 -1.5078
  914MOL0     H26108   7.200  -1.644   0.668 -0.7601  0.0071  0.3442
  914MOL0     H26109   7.199  -1.731   0.817  1.4075  0.6967  1.4181
  914MOL0     H26110   7.421  -1.695   0.720 -1.1476  1.3487 -2.6991
  914MOL0     H26111   7.414  -1.637   0.888 -0.7408 -1.1694 -0.0544
  914MOL0     H26112   7.493  -1.881   1.484 -0.0786  0.4762  0.5900
  914MOL0     H26113   7.701  -1.772   1.524  1.6606  3.1722 -2.0597
  914MOL0     H26114   7.996  -1.528   1.737  3.4858 -0.8196 -0.8355
  914MOL0     H26115   8.181  -1.390   1.813  2.8829 -1.1272 -2.1501
  914MOL0     H26116   8.045   0.473   1.555  1.5549  4.6769 -0.5448
  914MOL0     H26117   7.997   0.696   1.636  1.2173 -3.5027 -1.5531
  914MOL0     H26118   8.006   1.118   1.837 -0.5090 -2.9969 -2.2815
  914MOL0     H26119   7.915   1.313   1.947  0.0742 -0.1210  1.4423
  914MOL0     H26120   7.562   1.434   2.207 -1.6200 -0.7384 -0.6629
  914MOL0     H26121   7.504   1.285   2.146  0.0843  0.7188  0.1341
  914MOL0     H26122   7.684   1.349   2.378  1.7344  0.1485 -1.4524
  914MOL0     H26123   7.733   1.200   2.308  0.5168 -0.8891  2.1068
  914MOL0     H26124   7.445   1.159   2.326 -0.1564  0.0567  1.3268
  914MOL0     H26125   7.579   1.110   2.439 -1.5248 -0.9421  0.9934
  914MOL0     H26126   7.510   1.237   2.596 -1.0364 -1.0759  0.2727
  914MOL0     H26127   7.349   1.249   2.503 -0.6430  2.2521 -0.0793
  914MOL0     H26128   7.469   1.636   2.456  1.6205 -0.1238 -3.4853
  914MOL0     H26129   7.618   1.071   2.138  0.2011 -0.9764 -1.2481
  914MOL0     H26130   7.801   0.766   2.104  0.9657 -2.4879 -3.8314
  914MOL0     H26131   7.646   0.843   2.153 -1.0969 -1.6533 -0.0500
  914MOL0     H26132   7.669   0.769   1.995 -0.4156  0.3118  0.3982
  915MOL0     O26133   5.374  10.929   8.635 -0.2526 -0.2999 -0.3010
  915MOL0     C26134   5.447  10.889   8.542  1.3269 -0.0692  0.3544
  915MOL0     O26135   5.539  10.782   8.564  0.0797 -0.3863  0.7623
  915MOL0     C26136   5.536  10.735   8.693 -0.4363  0.9144  0.4568
  915MOL0     C26137   5.438  10.644   8.739  0.6249  0.1874 -0.0758
  915MOL0     C26138   5.467  10.567   8.851 -1.6112 -0.9443 -0.1682
  915MOL0     C26139   5.589  10.582   8.927 -0.0237  0.2512 -0.4749
  915MOL0     O26140   5.619  10.513   9.047 -0.9888  0.3106  0.4804
  915MOL0     C26141   5.756  10.455   9.048  0.6702  0.1592 -0.1693
  915MOL0     C26142   5.766  10.334   9.143  0.3458 -0.6320 -0.4348
  915MOL0     C26143   5.739  10.381   9.294 -0.1959 -0.7354  0.5729
  915MOL0     C26144   5.784  10.272   9.396  0.3474 -0.0061 -1.0784
  915MOL0     C26145   5.734  10.310   9.539  0.6904  0.2298 -0.1055
  915MOL0     C26146   5.585  10.330   9.554  0.2313 -0.0782  0.6013
  915MOL0     C26147   5.509  10.192   9.547  0.4115  0.6448 -0.0571
  915MOL0     C26148   5.387  10.204   9.645  0.6810  0.0708  0.6986
  915MOL0     N26149   5.349  10.070   9.668 -0.1781  0.4430 -0.1646
  915MOL0     C26150   5.264   9.975   9.613 -0.8005 -0.2900 -0.0506
  915MOL0     C26151   5.264   9.868   9.691  0.8815  0.4805 -0.2882
  915MOL0     C26152   5.226   9.716   9.652 -0.2656  0.4799 -0.7172
  915MOL0     C26153   5.343   9.623   9.690  1.6206 -0.1452 -0.0310
  915MOL0     C26154   5.447   9.614   9.576 -0.3131  0.3636  0.3569
  915MOL0     C26155   5.551   9.496   9.607 -0.5046 -0.1044 -0.1888
  915MOL0     O26156   5.491   9.377   9.553 -0.2391 -0.0519  0.5036
  915MOL0     C26157   5.571   9.269   9.556  0.0704  0.3112 -0.5489
  915MOL0     C26158   5.706   9.270   9.529 -0.1079  0.1546 -0.3419
  915MOL0     C26159   5.782   9.141   9.538  0.5363  0.8085  0.3845
  915MOL0     C26160   5.926   9.137   9.487 -0.1322  0.8483  0.5777
  915MOL0     C26161   5.708   9.018   9.580 -0.5482 -0.0468 -1.5645
  915MOL0     C26162   5.773   8.893   9.627  0.6044  0.4224  0.5796
  915MOL0     O26163   5.719   8.769   9.599  0.1929  0.4058 -0.1786
  915MOL0     C26164   5.769   8.645   9.645  0.0601  0.1654 -0.0411
  915MOL0     C26165   5.862   8.617   9.749 -0.2910 -0.4781 -0.0180
  915MOL0     C26166   5.890   8.484   9.780  0.9820  0.2513  0.0676
  915MOL0     C26167   5.856   8.385   9.682 -0.1859  0.2416 -0.7979
  915MOL0     O26168   5.903   8.254   9.698  0.5689  0.6760 -1.0974
  915MOL0     C26169   5.879   8.146   9.610 -0.2467 -0.8933  0.2967
  915MOL0     C26170   5.762   8.060   9.651  0.2493 -0.8117  0.1402
  915MOL0     C26171   5.747   7.921   9.602 -0.7188 -0.0994 -0.6002
  915MOL0     C26172   5.676   7.826   9.706 -0.5777 -0.5792 -0.7609
  915MOL0     C26173   5.619   7.697   9.641  0.0409  0.3350 -0.5536
  915MOL0     C26174   5.620   7.573   9.734 -0.1747  0.7728  0.7028
  915MOL0     C26175   5.518   7.577   9.848  0.5304 -1.1922 -0.3384
  915MOL0     C26176   5.540   7.484   9.966  0.7590  1.0546  0.2833
  915MOL0    Cl26177   5.468   7.315   9.954  0.0509 -0.6121 -0.3295
  915MOL0     C26178   5.777   8.414   9.579 -0.3082  1.1900 -0.4446
  915MOL0     C26179   5.730   8.548   9.563 -0.1626  0.3890  0.5868
  915MOL0     O26180   5.869   8.909   9.695 -0.6867 -0.2010 -0.2910
  915MOL0     C26181   5.575   9.033   9.617  0.6820 -0.0079  0.6119
  915MOL0     C26182   5.512   9.154   9.593 -0.2766 -0.3165 -0.4074
  915MOL0     N26183   5.347   9.890   9.805  0.2581  0.0475  0.4863
  915MOL0     N26184   5.393  10.014   9.785  0.6640  1.3535  0.1913
  915MOL0     C26185   5.686  10.677   8.881  0.1255  0.5672 -0.3261
  915MOL0     C26186   5.658  10.743   8.768  0.5010 -0.2148  0.5313
  915MOL0     C26187   5.428  10.947   8.408 -0.5008  0.2344 -0.5551
  915MOL0     C26188   5.315  11.018   8.388 -0.1856 -0.8242  0.6895
  915MOL0     C26189   5.288  11.094   8.273 -0.3700  0.0433 -0.2471
  915MOL0     C26190   5.389  11.096   8.171 -0.7184 -0.7441 -0.0801
  915MOL0     O26191   5.390  11.179   8.058  0.2688  0.4512 -0.7473
  915MOL0     C26192   5.279  11.272   8.025  0.8414 -0.4346 -1.4044
  915MOL0     C26193   5.329  11.394   7.957  0.1457  0.3572 -0.2975
  915MOL0     C26194   5.214  11.487   7.909 -0.0042 -0.0193  0.3708
  915MOL0     C26195   5.286  11.595   7.844 -0.8643 -0.2089  0.0030
  915MOL0     C26196   5.187  11.657   7.745 -1.8052 -0.5699  0.4630
  915MOL0     C26197   5.127  11.706   7.647  0.3371  1.1809 -0.0103
  915MOL0     C26198   5.496  11.005   8.185  0.3015  0.3037 -1.1752
  915MOL0     C26199   5.519  10.928   8.296  0.7114  0.8157  0.1876
  915MOL0     C26200   5.638  10.834   8.294 -0.6904 -0.1450  0.5632
  915MOL0     H26201   5.347  10.626   8.684 -0.6833  0.6767  1.8150
  915MOL0     H26202   5.404  10.489   8.894  2.2068 -4.5120 -0.4217
  915MOL0     H26203   5.828  10.528   9.086 -1.2092  2.2534 -0.4594
  915MOL0     H26204   5.776  10.414   8.949 -0.5933 -2.6751  0.6309
  915MOL0     H26205   5.686  10.270   9.103 -0.5629 -0.3086  0.8225
  915MOL0     H26206   5.868  10.296   9.132  0.7188  1.0249 -5.5158
  915MOL0     H26207   5.806  10.465   9.315  0.5635 -1.3121  0.5054
  915MOL0     H26208   5.633  10.404   9.307 -0.9001 -2.8755 -0.7653
  915MOL0     H26209   5.737  10.180   9.360  1.3136 -1.5694  1.3835
  915MOL0     H26210   5.890  10.249   9.406 -0.1371 -1.5871  1.6032
  915MOL0     H26211   5.774  10.409   9.563 -2.0691  2.5112 -3.8246
  915MOL0     H26212   5.779  10.243   9.613 -0.7140 -3.9447 -2.6956
  915MOL0     H26213   5.575  10.365   9.657  0.8189 -1.0356  1.0044
  915MOL0     H26214   5.540  10.402   9.486 -1.2288 -1.6709 -0.2044
  915MOL0     H26215   5.579  10.113   9.576 -0.8011 -0.3214  0.2953
  915MOL0     H26216   5.471  10.164   9.448 -0.8835 -1.6712  1.0193
  915MOL0     H26217   5.421  10.249   9.739 -2.4734  1.6110  1.2192
  915MOL0     H26218   5.305  10.260   9.600  2.3332 -1.1575 -4.5957
  915MOL0     H26219   5.213   9.983   9.517 -0.7709  0.2273 -0.0265
  915MOL0     H26220   5.214   9.714   9.543 -0.6522  0.3004 -0.6721
  915MOL0     H26221   5.135   9.684   9.704  0.4621 -1.0751 -0.3531
  915MOL0     H26222   5.395   9.640   9.785  0.9076 -0.7024  0.4745
  915MOL0     H26223   5.308   9.519   9.685  2.8347 -0.5067 -2.4578
  915MOL0     H26224   5.395   9.600   9.480  2.7584  0.4024 -1.4613
  915MOL0     H26225   5.491   9.714   9.563  0.2260 -0.0489 -1.2262
  915MOL0     H26226   5.648   9.505   9.558 -0.2318 -0.8152  0.2030
  915MOL0     H26227   5.581   9.486   9.712 -0.4790 -1.4375 -0.3042
  915MOL0     H26228   5.765   9.353   9.490 -0.9045  2.1594  2.3859
  915MOL0     H26229   5.990   9.167   9.571 -0.2227  0.9634  0.6054
  915MOL0     H26230   5.937   9.213   9.408 -1.6925  0.4270 -0.0896
  915MOL0     H26231   5.959   9.039   9.452  0.7669  0.4257  2.4645
  915MOL0     H26232   5.898   8.694   9.817 -0.3174  0.1146 -0.6539
  915MOL0     H26233   5.939   8.456   9.873 -1.3220  0.1336  1.3177
  915MOL0     H26234   5.861   8.187   9.510  1.8113 -0.4985  0.0445
  915MOL0     H26235   5.970   8.090   9.589 -0.6799 -1.0801 -1.1692
  915MOL0     H26236   5.757   8.056   9.761 -1.6264  0.7553  0.1566
  915MOL0     H26237   5.668   8.108   9.623 -0.5518 -3.3663 -1.9891
  915MOL0     H26238   5.847   7.883   9.581 -0.0109  2.4757 -2.5103
  915MOL0     H26239   5.699   7.923   9.503  1.7733 -0.9484 -1.9252
  915MOL0     H26240   5.600   7.885   9.757 -0.6557 -1.0145 -0.3659
  915MOL0     H26241   5.746   7.791   9.783 -0.9200  2.0336  0.8724
  915MOL0     H26242   5.520   7.709   9.596  0.6064 -1.4784 -2.4900
  915MOL0     H26243   5.674   7.655   9.556  1.4304 -3.4643  1.9450
  915MOL0     H26244   5.717   7.574   9.785 -0.4472  2.1791  1.2341
  915MOL0     H26245   5.603   7.483   9.674 -3.7812  1.7655 -0.0068
  915MOL0     H26246   5.420   7.555   9.806  2.0492 -1.8438 -3.9285
  915MOL0     H26247   5.522   7.678   9.890  1.4056  0.4838 -4.0871
  915MOL0     H26248   5.500   7.526  10.058  0.9107  0.1316  0.7877
  915MOL0     H26249   5.645   7.493   9.997  0.5613  2.2295  0.6409
  915MOL0     H26250   5.750   8.327   9.519  2.2992 -1.9586  2.5718
  915MOL0     H26251   5.653   8.562   9.488  0.0143 -5.0006 -1.0201
  915MOL0     H26252   5.520   8.949   9.657  1.7170 -1.3490 -0.7044
  915MOL0     H26253   5.409   9.155   9.626  0.4500 -3.0829  2.4658
  915MOL0     H26254   5.786  10.675   8.924 -0.1830 -0.5308  0.3868
  915MOL0     H26255   5.730  10.794   8.705  1.4403 -2.6168 -0.4506
  915MOL0     H26256   5.244  11.014   8.470 -1.6561 -2.7599 -0.5614
  915MOL0     H26257   5.202  11.160   8.278 -1.5629 -1.5314  2.8352
  915MOL0     H26258   5.196  11.224   7.971 -0.2549 -1.8990  1.3781
  915MOL0     H26259   5.241  11.306   8.121  1.6383  0.5635 -1.4332
  915MOL0     H26260   5.383  11.356   7.869 -0.1467  2.7501 -1.5971
  915MOL0     H26261   5.402  11.442   8.024 -1.2520  2.0002  0.1165
  915MOL0     H26262   5.152  11.425   7.844  1.2377  1.9797 -2.9903
  915MOL0     H26263   5.156  11.520   7.996  0.4287 -2.3344  1.6059
  915MOL0     H26264   5.373  11.555   7.789 -0.1432 -0.6165  1.3968
  915MOL0     H26265   5.321  11.662   7.923  1.4486 -1.9711  0.5930
  915MOL0     H26266   5.067  11.759   7.575  0.7328 -0.7984 -1.9031
  915MOL0     H26267   5.575  10.982   8.114  2.6482 -1.9726  1.8482
  915MOL0     H26268   5.653  10.780   8.200  3.1056 -1.2739  1.6447
  915MOL0     H26269   5.729  10.888   8.322 -1.1830  0.2168  1.5080
  915MOL0     H26270   5.618  10.747   8.359 -1.7284 -1.4882 -1.4631
  916MOL0     O26271   3.957   7.278   7.314  0.7249  0.2155 -0.6822
  916MOL0     C26272   4.068   7.280   7.367  0.1932  0.2652 -0.0656
  916MOL0     O26273   4.095   7.355   7.471 -0.1769  0.5121 -0.1655
  916MOL0     C26274   4.035   7.480   7.463  0.3306  0.6002  0.0295
  916MOL0     C26275   4.061   7.578   7.356  0.1786 -0.1554 -0.6810
  916MOL0     C26276   4.000   7.703   7.369  0.4913  0.4546  0.7918
  916MOL0     C26277   3.931   7.739   7.486  0.4411  0.0123 -0.3209
  916MOL0     O26278   3.887   7.869   7.512 -1.4400  0.0288 -0.1138
  916MOL0     C26279   3.922   7.975   7.417 -0.5682 -0.5557  0.1116
  916MOL0     C26280   3.889   8.108   7.482  0.4343  0.1916  0.0550
  916MOL0     C26281   3.915   8.211   7.373  0.9361 -0.1839 -0.6546
  916MOL0     C26282   3.785   8.257   7.312  1.2944  0.8412  0.5415
  916MOL0     C26283   3.801   8.381   7.224  1.0375  0.4030 -0.1026
  916MOL0     C26284   3.919   8.379   7.119  1.3522  0.0765 -0.2834
  916MOL0     C26285   3.917   8.275   7.007  0.0000  0.2034 -0.1291
  916MOL0     C26286   3.801   8.292   6.910 -0.1620 -0.6459  0.9665
  916MOL0     N26287   3.827   8.399   6.813 -0.5856 -0.5413  0.5289
  916MOL0     C26288   3.774   8.535   6.815  0.8269  0.6216 -0.7139
  916MOL0     C26289   3.848   8.598   6.718 -0.2462  0.4826  0.3428
  916MOL0     C26290   3.855   8.743   6.681 -0.5169 -1.2657 -0.7913
  916MOL0     C26291   3.718   8.796   6.624  0.9252  1.1588 -0.0941
  916MOL0     C26292   3.701   8.948   6.645 -0.5772  0.8911  0.1198
  916MOL0     C26293   3.590   8.964   6.747 -0.6147 -0.3363 -0.0764
  916MOL0     O26294   3.550   9.098   6.764  1.0368  0.5453 -0.2748
  916MOL0     C26295   3.641   9.184   6.824 -0.8773  0.1088 -0.9809
  916MOL0     C26296   3.666   9.177   6.961 -0.3809  0.6521 -0.2556
  916MOL0     C26297   3.762   9.254   7.020  0.0523 -0.1312  0.0863
  916MOL0     C26298   3.770   9.240   7.174  0.4232  0.3397 -0.3318
  916MOL0     C26299   3.837   9.343   6.937 -0.6744 -0.4992 -0.1935
  916MOL0     C26300   3.939   9.444   6.985  0.0647  0.4449  0.0797
  916MOL0     O26301   3.944   9.463   7.123 -0.3841 -0.0896  0.1057
  916MOL0     C26302   4.048   9.532   7.179 -0.3442 -0.3427  0.2348
  916MOL0     C26303   4.037   9.616   7.299 -0.0055 -0.2667  0.3623
  916MOL0     C26304   4.139   9.672   7.366  0.4718 -0.0628  0.2770
  916MOL0     C26305   4.269   9.663   7.307 -0.0365 -0.9527 -0.2510
  916MOL0     O26306   4.376   9.735   7.353 -0.4111 -0.0684 -0.1098
  916MOL0     C26307   4.405   9.743   7.499 -0.0269  0.4159  0.0213
  916MOL0     C26308   4.557   9.788   7.516  0.2144  0.0634 -0.0116
  916MOL0     C26309   4.594   9.833   7.656 -0.0742  0.3152 -0.0343
  916MOL0     C26310   4.552   9.973   7.674 -0.4887 -0.2755 -0.5665
  916MOL0     C26311   4.559  10.017   7.821  0.9076  0.5685  0.1984
  916MOL0     C26312   4.695  10.003   7.881 -0.8856 -0.5534 -0.5346
  916MOL0     C26313   4.803  10.096   7.822 -0.3694 -0.2700 -0.4040
  916MOL0     C26314   4.810  10.233   7.888  0.4103 -0.0085  0.1865
  916MOL0    Cl26315   4.849  10.238   8.046 -0.5607 -0.0012  0.1242
  916MOL0     C26316   4.289   9.593   7.189  0.5663 -0.9512  0.5243
  916MOL0     C26317   4.179   9.526   7.126 -0.3579  0.2403 -0.5431
  916MOL0     O26318   4.016   9.492   6.905  0.1205 -0.5547 -0.1107
  916MOL0     C26319   3.805   9.352   6.800 -0.1941 -0.4628 -0.4499
  916MOL0     C26320   3.712   9.266   6.745 -0.6901 -0.8126  0.0155
  916MOL0     N26321   3.935   8.505   6.667  0.6470 -0.8062  0.2671
  916MOL0     N26322   3.943   8.404   6.739 -0.3173  0.2269 -0.5761
  916MOL0     C26323   3.913   7.644   7.586  1.0282 -0.0390 -0.1195
  916MOL0     C26324   3.973   7.519   7.576  0.1721  0.1981 -0.1217
  916MOL0     C26325   4.169   7.187   7.329  0.0862 -0.0219 -0.5711
  916MOL0     C26326   4.223   7.113   7.434  1.0660  0.0907 -1.2095
  916MOL0     C26327   4.327   7.025   7.407 -0.0536  0.2446 -0.4239
  916MOL0     C26328   4.391   7.010   7.280  0.1325  0.1841  0.7987
  916MOL0     O26329   4.485   6.920   7.243 -0.5872 -0.4495 -0.1682
  916MOL0     C26330   4.546   6.842   7.349 -0.9414 -0.3299 -0.1292
  916MOL0     C26331   4.661   6.748   7.286  0.1561 -0.2310  0.0079
  916MOL0     C26332   4.752   6.827   7.192  0.7200 -0.0913 -0.0862
  916MOL0     C26333   4.805   6.954   7.267  0.0820 -0.0519  0.5864
  916MOL0     C26334   4.926   7.005   7.197  0.4424 -0.2350 -1.4603
  916MOL0     C26335   5.032   7.039   7.148  0.5760 -0.2196  0.2308
  916MOL0     C26336   4.339   7.093   7.183 -0.4821 -0.0848 -0.2231
  916MOL0     C26337   4.228   7.175   7.203  0.4943 -0.4417 -0.1530
  916MOL0     C26338   4.177   7.254   7.087  0.6283  0.4773 -0.8247
  916MOL0     H26339   4.121   7.540   7.274  1.6431 -0.1069  0.3446
  916MOL0     H26340   4.011   7.767   7.282 -1.9924 -0.7470 -0.5000
  916MOL0     H26341   3.867   7.952   7.326  1.5155 -2.4938 -0.7443
  916MOL0     H26342   4.029   7.969   7.396 -0.3405  1.1281  0.6183
  916MOL0     H26343   3.794   8.125   7.534 -0.2747  3.4092 -1.9862
  916MOL0     H26344   3.959   8.118   7.566 -0.4472 -1.1711  0.9886
  916MOL0     H26345   3.982   8.288   7.413 -3.1825  2.0015  3.1238
  916MOL0     H26346   3.968   8.162   7.292 -0.2707 -0.3300 -1.3797
  916MOL0     H26347   3.739   8.169   7.267  1.3900  1.5599 -1.0321
  916MOL0     H26348   3.726   8.288   7.399  1.7215 -0.3750  1.2738
  916MOL0     H26349   3.807   8.472   7.285 -4.0494  1.2369 -0.3943
  916MOL0     H26350   3.704   8.386   7.174  0.2131 -3.5591  0.8010
  916MOL0     H26351   3.909   8.475   7.068  1.0083 -0.6641 -1.6839
  916MOL0     H26352   4.012   8.387   7.176  0.4505  0.9923  1.1182
  916MOL0     H26353   3.935   8.175   7.048 -2.6498  0.3601  1.6186
  916MOL0     H26354   4.009   8.291   6.949  2.0979  0.5999  3.0383
  916MOL0     H26355   3.768   8.199   6.864 -2.1997  0.5579 -0.1931
  916MOL0     H26356   3.712   8.314   6.970 -1.6434 -2.0563 -0.6065
  916MOL0     H26357   3.702   8.571   6.888  2.1836  0.3794  0.8122
  916MOL0     H26358   3.938   8.760   6.613 -0.3500  0.8900 -0.1468
  916MOL0     H26359   3.879   8.805   6.768 -0.2833 -0.1034 -1.6602
  916MOL0     H26360   3.734   8.763   6.521 -0.4690 -3.8240  1.0350
  916MOL0     H26361   3.636   8.740   6.669 -0.4476  2.5254 -0.7945
  916MOL0     H26362   3.795   8.991   6.681  0.3337 -2.0691  1.6527
  916MOL0     H26363   3.666   9.001   6.556 -0.3526  0.0820 -0.4642
  916MOL0     H26364   3.500   8.906   6.726  0.5352 -2.6242  0.8989
  916MOL0     H26365   3.640   8.943   6.842  0.5209 -0.1010 -0.6141
  916MOL0     H26366   3.598   9.114   7.018 -0.8093 -0.7498 -2.2060
  916MOL0     H26367   3.717   9.150   7.204 -2.6672  1.4623 -1.9156
  916MOL0     H26368   3.721   9.320   7.230  0.1247  0.7394 -1.1463
  916MOL0     H26369   3.872   9.225   7.211  0.4939 -2.6007 -1.4643
  916MOL0     H26370   3.936   9.605   7.338 -0.4191 -1.2591 -0.9100
  916MOL0     H26371   4.129   9.705   7.468  3.3253  0.0866  0.5818
  916MOL0     H26372   4.333   9.813   7.540  1.7514  0.0105  4.3885
  916MOL0     H26373   4.393   9.644   7.544 -2.8435  1.7163  2.4516
  916MOL0     H26374   4.626   9.712   7.478  0.1998 -0.5344  1.1100
  916MOL0     H26375   4.564   9.869   7.443 -1.4626  1.0011  0.8034
  916MOL0     H26376   4.701   9.830   7.679  0.0684  2.1688 -0.3228
  916MOL0     H26377   4.552   9.772   7.737 -0.3964 -0.0934 -0.5080
  916MOL0     H26378   4.447   9.988   7.649 -0.3946 -0.7962 -1.2858
  916MOL0     H26379   4.615  10.038   7.613 -0.7896 -1.1576 -1.8603
  916MOL0     H26380   4.532  10.123   7.829  0.2266  0.6062 -1.8670
  916MOL0     H26381   4.483   9.956   7.869 -1.6522  1.5055 -2.3584
  916MOL0     H26382   4.721   9.897   7.882 -0.9553 -0.6861 -3.6714
  916MOL0     H26383   4.684  10.023   7.989 -1.9827 -1.8263 -0.3763
  916MOL0     H26384   4.785  10.110   7.716 -0.6171 -4.7924 -1.1863
  916MOL0     H26385   4.901  10.047   7.825 -0.2765 -0.1879 -1.6705
  916MOL0     H26386   4.711  10.278   7.879 -0.3517 -2.0046 -3.1537
  916MOL0     H26387   4.873  10.306   7.836 -2.0605  0.9954 -1.5999
  916MOL0     H26388   4.387   9.584   7.143 -0.8548 -0.3477 -2.9036
  916MOL0     H26389   4.199   9.457   7.045 -3.1122  1.4194 -2.3490
  916MOL0     H26390   3.857   9.417   6.730 -2.1686 -1.9239 -3.4833
  916MOL0     H26391   3.700   9.261   6.638  0.9410  0.7561 -0.2943
  916MOL0     H26392   3.859   7.671   7.677 -4.2651 -0.0239 -2.8916
  916MOL0     H26393   3.951   7.455   7.661 -1.2051  0.3560 -0.3241
  916MOL0     H26394   4.179   7.119   7.532  1.2079 -0.4464 -1.1108
  916MOL0     H26395   4.372   6.971   7.490 -2.7236 -0.8653  0.3893
  916MOL0     H26396   4.588   6.915   7.419 -3.0820  0.3960  0.4648
  916MOL0     H26397   4.469   6.787   7.404 -1.1010 -1.5233 -1.4956
  916MOL0     H26398   4.608   6.667   7.234  1.2818 -0.9406 -0.0654
  916MOL0     H26399   4.721   6.698   7.363 -1.1441 -0.7449  0.7198
  916MOL0     H26400   4.834   6.770   7.148 -0.0067 -0.4373 -1.0365
  916MOL0     H26401   4.687   6.865   7.113 -2.7301 -1.1692  1.9898
  916MOL0     H26402   4.828   6.919   7.368 -0.8041 -2.4985  0.0174
  916MOL0     H26403   4.727   7.031   7.272 -0.8883 -1.0589  2.9372
  916MOL0     H26404   5.121   7.078   7.102 -0.0959  1.9906  0.7334
  916MOL0     H26405   4.383   7.079   7.085 -0.4629 -4.4730  0.2233
  916MOL0     H26406   4.074   7.288   7.101  1.8125  3.7952  0.9324
  916MOL0     H26407   4.230   7.346   7.060 -3.8126  3.6085  0.0881
  916MOL0     H26408   4.169   7.190   6.998 -0.8659  0.1343 -0.4681
  917MOL0     O26409   9.924  11.189   3.361 -0.3323 -0.7813  0.2520
  917MOL0     C26410   9.932  11.270   3.268 -0.5118 -0.7062 -0.1492
  917MOL0     O26411   9.851  11.277   3.160 -1.1876  0.1011  0.6094
  917MOL0     C26412   9.884  11.370   3.066 -0.7421 -0.1995  0.0723
  917MOL0     C26413   9.989  11.342   2.969  0.2665 -0.3384  0.5985
  917MOL0     C26414  10.019  11.439   2.871 -0.1151 -0.2100 -0.3204
  917MOL0     C26415   9.947  11.555   2.861 -0.0039 -0.5283  0.3817
  917MOL0     O26416   9.979  11.658   2.774 -0.8341  0.4136  0.7279
  917MOL0     C26417  10.106  11.656   2.710 -0.9037 -0.4094 -0.0388
  917MOL0     C26418  10.122  11.784   2.635  0.1877 -0.4209  1.0632
  917MOL0     C26419  10.262  11.831   2.596 -0.4506 -0.0935 -0.0831
  917MOL0     C26420  10.330  11.741   2.487  0.6384  0.4559 -0.5673
  917MOL0     C26421  10.486  11.740   2.512  0.2496 -0.3453  0.6176
  917MOL0     C26422  10.544  11.813   2.388 -0.8982  0.2872 -1.0248
  917MOL0     C26423  10.691  11.831   2.401 -0.3283 -0.2939  0.0294
  917MOL0     C26424  10.726  11.959   2.463 -0.6572 -0.7835  0.4037
  917MOL0     N26425  10.872  11.972   2.476 -0.6878 -0.2963 -0.7797
  917MOL0     C26426  10.945  11.938   2.588 -0.0888 -0.4013 -0.4580
  917MOL0     C26427  11.065  11.997   2.577 -0.1785  0.3785  1.0252
  917MOL0     C26428  11.166  11.990   2.697 -0.7719 -0.7310  0.8665
  917MOL0     C26429  11.206  12.125   2.744  0.1341  0.5004  0.6516
  917MOL0     C26430  11.090  12.231   2.748 -0.2128 -0.5811 -0.1489
  917MOL0     C26431  11.128  12.348   2.853  0.0066  1.5007  0.1141
  917MOL0     O26432  11.128  12.291   2.987 -0.5720  0.2978  0.4492
  917MOL0     C26433  11.010  12.305   3.059  0.6955 -0.2274  0.1517
  917MOL0     C26434  10.981  12.424   3.119  0.8355  0.4367 -0.9519
  917MOL0     C26435  10.864  12.437   3.200  0.7066 -0.6051  0.2717
  917MOL0     C26436  10.843  12.573   3.273 -0.4327  0.5977 -0.3568
  917MOL0     C26437  10.769  12.323   3.211  0.0618 -0.2230 -0.3864
  917MOL0     C26438  10.636  12.331   3.277 -0.0500 -0.2051  0.7365
  917MOL0     O26439  10.555  12.442   3.273 -0.2886 -0.4358 -0.3681
  917MOL0     C26440  10.418  12.421   3.309  0.0766  0.0327  0.2791
  917MOL0     C26441  10.320  12.422   3.204  0.1730 -0.3998 -0.0620
  917MOL0     C26442  10.190  12.415   3.234 -0.3815  0.0298 -0.3996
  917MOL0     C26443  10.152  12.423   3.369  0.4110 -1.2061 -0.0919
  917MOL0     O26444  10.022  12.417   3.408  0.3449  0.0295 -0.5323
  917MOL0     C26445   9.912  12.407   3.320 -0.5554 -0.1350  0.7757
  917MOL0     C26446   9.874  12.260   3.310 -0.4648 -0.0526 -0.1497
  917MOL0     C26447   9.752  12.239   3.215  0.1366 -0.4825 -0.2677
  917MOL0     C26448   9.628  12.189   3.285  0.1032  0.6532 -0.0907
  917MOL0     C26449   9.575  12.291   3.385  0.3777 -0.4266 -0.5077
  917MOL0     C26450   9.449  12.237   3.442  0.3168  0.4800  0.1360
  917MOL0     C26451   9.366  12.344   3.510  0.8699  0.0484  0.4154
  917MOL0     C26452   9.237  12.262   3.555 -1.0090 -0.9417  0.2738
  917MOL0    Cl26453   9.136  12.374   3.639 -0.4433  0.1237 -0.2083
  917MOL0     C26454  10.237  12.426   3.473 -0.2565 -0.0990 -1.0211
  917MOL0     C26455  10.371  12.422   3.445  0.3170 -1.1596  0.0064
  917MOL0     O26456  10.601  12.223   3.319  0.6661  0.4043 -0.3529
  917MOL0     C26457  10.803  12.209   3.144 -0.1545 -0.0609 -0.0192
  917MOL0     C26458  10.923  12.198   3.068 -0.0810  0.0172 -0.1075
  917MOL0     N26459  11.081  12.052   2.453 -0.2149 -0.0657 -0.2651
  917MOL0     N26460  10.963  12.034   2.394  0.7523 -0.7162 -0.3497
  917MOL0     C26461   9.848  11.578   2.956  0.4756 -0.2060  0.9971
  917MOL0     C26462   9.819  11.496   3.063 -0.1275  0.2155  0.4884
  917MOL0     C26463  10.037  11.372   3.310  0.7308  0.3193  0.1885
  917MOL0     C26464   9.986  11.494   3.353  0.4770  0.0702 -0.4164
  917MOL0     C26465  10.076  11.586   3.397 -0.4880  0.3100  0.1929
  917MOL0     C26466  10.209  11.570   3.392  0.2962  0.3773 -0.1658
  917MOL0     O26467  10.301  11.682   3.423  0.2828  0.5073 -0.3022
  917MOL0     C26468  10.431  11.684   3.361  0.8093  0.8999  0.5786
  917MOL0     C26469  10.545  11.620   3.435  0.2273 -0.6469  0.2198
  917MOL0     C26470  10.660  11.577   3.344  0.1403 -0.1749 -0.5654
  917MOL0     C26471  10.768  11.512   3.424  0.7817  0.1817 -0.5170
  917MOL0     C26472  10.889  11.497   3.342  0.0929  0.4523  0.1018
  917MOL0     C26473  10.982  11.482   3.271  0.1971  0.4963  0.0583
  917MOL0     C26474  10.250  11.446   3.345 -0.8349  0.1408 -0.6249
  917MOL0     C26475  10.168  11.342   3.316  0.6163  0.7695 -0.1713
  917MOL0     C26476  10.228  11.214   3.276  0.6481  0.1074 -0.5169
  917MOL0     H26477  10.062  11.262   2.962 -0.3972 -0.7770 -2.4930
  917MOL0     H26478  10.098  11.421   2.799 -0.0312 -0.3774 -0.1875
  917MOL0     H26479  10.111  11.573   2.639 -0.0709 -0.8651  0.5298
  917MOL0     H26480  10.176  11.635   2.792 -1.1997  2.8361  1.1734
  917MOL0     H26481  10.049  11.778   2.553 -1.9145 -1.0457  2.8783
  917MOL0     H26482  10.090  11.860   2.707 -1.2048  0.3640 -0.3242
  917MOL0     H26483  10.250  11.937   2.569 -0.4562  0.5988  2.3432
  917MOL0     H26484  10.325  11.830   2.686  2.9274  1.1967 -2.2525
  917MOL0     H26485  10.287  11.643   2.514 -1.9628  1.0932 -2.0222
  917MOL0     H26486  10.294  11.751   2.384  0.3712 -2.9184 -0.9270
  917MOL0     H26487  10.528  11.639   2.505 -1.7175 -1.0870 -2.7696
  917MOL0     H26488  10.523  11.789   2.603 -0.3836  1.7958 -0.2159
  917MOL0     H26489  10.519  11.746   2.305 -1.7033 -0.3121 -0.3146
  917MOL0     H26490  10.497  11.910   2.369 -1.8296  0.2255  0.7585
  917MOL0     H26491  10.738  11.817   2.303  0.9028 -0.8975  0.6747
  917MOL0     H26492  10.740  11.753   2.460 -2.1940 -0.5724  1.2604
  917MOL0     H26493  10.694  12.041   2.398 -1.1029 -1.8143 -0.7024
  917MOL0     H26494  10.672  11.977   2.557  1.7502  2.1128  1.4132
  917MOL0     H26495  10.913  11.890   2.680 -2.1168 -1.9357 -1.8645
  917MOL0     H26496  11.251  11.932   2.658 -0.1440  0.7535 -0.0608
  917MOL0     H26497  11.121  11.930   2.777  0.2587 -1.6075  0.8259
  917MOL0     H26498  11.259  12.128   2.839  0.0369  1.1211  0.6944
  917MOL0     H26499  11.279  12.166   2.673 -0.0864  1.5022  0.9824
  917MOL0     H26500  11.074  12.265   2.645 -2.2983 -0.6729  0.1115
  917MOL0     H26501  10.994  12.183   2.766 -1.0415 -0.3877 -3.3998
  917MOL0     H26502  11.232  12.382   2.842  1.2515 -0.6113  3.6473
  917MOL0     H26503  11.061  12.435   2.859 -0.7031  1.0498 -0.9381
  917MOL0     H26504  11.059  12.498   3.101 -0.9095  2.5832 -0.2324
  917MOL0     H26505  10.798  12.545   3.368  0.8176 -1.3438 -0.2901
  917MOL0     H26506  10.789  12.648   3.213  1.7302  1.3057 -1.5277
  917MOL0     H26507  10.941  12.615   3.298 -0.1810  0.8113 -1.6253
  917MOL0     H26508  10.340  12.420   3.097  1.6158  2.6061  0.0376
  917MOL0     H26509  10.111  12.386   3.165 -0.0258 -3.8546  0.6307
  917MOL0     H26510   9.824  12.459   3.359 -0.4443  1.5992 -1.1314
  917MOL0     H26511   9.940  12.456   3.227  4.6032  2.0306  3.0827
  917MOL0     H26512   9.960  12.204   3.272 -0.2470  0.3459 -0.2547
  917MOL0     H26513   9.857  12.241   3.416  1.2994  2.6779  0.7264
  917MOL0     H26514   9.786  12.162   3.145  1.5262  0.7119 -0.9651
  917MOL0     H26515   9.724  12.331   3.161 -2.1712  1.0962  3.2325
  917MOL0     H26516   9.667  12.104   3.342  1.8641  0.5759 -1.3240
  917MOL0     H26517   9.548  12.154   3.219  2.0233 -1.2247 -1.5934
  917MOL0     H26518   9.647  12.310   3.465  0.7689 -1.8540 -0.5015
  917MOL0     H26519   9.550  12.386   3.335 -2.2622  0.1465  1.6613
  917MOL0     H26520   9.468  12.160   3.517  0.1991  0.3893  0.0732
  917MOL0     H26521   9.392  12.175   3.372  0.0239 -1.1724  1.7686
  917MOL0     H26522   9.324  12.409   3.433  2.5769  1.6663  0.7926
  917MOL0     H26523   9.416  12.407   3.584 -0.4010  1.6107 -0.0031
  917MOL0     H26524   9.258  12.176   3.620  1.1320 -1.5260 -1.0917
  917MOL0     H26525   9.185  12.235   3.463 -1.8863  0.6897  0.2546
  917MOL0     H26526  10.193  12.439   3.572 -1.9047  1.1306 -1.8673
  917MOL0     H26527  10.440  12.429   3.529  1.5331 -2.1835 -0.8697
  917MOL0     H26528  10.731  12.128   3.147 -0.7204  0.4562  0.9753
  917MOL0     H26529  10.948  12.100   3.028 -1.7079 -0.8364  0.8369
  917MOL0     H26530   9.794  11.671   2.945  3.1146  1.2314 -0.8203
  917MOL0     H26531   9.738  11.522   3.130  0.2476  0.4940  0.8383
  917MOL0     H26532   9.879  11.504   3.337  0.0302 -0.7657  1.6271
  917MOL0     H26533  10.035  11.684   3.419 -1.0981  0.2569 -0.6702
  917MOL0     H26534  10.417  11.644   3.260  2.5955  1.7009 -0.0292
  917MOL0     H26535  10.458  11.790   3.353  2.1862  0.4908 -0.7953
  917MOL0     H26536  10.515  11.533   3.493  1.5287 -0.7169  0.8375
  917MOL0     H26537  10.579  11.700   3.501 -1.0741 -2.0607  2.7238
  917MOL0     H26538  10.632  11.499   3.273 -1.3423 -1.8713  1.7490
  917MOL0     H26539  10.699  11.664   3.289 -1.2079 -0.7118 -2.4760
  917MOL0     H26540  10.735  11.413   3.456 -1.0191  0.6982 -0.6569
  917MOL0     H26541  10.786  11.573   3.513 -0.6288  0.4626 -0.3999
  917MOL0     H26542  11.064  11.482   3.202 -1.1279  0.7759 -1.6100
  917MOL0     H26543  10.356  11.427   3.332 -0.5232  1.5074 -0.3171
  917MOL0     H26544  10.210  11.135   3.349  3.6025 -1.2901 -1.1595
  917MOL0     H26545  10.195  11.177   3.179 -0.4703 -0.5153  0.0796
  917MOL0     H26546  10.336  11.214   3.263  0.6179 -2.1056 -1.1614
  918MOL0     O26547   0.614   4.143   3.556  0.0947  0.3146  0.4251
  918MOL0     C26548   0.636   4.065   3.468 -0.3633  0.4815  0.2938
  918MOL0     O26549   0.657   4.103   3.338  0.1346  0.5604  0.4276
  918MOL0     C26550   0.647   4.238   3.309 -0.2550 -0.0208  0.8767
  918MOL0     C26551   0.523   4.303   3.330  0.4887 -0.6416  0.3937
  918MOL0     C26552   0.506   4.438   3.300  0.9538  0.5233 -0.2717
  918MOL0     C26553   0.607   4.519   3.249 -0.1173 -0.1912 -0.5114
  918MOL0     O26554   0.587   4.648   3.214 -0.2477  0.3905  0.0087
  918MOL0     C26555   0.675   4.724   3.128  0.7934  0.9269  0.4957
  918MOL0     C26556   0.612   4.856   3.089  0.7190 -0.4265  0.4324
  918MOL0     C26557   0.721   4.954   3.040 -0.1843  0.2253  0.3404
  918MOL0     C26558   0.665   5.022   2.909 -0.1517  0.6132  0.1851
  918MOL0     C26559   0.773   5.100   2.846  0.7562 -0.4668 -0.4698
  918MOL0     C26560   0.825   5.222   2.923  0.1900 -0.3190  0.0020
  918MOL0     C26561   0.899   5.314   2.841  0.1919 -0.4664  1.0778
  918MOL0     C26562   0.810   5.412   2.769  0.6418 -0.2489  1.2356
  918MOL0     N26563   0.723   5.493   2.848  0.8375  0.0426  0.0749
  918MOL0     C26564   0.589   5.502   2.827  0.6296  0.7571  0.9124
  918MOL0     C26565   0.557   5.615   2.893  0.0142 -0.3900 -0.2705
  918MOL0     C26566   0.424   5.685   2.879  0.4773  0.5471 -1.3210
  918MOL0     C26567   0.393   5.710   2.726 -0.2487  0.2715 -0.2227
  918MOL0     C26568   0.259   5.778   2.733 -0.4219  0.3935  0.5572
  918MOL0     C26569   0.209   5.831   2.596  0.0136  0.2361 -0.4035
  918MOL0     O26570   0.174   5.734   2.494  0.4350  0.4195  0.0230
  918MOL0     C26571   0.152   5.767   2.360  0.3459  0.3185  0.3171
  918MOL0     C26572   0.199   5.877   2.301  1.2264 -1.0683  0.9796
  918MOL0     C26573   0.170   5.918   2.169 -0.1255 -0.1629 -0.5664
  918MOL0     C26574   0.224   6.057   2.141  0.1440 -0.0699  0.1009
  918MOL0     C26575   0.096   5.831   2.083  0.0576 -0.3457 -0.0580
  918MOL0     C26576   0.071   5.857   1.941 -0.1537  0.7240  0.7652
  918MOL0     O26577   0.005   5.757   1.866  0.0328  0.5471  0.3939
  918MOL0     C26578  -0.004   5.784   1.733  0.2693 -0.3040  0.5061
  918MOL0     C26579  -0.127   5.795   1.667 -0.8134 -0.2691 -0.9118
  918MOL0     C26580  -0.143   5.824   1.530  0.4253 -0.6031 -1.6039
  918MOL0     C26581  -0.035   5.857   1.451  0.3337 -0.0582  1.4681
  918MOL0     O26582  -0.033   5.908   1.321 -0.1336  0.7990 -0.0068
  918MOL0     C26583  -0.124   5.855   1.220 -0.8299 -0.2222 -0.1622
  918MOL0     C26584  -0.226   5.959   1.166  0.7019  0.3090 -0.3061
  918MOL0     C26585  -0.145   6.075   1.111  0.4972  0.6750  0.0617
  918MOL0     C26586  -0.221   6.165   1.011  0.3916 -1.0492  0.3237
  918MOL0     C26587  -0.113   6.254   0.945 -0.1835  0.3749  0.1246
  918MOL0     C26588  -0.170   6.363   0.861  0.7321  0.4048 -1.3792
  918MOL0     C26589  -0.049   6.440   0.802  0.0608 -0.2817 -0.5611
  918MOL0     C26590  -0.083   6.551   0.709  0.4374  0.0642  0.4201
  918MOL0    Cl26591  -0.178   6.692   0.786 -0.4440 -0.0379 -0.7192
  918MOL0     C26592   0.092   5.848   1.519  0.0281  0.3721  0.4581
  918MOL0     C26593   0.108   5.806   1.653 -0.3374  0.5858  0.0465
  918MOL0     O26594   0.101   5.963   1.897  0.0090 -0.2002  0.4332
  918MOL0     C26595   0.062   5.705   2.144 -0.1095 -0.0676  0.2007
  918MOL0     C26596   0.093   5.675   2.280 -0.4504 -0.5917  1.7049
  918MOL0     N26597   0.663   5.673   2.958 -0.1087 -0.4587  1.1635
  918MOL0     N26598   0.762   5.598   2.930 -0.0477  0.4736 -0.0916
  918MOL0     C26599   0.734   4.454   3.220  0.4363  0.1856  0.9345
  918MOL0     C26600   0.746   4.317   3.257 -0.3609 -0.5059 -0.6328
  918MOL0     C26601   0.597   3.924   3.485  0.8373  0.3830 -0.0460
  918MOL0     C26602   0.557   3.846   3.382  0.8723  0.8417 -0.5475
  918MOL0     C26603   0.514   3.718   3.400  0.1112  0.4002 -0.2136
  918MOL0     C26604   0.521   3.648   3.519  0.5932  0.9158  0.1031
  918MOL0     O26605   0.505   3.511   3.514 -0.0471 -0.1404  0.4730
  918MOL0     C26606   0.512   3.438   3.637 -0.9899 -0.3272 -0.6556
  918MOL0     C26607   0.544   3.290   3.616  0.3494 -0.5104 -0.5724
  918MOL0     C26608   0.652   3.246   3.521 -0.4554 -0.0069 -0.1128
  918MOL0     C26609   0.688   3.094   3.537 -0.3329 -0.0246 -1.0412
  918MOL0     C26610   0.743   3.072   3.672 -0.2391  0.0856 -0.4188
  918MOL0     C26611   0.785   3.009   3.771  0.3956 -0.1526  1.2668
  918MOL0     C26612   0.558   3.721   3.632 -0.1507  0.0230  0.0560
  918MOL0     C26613   0.605   3.861   3.614 -1.0251 -0.1235 -0.9625
  918MOL0     C26614   0.668   3.923   3.743  0.8708 -0.0945 -0.4214
  918MOL0     H26615   0.435   4.252   3.367 -1.9593  2.8545 -0.0284
  918MOL0     H26616   0.410   4.486   3.318  0.4108 -0.5699 -0.0943
  918MOL0     H26617   0.705   4.668   3.039 -3.3489  0.7698 -1.0407
  918MOL0     H26618   0.768   4.743   3.182  1.1589  0.7075 -0.0526
  918MOL0     H26619   0.544   4.827   3.008 -0.0695  0.3874  0.7927
  918MOL0     H26620   0.562   4.902   3.174  0.0080  1.5099 -0.9552
  918MOL0     H26621   0.734   5.025   3.122 -0.6778 -3.2474  3.6983
  918MOL0     H26622   0.818   4.906   3.026 -1.4284 -2.7149  0.9891
  918MOL0     H26623   0.630   4.949   2.836  4.7639 -3.3036  1.1691
  918MOL0     H26624   0.572   5.071   2.938 -1.8736 -2.9619  1.2667
  918MOL0     H26625   0.729   5.135   2.752  1.4928 -0.6572 -0.8955
  918MOL0     H26626   0.862   5.042   2.822  1.9197  0.0242  2.3019
  918MOL0     H26627   0.749   5.273   2.983 -0.7615 -2.0817  0.3645
  918MOL0     H26628   0.896   5.190   3.000  0.9120 -0.9916 -0.9223
  918MOL0     H26629   0.965   5.279   2.761  1.1069 -0.4879  1.8223
  918MOL0     H26630   0.959   5.377   2.908 -1.9484  2.2113  0.6995
  918MOL0     H26631   0.878   5.484   2.722 -0.2615  1.8641  2.9525
  918MOL0     H26632   0.756   5.352   2.696 -2.8038  1.7361  1.8864
  918MOL0     H26633   0.525   5.446   2.760  0.6775 -1.2944  2.4586
  918MOL0     H26634   0.413   5.768   2.949  1.6167 -0.1221 -0.3142
  918MOL0     H26635   0.350   5.611   2.910  0.6199  0.9742  0.0714
  918MOL0     H26636   0.477   5.766   2.682 -0.5284 -1.0835 -2.6708
  918MOL0     H26637   0.371   5.614   2.680 -0.6084 -0.5600  1.6305
  918MOL0     H26638   0.192   5.712   2.789 -2.7934  0.1097 -2.3715
  918MOL0     H26639   0.274   5.865   2.798  0.3639  2.0825 -1.7403
  918MOL0     H26640   0.127   5.902   2.612 -2.1412 -1.7258 -1.9613
  918MOL0     H26641   0.290   5.890   2.551  0.4276 -1.1639 -1.5577
  918MOL0     H26642   0.231   5.958   2.366 -0.2750 -0.8236  1.4455
  918MOL0     H26643   0.145   6.130   2.121 -0.2868 -0.9045 -1.3509
  918MOL0     H26644   0.284   6.069   2.050 -0.9348  1.5487 -0.4476
  918MOL0     H26645   0.275   6.105   2.226  0.6785  0.7777 -0.6791
  918MOL0     H26646  -0.209   5.762   1.729  0.1850 -1.0784  0.0329
  918MOL0     H26647  -0.245   5.839   1.497 -0.5382  0.5548  1.5577
  918MOL0     H26648  -0.070   5.828   1.129 -2.0676  1.2104 -1.3952
  918MOL0     H26649  -0.167   5.767   1.269 -1.2351 -1.2641 -2.2704
  918MOL0     H26650  -0.284   5.916   1.084  0.3406 -0.3588  0.2914
  918MOL0     H26651  -0.290   5.984   1.251  0.5619  1.4256 -0.7275
  918MOL0     H26652  -0.060   6.031   1.057  2.2329  0.4312  2.8042
  918MOL0     H26653  -0.110   6.125   1.202  1.6242 -0.1554  0.1057
  918MOL0     H26654  -0.288   6.232   1.066  2.4755 -0.7624  2.6748
  918MOL0     H26655  -0.280   6.103   0.943 -0.1700 -0.6574  0.4417
  918MOL0     H26656  -0.052   6.308   1.017 -0.1390  2.4153 -1.3711
  918MOL0     H26657  -0.054   6.187   0.882 -1.1565 -0.7526  0.3633
  918MOL0     H26658  -0.230   6.432   0.920 -1.1462  0.0231 -2.7522
  918MOL0     H26659  -0.246   6.323   0.793 -0.2111 -1.0608  0.4620
  918MOL0     H26660   0.028   6.378   0.755  0.6515 -0.3618  0.4949
  918MOL0     H26661   0.003   6.484   0.888 -0.2236 -0.8684 -0.0851
  918MOL0     H26662  -0.143   6.500   0.633 -0.2718 -0.4694  1.3214
  918MOL0     H26663   0.003   6.598   0.660 -0.1400  0.0496 -0.6452
  918MOL0     H26664   0.175   5.879   1.457 -0.9420  1.8988 -0.1322
  918MOL0     H26665   0.205   5.802   1.701 -0.7260  0.6135  0.8436
  918MOL0     H26666   0.013   5.634   2.079 -0.9952  2.2025 -1.7790
  918MOL0     H26667   0.067   5.578   2.321  0.5212 -1.4589  0.3641
  918MOL0     H26668   0.815   4.518   3.185  0.8606  0.5407  2.4983
  918MOL0     H26669   0.847   4.279   3.251 -0.0694  0.4082 -1.7184
  918MOL0     H26670   0.548   3.886   3.281  0.7296  0.3169 -0.7437
  918MOL0     H26671   0.470   3.659   3.321 -1.3289 -2.0229  2.2209
  918MOL0     H26672   0.606   3.471   3.682 -0.7922 -0.3185 -1.0677
  918MOL0     H26673   0.433   3.466   3.707 -0.3638 -2.5074  1.0392
  918MOL0     H26674   0.442   3.258   3.593  0.4869 -2.3588  1.2053
  918MOL0     H26675   0.571   3.255   3.716 -0.8397 -3.2485 -1.1256
  918MOL0     H26676   0.621   3.263   3.417 -1.8590  1.0952  0.4600
  918MOL0     H26677   0.746   3.298   3.543  0.5058 -1.9051  0.4737
  918MOL0     H26678   0.759   3.073   3.457  1.1449 -1.5061  0.5706
  918MOL0     H26679   0.601   3.027   3.528  1.8781 -3.2151 -0.5391
  918MOL0     H26680   0.831   2.945   3.843 -2.0735 -4.2078 -0.3803
  918MOL0     H26681   0.554   3.672   3.729 -0.0586  1.9411  1.0840
  918MOL0     H26682   0.698   3.851   3.819  2.2757  0.9031  0.0154
  918MOL0     H26683   0.762   3.978   3.729  0.2149  1.3952  0.7369
  918MOL0     H26684   0.588   3.985   3.785 -0.5916 -0.9917 -1.7793
  919MOL0     O26685   0.380   9.064   5.957 -0.1859 -0.4372 -0.7339
  919MOL0     C26686   0.455   9.012   5.873 -0.8932 -0.0812 -0.6160
  919MOL0     O26687   0.417   8.954   5.759 -0.1343 -0.1084 -0.3299
  919MOL0     C26688   0.285   8.922   5.739  0.4301  0.1836 -0.1917
  919MOL0     C26689   0.236   8.795   5.742 -0.3903  0.8744  0.3737
  919MOL0     C26690   0.102   8.775   5.706  0.3940  0.3698 -0.0068
  919MOL0     C26691   0.008   8.879   5.677 -0.9342 -0.0196 -0.4023
  919MOL0     O26692  -0.117   8.856   5.630 -0.2797 -0.1280  0.7191
  919MOL0     C26693  -0.221   8.882   5.723 -0.4879  1.0510  0.8926
  919MOL0     C26694  -0.340   8.798   5.682 -0.5129  0.2691  0.4478
  919MOL0     C26695  -0.411   8.841   5.557  0.0871  0.4171  0.2443
  919MOL0     C26696  -0.550   8.798   5.553  1.2446  0.1761  0.2467
  919MOL0     C26697  -0.634   8.840   5.424 -0.0496 -0.6811  0.0038
  919MOL0     C26698  -0.620   8.988   5.397  0.4129 -0.0509 -0.6183
  919MOL0     C26699  -0.708   9.043   5.280  0.3716  0.6032  0.8062
  919MOL0     C26700  -0.660   8.985   5.151 -0.5975  0.5985  0.6763
  919MOL0     N26701  -0.769   8.930   5.069 -0.4008 -0.0472 -0.4169
  919MOL0     C26702  -0.840   8.813   5.081  0.5164  0.0999 -0.6292
  919MOL0     C26703  -0.920   8.812   4.974  0.0352  0.3373 -0.6384
  919MOL0     C26704  -1.017   8.706   4.934 -0.0928  0.3439  0.2532
  919MOL0     C26705  -1.017   8.696   4.781 -0.2307 -0.0742 -0.1481
  919MOL0     C26706  -1.106   8.580   4.733 -0.0830 -0.1257 -0.4943
  919MOL0     C26707  -1.131   8.592   4.586 -0.3982  0.1300  0.6690
  919MOL0     O26708  -1.235   8.685   4.566  0.2090  1.2004 -0.2994
  919MOL0     C26709  -1.263   8.703   4.434  0.4472 -0.2786  0.1127
  919MOL0     C26710  -1.394   8.678   4.374 -0.3040 -0.1030  0.1136
  919MOL0     C26711  -1.430   8.724   4.243 -0.5634 -0.0522  0.2231
  919MOL0     C26712  -1.584   8.702   4.203  0.0240 -0.2820 -0.3250
  919MOL0     C26713  -1.333   8.791   4.168  0.0298  1.1337  0.0865
  919MOL0     C26714  -1.368   8.845   4.033  0.2246  0.2298  0.6759
  919MOL0     O26715  -1.271   8.830   3.935  0.3305  0.2068 -0.8215
  919MOL0     C26716  -1.296   8.890   3.810 -0.4244  0.6988 -0.6529
  919MOL0     C26717  -1.311   8.801   3.700 -0.4006 -0.7750 -0.9981
  919MOL0     C26718  -1.346   8.854   3.572 -0.3421  0.4891 -0.5472
  919MOL0     C26719  -1.355   8.989   3.546 -0.4167 -0.5963  0.6699
  919MOL0     O26720  -1.352   9.027   3.421 -0.4093  0.0124  0.0239
  919MOL0     C26721  -1.466   9.098   3.382 -0.1919  0.4589  0.7823
  919MOL0     C26722  -1.427   9.205   3.276  0.7611 -0.2439  0.1364
  919MOL0     C26723  -1.410   9.140   3.140 -0.3164  0.3551  0.3254
  919MOL0     C26724  -1.354   9.240   3.025  0.2395 -0.1347  0.2585
  919MOL0     C26725  -1.284   9.173   2.908 -1.0119 -0.0317  0.9952
  919MOL0     C26726  -1.210   9.259   2.797  0.2375  0.3656 -0.3784
  919MOL0     C26727  -1.111   9.342   2.861  0.3253 -0.5889 -0.0666
  919MOL0     C26728  -1.006   9.413   2.779  0.5005 -0.8069 -0.2714
  919MOL0    Cl26729  -1.101   9.497   2.653 -0.0366  0.0888  0.6488
  919MOL0     C26730  -1.342   9.077   3.655 -0.4637  0.0861 -0.1785
  919MOL0     C26731  -1.309   9.021   3.783 -0.4587 -0.9234 -0.4738
  919MOL0     O26732  -1.458   8.930   4.034 -0.2813  0.4813 -0.3522
  919MOL0     C26733  -1.206   8.812   4.218 -0.1026 -0.6708 -0.0272
  919MOL0     C26734  -1.171   8.775   4.351  0.0800 -0.6287 -0.1845
  919MOL0     N26735  -0.900   8.934   4.912 -0.4648  0.1807 -0.7005
  919MOL0     N26736  -0.811   9.005   4.965 -0.3493 -0.3298 -0.1144
  919MOL0     C26737   0.062   9.009   5.684 -0.0539 -0.0264  0.0907
  919MOL0     C26738   0.194   9.030   5.717 -0.7301 -0.1809  1.0436
  919MOL0     C26739   0.601   9.025   5.891  0.1539  0.1679 -0.5187
  919MOL0     C26740   0.681   8.916   5.840 -0.4102 -0.0385  0.4041
  919MOL0     C26741   0.811   8.903   5.874  0.1255 -0.3539 -0.4372
  919MOL0     C26742   0.871   9.005   5.942 -0.3417  0.4159 -0.1664
  919MOL0     O26743   1.008   9.019   5.955 -0.3855  0.1017  0.3428
  919MOL0     C26744   1.065   8.940   6.053 -0.1635  0.3137  0.0825
  919MOL0     C26745   1.053   8.784   6.062 -0.7462  0.9218 -0.8754
  919MOL0     C26746   0.925   8.731   6.145 -0.4860  0.0018  0.8452
  919MOL0     C26747   0.929   8.590   6.188  0.2965 -0.0180  0.2376
  919MOL0     C26748   0.805   8.551   6.261  1.8873 -0.2819  0.0330
  919MOL0     C26749   0.701   8.522   6.318  0.0721 -0.1489  0.6645
  919MOL0     C26750   0.798   9.110   5.987  0.4993 -1.0973  0.8931
  919MOL0     C26751   0.658   9.128   5.964 -0.2959 -1.1164 -0.1982
  919MOL0     C26752   0.603   9.256   6.013 -1.2410  0.0716 -0.3186
  919MOL0     H26753   0.294   8.709   5.775 -0.0907  0.8963 -0.0977
  919MOL0     H26754   0.061   8.676   5.687 -1.5357  0.4431  3.0075
  919MOL0     H26755  -0.244   8.989   5.728  3.0942  2.0025 -0.2515
  919MOL0     H26756  -0.190   8.856   5.825 -0.2913 -0.2466  0.5188
  919MOL0     H26757  -0.294   8.701   5.665  2.6760  1.9644 -1.7612
  919MOL0     H26758  -0.413   8.792   5.763 -0.9702  2.8814  0.3149
  919MOL0     H26759  -0.409   8.951   5.549  0.2662  0.4541  0.7852
  919MOL0     H26760  -0.363   8.791   5.473  1.5776  1.5047  0.4056
  919MOL0     H26761  -0.543   8.690   5.573  1.4951 -0.1797 -1.6467
  919MOL0     H26762  -0.603   8.841   5.639 -3.1514  0.8621 -2.4477
  919MOL0     H26763  -0.736   8.808   5.444 -0.1580 -0.6486 -0.4903
  919MOL0     H26764  -0.599   8.783   5.337 -0.7216  1.6621 -1.8971
  919MOL0     H26765  -0.622   9.051   5.486 -0.4664  0.6602 -1.1175
  919MOL0     H26766  -0.517   9.007   5.366  1.1754 -2.9995 -0.1364
  919MOL0     H26767  -0.702   9.152   5.284  1.7108  0.6938 -1.8291
  919MOL0     H26768  -0.816   9.024   5.284  0.4236  0.0335 -0.1778
  919MOL0     H26769  -0.613   9.068   5.097  0.3167 -0.8686 -0.8767
  919MOL0     H26770  -0.580   8.912   5.164  1.3933  2.6329  0.5494
  919MOL0     H26771  -0.824   8.741   5.161  1.4013 -0.2368 -1.0941
  919MOL0     H26772  -1.110   8.730   4.986 -0.7908  2.2334 -1.7129
  919MOL0     H26773  -0.969   8.614   4.968  0.3176  0.5512  0.2460
  919MOL0     H26774  -1.068   8.777   4.729  0.3708  0.0864 -0.5067
  919MOL0     H26775  -0.917   8.679   4.740 -0.3551 -0.0338 -0.4720
  919MOL0     H26776  -1.060   8.481   4.746 -2.0770 -0.8049  2.1676
  919MOL0     H26777  -1.203   8.569   4.782 -0.0635  0.7694 -0.2369
  919MOL0     H26778  -1.035   8.620   4.541 -0.0351 -1.6733  0.2445
  919MOL0     H26779  -1.163   8.495   4.546  0.7130 -0.0437  0.1700
  919MOL0     H26780  -1.475   8.632   4.430 -0.8435  1.4315  0.6486
  919MOL0     H26781  -1.639   8.797   4.213  1.8776  0.6575  2.0501
  919MOL0     H26782  -1.635   8.635   4.273 -4.0686  2.1835 -0.5554
  919MOL0     H26783  -1.592   8.671   4.099  1.5477 -2.2839  0.0919
  919MOL0     H26784  -1.290   8.698   3.727 -1.7975  0.0136  4.1522
  919MOL0     H26785  -1.349   8.777   3.495  1.0291  0.8367 -0.9871
  919MOL0     H26786  -1.548   9.036   3.344 -0.9254  1.7235  0.2230
  919MOL0     H26787  -1.515   9.153   3.464 -1.4292 -2.7926  2.3933
  919MOL0     H26788  -1.515   9.270   3.277 -0.3679 -1.6688 -1.5591
  919MOL0     H26789  -1.341   9.270   3.298 -1.2889  2.1056  1.8380
  919MOL0     H26790  -1.509   9.117   3.101  0.6758 -3.0087 -0.4960
  919MOL0     H26791  -1.356   9.046   3.154 -2.8134 -0.8651  2.5929
  919MOL0     H26792  -1.270   9.297   3.066  0.2686 -1.0956  1.5932
  919MOL0     H26793  -1.429   9.309   2.985 -3.1688 -2.8036  1.4749
  919MOL0     H26794  -1.202   9.112   2.946  1.8651  2.0794 -1.4040
  919MOL0     H26795  -1.343   9.092   2.863  0.9501 -0.5860 -0.7540
  919MOL0     H26796  -1.289   9.311   2.743 -2.5419 -1.5401  1.6201
  919MOL0     H26797  -1.170   9.195   2.717 -1.8907  0.5219 -1.6446
  919MOL0     H26798  -1.052   9.283   2.932  1.8270  0.1057 -0.7003
  919MOL0     H26799  -1.169   9.419   2.912  4.5684  2.6654  0.3978
  919MOL0     H26800  -0.932   9.344   2.737  1.9485 -1.0861  2.4988
  919MOL0     H26801  -0.946   9.485   2.835 -1.2052  1.2077 -0.9055
  919MOL0     H26802  -1.348   9.185   3.644 -0.0054 -0.0765 -2.5718
  919MOL0     H26803  -1.288   9.098   3.857  1.5621 -0.0938 -1.8187
  919MOL0     H26804  -1.127   8.859   4.161 -1.6273  2.3028  0.1191
  919MOL0     H26805  -1.080   8.809   4.400 -0.1369  2.0945 -1.4568
  919MOL0     H26806  -0.022   9.076   5.664 -0.8477 -1.3349 -1.1459
  919MOL0     H26807   0.225   9.132   5.736 -0.1568 -0.4387  1.5405
  919MOL0     H26808   0.644   8.834   5.779  1.7706  0.3057 -1.5154
  919MOL0     H26809   0.871   8.821   5.834 -2.1854 -1.3963 -2.0338
  919MOL0     H26810   1.170   8.969   6.050 -0.2349  0.5166 -0.7316
  919MOL0     H26811   1.029   8.978   6.149 -2.0560  0.8780 -0.7966
  919MOL0     H26812   1.139   8.743   6.116 -2.5985  0.3022  1.7757
  919MOL0     H26813   1.062   8.743   5.961 -2.4748 -0.6245 -0.4479
  919MOL0     H26814   0.914   8.803   6.226 -3.7043  3.0695 -1.9967
  919MOL0     H26815   0.835   8.743   6.085  1.4601  3.1236 -1.7620
  919MOL0     H26816   1.010   8.566   6.258 -0.1518 -1.0080  0.4339
  919MOL0     H26817   0.935   8.516   6.107  0.2402 -0.5562  0.7158
  919MOL0     H26818   0.603   8.498   6.356  0.1407  2.1237  2.5197
  919MOL0     H26819   0.856   9.182   6.043  2.6823 -2.3710  0.3867
  919MOL0     H26820   0.508   9.282   5.965 -0.3945  1.7871 -1.1451
  919MOL0     H26821   0.588   9.258   6.121  0.7750 -2.0126  0.0649
  919MOL0     H26822   0.680   9.333   6.007  1.0294 -2.0421  0.3134
  920MOL0     O26823   9.040   4.266   1.013 -0.6210  0.4326 -0.3252
  920MOL0     C26824   9.024   4.383   0.973  0.0484 -0.5030 -0.9642
  920MOL0     O26825   9.090   4.438   0.868 -0.3584  0.8747 -0.4323
  920MOL0     C26826   9.192   4.360   0.812 -1.0939 -0.2106 -0.4794
  920MOL0     C26827   9.322   4.342   0.872 -0.2898 -0.4783 -0.3747
  920MOL0     C26828   9.424   4.267   0.802  0.0746  0.4899 -0.0767
  920MOL0     C26829   9.396   4.203   0.681 -0.4973 -0.1274  0.5528
  920MOL0     O26830   9.484   4.131   0.605 -0.5637  0.5068 -0.1950
  920MOL0     C26831   9.624   4.130   0.636 -1.0023  0.2090  0.3678
  920MOL0     C26832   9.685   4.075   0.509  0.0122  0.2940 -0.9162
  920MOL0     C26833   9.714   4.186   0.413  0.0561 -0.3641  0.5064
  920MOL0     C26834   9.789   4.120   0.292 -0.2750 -0.2463  0.0197
  920MOL0     C26835   9.799   4.207   0.168  0.2317 -0.0590 -0.5125
  920MOL0     C26836   9.875   4.139   0.058  0.0253  0.2753 -0.5981
  920MOL0     C26837   9.868   4.227  -0.064 -0.2786 -0.3119  0.4352
  920MOL0     C26838   9.963   4.165  -0.174 -0.9733  0.2163  0.2165
  920MOL0     N26839   9.975   4.252  -0.286  0.0796 -0.8181  0.8055
  920MOL0     C26840   9.964   4.225  -0.418 -0.2847 -0.8125 -0.2714
  920MOL0     C26841  10.016   4.333  -0.489 -0.1687  0.8428  0.5752
  920MOL0     C26842  10.062   4.332  -0.632  0.1816 -0.5969 -0.4337
  920MOL0     C26843   9.948   4.334  -0.731 -0.1385  0.3648 -0.2238
  920MOL0     C26844   9.884   4.195  -0.759  0.3204  0.7114 -0.2623
  920MOL0     C26845   9.774   4.214  -0.853  0.4747 -0.5631  0.5726
  920MOL0     O26846   9.730   4.091  -0.905 -0.9179 -0.8518 -0.6239
  920MOL0     C26847   9.628   4.107  -0.989 -0.4678 -0.9717  0.2865
  920MOL0     C26848   9.513   4.021  -0.976 -0.3438 -0.7306 -0.6078
  920MOL0     C26849   9.408   4.024  -1.066  0.4145  0.8288  0.1267
  920MOL0     C26850   9.314   3.902  -1.046 -0.5275  0.0040 -0.5091
  920MOL0     C26851   9.407   4.109  -1.172  0.2742  0.5024  0.5949
  920MOL0     C26852   9.301   4.100  -1.285 -0.0362 -0.3453 -0.7144
  920MOL0     O26853   9.330   4.179  -1.391 -0.2508  0.5407  0.0742
  920MOL0     C26854   9.245   4.186  -1.496  0.5198 -0.5241 -0.2884
  920MOL0     C26855   9.108   4.183  -1.484 -0.1588  0.4444  0.3554
  920MOL0     C26856   9.034   4.200  -1.598  0.2379 -0.6199 -0.6800
  920MOL0     C26857   9.084   4.215  -1.730  0.0861 -0.3256 -0.5137
  920MOL0     O26858   8.992   4.227  -1.828  0.2505  0.0917  0.1796
  920MOL0     C26859   9.027   4.245  -1.963  0.2224 -0.7434 -0.0897
  920MOL0     C26860   9.058   4.388  -1.980 -0.0974  0.3632  0.4687
  920MOL0     C26861   9.150   4.407  -2.104  0.1882 -0.9741 -0.0642
  920MOL0     C26862   9.175   4.549  -2.153  0.0547 -0.4770  0.2033
  920MOL0     C26863   9.259   4.547  -2.283 -0.1433  0.4233 -0.4636
  920MOL0     C26864   9.311   4.690  -2.327  0.7228 -0.0090 -0.1015
  920MOL0     C26865   9.385   4.755  -2.210 -0.3434 -0.0197 -0.1506
  920MOL0     C26866   9.434   4.887  -2.266 -0.7753 -0.2471  0.5733
  920MOL0    Cl26867   9.500   4.996  -2.134 -0.1684  0.6127 -0.3695
  920MOL0     C26868   9.222   4.222  -1.742 -1.2266 -0.2142  1.0059
  920MOL0     C26869   9.302   4.207  -1.622 -1.4894 -0.4033  0.0385
  920MOL0     O26870   9.217   4.011  -1.291 -0.5563 -0.7349  0.4539
  920MOL0     C26871   9.513   4.194  -1.190 -0.3680  0.4281  0.4963
  920MOL0     C26872   9.625   4.192  -1.100 -0.1837 -0.1845  0.2714
  920MOL0     N26873  10.064   4.417  -0.397 -0.7324 -0.4886 -0.0953
  920MOL0     N26874  10.040   4.372  -0.278 -0.6763 -0.6428 -0.3749
  920MOL0     C26875   9.273   4.222   0.620 -0.8263 -0.9348  0.4653
  920MOL0     C26876   9.174   4.300   0.686 -0.1543 -0.7196  0.3906
  920MOL0     C26877   8.917   4.460   1.027 -1.6766 -0.1483 -0.5542
  920MOL0     C26878   8.928   4.507   1.157  0.0510 -0.7260  0.0002
  920MOL0     C26879   8.817   4.564   1.207  0.5581 -0.1739  0.3576
  920MOL0     C26880   8.700   4.578   1.135  0.9856 -0.3963  1.2448
  920MOL0     O26881   8.579   4.631   1.187  0.6486 -0.0141 -0.6402
  920MOL0     C26882   8.602   4.753   1.257 -0.1273 -0.0619  0.1765
  920MOL0     C26883   8.472   4.841   1.267 -0.3451  0.7648  0.7490
  920MOL0     C26884   8.474   4.966   1.365 -0.4579 -0.8998  0.6154
  920MOL0     C26885   8.602   5.051   1.338 -1.1608  0.5173  1.1264
  920MOL0     C26886   8.730   5.005   1.400  1.0923 -0.6008 -0.2223
  920MOL0     C26887   8.824   4.953   1.454 -0.2267 -0.2522  0.3041
  920MOL0     C26888   8.692   4.526   1.008 -0.1310  0.7844  0.5521
  920MOL0     C26889   8.804   4.470   0.954  0.4187  0.1478 -0.6382
  920MOL0     C26890   8.793   4.404   0.822 -0.0003 -0.4471  0.1787
  920MOL0     H26891   9.341   4.372   0.975  1.1276  0.7554 -0.9628
  920MOL0     H26892   9.517   4.255   0.857 -0.1078  0.4266  0.2228
  920MOL0     H26893   9.651   4.075   0.727  3.3244 -2.3824 -2.1478
  920MOL0     H26894   9.659   4.233   0.647 -1.7833  0.3304  2.1167
  920MOL0     H26895   9.773   4.012   0.526 -1.6452 -2.5443 -2.0682
  920MOL0     H26896   9.616   4.009   0.455  0.2506 -0.3391 -0.4611
  920MOL0     H26897   9.625   4.221   0.361  2.2968 -0.3335 -3.7016
  920MOL0     H26898   9.770   4.266   0.462 -0.3874 -0.5184  1.2850
  920MOL0     H26899   9.890   4.097   0.326  0.1856  3.5025  1.6779
  920MOL0     H26900   9.751   4.020   0.266  1.3883 -1.6605  2.5394
  920MOL0     H26901   9.848   4.301   0.196  0.3733 -0.8038  2.0905
  920MOL0     H26902   9.700   4.238   0.134 -0.2631  0.8831  1.6089
  920MOL0     H26903   9.980   4.147   0.089 -0.2646  1.8406  0.0706
  920MOL0     H26904   9.846   4.038   0.030  2.4765  0.0401 -2.5862
  920MOL0     H26905   9.894   4.333  -0.062 -4.7133  0.9666  1.8426
  920MOL0     H26906   9.767   4.227  -0.107  0.0768  2.0272 -0.6002
  920MOL0     H26907  10.063   4.156  -0.129 -0.8984 -0.5817 -0.0994
  920MOL0     H26908   9.939   4.068  -0.219  1.5470 -0.1274 -0.5698
  920MOL0     H26909   9.935   4.136  -0.472 -3.6779 -0.5703  0.9076
  920MOL0     H26910  10.123   4.244  -0.653 -2.5596 -2.9031  0.5928
  920MOL0     H26911  10.115   4.428  -0.631  0.5744 -0.6798  3.6526
  920MOL0     H26912   9.881   4.414  -0.700  1.6122  1.7156  0.2645
  920MOL0     H26913   9.991   4.372  -0.825  3.2528  0.1466  1.0804
  920MOL0     H26914   9.965   4.129  -0.788 -1.1100 -2.9023  3.0704
  920MOL0     H26915   9.842   4.155  -0.666  0.5199 -1.2565 -0.9916
  920MOL0     H26916   9.689   4.273  -0.817 -1.8103 -3.0664 -0.3681
  920MOL0     H26917   9.811   4.266  -0.941 -1.4869  0.2334  0.1709
  920MOL0     H26918   9.518   3.953  -0.891 -2.9790 -1.2300 -0.7610
  920MOL0     H26919   9.318   3.872  -0.941  1.4654  0.5252 -0.4033
  920MOL0     H26920   9.352   3.815  -1.101 -2.7917 -1.5651  0.2559
  920MOL0     H26921   9.210   3.924  -1.072 -0.2629 -0.1979 -1.8025
  920MOL0     H26922   9.066   4.160  -1.386  0.9073  0.0570  0.7391
  920MOL0     H26923   8.926   4.207  -1.583  0.4035  1.7484 -0.2020
  920MOL0     H26924   9.112   4.178  -1.979 -0.3500 -1.3392 -0.6976
  920MOL0     H26925   8.940   4.220  -2.024 -1.4290  0.1954  1.7840
  920MOL0     H26926   8.956   4.424  -1.999 -0.4259 -1.0746 -0.6905
  920MOL0     H26927   9.108   4.425  -1.891  2.6659 -1.7192 -0.0785
  920MOL0     H26928   9.110   4.350  -2.188  1.9136 -0.0708 -1.5803
  920MOL0     H26929   9.246   4.368  -2.067  0.1805  1.3963  2.8263
  920MOL0     H26930   9.229   4.592  -2.068  1.4490 -2.1260  0.2172
  920MOL0     H26931   9.092   4.616  -2.178  2.8846  3.1937 -0.2455
  920MOL0     H26932   9.344   4.486  -2.250 -0.8456 -0.4280 -0.1936
  920MOL0     H26933   9.215   4.500  -2.371 -1.0153 -1.2694  0.8118
  920MOL0     H26934   9.232   4.747  -2.375 -0.5050 -1.3656  0.2073
  920MOL0     H26935   9.380   4.677  -2.411  0.0309 -1.6023 -0.4596
  920MOL0     H26936   9.470   4.698  -2.171  1.3012  2.2290 -0.2922
  920MOL0     H26937   9.317   4.783  -2.129 -0.6952  1.4083 -0.9127
  920MOL0     H26938   9.359   4.941  -2.324 -2.9662  1.5275  4.6348
  920MOL0     H26939   9.526   4.873  -2.323 -1.4133  1.5533 -1.0181
  920MOL0     H26940   9.266   4.221  -1.841 -1.7181  2.5170  0.7015
  920MOL0     H26941   9.410   4.204  -1.613 -1.4369  2.4136  2.0145
  920MOL0     H26942   9.516   4.264  -1.274  2.1199 -0.8808 -0.5948
  920MOL0     H26943   9.712   4.253  -1.123 -1.4321  2.4437  2.0779
  920MOL0     H26944   9.248   4.168   0.529 -3.0832  0.6146  0.0757
  920MOL0     H26945   9.075   4.311   0.642 -0.5409  0.1001  1.4263
  920MOL0     H26946   9.018   4.508   1.218  1.5584  2.4789 -2.0014
  920MOL0     H26947   8.814   4.601   1.309 -1.9521  0.9273 -0.0356
  920MOL0     H26948   8.638   4.737   1.359  3.2118 -3.3114 -1.2734
  920MOL0     H26949   8.682   4.815   1.216 -0.7376  1.8475  1.7106
  920MOL0     H26950   8.380   4.785   1.288  0.3156 -0.3687  0.7215
  920MOL0     H26951   8.461   4.879   1.166  0.5150  2.3005  1.1979
  920MOL0     H26952   8.394   5.039   1.350  0.6430  0.2861  0.3738
  920MOL0     H26953   8.467   4.935   1.470  0.2099  1.4219  1.4012
  920MOL0     H26954   8.572   5.151   1.370 -2.0290  0.8608 -0.6074
  920MOL0     H26955   8.620   5.055   1.230 -0.5563  1.1406  1.2438
  920MOL0     H26956   8.918   4.927   1.499 -0.8298 -0.9256  1.1963
  920MOL0     H26957   8.596   4.525   0.958 -1.1721 -2.9566  2.2744
  920MOL0     H26958   8.854   4.314   0.809  0.9193  0.3812 -1.5212
  920MOL0     H26959   8.693   4.367   0.799  0.1899  0.8231 -3.1693
  920MOL0     H26960   8.813   4.466   0.735  0.2945 -2.5048 -1.2814
  921MOL0     O26961   4.725   7.940   1.105 -0.2402 -0.1560 -0.2210
  921MOL0     C26962   4.714   7.866   1.204  0.0285 -0.3805  0.2544
  921MOL0     O26963   4.606   7.861   1.294  0.1434 -0.1630  0.1617
  921MOL0     C26964   4.526   7.972   1.292  0.7880  0.0278 -0.8575
  921MOL0     C26965   4.401   7.959   1.233  0.2794  0.1360 -0.5443
  921MOL0     C26966   4.315   8.066   1.219  0.1672 -0.7484  0.3429
  921MOL0     C26967   4.361   8.200   1.260  0.3455  0.2468 -1.0236
  921MOL0     O26968   4.274   8.311   1.243 -0.8095  0.6109 -1.2242
  921MOL0     C26969   4.303   8.447   1.264 -0.2857  0.2182 -1.0220
  921MOL0     C26970   4.178   8.533   1.246  0.3235  0.1897 -0.0533
  921MOL0     C26971   4.205   8.684   1.261  0.8154 -0.1178  0.5338
  921MOL0     C26972   4.243   8.755   1.127  0.0095 -0.1954  0.1780
  921MOL0     C26973   4.261   8.897   1.156  0.0132 -0.3613 -0.4515
  921MOL0     C26974   4.331   8.982   1.042  0.5731  0.8349 -0.8537
  921MOL0     C26975   4.236   8.998   0.920 -0.5962  0.7069  0.9548
  921MOL0     C26976   4.317   9.064   0.810 -0.1838 -0.3417 -0.2048
  921MOL0     N26977   4.283   9.205   0.809  0.3446  0.0111  0.6136
  921MOL0     C26978   4.166   9.264   0.766  0.2000  0.2676  0.7410
  921MOL0     C26979   4.165   9.376   0.838  0.1121 -0.8277 -0.4076
  921MOL0     C26980   4.039   9.459   0.827  0.3394 -0.2431  0.3070
  921MOL0     C26981   4.066   9.596   0.754  0.1981  0.2851 -0.1953
  921MOL0     C26982   3.943   9.672   0.778  1.1516 -0.6049  1.1232
  921MOL0     C26983   3.947   9.819   0.731 -0.4925  1.2224 -0.3102
  921MOL0     O26984   3.984   9.811   0.596  0.3078 -0.3204  0.2554
  921MOL0     C26985   3.953   9.922   0.516 -0.1617 -0.6194  0.3633
  921MOL0     C26986   3.858  10.021   0.544  0.0157 -0.0085  0.2346
  921MOL0     C26987   3.836  10.131   0.461  0.3911 -0.5288 -1.1223
  921MOL0     C26988   3.726  10.228   0.502  0.5771 -0.1279  0.5428
  921MOL0     C26989   3.924  10.150   0.353  0.1982 -0.1762  0.3684
  921MOL0     C26990   3.918  10.264   0.255 -0.0011 -0.3300  0.2582
  921MOL0     O26991   4.005  10.263   0.142 -1.3585 -0.3521  0.1264
  921MOL0     C26992   4.011  10.372   0.056 -0.3309 -0.1228 -0.2323
  921MOL0     C26993   4.014  10.353  -0.080  0.2402 -0.1584  0.5266
  921MOL0     C26994   4.034  10.455  -0.170  0.2532  0.3451 -0.3075
  921MOL0     C26995   4.030  10.588  -0.120 -0.2616  0.1216 -0.1121
  921MOL0     O26996   4.030  10.696  -0.198  0.3205  0.9999 -0.1273
  921MOL0     C26997   4.122  10.694  -0.308  0.6081  0.4754  0.0304
  921MOL0     C26998   4.091  10.825  -0.378  0.0836 -0.1557 -0.1826
  921MOL0     C26999   4.162  10.825  -0.510 -0.8454  0.1177  0.8479
  921MOL0     C27000   4.141  10.963  -0.578  0.5028  0.2420 -1.9550
  921MOL0     C27001   4.191  10.972  -0.722 -0.4514  0.4024  1.2012
  921MOL0     C27002   4.118  10.892  -0.829 -0.6839  0.1416  0.9459
  921MOL0     C27003   3.987  10.956  -0.873  0.9102 -1.2328  0.0167
  921MOL0     C27004   3.894  10.856  -0.945  0.3201 -0.1962  0.4414
  921MOL0    Cl27005   3.850  10.934  -1.108  0.0779 -0.0230  0.3933
  921MOL0     C27006   4.026  10.609   0.013  0.4704  0.6943 -0.5800
  921MOL0     C27007   4.012  10.504   0.109 -1.0149  1.5828 -0.2476
  921MOL0     O27008   3.834  10.355   0.275  0.6913 -0.8094 -0.1024
  921MOL0     C27009   4.027  10.053   0.327  0.2307  0.9721 -0.3794
  921MOL0     C27010   4.034   9.933   0.400 -0.3027 -0.0659  0.4736
  921MOL0     N27011   4.269   9.386   0.926  0.5376  0.1104  0.4806
  921MOL0     N27012   4.345   9.278   0.910  0.2151 -0.3794 -0.7434
  921MOL0     C27013   4.485   8.209   1.328 -0.6048 -0.3174  0.5444
  921MOL0     C27014   4.557   8.092   1.351 -0.2057  0.4838  0.0891
  921MOL0     C27015   4.823   7.766   1.217 -0.2904 -0.1771  0.0317
  921MOL0     C27016   4.807   7.651   1.297 -0.9073  0.4210  0.6042
  921MOL0     C27017   4.918   7.560   1.321 -0.1211 -1.3068 -0.0170
  921MOL0     C27018   5.047   7.587   1.279  0.7285 -0.4779  0.8162
  921MOL0     O27019   5.154   7.518   1.308 -0.2994  0.5744 -0.5140
  921MOL0     C27020   5.169   7.487   1.446  0.0907 -0.0560  0.3574
  921MOL0     C27021   5.132   7.335   1.475 -0.2775 -0.8908  0.0219
  921MOL0     C27022   5.237   7.239   1.426  0.5798  0.8400  0.5529
  921MOL0     C27023   5.195   7.091   1.444 -0.0712  0.2485 -0.2257
  921MOL0     C27024   5.138   7.050   1.573  0.0841  0.6416  0.4997
  921MOL0     C27025   5.074   7.029   1.673 -0.8884  0.1296  0.5859
  921MOL0     C27026   5.063   7.691   1.193  0.0695 -0.4608 -0.5751
  921MOL0     C27027   4.959   7.785   1.167  0.4394 -0.2488  0.4926
  921MOL0     C27028   4.999   7.914   1.096  0.7065  0.9492  0.0767
  921MOL0     H27029   4.354   7.869   1.194  0.5286 -1.2108  2.0819
  921MOL0     H27030   4.222   8.034   1.174  1.5375 -2.3576 -1.5155
  921MOL0     H27031   4.382   8.484   1.197  0.9851  1.9279  1.2772
  921MOL0     H27032   4.346   8.456   1.364  0.4314 -0.4108 -1.2584
  921MOL0     H27033   4.150   8.510   1.143 -0.2246 -2.3205  0.5884
  921MOL0     H27034   4.100   8.503   1.316  0.0825  1.1547  0.1032
  921MOL0     H27035   4.117   8.729   1.310  1.8994  1.3199  1.2522
  921MOL0     H27036   4.293   8.703   1.322  0.8847  1.3106  0.0441
  921MOL0     H27037   4.328   8.705   1.081  0.6573  0.7391  0.3418
  921MOL0     H27038   4.159   8.754   1.056 -0.3464 -0.4868  0.5971
  921MOL0     H27039   4.323   8.906   1.246 -0.0484 -0.4805 -0.3972
  921MOL0     H27040   4.166   8.937   1.193 -0.0221 -0.8307 -0.0269
  921MOL0     H27041   4.372   9.074   1.085  0.1141  0.3135  0.8073
  921MOL0     H27042   4.412   8.916   1.011  1.0851  0.2366  1.5159
  921MOL0     H27043   4.144   9.056   0.933 -3.2428 -2.6738 -0.7343
  921MOL0     H27044   4.209   8.899   0.880 -1.3157  0.9605  0.8000
  921MOL0     H27045   4.421   9.056   0.843 -0.8021  0.1713  1.9976
  921MOL0     H27046   4.305   9.020   0.710 -4.6352  0.7044 -0.3650
  921MOL0     H27047   4.101   9.234   0.685 -0.0784  1.4731  0.4952
  921MOL0     H27048   4.003   9.484   0.928 -3.6873  5.5694 -2.0520
  921MOL0     H27049   3.958   9.409   0.773  1.3933 -3.0650  1.1797
  921MOL0     H27050   4.147   9.651   0.802  1.0400 -0.9819 -0.1307
  921MOL0     H27051   4.088   9.593   0.647  1.3523  1.9385 -0.0488
  921MOL0     H27052   3.867   9.631   0.711  0.5797  2.5330 -0.3251
  921MOL0     H27053   3.916   9.669   0.884 -2.4831  0.0923  0.3684
  921MOL0     H27054   3.858   9.879   0.751 -0.2194  2.2761 -2.1152
  921MOL0     H27055   4.031   9.861   0.787  2.6414 -0.3378 -3.4531
  921MOL0     H27056   3.790  10.012   0.628 -1.6451  2.1436 -0.7954
  921MOL0     H27057   3.653  10.236   0.422  0.5458  2.3510  0.7503
  921MOL0     H27058   3.774  10.326   0.513  1.3151 -0.1433 -2.0782
  921MOL0     H27059   3.669  10.193   0.589 -1.7264 -1.8840 -1.5231
  921MOL0     H27060   4.004  10.252  -0.117 -0.2370  0.4250 -1.0433
  921MOL0     H27061   4.032  10.425  -0.274  4.3028 -2.8653  0.3045
  921MOL0     H27062   4.225  10.683  -0.272  0.8824  0.1268 -0.8387
  921MOL0     H27063   4.106  10.611  -0.378  2.9286 -2.0208  2.2214
  921MOL0     H27064   3.988  10.852  -0.401 -0.4442 -0.6721  1.4671
  921MOL0     H27065   4.132  10.902  -0.312  0.0462  1.1367 -1.5933
  921MOL0     H27066   4.120  10.751  -0.579 -0.5207 -1.1250  1.9320
  921MOL0     H27067   4.267  10.803  -0.492 -0.5265 -0.1955 -1.1648
  921MOL0     H27068   4.180  11.042  -0.513  0.1850  0.0448 -1.5241
  921MOL0     H27069   4.032  10.972  -0.579  0.5067  0.7030 -0.4079
  921MOL0     H27070   4.182  11.077  -0.749  1.1698  0.5242  1.0674
  921MOL0     H27071   4.295  10.942  -0.734  0.5456  3.4422  1.5098
  921MOL0     H27072   4.091  10.790  -0.799 -2.1679 -0.0250 -0.7987
  921MOL0     H27073   4.167  10.892  -0.926 -0.6378  0.6541  0.9648
  921MOL0     H27074   4.005  11.037  -0.943 -2.4401 -1.3334 -1.1565
  921MOL0     H27075   3.942  11.004  -0.785  1.3796  0.0539 -0.4237
  921MOL0     H27076   3.806  10.852  -0.880  0.5135  0.7573  0.7864
  921MOL0     H27077   3.947  10.761  -0.947  1.1555  0.0608  3.7761
  921MOL0     H27078   4.033  10.714   0.041  0.6974  0.3014  0.8837
  921MOL0     H27079   4.011  10.525   0.216 -3.3759 -1.8179  0.5356
  921MOL0     H27080   4.102  10.079   0.253  0.0311  1.6179 -0.3587
  921MOL0     H27081   4.110   9.858   0.382 -0.4158  0.1135 -0.8026
  921MOL0     H27082   4.517   8.311   1.344 -3.5417  1.2694 -2.4341
  921MOL0     H27083   4.643   8.087   1.418  1.9894  0.6038 -2.5540
  921MOL0     H27084   4.721   7.619   1.355  0.4983 -0.1085  2.5243
  921MOL0     H27085   4.904   7.473   1.386  0.0774 -2.0906 -1.0037
  921MOL0     H27086   5.272   7.509   1.475  0.3716  2.1177 -1.9878
  921MOL0     H27087   5.106   7.551   1.509  2.2763  2.9029 -0.2908
  921MOL0     H27088   5.037   7.322   1.423 -1.0380  0.3542  1.0599
  921MOL0     H27089   5.112   7.330   1.583  0.4557  4.4707  0.6757
  921MOL0     H27090   5.241   7.266   1.320 -2.4761 -1.2131 -0.2337
  921MOL0     H27091   5.341   7.254   1.455  0.2235 -1.2385  3.3519
  921MOL0     H27092   5.282   7.029   1.421  0.0558  0.4337 -0.2514
  921MOL0     H27093   5.125   7.052   1.369 -2.2407 -1.5143  2.5493
  921MOL0     H27094   5.005   6.999   1.750  0.1884  0.3820  1.6896
  921MOL0     H27095   5.161   7.705   1.150  0.4460 -1.7077 -0.1601
  921MOL0     H27096   5.108   7.922   1.085  1.1247 -0.9117  2.1863
  921MOL0     H27097   4.957   7.927   0.996  0.3697 -0.6932 -0.0212
  921MOL0     H27098   4.967   7.999   1.157 -1.7340 -1.2417  2.0248
  922MOL0     O27099   9.106   5.038   4.089 -0.7057 -0.0369 -0.2450
  922MOL0     C27100   9.111   5.156   4.051 -0.0708 -0.8115 -0.8034
  922MOL0     O27101   9.114   5.189   3.923  0.5835  0.2115  0.3349
  922MOL0     C27102   9.104   5.087   3.832 -0.2641  0.2721  0.0291
  922MOL0     C27103   8.988   5.035   3.783 -0.7709  0.2656 -0.4583
  922MOL0     C27104   8.983   4.922   3.701 -0.0264  0.0887  0.0238
  922MOL0     C27105   9.099   4.866   3.654  0.3916 -0.0946  0.6362
  922MOL0     O27106   9.091   4.779   3.552 -0.1692  0.3263  0.3421
  922MOL0     C27107   9.058   4.643   3.584 -0.4222  0.4703 -0.1811
  922MOL0     C27108   8.994   4.569   3.461 -0.5698  0.0475 -0.8567
  922MOL0     C27109   8.855   4.624   3.416  0.7192  1.1001 -0.5134
  922MOL0     C27110   8.864   4.745   3.321  0.6664  0.1655  0.2694
  922MOL0     C27111   8.734   4.834   3.323  0.0466  0.7033  0.3248
  922MOL0     C27112   8.608   4.766   3.267 -0.3101  0.1772  0.1832
  922MOL0     C27113   8.480   4.847   3.294  0.0244 -0.4244 -0.1034
  922MOL0     C27114   8.346   4.804   3.220  0.1267 -0.5622 -0.8791
  922MOL0     N27115   8.241   4.890   3.264  0.2899 -1.0269  0.3761
  922MOL0     C27116   8.121   4.855   3.306 -0.4579 -0.1854  0.5155
  922MOL0     C27117   8.058   4.975   3.339 -0.8308 -0.5782  0.4699
  922MOL0     C27118   7.918   4.992   3.387  0.4048  0.2140  0.3092
  922MOL0     C27119   7.917   5.009   3.537 -0.5398 -0.2922 -0.2028
  922MOL0     C27120   7.775   5.004   3.605  0.6260  0.9037 -0.8716
  922MOL0     C27121   7.686   5.130   3.585  1.0636 -0.4911  0.1745
  922MOL0     O27122   7.556   5.109   3.639  0.3857  0.0383 -0.4064
  922MOL0     C27123   7.465   5.207   3.650 -0.0487 -0.8112 -0.3972
  922MOL0     C27124   7.498   5.335   3.626 -0.2210 -0.0509 -0.8959
  922MOL0     C27125   7.400   5.429   3.631 -0.5939  0.1414 -0.4669
  922MOL0     C27126   7.431   5.565   3.581 -0.3691 -0.0514 -0.3067
  922MOL0     C27127   7.261   5.392   3.656 -0.2755  0.3855 -0.2728
  922MOL0     C27128   7.143   5.485   3.638 -0.1076 -0.2451 -0.6136
  922MOL0     O27129   7.147   5.617   3.679 -0.9309  0.0976 -0.1680
  922MOL0     C27130   7.056   5.704   3.638  0.8681  0.3559  0.8470
  922MOL0     C27131   7.064   5.768   3.508 -0.2602 -0.6734  1.0289
  922MOL0     C27132   6.974   5.871   3.477 -0.3114  0.8267  1.1074
  922MOL0     C27133   6.868   5.900   3.562  0.1027 -0.1655  0.1156
  922MOL0     O27134   6.772   5.990   3.509  1.0323  0.5951 -0.1867
  922MOL0     C27135   6.657   6.020   3.584 -0.2768  0.4617  0.3740
  922MOL0     C27136   6.551   6.077   3.492 -0.4717 -0.8446  0.4310
  922MOL0     C27137   6.474   5.977   3.410  0.2486 -0.1055  1.2311
  922MOL0     C27138   6.429   6.046   3.275 -0.9996 -0.0760  0.6183
  922MOL0     C27139   6.316   5.957   3.218 -0.4938 -1.3160  0.9198
  922MOL0     C27140   6.384   5.851   3.131 -0.0399 -0.0267 -0.8299
  922MOL0     C27141   6.272   5.754   3.085 -0.0159  0.1404  1.3939
  922MOL0     C27142   6.329   5.680   2.967  0.6987 -0.1511  0.8049
  922MOL0    Cl27143   6.460   5.574   3.027  0.2201  0.4199  0.3016
  922MOL0     C27144   6.855   5.836   3.687  0.2564  0.6823  0.7317
  922MOL0     C27145   6.947   5.738   3.722  0.3816 -1.3364 -0.1181
  922MOL0     O27146   7.036   5.430   3.601 -0.7722  0.5436  0.6550
  922MOL0     C27147   7.226   5.267   3.702 -0.0908 -0.0770 -0.0546
  922MOL0     C27148   7.334   5.181   3.705  0.5461 -0.5233  0.1809
  922MOL0     N27149   8.150   5.075   3.318  0.6130  0.3766 -0.8014
  922MOL0     N27150   8.255   5.022   3.271  0.0541  0.6139 -1.1752
  922MOL0     C27151   9.219   4.910   3.704  0.6312  0.6479 -0.5180
  922MOL0     C27152   9.217   5.022   3.785  0.4418 -0.2346 -0.4232
  922MOL0     C27153   9.110   5.272   4.154  0.5783 -0.2385 -0.1966
  922MOL0     C27154   9.084   5.404   4.095 -0.8668  0.5894 -0.8307
  922MOL0     C27155   9.042   5.510   4.177 -0.7103 -0.2395  0.2259
  922MOL0     C27156   9.037   5.495   4.311 -0.2909  0.3610 -0.1176
  922MOL0     O27157   8.993   5.597   4.387  0.1758  0.4039  0.2132
  922MOL0     C27158   9.096   5.689   4.412  0.1042 -0.5112  0.0016
  922MOL0     C27159   9.037   5.823   4.452 -0.7570 -0.5799  0.3619
  922MOL0     C27160   9.005   5.917   4.332  0.2953 -0.9919 -0.3198
  922MOL0     C27161   9.108   6.028   4.303 -0.8628 -0.8638 -0.0051
  922MOL0     C27162   9.246   5.976   4.287  0.3896  0.6913  0.3186
  922MOL0     C27163   9.359   5.918   4.285  0.1561 -0.5131 -0.0123
  922MOL0     C27164   9.088   5.376   4.367  0.5105 -0.1251 -0.2668
  922MOL0     C27165   9.117   5.263   4.295  0.5348 -0.1185  0.5123
  922MOL0     C27166   9.145   5.126   4.364 -0.6639 -0.8680  0.4731
  922MOL0     H27167   8.898   5.080   3.823  0.0705  0.6613  1.1070
  922MOL0     H27168   8.890   4.881   3.662  1.0659 -2.6296  0.1246
  922MOL0     H27169   8.983   4.632   3.662  0.0469  1.7157  0.4640
  922MOL0     H27170   9.149   4.590   3.613 -1.6842 -3.6497 -2.8985
  922MOL0     H27171   9.066   4.569   3.379 -0.0558 -1.3871 -0.4405
  922MOL0     H27172   8.985   4.465   3.493  1.5825  0.0688  0.0049
  922MOL0     H27173   8.797   4.541   3.374 -1.2390  0.3878  3.1757
  922MOL0     H27174   8.793   4.659   3.499  1.4409  1.5075 -0.1413
  922MOL0     H27175   8.950   4.811   3.338  1.7252 -1.2021  0.4356
  922MOL0     H27176   8.886   4.704   3.222 -4.0089  0.4967 -1.1274
  922MOL0     H27177   8.749   4.925   3.263 -1.2511  0.4455 -0.4517
  922MOL0     H27178   8.709   4.863   3.425 -1.0268 -1.3446  0.6955
  922MOL0     H27179   8.604   4.759   3.158 -1.2873 -1.1457  0.2644
  922MOL0     H27180   8.597   4.668   3.315 -1.4000  0.9967  1.7208
  922MOL0     H27181   8.492   4.947   3.253 -1.8625 -0.9225 -2.0583
  922MOL0     H27182   8.472   4.853   3.403  3.4356  1.0568  0.1987
  922MOL0     H27183   8.363   4.823   3.114  3.9613  1.1846 -0.1317
  922MOL0     H27184   8.313   4.704   3.246  0.8592 -0.1580  1.9998
  922MOL0     H27185   8.066   4.765   3.280 -2.7539  1.0921  0.6175
  922MOL0     H27186   7.863   4.898   3.374 -1.4242  1.0560  1.5484
  922MOL0     H27187   7.873   5.077   3.335  0.1972 -1.5638 -2.6374
  922MOL0     H27188   7.956   4.917   3.581 -0.4561 -1.3129 -2.2817
  922MOL0     H27189   7.969   5.101   3.564 -0.4518 -0.9209  1.9152
  922MOL0     H27190   7.715   4.922   3.566 -0.9854  1.1472  0.9193
  922MOL0     H27191   7.772   4.976   3.711 -2.2936  0.2475 -1.0459
  922MOL0     H27192   7.734   5.210   3.641  0.6829 -0.1166 -0.0274
  922MOL0     H27193   7.681   5.179   3.487 -2.3163  0.7306  0.8430
  922MOL0     H27194   7.596   5.366   3.591 -1.1123  0.1676 -3.3685
  922MOL0     H27195   7.384   5.646   3.639  3.0212  3.6754 -2.2469
  922MOL0     H27196   7.410   5.584   3.475  3.0694 -0.6247 -1.1994
  922MOL0     H27197   7.537   5.587   3.594 -0.4057  0.7032 -1.1717
  922MOL0     H27198   7.155   5.754   3.450  1.7148  1.6779  3.3448
  922MOL0     H27199   6.988   5.920   3.381 -1.7082  0.4847  0.7040
  922MOL0     H27200   6.606   5.944   3.643  1.9542 -0.5989  1.0435
  922MOL0     H27201   6.686   6.094   3.659 -3.8967  2.0441  0.4241
  922MOL0     H27202   6.486   6.127   3.565  0.3332  2.2035 -0.7837
  922MOL0     H27203   6.597   6.161   3.439 -0.5126 -0.1808  1.4181
  922MOL0     H27204   6.382   5.949   3.460 -1.9398  2.0425 -1.2671
  922MOL0     H27205   6.544   5.897   3.385  1.1023  1.6631 -2.8306
  922MOL0     H27206   6.514   6.044   3.207  0.6389  3.2871  2.3336
  922MOL0     H27207   6.396   6.150   3.283 -2.2417 -0.5016  1.4087
  922MOL0     H27208   6.245   5.922   3.294  0.0025 -1.4813  1.3176
  922MOL0     H27209   6.258   6.015   3.146 -0.4281 -0.6220  1.4203
  922MOL0     H27210   6.461   5.794   3.183  1.2900  1.1949 -1.4022
  922MOL0     H27211   6.429   5.908   3.049 -2.3200  3.8643  0.3659
  922MOL0     H27212   6.185   5.811   3.053  0.4817  0.0536 -0.1746
  922MOL0     H27213   6.242   5.702   3.177  1.1729 -1.4975  0.8950
  922MOL0     H27214   6.348   5.743   2.880 -2.0976 -2.8902 -2.0803
  922MOL0     H27215   6.252   5.607   2.940  1.1828 -1.2346  2.2208
  922MOL0     H27216   6.772   5.856   3.754 -1.4840 -1.7096 -0.5794
  922MOL0     H27217   6.935   5.701   3.824 -2.9450 -1.5608 -0.4877
  922MOL0     H27218   7.124   5.247   3.734 -0.7296 -1.9394 -2.8439
  922MOL0     H27219   7.315   5.082   3.746  0.7411  0.4179  2.7184
  922MOL0     H27220   9.315   4.861   3.691  0.6026  0.0976  1.1313
  922MOL0     H27221   9.309   5.066   3.823 -0.6489  1.2835  0.5605
  922MOL0     H27222   9.095   5.425   3.989  0.4119 -2.5385 -1.4397
  922MOL0     H27223   9.011   5.601   4.127  0.9046 -0.4184 -1.1880
  922MOL0     H27224   9.158   5.655   4.496 -0.3253  0.1574  0.6000
  922MOL0     H27225   9.162   5.702   4.325 -0.0231 -0.7556 -0.1308
  922MOL0     H27226   9.104   5.864   4.528 -1.1773 -3.6141  2.5717
  922MOL0     H27227   8.941   5.803   4.502 -0.8423 -1.6520 -0.1979
  922MOL0     H27228   8.981   5.859   4.243  1.0132  1.6019 -2.3336
  922MOL0     H27229   8.914   5.972   4.356  2.0108  2.4304 -0.8919
  922MOL0     H27230   9.117   6.104   4.381  0.5589  0.6809 -1.5686
  922MOL0     H27231   9.077   6.098   4.224  2.1172  0.9473  0.2520
  922MOL0     H27232   9.459   5.882   4.274  0.0176 -0.4513 -1.8273
  922MOL0     H27233   9.077   5.364   4.474  0.9863  0.8695 -0.0978
  922MOL0     H27234   9.062   5.060   4.339 -1.5848  0.5344 -0.2790
  922MOL0     H27235   9.241   5.094   4.321 -0.4585  1.0885 -0.6482
  922MOL0     H27236   9.140   5.134   4.473  1.1550 -3.6281  0.8639
  923MOL0     O27237   6.189   9.166   7.814  0.7150  0.6785  0.7029
  923MOL0     C27238   6.290   9.121   7.775 -1.0921 -0.0864 -0.0643
  923MOL0     O27239   6.344   9.000   7.787  0.5739 -0.4001  0.6636
  923MOL0     C27240   6.291   8.918   7.887 -0.0577 -0.0625  0.1167
  923MOL0     C27241   6.285   8.960   8.021  0.2703  0.7667  0.2456
  923MOL0     C27242   6.231   8.868   8.118 -1.0337  0.8929  0.0543
  923MOL0     C27243   6.182   8.741   8.081  0.3801 -0.3769  0.3029
  923MOL0     O27244   6.132   8.658   8.182  0.3851 -0.4756 -0.3805
  923MOL0     C27245   6.196   8.528   8.194 -0.1219 -0.3102 -0.0138
  923MOL0     C27246   6.339   8.522   8.251 -0.3017 -0.1050 -0.0298
  923MOL0     C27247   6.416   8.386   8.250  0.4763 -0.5926  0.5106
  923MOL0     C27248   6.551   8.388   8.294  0.2633  0.0199  0.2469
  923MOL0     C27249   6.623   8.259   8.260  0.8753  0.8948  0.3304
  923MOL0     C27250   6.760   8.280   8.325  0.2231  0.0184  0.3956
  923MOL0     C27251   6.857   8.155   8.322  0.5349 -0.2824  0.6017
  923MOL0     C27252   6.994   8.193   8.387  0.3699  0.3005  0.0299
  923MOL0     N27253   6.971   8.275   8.506  0.6918  0.2630  0.5002
  923MOL0     C27254   6.911   8.218   8.618  0.3488  0.1108  0.4448
  923MOL0     C27255   6.907   8.323   8.704  1.0051 -0.0654  0.5295
  923MOL0     C27256   6.835   8.309   8.843  0.0147 -0.9459  0.1426
  923MOL0     C27257   6.699   8.236   8.831 -0.1931 -0.2956  0.5923
  923MOL0     C27258   6.596   8.328   8.777 -0.1369  0.1341  0.1082
  923MOL0     C27259   6.451   8.269   8.813 -0.3421 -0.3459 -0.0306
  923MOL0     O27260   6.433   8.301   8.952  0.1138 -0.2030  0.6526
  923MOL0     C27261   6.303   8.300   8.989  0.0974 -0.7499 -0.0614
  923MOL0     C27262   6.284   8.341   9.124 -0.9940 -0.6607  0.6137
  923MOL0     C27263   6.157   8.351   9.175  0.3732  0.1985 -0.0365
  923MOL0     C27264   6.155   8.376   9.321  0.0755 -0.3373 -0.1423
  923MOL0     C27265   6.042   8.312   9.108 -0.4763 -0.0982  1.1928
  923MOL0     C27266   5.909   8.286   9.168  0.9155 -1.1651  0.0087
  923MOL0     O27267   5.794   8.276   9.088 -0.0739 -0.3803 -0.3953
  923MOL0     C27268   5.678   8.237   9.152  0.8028 -0.4649  0.5124
  923MOL0     C27269   5.637   8.112   9.175  0.9488  0.3207 -0.0227
  923MOL0     C27270   5.527   8.088   9.260  0.3300 -0.2240 -0.2124
  923MOL0     C27271   5.441   8.197   9.312  0.0675  1.6281 -0.4267
  923MOL0     O27272   5.330   8.163   9.381  0.3414  0.2740 -0.3609
  923MOL0     C27273   5.280   8.260   9.481 -0.5114 -0.0208 -0.1754
  923MOL0     C27274   5.380   8.279   9.597  0.2219  0.2705  0.2994
  923MOL0     C27275   5.322   8.396   9.675 -0.1814  0.0695 -0.4174
  923MOL0     C27276   5.423   8.455   9.773  0.1601 -0.2123  0.6919
  923MOL0     C27277   5.519   8.349   9.848  1.0213 -0.5953  1.2744
  923MOL0     C27278   5.442   8.257   9.941 -0.2595  0.0024 -0.1947
  923MOL0     C27279   5.539   8.184  10.036  0.5297 -0.5276  0.1847
  923MOL0     C27280   5.472   8.174  10.174 -0.1016 -0.6413  0.1177
  923MOL0    Cl27281   5.480   8.341  10.253 -0.1867  0.8038  0.1849
  923MOL0     C27282   5.474   8.328   9.271  0.5295  0.3184  0.0947
  923MOL0     C27283   5.589   8.342   9.194  0.0136 -0.5382 -0.0363
  923MOL0     O27284   5.912   8.262   9.288  0.6300 -0.7625  0.9331
  923MOL0     C27285   6.069   8.287   8.971  1.2218  0.8077  0.8981
  923MOL0     C27286   6.188   8.267   8.914 -0.5920 -0.8427 -0.9948
  923MOL0     N27287   6.973   8.430   8.651 -0.0779 -0.1515 -0.1945
  923MOL0     N27288   7.004   8.401   8.528 -0.5586  0.0501 -0.1503
  923MOL0     C27289   6.189   8.700   7.943  0.2132  0.5422  0.2299
  923MOL0     C27290   6.235   8.794   7.853 -0.8985  0.1211  0.1379
  923MOL0     C27291   6.371   9.226   7.691  0.2283  0.8908 -0.3307
  923MOL0     C27292   6.507   9.192   7.657 -0.2237 -1.2637 -0.0128
  923MOL0     C27293   6.586   9.274   7.578  0.5081 -1.5054 -0.1625
  923MOL0     C27294   6.539   9.406   7.536 -0.3628  0.8817  0.0034
  923MOL0     O27295   6.621   9.469   7.452 -0.6258 -0.2269  0.3691
  923MOL0     C27296   6.600   9.601   7.414 -0.1914  0.1824  0.3423
  923MOL0     C27297   6.622   9.697   7.537  0.2727 -0.0051  0.2499
  923MOL0     C27298   6.766   9.678   7.595  0.1553 -0.2571  0.7192
  923MOL0     C27299   6.740   9.674   7.745  0.6673 -0.3107  0.4128
  923MOL0     C27300   6.869   9.656   7.822  0.5787 -0.6495 -0.2204
  923MOL0     C27301   6.962   9.652   7.902 -0.4865 -0.6639  0.0405
  923MOL0     C27302   6.410   9.447   7.581  0.1565 -0.5183  1.0860
  923MOL0     C27303   6.322   9.354   7.646  0.2343 -0.3403  0.2455
  923MOL0     C27304   6.189   9.407   7.673 -0.4718 -0.5356  0.0724
  923MOL0     H27305   6.317   9.057   8.058  2.9354 -0.3897  1.2046
  923MOL0     H27306   6.223   8.899   8.222 -4.2499  0.1768  0.1095
  923MOL0     H27307   6.198   8.492   8.091  0.4240  3.2409 -1.3893
  923MOL0     H27308   6.137   8.459   8.255 -0.0051 -0.8695 -0.5297
  923MOL0     H27309   6.402   8.599   8.207 -1.1741  1.2103  0.9471
  923MOL0     H27310   6.332   8.535   8.360  1.4806 -2.4944  0.4621
  923MOL0     H27311   6.354   8.312   8.302 -2.0829 -0.2845 -1.8971
  923MOL0     H27312   6.426   8.352   8.147  2.7725  1.1950  0.0639
  923MOL0     H27313   6.598   8.467   8.235  1.0678 -1.6316 -1.4224
  923MOL0     H27314   6.546   8.408   8.401 -0.1631  2.9610 -0.2420
  923MOL0     H27315   6.625   8.241   8.152 -0.1484  1.4814  0.2032
  923MOL0     H27316   6.567   8.178   8.309 -3.2782  3.0129 -0.4588
  923MOL0     H27317   6.804   8.370   8.281  0.3466 -0.0565  0.3659
  923MOL0     H27318   6.731   8.302   8.428 -0.2353  1.9641 -0.1106
  923MOL0     H27319   6.877   8.114   8.222  0.4012  3.9127 -1.3693
  923MOL0     H27320   6.804   8.074   8.373 -0.3756 -1.2933 -1.7824
  923MOL0     H27321   7.052   8.103   8.409  0.2016 -1.0090 -3.9646
  923MOL0     H27322   7.060   8.244   8.315  1.4293 -1.9350 -0.6593
  923MOL0     H27323   6.872   8.118   8.627 -1.6013  0.6299 -1.5080
  923MOL0     H27324   6.817   8.409   8.883  3.3046 -0.8494  1.7895
  923MOL0     H27325   6.890   8.254   8.921  1.5607 -1.5054 -1.2878
  923MOL0     H27326   6.702   8.151   8.762 -1.0282  0.6917 -0.6918
  923MOL0     H27327   6.680   8.196   8.931  1.3241 -1.2955  0.5187
  923MOL0     H27328   6.603   8.428   8.820 -2.0906  0.6514 -0.6734
  923MOL0     H27329   6.610   8.338   8.670 -0.3496 -1.7616 -0.1478
  923MOL0     H27330   6.372   8.313   8.752 -0.3081  0.1049  0.2485
  923MOL0     H27331   6.441   8.162   8.795  0.9768 -0.0811 -2.8027
  923MOL0     H27332   6.374   8.370   9.178  1.2336  1.2226 -3.6555
  923MOL0     H27333   6.244   8.428   9.358  0.1773 -0.7954  0.2576
  923MOL0     H27334   6.148   8.280   9.373 -0.4382  0.0047  0.4332
  923MOL0     H27335   6.072   8.441   9.351  1.3200  1.9301 -1.2971
  923MOL0     H27336   5.704   8.034   9.142  0.8989  0.9132 -1.5963
  923MOL0     H27337   5.512   7.983   9.282 -0.7409 -0.2768 -1.1213
  923MOL0     H27338   5.274   8.347   9.416  1.2378 -0.9862 -1.7385
  923MOL0     H27339   5.183   8.226   9.519 -1.3042  0.6935 -1.5278
  923MOL0     H27340   5.373   8.190   9.660 -0.6749 -0.8613 -1.3531
  923MOL0     H27341   5.481   8.302   9.560 -0.7788  0.1836 -2.7395
  923MOL0     H27342   5.235   8.356   9.728  1.3936 -2.4662  0.4267
  923MOL0     H27343   5.290   8.475   9.606  0.6940 -0.5374 -1.5403
  923MOL0     H27344   5.376   8.514   9.851  1.5916  2.5020 -0.3579
  923MOL0     H27345   5.487   8.515   9.708  0.8770  0.2383  1.7979
  923MOL0     H27346   5.557   8.280   9.772 -0.1626 -1.9317  1.8419
  923MOL0     H27347   5.597   8.406   9.899 -1.0439  2.0413  1.7391
  923MOL0     H27348   5.373   8.185   9.895 -0.6213  0.2820 -0.0984
  923MOL0     H27349   5.376   8.317  10.005 -0.9095 -0.8080 -0.0961
  923MOL0     H27350   5.635   8.235  10.049 -0.0174  1.4929 -2.6472
  923MOL0     H27351   5.554   8.084   9.994 -0.6887 -0.1552 -1.2222
  923MOL0     H27352   5.529   8.114  10.246 -0.5420 -1.6797 -0.3676
  923MOL0     H27353   5.371   8.133  10.180  0.6903 -2.5057  2.8764
  923MOL0     H27354   5.414   8.414   9.296 -0.0164 -0.1383  0.3859
  923MOL0     H27355   5.623   8.442   9.172 -0.5116 -0.9615 -3.3009
  923MOL0     H27356   5.983   8.274   8.905  1.5526  1.8290  0.2566
  923MOL0     H27357   6.191   8.224   8.814  0.0331 -1.6326 -0.6551
  923MOL0     H27358   6.163   8.605   7.897  2.7922  0.0755 -0.4374
  923MOL0     H27359   6.241   8.773   7.747  1.5450  3.6532 -0.6125
  923MOL0     H27360   6.551   9.098   7.687  1.6573 -0.9334 -1.5523
  923MOL0     H27361   6.686   9.260   7.540  0.0109 -0.5010 -1.9361
  923MOL0     H27362   6.670   9.628   7.334 -4.1329  0.1477 -3.5078
  923MOL0     H27363   6.502   9.620   7.368 -0.3895 -0.7925  0.3315
  923MOL0     H27364   6.543   9.680   7.610 -0.9073  2.6631 -0.2823
  923MOL0     H27365   6.602   9.801   7.510 -3.9945 -0.2845  1.6967
  923MOL0     H27366   6.819   9.587   7.564  0.7843  0.1805  0.5060
  923MOL0     H27367   6.826   9.761   7.557 -2.6162  2.0722  1.0778
  923MOL0     H27368   6.674   9.593   7.778 -0.7343  1.1229  1.2754
  923MOL0     H27369   6.704   9.775   7.767 -1.2811 -0.7399 -0.5639
  923MOL0     H27370   7.046   9.645   7.968  0.9574  1.5026 -1.4515
  923MOL0     H27371   6.374   9.543   7.544  2.3078 -0.3197 -0.7193
  923MOL0     H27372   6.190   9.436   7.779 -2.1751  0.1970 -0.0614
  923MOL0     H27373   6.166   9.487   7.601  0.3671 -0.5712 -0.2426
  923MOL0     H27374   6.108   9.334   7.667 -1.4132  0.0342  3.5377
  924MOL0     O27375   0.696  10.542   6.585  1.2045 -0.9019 -0.4910
  924MOL0     C27376   0.581  10.496   6.582 -0.2736  0.4252 -0.4501
  924MOL0     O27377   0.504  10.454   6.478  0.3482 -0.2011 -0.1057
  924MOL0     C27378   0.525  10.511   6.359  0.6665 -0.0139  0.1902
  924MOL0     C27379   0.604  10.628   6.316  1.3796  0.7073  0.0633
  924MOL0     C27380   0.590  10.680   6.191 -0.2236  0.0680  0.7970
  924MOL0     C27381   0.506  10.626   6.101  0.2758  0.6809  0.5410
  924MOL0     O27382   0.498  10.667   5.978  0.1768  0.2607 -0.6978
  924MOL0     C27383   0.379  10.748   5.953 -0.1934 -0.9180 -0.2078
  924MOL0     C27384   0.279  10.668   5.878  0.0232 -0.1764  0.1317
  924MOL0     C27385   0.158  10.736   5.812 -0.4641 -0.0374  1.1725
  924MOL0     C27386   0.177  10.876   5.763 -0.5670 -0.0208  0.4337
  924MOL0     C27387   0.042  10.931   5.715  0.6523 -0.0119  0.0676
  924MOL0     C27388   0.040  11.078   5.663 -0.0475  0.5294 -0.0988
  924MOL0     C27389   0.102  11.108   5.523  0.0348 -0.1325 -0.0868
  924MOL0     C27390   0.035  11.220   5.447  0.0041  0.3722  0.5061
  924MOL0     N27391  -0.098  11.185   5.390  0.4377  0.0416  0.3357
  924MOL0     C27392  -0.141  11.068   5.321 -0.0160 -0.5623 -1.1867
  924MOL0     C27393  -0.275  11.073   5.319 -0.3095  0.3509  0.4841
  924MOL0     C27394  -0.342  10.947   5.256  0.7527  0.0210 -0.2934
  924MOL0     C27395  -0.284  10.808   5.296 -0.3954 -0.6040 -0.5650
  924MOL0     C27396  -0.272  10.787   5.451  1.2104 -1.1970  0.4141
  924MOL0     C27397  -0.238  10.641   5.465  0.2458 -0.7285  0.3508
  924MOL0     O27398  -0.200  10.614   5.604  0.4829 -0.5641 -0.3285
  924MOL0     C27399  -0.156  10.492   5.633 -0.4676  0.5650 -0.6302
  924MOL0     C27400  -0.111  10.472   5.765  0.6796  0.4085 -0.8700
  924MOL0     C27401  -0.041  10.354   5.800 -0.2591 -0.2828  0.4325
  924MOL0     C27402   0.031  10.346   5.935  0.4759  0.2040  0.4193
  924MOL0     C27403  -0.042  10.245   5.713  0.2980  0.3886 -0.3813
  924MOL0     C27404  -0.003  10.100   5.746  0.6336 -0.0190  0.1163
  924MOL0     O27405   0.073  10.036   5.655  0.1617 -0.4705  0.6358
  924MOL0     C27406   0.140   9.922   5.687  1.2939 -0.4771 -0.5499
  924MOL0     C27407   0.074   9.801   5.721 -0.3687 -0.1723  0.3285
  924MOL0     C27408   0.157   9.685   5.743  0.0898  0.0163  0.3492
  924MOL0     C27409   0.298   9.686   5.712  0.4616  0.0061  0.0636
  924MOL0     O27410   0.392   9.584   5.730 -0.1166 -0.5969  0.4518
  924MOL0     C27411   0.347   9.461   5.659  0.3052 -0.3766  0.2036
  924MOL0     C27412   0.467   9.378   5.627  0.1397  0.2356  0.5932
  924MOL0     C27413   0.443   9.279   5.515 -0.3421 -0.0636  0.7974
  924MOL0     C27414   0.462   9.335   5.371  0.4175  0.0412  0.3116
  924MOL0     C27415   0.390   9.238   5.260  0.4842 -0.4037  0.2258
  924MOL0     C27416   0.399   9.298   5.128  0.3157 -0.1857  0.4984
  924MOL0     C27417   0.302   9.414   5.096 -0.7457  0.7230 -0.0588
  924MOL0     C27418   0.316   9.449   4.951 -0.0181 -0.5713 -0.0050
  924MOL0    Cl27419   0.250   9.312   4.844 -0.0854 -0.2566 -0.0694
  924MOL0     C27420   0.351   9.813   5.664 -0.7099  0.7450 -0.0276
  924MOL0     C27421   0.273   9.925   5.656 -0.9190  0.1582  0.3124
  924MOL0     O27422  -0.021  10.054   5.859 -0.5821 -0.9321 -0.2106
  924MOL0     C27423  -0.094  10.265   5.583  0.3555  0.1508  0.2647
  924MOL0     C27424  -0.156  10.388   5.539  0.0542  0.3738 -0.3081
  924MOL0     N27425  -0.318  11.192   5.377  0.1222 -0.4900  0.0102
  924MOL0     N27426  -0.211  11.258   5.415 -0.7673 -0.0309 -0.9477
  924MOL0     C27427   0.417  10.524   6.142  0.4171 -0.6475 -0.2341
  924MOL0     C27428   0.432  10.467   6.273  0.7570 -0.7664 -0.1578
  924MOL0     C27429   0.537  10.449   6.712  0.3377 -0.1429 -0.2817
  924MOL0     C27430   0.575  10.535   6.825 -0.2715  0.6294  1.5486
  924MOL0     C27431   0.551  10.496   6.957  0.4537 -0.6620 -1.2960
  924MOL0     C27432   0.487  10.375   6.986  0.1431 -0.1221 -0.1948
  924MOL0     O27433   0.479  10.331   7.113 -0.0239  0.2477 -0.2718
  924MOL0     C27434   0.347  10.338   7.179  0.5658 -0.0278  0.3295
  924MOL0     C27435   0.324  10.221   7.277 -0.3656 -0.5909  0.2092
  924MOL0     C27436   0.427  10.233   7.395  1.6914  0.4071  1.5577
  924MOL0     C27437   0.451  10.094   7.458 -0.1053  0.1114  0.5537
  924MOL0     C27438   0.540  10.087   7.579 -0.1523  0.3782 -0.4063
  924MOL0     C27439   0.616  10.073   7.670 -0.6497  0.5285 -0.4644
  924MOL0     C27440   0.425  10.312   6.880  0.0690  0.0166  0.6209
  924MOL0     C27441   0.447  10.347   6.742 -0.2904 -1.1362 -1.2035
  924MOL0     C27442   0.388  10.253   6.643 -0.0363  0.2414  0.1497
  924MOL0     H27443   0.673  10.668   6.390  0.4547  0.3313  1.1641
  924MOL0     H27444   0.645  10.769   6.162  0.9016 -1.5417 -2.4636
  924MOL0     H27445   0.409  10.829   5.885  0.7650 -1.6764 -0.7092
  924MOL0     H27446   0.324  10.792   6.036  2.0155  0.0035  0.8225
  924MOL0     H27447   0.333  10.605   5.807  0.5964  1.1961 -0.6925
  924MOL0     H27448   0.223  10.605   5.948 -2.2726 -1.6890 -2.8594
  924MOL0     H27449   0.112  10.671   5.737 -0.8625  0.1835  1.2190
  924MOL0     H27450   0.079  10.741   5.888 -3.5574 -2.0678 -1.6154
  924MOL0     H27451   0.209  10.933   5.850  1.3299 -1.4813  0.7645
  924MOL0     H27452   0.248  10.873   5.680  0.0778  1.3576  0.9048
  924MOL0     H27453  -0.027  10.914   5.799 -1.5321  1.3256 -1.3394
  924MOL0     H27454  -0.001  10.862   5.641 -0.1061 -3.9995  3.7670
  924MOL0     H27455  -0.066  11.105   5.656 -0.6989 -1.2052  2.0090
  924MOL0     H27456   0.079  11.140   5.745 -1.8034  0.5237  0.8022
  924MOL0     H27457   0.092  11.017   5.463 -0.9405  1.7295 -2.9507
  924MOL0     H27458   0.209  11.129   5.535  0.2274  0.1513 -1.9315
  924MOL0     H27459   0.033  11.308   5.512 -2.2056 -0.3279  1.4725
  924MOL0     H27460   0.093  11.247   5.358  0.4092 -0.5560  0.4813
  924MOL0     H27461  -0.077  10.993   5.275  0.3160 -1.3407  0.4723
  924MOL0     H27462  -0.321  10.951   5.149 -0.6885  0.5689 -0.5838
  924MOL0     H27463  -0.449  10.951   5.278  0.6165 -2.0703 -0.2852
  924MOL0     H27464  -0.347  10.728   5.255 -1.9682 -0.5467  1.5306
  924MOL0     H27465  -0.187  10.802   5.246 -0.3821  1.8995 -0.9499
  924MOL0     H27466  -0.182  10.836   5.489  1.7222 -1.1684 -0.8064
  924MOL0     H27467  -0.353  10.831   5.509  1.8970 -0.4334  0.8218
  924MOL0     H27468  -0.332  10.589   5.441  0.4911  0.4658 -4.0451
  924MOL0     H27469  -0.154  10.610   5.403 -2.1397 -3.4044 -1.8605
  924MOL0     H27470  -0.111  10.557   5.832  0.5052 -0.3064  0.0703
  924MOL0     H27471   0.113  10.276   5.919  0.2135 -0.0303  0.0755
  924MOL0     H27472  -0.047  10.315   6.005 -0.1109 -0.6104 -0.5683
  924MOL0     H27473   0.074  10.443   5.961  4.1811 -0.8291 -1.1496
  924MOL0     H27474  -0.033   9.792   5.729 -0.2643  0.2392  3.1538
  924MOL0     H27475   0.108   9.593   5.775  1.3100 -0.0960  2.0174
  924MOL0     H27476   0.284   9.406   5.730  1.1172 -0.1139  1.1402
  924MOL0     H27477   0.294   9.482   5.566  0.6905 -0.2540  0.0099
  924MOL0     H27478   0.557   9.439   5.609  0.4373 -0.8241 -1.7475
  924MOL0     H27479   0.488   9.322   5.719 -0.3188  1.2447  1.3324
  924MOL0     H27480   0.339   9.248   5.529 -0.3462 -0.0446  0.8079
  924MOL0     H27481   0.501   9.188   5.530  2.0073  0.8311 -1.9469
  924MOL0     H27482   0.570   9.330   5.351 -0.0095 -0.6410 -2.1494
  924MOL0     H27483   0.433   9.440   5.359  1.0609  0.0265 -1.7122
  924MOL0     H27484   0.438   9.140   5.268 -0.2369 -0.7947 -0.1765
  924MOL0     H27485   0.283   9.232   5.284  0.0257  2.9047 -0.4949
  924MOL0     H27486   0.379   9.217   5.058  0.2645  2.7719 -3.2632
  924MOL0     H27487   0.498   9.333   5.097 -0.6899  1.2481 -1.3284
  924MOL0     H27488   0.320   9.499   5.163 -2.3165 -1.3901  3.3091
  924MOL0     H27489   0.203   9.374   5.121 -1.6100  2.1394 -1.0870
  924MOL0     H27490   0.414   9.475   4.910 -0.5894 -0.9238 -1.6471
  924MOL0     H27491   0.252   9.537   4.940 -1.9782 -1.9265  0.0359
  924MOL0     H27492   0.459   9.821   5.657 -0.3720 -0.6898  2.2906
  924MOL0     H27493   0.321  10.018   5.628  1.0774 -1.5682 -2.4524
  924MOL0     H27494  -0.094  10.185   5.510  1.7252  0.8459 -0.5320
  924MOL0     H27495  -0.175  10.395   5.433  1.1984 -2.5777 -0.8138
  924MOL0     H27496   0.347  10.462   6.087  1.0073 -1.9951  0.4789
  924MOL0     H27497   0.370  10.382   6.302 -1.1816  0.5588 -0.1895
  924MOL0     H27498   0.633  10.627   6.813 -0.9629  0.8400 -0.7972
  924MOL0     H27499   0.574  10.556   7.045 -1.0225 -0.8096 -0.7828
  924MOL0     H27500   0.335  10.433   7.232  0.6949  0.5015 -0.5841
  924MOL0     H27501   0.268  10.341   7.103  1.5785  0.8996 -0.7034
  924MOL0     H27502   0.313  10.121   7.235 -1.4012 -1.5269  2.5302
  924MOL0     H27503   0.226  10.238   7.322 -0.6601 -0.2737 -0.5305
  924MOL0     H27504   0.521  10.277   7.359  1.1505  0.5818  0.2755
  924MOL0     H27505   0.375  10.299   7.465 -0.2470  1.2462 -0.5129
  924MOL0     H27506   0.498  10.025   7.387 -2.2393 -0.3477 -0.4923
  924MOL0     H27507   0.357  10.047   7.490 -0.3543 -0.8998 -1.5185
  924MOL0     H27508   0.689  10.059   7.747 -2.9430 -1.9517  1.4632
  924MOL0     H27509   0.356  10.235   6.911  1.6436 -1.8248 -0.1981
  924MOL0     H27510   0.434  10.249   6.544 -0.8572 -1.2943 -0.2031
  924MOL0     H27511   0.387  10.148   6.675  1.0096  0.1801  0.0134
  924MOL0     H27512   0.290  10.299   6.624 -0.3667 -0.3531  0.3793
  925MOL0     O27513   2.499   3.338   2.740 -0.2562 -0.1408 -0.1352
  925MOL0     C27514   2.597   3.266   2.724  0.6766 -0.1305 -0.9203
  925MOL0     O27515   2.682   3.278   2.625 -0.4604 -0.6297 -0.1924
  925MOL0     C27516   2.687   3.398   2.556  0.5695 -0.0014 -0.8002
  925MOL0     C27517   2.617   3.435   2.441  0.5998 -0.1211 -0.3280
  925MOL0     C27518   2.604   3.565   2.391 -0.6298  0.1679  1.0503
  925MOL0     C27519   2.690   3.659   2.440 -0.1993  0.0383  1.0325
  925MOL0     O27520   2.719   3.781   2.375  0.3434  0.3584  0.1589
  925MOL0     C27521   2.629   3.835   2.271 -0.3275  0.2422 -0.1116
  925MOL0     C27522   2.687   3.974   2.242 -0.7013 -0.4535 -0.2197
  925MOL0     C27523   2.811   3.968   2.152 -0.4373  0.5944  0.1952
  925MOL0     C27524   2.782   4.022   2.015  0.6812 -0.1657  1.3310
  925MOL0     C27525   2.901   4.025   1.921  0.2271  0.2465  0.3577
  925MOL0     C27526   2.887   4.115   1.786 -0.5359  0.5547 -0.4134
  925MOL0     C27527   3.000   4.116   1.686 -0.1491  0.2361  0.8526
  925MOL0     C27528   3.047   4.257   1.634 -0.2189 -0.0698 -0.2945
  925MOL0     N27529   3.156   4.314   1.717 -0.0037 -0.2043  0.2785
  925MOL0     C27530   3.140   4.332   1.849  0.1082 -0.0688 -0.4805
  925MOL0     C27531   3.260   4.378   1.897 -0.1236 -1.1516  0.5055
  925MOL0     C27532   3.283   4.387   2.045  0.6694 -0.8812 -0.2550
  925MOL0     C27533   3.155   4.445   2.128 -0.3713 -0.0682 -1.0301
  925MOL0     C27534   3.194   4.525   2.264 -0.3026  0.4423  0.3384
  925MOL0     C27535   3.084   4.614   2.316  0.3377 -1.3242 -0.4703
  925MOL0     O27536   3.128   4.691   2.434 -0.5212 -1.0261 -0.3682
  925MOL0     C27537   3.074   4.807   2.483  0.3166  0.1413 -0.0317
  925MOL0     C27538   2.953   4.858   2.433  0.7326  0.6570 -0.4204
  925MOL0     C27539   2.897   4.978   2.480 -0.4258  0.3906 -0.3090
  925MOL0     C27540   2.763   5.021   2.412 -0.1808  0.0818  0.2340
  925MOL0     C27541   2.958   5.042   2.581  0.2439  0.5404 -0.0260
  925MOL0     C27542   2.912   5.174   2.641  0.1842  0.2614 -0.2565
  925MOL0     O27543   2.804   5.240   2.583 -0.5286  0.6495 -0.1004
  925MOL0     C27544   2.777   5.368   2.627  0.1089 -0.3781 -0.8571
  925MOL0     C27545   2.862   5.465   2.673  0.3317  0.0155 -0.6280
  925MOL0     C27546   2.820   5.598   2.707  0.1625 -1.0560  0.2369
  925MOL0     C27547   2.685   5.639   2.675 -0.2510  0.0674 -0.2805
  925MOL0     O27548   2.640   5.769   2.689 -0.4284 -0.0365  0.0664
  925MOL0     C27549   2.686   5.836   2.807  0.1920 -0.0206  0.1684
  925MOL0     C27550   2.591   5.948   2.833  0.1129 -0.1205 -0.2135
  925MOL0     C27551   2.461   5.912   2.909 -0.3777  1.0032  0.0924
  925MOL0     C27552   2.380   6.026   2.945 -0.0282  0.2055 -0.3309
  925MOL0     C27553   2.449   6.140   3.010  0.1324 -0.5634  0.1046
  925MOL0     C27554   2.343   6.253   3.042 -0.7481 -0.7774  0.1368
  925MOL0     C27555   2.272   6.307   2.910 -0.0145  0.6770  1.0974
  925MOL0     C27556   2.209   6.441   2.932  0.6101 -0.0171  2.3839
  925MOL0    Cl27557   2.110   6.484   2.785 -0.0869  0.5341 -0.2507
  925MOL0     C27558   2.596   5.539   2.625  1.0233 -0.3491 -0.3838
  925MOL0     C27559   2.640   5.410   2.602  0.6064 -0.6044 -1.7348
  925MOL0     O27560   2.964   5.207   2.748 -0.1916 -0.1989  0.4737
  925MOL0     C27561   3.081   4.985   2.634 -1.0582 -0.3482 -0.1977
  925MOL0     C27562   3.145   4.875   2.586  0.2006  0.0850  0.8354
  925MOL0     N27563   3.344   4.393   1.789 -0.2962  0.5328 -0.5986
  925MOL0     N27564   3.283   4.355   1.690  1.1282  0.0349 -0.2660
  925MOL0     C27565   2.758   3.630   2.561  0.6421 -0.9855  0.5648
  925MOL0     C27566   2.750   3.498   2.622  0.0604 -0.8735 -0.3024
  925MOL0     C27567   2.638   3.166   2.822 -0.2617  0.1314  0.4912
  925MOL0     C27568   2.700   3.053   2.770  0.1450 -0.1410 -0.2404
  925MOL0     C27569   2.718   2.947   2.852  0.5907  0.1964  0.1741
  925MOL0     C27570   2.667   2.943   2.979 -0.5140 -0.7641  0.3890
  925MOL0     O27571   2.682   2.829   3.057 -0.7669 -0.2059  0.8175
  925MOL0     C27572   2.675   2.848   3.202  0.1628  0.0061 -0.6383
  925MOL0     C27573   2.721   2.715   3.276  0.3128 -0.0941 -0.1071
  925MOL0     C27574   2.624   2.605   3.230 -0.6091 -0.8985 -0.1433
  925MOL0     C27575   2.674   2.466   3.280 -0.1331 -0.4540  0.2299
  925MOL0     C27576   2.673   2.449   3.430  0.6726 -0.3093  0.4156
  925MOL0     C27577   2.680   2.440   3.551 -0.5021  0.9739 -0.3687
  925MOL0     C27578   2.610   3.059   3.032  0.5173 -0.3336  0.7594
  925MOL0     C27579   2.602   3.170   2.953 -0.5053 -0.4480  0.1948
  925MOL0     C27580   2.556   3.301   3.017  0.6567 -1.0864 -0.2696
  925MOL0     H27581   2.560   3.359   2.388  3.2470 -0.7163 -2.5570
  925MOL0     H27582   2.549   3.567   2.298  2.5647  0.0279 -1.0240
  925MOL0     H27583   2.530   3.848   2.317 -0.6020  0.0720 -0.6475
  925MOL0     H27584   2.616   3.763   2.190 -2.1509  1.2571 -0.7801
  925MOL0     H27585   2.614   4.026   2.179  0.7502  2.0239  0.0293
  925MOL0     H27586   2.716   4.037   2.326 -0.7943  0.2280 -0.6870
  925MOL0     H27587   2.889   4.034   2.191  0.0327  1.7538 -2.5039
  925MOL0     H27588   2.848   3.867   2.134 -0.0490  1.0688 -1.8668
  925MOL0     H27589   2.705   3.957   1.971  1.8102 -0.0076 -1.0324
  925MOL0     H27590   2.747   4.125   2.005 -1.7890 -1.0979 -0.9208
  925MOL0     H27591   2.915   3.925   1.879  2.3329  0.6982 -0.1833
  925MOL0     H27592   2.982   4.060   1.987 -0.1954 -3.0555  2.8949
  925MOL0     H27593   2.799   4.075   1.733  2.1885 -4.1348 -1.9594
  925MOL0     H27594   2.869   4.217   1.822  0.4816  0.0054  1.7634
  925MOL0     H27595   2.960   4.061   1.601  0.2777  0.1544  0.6998
  925MOL0     H27596   3.086   4.057   1.721 -1.2376 -2.6073 -0.9551
  925MOL0     H27597   3.092   4.243   1.535  0.2868  1.9954 -0.3951
  925MOL0     H27598   2.966   4.330   1.624 -0.9845 -1.1265 -2.6032
  925MOL0     H27599   3.049   4.309   1.902 -0.2643  2.0372 -0.1534
  925MOL0     H27600   3.373   4.444   2.068 -0.2188  0.4578  0.0700
  925MOL0     H27601   3.312   4.289   2.082 -0.0478 -1.5228 -1.3614
  925MOL0     H27602   3.079   4.497   2.070 -2.8964 -3.1370 -0.8021
  925MOL0     H27603   3.107   4.349   2.151  0.9877 -0.3298  0.9370
  925MOL0     H27604   3.218   4.449   2.339  0.7185  0.2310 -0.1781
  925MOL0     H27605   3.278   4.589   2.235 -0.4754 -0.6505 -3.0563
  925MOL0     H27606   3.054   4.683   2.237 -0.3928  0.4738  1.2968
  925MOL0     H27607   2.996   4.553   2.339 -2.0456  1.9266 -0.2519
  925MOL0     H27608   2.897   4.786   2.374  0.5215 -0.8921  1.5568
  925MOL0     H27609   2.744   4.948   2.333 -2.1183 -0.1836  0.9102
  925MOL0     H27610   2.751   5.120   2.368  1.7034 -0.8365 -2.6942
  925MOL0     H27611   2.686   5.000   2.487 -0.1099 -0.8352  0.0662
  925MOL0     H27612   2.965   5.442   2.697  0.4269  0.7183 -0.3312
  925MOL0     H27613   2.893   5.669   2.744  1.4795 -0.3456 -3.3985
  925MOL0     H27614   2.700   5.767   2.890 -0.4395  0.2268  0.4892
  925MOL0     H27615   2.788   5.875   2.795  0.4837  0.2005  2.8086
  925MOL0     H27616   2.658   6.014   2.888 -0.6780  1.1994 -0.7845
  925MOL0     H27617   2.557   5.995   2.741 -1.6257 -1.9425 -0.5749
  925MOL0     H27618   2.484   5.852   2.998 -0.2644  2.8223  1.3442
  925MOL0     H27619   2.406   5.842   2.846 -0.3650  0.8933  0.2045
  925MOL0     H27620   2.302   5.998   3.017  2.5561 -0.6433  2.3141
  925MOL0     H27621   2.325   6.062   2.857 -0.4515 -1.0851 -0.6221
  925MOL0     H27622   2.513   6.107   3.092  1.3874 -0.9745 -1.0012
  925MOL0     H27623   2.520   6.172   2.933  1.3031 -0.8608  1.0137
  925MOL0     H27624   2.383   6.340   3.094  0.7928 -1.4691  0.1435
  925MOL0     H27625   2.269   6.207   3.108  0.2713 -1.0747  1.1089
  925MOL0     H27626   2.202   6.238   2.863  0.4887  0.8862  0.0009
  925MOL0     H27627   2.343   6.310   2.827  0.3925 -1.7847  1.2994
  925MOL0     H27628   2.286   6.518   2.934  1.4988 -0.5678 -1.7544
  925MOL0     H27629   2.138   6.434   3.014 -2.6857 -0.0478 -0.2508
  925MOL0     H27630   2.497   5.579   2.604  1.2687  0.6226  0.2333
  925MOL0     H27631   2.566   5.342   2.561 -1.6661  0.6206  0.0521
  925MOL0     H27632   3.143   5.032   2.709  0.3219 -2.4050  0.0358
  925MOL0     H27633   3.232   4.828   2.632  0.0805  2.1994  3.4030
  925MOL0     H27634   2.814   3.718   2.591 -2.4632  0.7868  1.6000
  925MOL0     H27635   2.800   3.475   2.715  1.3692 -1.6339 -1.1563
  925MOL0     H27636   2.733   3.053   2.666  1.1477  4.5278 -0.1408
  925MOL0     H27637   2.770   2.863   2.808  1.4286  0.7926  0.0023
  925MOL0     H27638   2.739   2.934   3.226  0.2396 -0.1919 -0.1270
  925MOL0     H27639   2.573   2.867   3.237 -0.2866 -2.1617 -0.6480
  925MOL0     H27640   2.697   2.729   3.382  0.0786 -0.3923 -0.1206
  925MOL0     H27641   2.825   2.703   3.246  0.5322  0.8907  0.2240
  925MOL0     H27642   2.522   2.633   3.261 -0.6079  3.3008 -3.1143
  925MOL0     H27643   2.621   2.610   3.121  0.3002  1.3710 -0.1186
  925MOL0     H27644   2.776   2.456   3.242 -0.6318 -2.8294 -0.6222
  925MOL0     H27645   2.617   2.394   3.221 -0.0534  0.9805 -1.6805
  925MOL0     H27646   2.685   2.429   3.657  1.2222  0.8748 -0.4261
  925MOL0     H27647   2.567   3.064   3.131 -1.3491  0.6197 -0.0540
  925MOL0     H27648   2.618   3.383   2.979  1.9995 -1.2738  1.3518
  925MOL0     H27649   2.452   3.322   2.994  0.9658 -0.3975 -1.0804
  925MOL0     H27650   2.571   3.311   3.125 -0.7929 -1.2705 -0.0395
  926MOL0     O27651   3.060   9.042   6.398  0.0527 -0.6591  0.5964
  926MOL0     C27652   3.109   9.122   6.316  0.2069 -0.0392 -1.0203
  926MOL0     O27653   3.131   9.105   6.179 -0.4352 -0.7119  0.3310
  926MOL0     C27654   3.043   9.037   6.104  0.1529 -0.5418 -0.9595
  926MOL0     C27655   3.099   8.960   6.004 -0.1642  0.2156  0.2587
  926MOL0     C27656   3.023   8.891   5.909  0.7180  0.3604  1.2537
  926MOL0     C27657   2.884   8.893   5.922  0.9418 -0.7137  0.8636
  926MOL0     O27658   2.801   8.836   5.832 -0.8326  0.1986 -0.1285
  926MOL0     C27659   2.689   8.759   5.886 -0.5465 -0.6463 -0.2547
  926MOL0     C27660   2.630   8.659   5.796  0.2344  0.3886  0.4783
  926MOL0     C27661   2.727   8.544   5.748 -0.0577 -0.0918  0.7333
  926MOL0     C27662   2.658   8.484   5.632 -0.3541 -0.6568 -0.5114
  926MOL0     C27663   2.683   8.339   5.609 -0.6107  0.4791  0.5879
  926MOL0     C27664   2.817   8.305   5.545  0.6667 -0.0960  0.0701
  926MOL0     C27665   2.854   8.392   5.429  0.0478  0.5186  0.4715
  926MOL0     C27666   2.991   8.348   5.369  0.5045 -0.1471 -0.4379
  926MOL0     N27667   2.986   8.218   5.290 -0.5312 -0.7278  1.0375
  926MOL0     C27668   3.067   8.116   5.301 -1.3386  0.3699  0.9992
  926MOL0     C27669   3.039   8.036   5.198  0.3925  0.8594  0.3296
  926MOL0     C27670   3.102   7.904   5.165  0.4216  0.3179  0.0039
  926MOL0     C27671   3.011   7.796   5.212 -0.4822  0.7265  0.1158
  926MOL0     C27672   3.039   7.656   5.144  0.1316 -0.1556 -0.5032
  926MOL0     C27673   3.176   7.601   5.190 -0.0011 -0.0835 -0.1375
  926MOL0     O27674   3.174   7.568   5.332 -0.8076 -0.5866  0.4021
  926MOL0     C27675   3.120   7.451   5.388  0.1871 -0.9112  0.2707
  926MOL0     C27676   3.142   7.447   5.522  0.2747  0.9848  0.2703
  926MOL0     C27677   3.099   7.340   5.592 -0.3313  0.6448 -0.4974
  926MOL0     C27678   3.104   7.344   5.749  0.2362  1.3591  0.9967
  926MOL0     C27679   3.047   7.228   5.525 -0.0316  0.6783 -0.1373
  926MOL0     C27680   3.004   7.100   5.595 -0.5598 -0.2087 -0.4352
  926MOL0     O27681   2.909   7.124   5.689  0.4675 -0.5380 -0.6712
  926MOL0     C27682   2.848   7.026   5.765  0.6547 -0.3262  0.4053
  926MOL0     C27683   2.810   6.902   5.708  0.3497  0.1793 -0.9007
  926MOL0     C27684   2.749   6.807   5.792 -0.6946  0.5916  1.3017
  926MOL0     C27685   2.713   6.832   5.930 -0.7195 -0.0905 -0.2573
  926MOL0     O27686   2.653   6.742   6.016  0.3127 -0.5111 -0.4242
  926MOL0     C27687   2.607   6.611   5.973 -1.0266 -1.0662  0.4337
  926MOL0     C27688   2.580   6.522   6.099 -0.0283 -0.4908 -0.3636
  926MOL0     C27689   2.709   6.480   6.173 -0.8766 -0.2043  0.4179
  926MOL0     C27690   2.667   6.415   6.303 -0.1819 -1.2718 -0.0886
  926MOL0     C27691   2.609   6.502   6.420 -0.8373 -0.5268 -0.4926
  926MOL0     C27692   2.716   6.592   6.468 -0.6083 -1.0740 -0.3602
  926MOL0     C27693   2.672   6.681   6.587 -0.4114  0.5792 -0.2893
  926MOL0     C27694   2.747   6.814   6.577 -0.1221 -0.4421 -0.2584
  926MOL0    Cl27695   2.911   6.800   6.642 -0.6475 -0.1299 -0.1937
  926MOL0     C27696   2.765   6.950   5.989 -0.2976 -0.0241 -0.4816
  926MOL0     C27697   2.829   7.050   5.906  0.3487  0.3749 -0.4243
  926MOL0     O27698   3.056   6.992   5.574  0.2660 -0.3713 -0.3954
  926MOL0     C27699   3.023   7.232   5.388  0.0502  0.2369 -0.5722
  926MOL0     C27700   3.048   7.359   5.316 -0.8620  1.0257  0.2827
  926MOL0     N27701   2.944   8.096   5.118 -0.7230  0.2727  0.2644
  926MOL0     N27702   2.917   8.205   5.172 -0.0071 -0.4031 -0.8215
  926MOL0     C27703   2.821   8.969   6.024 -0.1013 -0.3199  0.2407
  926MOL0     C27704   2.903   9.035   6.114 -0.0607 -0.3740 -0.5250
  926MOL0     C27705   3.183   9.232   6.387  0.7690  0.3192  1.2743
  926MOL0     C27706   3.321   9.222   6.405  0.2320  0.0130 -0.3242
  926MOL0     C27707   3.389   9.318   6.466  0.1498  0.6156  0.0006
  926MOL0     C27708   3.334   9.440   6.500 -0.5072  0.2284 -0.4469
  926MOL0     O27709   3.399   9.558   6.538  0.3875 -0.2907  0.4007
  926MOL0     C27710   3.540   9.565   6.548  0.0620  0.5306 -0.4639
  926MOL0     C27711   3.612   9.626   6.422  0.3818  0.8579 -1.1525
  926MOL0     C27712   3.739   9.699   6.437 -0.2493 -0.7698  0.4158
  926MOL0     C27713   3.845   9.634   6.527 -0.3583 -0.9247 -0.2084
  926MOL0     C27714   3.868   9.490   6.487 -1.0040 -0.3056  0.6944
  926MOL0     C27715   3.883   9.375   6.462  0.2540  0.0050  0.1718
  926MOL0     C27716   3.198   9.456   6.480 -0.1020 -0.2573 -0.7469
  926MOL0     C27717   3.124   9.360   6.421 -0.5260  0.8146  0.0025
  926MOL0     C27718   2.980   9.395   6.396  0.3948  0.2894  0.4566
  926MOL0     H27719   3.206   8.958   5.987 -0.2213  0.4665 -0.1545
  926MOL0     H27720   3.075   8.836   5.831  0.5136 -0.0423  1.3999
  926MOL0     H27721   2.608   8.830   5.902  0.4595  0.2453  1.1072
  926MOL0     H27722   2.717   8.708   5.979  0.1491 -0.2828 -0.2608
  926MOL0     H27723   2.554   8.610   5.858  0.4158 -0.1669  0.2661
  926MOL0     H27724   2.586   8.709   5.709  3.3109  0.3491 -1.2541
  926MOL0     H27725   2.826   8.584   5.722 -0.0451 -1.0684 -0.8417
  926MOL0     H27726   2.757   8.475   5.828 -0.5946 -0.8292  0.3042
  926MOL0     H27727   2.549   8.492   5.646 -0.0137  0.7852  2.0455
  926MOL0     H27728   2.688   8.536   5.541 -0.5668 -0.6534 -0.5810
  926MOL0     H27729   2.608   8.308   5.535 -1.1193  3.6157 -0.3381
  926MOL0     H27730   2.662   8.285   5.701 -0.1072 -1.0586 -0.1667
  926MOL0     H27731   2.902   8.309   5.614  1.9798  0.7667 -1.5238
  926MOL0     H27732   2.815   8.201   5.509  2.0361  0.6063 -2.2992
  926MOL0     H27733   2.867   8.495   5.465  0.3902  0.6137  0.0701
  926MOL0     H27734   2.774   8.389   5.355 -0.7711 -0.0611  1.3483
  926MOL0     H27735   3.026   8.429   5.305  2.4579  0.8898  1.8163
  926MOL0     H27736   3.064   8.327   5.448 -1.0704 -1.8533  0.6537
  926MOL0     H27737   3.147   8.095   5.370  0.5026  2.2702 -0.3975
  926MOL0     H27738   3.201   7.898   5.210  0.8555 -0.1474 -0.9876
  926MOL0     H27739   3.126   7.896   5.058  1.3720 -0.6729  0.2819
  926MOL0     H27740   3.014   7.781   5.320 -0.0730 -1.0471 -0.1056
  926MOL0     H27741   2.909   7.821   5.184 -1.5077 -0.7313  2.3478
  926MOL0     H27742   2.965   7.585   5.182 -0.4311  2.8122  4.9803
  926MOL0     H27743   3.035   7.667   5.035  3.7893 -1.5660 -0.9175
  926MOL0     H27744   3.199   7.507   5.139  0.9162  0.2657 -0.3873
  926MOL0     H27745   3.260   7.668   5.168 -1.9425  2.2307 -0.8637
  926MOL0     H27746   3.190   7.522   5.584  0.0417 -2.1898  4.7356
  926MOL0     H27747   3.179   7.418   5.779  3.5481 -0.9424 -0.9447
  926MOL0     H27748   3.142   7.252   5.795  0.9500  0.7829 -0.6461
  926MOL0     H27749   3.003   7.353   5.789 -1.3005  0.3285 -2.2994
  926MOL0     H27750   2.833   6.883   5.603  0.7055 -0.1596 -0.7643
  926MOL0     H27751   2.730   6.716   5.736  2.9926 -0.2543  1.1940
  926MOL0     H27752   2.512   6.621   5.921 -2.3830  0.7254  2.9912
  926MOL0     H27753   2.682   6.567   5.907 -2.1511 -2.2867 -0.0706
  926MOL0     H27754   2.515   6.577   6.167  0.1263  2.1958 -2.1986
  926MOL0     H27755   2.524   6.435   6.065 -2.2723  1.5323 -2.2318
  926MOL0     H27756   2.765   6.572   6.195 -4.0368  2.1466 -0.5837
  926MOL0     H27757   2.768   6.410   6.113 -2.3917 -0.3851 -0.9409
  926MOL0     H27758   2.754   6.378   6.358  0.0107 -0.4243  0.1790
  926MOL0     H27759   2.601   6.329   6.282 -5.1630  2.2787 -0.8729
  926MOL0     H27760   2.517   6.555   6.393 -1.1294  0.7404  2.4763
  926MOL0     H27761   2.589   6.442   6.510  0.9434  0.4307  0.6011
  926MOL0     H27762   2.744   6.653   6.382  0.2091  1.8944  1.8661
  926MOL0     H27763   2.802   6.532   6.500 -1.4387 -1.8840  0.4291
  926MOL0     H27764   2.691   6.631   6.682 -0.0829  0.5767 -0.3562
  926MOL0     H27765   2.563   6.697   6.583 -1.6942 -4.7884  2.9019
  926MOL0     H27766   2.688   6.888   6.632  0.6303  1.0074 -1.3250
  926MOL0     H27767   2.762   6.856   6.477  1.5910  1.4545  0.7126
  926MOL0     H27768   2.739   6.961   6.094 -0.1443 -0.5526 -0.3844
  926MOL0     H27769   2.871   7.134   5.959  2.7026 -0.2927 -1.1418
  926MOL0     H27770   2.992   7.145   5.331 -1.1237  1.2011 -1.4693
  926MOL0     H27771   3.026   7.371   5.211  2.0860  0.2194 -0.5067
  926MOL0     H27772   2.713   8.982   6.034  0.1432  2.4072  0.1759
  926MOL0     H27773   2.858   9.081   6.201  0.5025 -1.1818  0.2119
  926MOL0     H27774   3.363   9.129   6.368 -0.4651  0.1021 -1.3996
  926MOL0     H27775   3.494   9.304   6.489  0.3004  0.8681 -0.5182
  926MOL0     H27776   3.578   9.626   6.631  2.8976 -0.2589 -1.0514
  926MOL0     H27777   3.574   9.463   6.570 -1.9103 -0.3199 -1.2152
  926MOL0     H27778   3.544   9.709   6.398 -2.3151 -1.2082 -1.0606
  926MOL0     H27779   3.588   9.552   6.345 -0.4939  0.8537 -0.8886
  926MOL0     H27780   3.786   9.720   6.340  1.8294 -0.3450  1.4486
  926MOL0     H27781   3.725   9.803   6.468 -0.1821 -0.6681  0.1139
  926MOL0     H27782   3.805   9.643   6.629  1.6769  0.1416  0.5477
  926MOL0     H27783   3.938   9.691   6.526 -0.4299 -0.8047 -1.3423
  926MOL0     H27784   3.883   9.268   6.452 -2.3545 -0.3766  2.7347
  926MOL0     H27785   3.151   9.550   6.503  1.1566 -0.2443  2.0490
  926MOL0     H27786   2.978   9.465   6.311 -0.5604  1.5004  1.4305
  926MOL0     H27787   2.929   9.306   6.359  3.6446 -1.4513 -0.1727
  926MOL0     H27788   2.924   9.437   6.480 -0.8781  2.0847 -1.1802
  927MOL0     O27789   6.231   2.480   0.918  0.0692 -0.2102  0.2689
  927MOL0     C27790   6.259   2.562   0.830 -0.1922 -0.1029  0.3459
  927MOL0     O27791   6.233   2.697   0.843  0.7302 -0.5696  0.5922
  927MOL0     C27792   6.194   2.744   0.963  0.1815 -0.4910  0.5314
  927MOL0     C27793   6.063   2.733   1.009  0.1903 -0.3124  0.0176
  927MOL0     C27794   6.023   2.808   1.120 -0.0184 -0.8484 -0.5157
  927MOL0     C27795   6.119   2.882   1.194  0.4577 -0.5473 -1.0616
  927MOL0     O27796   6.084   2.962   1.298  0.4921  0.2836  0.5841
  927MOL0     C27797   5.943   2.995   1.307 -0.0687 -0.4301 -0.4163
  927MOL0     C27798   5.920   3.086   1.431  0.2528  1.2679  0.5324
  927MOL0     C27799   6.041   3.174   1.471 -0.2628  0.7154  0.3200
  927MOL0     C27800   5.997   3.312   1.508  0.2278  0.0553 -0.1537
  927MOL0     C27801   6.101   3.385   1.596 -0.7422  0.5742  0.2934
  927MOL0     C27802   6.028   3.492   1.668  0.4845 -0.8894 -0.1356
  927MOL0     C27803   6.110   3.569   1.774  0.1826  0.2406  1.0158
  927MOL0     C27804   6.238   3.498   1.822 -0.1190  0.5524  0.1455
  927MOL0     N27805   6.303   3.599   1.901 -0.3744  0.4679  0.4378
  927MOL0     C27806   6.271   3.644   2.027 -0.1933 -0.5652 -0.7155
  927MOL0     C27807   6.340   3.767   2.044  0.3592  0.6822  0.0079
  927MOL0     C27808   6.353   3.852   2.168  1.1730 -0.1773  0.2050
  927MOL0     C27809   6.212   3.873   2.210  0.6132  0.2857 -0.7808
  927MOL0     C27810   6.194   3.994   2.314  0.2972  0.5632  0.3055
  927MOL0     C27811   6.199   4.133   2.248 -0.7045 -0.0424  0.2321
  927MOL0     O27812   6.081   4.166   2.177 -0.0930 -0.1351 -0.0084
  927MOL0     C27813   6.058   4.301   2.164 -0.2892 -0.0485 -0.5972
  927MOL0     C27814   5.928   4.341   2.172 -0.1247 -1.1917  1.6402
  927MOL0     C27815   5.888   4.476   2.161  0.4012  0.0892 -0.1525
  927MOL0     C27816   5.734   4.491   2.170 -0.7864  0.2538 -0.3168
  927MOL0     C27817   5.982   4.579   2.136 -0.4160  0.1225 -0.1396
  927MOL0     C27818   5.953   4.727   2.127  0.2365 -0.6489  0.0264
  927MOL0     O27819   5.830   4.781   2.167 -0.6138  0.4180  0.0512
  927MOL0     C27820   5.804   4.910   2.124  0.4670 -0.1016 -0.1335
  927MOL0     C27821   5.724   4.993   2.204 -0.3736  1.0974  0.5195
  927MOL0     C27822   5.676   5.112   2.152  0.0768 -0.0581  0.2237
  927MOL0     C27823   5.699   5.151   2.020 -0.2880 -0.8209 -0.5518
  927MOL0     O27824   5.668   5.282   1.989 -0.0322  0.1589  0.2960
  927MOL0     C27825   5.733   5.347   1.884  0.9761 -0.3738  0.4775
  927MOL0     C27826   5.690   5.498   1.878 -0.2591  0.3531 -0.5484
  927MOL0     C27827   5.776   5.579   1.789 -0.3356 -0.0664  0.2545
  927MOL0     C27828   5.718   5.713   1.760  0.0777 -0.4102 -0.1216
  927MOL0     C27829   5.799   5.829   1.819 -0.4633 -0.0525 -0.0989
  927MOL0     C27830   5.734   5.969   1.775 -0.3171  0.8617 -0.0148
  927MOL0     C27831   5.835   6.080   1.798  0.2683 -0.5325 -0.1515
  927MOL0     C27832   5.795   6.222   1.730 -0.1243 -0.4778  0.9399
  927MOL0    Cl27833   5.942   6.320   1.695  0.0369 -0.2823  0.1849
  927MOL0     C27834   5.772   5.070   1.939  0.2413 -0.3872 -0.0889
  927MOL0     C27835   5.835   4.962   1.996  0.5022  0.1098  1.1414
  927MOL0     O27836   6.047   4.802   2.092 -0.7014 -0.3177  0.5892
  927MOL0     C27837   6.119   4.543   2.122 -0.6861  0.5615 -0.8266
  927MOL0     C27838   6.154   4.403   2.133  0.6682 -0.7750  0.4569
  927MOL0     N27839   6.424   3.781   1.939 -0.1385 -0.7612  0.3642
  927MOL0     N27840   6.396   3.687   1.847  0.3989  0.1457  0.0292
  927MOL0     C27841   6.245   2.884   1.156 -0.4026  1.3881 -0.0873
  927MOL0     C27842   6.285   2.816   1.040  0.1626  0.8255  0.3677
  927MOL0     C27843   6.331   2.517   0.713  0.1091  0.1582 -0.0410
  927MOL0     C27844   6.364   2.608   0.620  0.0702 -0.4563 -0.1134
  927MOL0     C27845   6.417   2.576   0.493  0.4450 -0.0959 -0.4298
  927MOL0     C27846   6.451   2.450   0.461 -0.3127  0.3247  0.9266
  927MOL0     O27847   6.491   2.403   0.340  0.5017  0.1027  0.4328
  927MOL0     C27848   6.428   2.447   0.219 -0.0963 -0.3553  0.4222
  927MOL0     C27849   6.460   2.348   0.104 -0.5741  0.0632  0.6110
  927MOL0     C27850   6.384   2.214   0.127 -0.5538 -0.5105  0.5337
  927MOL0     C27851   6.445   2.100   0.044 -0.6144  0.3799  0.5479
  927MOL0     C27852   6.359   1.985   0.053  0.1932  0.1949 -0.3525
  927MOL0     C27853   6.303   1.882   0.060  0.4901  0.0751  0.1431
  927MOL0     C27854   6.444   2.353   0.561 -0.7001 -0.0387  0.3488
  927MOL0     C27855   6.383   2.388   0.686  0.5254  0.4658  0.6948
  927MOL0     C27856   6.387   2.273   0.786  0.1719 -0.5218  0.1145
  927MOL0     H27857   6.000   2.673   0.944 -2.1422  0.7032  1.2476
  927MOL0     H27858   5.917   2.795   1.136 -0.3552  2.0349  0.1943
  927MOL0     H27859   5.886   2.904   1.329  0.5592 -0.0221  3.8196
  927MOL0     H27860   5.899   3.035   1.215 -3.1087 -3.3824 -0.4424
  927MOL0     H27861   5.841   3.154   1.399  0.3096  0.6796 -0.9322
  927MOL0     H27862   5.890   3.033   1.522  2.5828 -0.2394  0.5088
  927MOL0     H27863   6.096   3.125   1.551 -2.7977 -2.2659  0.4479
  927MOL0     H27864   6.118   3.188   1.395  1.2859  3.9688  2.2516
  927MOL0     H27865   5.974   3.370   1.418 -2.8299  1.1043  1.1948
  927MOL0     H27866   5.904   3.306   1.564  1.5642 -0.2151  2.1797
  927MOL0     H27867   6.181   3.437   1.542 -0.0943  0.9796  1.5948
  927MOL0     H27868   6.153   3.319   1.666  0.0069  0.2893 -0.5120
  927MOL0     H27869   5.995   3.564   1.593 -0.3067  0.5221  1.4918
  927MOL0     H27870   5.935   3.456   1.715 -1.0992  2.2206 -0.6337
  927MOL0     H27871   6.054   3.589   1.866  2.9572  0.8110  2.7168
  927MOL0     H27872   6.136   3.669   1.738  1.3303 -0.6757 -0.8735
  927MOL0     H27873   6.219   3.414   1.889  1.6826 -0.8797 -1.0527
  927MOL0     H27874   6.311   3.468   1.746  1.9829  0.3450  2.1410
  927MOL0     H27875   6.192   3.611   2.093  2.0553 -1.0003  1.9389
  927MOL0     H27876   6.411   3.944   2.151  2.9180 -0.9375  1.7227
  927MOL0     H27877   6.406   3.797   2.246  1.5997  2.5640  1.9653
  927MOL0     H27878   6.141   3.895   2.130 -1.4640  0.0064  0.8986
  927MOL0     H27879   6.178   3.786   2.268  2.5841  1.0427  1.7235
  927MOL0     H27880   6.100   3.978   2.369  1.6935 -1.2989  2.3558
  927MOL0     H27881   6.269   3.986   2.394  1.1770 -0.5141 -0.5876
  927MOL0     H27882   6.227   4.204   2.326 -0.6707  1.1218 -0.8270
  927MOL0     H27883   6.281   4.143   2.177  0.6719 -2.9193  1.2565
  927MOL0     H27884   5.864   4.257   2.199 -0.3753 -2.2328 -1.7332
  927MOL0     H27885   5.697   4.589   2.203 -0.6718 -0.4846  2.2633
  927MOL0     H27886   5.683   4.423   2.239 -0.5634  0.3170 -0.0861
  927MOL0     H27887   5.688   4.466   2.074 -0.0865  0.3180 -0.6765
  927MOL0     H27888   5.698   4.974   2.308  0.1910 -0.6330  0.3809
  927MOL0     H27889   5.615   5.177   2.213 -0.1340 -0.2773  0.2480
  927MOL0     H27890   5.838   5.338   1.911  1.1273  3.3343  1.6385
  927MOL0     H27891   5.721   5.289   1.791  4.4079  0.5592 -0.6946
  927MOL0     H27892   5.586   5.495   1.844  0.6541 -0.4127 -3.5826
  927MOL0     H27893   5.690   5.542   1.978 -3.1156 -2.0704  0.6553
  927MOL0     H27894   5.795   5.520   1.699  0.0925  2.7054 -1.5952
  927MOL0     H27895   5.870   5.597   1.841  0.4670  1.0135 -1.4905
  927MOL0     H27896   5.611   5.715   1.784 -0.9040 -1.1306 -3.7152
  927MOL0     H27897   5.712   5.727   1.651 -0.4046  0.8235  0.0528
  927MOL0     H27898   5.803   5.817   1.927 -1.2144 -2.1569 -0.2648
  927MOL0     H27899   5.900   5.838   1.775 -1.2609  3.0422 -1.5971
  927MOL0     H27900   5.639   5.974   1.829 -1.6833 -1.7058 -1.9257
  927MOL0     H27901   5.718   5.959   1.667 -0.1704 -1.7348  0.1466
  927MOL0     H27902   5.926   6.049   1.747 -0.3677 -3.4555  0.3135
  927MOL0     H27903   5.869   6.094   1.901  0.4591  0.8376 -0.3766
  927MOL0     H27904   5.725   6.274   1.796 -1.4013 -1.0514  0.0745
  927MOL0     H27905   5.742   6.212   1.635  3.5347 -2.5273 -1.1309
  927MOL0     H27906   5.793   5.104   1.838  4.7261 -3.6572 -0.5466
  927MOL0     H27907   5.897   4.896   1.934  0.5975  0.2335  1.1052
  927MOL0     H27908   6.196   4.614   2.095 -0.2867 -0.0691 -1.3880
  927MOL0     H27909   6.259   4.379   2.133  0.9023  0.1938  0.6632
  927MOL0     H27910   6.325   2.915   1.223  0.9068 -1.6384 -0.1120
  927MOL0     H27911   6.391   2.833   1.022  0.3146  1.1472  1.5082
  927MOL0     H27912   6.335   2.712   0.627 -1.2259 -0.6069 -2.5453
  927MOL0     H27913   6.433   2.653   0.418  0.4402  0.0103 -0.3210
  927MOL0     H27914   6.322   2.465   0.240  0.6315  1.2512  3.4427
  927MOL0     H27915   6.479   2.539   0.188  3.0034 -2.2016 -0.3675
  927MOL0     H27916   6.569   2.341   0.097 -0.5747  1.0454 -0.9529
  927MOL0     H27917   6.429   2.384   0.005  0.3908 -1.0969 -0.1351
  927MOL0     H27918   6.402   2.193   0.232  0.2928 -0.3059  0.4357
  927MOL0     H27919   6.280   2.231   0.096  0.5937  0.1150 -3.6735
  927MOL0     H27920   6.545   2.067   0.072 -0.5373 -0.3534 -0.5424
  927MOL0     H27921   6.443   2.136  -0.059 -0.9082  4.3472  1.7393
  927MOL0     H27922   6.263   1.783   0.066 -1.2032  0.7282  0.2181
  927MOL0     H27923   6.493   2.258   0.540  0.5097  0.9635 -1.7060
  927MOL0     H27924   6.454   2.196   0.746  1.3618  0.7323 -0.3657
  927MOL0     H27925   6.422   2.310   0.883 -1.4517  2.1923 -0.2499
  927MOL0     H27926   6.287   2.229   0.795  0.3544 -1.5042 -2.0291
  928MOL0     O27927   3.739   1.675   6.453 -0.1467 -0.9182 -0.1350
  928MOL0     C27928   3.831   1.625   6.523 -0.6227 -1.0256  0.7494
  928MOL0     O27929   3.910   1.696   6.612  0.1560  0.1171  0.6810
  928MOL0     C27930   3.888   1.836   6.622 -0.4860 -1.1114  0.5852
  928MOL0     C27931   3.773   1.886   6.682 -0.5574  0.4407  0.4915
  928MOL0     C27932   3.755   2.025   6.683  0.1913  0.0425  0.2992
  928MOL0     C27933   3.854   2.113   6.650  0.6609 -0.2911 -0.6796
  928MOL0     O27934   3.825   2.244   6.672 -0.2046 -0.3213  0.5981
  928MOL0     C27935   3.887   2.323   6.576  0.7487 -0.3680 -0.1399
  928MOL0     C27936   3.821   2.465   6.584 -0.1155  0.0268 -0.5881
  928MOL0     C27937   3.678   2.461   6.521 -1.4487  0.8290  0.0969
  928MOL0     C27938   3.641   2.605   6.466 -0.0541 -0.6433  0.3023
  928MOL0     C27939   3.503   2.605   6.415 -0.2406  0.2226  0.1210
  928MOL0     C27940   3.441   2.741   6.389 -0.5408  0.4701 -0.2184
  928MOL0     C27941   3.550   2.838   6.324 -0.2710 -0.6090  0.1750
  928MOL0     C27942   3.512   2.988   6.343  0.2451  0.1354 -0.3686
  928MOL0     N27943   3.403   3.024   6.247  0.0369  0.8554  0.3208
  928MOL0     C27944   3.409   3.015   6.109  0.3697  0.7671 -0.5692
  928MOL0     C27945   3.291   3.064   6.069 -0.1927  0.6077 -0.0689
  928MOL0     C27946   3.268   3.105   5.928  0.0049 -0.6402  0.4881
  928MOL0     C27947   3.348   3.029   5.822 -0.4757  0.0249 -0.3246
  928MOL0     C27948   3.340   3.104   5.682 -0.1608 -0.1202 -0.2236
  928MOL0     C27949   3.196   3.095   5.631  0.3852  0.0879  0.0805
  928MOL0     O27950   3.198   3.176   5.520  0.2758 -0.4503 -0.0012
  928MOL0     C27951   3.161   3.109   5.404 -0.3065 -0.5397  0.1986
  928MOL0     C27952   3.263   3.048   5.331  0.8137  0.0219 -0.0208
  928MOL0     C27953   3.224   2.975   5.214  0.4455 -0.3080 -0.3052
  928MOL0     C27954   3.342   2.889   5.163 -0.9717  0.3923 -0.3095
  928MOL0     C27955   3.086   2.982   5.165  0.0051  0.2780 -0.3486
  928MOL0     C27956   3.037   2.907   5.050 -0.2958 -0.6938 -0.3625
  928MOL0     O27957   3.118   2.849   4.967 -0.3311  0.1705  0.2636
  928MOL0     C27958   3.072   2.755   4.881 -0.8923  0.2691  0.1394
  928MOL0     C27959   3.138   2.752   4.764 -0.8517 -0.1040 -0.4286
  928MOL0     C27960   3.120   2.638   4.682 -0.1688  0.1295 -0.3558
  928MOL0     C27961   3.047   2.519   4.723  0.2521 -0.4595  0.6254
  928MOL0     O27962   3.056   2.407   4.645  0.0673  0.2717 -0.1638
  928MOL0     C27963   2.954   2.304   4.662 -0.5203  0.3584  0.3661
  928MOL0     C27964   2.997   2.177   4.585  0.0256  0.0463 -1.0790
  928MOL0     C27965   2.902   2.065   4.611 -0.0492  0.6724 -0.0207
  928MOL0     C27966   2.747   2.095   4.565 -0.4391 -0.4074 -1.1558
  928MOL0     C27967   2.711   1.990   4.460 -0.4038  0.0998  0.3752
  928MOL0     C27968   2.569   2.000   4.397 -0.4996 -0.3095  0.3396
  928MOL0     C27969   2.476   1.946   4.508  0.6504 -0.0823  1.7833
  928MOL0     C27970   2.330   1.947   4.473  0.0115 -0.2503 -0.9260
  928MOL0    Cl27971   2.224   1.895   4.607 -0.1233 -0.3580  0.2571
  928MOL0     C27972   2.982   2.536   4.845 -0.0073 -0.2139  0.2052
  928MOL0     C27973   2.978   2.658   4.917 -0.0780 -0.7822  0.0108
  928MOL0     O27974   2.916   2.905   5.041  0.1066  0.2588  0.2068
  928MOL0     C27975   2.996   3.060   5.243 -0.7821 -0.1705  0.3669
  928MOL0     C27976   3.033   3.121   5.358 -0.4831 -0.7455 -0.4145
  928MOL0     N27977   3.211   3.104   6.180  0.0475  0.4184  0.2996
  928MOL0     N27978   3.275   3.067   6.284  0.3788 -0.3516 -1.0625
  928MOL0     C27979   3.976   2.059   6.600 -0.8096  0.4017  0.1544
  928MOL0     C27980   3.984   1.925   6.576  0.4398  0.1454  0.5800
  928MOL0     C27981   3.884   1.491   6.501  0.9767  0.8146 -0.4852
  928MOL0     C27982   4.012   1.452   6.536  0.3231 -0.1618 -0.3914
  928MOL0     C27983   4.056   1.320   6.526 -0.9592  0.1678  0.0529
  928MOL0     C27984   3.986   1.211   6.468  0.5392  0.4541 -0.8060
  928MOL0     O27985   4.027   1.087   6.455  0.1431 -0.4312  0.1487
  928MOL0     C27986   3.964   1.009   6.350 -0.1189 -0.0000  0.5381
  928MOL0     C27987   4.069   0.903   6.308  0.4023  0.0400  0.4747
  928MOL0     C27988   4.099   0.787   6.401  0.5494  0.0848  0.1900
  928MOL0     C27989   4.243   0.782   6.450  0.2790 -0.2137 -0.5426
  928MOL0     C27990   4.314   0.722   6.340  0.1839  0.6837 -0.9108
  928MOL0     C27991   4.385   0.667   6.259  0.0588 -0.3034 -0.4993
  928MOL0     C27992   3.854   1.250   6.438  0.3986 -0.0041 -0.8340
  928MOL0     C27993   3.799   1.385   6.447 -0.8452  0.3146 -1.1158
  928MOL0     C27994   3.658   1.408   6.401  0.4155  0.2165 -0.5776
  928MOL0     H27995   3.691   1.816   6.696  2.1666 -3.1738 -0.4239
  928MOL0     H27996   3.660   2.070   6.710 -0.3253 -1.7044  1.5304
  928MOL0     H27997   3.875   2.286   6.474 -1.0611 -0.4500  0.0654
  928MOL0     H27998   3.994   2.341   6.591  1.1561 -3.5620  1.9339
  928MOL0     H27999   3.814   2.508   6.684  0.5255  0.1508 -0.5881
  928MOL0     H28000   3.897   2.526   6.533  0.2019 -1.6672 -2.2625
  928MOL0     H28001   3.660   2.387   6.442  3.0331 -0.5060  0.0175
  928MOL0     H28002   3.608   2.438   6.602  1.0428  2.4658  2.9048
  928MOL0     H28003   3.655   2.679   6.545  3.4251  1.5983 -2.1368
  928MOL0     H28004   3.711   2.638   6.389 -0.1071 -0.7887  0.1919
  928MOL0     H28005   3.438   2.548   6.481 -1.1761  0.5484 -0.5008
  928MOL0     H28006   3.518   2.562   6.315  1.3336 -0.1215  0.4787
  928MOL0     H28007   3.349   2.723   6.332 -0.9107 -3.1261  1.2546
  928MOL0     H28008   3.410   2.774   6.488  0.7699 -2.3194  1.2360
  928MOL0     H28009   3.571   2.821   6.218 -0.6540  0.4005 -0.0786
  928MOL0     H28010   3.650   2.825   6.366  0.2019 -0.6571 -0.9453
  928MOL0     H28011   3.479   3.007   6.445 -1.6793  1.5816 -1.1908
  928MOL0     H28012   3.602   3.049   6.332  0.4552 -0.3914 -1.8647
  928MOL0     H28013   3.493   2.986   6.048 -0.7833 -0.3544 -1.6895
  928MOL0     H28014   3.275   3.213   5.914 -2.8584 -0.6259 -1.9147
  928MOL0     H28015   3.164   3.079   5.908  0.0419 -0.2630 -0.2328
  928MOL0     H28016   3.451   3.040   5.856 -1.2826  1.8982  1.8071
  928MOL0     H28017   3.324   2.923   5.812 -0.6123  0.1574 -1.5723
  928MOL0     H28018   3.370   3.208   5.698 -0.0408 -0.1038 -0.5620
  928MOL0     H28019   3.419   3.063   5.619  0.4539 -2.0462  1.6649
  928MOL0     H28020   3.171   2.997   5.588 -0.0889  1.3711 -2.7783
  928MOL0     H28021   3.125   3.120   5.711  1.9000  2.8853  0.6761
  928MOL0     H28022   3.366   3.051   5.365  0.5458 -2.5226  1.2481
  928MOL0     H28023   3.381   2.914   5.064 -1.4493  2.0932 -0.1111
  928MOL0     H28024   3.307   2.786   5.157  0.8898 -0.4966  2.1877
  928MOL0     H28025   3.427   2.894   5.232 -0.6758 -3.2645 -0.2431
  928MOL0     H28026   3.202   2.829   4.723 -0.5118  0.2086  0.6702
  928MOL0     H28027   3.166   2.639   4.584 -0.0641 -0.1333 -0.3103
  928MOL0     H28028   2.937   2.281   4.767 -0.1336 -0.1352  0.3235
  928MOL0     H28029   2.860   2.339   4.617  0.1295 -2.3480 -3.6459
  928MOL0     H28030   3.005   2.188   4.476 -1.9206  1.8589 -1.1062
  928MOL0     H28031   3.095   2.154   4.628 -0.3870  0.2739  0.0077
  928MOL0     H28032   2.904   2.037   4.717  0.0844 -0.4413 -0.3074
  928MOL0     H28033   2.948   1.976   4.567  0.4558  0.4784  0.8674
  928MOL0     H28034   2.727   2.193   4.522  1.2689  0.1626 -0.7504
  928MOL0     H28035   2.673   2.086   4.645  2.5706  2.6258  2.3707
  928MOL0     H28036   2.785   2.003   4.379  0.8004 -0.3949  1.3628
  928MOL0     H28037   2.727   1.892   4.506  3.7191  1.2370  1.8225
  928MOL0     H28038   2.566   1.939   4.306  1.3238 -0.2680  0.2145
  928MOL0     H28039   2.538   2.102   4.372 -1.1562 -0.8630 -1.2753
  928MOL0     H28040   2.490   2.011   4.595 -1.5988 -0.0465  2.1768
  928MOL0     H28041   2.497   1.845   4.546 -1.6299 -0.6998  1.5582
  928MOL0     H28042   2.307   1.882   4.388 -1.2369 -1.6799  0.4366
  928MOL0     H28043   2.296   2.047   4.446  0.5540  0.0535 -0.5037
  928MOL0     H28044   2.904   2.466   4.871 -1.8663  1.8438  0.4175
  928MOL0     H28045   2.927   2.675   5.011  2.9743  2.7665  1.2203
  928MOL0     H28046   2.891   3.080   5.223 -1.2150  0.5172  2.9592
  928MOL0     H28047   2.962   3.179   5.417  1.1376  0.3703  0.5237
  928MOL0     H28048   4.053   2.128   6.568  0.5104 -0.7736  0.7042
  928MOL0     H28049   4.067   1.891   6.515 -0.4926  0.5560 -0.9710
  928MOL0     H28050   4.083   1.512   6.592  1.6376  0.8007 -2.9292
  928MOL0     H28051   4.154   1.281   6.552 -0.4133  2.3670  1.6024
  928MOL0     H28052   3.868   0.970   6.385  0.2962 -1.7369 -0.1928
  928MOL0     H28053   3.950   1.069   6.259 -2.4647 -4.6812 -2.5511
  928MOL0     H28054   4.163   0.951   6.277  0.4184 -0.4453 -0.2611
  928MOL0     H28055   4.031   0.875   6.209  0.0054  0.5542  0.4762
  928MOL0     H28056   4.032   0.802   6.487  0.1298  0.2003 -0.1491
  928MOL0     H28057   4.077   0.689   6.358 -1.0921  0.9262 -1.0015
  928MOL0     H28058   4.237   0.727   6.544 -3.2870 -1.1625 -1.1866
  928MOL0     H28059   4.279   0.884   6.469 -0.2605 -0.4024  1.6857
  928MOL0     H28060   4.450   0.629   6.182  0.0345  1.9758 -1.7236
  928MOL0     H28061   3.787   1.170   6.410  3.6685 -3.4830  0.4529
  928MOL0     H28062   3.652   1.481   6.320  0.8613 -0.9364 -1.6851
  928MOL0     H28063   3.620   1.308   6.376  0.6761 -0.7873  2.5230
  928MOL0     H28064   3.615   1.451   6.492  0.9625 -1.0059  0.2850
  929MOL0     O28065   1.888   4.989  10.988  0.3048  0.7529 -0.4527
  929MOL0     C28066   1.980   4.923  10.941 -0.1789  0.8772 -0.3558
  929MOL0     O28067   2.052   4.827  11.003 -0.2242  0.2477 -0.1662
  929MOL0     C28068   2.073   4.826  11.145 -0.2274  0.1759 -0.2547
  929MOL0     C28069   1.975   4.857  11.248 -0.3681  0.4380  0.0377
  929MOL0     C28070   2.004   4.841  11.386 -0.7995  0.3008  0.2519
  929MOL0     C28071   2.138   4.813  11.429 -0.0076  0.3876  0.2925
  929MOL0     O28072   2.174   4.799  11.558  0.1435  0.0152  0.8478
  929MOL0     C28073   2.123   4.896  11.652  0.6329 -0.0505  0.5187
  929MOL0     C28074   2.053   4.820  11.771  0.1719 -0.3450 -0.1868
  929MOL0     C28075   2.150   4.705  11.827 -0.4034  0.2794 -0.3292
  929MOL0     C28076   2.130   4.703  11.975 -0.5985 -0.5727  0.3039
  929MOL0     C28077   2.008   4.636  12.022  0.6293  1.1244  0.3385
  929MOL0     C28078   2.029   4.584  12.165  0.3913  0.6207 -0.3669
  929MOL0     C28079   1.901   4.504  12.220  0.3909 -0.3915  0.0497
  929MOL0     C28080   1.768   4.553  12.187  0.7336 -0.4085 -0.1584
  929MOL0     N28081   1.669   4.486  12.266  0.4994  0.6403  0.6625
  929MOL0     C28082   1.647   4.349  12.286  0.6278 -0.0150  0.9312
  929MOL0     C28083   1.525   4.329  12.347  0.5676  0.1121 -0.2954
  929MOL0     C28084   1.452   4.203  12.350  1.3190 -0.4572  0.2956
  929MOL0     C28085   1.355   4.196  12.464 -0.2896  0.5542  0.5207
  929MOL0     C28086   1.288   4.049  12.465 -0.2765  0.0433 -0.0439
  929MOL0     C28087   1.376   3.925  12.484  0.2553  0.1820 -0.4286
  929MOL0     O28088   1.298   3.811  12.508  0.3388 -0.7452 -0.2598
  929MOL0     C28089   1.320   3.704  12.424 -0.8173 -0.0040  0.0635
  929MOL0     C28090   1.400   3.597  12.467 -0.2761 -0.0928 -0.0237
  929MOL0     C28091   1.436   3.488  12.387  0.0129 -0.0280  0.2880
  929MOL0     C28092   1.507   3.381  12.459  0.1822  0.0680 -0.4327
  929MOL0     C28093   1.397   3.493  12.254  0.2154  0.4209  0.1109
  929MOL0     C28094   1.423   3.378  12.159 -0.0806  0.6148  0.3527
  929MOL0     O28095   1.459   3.255  12.213  0.0671  0.9806  0.3346
  929MOL0     C28096   1.435   3.140  12.147  0.0816 -0.6759 -0.0972
  929MOL0     C28097   1.512   3.108  12.032 -0.7715  0.4941 -0.0556
  929MOL0     C28098   1.476   3.004  11.944  0.7792  0.9027  0.3103
  929MOL0     C28099   1.365   2.928  11.974 -1.2616  0.7423  0.0804
  929MOL0     O28100   1.302   2.831  11.897 -0.0197 -0.2774 -0.1407
  929MOL0     C28101   1.365   2.785  11.780 -0.6699  0.0286 -0.5552
  929MOL0     C28102   1.323   2.645  11.734  0.3829 -0.1673 -0.6179
  929MOL0     C28103   1.411   2.570  11.630 -0.3830 -0.7663 -0.9165
  929MOL0     C28104   1.394   2.414  11.617  0.1921 -0.1747  0.3605
  929MOL0     C28105   1.456   2.378  11.486 -0.3670  0.2773  0.0479
  929MOL0     C28106   1.437   2.223  11.461  0.1539 -0.3722 -0.0868
  929MOL0     C28107   1.410   2.193  11.311 -0.3992  0.9135  0.4586
  929MOL0     C28108   1.295   2.090  11.284 -0.1150  0.1040 -0.4647
  929MOL0    Cl28109   1.322   1.922  11.344 -0.4986  0.2777 -0.2654
  929MOL0     C28110   1.289   2.965  12.085  0.2721  0.4895  0.8770
  929MOL0     C28111   1.315   3.072  12.174 -0.3632  0.1243  0.7975
  929MOL0     O28112   1.412   3.393  12.036  0.3082  0.4029 -0.1422
  929MOL0     C28113   1.321   3.602  12.204  0.9247 -1.4263 -1.1139
  929MOL0     C28114   1.283   3.707  12.291  0.3949 -0.9091  0.0253
  929MOL0     N28115   1.473   4.459  12.355  0.3677 -0.8741 -0.1536
  929MOL0     N28116   1.557   4.547  12.314  0.0269  0.0943 -0.8833
  929MOL0     C28117   2.227   4.776  11.328 -0.3622  0.0088 -0.0843
  929MOL0     C28118   2.192   4.793  11.193 -0.6011  0.2649 -0.2252
  929MOL0     C28119   2.016   4.950  10.795  1.1753  0.3254  0.3328
  929MOL0     C28120   2.074   4.849  10.715  0.0460 -0.0236 -0.6053
  929MOL0     C28121   2.100   4.867  10.581 -0.0215 -0.2986  0.0029
  929MOL0     C28122   2.066   4.981  10.518 -0.7369 -0.1826 -0.0275
  929MOL0     O28123   2.101   4.982  10.385  0.3842  0.6521  0.6166
  929MOL0     C28124   2.187   5.095  10.348 -0.0103 -0.3396 -0.2230
  929MOL0     C28125   2.098   5.196  10.278  0.2137  0.5323  0.1765
  929MOL0     C28126   2.058   5.151  10.131 -0.6003  1.3347 -0.3021
  929MOL0     C28127   1.971   5.252  10.060  0.3153  0.3299 -0.8432
  929MOL0     C28128   2.046   5.368  10.022 -0.5105 -0.1908 -0.6748
  929MOL0     C28129   2.096   5.476   9.995  0.0294  0.4480  0.0822
  929MOL0     C28130   2.007   5.090  10.586 -0.3788  0.0313 -0.2377
  929MOL0     C28131   1.973   5.066  10.724 -0.0819  0.0939  0.2801
  929MOL0     C28132   1.906   5.185  10.784 -0.9363 -0.8780 -0.2582
  929MOL0     H28133   1.878   4.884  11.208 -0.1716 -0.1689 -0.9001
  929MOL0     H28134   1.919   4.842  11.454  0.6435  1.8387  2.1582
  929MOL0     H28135   2.045   4.958  11.607  2.3602  0.9539 -1.2412
  929MOL0     H28136   2.199   4.967  11.684  1.2086  1.1717 -3.1410
  929MOL0     H28137   2.029   4.896  11.846  0.0903  2.0421 -2.4845
  929MOL0     H28138   1.966   4.759  11.744  1.2644 -1.7941 -0.5504
  929MOL0     H28139   2.140   4.602  11.792  0.6228  0.4272 -1.0861
  929MOL0     H28140   2.255   4.730  11.810 -0.1308 -2.0813 -2.7149
  929MOL0     H28141   2.220   4.651  12.009 -0.3566 -0.6948 -0.4956
  929MOL0     H28142   2.113   4.805  12.011  1.1894 -0.6269  1.4371
  929MOL0     H28143   1.987   4.550  11.959  0.5450  0.1297  1.6679
  929MOL0     H28144   1.929   4.712  12.015 -0.2012  0.3083  0.6360
  929MOL0     H28145   2.112   4.514  12.170  0.1507  0.3242 -0.4950
  929MOL0     H28146   2.048   4.664  12.238 -2.0731  1.5144 -0.5899
  929MOL0     H28147   1.905   4.508  12.329 -1.7492 -0.8529  0.1920
  929MOL0     H28148   1.908   4.398  12.193 -2.8292 -0.5486 -0.6017
  929MOL0     H28149   1.758   4.660  12.205  3.0833 -0.4642  2.1994
  929MOL0     H28150   1.741   4.529  12.084  0.5012  0.5382 -0.3282
  929MOL0     H28151   1.702   4.262  12.251  0.1821  0.2633 -0.5296
  929MOL0     H28152   1.528   4.125  12.358  1.6203 -0.7315 -3.4521
  929MOL0     H28153   1.401   4.188  12.254 -1.8360 -0.0321  1.7906
  929MOL0     H28154   1.415   4.204  12.554 -0.7130 -1.3245  1.0231
  929MOL0     H28155   1.278   4.273  12.453 -1.5625 -0.5354  1.4655
  929MOL0     H28156   1.213   4.065  12.544  2.1237  2.0900  1.9653
  929MOL0     H28157   1.239   4.040  12.367  0.9632  0.2170 -0.7041
  929MOL0     H28158   1.445   3.907  12.400 -2.3471 -0.6284 -2.5452
  929MOL0     H28159   1.453   3.936  12.561  0.2363 -0.6458 -0.2860
  929MOL0     H28160   1.414   3.600  12.575 -2.5876  3.0341  0.3250
  929MOL0     H28161   1.566   3.310  12.401 -2.7285  0.2290 -3.9982
  929MOL0     H28162   1.439   3.320  12.518 -1.7508  3.0785  0.6932
  929MOL0     H28163   1.575   3.445  12.516  1.1043 -1.8802  0.7264
  929MOL0     H28164   1.608   3.159  12.023  0.1759 -1.1227  0.5187
  929MOL0     H28165   1.530   2.975  11.854  1.6279  1.7471  0.5345
  929MOL0     H28166   1.363   2.860  11.700  2.3080 -0.6112 -1.3467
  929MOL0     H28167   1.472   2.783  11.801 -0.1672 -0.6527 -2.8474
  929MOL0     H28168   1.324   2.581  11.823  0.9423  2.4389  1.3584
  929MOL0     H28169   1.223   2.662  11.693  0.5796  0.9737 -0.6321
  929MOL0     H28170   1.514   2.600  11.650 -0.1026 -0.3507 -2.8220
  929MOL0     H28171   1.382   2.619  11.536 -0.6444  0.3804 -0.2613
  929MOL0     H28172   1.285   2.406  11.630  0.1975 -1.5288 -0.2884
  929MOL0     H28173   1.442   2.357  11.696  1.9990  0.6175 -0.1154
  929MOL0     H28174   1.405   2.438  11.410  0.6145  1.2321  0.1147
  929MOL0     H28175   1.565   2.393  11.485 -0.1925 -0.2601  2.7364
  929MOL0     H28176   1.359   2.188  11.529 -1.9272 -0.7315 -2.5080
  929MOL0     H28177   1.527   2.166  11.482  1.0835  0.7252 -0.9414
  929MOL0     H28178   1.500   2.167  11.255 -0.9349 -0.2257  0.1102
  929MOL0     H28179   1.371   2.280  11.257 -0.8227 -0.8801 -2.3181
  929MOL0     H28180   1.291   2.091  11.174 -1.4976 -1.2283 -0.4485
  929MOL0     H28181   1.210   2.141  11.329  0.4574  3.6223 -2.9060
  929MOL0     H28182   1.202   2.907  12.112 -0.4814  0.4034 -1.4754
  929MOL0     H28183   1.268   3.085  12.271  0.4358  2.0682  0.9545
  929MOL0     H28184   1.280   3.601  12.103 -0.8340  0.7562 -0.5203
  929MOL0     H28185   1.216   3.784  12.253  2.1349  0.7219  0.1538
  929MOL0     H28186   2.324   4.746  11.366  1.1620  2.0455 -2.0482
  929MOL0     H28187   2.261   4.742  11.126 -2.1419 -0.5569 -1.2629
  929MOL0     H28188   2.093   4.752  10.760 -3.7645 -2.1383 -2.9703
  929MOL0     H28189   2.147   4.788  10.523  1.8982 -0.3653  1.5666
  929MOL0     H28190   2.243   5.142  10.430 -0.7528  0.1826 -0.0051
  929MOL0     H28191   2.263   5.065  10.275  1.2202 -0.0528  0.9070
  929MOL0     H28192   2.144   5.295  10.281  1.1000  0.0996  1.5570
  929MOL0     H28193   2.001   5.209  10.328 -1.1033 -0.1113 -2.0391
  929MOL0     H28194   2.154   5.131  10.082 -1.0329 -3.6490  0.3505
  929MOL0     H28195   2.015   5.050  10.129  1.2351  0.5231 -1.6730
  929MOL0     H28196   1.883   5.271  10.123  1.7397  1.1100  1.0182
  929MOL0     H28197   1.928   5.214   9.967 -1.3842  0.9138 -0.3410
  929MOL0     H28198   2.138   5.572   9.973 -0.1325  1.0461  2.1911
  929MOL0     H28199   1.979   5.179  10.530  3.6572  0.0454 -2.6422
  929MOL0     H28200   1.814   5.160  10.838  0.5622 -0.6828  2.6347
  929MOL0     H28201   1.970   5.220  10.866 -0.3352 -1.7189 -0.3516
  929MOL0     H28202   1.900   5.263  10.709  0.8192 -0.6022 -0.1645
  930MOL0     O28203   9.863  11.412   7.033  0.7762 -0.7776 -0.4868
  930MOL0     C28204   9.864  11.386   6.913 -0.3832 -0.3888  0.5447
  930MOL0     O28205   9.765  11.323   6.846  0.2442 -0.3537 -0.0356
  930MOL0     C28206   9.648  11.296   6.915 -0.3599  0.3280 -0.3975
  930MOL0     C28207   9.536  11.323   6.839 -0.0954 -0.1091  0.0272
  930MOL0     C28208   9.410  11.302   6.895  0.2676  0.2933  0.4190
  930MOL0     C28209   9.400  11.236   7.020 -0.1509  0.5375  0.5096
  930MOL0     O28210   9.282  11.199   7.080  0.1616  0.3601  0.1896
  930MOL0     C28211   9.156  11.196   7.009  0.0324  1.0836  0.7107
  930MOL0     C28212   9.059  11.127   7.102 -1.0110  0.7935 -0.2379
  930MOL0     C28213   8.914  11.174   7.077  1.0082 -0.0751 -0.2059
  930MOL0     C28214   8.816  11.109   7.172 -0.8917 -0.4837  0.4277
  930MOL0     C28215   8.670  11.162   7.144 -0.3355  0.7680  0.0189
  930MOL0     C28216   8.589  11.139   7.277 -0.1730  0.1424 -0.3530
  930MOL0     C28217   8.446  11.174   7.270  0.0740  0.2924  0.2271
  930MOL0     C28218   8.381  11.146   7.407 -1.1065  0.3833 -0.1051
  930MOL0     N28219   8.240  11.178   7.394 -0.8194  0.0536  0.5061
  930MOL0     C28220   8.137  11.091   7.350 -0.6635 -0.2467 -0.4168
  930MOL0     C28221   8.029  11.169   7.360 -0.3670  0.6103  0.6954
  930MOL0     C28222   7.896  11.135   7.290 -0.5061  0.2156 -0.9248
  930MOL0     C28223   7.774  11.117   7.379 -0.0518  0.8973 -0.5569
  930MOL0     C28224   7.640  11.106   7.298 -0.2756 -0.3455  0.2104
  930MOL0     C28225   7.505  11.081   7.368 -0.7122 -0.5484  0.3748
  930MOL0     O28226   7.495  11.180   7.469  0.0872 -0.2667  0.4364
  930MOL0     C28227   7.379  11.209   7.539 -0.3411 -0.1333  0.6848
  930MOL0     C28228   7.264  11.137   7.526  1.0726  0.9318  0.1168
  930MOL0     C28229   7.141  11.157   7.591 -0.4448  0.4521  0.1961
  930MOL0     C28230   7.026  11.069   7.543  0.2862  0.3280 -0.8445
  930MOL0     C28231   7.132  11.252   7.692 -0.6070 -0.5144 -0.4324
  930MOL0     C28232   7.010  11.280   7.780 -1.4196 -0.8031 -0.3028
  930MOL0     O28233   7.039  11.347   7.900  0.0234  0.8912 -0.6656
  930MOL0     C28234   6.933  11.382   7.985  0.6281 -0.0930  0.3524
  930MOL0     C28235   6.894  11.517   7.985 -0.2386 -0.0472  0.4750
  930MOL0     C28236   6.792  11.555   8.084 -1.6640  0.2966  0.0336
  930MOL0     C28237   6.717  11.461   8.159 -0.2623  0.5839  0.6839
  930MOL0     O28238   6.607  11.504   8.224  0.5515  0.1668 -0.1300
  930MOL0     C28239   6.619  11.469   8.358 -0.0763 -0.1493  0.1906
  930MOL0     C28240   6.493  11.515   8.423 -0.1663 -0.4989 -0.6891
  930MOL0     C28241   6.371  11.442   8.359 -1.3834  0.1778  0.4790
  930MOL0     C28242   6.240  11.499   8.392 -0.2081  0.4985 -0.7657
  930MOL0     C28243   6.115  11.445   8.316 -0.5120 -0.9204 -0.3807
  930MOL0     C28244   6.094  11.289   8.310 -0.6471  0.2098  1.7188
  930MOL0     C28245   5.950  11.262   8.277  0.7612  0.2663 -0.2244
  930MOL0     C28246   5.941  11.114   8.246 -0.3176 -0.7861  0.4135
  930MOL0    Cl28247   6.008  11.010   8.379 -0.1697  0.4845 -0.3959
  930MOL0     C28248   6.760  11.325   8.145 -1.2451  0.3045 -0.6794
  930MOL0     C28249   6.875  11.285   8.070 -0.0858  0.1692  0.5075
  930MOL0     O28250   6.905  11.227   7.758  0.2182  0.0089  0.0437
  930MOL0     C28251   7.245  11.335   7.713 -0.2743  0.8222  0.8536
  930MOL0     C28252   7.362  11.317   7.627  0.4752 -0.1019 -0.3756
  930MOL0     N28253   8.057  11.288   7.416 -0.7688 -0.2135 -0.0134
  930MOL0     N28254   8.186  11.297   7.416  0.1181  0.5074  0.3242
  930MOL0     C28255   9.523  11.204   7.088  0.5765  0.1001  0.3430
  930MOL0     C28256   9.645  11.228   7.037 -0.3969 -0.2179 -0.5233
  930MOL0     C28257   9.980  11.419   6.832  1.1248  0.1565  0.6716
  930MOL0     C28258   9.965  11.451   6.700  0.3132 -0.2547 -1.2432
  930MOL0     C28259  10.076  11.463   6.611  0.4814 -0.2726  0.2115
  930MOL0     C28260  10.212  11.458   6.649 -0.1113 -0.2307 -0.8189
  930MOL0     O28261  10.312  11.479   6.551  0.6337 -0.1890 -0.0348
  930MOL0     C28262  10.436  11.513   6.604  0.5660  0.5952 -0.7055
  930MOL0     C28263  10.527  11.559   6.494  0.1579 -0.9374  0.2107
  930MOL0     C28264  10.652  11.631   6.552 -0.4278 -0.5177 -0.2567
  930MOL0     C28265  10.741  11.531   6.617  0.4682  0.4343  0.4535
  930MOL0     C28266  10.881  11.584   6.627 -0.3549  0.3697  0.6647
  930MOL0     C28267  10.995  11.625   6.654 -1.0567  0.4223 -0.0806
  930MOL0     C28268  10.226  11.424   6.792 -0.4317  0.0959  0.0261
  930MOL0     C28269  10.110  11.412   6.886 -0.5982 -0.1687 -0.7209
  930MOL0     C28270  10.142  11.364   7.024 -0.0997 -0.6375  0.0950
  930MOL0     H28271   9.550  11.369   6.741  4.0968  1.7090  1.2582
  930MOL0     H28272   9.318  11.326   6.842  0.0597  0.1317  0.7084
  930MOL0     H28273   9.146  11.152   6.909 -0.5317 -0.0019  1.2250
  930MOL0     H28274   9.124  11.300   6.996  4.3802  2.8386  2.4063
  930MOL0     H28275   9.071  11.019   7.089  1.9327  1.0339 -0.0267
  930MOL0     H28276   9.090  11.152   7.204  1.2888 -2.0449 -0.1420
  930MOL0     H28277   8.906  11.283   7.077 -5.1766 -0.2147  0.0548
  930MOL0     H28278   8.874  11.152   6.978 -0.1412 -2.7203  0.7620
  930MOL0     H28279   8.826  11.000   7.164 -0.5509 -0.3949 -0.5249
  930MOL0     H28280   8.845  11.137   7.274 -2.3249 -1.7575  1.2314
  930MOL0     H28281   8.626  11.109   7.059  0.3564  0.7863 -0.3510
  930MOL0     H28282   8.662  11.270   7.123 -0.7828  0.6550 -0.4376
  930MOL0     H28283   8.584  11.033   7.303 -2.3180  0.4850  0.8752
  930MOL0     H28284   8.639  11.189   7.360  3.0788 -1.7901 -0.9914
  930MOL0     H28285   8.395  11.114   7.194  2.8269 -0.7247 -0.9518
  930MOL0     H28286   8.435  11.281   7.249 -0.9703 -0.1817 -1.8766
  930MOL0     H28287   8.398  11.038   7.422  1.4273  0.7779  0.3326
  930MOL0     H28288   8.427  11.204   7.487 -0.9477 -0.4327  0.4098
  930MOL0     H28289   8.159  10.992   7.311  3.6269  0.3978 -0.1424
  930MOL0     H28290   7.907  11.044   7.231  1.8758 -0.0209 -0.2242
  930MOL0     H28291   7.874  11.218   7.223  1.3475  0.4927 -1.2309
  930MOL0     H28292   7.783  11.020   7.430 -0.6175 -0.0301 -2.1308
  930MOL0     H28293   7.757  11.203   7.444  1.9003  1.3975 -0.6546
  930MOL0     H28294   7.625  11.201   7.247  0.4658 -1.1342 -1.5563
  930MOL0     H28295   7.645  11.031   7.219 -5.7676 -0.7282 -0.1468
  930MOL0     H28296   7.430  11.086   7.289  0.6112  0.0042 -0.9047
  930MOL0     H28297   7.515  10.983   7.415 -2.5138 -0.7654  0.3414
  930MOL0     H28298   7.259  11.053   7.457  1.4619 -0.3723  1.6206
  930MOL0     H28299   6.935  11.129   7.529  0.4239  0.2535 -2.1772
  930MOL0     H28300   7.002  10.987   7.611  2.0180  0.3512 -0.1852
  930MOL0     H28301   7.050  11.025   7.446  3.9396  0.1315  0.0265
  930MOL0     H28302   6.947  11.582   7.916  0.3975 -1.8708 -0.8341
  930MOL0     H28303   6.772  11.662   8.079 -0.5543  0.5072 -0.0286
  930MOL0     H28304   6.630  11.362   8.378  0.4074  0.1060  1.3918
  930MOL0     H28305   6.700  11.525   8.407 -1.2720  0.4752  1.5260
  930MOL0     H28306   6.498  11.491   8.530  7.1202 -0.5022 -0.5649
  930MOL0     H28307   6.478  11.623   8.425 -1.0894 -0.6197  0.8287
  930MOL0     H28308   6.357  11.335   8.377 -0.3991 -0.4320 -1.9333
  930MOL0     H28309   6.384  11.450   8.251  1.7358 -1.7765  0.5813
  930MOL0     H28310   6.241  11.609   8.388 -3.0375  0.5435 -3.1837
  930MOL0     H28311   6.212  11.473   8.495 -2.2224  0.6198 -1.2514
  930MOL0     H28312   6.031  11.479   8.378 -2.0603 -1.2148 -2.2101
  930MOL0     H28313   6.110  11.488   8.215  0.9183 -2.6311 -1.2372
  930MOL0     H28314   6.122  11.245   8.407 -0.3294 -1.1867  1.0119
  930MOL0     H28315   6.162  11.256   8.231 -0.9377  1.0453  1.1015
  930MOL0     H28316   5.918  11.326   8.195  0.0084 -0.7325 -0.7311
  930MOL0     H28317   5.891  11.284   8.367 -0.1798 -3.8530  0.3929
  930MOL0     H28318   6.004  11.094   8.159 -1.0298 -0.1820 -0.2511
  930MOL0     H28319   5.841  11.084   8.215  0.2596 -3.3754  0.7805
  930MOL0     H28320   6.700  11.247   8.193  2.0572 -1.5216  0.8206
  930MOL0     H28321   6.901  11.181   8.053  0.4807  0.3236  0.4110
  930MOL0     H28322   7.259  11.399   7.801 -0.0074 -2.3350  3.2798
  930MOL0     H28323   7.447  11.382   7.646 -1.4596  1.3418  5.1958
  930MOL0     H28324   9.523  11.136   7.172 -0.8147  0.9775  1.0920
  930MOL0     H28325   9.741  11.188   7.067 -0.4282 -0.2794 -0.5045
  930MOL0     H28326   9.866  11.445   6.656  0.0768  1.9674 -1.1238
  930MOL0     H28327  10.048  11.479   6.507 -0.0846 -0.5049  0.3228
  930MOL0     H28328  10.407  11.586   6.680 -0.6034  0.4009 -0.9487
  930MOL0     H28329  10.479  11.424   6.651  0.3856  1.8681  2.0796
  930MOL0     H28330  10.472  11.628   6.431 -3.1598 -1.4729  2.2892
  930MOL0     H28331  10.561  11.479   6.427  2.1302 -1.0416  1.2603
  930MOL0     H28332  10.687  11.699   6.474  1.8511  0.9533  1.9166
  930MOL0     H28333  10.631  11.703   6.632 -0.0050 -0.9121  0.2227
  930MOL0     H28334  10.730  11.446   6.549 -0.4577  2.4868 -2.1704
  930MOL0     H28335  10.708  11.495   6.714 -3.5664 -0.6961 -1.1500
  930MOL0     H28336  11.095  11.661   6.666 -0.7014 -0.5943  0.1380
  930MOL0     H28337  10.323  11.419   6.840  0.3406  4.4179 -0.6095
  930MOL0     H28338  10.250  11.347   7.031  0.0458  0.5630  1.1931
  930MOL0     H28339  10.126  11.451   7.088  0.4852 -0.4516 -0.0013
  930MOL0     H28340  10.094  11.273   7.062 -0.8862 -0.1256  0.3333
  931MOL0     O28341   1.565   0.299   6.018 -0.5947  0.2970  0.0268
  931MOL0     C28342   1.607   0.211   6.088 -0.1627 -0.5040 -0.2395
  931MOL0     O28343   1.538   0.159   6.196  0.4720 -0.5728 -0.9942
  931MOL0     C28344   1.398   0.149   6.206  0.0257 -0.4421 -0.7920
  931MOL0     C28345   1.317   0.146   6.092  0.1755  0.0634 -0.6827
  931MOL0     C28346   1.175   0.144   6.107 -0.2422  0.6357 -0.5293
  931MOL0     C28347   1.115   0.116   6.232 -0.4428 -0.6813 -0.4902
  931MOL0     O28348   0.982   0.089   6.238  0.0701 -0.1144 -0.5373
  931MOL0     C28349   0.913   0.168   6.338 -0.7210  0.4687 -0.1412
  931MOL0     C28350   0.762   0.152   6.320 -0.3164 -0.7558  0.3640
  931MOL0     C28351   0.720   0.164   6.171 -0.4093 -0.4405  0.2143
  931MOL0     C28352   0.568   0.181   6.141  1.3660 -0.3854  0.7458
  931MOL0     C28353   0.504   0.299   6.217  0.6790 -0.3787 -0.3430
  931MOL0     C28354   0.346   0.304   6.208 -0.4949 -0.4040 -0.2105
  931MOL0     C28355   0.279   0.351   6.342 -0.7284  0.4195 -0.0715
  931MOL0     C28356   0.126   0.350   6.343 -0.7275 -0.4091 -0.5681
  931MOL0     N28357   0.083   0.489   6.309 -0.1505  0.3560  0.1961
  931MOL0     C28358   0.052   0.586   6.395  1.0738  0.4395 -0.6440
  931MOL0     C28359   0.043   0.701   6.318 -0.1138 -0.6953 -0.4528
  931MOL0     C28360   0.011   0.844   6.373  0.4385  1.4417 -0.7241
  931MOL0     C28361   0.053   0.867   6.511 -0.9961 -0.2797 -0.6822
  931MOL0     C28362   0.016   1.001   6.553  0.5634  0.2140  0.8730
  931MOL0     C28363   0.096   1.047   6.677  0.4027 -0.0844  0.1474
  931MOL0     O28364   0.055   0.973   6.795  0.8494 -1.1021  0.0231
  931MOL0     C28365   0.125   0.994   6.912  1.0909  0.5404  0.2529
  931MOL0     C28366   0.236   1.074   6.926  0.0187 -0.6181  0.5642
  931MOL0     C28367   0.302   1.089   7.049  0.3075  0.3111 -0.0601
  931MOL0     C28368   0.423   1.184   7.041 -0.6245 -0.0001  0.5377
  931MOL0     C28369   0.253   1.016   7.165  0.2955  0.8066 -0.1396
  931MOL0     C28370   0.320   1.036   7.300  1.2730 -0.3532 -1.0902
  931MOL0     O28371   0.235   1.031   7.409 -0.6722  0.6811  0.1073
  931MOL0     C28372   0.293   1.080   7.521 -0.4649  0.7467  0.2913
  931MOL0     C28373   0.348   0.992   7.623 -0.4493  0.3059 -0.9083
  931MOL0     C28374   0.391   1.048   7.745 -0.5095 -0.0990  0.5796
  931MOL0     C28375   0.410   1.179   7.763  0.0635  0.8079 -0.2889
  931MOL0     O28376   0.459   1.232   7.876  0.1714  0.4908  0.7113
  931MOL0     C28377   0.570   1.179   7.946  0.1627  0.5568  0.2259
  931MOL0     C28378   0.545   1.175   8.098  0.3819  0.1650  0.7050
  931MOL0     C28379   0.415   1.099   8.130  0.2748 -0.0853  0.4940
  931MOL0     C28380   0.414   1.070   8.289  0.8543 -0.7616  1.3950
  931MOL0     C28381   0.285   0.994   8.333 -0.0961  0.5782  0.0067
  931MOL0     C28382   0.273   0.998   8.486 -0.1632  0.5792 -0.4103
  931MOL0     C28383   0.135   0.965   8.525  0.1780  0.0343  1.5639
  931MOL0     C28384   0.116   0.943   8.678 -0.3881 -0.0129  0.9582
  931MOL0    Cl28385   0.184   0.789   8.717 -0.0055  0.2231  0.1096
  931MOL0     C28386   0.374   1.268   7.655  0.8341  0.5096 -0.1792
  931MOL0     C28387   0.314   1.220   7.540 -0.3607  0.4771  0.8160
  931MOL0     O28388   0.439   1.055   7.304 -0.1678 -0.2119 -0.3422
  931MOL0     C28389   0.138   0.938   7.149  0.8323  0.1906  0.0055
  931MOL0     C28390   0.073   0.933   7.023 -0.3543 -0.5058  0.0519
  931MOL0     N28391   0.069   0.668   6.189  0.7643  0.3389  0.2606
  931MOL0     N28392   0.083   0.543   6.181  0.0345 -0.1548 -0.0878
  931MOL0     C28393   1.197   0.111   6.343 -0.1543  0.5194 -0.4118
  931MOL0     C28394   1.331   0.140   6.329 -0.1766  0.5170 -0.4888
  931MOL0     C28395   1.751   0.157   6.077  1.4113 -0.5014 -0.0460
  931MOL0     C28396   1.803   0.079   6.183  0.5135 -0.5075  0.9416
  931MOL0     C28397   1.943   0.035   6.171 -0.3425 -0.2286 -1.1825
  931MOL0     C28398   2.021   0.080   6.069 -0.0700 -0.1426  0.0114
  931MOL0     O28399   2.158   0.061   6.050  0.2792  0.1201 -0.3294
  931MOL0     C28400   2.226   0.001   6.164  0.2135  0.3927 -0.1208
  931MOL0     C28401   2.366  -0.006   6.107 -0.1268  0.3493 -0.2934
  931MOL0     C28402   2.461  -0.057   6.214 -0.0470 -0.0762 -0.3401
  931MOL0     C28403   2.600  -0.033   6.170 -0.5032  0.4876 -0.3458
  931MOL0     C28404   2.706  -0.039   6.276 -0.4687  0.1974 -0.2006
  931MOL0     C28405   2.792  -0.040   6.361  0.0009 -0.2024  0.6991
  931MOL0     C28406   1.958   0.156   5.976 -0.0192 -0.0402  0.3590
  931MOL0     C28407   1.830   0.183   5.967  0.3536 -0.7186 -0.8840
  931MOL0     C28408   1.785   0.267   5.844  0.6143  0.6853 -0.0472
  931MOL0     H28409   1.354   0.167   5.992  3.1795 -2.5576 -0.2714
  931MOL0     H28410   1.116   0.144   6.016 -0.8543 -0.7007 -0.1605
  931MOL0     H28411   0.934   0.274   6.327  2.1258  0.1271  1.1505
  931MOL0     H28412   0.948   0.127   6.433  0.1101  0.3918 -0.4731
  931MOL0     H28413   0.733   0.055   6.361  0.1194 -0.6939  0.8160
  931MOL0     H28414   0.725   0.236   6.380  0.2774 -0.2039 -0.0181
  931MOL0     H28415   0.770   0.250   6.125  0.9971 -2.0386 -1.3701
  931MOL0     H28416   0.764   0.089   6.105 -0.0773  1.1593 -1.4909
  931MOL0     H28417   0.557   0.188   6.033  0.4257  0.8956  0.9049
  931MOL0     H28418   0.512   0.092   6.170 -1.3497  0.4108 -1.6728
  931MOL0     H28419   0.553   0.390   6.180  0.6267 -0.1572  0.1320
  931MOL0     H28420   0.514   0.280   6.324 -2.2500  2.2048  0.5316
  931MOL0     H28421   0.315   0.367   6.124  0.4144 -1.3797 -1.3215
  931MOL0     H28422   0.305   0.207   6.180  3.2123 -1.7265 -1.7355
  931MOL0     H28423   0.315   0.448   6.376 -1.4742  0.7934 -0.3226
  931MOL0     H28424   0.321   0.281   6.415 -0.9533 -0.3058 -0.6223
  931MOL0     H28425   0.087   0.262   6.291 -0.8848 -1.6356  1.5230
  931MOL0     H28426   0.103   0.346   6.450  2.3511  1.7419  0.3151
  931MOL0     H28427   0.029   0.574   6.500  1.8185  1.1413 -0.3981
  931MOL0     H28428  -0.097   0.860   6.366 -0.0477 -1.2177 -0.3286
  931MOL0     H28429   0.058   0.923   6.314  3.1693  1.1862  0.9650
  931MOL0     H28430   0.012   0.785   6.572  3.9909 -1.2316  1.9411
  931MOL0     H28431   0.161   0.847   6.517 -0.6826  1.4113 -0.2600
  931MOL0     H28432   0.026   1.072   6.470 -1.2317 -1.3267 -0.7633
  931MOL0     H28433  -0.090   1.002   6.577 -0.2653  2.0145 -2.3203
  931MOL0     H28434   0.202   1.038   6.652  0.4298 -0.0635  0.2544
  931MOL0     H28435   0.084   1.154   6.700 -0.3274  0.0451 -0.7875
  931MOL0     H28436   0.279   1.128   6.843  0.1556 -0.3197  0.8262
  931MOL0     H28437   0.437   1.224   6.940  0.6425 -2.0322 -0.1588
  931MOL0     H28438   0.509   1.119   7.061  0.5563  0.5483 -2.2702
  931MOL0     H28439   0.419   1.266   7.113 -0.6794  0.0988  0.4219
  931MOL0     H28440   0.340   0.885   7.606  1.7288 -0.6394  2.8667
  931MOL0     H28441   0.413   0.973   7.820 -0.1186 -1.2709 -0.6618
  931MOL0     H28442   0.601   1.083   7.903 -3.7715 -1.6356  1.8231
  931MOL0     H28443   0.653   1.249   7.933 -0.8323  2.1831  2.1283
  931MOL0     H28444   0.626   1.127   8.154  0.8147 -2.0014 -1.6302
  931MOL0     H28445   0.559   1.277   8.136  3.0767 -0.3590  1.3349
  931MOL0     H28446   0.421   1.008   8.069 -1.6223 -0.4292  0.7617
  931MOL0     H28447   0.331   1.157   8.091  0.1860  0.0339  0.8566
  931MOL0     H28448   0.418   1.167   8.340  0.0251 -1.3706  2.6693
  931MOL0     H28449   0.503   1.015   8.318  1.1393 -0.7293  0.5945
  931MOL0     H28450   0.202   1.047   8.285 -2.8282 -0.3082  3.3447
  931MOL0     H28451   0.287   0.892   8.293  0.2765  0.1871  0.9881
  931MOL0     H28452   0.292   1.097   8.529  1.0236  0.1026  0.2098
  931MOL0     H28453   0.349   0.934   8.532 -0.8491  1.6682  2.4681
  931MOL0     H28454   0.106   0.874   8.472  1.6570 -0.1780  1.0709
  931MOL0     H28455   0.068   1.045   8.493  2.3180  0.8039 -1.4294
  931MOL0     H28456   0.010   0.962   8.697 -1.3365 -2.6580 -1.0229
  931MOL0     H28457   0.171   1.022   8.728  0.3513  1.2094 -1.6118
  931MOL0     H28458   0.389   1.373   7.675  0.8399  0.7745 -1.5209
  931MOL0     H28459   0.289   1.284   7.456  2.9549 -2.1599 -2.5548
  931MOL0     H28460   0.097   0.883   7.234  3.3013 -2.4313 -0.3335
  931MOL0     H28461  -0.025   0.889   7.009 -0.6686 -0.0678  0.8486
  931MOL0     H28462   1.167   0.073   6.441 -0.3244 -1.6132 -1.2459
  931MOL0     H28463   1.402   0.115   6.407 -1.3872  1.2500  0.8971
  931MOL0     H28464   1.746   0.063   6.274  1.6691  0.4114  1.8512
  931MOL0     H28465   1.983  -0.027   6.251 -2.6517 -1.2130 -0.6858
  931MOL0     H28466   2.218   0.063   6.254  0.8978  1.5446 -0.8248
  931MOL0     H28467   2.175  -0.095   6.178 -0.9233  1.0307  0.2510
  931MOL0     H28468   2.399   0.095   6.078  1.8653  0.6425  2.5161
  931MOL0     H28469   2.374  -0.074   6.022  0.3179 -0.2699  0.2340
  931MOL0     H28470   2.448  -0.004   6.309 -0.5903 -1.8542  0.6124
  931MOL0     H28471   2.449  -0.160   6.248 -0.0228  0.5391  1.7006
  931MOL0     H28472   2.614   0.059   6.113  0.0092  0.9825  0.5614
  931MOL0     H28473   2.607  -0.112   6.095 -0.2855 -1.1966  1.3745
  931MOL0     H28474   2.866  -0.054   6.438  2.5688  2.5439 -1.0670
  931MOL0     H28475   2.020   0.193   5.895 -2.3741 -4.8167 -4.2265
  931MOL0     H28476   1.683   0.239   5.815  0.4875 -0.3580  1.3228
  931MOL0     H28477   1.772   0.370   5.880 -2.2577  0.1979  0.5853
  931MOL0     H28478   1.857   0.253   5.763 -0.6044 -0.6455 -0.9535
  932MOL0     O28479   2.130   5.390   3.786 -0.0215  0.5189 -0.1056
  932MOL0     C28480   2.099   5.448   3.684  0.9927  1.0675  0.4347
  932MOL0     O28481   2.104   5.580   3.656  0.0120  0.3563 -0.1536
  932MOL0     C28482   2.175   5.670   3.740 -0.2433  0.5249  1.2097
  932MOL0     C28483   2.235   5.646   3.866 -0.7934  0.4635 -0.3014
  932MOL0     C28484   2.307   5.753   3.921 -0.6456 -0.0860  0.2638
  932MOL0     C28485   2.322   5.878   3.861 -0.2823 -0.2104 -0.1561
  932MOL0     O28486   2.393   5.980   3.920  0.1991 -0.0472 -0.6605
  932MOL0     C28487   2.431   6.091   3.848 -0.7781 -0.9536 -0.8473
  932MOL0     C28488   2.515   6.182   3.940  1.0780 -0.0269  0.4368
  932MOL0     C28489   2.635   6.117   3.987  0.0832 -0.5043 -0.4678
  932MOL0     C28490   2.708   6.220   4.077  0.8386 -0.8489  0.1850
  932MOL0     C28491   2.795   6.149   4.184 -0.9618  0.2846  0.6096
  932MOL0     C28492   2.927   6.104   4.119 -0.2741 -0.5101 -0.1570
  932MOL0     C28493   3.043   6.082   4.225  0.1101  0.1675 -0.6554
  932MOL0     C28494   3.165   6.044   4.156 -0.3185 -0.4198  0.0467
  932MOL0     N28495   3.275   6.003   4.247  0.1138  0.4838  0.5776
  932MOL0     C28496   3.412   5.989   4.224 -0.6299 -0.0207  0.5786
  932MOL0     C28497   3.465   5.962   4.344 -0.5171 -0.6284 -0.7694
  932MOL0     C28498   3.607   5.955   4.367 -0.6255  0.2172  0.2425
  932MOL0     C28499   3.672   5.988   4.503  0.5260 -1.3554  0.4468
  932MOL0     C28500   3.656   5.889   4.627  0.4041  0.1338 -0.3104
  932MOL0     C28501   3.686   5.963   4.750 -1.1132  0.5847 -0.5199
  932MOL0     O28502   3.808   6.041   4.740 -0.1324  0.0880  0.3409
  932MOL0     C28503   3.896   6.043   4.849  0.0890  0.2163 -0.5042
  932MOL0     C28504   3.843   6.052   4.976  0.2773 -0.1599  1.3062
  932MOL0     C28505   3.924   6.062   5.086  1.5750 -0.3034 -0.3074
  932MOL0     C28506   3.852   6.065   5.223 -0.7085 -0.4231  0.1816
  932MOL0     C28507   4.060   6.079   5.070  0.2449 -0.3095  0.6540
  932MOL0     C28508   4.156   6.101   5.183  0.0939  0.5515  0.4228
  932MOL0     O28509   4.114   6.170   5.298  0.2812 -0.0639 -0.3683
  932MOL0     C28510   4.179   6.163   5.418  0.1716 -0.0083 -0.2127
  932MOL0     C28511   4.120   6.244   5.521  0.4866  0.4908  0.1686
  932MOL0     C28512   4.162   6.244   5.650 -0.8750 -0.8922  0.3937
  932MOL0     C28513   4.280   6.189   5.690  0.8502 -0.4049 -0.4003
  932MOL0     O28514   4.310   6.198   5.823  0.1420 -0.0943  1.3103
  932MOL0     C28515   4.445   6.227   5.848  0.6035  0.1053  0.3754
  932MOL0     C28516   4.461   6.377   5.900 -0.3790  0.1930  0.0404
  932MOL0     C28517   4.609   6.417   5.897 -1.2265  0.4572  1.2638
  932MOL0     C28518   4.667   6.466   6.024  0.4247 -0.1192  0.2537
  932MOL0     C28519   4.597   6.592   6.063  0.3083 -0.1744 -0.0313
  932MOL0     C28520   4.645   6.632   6.197 -0.6438  0.2352 -0.3625
  932MOL0     C28521   4.582   6.767   6.251  0.0399 -0.3479 -0.8934
  932MOL0     C28522   4.646   6.807   6.377 -0.6705 -0.3044  0.5098
  932MOL0    Cl28523   4.580   6.707   6.526  0.2852 -0.6768 -0.0317
  932MOL0     C28524   4.344   6.107   5.599  0.3423 -0.2762 -0.9207
  932MOL0     C28525   4.292   6.093   5.464  0.6802 -0.2821 -0.9680
  932MOL0     O28526   4.268   6.053   5.169 -0.5945 -0.9811  0.9626
  932MOL0     C28527   4.113   6.079   4.944 -0.8211 -0.4410  0.0271
  932MOL0     C28528   4.035   6.054   4.837 -0.1118  0.3190  0.4309
  932MOL0     N28529   3.362   5.938   4.438 -0.4533  0.1464  0.0718
  932MOL0     N28530   3.255   5.968   4.376 -0.3768 -0.1856  0.1878
  932MOL0     C28531   2.245   5.898   3.748  0.4283 -1.1732  0.1522
  932MOL0     C28532   2.180   5.794   3.683  0.5576 -0.5920  0.5242
  932MOL0     C28533   2.050   5.362   3.575  0.9334 -0.7399 -0.3583
  932MOL0     C28534   1.959   5.413   3.485 -0.1140  0.0538  0.1327
  932MOL0     C28535   1.909   5.351   3.371  0.1008 -0.6505  0.5648
  932MOL0     C28536   1.944   5.217   3.353  0.6179 -0.6445  0.0843
  932MOL0     O28537   1.898   5.141   3.249  0.6467  0.3148  0.4562
  932MOL0     C28538   1.831   5.205   3.140 -0.7876  0.8846 -0.0311
  932MOL0     C28539   1.795   5.104   3.037  0.4373  0.3858 -0.5263
  932MOL0     C28540   1.719   4.983   3.095 -0.6702  0.4942  0.5670
  932MOL0     C28541   1.637   4.914   2.990 -0.4926  0.0269  0.8652
  932MOL0     C28542   1.563   4.791   3.029  0.0046  0.6551  0.0547
  932MOL0     C28543   1.503   4.690   3.053  0.2797  0.0107 -0.2973
  932MOL0     C28544   2.020   5.151   3.447 -0.9528  0.0824  0.8543
  932MOL0     C28545   2.071   5.224   3.556 -0.7454 -0.0605  0.2356
  932MOL0     C28546   2.171   5.140   3.633  0.3402 -0.2694  0.7881
  932MOL0     H28547   2.234   5.554   3.923 -0.0151  1.4510  1.4067
  932MOL0     H28548   2.360   5.738   4.015 -0.0502 -2.7048 -0.4032
  932MOL0     H28549   2.339   6.140   3.817 -1.2325 -2.5819 -2.1816
  932MOL0     H28550   2.494   6.060   3.764 -0.1173  0.8558 -1.0660
  932MOL0     H28551   2.545   6.270   3.881  0.2813  1.0931  1.6370
  932MOL0     H28552   2.447   6.202   4.024  0.6019 -3.4422  0.9976
  932MOL0     H28553   2.612   6.031   4.051  1.6139 -1.9742 -1.8088
  932MOL0     H28554   2.708   6.087   3.911  2.6435  1.3370  1.0716
  932MOL0     H28555   2.773   6.280   4.014 -0.2162 -1.5487 -1.6401
  932MOL0     H28556   2.636   6.283   4.129  1.1849  0.1241 -0.5011
  932MOL0     H28557   2.758   6.074   4.255 -0.0556  1.5200  2.4581
  932MOL0     H28558   2.813   6.238   4.245  1.3957  2.8449 -3.4212
  932MOL0     H28559   2.906   6.012   4.063  1.0134 -1.4848  0.9171
  932MOL0     H28560   2.963   6.177   4.046 -0.5245 -2.1300 -1.9803
  932MOL0     H28561   3.004   6.005   4.292 -2.1600  3.2018  1.7927
  932MOL0     H28562   3.067   6.166   4.291  1.1619 -1.5685  1.2699
  932MOL0     H28563   3.147   5.963   4.084  2.1546  0.1177 -1.3189
  932MOL0     H28564   3.193   6.133   4.099  0.0777 -0.6071 -0.0564
  932MOL0     H28565   3.471   6.015   4.137 -0.2533 -2.3064  0.0714
  932MOL0     H28566   3.655   6.026   4.299 -1.0428 -0.6010 -0.9470
  932MOL0     H28567   3.627   5.849   4.350  1.6084  0.4402  1.0866
  932MOL0     H28568   3.779   5.992   4.480  0.8633  0.4637  2.0939
  932MOL0     H28569   3.635   6.086   4.533  3.0824 -0.3882  0.7622
  932MOL0     H28570   3.558   5.845   4.647 -1.1253  2.5697 -1.9830
  932MOL0     H28571   3.717   5.801   4.603 -2.9257 -1.9253 -1.9335
  932MOL0     H28572   3.605   6.029   4.783 -1.6421 -0.8296  1.1172
  932MOL0     H28573   3.704   5.884   4.822  2.5855 -0.3283 -2.2265
  932MOL0     H28574   3.735   6.053   4.983  0.2458 -0.3374  0.8928
  932MOL0     H28575   3.858   5.967   5.270  0.5086  0.3462  1.7160
  932MOL0     H28576   3.746   6.086   5.202 -0.0619  1.9510 -1.0560
  932MOL0     H28577   3.889   6.146   5.286 -0.6530  2.1268 -2.8299
  932MOL0     H28578   4.016   6.269   5.502  0.9328  2.6444  0.3076
  932MOL0     H28579   4.104   6.292   5.727 -1.3674 -1.7145  0.5520
  932MOL0     H28580   4.475   6.164   5.932  1.1326 -0.0855  0.0525
  932MOL0     H28581   4.510   6.207   5.762  0.5558  0.7758  0.1730
  932MOL0     H28582   4.419   6.449   5.829 -0.2502  0.2091 -0.0177
  932MOL0     H28583   4.431   6.384   6.005  4.1723  2.7332  1.4601
  932MOL0     H28584   4.633   6.489   5.818 -1.1922 -1.1115 -0.1879
  932MOL0     H28585   4.674   6.334   5.869 -3.3502 -1.4347  1.6809
  932MOL0     H28586   4.772   6.475   5.997  0.1412 -0.1439 -0.9088
  932MOL0     H28587   4.661   6.387   6.100  1.7441 -0.6503 -0.1720
  932MOL0     H28588   4.623   6.674   5.995  1.6182  1.2789  2.0888
  932MOL0     H28589   4.491   6.569   6.076  0.7147 -0.8923  2.3726
  932MOL0     H28590   4.753   6.649   6.188 -0.8633  0.9353 -1.9828
  932MOL0     H28591   4.629   6.556   6.273  1.5720  1.8554  1.8746
  932MOL0     H28592   4.472   6.772   6.256 -0.0818 -1.0532 -2.3274
  932MOL0     H28593   4.608   6.841   6.175  0.3115 -2.8417 -3.3678
  932MOL0     H28594   4.628   6.914   6.386 -1.6416 -0.2733 -1.2115
  932MOL0     H28595   4.754   6.796   6.371 -0.4363  1.9438 -0.4785
  932MOL0     H28596   4.439   6.059   5.619  1.0401  0.9651 -1.1855
  932MOL0     H28597   4.352   6.017   5.415  2.0619  1.0377 -1.3923
  932MOL0     H28598   4.219   6.095   4.929 -0.9104  0.4622  0.3116
  932MOL0     H28599   4.065   6.044   4.733 -2.1998 -0.8130 -0.1161
  932MOL0     H28600   2.237   5.997   3.703 -1.5826 -1.1938  0.3675
  932MOL0     H28601   2.131   5.816   3.588 -0.1750  0.5138  1.1390
  932MOL0     H28602   1.939   5.519   3.499  0.2601  0.5607 -2.5719
  932MOL0     H28603   1.848   5.401   3.296  1.0936 -0.5165 -0.1934
  932MOL0     H28604   1.741   5.257   3.175 -0.3978  0.5985  1.4950
  932MOL0     H28605   1.901   5.278   3.100 -0.9898  3.8428  4.3376
  932MOL0     H28606   1.888   5.077   2.987 -0.6963 -0.7799 -2.1053
  932MOL0     H28607   1.734   5.156   2.962 -1.7063 -0.0028  0.8657
  932MOL0     H28608   1.795   4.912   3.130 -1.7030 -2.3562 -2.4613
  932MOL0     H28609   1.661   5.014   3.183  0.1464 -0.3225  1.4162
  932MOL0     H28610   1.689   4.897   2.896 -0.7662 -3.8728  1.2167
  932MOL0     H28611   1.548   4.962   2.950 -0.8103 -1.6371 -0.5348
  932MOL0     H28612   1.453   4.603   3.091  0.2812  0.3609  0.5333
  932MOL0     H28613   2.060   5.055   3.417 -0.8992  0.4232 -0.2033
  932MOL0     H28614   2.145   5.133   3.739  2.1355  2.6127  1.5495
  932MOL0     H28615   2.181   5.038   3.596  2.8964  0.1996 -0.0110
  932MOL0     H28616   2.276   5.169   3.621  0.6179 -0.9112  1.5574
  933MOL0     O28617   5.464   2.022   5.336 -0.2818 -0.4324  0.1840
  933MOL0     C28618   5.462   2.114   5.247 -0.8489  0.2708 -0.7521
  933MOL0     O28619   5.349   2.187   5.214 -0.3435 -0.0761 -0.3889
  933MOL0     C28620   5.239   2.202   5.291 -0.3066  0.1806 -0.2279
  933MOL0     C28621   5.221   2.166   5.425 -0.2257  0.7926  0.3566
  933MOL0     C28622   5.098   2.187   5.483  0.1833 -0.0173 -0.3968
  933MOL0     C28623   4.988   2.240   5.423 -0.5365  0.0285 -0.1450
  933MOL0     O28624   4.865   2.273   5.479  0.3187 -0.3661 -0.1531
  933MOL0     C28625   4.862   2.315   5.618 -0.0648  1.0385  0.3673
  933MOL0     C28626   4.725   2.387   5.650  0.1715 -0.8492 -0.3663
  933MOL0     C28627   4.727   2.499   5.750  0.2444 -0.3734 -0.4227
  933MOL0     C28628   4.576   2.529   5.779 -0.4082 -0.2400 -0.1450
  933MOL0     C28629   4.558   2.659   5.860 -0.6066 -0.7634  0.2819
  933MOL0     C28630   4.417   2.673   5.925 -0.2578  0.0651 -0.2343
  933MOL0     C28631   4.420   2.669   6.072  0.0315 -0.7483 -0.1758
  933MOL0     C28632   4.437   2.526   6.137  0.0713  0.1794 -0.2324
  933MOL0     N28633   4.580   2.482   6.143 -0.7564 -0.4031 -0.2693
  933MOL0     C28634   4.687   2.552   6.193  0.6482 -1.1625  0.5052
  933MOL0     C28635   4.788   2.468   6.185  0.0617  1.1735  0.3231
  933MOL0     C28636   4.930   2.489   6.235  0.3903  0.2921  0.8586
  933MOL0     C28637   5.001   2.356   6.271  1.3960 -0.6926 -0.0108
  933MOL0     C28638   4.910   2.283   6.384 -0.2694 -0.6432 -0.0803
  933MOL0     C28639   4.932   2.335   6.528 -0.9335 -0.8270 -0.0435
  933MOL0     O28640   4.906   2.478   6.559 -0.0757  0.0611  0.6634
  933MOL0     C28641   4.775   2.532   6.547 -0.7143 -0.3176 -0.1829
  933MOL0     C28642   4.773   2.670   6.503  0.3232  0.2166  0.9025
  933MOL0     C28643   4.651   2.729   6.471 -0.0065  0.4635 -0.6495
  933MOL0     C28644   4.671   2.867   6.412  0.2405  0.2698  0.2942
  933MOL0     C28645   4.528   2.661   6.490 -0.0214  0.4012 -0.2758
  933MOL0     C28646   4.392   2.716   6.467 -0.1667 -0.5663  0.5399
  933MOL0     O28647   4.288   2.644   6.505 -0.1064  0.1458 -0.7538
  933MOL0     C28648   4.168   2.713   6.527 -0.6672  0.7909 -0.0268
  933MOL0     C28649   4.167   2.801   6.640  0.7207  0.6815 -0.0484
  933MOL0     C28650   4.062   2.886   6.674  0.4320  0.1131  1.1823
  933MOL0     C28651   3.954   2.882   6.587  0.0628 -0.2525 -0.7232
  933MOL0     O28652   3.847   2.957   6.606 -0.1701 -0.0953 -0.3358
  933MOL0     C28653   3.854   3.078   6.533 -0.1449 -0.0829  0.5322
  933MOL0     C28654   3.873   3.177   6.649  0.4847  0.3985  0.7732
  933MOL0     C28655   3.749   3.210   6.725 -0.9632 -0.3539  1.0794
  933MOL0     C28656   3.646   3.307   6.662 -0.7266 -0.1863  0.2146
  933MOL0     C28657   3.520   3.351   6.742  0.7977  0.2726  0.3284
  933MOL0     C28658   3.400   3.254   6.714  0.1146 -0.4551  0.6562
  933MOL0     C28659   3.271   3.292   6.784  0.1041  0.8241  1.0816
  933MOL0     C28660   3.158   3.193   6.737  0.4856 -0.1191  0.2012
  933MOL0    Cl28661   2.999   3.266   6.771 -0.2326  0.3332 -0.2363
  933MOL0     C28662   3.945   2.798   6.473  0.3674 -0.7309 -0.2509
  933MOL0     C28663   4.054   2.710   6.445  0.3418 -0.4571  0.4473
  933MOL0     O28664   4.387   2.823   6.401  0.2224  0.3847  0.1444
  933MOL0     C28665   4.534   2.525   6.541  0.2174  0.1473 -0.6846
  933MOL0     C28666   4.657   2.455   6.551 -0.3608 -0.0202 -0.9197
  933MOL0     N28667   4.744   2.347   6.124  0.3024 -0.6609 -0.3540
  933MOL0     N28668   4.617   2.358   6.107  0.0240 -0.0962  0.6343
  933MOL0     C28669   5.005   2.258   5.282 -0.5253 -0.2418 -0.8983
  933MOL0     C28670   5.132   2.248   5.221 -0.3816 -0.4159 -0.1750
  933MOL0     C28671   5.588   2.143   5.167 -0.6011 -0.1082 -0.1175
  933MOL0     C28672   5.574   2.249   5.078  0.5501 -0.1317 -0.2724
  933MOL0     C28673   5.685   2.275   5.000  0.1922  0.6724  0.0499
  933MOL0     C28674   5.810   2.217   5.023 -0.3703 -0.2144 -0.0466
  933MOL0     O28675   5.924   2.245   4.957 -0.5968  0.5942  0.6507
  933MOL0     C28676   5.922   2.321   4.833  0.2196  0.4896 -0.3117
  933MOL0     C28677   5.994   2.234   4.731  0.4153  0.5830 -0.0584
  933MOL0     C28678   5.928   2.238   4.591  1.3871  0.0583 -0.6664
  933MOL0     C28679   6.008   2.171   4.482  0.1850 -0.6282 -0.1025
  933MOL0     C28680   6.135   2.241   4.457  0.4672  0.3590  0.7813
  933MOL0     C28681   6.238   2.298   4.439 -0.4485  0.1616 -0.4999
  933MOL0     C28682   5.820   2.122   5.124 -0.2596 -0.2271 -1.4766
  933MOL0     C28683   5.710   2.075   5.187 -0.4287 -0.2087  0.0696
  933MOL0     C28684   5.731   1.973   5.289  0.8975  0.0448 -0.0361
  933MOL0     H28685   5.307   2.124   5.476  0.5150  1.3545 -0.4052
  933MOL0     H28686   5.105   2.166   5.589 -0.6144  2.0120  0.1151
  933MOL0     H28687   4.952   2.372   5.642  1.2843 -0.9653  0.3239
  933MOL0     H28688   4.867   2.232   5.690 -0.0903  0.6705 -0.0471
  933MOL0     H28689   4.681   2.434   5.562 -0.8312 -0.7967  0.1531
  933MOL0     H28690   4.648   2.314   5.678 -0.2742  0.9504  3.8397
  933MOL0     H28691   4.781   2.468   5.839 -0.8070 -1.1373 -0.0394
  933MOL0     H28692   4.781   2.590   5.719  1.3644 -0.2223  1.7786
  933MOL0     H28693   4.511   2.528   5.691 -1.1713 -2.0674  0.3836
  933MOL0     H28694   4.547   2.452   5.852  1.5938  0.7080  1.7508
  933MOL0     H28695   4.576   2.733   5.781 -0.4549 -0.8171  0.2663
  933MOL0     H28696   4.644   2.672   5.927  0.2715  0.8631 -1.0893
  933MOL0     H28697   4.374   2.771   5.902 -2.7389  0.0063  3.2586
  933MOL0     H28698   4.354   2.596   5.880 -0.4229  1.0669 -1.7688
  933MOL0     H28699   4.323   2.698   6.112  0.0225  1.0642 -1.3897
  933MOL0     H28700   4.504   2.731   6.104  0.1775 -1.1376  0.2110
  933MOL0     H28701   4.388   2.539   6.234 -0.3046  1.5328 -0.5719
  933MOL0     H28702   4.375   2.447   6.095 -2.0646  0.7075  1.7169
  933MOL0     H28703   4.690   2.655   6.226 -1.3899 -1.0487  0.4550
  933MOL0     H28704   4.937   2.550   6.325 -0.4448 -1.0934  1.8995
  933MOL0     H28705   4.974   2.544   6.151 -1.9935  3.3965  1.4364
  933MOL0     H28706   5.018   2.285   6.191  0.7165 -4.3437  2.8086
  933MOL0     H28707   5.093   2.387   6.322  1.3579  2.1443 -1.4836
  933MOL0     H28708   4.807   2.273   6.349  0.6563  1.4433 -4.0240
  933MOL0     H28709   4.953   2.182   6.381  2.2342  0.3684 -0.9783
  933MOL0     H28710   4.908   2.275   6.616  3.8083 -0.8355  1.5400
  933MOL0     H28711   5.041   2.338   6.542 -1.3774  0.5210  4.8458
  933MOL0     H28712   4.872   2.711   6.487  0.3781 -0.9690 -2.6845
  933MOL0     H28713   4.772   2.909   6.399 -0.0944  0.8106 -0.6691
  933MOL0     H28714   4.616   2.939   6.474  1.5905  1.1887  0.4881
  933MOL0     H28715   4.614   2.871   6.319  0.5116  4.2781  0.0857
  933MOL0     H28716   4.252   2.801   6.707  1.1680 -0.4707 -0.5905
  933MOL0     H28717   4.058   2.953   6.759 -1.5463  0.2562  1.0438
  933MOL0     H28718   3.945   3.077   6.472  0.4110 -2.4948  1.2699
  933MOL0     H28719   3.761   3.092   6.477 -0.8613 -1.5497  1.2996
  933MOL0     H28720   3.946   3.131   6.716 -0.9947 -0.1782  2.0781
  933MOL0     H28721   3.912   3.274   6.617 -2.9662  1.1381 -1.8252
  933MOL0     H28722   3.793   3.246   6.819  2.3634 -4.8842  1.6016
  933MOL0     H28723   3.695   3.118   6.748  1.2949 -2.1237 -0.2859
  933MOL0     H28724   3.610   3.264   6.569 -2.2226 -0.4233  0.8659
  933MOL0     H28725   3.710   3.393   6.641  1.1708 -1.4719  0.4863
  933MOL0     H28726   3.536   3.348   6.850  0.0859 -0.0178  0.4318
  933MOL0     H28727   3.483   3.447   6.706  2.2850  0.4927 -0.6935
  933MOL0     H28728   3.441   3.154   6.729 -1.1207 -1.3626 -1.5752
  933MOL0     H28729   3.381   3.257   6.606 -3.7361  0.8785  1.2474
  933MOL0     H28730   3.246   3.393   6.751 -0.1085  0.4512  0.0252
  933MOL0     H28731   3.277   3.281   6.892  0.2004 -0.1276  0.9921
  933MOL0     H28732   3.173   3.092   6.778  4.0110 -1.1037 -3.0025
  933MOL0     H28733   3.171   3.180   6.629  3.7555 -2.2842  0.7135
  933MOL0     H28734   3.860   2.809   6.407 -0.8670 -4.9295  0.2885
  933MOL0     H28735   4.064   2.657   6.351  0.4976 -0.4935  0.4838
  933MOL0     H28736   4.441   2.470   6.546 -1.4223  2.8466  1.7130
  933MOL0     H28737   4.666   2.348   6.560  1.1084  0.1104 -0.5725
  933MOL0     H28738   4.927   2.285   5.212 -1.2227 -2.0098 -0.8576
  933MOL0     H28739   5.141   2.277   5.117 -0.9852  1.4727  0.2755
  933MOL0     H28740   5.480   2.299   5.056 -1.1716 -2.7501  0.7442
  933MOL0     H28741   5.669   2.352   4.926  0.9698  0.0092 -0.8233
  933MOL0     H28742   5.822   2.339   4.793 -0.0925 -1.3173 -0.4331
  933MOL0     H28743   5.971   2.419   4.841  0.4536  0.2226  2.4614
  933MOL0     H28744   5.991   2.131   4.769 -0.0529  1.2729  1.8685
  933MOL0     H28745   6.093   2.277   4.713 -0.3775  2.3016 -0.5360
  933MOL0     H28746   5.824   2.207   4.602  1.1843  1.3736  1.9620
  933MOL0     H28747   5.912   2.344   4.565 -1.0035  0.3181  1.4922
  933MOL0     H28748   5.948   2.170   4.390 -1.0888 -0.2620  0.6934
  933MOL0     H28749   6.034   2.067   4.507  2.4739 -0.0358  0.1491
  933MOL0     H28750   6.333   2.344   4.419 -1.7577  2.8892 -0.9778
  933MOL0     H28751   5.916   2.073   5.135  0.1044  0.9327  1.2246
  933MOL0     H28752   5.836   1.942   5.285  0.4717 -1.3871 -2.4599
  933MOL0     H28753   5.716   2.020   5.386  0.5326 -2.8589  1.4117
  933MOL0     H28754   5.678   1.878   5.285  1.8256 -0.4796 -0.4477
  934MOL0     O28755   2.204   7.024   6.026  0.4824 -0.4561 -0.6176
  934MOL0     C28756   2.248   6.977   5.921 -0.5469  0.0178  0.0435
  934MOL0     O28757   2.221   6.855   5.867  0.5055 -0.0761 -0.1938
  934MOL0     C28758   2.141   6.769   5.935 -0.1021 -0.8841 -0.2652
  934MOL0     C28759   2.001   6.784   5.933 -0.7212 -0.4571 -0.4106
  934MOL0     C28760   1.920   6.702   6.008  0.1101 -0.4076  0.1322
  934MOL0     C28761   1.984   6.592   6.083  0.4724 -0.2060 -1.0852
  934MOL0     O28762   1.904   6.508   6.167  0.1177  0.2411 -0.5640
  934MOL0     C28763   1.758   6.516   6.165  0.4013  0.5219  0.0424
  934MOL0     C28764   1.714   6.421   6.278 -0.5759  0.2727 -0.3059
  934MOL0     C28765   1.740   6.479   6.421 -0.3946 -0.7458  0.1791
  934MOL0     C28766   1.735   6.383   6.542 -0.3997  0.8086  1.0515
  934MOL0     C28767   1.824   6.450   6.654 -0.2890  0.4475 -0.4674
  934MOL0     C28768   1.720   6.473   6.774 -0.2580  0.3353  0.5262
  934MOL0     C28769   1.796   6.540   6.886 -0.7762  0.3978 -0.0831
  934MOL0     C28770   1.715   6.567   7.014 -0.1073 -0.2414 -0.2445
  934MOL0     N28771   1.607   6.662   6.988  0.2778  0.6937 -0.3439
  934MOL0     C28772   1.598   6.794   7.031 -0.9549 -0.5872 -0.0005
  934MOL0     C28773   1.493   6.842   6.965 -0.0215  0.2935  0.1261
  934MOL0     C28774   1.432   6.973   6.980 -0.1584 -0.2455  0.0767
  934MOL0     C28775   1.440   7.035   7.118  0.1030 -0.3524 -0.3903
  934MOL0     C28776   1.341   7.153   7.134  0.0453  0.5151  0.2430
  934MOL0     C28777   1.358   7.266   7.050  0.0004 -0.8963 -0.4668
  934MOL0     O28778   1.482   7.339   7.079 -0.5434  0.4087 -0.5491
  934MOL0     C28779   1.510   7.439   6.983 -0.2116 -0.5339  0.0358
  934MOL0     C28780   1.634   7.502   6.987 -0.8138  0.7927  0.1330
  934MOL0     C28781   1.685   7.599   6.895  0.6634  0.4033 -0.6067
  934MOL0     C28782   1.823   7.651   6.912 -0.8672 -0.9103  0.7488
  934MOL0     C28783   1.588   7.648   6.798  0.5590  0.6466 -0.0336
  934MOL0     C28784   1.616   7.750   6.696 -0.4631 -0.5148  0.6499
  934MOL0     O28785   1.742   7.800   6.681 -0.5645  0.4673  0.1048
  934MOL0     C28786   1.756   7.884   6.571 -0.3121  0.2839  1.0617
  934MOL0     C28787   1.767   7.833   6.443 -1.1106 -0.1731 -0.0252
  934MOL0     C28788   1.784   7.922   6.342  0.2743  0.4576  0.8934
  934MOL0     C28789   1.799   8.055   6.359 -0.9128 -0.3261 -0.2069
  934MOL0     O28790   1.837   8.120   6.244 -0.0815 -0.1250 -0.6623
  934MOL0     C28791   1.887   8.245   6.269 -0.8609 -0.3628 -0.2226
  934MOL0     C28792   1.974   8.305   6.149 -0.7593  1.1322 -0.0887
  934MOL0     C28793   1.896   8.337   6.023 -0.0086 -0.2027  0.5125
  934MOL0     C28794   1.816   8.477   6.034 -0.8616 -0.0517  0.0377
  934MOL0     C28795   1.901   8.605   6.027  0.2461 -0.2138 -0.4479
  934MOL0     C28796   1.973   8.622   5.900  0.5712  0.2007 -0.4168
  934MOL0     C28797   2.045   8.760   5.907  0.5284 -0.2274 -0.0638
  934MOL0     C28798   2.065   8.809   5.769 -0.0570  0.4479 -0.1152
  934MOL0    Cl28799   2.220   8.757   5.697 -0.6057 -0.4852 -0.1193
  934MOL0     C28800   1.803   8.101   6.494  0.2407 -0.9766 -0.2661
  934MOL0     C28801   1.778   8.017   6.597  0.3146 -0.9952  0.1355
  934MOL0     O28802   1.514   7.774   6.620 -0.3908  0.0178 -0.3002
  934MOL0     C28803   1.459   7.584   6.794  0.3553  0.6398 -0.0797
  934MOL0     C28804   1.423   7.484   6.888 -0.0001 -0.6107  0.2838
  934MOL0     N28805   1.428   6.743   6.891 -0.0857  0.2863 -0.3765
  934MOL0     N28806   1.498   6.640   6.902  0.6760 -0.1391  0.4294
  934MOL0     C28807   2.114   6.577   6.079  0.5410 -0.4311  0.2983
  934MOL0     C28808   2.199   6.664   6.007  0.3447 -0.8608  0.0989
  934MOL0     C28809   2.337   7.059   5.836  0.9228 -0.1861  0.6273
  934MOL0     C28810   2.401   7.005   5.716  0.3654  0.3542  0.5075
  934MOL0     C28811   2.502   7.074   5.651 -0.4036  0.2483 -0.3996
  934MOL0     C28812   2.528   7.206   5.685 -0.1606  0.0331  0.2483
  934MOL0     O28813   2.637   7.268   5.615 -0.5661 -0.4287  0.0187
  934MOL0     C28814   2.670   7.403   5.636  0.1170 -0.4208 -0.3084
  934MOL0     C28815   2.755   7.450   5.523 -0.2947 -0.1948  0.4102
  934MOL0     C28816   2.839   7.578   5.548  0.3074  0.2979  0.5853
  934MOL0     C28817   2.753   7.695   5.615 -0.0667  0.1563 -0.3141
  934MOL0     C28818   2.821   7.815   5.568 -0.5430 -0.0030  0.1006
  934MOL0     C28819   2.867   7.914   5.517 -0.4906  0.3814  0.0607
  934MOL0     C28820   2.457   7.265   5.782 -0.2670  0.3702  0.4487
  934MOL0     C28821   2.368   7.199   5.864  0.8415  0.5974  0.2230
  934MOL0     C28822   2.314   7.270   5.978 -0.3453  0.8377 -0.2874
  934MOL0     H28823   1.954   6.864   5.875  0.6169  2.0038  1.7013
  934MOL0     H28824   1.819   6.735   6.030 -0.5276 -0.6111 -2.2225
  934MOL0     H28825   1.714   6.489   6.069  0.7368  3.9114 -1.2159
  934MOL0     H28826   1.714   6.612   6.195 -1.2048 -0.2840  0.3697
  934MOL0     H28827   1.608   6.399   6.264 -0.5909 -0.2045  0.5215
  934MOL0     H28828   1.772   6.329   6.263  0.0373  0.4990  0.5509
  934MOL0     H28829   1.836   6.531   6.419 -0.9849  0.3629  0.0291
  934MOL0     H28830   1.671   6.560   6.444  1.1637  1.2935 -1.8469
  934MOL0     H28831   1.632   6.352   6.564 -1.4678  3.0594 -0.3627
  934MOL0     H28832   1.782   6.291   6.507  1.8488  3.2993 -3.2621
  934MOL0     H28833   1.872   6.543   6.624  1.2408 -0.2405 -0.2137
  934MOL0     H28834   1.897   6.380   6.695 -3.1381 -1.2245  2.2593
  934MOL0     H28835   1.651   6.545   6.730  1.6182  1.8620 -0.0844
  934MOL0     H28836   1.679   6.374   6.794 -2.0681  1.2227  1.3824
  934MOL0     H28837   1.834   6.636   6.851  0.8139 -0.6627 -1.3985
  934MOL0     H28838   1.879   6.470   6.900 -0.0416 -0.0525 -4.9430
  934MOL0     H28839   1.688   6.465   7.044  0.9593 -0.4930 -0.0977
  934MOL0     H28840   1.782   6.613   7.087 -0.2801  1.4192 -1.0797
  934MOL0     H28841   1.641   6.855   7.109 -1.4708 -0.9044  0.5402
  934MOL0     H28842   1.325   6.970   6.962 -0.1498 -3.2087  0.0963
  934MOL0     H28843   1.482   7.037   6.906 -2.3506  1.1120 -0.3135
  934MOL0     H28844   1.422   6.967   7.202  3.6152  2.0637  2.6823
  934MOL0     H28845   1.542   7.073   7.133 -0.0276 -0.0493 -0.2563
  934MOL0     H28846   1.242   7.114   7.108  0.4499 -0.8891  0.7628
  934MOL0     H28847   1.334   7.193   7.235 -1.4711  1.2139 -0.1070
  934MOL0     H28848   1.342   7.227   6.949 -1.2564 -2.4570  0.2958
  934MOL0     H28849   1.264   7.315   7.077 -0.8424 -2.4691 -0.4428
  934MOL0     H28850   1.698   7.454   7.061  1.6147  2.4631 -0.7401
  934MOL0     H28851   1.819   7.760   6.919 -2.5913 -0.8539 -0.4827
  934MOL0     H28852   1.893   7.615   6.837 -0.8413  2.1171 -0.8367
  934MOL0     H28853   1.864   7.616   7.007 -0.3958  1.6720  1.5929
  934MOL0     H28854   1.759   7.725   6.433 -0.9153 -0.0585 -1.7386
  934MOL0     H28855   1.794   7.884   6.240 -0.1891 -0.9382  1.3442
  934MOL0     H28856   1.795   8.303   6.285  0.8063  2.7438 -1.0567
  934MOL0     H28857   1.951   8.248   6.357 -0.5036 -2.0003 -0.3937
  934MOL0     H28858   2.026   8.395   6.183  3.6418 -1.8098  1.8935
  934MOL0     H28859   2.048   8.225   6.135  0.1848  1.8797  0.5096
  934MOL0     H28860   1.832   8.251   6.000  0.2363  0.0862 -1.4346
  934MOL0     H28861   1.967   8.339   5.939 -0.1903 -1.3841  0.3059
  934MOL0     H28862   1.761   8.474   6.128 -0.2495 -0.5769  0.3860
  934MOL0     H28863   1.749   8.487   5.948  2.0926 -0.3059 -2.4907
  934MOL0     H28864   1.833   8.689   6.044  1.0664 -0.0415  2.4501
  934MOL0     H28865   1.968   8.608   6.114 -0.3879  0.1112  0.0344
  934MOL0     H28866   1.893   8.628   5.826  0.5155  4.6845 -0.2703
  934MOL0     H28867   2.044   8.539   5.898  3.3454  2.3614  1.1784
  934MOL0     H28868   2.142   8.742   5.955  0.6241 -2.3659 -0.9734
  934MOL0     H28869   1.978   8.834   5.953  2.2147  0.3624  1.5672
  934MOL0     H28870   2.075   8.918   5.774 -0.1434  0.5692 -1.9154
  934MOL0     H28871   1.979   8.786   5.705 -0.4628 -0.1857  0.6351
  934MOL0     H28872   1.814   8.206   6.519  1.6093 -1.4431  1.3165
  934MOL0     H28873   1.777   8.061   6.696  1.9616 -1.0948  0.2116
  934MOL0     H28874   1.376   7.618   6.733 -2.5419  0.9601  3.6429
  934MOL0     H28875   1.324   7.441   6.879 -0.1503 -0.7509  2.2345
  934MOL0     H28876   2.157   6.495   6.136 -2.0429  0.8178  4.5367
  934MOL0     H28877   2.306   6.650   6.015  0.7032  0.5744 -1.5173
  934MOL0     H28878   2.368   6.912   5.672 -1.4861 -0.1635  2.7682
  934MOL0     H28879   2.565   7.033   5.573  0.9507  0.6301  0.4632
  934MOL0     H28880   2.579   7.464   5.635 -0.7083 -1.6071  0.0457
  934MOL0     H28881   2.715   7.428   5.732 -0.9081  1.7416 -0.3447
  934MOL0     H28882   2.695   7.453   5.432 -1.4292  0.5892  1.1575
  934MOL0     H28883   2.834   7.375   5.507 -0.1586  0.4794 -2.6354
  934MOL0     H28884   2.915   7.543   5.618 -2.2709 -3.4291  1.8575
  934MOL0     H28885   2.888   7.620   5.459 -2.0061  0.6462 -0.6110
  934MOL0     H28886   2.742   7.693   5.724 -0.7312  1.1364 -0.3498
  934MOL0     H28887   2.649   7.689   5.582 -1.2963 -1.0885  3.2679
  934MOL0     H28888   2.912   8.001   5.475  0.5768 -0.0592  0.2480
  934MOL0     H28889   2.475   7.368   5.811 -1.4690  1.3891 -2.1611
  934MOL0     H28890   2.343   7.376   5.978 -0.7237  0.9811 -1.9372
  934MOL0     H28891   2.205   7.270   5.972 -0.3138  2.4549 -1.7654
  934MOL0     H28892   2.351   7.224   6.070 -2.2160  0.1818  0.1736
  935MOL0     O28893  10.684   7.406   0.419  0.1549 -0.5391  0.0668
  935MOL0     C28894  10.589   7.475   0.404 -0.2486  0.0909 -0.3321
  935MOL0     O28895  10.526   7.534   0.511  0.1950  0.1756  0.7863
  935MOL0     C28896  10.589   7.570   0.626 -0.7940 -1.3175  0.2826
  935MOL0     C28897  10.696   7.667   0.632  0.5810  0.1058  0.0553
  935MOL0     C28898  10.756   7.696   0.758 -0.1554 -0.2302 -0.0284
  935MOL0     C28899  10.706   7.640   0.879 -0.3582  0.0673  0.1818
  935MOL0     O28900  10.757   7.677   1.000  0.4300 -0.6302 -0.1485
  935MOL0     C28901  10.682   7.671   1.119  0.6443  0.4932 -1.5531
  935MOL0     C28902  10.742   7.772   1.228  0.1666  0.3412 -0.8836
  935MOL0     C28903  10.811   7.714   1.360 -0.9373  0.5295 -0.0687
  935MOL0     C28904  10.866   7.823   1.452  0.7755  0.1764  0.1738
  935MOL0     C28905  10.970   7.910   1.389  0.4001 -0.0889 -0.1722
  935MOL0     C28906  11.084   7.942   1.486 -0.7744 -0.3819 -0.0402
  935MOL0     C28907  11.197   8.033   1.421 -0.1452 -0.2153 -0.1735
  935MOL0     C28908  11.302   8.083   1.517  0.6484  0.3393  0.6931
  935MOL0     N28909  11.365   8.200   1.457  0.4974 -0.6809 -0.6268
  935MOL0     C28910  11.306   8.324   1.444 -0.1379 -0.7538  0.0071
  935MOL0     C28911  11.402   8.400   1.400 -1.3429 -0.1717 -0.2629
  935MOL0     C28912  11.397   8.547   1.366 -0.6304  0.5099 -0.4276
  935MOL0     C28913  11.470   8.630   1.472 -0.0875 -0.4607 -0.1751
  935MOL0     C28914  11.417   8.611   1.612 -0.1184  0.0737 -0.7377
  935MOL0     C28915  11.453   8.725   1.713 -1.1842 -0.0248  0.5800
  935MOL0     O28916  11.576   8.699   1.789 -0.0638 -0.5539 -0.2433
  935MOL0     C28917  11.562   8.682   1.923  0.0302 -0.3784 -0.6336
  935MOL0     C28918  11.632   8.770   2.004  0.0472 -0.1322  0.2905
  935MOL0     C28919  11.626   8.742   2.141 -0.3482  0.2843 -0.8508
  935MOL0     C28920  11.722   8.813   2.233  0.7308  0.3031  0.0675
  935MOL0     C28921  11.524   8.656   2.196 -0.5102 -0.0847 -0.3588
  935MOL0     C28922  11.513   8.625   2.339  0.3460  0.0087 -0.1202
  935MOL0     O28923  11.464   8.500   2.364  0.6870 -0.2855  0.7894
  935MOL0     C28924  11.439   8.460   2.499  0.5581  0.0470  0.9230
  935MOL0     C28925  11.536   8.460   2.594 -0.4367  0.3738 -0.2093
  935MOL0     C28926  11.523   8.415   2.729 -0.6568 -0.1757  0.4239
  935MOL0     C28927  11.392   8.374   2.768 -0.2202  0.2635 -0.1533
  935MOL0     O28928  11.385   8.320   2.895  0.3225 -0.1307  0.1829
  935MOL0     C28929  11.249   8.329   2.956 -0.3638 -0.1319  0.2834
  935MOL0     C28930  11.273   8.318   3.106  0.0783  0.5618 -0.0374
  935MOL0     C28931  11.135   8.313   3.190 -0.4414  1.1275  0.3143
  935MOL0     C28932  11.157   8.349   3.340 -0.0173  0.0733 -0.5109
  935MOL0     C28933  11.017   8.389   3.389  0.1131 -0.4038  0.2675
  935MOL0     C28934  11.029   8.424   3.541 -0.4909 -0.1897 -0.2728
  935MOL0     C28935  11.096   8.330   3.640 -0.1544  0.0049 -0.8066
  935MOL0     C28936  11.003   8.214   3.650 -0.2585  0.0324 -0.6504
  935MOL0    Cl28937  11.064   8.094   3.769 -0.0909 -0.0794  0.2932
  935MOL0     C28938  11.294   8.369   2.667 -0.3191  0.9327 -0.0421
  935MOL0     C28939  11.319   8.398   2.534  0.7185 -0.5398  0.1914
  935MOL0     O28940  11.544   8.704   2.432  0.1815  0.2586 -0.1251
  935MOL0     C28941  11.449   8.588   2.105 -0.0005  0.7570  0.2428
  935MOL0     C28942  11.467   8.601   1.971  0.1554  0.4320 -0.8889
  935MOL0     N28943  11.525   8.328   1.397  0.0668  0.4902  0.5595
  935MOL0     N28944  11.496   8.208   1.419  0.2870 -0.7694  0.8196
  935MOL0     C28945  10.612   7.535   0.866  0.2172 -0.6751 -0.1024
  935MOL0     C28946  10.541   7.505   0.742  0.1509 -0.3249 -0.4908
  935MOL0     C28947  10.532   7.489   0.268  0.5117  0.7011  0.4530
  935MOL0     C28948  10.442   7.603   0.252 -0.8507  0.9023  0.0237
  935MOL0     C28949  10.362   7.614   0.141 -0.4543 -0.4843 -0.3150
  935MOL0     C28950  10.378   7.530   0.033 -0.5455 -0.3448 -0.2262
  935MOL0     O28951  10.312   7.556  -0.081  0.4995  0.5558 -0.4707
  935MOL0     C28952  10.360   7.513  -0.203  0.1515 -0.9768  0.5665
  935MOL0     C28953  10.499   7.563  -0.242  0.8949  0.3112 -0.3200
  935MOL0     C28954  10.507   7.714  -0.223  0.4674  0.6455  0.2626
  935MOL0     C28955  10.628   7.771  -0.301  0.3699 -0.7214 -0.0264
  935MOL0     C28956  10.630   7.916  -0.287 -0.6285 -0.4366 -1.3014
  935MOL0     C28957  10.635   8.033  -0.277 -0.8155 -0.6413  0.9022
  935MOL0     C28958  10.458   7.419   0.052  0.7319 -0.4358 -0.0971
  935MOL0     C28959  10.529   7.388   0.165 -0.2463 -0.6930 -0.0733
  935MOL0     C28960  10.592   7.251   0.188 -0.0228 -0.1626 -0.6753
  935MOL0     H28961  10.722   7.705   0.534  1.4533 -2.2177 -0.6892
  935MOL0     H28962  10.826   7.779   0.762  0.1692 -0.0823 -4.1564
  935MOL0     H28963  10.668   7.571   1.162 -1.9885  0.8650 -1.3681
  935MOL0     H28964  10.584   7.716   1.100  1.0260  0.9619 -2.4717
  935MOL0     H28965  10.805   7.836   1.165 -1.6523  0.2020 -2.9873
  935MOL0     H28966  10.664   7.839   1.262  1.0607  0.8008  0.3307
  935MOL0     H28967  10.743   7.654   1.421  5.3851 -2.5095  5.2975
  935MOL0     H28968  10.897   7.649   1.337  2.2855  2.6703  4.4150
  935MOL0     H28969  10.789   7.896   1.478  0.8241  0.7781 -1.2653
  935MOL0     H28970  10.905   7.777   1.543  0.9245 -2.0353 -0.9193
  935MOL0     H28971  10.925   8.006   1.363  1.9958  0.9996  0.9323
  935MOL0     H28972  11.015   7.853   1.307  2.4489  1.1183  0.0442
  935MOL0     H28973  11.053   7.984   1.582  0.5157 -2.8072  1.5313
  935MOL0     H28974  11.144   7.854   1.512 -0.6768  0.5778  3.5748
  935MOL0     H28975  11.147   8.126   1.393 -1.5423 -1.8899 -3.8621
  935MOL0     H28976  11.240   7.984   1.334 -0.4225 -1.6913  0.4810
  935MOL0     H28977  11.252   8.126   1.604 -0.6559 -0.2095  0.2366
  935MOL0     H28978  11.365   8.006   1.563 -0.8093 -1.0227  0.5069
  935MOL0     H28979  11.205   8.353   1.471  0.2149  0.3662  0.1979
  935MOL0     H28980  11.294   8.583   1.356 -1.0306 -0.5281 -0.1164
  935MOL0     H28981  11.449   8.555   1.270  0.6406 -0.1788  0.1745
  935MOL0     H28982  11.578   8.635   1.456  0.1089 -0.2996  1.1316
  935MOL0     H28983  11.456   8.735   1.443  2.4335 -0.0809 -0.2669
  935MOL0     H28984  11.309   8.621   1.607 -0.2101  0.4364  1.2252
  935MOL0     H28985  11.445   8.509   1.640 -2.1500  0.0247  1.3301
  935MOL0     H28986  11.471   8.818   1.658 -3.3786  0.7819  1.1284
  935MOL0     H28987  11.366   8.742   1.777 -2.3708  1.3719 -1.2954
  935MOL0     H28988  11.691   8.850   1.962 -1.7286  0.7603 -0.5890
  935MOL0     H28989  11.660   8.863   2.309 -2.2870 -1.6309 -0.9454
  935MOL0     H28990  11.777   8.890   2.179 -0.9277  0.7987 -0.9625
  935MOL0     H28991  11.791   8.744   2.282  1.8331  0.0525 -1.7539
  935MOL0     H28992  11.628   8.497   2.549  0.3545 -2.1440 -0.8258
  935MOL0     H28993  11.611   8.410   2.792 -1.1850 -1.4276  1.1127
  935MOL0     H28994  11.205   8.429   2.948  1.0123  0.4065 -1.2701
  935MOL0     H28995  11.182   8.251   2.920 -0.6945 -1.1677  2.8724
  935MOL0     H28996  11.333   8.229   3.126 -0.1808  0.8287  2.1589
  935MOL0     H28997  11.328   8.408   3.133  0.8796  0.4791 -1.3533
  935MOL0     H28998  11.107   8.208   3.200  2.9477  0.3554  4.6417
  935MOL0     H28999  11.053   8.366   3.141 -2.2031 -0.5894  1.3024
  935MOL0     H29000  11.228   8.431   3.353  1.8232 -0.9621 -3.0613
  935MOL0     H29001  11.195   8.256   3.381 -2.8434 -1.5502 -1.2710
  935MOL0     H29002  10.972   8.478   3.345 -3.0523 -1.1345  1.7296
  935MOL0     H29003  10.945   8.308   3.373 -0.8627  0.5886 -0.5645
  935MOL0     H29004  10.925   8.442   3.570 -0.8802 -2.0794 -0.4106
  935MOL0     H29005  11.097   8.507   3.561 -0.6477 -0.3825  1.1423
  935MOL0     H29006  11.100   8.376   3.739 -1.1496 -3.9978  1.3392
  935MOL0     H29007  11.198   8.306   3.610  0.3927 -0.0613  1.0465
  935MOL0     H29008  10.994   8.167   3.551  0.9404 -1.2682 -0.1812
  935MOL0     H29009  10.908   8.247   3.695 -1.8982 -1.4916 -2.7573
  935MOL0     H29010  11.211   8.301   2.684  1.1437 -0.2221  3.5922
  935MOL0     H29011  11.248   8.382   2.454 -1.5075  1.1059  1.7371
  935MOL0     H29012  11.377   8.515   2.140  1.7379 -2.8293 -2.9531
  935MOL0     H29013  11.418   8.542   1.893  2.6855 -1.6063 -1.0662
  935MOL0     H29014  10.583   7.486   0.958  1.4062 -2.2439 -0.5152
  935MOL0     H29015  10.459   7.434   0.737  1.5114 -1.8963 -1.6559
  935MOL0     H29016  10.447   7.673   0.335  2.8908  1.7764 -0.7770
  935MOL0     H29017  10.285   7.691   0.133  0.0248  0.5212  2.9797
  935MOL0     H29018  10.345   7.405  -0.210 -1.3168 -0.8495  1.3575
  935MOL0     H29019  10.299   7.567  -0.276 -1.1005 -2.3549  0.5432
  935MOL0     H29020  10.507   7.548  -0.350 -2.6619  1.4881 -0.8632
  935MOL0     H29021  10.581   7.508  -0.194  0.5795  1.3951  1.5624
  935MOL0     H29022  10.415   7.762  -0.257  0.0461 -0.3536 -0.0439
  935MOL0     H29023  10.513   7.744  -0.118  3.0376  4.8019 -0.8287
  935MOL0     H29024  10.611   7.754  -0.407 -2.0761 -1.5594  0.4379
  935MOL0     H29025  10.721   7.732  -0.258 -0.6803 -1.2520  1.8986
  935MOL0     H29026  10.621   8.139  -0.268 -2.7634 -0.6128 -1.5353
  935MOL0     H29027  10.461   7.346  -0.028  3.3332 -0.1323 -0.3668
  935MOL0     H29028  10.700   7.264   0.175  0.2227 -1.4364 -0.0331
  935MOL0     H29029  10.573   7.212   0.288  1.1033  0.9062 -0.0132
  935MOL0     H29030  10.552   7.179   0.116  0.5032 -0.5090 -0.6216
  936MOL0     O29031   7.585   4.758   1.665 -0.4410 -0.0403  0.8239
  936MOL0     C29032   7.494   4.719   1.748 -0.0963  0.4371  0.9757
  936MOL0     O29033   7.448   4.589   1.754  0.3782 -0.5673 -0.2692
  936MOL0     C29034   7.506   4.503   1.661 -0.7832 -0.0716  0.5835
  936MOL0     C29035   7.429   4.472   1.550  0.8664 -0.0244 -0.2876
  936MOL0     C29036   7.463   4.370   1.457  0.2180 -1.2049 -0.5632
  936MOL0     C29037   7.592   4.328   1.464 -0.0075  0.1976 -0.4655
  936MOL0     O29038   7.620   4.243   1.367  1.0322 -0.1914  0.5143
  936MOL0     C29039   7.738   4.170   1.362 -1.4793 -0.8869  0.5229
  936MOL0     C29040   7.739   4.088   1.235  0.0258 -0.1939 -0.0768
  936MOL0     C29041   7.848   3.984   1.236  0.5658 -0.0979  0.4995
  936MOL0     C29042   7.987   4.043   1.269 -0.0404 -0.0600  0.1845
  936MOL0     C29043   8.086   3.924   1.295  0.7952 -0.5141 -1.1795
  936MOL0     C29044   8.141   3.853   1.175 -0.9700  0.2561 -0.1772
  936MOL0     C29045   8.235   3.939   1.093 -0.3681 -0.3770 -0.1262
  936MOL0     C29046   8.284   3.875   0.959  0.0276 -0.4846 -0.1990
  936MOL0     N29047   8.351   3.746   0.980  0.6100 -0.1849 -0.5484
  936MOL0     C29048   8.290   3.629   0.969 -0.5238  0.1467  0.3864
  936MOL0     C29049   8.389   3.535   0.968  0.2973 -1.3849  0.0832
  936MOL0     C29050   8.379   3.391   0.927 -0.1460  0.4490 -0.4151
  936MOL0     C29051   8.309   3.287   1.024 -0.1038  0.4789  0.6162
  936MOL0     C29052   8.332   3.336   1.171  0.2234  0.3207 -0.4568
  936MOL0     C29053   8.216   3.427   1.224  0.0295  0.2566  0.5329
  936MOL0     O29054   8.083   3.376   1.204  0.3899 -1.1012  0.3403
  936MOL0     C29055   8.062   3.252   1.260  1.2746 -0.1011  1.2841
  936MOL0     C29056   7.989   3.159   1.189 -0.0941 -0.3526  0.2964
  936MOL0     C29057   7.981   3.024   1.218 -0.0399  0.7821 -0.2989
  936MOL0     C29058   7.900   2.939   1.126 -0.7526  0.4040 -0.4294
  936MOL0     C29059   8.039   2.979   1.349  0.6179 -0.2412 -0.0865
  936MOL0     C29060   8.034   2.845   1.399  0.2869 -0.2817 -0.4541
  936MOL0     O29061   8.142   2.797   1.473 -0.3576 -0.0121 -0.0037
  936MOL0     C29062   8.155   2.668   1.523 -0.2106 -0.3422  0.4243
  936MOL0     C29063   8.088   2.552   1.481 -0.5517 -0.0899 -0.3490
  936MOL0     C29064   8.115   2.430   1.545 -0.6462 -0.7262  0.3078
  936MOL0     C29065   8.215   2.420   1.640  0.3940  0.1182  0.6856
  936MOL0     O29066   8.237   2.300   1.699 -0.1217  0.4054  0.6363
  936MOL0     C29067   8.296   2.199   1.612 -0.1807  0.0922  0.1340
  936MOL0     C29068   8.298   2.070   1.694  0.1766 -0.0933  0.6514
  936MOL0     C29069   8.157   2.032   1.747  0.1679  1.4657  0.6644
  936MOL0     C29070   8.171   1.912   1.844  0.2620 -0.6407  0.0005
  936MOL0     C29071   8.039   1.852   1.893  0.6319  0.0539 -0.4425
  936MOL0     C29072   8.082   1.739   1.998 -0.5826 -0.3788 -0.3163
  936MOL0     C29073   7.957   1.685   2.058  0.1952  0.4946 -1.1768
  936MOL0     C29074   7.990   1.611   2.189  0.2909 -1.3067 -0.5483
  936MOL0    Cl29075   8.111   1.494   2.161 -0.0197 -0.0834  0.3502
  936MOL0     C29076   8.286   2.536   1.676  0.1447  0.1881  0.4842
  936MOL0     C29077   8.254   2.666   1.619  0.8639  0.2234  0.1725
  936MOL0     O29078   7.933   2.785   1.374  0.2851 -0.3062  0.0502
  936MOL0     C29079   8.094   3.073   1.426 -0.2161 -0.3076 -0.5016
  936MOL0     C29080   8.108   3.205   1.381  0.4488 -0.6234  0.5654
  936MOL0     N29081   8.511   3.597   0.985  0.0695 -0.0478 -0.3533
  936MOL0     N29082   8.482   3.720   0.996  0.3425 -0.7471  0.2694
  936MOL0     C29083   7.677   4.366   1.575 -0.8997 -1.3255  0.2384
  936MOL0     C29084   7.633   4.448   1.676  0.7895 -0.1358 -0.2920
  936MOL0     C29085   7.431   4.823   1.832  0.3608  0.0677 -0.7102
  936MOL0     C29086   7.307   4.794   1.880  0.3585  0.8723  0.0068
  936MOL0     C29087   7.238   4.876   1.966  0.1863 -0.2350 -0.1263
  936MOL0     C29088   7.289   4.999   2.007 -1.0035 -0.1964 -0.3033
  936MOL0     O29089   7.243   5.088   2.101 -0.3887  0.3798 -0.1458
  936MOL0     C29090   7.105   5.082   2.138 -0.7420  0.9249 -0.2594
  936MOL0     C29091   7.084   5.218   2.209 -0.3526  0.0883  0.3218
  936MOL0     C29092   7.070   5.329   2.114 -0.1521 -0.9488  0.7240
  936MOL0     C29093   7.186   5.359   2.016 -0.8993 -0.4092  0.5032
  936MOL0     C29094   7.182   5.496   1.968 -0.3090  0.1213  0.1749
  936MOL0     C29095   7.178   5.609   1.932  0.0073 -0.9339  0.2267
  936MOL0     C29096   7.422   5.031   1.957  0.2195  1.0791  0.3862
  936MOL0     C29097   7.482   4.949   1.860 -1.0647 -0.2821 -0.4898
  936MOL0     C29098   7.622   4.997   1.818 -1.3142  0.7573  0.7701
  936MOL0     H29099   7.334   4.524   1.551 -0.2654 -2.0305  0.5405
  936MOL0     H29100   7.396   4.340   1.377 -0.8453 -1.6799  0.4799
  936MOL0     H29101   7.751   4.109   1.452  3.9654 -0.0646  0.6795
  936MOL0     H29102   7.826   4.235   1.362  0.1890 -3.0283 -0.2828
  936MOL0     H29103   7.639   4.044   1.226 -0.7489  1.7091 -1.6422
  936MOL0     H29104   7.747   4.145   1.142 -0.1994  1.9008  1.1281
  936MOL0     H29105   7.811   3.923   1.319  0.6504  1.0711  1.4239
  936MOL0     H29106   7.860   3.934   1.139 -1.3882 -0.8202  0.5903
  936MOL0     H29107   8.027   4.103   1.186  1.8624 -3.7482 -1.8228
  936MOL0     H29108   7.978   4.103   1.359  0.1328 -0.4367  0.4544
  936MOL0     H29109   8.031   3.854   1.358  0.7777 -1.0696 -1.8059
  936MOL0     H29110   8.168   3.969   1.351 -0.8531 -1.3277  2.1678
  936MOL0     H29111   8.196   3.765   1.209  3.3416  2.0077 -1.8916
  936MOL0     H29112   8.053   3.820   1.119 -0.5513  1.9715 -1.9777
  936MOL0     H29113   8.311   3.982   1.159 -1.4338  1.6506 -0.1299
  936MOL0     H29114   8.172   4.024   1.065 -0.3695 -0.6744 -1.0252
  936MOL0     H29115   8.203   3.853   0.888 -0.8414 -1.2524  0.9858
  936MOL0     H29116   8.351   3.948   0.913  1.0215 -1.1848  0.1024
  936MOL0     H29117   8.188   3.614   0.935 -0.0840  0.2399 -1.0312
  936MOL0     H29118   8.482   3.359   0.909  0.3109 -0.3151  2.9335
  936MOL0     H29119   8.327   3.388   0.831  0.6743  2.7007 -0.9898
  936MOL0     H29120   8.203   3.284   0.998  0.3158  0.2556 -1.1849
  936MOL0     H29121   8.355   3.189   1.007 -0.7768  0.6999 -3.3163
  936MOL0     H29122   8.337   3.263   1.252  0.6243  2.4897  1.5873
  936MOL0     H29123   8.417   3.404   1.184 -1.9786  3.2567 -0.5587
  936MOL0     H29124   8.247   3.454   1.325  4.8314 -1.1502 -0.2960
  936MOL0     H29125   8.219   3.525   1.175 -0.3331 -0.1102 -0.2398
  936MOL0     H29126   7.936   3.197   1.102 -3.0762 -3.8484  0.3405
  936MOL0     H29127   7.806   2.910   1.173 -0.3696 -0.0110  0.0778
  936MOL0     H29128   7.953   2.849   1.095 -2.4485 -0.2200 -1.7069
  936MOL0     H29129   7.882   2.989   1.030  1.3277  1.0919 -0.5211
  936MOL0     H29130   8.009   2.559   1.408 -1.2336 -1.9557  0.1608
  936MOL0     H29131   8.057   2.344   1.515 -0.8610 -1.2757  2.1745
  936MOL0     H29132   8.223   2.181   1.532  0.7363 -1.2439 -0.4361
  936MOL0     H29133   8.397   2.215   1.573  0.5285 -4.1969 -0.2679
  936MOL0     H29134   8.336   1.993   1.626 -0.9774 -0.3339  0.2586
  936MOL0     H29135   8.372   2.079   1.774 -0.0420  1.9357  0.6887
  936MOL0     H29136   8.098   2.001   1.661 -1.3927  0.7079  1.9611
  936MOL0     H29137   8.109   2.120   1.788 -2.7786 -0.1227  0.8616
  936MOL0     H29138   8.242   1.937   1.923  0.4340 -0.5620 -0.1782
  936MOL0     H29139   8.221   1.831   1.790 -0.1162 -0.9326  0.0793
  936MOL0     H29140   7.975   1.933   1.928 -0.5431  0.8068 -3.9916
  936MOL0     H29141   7.976   1.807   1.815 -0.8493  0.8471  0.2584
  936MOL0     H29142   8.142   1.785   2.078 -0.0283  1.3720 -1.6818
  936MOL0     H29143   8.137   1.662   1.944 -2.2112 -0.5739 -1.7863
  936MOL0     H29144   7.908   1.620   1.985 -2.0639 -0.4658  1.0388
  936MOL0     H29145   7.889   1.765   2.087 -1.7581 -0.6585 -2.2752
  936MOL0     H29146   7.904   1.563   2.237 -0.6673  2.3495  1.7259
  936MOL0     H29147   8.026   1.675   2.270  1.0958 -0.1097 -1.7959
  936MOL0     H29148   8.381   2.531   1.729  1.8404 -1.2478 -2.4725
  936MOL0     H29149   8.319   2.750   1.643  0.6954  0.3935  0.0330
  936MOL0     H29150   8.127   3.045   1.525 -0.1183  0.9604 -0.1623
  936MOL0     H29151   8.164   3.278   1.439 -1.0316  1.5068 -0.5685
  936MOL0     H29152   7.778   4.328   1.578 -1.3494 -2.6089 -0.2405
  936MOL0     H29153   7.701   4.489   1.751 -0.0897  0.5350  0.1591
  936MOL0     H29154   7.254   4.702   1.861 -0.0834  1.1169  0.0349
  936MOL0     H29155   7.141   4.839   1.996 -0.5398  1.9271  0.3836
  936MOL0     H29156   7.037   5.082   2.052 -2.5963  2.5308  1.1173
  936MOL0     H29157   7.071   4.999   2.200 -0.4798 -1.2786 -2.8756
  936MOL0     H29158   7.162   5.246   2.280  0.2521  2.4642 -1.1560
  936MOL0     H29159   7.001   5.211   2.280  0.9872  1.7705  2.1793
  936MOL0     H29160   6.980   5.325   2.052 -0.3724 -1.7487  1.0905
  936MOL0     H29161   7.052   5.413   2.183 -0.3346 -0.3911  0.0140
  936MOL0     H29162   7.167   5.288   1.935 -1.5285 -0.5969  0.8089
  936MOL0     H29163   7.277   5.340   2.076 -1.3237  1.0748  1.6785
  936MOL0     H29164   7.181   5.715   1.921  1.4798 -1.1991 -3.4869
  936MOL0     H29165   7.466   5.128   1.977  0.6390  0.7965  0.8913
  936MOL0     H29166   7.688   4.920   1.858 -1.0414  1.3646  1.5098
  936MOL0     H29167   7.640   4.992   1.710 -1.0712  0.9734  0.7996
  936MOL0     H29168   7.649   5.100   1.845 -1.4323  0.2313  3.1033
  937MOL0     O29169   8.427   3.080  10.827  0.3875  0.7949 -0.7133
  937MOL0     C29170   8.385   2.978  10.758 -0.3558 -0.4778 -0.0809
  937MOL0     O29171   8.269   2.908  10.783 -0.1681 -0.2031 -0.2393
  937MOL0     C29172   8.182   2.954  10.878 -0.3693  0.7429 -0.2254
  937MOL0     C29173   8.116   3.071  10.845 -0.2456  0.6861  0.1470
  937MOL0     C29174   8.021   3.113  10.937 -0.2892 -0.4521  0.3986
  937MOL0     C29175   8.006   3.044  11.062  1.1473 -0.5223  0.0882
  937MOL0     O29176   7.903   3.096  11.138  0.5393  0.2249 -0.3267
  937MOL0     C29177   7.864   3.009  11.243 -0.9595 -0.6267  0.4210
  937MOL0     C29178   7.746   3.062  11.314  0.8745  0.8437  0.1719
  937MOL0     C29179   7.687   2.967  11.423  0.3032 -0.1460 -0.1426
  937MOL0     C29180   7.542   3.009  11.472 -0.4291  0.5353 -0.1715
  937MOL0     C29181   7.508   2.946  11.609  0.3454 -0.0723  0.3942
  937MOL0     C29182   7.565   2.806  11.638  0.6597  0.3692 -1.0103
  937MOL0     C29183   7.484   2.765  11.769 -0.0924 -0.5298  1.1385
  937MOL0     C29184   7.533   2.641  11.824 -0.8914 -0.1936  0.8324
  937MOL0     N29185   7.477   2.520  11.760 -1.6801 -0.1363  0.2787
  937MOL0     C29186   7.536   2.454  11.650  0.2976  0.4925 -0.2793
  937MOL0     C29187   7.430   2.371  11.606  0.0596 -1.2274 -0.5281
  937MOL0     C29188   7.429   2.302  11.485  0.2036 -0.0213  0.5196
  937MOL0     C29189   7.425   2.394  11.354  0.4166 -0.2249 -0.9885
  937MOL0     C29190   7.311   2.491  11.350  0.4783 -0.6108  0.2111
  937MOL0     C29191   7.297   2.546  11.204 -0.0044  0.3930 -1.6716
  937MOL0     O29192   7.306   2.452  11.098 -0.5009  0.1301 -0.0913
  937MOL0     C29193   7.305   2.507  10.970 -0.0257  0.1349  1.0532
  937MOL0     C29194   7.328   2.419  10.860 -0.7139  0.7777  0.1930
  937MOL0     C29195   7.343   2.461  10.729  0.4963 -0.0600 -0.7039
  937MOL0     C29196   7.383   2.354  10.628 -0.3555  0.3777  0.7001
  937MOL0     C29197   7.299   2.597  10.704 -1.1611  0.1889  0.2505
  937MOL0     C29198   7.304   2.652  10.569  0.6070 -0.4067 -0.3515
  937MOL0     O29199   7.211   2.742  10.527  0.2697  0.6083  0.3493
  937MOL0     C29200   7.197   2.767  10.389 -0.8036  0.3984 -0.2238
  937MOL0     C29201   7.224   2.676  10.282  0.5080 -1.0312  0.2581
  937MOL0     C29202   7.204   2.696  10.150 -0.9398  0.5282  0.5470
  937MOL0     C29203   7.153   2.826  10.106 -0.3483  0.4515 -0.0751
  937MOL0     O29204   7.099   2.835   9.974 -0.5934  0.0196  0.5492
  937MOL0     C29205   7.129   2.949   9.894  0.0938 -0.2452 -0.1105
  937MOL0     C29206   7.060   3.084   9.920  0.0075  0.2804 -0.3829
  937MOL0     C29207   6.907   3.090   9.950  0.4489  0.4827  0.5399
  937MOL0     C29208   6.841   3.094   9.814  0.2300  0.4901  0.8796
  937MOL0     C29209   6.822   2.963   9.734 -0.8066 -0.8306  0.0675
  937MOL0     C29210   6.734   3.006   9.617  0.0014  0.3801  1.0172
  937MOL0     C29211   6.737   2.899   9.512  0.2763  1.2287  0.0163
  937MOL0     C29212   6.640   2.939   9.398 -1.3062  0.4598 -0.7193
  937MOL0    Cl29213   6.611   2.798   9.289 -0.2030 -0.3400 -0.2954
  937MOL0     C29214   7.132   2.916  10.213  0.1949 -0.3824  0.2394
  937MOL0     C29215   7.158   2.886  10.349  0.7036 -0.2311 -0.3665
  937MOL0     O29216   7.398   2.619  10.503 -0.2048  0.2461 -0.2494
  937MOL0     C29217   7.255   2.684  10.806  0.6251  0.7290  0.4626
  937MOL0     C29218   7.259   2.641  10.941 -0.8800  0.3541 -0.6178
  937MOL0     N29219   7.321   2.382  11.690  0.4763 -1.1957  0.7700
  937MOL0     N29220   7.347   2.475  11.773 -0.1608 -0.3715 -0.3397
  937MOL0     C29221   8.077   2.925  11.089  0.8950  0.0983 -0.5416
  937MOL0     C29222   8.167   2.872  10.990  0.4156  0.3109 -0.0535
  937MOL0     C29223   8.456   2.940  10.627  0.5783  1.0278  0.3473
  937MOL0     C29224   8.382   2.871  10.536 -1.0370 -0.2461 -0.3905
  937MOL0     C29225   8.416   2.856  10.402  0.0027  0.1726  0.7546
  937MOL0     C29226   8.531   2.912  10.363 -0.7617  0.2594  0.8585
  937MOL0     O29227   8.581   2.923  10.234  0.1866  0.0553  0.6624
  937MOL0     C29228   8.551   2.806  10.154  0.6495 -0.5505 -0.0407
  937MOL0     C29229   8.666   2.769  10.057 -0.1639  0.3843 -0.6135
  937MOL0     C29230   8.652   2.860   9.934  0.5370 -0.3387 -0.2244
  937MOL0     C29231   8.791   2.872   9.858  0.3818  0.0810 -0.0613
  937MOL0     C29232   8.832   2.748   9.795  0.2447 -0.2873 -0.1588
  937MOL0     C29233   8.866   2.672   9.713 -0.3258  1.0089 -0.4187
  937MOL0     C29234   8.616   2.973  10.460  0.0850 -0.9437 -0.7078
  937MOL0     C29235   8.584   2.991  10.593  0.2380  0.3089  0.8315
  937MOL0     C29236   8.679   3.084  10.675  0.7700 -0.1924 -0.2417
  937MOL0     H29237   8.131   3.128  10.753 -2.3194  0.3264 -0.4510
  937MOL0     H29238   7.962   3.202  10.917  1.9607  1.6687  2.4028
  937MOL0     H29239   7.947   3.012  11.314 -0.9786  0.1147  0.4188
  937MOL0     H29240   7.846   2.907  11.208 -1.4104 -0.9948  1.6510
  937MOL0     H29241   7.769   3.158  11.360 -2.0304  1.5617  0.3029
  937MOL0     H29242   7.666   3.078  11.241  1.0601 -0.9143 -0.4667
  937MOL0     H29243   7.683   2.864  11.387 -2.1459 -0.4672  0.8514
  937MOL0     H29244   7.758   2.974  11.506 -0.2887 -1.3037  0.4895
  937MOL0     H29245   7.545   3.117  11.493 -0.5099  0.4535  0.2710
  937MOL0     H29246   7.470   2.981  11.394  1.1171 -0.9888 -1.1144
  937MOL0     H29247   7.399   2.950  11.604  0.4107  1.2189 -0.5053
  937MOL0     H29248   7.537   3.016  11.688  0.9500  1.1342 -0.8677
  937MOL0     H29249   7.545   2.738  11.555 -0.0857  1.2976 -1.6078
  937MOL0     H29250   7.673   2.801  11.657  0.8258  1.1285 -1.6732
  937MOL0     H29251   7.378   2.756  11.747  0.4440 -0.6085 -1.9445
  937MOL0     H29252   7.506   2.839  11.847 -0.6413 -0.5757  1.3416
  937MOL0     H29253   7.641   2.635  11.808 -1.1986 -1.2431 -1.1002
  937MOL0     H29254   7.510   2.629  11.931  1.1088 -1.2509  1.2007
  937MOL0     H29255   7.636   2.463  11.609  1.0490 -0.9667  1.1404
  937MOL0     H29256   7.339   2.241  11.484 -1.6574  2.4747 -2.8373
  937MOL0     H29257   7.521   2.243  11.479  0.9562  1.0746  0.9853
  937MOL0     H29258   7.515   2.456  11.342  0.2200  0.0773 -0.9302
  937MOL0     H29259   7.420   2.334  11.263 -2.6076  1.1803 -1.9019
  937MOL0     H29260   7.226   2.443  11.399  0.2535  0.6535  1.1317
  937MOL0     H29261   7.320   2.581  11.413 -1.4834  0.5433 -1.0648
  937MOL0     H29262   7.192   2.575  11.209 -0.4190 -1.1634 -0.5697
  937MOL0     H29263   7.362   2.633  11.190 -0.3736  0.9127 -0.2556
  937MOL0     H29264   7.356   2.320  10.891  2.6043  2.0043  1.5114
  937MOL0     H29265   7.491   2.334  10.629  0.2884  3.3936  2.3714
  937MOL0     H29266   7.337   2.389  10.535 -0.2989  1.2575  0.9976
  937MOL0     H29267   7.330   2.261  10.651 -2.0678  1.5468  1.7223
  937MOL0     H29268   7.259   2.575  10.303 -0.4935 -1.4390  0.0086
  937MOL0     H29269   7.213   2.613  10.081 -2.1061  1.3223 -0.6188
  937MOL0     H29270   7.236   2.968   9.909  0.2271 -0.5760 -0.6193
  937MOL0     H29271   7.100   2.926   9.791 -2.1281  0.3783  0.3294
  937MOL0     H29272   7.114   3.124  10.006  2.4321  0.3724 -1.8578
  937MOL0     H29273   7.091   3.152   9.840  2.4958  0.7457  0.8871
  937MOL0     H29274   6.862   3.168  10.013 -1.5788  0.8568 -1.2409
  937MOL0     H29275   6.872   2.999   9.999  1.1716 -0.7381 -1.1089
  937MOL0     H29276   6.890   3.172   9.756  1.1451 -1.1247 -0.6057
  937MOL0     H29277   6.735   3.120   9.827 -1.6222 -5.0137 -0.5249
  937MOL0     H29278   6.916   2.925   9.694 -1.6313 -1.4601 -1.3479
  937MOL0     H29279   6.772   2.882   9.789 -1.4291 -0.8554 -0.5281
  937MOL0     H29280   6.758   3.103   9.572  0.5385 -0.5524 -0.8303
  937MOL0     H29281   6.630   3.013   9.652 -0.1229  0.8503  0.5666
  937MOL0     H29282   6.697   2.806   9.554 -0.7973  1.9970  0.7622
  937MOL0     H29283   6.835   2.892   9.464  1.3096  0.7602  2.0865
  937MOL0     H29284   6.699   3.018   9.350  4.2392 -2.2569  0.7856
  937MOL0     H29285   6.547   2.981   9.439  0.8589  2.2588  2.9335
  937MOL0     H29286   7.088   3.011  10.184  1.1212 -0.0523 -0.1237
  937MOL0     H29287   7.120   2.954  10.425 -2.0177 -3.7905  1.7677
  937MOL0     H29288   7.203   2.775  10.781 -2.2908 -1.5487 -2.6762
  937MOL0     H29289   7.223   2.710  11.017  0.3316 -0.3159  0.6259
  937MOL0     H29290   8.069   2.872  11.184 -0.9838  2.0899  0.5094
  937MOL0     H29291   8.222   2.780  11.011  1.3309  0.6381 -0.9390
  937MOL0     H29292   8.286   2.828  10.561 -1.1298 -1.6636 -2.8250
  937MOL0     H29293   8.349   2.802  10.336 -1.3001  0.2018  2.0106
  937MOL0     H29294   8.541   2.716  10.215 -0.1471  0.1846  0.9341
  937MOL0     H29295   8.457   2.807  10.099  0.3254 -1.6553  0.4651
  937MOL0     H29296   8.650   2.664  10.031 -1.9677 -0.7653  4.1850
  937MOL0     H29297   8.760   2.776  10.112 -0.0177 -1.0573 -0.6326
  937MOL0     H29298   8.587   2.804   9.865  1.2810 -0.5467 -0.7732
  937MOL0     H29299   8.608   2.959   9.948  0.1465 -0.0128 -3.0206
  937MOL0     H29300   8.867   2.904   9.931 -0.2485  1.2378  0.1089
  937MOL0     H29301   8.793   2.943   9.775  1.4495 -0.9683 -0.9732
  937MOL0     H29302   8.897   2.610   9.633  1.7314  1.3140  0.0842
  937MOL0     H29303   8.713   3.006  10.425  0.8811 -0.0254  2.0926
  937MOL0     H29304   8.780   3.083  10.632  0.5664  1.1654 -0.8123
  937MOL0     H29305   8.637   3.185  10.665  0.1394 -0.4953 -0.7625
  937MOL0     H29306   8.678   3.046  10.777 -2.4999  2.9386  1.1053
  938MOL0     O29307   6.109   9.412   3.676  0.2056  0.4492 -0.2564
  938MOL0     C29308   6.084   9.521   3.633  0.8663 -0.0468  0.2070
  938MOL0     O29309   6.115   9.558   3.505  0.1315 -0.2392  0.2639
  938MOL0     C29310   6.108   9.473   3.399 -0.1726  0.0422  0.0659
  938MOL0     C29311   6.003   9.381   3.380  0.0142  0.4988  0.0472
  938MOL0     C29312   5.992   9.313   3.263  0.6482 -0.4274 -0.0772
  938MOL0     C29313   6.075   9.335   3.161  0.1293  0.3763 -0.0379
  938MOL0     O29314   6.062   9.252   3.045 -0.6341  0.2053  0.5816
  938MOL0     C29315   6.177   9.209   2.974  0.3277 -0.1927 -0.0288
  938MOL0     C29316   6.131   9.102   2.867 -0.7961  0.5369  0.1735
  938MOL0     C29317   6.023   9.144   2.772 -0.0939  0.8710  0.4752
  938MOL0     C29318   6.068   9.264   2.683  0.2401 -0.2439  0.3725
  938MOL0     C29319   5.962   9.289   2.570  0.4051  0.8893  0.4895
  938MOL0     C29320   5.938   9.437   2.544 -0.3803 -0.1494  0.4733
  938MOL0     C29321   5.850   9.462   2.421  0.4909  0.3441 -0.5356
  938MOL0     C29322   5.849   9.606   2.375  0.2893 -0.1832 -0.5827
  938MOL0     N29323   5.736   9.640   2.298 -0.3701  0.4356  0.6161
  938MOL0     C29324   5.610   9.656   2.348 -0.4293 -0.0472 -0.3250
  938MOL0     C29325   5.539   9.701   2.239  0.0839  0.6690 -0.1885
  938MOL0     C29326   5.389   9.755   2.237  0.3521  0.1314 -0.2430
  938MOL0     C29327   5.368   9.858   2.120 -0.9760 -0.7464  0.0094
  938MOL0     C29328   5.229   9.918   2.129  0.3098 -0.2904 -0.9894
  938MOL0     C29329   5.188   9.986   2.001 -0.1550 -0.0416 -0.6922
  938MOL0     O29330   5.282  10.093   1.978 -0.1117 -0.4957 -0.0264
  938MOL0     C29331   5.249  10.174   1.873 -0.2593  0.9252 -0.1273
  938MOL0     C29332   5.137  10.156   1.785 -0.2657 -0.9504 -0.4757
  938MOL0     C29333   5.102  10.249   1.684  0.5929 -0.2784  0.0135
  938MOL0     C29334   4.972  10.226   1.613 -0.1072  0.3863 -0.1537
  938MOL0     C29335   5.178  10.369   1.659 -1.0871  0.0635  0.0826
  938MOL0     C29336   5.149  10.466   1.556  0.7256 -0.1597  0.6399
  938MOL0     O29337   5.252  10.563   1.543 -0.2191 -0.0804 -0.6660
  938MOL0     C29338   5.232  10.676   1.472 -0.1730 -0.4431 -0.0528
  938MOL0     C29339   5.335  10.772   1.492 -0.7682  0.0669 -0.4695
  938MOL0     C29340   5.322  10.904   1.455  0.9913  0.0990 -0.3885
  938MOL0     C29341   5.206  10.950   1.395 -0.1267  0.0768  0.0339
  938MOL0     O29342   5.184  11.090   1.387  0.0565  0.2687  0.6880
  938MOL0     C29343   5.123  11.120   1.252  1.1411  0.3434 -0.6480
  938MOL0     C29344   5.168  11.258   1.212  0.5668 -1.2751  0.2899
  938MOL0     C29345   5.319  11.280   1.202  0.2769 -0.7223 -0.2372
  938MOL0     C29346   5.355  11.340   1.070 -0.1377 -0.0969  0.2470
  938MOL0     C29347   5.501  11.352   1.045  0.3313 -0.7657 -0.3273
  938MOL0     C29348   5.530  11.368   0.889 -0.2762  0.0002 -0.5487
  938MOL0     C29349   5.676  11.419   0.865 -0.5013  0.8410  0.4802
  938MOL0     C29350   5.785  11.316   0.912 -0.5313  0.8327  0.7221
  938MOL0    Cl29351   5.784  11.179   0.812  0.3102  0.3265 -0.1850
  938MOL0     C29352   5.114  10.855   1.351 -0.2576 -0.0241  0.6236
  938MOL0     C29353   5.129  10.716   1.385 -0.1379  0.2170  0.7582
  938MOL0     O29354   5.034  10.478   1.502  0.0252  0.2375 -0.2935
  938MOL0     C29355   5.291  10.379   1.740 -0.7708  1.0316 -0.6565
  938MOL0     C29356   5.330  10.284   1.836 -0.9931  0.0288 -0.0080
  938MOL0     N29357   5.629   9.702   2.130 -0.1626 -0.1802  0.4786
  938MOL0     N29358   5.750   9.676   2.170  0.9813  0.0330 -0.2519
  938MOL0     C29359   6.178   9.435   3.175 -0.8916  0.5583 -0.1995
  938MOL0     C29360   6.185   9.514   3.289 -0.4081  0.5635 -0.1255
  938MOL0     C29361   6.024   9.625   3.731 -0.7174  0.4401 -0.6643
  938MOL0     C29362   6.009   9.760   3.687  1.3065  0.1009  0.2779
  938MOL0     C29363   5.952   9.860   3.765  0.4966 -0.5521 -0.4407
  938MOL0     C29364   5.924   9.832   3.897  0.3651 -0.1443 -0.2959
  938MOL0     O29365   5.849   9.919   3.979 -0.0931  0.8151  0.5661
  938MOL0     C29366   5.931   9.997   4.064  0.7958 -0.0066 -0.3019
  938MOL0     C29367   5.840  10.015   4.191  0.2462  0.0289 -0.7835
  938MOL0     C29368   5.821   9.887   4.277  0.0651 -0.1303 -0.2569
  938MOL0     C29369   5.704   9.887   4.383  0.4352 -0.3102  0.2841
  938MOL0     C29370   5.681   9.758   4.449  0.7803 -0.0816  0.4885
  938MOL0     C29371   5.642   9.651   4.495  0.8083 -0.4116 -0.1306
  938MOL0     C29372   5.947   9.697   3.946 -0.0657 -0.8105  0.2921
  938MOL0     C29373   6.003   9.600   3.866  0.1577  0.5852 -0.2039
  938MOL0     C29374   6.011   9.458   3.927  0.1104 -0.6680  0.2728
  938MOL0     H29375   5.928   9.368   3.458 -0.8196  0.0260 -0.8240
  938MOL0     H29376   5.902   9.254   3.251 -0.8141  1.4781  0.9240
  938MOL0     H29377   6.236   9.160   3.051  1.1567 -3.1000 -2.3033
  938MOL0     H29378   6.232   9.294   2.932  0.1999  1.4037  2.7953
  938MOL0     H29379   6.217   9.073   2.807 -0.2455  3.1680 -0.4161
  938MOL0     H29380   6.107   9.008   2.919  2.0749  0.0916  0.8839
  938MOL0     H29381   6.014   9.065   2.697  1.4731 -0.5083  1.6956
  938MOL0     H29382   5.937   9.172   2.834  0.4821  0.1600  1.6041
  938MOL0     H29383   6.068   9.351   2.750 -0.0230 -0.6019  0.8479
  938MOL0     H29384   6.168   9.240   2.645  1.0926  1.1823  1.5920
  938MOL0     H29385   5.870   9.259   2.621  0.0097 -0.0422 -0.7134
  938MOL0     H29386   5.972   9.225   2.482 -2.7931  3.9533 -2.4345
  938MOL0     H29387   5.895   9.481   2.635  1.0404 -0.3936  1.3117
  938MOL0     H29388   6.037   9.483   2.538 -1.3436  2.0068  0.2201
  938MOL0     H29389   5.746   9.443   2.452  0.6295  0.9951  0.3635
  938MOL0     H29390   5.876   9.393   2.340 -0.0509 -0.1148 -0.3250
  938MOL0     H29391   5.841   9.684   2.451 -2.6104  0.0727 -1.0346
  938MOL0     H29392   5.941   9.630   2.320 -0.7190 -0.8391 -2.6710
  938MOL0     H29393   5.586   9.658   2.454 -1.0844  0.8776 -0.4759
  938MOL0     H29394   5.375   9.817   2.326 -0.0111 -0.2886 -0.0036
  938MOL0     H29395   5.311   9.679   2.228 -0.1678  0.7302 -0.9718
  938MOL0     H29396   5.439   9.939   2.138 -1.2998 -0.1021 -1.4883
  938MOL0     H29397   5.385   9.799   2.030 -2.7449 -2.6728  0.8358
  938MOL0     H29398   5.151   9.853   2.170  1.6460  0.2434  2.8260
  938MOL0     H29399   5.229   9.987   2.214  0.8272 -1.0859 -0.3294
  938MOL0     H29400   5.191   9.910   1.923 -0.0965  1.7312 -2.5153
  938MOL0     H29401   5.085  10.023   2.005 -0.0793  0.1657 -0.6064
  938MOL0     H29402   5.084  10.063   1.798  4.2335 -3.3851  3.6502
  938MOL0     H29403   4.895  10.293   1.652  1.2081  0.6987  2.0598
  938MOL0     H29404   4.940  10.122   1.629  1.2924 -0.2490 -1.2168
  938MOL0     H29405   4.986  10.248   1.507 -1.0209 -3.7590 -1.3312
  938MOL0     H29406   5.413  10.742   1.562 -1.3671 -1.9561 -0.6242
  938MOL0     H29407   5.388  10.984   1.487 -0.8085  2.5509 -2.3809
  938MOL0     H29408   5.155  11.061   1.166  0.2175  0.1678 -0.8766
  938MOL0     H29409   5.014  11.113   1.263  1.1206 -2.3738 -1.7472
  938MOL0     H29410   5.124  11.284   1.115 -1.0550 -0.8383  1.1063
  938MOL0     H29411   5.125  11.325   1.287  0.5232  0.1857 -0.9919
  938MOL0     H29412   5.367  11.182   1.202 -1.5387 -1.6741 -1.6659
  938MOL0     H29413   5.355  11.352   1.276  1.2101  0.1815 -1.5318
  938MOL0     H29414   5.315  11.442   1.063  0.3148  0.1920  1.6506
  938MOL0     H29415   5.313  11.278   0.990  0.6316  0.3295 -0.5082
  938MOL0     H29416   5.538  11.436   1.104 -1.5721  0.3450 -0.6247
  938MOL0     H29417   5.549  11.257   1.071  4.2295  1.2980  0.7464
  938MOL0     H29418   5.455  11.431   0.841 -1.0027  0.4796  1.1364
  938MOL0     H29419   5.523  11.269   0.842 -1.2866  0.7098 -1.9793
  938MOL0     H29420   5.703  11.509   0.920  0.6251  1.6159 -1.2498
  938MOL0     H29421   5.678  11.445   0.759 -3.9824 -0.1676  0.0628
  938MOL0     H29422   5.764  11.291   1.017 -3.9289  1.5481  0.3217
  938MOL0     H29423   5.883  11.364   0.901 -0.9001  1.1454 -1.8111
  938MOL0     H29424   5.021  10.873   1.296  0.0624  1.4297  0.5207
  938MOL0     H29425   5.058  10.649   1.338  0.4372 -0.6133  1.0457
  938MOL0     H29426   5.348  10.471   1.750 -2.1277  1.8954 -0.6914
  938MOL0     H29427   5.409  10.301   1.909 -2.5283 -0.7471  1.9317
  938MOL0     H29428   6.245   9.464   3.095  2.3173 -1.5103  1.5138
  938MOL0     H29429   6.261   9.591   3.296 -0.6742  0.7252  1.4059
  938MOL0     H29430   6.044   9.790   3.589 -0.5845 -0.9838 -0.7908
  938MOL0     H29431   5.943   9.959   3.722  0.8018 -0.1348  0.4183
  938MOL0     H29432   6.024   9.946   4.089  0.6539  0.0125  0.2874
  938MOL0     H29433   5.950  10.095   4.021 -3.7746  1.2824  0.1112
  938MOL0     H29434   5.739  10.048   4.163 -0.3432 -2.6015 -2.1228
  938MOL0     H29435   5.893  10.096   4.242 -2.0670  1.6376 -0.7954
  938MOL0     H29436   5.798   9.804   4.209  1.5374 -1.3405  0.6614
  938MOL0     H29437   5.911   9.876   4.338 -0.0720  1.7020  0.3248
  938MOL0     H29438   5.617   9.916   4.323  3.2234 -0.0910 -4.0695
  938MOL0     H29439   5.723   9.964   4.459  2.5902  0.8962 -1.3677
  938MOL0     H29440   5.595   9.564   4.536  1.1999 -1.2172 -1.3293
  938MOL0     H29441   5.920   9.676   4.049 -0.3873  1.5024  0.7527
  938MOL0     H29442   6.118   9.434   3.930  0.4671  0.8543  0.4748
  938MOL0     H29443   5.969   9.457   4.028 -1.0588 -0.8304 -0.1973
  938MOL0     H29444   5.968   9.375   3.870 -2.4842 -0.6182  2.0170
  939MOL0     O29445   3.443   5.089  11.438  0.1215  0.7331 -0.8070
  939MOL0     C29446   3.428   5.158  11.539 -0.4502  0.3625  0.0799
  939MOL0     O29447   3.472   5.291  11.553  0.2086  0.0528  0.6943
  939MOL0     C29448   3.547   5.352  11.453  0.7582  0.3728  0.5319
  939MOL0     C29449   3.518   5.488  11.437  1.6168 -0.2026  0.3224
  939MOL0     C29450   3.587   5.567  11.353  0.9253  0.5345 -1.0248
  939MOL0     C29451   3.687   5.520  11.284 -0.5147 -0.1563  0.6852
  939MOL0     O29452   3.755   5.608  11.200 -0.5279  0.4800  0.3201
  939MOL0     C29453   3.894   5.577  11.160 -0.3431  0.7993  0.2842
  939MOL0     C29454   3.957   5.691  11.084 -0.4094 -0.3269 -0.0543
  939MOL0     C29455   4.108   5.696  11.065 -0.3144  0.4612 -0.4127
  939MOL0     C29456   4.149   5.826  10.987 -0.3769 -0.4803  0.0845
  939MOL0     C29457   4.299   5.847  10.978 -0.0707 -0.8016  0.4449
  939MOL0     C29458   4.342   5.991  10.947 -0.7337  0.9068 -0.0436
  939MOL0     C29459   4.363   6.002  10.797 -0.2193  1.2078 -0.2020
  939MOL0     C29460   4.358   6.155  10.759  0.1571 -0.1069  0.7588
  939MOL0     N29461   4.484   6.232  10.791  1.1388  0.1310 -1.0880
  939MOL0     C29462   4.503   6.304  10.903 -0.5796  0.8020  0.3289
  939MOL0     C29463   4.638   6.323  10.899 -1.3683 -0.6806 -0.0519
  939MOL0     C29464   4.722   6.395  10.996  0.9648 -0.0058 -0.2177
  939MOL0     C29465   4.855   6.337  11.016  0.3003 -0.6597  0.8737
  939MOL0     C29466   4.859   6.223  11.115 -0.7742 -0.6684 -0.4625
  939MOL0     C29467   4.885   6.279  11.261  0.1869  0.7880 -0.8914
  939MOL0     O29468   4.865   6.160  11.351 -0.1751 -0.7612 -0.4660
  939MOL0     C29469   4.854   6.188  11.488  0.4187  0.2365  0.7025
  939MOL0     C29470   4.771   6.106  11.572  0.1891 -0.5501  0.2304
  939MOL0     C29471   4.753   6.126  11.715  0.4119 -0.2200 -0.1489
  939MOL0     C29472   4.664   6.030  11.797  0.0821 -0.2120  0.1582
  939MOL0     C29473   4.811   6.250  11.760  0.0999  0.3348  0.3078
  939MOL0     C29474   4.768   6.295  11.902 -0.7667 -0.0860  0.0193
  939MOL0     O29475   4.768   6.424  11.914 -0.2650 -0.5463  0.0814
  939MOL0     C29476   4.698   6.499  12.011  0.2466  0.6225  0.5877
  939MOL0     C29477   4.578   6.468  12.079 -0.5609 -0.2226  0.8518
  939MOL0     C29478   4.530   6.563  12.170 -0.4978 -0.6554 -0.8060
  939MOL0     C29479   4.585   6.692  12.178 -1.0618  0.2213  0.9184
  939MOL0     O29480   4.535   6.791  12.255  0.0429  0.0453 -0.3849
  939MOL0     C29481   4.462   6.758  12.370  0.3200  0.1095 -0.4690
  939MOL0     C29482   4.468   6.889  12.436 -0.4952 -0.7817 -0.5196
  939MOL0     C29483   4.374   6.912  12.558 -0.5950 -0.2385 -0.6152
  939MOL0     C29484   4.413   7.038  12.639 -0.8297  0.4840  0.1794
  939MOL0     C29485   4.424   7.171  12.560 -0.1623  0.9425  0.9096
  939MOL0     C29486   4.461   7.280  12.649 -0.0897  0.4424  0.5934
  939MOL0     C29487   4.421   7.419  12.588  0.1234 -0.2251 -0.3399
  939MOL0     C29488   4.339   7.508  12.680  0.9683 -0.1412 -0.5910
  939MOL0    Cl29489   4.427   7.546  12.826  0.3731 -0.2995 -0.0144
  939MOL0     C29490   4.700   6.723  12.105 -0.8344  0.7449  0.0855
  939MOL0     C29491   4.762   6.631  12.025  0.3481 -0.3024  0.0120
  939MOL0     O29492   4.770   6.221  11.999 -0.0852  1.0871  0.1710
  939MOL0     C29493   4.888   6.333  11.673  0.4372  0.1354  0.2301
  939MOL0     C29494   4.911   6.306  11.543 -0.4323  1.0058  0.1217
  939MOL0     N29495   4.686   6.276  10.771  1.8147  0.6035 -0.0110
  939MOL0     N29496   4.588   6.221  10.710 -0.0909  0.0918  0.3686
  939MOL0     C29497   3.716   5.383  11.287 -1.1515 -0.0576  0.5224
  939MOL0     C29498   3.654   5.302  11.381 -0.4814 -0.1099 -0.1444
  939MOL0     C29499   3.337   5.106  11.641  0.0332 -0.4029 -0.6624
  939MOL0     C29500   3.238   5.192  11.691 -0.1816 -0.5575 -0.4590
  939MOL0     C29501   3.148   5.138  11.778  0.0396 -0.4855 -0.5675
  939MOL0     C29502   3.140   5.001  11.810  0.1012 -0.0648  0.3089
  939MOL0     O29503   3.023   4.949  11.864 -0.8032  0.0459 -0.1725
  939MOL0     C29504   3.010   4.809  11.878  0.1175  0.2697 -0.1971
  939MOL0     C29505   2.866   4.764  11.915 -0.2828  0.2118 -0.2153
  939MOL0     C29506   2.760   4.756  11.792  0.0192 -0.1821 -0.1911
  939MOL0     C29507   2.696   4.888  11.753  1.2202 -0.9918 -0.8207
  939MOL0     C29508   2.756   4.952  11.638 -0.1653 -0.6894  0.3983
  939MOL0     C29509   2.830   4.994  11.547 -0.2132  0.1516  0.4150
  939MOL0     C29510   3.254   4.923  11.777 -0.8766 -0.1291 -0.5099
  939MOL0     C29511   3.351   4.968  11.685 -0.3152 -0.0349 -0.4561
  939MOL0     C29512   3.466   4.873  11.650  0.8819 -0.3596  0.0150
  939MOL0     H29513   3.426   5.534  11.473  2.0536  0.5751  0.4769
  939MOL0     H29514   3.554   5.670  11.346  0.4483  0.6818  1.9084
  939MOL0     H29515   3.897   5.483  11.104 -6.7168  2.0115 -2.9435
  939MOL0     H29516   3.949   5.557  11.253  0.1154 -0.0180 -0.1539
  939MOL0     H29517   3.907   5.703  10.987 -0.0945  0.0726 -0.1697
  939MOL0     H29518   3.934   5.780  11.143  1.3992 -0.9363  1.6909
  939MOL0     H29519   4.144   5.694  11.168  0.5875  1.5067 -0.6847
  939MOL0     H29520   4.138   5.614  11.000  1.9535  1.0082 -0.1413
  939MOL0     H29521   4.108   5.825  10.885  0.4877  0.7018 -0.2977
  939MOL0     H29522   4.108   5.906  11.049  0.8350 -2.3379  3.5191
  939MOL0     H29523   4.343   5.778  10.905  0.7366  2.1843 -2.1309
  939MOL0     H29524   4.337   5.818  11.077 -0.3097 -3.4856 -0.1570
  939MOL0     H29525   4.264   6.056  10.989 -0.9307  0.7761 -0.2065
  939MOL0     H29526   4.435   6.011  11.000 -0.1143 -3.7881  1.1074
  939MOL0     H29527   4.295   5.939  10.739 -0.0368  0.6189  0.2225
  939MOL0     H29528   4.460   5.965  10.764 -0.4969 -1.6073  1.8065
  939MOL0     H29529   4.337   6.170  10.653  2.8096  0.9837  0.3064
  939MOL0     H29530   4.264   6.183  10.807 -1.5182  0.0305 -2.3656
  939MOL0     H29531   4.425   6.320  10.976 -1.1357  0.8569 -0.2728
  939MOL0     H29532   4.664   6.404  11.088  1.5114  0.9248  0.0435
  939MOL0     H29533   4.735   6.499  10.964  0.9873  0.1786  0.3809
  939MOL0     H29534   4.893   6.304  10.919 -1.2011  0.3501 -0.0951
  939MOL0     H29535   4.924   6.415  11.048  1.3839 -0.3942 -1.8837
  939MOL0     H29536   4.762   6.172  11.119 -1.2979  0.2304 -1.2222
  939MOL0     H29537   4.944   6.156  11.100  1.6597  1.7065  1.7887
  939MOL0     H29538   4.983   6.323  11.284  0.4181 -0.8327  1.5751
  939MOL0     H29539   4.801   6.347  11.278 -1.9164 -1.2161 -2.6986
  939MOL0     H29540   4.723   6.014  11.539 -0.2307 -0.7235  1.3002
  939MOL0     H29541   4.565   6.070  11.820  0.0667  0.6767 -1.3492
  939MOL0     H29542   4.717   5.993  11.885  0.0296 -0.8063 -0.0547
  939MOL0     H29543   4.656   5.934  11.745 -0.2101  0.5884 -1.3097
  939MOL0     H29544   4.532   6.373  12.051 -0.4741  0.1829 -0.7970
  939MOL0     H29545   4.438   6.538  12.220 -0.5281  1.6770  0.4687
  939MOL0     H29546   4.360   6.735  12.339  0.0677  0.9117 -0.2736
  939MOL0     H29547   4.502   6.676  12.430 -3.1984 -0.4555  1.3481
  939MOL0     H29548   4.570   6.918  12.466 -1.7819  2.6945  1.1010
  939MOL0     H29549   4.438   6.971  12.370  0.2172  1.1978  1.4889
  939MOL0     H29550   4.370   6.826  12.626 -2.4459 -1.3425 -2.0286
  939MOL0     H29551   4.273   6.923  12.520 -2.0415  3.4983  3.4478
  939MOL0     H29552   4.514   7.021  12.678 -0.8889 -0.3141  0.0024
  939MOL0     H29553   4.341   7.050  12.720  1.5852  2.7424  2.1697
  939MOL0     H29554   4.508   7.162  12.490 -1.2173  0.6816 -0.3689
  939MOL0     H29555   4.324   7.183  12.518 -1.6411  0.3119  3.9788
  939MOL0     H29556   4.566   7.270  12.676  1.0003 -3.5239 -3.7382
  939MOL0     H29557   4.403   7.268  12.741  0.4507  0.2773  0.9164
  939MOL0     H29558   4.360   7.408  12.498 -3.7766 -1.8890  2.2099
  939MOL0     H29559   4.518   7.463  12.565  0.3770 -0.8277 -0.4448
  939MOL0     H29560   4.254   7.449  12.715  0.5169  0.5985 -0.4034
  939MOL0     H29561   4.308   7.599  12.628 -2.7858 -1.0359 -0.1970
  939MOL0     H29562   4.751   6.819  12.112  1.2989 -0.4207  1.9176
  939MOL0     H29563   4.850   6.664  11.971 -1.4994  4.0543 -0.6790
  939MOL0     H29564   4.927   6.426  11.714  0.4159  0.1541  0.2091
  939MOL0     H29565   4.978   6.362  11.479  0.9541 -0.7812 -0.0537
  939MOL0     H29566   3.788   5.340  11.219 -2.4755 -0.9478 -0.3668
  939MOL0     H29567   3.678   5.196  11.392  2.0197  0.5358  1.4400
  939MOL0     H29568   3.229   5.288  11.642 -0.6699 -0.6742 -0.6111
  939MOL0     H29569   3.055   5.189  11.801  0.6798  0.7701 -0.6580
  939MOL0     H29570   3.042   4.753  11.790 -0.0921 -0.9567  0.4769
  939MOL0     H29571   3.076   4.778  11.961  0.9025 -1.2292 -1.3406
  939MOL0     H29572   2.822   4.834  11.986 -1.1998  0.6775 -1.2038
  939MOL0     H29573   2.867   4.666  11.963 -0.2957  0.9112  1.2715
  939MOL0     H29574   2.812   4.708  11.708  1.6641 -1.2294  1.3461
  939MOL0     H29575   2.674   4.693  11.817  1.6531 -1.6564  2.1369
  939MOL0     H29576   2.687   4.954  11.840  0.8707 -4.5516  2.0868
  939MOL0     H29577   2.589   4.873  11.737  1.2087 -2.3086  0.2905
  939MOL0     H29578   2.882   5.030  11.461 -0.2811 -0.0341  0.2960
  939MOL0     H29579   3.260   4.827  11.828  4.0203  1.6560  3.0113
  939MOL0     H29580   3.452   4.774  11.694  0.0397 -0.5331 -0.6297
  939MOL0     H29581   3.480   4.864  11.542 -0.4041  0.8629 -0.2735
  939MOL0     H29582   3.565   4.905  11.686  1.8489 -2.1136 -0.9410
  940MOL0     O29583   9.247   9.031   1.491  0.8415  0.0806  0.3592
  940MOL0     C29584   9.340   9.104   1.471 -0.3390  0.6733  0.8853
  940MOL0     O29585   9.469   9.074   1.514  0.1785  0.1430  1.1476
  940MOL0     C29586   9.495   8.969   1.606  0.4582 -0.2298  0.4872
  940MOL0     C29587   9.468   8.998   1.738 -1.4127 -0.4539  0.3260
  940MOL0     C29588   9.460   8.888   1.826 -0.6979 -0.4500  0.1262
  940MOL0     C29589   9.513   8.762   1.785  0.3047  0.3565 -0.6578
  940MOL0     O29590   9.532   8.655   1.864 -0.1017  0.2151 -0.8175
  940MOL0     C29591   9.561   8.673   1.999  0.5433 -0.0203 -0.3609
  940MOL0     C29592   9.585   8.536   2.052  1.3430  0.2657 -0.3935
  940MOL0     C29593   9.651   8.524   2.192 -0.1294 -0.4785 -0.5665
  940MOL0     C29594   9.681   8.380   2.237 -0.1816 -0.6895  0.0496
  940MOL0     C29595   9.774   8.398   2.361  0.1720  0.2710 -0.1811
  940MOL0     C29596   9.775   8.272   2.457 -0.4096  0.2955  0.9257
  940MOL0     C29597   9.905   8.298   2.541 -0.4796  0.3239  0.0538
  940MOL0     C29598  10.000   8.185   2.503 -0.2471 -0.4250  0.7130
  940MOL0     N29599  10.114   8.200   2.588 -0.0362 -0.3926 -0.6771
  940MOL0     C29600  10.135   8.153   2.720 -0.1062  0.2705  0.1971
  940MOL0     C29601  10.271   8.171   2.740  0.0562  0.1632  0.2771
  940MOL0     C29602  10.376   8.141   2.841  0.0744 -0.3742  0.6768
  940MOL0     C29603  10.366   7.999   2.895 -0.1747  0.1228  0.9177
  940MOL0     C29604  10.506   7.955   2.956 -0.2067 -0.0006 -0.0392
  940MOL0     C29605  10.516   7.812   2.978 -0.7256  0.5233  0.2926
  940MOL0     O29606  10.654   7.779   3.018  0.5758 -0.9619  0.9545
  940MOL0     C29607  10.692   7.742   3.137  0.1761 -0.2407 -0.5959
  940MOL0     C29608  10.602   7.697   3.245  0.1231  0.5184  1.2568
  940MOL0     C29609  10.647   7.629   3.363  0.9941 -1.1538  0.6164
  940MOL0     C29610  10.536   7.577   3.457 -0.1295 -0.6370  0.0229
  940MOL0     C29611  10.783   7.606   3.379 -0.6371 -0.0595  0.9412
  940MOL0     C29612  10.851   7.535   3.486  0.0750  0.4895  0.2928
  940MOL0     O29613  10.988   7.519   3.484  0.3584  0.1042 -0.1743
  940MOL0     C29614  11.050   7.449   3.588 -0.4910 -0.5177 -0.8075
  940MOL0     C29615  11.151   7.359   3.550  0.6064  1.0296 -0.4637
  940MOL0     C29616  11.215   7.281   3.650 -0.9190 -0.5682 -0.1469
  940MOL0     C29617  11.205   7.314   3.788  0.0585  0.1766 -0.7527
  940MOL0     O29618  11.284   7.245   3.878 -0.8096 -0.9214  0.0045
  940MOL0     C29619  11.299   7.287   4.014  0.1081  0.0143 -0.8545
  940MOL0     C29620  11.186   7.207   4.086 -0.5322  0.7310  0.2140
  940MOL0     C29621  11.193   7.190   4.239 -0.3980  0.4026 -0.3561
  940MOL0     C29622  11.174   7.325   4.316  0.7511  0.9639  0.1740
  940MOL0     C29623  11.152   7.299   4.466  0.7346  0.1232 -0.6211
  940MOL0     C29624  11.259   7.226   4.542  0.8644  0.0100 -0.3423
  940MOL0     C29625  11.209   7.198   4.679  0.1212 -0.8545  0.7362
  940MOL0     C29626  11.323   7.132   4.755 -0.8033  1.0661 -0.1242
  940MOL0    Cl29627  11.361   6.970   4.688  0.7202  0.3713  0.0482
  940MOL0     C29628  11.119   7.414   3.819 -0.4640 -0.5329  0.1700
  940MOL0     C29629  11.041   7.480   3.718 -0.4861 -0.0519  0.6634
  940MOL0     O29630  10.777   7.461   3.555 -0.1674 -0.5347  0.1298
  940MOL0     C29631  10.869   7.662   3.279  0.2094  0.7842 -0.5960
  940MOL0     C29632  10.828   7.727   3.164  0.2343  0.0047  1.0548
  940MOL0     N29633  10.321   8.222   2.623  1.0697 -0.3845  0.1055
  940MOL0     N29634  10.231   8.244   2.534  0.3042 -0.1233  0.2631
  940MOL0     C29635   9.549   8.743   1.652  0.1239 -0.6210 -0.1979
  940MOL0     C29636   9.548   8.846   1.566 -0.4970 -1.5825  0.9393
  940MOL0     C29637   9.324   9.236   1.407 -0.6810 -0.0500 -0.0434
  940MOL0     C29638   9.433   9.328   1.402 -0.5139  0.5252  0.9000
  940MOL0     C29639   9.415   9.457   1.351  0.8791  0.0707  0.2007
  940MOL0     C29640   9.295   9.491   1.285  0.2147  0.7211 -0.1277
  940MOL0     O29641   9.279   9.600   1.204  0.4781 -0.1952 -1.2180
  940MOL0     C29642   9.346   9.728   1.214  0.2235  0.0442 -0.3397
  940MOL0     C29643   9.345   9.781   1.361  0.7496 -0.6167 -0.2095
  940MOL0     C29644   9.210   9.785   1.420 -0.6231  1.1012 -0.8978
  940MOL0     C29645   9.216   9.848   1.561  0.0688  0.6393  0.4933
  940MOL0     C29646   9.085   9.870   1.625  0.4343 -0.1207  0.0645
  940MOL0     C29647   8.975   9.906   1.670 -0.3481 -0.2027  0.0715
  940MOL0     C29648   9.192   9.397   1.279  0.3651 -0.8183  0.4497
  940MOL0     C29649   9.204   9.275   1.333 -0.8814  0.5703 -0.7036
  940MOL0     C29650   9.072   9.195   1.329  0.6079  0.3347  0.0071
  940MOL0     H29651   9.442   9.100   1.763 -1.3714 -0.3536 -0.0330
  940MOL0     H29652   9.420   8.914   1.924  0.6477  0.6266  0.4309
  940MOL0     H29653   9.476   8.717   2.053 -0.1210  2.2888 -3.0467
  940MOL0     H29654   9.653   8.731   2.012  0.7137 -0.6017  1.2524
  940MOL0     H29655   9.485   8.491   2.057  1.3961 -0.0377 -1.6490
  940MOL0     H29656   9.656   8.490   1.983  3.8632  1.0177  1.5598
  940MOL0     H29657   9.744   8.581   2.187 -1.8438  2.5610  0.0450
  940MOL0     H29658   9.596   8.581   2.267  0.5263 -2.2219  1.3150
  940MOL0     H29659   9.585   8.335   2.263 -0.6009 -0.9349 -1.8303
  940MOL0     H29660   9.735   8.323   2.161 -0.6834 -0.6089 -0.3700
  940MOL0     H29661   9.735   8.479   2.423 -0.4425 -0.9195  1.0297
  940MOL0     H29662   9.876   8.422   2.328  0.7928 -2.3576 -0.4122
  940MOL0     H29663   9.686   8.265   2.521 -2.3296  0.8643 -1.5163
  940MOL0     H29664   9.778   8.182   2.394 -1.0986  1.9940 -1.6844
  940MOL0     H29665   9.881   8.285   2.647  0.6679  1.0495  0.4227
  940MOL0     H29666   9.938   8.402   2.531 -0.9039  0.4951  0.4274
  940MOL0     H29667   9.951   8.088   2.517  1.8703 -2.1399 -2.4301
  940MOL0     H29668  10.029   8.197   2.398 -0.0745  1.7872  0.9633
  940MOL0     H29669  10.059   8.118   2.789 -0.5488  3.0891  1.3000
  940MOL0     H29670  10.353   8.201   2.930  2.1572 -0.2634  1.1739
  940MOL0     H29671  10.474   8.176   2.807 -0.4762  0.7033  0.1138
  940MOL0     H29672  10.283   7.999   2.966 -0.6877 -0.3888  0.3407
  940MOL0     H29673  10.338   7.938   2.809  0.0433  0.1765  0.8078
  940MOL0     H29674  10.580   7.983   2.880 -2.0068 -2.5611 -2.9947
  940MOL0     H29675  10.515   8.003   3.053 -3.8114  1.0741 -0.0949
  940MOL0     H29676  10.440   7.776   3.048  1.4412 -2.3894  1.4134
  940MOL0     H29677  10.496   7.767   2.880 -1.1197  1.5117 -0.0893
  940MOL0     H29678  10.497   7.712   3.224  0.7202  0.4565 -2.5699
  940MOL0     H29679  10.508   7.473   3.436  2.3155 -1.5291  0.8195
  940MOL0     H29680  10.449   7.642   3.448  0.1179 -0.1377  1.0559
  940MOL0     H29681  10.563   7.577   3.563  0.1073  2.9392  0.0786
  940MOL0     H29682  11.164   7.330   3.447  0.0331 -3.5287  0.4943
  940MOL0     H29683  11.281   7.197   3.629  0.3339  0.7980 -2.0658
  940MOL0     H29684  11.392   7.243   4.052  0.3304  0.6830 -0.6234
  940MOL0     H29685  11.295   7.393   4.037  2.2807 -0.4087  2.2020
  940MOL0     H29686  11.090   7.245   4.049 -0.4397 -0.2482 -1.0923
  940MOL0     H29687  11.197   7.105   4.048 -1.4932  0.5932  0.2821
  940MOL0     H29688  11.298   7.163   4.257 -0.1646  1.5606  0.1411
  940MOL0     H29689  11.124   7.115   4.277 -1.5382  0.0679 -2.9079
  940MOL0     H29690  11.081   7.375   4.285 -1.0483  0.2758  3.8307
  940MOL0     H29691  11.254   7.396   4.295  0.3903  0.6196 -2.8080
  940MOL0     H29692  11.131   7.396   4.512 -1.7674 -0.2293 -0.8849
  940MOL0     H29693  11.049   7.265   4.479  1.1066 -0.8900 -0.2076
  940MOL0     H29694  11.343   7.296   4.547  0.3540  0.5650  0.7424
  940MOL0     H29695  11.279   7.128   4.496  1.6479  0.1799 -0.3746
  940MOL0     H29696  11.127   7.128   4.667 -3.2101  2.6321  1.0833
  940MOL0     H29697  11.171   7.287   4.732  2.0309 -0.3210  1.3157
  940MOL0     H29698  11.293   7.111   4.858  2.2782  2.3567  1.1790
  940MOL0     H29699  11.408   7.201   4.760  0.5145 -0.5350  0.4991
  940MOL0     H29700  11.109   7.466   3.914  2.1730 -1.5972  1.1248
  940MOL0     H29701  10.979   7.567   3.734  1.0823  1.6755 -1.9452
  940MOL0     H29702  10.977   7.650   3.290 -0.3423 -3.7923  2.6876
  940MOL0     H29703  10.896   7.752   3.083  0.9294 -0.2628  1.5532
  940MOL0     H29704   9.581   8.641   1.631 -0.2501 -1.3245  2.3063
  940MOL0     H29705   9.571   8.854   1.460 -1.8596 -1.0059  0.6603
  940MOL0     H29706   9.526   9.294   1.447 -1.0108 -2.2191  0.0390
  940MOL0     H29707   9.497   9.529   1.350  0.1608  0.9136 -1.4146
  940MOL0     H29708   9.448   9.712   1.177 -0.4641 -2.3855 -1.4335
  940MOL0     H29709   9.304   9.799   1.143  1.3644  0.9901 -0.0939
  940MOL0     H29710   9.389   9.881   1.355  0.4899 -0.5209 -0.5921
  940MOL0     H29711   9.405   9.718   1.427  2.1025 -0.6496 -1.4206
  940MOL0     H29712   9.136   9.832   1.355 -0.6868  1.2965 -0.6847
  940MOL0     H29713   9.180   9.680   1.435  0.0317  1.3130  2.8157
  940MOL0     H29714   9.266   9.945   1.558 -1.1588  1.3232 -3.4327
  940MOL0     H29715   9.268   9.786   1.635  1.5473  1.4494  0.1792
  940MOL0     H29716   8.871   9.920   1.692 -0.2381 -0.8397  1.0346
  940MOL0     H29717   9.106   9.430   1.222  0.4143  2.0921  1.8908
  940MOL0     H29718   9.086   9.087   1.342  1.7075  0.6934  2.3185
  940MOL0     H29719   9.001   9.239   1.399 -2.3360 -0.6646 -2.1877
  940MOL0     H29720   9.038   9.210   1.226  1.1187  0.8249 -0.0976
  941MOL0     O29721   2.966   4.575   4.216 -0.0040  1.1775 -0.0759
  941MOL0     C29722   2.909   4.538   4.318 -0.1042 -0.4234 -0.4514
  941MOL0     O29723   2.938   4.588   4.445  0.3355 -0.0554  0.6261
  941MOL0     C29724   3.041   4.680   4.462 -0.8879  0.1456  0.5729
  941MOL0     C29725   3.172   4.642   4.483 -0.4050 -0.1593  0.5463
  941MOL0     C29726   3.280   4.726   4.502 -0.4786  0.7395  0.7918
  941MOL0     C29727   3.250   4.863   4.511 -0.9580 -1.1292 -0.7403
  941MOL0     O29728   3.343   4.962   4.523 -0.0901  0.2511  0.1380
  941MOL0     C29729   3.491   4.942   4.522 -0.2208  0.5361 -0.9290
  941MOL0     C29730   3.540   4.912   4.664  0.4684 -0.2635  0.5273
  941MOL0     C29731   3.696   4.898   4.670  0.7487 -0.3597 -0.2940
  941MOL0     C29732   3.738   4.831   4.800 -0.4282  0.1451 -0.3661
  941MOL0     C29733   3.884   4.789   4.786  0.1644  0.2720 -0.4296
  941MOL0     C29734   3.924   4.730   4.923  0.5646  0.1927  0.1956
  941MOL0     C29735   4.043   4.640   4.894  0.7151  0.1347 -0.4620
  941MOL0     C29736   4.124   4.599   5.019  0.3396  0.8053 -0.2638
  941MOL0     N29737   4.239   4.524   4.988 -0.4412  0.1548 -0.5165
  941MOL0     C29738   4.263   4.399   5.004 -0.6005  0.2625  0.9445
  941MOL0     C29739   4.394   4.376   4.977  0.3979 -0.4329  0.1327
  941MOL0     C29740   4.471   4.246   4.959 -0.3208 -0.5513  0.0548
  941MOL0     C29741   4.386   4.128   4.986  0.4911  0.4751  0.9195
  941MOL0     C29742   4.449   3.994   4.932  0.3481 -0.9779  0.1705
  941MOL0     C29743   4.563   3.942   5.013 -0.7365 -0.0221  0.3745
  941MOL0     O29744   4.679   4.023   4.999 -0.3425  0.2761  0.3154
  941MOL0     C29745   4.793   4.000   5.072  0.9101  0.2167 -0.4888
  941MOL0     C29746   4.885   4.100   5.091 -0.5526  0.0688 -0.5883
  941MOL0     C29747   4.992   4.093   5.186  0.1296 -0.0343  0.5639
  941MOL0     C29748   5.045   4.230   5.241  0.5315  0.7677  0.6998
  941MOL0     C29749   5.023   3.972   5.246 -1.0763  0.3346 -0.2492
  941MOL0     C29750   5.118   3.947   5.367  0.5215 -0.1147 -1.2346
  941MOL0     O29751   5.191   4.051   5.422  0.6569  0.6082  0.0917
  941MOL0     C29752   5.293   4.012   5.513  0.2507  0.1071  0.4832
  941MOL0     C29753   5.421   3.975   5.474 -0.2085  0.4914 -0.4349
  941MOL0     C29754   5.525   3.950   5.568  0.7350 -1.0323 -0.4362
  941MOL0     C29755   5.508   3.985   5.697  0.2025 -1.4383  0.0325
  941MOL0     O29756   5.614   3.968   5.780  0.0985 -0.0611  0.0523
  941MOL0     C29757   5.619   3.973   5.927  0.5052  0.4885  0.8236
  941MOL0     C29758   5.763   3.936   5.964  0.2763 -1.0568 -0.9541
  941MOL0     C29759   5.877   4.044   5.957  0.3543  0.1085  0.0739
  941MOL0     C29760   5.943   4.054   5.822  0.1618  0.1281  0.5531
  941MOL0     C29761   6.035   4.183   5.812 -0.8568  0.7587  0.3008
  941MOL0     C29762   6.126   4.227   5.932 -0.0815 -0.3450 -0.1860
  941MOL0     C29763   6.176   4.368   5.900  0.6846  0.0702 -0.6371
  941MOL0     C29764   6.278   4.417   5.995 -0.7596  0.1859 -0.5300
  941MOL0    Cl29765   6.210   4.461   6.149  0.0993 -0.3059 -0.1120
  941MOL0     C29766   5.394   4.041   5.740 -0.1092 -0.3024 -0.7046
  941MOL0     C29767   5.285   4.057   5.645  0.0259 -0.3443  0.2000
  941MOL0     O29768   5.116   3.840   5.428  0.0243 -0.4544 -0.8232
  941MOL0     C29769   4.942   3.860   5.213 -1.3061  0.0186  0.8316
  941MOL0     C29770   4.826   3.876   5.129  0.8415 -0.0853 -0.6619
  941MOL0     N29771   4.453   4.496   4.959  0.2357 -0.2064  0.6246
  941MOL0     N29772   4.358   4.583   4.960  0.6991  0.0933  0.0577
  941MOL0     C29773   3.125   4.907   4.495 -0.1053 -0.4675 -0.3470
  941MOL0     C29774   3.015   4.819   4.471 -0.4177 -0.2189  0.7586
  941MOL0     C29775   2.812   4.421   4.299 -0.1015  0.6186  0.1511
  941MOL0     C29776   2.747   4.377   4.413  0.0888 -0.4802 -0.1570
  941MOL0     C29777   2.643   4.288   4.413  0.1629 -1.0490 -0.2961
  941MOL0     C29778   2.612   4.227   4.296 -0.2192  0.8463 -0.1052
  941MOL0     O29779   2.541   4.108   4.285 -0.0234 -0.0026  0.4820
  941MOL0     C29780   2.401   4.123   4.321 -1.2210  0.1189  0.1931
  941MOL0     C29781   2.326   4.066   4.199  0.5285 -0.2146 -0.1406
  941MOL0     C29782   2.342   4.130   4.056  0.5927  0.4749 -0.2722
  941MOL0     C29783   2.298   4.274   4.043  0.9081 -0.6170  0.7830
  941MOL0     C29784   2.157   4.297   4.090  0.4966 -0.7750  0.6037
  941MOL0     C29785   2.042   4.318   4.131 -0.2889 -0.1619  0.6151
  941MOL0     C29786   2.680   4.260   4.181  0.6664  0.5917  0.7237
  941MOL0     C29787   2.784   4.357   4.176  0.1165 -0.1753 -0.3334
  941MOL0     C29788   2.849   4.371   4.048  0.3561 -0.9155 -0.8947
  941MOL0     H29789   3.206   4.539   4.476  4.0228  0.9056  2.5157
  941MOL0     H29790   3.379   4.681   4.498 -1.7647 -2.2414 -1.9940
  941MOL0     H29791   3.539   5.033   4.487  0.2000  0.4262 -0.6439
  941MOL0     H29792   3.531   4.864   4.456  4.2989  2.0504 -0.3129
  941MOL0     H29793   3.512   4.986   4.740 -0.0086 -0.0542  0.1536
  941MOL0     H29794   3.484   4.825   4.701 -1.4615 -0.0744 -1.6653
  941MOL0     H29795   3.729   4.829   4.592  0.8823 -2.3986  1.4613
  941MOL0     H29796   3.741   4.996   4.652 -0.0939  0.3007  1.0691
  941MOL0     H29797   3.723   4.903   4.881 -1.3276 -1.5300  1.0271
  941MOL0     H29798   3.679   4.743   4.828 -0.7679  0.3978 -0.2910
  941MOL0     H29799   3.937   4.882   4.763  2.4885 -0.6579  0.8417
  941MOL0     H29800   3.897   4.714   4.707 -2.0314  1.3648 -1.9523
  941MOL0     H29801   3.937   4.810   4.997 -0.9277  1.0822 -0.4440
  941MOL0     H29802   3.841   4.669   4.959 -1.1871  2.2242 -0.1663
  941MOL0     H29803   4.111   4.684   4.820  0.4805  1.2428 -0.0272
  941MOL0     H29804   3.998   4.557   4.838  1.3716  0.9036 -2.2031
  941MOL0     H29805   4.151   4.692   5.069 -0.6057  0.5138  0.8342
  941MOL0     H29806   4.060   4.537   5.082 -0.6176  0.2682 -1.7368
  941MOL0     H29807   4.186   4.333   5.043  0.0159 -0.9791  0.0952
  941MOL0     H29808   4.561   4.245   5.022 -0.2481 -0.9336 -0.0522
  941MOL0     H29809   4.518   4.246   4.861 -2.9781 -1.3476 -1.3219
  941MOL0     H29810   4.386   4.105   5.093  0.3794 -4.9379  0.0235
  941MOL0     H29811   4.287   4.130   4.939  0.7338 -0.7372  0.3258
  941MOL0     H29812   4.365   3.923   4.935  0.0806 -0.7817 -1.8003
  941MOL0     H29813   4.477   4.006   4.827  0.4963 -3.3460 -0.1225
  941MOL0     H29814   4.541   3.933   5.120 -1.5176 -0.0033  0.2200
  941MOL0     H29815   4.581   3.838   4.987  2.0035  0.2659  0.7834
  941MOL0     H29816   4.859   4.200   5.056  3.8211  2.5012  2.1372
  941MOL0     H29817   5.046   4.229   5.351  1.9535 -3.0844  0.8001
  941MOL0     H29818   4.981   4.305   5.194 -0.3061 -0.6423 -0.4593
  941MOL0     H29819   5.152   4.238   5.217  0.7762 -2.3061  0.4136
  941MOL0     H29820   5.456   3.956   5.373 -0.3437 -1.4583 -0.1479
  941MOL0     H29821   5.625   3.913   5.548  1.9065  0.9598  1.3961
  941MOL0     H29822   5.588   4.074   5.958 -1.1391  0.1006  0.5655
  941MOL0     H29823   5.545   3.911   5.980  0.8427  0.9642  1.8980
  941MOL0     H29824   5.772   3.913   6.070  2.1979  2.1266 -0.3138
  941MOL0     H29825   5.807   3.851   5.909  1.4268 -1.5038  0.5901
  941MOL0     H29826   5.959   4.020   6.025 -0.2592 -1.3678  0.3305
  941MOL0     H29827   5.824   4.131   5.996  0.2292 -1.0450  2.7025
  941MOL0     H29828   5.864   4.051   5.746 -2.0420 -2.9719  2.6829
  941MOL0     H29829   6.011   3.971   5.802 -0.1844  0.7112 -3.9092
  941MOL0     H29830   6.109   4.180   5.731 -0.0280 -0.0179  1.0591
  941MOL0     H29831   5.973   4.268   5.784 -2.6401 -1.1355 -1.9250
  941MOL0     H29832   6.204   4.155   5.959  2.0580  1.4007 -1.3606
  941MOL0     H29833   6.067   4.223   6.024 -0.2408  0.3283 -0.2577
  941MOL0     H29834   6.090   4.434   5.897  0.9108  0.3260 -2.0960
  941MOL0     H29835   6.226   4.362   5.803  0.6399  3.9390 -1.0383
  941MOL0     H29836   6.331   4.501   5.950  0.3568  0.7796  1.7568
  941MOL0     H29837   6.356   4.340   6.004 -0.5930  0.5938  2.4970
  941MOL0     H29838   5.385   4.078   5.842 -1.4137  0.3520 -1.0226
  941MOL0     H29839   5.193   4.115   5.653  1.2123  2.1781 -2.5214
  941MOL0     H29840   4.964   3.762   5.254  1.9780 -0.0061 -0.6236
  941MOL0     H29841   4.763   3.788   5.118  3.0893 -1.4987 -3.4699
  941MOL0     H29842   3.122   5.015   4.488  1.8171 -0.4610 -2.1569
  941MOL0     H29843   2.921   4.862   4.439  2.0041  4.1461 -1.5135
  941MOL0     H29844   2.769   4.417   4.511  0.5727 -1.7078  0.2614
  941MOL0     H29845   2.581   4.265   4.499  0.5285 -0.6318  0.0824
  941MOL0     H29846   2.368   4.067   4.409 -0.9217 -1.7395 -0.8338
  941MOL0     H29847   2.375   4.229   4.326  3.4169  1.4561  0.5297
  941MOL0     H29848   2.220   4.071   4.228  0.0857 -1.0439 -1.5059
  941MOL0     H29849   2.353   3.960   4.192 -0.6121 -0.4175 -2.5394
  941MOL0     H29850   2.445   4.109   4.027  0.4457 -0.3521 -0.2178
  941MOL0     H29851   2.280   4.071   3.989 -0.7898 -2.5348  3.3018
  941MOL0     H29852   2.305   4.315   3.942 -0.8288  1.0664  1.2842
  941MOL0     H29853   2.357   4.342   4.105  2.7192  0.3588 -1.8431
  941MOL0     H29854   1.946   4.329   4.176 -0.3278 -1.3208  0.8549
  941MOL0     H29855   2.648   4.203   4.095  0.7575  1.2721  0.2366
  941MOL0     H29856   2.946   4.321   4.047 -1.1065 -4.0541  0.7324
  941MOL0     H29857   2.781   4.331   3.972 -2.1080  1.5331 -0.1523
  941MOL0     H29858   2.863   4.479   4.035  0.0256 -0.2757  2.9136
  942MOL0     O29859   0.490   0.618  10.638 -0.0257 -0.6441 -0.4699
  942MOL0     C29860   0.451   0.625  10.523 -0.0905 -0.1183  0.2791
  942MOL0     O29861   0.387   0.736  10.466  0.5087 -0.6509  0.6769
  942MOL0     C29862   0.319   0.833  10.550 -0.9543 -0.2890  1.1264
  942MOL0     C29863   0.256   0.800  10.670  0.6842  0.6187  0.1276
  942MOL0     C29864   0.193   0.895  10.747 -0.7200 -0.2706  0.4220
  942MOL0     C29865   0.172   1.026  10.696  0.4355 -0.5673  0.0025
  942MOL0     O29866   0.110   1.123  10.788 -0.4751 -0.1680  0.4366
  942MOL0     C29867   0.177   1.248  10.819  1.2260  0.0298 -0.0857
  942MOL0     C29868   0.108   1.306  10.946  0.4265 -0.0204  0.2006
  942MOL0     C29869  -0.040   1.370  10.921 -0.1954 -0.1808  0.1519
  942MOL0     C29870  -0.097   1.396  11.059 -0.3251 -0.5148 -0.8046
  942MOL0     C29871  -0.241   1.444  11.069 -0.5711  0.0538  0.0481
  942MOL0     C29872  -0.309   1.421  11.204 -0.2781 -0.6482 -0.6837
  942MOL0     C29873  -0.455   1.477  11.204 -0.1643 -0.4411 -0.4118
  942MOL0     C29874  -0.531   1.449  11.345 -0.4138 -0.1158 -0.1107
  942MOL0     N29875  -0.504   1.525  11.467  0.1829  1.3155  0.0266
  942MOL0     C29876  -0.504   1.660  11.472 -1.4309 -0.5570  0.8508
  942MOL0     C29877  -0.466   1.684  11.599 -2.0285 -0.5802  0.5861
  942MOL0     C29878  -0.450   1.826  11.642  0.5620  0.4353  0.1873
  942MOL0     C29879  -0.330   1.896  11.589  0.7339  1.5456  1.4890
  942MOL0     C29880  -0.303   2.035  11.654  0.3544  0.6877 -0.1738
  942MOL0     C29881  -0.175   2.039  11.726 -1.1787  0.0106 -0.6793
  942MOL0     O29882  -0.180   2.174  11.793  0.1722 -0.4968  0.3945
  942MOL0     C29883  -0.099   2.197  11.906  0.9627 -0.1599  0.0034
  942MOL0     C29884  -0.113   2.320  11.976  0.8600  0.2669 -0.4289
  942MOL0     C29885  -0.047   2.368  12.091 -0.1349  0.1327 -1.1337
  942MOL0     C29886  -0.094   2.507  12.136 -1.2328 -0.3689  0.1994
  942MOL0     C29887   0.051   2.282  12.154  0.2268  0.6194  0.6476
  942MOL0     C29888   0.145   2.327  12.258  0.1493  0.3812 -1.0048
  942MOL0     O29889   0.231   2.216  12.293  0.1578 -0.4430 -0.2238
  942MOL0     C29890   0.354   2.252  12.340 -0.8887  0.0662 -0.3434
  942MOL0     C29891   0.433   2.360  12.299 -0.1718  0.6878  0.6409
  942MOL0     C29892   0.556   2.381  12.348 -0.5609 -0.1213 -0.2030
  942MOL0     C29893   0.601   2.307  12.457  0.3213  0.2176 -0.7787
  942MOL0     O29894   0.718   2.331  12.523 -0.0715 -0.0535  0.5521
  942MOL0     C29895   0.773   2.471  12.526 -0.4777 -0.0445  0.4796
  942MOL0     C29896   0.884   2.494  12.626  0.3763  0.4658 -0.0555
  942MOL0     C29897   0.832   2.486  12.768 -0.8784  0.2024 -0.7478
  942MOL0     C29898   0.959   2.503  12.849  0.9300  0.1640 -0.4873
  942MOL0     C29899   0.911   2.486  12.994  0.0500  0.2584 -0.5682
  942MOL0     C29900   1.024   2.483  13.098 -0.4746  0.2089  0.0584
  942MOL0     C29901   1.080   2.616  13.153  0.0628  0.4383 -1.7513
  942MOL0     C29902   1.171   2.695  13.056 -0.2250  0.4643 -0.1688
  942MOL0    Cl29903   1.231   2.855  13.107 -0.1126 -0.3674  0.8251
  942MOL0     C29904   0.520   2.195  12.507 -0.2195 -0.2776 -0.2361
  942MOL0     C29905   0.395   2.177  12.446  0.4591 -0.1401  0.2171
  942MOL0     O29906   0.150   2.439  12.308 -0.8360 -0.1572  0.4694
  942MOL0     C29907   0.075   2.165  12.074  0.4231  0.4334 -0.3294
  942MOL0     C29908   0.006   2.120  11.959  0.1902 -0.6257 -0.0813
  942MOL0     N29909  -0.463   1.570  11.668 -0.6366  0.0063  0.0873
  942MOL0     N29910  -0.488   1.469  11.591  0.3302  0.0534 -0.4579
  942MOL0     C29911   0.233   1.069  10.580 -0.6191  0.0845 -1.1214
  942MOL0     C29912   0.303   0.974  10.498  0.0600  0.5715  0.1313
  942MOL0     C29913   0.476   0.520  10.426  1.3354 -0.4611  0.4279
  942MOL0     C29914   0.382   0.504  10.315 -0.4441  0.2615 -0.8665
  942MOL0     C29915   0.397   0.402  10.226 -0.4314  0.3211  1.0235
  942MOL0     C29916   0.508   0.312  10.235 -0.1925 -0.0469  0.4038
  942MOL0     O29917   0.534   0.197  10.167  1.2760 -0.1281  0.9544
  942MOL0     C29918   0.462   0.173  10.046  0.7565 -1.0312 -0.4629
  942MOL0     C29919   0.506   0.035   9.993  0.3661 -0.7021  0.0487
  942MOL0     C29920   0.637   0.034   9.912 -0.1590 -0.2208  0.7181
  942MOL0     C29921   0.764   0.044  10.000  0.8319  0.2796  0.5706
  942MOL0     C29922   0.876   0.047   9.913  0.3170 -0.1458  0.8296
  942MOL0     C29923   0.985   0.055   9.851 -0.0071 -0.1508 -0.1504
  942MOL0     C29924   0.589   0.326  10.338  0.8047 -0.7255 -0.6461
  942MOL0     C29925   0.587   0.432  10.428 -0.8496  0.8680 -1.2149
  942MOL0     C29926   0.701   0.432  10.523 -0.1977 -0.3156  0.2683
  942MOL0     H29927   0.237   0.701  10.711 -2.0977  1.1603  0.3532
  942MOL0     H29928   0.157   0.860  10.844  2.3767 -4.5102  0.2900
  942MOL0     H29929   0.160   1.323  10.741 -2.5932 -0.7450 -0.1597
  942MOL0     H29930   0.283   1.225  10.833  1.8966  2.2318 -1.1466
  942MOL0     H29931   0.101   1.237  11.031  0.1111  1.4650  1.4281
  942MOL0     H29932   0.180   1.374  10.994  0.7098 -0.4906  0.4532
  942MOL0     H29933  -0.039   1.457  10.855 -0.3198 -1.0678 -1.0511
  942MOL0     H29934  -0.102   1.297  10.868 -0.0884 -1.7185  2.0221
  942MOL0     H29935  -0.093   1.305  11.120 -0.6541  1.0839  1.7774
  942MOL0     H29936  -0.038   1.479  11.100 -1.5363  0.1824 -0.4188
  942MOL0     H29937  -0.306   1.391  10.998 -0.0968 -1.7188  0.8761
  942MOL0     H29938  -0.250   1.552  11.055  0.8864  0.0682 -1.0388
  942MOL0     H29939  -0.303   1.316  11.232 -1.2919 -0.3806  0.6439
  942MOL0     H29940  -0.260   1.478  11.284 -0.7559  1.9764 -2.1660
  942MOL0     H29941  -0.509   1.425  11.124 -0.1046 -3.3862  1.3127
  942MOL0     H29942  -0.448   1.585  11.187  1.4374 -0.4762 -0.1568
  942MOL0     H29943  -0.640   1.456  11.333 -0.2800 -0.9291 -2.1244
  942MOL0     H29944  -0.506   1.347  11.377 -3.4492 -0.9028  0.0717
  942MOL0     H29945  -0.516   1.730  11.390  0.5093 -1.3026 -0.1260
  942MOL0     H29946  -0.446   1.846  11.750 -2.3034  2.2086  0.0743
  942MOL0     H29947  -0.541   1.883  11.622  0.3693  0.0447 -0.0516
  942MOL0     H29948  -0.251   1.822  11.601  0.6332  1.0105 -0.7184
  942MOL0     H29949  -0.337   1.905  11.480 -1.2354  0.3023  1.4727
  942MOL0     H29950  -0.287   2.109  11.575  2.3460  0.5051  0.0047
  942MOL0     H29951  -0.393   2.067  11.708 -1.2352 -3.1466 -0.2664
  942MOL0     H29952  -0.158   1.958  11.797  2.9544  1.1559 -0.0941
  942MOL0     H29953  -0.095   2.051  11.652 -0.0544  0.1803  0.5189
  942MOL0     H29954  -0.184   2.390  11.933  0.4177 -1.1457 -2.0994
  942MOL0     H29955  -0.020   2.571  12.186 -2.1602  0.5453  0.4510
  942MOL0     H29956  -0.179   2.502  12.205 -2.1764  2.3275 -0.6166
  942MOL0     H29957  -0.127   2.567  12.050  0.7434  0.0865 -0.2799
  942MOL0     H29958   0.393   2.420  12.218 -1.1318 -2.7097 -1.6268
  942MOL0     H29959   0.611   2.464  12.304  1.5215 -2.3255 -2.1068
  942MOL0     H29960   0.821   2.484  12.428 -0.3487  2.4606  0.8110
  942MOL0     H29961   0.692   2.544  12.531 -1.2364 -0.9487  2.5341
  942MOL0     H29962   0.958   2.415  12.610 -2.3319 -2.0781 -0.8751
  942MOL0     H29963   0.934   2.591  12.615 -1.7564  2.1815  3.4600
  942MOL0     H29964   0.785   2.387  12.776  2.8126 -1.8253 -1.5278
  942MOL0     H29965   0.762   2.566  12.793 -1.0000  0.5699 -2.1848
  942MOL0     H29966   0.997   2.605  12.834 -3.2668  2.1068  0.3701
  942MOL0     H29967   1.031   2.423  12.831  0.1439 -0.6695  0.0130
  942MOL0     H29968   0.860   2.582  13.012  0.1997  0.8362 -2.9152
  942MOL0     H29969   0.845   2.399  12.992  1.2300 -0.6689 -0.2203
  942MOL0     H29970   1.109   2.417  13.080  0.5652  1.3537  0.6881
  942MOL0     H29971   0.987   2.420  13.180 -0.1689 -0.2946 -0.1834
  942MOL0     H29972   1.127   2.590  13.249 -5.4745 -1.8602  0.7999
  942MOL0     H29973   0.990   2.672  13.177  0.7198  0.9312 -0.3187
  942MOL0     H29974   1.124   2.706  12.958  1.7425  1.1087 -1.0870
  942MOL0     H29975   1.261   2.638  13.032 -1.5987 -1.3652 -1.2049
  942MOL0     H29976   0.554   2.133  12.589  2.4206  1.3146 -0.0398
  942MOL0     H29977   0.327   2.101  12.483  0.5030 -0.7292 -0.8427
  942MOL0     H29978   0.157   2.097  12.096  0.0274 -0.2530 -0.9188
  942MOL0     H29979   0.040   2.028  11.911  0.3543  0.0887 -1.3815
  942MOL0     H29980   0.216   1.172  10.550 -4.2641  0.0533  0.3183
  942MOL0     H29981   0.353   1.009  10.408  2.6896  1.9520  1.9841
  942MOL0     H29982   0.292   0.562  10.298  0.0016  1.1372 -0.3409
  942MOL0     H29983   0.315   0.380  10.157 -1.6624  0.1506  2.4790
  942MOL0     H29984   0.359   0.175  10.081 -0.0582  1.2733 -2.6535
  942MOL0     H29985   0.474   0.257   9.977  1.3193 -0.1983  0.6133
  942MOL0     H29986   0.424   0.008   9.927 -1.4377 -2.6445  2.8615
  942MOL0     H29987   0.492  -0.033  10.078 -1.9749  0.9012  1.0618
  942MOL0     H29988   0.641  -0.060   9.857 -0.0801 -0.3227  0.8998
  942MOL0     H29989   0.635   0.104   9.828 -2.7696 -1.4545 -0.3441
  942MOL0     H29990   0.754  -0.046  10.062  0.5257 -2.0912 -2.6799
  942MOL0     H29991   0.762   0.133  10.063  2.5352  1.1354 -0.5141
  942MOL0     H29992   1.080   0.073   9.804 -1.7170 -0.6676 -4.0968
  942MOL0     H29993   0.670   0.256  10.360 -1.1427 -2.7765  0.3750
  942MOL0     H29994   0.799   0.400  10.486  2.6383  3.3901  3.5623
  942MOL0     H29995   0.721   0.533  10.560  1.1807 -1.2636  2.3202
  942MOL0     H29996   0.676   0.364  10.604 -0.6399  2.1136  2.2957
  943MOL0     O29997  10.538   5.133   7.595  0.0047  0.4885  0.3011
  943MOL0     C29998  10.478   5.026   7.619  0.5853 -0.6543 -0.3796
  943MOL0     O29999  10.519   4.896   7.578  0.4206 -0.2129 -0.7447
  943MOL0     C30000  10.635   4.882   7.510  0.3341 -1.5272  0.2344
  943MOL0     C30001  10.635   4.796   7.394  0.8576  0.0471 -0.9223
  943MOL0     C30002  10.747   4.789   7.309 -0.1957 -0.3527 -0.5676
  943MOL0     C30003  10.873   4.847   7.340 -0.0487  0.0540 -0.4578
  943MOL0     O30004  10.981   4.812   7.259  0.2078  0.4652  1.0095
  943MOL0     C30005  11.117   4.844   7.308  0.4870  0.3179  0.5619
  943MOL0     C30006  11.232   4.804   7.209 -0.5454  0.2958 -0.0812
  943MOL0     C30007  11.240   4.653   7.189 -1.3186 -0.2147  0.0895
  943MOL0     C30008  11.316   4.577   7.301 -0.0632  0.5250  0.3442
  943MOL0     C30009  11.294   4.426   7.293  0.8766  0.2661  0.1163
  943MOL0     C30010  11.354   4.352   7.407  0.4917  0.4180 -1.0498
  943MOL0     C30011  11.305   4.210   7.408 -1.1370 -0.5643  0.5892
  943MOL0     C30012  11.356   4.117   7.522 -0.3519 -0.9645  0.9575
  943MOL0     N30013  11.504   4.091   7.524  1.3321 -0.0416  0.0007
  943MOL0     C30014  11.571   3.992   7.447  0.8198 -0.5285 -0.1916
  943MOL0     C30015  11.697   4.031   7.464  0.4529  0.2518  0.1643
  943MOL0     C30016  11.832   3.947   7.450  0.4656  0.8125  0.4608
  943MOL0     C30017  11.916   4.017   7.339  0.0952  0.5757  0.1229
  943MOL0     C30018  12.071   4.007   7.354  0.0255  1.0250  1.4818
  943MOL0     C30019  12.118   4.121   7.435  1.0408 -0.0459 -0.7239
  943MOL0     O30020  12.141   4.245   7.361 -0.3752  0.3594  0.7124
  943MOL0     C30021  12.264   4.261   7.290  0.4728 -0.0628  0.6014
  943MOL0     C30022  12.272   4.385   7.220 -0.9202 -0.8041  0.8128
  943MOL0     C30023  12.386   4.410   7.137 -0.3268  0.3093  0.1365
  943MOL0     C30024  12.397   4.539   7.065  0.1464  0.7997  0.1590
  943MOL0     C30025  12.484   4.308   7.116 -0.1921  0.2738  0.3403
  943MOL0     C30026  12.593   4.318   7.028  0.3480 -0.4793  0.2219
  943MOL0     O30027  12.656   4.437   7.006  0.0799 -0.0077  0.5029
  943MOL0     C30028  12.771   4.432   6.923 -0.8153  0.5215  0.3018
  943MOL0     C30029  12.756   4.493   6.797  0.8832  0.7674 -0.4221
  943MOL0     C30030  12.863   4.503   6.712  1.3018 -0.0094  0.7336
  943MOL0     C30031  12.978   4.444   6.742 -0.1900 -0.5923  0.0921
  943MOL0     O30032  13.093   4.448   6.657  0.2713 -0.5262 -0.8986
  943MOL0     C30033  13.121   4.338   6.574  0.3804 -0.0375  0.1994
  943MOL0     C30034  13.207   4.391   6.466 -0.4022  0.8099 -0.6673
  943MOL0     C30035  13.346   4.437   6.509 -0.1137  0.0180  0.2833
  943MOL0     C30036  13.443   4.319   6.526  0.3736 -0.3468 -0.5749
  943MOL0     C30037  13.588   4.366   6.556  0.4297 -0.0738 -0.3914
  943MOL0     C30038  13.668   4.261   6.630  0.7565  0.0856 -0.2691
  943MOL0     C30039  13.817   4.291   6.636 -0.0561 -0.0932  0.7319
  943MOL0     C30040  13.894   4.170   6.685 -0.9470 -1.3064 -0.0034
  943MOL0    Cl30041  13.834   4.100   6.833  0.5152  0.5398  0.0268
  943MOL0     C30042  13.005   4.397   6.871 -0.1623 -0.6505  0.0356
  943MOL0     C30043  12.904   4.385   6.962  0.6890  0.5410  0.2522
  943MOL0     O30044  12.622   4.222   6.966  0.7952 -0.0528  0.2576
  943MOL0     C30045  12.473   4.189   7.184  0.2304  0.4867  1.0477
  943MOL0     C30046  12.368   4.166   7.273  0.4848 -0.3186 -0.2775
  943MOL0     N30047  11.705   4.143   7.548  0.1363  0.1442 -0.2558
  943MOL0     N30048  11.587   4.185   7.576  0.4674 -0.1200 -0.3544
  943MOL0     C30049  10.875   4.928   7.454 -1.0653  0.2420  0.6526
  943MOL0     C30050  10.760   4.944   7.537  0.4061 -0.0283  1.1575
  943MOL0     C30051  10.362   5.025   7.699 -0.2447 -0.8440 -0.4370
  943MOL0     C30052  10.353   4.921   7.789  0.6720  0.5486  0.6462
  943MOL0     C30053  10.232   4.895   7.857 -0.8030 -0.2287 -0.1063
  943MOL0     C30054  10.128   4.990   7.849 -0.4312  1.4406  0.1126
  943MOL0     O30055  10.001   4.975   7.910  0.5064  0.0577 -0.2820
  943MOL0     C30056   9.964   4.847   7.953  0.1184 -0.1567 -0.1483
  943MOL0     C30057  10.014   4.800   8.097  0.4769 -0.0610  0.3707
  943MOL0     C30058   9.953   4.657   8.134 -0.0211 -0.0031  0.9665
  943MOL0     C30059  10.035   4.543   8.071  0.4472 -0.3016 -0.9062
  943MOL0     C30060   9.951   4.426   8.091 -0.0969  1.0206 -0.3971
  943MOL0     C30061   9.885   4.324   8.092  0.1461 -0.9961  0.4285
  943MOL0     C30062  10.134   5.088   7.758 -0.1026  0.1430  0.5230
  943MOL0     C30063  10.246   5.107   7.679  0.2780 -0.5099 -1.0038
  943MOL0     C30064  10.241   5.221   7.589  0.4807 -0.5310  0.5570
  943MOL0     H30065  10.545   4.736   7.394 -0.1382  1.3456  1.9689
  943MOL0     H30066  10.746   4.718   7.227 -1.7169  0.4644 -1.3024
  943MOL0     H30067  11.127   4.799   7.407  2.0330 -0.3429  0.1376
  943MOL0     H30068  11.117   4.954   7.309  0.5664  0.3173  0.5648
  943MOL0     H30069  11.200   4.856   7.118 -2.2063  1.1350  0.9368
  943MOL0     H30070  11.330   4.842   7.242 -1.2067  0.9232  1.2314
  943MOL0     H30071  11.137   4.618   7.188 -0.3534 -3.3870 -0.6958
  943MOL0     H30072  11.285   4.624   7.093  1.5440 -2.8928  2.0655
  943MOL0     H30073  11.420   4.609   7.303 -0.0324  0.4350  2.6801
  943MOL0     H30074  11.281   4.607   7.400 -1.4667 -1.4671  0.5054
  943MOL0     H30075  11.341   4.384   7.204 -0.8313 -0.1892 -0.6172
  943MOL0     H30076  11.188   4.400   7.284  1.9007 -4.1081 -1.1905
  943MOL0     H30077  11.463   4.345   7.395  0.7405  1.4017  0.3742
  943MOL0     H30078  11.336   4.402   7.503  0.4666 -3.9897  1.4926
  943MOL0     H30079  11.354   4.157   7.326  2.8301  1.6600  1.2577
  943MOL0     H30080  11.197   4.210   7.395 -1.1681  1.4445  0.6565
  943MOL0     H30081  11.321   4.160   7.616 -0.0757  1.9974 -0.1814
  943MOL0     H30082  11.297   4.025   7.508 -0.3766 -1.0293  1.4765
  943MOL0     H30083  11.529   3.902   7.404  1.8353 -3.0077  3.4966
  943MOL0     H30084  11.814   3.840   7.436  2.6333  0.4376  0.2310
  943MOL0     H30085  11.887   3.960   7.544  3.7964  2.4040 -1.5401
  943MOL0     H30086  11.885   3.960   7.251  0.4213  2.2759 -1.1321
  943MOL0     H30087  11.885   4.121   7.328 -0.6905  0.3271 -0.0616
  943MOL0     H30088  12.086   3.907   7.397 -3.9704  0.1556  1.2146
  943MOL0     H30089  12.113   4.008   7.252 -1.9030 -0.8839  0.6050
  943MOL0     H30090  12.061   4.141   7.526  2.1353 -1.1867  0.2520
  943MOL0     H30091  12.215   4.094   7.479 -0.6358 -1.4071  2.5415
  943MOL0     H30092  12.193   4.458   7.228 -1.8176 -1.6832  0.2170
  943MOL0     H30093  12.307   4.602   7.067  2.4466  4.3650  2.5583
  943MOL0     H30094  12.430   4.511   6.964  2.2072 -4.1780  1.8994
  943MOL0     H30095  12.480   4.590   7.115 -0.8339  0.9520  1.6906
  943MOL0     H30096  12.663   4.536   6.760  1.0780 -0.5113 -2.5693
  943MOL0     H30097  12.850   4.560   6.620 -1.3900 -0.7306  0.5874
  943MOL0     H30098  13.158   4.254   6.633 -0.2689 -0.2905  0.2510
  943MOL0     H30099  13.032   4.296   6.528  0.1548  0.6645 -0.0230
  943MOL0     H30100  13.222   4.309   6.397  4.2079  0.0168  0.9290
  943MOL0     H30101  13.162   4.477   6.416 -0.9483  2.5632  2.5113
  943MOL0     H30102  13.336   4.491   6.604  0.6930  0.6729 -0.0022
  943MOL0     H30103  13.389   4.503   6.434  0.6504  1.0655  1.5957
  943MOL0     H30104  13.450   4.264   6.431 -1.4380 -0.5471 -0.6170
  943MOL0     H30105  13.419   4.236   6.593 -0.5133 -1.0090 -1.6882
  943MOL0     H30106  13.638   4.401   6.465  0.9272 -1.0016 -0.4785
  943MOL0     H30107  13.577   4.451   6.624 -0.6274 -1.2174  0.9184
  943MOL0     H30108  13.649   4.170   6.573 -1.4552  0.6686 -0.5296
  943MOL0     H30109  13.631   4.244   6.732  1.7263 -2.0962 -0.2271
  943MOL0     H30110  13.834   4.379   6.698  0.4891  1.9994 -2.2076
  943MOL0     H30111  13.845   4.311   6.532 -3.6037  0.4885 -0.2354
  943MOL0     H30112  14.002   4.183   6.700 -1.0380 -0.0148 -0.3811
  943MOL0     H30113  13.890   4.095   6.606  0.0748  0.6044 -1.9967
  943MOL0     H30114  13.101   4.348   6.887 -1.4278 -3.5220 -0.5956
  943MOL0     H30115  12.901   4.341   7.061  2.9743  1.8554  0.9728
  943MOL0     H30116  12.542   4.107   7.169 -1.3281 -0.3288 -3.0177
  943MOL0     H30117  12.373   4.067   7.316  3.0169 -2.2742 -4.3481
  943MOL0     H30118  10.964   4.982   7.485  0.9138 -0.8674 -2.5113
  943MOL0     H30119  10.752   4.999   7.630 -0.2400 -0.4819  1.3799
  943MOL0     H30120  10.434   4.849   7.799 -0.7450 -1.3743 -0.8394
  943MOL0     H30121  10.222   4.808   7.921 -3.5932 -1.8854 -2.5031
  943MOL0     H30122   9.855   4.833   7.949 -0.0759  0.6021  1.3568
  943MOL0     H30123  10.012   4.768   7.895  1.6535 -0.8933  1.9832
  943MOL0     H30124   9.965   4.868   8.167  3.8677  2.5129  0.4928
  943MOL0     H30125  10.122   4.803   8.114  0.2846 -0.1344  1.6584
  943MOL0     H30126   9.949   4.642   8.242 -1.9541  2.4734  1.3072
  943MOL0     H30127   9.855   4.667   8.088  0.4845  2.6126  0.3073
  943MOL0     H30128  10.138   4.524   8.101  0.4089 -3.9243 -2.5209
  943MOL0     H30129  10.026   4.557   7.963 -3.6233 -6.7689 -1.9920
  943MOL0     H30130   9.823   4.237   8.089 -1.0752 -0.1363 -0.5756
  943MOL0     H30131  10.048   5.155   7.754  0.1204  0.4705  1.0613
  943MOL0     H30132  10.303   5.299   7.634  2.4205 -1.3982 -0.4391
  943MOL0     H30133  10.285   5.190   7.493  0.6740  0.0613  0.4499
  943MOL0     H30134  10.139   5.257   7.573  0.8347  0.4154  0.3498
  944MOL0     O30135  10.340   3.784  11.041 -0.2382  0.3062  0.1223
  944MOL0     C30136  10.404   3.800  10.936  0.7719  0.7890 -0.4395
  944MOL0     O30137  10.436   3.698  10.849 -0.3038 -0.0584 -0.7356
  944MOL0     C30138  10.416   3.568  10.898  0.8509 -0.1560 -0.2800
  944MOL0     C30139  10.429   3.526  11.027  0.5079  0.9677 -0.4960
  944MOL0     C30140  10.366   3.401  11.061 -0.0598 -0.2307 -0.5564
  944MOL0     C30141  10.300   3.319  10.968  0.2036  0.6196  0.7513
  944MOL0     O30142  10.232   3.205  11.009  0.2382 -0.5653  0.0426
  944MOL0     C30143  10.204   3.189  11.153 -0.4071 -1.2031  0.3794
  944MOL0     C30144  10.131   3.051  11.172  0.2937 -1.2468  0.1935
  944MOL0     C30145  10.047   3.014  11.061  0.1720  0.1213 -0.5262
  944MOL0     C30146  10.001   2.872  11.095 -0.0412 -0.5795  0.1671
  944MOL0     C30147   9.879   2.839  11.006  0.0366 -0.5199 -0.2864
  944MOL0     C30148   9.836   2.691  11.023  0.4226 -0.0137 -0.2289
  944MOL0     C30149   9.801   2.653  11.161 -0.8706  0.0775 -1.1042
  944MOL0     C30150   9.728   2.519  11.177  0.4593  0.1126  0.0757
  944MOL0     N30151   9.585   2.511  11.136 -0.1041 -0.3355 -0.2227
  944MOL0     C30152   9.528   2.446  11.026  0.7051  0.5418  0.1912
  944MOL0     C30153   9.394   2.466  11.032 -0.1107 -0.1072 -0.1273
  944MOL0     C30154   9.282   2.397  10.951  0.6783 -0.6267  0.8220
  944MOL0     C30155   9.209   2.286  11.040 -0.6180 -0.2191  0.6815
  944MOL0     C30156   9.068   2.279  11.021  0.2520 -0.2830  0.2618
  944MOL0     C30157   9.041   2.262  10.869 -0.5862 -0.4552  0.0513
  944MOL0     O30158   8.936   2.169  10.829  1.0534 -0.5970  0.3181
  944MOL0     C30159   8.806   2.222  10.831  0.3080 -0.3187  0.0646
  944MOL0     C30160   8.758   2.298  10.939  0.0039  0.3239 -0.7512
  944MOL0     C30161   8.623   2.354  10.931 -0.5711  0.7346  0.9247
  944MOL0     C30162   8.567   2.434  11.048  0.5288  0.5578  0.5486
  944MOL0     C30163   8.550   2.338  10.809  0.0677  0.1383 -0.2384
  944MOL0     C30164   8.413   2.382  10.792 -0.7185  0.1500  0.2151
  944MOL0     O30165   8.392   2.446  10.676 -0.4117  0.5145  0.1827
  944MOL0     C30166   8.269   2.490  10.629  0.7339 -0.4284  0.1429
  944MOL0     C30167   8.205   2.595  10.705 -1.4686  0.7860 -0.3435
  944MOL0     C30168   8.089   2.654  10.654 -1.5602 -0.4583  0.2737
  944MOL0     C30169   8.030   2.610  10.538  0.9516  0.4888 -0.0053
  944MOL0     O30170   7.912   2.676  10.494  0.1657 -0.0435  0.7474
  944MOL0     C30171   7.814   2.599  10.421  0.7557  0.1331  0.5204
  944MOL0     C30172   7.699   2.686  10.384  1.0663 -0.4523 -0.3974
  944MOL0     C30173   7.731   2.768  10.260 -0.1010  0.2638 -0.3337
  944MOL0     C30174   7.619   2.872  10.217  0.4228 -0.5316 -1.3879
  944MOL0     C30175   7.668   2.971  10.119 -0.3251  0.1522  0.0280
  944MOL0     C30176   7.543   3.051  10.071  0.4843  0.0931  0.5814
  944MOL0     C30177   7.586   3.149   9.953 -0.6754 -0.0003 -0.7733
  944MOL0     C30178   7.466   3.231   9.906  0.6809  0.7275 -0.3638
  944MOL0    Cl30179   7.488   3.280   9.735 -0.2911  0.1753  0.0388
  944MOL0     C30180   8.085   2.499  10.466 -0.2290  0.1598 -0.0250
  944MOL0     C30181   8.199   2.440  10.517 -0.7507  0.1186  0.5170
  944MOL0     O30182   8.329   2.374  10.879 -0.4338 -0.4319 -0.2687
  944MOL0     C30183   8.608   2.262  10.703 -0.3167  0.2145 -0.4693
  944MOL0     C30184   8.730   2.199  10.715  0.3011  0.6967  0.3731
  944MOL0     N30185   9.375   2.553  11.140  0.4810 -1.3281  0.4582
  944MOL0     N30186   9.490   2.588  11.194 -0.7786  0.6843 -0.0442
  944MOL0     C30187  10.303   3.357  10.836  0.0786  0.5899 -0.8935
  944MOL0     C30188  10.369   3.477  10.799  0.0726  0.4813  0.1973
  944MOL0     C30189  10.458   3.933  10.910 -0.3620 -0.1353  0.0352
  944MOL0     C30190  10.538   3.958  10.799 -0.6001  0.2122 -0.1782
  944MOL0     C30191  10.606   4.073  10.780 -0.1276  0.1526 -0.0148
  944MOL0     C30192  10.580   4.185  10.858 -0.4658 -0.5286 -0.2580
  944MOL0     O30193  10.638   4.307  10.857 -0.4948  0.6602  0.1424
  944MOL0     C30194  10.726   4.352  10.743 -0.1716 -0.7950 -0.0040
  944MOL0     C30195  10.765   4.496  10.768 -0.8853 -0.6507  0.3635
  944MOL0     C30196  10.904   4.531  10.808 -0.0237 -0.1025  0.2393
  944MOL0     C30197  10.946   4.438  10.925  0.2493  0.0232 -0.0392
  944MOL0     C30198  11.101   4.426  10.927  0.4767 -1.4940 -0.4311
  944MOL0     C30199  11.221   4.405  10.910 -0.7118  0.1840 -0.4307
  944MOL0     C30200  10.492   4.170  10.962 -0.4143  0.1243 -0.3746
  944MOL0     C30201  10.441   4.044  11.001 -1.0936 -0.3665  0.0284
  944MOL0     C30202  10.381   4.043  11.147  0.2237 -0.1488 -0.6570
  944MOL0     H30203  10.479   3.579  11.108 -0.9606 -0.1646  1.2366
  944MOL0     H30204  10.368   3.374  11.166  2.1293 -0.0563 -0.5012
  944MOL0     H30205  10.145   3.275  11.186 -1.4066 -2.0604  0.8610
  944MOL0     H30206  10.303   3.193  11.199 -0.7220  2.9424  1.1180
  944MOL0     H30207  10.199   2.973  11.206 -0.4599 -3.6916 -3.3586
  944MOL0     H30208  10.067   3.072  11.259  0.3614  3.3683 -0.6552
  944MOL0     H30209   9.963   3.082  11.039  0.5699  1.5680  2.0312
  944MOL0     H30210  10.101   3.003  10.966 -1.4697  1.8194 -1.7431
  944MOL0     H30211  10.065   2.783  11.091 -1.9311 -2.1230  1.8269
  944MOL0     H30212   9.961   2.860  11.197 -0.6715  0.1006  0.0092
  944MOL0     H30213   9.898   2.867  10.902  2.3052  0.1190  0.2414
  944MOL0     H30214   9.798   2.903  11.043  1.2053  1.0318 -0.3195
  944MOL0     H30215   9.752   2.672  10.957  1.7264  0.0564 -1.9708
  944MOL0     H30216   9.910   2.625  10.978 -0.7034 -1.5733  0.1285
  944MOL0     H30217   9.743   2.734  11.206 -0.2017 -0.8435  1.6199
  944MOL0     H30218   9.886   2.640  11.229 -2.2053 -1.5251  0.3404
  944MOL0     H30219   9.798   2.461  11.115  0.7023  0.4703  0.0133
  944MOL0     H30220   9.741   2.485  11.280  1.5451 -0.9005 -0.3736
  944MOL0     H30221   9.571   2.385  10.948 -2.8565  2.0154 -3.2688
  944MOL0     H30222   9.327   2.350  10.863 -2.3730 -1.4725 -0.4226
  944MOL0     H30223   9.218   2.478  10.915  0.4186 -0.2308  2.1276
  944MOL0     H30224   9.259   2.189  11.045 -2.2588 -1.3485 -2.3598
  944MOL0     H30225   9.210   2.322  11.143 -4.4954 -0.0865  0.8182
  944MOL0     H30226   9.021   2.196  11.074 -2.5704  2.9716  3.3645
  944MOL0     H30227   9.022   2.373  11.053  0.6994 -0.8143  2.7088
  944MOL0     H30228   9.023   2.363  10.828 -0.6607  0.9770  3.3154
  944MOL0     H30229   9.136   2.231  10.825 -0.4054 -0.7726  0.6581
  944MOL0     H30230   8.818   2.317  11.027  0.8979 -0.7649 -1.1091
  944MOL0     H30231   8.514   2.526  11.022 -1.2641 -0.9561 -1.6903
  944MOL0     H30232   8.650   2.451  11.117  1.0443 -3.5441  1.1831
  944MOL0     H30233   8.502   2.369  11.106  1.4370 -0.7029  0.2004
  944MOL0     H30234   8.243   2.631  10.800 -1.7089  0.4503 -0.1192
  944MOL0     H30235   8.033   2.728  10.711 -1.4812  0.3000 -0.6082
  944MOL0     H30236   7.850   2.541  10.335  2.7762  0.5481  1.0354
  944MOL0     H30237   7.787   2.529  10.500  2.7948  1.1565  2.2184
  944MOL0     H30238   7.615   2.619  10.360  0.3455  0.5977 -0.9282
  944MOL0     H30239   7.664   2.746  10.468  0.7529 -0.0392 -0.8150
  944MOL0     H30240   7.755   2.693  10.184  0.5654  0.9667 -0.8286
  944MOL0     H30241   7.821   2.826  10.278 -1.4430  2.9536 -1.6856
  944MOL0     H30242   7.563   2.915  10.300  0.8058 -2.6515  0.0380
  944MOL0     H30243   7.541   2.815  10.166 -2.8011  0.9420  1.5666
  944MOL0     H30244   7.737   3.041  10.167  2.7866 -2.0861 -0.9150
  944MOL0     H30245   7.719   2.925  10.034  0.0332  1.0380 -0.2468
  944MOL0     H30246   7.502   3.107  10.155  0.6643  1.5057 -0.2457
  944MOL0     H30247   7.468   2.977  10.041  1.4061 -0.1953 -1.1737
  944MOL0     H30248   7.618   3.080   9.874 -2.6992 -2.3475  0.3292
  944MOL0     H30249   7.667   3.218   9.979 -1.6197  1.4513 -1.5012
  944MOL0     H30250   7.444   3.320   9.966 -2.2302  1.7113 -2.6452
  944MOL0     H30251   7.372   3.175   9.903 -1.2073  3.7212 -1.8230
  944MOL0     H30252   8.050   2.481  10.364 -0.4153 -2.9666  0.5017
  944MOL0     H30253   8.245   2.361  10.459 -0.0869  0.5816  0.3988
  944MOL0     H30254   8.564   2.237  10.606 -0.5636 -1.2754 -0.0043
  944MOL0     H30255   8.782   2.138  10.641  0.2559 -1.1646  1.8046
  944MOL0     H30256  10.258   3.294  10.759 -3.4340 -1.4091  2.4575
  944MOL0     H30257  10.355   3.498  10.694  1.1509 -1.1780 -0.3218
  944MOL0     H30258  10.536   3.873  10.732  1.1985  0.7193 -0.9210
  944MOL0     H30259  10.677   4.080  10.698  0.5318  1.7085  0.6485
  944MOL0     H30260  10.815   4.289  10.737  0.2683 -0.2468  0.6214
  944MOL0     H30261  10.665   4.344  10.652 -2.2942  0.0619  1.2862
  944MOL0     H30262  10.692   4.539  10.839  0.7842  2.1380  0.5627
  944MOL0     H30263  10.757   4.546  10.671  0.1302 -3.1782 -1.1016
  944MOL0     H30264  10.972   4.525  10.722  1.9735  0.1847  1.7360
  944MOL0     H30265  10.913   4.633  10.846  0.8023 -1.1722  3.1030
  944MOL0     H30266  10.913   4.334  10.921  1.6018 -0.4747  1.2313
  944MOL0     H30267  10.904   4.475  11.019 -1.3937 -3.1892  0.6065
  944MOL0     H30268  11.326   4.396  10.891  0.1737  0.7861  3.3770
  944MOL0     H30269  10.477   4.254  11.028 -0.4116 -1.4289  1.6844
  944MOL0     H30270  10.276   4.011  11.152  0.6416 -1.8660 -1.7936
  944MOL0     H30271  10.449   3.970  11.193  2.8869  0.3490 -3.4399
  944MOL0     H30272  10.398   4.137  11.200  0.5379  0.2710 -1.4861
  945MOL0     O30273   4.930  11.334   8.242  0.2142  0.8791 -0.3915
  945MOL0     C30274   4.913  11.451   8.291  0.0601  1.5958 -0.3279
  945MOL0     O30275   5.014  11.516   8.353 -0.1757 -0.5381  0.2676
  945MOL0     C30276   5.127  11.456   8.401  0.6632 -0.4370 -0.4318
  945MOL0     C30277   5.253  11.470   8.340 -0.3220 -0.2435 -1.0472
  945MOL0     C30278   5.378  11.413   8.386 -0.5892 -0.0489  0.3896
  945MOL0     C30279   5.372  11.324   8.496  0.1361 -0.9766  0.1948
  945MOL0     O30280   5.480  11.253   8.553 -0.2728  0.0715 -0.3644
  945MOL0     C30281   5.610  11.283   8.509 -0.0242 -0.6396  0.6928
  945MOL0     C30282   5.707  11.194   8.603  0.2578  0.3610  0.0489
  945MOL0     C30283   5.704  11.225   8.761  0.0400 -0.2247 -0.3211
  945MOL0     C30284   5.685  11.096   8.841 -0.2647  0.4168  0.2587
  945MOL0     C30285   5.697  11.102   8.996  0.3119  0.5315  1.0638
  945MOL0     C30286   5.852  11.105   9.023 -0.0306 -0.7883 -0.2522
  945MOL0     C30287   5.875  11.138   9.177 -0.0179  1.0836  0.3386
  945MOL0     C30288   5.882  11.285   9.216 -0.1775  0.2988  0.0968
  945MOL0     N30289   6.005  11.352   9.173 -0.3793  0.2651  0.0694
  945MOL0     C30290   6.019  11.438   9.074  0.1989  0.1599 -0.1829
  945MOL0     C30291   6.148  11.483   9.065  1.1301  0.5889  0.2826
  945MOL0     C30292   6.221  11.574   8.966 -0.4557 -0.5229  0.3122
  945MOL0     C30293   6.225  11.523   8.819  0.7146  0.0067  0.5297
  945MOL0     C30294   6.317  11.403   8.815  0.0052  0.2339 -0.0541
  945MOL0     C30295   6.252  11.269   8.867 -0.2299  0.8261  0.1169
  945MOL0     O30296   6.324  11.160   8.811  0.2670 -0.2837 -0.7665
  945MOL0     C30297   6.268  11.033   8.813 -0.2924 -0.2403  0.1136
  945MOL0     C30298   6.310  10.943   8.713 -0.0811 -0.6695  0.7915
  945MOL0     C30299   6.263  10.807   8.702 -0.2694 -0.4687 -0.2468
  945MOL0     C30300   6.315  10.719   8.584  0.1600  0.1974  0.0108
  945MOL0     C30301   6.178  10.761   8.809  0.4423  0.1121  0.0837
  945MOL0     C30302   6.119  10.623   8.814  0.6196  0.7350 -0.6033
  945MOL0     O30303   6.107  10.544   8.701 -0.4817  0.0712 -0.0798
  945MOL0     C30304   6.010  10.451   8.698 -0.6318 -1.0255  0.2049
  945MOL0     C30305   6.029  10.332   8.764 -0.0842  0.2114  0.8043
  945MOL0     C30306   5.923  10.238   8.761  0.1522 -0.3135  0.0450
  945MOL0     C30307   5.801  10.265   8.699 -0.0331  0.6615  0.4885
  945MOL0     O30308   5.706  10.167   8.715  0.1149 -0.9143 -0.0189
  945MOL0     C30309   5.579  10.180   8.642 -0.0750 -0.5693 -0.7731
  945MOL0     C30310   5.591  10.125   8.496  0.0646  0.8602 -0.5702
  945MOL0     C30311   5.446  10.091   8.449  0.3154 -0.1395 -0.2355
  945MOL0     C30312   5.425   9.961   8.380 -1.2869  0.6071 -0.2504
  945MOL0     C30313   5.281   9.966   8.329  0.7643 -0.3405  0.7404
  945MOL0     C30314   5.230   9.828   8.284  0.5603  0.0089  0.3075
  945MOL0     C30315   5.334   9.752   8.186  0.4152 -0.3511 -0.7183
  945MOL0     C30316   5.278   9.635   8.116  0.2449  0.7225  0.5918
  945MOL0    Cl30317   5.405   9.546   8.016  0.1375  0.3658 -0.3249
  945MOL0     C30318   5.790  10.384   8.618 -0.5379  0.5816 -0.4859
  945MOL0     C30319   5.897  10.477   8.619  0.0290 -0.0163  0.2298
  945MOL0     O30320   6.071  10.581   8.925 -0.4968 -0.2077 -0.3714
  945MOL0     C30321   6.145  10.850   8.905 -0.6894  0.6213 -0.0805
  945MOL0     C30322   6.183  10.982   8.912 -0.3110 -0.5290 -0.4764
  945MOL0     N30323   6.210  11.419   9.166  0.4338  0.1128 -0.2523
  945MOL0     N30324   6.129  11.343   9.230  0.2753  0.0571  0.1046
  945MOL0     C30325   5.235  11.301   8.543 -0.7595 -0.6065 -0.9076
  945MOL0     C30326   5.116  11.368   8.507  0.1588 -0.1487  0.4772
  945MOL0     C30327   4.784  11.522   8.282  0.4273 -0.1444  1.2799
  945MOL0     C30328   4.748  11.623   8.375  0.1773 -0.2006 -0.0510
  945MOL0     C30329   4.634  11.695   8.377 -0.5965  0.5315  0.0599
  945MOL0     C30330   4.532  11.662   8.289 -0.0461  0.5563  0.8721
  945MOL0     O30331   4.424  11.737   8.316  0.6745  0.2697 -0.4754
  945MOL0     C30332   4.406  11.837   8.218  0.3176  0.1594  0.4101
  945MOL0     C30333   4.274  11.922   8.248 -0.1260  0.3409  0.3915
  945MOL0     C30334   4.254  12.037   8.144  0.1215 -0.2736  0.3780
  945MOL0     C30335   4.125  12.119   8.162  0.1063  0.9591 -0.0883
  945MOL0     C30336   4.098  12.151   8.302 -0.1016  0.1271 -0.9684
  945MOL0     C30337   4.067  12.190   8.416  0.7112  0.4932 -1.0628
  945MOL0     C30338   4.546  11.545   8.201 -1.3490  0.8583  0.1731
  945MOL0     C30339   4.675  11.479   8.192  0.1310  0.0597 -0.1623
  945MOL0     C30340   4.686  11.376   8.088  0.0609  0.9888 -0.1948
  945MOL0     H30341   5.269  11.532   8.252  0.2312 -0.9160 -1.4344
  945MOL0     H30342   5.471  11.435   8.335  1.1178 -1.7769  2.5238
  945MOL0     H30343   5.629  11.391   8.511 -1.6616 -0.3251  0.6129
  945MOL0     H30344   5.607  11.260   8.402  3.9366 -1.1329  0.5631
  945MOL0     H30345   5.666  11.093   8.599  2.2074 -0.4487 -0.8542
  945MOL0     H30346   5.813  11.186   8.574  0.1079 -0.7512 -0.2203
  945MOL0     H30347   5.793  11.285   8.779  3.0933 -3.6045 -2.7277
  945MOL0     H30348   5.614  11.282   8.787 -0.4581 -0.9055 -0.5188
  945MOL0     H30349   5.588  11.058   8.809  0.5799 -0.9013 -0.8630
  945MOL0     H30350   5.748  11.019   8.796 -0.4930  1.4065 -1.9047
  945MOL0     H30351   5.651  11.010   9.035  1.6418  1.1891  4.6220
  945MOL0     H30352   5.652  11.193   9.035 -0.7113  0.1847  0.7212
  945MOL0     H30353   5.890  11.004   9.002 -2.7175 -1.5368 -2.0492
  945MOL0     H30354   5.912  11.173   8.963 -0.9875  1.4736  1.2056
  945MOL0     H30355   5.956  11.075   9.213 -0.0670  0.0897 -1.1968
  945MOL0     H30356   5.787  11.088   9.219 -2.0779  1.3948 -3.2099
  945MOL0     H30357   5.794  11.345   9.195 -0.3398  1.2245  3.0158
  945MOL0     H30358   5.888  11.285   9.325  0.9182  0.2975  0.0516
  945MOL0     H30359   5.947  11.465   8.997  0.0274  0.6703  0.1467
  945MOL0     H30360   6.318  11.593   9.012 -0.6848  1.1649  0.1394
  945MOL0     H30361   6.179  11.675   8.971 -1.9882 -1.1255  0.2046
  945MOL0     H30362   6.123  11.499   8.786 -0.2765  1.4583  2.3568
  945MOL0     H30363   6.262  11.605   8.758 -2.7062  1.7578  0.5834
  945MOL0     H30364   6.352  11.400   8.712  0.3763 -3.1031  0.0745
  945MOL0     H30365   6.414  11.411   8.866 -0.5507  0.5275  0.9915
  945MOL0     H30366   6.246  11.272   8.976  0.8553  2.6213  0.1684
  945MOL0     H30367   6.148  11.267   8.833 -0.9740  0.8632  2.2622
  945MOL0     H30368   6.384  10.968   8.637  1.9119 -4.0355  1.4122
  945MOL0     H30369   6.331  10.612   8.597 -3.5867 -0.7560 -1.8424
  945MOL0     H30370   6.405  10.764   8.540  1.0717  0.6294  2.2132
  945MOL0     H30371   6.239  10.719   8.505  0.9631  2.9837 -0.8856
  945MOL0     H30372   6.124  10.311   8.813 -0.2408 -1.9550  0.2744
  945MOL0     H30373   5.938  10.150   8.822 -2.7726  0.7798  2.6291
  945MOL0     H30374   5.509  10.115   8.696 -0.4513  1.7406  1.7092
  945MOL0     H30375   5.553  10.285   8.628  3.3498  0.2366 -1.9504
  945MOL0     H30376   5.638  10.205   8.438  0.5676  1.7055  0.9686
  945MOL0     H30377   5.654  10.036   8.493 -1.3741 -0.2941  1.4365
  945MOL0     H30378   5.421  10.176   8.385  3.5462  2.8239  2.0743
  945MOL0     H30379   5.378  10.103   8.534  1.5487  2.0872  0.5126
  945MOL0     H30380   5.437   9.880   8.453 -3.5274 -0.8529 -1.4000
  945MOL0     H30381   5.490   9.948   8.293 -1.3893 -0.6027 -0.1747
  945MOL0     H30382   5.214   9.997   8.410  1.4221  3.4245  0.0201
  945MOL0     H30383   5.265  10.040   8.250 -1.3223  0.8863  2.2192
  945MOL0     H30384   5.130   9.834   8.241  0.5223 -1.5141  0.1521
  945MOL0     H30385   5.219   9.775   8.379 -1.5823 -0.5312 -0.1971
  945MOL0     H30386   5.414   9.721   8.254  1.2355  2.5514 -0.2231
  945MOL0     H30387   5.369   9.826   8.114  2.0460  2.2991  2.5059
  945MOL0     H30388   5.199   9.672   8.050  0.2882 -2.2207 -1.3369
  945MOL0     H30389   5.239   9.576   8.199  1.4726 -0.8750  0.0873
  945MOL0     H30390   5.703  10.414   8.560 -0.5329  1.6668  0.0402
  945MOL0     H30391   5.892  10.569   8.563 -0.7122 -1.5781 -2.4516
  945MOL0     H30392   6.077  10.818   8.984  0.8796 -0.0090  1.0698
  945MOL0     H30393   6.160  11.051   8.992  3.4248  2.5459 -1.7849
  945MOL0     H30394   5.232  11.223   8.619 -0.8238 -3.3376 -3.5086
  945MOL0     H30395   5.017  11.353   8.549  0.4199 -2.2207  0.4545
  945MOL0     H30396   4.825  11.657   8.444  2.1273  0.3966 -2.4084
  945MOL0     H30397   4.628  11.785   8.437  1.5069  1.4576 -1.0264
  945MOL0     H30398   4.491  11.903   8.200  0.0863  0.0619 -1.2498
  945MOL0     H30399   4.391  11.791   8.119  1.1188 -0.3866  0.5276
  945MOL0     H30400   4.287  11.964   8.348  0.5875 -0.6540  0.7343
  945MOL0     H30401   4.186  11.857   8.247 -0.2438  0.4920 -0.7467
  945MOL0     H30402   4.342  12.099   8.160  0.9070 -0.6704 -2.1039
  945MOL0     H30403   4.270  11.993   8.046 -0.5490 -1.8838  0.9507
  945MOL0     H30404   4.046  12.052   8.128  1.3062 -1.0757  0.9262
  945MOL0     H30405   4.140  12.213   8.108 -0.7822  1.8241  1.1106
  945MOL0     H30406   4.043  12.233   8.511  1.7702  0.3587 -0.7197
  945MOL0     H30407   4.460  11.504   8.147  0.0181 -1.3777 -0.4569
  945MOL0     H30408   4.606  11.384   8.014  1.6849  2.5486 -1.9033
  945MOL0     H30409   4.781  11.366   8.033  0.3168 -0.2579  0.4415
  945MOL0     H30410   4.666  11.285   8.144  2.7520 -0.7297 -1.7609
  946MOL0     O30411   0.085  10.775   5.288  0.0041 -0.6700  0.3305
  946MOL0     C30412   0.082  10.709   5.178  0.0191  1.0855  0.3458
  946MOL0     O30413   0.084  10.765   5.056  0.0203  0.9267  0.5590
  946MOL0     C30414   0.105  10.904   5.045  0.5051 -0.8432  0.2266
  946MOL0     C30415   0.223  10.960   5.071  0.0911 -0.3161 -1.1459
  946MOL0     C30416   0.238  11.102   5.070  0.0704 -0.2956  0.6624
  946MOL0     C30417   0.131  11.182   5.041  1.2781 -0.4521 -0.5779
  946MOL0     O30418   0.144  11.319   5.042 -0.8994  0.5839 -0.3586
  946MOL0     C30419   0.038  11.405   5.000  0.1294 -0.1512 -0.1863
  946MOL0     C30420   0.053  11.536   5.068  0.4165  0.4769 -0.6997
  946MOL0     C30421  -0.064  11.633   5.061  0.4067  0.1674 -0.0706
  946MOL0     C30422  -0.182  11.596   5.151  0.1035 -0.0038  0.0190
  946MOL0     C30423  -0.152  11.624   5.293 -0.3900  0.0565  0.0908
  946MOL0     C30424  -0.281  11.613   5.374  0.1834  0.0317  0.6060
  946MOL0     C30425  -0.263  11.686   5.503 -0.4392 -0.7394  0.1895
  946MOL0     C30426  -0.368  11.637   5.610  1.0818  0.3853 -0.0065
  946MOL0     N30427  -0.359  11.708   5.737 -0.0255  0.0253  0.0043
  946MOL0     C30428  -0.269  11.686   5.834 -0.4340  1.0032 -0.1553
  946MOL0     C30429  -0.307  11.767   5.944 -0.2616 -0.1103 -0.0018
  946MOL0     C30430  -0.231  11.782   6.077  0.2626 -0.2876 -0.5096
  946MOL0     C30431  -0.328  11.733   6.181 -0.0044 -0.6440 -0.1439
  946MOL0     C30432  -0.267  11.706   6.322 -0.1621 -0.6884 -0.3635
  946MOL0     C30433  -0.247  11.840   6.385  0.0187 -0.8592  0.7205
  946MOL0     O30434  -0.237  11.829   6.527 -0.2394  0.0586 -0.1306
  946MOL0     C30435  -0.241  11.940   6.592 -0.8300 -0.0950 -0.4300
  946MOL0     C30436  -0.325  12.052   6.584 -0.1855 -0.0385 -0.2380
  946MOL0     C30437  -0.309  12.160   6.675  0.1734 -0.3298 -0.6680
  946MOL0     C30438  -0.388  12.283   6.643 -0.1821 -1.0243 -0.9846
  946MOL0     C30439  -0.225  12.149   6.787  0.3096 -0.1522  0.8123
  946MOL0     C30440  -0.209  12.250   6.893  0.2256  0.0553 -0.1669
  946MOL0     O30441  -0.237  12.385   6.874  0.2526 -0.1523  0.1894
  946MOL0     C30442  -0.289  12.458   6.976 -0.8028  0.5104  0.1351
  946MOL0     C30443  -0.290  12.601   6.958 -0.0757 -0.1099  1.3657
  946MOL0     C30444  -0.343  12.687   7.054  0.5805  0.1336  0.4878
  946MOL0     C30445  -0.409  12.637   7.157  0.2814 -0.6134 -0.4010
  946MOL0     O30446  -0.492  12.728   7.220 -0.6984  0.2422 -0.1282
  946MOL0     C30447  -0.443  12.761   7.352 -0.2932 -0.6404  0.2557
  946MOL0     C30448  -0.364  12.888   7.342 -0.2844  0.2229 -0.4084
  946MOL0     C30449  -0.365  12.976   7.473  0.2523  0.5976  0.5248
  946MOL0     C30450  -0.329  13.120   7.445 -0.3945  0.3269 -0.3299
  946MOL0     C30451  -0.329  13.209   7.572  0.3961  0.4790  0.3560
  946MOL0     C30452  -0.332  13.357   7.534  0.4070 -0.3745 -0.6210
  946MOL0     C30453  -0.194  13.414   7.481 -0.9609  0.3642 -0.1643
  946MOL0     C30454  -0.207  13.540   7.402  0.2880  0.4854  0.0252
  946MOL0    Cl30455  -0.281  13.514   7.235 -0.3791  0.3330 -0.0070
  946MOL0     C30456  -0.422  12.502   7.168  0.7627  0.0752  0.1896
  946MOL0     C30457  -0.359  12.412   7.088  0.1843 -0.7568 -0.4321
  946MOL0     O30458  -0.176  12.204   7.002  0.7949  0.0290  0.4671
  946MOL0     C30459  -0.133  12.038   6.786 -1.4063  0.0126  0.8924
  946MOL0     C30460  -0.143  11.940   6.693  0.0818  1.0579 -0.4773
  946MOL0     N30461  -0.419  11.834   5.907  0.7107  0.5082  0.3390
  946MOL0     N30462  -0.450  11.797   5.784 -0.3698 -0.5762 -0.3108
  946MOL0     C30463   0.006  11.111   5.014 -0.6409  0.9631  1.2034
  946MOL0     C30464  -0.009  10.971   5.017 -0.7172  0.0685  0.0830
  946MOL0     C30465   0.073  10.558   5.192  1.1704  0.5918  0.2412
  946MOL0     C30466   0.067  10.502   5.326 -0.2499 -0.0759  0.3232
  946MOL0     C30467   0.078  10.368   5.339 -0.4306 -0.7816 -0.0058
  946MOL0     C30468   0.071  10.281   5.238  0.6822  0.0905 -0.2183
  946MOL0     O30469   0.065  10.142   5.268  0.5638 -0.3806 -0.9697
  946MOL0     C30470   0.088  10.044   5.178  0.4940 -0.6141  0.0980
  946MOL0     C30471   0.155   9.923   5.246  0.6723 -0.5446 -0.3473
  946MOL0     C30472   0.056   9.801   5.280  0.7247  0.3388  0.9111
  946MOL0     C30473   0.121   9.700   5.369 -0.5023 -0.1119 -0.4615
  946MOL0     C30474   0.063   9.570   5.418 -0.7001 -0.4386  0.6443
  946MOL0     C30475   0.002   9.471   5.449  0.0855 -0.2030  0.0646
  946MOL0     C30476   0.068  10.327   5.106  0.7027 -0.5719  0.0940
  946MOL0     C30477   0.070  10.463   5.080 -0.1030  0.9953  0.0959
  946MOL0     C30478   0.065  10.501   4.929  0.2225  0.6647 -0.7871
  946MOL0     H30479   0.305  10.899   5.108  0.7028  1.3106  0.3334
  946MOL0     H30480   0.328  11.160   5.089  0.7599 -0.3152 -2.1848
  946MOL0     H30481  -0.059  11.363   5.029  0.9750 -2.6686 -0.7326
  946MOL0     H30482   0.043  11.418   4.892  0.5413 -2.7930 -0.5489
  946MOL0     H30483   0.071  11.518   5.175 -0.2778  1.7421 -0.3554
  946MOL0     H30484   0.148  11.576   5.032  0.7951 -1.2666 -1.7472
  946MOL0     H30485  -0.031  11.734   5.084  0.7171  0.1169 -0.2833
  946MOL0     H30486  -0.101  11.631   4.958 -2.6438  3.4342  0.7829
  946MOL0     H30487  -0.267  11.659   5.121 -1.4591 -1.3600  1.4112
  946MOL0     H30488  -0.224  11.496   5.137 -2.4470  1.1387 -1.0839
  946MOL0     H30489  -0.111  11.725   5.304 -1.6236  0.5174  0.5790
  946MOL0     H30490  -0.082  11.558   5.344 -1.1627  0.0747  1.2139
  946MOL0     H30491  -0.379  11.640   5.333  1.1738  3.6134  0.2864
  946MOL0     H30492  -0.285  11.505   5.395 -0.1029  0.1206  1.0050
  946MOL0     H30493  -0.262  11.794   5.484 -0.6786 -0.2305  2.7401
  946MOL0     H30494  -0.167  11.659   5.546  0.3740 -1.9956 -2.2054
  946MOL0     H30495  -0.468  11.664   5.575  1.2867  2.2053  0.7075
  946MOL0     H30496  -0.368  11.529   5.621  1.7191  0.3786 -0.0689
  946MOL0     H30497  -0.185  11.617   5.828 -0.8248  0.2112  2.4408
  946MOL0     H30498  -0.219  11.885   6.113 -2.3187 -0.9868  2.8011
  946MOL0     H30499  -0.134  11.732   6.073  2.2761  3.1692  0.1133
  946MOL0     H30500  -0.412  11.801   6.201  2.1091  1.8908  0.7812
  946MOL0     H30501  -0.357  11.635   6.143  1.2173 -0.5237 -1.4508
  946MOL0     H30502  -0.345  11.660   6.384 -0.1615  0.4379  0.5135
  946MOL0     H30503  -0.178  11.645   6.306 -0.1704 -0.7049 -0.3462
  946MOL0     H30504  -0.160  11.890   6.342 -1.3585 -0.4000 -1.7936
  946MOL0     H30505  -0.333  11.905   6.365 -2.1223 -3.2762  1.3987
  946MOL0     H30506  -0.389  12.061   6.497  1.2331  3.4507 -1.0741
  946MOL0     H30507  -0.457  12.317   6.721  0.0247 -1.4476 -0.6138
  946MOL0     H30508  -0.447  12.277   6.551 -1.1435  0.4072 -0.4881
  946MOL0     H30509  -0.316  12.361   6.617  1.1397 -2.7255 -2.7500
  946MOL0     H30510  -0.265  12.635   6.858 -2.2014  0.8159  1.0845
  946MOL0     H30511  -0.353  12.793   7.031 -0.9958 -0.1687 -0.3665
  946MOL0     H30512  -0.532  12.785   7.412  0.4334  0.9336  0.7614
  946MOL0     H30513  -0.376  12.683   7.389  0.4053  0.1120  0.6148
  946MOL0     H30514  -0.261  12.871   7.308 -0.4705 -0.9706 -0.4433
  946MOL0     H30515  -0.401  12.949   7.259  0.3275  1.5473  0.2775
  946MOL0     H30516  -0.299  12.917   7.538 -2.7451 -2.2877  1.2621
  946MOL0     H30517  -0.461  12.967   7.525  1.2870 -1.1206  2.3199
  946MOL0     H30518  -0.399  13.168   7.375 -0.0014 -1.8634 -2.3607
  946MOL0     H30519  -0.233  13.123   7.392 -1.1390  4.0712 -1.8361
  946MOL0     H30520  -0.419  13.170   7.620  1.2919 -0.6224  1.1850
  946MOL0     H30521  -0.244  13.193   7.639  0.1860 -0.0186  0.5080
  946MOL0     H30522  -0.382  13.420   7.608  0.9117  0.2875 -0.8297
  946MOL0     H30523  -0.394  13.374   7.446 -0.1467 -1.2577 -0.4128
  946MOL0     H30524  -0.150  13.348   7.406 -3.6219 -1.8341  0.0413
  946MOL0     H30525  -0.121  13.425   7.562  0.1205 -1.0240 -0.8990
  946MOL0     H30526  -0.107  13.582   7.385  0.1340  0.7601 -0.2036
  946MOL0     H30527  -0.275  13.602   7.461  1.5447  0.4389  1.6280
  946MOL0     H30528  -0.485  12.466   7.248  1.1943  0.3056  0.6447
  946MOL0     H30529  -0.358  12.308   7.119 -1.4528 -1.8179 -3.5072
  946MOL0     H30530  -0.049  12.024   6.854  2.1800  1.8335 -2.7007
  946MOL0     H30531  -0.082  11.851   6.700  2.4427  2.5210 -1.1316
  946MOL0     H30532  -0.086  11.163   4.987 -0.1559  1.0475 -0.3745
  946MOL0     H30533  -0.097  10.914   4.989  1.2033 -3.2206  0.3077
  946MOL0     H30534   0.075  10.560   5.417  0.2003  0.6548 -0.1749
  946MOL0     H30535   0.081  10.327   5.439  2.9776 -0.4634  0.1581
  946MOL0     H30536   0.000  10.010   5.121 -0.0695  0.9575 -0.0293
  946MOL0     H30537   0.163  10.091   5.113 -0.0265  1.5930  0.9836
  946MOL0     H30538   0.214   9.950   5.334  2.0099 -0.8120 -1.1481
  946MOL0     H30539   0.223   9.889   5.168  1.1385  1.2068 -0.7634
  946MOL0     H30540  -0.030   9.836   5.337 -0.9191 -1.6907 -0.2023
  946MOL0     H30541   0.023   9.753   5.188  0.2893  1.9826  0.1718
  946MOL0     H30542   0.130   9.754   5.464  1.4053 -0.2091 -0.5448
  946MOL0     H30543   0.224   9.686   5.334  0.0301 -0.8950  1.2832
  946MOL0     H30544  -0.057   9.383   5.467 -0.2888 -0.0028 -0.1737
  946MOL0     H30545   0.048  10.265   5.019  0.9317 -3.1840  1.8002
  946MOL0     H30546   0.163  10.492   4.881  1.9895  0.1774  2.6260
  946MOL0     H30547  -0.007  10.442   4.870 -0.9582 -1.0748  2.1595
  946MOL0     H30548   0.022  10.601   4.915 -1.4738 -0.1897 -2.0098
  947MOL0     O30549  10.016   5.928   5.619 -0.2421  0.0793 -0.1026
  947MOL0     C30550  10.085   6.025   5.648 -0.2655 -0.5790  0.0279
  947MOL0     O30551  10.038   6.132   5.708 -0.4719  0.2960 -0.5722
  947MOL0     C30552   9.908   6.147   5.720 -1.1557  0.6476  0.1826
  947MOL0     C30553   9.844   6.095   5.819  1.2512 -0.6812  0.4053
  947MOL0     C30554   9.703   6.115   5.825 -0.0969 -0.2004  0.1763
  947MOL0     C30555   9.626   6.173   5.733  0.0962  0.1243  0.9820
  947MOL0     O30556   9.494   6.177   5.765 -0.2660  0.2779  0.1288
  947MOL0     C30557   9.400   6.240   5.681  0.4195 -0.0443  0.1463
  947MOL0     C30558   9.249   6.212   5.718 -0.3327  0.6660 -0.8464
  947MOL0     C30559   9.146   6.282   5.627  0.4299 -0.4349 -0.7686
  947MOL0     C30560   9.003   6.308   5.689  0.7603 -0.0594 -0.0240
  947MOL0     C30561   8.905   6.372   5.587  0.1461  0.7407 -0.0996
  947MOL0     C30562   8.833   6.277   5.487  0.2675  0.2827 -0.1099
  947MOL0     C30563   8.768   6.155   5.563  0.1667  0.1147  0.8123
  947MOL0     C30564   8.664   6.076   5.482  0.0129 -0.1935 -0.0562
  947MOL0     N30565   8.717   6.051   5.346 -0.1981  0.0609  0.2765
  947MOL0     C30566   8.669   6.110   5.229  0.5955 -0.6112  0.2728
  947MOL0     C30567   8.762   6.081   5.129  0.8726 -0.0312  0.1855
  947MOL0     C30568   8.755   6.132   4.990 -0.0836 -0.2539 -0.5852
  947MOL0     C30569   8.818   6.027   4.900  0.0236 -0.2865  0.7036
  947MOL0     C30570   8.792   6.053   4.751  0.8140  0.1009  0.2070
  947MOL0     C30571   8.884   6.154   4.697  0.0673  0.3814  0.6560
  947MOL0     O30572   8.865   6.175   4.558 -0.3674  0.1642  0.5787
  947MOL0     C30573   8.746   6.207   4.495 -0.2154 -0.6040  0.0774
  947MOL0     C30574   8.629   6.266   4.555 -0.6723 -0.1865  0.8000
  947MOL0     C30575   8.505   6.293   4.489 -0.6345  1.0800  0.4365
  947MOL0     C30576   8.376   6.340   4.564 -0.5180  0.0914 -0.2298
  947MOL0     C30577   8.511   6.253   4.352  0.1371  0.6053 -0.6521
  947MOL0     C30578   8.388   6.274   4.264 -1.4938 -0.0450  0.3955
  947MOL0     O30579   8.398   6.224   4.137  0.0377  0.2131 -0.0829
  947MOL0     C30580   8.290   6.248   4.055 -0.7052 -0.2973 -0.3511
  947MOL0     C30581   8.190   6.151   4.039 -0.1850  0.4438 -0.3460
  947MOL0     C30582   8.082   6.168   3.966  1.2673  0.0571  0.0545
  947MOL0     C30583   8.069   6.289   3.892 -0.4432  1.2182  0.4358
  947MOL0     O30584   7.961   6.312   3.810 -0.4804  0.7085  1.0917
  947MOL0     C30585   7.903   6.197   3.741  0.2494  1.1742  0.1442
  947MOL0     C30586   7.884   6.223   3.594 -0.5850 -0.1947  0.0480
  947MOL0     C30587   7.976   6.332   3.525 -0.1394  0.8090 -0.6967
  947MOL0     C30588   8.116   6.273   3.516  0.5789 -0.1038 -0.3634
  947MOL0     C30589   8.194   6.371   3.432 -0.3939  0.1344  0.1901
  947MOL0     C30590   8.339   6.333   3.415  0.0206 -1.0941 -0.2650
  947MOL0     C30591   8.409   6.436   3.322  0.3475  0.3493 -1.2577
  947MOL0     C30592   8.562   6.429   3.331 -0.0065  0.3498 -1.0362
  947MOL0    Cl30593   8.609   6.254   3.302  0.3407 -0.3345 -0.5595
  947MOL0     C30594   8.174   6.379   3.893  0.0631 -0.2390  0.2448
  947MOL0     C30595   8.279   6.364   3.987  0.0245 -0.7349 -0.3425
  947MOL0     O30596   8.293   6.335   4.308  0.1240  0.6834  0.7580
  947MOL0     C30597   8.626   6.211   4.289 -0.4137 -0.0472  0.8403
  947MOL0     C30598   8.741   6.182   4.361 -0.3342 -0.4364 -0.3383
  947MOL0     N30599   8.852   5.998   5.188  0.9145  0.4742 -0.4287
  947MOL0     N30600   8.828   5.975   5.314 -0.0504  0.5046  0.3821
  947MOL0     C30601   9.691   6.226   5.627  0.6925 -0.2246  0.1869
  947MOL0     C30602   9.836   6.223   5.630 -0.0554  0.4025  0.0347
  947MOL0     C30603  10.238   5.997   5.642  0.9958 -0.2045  0.0993
  947MOL0     C30604  10.283   5.890   5.569 -0.2841 -0.6808 -0.3139
  947MOL0     C30605  10.424   5.873   5.549 -0.0989  0.4043 -0.3391
  947MOL0     C30606  10.515   5.971   5.594  0.4998 -1.0145  0.5735
  947MOL0     O30607  10.656   5.957   5.581 -0.6848  0.6008 -0.2984
  947MOL0     C30608  10.716   5.875   5.475  0.1627 -0.3887  0.0010
  947MOL0     C30609  10.664   5.896   5.334 -0.6338  1.0409 -0.0984
  947MOL0     C30610  10.671   6.035   5.272  0.1968 -0.2670  0.3507
  947MOL0     C30611  10.586   6.061   5.150  0.9750 -0.4538 -1.0742
  947MOL0     C30612  10.601   5.973   5.033  0.2378 -0.1489  0.0363
  947MOL0     C30613  10.614   5.897   4.937  0.5857  0.0673 -0.0387
  947MOL0     C30614  10.462   6.066   5.679  0.5343  0.1181 -0.1104
  947MOL0     C30615  10.327   6.084   5.706  0.2492  0.4981 -0.5702
  947MOL0     C30616  10.293   6.208   5.786  0.8030  0.1234 -0.3957
  947MOL0     H30617   9.890   6.028   5.891 -0.3371 -1.6285  0.5718
  947MOL0     H30618   9.642   6.069   5.902 -1.3804 -0.1812 -0.8118
  947MOL0     H30619   9.404   6.205   5.577  0.5854 -1.3049  0.5622
  947MOL0     H30620   9.422   6.347   5.676 -2.7432  0.6525 -0.8585
  947MOL0     H30621   9.231   6.105   5.707 -0.3452  0.3002  1.9252
  947MOL0     H30622   9.236   6.235   5.824  1.0694  1.9944 -0.9220
  947MOL0     H30623   9.196   6.372   5.592  1.9778 -0.5297  1.0520
  947MOL0     H30624   9.117   6.219   5.542 -1.7905 -3.6272  2.0734
  947MOL0     H30625   8.955   6.217   5.727 -2.5418  0.7033 -1.9633
  947MOL0     H30626   9.018   6.381   5.768 -4.2654  4.5053 -2.6360
  947MOL0     H30627   8.953   6.444   5.520  0.3672  0.5656 -0.1312
  947MOL0     H30628   8.824   6.412   5.648  1.3761  0.9628  1.4485
  947MOL0     H30629   8.757   6.330   5.430 -1.7817  0.8327  2.8760
  947MOL0     H30630   8.916   6.255   5.419 -1.5254  1.0894 -2.6946
  947MOL0     H30631   8.719   6.191   5.653  0.4863  0.3445  0.8920
  947MOL0     H30632   8.856   6.090   5.571 -0.0496 -0.3637 -0.3344
  947MOL0     H30633   8.657   5.988   5.547 -1.2625  2.3163  3.4973
  947MOL0     H30634   8.565   6.123   5.473  1.1269  2.3808  0.4246
  947MOL0     H30635   8.589   6.182   5.217  0.4732 -0.8239 -0.1887
  947MOL0     H30636   8.819   6.219   4.974 -0.0301  0.1803  1.6617
  947MOL0     H30637   8.649   6.146   4.968 -0.0874  0.4849 -0.1092
  947MOL0     H30638   8.926   6.018   4.911  0.6268  1.8533 -2.3725
  947MOL0     H30639   8.767   5.932   4.922 -1.0047 -0.2243 -1.2283
  947MOL0     H30640   8.819   5.967   4.688 -0.2058  1.4412 -2.1837
  947MOL0     H30641   8.689   6.083   4.732 -0.1560 -1.4344  2.6254
  947MOL0     H30642   8.884   6.253   4.743  1.0260  1.5543 -1.6643
  947MOL0     H30643   8.985   6.110   4.700 -0.9711 -2.2101  0.4855
  947MOL0     H30644   8.627   6.317   4.650 -1.5480  1.8303 -0.2300
  947MOL0     H30645   8.400   6.379   4.664 -0.3742  1.4447 -0.7793
  947MOL0     H30646   8.311   6.254   4.579 -0.4161 -0.3687 -2.1776
  947MOL0     H30647   8.327   6.420   4.509  0.9122 -0.0350 -1.7813
  947MOL0     H30648   8.196   6.058   4.094 -0.9778  0.7510  0.2775
  947MOL0     H30649   8.000   6.097   3.964 -0.2711  1.6693 -3.5456
  947MOL0     H30650   7.965   6.107   3.741  0.0779  0.9952 -2.4457
  947MOL0     H30651   7.811   6.173   3.794  1.2492  0.9433  1.8810
  947MOL0     H30652   7.910   6.131   3.542 -0.2525  1.5189 -3.0884
  947MOL0     H30653   7.785   6.245   3.553  0.5504 -0.5701 -3.2502
  947MOL0     H30654   7.978   6.429   3.576 -1.8238 -0.0118  1.0561
  947MOL0     H30655   7.942   6.350   3.423 -1.0012 -1.0056 -0.7624
  947MOL0     H30656   8.110   6.176   3.466 -1.8581 -0.5690  0.7003
  947MOL0     H30657   8.163   6.253   3.613  1.6834 -3.5247 -1.4648
  947MOL0     H30658   8.143   6.368   3.335 -0.3636  0.1057  0.1754
  947MOL0     H30659   8.184   6.473   3.471  0.0155  0.1441  0.2681
  947MOL0     H30660   8.358   6.237   3.366 -0.8020 -2.1544  1.3980
  947MOL0     H30661   8.386   6.336   3.514 -0.5461 -3.6637  0.1731
  947MOL0     H30662   8.370   6.535   3.349  0.8194  0.0598  0.6452
  947MOL0     H30663   8.377   6.424   3.218 -0.7397 -1.6487 -0.7349
  947MOL0     H30664   8.585   6.461   3.433  1.2287  4.5344 -2.4210
  947MOL0     H30665   8.609   6.491   3.255  0.4987  0.1009 -0.9329
  947MOL0     H30666   8.166   6.472   3.838 -2.2411 -0.6835 -0.2544
  947MOL0     H30667   8.349   6.446   4.002  1.9190 -1.4893 -3.9735
  947MOL0     H30668   8.631   6.192   4.182 -1.8525 -0.8951  0.8933
  947MOL0     H30669   8.828   6.138   4.313 -0.2417 -2.3197  1.3884
  947MOL0     H30670   9.644   6.285   5.549 -0.5843 -2.0837 -0.5199
  947MOL0     H30671   9.900   6.266   5.554  0.1245  0.8506  0.4339
  947MOL0     H30672  10.225   5.818   5.512 -0.0551 -1.2043  0.1111
  947MOL0     H30673  10.463   5.789   5.491  0.5503  2.2099 -2.7101
  947MOL0     H30674  10.820   5.909   5.472  0.4573 -0.4456  4.0868
  947MOL0     H30675  10.724   5.767   5.494  0.6068 -0.4202 -0.3536
  947MOL0     H30676  10.564   5.852   5.343  0.1350 -0.3367  3.4488
  947MOL0     H30677  10.716   5.823   5.271 -0.4687  1.1491 -0.0896
  947MOL0     H30678  10.638   6.100   5.354 -0.7256  2.2862 -1.8702
  947MOL0     H30679  10.774   6.056   5.241  0.4231 -1.8274 -0.0105
  947MOL0     H30680  10.596   6.168   5.129  1.2684  0.1351  1.6654
  947MOL0     H30681  10.485   6.047   5.192  1.2339 -3.0503 -1.1560
  947MOL0     H30682  10.607   5.832   4.853 -0.1182  2.4926 -1.9811
  947MOL0     H30683  10.536   6.129   5.728 -1.9019  0.6844  3.1853
  947MOL0     H30684  10.237   6.284   5.730  2.2185  2.4543  1.1817
  947MOL0     H30685  10.232   6.184   5.874  3.6671  3.1382  2.7614
  947MOL0     H30686  10.384   6.255   5.824  2.9840 -0.8052 -3.9943
  948MOL0     O30687   9.358   2.219   5.041  0.2468 -0.1075 -0.6600
  948MOL0     C30688   9.410   2.102   5.043 -0.4022 -0.2197  0.6290
  948MOL0     O30689   9.433   2.030   5.150 -0.1485 -0.2006  0.0975
  948MOL0     C30690   9.378   2.082   5.272  0.5321  0.0283 -0.2558
  948MOL0     C30691   9.249   2.140   5.290 -0.8207  0.6959  0.2724
  948MOL0     C30692   9.210   2.171   5.424 -0.4475  0.2095 -0.1952
  948MOL0     C30693   9.287   2.151   5.537 -0.3977 -0.5256 -0.2533
  948MOL0     O30694   9.251   2.191   5.659  0.1363  0.0753 -0.7619
  948MOL0     C30695   9.201   2.329   5.658  1.5145  1.5351  0.5288
  948MOL0     C30696   9.234   2.396   5.785  0.1879  0.1405 -0.6349
  948MOL0     C30697   9.382   2.425   5.811  0.2987 -0.8543 -0.9140
  948MOL0     C30698   9.437   2.420   5.952  0.8651 -0.8545 -1.7875
  948MOL0     C30699   9.551   2.517   5.974 -0.9456 -0.3647 -0.0926
  948MOL0     C30700   9.693   2.468   5.940  0.1141  0.5563 -0.4661
  948MOL0     C30701   9.808   2.570   5.965 -0.6234  0.5717  0.1911
  948MOL0     C30702   9.799   2.683   5.857 -0.9247 -0.4661 -0.1791
  948MOL0     N30703   9.874   2.807   5.888  0.5704  0.8658 -0.8966
  948MOL0     C30704   9.857   2.893   5.999 -0.2275 -0.4651 -0.2087
  948MOL0     C30705   9.945   2.997   5.986 -0.2518 -0.1979 -0.6640
  948MOL0     C30706   9.979   3.108   6.084 -0.3604 -0.0035  0.0809
  948MOL0     C30707  10.099   3.064   6.163 -0.2040 -0.1301 -0.6252
  948MOL0     C30708  10.149   3.157   6.274 -0.3759 -0.1565 -0.5417
  948MOL0     C30709  10.250   3.085   6.370  0.7617 -0.9034 -0.2730
  948MOL0     O30710  10.367   3.161   6.387  0.0122 -0.6572  0.5722
  948MOL0     C30711  10.434   3.135   6.503  0.5011  0.4786 -1.6662
  948MOL0     C30712  10.405   3.200   6.624 -0.0246  0.4333 -0.3167
  948MOL0     C30713  10.475   3.192   6.746  0.6283  0.5165  0.3526
  948MOL0     C30714  10.423   3.269   6.862 -0.8514 -0.4107 -0.3877
  948MOL0     C30715  10.578   3.093   6.751 -0.0854 -0.0900  0.0393
  948MOL0     C30716  10.671   3.077   6.869  1.1277 -0.7320 -0.1361
  948MOL0     O30717  10.720   2.957   6.898  0.3404 -0.6063 -0.5999
  948MOL0     C30718  10.750   2.927   7.031  0.1090  0.1756 -0.5177
  948MOL0     C30719  10.656   2.837   7.101 -0.3327 -0.3125  0.1944
  948MOL0     C30720  10.663   2.821   7.236 -0.4879 -0.0628 -0.4080
  948MOL0     C30721  10.759   2.877   7.314 -0.0718  0.8435  0.3305
  948MOL0     O30722  10.751   2.863   7.450  0.4702 -0.6097  0.1682
  948MOL0     C30723  10.862   2.871   7.536 -0.7010  0.3541  0.1330
  948MOL0     C30724  10.820   2.863   7.685  0.7525 -0.0442  0.6068
  948MOL0     C30725  10.733   2.737   7.714  1.0014 -0.2640 -0.5343
  948MOL0     C30726  10.705   2.713   7.863 -0.2570  0.1900  0.5557
  948MOL0     C30727  10.610   2.593   7.898  0.5636  0.6277 -0.8848
  948MOL0     C30728  10.590   2.561   8.044  0.4443  0.4886 -0.1519
  948MOL0     C30729  10.506   2.433   8.068 -0.3572 -0.3696  0.1488
  948MOL0     C30730  10.462   2.427   8.214 -0.1958 -0.1207  0.6344
  948MOL0    Cl30731  10.603   2.436   8.330  0.3493  0.1719  0.5131
  948MOL0     C30732  10.858   2.962   7.254  0.1326  0.5958 -0.2645
  948MOL0     C30733  10.847   2.990   7.114  0.2372  0.2408 -0.2299
  948MOL0     O30734  10.700   3.184   6.922  0.2119 -0.3380 -0.3612
  948MOL0     C30735  10.601   3.009   6.638  0.2810 -0.7134 -0.6466
  948MOL0     C30736  10.538   3.043   6.517 -0.7662  0.0492 -0.4742
  948MOL0     N30737  10.013   2.976   5.872  0.1606 -0.0215 -0.0166
  948MOL0     N30738   9.974   2.870   5.816  0.4242  0.0760  0.1270
  948MOL0     C30739   9.417   2.092   5.515 -0.1539  0.3014  0.2137
  948MOL0     C30740   9.461   2.061   5.382  0.0572  0.0674 -0.2318
  948MOL0     C30741   9.443   2.032   4.914 -0.8440 -1.4011 -0.0364
  948MOL0     C30742   9.542   1.924   4.908  0.1068  0.3015 -0.5034
  948MOL0     C30743   9.601   1.886   4.788  0.0589 -0.2939  0.0854
  948MOL0     C30744   9.555   1.945   4.669 -0.3764  0.0505  0.0229
  948MOL0     O30745   9.618   1.913   4.552  0.0100  0.6210 -0.7006
  948MOL0     C30746   9.557   1.933   4.420 -0.4511 -0.2386 -1.2519
  948MOL0     C30747   9.685   1.904   4.326  0.6835  0.0022 -0.0664
  948MOL0     C30748   9.747   2.042   4.306 -0.1177  0.2317 -0.0696
  948MOL0     C30749   9.828   2.050   4.183 -0.1722 -0.2329  0.0166
  948MOL0     C30750   9.912   2.172   4.169  0.2857 -0.8505 -0.2982
  948MOL0     C30751   9.962   2.283   4.169  0.0386  0.0130 -0.0563
  948MOL0     C30752   9.438   2.028   4.666  0.0883  0.1956 -0.5768
  948MOL0     C30753   9.394   2.075   4.788  0.6136 -0.4013 -0.0725
  948MOL0     C30754   9.273   2.161   4.781  1.5608 -0.1079  0.7279
  948MOL0     H30755   9.172   2.146   5.213  0.4838  1.9663 -0.9722
  948MOL0     H30756   9.112   2.217   5.437  0.2625  1.4482  1.1275
  948MOL0     H30757   9.094   2.327   5.637  2.0328  1.9062 -2.5832
  948MOL0     H30758   9.251   2.389   5.582  0.0962  1.1628 -0.7502
  948MOL0     H30759   9.184   2.494   5.780 -1.1524 -0.5691 -2.1086
  948MOL0     H30760   9.197   2.328   5.863 -0.3576 -2.9454 -3.3753
  948MOL0     H30761   9.443   2.352   5.757 -0.1177 -2.7982  1.0900
  948MOL0     H30762   9.403   2.523   5.766  1.9846 -1.1247 -0.7996
  948MOL0     H30763   9.362   2.461   6.021  0.2677 -1.0061 -2.3349
  948MOL0     H30764   9.463   2.321   5.991  1.2560  0.3547  1.3719
  948MOL0     H30765   9.561   2.542   6.080  0.4038  2.1090 -0.7269
  948MOL0     H30766   9.527   2.606   5.915 -0.2854  0.0828  0.2968
  948MOL0     H30767   9.712   2.385   6.009  0.6639  0.2688 -0.9499
  948MOL0     H30768   9.706   2.427   5.839 -0.9616  0.9956 -0.7881
  948MOL0     H30769   9.907   2.524   5.954 -0.6365 -0.1380  2.5031
  948MOL0     H30770   9.802   2.609   6.067  3.1770  1.7152  0.1503
  948MOL0     H30771   9.839   2.643   5.763  1.4150  0.8991  0.1467
  948MOL0     H30772   9.700   2.716   5.827 -0.8202 -1.2503 -1.4668
  948MOL0     H30773   9.784   2.886   6.079 -0.5278  1.9862 -0.2073
  948MOL0     H30774   9.891   3.127   6.147 -2.3083 -1.3803 -2.0718
  948MOL0     H30775   9.991   3.198   6.024 -1.4357 -0.2666 -0.5602
  948MOL0     H30776  10.057   2.974   6.207 -1.1140 -0.8721 -2.8900
  948MOL0     H30777  10.181   3.037   6.096 -0.4421 -2.2655 -0.1274
  948MOL0     H30778  10.198   3.247   6.237 -0.7407  0.0947 -0.4259
  948MOL0     H30779  10.060   3.186   6.331  0.4737  0.3355  0.5613
  948MOL0     H30780  10.197   3.065   6.464  0.4308  2.1170  0.3014
  948MOL0     H30781  10.279   2.986   6.335  1.4288 -1.3576  1.4491
  948MOL0     H30782  10.320   3.268   6.620  0.5610  1.4389  2.2590
  948MOL0     H30783  10.315   3.260   6.875 -0.9630 -0.2605 -1.1634
  948MOL0     H30784  10.471   3.367   6.865  1.9104 -1.6224 -1.1082
  948MOL0     H30785  10.457   3.226   6.957 -1.1136  0.4144  0.0833
  948MOL0     H30786  10.578   2.781   7.050 -3.1325  0.4938  3.2196
  948MOL0     H30787  10.578   2.777   7.287 -0.1545  0.5938  0.7532
  948MOL0     H30788  10.944   2.798   7.524  0.0642  1.0250  1.1235
  948MOL0     H30789  10.919   2.962   7.514  1.5974 -1.4244 -1.9489
  948MOL0     H30790  10.913   2.859   7.742 -0.0361 -1.3234  1.8907
  948MOL0     H30791  10.766   2.953   7.715  1.0402  0.2844  0.1462
  948MOL0     H30792  10.775   2.644   7.676  0.7280 -0.5609 -0.1215
  948MOL0     H30793  10.633   2.745   7.671 -0.3936  1.8275  2.6832
  948MOL0     H30794  10.658   2.796   7.916  0.1691  0.0002  1.2332
  948MOL0     H30795  10.804   2.697   7.906  1.4168  1.0261 -2.6341
  948MOL0     H30796  10.518   2.635   7.855  1.5463 -0.0400 -3.8561
  948MOL0     H30797  10.647   2.506   7.844  1.4910  0.8281 -0.5891
  948MOL0     H30798  10.537   2.638   8.099  1.4663  0.1992  1.3094
  948MOL0     H30799  10.684   2.554   8.099  0.9050  3.5050 -0.4241
  948MOL0     H30800  10.547   2.342   8.024  1.3166  0.7137 -0.6314
  948MOL0     H30801  10.414   2.448   8.011  0.6423  1.9355 -0.9651
  948MOL0     H30802  10.417   2.329   8.233  2.2789 -1.6682 -0.9406
  948MOL0     H30803  10.384   2.500   8.237  0.4985  1.1483 -0.8495
  948MOL0     H30804  10.927   3.023   7.311 -1.2685 -2.4503  5.4173
  948MOL0     H30805  10.899   3.077   7.075  0.5586  0.3149  0.3435
  948MOL0     H30806  10.672   2.927   6.628 -0.3340 -1.1617 -1.5950
  948MOL0     H30807  10.557   2.990   6.424  2.9688  2.8923 -1.5986
  948MOL0     H30808   9.492   2.072   5.591 -0.1588  0.2248  0.1989
  948MOL0     H30809   9.544   1.991   5.378 -2.2024 -2.8288 -0.6298
  948MOL0     H30810   9.574   1.886   5.004  1.4835 -0.2071 -1.1369
  948MOL0     H30811   9.658   1.796   4.769 -0.3742 -0.4292 -0.6247
  948MOL0     H30812   9.481   1.857   4.398  0.7015 -0.9678 -2.9070
  948MOL0     H30813   9.514   2.031   4.399 -2.9786 -0.9336  0.2248
  948MOL0     H30814   9.650   1.876   4.227  3.5561  0.2595 -1.2612
  948MOL0     H30815   9.750   1.823   4.362  1.6079 -0.7493 -3.1686
  948MOL0     H30816   9.663   2.112   4.303 -0.7516 -0.3419  2.1942
  948MOL0     H30817   9.811   2.051   4.395  1.2720 -0.0882 -0.9977
  948MOL0     H30818   9.762   2.049   4.096  0.3731 -0.4306 -0.3982
  948MOL0     H30819   9.905   1.973   4.180  1.1907  0.9235  2.3323
  948MOL0     H30820  10.022   2.372   4.170  1.9549 -1.2236  0.4985
  948MOL0     H30821   9.395   2.060   4.572  1.8299  0.7824 -1.2182
  948MOL0     H30822   9.302   2.262   4.751 -2.1242  1.2630  1.3981
  948MOL0     H30823   9.219   2.125   4.693  2.7892 -2.4349  0.8445
  948MOL0     H30824   9.202   2.161   4.863 -0.0309 -0.6177 -0.6008
  949MOL0     O30825   5.194  11.514   2.778  0.2538 -0.2084  0.7158
  949MOL0     C30826   5.131  11.422   2.720 -0.9242 -0.2823  0.4748
  949MOL0     O30827   5.058  11.436   2.607  0.2940 -0.9723 -0.2543
  949MOL0     C30828   5.056  11.559   2.551  0.9440 -0.8301 -0.0442
  949MOL0     C30829   4.929  11.619   2.555 -0.0988 -0.2196  0.1071
  949MOL0     C30830   4.918  11.741   2.483 -0.0268 -0.2880  0.1470
  949MOL0     C30831   5.018  11.789   2.399  0.0430  0.3522  0.4073
  949MOL0     O30832   5.010  11.891   2.310  0.9296  0.4678  0.5972
  949MOL0     C30833   4.878  11.902   2.243 -1.3494  0.6055 -0.5081
  949MOL0     C30834   4.778  11.975   2.321  0.8973  0.2531  0.5373
  949MOL0     C30835   4.636  11.922   2.283 -0.4946 -0.1068  0.4899
  949MOL0     C30836   4.524  12.001   2.357 -0.6508  0.7261 -0.3973
  949MOL0     C30837   4.405  11.951   2.290  0.3896  0.7804 -0.6639
  949MOL0     C30838   4.273  12.024   2.349  0.7855  0.5796  0.0768
  949MOL0     C30839   4.154  11.986   2.267 -0.3668 -0.1997  1.2993
  949MOL0     C30840   4.048  12.087   2.300 -0.2681  0.0594 -0.5910
  949MOL0     N30841   3.930  12.079   2.220  0.0174  0.3207 -0.3281
  949MOL0     C30842   3.871  11.963   2.181  0.1959  0.8335 -0.4646
  949MOL0     C30843   3.766  11.999   2.103  0.6277  0.5410 -0.3899
  949MOL0     C30844   3.671  11.914   2.013  1.2527  0.5075  0.1653
  949MOL0     C30845   3.571  11.837   2.089  0.5176  0.2372  0.5009
  949MOL0     C30846   3.526  11.703   2.045 -0.1538 -0.6040 -0.3703
  949MOL0     C30847   3.471  11.719   1.898 -0.5244  0.4444  0.3562
  949MOL0     O30848   3.574  11.737   1.797  0.2272 -0.9841 -0.0878
  949MOL0     C30849   3.554  11.708   1.666 -0.5049  0.0940  0.5059
  949MOL0     C30850   3.431  11.715   1.592 -0.0198 -0.5750 -0.3554
  949MOL0     C30851   3.430  11.682   1.460 -0.5758 -0.2427  0.5067
  949MOL0     C30852   3.295  11.680   1.395  0.1677 -0.5335  0.3018
  949MOL0     C30853   3.553  11.649   1.392  1.0216  0.2110 -1.0126
  949MOL0     C30854   3.566  11.660   1.241 -0.0530 -0.0132 -0.0260
  949MOL0     O30855   3.504  11.769   1.179  0.0907 -0.5235  0.1598
  949MOL0     C30856   3.470  11.766   1.044  1.2098 -0.0914  0.3317
  949MOL0     C30857   3.342  11.812   1.006 -0.2163 -0.3836  0.1368
  949MOL0     C30858   3.302  11.811   0.870 -0.3992 -0.2329  0.4009
  949MOL0     C30859   3.387  11.760   0.759 -0.6374  0.0583  0.7108
  949MOL0     O30860   3.366  11.763   0.627  0.0528  1.0833  0.1589
  949MOL0     C30861   3.255  11.836   0.585  0.3279 -0.7462  0.5564
  949MOL0     C30862   3.283  11.879   0.434  0.8180  0.2676  0.7542
  949MOL0     C30863   3.408  11.965   0.416 -0.4817  0.2898 -0.1782
  949MOL0     C30864   3.424  11.999   0.259  0.1241  0.3497 -0.6321
  949MOL0     C30865   3.574  12.036   0.218 -0.3545 -0.6683 -0.2689
  949MOL0     C30866   3.591  12.041   0.065 -0.0344 -0.3827 -0.1399
  949MOL0     C30867   3.738  12.055   0.033  0.8872  1.0832 -0.1700
  949MOL0     C30868   3.805  12.182   0.079 -0.0801  0.5470  0.6343
  949MOL0    Cl30869   3.710  12.326   0.013 -0.1209 -0.2136  0.3417
  949MOL0     C30870   3.506  11.701   0.800 -1.4540 -0.2992 -0.5564
  949MOL0     C30871   3.548  11.710   0.940  1.1692 -0.2879  1.2760
  949MOL0     O30872   3.606  11.562   1.181 -0.2410  0.6822 -0.1791
  949MOL0     C30873   3.667  11.642   1.466  0.0927 -0.6476 -0.4065
  949MOL0     C30874   3.674  11.674   1.597 -0.0885 -0.9217  0.1451
  949MOL0     N30875   3.757  12.136   2.129 -0.2449  0.5413 -0.2498
  949MOL0     N30876   3.854  12.183   2.186  0.6886  0.2737  0.3334
  949MOL0     C30877   5.135  11.712   2.387 -0.0653  0.1564  0.2347
  949MOL0     C30878   5.158  11.602   2.474 -0.0384 -0.1936 -0.1037
  949MOL0     C30879   5.133  11.290   2.780  0.0263  0.6273 -1.4896
  949MOL0     C30880   5.132  11.279   2.915 -0.1105  0.0828 -0.3870
  949MOL0     C30881   5.121  11.159   2.978  0.3126  0.2298  0.7018
  949MOL0     C30882   5.129  11.036   2.906  0.4845 -0.2891 -0.5562
  949MOL0     O30883   5.143  10.910   2.963 -0.0800  0.4423 -0.4220
  949MOL0     C30884   5.099  10.880   3.096  0.2723 -0.2415  0.5323
  949MOL0     C30885   5.063  10.725   3.111 -0.1453  0.5743 -0.1592
  949MOL0     C30886   4.941  10.672   3.025 -0.7328 -0.5404  0.5281
  949MOL0     C30887   4.812  10.675   3.102  0.5262 -0.0547  0.4856
  949MOL0     C30888   4.694  10.634   3.026  0.3414 -0.3593 -0.5614
  949MOL0     C30889   4.583  10.609   2.981 -0.8638 -0.4012  0.4464
  949MOL0     C30890   5.149  11.052   2.768 -0.0581  0.1289  0.1249
  949MOL0     C30891   5.145  11.172   2.702 -0.0365 -0.2240 -0.0407
  949MOL0     C30892   5.172  11.178   2.555  0.7147 -0.7224 -0.3525
  949MOL0     H30893   4.848  11.574   2.609  0.4723  0.6180  1.7291
  949MOL0     H30894   4.821  11.789   2.491  0.6140  0.6788  3.9791
  949MOL0     H30895   4.853  11.798   2.222 -1.1204 -0.2494  2.8999
  949MOL0     H30896   4.894  11.958   2.150  1.2673  1.8655  0.5893
  949MOL0     H30897   4.801  11.974   2.428  1.8652  0.4762  0.3376
  949MOL0     H30898   4.771  12.074   2.275 -1.9186 -0.7872 -1.5584
  949MOL0     H30899   4.611  11.929   2.176 -2.4255 -2.8415  0.6478
  949MOL0     H30900   4.636  11.814   2.302  2.0617 -0.3071 -0.2113
  949MOL0     H30901   4.528  11.958   2.458  0.7353  0.8714 -0.3740
  949MOL0     H30902   4.526  12.109   2.343  1.2137  0.7711 -0.1059
  949MOL0     H30903   4.406  11.847   2.323  1.0293  0.5350 -1.4190
  949MOL0     H30904   4.408  11.957   2.181 -0.8372 -1.8413 -0.9188
  949MOL0     H30905   4.248  11.991   2.451  0.3078  0.6654 -0.0082
  949MOL0     H30906   4.295  12.130   2.339 -1.1030  0.9399 -0.7643
  949MOL0     H30907   4.124  11.883   2.288  0.1575 -0.2651  1.7369
  949MOL0     H30908   4.185  11.993   2.162  0.0433  0.9837  1.4916
  949MOL0     H30909   4.025  12.073   2.406 -3.2371  1.2866 -0.9727
  949MOL0     H30910   4.091  12.188   2.295 -1.4991  0.7144  1.1043
  949MOL0     H30911   3.900  11.859   2.190 -1.8369  0.0912 -1.6575
  949MOL0     H30912   3.735  11.843   1.960 -2.2029 -0.8324 -2.5962
  949MOL0     H30913   3.626  11.986   1.944  0.2599  1.1699  1.4505
  949MOL0     H30914   3.594  11.823   2.195  1.9133  0.6020  0.2573
  949MOL0     H30915   3.484  11.904   2.093 -1.4945 -2.1874  0.1434
  949MOL0     H30916   3.601  11.625   2.053 -1.2822 -1.5724  1.6284
  949MOL0     H30917   3.445  11.673   2.113  0.2810  2.9900  2.0818
  949MOL0     H30918   3.416  11.628   1.872  1.4630 -0.9043  0.6635
  949MOL0     H30919   3.416  11.813   1.893 -1.7762 -0.2654  0.4936
  949MOL0     H30920   3.340  11.747   1.642  0.7684  1.7261 -0.2280
  949MOL0     H30921   3.270  11.781   1.360  2.0296  1.2815  3.6712
  949MOL0     H30922   3.221  11.645   1.468  1.1400  1.3672  2.3016
  949MOL0     H30923   3.293  11.616   1.307 -2.7185  2.3666 -1.9743
  949MOL0     H30924   3.276  11.842   1.088  1.3760  0.3543  1.1966
  949MOL0     H30925   3.202  11.847   0.847 -0.3625  0.8389  1.8214
  949MOL0     H30926   3.171  11.766   0.593  1.6625 -2.4836 -0.0062
  949MOL0     H30927   3.227  11.923   0.645 -3.9367 -2.4964  1.4813
  949MOL0     H30928   3.276  11.793   0.367 -1.1721  2.6809 -2.4296
  949MOL0     H30929   3.203  11.943   0.397 -0.3015 -0.4295  1.8712
  949MOL0     H30930   3.498  11.911   0.448 -1.7527 -2.5298 -1.1149
  949MOL0     H30931   3.403  12.062   0.467  1.3829  0.5812 -0.4775
  949MOL0     H30932   3.358  12.083   0.237  1.3909  1.1541 -1.4707
  949MOL0     H30933   3.383  11.910   0.210 -0.4260  0.5638 -0.5623
  949MOL0     H30934   3.609  12.126   0.270  4.4322 -2.8978  0.9607
  949MOL0     H30935   3.630  11.956   0.268 -2.5237 -0.5557  2.5695
  949MOL0     H30936   3.543  12.131   0.024  4.3627  1.4585 -1.8358
  949MOL0     H30937   3.555  11.948   0.021 -1.2532  0.6522 -1.4592
  949MOL0     H30938   3.746  12.048  -0.076 -0.5248 -0.6508 -0.2105
  949MOL0     H30939   3.780  11.962   0.072 -0.7644 -1.5924 -4.1354
  949MOL0     H30940   3.912  12.179   0.056  0.1898 -5.2976  1.0013
  949MOL0     H30941   3.807  12.186   0.188 -0.4081 -0.1984  0.6772
  949MOL0     H30942   3.570  11.657   0.724 -1.0956 -0.1247 -0.3583
  949MOL0     H30943   3.644  11.664   0.962  1.4550  1.8004  5.1368
  949MOL0     H30944   3.759  11.604   1.422  0.2897 -2.6805  1.5977
  949MOL0     H30945   3.769  11.661   1.648  1.3361  0.7605 -1.8720
  949MOL0     H30946   5.197  11.733   2.300  1.7311 -2.3198  0.8027
  949MOL0     H30947   5.247  11.539   2.471 -1.0933 -1.8424  1.2005
  949MOL0     H30948   5.122  11.368   2.977 -0.3288 -1.4480  1.8797
  949MOL0     H30949   5.125  11.143   3.086  0.3205 -0.4258  0.6114
  949MOL0     H30950   5.175  10.922   3.162  0.4965  0.0597  0.0804
  949MOL0     H30951   5.005  10.935   3.109  1.4678  1.8864  0.3932
  949MOL0     H30952   5.047  10.691   3.213 -1.0012 -0.8891 -0.7554
  949MOL0     H30953   5.142  10.663   3.068 -0.7376  0.6994 -1.4949
  949MOL0     H30954   4.933  10.723   2.928 -1.8826 -2.8851 -0.6960
  949MOL0     H30955   4.956  10.564   3.011 -2.1357 -0.6176 -0.6766
  949MOL0     H30956   4.794  10.773   3.146  2.0499 -0.1567  1.4011
  949MOL0     H30957   4.816  10.598   3.180  0.8562 -0.6434 -0.1021
  949MOL0     H30958   4.489  10.602   2.931 -0.3088  4.2020 -1.7383
  949MOL0     H30959   5.154  10.960   2.709  0.2498  1.3915 -1.9212
  949MOL0     H30960   5.254  11.246   2.532  0.2820  0.1976  0.7090
  949MOL0     H30961   5.201  11.076   2.529  2.2360 -0.3319 -0.2953
  949MOL0     H30962   5.088  11.213   2.495  0.1435  1.7902  1.7643
  950MOL0     O30963   7.575   8.883  10.086 -0.3118 -0.6047 -0.0698
  950MOL0     C30964   7.624   8.974  10.015  0.6967 -0.3652  0.1673
  950MOL0     O30965   7.649   8.968   9.880  0.8184 -0.1376  0.0361
  950MOL0     C30966   7.614   8.856   9.815  0.0929 -0.0301  0.3553
  950MOL0     C30967   7.513   8.757   9.841 -1.2620 -0.0024 -0.7097
  950MOL0     C30968   7.483   8.652   9.758  0.1786 -0.0733  0.1870
  950MOL0     C30969   7.552   8.640   9.631  0.8283 -0.2649  1.0127
  950MOL0     O30970   7.522   8.548   9.534 -0.4572  0.3332  0.4398
  950MOL0     C30971   7.473   8.413   9.573  0.2282  1.0044 -0.1430
  950MOL0     C30972   7.350   8.375   9.499 -0.8180  0.3950  0.6424
  950MOL0     C30973   7.363   8.372   9.337  0.5300  0.0898 -0.1076
  950MOL0     C30974   7.225   8.381   9.272 -0.3270  0.7705  0.0793
  950MOL0     C30975   7.220   8.371   9.117  0.5119 -0.1210  0.1939
  950MOL0     C30976   7.307   8.467   9.028  0.1224  0.0479  0.2638
  950MOL0     C30977   7.279   8.456   8.873 -0.2611  0.4225 -0.8061
  950MOL0     C30978   7.367   8.559   8.809 -0.3698 -0.6179  0.4231
  950MOL0     N30979   7.332   8.589   8.668  0.4113 -0.2474  0.2083
  950MOL0     C30980   7.349   8.489   8.572  0.0373  0.0743  0.0404
  950MOL0     C30981   7.294   8.540   8.462  0.3966 -0.4847 -0.6397
  950MOL0     C30982   7.271   8.475   8.338  0.0092 -0.2592  0.5543
  950MOL0     C30983   7.354   8.530   8.220 -1.1200 -0.0495 -2.1050
  950MOL0     C30984   7.496   8.469   8.208  0.0361 -0.2250 -0.5708
  950MOL0     C30985   7.601   8.496   8.316  0.8063  0.9236 -0.1876
  950MOL0     O30986   7.595   8.375   8.399 -0.4984 -0.4865  0.1577
  950MOL0     C30987   7.651   8.367   8.521  0.5322  0.1340  0.1997
  950MOL0     C30988   7.740   8.462   8.584 -0.1316  0.5233  0.2653
  950MOL0     C30989   7.798   8.436   8.712  0.1291 -0.4550 -0.2357
  950MOL0     C30990   7.886   8.548   8.773 -0.2599 -0.6599  1.1958
  950MOL0     C30991   7.767   8.311   8.782 -0.5484 -1.1925 -0.0790
  950MOL0     C30992   7.820   8.274   8.915 -0.5226 -0.5071 -0.5245
  950MOL0     O30993   7.805   8.149   8.957 -0.0460  0.1366 -0.7845
  950MOL0     C30994   7.841   8.119   9.090 -0.0232 -2.0589  0.0947
  950MOL0     C30995   7.753   8.149   9.199  0.1413  0.3086  0.4103
  950MOL0     C30996   7.792   8.123   9.326  0.4177 -0.0315  0.2641
  950MOL0     C30997   7.923   8.090   9.349 -0.5220 -0.4572 -0.3767
  950MOL0     O30998   7.955   8.075   9.480 -0.1614 -0.6453  0.0697
  950MOL0     C30999   8.086   8.017   9.509 -0.1090 -0.1808 -0.1390
  950MOL0     C31000   8.094   7.990   9.659 -0.0282 -0.2884 -0.4272
  950MOL0     C31001   8.211   7.890   9.699  0.3921  0.1774  0.3463
  950MOL0     C31002   8.250   7.876   9.844 -0.5620 -0.6145 -0.5737
  950MOL0     C31003   8.274   7.733   9.886  0.2958 -0.8899 -0.0734
  950MOL0     C31004   8.389   7.665   9.817 -0.0121  0.4729 -0.4446
  950MOL0     C31005   8.399   7.528   9.872 -0.2429 -0.7213 -0.4815
  950MOL0     C31006   8.500   7.450   9.793  0.3046 -0.0288  0.6344
  950MOL0    Cl31007   8.660   7.522   9.789 -0.4344 -0.1511 -0.0161
  950MOL0     C31008   8.009   8.058   9.247 -0.0541 -0.3533 -0.6420
  950MOL0     C31009   7.967   8.068   9.109 -0.2850  0.7728  0.1860
  950MOL0     O31010   7.871   8.359   8.983 -0.7671  0.6330 -0.1942
  950MOL0     C31011   7.685   8.220   8.710  0.8427 -0.2452  0.1769
  950MOL0     C31012   7.624   8.249   8.587 -0.4306  0.1395 -0.3694
  950MOL0     N31013   7.270   8.678   8.486 -0.1965  0.2305  0.1432
  950MOL0     N31014   7.304   8.703   8.603  0.0678  0.4497  0.3984
  950MOL0     C31015   7.648   8.741   9.604  0.1060  1.1639  0.0421
  950MOL0     C31016   7.681   8.840   9.697 -0.7120  0.4329 -0.1643
  950MOL0     C31017   7.657   9.115  10.071 -0.6855  1.3708 -0.6101
  950MOL0     C31018   7.683   9.220   9.981 -0.1574  0.2434 -0.4101
  950MOL0     C31019   7.736   9.346  10.021  0.2325  0.3906  0.2717
  950MOL0     C31020   7.765   9.370  10.159  0.0038  0.0073  0.5641
  950MOL0     O31021   7.823   9.490  10.188  0.4536 -0.4294 -0.1767
  950MOL0     C31022   7.913   9.489  10.297 -0.2868 -1.0020  0.7184
  950MOL0     C31023   8.006   9.603  10.297 -0.8149 -0.8481  0.3595
  950MOL0     C31024   8.116   9.625  10.407  0.4380  0.1474 -0.6974
  950MOL0     C31025   8.205   9.498  10.413  0.1261 -0.3312 -0.0359
  950MOL0     C31026   8.290   9.495  10.528  0.5914  0.6116 -1.8162
  950MOL0     C31027   8.358   9.479  10.627  0.0567  0.4469  0.2548
  950MOL0     C31028   7.740   9.266  10.246  1.1753 -0.1377 -0.7434
  950MOL0     C31029   7.690   9.134  10.205  0.2488 -0.5187  0.2079
  950MOL0     C31030   7.678   9.026  10.320  0.5912 -0.2833 -0.1125
  950MOL0     H31031   7.453   8.761   9.931  0.1271 -1.6964  0.3521
  950MOL0     H31032   7.398   8.588   9.782 -2.0728  1.9368 -1.9001
  950MOL0     H31033   7.455   8.401   9.680  2.8433  1.9487  0.4838
  950MOL0     H31034   7.547   8.337   9.543 -0.5193  0.3840 -0.4613
  950MOL0     H31035   7.316   8.278   9.535 -3.2133  0.5879 -0.8406
  950MOL0     H31036   7.281   8.454   9.529  1.5680  1.3271  4.3570
  950MOL0     H31037   7.436   8.451   9.316  0.8871 -0.2735 -0.2361
  950MOL0     H31038   7.408   8.279   9.303  0.4940  0.0943 -0.1682
  950MOL0     H31039   7.151   8.305   9.299 -0.0077  0.5472  0.3289
  950MOL0     H31040   7.174   8.473   9.305  2.4924  2.2128  0.7345
  950MOL0     H31041   7.117   8.394   9.090 -0.8367 -0.6252  4.2112
  950MOL0     H31042   7.229   8.269   9.079 -2.1501 -1.2486  2.1982
  950MOL0     H31043   7.280   8.571   9.051  1.7037  0.4408  0.4688
  950MOL0     H31044   7.414   8.451   9.045  0.2551  0.9559  0.3448
  950MOL0     H31045   7.178   8.487   8.845  0.5396  0.0521 -4.7066
  950MOL0     H31046   7.302   8.359   8.827  0.2984 -0.2212  0.7707
  950MOL0     H31047   7.367   8.649   8.872 -0.5745 -1.2161  1.2885
  950MOL0     H31048   7.469   8.518   8.817 -0.0613  0.1819  0.7299
  950MOL0     H31049   7.391   8.390   8.581  0.5251  0.0653 -1.9589
  950MOL0     H31050   7.171   8.511   8.310  1.5482  4.8455  0.7195
  950MOL0     H31051   7.282   8.366   8.345  0.6542 -0.3030 -0.8085
  950MOL0     H31052   7.296   8.496   8.134 -2.9725 -0.8341 -0.6365
  950MOL0     H31053   7.355   8.639   8.223  1.0230 -0.0543 -0.3026
  950MOL0     H31054   7.490   8.361   8.193 -2.5974 -0.2182 -0.0276
  950MOL0     H31055   7.539   8.509   8.115  2.0955 -1.1165 -0.0714
  950MOL0     H31056   7.701   8.510   8.274  0.3188 -0.3955 -1.9362
  950MOL0     H31057   7.578   8.585   8.376  3.5697 -0.1615  2.7167
  950MOL0     H31058   7.751   8.562   8.545 -2.8300  1.4714  1.6589
  950MOL0     H31059   7.973   8.504   8.823  0.2116  0.0395  0.9980
  950MOL0     H31060   7.832   8.603   8.851  1.9338  1.3908  1.3803
  950MOL0     H31061   7.916   8.620   8.697  0.8053 -0.7264  1.5410
  950MOL0     H31062   7.660   8.200   9.179  0.2918 -0.0993 -1.5317
  950MOL0     H31063   7.727   8.153   9.408 -0.9140 -0.0525 -0.7528
  950MOL0     H31064   8.105   7.924   9.454  1.0953  0.9684 -1.7425
  950MOL0     H31065   8.168   8.082   9.481  1.2299 -1.1194  1.4212
  950MOL0     H31066   8.107   8.083   9.715  1.3233 -0.4709 -0.4057
  950MOL0     H31067   7.999   7.949   9.695  0.9230 -2.5980 -0.3894
  950MOL0     H31068   8.304   7.919   9.650 -0.6010  1.1756 -1.0648
  950MOL0     H31069   8.190   7.792   9.655  0.3449  0.2402  0.2276
  950MOL0     H31070   8.176   7.921   9.911  0.4253 -0.2106  0.2734
  950MOL0     H31071   8.340   7.938   9.849 -1.9350  1.6931 -2.1026
  950MOL0     H31072   8.282   7.725   9.995 -0.2533 -0.6220 -0.0071
  950MOL0     H31073   8.186   7.670   9.871 -0.5858 -0.2752  2.1306
  950MOL0     H31074   8.481   7.724   9.818  0.3579  0.2630 -4.4350
  950MOL0     H31075   8.363   7.645   9.713 -1.0655 -0.5090 -0.0150
  950MOL0     H31076   8.305   7.473   9.883 -0.6197  0.2915  1.8159
  950MOL0     H31077   8.426   7.543   9.977  2.3923  0.9125 -1.3000
  950MOL0     H31078   8.470   7.448   9.688 -0.0586 -0.8770  0.7469
  950MOL0     H31079   8.508   7.346   9.827 -0.2048 -0.5336 -0.7395
  950MOL0     H31080   8.108   8.021   9.268  0.0326  0.5528  0.6615
  950MOL0     H31081   8.030   8.047   9.023 -1.0234 -0.4441 -0.0850
  950MOL0     H31082   7.683   8.122   8.757 -1.3438 -0.3873 -0.0871
  950MOL0     H31083   7.568   8.165   8.547  1.2606 -2.9773  3.2628
  950MOL0     H31084   7.707   8.723   9.514  2.3168  0.9181  1.4749
  950MOL0     H31085   7.768   8.897   9.665 -0.4013 -0.9716 -1.9915
  950MOL0     H31086   7.660   9.198   9.877  2.3785  0.0892 -0.9949
  950MOL0     H31087   7.746   9.429   9.951  0.7674  1.5669  1.6857
  950MOL0     H31088   7.857   9.490  10.391 -0.1083  0.6866  0.8429
  950MOL0     H31089   7.974   9.398  10.294 -1.1405 -1.5489 -1.5334
  950MOL0     H31090   7.950   9.697  10.307  0.8156  0.0588  1.4992
  950MOL0     H31091   8.066   9.595  10.206 -1.5343 -2.3294 -0.0203
  950MOL0     H31092   8.173   9.717  10.392  1.4370 -0.6521 -1.9641
  950MOL0     H31093   8.065   9.637  10.503  0.6313 -0.5969 -0.4954
  950MOL0     H31094   8.271   9.506  10.326 -2.7781  2.6261 -2.1722
  950MOL0     H31095   8.155   9.401  10.404 -1.6238  0.1254  3.2539
  950MOL0     H31096   8.412   9.487  10.720  0.3500 -0.2167  0.1484
  950MOL0     H31097   7.779   9.289  10.344  1.9627  1.9737 -1.4979
  950MOL0     H31098   7.575   9.034  10.355  0.2381 -1.5065 -0.8108
  950MOL0     H31099   7.701   8.927  10.279  1.8610  0.5854 -1.5990
  950MOL0     H31100   7.747   9.063  10.396  1.8803  1.5470 -2.0699
  951MOL0     O31101   9.431   0.577   9.890 -0.2123  0.1061  0.0212
  951MOL0     C31102   9.459   0.671   9.964  0.0381  1.0719 -0.2171
  951MOL0     O31103   9.370   0.746  10.048 -0.4038  0.3138 -0.2633
  951MOL0     C31104   9.235   0.715  10.045 -0.0345 -0.0201  1.3047
  951MOL0     C31105   9.159   0.729  10.162 -0.0664 -1.0039 -0.5565
  951MOL0     C31106   9.024   0.704  10.168 -1.2325 -0.2825  0.2656
  951MOL0     C31107   8.963   0.676  10.041 -0.0605 -0.0834  0.2332
  951MOL0     O31108   8.827   0.645  10.032  0.5953 -0.3788  0.0120
  951MOL0     C31109   8.798   0.526  10.104  0.0622 -0.2639 -1.1152
  951MOL0     C31110   8.646   0.503  10.137  0.0041 -0.8593  1.0248
  951MOL0     C31111   8.555   0.516  10.013  0.6619 -0.5752  0.0688
  951MOL0     C31112   8.407   0.486  10.061 -0.9001  1.0230 -0.2778
  951MOL0     C31113   8.300   0.506   9.960 -0.0756 -0.1914 -0.5743
  951MOL0     C31114   8.324   0.422   9.839  0.9560  0.4806 -0.3744
  951MOL0     C31115   8.204   0.413   9.728 -0.3647 -0.1574 -0.3876
  951MOL0     C31116   8.133   0.544   9.691  0.5141  0.0437  0.1140
  951MOL0     N31117   8.047   0.517   9.578  0.3042 -0.3363 -0.2132
  951MOL0     C31118   8.090   0.488   9.450 -0.0939  0.7633 -0.4971
  951MOL0     C31119   7.974   0.481   9.379  0.5250 -0.8255  1.0374
  951MOL0     C31120   7.953   0.456   9.230 -0.1303  0.3795 -0.3508
  951MOL0     C31121   7.928   0.594   9.172 -0.6684 -0.9866 -0.2418
  951MOL0     C31122   8.048   0.663   9.103  0.3124 -0.1447  0.0648
  951MOL0     C31123   8.035   0.818   9.077  0.5895 -0.5569 -1.0017
  951MOL0     O31124   7.985   0.894   9.194 -0.3050  0.6940 -0.2510
  951MOL0     C31125   8.062   0.893   9.308  1.1802 -0.1167 -0.6438
  951MOL0     C31126   8.200   0.926   9.309  0.0824  0.6476  0.2556
  951MOL0     C31127   8.276   0.929   9.425 -0.4726  0.0723  0.0398
  951MOL0     C31128   8.419   0.970   9.383  0.2577 -0.3014 -0.4584
  951MOL0     C31129   8.218   0.905   9.551 -1.0178 -0.2096  0.3084
  951MOL0     C31130   8.295   0.929   9.676  0.4578  0.3025  0.9080
  951MOL0     O31131   8.381   1.034   9.687  0.0571 -0.1801  0.6725
  951MOL0     C31132   8.479   1.029   9.782 -0.3998 -0.0074  0.7069
  951MOL0     C31133   8.482   1.110   9.892 -0.3103  0.7151  0.0378
  951MOL0     C31134   8.582   1.117   9.982  0.3190  0.4992  0.0632
  951MOL0     C31135   8.682   1.016   9.970  0.7760  0.6201  0.2422
  951MOL0     O31136   8.790   1.004  10.042  0.3512 -0.4221  0.4180
  951MOL0     C31137   8.806   1.086  10.156 -0.5379  0.4205 -0.2344
  951MOL0     C31138   8.929   1.173  10.129  0.4326 -0.2770  0.0490
  951MOL0     C31139   9.069   1.094  10.119 -0.2912 -0.3829 -0.3121
  951MOL0     C31140   9.182   1.179  10.069  0.1197 -0.1559 -0.0590
  951MOL0     C31141   9.321   1.115  10.080  0.2524  0.4301  0.2891
  951MOL0     C31142   9.425   1.182   9.978  0.3701  0.6148 -0.3342
  951MOL0     C31143   9.555   1.101   9.955 -0.2133  0.1816  0.2807
  951MOL0     C31144   9.560   1.023   9.825  0.0031  0.4041 -0.4008
  951MOL0    Cl31145   9.552   1.120   9.684  0.1822 -0.3497  0.1199
  951MOL0     C31146   8.670   0.921   9.858  0.1913 -0.3674 -0.2620
  951MOL0     C31147   8.573   0.926   9.765  0.6928 -0.1514 -0.4493
  951MOL0     O31148   8.266   0.849   9.767  0.5176  0.4200 -0.4432
  951MOL0     C31149   8.077   0.879   9.559  0.2546  0.2027 -0.6987
  951MOL0     C31150   8.005   0.870   9.439 -0.5335 -0.0158  1.2595
  951MOL0     N31151   7.865   0.496   9.468  0.1789  0.4625  0.7358
  951MOL0     N31152   7.914   0.499   9.581 -0.5128 -0.5100  0.3519
  951MOL0     C31153   9.035   0.669   9.921 -0.3725  0.0338  0.3885
  951MOL0     C31154   9.170   0.690   9.927  0.5634 -0.5329  0.0043
  951MOL0     C31155   9.598   0.709   9.982 -1.1555 -0.4100 -0.6376
  951MOL0     C31156   9.633   0.748  10.118 -0.0796  0.2668 -0.0171
  951MOL0     C31157   9.759   0.792  10.143  0.7254  0.6646 -0.4667
  951MOL0     C31158   9.861   0.788  10.050 -0.3607  0.1963  0.1052
  951MOL0     O31159   9.981   0.842  10.081  0.0200 -0.5527 -0.8867
  951MOL0     C31160  10.107   0.802  10.017 -0.1674 -0.1362 -0.6481
  951MOL0     C31161  10.215   0.760  10.119 -0.0062  0.9107  0.2887
  951MOL0     C31162  10.177   0.652  10.219  0.1205 -0.0489 -0.9764
  951MOL0     C31163  10.138   0.519  10.159  0.5621  0.5859  0.4853
  951MOL0     C31164  10.082   0.430  10.255  0.3156  0.2871 -0.7328
  951MOL0     C31165  10.058   0.363  10.352  0.1397 -0.3856 -0.3341
  951MOL0     C31166   9.825   0.748   9.920  0.2373  0.0862  0.1317
  951MOL0     C31167   9.699   0.716   9.886 -1.2023  0.6648  0.5395
  951MOL0     C31168   9.683   0.690   9.738  0.7541 -0.6517  0.2987
  951MOL0     H31169   9.214   0.754  10.252 -1.4949  1.0543 -0.1762
  951MOL0     H31170   8.970   0.714  10.262  0.8936 -0.4403  1.5777
  951MOL0     H31171   8.852   0.521  10.199 -4.2527 -1.6918  1.5664
  951MOL0     H31172   8.835   0.440  10.047  0.5657 -3.0086  2.9344
  951MOL0     H31173   8.637   0.403  10.181 -0.7756 -2.5906 -2.6265
  951MOL0     H31174   8.630   0.579  10.214  0.6922  1.7239 -1.2387
  951MOL0     H31175   8.556   0.616   9.968 -1.9089  0.0909  1.3085
  951MOL0     H31176   8.586   0.438   9.943  2.6221 -0.0888  0.3385
  951MOL0     H31177   8.413   0.380  10.087  0.4742  1.0779 -0.3212
  951MOL0     H31178   8.386   0.543  10.152  2.4225  1.2349  0.4651
  951MOL0     H31179   8.306   0.613   9.936  3.0772  0.1615  1.2789
  951MOL0     H31180   8.203   0.487  10.007 -1.5780  4.7655 -1.0540
  951MOL0     H31181   8.409   0.467   9.785 -0.2512  1.0352 -1.8920
  951MOL0     H31182   8.359   0.323   9.871 -0.8529 -0.4899 -1.2426
  951MOL0     H31183   8.127   0.343   9.761  2.8361 -3.2700  1.1066
  951MOL0     H31184   8.238   0.362   9.637 -2.2525  0.0264 -1.2415
  951MOL0     H31185   8.068   0.596   9.762 -1.4111 -2.7094  0.5570
  951MOL0     H31186   8.209   0.618   9.665  1.5562 -0.0717  2.5045
  951MOL0     H31187   8.191   0.499   9.414  0.3913 -0.5456  0.3836
  951MOL0     H31188   7.869   0.389   9.213 -0.8219  0.3587  2.5286
  951MOL0     H31189   8.041   0.408   9.187 -1.2824 -0.9647 -1.2648
  951MOL0     H31190   7.861   0.578   9.086  0.3841  0.8312 -1.4574
  951MOL0     H31191   7.871   0.664   9.234  1.1987  1.3966 -1.0783
  951MOL0     H31192   8.124   0.659   9.182 -2.0765  2.4951  2.7535
  951MOL0     H31193   8.074   0.625   9.004  2.4634  0.0243  0.5175
  951MOL0     H31194   8.127   0.855   9.032 -1.5341  4.9464 -1.6821
  951MOL0     H31195   7.950   0.832   9.008  2.1285  0.8574 -2.7161
  951MOL0     H31196   8.248   0.951   9.215  0.3205  0.7470  0.4037
  951MOL0     H31197   8.451   0.901   9.304 -1.7746 -0.9278 -0.7943
  951MOL0     H31198   8.485   0.954   9.469 -1.0216 -2.9959  0.1279
  951MOL0     H31199   8.425   1.074   9.348 -0.3494 -0.5200 -1.2280
  951MOL0     H31200   8.398   1.178   9.904 -1.2005 -0.5490  1.2355
  951MOL0     H31201   8.578   1.193  10.059 -0.5358  1.1908 -0.6462
  951MOL0     H31202   8.716   1.134  10.195 -1.6791 -2.0919  0.4537
  951MOL0     H31203   8.817   1.017  10.240 -2.2239  4.1750  3.4380
  951MOL0     H31204   8.921   1.222  10.031 -0.6733 -2.7735 -1.1955
  951MOL0     H31205   8.934   1.260  10.195  1.3164 -0.8779  0.8042
  951MOL0     H31206   9.064   1.008  10.052 -0.7883 -2.4074  2.1387
  951MOL0     H31207   9.089   1.051  10.218  1.0639  1.1866  0.1514
  951MOL0     H31208   9.192   1.262  10.139  2.3503 -0.6298  0.2470
  951MOL0     H31209   9.155   1.196   9.964 -0.6339 -1.1462 -0.0375
  951MOL0     H31210   9.363   1.103  10.180  0.8707 -2.8937 -0.2480
  951MOL0     H31211   9.309   1.012  10.045 -0.6762 -0.3440  2.6734
  951MOL0     H31212   9.454   1.282  10.013 -1.1656  1.1444 -0.5066
  951MOL0     H31213   9.381   1.198   9.879  0.3662  0.2572 -0.3916
  951MOL0     H31214   9.563   1.038  10.044  0.5973 -0.0208  0.0728
  951MOL0     H31215   9.645   1.163   9.943 -1.0805  1.8015  1.7208
  951MOL0     H31216   9.477   0.953   9.823 -1.0647  1.4918  1.8923
  951MOL0     H31217   9.649   0.961   9.810 -0.7051 -0.0146 -3.4322
  951MOL0     H31218   8.759   0.859   9.867  0.5433 -0.0570 -1.4133
  951MOL0     H31219   8.567   0.855   9.683 -0.4257 -4.5416  3.0357
  951MOL0     H31220   8.025   0.865   9.654  1.3108  0.1757 -0.1041
  951MOL0     H31221   7.898   0.848   9.436 -0.5449  0.1270 -0.1073
  951MOL0     H31222   8.991   0.652   9.823  0.7827 -1.0042  0.0130
  951MOL0     H31223   9.217   0.694   9.829 -0.6457  0.1195 -0.5650
  951MOL0     H31224   9.569   0.744  10.205  2.3746 -2.0750  1.8547
  951MOL0     H31225   9.778   0.834  10.242  0.1662  1.0354 -0.5096
  951MOL0     H31226  10.092   0.716   9.951 -0.7982 -0.1107 -0.5390
  951MOL0     H31227  10.138   0.886   9.953 -4.0673  1.3651 -0.8332
  951MOL0     H31228  10.252   0.847  10.173  3.2112 -0.7098  0.9516
  951MOL0     H31229  10.306   0.731  10.066 -0.0708 -1.7489  1.4233
  951MOL0     H31230  10.266   0.635  10.280 -0.0867  1.6594 -0.1282
  951MOL0     H31231  10.108   0.682  10.299  0.1679 -1.7282 -0.2566
  951MOL0     H31232  10.226   0.473  10.111  0.8495 -1.5384  2.8392
  951MOL0     H31233  10.067   0.542  10.079  0.3505 -0.0858  0.4741
  951MOL0     H31234  10.036   0.294  10.430  1.2017 -1.7098 -1.1717
  951MOL0     H31235   9.913   0.759   9.856  0.6232  2.9625  1.0316
  951MOL0     H31236   9.715   0.590   9.707  0.9401 -0.3043 -0.6635
  951MOL0     H31237   9.580   0.699   9.702  1.0351 -3.6603 -1.6779
  951MOL0     H31238   9.747   0.757   9.679 -1.6027  0.1889 -1.4832
  952MOL0     O31239  11.459   5.186   8.606  0.5173 -0.3978 -0.3475
  952MOL0     C31240  11.453   5.262   8.509 -0.9785 -0.2817  0.3598
  952MOL0     O31241  11.373   5.376   8.505  0.1120 -0.2599  0.4899
  952MOL0     C31242  11.325   5.427   8.621  0.3689  0.2453  0.6431
  952MOL0     C31243  11.406   5.480   8.713 -0.6387 -0.3960  0.2534
  952MOL0     C31244  11.362   5.532   8.833 -0.8900  0.0512  0.3443
  952MOL0     C31245  11.225   5.533   8.857  0.4740  0.4026 -0.3601
  952MOL0     O31246  11.180   5.587   8.973  0.1268 -0.3056 -0.7893
  952MOL0     C31247  11.066   5.524   9.045  0.8672 -0.2586 -0.6844
  952MOL0     C31248  10.956   5.620   9.059  0.9704 -0.7536  0.5596
  952MOL0     C31249  10.987   5.758   9.105 -0.5073  0.0130 -1.2887
  952MOL0     C31250  10.995   5.757   9.256 -0.6232 -0.2105  0.0947
  952MOL0     C31251  11.047   5.897   9.295 -0.9757  0.0938  0.4785
  952MOL0     C31252  11.010   5.922   9.434 -0.0925  0.3296  0.2731
  952MOL0     C31253  11.117   6.010   9.499 -0.1496  0.8080 -0.2253
  952MOL0     C31254  11.229   5.941   9.586 -0.3786 -0.2282  0.2934
  952MOL0     N31255  11.324   5.873   9.496  0.6598 -0.3028 -0.6028
  952MOL0     C31256  11.323   5.746   9.437 -0.3993 -0.9026 -0.3865
  952MOL0     C31257  11.392   5.768   9.324 -1.3057  0.0419  0.3589
  952MOL0     C31258  11.411   5.658   9.212  0.7728  0.2918 -0.1513
  952MOL0     C31259  11.549   5.594   9.196 -0.0529  0.4679 -0.3750
  952MOL0     C31260  11.636   5.581   9.333  0.0242  0.0393  0.2505
  952MOL0     C31261  11.740   5.473   9.344 -0.5871  0.7987  0.2569
  952MOL0     O31262  11.854   5.520   9.267 -0.3313  0.4102  0.4911
  952MOL0     C31263  11.978   5.450   9.265  0.4453 -0.0352  0.0134
  952MOL0     C31264  12.009   5.363   9.372  0.6700  0.0468 -0.6104
  952MOL0     C31265  12.124   5.274   9.365  0.4369 -0.4740 -0.2646
  952MOL0     C31266  12.154   5.191   9.489 -0.0069  0.1270  0.3175
  952MOL0     C31267  12.224   5.295   9.265 -1.6052  1.0389 -0.1055
  952MOL0     C31268  12.357   5.220   9.260  0.2532 -0.0346  0.2706
  952MOL0     O31269  12.423   5.236   9.142 -0.3356 -0.7409  1.1168
  952MOL0     C31270  12.554   5.220   9.106  0.3594 -0.7400  0.5637
  952MOL0     C31271  12.659   5.155   9.188  1.2901  1.0568  0.4821
  952MOL0     C31272  12.768   5.097   9.119  0.3172 -0.3323  0.1778
  952MOL0     C31273  12.789   5.114   8.985 -0.6666 -0.1261 -0.3028
  952MOL0     O31274  12.891   5.053   8.911 -0.0297  0.2567  0.6501
  952MOL0     C31275  13.008   4.986   8.961  0.3469 -0.0356  0.0561
  952MOL0     C31276  12.983   4.844   9.017  0.5516  0.1433  0.2722
  952MOL0     C31277  12.933   4.754   8.904 -0.7788  0.1765 -0.3339
  952MOL0     C31278  12.906   4.600   8.936 -0.4941 -0.4774  0.6256
  952MOL0     C31279  12.851   4.515   8.813  0.7677 -0.1494  0.0210
  952MOL0     C31280  12.839   4.364   8.846 -0.1923 -0.0307  0.2392
  952MOL0     C31281  12.761   4.294   8.735 -0.1340  0.0670 -0.3932
  952MOL0     C31282  12.850   4.253   8.612  0.8384  0.2574  0.5594
  952MOL0    Cl31283  12.741   4.148   8.520  0.1201  0.2030 -0.2090
  952MOL0     C31284  12.701   5.184   8.914  0.3350 -0.8599  0.1039
  952MOL0     C31285  12.580   5.233   8.964 -0.4135 -0.0471 -0.5912
  952MOL0     O31286  12.399   5.143   9.351 -0.2275 -0.7034 -0.3455
  952MOL0     C31287  12.201   5.391   9.165 -0.2572  0.8079  0.2880
  952MOL0     C31288  12.075   5.463   9.165  0.7423 -0.4693  0.3002
  952MOL0     N31289  11.455   5.894   9.329 -0.3190 -0.4480  0.1912
  952MOL0     N31290  11.421   5.952   9.438  0.3574  0.5208  0.3587
  952MOL0     C31291  11.133   5.495   8.755 -0.1212 -0.6496 -0.6766
  952MOL0     C31292  11.190   5.431   8.638  0.6199  0.2420 -0.2658
  952MOL0     C31293  11.524   5.237   8.386  1.2867  0.1138  0.5543
  952MOL0     C31294  11.473   5.294   8.268  0.0768 -0.9047  0.3428
  952MOL0     C31295  11.542   5.274   8.145  0.2534  0.2833 -0.2717
  952MOL0     C31296  11.662   5.193   8.144  0.2039 -0.5150 -0.5338
  952MOL0     O31297  11.745   5.178   8.036  0.7130  0.4683  0.8313
  952MOL0     C31298  11.684   5.175   7.908 -0.3460 -0.0229  0.7041
  952MOL0     C31299  11.800   5.145   7.803 -0.8276  0.2940 -0.6800
  952MOL0     C31300  11.756   5.156   7.662 -0.3835 -1.0640 -0.7185
  952MOL0     C31301  11.848   5.108   7.561 -1.6164 -0.5852  0.8012
  952MOL0     C31302  11.981   5.151   7.570 -0.1457 -0.7344 -0.0087
  952MOL0     C31303  12.098   5.186   7.569 -0.2259 -0.3197 -0.1343
  952MOL0     C31304  11.705   5.141   8.257 -0.5007  0.1130  0.4813
  952MOL0     C31305  11.644   5.162   8.381 -0.4553  0.3794  0.1274
  952MOL0     C31306  11.716   5.087   8.486 -0.5047  0.0049 -0.0134
  952MOL0     H31307  11.510   5.485   8.684 -1.0859  2.7802 -1.2684
  952MOL0     H31308  11.439   5.572   8.898 -1.1994  3.3228 -1.1141
  952MOL0     H31309  11.105   5.499   9.144  1.4629 -1.5392 -1.2179
  952MOL0     H31310  11.032   5.430   9.000 -0.5870  0.3686 -0.9689
  952MOL0     H31311  10.920   5.641   8.957 -1.5134  1.2271  1.7433
  952MOL0     H31312  10.871   5.576   9.111 -1.1947  1.5626 -0.7704
  952MOL0     H31313  11.084   5.786   9.063  0.6555 -1.3912  0.3305
  952MOL0     H31314  10.922   5.835   9.062  0.7262  1.0932 -1.2843
  952MOL0     H31315  10.896   5.741   9.300  0.9366 -0.6346  3.8846
  952MOL0     H31316  11.066   5.691   9.306  3.0171  3.2990  0.0791
  952MOL0     H31317  11.013   5.980   9.232  1.4589  0.5220 -0.3904
  952MOL0     H31318  11.153   5.884   9.273 -0.5630 -0.8037  2.7533
  952MOL0     H31319  10.908   5.960   9.446 -0.4479  0.0710 -1.5490
  952MOL0     H31320  11.003   5.831   9.494 -0.7572  1.8448  2.6173
  952MOL0     H31321  11.067   6.078   9.568  1.2633  1.6048  0.0620
  952MOL0     H31322  11.162   6.082   9.430 -1.7635  1.9843 -0.1131
  952MOL0     H31323  11.277   6.021   9.643 -1.4009 -0.8078  2.0288
  952MOL0     H31324  11.180   5.875   9.658 -1.4019  1.1886  0.9369
  952MOL0     H31325  11.264   5.655   9.444 -1.9516  0.0284 -1.1041
  952MOL0     H31326  11.374   5.694   9.116 -0.2549 -3.3542 -1.2863
  952MOL0     H31327  11.342   5.580   9.246  0.7694 -0.4639 -1.7884
  952MOL0     H31328  11.530   5.493   9.157  4.3271 -1.7022  2.3034
  952MOL0     H31329  11.619   5.640   9.125  2.8798 -0.1530  1.9409
  952MOL0     H31330  11.682   5.677   9.358  4.4234 -0.9557 -2.8687
  952MOL0     H31331  11.560   5.565   9.411  0.1472 -1.5027  0.0877
  952MOL0     H31332  11.771   5.463   9.448  1.5409 -2.3033 -0.5236
  952MOL0     H31333  11.706   5.372   9.320  1.3067  0.0800  0.4078
  952MOL0     H31334  11.947   5.350   9.460 -0.2791 -1.2289 -1.4195
  952MOL0     H31335  12.134   5.087   9.460 -1.3462  0.9554 -2.0080
  952MOL0     H31336  12.084   5.223   9.567 -2.6145  1.6130 -2.3967
  952MOL0     H31337  12.257   5.196   9.525  0.6097  2.3501 -1.5363
  952MOL0     H31338  12.654   5.152   9.297 -0.6517 -2.4714  0.4208
  952MOL0     H31339  12.856   5.050   9.163  1.7266  1.5988 -0.4729
  952MOL0     H31340  13.079   4.988   8.878 -0.0740 -1.1400 -0.3490
  952MOL0     H31341  13.060   5.039   9.042  2.3967 -3.4604  1.2129
  952MOL0     H31342  13.075   4.805   9.062  0.8483  2.1526  1.5599
  952MOL0     H31343  12.907   4.850   9.095 -0.8447 -1.6942 -0.8827
  952MOL0     H31344  12.993   4.774   8.814 -4.4835  0.9811 -2.8550
  952MOL0     H31345  12.838   4.795   8.868 -0.4337  1.2732 -0.0314
  952MOL0     H31346  12.845   4.591   9.026 -1.2824  1.2249  0.3094
  952MOL0     H31347  13.006   4.561   8.956  0.3792  2.7472  3.5745
  952MOL0     H31348  12.750   4.553   8.795  0.3649 -0.9797  0.4898
  952MOL0     H31349  12.911   4.526   8.722  0.0840  0.1943 -0.4036
  952MOL0     H31350  12.779   4.347   8.936 -2.8677 -3.4349 -1.9046
  952MOL0     H31351  12.940   4.321   8.846 -0.7088 -1.2978 -0.0718
  952MOL0     H31352  12.677   4.357   8.704  1.5061  1.5507 -2.0813
  952MOL0     H31353  12.727   4.205   8.788  3.5602 -0.1861  1.8996
  952MOL0     H31354  12.935   4.197   8.651  1.3027 -0.7991 -1.7984
  952MOL0     H31355  12.887   4.338   8.555  0.8477  0.2000  0.4804
  952MOL0     H31356  12.714   5.201   8.808 -2.0691  0.6113 -0.0197
  952MOL0     H31357  12.511   5.290   8.903 -0.6501  0.2792 -0.0275
  952MOL0     H31358  12.277   5.421   9.093  1.1578  2.3222  2.2884
  952MOL0     H31359  12.053   5.528   9.081  1.1637 -1.0773 -0.2896
  952MOL0     H31360  11.026   5.513   8.757  0.3335  2.8006  1.6997
  952MOL0     H31361  11.114   5.397   8.567 -0.2099 -2.8481  1.8687
  952MOL0     H31362  11.381   5.352   8.265 -0.9670 -2.4620  0.8739
  952MOL0     H31363  11.501   5.331   8.063  2.5572  1.8397 -0.4264
  952MOL0     H31364  11.609   5.096   7.908 -3.0907  2.3526 -1.0500
  952MOL0     H31365  11.632   5.267   7.878 -0.8594 -0.9584 -1.4903
  952MOL0     H31366  11.831   5.042   7.824 -2.1971 -0.2588 -1.2691
  952MOL0     H31367  11.865   5.231   7.822 -2.8638  1.4177  1.6760
  952MOL0     H31368  11.656   5.113   7.651 -0.8511 -0.1750 -0.0933
  952MOL0     H31369  11.737   5.263   7.650  0.2659 -0.7654  0.7090
  952MOL0     H31370  11.815   5.142   7.462  2.1154 -1.1278 -0.7822
  952MOL0     H31371  11.861   5.000   7.571  2.4273 -0.2671  0.5224
  952MOL0     H31372  12.201   5.210   7.558 -0.2253 -0.5863 -0.7664
  952MOL0     H31373  11.806   5.103   8.244 -0.3975  1.0910 -1.9865
  952MOL0     H31374  11.823   5.091   8.464 -0.8674 -0.3299 -2.0173
  952MOL0     H31375  11.710   5.120   8.590  1.1922 -1.1319  0.4817
  952MOL0     H31376  11.680   4.984   8.475 -2.7539  0.8850 -1.4704
  953MOL0     O31377   8.123   8.906   1.112 -0.7138  0.3537  0.9165
  953MOL0     C31378   8.201   8.958   1.185  0.3526  1.0316  0.5706
  953MOL0     O31379   8.260   8.895   1.291  0.3117  0.2563 -0.1016
  953MOL0     C31380   8.238   8.762   1.311 -0.1570  0.6416  0.8888
  953MOL0     C31381   8.325   8.672   1.259 -0.2766  1.1551 -0.5000
  953MOL0     C31382   8.300   8.532   1.293 -0.2297 -0.1943 -0.1328
  953MOL0     C31383   8.197   8.492   1.381 -0.8845  0.1107 -0.2380
  953MOL0     O31384   8.171   8.359   1.403 -0.2257  0.0983  0.5554
  953MOL0     C31385   8.038   8.321   1.444  0.1937  0.2868  0.9022
  953MOL0     C31386   8.022   8.179   1.409 -0.7394 -0.1132 -0.8906
  953MOL0     C31387   8.024   8.098   1.544 -0.1094 -0.3745 -0.8261
  953MOL0     C31388   8.043   7.956   1.528 -0.5292  0.3659 -0.1816
  953MOL0     C31389   8.049   7.894   1.671  0.3955  0.0943 -0.1784
  953MOL0     C31390   7.922   7.907   1.768 -0.0116 -0.5785 -0.7221
  953MOL0     C31391   7.787   7.856   1.718 -0.6311 -0.4562 -0.2976
  953MOL0     C31392   7.675   7.862   1.818 -0.3892  0.3179  0.5648
  953MOL0     N31393   7.705   7.772   1.934  0.5087 -0.2430  0.1327
  953MOL0     C31394   7.698   7.639   1.925 -0.0770  0.4992 -0.5967
  953MOL0     C31395   7.684   7.602   2.058  0.2879  0.4846  0.9731
  953MOL0     C31396   7.702   7.456   2.115 -0.6081 -0.4961  1.1210
  953MOL0     C31397   7.731   7.459   2.266  0.4338 -0.4052 -0.4393
  953MOL0     C31398   7.739   7.315   2.312 -0.8544  0.4565  0.4326
  953MOL0     C31399   7.720   7.294   2.459  0.0851 -0.3423 -0.1794
  953MOL0     O31400   7.760   7.167   2.496  0.3370 -0.3690  0.6751
  953MOL0     C31401   7.819   7.142   2.617 -0.9414  0.1846  0.7924
  953MOL0     C31402   7.846   7.234   2.713  0.3368  0.8871 -0.9153
  953MOL0     C31403   7.903   7.208   2.834 -0.6152 -0.7001 -0.3909
  953MOL0     C31404   7.921   7.336   2.917  0.6830  0.7389 -0.3614
  953MOL0     C31405   7.932   7.075   2.867 -0.0585 -0.0383  0.1658
  953MOL0     C31406   7.983   7.036   3.005 -0.0331  0.7618 -0.3188
  953MOL0     O31407   7.958   6.904   3.050 -0.5238 -1.1128  1.5023
  953MOL0     C31408   7.958   6.891   3.183  1.0758 -0.0377 -1.1427
  953MOL0     C31409   8.078   6.837   3.244 -0.5732  0.9187  0.4809
  953MOL0     C31410   8.072   6.788   3.373  0.5085 -0.3842  0.3204
  953MOL0     C31411   7.949   6.788   3.445 -0.5706 -0.0504 -0.1422
  953MOL0     O31412   7.952   6.727   3.568  0.1242 -0.7411 -0.0855
  953MOL0     C31413   7.824   6.727   3.637 -0.5657  0.2028 -0.2011
  953MOL0     C31414   7.842   6.658   3.769 -0.4594  0.3506  0.2797
  953MOL0     C31415   7.902   6.736   3.879  0.1660 -0.3625  0.0814
  953MOL0     C31416   7.876   6.670   4.014 -0.4681 -1.1156  0.0597
  953MOL0     C31417   7.968   6.740   4.117 -0.4102  0.9333  0.3646
  953MOL0     C31418   7.988   6.651   4.228 -0.7824  0.3904 -0.0124
  953MOL0     C31419   8.099   6.701   4.314 -0.5043  0.2469  0.3620
  953MOL0     C31420   8.242   6.719   4.268 -0.2346 -0.9500  0.4674
  953MOL0    Cl31421   8.322   6.797   4.411  0.5122  0.0268  0.3476
  953MOL0     C31422   7.841   6.852   3.377 -0.1160 -0.6204 -0.2920
  953MOL0     C31423   7.840   6.901   3.247  0.2545  0.5749 -0.6655
  953MOL0     O31424   8.052   7.116   3.073  1.1933 -0.6671 -0.4621
  953MOL0     C31425   7.897   6.975   2.778 -0.3497  0.2450  0.7665
  953MOL0     C31426   7.843   7.007   2.650  0.3321 -0.9881 -0.8139
  953MOL0     N31427   7.692   7.712   2.138 -0.4905 -0.1917  0.7944
  953MOL0     N31428   7.707   7.816   2.064  0.5095  0.2781 -0.3025
  953MOL0     C31429   8.114   8.593   1.428  0.1800  0.5598  0.2615
  953MOL0     C31430   8.139   8.729   1.399  0.1951 -0.3900  0.1276
  953MOL0     C31431   8.246   9.090   1.149  0.8793  0.4290  0.2567
  953MOL0     C31432   8.378   9.128   1.172  0.1567 -0.3660  0.1922
  953MOL0     C31433   8.431   9.253   1.161 -0.5311  0.6023  0.2048
  953MOL0     C31434   8.338   9.361   1.121 -0.1999 -0.3573 -0.3454
  953MOL0     O31435   8.373   9.496   1.099  0.8130 -0.9969 -0.8305
  953MOL0     C31436   8.491   9.519   1.023  0.6819  0.0982 -0.3153
  953MOL0     C31437   8.500   9.663   0.978 -0.3124  0.2167  0.2404
  953MOL0     C31438   8.404   9.715   0.873  0.9081 -0.1884 -0.6171
  953MOL0     C31439   8.430   9.661   0.741 -1.1623  0.5765 -0.4234
  953MOL0     C31440   8.323   9.701   0.648 -0.1327 -0.3626  0.4429
  953MOL0     C31441   8.239   9.752   0.579 -0.5183  0.4722 -0.3450
  953MOL0     C31442   8.206   9.327   1.084 -0.1512 -0.2128  0.3101
  953MOL0     C31443   8.160   9.193   1.104  0.8326  0.8193  0.4820
  953MOL0     C31444   8.010   9.176   1.075  1.1824  0.8115  0.0090
  953MOL0     H31445   8.401   8.708   1.190 -0.8595 -0.1925 -1.9250
  953MOL0     H31446   8.366   8.457   1.253 -0.8687 -0.2082 -1.1976
  953MOL0     H31447   7.972   8.374   1.375  0.3071  1.0914  1.4020
  953MOL0     H31448   8.022   8.345   1.550  3.4944  0.7851  1.3994
  953MOL0     H31449   7.924   8.171   1.360  0.2670 -0.2602 -2.9793
  953MOL0     H31450   8.095   8.136   1.340 -1.0719 -1.0553 -0.6729
  953MOL0     H31451   8.107   8.142   1.600 -1.2581 -1.1631  1.6549
  953MOL0     H31452   7.926   8.119   1.588  0.0003 -1.8163  0.2038
  953MOL0     H31453   7.962   7.912   1.469  1.3243  0.0204 -2.6056
  953MOL0     H31454   8.137   7.936   1.475 -1.2878 -1.0402 -1.0686
  953MOL0     H31455   8.135   7.942   1.718  0.3454  0.9582 -0.9440
  953MOL0     H31456   8.074   7.787   1.668  3.1231  0.6102  1.1010
  953MOL0     H31457   7.940   7.846   1.856  1.4935 -0.6324 -1.0278
  953MOL0     H31458   7.927   8.015   1.787 -0.2386 -0.5907 -0.5962
  953MOL0     H31459   7.804   7.757   1.675  1.6599 -0.4398  0.4345
  953MOL0     H31460   7.758   7.932   1.644 -1.6186  2.2182  2.6335
  953MOL0     H31461   7.659   7.966   1.847  1.0196  1.3619 -2.0464
  953MOL0     H31462   7.596   7.812   1.760  2.6713  0.2920 -4.1714
  953MOL0     H31463   7.712   7.572   1.841  1.4293  0.3349 -0.2564
  953MOL0     H31464   7.791   7.417   2.065 -0.0071 -0.4370  2.1234
  953MOL0     H31465   7.617   7.392   2.092  0.1909 -1.9016  1.9423
  953MOL0     H31466   7.822   7.516   2.287  0.7499 -0.5657 -1.3468
  953MOL0     H31467   7.647   7.504   2.319  2.0157  1.0424  0.9767
  953MOL0     H31468   7.658   7.262   2.260  0.8953 -0.8879 -1.0630
  953MOL0     H31469   7.828   7.268   2.269 -1.3162 -0.5143  0.4906
  953MOL0     H31470   7.774   7.376   2.506  3.5476 -1.3434 -2.0754
  953MOL0     H31471   7.618   7.307   2.495  0.5082 -0.8168  1.2816
  953MOL0     H31472   7.821   7.339   2.697 -1.1005  0.2836 -3.0663
  953MOL0     H31473   7.962   7.313   3.015 -0.3130  3.9272  0.9165
  953MOL0     H31474   7.827   7.388   2.941  0.6500 -0.5155  2.6760
  953MOL0     H31475   7.993   7.404   2.873  0.4941  0.8567 -0.4905
  953MOL0     H31476   8.168   6.834   3.183  0.1350 -1.4687  1.5027
  953MOL0     H31477   8.157   6.749   3.428 -0.8685  0.0217  2.9070
  953MOL0     H31478   7.796   6.831   3.653  2.2833  0.9136  0.8402
  953MOL0     H31479   7.747   6.678   3.578  0.0962  0.6273 -1.4529
  953MOL0     H31480   7.738   6.630   3.788  0.0704 -1.0111  1.3086
  953MOL0     H31481   7.889   6.563   3.742 -2.7224 -0.3793 -1.4614
  953MOL0     H31482   7.862   6.838   3.879  0.7905 -0.0518 -2.1680
  953MOL0     H31483   8.010   6.750   3.866  0.2110  0.2458  1.0407
  953MOL0     H31484   7.899   6.564   3.999  0.8571 -0.7343 -0.6767
  953MOL0     H31485   7.775   6.698   4.048  0.3712  1.5970  0.5556
  953MOL0     H31486   8.069   6.738   4.075  0.1276  1.9020  1.5532
  953MOL0     H31487   7.945   6.842   4.151  1.2584  0.5801  2.7544
  953MOL0     H31488   8.014   6.553   4.189  0.6495 -0.3522  2.5558
  953MOL0     H31489   7.893   6.647   4.281  0.5729  1.0275  2.6551
  953MOL0     H31490   8.110   6.631   4.397 -1.8326  0.0477  0.3896
  953MOL0     H31491   8.072   6.796   4.361 -0.7805  0.4143 -0.1239
  953MOL0     H31492   8.263   6.787   4.186  1.9670  1.4988  2.8820
  953MOL0     H31493   8.294   6.627   4.237  1.7194 -0.3032  1.6409
  953MOL0     H31494   7.743   6.847   3.422  0.1093 -2.9138  0.0739
  953MOL0     H31495   7.751   6.931   3.192  0.8912  0.0466 -2.0463
  953MOL0     H31496   7.924   6.870   2.785  0.5554  0.4240  0.1697
  953MOL0     H31497   7.823   6.931   2.575 -3.1887  0.4185 -1.5013
  953MOL0     H31498   8.037   8.572   1.502  2.0819 -1.2390  1.8600
  953MOL0     H31499   8.061   8.798   1.429  1.9478  0.1035  4.1724
  953MOL0     H31500   8.441   9.064   1.234 -1.4819 -0.8319  1.4666
  953MOL0     H31501   8.535   9.279   1.177  0.0906 -0.9800 -1.0297
  953MOL0     H31502   8.560   9.495   1.105 -0.8747 -2.3431  0.3986
  953MOL0     H31503   8.497   9.449   0.939 -1.8799 -2.1674  1.2026
  953MOL0     H31504   8.602   9.697   0.956 -0.3461  0.0261 -0.2108
  953MOL0     H31505   8.475   9.725   1.065  0.2451  2.2572 -0.9825
  953MOL0     H31506   8.301   9.697   0.906  0.8465 -1.2808 -1.3586
  953MOL0     H31507   8.407   9.824   0.871 -1.2652  0.0444  2.0392
  953MOL0     H31508   8.432   9.552   0.738 -1.8901  0.5766 -1.4823
  953MOL0     H31509   8.528   9.692   0.705 -0.6707  0.5271  0.8157
  953MOL0     H31510   8.155   9.805   0.540 -0.0012  0.6641 -1.2412
  953MOL0     H31511   8.137   9.407   1.055 -2.1117 -2.3198 -1.2198
  953MOL0     H31512   7.962   9.268   1.040 -0.0559 -0.0591 -0.6818
  953MOL0     H31513   7.999   9.107   0.990 -1.5892  2.2510 -0.9330
  953MOL0     H31514   7.945   9.130   1.150  2.3304  0.5267  0.8660
  954MOL0     O31515   5.599   3.284   9.399  0.1869  0.0019 -0.3099
  954MOL0     C31516   5.497   3.353   9.418  1.0418  0.2075  0.1376
  954MOL0     O31517   5.373   3.306   9.456 -0.2141 -0.4375 -0.0232
  954MOL0     C31518   5.363   3.185   9.513 -0.1044 -0.8801 -1.1224
  954MOL0     C31519   5.465   3.098   9.553 -0.0927 -0.1679 -0.4075
  954MOL0     C31520   5.434   2.976   9.610 -0.3289 -0.0802 -1.0643
  954MOL0     C31521   5.308   2.942   9.640  0.8016  0.2597  0.3672
  954MOL0     O31522   5.299   2.826   9.712  0.6590  0.1219  1.0957
  954MOL0     C31523   5.186   2.780   9.782 -1.0393 -0.0884 -0.5763
  954MOL0     C31524   5.195   2.646   9.838  0.7145  0.7615 -0.5494
  954MOL0     C31525   5.191   2.532   9.729 -0.2557  0.7100 -0.3513
  954MOL0     C31526   5.330   2.491   9.661 -0.8712 -0.3596  0.7864
  954MOL0     C31527   5.333   2.344   9.611 -0.0868 -0.0237  0.6175
  954MOL0     C31528   5.211   2.294   9.530 -0.8280 -0.8124 -0.2298
  954MOL0     C31529   5.237   2.160   9.488 -0.1633  0.1485  0.2166
  954MOL0     C31530   5.105   2.095   9.430  0.6276 -0.1828  0.8607
  954MOL0     N31531   5.133   1.972   9.363 -0.6200  0.4376 -0.2592
  954MOL0     C31532   5.047   1.866   9.338 -0.6920 -0.5055  0.4930
  954MOL0     C31533   5.109   1.778   9.261  0.1808  0.5450 -0.6156
  954MOL0     C31534   5.063   1.642   9.213  0.2814  0.1438  0.1021
  954MOL0     C31535   4.934   1.643   9.132  0.2301 -0.6495  0.4413
  954MOL0     C31536   4.859   1.504   9.094  0.3669  0.2096  0.3413
  954MOL0     C31537   4.793   1.444   9.218 -0.1329  0.3873  0.3499
  954MOL0     O31538   4.711   1.335   9.177  0.8453  0.3416  0.8878
  954MOL0     C31539   4.638   1.255   9.271 -0.2071 -0.8006  1.0359
  954MOL0     C31540   4.610   1.303   9.397 -0.0527 -0.0275  0.4313
  954MOL0     C31541   4.526   1.235   9.489  0.3751  0.5161  0.6337
  954MOL0     C31542   4.489   1.302   9.621  0.3796 -0.3316 -0.4354
  954MOL0     C31543   4.473   1.107   9.443  0.0155  0.5810 -0.6966
  954MOL0     C31544   4.393   1.023   9.543 -0.2046 -1.3798  0.4073
  954MOL0     O31545   4.295   1.078   9.612  0.3396  0.0139 -0.1585
  954MOL0     C31546   4.227   0.995   9.696  0.0961 -1.2163  0.8667
  954MOL0     C31547   4.102   0.943   9.665 -0.1110 -0.0721  0.2943
  954MOL0     C31548   4.044   0.840   9.747  0.6084 -0.3911 -0.1768
  954MOL0     C31549   4.108   0.797   9.864  0.8107 -0.0841  0.2043
  954MOL0     O31550   4.036   0.709   9.939 -0.1515 -0.0254 -0.2497
  954MOL0     C31551   4.070   0.706  10.084  0.1451  0.5127 -0.1129
  954MOL0     C31552   3.936   0.711  10.159  0.1607 -0.0164  0.4666
  954MOL0     C31553   3.866   0.842  10.158 -0.0170 -0.3210 -0.0939
  954MOL0     C31554   3.942   0.963  10.221 -0.1285  0.0812 -0.2615
  954MOL0     C31555   3.844   1.084  10.234  0.6907  1.0710  0.2609
  954MOL0     C31556   3.914   1.217  10.260 -0.1248 -0.8511 -0.2376
  954MOL0     C31557   3.820   1.337  10.236  0.6230  0.3993 -0.5953
  954MOL0     C31558   3.708   1.347  10.342 -0.0908 -0.2670  0.4380
  954MOL0    Cl31559   3.665   1.526  10.366  0.1020 -0.2493 -0.7196
  954MOL0     C31560   4.231   0.862   9.894 -0.0675  0.0069 -0.1890
  954MOL0     C31561   4.283   0.954   9.812 -0.3249  0.0102 -0.2753
  954MOL0     O31562   4.423   0.911   9.552 -0.4161  0.3469 -0.1023
  954MOL0     C31563   4.499   1.058   9.317  0.0939  0.0653 -1.2138
  954MOL0     C31564   4.581   1.133   9.236  0.6425 -0.3894 -0.0386
  954MOL0     N31565   5.236   1.822   9.243 -0.2420 -0.0122  0.3162
  954MOL0     N31566   5.250   1.939   9.296 -0.1878 -0.8107  0.2692
  954MOL0     C31567   5.206   3.024   9.611  0.3605  0.4266 -0.5906
  954MOL0     C31568   5.230   3.148   9.546  0.4590 -0.3597  0.3169
  954MOL0     C31569   5.511   3.496   9.398 -0.5726 -0.4524 -0.1280
  954MOL0     C31570   5.398   3.576   9.385  0.1076 -1.2728 -0.0581
  954MOL0     C31571   5.405   3.719   9.386  0.0074  0.4551 -1.2913
  954MOL0     C31572   5.531   3.781   9.384 -0.7201  0.0154  0.0982
  954MOL0     O31573   5.551   3.918   9.372  0.2944 -0.0298  0.2108
  954MOL0     C31574   5.442   3.997   9.432  0.0204 -0.6804  0.3549
  954MOL0     C31575   5.482   4.144   9.427 -0.2394 -0.0311 -0.4813
  954MOL0     C31576   5.585   4.187   9.537  0.6808  0.7860  0.4886
  954MOL0     C31577   5.556   4.330   9.585  0.0789  0.0115 -1.0480
  954MOL0     C31578   5.424   4.354   9.649 -0.6203  0.1461 -0.4627
  954MOL0     C31579   5.315   4.397   9.694  0.4957  0.5747 -0.0881
  954MOL0     C31580   5.645   3.701   9.377  0.0073  0.1420 -1.5298
  954MOL0     C31581   5.639   3.563   9.390 -0.7296 -0.0358  0.0150
  954MOL0     C31582   5.774   3.498   9.399  0.1364  0.2066 -0.7136
  954MOL0     H31583   5.571   3.121   9.553 -0.2142  0.4097 -0.6603
  954MOL0     H31584   5.512   2.916   9.656 -0.1381  1.7054  1.1259
  954MOL0     H31585   5.096   2.777   9.719  0.3694 -1.9438 -2.6527
  954MOL0     H31586   5.172   2.847   9.867 -0.0408 -0.1564 -0.3515
  954MOL0     H31587   5.290   2.637   9.892 -0.8275  2.0629  2.5907
  954MOL0     H31588   5.112   2.622   9.904  2.4956 -2.1886  0.8229
  954MOL0     H31589   5.149   2.442   9.774  0.1607  1.8084  2.4284
  954MOL0     H31590   5.132   2.561   9.641  0.6233 -1.9678 -1.9378
  954MOL0     H31591   5.354   2.566   9.585  0.4912 -1.5626 -0.0203
  954MOL0     H31592   5.412   2.481   9.733 -0.5555 -4.3574  0.0950
  954MOL0     H31593   5.350   2.280   9.699 -1.4521 -2.6949 -0.9309
  954MOL0     H31594   5.422   2.347   9.547 -0.2547  2.7990  0.3963
  954MOL0     H31595   5.132   2.272   9.603 -0.3343 -2.2961 -0.0946
  954MOL0     H31596   5.176   2.361   9.452  0.4233 -0.4109 -0.4654
  954MOL0     H31597   5.274   2.096   9.568  2.0016 -0.1370 -0.9320
  954MOL0     H31598   5.317   2.158   9.413  0.9392  1.3091  1.3211
  954MOL0     H31599   5.039   2.080   9.515 -2.5251  0.5737 -1.2969
  954MOL0     H31600   5.059   2.156   9.352  0.7478 -0.6560  0.4048
  954MOL0     H31601   4.940   1.853   9.351 -0.4399 -2.2449  1.0926
  954MOL0     H31602   5.043   1.570   9.293  1.5642 -1.6880 -1.1158
  954MOL0     H31603   5.134   1.592   9.146 -0.9805  0.3505 -1.4559
  954MOL0     H31604   4.859   1.707   9.180 -2.4839 -3.6690  0.6204
  954MOL0     H31605   4.967   1.688   9.038  4.3783  0.2316  2.1208
  954MOL0     H31606   4.777   1.526   9.026 -0.7113 -0.9310  1.2321
  954MOL0     H31607   4.927   1.429   9.053  1.1254  1.4673 -0.7624
  954MOL0     H31608   4.862   1.403   9.291  0.1810 -0.2948 -0.3202
  954MOL0     H31609   4.719   1.515   9.257 -2.3144 -0.5151 -1.8602
  954MOL0     H31610   4.652   1.396   9.434  0.6307  0.3601 -1.2358
  954MOL0     H31611   4.428   1.247   9.693 -1.3391  4.3479  2.1341
  954MOL0     H31612   4.430   1.391   9.596 -0.2146  0.0071  1.9420
  954MOL0     H31613   4.573   1.343   9.680 -0.7313  3.4670 -1.1925
  954MOL0     H31614   4.059   0.975   9.571 -0.2734  0.1043  0.4281
  954MOL0     H31615   3.943   0.808   9.723  0.1228 -0.7003  2.0200
  954MOL0     H31616   4.124   0.622  10.130  0.2332 -0.0334 -1.1782
  954MOL0     H31617   4.133   0.789  10.119  2.8914 -1.5306  0.1881
  954MOL0     H31618   3.878   0.637  10.104  0.2095  0.7202 -0.6015
  954MOL0     H31619   3.949   0.693  10.266 -1.5148 -0.4485  0.6171
  954MOL0     H31620   3.783   0.830  10.227 -1.2834  1.6930 -1.1839
  954MOL0     H31621   3.843   0.871  10.055  1.0044 -0.5158 -0.3906
  954MOL0     H31622   4.025   1.005  10.164  2.2117 -2.2570  1.2219
  954MOL0     H31623   3.979   0.938  10.321 -1.9877  1.8447  0.9690
  954MOL0     H31624   3.790   1.104  10.141  0.2588  3.0454  0.8943
  954MOL0     H31625   3.779   1.064  10.320  3.3143 -3.0360  1.6012
  954MOL0     H31626   4.008   1.230  10.206  0.0573  0.2316  0.3154
  954MOL0     H31627   3.932   1.227  10.367 -0.0417  0.0507 -0.3343
  954MOL0     H31628   3.766   1.326  10.142  1.8618 -0.9850 -1.1889
  954MOL0     H31629   3.874   1.431  10.225 -3.2379  2.5147 -5.2426
  954MOL0     H31630   3.723   1.305  10.442 -1.9201  1.1128  1.3480
  954MOL0     H31631   3.619   1.296  10.303  0.2766  0.4489 -1.4584
  954MOL0     H31632   4.296   0.843   9.979  1.9919 -0.0570 -1.7018
  954MOL0     H31633   4.387   0.974   9.835  0.2091 -0.3768 -2.1796
  954MOL0     H31634   4.449   0.968   9.282 -3.9639  0.9043  1.7853
  954MOL0     H31635   4.619   1.102   9.139  1.4594 -0.3564  0.2680
  954MOL0     H31636   5.107   3.003   9.650  0.5285  0.1645 -0.3037
  954MOL0     H31637   5.142   3.206   9.521 -1.4015 -1.1348  4.1928
  954MOL0     H31638   5.301   3.531   9.400  1.3661 -3.2868  3.1862
  954MOL0     H31639   5.311   3.771   9.401  0.3709  0.2295  2.8568
  954MOL0     H31640   5.345   3.989   9.382 -1.1371 -0.4616  2.4727
  954MOL0     H31641   5.424   3.963   9.534 -1.0125 -2.6060 -0.4287
  954MOL0     H31642   5.401   4.218   9.426  0.2198  0.5190  1.1389
  954MOL0     H31643   5.522   4.144   9.325  1.5204 -0.0484  0.1889
  954MOL0     H31644   5.567   4.127   9.627  4.5950  1.3274  1.7937
  954MOL0     H31645   5.685   4.175   9.496 -1.1481 -1.3129 -4.0987
  954MOL0     H31646   5.577   4.406   9.509  2.9468  1.1683  0.7276
  954MOL0     H31647   5.627   4.348   9.666 -3.3273  2.4781  1.6922
  954MOL0     H31648   5.221   4.435   9.728 -0.9786 -1.1242 -1.9913
  954MOL0     H31649   5.739   3.755   9.378 -0.2994  0.7220  0.2799
  954MOL0     H31650   5.782   3.447   9.495  3.0614 -0.1838 -1.0689
  954MOL0     H31651   5.792   3.429   9.316  0.3374  0.5989 -1.0028
  954MOL0     H31652   5.853   3.572   9.382 -1.6337  2.9104  1.9056
  955MOL0     O31653   9.802  10.612   3.352 -0.4001  0.3983 -0.1663
  955MOL0     C31654   9.909  10.677   3.356  0.8166  0.6156  0.3158
  955MOL0     O31655   9.950  10.779   3.270  0.8987  0.5215  0.2149
  955MOL0     C31656   9.877  10.788   3.153 -0.2043 -0.0044 -0.0605
  955MOL0     C31657   9.863  10.686   3.052 -1.2303 -0.0250 -0.3529
  955MOL0     C31658   9.802  10.716   2.928 -0.0173  0.2100  0.9228
  955MOL0     C31659   9.753  10.836   2.904  0.5233 -0.4203  0.8320
  955MOL0     O31660   9.690  10.865   2.790  0.3964  0.2088 -0.3728
  955MOL0     C31661   9.771  10.850   2.673  0.2594  0.0867  0.4678
  955MOL0     C31662   9.702  10.889   2.544  0.3180  0.4270  0.0523
  955MOL0     C31663   9.786  10.898   2.431 -0.3504 -0.3688  0.0602
  955MOL0     C31664   9.710  10.934   2.298 -0.1026  0.3147  0.1805
  955MOL0     C31665   9.815  10.944   2.187  0.2098  0.8370  0.7711
  955MOL0     C31666   9.739  10.976   2.053 -0.7795  0.5870  0.7360
  955MOL0     C31667   9.829  11.024   1.935 -0.1287  0.3297 -0.4340
  955MOL0     C31668   9.760  11.032   1.788  0.4594  1.3724 -0.6707
  955MOL0     N31669   9.836  11.113   1.694  0.1508  0.4486 -0.0229
  955MOL0     C31670   9.870  11.243   1.707  0.6607  1.1603 -0.1925
  955MOL0     C31671   9.989  11.258   1.638 -0.0174 -0.2010 -0.0349
  955MOL0     C31672  10.047  11.397   1.612 -0.2765  0.1604 -0.7618
  955MOL0     C31673  10.175  11.387   1.533  0.6364 -1.4432  0.0016
  955MOL0     C31674  10.262  11.515   1.547 -0.5731  0.7622  0.6002
  955MOL0     C31675  10.369  11.519   1.440  0.4423  0.5026  0.3885
  955MOL0     O31676  10.479  11.426   1.461 -0.1420  0.0093  0.8578
  955MOL0     C31677  10.579  11.423   1.363 -0.0204 -0.4895 -0.4479
  955MOL0     C31678  10.567  11.499   1.242 -0.1236  0.9806  0.0233
  955MOL0     C31679  10.671  11.480   1.141 -0.3871 -0.9898 -0.0466
  955MOL0     C31680  10.658  11.554   1.012  0.1316 -0.1745  0.4134
  955MOL0     C31681  10.781  11.383   1.159  0.5830 -0.5003 -0.5949
  955MOL0     C31682  10.867  11.343   1.049 -0.1889 -0.5521 -0.1450
  955MOL0     O31683  10.940  11.231   1.073  1.5014 -0.0014  0.3855
  955MOL0     C31684  11.056  11.187   1.006  0.6832 -1.4314 -0.6361
  955MOL0     C31685  11.072  11.209   0.864  0.2990  0.2878  0.3520
  955MOL0     C31686  11.176  11.133   0.802  0.1305 -1.5053 -1.2137
  955MOL0     C31687  11.276  11.071   0.878  0.5507 -0.1486  0.0600
  955MOL0     O31688  11.396  11.008   0.840  0.7510  0.3021 -0.3996
  955MOL0     C31689  11.426  10.998   0.702  0.1067  0.1065 -0.5692
  955MOL0     C31690  11.565  10.932   0.686  0.8019 -0.6117 -0.1269
  955MOL0     C31691  11.541  10.784   0.705  0.2424  0.5188  0.6004
  955MOL0     C31692  11.670  10.705   0.657  0.3103 -0.2811 -0.8578
  955MOL0     C31693  11.644  10.558   0.667  0.3504  0.9267  1.2856
  955MOL0     C31694  11.749  10.474   0.587 -0.6609 -0.1064 -0.4574
  955MOL0     C31695  11.733  10.327   0.592  0.2647  0.8992 -0.3521
  955MOL0     C31696  11.592  10.277   0.621  0.4104  0.1765 -0.6573
  955MOL0    Cl31697  11.480  10.326   0.496 -0.4400 -0.0183 -0.4834
  955MOL0     C31698  11.255  11.069   1.012  0.6444 -0.8146 -0.2371
  955MOL0     C31699  11.152  11.122   1.076 -0.9920 -0.1196 -0.9029
  955MOL0     O31700  10.894  11.421   0.962  0.5232 -0.1087 -0.5721
  955MOL0     C31701  10.784  11.314   1.280  0.4411  0.3217  0.2758
  955MOL0     C31702  10.686  11.330   1.375  0.1017  1.0566  0.4771
  955MOL0     N31703  10.010  11.145   1.561 -0.5129  1.2474  0.5018
  955MOL0     N31704   9.920  11.056   1.598  0.1266 -0.7674 -0.8367
  955MOL0     C31705   9.743  10.925   3.010 -0.5224 -0.3341 -0.1978
  955MOL0     C31706   9.813  10.904   3.131  0.7857  0.2681 -0.4241
  955MOL0     C31707   9.999  10.650   3.469  0.3511 -0.7098  0.0957
  955MOL0     C31708  10.028  10.519   3.506 -0.8000  0.2056  1.0701
  955MOL0     C31709  10.105  10.485   3.615  0.7559  0.0690 -0.4307
  955MOL0     C31710  10.152  10.584   3.701 -0.5725 -0.6684 -0.2730
  955MOL0     O31711  10.221  10.548   3.807 -0.3717  0.4774 -0.0310
  955MOL0     C31712  10.349  10.598   3.803 -0.0109  0.6812  0.3902
  955MOL0     C31713  10.438  10.567   3.924  0.7694 -0.4232 -0.0776
  955MOL0     C31714  10.435  10.696   4.011 -0.7244 -0.9468 -0.0395
  955MOL0     C31715  10.549  10.801   3.974  0.7676  0.6359  0.3700
  955MOL0     C31716  10.537  10.913   4.075  1.0422  0.2798  0.8169
  955MOL0     C31717  10.542  10.999   4.160  0.3803 -0.0536  0.6487
  955MOL0     C31718  10.128  10.710   3.668  0.9485 -0.2771  0.7423
  955MOL0     C31719  10.053  10.746   3.559  0.1678  0.2559 -1.1255
  955MOL0     C31720  10.012  10.890   3.557 -0.8093 -0.3601  0.0773
  955MOL0     H31721   9.913  10.590   3.061  1.1562  0.8907 -2.5622
  955MOL0     H31722   9.801  10.640   2.852  0.5704  0.3225  0.7974
  955MOL0     H31723   9.815  10.751   2.655 -1.3740 -0.4309 -0.8953
  955MOL0     H31724   9.857  10.918   2.682  0.9361 -0.1735 -2.8473
  955MOL0     H31725   9.629  10.813   2.517  1.8495 -2.5112  3.4550
  955MOL0     H31726   9.648  10.982   2.565 -1.7358 -0.2112 -1.9600
  955MOL0     H31727   9.862  10.973   2.453  0.0329 -0.8563  0.4167
  955MOL0     H31728   9.837  10.803   2.414  1.2640  0.3718  0.6371
  955MOL0     H31729   9.631  10.863   2.273  0.9488 -0.7644 -0.1775
  955MOL0     H31730   9.661  11.031   2.314 -1.5724  0.3153 -3.2873
  955MOL0     H31731   9.857  10.846   2.163 -1.7244  0.6469 -2.5761
  955MOL0     H31732   9.890  11.014   2.222  1.8749  0.3687 -1.5936
  955MOL0     H31733   9.672  10.890   2.042 -2.2849  1.0002  4.8316
  955MOL0     H31734   9.670  11.059   2.068  0.3796  1.6329  0.5200
  955MOL0     H31735   9.919  10.962   1.929  1.1074  2.0298 -0.2456
  955MOL0     H31736   9.859  11.123   1.971 -0.6304 -0.4965  2.5802
  955MOL0     H31737   9.750  10.927   1.757  2.4996  0.5846  1.0789
  955MOL0     H31738   9.658  11.071   1.791  0.0323  0.4621 -2.3779
  955MOL0     H31739   9.823  11.310   1.779  2.4744  1.8444  0.4138
  955MOL0     H31740  10.074  11.433   1.711 -0.1198 -0.6740 -0.4923
  955MOL0     H31741   9.976  11.464   1.562 -2.1534 -0.5080  0.8426
  955MOL0     H31742  10.234  11.304   1.573  1.3406 -0.3083  1.4400
  955MOL0     H31743  10.134  11.377   1.432 -5.4093  1.1697  1.7518
  955MOL0     H31744  10.206  11.609   1.539  1.7081  2.0639 -1.1378
  955MOL0     H31745  10.316  11.521   1.642  1.2379 -1.8000 -0.1519
  955MOL0     H31746  10.322  11.506   1.343  0.9076  1.8399 -0.0385
  955MOL0     H31747  10.403  11.623   1.434 -3.4564  1.9016 -1.2249
  955MOL0     H31748  10.480  11.563   1.232 -1.3307 -0.2276  2.0846
  955MOL0     H31749  10.730  11.632   0.988 -2.0328  1.5103 -0.9706
  955MOL0     H31750  10.561  11.605   1.008  0.7378  1.0254  0.6491
  955MOL0     H31751  10.657  11.481   0.930  3.0674 -0.7556  0.7917
  955MOL0     H31752  11.006  11.272   0.805  2.4564  1.4428 -0.9427
  955MOL0     H31753  11.174  11.138   0.693  4.1903 -0.5662 -1.3982
  955MOL0     H31754  11.347  10.938   0.656 -4.1645  2.8512  2.4062
  955MOL0     H31755  11.412  11.095   0.653  1.0177  0.9942  0.8329
  955MOL0     H31756  11.589  10.951   0.581  0.6459 -0.7053 -0.1807
  955MOL0     H31757  11.650  10.970   0.743  1.6256 -1.2852 -0.8712
  955MOL0     H31758  11.451  10.755   0.649  0.8692  1.0284 -0.7111
  955MOL0     H31759  11.526  10.759   0.811  0.3494  0.2487  0.5530
  955MOL0     H31760  11.764  10.725   0.710 -0.4514 -0.0920  0.4852
  955MOL0     H31761  11.687  10.740   0.555 -1.4665  2.5200 -0.3041
  955MOL0     H31762  11.656  10.536   0.774  1.3959  0.8588  1.1653
  955MOL0     H31763  11.545  10.530   0.630 -1.6306 -0.2512  6.5195
  955MOL0     H31764  11.843  10.494   0.637 -0.0853 -2.6199 -0.3914
  955MOL0     H31765  11.765  10.507   0.484 -0.7489  0.8222 -0.1780
  955MOL0     H31766  11.786  10.275   0.673 -2.0519  0.2472  0.8286
  955MOL0     H31767  11.761  10.288   0.494  1.0859  0.2267  0.1324
  955MOL0     H31768  11.567  10.311   0.721 -1.8600  4.4030 -2.3968
  955MOL0     H31769  11.579  10.168   0.623 -0.0708  0.2387  0.7798
  955MOL0     H31770  11.327  11.019   1.076  3.2367  0.3547 -2.0573
  955MOL0     H31771  11.134  11.105   1.181 -3.8646 -0.8828 -1.4174
  955MOL0     H31772  10.866  11.247   1.303  0.4636  0.8611  1.8647
  955MOL0     H31773  10.682  11.273   1.467 -1.1552  2.7180  1.5032
  955MOL0     H31774   9.699  11.018   2.976 -0.7364 -0.7397 -1.0573
  955MOL0     H31775   9.822  10.987   3.201 -3.6369 -1.1294  2.1735
  955MOL0     H31776   9.995  10.444   3.435  0.8361  2.8746 -2.9198
  955MOL0     H31777  10.122  10.380   3.638  0.9113  0.0346 -0.6991
  955MOL0     H31778  10.399  10.556   3.716  0.9786  2.1008  0.2425
  955MOL0     H31779  10.348  10.702   3.770  1.4316 -0.0420 -2.1312
  955MOL0     H31780  10.538  10.531   3.897  0.6976 -0.4331 -0.3387
  955MOL0     H31781  10.402  10.481   3.980  1.5592 -0.7805 -0.1103
  955MOL0     H31782  10.339  10.749   4.008  1.6874  3.9433 -0.0612
  955MOL0     H31783  10.443  10.668   4.116 -3.8068  1.2855  0.9472
  955MOL0     H31784  10.532  10.826   3.869 -1.6073  2.4600  1.0920
  955MOL0     H31785  10.644  10.748   3.975 -0.8898 -3.1193 -3.8644
  955MOL0     H31786  10.539  11.074   4.236 -1.1112  0.1707  0.4111
  955MOL0     H31787  10.156  10.789   3.738  3.2462 -0.0724 -0.2954
  955MOL0     H31788  10.059  10.956   3.631 -0.7372 -0.3396  0.0129
  955MOL0     H31789  10.026  10.931   3.457 -0.3673  1.8278  0.9877
  955MOL0     H31790   9.903  10.905   3.566 -0.7083  0.2349  0.4054
  956MOL0     O31791   6.141   1.221   7.895 -0.2911  0.9924  0.5644
  956MOL0     C31792   6.104   1.118   7.843 -1.0584 -0.4426  0.1054
  956MOL0     O31793   6.009   1.119   7.749 -0.3292  0.3947  0.6304
  956MOL0     C31794   5.921   1.213   7.714  0.3183  0.2200  0.1920
  956MOL0     C31795   5.844   1.185   7.602 -0.8262 -0.6039  0.9393
  956MOL0     C31796   5.734   1.277   7.568  0.1833  0.1833  1.0234
  956MOL0     C31797   5.707   1.394   7.638  0.5786  0.5719  1.5341
  956MOL0     O31798   5.597   1.469   7.599 -0.0508  0.3056 -0.7183
  956MOL0     C31799   5.479   1.383   7.602  0.0208  0.0703  0.7398
  956MOL0     C31800   5.353   1.469   7.610 -0.1910 -0.1585 -0.0137
  956MOL0     C31801   5.230   1.389   7.601  0.7592 -0.5233 -0.3506
  956MOL0     C31802   5.095   1.466   7.560 -0.0712  0.0812 -0.4761
  956MOL0     C31803   4.977   1.371   7.545  0.3339 -0.6331  0.3567
  956MOL0     C31804   4.850   1.429   7.485 -0.0628  0.2610 -0.5272
  956MOL0     C31805   4.861   1.446   7.334  0.1589  0.3283  0.3291
  956MOL0     C31806   4.721   1.465   7.268  0.4366  0.0902  0.4285
  956MOL0     N31807   4.736   1.509   7.130  0.0327  0.0783 -0.6860
  956MOL0     C31808   4.727   1.430   7.022  1.2637 -0.4242  0.1409
  956MOL0     C31809   4.733   1.517   6.914 -0.0757  0.6099 -0.5688
  956MOL0     C31810   4.740   1.457   6.777 -0.3084  0.4758 -0.4499
  956MOL0     C31811   4.877   1.406   6.737  1.8872 -0.4626 -0.6949
  956MOL0     C31812   4.880   1.373   6.588 -1.1543  0.6688  0.1685
  956MOL0     C31813   5.006   1.294   6.541 -0.8580 -0.8084  0.8141
  956MOL0     O31814   5.003   1.178   6.623  0.0285  0.4553  0.1150
  956MOL0     C31815   5.108   1.092   6.636 -0.2095  0.0909  0.6344
  956MOL0     C31816   5.232   1.081   6.571 -0.0544 -0.2003  0.2172
  956MOL0     C31817   5.338   1.002   6.615  1.1603 -0.2551  0.0410
  956MOL0     C31818   5.463   1.024   6.536 -0.5029 -0.2920 -0.6389
  956MOL0     C31819   5.312   0.921   6.725  0.3168  0.3296 -0.3602
  956MOL0     C31820   5.412   0.816   6.775 -0.2550  0.1929 -0.0054
  956MOL0     O31821   5.367   0.726   6.869 -0.8667  0.0569  0.3250
  956MOL0     C31822   5.443   0.664   6.954 -0.5420 -0.0905 -0.0624
  956MOL0     C31823   5.508   0.544   6.915 -0.2940 -0.6252 -0.0465
  956MOL0     C31824   5.551   0.455   7.023  0.4312 -0.4743  0.7597
  956MOL0     C31825   5.551   0.483   7.162  0.4108  0.4381 -0.1222
  956MOL0     O31826   5.599   0.404   7.266  0.2882  0.2009 -0.0515
  956MOL0     C31827   5.610   0.256   7.256  0.1162 -0.4007 -0.1413
  956MOL0     C31828   5.637   0.201   7.399  0.0505  0.2042 -0.5977
  956MOL0     C31829   5.788   0.192   7.445  0.1136  0.1528 -0.0438
  956MOL0     C31830   5.799   0.124   7.578 -0.1959 -0.1197 -1.1898
  956MOL0     C31831   5.942   0.093   7.628  0.3572 -0.2685 -0.3255
  956MOL0     C31832   5.934  -0.018   7.733 -0.0069  0.7851  0.3269
  956MOL0     C31833   5.813  -0.029   7.828 -0.3736  0.0144 -0.7363
  956MOL0     C31834   5.816  -0.141   7.930 -1.0202 -0.2191  0.4297
  956MOL0    Cl31835   5.787  -0.307   7.858 -0.3518  0.1812  0.1816
  956MOL0     C31836   5.489   0.603   7.195 -0.0438 -0.4305 -0.2862
  956MOL0     C31837   5.430   0.676   7.095 -0.6915 -0.2296 -0.1596
  956MOL0     O31838   5.528   0.817   6.728 -0.1696  0.4072 -0.2586
  956MOL0     C31839   5.185   0.921   6.781  0.2056  1.7693 -1.3777
  956MOL0     C31840   5.083   1.008   6.739  0.3566 -0.6307  1.1171
  956MOL0     N31841   4.757   1.647   6.969  0.8356  0.9008 -0.1533
  956MOL0     N31842   4.764   1.637   7.093 -0.4842  0.1065 -0.3600
  956MOL0     C31843   5.786   1.423   7.754  0.6622  0.7561  0.3695
  956MOL0     C31844   5.888   1.331   7.787 -0.4278  0.4240 -0.2915
  956MOL0     C31845   6.173   0.987   7.887 -0.1113  0.4156  0.3895
  956MOL0     C31846   6.139   0.871   7.815  0.6636  0.1242 -0.0454
  956MOL0     C31847   6.193   0.746   7.852  0.0293 -0.3469 -0.0897
  956MOL0     C31848   6.288   0.732   7.949  0.2482  0.5411  0.1138
  956MOL0     O31849   6.340   0.611   7.990 -0.4620 -0.3565  0.4927
  956MOL0     C31850   6.329   0.486   7.910 -1.1069 -0.1765 -0.7774
  956MOL0     C31851   6.441   0.390   7.971  0.1558 -0.2296 -0.9272
  956MOL0     C31852   6.375   0.331   8.099 -0.5359 -0.1756 -0.6261
  956MOL0     C31853   6.476   0.254   8.183  0.3925 -0.5749  0.2888
  956MOL0     C31854   6.596   0.338   8.207  1.0538 -0.1617 -0.2555
  956MOL0     C31855   6.685   0.421   8.222  0.2045  0.3487 -0.6057
  956MOL0     C31856   6.311   0.846   8.029  1.0412 -0.4964 -0.0200
  956MOL0     C31857   6.254   0.972   8.003  0.2263 -0.2910  0.5004
  956MOL0     C31858   6.300   1.087   8.090 -0.3506  0.2063  0.8450
  956MOL0     H31859   5.870   1.093   7.550  0.1614  1.6218 -2.9214
  956MOL0     H31860   5.669   1.259   7.483  2.4550  1.4494 -1.1281
  956MOL0     H31861   5.480   1.312   7.685 -2.3116 -0.9997 -0.0624
  956MOL0     H31862   5.478   1.334   7.505  1.0862 -0.4836  0.9964
  956MOL0     H31863   5.354   1.521   7.706  2.4057 -0.9834  0.4926
  956MOL0     H31864   5.355   1.542   7.528  1.1059 -0.4137 -0.2407
  956MOL0     H31865   5.237   1.305   7.531  1.4308 -1.8655  1.2297
  956MOL0     H31866   5.206   1.348   7.700  1.5966  1.2590  0.6234
  956MOL0     H31867   5.063   1.533   7.640 -2.6624 -3.4616  1.7369
  956MOL0     H31868   5.123   1.530   7.475 -1.3700  3.0776  1.2126
  956MOL0     H31869   4.957   1.331   7.645  2.6773  1.2584  1.7015
  956MOL0     H31870   5.010   1.288   7.480  0.1013 -0.0111 -0.5753
  956MOL0     H31871   4.772   1.359   7.518 -0.1310  1.7110  2.8219
  956MOL0     H31872   4.833   1.526   7.533  1.7904 -1.0074  2.9909
  956MOL0     H31873   4.896   1.352   7.292 -2.0519 -0.7191  0.6926
  956MOL0     H31874   4.931   1.527   7.310  2.7673 -1.9847 -0.3289
  956MOL0     H31875   4.668   1.370   7.278  2.1277 -0.7063  2.7915
  956MOL0     H31876   4.659   1.534   7.326  1.8241  0.3169  1.7219
  956MOL0     H31877   4.700   1.325   7.018  1.2861 -0.3977 -0.9498
  956MOL0     H31878   4.713   1.542   6.714 -2.1258  1.3925  1.4318
  956MOL0     H31879   4.663   1.380   6.766 -0.1948  0.6210 -2.5787
  956MOL0     H31880   4.942   1.484   6.776  0.6400 -0.5481  1.7393
  956MOL0     H31881   4.893   1.319   6.801  2.9056  0.5968  0.5358
  956MOL0     H31882   4.797   1.307   6.561 -1.1536  1.1799 -1.1515
  956MOL0     H31883   4.885   1.465   6.529  0.8992  0.3501 -0.2223
  956MOL0     H31884   5.006   1.283   6.432 -0.1263  3.7309  0.1707
  956MOL0     H31885   5.089   1.360   6.570 -2.6328  0.8779  2.3051
  956MOL0     H31886   5.240   1.149   6.486 -1.0720 -0.5827 -0.1981
  956MOL0     H31887   5.553   1.027   6.597 -0.7284  0.2586 -0.3169
  956MOL0     H31888   5.458   1.117   6.478 -1.3556 -0.5374 -0.9840
  956MOL0     H31889   5.475   0.939   6.469  1.8182 -2.3752  2.1939
  956MOL0     H31890   5.511   0.514   6.811  0.5001 -0.2355 -0.1392
  956MOL0     H31891   5.600   0.360   7.003  2.1680  0.5558 -0.1288
  956MOL0     H31892   5.511   0.227   7.221 -0.9010  1.6396  0.9061
  956MOL0     H31893   5.695   0.232   7.191  1.2644  0.9551  0.7960
  956MOL0     H31894   5.578   0.259   7.472  0.6899 -2.9075  2.6613
  956MOL0     H31895   5.588   0.104   7.397 -1.6461  0.9169  1.9419
  956MOL0     H31896   5.822   0.293   7.468  1.5710 -0.7616  2.0859
  956MOL0     H31897   5.842   0.141   7.364  1.2116  0.5023  0.4448
  956MOL0     H31898   5.748   0.027   7.577  0.3648 -0.4904  0.5973
  956MOL0     H31899   5.738   0.178   7.651 -1.3100 -2.0830 -0.5961
  956MOL0     H31900   6.010   0.063   7.548 -3.6440  0.1080 -4.2970
  956MOL0     H31901   5.971   0.187   7.675  0.7695 -1.9096  3.0201
  956MOL0     H31902   6.027  -0.007   7.790  0.3791  3.1108 -0.6565
  956MOL0     H31903   5.935  -0.114   7.680  0.2599 -0.0776  1.8180
  956MOL0     H31904   5.713  -0.037   7.783 -0.7189  0.1715 -0.0133
  956MOL0     H31905   5.808   0.064   7.886  3.5380 -0.6479  0.9423
  956MOL0     H31906   5.751  -0.128   8.017 -0.3823  3.1356  0.5444
  956MOL0     H31907   5.913  -0.143   7.982  0.3429  0.6318 -1.9096
  956MOL0     H31908   5.474   0.626   7.300 -0.0474 -2.7412  0.2689
  956MOL0     H31909   5.372   0.766   7.115 -2.2043 -1.2768  0.3530
  956MOL0     H31910   5.164   0.841   6.852 -3.0932  2.3224 -1.5882
  956MOL0     H31911   4.997   1.003   6.805 -0.2100 -0.7323  0.3924
  956MOL0     H31912   5.754   1.503   7.820  0.8404  0.2661  1.0756
  956MOL0     H31913   5.943   1.359   7.877 -0.0075 -1.1783 -0.0258
  956MOL0     H31914   6.068   0.878   7.734  0.5602  0.1245  0.0455
  956MOL0     H31915   6.162   0.659   7.796 -0.8300  0.4701 -0.9292
  956MOL0     H31916   6.226   0.453   7.924 -2.4679  3.8540 -0.1027
  956MOL0     H31917   6.320   0.491   7.801 -1.4989 -2.9360 -0.9608
  956MOL0     H31918   6.532   0.445   7.994 -0.3697  0.3683 -0.2220
  956MOL0     H31919   6.452   0.311   7.896 -1.5193 -1.7047  0.2600
  956MOL0     H31920   6.323   0.415   8.147  0.0431  2.0039 -3.5170
  956MOL0     H31921   6.302   0.257   8.065 -0.0766 -2.0690  2.1487
  956MOL0     H31922   6.498   0.158   8.136  1.7911  0.3399 -1.0309
  956MOL0     H31923   6.430   0.225   8.277 -0.2735 -3.2512 -0.7739
  956MOL0     H31924   6.758   0.493   8.252  1.1648  0.5046 -3.1124
  956MOL0     H31925   6.378   0.838   8.114  0.7746 -1.5507  0.1123
  956MOL0     H31926   6.224   1.126   8.159  0.3535  5.4471 -0.9101
  956MOL0     H31927   6.382   1.056   8.156 -0.1610 -3.8186 -1.0170
  956MOL0     H31928   6.332   1.180   8.043  1.5263 -0.2925  1.0687
  957MOL0     O31929   5.737   3.063   9.796 -0.0698  0.0581 -0.1069
  957MOL0     C31930   5.802   2.964   9.764 -0.7385  0.3022  0.4814
  957MOL0     O31931   5.910   2.960   9.690 -0.7741 -0.7161 -0.0606
  957MOL0     C31932   5.958   3.078   9.628 -0.5124  0.6214 -0.1212
  957MOL0     C31933   5.906   3.101   9.499 -0.4912  0.2363 -0.7124
  957MOL0     C31934   5.951   3.202   9.423  0.1787 -0.6479  0.4992
  957MOL0     C31935   6.049   3.292   9.479 -0.4716  0.0706  1.2786
  957MOL0     O31936   6.080   3.409   9.415 -0.6133 -0.2430 -0.3167
  957MOL0     C31937   6.191   3.495   9.459 -0.3768 -0.0027 -0.0880
  957MOL0     C31938   6.200   3.623   9.383 -0.6699  0.7604  0.0469
  957MOL0     C31939   6.228   3.584   9.233  0.2002 -0.5835 -0.2704
  957MOL0     C31940   6.258   3.704   9.137  0.1252  0.0421 -0.6544
  957MOL0     C31941   6.351   3.667   9.016 -0.1906 -0.3802  0.1794
  957MOL0     C31942   6.433   3.790   8.971 -0.0214  0.0074  0.3628
  957MOL0     C31943   6.533   3.739   8.852  0.3878 -0.1077  0.8910
  957MOL0     C31944   6.625   3.851   8.796  0.4363  1.3957 -0.1068
  957MOL0     N31945   6.673   3.809   8.666 -0.7123  0.2369 -0.5014
  957MOL0     C31946   6.628   3.851   8.540 -0.3615 -0.0481 -0.6187
  957MOL0     C31947   6.719   3.800   8.450  0.5866  0.3040 -0.2038
  957MOL0     C31948   6.723   3.820   8.304  0.2906 -0.4340 -0.1191
  957MOL0     C31949   6.698   3.688   8.233 -0.0473  1.3113 -0.7769
  957MOL0     C31950   6.707   3.687   8.072  0.0639  0.4548  0.0270
  957MOL0     C31951   6.598   3.755   8.000 -0.5660 -0.5383  0.0635
  957MOL0     O31952   6.590   3.900   8.033 -0.1343  0.1737 -0.0806
  957MOL0     C31953   6.675   3.982   7.957  0.3852 -0.2839 -0.9287
  957MOL0     C31954   6.692   4.107   8.013  0.1111 -0.6700 -0.1534
  957MOL0     C31955   6.764   4.217   7.954  0.0424 -0.1500  0.2162
  957MOL0     C31956   6.762   4.355   8.011 -0.3678 -0.7616  0.2114
  957MOL0     C31957   6.826   4.186   7.830 -0.5177  0.1479 -0.2431
  957MOL0     C31958   6.919   4.278   7.754  1.3197  0.5822 -0.8931
  957MOL0     O31959   6.915   4.268   7.620  0.2484 -0.3864 -0.3071
  957MOL0     C31960   6.968   4.380   7.561 -0.0948 -0.6154 -0.6836
  957MOL0     C31961   6.894   4.496   7.548  0.2594  1.0004 -0.5750
  957MOL0     C31962   6.937   4.596   7.467 -1.3489  0.0263  0.8882
  957MOL0     C31963   7.067   4.603   7.417 -0.6718 -0.3659  0.1561
  957MOL0     O31964   7.093   4.721   7.341 -0.4468 -0.2591 -0.6501
  957MOL0     C31965   7.186   4.704   7.242  0.5184 -0.2205 -0.2709
  957MOL0     C31966   7.174   4.817   7.134 -0.0897  0.1904 -0.0962
  957MOL0     C31967   7.303   4.836   7.064 -0.3419  0.9985  1.6429
  957MOL0     C31968   7.294   4.935   6.948 -0.5976 -0.4988 -0.1592
  957MOL0     C31969   7.435   4.955   6.892  0.1929  0.8187  0.0627
  957MOL0     C31970   7.531   5.042   6.974  0.4672  0.6866  0.3847
  957MOL0     C31971   7.662   5.073   6.917 -0.4119 -0.0596 -0.0847
  957MOL0     C31972   7.752   5.135   7.027  0.4842  0.2712 -0.3614
  957MOL0    Cl31973   7.908   5.201   6.964  0.6119  0.4417 -0.4680
  957MOL0     C31974   7.149   4.490   7.447 -0.1886 -0.6058  0.7432
  957MOL0     C31975   7.098   4.373   7.505 -0.3984 -0.1247  1.0852
  957MOL0     O31976   6.992   4.354   7.822  0.9565  1.1337 -0.3161
  957MOL0     C31977   6.819   4.058   7.775  0.5291 -0.3285 -0.2520
  957MOL0     C31978   6.736   3.957   7.831 -0.2383 -0.5870  0.6288
  957MOL0     N31979   6.817   3.728   8.509 -0.9020 -1.3172 -0.0555
  957MOL0     N31980   6.783   3.725   8.635  0.0134  0.0268 -0.1306
  957MOL0     C31981   6.103   3.267   9.606 -0.3128  0.0768  0.7073
  957MOL0     C31982   6.055   3.167   9.679  1.0173 -0.7737 -0.3869
  957MOL0     C31983   5.750   2.831   9.827  0.3030 -0.0532  0.5171
  957MOL0     C31984   5.727   2.828   9.964  0.3004  0.0473  0.8254
  957MOL0     C31985   5.676   2.708  10.020  0.8019 -0.2627 -0.4454
  957MOL0     C31986   5.654   2.588   9.945  0.0848  0.2302 -0.4786
  957MOL0     O31987   5.607   2.460   9.990 -1.2945 -0.1607 -0.0105
  957MOL0     C31988   5.521   2.458  10.111 -0.9120  0.1213  0.6035
  957MOL0     C31989   5.403   2.368  10.081  0.0030 -0.3575 -0.2125
  957MOL0     C31990   5.441   2.233  10.001  1.0202  0.2989  0.3919
  957MOL0     C31991   5.329   2.120  10.008 -0.0194 -0.8729 -0.7943
  957MOL0     C31992   5.201   2.170   9.956  0.5888 -0.8768 -0.7855
  957MOL0     C31993   5.093   2.206   9.902  0.2051  0.4092 -0.4102
  957MOL0     C31994   5.667   2.606   9.809 -0.8149  0.6927  0.1481
  957MOL0     C31995   5.709   2.724   9.750  0.1872  0.2418  0.4622
  957MOL0     C31996   5.736   2.718   9.602  1.0228 -0.0070  0.4815
  957MOL0     H31997   5.835   3.022   9.476 -1.7910  0.7678  1.2072
  957MOL0     H31998   5.907   3.220   9.325  0.9086 -2.8757 -0.2960
  957MOL0     H31999   6.284   3.441   9.442 -0.1674  0.1431  0.5453
  957MOL0     H32000   6.177   3.519   9.565 -1.3157 -2.7318  0.4774
  957MOL0     H32001   6.111   3.685   9.395 -1.5891 -0.6044  0.4584
  957MOL0     H32002   6.287   3.674   9.427 -0.4407  1.4804 -1.1799
  957MOL0     H32003   6.313   3.515   9.228 -0.2126 -1.1562  0.4753
  957MOL0     H32004   6.147   3.524   9.191 -0.2725  0.2972 -0.6431
  957MOL0     H32005   6.168   3.755   9.104 -0.9466  1.5739  3.8178
  957MOL0     H32006   6.313   3.782   9.190 -2.1601  0.3843  1.3746
  957MOL0     H32007   6.287   3.632   8.934 -0.7284  0.7898  0.0828
  957MOL0     H32008   6.426   3.592   9.041  1.4372  1.5224  1.2243
  957MOL0     H32009   6.375   3.873   8.929  2.7006  1.3177 -1.0595
  957MOL0     H32010   6.498   3.820   9.054 -0.7155  0.3434  0.7985
  957MOL0     H32011   6.457   3.714   8.778 -0.1923 -2.6373  2.2162
  957MOL0     H32012   6.592   3.649   8.872  0.7244 -0.2134 -0.5252
  957MOL0     H32013   6.569   3.944   8.792 -3.7472 -0.8506  0.0731
  957MOL0     H32014   6.702   3.865   8.873 -0.7011 -3.1947  2.2897
  957MOL0     H32015   6.539   3.911   8.523 -0.1686 -0.1508 -2.1784
  957MOL0     H32016   6.818   3.859   8.266 -1.1871  2.9273 -0.6766
  957MOL0     H32017   6.639   3.887   8.285  1.5753  1.3946  0.3535
  957MOL0     H32018   6.761   3.617   8.288 -1.5347 -0.1009 -0.7999
  957MOL0     H32019   6.597   3.652   8.255 -0.5584  1.8605 -2.1159
  957MOL0     H32020   6.809   3.716   8.046  0.4491 -0.3510  0.5852
  957MOL0     H32021   6.707   3.584   8.033 -0.1878  0.6371 -0.4654
  957MOL0     H32022   6.604   3.726   7.895 -1.1908 -2.7517  0.6012
  957MOL0     H32023   6.509   3.699   8.027 -1.6468  2.0859  2.5066
  957MOL0     H32024   6.647   4.116   8.111  0.8447  0.5244  0.0801
  957MOL0     H32025   6.857   4.375   8.062 -0.1948  0.1116 -0.4414
  957MOL0     H32026   6.679   4.372   8.080 -0.7079  1.0816 -0.5986
  957MOL0     H32027   6.750   4.430   7.933  0.7876 -0.1849  0.5701
  957MOL0     H32028   6.788   4.492   7.574  0.2702 -2.3692 -0.6162
  957MOL0     H32029   6.869   4.679   7.455  0.5646  1.5031 -0.4643
  957MOL0     H32030   7.279   4.721   7.296  1.8149  2.0584 -2.9427
  957MOL0     H32031   7.191   4.604   7.198  1.8247  0.0731 -0.8324
  957MOL0     H32032   7.113   4.783   7.049  0.5183  2.9164 -1.7547
  957MOL0     H32033   7.145   4.911   7.182  2.0674 -0.9582  3.9095
  957MOL0     H32034   7.337   4.742   7.018 -0.9836  1.0313  1.0930
  957MOL0     H32035   7.386   4.872   7.125  4.0747 -0.6537 -2.6432
  957MOL0     H32036   7.259   5.035   6.974 -1.2801 -0.3492 -1.5452
  957MOL0     H32037   7.228   4.896   6.870 -1.3195 -0.6501  0.5107
  957MOL0     H32038   7.469   4.852   6.877 -0.0065  0.6709  0.5854
  957MOL0     H32039   7.418   5.002   6.795 -0.3240  0.2238 -0.1436
  957MOL0     H32040   7.548   4.997   7.072  2.0301  1.0918  0.3160
  957MOL0     H32041   7.481   5.139   6.976  1.1648  1.2368 -2.7303
  957MOL0     H32042   7.657   5.131   6.824  3.7153 -4.7581 -3.8415
  957MOL0     H32043   7.693   4.974   6.883 -1.9304 -0.3772 -0.6008
  957MOL0     H32044   7.768   5.057   7.102  3.5252 -1.3330 -2.4881
  957MOL0     H32045   7.705   5.216   7.083  2.7637  1.3465  0.1072
  957MOL0     H32046   7.253   4.496   7.419 -0.8519  1.4920 -1.6079
  957MOL0     H32047   7.154   4.281   7.516 -2.1387 -1.0871  2.4668
  957MOL0     H32048   6.856   4.039   7.675  0.5332 -1.0294 -0.1213
  957MOL0     H32049   6.738   3.871   7.764 -0.8965 -0.3764  0.3307
  957MOL0     H32050   6.186   3.324   9.645  0.0800 -0.4561  0.6524
  957MOL0     H32051   6.095   3.155   9.779 -1.4273 -2.9788  0.4201
  957MOL0     H32052   5.746   2.915  10.025 -2.0148  0.5064  1.0023
  957MOL0     H32053   5.662   2.688  10.125  0.3188 -2.1738 -0.8427
  957MOL0     H32054   5.573   2.423  10.200 -2.8976  0.1368  1.8354
  957MOL0     H32055   5.488   2.561  10.126  0.7429  1.0010 -1.2921
  957MOL0     H32056   5.328   2.407  10.013 -2.9930 -2.9377  1.3560
  957MOL0     H32057   5.344   2.346  10.171  0.0486 -0.2477 -0.1540
  957MOL0     H32058   5.466   2.258   9.897  2.0808  3.0928  1.2171
  957MOL0     H32059   5.536   2.195  10.038  1.1880  0.5628  0.2382
  957MOL0     H32060   5.320   2.080  10.109 -0.1307  0.4655 -0.2583
  957MOL0     H32061   5.368   2.046   9.937  0.6106  0.5625 -2.0018
  957MOL0     H32062   5.005   2.237   9.851 -0.3161  0.2137  0.3475
  957MOL0     H32063   5.625   2.526   9.749 -2.8351  0.8981  1.1818
  957MOL0     H32064   5.671   2.789   9.549  1.1578  0.7894  1.3595
  957MOL0     H32065   5.836   2.755   9.579  1.2845  1.0905  3.0371
  957MOL0     H32066   5.724   2.621   9.553  3.5763  0.1343 -0.6026
  958MOL0     O32067  10.920   4.284   5.011  0.0397 -0.6064 -0.6324
  958MOL0     C32068  10.879   4.170   4.977 -0.8979 -0.0891 -0.3476
  958MOL0     O32069  10.802   4.089   5.054 -0.5421 -0.1729  0.4064
  958MOL0     C32070  10.749   4.145   5.164 -0.2480 -0.7437  0.3854
  958MOL0     C32071  10.630   4.202   5.158 -0.3119 -0.2920 -0.0814
  958MOL0     C32072  10.582   4.275   5.272 -0.9209  0.2643 -0.4191
  958MOL0     C32073  10.654   4.285   5.387 -0.9684  0.0085  0.3151
  958MOL0     O32074  10.594   4.346   5.491  0.2471  0.3199  0.1554
  958MOL0     C32075  10.677   4.380   5.607  0.6480  0.1634  1.3806
  958MOL0     C32076  10.672   4.287   5.724 -0.3521  0.2439 -0.6439
  958MOL0     C32077  10.542   4.292   5.810 -0.3195 -0.2291 -0.3568
  958MOL0     C32078  10.561   4.211   5.936  0.0001 -0.1977  0.5790
  958MOL0     C32079  10.437   4.203   6.019  0.2577  0.1163  0.1525
  958MOL0     C32080  10.460   4.103   6.135  0.2719  0.0927 -0.7152
  958MOL0     C32081  10.322   4.045   6.174 -0.3470 -0.3711  0.1437
  958MOL0     C32082  10.336   3.941   6.284 -0.2219 -0.2200 -0.3193
  958MOL0     N32083  10.429   3.985   6.391 -0.3029 -0.5413 -0.5335
  958MOL0     C32084  10.560   3.945   6.408 -0.9276  0.7521 -0.3988
  958MOL0     C32085  10.612   4.011   6.521  0.1476 -0.7895  0.3335
  958MOL0     C32086  10.754   4.014   6.576 -0.5088  0.3422 -0.2773
  958MOL0     C32087  10.786   4.153   6.637 -0.4607 -0.1740  0.1914
  958MOL0     C32088  10.807   4.273   6.542 -0.2218  1.1386 -0.6298
  958MOL0     C32089  10.957   4.319   6.530 -0.9523 -0.1842 -0.4292
  958MOL0     O32090  10.990   4.391   6.654 -0.0825 -0.0898 -0.2310
  958MOL0     C32091  11.121   4.438   6.662 -0.1012 -1.0354  0.0740
  958MOL0     C32092  11.222   4.437   6.567 -0.0490  0.1255  0.1972
  958MOL0     C32093  11.352   4.484   6.586 -0.7023 -0.4066  0.7970
  958MOL0     C32094  11.445   4.468   6.465  0.8176 -0.3102  1.0311
  958MOL0     C32095  11.388   4.533   6.711  0.4979  0.2633 -0.7370
  958MOL0     C32096  11.519   4.586   6.752 -0.7697  0.6699  0.2474
  958MOL0     O32097  11.537   4.699   6.823  0.4671  1.1058 -0.2891
  958MOL0     C32098  11.456   4.803   6.820  0.7579 -1.0005 -0.8773
  958MOL0     C32099  11.389   4.833   6.705  0.3829 -0.6902 -0.7826
  958MOL0     C32100  11.314   4.955   6.700  1.4617  0.2485  0.6625
  958MOL0     C32101  11.311   5.040   6.814 -0.5959 -0.7346 -0.4442
  958MOL0     O32102  11.227   5.147   6.810  0.5720 -0.7006 -0.3786
  958MOL0     C32103  11.289   5.277   6.829 -0.4681 -0.4377 -0.3570
  958MOL0     C32104  11.196   5.392   6.832 -0.0904  1.1821 -0.5250
  958MOL0     C32105  11.100   5.388   6.709 -0.0897 -0.6050  0.1140
  958MOL0     C32106  11.019   5.521   6.704  0.7248 -0.4977 -0.4062
  958MOL0     C32107  10.933   5.524   6.574 -0.7512  0.8570 -0.8982
  958MOL0     C32108  10.872   5.661   6.548 -0.5376  0.2794  0.6570
  958MOL0     C32109  10.779   5.667   6.427  0.1678 -0.1838 -0.1840
  958MOL0     C32110  10.659   5.579   6.432 -0.7379 -0.3508  0.3901
  958MOL0    Cl32111  10.555   5.617   6.577  0.2406 -0.4127  0.4912
  958MOL0     C32112  11.396   5.010   6.921 -0.0437 -0.7763 -0.4562
  958MOL0     C32113  11.450   4.884   6.930 -0.8065  0.2641 -0.7768
  958MOL0     O32114  11.608   4.511   6.731 -1.0334  0.0689 -0.4132
  958MOL0     C32115  11.285   4.533   6.806  1.5014  0.1602  1.2970
  958MOL0     C32116  11.155   4.475   6.783  0.0357 -0.3488  1.0716
  958MOL0     N32117  10.511   4.095   6.566 -0.7907  0.0682 -0.6125
  958MOL0     N32118  10.403   4.072   6.495  0.6015 -0.3466 -0.9692
  958MOL0     C32119  10.792   4.238   5.378 -0.1702  0.4106 -0.6255
  958MOL0     C32120  10.835   4.165   5.268 -0.7871  0.0474 -0.2692
  958MOL0     C32121  10.923   4.110   4.848  0.0245 -0.6624  0.4389
  958MOL0     C32122  10.976   3.981   4.859 -0.9265  0.3147  0.5736
  958MOL0     C32123  11.008   3.912   4.735  0.1852  0.8193 -0.7897
  958MOL0     C32124  11.016   3.985   4.618 -0.8680  0.0123  0.1805
  958MOL0     O32125  11.044   3.912   4.502  0.7877 -0.3303 -0.1601
  958MOL0     C32126  11.010   3.963   4.378 -0.0768 -0.1891  0.1197
  958MOL0     C32127  10.857   3.963   4.350 -0.0575 -0.4819  1.0941
  958MOL0     C32128  10.803   3.826   4.384  0.3826  0.7018 -0.8038
  958MOL0     C32129  10.677   3.801   4.310 -0.0844 -0.5923 -0.0021
  958MOL0     C32130  10.601   3.690   4.376  0.0248  0.5873 -0.1357
  958MOL0     C32131  10.537   3.599   4.435 -0.3386  0.0365  0.4359
  958MOL0     C32132  10.968   4.111   4.617 -0.1830  0.9675 -0.5261
  958MOL0     C32133  10.921   4.173   4.726 -0.2795  0.0283 -0.5283
  958MOL0     C32134  10.869   4.319   4.723 -0.1513 -0.1681 -0.0885
  958MOL0     H32135  10.578   4.181   5.066  2.5875 -1.3778 -1.5892
  958MOL0     H32136  10.487   4.327   5.260 -0.6153  0.2316 -3.9499
  958MOL0     H32137  10.644   4.478   5.642  2.0800  1.1971  0.0165
  958MOL0     H32138  10.778   4.414   5.581  0.5596  0.2877  1.2026
  958MOL0     H32139  10.696   4.184   5.694 -3.0350 -0.3187 -1.0988
  958MOL0     H32140  10.743   4.325   5.798 -0.1811  1.9159 -1.6262
  958MOL0     H32141  10.528   4.398   5.833 -2.4017 -0.3393 -0.8621
  958MOL0     H32142  10.454   4.254   5.758 -0.9192 -1.3831  1.4237
  958MOL0     H32143  10.578   4.112   5.894 -0.5645 -0.3162  0.6202
  958MOL0     H32144  10.642   4.246   6.002 -2.0724  1.9275  2.1691
  958MOL0     H32145  10.366   4.156   5.950 -0.4561 -0.2357  1.1052
  958MOL0     H32146  10.410   4.301   6.059  0.3815 -1.0271  3.3127
  958MOL0     H32147  10.535   4.028   6.108  3.6676  1.9088  2.6112
  958MOL0     H32148  10.505   4.153   6.221  0.8649  0.0773 -1.0061
  958MOL0     H32149  10.280   3.997   6.085  0.8115 -1.3238  0.0935
  958MOL0     H32150  10.260   4.133   6.193 -0.5363  0.1014 -2.2869
  958MOL0     H32151  10.240   3.916   6.329  1.2403 -0.4557  2.9860
  958MOL0     H32152  10.394   3.863   6.233  1.2011 -1.8652  3.4558
  958MOL0     H32153  10.614   3.868   6.354 -1.8884 -2.5608  2.9685
  958MOL0     H32154  10.822   3.989   6.493 -1.1692  0.5343 -0.8901
  958MOL0     H32155  10.764   3.948   6.662  0.3221  0.5482 -0.2036
  958MOL0     H32156  10.706   4.183   6.706 -2.0655 -1.6736 -0.9247
  958MOL0     H32157  10.881   4.146   6.690  2.0021  1.0960 -3.6331
  958MOL0     H32158  10.787   4.237   6.440  2.1356 -3.7846  0.3128
  958MOL0     H32159  10.742   4.353   6.580  0.0893  0.3229  1.8040
  958MOL0     H32160  11.023   4.233   6.513 -0.7119 -0.3949  1.4185
  958MOL0     H32161  10.970   4.383   6.442  2.8770 -1.3618 -0.9287
  958MOL0     H32162  11.203   4.383   6.475  2.9170 -0.1523 -0.3710
  958MOL0     H32163  11.529   4.538   6.465  0.4343  0.1605  1.5207
  958MOL0     H32164  11.388   4.488   6.373  0.7724 -5.1744 -0.2596
  958MOL0     H32165  11.480   4.365   6.455 -0.0972 -0.6010  0.7529
  958MOL0     H32166  11.387   4.780   6.611 -1.8948  2.2091 -2.5261
  958MOL0     H32167  11.249   4.994   6.622  3.0532 -0.1883 -0.9379
  958MOL0     H32168  11.347   5.275   6.922 -2.8826  1.0725  1.2787
  958MOL0     H32169  11.361   5.289   6.748 -0.3302  2.5096  0.1034
  958MOL0     H32170  11.132   5.389   6.921  1.0046 -2.2330  0.3200
  958MOL0     H32171  11.267   5.475   6.833  2.5363 -0.9309 -0.9182
  958MOL0     H32172  11.026   5.309   6.719 -0.1084 -0.3022  3.6155
  958MOL0     H32173  11.159   5.385   6.616  1.4065  4.9906  0.5178
  958MOL0     H32174  11.083   5.610   6.706  0.3850 -0.1204  3.9651
  958MOL0     H32175  10.966   5.522   6.800 -0.1250 -1.4603 -0.8472
  958MOL0     H32176  10.991   5.502   6.484 -2.2624  3.3110 -2.5714
  958MOL0     H32177  10.862   5.441   6.582  0.7579 -0.3451  0.8517
  958MOL0     H32178  10.954   5.729   6.525 -2.9621  2.3297 -3.0204
  958MOL0     H32179  10.827   5.699   6.640 -2.1114 -0.8746  0.4230
  958MOL0     H32180  10.835   5.633   6.340  2.5163 -0.1786  1.2354
  958MOL0     H32181  10.746   5.770   6.409  0.1731  0.1156  1.3965
  958MOL0     H32182  10.692   5.475   6.438  2.1760  0.5116  4.3349
  958MOL0     H32183  10.596   5.599   6.346 -2.9431 -0.1695  1.9702
  958MOL0     H32184  11.403   5.076   7.007 -2.8575 -1.4252  0.3654
  958MOL0     H32185  11.507   4.849   7.015  2.7024 -3.0939 -4.1096
  958MOL0     H32186  11.302   4.574   6.905  1.7553  2.0409  0.5192
  958MOL0     H32187  11.075   4.478   6.856  0.9859  2.9280  2.1364
  958MOL0     H32188  10.858   4.255   5.462  0.6054 -0.7480 -0.9765
  958MOL0     H32189  10.940   4.141   5.260 -0.3507  0.8224  2.2073
  958MOL0     H32190  10.963   3.931   4.955 -2.8045  1.7335  1.1174
  958MOL0     H32191  11.037   3.808   4.727  3.4483  1.6387 -1.0016
  958MOL0     H32192  11.048   4.065   4.374 -0.0775 -0.1981 -0.1268
  958MOL0     H32193  11.052   3.910   4.292 -2.3092  0.6873 -1.6166
  958MOL0     H32194  10.848   3.981   4.242 -2.0706 -2.2026  0.8922
  958MOL0     H32195  10.798   4.032   4.412  0.6416  0.2671  0.9411
  958MOL0     H32196  10.874   3.753   4.345 -0.3395  0.1920 -1.1737
  958MOL0     H32197  10.795   3.830   4.493  0.4227 -0.7601 -0.7239
  958MOL0     H32198  10.698   3.784   4.204  1.0334  0.3039  0.0580
  958MOL0     H32199  10.615   3.890   4.316 -1.4088 -1.5782  2.6800
  958MOL0     H32200  10.485   3.522   4.490 -2.1638  0.2646 -0.8828
  958MOL0     H32201  10.951   4.172   4.528 -1.0862 -0.9445 -1.7192
  958MOL0     H32202  10.772   4.312   4.774 -0.5944 -2.4759 -1.0931
  958MOL0     H32203  10.921   4.403   4.769 -3.4605  2.1995 -0.3220
  958MOL0     H32204  10.847   4.351   4.621 -3.0766 -0.2908  0.4108
  959MOL0     O32205   3.607   2.750   9.159 -0.2605  0.3415  0.8590
  959MOL0     C32206   3.624   2.655   9.077  0.2789 -0.3275 -0.5500
  959MOL0     O32207   3.619   2.661   8.946  0.0350 -0.2739  0.3079
  959MOL0     C32208   3.586   2.782   8.888 -1.2107  0.6050  0.1068
  959MOL0     C32209   3.678   2.864   8.822  0.2746 -0.1670  0.2185
  959MOL0     C32210   3.628   2.990   8.778 -0.9146  0.8304 -0.4685
  959MOL0     C32211   3.496   3.025   8.784 -0.2128  0.2613 -0.3616
  959MOL0     O32212   3.442   3.146   8.749  0.1095  0.0877  0.3214
  959MOL0     C32213   3.529   3.246   8.705 -0.1878 -0.1325 -0.9453
  959MOL0     C32214   3.439   3.345   8.632 -0.3665 -0.3509 -0.8482
  959MOL0     C32215   3.491   3.488   8.663  0.5544  0.0225  0.0549
  959MOL0     C32216   3.425   3.599   8.586  0.6240  0.8796 -0.1314
  959MOL0     C32217   3.483   3.731   8.639 -0.1536  0.0881  0.9196
  959MOL0     C32218   3.427   3.856   8.566 -0.4563  0.0070 -0.0962
  959MOL0     C32219   3.284   3.886   8.564  0.1232  0.5951 -0.9606
  959MOL0     C32220   3.250   4.035   8.546 -0.0378 -0.5713  0.0812
  959MOL0     N32221   3.311   4.070   8.414  0.8639  0.0958  0.1571
  959MOL0     C32222   3.284   4.008   8.293 -0.4386  0.2364  1.2061
  959MOL0     C32223   3.359   4.082   8.204 -0.1955 -0.1160  0.8216
  959MOL0     C32224   3.353   4.071   8.055 -0.9098 -0.1795  0.6823
  959MOL0     C32225   3.353   4.201   7.982  0.2494 -0.6540  1.0131
  959MOL0     C32226   3.335   4.168   7.830  0.5224  0.4824  0.0596
  959MOL0     C32227   3.286   4.295   7.759 -0.2357 -0.8406 -0.2656
  959MOL0     O32228   3.147   4.342   7.787 -0.0946 -0.0467 -0.5593
  959MOL0     C32229   3.041   4.277   7.724 -0.5251 -0.5807  0.4955
  959MOL0     C32230   2.929   4.324   7.775  0.3349 -0.5422  0.0311
  959MOL0     C32231   2.804   4.271   7.729 -0.4102 -0.5067 -0.1813
  959MOL0     C32232   2.678   4.339   7.764  0.0636 -0.9108 -0.4118
  959MOL0     C32233   2.801   4.154   7.639 -0.1510 -0.5370 -0.5292
  959MOL0     C32234   2.675   4.074   7.606  0.2136  0.2193  0.0839
  959MOL0     O32235   2.688   3.949   7.556  0.3758 -0.2496  0.4391
  959MOL0     C32236   2.575   3.903   7.482  0.6881 -0.4075  0.2836
  959MOL0     C32237   2.577   3.938   7.346 -0.5393  0.3036 -1.0614
  959MOL0     C32238   2.483   3.905   7.266  0.6842  0.1335 -0.8211
  959MOL0     C32239   2.368   3.844   7.314 -0.9148 -0.8932  0.6300
  959MOL0     O32240   2.266   3.809   7.230  0.2369 -0.6567 -0.8907
  959MOL0     C32241   2.249   3.863   7.094 -0.3552  0.1903 -0.5820
  959MOL0     C32242   2.118   3.810   7.043  0.2148  0.5400  0.0398
  959MOL0     C32243   2.098   3.843   6.899 -0.7771  0.0486  0.2433
  959MOL0     C32244   1.974   3.788   6.835  0.3319  0.4781 -0.4426
  959MOL0     C32245   1.864   3.888   6.821 -0.4464 -0.0571  0.3908
  959MOL0     C32246   1.743   3.825   6.753  0.2326 -0.0782  0.3045
  959MOL0     C32247   1.772   3.819   6.600 -0.1871  0.3027 -0.3073
  959MOL0     C32248   1.657   3.796   6.501 -0.1344  1.1924  0.1778
  959MOL0    Cl32249   1.541   3.930   6.528  0.3057  0.1794  0.3577
  959MOL0     C32250   2.363   3.805   7.452 -0.4680 -0.0725  0.1795
  959MOL0     C32251   2.469   3.832   7.540  0.0941  0.1374 -0.1358
  959MOL0     O32252   2.567   4.130   7.630  0.2781  0.5925  0.3081
  959MOL0     C32253   2.929   4.103   7.601  0.3632 -0.4562  0.4235
  959MOL0     C32254   3.045   4.167   7.631 -0.5077  0.9885  0.3388
  959MOL0     N32255   3.407   4.187   8.269  0.2962 -0.1174 -0.5066
  959MOL0     N32256   3.376   4.185   8.392 -0.0444  0.0426 -1.0065
  959MOL0     C32257   3.400   2.928   8.832 -0.9136 -0.0591 -0.0826
  959MOL0     C32258   3.444   2.805   8.879  0.7770 -0.0578  0.2592
  959MOL0     C32259   3.639   2.524   9.130  0.1491  0.2731 -0.5466
  959MOL0     C32260   3.556   2.502   9.244 -0.0669 -0.5553 -0.2130
  959MOL0     C32261   3.563   2.371   9.295 -0.6060  0.2689  0.4497
  959MOL0     C32262   3.653   2.270   9.256  0.4143  0.6744  0.5625
  959MOL0     O32263   3.654   2.145   9.306  0.5528  0.4560 -0.3185
  959MOL0     C32264   3.551   2.095   9.385 -0.2541 -0.2446 -0.2801
  959MOL0     C32265   3.410   2.076   9.325 -0.5089 -0.0885 -0.3253
  959MOL0     C32266   3.412   2.012   9.189  0.3178  0.9146  0.3463
  959MOL0     C32267   3.265   1.997   9.138  0.2119  0.4681  0.5538
  959MOL0     C32268   3.192   1.888   9.209 -0.1014 -0.4400 -0.5178
  959MOL0     C32269   3.126   1.804   9.269  0.4217  0.2080 -0.0685
  959MOL0     C32270   3.739   2.305   9.150  0.0325  0.0352 -0.0102
  959MOL0     C32271   3.733   2.428   9.086  0.4794 -0.6302  0.9885
  959MOL0     C32272   3.826   2.452   8.964 -0.1407 -0.2599 -0.6098
  959MOL0     H32273   3.782   2.835   8.829 -0.3720 -4.0414 -2.7630
  959MOL0     H32274   3.699   3.070   8.764  0.4554 -0.6724 -2.8091
  959MOL0     H32275   3.603   3.212   8.632  1.4167  0.6352  0.2535
  959MOL0     H32276   3.574   3.281   8.798 -2.0342 -0.0554 -0.0322
  959MOL0     H32277   3.427   3.316   8.527  1.0885  0.0824 -1.1489
  959MOL0     H32278   3.338   3.352   8.675  0.2086  0.2760  0.4312
  959MOL0     H32279   3.482   3.499   8.772 -2.1403  1.2547 -0.2160
  959MOL0     H32280   3.596   3.498   8.634  0.5026 -0.0147 -0.1440
  959MOL0     H32281   3.448   3.585   8.480  1.1562  1.6514 -0.1288
  959MOL0     H32282   3.318   3.602   8.606  0.7854 -2.3857  2.0071
  959MOL0     H32283   3.592   3.736   8.648  0.3218 -4.1182 -0.1543
  959MOL0     H32284   3.443   3.734   8.740  0.9957  0.0861  1.3869
  959MOL0     H32285   3.478   3.945   8.605 -1.6848  0.3520  0.7789
  959MOL0     H32286   3.461   3.850   8.463 -1.4988  0.5228 -0.4823
  959MOL0     H32287   3.243   3.847   8.657  1.7329 -1.3336 -0.9866
  959MOL0     H32288   3.237   3.828   8.484  0.2504 -0.6423 -0.1595
  959MOL0     H32289   3.142   4.050   8.536  0.2414  1.1983 -0.7066
  959MOL0     H32290   3.292   4.087   8.632  1.3226 -1.8597  0.2453
  959MOL0     H32291   3.230   3.920   8.258  2.9809 -0.7145 -2.4397
  959MOL0     H32292   3.255   4.030   8.027 -0.9151  1.3535 -1.9032
  959MOL0     H32293   3.435   4.005   8.025 -3.1830 -2.2728 -1.3858
  959MOL0     H32294   3.269   4.264   8.012 -0.1866  0.8811 -2.8448
  959MOL0     H32295   3.438   4.270   7.988  1.1946 -1.4050 -2.1451
  959MOL0     H32296   3.426   4.128   7.784 -0.4161 -0.3267 -1.1632
  959MOL0     H32297   3.246   4.104   7.827  1.7535 -1.2744 -0.9775
  959MOL0     H32298   3.350   4.378   7.789 -0.0647 -1.2647  0.5860
  959MOL0     H32299   3.304   4.285   7.651  0.2543 -0.0223 -0.2720
  959MOL0     H32300   2.923   4.405   7.846  0.2825 -0.2589 -0.2946
  959MOL0     H32301   2.626   4.292   7.847  0.6131  1.0927  1.1315
  959MOL0     H32302   2.612   4.361   7.680 -1.2460  0.1010  0.8485
  959MOL0     H32303   2.694   4.447   7.778 -0.9638 -0.7076 -0.7374
  959MOL0     H32304   2.669   3.975   7.301 -1.9773  1.4888 -3.2208
  959MOL0     H32305   2.504   3.948   7.169  2.3870 -2.4806 -1.7282
  959MOL0     H32306   2.244   3.972   7.101  1.6810  0.2317  0.9633
  959MOL0     H32307   2.329   3.828   7.028 -0.6016 -0.7038 -0.4258
  959MOL0     H32308   2.113   3.701   7.052 -2.3793  0.6129  0.1483
  959MOL0     H32309   2.034   3.852   7.098  0.6161  3.7168 -1.5367
  959MOL0     H32310   2.183   3.808   6.839  0.4486  2.2605  0.5855
  959MOL0     H32311   2.103   3.949   6.875  1.5462 -0.4928 -2.1234
  959MOL0     H32312   1.932   3.701   6.885 -2.3954 -0.2307 -3.5974
  959MOL0     H32313   2.004   3.747   6.738  2.5182  1.0162 -0.0599
  959MOL0     H32314   1.831   3.924   6.919 -2.1376  1.1365 -0.5657
  959MOL0     H32315   1.912   3.972   6.770 -2.3533 -1.0920 -3.4273
  959MOL0     H32316   1.646   3.861   6.788  0.3812 -0.6777  1.3686
  959MOL0     H32317   1.745   3.720   6.782  3.9659  0.0790  1.0933
  959MOL0     H32318   1.860   3.759   6.574 -0.5256 -0.4289  0.2267
  959MOL0     H32319   1.808   3.917   6.566  0.0283  0.3124 -0.0540
  959MOL0     H32320   1.601   3.706   6.528  1.0145  0.1473 -0.8080
  959MOL0     H32321   1.701   3.793   6.401 -0.8846  1.1742 -0.1580
  959MOL0     H32322   2.271   3.760   7.488  0.8477 -1.4449  2.0377
  959MOL0     H32323   2.473   3.794   7.641  1.5587  0.9066  0.1278
  959MOL0     H32324   2.939   4.016   7.537  1.9903 -1.9002  2.4857
  959MOL0     H32325   3.134   4.120   7.590  1.3856  4.7128 -0.2616
  959MOL0     H32326   3.296   2.956   8.822 -1.4249 -2.4689 -3.2656
  959MOL0     H32327   3.392   2.720   8.920  2.4812 -0.2961  2.0914
  959MOL0     H32328   3.490   2.577   9.284  3.0147  1.3718  1.7034
  959MOL0     H32329   3.496   2.350   9.378  0.5331 -0.8915  1.1128
  959MOL0     H32330   3.585   1.992   9.404  2.2450  0.5741  0.0494
  959MOL0     H32331   3.556   2.159   9.474  0.5509 -1.2907  0.4706
  959MOL0     H32332   3.350   2.167   9.325  0.8131  0.8947  2.9190
  959MOL0     H32333   3.361   2.021   9.405  0.4941  0.3144  0.5887
  959MOL0     H32334   3.464   2.069   9.111 -0.2367  0.6600 -0.2194
  959MOL0     H32335   3.462   1.916   9.210  1.6571  1.9824  2.4031
  959MOL0     H32336   3.270   1.967   9.033 -0.1286  2.6157 -0.1279
  959MOL0     H32337   3.207   2.089   9.150  1.4954  1.1252  2.3091
  959MOL0     H32338   3.056   1.730   9.302 -0.9120  1.3290 -0.2512
  959MOL0     H32339   3.816   2.233   9.126 -1.1547 -1.0166 -0.7975
  959MOL0     H32340   3.898   2.369   8.964  0.3393  0.1428 -1.5774
  959MOL0     H32341   3.771   2.439   8.870  1.0234  0.9494 -1.4886
  959MOL0     H32342   3.874   2.550   8.962  0.8096 -0.7117 -1.2345
  960MOL0     O32343   1.520   2.907   4.382 -0.5287 -0.0537  0.4260
  960MOL0     C32344   1.573   2.894   4.275 -0.5852  0.0781  0.4942
  960MOL0     O32345   1.507   2.891   4.156 -0.0793 -0.2336  0.2253
  960MOL0     C32346   1.383   2.952   4.131  0.5615  0.3868  0.5270
  960MOL0     C32347   1.317   2.931   4.004 -0.7576  0.0037 -0.7538
  960MOL0     C32348   1.197   3.005   3.977  0.5859 -0.6042 -1.3780
  960MOL0     C32349   1.136   3.083   4.070  0.1946  0.0621 -0.0129
  960MOL0     O32350   1.007   3.121   4.055 -0.1103  0.6388 -0.0021
  960MOL0     C32351   0.927   3.214   4.136  0.9776  0.3212  0.5496
  960MOL0     C32352   0.811   3.250   4.055  0.4278 -0.5184 -0.3916
  960MOL0     C32353   0.813   3.381   3.974  0.3271 -0.3747 -0.5768
  960MOL0     C32354   0.739   3.488   4.064  0.1650  0.4048 -0.1637
  960MOL0     C32355   0.720   3.617   3.998 -0.6440 -1.0244 -0.4296
  960MOL0     C32356   0.648   3.723   4.083 -0.4331 -0.3786  1.3722
  960MOL0     C32357   0.709   3.774   4.211 -0.4328  0.2877 -0.0922
  960MOL0     C32358   0.643   3.901   4.285  0.4411 -0.4193  0.4210
  960MOL0     N32359   0.649   4.019   4.194  0.4553 -0.1923  0.0421
  960MOL0     C32360   0.767   4.079   4.151  0.5975 -0.2924 -0.0821
  960MOL0     C32361   0.733   4.170   4.059  0.1434 -0.0180  0.0806
  960MOL0     C32362   0.816   4.260   3.986 -0.6478 -0.1353 -0.1208
  960MOL0     C32363   0.881   4.205   3.853  0.1751 -0.7428 -0.0745
  960MOL0     C32364   0.978   4.301   3.786 -0.0091  0.2455  0.5380
  960MOL0     C32365   0.890   4.415   3.727 -0.6705 -0.7625  0.0215
  960MOL0     O32366   0.975   4.503   3.645 -0.6576 -0.0553 -0.4599
  960MOL0     C32367   0.930   4.622   3.594  0.3744 -0.4040  0.4140
  960MOL0     C32368   0.808   4.688   3.615  0.5389 -0.1353  0.3041
  960MOL0     C32369   0.796   4.824   3.569 -0.6086  0.4534  0.2855
  960MOL0     C32370   0.666   4.894   3.601  0.8594  0.2341 -0.1711
  960MOL0     C32371   0.896   4.897   3.505 -0.8943 -0.4766 -0.6376
  960MOL0     C32372   0.894   5.037   3.457  0.0047  0.3043 -0.7101
  960MOL0     O32373   0.994   5.071   3.367 -0.1439 -1.0889  0.2663
  960MOL0     C32374   1.011   5.202   3.324  0.2011 -0.4489  0.1561
  960MOL0     C32375   0.912   5.276   3.275  0.0060  0.4551  0.7450
  960MOL0     C32376   0.931   5.411   3.256 -0.6309 -0.3141  0.0594
  960MOL0     C32377   1.054   5.470   3.248  0.9593 -0.6240 -0.2265
  960MOL0     O32378   1.045   5.596   3.215 -0.1100  0.3460  0.9489
  960MOL0     C32379   1.117   5.684   3.308 -0.0921 -0.0220  0.2156
  960MOL0     C32380   1.126   5.822   3.241 -0.5641  0.2188  0.4512
  960MOL0     C32381   0.982   5.882   3.237 -0.8232 -0.2104  0.0732
  960MOL0     C32382   0.989   6.033   3.198 -0.4603 -0.2318 -0.4375
  960MOL0     C32383   0.857   6.109   3.216  0.4365 -0.1304 -0.8445
  960MOL0     C32384   0.761   6.049   3.111  0.6755  0.0963  0.9719
  960MOL0     C32385   0.624   6.111   3.103 -0.7602 -0.0020 -0.5604
  960MOL0     C32386   0.545   6.085   2.972 -1.2714 -0.0322  0.0016
  960MOL0    Cl32387   0.370   6.117   3.002  0.4343 -0.0472  0.0963
  960MOL0     C32388   1.166   5.387   3.280 -0.1042  0.3470 -0.1781
  960MOL0     C32389   1.136   5.258   3.319 -0.1758  1.3156  0.2331
  960MOL0     O32390   0.810   5.124   3.505  0.0469  0.7573 -0.7223
  960MOL0     C32391   1.005   4.819   3.483  0.0986 -0.4928  0.3252
  960MOL0     C32392   1.028   4.692   3.524 -0.2947  0.0726 -0.3899
  960MOL0     N32393   0.594   4.160   4.044 -0.2319 -0.5180  0.0029
  960MOL0     N32394   0.548   4.059   4.108  0.0479  0.7543  0.4604
  960MOL0     C32395   1.201   3.108   4.194  0.7353  0.5750 -0.6748
  960MOL0     C32396   1.318   3.032   4.226 -0.3481  1.0287  0.5036
  960MOL0     C32397   1.716   2.870   4.270  0.0308 -0.1109 -0.4305
  960MOL0     C32398   1.759   2.787   4.163 -0.5974 -0.0712 -0.1726
  960MOL0     C32399   1.892   2.766   4.152  0.1900  0.2357 -0.3192
  960MOL0     C32400   1.986   2.830   4.232 -0.5338  0.9072  0.1883
  960MOL0     O32401   2.121   2.797   4.212  1.2631 -0.0441  0.4986
  960MOL0     C32402   2.161   2.691   4.289  0.2456  0.0141 -0.2805
  960MOL0     C32403   2.314   2.666   4.284 -0.8464 -0.1894 -0.8471
  960MOL0     C32404   2.370   2.683   4.138  0.4847 -0.7063 -0.4913
  960MOL0     C32405   2.334   2.567   4.050 -0.0067  0.3152  0.3274
  960MOL0     C32406   2.407   2.438   4.076  0.5376  0.0109 -0.5399
  960MOL0     C32407   2.467   2.341   4.097 -0.1878  0.2902 -0.6834
  960MOL0     C32408   1.948   2.917   4.335 -0.1347  0.3942  0.4573
  960MOL0     C32409   1.812   2.929   4.363  0.9716 -0.5431  1.0909
  960MOL0     C32410   1.777   2.993   4.492  0.5956  0.8012  0.0519
  960MOL0     H32411   1.367   2.869   3.930  0.3408  0.9524 -0.8337
  960MOL0     H32412   1.145   2.984   3.884 -2.4133 -2.2371  0.5048
  960MOL0     H32413   0.976   3.304   4.172 -2.5800  1.7114  2.4254
  960MOL0     H32414   0.901   3.150   4.221 -1.6285  1.2112  0.5167
  960MOL0     H32415   0.753   3.169   4.009  2.7242 -3.7930  2.0354
  960MOL0     H32416   0.752   3.274   4.145 -1.8372 -0.0658 -1.9046
  960MOL0     H32417   0.915   3.408   3.947  0.9791 -3.1549 -1.2524
  960MOL0     H32418   0.767   3.377   3.875  2.1589 -1.6983 -1.4217
  960MOL0     H32419   0.635   3.455   4.067 -0.2532  1.4240 -2.0880
  960MOL0     H32420   0.788   3.494   4.162 -0.3266  1.1952  0.0398
  960MOL0     H32421   0.680   3.610   3.896  0.7864  2.7927 -1.4064
  960MOL0     H32422   0.817   3.664   3.981  0.0270  0.0738  4.7679
  960MOL0     H32423   0.629   3.809   4.018  2.0624 -1.0198 -0.3432
  960MOL0     H32424   0.547   3.700   4.118 -1.9221  1.3301 -1.4062
  960MOL0     H32425   0.818   3.781   4.201 -0.4495 -1.9349 -3.3278
  960MOL0     H32426   0.708   3.694   4.286  1.2442 -0.4387 -0.8112
  960MOL0     H32427   0.538   3.878   4.307  0.9493 -1.7800  1.5482
  960MOL0     H32428   0.676   3.920   4.387  0.0934 -1.5417  0.7556
  960MOL0     H32429   0.869   4.059   4.181 -0.0158 -1.6186  1.2427
  960MOL0     H32430   0.898   4.294   4.049  0.9131 -1.6773 -1.2153
  960MOL0     H32431   0.745   4.340   3.965 -3.4347 -1.5351  2.9884
  960MOL0     H32432   0.946   4.125   3.889  0.5982  0.6272  2.4520
  960MOL0     H32433   0.799   4.174   3.787  1.3282 -4.0885 -0.1479
  960MOL0     H32434   1.050   4.347   3.854  1.5224  1.0803 -1.5155
  960MOL0     H32435   1.028   4.256   3.699 -0.8059  3.1443 -1.6041
  960MOL0     H32436   0.813   4.372   3.662 -0.7127 -0.7278  0.0487
  960MOL0     H32437   0.851   4.469   3.813  3.9834 -0.7279  2.4600
  960MOL0     H32438   0.738   4.630   3.674 -1.4532 -0.1580 -1.9640
  960MOL0     H32439   0.608   4.817   3.651  0.5807 -1.7038 -3.2420
  960MOL0     H32440   0.614   4.905   3.505 -0.6206  0.9655  0.6802
  960MOL0     H32441   0.683   4.983   3.663 -0.4159  1.0788 -0.9898
  960MOL0     H32442   0.811   5.248   3.250 -0.1086  1.3405  0.1594
  960MOL0     H32443   0.852   5.477   3.220  1.8962  1.8592 -1.9616
  960MOL0     H32444   1.052   5.695   3.395 -1.5235  1.3326 -0.9699
  960MOL0     H32445   1.210   5.632   3.333 -0.5767 -0.8364  0.3647
  960MOL0     H32446   1.191   5.875   3.311  0.6676 -0.8240  0.1471
  960MOL0     H32447   1.179   5.814   3.146  0.4865  0.3353  1.0173
  960MOL0     H32448   0.922   5.873   3.328  0.0156  2.2457  0.9462
  960MOL0     H32449   0.931   5.835   3.152 -0.7380 -1.4942  0.7040
  960MOL0     H32450   1.018   6.040   3.093  0.2330  1.1446 -0.1737
  960MOL0     H32451   1.068   6.079   3.258 -0.6784  1.1477 -1.1774
  960MOL0     H32452   0.820   6.100   3.318  0.9071 -1.1521 -0.7535
  960MOL0     H32453   0.882   6.214   3.195  3.3287 -0.5164  0.2423
  960MOL0     H32454   0.754   5.941   3.128 -2.1303  0.3940  2.2159
  960MOL0     H32455   0.808   6.070   3.014 -1.4444 -0.5729 -0.2745
  960MOL0     H32456   0.633   6.220   3.104 -0.2840 -0.0393 -0.1273
  960MOL0     H32457   0.570   6.083   3.194  1.3635 -2.5338  0.0396
  960MOL0     H32458   0.563   5.983   2.938  3.8260  0.4802  0.4386
  960MOL0     H32459   0.596   6.146   2.897  0.7432  0.3063  1.5628
  960MOL0     H32460   1.268   5.422   3.267 -0.1214 -0.0818 -1.6475
  960MOL0     H32461   1.209   5.184   3.350 -0.7491 -0.3434 -2.1475
  960MOL0     H32462   1.080   4.872   3.424  1.5794  0.6181  3.0235
  960MOL0     H32463   1.119   4.634   3.508 -0.4415 -0.4352  0.5668
  960MOL0     H32464   1.147   3.164   4.269 -1.9280 -1.5343 -0.8857
  960MOL0     H32465   1.357   3.061   4.322 -2.1836  0.0373  1.6059
  960MOL0     H32466   1.692   2.734   4.096 -0.6468  0.9484 -0.9623
  960MOL0     H32467   1.924   2.693   4.078 -2.1810 -1.1699 -0.0597
  960MOL0     H32468   2.129   2.698   4.393 -3.6221  0.4959 -1.3632
  960MOL0     H32469   2.121   2.597   4.248 -0.2038 -0.1975  0.6189
  960MOL0     H32470   2.347   2.573   4.332 -0.1182 -0.6216 -2.1550
  960MOL0     H32471   2.360   2.738   4.352  2.8992 -5.2843  2.8185
  960MOL0     H32472   2.321   2.776   4.108  1.4457 -0.2613 -0.7217
  960MOL0     H32473   2.475   2.700   4.112  0.4056 -0.7539 -0.8400
  960MOL0     H32474   2.350   2.591   3.945 -1.7892 -1.9151 -0.5370
  960MOL0     H32475   2.227   2.545   4.044 -0.0957  1.0877 -3.5080
  960MOL0     H32476   2.525   2.256   4.125  1.8160  2.2431  1.5803
  960MOL0     H32477   2.015   2.949   4.414  1.8082 -6.1249  2.1036
  960MOL0     H32478   1.794   2.916   4.568  1.2991  0.7555 -0.1486
  960MOL0     H32479   1.853   3.069   4.517 -0.0233  1.4702 -0.0802
  960MOL0     H32480   1.672   3.023   4.495  0.5413  0.8149 -1.3494
  961MOL0     O32481  11.068   3.051   6.245 -0.5587 -0.3105  0.9238
  961MOL0     C32482  11.015   2.981   6.313  0.6218 -0.7599  0.0786
  961MOL0     O32483  10.881   2.946   6.293 -0.2541  0.2089 -0.1879
  961MOL0     C32484  10.805   2.967   6.179  0.7806 -0.7927  0.4890
  961MOL0     C32485  10.684   2.896   6.180  0.3678  0.3972 -0.4907
  961MOL0     C32486  10.587   2.918   6.090 -0.1855 -0.4443  0.6097
  961MOL0     C32487  10.606   3.012   5.991 -0.2276 -0.3952  0.7446
  961MOL0     O32488  10.500   3.035   5.904 -0.0341  0.3806  0.1660
  961MOL0     C32489  10.442   2.916   5.840  0.1661 -0.2769  0.5608
  961MOL0     C32490  10.546   2.831   5.764  0.1206  0.3000  0.2234
  961MOL0     C32491  10.633   2.915   5.669  0.0908 -0.6738  0.4214
  961MOL0     C32492  10.728   2.826   5.583  0.2098 -0.0445 -0.9228
  961MOL0     C32493  10.867   2.892   5.570 -0.1232 -0.0650  0.1129
  961MOL0     C32494  10.946   2.928   5.696 -0.8729  0.8193 -0.5268
  961MOL0     C32495  10.948   2.807   5.795 -0.7362  0.1309 -0.7232
  961MOL0     C32496  11.068   2.804   5.895 -0.6606  0.5297 -0.1279
  961MOL0     N32497  11.060   2.707   6.008  0.2031 -0.1403 -0.4148
  961MOL0     C32498  10.947   2.675   6.088 -0.5171  0.2147  0.1131
  961MOL0     C32499  10.993   2.580   6.180  0.4986 -0.8986  0.7076
  961MOL0     C32500  10.910   2.503   6.285 -0.2619 -0.2605 -0.5677
  961MOL0     C32501  10.789   2.427   6.232  0.5269  0.4533  0.3373
  961MOL0     C32502  10.838   2.306   6.149 -0.5559  0.3988  0.5913
  961MOL0     C32503  10.879   2.329   6.008 -0.3021  0.8286 -0.9711
  961MOL0     O32504  10.774   2.390   5.940 -0.9207 -0.3784 -1.0546
  961MOL0     C32505  10.778   2.403   5.804  0.3967  0.3427 -0.5696
  961MOL0     C32506  10.891   2.383   5.719  0.6819  0.2743 -0.1193
  961MOL0     C32507  10.894   2.427   5.586  1.0366 -0.2306 -0.0701
  961MOL0     C32508  11.030   2.439   5.522 -0.1147 -0.2209 -0.0755
  961MOL0     C32509  10.772   2.479   5.535 -0.5164 -0.0882 -0.1738
  961MOL0     C32510  10.746   2.536   5.395 -0.8346  0.7777 -0.9587
  961MOL0     O32511  10.826   2.501   5.292  0.2536  0.4975 -0.6484
  961MOL0     C32512  10.821   2.577   5.179  0.4245  0.0364 -0.4963
  961MOL0     C32513  10.781   2.505   5.066 -0.8649 -0.5662 -0.6102
  961MOL0     C32514  10.775   2.588   4.954 -0.1000  0.6010 -0.6046
  961MOL0     C32515  10.792   2.727   4.945  0.5912 -0.6436  0.1916
  961MOL0     O32516  10.800   2.804   4.828 -0.0903 -0.3380 -0.0553
  961MOL0     C32517  10.720   2.753   4.717  0.9036  0.2192  0.1217
  961MOL0     C32518  10.566   2.795   4.740  0.4610  0.2051 -0.1631
  961MOL0     C32519  10.575   2.942   4.779 -0.1784  0.6124 -0.7466
  961MOL0     C32520  10.439   3.001   4.769  0.5777 -1.0421  0.2661
  961MOL0     C32521  10.433   3.142   4.836 -0.1778 -0.0095  0.4841
  961MOL0     C32522  10.289   3.192   4.841  0.5837 -0.3341 -0.8354
  961MOL0     C32523  10.231   3.242   4.705  0.4385 -0.3402  0.2759
  961MOL0     C32524  10.107   3.327   4.735  0.0239 -0.1899 -0.9569
  961MOL0    Cl32525  10.018   3.409   4.594  0.2386 -0.1629 -0.0428
  961MOL0     C32526  10.829   2.801   5.065  0.4987 -0.0938  0.2771
  961MOL0     C32527  10.836   2.718   5.183 -0.5411 -0.8154 -0.7166
  961MOL0     O32528  10.634   2.598   5.385  0.5177  0.2150 -0.0676
  961MOL0     C32529  10.662   2.463   5.619  0.7180 -0.2414 -0.0092
  961MOL0     C32530  10.656   2.433   5.752 -0.8799  0.5338  0.3879
  961MOL0     N32531  11.133   2.572   6.165 -0.3993  0.5712  0.3948
  961MOL0     N32532  11.172   2.651   6.064  0.0298  0.0187  0.3009
  961MOL0     C32533  10.726   3.094   5.985  0.2844  0.7086 -0.2764
  961MOL0     C32534  10.823   3.066   6.082 -0.4099 -0.6599 -0.0342
  961MOL0     C32535  11.078   2.931   6.431  0.2142  0.5486 -0.3599
  961MOL0     C32536  11.021   2.814   6.492 -0.3121 -0.4063 -1.0332
  961MOL0     C32537  11.074   2.762   6.613 -0.7468  0.4811 -0.9005
  961MOL0     C32538  11.194   2.799   6.668  1.2170 -0.7166 -0.9621
  961MOL0     O32539  11.238   2.737   6.782  0.3448  0.3806 -0.3408
  961MOL0     C32540  11.345   2.802   6.855  0.4837  0.5328  0.5860
  961MOL0     C32541  11.360   2.721   6.985 -0.3204  0.0275  0.2177
  961MOL0     C32542  11.485   2.772   7.055 -0.0514 -0.3255  0.5527
  961MOL0     C32543  11.512   2.691   7.185  0.9652  0.3696  0.5169
  961MOL0     C32544  11.633   2.747   7.235  0.3517  1.0092 -0.1767
  961MOL0     C32545  11.735   2.796   7.281  0.8733 -0.1944  0.9271
  961MOL0     C32546  11.252   2.901   6.596  0.2170  0.1767  0.4008
  961MOL0     C32547  11.196   2.977   6.492  0.3340  0.0746 -0.2591
  961MOL0     C32548  11.286   3.091   6.425  0.2259 -0.4584 -0.6652
  961MOL0     H32549  10.669   2.819   6.255  0.2805 -0.6207 -1.5082
  961MOL0     H32550  10.489   2.872   6.098 -2.4955  3.9743  0.5229
  961MOL0     H32551  10.354   2.931   5.778  1.1423 -2.3449 -1.4827
  961MOL0     H32552  10.411   2.840   5.912  0.2315 -3.1777 -2.2299
  961MOL0     H32553  10.612   2.784   5.839  0.5700 -3.0129 -2.0111
  961MOL0     H32554  10.487   2.759   5.706 -1.8011  2.7301 -0.9689
  961MOL0     H32555  10.564   2.961   5.598  0.0562 -1.6577 -0.1877
  961MOL0     H32556  10.687   2.993   5.725  0.9073 -1.9020  1.3850
  961MOL0     H32557  10.739   2.725   5.623  0.2179 -0.3413 -1.6540
  961MOL0     H32558  10.688   2.816   5.481  0.1566 -0.8900 -0.8255
  961MOL0     H32559  10.848   2.976   5.503 -0.3286 -1.6442 -1.9060
  961MOL0     H32560  10.936   2.824   5.518  1.7253 -0.3692  2.7577
  961MOL0     H32561  11.044   2.972   5.671 -0.6419  0.0530 -0.9978
  961MOL0     H32562  10.894   3.010   5.746  1.2105  0.9559  1.6212
  961MOL0     H32563  10.968   2.716   5.738  1.1565 -0.1005  0.2555
  961MOL0     H32564  10.850   2.822   5.840 -0.1224  3.5942 -0.2583
  961MOL0     H32565  11.157   2.774   5.839 -0.2957 -0.3463  0.8834
  961MOL0     H32566  11.078   2.906   5.934 -4.5004  2.1077 -2.7099
  961MOL0     H32567  10.849   2.714   6.065  0.2476  4.0253  2.4857
  961MOL0     H32568  10.881   2.581   6.356  1.8786 -0.7234  0.9236
  961MOL0     H32569  10.974   2.431   6.338  0.2514  0.3960 -0.2768
  961MOL0     H32570  10.733   2.383   6.315 -2.0228  2.4687 -0.1857
  961MOL0     H32571  10.710   2.477   6.175  0.8346  0.3767 -0.1623
  961MOL0     H32572  10.922   2.258   6.199 -0.0203  2.1397  1.4185
  961MOL0     H32573  10.755   2.234   6.146 -0.5570  0.4207 -1.8448
  961MOL0     H32574  10.970   2.390   5.998  1.5154 -1.8096 -1.9135
  961MOL0     H32575  10.900   2.234   5.957 -1.9109 -0.5636  0.8162
  961MOL0     H32576  10.987   2.358   5.763  1.6506  2.8510 -0.5848
  961MOL0     H32577  11.040   2.461   5.416  4.1753 -0.5804  0.0410
  961MOL0     H32578  11.069   2.337   5.531 -1.6903 -0.7725  0.7944
  961MOL0     H32579  11.109   2.500   5.567  0.7677 -1.1411 -0.3345
  961MOL0     H32580  10.768   2.398   5.061  0.8454 -0.7808 -0.9624
  961MOL0     H32581  10.762   2.530   4.863 -1.7992 -0.6336  0.3780
  961MOL0     H32582  10.760   2.798   4.625 -1.7423  0.7719 -0.8289
  961MOL0     H32583  10.720   2.646   4.694  1.1308  0.5836 -1.7443
  961MOL0     H32584  10.525   2.786   4.640  1.9634 -3.6083 -0.5985
  961MOL0     H32585  10.503   2.733   4.805  1.1070  0.5064  0.7886
  961MOL0     H32586  10.637   3.002   4.712  1.5370  2.5184  2.3011
  961MOL0     H32587  10.613   2.955   4.881 -1.3173  2.2554 -0.4867
  961MOL0     H32588  10.369   2.937   4.824 -1.8952  2.4019  1.5316
  961MOL0     H32589  10.407   3.004   4.665 -1.0358  1.5343  0.7239
  961MOL0     H32590  10.461   3.145   4.942  1.4751  0.7266  0.0637
  961MOL0     H32591  10.494   3.212   4.778 -0.9861  2.3311  2.3375
  961MOL0     H32592  10.290   3.272   4.915 -2.0831 -0.7072 -0.3124
  961MOL0     H32593  10.217   3.123   4.886 -0.6546  0.0808 -2.0884
  961MOL0     H32594  10.202   3.160   4.639 -2.6763 -0.6900  1.9174
  961MOL0     H32595  10.303   3.305   4.651 -1.2339 -0.2985 -2.0553
  961MOL0     H32596  10.142   3.402   4.807  0.0864 -1.3835  0.2860
  961MOL0     H32597  10.033   3.262   4.783 -0.9533  2.9108  2.2076
  961MOL0     H32598  10.839   2.909   5.062 -0.5703  0.0794  1.9746
  961MOL0     H32599  10.876   2.760   5.275  1.4561 -0.3557 -1.7338
  961MOL0     H32600  10.563   2.479   5.577 -0.9766 -1.6847  3.0798
  961MOL0     H32601  10.573   2.453   5.817 -2.0342  1.3150 -1.2522
  961MOL0     H32602  10.729   3.166   5.903  0.9430  2.3107  1.0923
  961MOL0     H32603  10.916   3.120   6.067  0.6222 -2.0003  1.2720
  961MOL0     H32604  10.928   2.760   6.473  0.2648 -2.6713  1.8138
  961MOL0     H32605  11.019   2.687   6.670  0.3967  2.0638  2.5622
  961MOL0     H32606  11.439   2.799   6.799  1.3299 -1.4618  1.9755
  961MOL0     H32607  11.317   2.907   6.862 -1.8907 -0.0129  0.1878
  961MOL0     H32608  11.365   2.617   6.954 -2.1829 -0.0968  0.1979
  961MOL0     H32609  11.269   2.722   7.046 -1.6510  1.0236 -1.6865
  961MOL0     H32610  11.572   2.775   6.990 -0.8286  1.5864 -0.4772
  961MOL0     H32611  11.470   2.874   7.092  2.0301  0.8836 -1.6863
  961MOL0     H32612  11.528   2.587   7.155 -4.2945 -0.6617  0.3731
  961MOL0     H32613  11.431   2.700   7.258  1.1594  0.2866  0.7434
  961MOL0     H32614  11.826   2.846   7.309  0.3923  2.5081 -1.7400
  961MOL0     H32615  11.351   2.929   6.630  0.0263  0.1726  0.9662
  961MOL0     H32616  11.236   3.188   6.421  3.3202  1.2440 -1.5379
  961MOL0     H32617  11.372   3.116   6.488 -1.4126  0.9393  1.1216
  961MOL0     H32618  11.322   3.074   6.323  1.0308  4.1555 -1.3759
  962MOL0     O32619   6.297   3.859   8.378 -0.6628 -0.7004  0.9306
  962MOL0     C32620   6.225   3.808   8.454  0.0484  0.8398 -0.4563
  962MOL0     O32621   6.181   3.676   8.436  0.1131 -0.1442  0.3691
  962MOL0     C32622   6.230   3.614   8.315  0.5255  0.7768  0.3314
  962MOL0     C32623   6.312   3.499   8.320  0.5293  0.7338 -1.1383
  962MOL0     C32624   6.341   3.437   8.198  0.0641 -0.2836 -0.3107
  962MOL0     C32625   6.278   3.470   8.078 -0.4714 -0.6702  0.1960
  962MOL0     O32626   6.297   3.406   7.956 -0.5959 -0.1754  0.0114
  962MOL0     C32627   6.322   3.266   7.954  0.8532 -0.5619 -0.4110
  962MOL0     C32628   6.204   3.198   8.020 -0.4379  0.4090 -0.5923
  962MOL0     C32629   6.189   3.049   7.995 -0.8147  1.0102 -0.6033
  962MOL0     C32630   6.308   2.971   8.056 -0.0383 -0.8415 -0.0595
  962MOL0     C32631   6.284   2.821   8.043  0.2748  0.5000 -0.4091
  962MOL0     C32632   6.401   2.745   8.085 -0.1543  0.3820 -1.4939
  962MOL0     C32633   6.416   2.742   8.235  0.4384  0.3009 -0.7715
  962MOL0     C32634   6.542   2.674   8.286 -0.0366 -0.3288  0.1334
  962MOL0     N32635   6.663   2.753   8.265  0.1215 -0.3020 -0.5427
  962MOL0     C32636   6.739   2.759   8.145 -1.3296 -0.5929 -0.3109
  962MOL0     C32637   6.826   2.849   8.182 -0.0912 -0.4594  0.5970
  962MOL0     C32638   6.939   2.908   8.093 -0.0458  0.4697 -0.6363
  962MOL0     C32639   7.026   2.801   8.026 -0.3338  0.2580 -0.0787
  962MOL0     C32640   7.138   2.886   7.963  0.1593  0.8073  0.2889
  962MOL0     C32641   7.236   2.819   7.864 -0.0608  1.0781  1.0148
  962MOL0     O32642   7.338   2.905   7.806  0.1365 -0.1669  0.8462
  962MOL0     C32643   7.302   3.024   7.749  0.9950 -0.3069 -0.4825
  962MOL0     C32644   7.271   3.146   7.812 -0.4066 -0.4706 -0.5657
  962MOL0     C32645   7.222   3.254   7.740 -0.4615 -0.1678 -0.7896
  962MOL0     C32646   7.202   3.377   7.828 -0.1097  0.6084  0.1247
  962MOL0     C32647   7.222   3.251   7.598 -0.1197 -0.2419 -0.4866
  962MOL0     C32648   7.187   3.367   7.515  0.4534 -0.5859  0.1780
  962MOL0     O32649   7.228   3.361   7.389  0.2551 -0.7586  0.4327
  962MOL0     C32650   7.209   3.467   7.300  0.5086  0.0176 -0.7809
  962MOL0     C32651   7.077   3.507   7.251  0.3842  0.7880  0.7015
  962MOL0     C32652   7.072   3.622   7.163  0.3180 -0.1757  0.2208
  962MOL0     C32653   7.189   3.690   7.124  0.3475 -0.0231 -0.0834
  962MOL0     O32654   7.199   3.782   7.024 -0.5584 -0.1946 -0.1388
  962MOL0     C32655   7.082   3.838   6.967 -0.3649 -0.6135 -0.2593
  962MOL0     C32656   7.101   3.951   6.872  0.1848  0.4006  0.2492
  962MOL0     C32657   6.982   3.972   6.770  0.3941 -0.0018  0.2795
  962MOL0     C32658   7.024   4.074   6.659  0.9911  0.6297 -0.3651
  962MOL0     C32659   6.899   4.150   6.605  0.2361  0.7630 -0.0098
  962MOL0     C32660   6.802   4.058   6.535 -0.3389  0.6033  0.2832
  962MOL0     C32661   6.709   4.114   6.431 -0.5495 -0.0067 -0.3757
  962MOL0     C32662   6.785   4.164   6.310 -0.2395  0.0659 -0.0145
  962MOL0    Cl32663   6.690   4.128   6.165  0.1243  0.2154  0.2910
  962MOL0     C32664   7.307   3.644   7.173 -0.9567  0.4454 -0.9299
  962MOL0     C32665   7.323   3.539   7.260  0.4448 -0.7555 -0.2274
  962MOL0     O32666   7.112   3.452   7.565 -0.3109  0.5112 -0.3869
  962MOL0     C32667   7.269   3.132   7.538  0.6604 -0.3264 -0.0067
  962MOL0     C32668   7.295   3.020   7.609 -0.6218  0.4602 -0.2730
  962MOL0     N32669   6.816   2.890   8.315  0.0492  0.5780 -0.1127
  962MOL0     N32670   6.718   2.834   8.366  0.1782 -0.0362 -0.7537
  962MOL0     C32671   6.201   3.582   8.072  0.0229  0.9519 -0.0589
  962MOL0     C32672   6.190   3.658   8.186  0.2044 -0.0659 -0.4562
  962MOL0     C32673   6.201   3.893   8.572  0.5993 -0.0605 -0.4320
  962MOL0     C32674   6.239   4.033   8.577  0.2130  0.5799 -0.6740
  962MOL0     C32675   6.232   4.115   8.685 -0.2622  0.1283 -0.7146
  962MOL0     C32676   6.179   4.069   8.815 -0.4498  0.1910  0.4027
  962MOL0     O32677   6.197   4.138   8.934  0.2372  0.0775  0.3637
  962MOL0     C32678   6.166   4.084   9.065 -1.1232 -0.1693  0.2416
  962MOL0     C32679   6.019   4.076   9.098  0.0064  0.9454 -0.3611
  962MOL0     C32680   5.990   3.978   9.227  0.4605  0.3429  0.0582
  962MOL0     C32681   5.945   4.061   9.347 -0.5707  0.0583  0.3265
  962MOL0     C32682   5.927   3.971   9.460 -1.0927 -0.4340  0.6668
  962MOL0     C32683   5.922   3.914   9.557  0.5034  0.0609  0.9907
  962MOL0     C32684   6.134   3.928   8.810 -0.2301 -0.6890 -0.5615
  962MOL0     C32685   6.140   3.844   8.697  0.6780  0.9721 -0.6025
  962MOL0     C32686   6.092   3.696   8.713  0.6295 -0.7919  0.6814
  962MOL0     H32687   6.337   3.464   8.420 -1.8448 -0.9676 -1.0400
  962MOL0     H32688   6.405   3.350   8.195  0.4006 -0.1883  2.1082
  962MOL0     H32689   6.412   3.244   8.012  0.7669 -4.2794 -1.4577
  962MOL0     H32690   6.322   3.229   7.851  4.3978 -1.9581 -0.0618
  962MOL0     H32691   6.199   3.216   8.128  0.4723 -0.6448 -0.3537
  962MOL0     H32692   6.117   3.259   7.996  0.6132  3.3315  2.3802
  962MOL0     H32693   6.094   3.010   8.034 -0.7710  1.2514 -0.2494
  962MOL0     H32694   6.194   3.032   7.887 -2.5999  1.0600 -0.7147
  962MOL0     H32695   6.405   2.997   8.011  1.4453  1.0391  3.7766
  962MOL0     H32696   6.314   3.003   8.161  2.8226 -0.9743 -0.0885
  962MOL0     H32697   6.253   2.794   7.941 -1.1719 -0.1341  0.1747
  962MOL0     H32698   6.190   2.794   8.091  0.7502  2.0955  1.5655
  962MOL0     H32699   6.408   2.646   8.040 -0.0356 -0.7446  0.8448
  962MOL0     H32700   6.487   2.801   8.047  0.9702  0.6496  1.2186
  962MOL0     H32701   6.325   2.701   8.280  0.0385  0.4760 -1.4061
  962MOL0     H32702   6.432   2.847   8.262  2.2709  0.2856 -1.6181
  962MOL0     H32703   6.532   2.662   8.395 -1.9907  0.6892  0.1014
  962MOL0     H32704   6.538   2.576   8.236  2.0731  0.4704 -1.7651
  962MOL0     H32705   6.715   2.720   8.047 -3.0859  2.1297 -1.0484
  962MOL0     H32706   6.998   2.989   8.136  0.7723  1.1640 -2.8835
  962MOL0     H32707   6.880   2.969   8.023  0.9415 -0.2979 -2.1785
  962MOL0     H32708   7.071   2.735   8.101  0.4271  1.1189  0.2452
  962MOL0     H32709   6.966   2.752   7.949  2.7929  0.9509 -3.1836
  962MOL0     H32710   7.086   2.954   7.894 -1.3312 -0.5628  0.0070
  962MOL0     H32711   7.193   2.937   8.043  0.4509 -2.7028  2.5134
  962MOL0     H32712   7.287   2.743   7.924  0.6586  3.0253  3.0298
  962MOL0     H32713   7.173   2.774   7.787  0.7519  1.8479 -0.1283
  962MOL0     H32714   7.277   3.150   7.920 -0.4214  3.6674 -0.5509
  962MOL0     H32715   7.234   3.353   7.930 -0.4241  0.3815  0.1720
  962MOL0     H32716   7.098   3.410   7.833 -0.2924 -0.0816  1.6122
  962MOL0     H32717   7.267   3.459   7.795  2.3089 -0.0712  2.7470
  962MOL0     H32718   6.987   3.462   7.290  1.5039 -1.7162  0.5878
  962MOL0     H32719   6.969   3.639   7.133 -0.6200 -4.8821 -0.0996
  962MOL0     H32720   7.019   3.764   6.916 -3.5222  2.3383 -0.9970
  962MOL0     H32721   7.018   3.875   7.048  0.0968 -1.7307  0.6445
  962MOL0     H32722   7.127   4.041   6.928 -1.5498  2.1715 -1.6169
  962MOL0     H32723   7.186   3.907   6.820  1.1292  2.5209 -0.0903
  962MOL0     H32724   6.889   4.002   6.819 -1.6600 -0.3063 -3.0698
  962MOL0     H32725   6.953   3.880   6.718 -0.7496  0.0333  0.8205
  962MOL0     H32726   7.083   4.027   6.579 -0.1266 -0.1134 -0.7879
  962MOL0     H32727   7.089   4.151   6.701 -1.4627  2.6026  0.0057
  962MOL0     H32728   6.846   4.200   6.687  0.4984  1.1722 -0.0840
  962MOL0     H32729   6.947   4.220   6.537 -0.9320 -0.3041 -2.0338
  962MOL0     H32730   6.742   4.019   6.618  2.6476 -1.0859  1.8598
  962MOL0     H32731   6.854   3.970   6.496 -0.1489 -0.2585  2.3178
  962MOL0     H32732   6.631   4.185   6.464 -0.3662  0.6163 -1.2487
  962MOL0     H32733   6.652   4.032   6.387 -6.7532  3.5710 -0.2494
  962MOL0     H32734   6.877   4.106   6.299 -1.0789 -1.3430  0.2642
  962MOL0     H32735   6.814   4.270   6.308 -0.7704  0.2210 -1.7185
  962MOL0     H32736   7.399   3.700   7.158 -1.3381  0.4511 -3.7316
  962MOL0     H32737   7.419   3.520   7.307  1.4967  5.3903  1.0549
  962MOL0     H32738   7.275   3.127   7.429  1.0707  0.1338 -0.0100
  962MOL0     H32739   7.303   2.934   7.544 -0.9068 -2.2519  2.9690
  962MOL0     H32740   6.138   3.613   7.990  1.5669  2.1953 -0.8051
  962MOL0     H32741   6.117   3.738   8.184 -1.3942 -1.2868  2.7229
  962MOL0     H32742   6.281   4.075   8.486  0.1746 -2.6139 -2.3340
  962MOL0     H32743   6.281   4.210   8.671  1.3852 -0.4325  0.7611
  962MOL0     H32744   6.221   3.990   9.070  2.6802  1.6855 -2.0503
  962MOL0     H32745   6.220   4.145   9.138 -0.8147  0.6505 -0.6524
  962MOL0     H32746   5.970   4.022   9.016  1.8461 -0.1046 -0.8233
  962MOL0     H32747   5.971   4.173   9.113  2.3580  1.6703  3.6568
  962MOL0     H32748   5.909   3.908   9.201  0.9114  0.1115 -0.7654
  962MOL0     H32749   6.077   3.917   9.252 -1.2911 -2.0304  0.8540
  962MOL0     H32750   5.848   4.103   9.320  0.0572  0.8807 -0.7608
  962MOL0     H32751   6.022   4.135   9.371  0.9096 -1.2705 -0.1651
  962MOL0     H32752   5.923   3.867   9.653 -0.1840  0.0297  0.9836
  962MOL0     H32753   6.082   3.882   8.892  0.1626  0.6737  0.4942
  962MOL0     H32754   6.175   3.634   8.679  0.1697 -0.7969 -0.4632
  962MOL0     H32755   6.058   3.663   8.811  0.3882 -0.5587  0.6785
  962MOL0     H32756   6.013   3.673   8.642 -0.2435  1.0825  0.9862
  963MOL0     O32757   7.146   4.749   2.285 -0.1165  0.3501 -0.6463
  963MOL0     C32758   7.267   4.719   2.283  0.3666 -0.8381 -0.2478
  963MOL0     O32759   7.363   4.793   2.346 -0.0413 -0.1619 -0.4271
  963MOL0     C32760   7.321   4.889   2.435 -0.3966 -0.0869 -0.3810
  963MOL0     C32761   7.262   4.840   2.554 -0.3701 -0.4058  0.0469
  963MOL0     C32762   7.219   4.940   2.645  0.8096  1.0787 -0.2620
  963MOL0     C32763   7.215   5.072   2.610 -0.3478 -0.3226  0.1710
  963MOL0     O32764   7.161   5.153   2.700 -0.1786  0.1206  0.5698
  963MOL0     C32765   7.240   5.245   2.769  0.0321  0.4875 -0.1381
  963MOL0     C32766   7.200   5.388   2.729 -0.2783  0.3577  0.1869
  963MOL0     C32767   7.056   5.430   2.775 -0.2135 -0.5862 -0.3273
  963MOL0     C32768   7.026   5.584   2.741 -0.9756  0.6753  0.3930
  963MOL0     C32769   7.029   5.626   2.592 -0.8605  0.1626 -0.1390
  963MOL0     C32770   6.914   5.570   2.499 -0.4877 -0.6769 -0.3582
  963MOL0     C32771   6.944   5.580   2.355 -0.6205 -0.1000  0.3951
  963MOL0     C32772   6.927   5.724   2.310 -1.0456  0.3825 -0.8770
  963MOL0     N32773   7.050   5.809   2.312  0.9189 -0.3080  0.5433
  963MOL0     C32774   7.046   5.946   2.325 -0.1631 -0.5414  0.2441
  963MOL0     C32775   7.174   5.984   2.333  0.6544  0.1417  0.1417
  963MOL0     C32776   7.213   6.125   2.345 -0.1507 -0.4545  0.2564
  963MOL0     C32777   7.142   6.220   2.248  0.3431  0.0118 -0.5947
  963MOL0     C32778   7.172   6.370   2.272 -0.0650 -0.0394 -0.3206
  963MOL0     C32779   7.115   6.413   2.408  0.8411 -0.0379  0.0481
  963MOL0     O32780   7.101   6.552   2.432  0.4476 -0.3259 -0.2636
  963MOL0     C32781   6.987   6.620   2.397  0.0719 -0.1487  0.8946
  963MOL0     C32782   6.968   6.741   2.458 -0.2311 -0.3554 -0.3901
  963MOL0     C32783   6.850   6.814   2.456  0.5493 -0.1419 -0.3148
  963MOL0     C32784   6.843   6.950   2.523 -0.8833  0.8747 -0.1906
  963MOL0     C32785   6.741   6.764   2.395  0.8361 -0.4456 -0.2832
  963MOL0     C32786   6.605   6.829   2.387 -0.4495  0.7717 -0.0652
  963MOL0     O32787   6.524   6.785   2.280 -0.2943  0.3505 -0.5360
  963MOL0     C32788   6.401   6.824   2.279  0.2913  1.2525  0.3316
  963MOL0     C32789   6.354   6.856   2.150  0.6899 -0.2152  0.2558
  963MOL0     C32790   6.228   6.879   2.120  0.3191  0.2308 -0.0019
  963MOL0     C32791   6.133   6.880   2.219  1.0369 -1.0818  1.0276
  963MOL0     O32792   6.000   6.914   2.190  0.3928 -0.1216  0.8782
  963MOL0     C32793   5.988   7.050   2.135 -0.0997 -0.5684  0.0629
  963MOL0     C32794   5.842   7.062   2.093  1.4736 -1.3212 -0.1905
  963MOL0     C32795   5.805   7.185   2.006  0.1358 -0.2283 -0.5206
  963MOL0     C32796   5.776   7.319   2.081  0.0513  0.0912 -0.4719
  963MOL0     C32797   5.640   7.331   2.148  0.2082 -0.0788 -0.1752
  963MOL0     C32798   5.568   7.450   2.103  0.4890 -0.7541 -1.0872
  963MOL0     C32799   5.463   7.484   2.211 -0.3946  0.3323  0.1309
  963MOL0     C32800   5.345   7.391   2.207 -0.2259  0.3225 -0.7351
  963MOL0    Cl32801   5.264   7.408   2.363  0.5180 -0.3742 -0.0592
  963MOL0     C32802   6.173   6.852   2.347 -0.1826  1.3412  0.9192
  963MOL0     C32803   6.305   6.822   2.378 -0.1177 -0.4580 -0.2091
  963MOL0     O32804   6.569   6.891   2.485  0.5682 -0.2180  0.4045
  963MOL0     C32805   6.756   6.650   2.321 -1.3267 -0.5843  0.8977
  963MOL0     C32806   6.874   6.572   2.329 -0.1906 -0.5939 -0.0337
  963MOL0     N32807   7.253   5.875   2.323  0.1432 -0.4087 -1.0174
  963MOL0     N32808   7.179   5.771   2.320 -0.1342 -0.8205  0.4905
  963MOL0     C32809   7.287   5.123   2.494 -0.4469 -0.0245 -0.2641
  963MOL0     C32810   7.348   5.026   2.415  0.7123 -0.5582  0.1519
  963MOL0     C32811   7.309   4.605   2.201 -0.0289  0.1604 -0.2931
  963MOL0     C32812   7.218   4.495   2.204 -0.4003 -0.8206  0.5227
  963MOL0     C32813   7.251   4.378   2.139  0.3328  0.8300  0.8636
  963MOL0     C32814   7.373   4.360   2.084 -0.2950  0.6144 -0.4146
  963MOL0     O32815   7.398   4.239   2.025  0.3272  0.5173 -0.2380
  963MOL0     C32816   7.511   4.227   1.937  0.7876  0.4144 -0.3815
  963MOL0     C32817   7.500   4.097   1.853  0.2274  0.0166 -0.2343
  963MOL0     C32818   7.641   4.056   1.798 -0.6304  0.6581  0.1349
  963MOL0     C32819   7.623   3.940   1.706  0.1465  0.7468 -0.4719
  963MOL0     C32820   7.749   3.899   1.648 -0.4404 -1.6209  0.1874
  963MOL0     C32821   7.857   3.874   1.594  0.5149 -0.0586 -0.4452
  963MOL0     C32822   7.463   4.464   2.082  0.6090 -0.1695 -0.6812
  963MOL0     C32823   7.437   4.588   2.142  0.5293  0.2111 -0.3270
  963MOL0     C32824   7.538   4.693   2.137 -0.3392 -0.1217  0.5829
  963MOL0     H32825   7.267   4.734   2.577 -0.2125 -0.7040 -1.3119
  963MOL0     H32826   7.182   4.916   2.744 -0.7016 -0.7387 -1.2001
  963MOL0     H32827   7.346   5.238   2.745 -0.6101 -1.3316 -2.8824
  963MOL0     H32828   7.228   5.224   2.876 -1.7139  3.1011  0.2628
  963MOL0     H32829   7.275   5.453   2.775 -0.5308 -0.2631  1.5274
  963MOL0     H32830   7.204   5.387   2.620  1.4804  0.7240  0.2142
  963MOL0     H32831   6.980   5.363   2.733 -1.3448  1.0045 -0.9281
  963MOL0     H32832   7.055   5.420   2.884 -0.2242  2.2945  0.0097
  963MOL0     H32833   6.928   5.612   2.781 -0.8288 -0.8454  1.9682
  963MOL0     H32834   7.104   5.645   2.786  0.8735 -1.2942  0.0030
  963MOL0     H32835   7.124   5.615   2.540 -1.1482 -0.6576 -0.5120
  963MOL0     H32836   7.015   5.734   2.586 -0.2827  0.1920 -1.3717
  963MOL0     H32837   6.898   5.467   2.533  0.5106 -0.7289  0.0049
  963MOL0     H32838   6.825   5.626   2.531  0.4508 -0.6143  2.3995
  963MOL0     H32839   6.861   5.524   2.310 -1.8250  2.4495 -0.7805
  963MOL0     H32840   7.040   5.533   2.333  0.3815  1.9672  0.1423
  963MOL0     H32841   6.896   5.729   2.205 -0.6321 -0.0983 -1.0217
  963MOL0     H32842   6.856   5.778   2.373 -1.2546 -0.2625 -0.5568
  963MOL0     H32843   6.951   5.995   2.342 -1.6227 -3.2230  0.3425
  963MOL0     H32844   7.319   6.143   2.327 -0.6360  0.7631 -1.6597
  963MOL0     H32845   7.188   6.161   2.445 -0.1350  0.3012 -0.0097
  963MOL0     H32846   7.186   6.208   2.149  3.9790  1.5748  0.6798
  963MOL0     H32847   7.034   6.203   2.242  0.4983 -1.0138 -0.6696
  963MOL0     H32848   7.281   6.371   2.262 -0.0200 -3.0491 -1.0048
  963MOL0     H32849   7.126   6.429   2.192  0.8291 -3.2962 -3.4957
  963MOL0     H32850   7.018   6.363   2.415 -1.2290  3.6904  0.2855
  963MOL0     H32851   7.178   6.376   2.489  3.0193  2.1095 -0.5312
  963MOL0     H32852   7.047   6.784   2.518  0.9562 -1.5266 -1.0728
  963MOL0     H32853   6.796   7.024   2.457 -0.6016  1.6667  0.4932
  963MOL0     H32854   6.945   6.973   2.553 -0.2957 -0.7640 -0.8034
  963MOL0     H32855   6.785   6.940   2.615  2.4876 -1.5997  1.9160
  963MOL0     H32856   6.429   6.873   2.074 -0.7786  0.0212 -1.1934
  963MOL0     H32857   6.209   6.896   2.014 -1.1787 -1.3117 -0.0104
  963MOL0     H32858   6.013   7.127   2.209 -0.7061 -2.2074  2.0817
  963MOL0     H32859   6.055   7.055   2.048 -0.9285  0.2769 -0.5407
  963MOL0     H32860   5.820   6.967   2.044  1.5869 -2.4882  1.8983
  963MOL0     H32861   5.772   7.069   2.176  3.0561 -0.1825  1.1095
  963MOL0     H32862   5.711   7.158   1.957  0.1891 -1.3068 -0.0531
  963MOL0     H32863   5.883   7.203   1.932  1.1488  1.6222  0.9098
  963MOL0     H32864   5.783   7.401   2.008  2.6819  0.4794  0.1276
  963MOL0     H32865   5.854   7.340   2.154 -0.7920  1.1011  0.1652
  963MOL0     H32866   5.577   7.243   2.132 -1.8228  0.0417  5.0863
  963MOL0     H32867   5.645   7.326   2.257 -1.4244 -0.5941 -0.0914
  963MOL0     H32868   5.514   7.437   2.009  0.1201  1.8465 -1.3054
  963MOL0     H32869   5.631   7.539   2.097 -0.8492  0.1747 -1.9890
  963MOL0     H32870   5.433   7.586   2.185  1.3031  0.4756 -1.5278
  963MOL0     H32871   5.510   7.493   2.309  0.4681 -1.1464 -0.1151
  963MOL0     H32872   5.366   7.284   2.199 -2.8274 -0.4822  1.5203
  963MOL0     H32873   5.271   7.416   2.130 -1.7472  0.8844  0.8371
  963MOL0     H32874   6.100   6.868   2.426 -2.1338 -2.2310  0.0568
  963MOL0     H32875   6.326   6.827   2.484  0.7514 -0.4496 -0.3694
  963MOL0     H32876   6.682   6.600   2.260  0.4615 -4.0088  1.2893
  963MOL0     H32877   6.874   6.472   2.288 -2.0779  0.6170 -3.3809
  963MOL0     H32878   7.300   5.230   2.483 -0.6955  0.2841  1.9873
  963MOL0     H32879   7.409   5.040   2.327  1.0831 -1.8381  0.1742
  963MOL0     H32880   7.127   4.488   2.262 -1.3050  1.8801 -0.3998
  963MOL0     H32881   7.176   4.300   2.140 -0.1607  1.1459 -2.2000
  963MOL0     H32882   7.519   4.314   1.871  1.8631 -0.0262 -0.8545
  963MOL0     H32883   7.600   4.228   2.000 -0.2821 -0.2992  1.2221
  963MOL0     H32884   7.431   4.111   1.769 -0.1225  2.4716  0.3726
  963MOL0     H32885   7.468   4.015   1.918 -3.4647  1.1560 -0.4021
  963MOL0     H32886   7.681   4.135   1.734  2.9108  0.6439  2.1097
  963MOL0     H32887   7.718   4.036   1.873  2.6022  0.2242 -2.9638
  963MOL0     H32888   7.556   3.972   1.625  2.3605  4.0112 -1.2301
  963MOL0     H32889   7.578   3.849   1.745  0.5852  0.0122 -1.6218
  963MOL0     H32890   7.955   3.842   1.565  0.7252  0.0439  0.1385
  963MOL0     H32891   7.565   4.452   2.046  1.3595  0.6238  1.0858
  963MOL0     H32892   7.487   4.788   2.119  1.0263  0.8376  1.4921
  963MOL0     H32893   7.602   4.705   2.225 -1.6752  3.2796  1.2396
  963MOL0     H32894   7.598   4.668   2.049 -1.3493  0.7996 -0.3885
  964MOL0     O32895   8.596   5.645   7.730 -0.2706 -0.1724  0.3309
  964MOL0     C32896   8.710   5.678   7.763  0.0405  0.4736  0.3257
  964MOL0     O32897   8.818   5.591   7.749 -0.1458  0.2564 -0.1498
  964MOL0     C32898   8.807   5.458   7.715  0.2515  0.3099  0.2704
  964MOL0     C32899   8.734   5.412   7.604 -0.4162 -0.4840  0.3027
  964MOL0     C32900   8.730   5.273   7.579 -0.5781  0.0905  0.3269
  964MOL0     C32901   8.798   5.185   7.659 -0.1575  0.7293 -0.8708
  964MOL0     O32902   8.804   5.051   7.632 -0.4762 -0.0543 -1.7190
  964MOL0     C32903   8.674   4.996   7.610 -0.9207 -0.5750  0.1724
  964MOL0     C32904   8.593   5.004   7.745  0.0163 -0.1118 -0.2211
  964MOL0     C32905   8.660   4.946   7.866 -0.1137 -0.1979 -0.7716
  964MOL0     C32906   8.582   4.974   7.999  0.2833  0.3380 -0.1227
  964MOL0     C32907   8.650   4.898   8.110  0.1934  0.3661  0.0638
  964MOL0     C32908   8.596   4.930   8.244 -0.5883  0.7943  0.0807
  964MOL0     C32909   8.621   5.080   8.279 -0.8722  0.0416  0.6913
  964MOL0     C32910   8.582   5.105   8.429  0.1289  0.0368  0.5246
  964MOL0     N32911   8.451   5.053   8.466  0.3822 -0.2939 -0.3571
  964MOL0     C32912   8.337   5.122   8.426  0.1502 -0.3818 -0.5978
  964MOL0     C32913   8.236   5.069   8.492 -0.3481  0.8288 -0.3679
  964MOL0     C32914   8.093   5.122   8.493 -0.4059 -0.4685  0.3636
  964MOL0     C32915   8.013   5.063   8.381 -0.5568 -0.0373  0.2063
  964MOL0     C32916   7.886   5.137   8.372 -0.1179 -0.2738  0.4175
  964MOL0     C32917   7.789   5.082   8.262 -0.2113 -0.7718 -1.2194
  964MOL0     O32918   7.678   5.179   8.235  0.6292  0.2677 -0.5513
  964MOL0     C32919   7.703   5.281   8.148  0.8270  0.2212 -1.0921
  964MOL0     C32920   7.722   5.245   8.013  0.1790  0.1066 -0.1802
  964MOL0     C32921   7.724   5.347   7.914 -0.1825 -0.7601 -0.2155
  964MOL0     C32922   7.734   5.313   7.766  0.5511  0.2482 -0.4529
  964MOL0     C32923   7.706   5.480   7.960 -0.2169 -0.3265  0.0817
  964MOL0     C32924   7.719   5.599   7.869  0.3608 -0.4027  0.2615
  964MOL0     O32925   7.607   5.669   7.842  0.3810 -0.1186 -1.3067
  964MOL0     C32926   7.577   5.746   7.731 -0.0339 -0.5722 -0.4837
  964MOL0     C32927   7.656   5.757   7.622  0.3520 -0.6225  0.5704
  964MOL0     C32928   7.613   5.847   7.517 -0.4203  0.5600  0.5272
  964MOL0     C32929   7.512   5.937   7.535  0.2395 -0.1628  0.5298
  964MOL0     O32930   7.484   6.018   7.438  0.7140 -0.1085 -0.0325
  964MOL0     C32931   7.519   6.152   7.465 -0.0237 -0.5500 -0.1369
  964MOL0     C32932   7.663   6.177   7.413 -0.4440  0.1778 -0.2910
  964MOL0     C32933   7.699   6.317   7.451  0.0648 -0.2894 -0.0908
  964MOL0     C32934   7.732   6.324   7.598 -0.9060 -0.0548  0.0935
  964MOL0     C32935   7.815   6.455   7.635  0.1525 -0.0849 -0.3903
  964MOL0     C32936   7.731   6.581   7.633 -0.5701 -0.8360 -0.7935
  964MOL0     C32937   7.606   6.570   7.723  0.6923 -0.4236 -0.0755
  964MOL0     C32938   7.532   6.698   7.752 -0.0469 -0.9264  0.2645
  964MOL0    Cl32939   7.454   6.769   7.598 -0.1654 -0.0355 -0.3671
  964MOL0     C32940   7.422   5.908   7.639  0.0081 -0.1616  0.1050
  964MOL0     C32941   7.450   5.804   7.737  0.0337  0.1637 -0.3761
  964MOL0     O32942   7.828   5.630   7.833 -0.5790 -0.3530  0.6771
  964MOL0     C32943   7.693   5.510   8.095  0.1497 -0.0181 -0.2918
  964MOL0     C32944   7.693   5.411   8.185  0.4643 -0.7405 -0.7450
  964MOL0     N32945   8.287   4.979   8.580 -0.2052  0.0608 -0.0767
  964MOL0     N32946   8.421   4.978   8.573 -0.2509  0.5524  0.2002
  964MOL0     C32947   8.876   5.228   7.758 -0.6974  0.0628 -0.5540
  964MOL0     C32948   8.874   5.366   7.789 -0.1680 -0.5976 -0.7354
  964MOL0     C32949   8.737   5.816   7.798 -0.4252  0.3321  0.3518
  964MOL0     C32950   8.869   5.856   7.820 -0.1599  0.4785 -0.5534
  964MOL0     C32951   8.912   5.978   7.864  0.2011 -0.3627 -0.8847
  964MOL0     C32952   8.814   6.078   7.888 -0.4725 -0.4553 -0.1162
  964MOL0     O32953   8.829   6.195   7.956 -0.3120 -0.1197  0.3876
  964MOL0     C32954   8.959   6.234   8.014 -0.7275 -0.4099  0.5115
  964MOL0     C32955   9.047   6.324   7.923  0.3243 -0.2981  0.1074
  964MOL0     C32956   9.192   6.312   7.964 -0.8390 -0.2343 -0.1414
  964MOL0     C32957   9.283   6.400   7.879 -0.5420 -0.8113  0.0843
  964MOL0     C32958   9.248   6.544   7.873  0.3825  0.3012  0.3897
  964MOL0     C32959   9.224   6.662   7.868 -0.0673 -0.2702 -0.2045
  964MOL0     C32960   8.682   6.054   7.853 -0.0728  0.9604 -0.4020
  964MOL0     C32961   8.643   5.922   7.815  0.4535 -0.0746  0.4058
  964MOL0     C32962   8.488   5.916   7.790 -0.2907 -0.3281 -0.1647
  964MOL0     H32963   8.695   5.496   7.549  3.6058  2.5029  1.4819
  964MOL0     H32964   8.686   5.240   7.485 -1.1065  1.4945  0.0626
  964MOL0     H32965   8.693   4.892   7.584 -1.9112 -0.2422 -2.1156
  964MOL0     H32966   8.619   5.048   7.530  0.6066  1.9893  0.6548
  964MOL0     H32967   8.547   5.102   7.759 -4.2255 -2.1997  2.6155
  964MOL0     H32968   8.509   4.934   7.741 -0.2906  0.3110 -2.4845
  964MOL0     H32969   8.672   4.839   7.849 -0.1941  0.1984 -3.8071
  964MOL0     H32970   8.758   4.991   7.883 -1.6071  1.9796  3.9327
  964MOL0     H32971   8.571   5.080   8.023 -2.6474  0.6876 -2.4029
  964MOL0     H32972   8.481   4.934   7.984  1.1029 -2.2290  0.6300
  964MOL0     H32973   8.756   4.921   8.104  0.5734 -1.2058  0.3504
  964MOL0     H32974   8.639   4.794   8.079  1.6516  0.6768 -1.6626
  964MOL0     H32975   8.487   4.916   8.238 -0.7659  1.8592  0.6693
  964MOL0     H32976   8.644   4.857   8.309 -1.3778 -0.8837 -1.1413
  964MOL0     H32977   8.553   5.142   8.220 -0.2162  0.6634  0.5762
  964MOL0     H32978   8.717   5.117   8.244 -1.6252 -0.8482 -2.6195
  964MOL0     H32979   8.664   5.062   8.486  0.8562  1.4038  0.5420
  964MOL0     H32980   8.571   5.211   8.452 -1.6419 -0.4650  2.2273
  964MOL0     H32981   8.326   5.203   8.355  1.5102  2.3495  2.0908
  964MOL0     H32982   8.097   5.231   8.485  1.4894 -0.5566 -0.2648
  964MOL0     H32983   8.043   5.086   8.584 -0.8026 -1.6222 -0.3013
  964MOL0     H32984   8.065   5.073   8.285 -0.6052 -2.7877 -0.1831
  964MOL0     H32985   7.998   4.956   8.393  1.7312 -0.5959 -1.2289
  964MOL0     H32986   7.840   5.134   8.471  2.7505  2.4765  2.0169
  964MOL0     H32987   7.918   5.238   8.345  2.1164 -1.2384 -0.7888
  964MOL0     H32988   7.849   5.056   8.175  0.5898  0.8366 -1.1831
  964MOL0     H32989   7.748   4.990   8.306 -4.4370  2.2871  2.1935
  964MOL0     H32990   7.728   5.143   7.975 -0.1102  0.2914 -0.7418
  964MOL0     H32991   7.748   5.400   7.702 -1.7031 -0.0369 -1.4325
  964MOL0     H32992   7.643   5.256   7.745 -0.1629  1.5862 -1.0946
  964MOL0     H32993   7.827   5.257   7.755  0.2688 -0.7372  1.6117
  964MOL0     H32994   7.742   5.696   7.596 -0.3348 -0.9119 -1.1535
  964MOL0     H32995   7.669   5.834   7.425 -0.6814 -1.8499  0.6542
  964MOL0     H32996   7.458   6.223   7.409  2.7978 -0.0536 -2.8770
  964MOL0     H32997   7.502   6.183   7.569  1.3223  2.1410 -0.6287
  964MOL0     H32998   7.744   6.115   7.452 -1.4345 -1.7464 -1.2086
  964MOL0     H32999   7.668   6.172   7.304  1.2705 -2.3616 -0.1688
  964MOL0     H33000   7.608   6.378   7.439 -1.2026 -1.5326  2.4728
  964MOL0     H33001   7.776   6.362   7.387  1.0841  0.0310  1.3215
  964MOL0     H33002   7.798   6.238   7.616 -0.9851  0.3795  2.9735
  964MOL0     H33003   7.647   6.299   7.663 -0.1132 -1.6956  0.5489
  964MOL0     H33004   7.843   6.442   7.740 -2.8378  1.2254  0.6764
  964MOL0     H33005   7.895   6.459   7.560 -2.3686 -1.5846 -3.3634
  964MOL0     H33006   7.697   6.612   7.534  2.3829  1.9507 -1.0963
  964MOL0     H33007   7.798   6.660   7.668 -2.0011  1.3194 -2.6667
  964MOL0     H33008   7.627   6.528   7.822 -2.8011  0.8289  1.3803
  964MOL0     H33009   7.539   6.503   7.669  1.1205  0.8464 -2.2845
  964MOL0     H33010   7.610   6.767   7.786 -2.6738  3.0886 -1.1204
  964MOL0     H33011   7.459   6.689   7.834  0.9290  2.6824  1.7271
  964MOL0     H33012   7.328   5.960   7.654 -1.1355 -1.9976 -0.3437
  964MOL0     H33013   7.386   5.786   7.822 -0.0699 -1.7987 -0.8206
  964MOL0     H33014   7.694   5.612   8.132 -3.2137  0.0597 -0.1002
  964MOL0     H33015   7.674   5.430   8.291  2.6240  0.1929 -0.4765
  964MOL0     H33016   8.922   5.162   7.831  2.8991  4.7730  1.9898
  964MOL0     H33017   8.913   5.405   7.883  0.0417  0.1102 -1.1122
  964MOL0     H33018   8.946   5.780   7.812 -3.2011 -3.0280  0.6566
  964MOL0     H33019   9.016   6.005   7.878  0.0214 -0.9433  2.1581
  964MOL0     H33020   8.937   6.282   8.109 -0.0902  2.9720 -0.9221
  964MOL0     H33021   9.017   6.142   8.029 -1.5309 -2.3532 -5.3411
  964MOL0     H33022   9.010   6.425   7.941 -0.7122 -0.7425  0.5646
  964MOL0     H33023   9.023   6.297   7.820 -2.8507 -1.8202  1.1204
  964MOL0     H33024   9.207   6.327   8.071 -2.5844  0.4499  0.0423
  964MOL0     H33025   9.218   6.206   7.950  2.4947  0.3226  1.1277
  964MOL0     H33026   9.275   6.364   7.776  6.3676 -0.6838 -0.9611
  964MOL0     H33027   9.383   6.388   7.921 -1.3982  0.3072  2.6634
  964MOL0     H33028   9.191   6.763   7.858  0.0050 -0.0193  1.7296
  964MOL0     H33029   8.615   6.136   7.877 -0.7118  0.6669 -1.1696
  964MOL0     H33030   8.460   5.812   7.809  0.3250 -0.1292  2.1287
  964MOL0     H33031   8.450   5.978   7.872  0.9343 -1.2971  1.2039
  964MOL0     H33032   8.463   5.953   7.690 -1.1903  1.8117  0.7962
  965MOL0     O33033   3.049   0.884   7.837 -0.2304  0.3464  0.5784
  965MOL0     C33034   3.049   0.841   7.952 -0.3240  0.0229 -0.4905
  965MOL0     O33035   3.161   0.859   8.039  0.0063  0.4343 -0.2328
  965MOL0     C33036   3.279   0.881   7.975  0.0972  0.0581  0.2783
  965MOL0     C33037   3.303   0.986   7.886  0.1363 -0.3177  0.5089
  965MOL0     C33038   3.436   1.001   7.823  0.1564 -0.0711  0.0571
  965MOL0     C33039   3.536   0.912   7.856 -0.2752 -0.3374 -0.3770
  965MOL0     O33040   3.666   0.911   7.802 -0.3698 -1.1059  0.2771
  965MOL0     C33041   3.685   0.922   7.651 -0.3796  1.0528 -0.1629
  965MOL0     C33042   3.739   0.783   7.621  0.1154  0.0630  0.0525
  965MOL0     C33043   3.892   0.775   7.656 -0.4997  0.2622  0.5913
  965MOL0     C33044   3.925   0.640   7.710 -0.7350  0.0580  0.5129
  965MOL0     C33045   4.069   0.638   7.768  0.0016  0.2040 -0.6124
  965MOL0     C33046   4.170   0.630   7.663 -0.7472  0.2951 -0.9330
  965MOL0     C33047   4.192   0.491   7.605  0.1470 -0.4777  0.8143
  965MOL0     C33048   4.241   0.486   7.461  0.4537  0.6494  0.2003
  965MOL0     N33049   4.283   0.354   7.411  0.4992  0.0142 -0.4070
  965MOL0     C33050   4.270   0.218   7.457 -0.6346 -0.5087 -0.4442
  965MOL0     C33051   4.315   0.139   7.356 -0.1513 -0.0164  0.0290
  965MOL0     C33052   4.322  -0.010   7.359  0.3395 -0.0481 -0.7515
  965MOL0     C33053   4.228  -0.051   7.251  0.5015  0.2379 -0.5755
  965MOL0     C33054   4.257  -0.197   7.214 -0.4713 -0.0237  0.2705
  965MOL0     C33055   4.175  -0.252   7.093 -0.0830 -0.2090 -0.1041
  965MOL0     O33056   4.059  -0.305   7.150  0.0046 -0.1029  1.7147
  965MOL0     C33057   3.992  -0.382   7.067 -0.3147  0.2494  0.5402
  965MOL0     C33058   3.994  -0.389   6.917 -0.7011  0.6780 -0.7522
  965MOL0     C33059   3.932  -0.494   6.847  0.2991  0.7646 -0.8414
  965MOL0     C33060   3.958  -0.511   6.701  0.4383  0.4039  0.2640
  965MOL0     C33061   3.860  -0.590   6.926 -0.9373  0.4317  0.5496
  965MOL0     C33062   3.797  -0.708   6.864  0.1340 -0.2306  0.2252
  965MOL0     O33063   3.742  -0.683   6.741 -0.6061 -0.4423 -1.1728
  965MOL0     C33064   3.701  -0.794   6.672 -0.2730  0.2767 -0.0497
  965MOL0     C33065   3.565  -0.838   6.672 -1.1080  1.0144 -0.8510
  965MOL0     C33066   3.534  -0.948   6.590  1.0139 -0.2179 -0.8646
  965MOL0     C33067   3.629  -1.016   6.510  0.4873  0.3088  0.3502
  965MOL0     O33068   3.604  -1.126   6.432 -0.6961  0.3028  0.5078
  965MOL0     C33069   3.467  -1.164   6.410 -1.0178 -0.2371 -0.3669
  965MOL0     C33070   3.473  -1.278   6.304 -0.1418 -0.4095  0.0555
  965MOL0     C33071   3.533  -1.231   6.168  0.0790 -1.1072  0.3937
  965MOL0     C33072   3.584  -1.334   6.079 -0.2993 -0.0295  1.3943
  965MOL0     C33073   3.642  -1.278   5.951 -0.8308  0.8014  1.4090
  965MOL0     C33074   3.739  -1.385   5.887  0.8226 -0.1182 -0.7054
  965MOL0     C33075   3.809  -1.335   5.764 -0.9586 -0.6452  0.6143
  965MOL0     C33076   3.889  -1.438   5.692  0.4659  0.1508  0.1315
  965MOL0    Cl33077   3.786  -1.573   5.645  0.2344 -0.0944  0.0071
  965MOL0     C33078   3.762  -0.980   6.524  0.2626  0.6996 -0.4465
  965MOL0     C33079   3.794  -0.876   6.604  0.0004 -0.8388 -0.0589
  965MOL0     O33080   3.781  -0.813   6.922 -0.4179  0.0614 -0.5075
  965MOL0     C33081   3.853  -0.578   7.062  0.2148 -0.5923 -0.5527
  965MOL0     C33082   3.910  -0.472   7.133 -0.0667 -0.0080 -0.1816
  965MOL0     N33083   4.359   0.224   7.259  0.7176  0.1633 -0.5432
  965MOL0     N33084   4.326   0.345   7.284  0.4919 -0.2084 -0.2984
  965MOL0     C33085   3.509   0.805   7.944  0.5756 -0.5266  0.3484
  965MOL0     C33086   3.380   0.789   7.994  0.5589  0.3784 -0.6722
  965MOL0     C33087   2.925   0.771   7.991 -0.0792 -0.0659  0.1492
  965MOL0     C33088   2.809   0.765   7.899 -0.2523  0.1530  0.3916
  965MOL0     C33089   2.693   0.701   7.936 -0.0409 -0.2930 -0.3779
  965MOL0     C33090   2.671   0.658   8.063  0.7317 -0.1825 -0.2184
  965MOL0     O33091   2.545   0.618   8.090  0.7146  0.5653  0.5270
  965MOL0     C33092   2.515   0.509   8.186  0.1314 -0.5389  0.1579
  965MOL0     C33093   2.453   0.400   8.107  0.0998 -0.7528  0.2010
  965MOL0     C33094   2.423   0.283   8.196 -0.1631 -0.3907 -0.2759
  965MOL0     C33095   2.284   0.266   8.241  0.4788  0.1591 -0.4183
  965MOL0     C33096   2.276   0.153   8.326  0.2489 -0.0560  0.0189
  965MOL0     C33097   2.270   0.058   8.399 -0.3191 -0.3725  0.2742
  965MOL0     C33098   2.773   0.665   8.155 -0.2736  0.7614  0.6252
  965MOL0     C33099   2.894   0.724   8.123  0.7550 -0.5616  0.2987
  965MOL0     C33100   2.996   0.720   8.233  0.2601  0.0730  0.1855
  965MOL0     H33101   3.219   1.053   7.871  0.4122  0.3839  1.9753
  965MOL0     H33102   3.452   1.091   7.765 -3.1375  0.6677  0.0883
  965MOL0     H33103   3.767   0.991   7.629 -0.0263  0.7023  0.0445
  965MOL0     H33104   3.594   0.939   7.592  0.1037 -0.2340 -1.3096
  965MOL0     H33105   3.681   0.703   7.669  0.7278 -0.2848  0.2201
  965MOL0     H33106   3.739   0.758   7.515 -0.8927  1.0238 -0.1928
  965MOL0     H33107   3.945   0.796   7.563  1.1281 -0.0559  1.4203
  965MOL0     H33108   3.908   0.850   7.734  0.0082 -0.6482  1.3855
  965MOL0     H33109   3.863   0.601   7.792 -0.5395 -1.7618 -0.1499
  965MOL0     H33110   3.909   0.568   7.630  0.4332  0.8858 -0.4935
  965MOL0     H33111   4.071   0.545   7.825  1.6708 -0.0948 -1.1038
  965MOL0     H33112   4.083   0.733   7.821  0.1738  1.6237 -3.0135
  965MOL0     H33113   4.159   0.702   7.581  1.9429  0.4754 -1.2317
  965MOL0     H33114   4.268   0.661   7.700 -0.5611  1.9927 -2.6880
  965MOL0     H33115   4.097   0.440   7.623  0.7337 -2.3304 -0.9846
  965MOL0     H33116   4.272   0.454   7.670  2.5777  3.4026  0.4102
  965MOL0     H33117   4.168   0.539   7.398 -2.9233 -1.1474  2.2567
  965MOL0     H33118   4.333   0.544   7.455  0.6660  0.1457 -3.4386
  965MOL0     H33119   4.234   0.189   7.555 -0.6855 -1.0214 -0.6114
  965MOL0     H33120   4.298  -0.054   7.456  1.9769  0.9851  0.1743
  965MOL0     H33121   4.420  -0.040   7.320  1.3075  0.1218  1.3827
  965MOL0     H33122   4.121  -0.042   7.272  0.3411 -3.8288  1.5828
  965MOL0     H33123   4.253   0.011   7.165 -2.3372 -0.0251 -1.6973
  965MOL0     H33124   4.365  -0.209   7.203 -0.5624 -1.7247  1.0160
  965MOL0     H33125   4.225  -0.253   7.302 -1.2344  0.7000  0.4719
  965MOL0     H33126   4.162  -0.162   7.033  0.9545 -1.2424 -1.9655
  965MOL0     H33127   4.230  -0.337   7.052  0.9147 -0.3714  1.4491
  965MOL0     H33128   4.051  -0.311   6.868 -1.9712  1.7768 -0.5172
  965MOL0     H33129   4.048  -0.449   6.692  1.1455 -0.5743  0.3672
  965MOL0     H33130   3.871  -0.475   6.645  0.5200  0.3420  0.0938
  965MOL0     H33131   3.988  -0.611   6.665 -0.9987  0.7812 -2.2195
  965MOL0     H33132   3.491  -0.792   6.737 -2.0009 -0.7851 -0.5193
  965MOL0     H33133   3.436  -0.989   6.612  0.7740  1.8960  2.9226
  965MOL0     H33134   3.413  -1.187   6.502 -1.5170 -0.5323 -0.7323
  965MOL0     H33135   3.400  -1.087   6.370 -2.3014  0.5226  2.8830
  965MOL0     H33136   3.521  -1.365   6.349 -1.4661 -0.2424  1.8863
  965MOL0     H33137   3.369  -1.304   6.280 -0.7313  0.2142  1.7415
  965MOL0     H33138   3.610  -1.155   6.183  0.5023 -0.7301 -2.8397
  965MOL0     H33139   3.452  -1.173   6.122  0.3528 -1.7679 -0.9697
  965MOL0     H33140   3.496  -1.391   6.049 -1.4273  2.1219  0.4427
  965MOL0     H33141   3.670  -1.388   6.119 -0.0031 -1.4596 -0.9800
  965MOL0     H33142   3.561  -1.236   5.890  1.3783  0.4773 -2.0052
  965MOL0     H33143   3.704  -1.190   5.966  1.6159 -0.8220  1.3724
  965MOL0     H33144   3.685  -1.476   5.858 -3.0617  0.9631  2.3090
  965MOL0     H33145   3.814  -1.420   5.958 -0.1358  1.6734  1.3063
  965MOL0     H33146   3.873  -1.249   5.787  0.6929 -1.4634 -0.7204
  965MOL0     H33147   3.734  -1.300   5.692  0.7822 -0.4116 -1.1724
  965MOL0     H33148   3.973  -1.468   5.756  3.1788  1.3086 -2.6390
  965MOL0     H33149   3.923  -1.393   5.599 -3.1353  1.7589 -0.5670
  965MOL0     H33150   3.839  -1.034   6.469 -1.7903 -1.8000 -1.0814
  965MOL0     H33151   3.900  -0.854   6.614 -0.2627 -0.3232  2.0792
  965MOL0     H33152   3.798  -0.655   7.116 -0.3841  0.6049  0.6153
  965MOL0     H33153   3.907  -0.484   7.241 -1.5984 -3.3159 -0.4786
  965MOL0     H33154   3.579   0.723   7.957 -0.1752 -1.2669 -0.1743
  965MOL0     H33155   3.354   0.701   8.052  0.9152 -0.7008 -2.0880
  965MOL0     H33156   2.824   0.795   7.796  0.7709 -0.6838  0.2818
  965MOL0     H33157   2.604   0.692   7.874  1.0368  1.8875 -2.4442
  965MOL0     H33158   2.599   0.488   8.252  0.7196  0.4580 -0.2417
  965MOL0     H33159   2.436   0.555   8.246 -2.2072  1.0819 -3.7591
  965MOL0     H33160   2.509   0.368   8.019 -1.8608 -3.0089 -0.3351
  965MOL0     H33161   2.363   0.447   8.065  0.0929 -0.5740  0.4142
  965MOL0     H33162   2.444   0.194   8.136  1.4767  0.5273 -1.1494
  965MOL0     H33163   2.498   0.279   8.276 -2.1658 -0.7926  1.7003
  965MOL0     H33164   2.222   0.257   8.151 -0.7572 -0.1327  0.4463
  965MOL0     H33165   2.249   0.359   8.286  0.6385  0.5625 -1.0989
  965MOL0     H33166   2.270  -0.028   8.462  3.8700  0.0409  1.1725
  965MOL0     H33167   2.751   0.622   8.252 -0.8466 -3.2760 -1.0716
  965MOL0     H33168   3.078   0.656   8.199 -0.1491  0.2558 -1.2055
  965MOL0     H33169   3.027   0.821   8.264 -1.0405 -0.1824  2.4971
  965MOL0     H33170   2.962   0.680   8.328 -1.9413  1.3031 -0.0122
  966MOL0     O33171   5.828   0.099   4.492  0.1550 -0.4625  0.1211
  966MOL0     C33172   5.715   0.134   4.471  0.4909  0.6646 -0.1770
  966MOL0     O33173   5.611   0.055   4.410  0.1673 -0.4108  0.1960
  966MOL0     C33174   5.643  -0.068   4.365  0.1597 -0.3226 -0.2097
  966MOL0     C33175   5.589  -0.107   4.243  0.4830  0.3261 -0.3623
  966MOL0     C33176   5.617  -0.239   4.195  0.6765 -0.3857 -0.5326
  966MOL0     C33177   5.698  -0.323   4.272  0.1460 -0.1628  0.4798
  966MOL0     O33178   5.728  -0.450   4.236  0.0946  0.2469 -0.2015
  966MOL0     C33179   5.863  -0.474   4.195 -0.4835  0.2745  0.1208
  966MOL0     C33180   5.933  -0.570   4.287 -0.7058 -0.1099  0.3163
  966MOL0     C33181   5.885  -0.712   4.293 -1.0535  0.3721  0.2253
  966MOL0     C33182   5.984  -0.809   4.360 -0.5211 -0.1013 -0.1767
  966MOL0     C33183   5.927  -0.957   4.385  0.8496 -0.1356  0.1725
  966MOL0     C33184   5.791  -0.958   4.471 -1.4805 -0.2526 -0.0470
  966MOL0     C33185   5.769  -1.089   4.537 -0.2013  0.5412  0.3142
  966MOL0     C33186   5.763  -1.227   4.462  0.0413  0.3265 -0.5749
  966MOL0     N33187   5.631  -1.247   4.395 -1.2196  0.6430  0.5204
  966MOL0     C33188   5.513  -1.244   4.460 -0.4385  0.3146  0.5730
  966MOL0     C33189   5.425  -1.287   4.362 -0.4346 -0.0652  0.0166
  966MOL0     C33190   5.278  -1.302   4.387  0.0581 -0.7233  0.5112
  966MOL0     C33191   5.227  -1.438   4.335  0.8071  0.2506  0.0819
  966MOL0     C33192   5.288  -1.558   4.395  0.3606 -0.0405  0.1327
  966MOL0     C33193   5.263  -1.680   4.310  0.0499 -0.4476 -0.2810
  966MOL0     O33194   5.294  -1.800   4.390 -0.0739  0.2171 -0.2878
  966MOL0     C33195   5.200  -1.884   4.447 -0.9568  0.2049  1.0165
  966MOL0     C33196   5.223  -2.027   4.466 -0.1259  0.3181 -0.1025
  966MOL0     C33197   5.108  -2.111   4.494  0.2789 -0.2893 -0.4193
  966MOL0     C33198   5.131  -2.264   4.478  0.8982 -0.7732  0.0782
  966MOL0     C33199   4.986  -2.055   4.534 -0.4334 -0.3980  0.0368
  966MOL0     C33200   4.865  -2.136   4.595  0.0086 -0.2579  0.5977
  966MOL0     O33201   4.772  -2.063   4.663 -0.3488 -0.0580 -0.3985
  966MOL0     C33202   4.638  -2.107   4.650  0.3502  0.0649 -0.3105
  966MOL0     C33203   4.585  -2.170   4.540  0.0695 -0.0070  0.2355
  966MOL0     C33204   4.442  -2.189   4.527 -0.4365 -0.4454 -0.0941
  966MOL0     C33205   4.350  -2.130   4.617  0.8668 -0.6363  0.3429
  966MOL0     O33206   4.212  -2.149   4.621 -0.3509  0.3471  0.5235
  966MOL0     C33207   4.140  -2.186   4.499  0.0045 -0.0292 -1.2938
  966MOL0     C33208   4.143  -2.093   4.386  0.0679 -0.1125 -0.7458
  966MOL0     C33209   4.096  -1.951   4.410  0.5281  0.6429 -0.5556
  966MOL0     C33210   4.207  -1.850   4.404  0.0333 -0.9581 -0.7507
  966MOL0     C33211   4.164  -1.707   4.383  0.0259 -0.1013 -0.0635
  966MOL0     C33212   4.264  -1.597   4.409 -0.3528 -0.2479 -0.5038
  966MOL0     C33213   4.354  -1.571   4.287  0.3396 -0.5774 -0.2590
  966MOL0     C33214   4.479  -1.485   4.327 -0.4679 -0.4800 -0.5081
  966MOL0    Cl33215   4.560  -1.444   4.169 -0.2540 -0.4790  0.2970
  966MOL0     C33216   4.409  -2.066   4.724  0.0648 -0.3594  0.1468
  966MOL0     C33217   4.547  -2.064   4.739 -0.3082  0.7263  0.1879
  966MOL0     O33218   4.860  -2.260   4.582 -0.3741 -0.5442  0.5017
  966MOL0     C33219   4.987  -1.913   4.532  0.2779 -0.2577 -0.0432
  966MOL0     C33220   5.087  -1.827   4.486 -1.2653  0.5931  0.3217
  966MOL0     N33221   5.493  -1.303   4.246 -0.3597  0.3230 -0.1205
  966MOL0     N33222   5.617  -1.296   4.270  0.8789  0.4537  0.7324
  966MOL0     C33223   5.734  -0.283   4.407 -0.3094  0.0154 -0.2920
  966MOL0     C33224   5.714  -0.162   4.454 -1.2509  0.1831 -0.2458
  966MOL0     C33225   5.669   0.273   4.504  0.4230  0.3665 -0.4363
  966MOL0     C33226   5.530   0.290   4.509 -0.2723 -0.1972 -0.5600
  966MOL0     C33227   5.471   0.408   4.556  0.6265  0.5244  0.5315
  966MOL0     C33228   5.541   0.519   4.597 -1.1560  0.9080 -0.3477
  966MOL0     O33229   5.474   0.630   4.649 -0.0755 -0.2833 -0.5762
  966MOL0     C33230   5.526   0.756   4.616 -0.5108  0.8773 -0.4195
  966MOL0     C33231   5.429   0.862   4.672 -0.4591  0.9297  0.2628
  966MOL0     C33232   5.409   0.843   4.825 -0.0752  0.5670  0.1196
  966MOL0     C33233   5.341   0.954   4.897  0.3309 -0.6139 -0.3251
  966MOL0     C33234   5.204   0.984   4.846 -0.0743  0.6469 -0.3552
  966MOL0     C33235   5.092   1.022   4.811 -0.0863  0.4016 -0.0212
  966MOL0     C33236   5.685   0.505   4.607 -0.0143 -0.0838  0.7104
  966MOL0     C33237   5.742   0.385   4.556  0.1911 -1.2214  0.5944
  966MOL0     C33238   5.888   0.385   4.559  0.2392  0.5987  0.1160
  966MOL0     H33239   5.523  -0.048   4.181  3.4461  1.8558 -2.2974
  966MOL0     H33240   5.574  -0.263   4.099 -0.0395 -1.0197 -0.0700
  966MOL0     H33241   5.921  -0.382   4.182 -3.9970  2.5703 -0.7327
  966MOL0     H33242   5.857  -0.516   4.094 -2.2939  0.9457 -0.0985
  966MOL0     H33243   6.038  -0.584   4.259 -1.2453 -0.2647 -1.7806
  966MOL0     H33244   5.944  -0.528   4.387 -0.4927 -0.6069  0.5089
  966MOL0     H33245   5.796  -0.716   4.355 -1.4249  0.4415 -0.2989
  966MOL0     H33246   5.855  -0.753   4.196  2.0753  1.0685 -1.1639
  966MOL0     H33247   6.079  -0.812   4.306 -0.2115  0.9783  0.2836
  966MOL0     H33248   6.010  -0.764   4.456  1.4498  2.3147 -1.7247
  966MOL0     H33249   6.000  -1.020   4.438  0.9884 -0.2450 -0.1469
  966MOL0     H33250   5.914  -1.008   4.289 -1.5237 -0.1455  0.4550
  966MOL0     H33251   5.806  -0.889   4.555 -1.6090 -3.2270  2.6073
  966MOL0     H33252   5.704  -0.926   4.412  0.3535 -3.1600 -4.9794
  966MOL0     H33253   5.672  -1.089   4.589 -0.4904 -0.7424 -0.1666
  966MOL0     H33254   5.848  -1.112   4.609  1.8691 -0.9004 -2.2273
  966MOL0     H33255   5.855  -1.223   4.402  0.8073  2.9147  0.6472
  966MOL0     H33256   5.779  -1.318   4.522 -2.1363 -1.2465 -2.2363
  966MOL0     H33257   5.488  -1.210   4.560 -2.4272  0.8566 -0.0568
  966MOL0     H33258   5.231  -1.219   4.332  1.3231 -0.6224 -0.4539
  966MOL0     H33259   5.245  -1.289   4.491 -0.0969 -0.4357  0.4277
  966MOL0     H33260   5.119  -1.451   4.347  1.0780 -1.1437  1.3142
  966MOL0     H33261   5.247  -1.430   4.228  1.1589 -1.3340  0.0130
  966MOL0     H33262   5.396  -1.544   4.405  0.1493  1.5855  0.2996
  966MOL0     H33263   5.232  -1.584   4.485 -1.5621  3.4265  0.1189
  966MOL0     H33264   5.162  -1.675   4.269  0.1271 -3.6898 -1.1726
  966MOL0     H33265   5.329  -1.682   4.223  0.1890 -2.2186 -0.1816
  966MOL0     H33266   5.320  -2.070   4.441 -0.1827  0.6285 -0.8929
  966MOL0     H33267   5.218  -2.278   4.414  0.8362 -3.2143  0.4117
  966MOL0     H33268   5.049  -2.299   4.413 -0.8395  0.6368  1.3922
  966MOL0     H33269   5.146  -2.322   4.569  1.7467  2.9328  2.5128
  966MOL0     H33270   4.639  -2.211   4.456 -0.0930 -0.0917  0.1725
  966MOL0     H33271   4.408  -2.236   4.436 -0.3940 -1.8622  0.5874
  966MOL0     H33272   4.178  -2.283   4.466  3.5598  1.0976 -0.9130
  966MOL0     H33273   4.036  -2.201   4.530  0.1297  1.7149  0.1004
  966MOL0     H33274   4.243  -2.096   4.340 -0.1374 -1.7690 -1.1447
  966MOL0     H33275   4.073  -2.130   4.310  1.5863  0.1145 -2.3348
  966MOL0     H33276   4.035  -1.956   4.500 -1.3790  0.1548 -1.8177
  966MOL0     H33277   4.021  -1.935   4.332 -1.9461 -0.9497  1.3609
  966MOL0     H33278   4.276  -1.871   4.321  0.8520 -1.7879  0.1223
  966MOL0     H33279   4.260  -1.853   4.500  1.5259  1.7358 -1.3617
  966MOL0     H33280   4.138  -1.682   4.280 -0.1973  0.9411  0.2311
  966MOL0     H33281   4.079  -1.674   4.444  1.6133  4.0306  0.2699
  966MOL0     H33282   4.323  -1.613   4.500 -0.5243  1.7006  0.0025
  966MOL0     H33283   4.214  -1.500   4.418 -1.5421 -0.9114  0.3452
  966MOL0     H33284   4.299  -1.509   4.215  1.3956  1.2288  0.4227
  966MOL0     H33285   4.392  -1.664   4.244  3.3393 -0.5032  1.8932
  966MOL0     H33286   4.534  -1.544   4.400  1.3159  0.4899 -0.9983
  966MOL0     H33287   4.443  -1.404   4.391 -0.2644 -1.2610  0.6216
  966MOL0     H33288   4.339  -2.007   4.783 -1.5997 -1.1292 -0.9938
  966MOL0     H33289   4.606  -2.036   4.825  1.0955  1.9827 -1.1318
  966MOL0     H33290   4.902  -1.854   4.562 -0.4282 -1.6917  0.8871
  966MOL0     H33291   5.072  -1.720   4.482 -1.9884  0.4677 -3.1292
  966MOL0     H33292   5.794  -0.363   4.448 -0.8537 -2.3112 -3.5947
  966MOL0     H33293   5.755  -0.138   4.552  0.3541 -0.2613 -0.7702
  966MOL0     H33294   5.454   0.219   4.479 -0.3462 -0.5015  0.3275
  966MOL0     H33295   5.364   0.425   4.560  0.6107  0.3464  0.8357
  966MOL0     H33296   5.630   0.771   4.647  0.3805 -3.8769 -0.2945
  966MOL0     H33297   5.522   0.752   4.507 -2.3494 -1.3206 -0.3430
  966MOL0     H33298   5.332   0.853   4.622  0.0339  1.0209 -0.7143
  966MOL0     H33299   5.472   0.959   4.648 -1.0805  2.3039  3.9605
  966MOL0     H33300   5.355   0.749   4.845  0.9495 -0.2028 -0.6554
  966MOL0     H33301   5.504   0.827   4.876 -0.4363 -2.3523  0.0306
  966MOL0     H33302   5.387   1.052   4.879 -0.3051 -0.3779 -0.6916
  966MOL0     H33303   5.347   0.938   5.005  1.7527  3.1376  0.3069
  966MOL0     H33304   4.997   1.050   4.770  0.7329  3.1549 -0.2232
  966MOL0     H33305   5.752   0.583   4.640 -1.7709  2.3477 -1.0556
  966MOL0     H33306   5.932   0.305   4.619 -2.2927 -1.4342 -0.5552
  966MOL0     H33307   5.926   0.362   4.460  0.1844 -0.3263  0.3023
  966MOL0     H33308   5.925   0.481   4.595  0.4770  1.3540 -2.0531
  967MOL0     O33309   7.695   9.213   6.633  0.3038  0.2160  0.0755
  967MOL0     C33310   7.692   9.146   6.734 -1.1051 -0.2719 -0.5380
  967MOL0     O33311   7.595   9.150   6.831 -0.3198 -0.3004  0.4455
  967MOL0     C33312   7.460   9.174   6.801  0.3052  0.1448 -0.0839
  967MOL0     C33313   7.404   9.162   6.674  0.3552 -0.5791 -0.5346
  967MOL0     C33314   7.264   9.169   6.654 -0.5864  0.2205 -0.3722
  967MOL0     C33315   7.174   9.199   6.762 -0.5072 -0.5658 -0.0301
  967MOL0     O33316   7.039   9.221   6.744  0.6351  0.0732 -0.4958
  967MOL0     C33317   6.984   9.244   6.611 -0.0924  0.2448 -0.4831
  967MOL0     C33318   6.841   9.294   6.612  0.0120 -0.4245 -0.0208
  967MOL0     C33319   6.746   9.185   6.650  0.2462  0.3499 -0.2058
  967MOL0     C33320   6.596   9.219   6.648  0.3987  0.4598  0.3318
  967MOL0     C33321   6.556   9.309   6.766 -0.6386 -0.5345 -0.7306
  967MOL0     C33322   6.410   9.361   6.754 -0.7900  0.3910 -0.8289
  967MOL0     C33323   6.361   9.413   6.888 -0.0298 -0.5222  0.5275
  967MOL0     C33324   6.415   9.563   6.921 -0.2645 -0.7621 -0.4856
  967MOL0     N33325   6.558   9.568   6.950  0.6678 -0.7308 -0.1001
  967MOL0     C33326   6.636   9.494   7.036 -0.6173  0.3076 -0.0186
  967MOL0     C33327   6.770   9.522   7.008  0.0767 -0.5725  0.8631
  967MOL0     C33328   6.896   9.459   7.064 -0.6566  0.3968 -0.6161
  967MOL0     C33329   6.879   9.350   7.158 -0.3858  0.0623  0.9065
  967MOL0     C33330   6.835   9.229   7.074  0.1371 -0.1429  0.3880
  967MOL0     C33331   6.790   9.118   7.175  0.1940  0.4748  0.1150
  967MOL0     O33332   6.910   9.057   7.234  0.2613 -0.6357 -0.5844
  967MOL0     C33333   6.995   8.979   7.164  0.2224 -0.1671 -0.0532
  967MOL0     C33334   7.115   8.949   7.225  0.0537  1.1371 -0.2766
  967MOL0     C33335   7.213   8.868   7.167  1.0837 -0.1802 -0.5201
  967MOL0     C33336   7.320   8.816   7.260 -0.0860 -0.4644 -0.1406
  967MOL0     C33337   7.209   8.839   7.027  0.7149  0.5128 -0.2650
  967MOL0     C33338   7.327   8.793   6.950  0.5255 -1.3431 -0.4905
  967MOL0     O33339   7.301   8.723   6.832 -0.1697  0.0175  0.0421
  967MOL0     C33340   7.410   8.682   6.757 -0.1863 -1.0127 -0.1231
  967MOL0     C33341   7.439   8.549   6.746  1.0373  0.5079  0.2377
  967MOL0     C33342   7.540   8.502   6.664 -0.4540 -0.8071 -0.0039
  967MOL0     C33343   7.636   8.598   6.611  1.0679 -0.5744 -0.9412
  967MOL0     O33344   7.742   8.540   6.542  0.3085  0.7544 -0.9095
  967MOL0     C33345   7.851   8.624   6.499 -0.5905  0.5824 -0.0679
  967MOL0     C33346   7.968   8.551   6.434 -0.0689 -1.1382  0.2385
  967MOL0     C33347   7.906   8.478   6.316 -0.3295  0.5284 -0.4139
  967MOL0     C33348   8.021   8.398   6.239  0.1066 -0.4413  0.1324
  967MOL0     C33349   8.112   8.497   6.160 -0.8843  1.1590 -0.8219
  967MOL0     C33350   8.037   8.573   6.042 -0.5927  0.1249  0.9775
  967MOL0     C33351   7.994   8.722   6.059 -0.0713  0.7078  0.6770
  967MOL0     C33352   8.107   8.822   6.096  1.0132 -0.5406  0.4613
  967MOL0    Cl33353   8.212   8.831   5.947 -0.2862  0.0089 -0.1871
  967MOL0     C33354   7.606   8.736   6.618  0.8236  0.5885 -0.1729
  967MOL0     C33355   7.492   8.776   6.688  0.1241 -0.3632  0.0848
  967MOL0     O33356   7.434   8.820   6.987 -0.9368  0.1923 -0.7163
  967MOL0     C33357   7.086   8.876   6.965  0.0136 -0.8396  0.2046
  967MOL0     C33358   6.984   8.942   7.024 -0.1509 -0.3135 -0.5905
  967MOL0     N33359   6.774   9.621   6.910 -0.4698  0.4622 -0.3046
  967MOL0     N33360   6.658   9.644   6.880 -0.1203 -0.6282  0.1555
  967MOL0     C33361   7.232   9.218   6.890  0.7634  0.8234 -0.5980
  967MOL0     C33362   7.374   9.202   6.908 -0.1549 -0.1094  0.3849
  967MOL0     C33363   7.813   9.054   6.765  0.8712 -0.6824 -0.4018
  967MOL0     C33364   7.803   8.983   6.887  0.2896  0.4315 -0.0615
  967MOL0     C33365   7.902   8.891   6.914  0.5436  0.1064 -0.4911
  967MOL0     C33366   8.013   8.876   6.829  0.3663  0.2741  0.4083
  967MOL0     O33367   8.114   8.792   6.865  0.3813 -0.2367  0.3000
  967MOL0     C33368   8.073   8.650   6.847 -0.2874 -0.3597  1.1572
  967MOL0     C33369   8.045   8.582   6.970  0.4063 -0.6757 -0.3640
  967MOL0     C33370   8.019   8.431   6.950  0.0792  0.0081  0.2490
  967MOL0     C33371   7.898   8.396   6.866 -0.0168  1.1900 -0.5305
  967MOL0     C33372   7.768   8.420   6.931  0.3056  0.4799 -0.2811
  967MOL0     C33373   7.666   8.449   6.994  0.4502  0.8295  0.6099
  967MOL0     C33374   8.021   8.947   6.703  0.0617  0.9991 -0.3799
  967MOL0     C33375   7.920   9.035   6.676  0.0440  0.1775  0.3800
  967MOL0     C33376   7.949   9.117   6.548  1.1898 -0.3092  0.5197
  967MOL0     H33377   7.470   9.136   6.592  1.1753 -0.1808 -0.0203
  967MOL0     H33378   7.229   9.150   6.553  1.4418 -2.7750 -0.6535
  967MOL0     H33379   6.997   9.155   6.548 -1.2034 -1.1076  1.0985
  967MOL0     H33380   7.050   9.322   6.571 -0.8971  0.9301 -0.4974
  967MOL0     H33381   6.840   9.381   6.679 -4.6429 -1.4231  1.5263
  967MOL0     H33382   6.797   9.344   6.525  1.7180  2.5199  0.6482
  967MOL0     H33383   6.752   9.105   6.576 -3.2196  1.9565 -2.4635
  967MOL0     H33384   6.775   9.146   6.748  2.0186  2.0454  0.0174
  967MOL0     H33385   6.575   9.260   6.549  0.6822 -1.6586 -0.6612
  967MOL0     H33386   6.548   9.121   6.650 -1.1563  1.1521  3.2806
  967MOL0     H33387   6.605   9.407   6.770 -0.4146 -0.6674 -0.0996
  967MOL0     H33388   6.574   9.271   6.867  0.1192  1.5403 -0.0155
  967MOL0     H33389   6.418   9.452   6.693 -0.3368  2.8295  2.5678
  967MOL0     H33390   6.338   9.286   6.720  0.8631 -0.5866 -2.3654
  967MOL0     H33391   6.385   9.345   6.970 -0.9528 -2.6142 -0.8609
  967MOL0     H33392   6.253   9.424   6.877  0.2393  0.8630 -1.2808
  967MOL0     H33393   6.398   9.620   6.829  0.7909 -0.5168 -0.5505
  967MOL0     H33394   6.358   9.613   7.000  0.4173  3.5726 -2.4339
  967MOL0     H33395   6.614   9.412   7.104  3.0980 -1.4839 -0.6821
  967MOL0     H33396   6.957   9.537   7.111 -1.1629  0.0546  0.6478
  967MOL0     H33397   6.952   9.420   6.978  0.8306 -1.6360  1.1950
  967MOL0     H33398   6.969   9.314   7.209 -1.3177 -0.8893  1.9433
  967MOL0     H33399   6.806   9.376   7.235 -1.1718 -3.3897  1.4761
  967MOL0     H33400   6.759   9.255   7.000 -1.3914 -2.2229  1.1273
  967MOL0     H33401   6.926   9.207   7.018 -0.1886  0.1022 -0.2466
  967MOL0     H33402   6.722   9.165   7.247  0.1008  1.0093 -0.3169
  967MOL0     H33403   6.725   9.047   7.123 -0.0098  2.2661 -2.2774
  967MOL0     H33404   7.127   8.981   7.328  0.8026  0.0464 -0.0167
  967MOL0     H33405   7.415   8.863   7.231 -0.6672  0.7121 -0.1859
  967MOL0     H33406   7.323   8.706   7.253  2.3677 -0.5381  1.0302
  967MOL0     H33407   7.318   8.843   7.366  1.5051  1.7444 -0.5988
  967MOL0     H33408   7.376   8.468   6.783 -0.2280  1.1717 -0.3819
  967MOL0     H33409   7.555   8.397   6.641  1.0294 -0.6498  0.1515
  967MOL0     H33410   7.806   8.702   6.436 -1.9416 -0.1195  0.0091
  967MOL0     H33411   7.885   8.673   6.591 -0.7233 -1.2112  0.9751
  967MOL0     H33412   8.048   8.619   6.402 -0.8069  0.1566  1.0288
  967MOL0     H33413   8.017   8.479   6.499  2.7431  1.1972  0.9394
  967MOL0     H33414   7.847   8.539   6.248 -1.5133  0.9391  0.9404
  967MOL0     H33415   7.841   8.401   6.359 -0.5400  0.2135 -1.2719
  967MOL0     H33416   7.982   8.322   6.171  0.4221 -0.7206  0.2618
  967MOL0     H33417   8.082   8.338   6.308  1.7839 -1.2601 -1.9400
  967MOL0     H33418   8.161   8.570   6.226  0.7560 -0.5539 -0.0704
  967MOL0     H33419   8.192   8.442   6.110 -1.4377  0.7484 -1.2642
  967MOL0     H33420   7.952   8.514   6.008  0.4088 -1.2428  0.7920
  967MOL0     H33421   8.103   8.570   5.955  0.0131  1.1425  1.3795
  967MOL0     H33422   7.918   8.734   6.137 -4.2684  2.4436 -3.2258
  967MOL0     H33423   7.955   8.762   5.965  0.6749 -0.3991 -0.1368
  967MOL0     H33424   8.167   8.790   6.181  1.0440  0.8045  0.9704
  967MOL0     H33425   8.060   8.918   6.120 -1.5778 -2.2334  2.6834
  967MOL0     H33426   7.675   8.804   6.569  0.1128  0.7311 -1.0120
  967MOL0     H33427   7.481   8.883   6.697  3.7690  0.0002  2.5137
  967MOL0     H33428   7.070   8.850   6.861 -3.8034 -0.5647  0.5578
  967MOL0     H33429   6.906   8.976   6.956 -1.1631  1.4616  1.3363
  967MOL0     H33430   7.158   9.234   6.968  0.4195  1.7762 -1.1004
  967MOL0     H33431   7.413   9.217   7.008  2.8076 -1.2073 -0.5155
  967MOL0     H33432   7.723   8.992   6.961 -2.2222 -2.3418 -2.1798
  967MOL0     H33433   7.882   8.837   7.006 -2.1264 -1.0239 -1.6435
  967MOL0     H33434   7.997   8.630   6.771 -0.7710  0.0826  1.5244
  967MOL0     H33435   8.166   8.603   6.813  0.8625  1.9705  0.9253
  967MOL0     H33436   7.946   8.615   7.004  1.3376  3.0620 -0.8689
  967MOL0     H33437   8.117   8.606   7.050 -0.7519  0.0881  0.4896
  967MOL0     H33438   8.105   8.393   6.894  1.8122  4.2093 -0.3123
  967MOL0     H33439   8.018   8.375   7.044  0.4514 -1.0902 -0.3801
  967MOL0     H33440   7.906   8.291   6.838  1.1606  0.9322  0.6480
  967MOL0     H33441   7.907   8.449   6.771 -0.0402  2.6183  0.2255
  967MOL0     H33442   7.580   8.477   7.050 -1.6344 -0.3866 -1.7546
  967MOL0     H33443   8.095   8.934   6.625 -0.1581  1.3919 -0.6582
  967MOL0     H33444   7.946   9.221   6.583  1.8796 -0.2046  0.2743
  967MOL0     H33445   8.042   9.096   6.496  0.5954  2.3971 -1.9212
  967MOL0     H33446   7.873   9.085   6.476  1.3174 -1.1047  0.7303
  968MOL0     O33447   5.774   6.425   9.745 -0.9297 -0.0694 -0.0660
  968MOL0     C33448   5.861   6.336   9.728  0.4040 -0.0168  0.1303
  968MOL0     O33449   5.888   6.266   9.614  0.9633 -0.1617  0.0612
  968MOL0     C33450   5.810   6.305   9.503 -0.4999  0.0562 -0.6880
  968MOL0     C33451   5.688   6.239   9.483  0.1018  0.3677 -0.2305
  968MOL0     C33452   5.608   6.265   9.376  0.5165 -0.0184  0.5124
  968MOL0     C33453   5.649   6.357   9.276 -0.0741 -0.3662 -1.1361
  968MOL0     O33454   5.569   6.395   9.171  0.2341  0.2286  0.5094
  968MOL0     C33455   5.618   6.324   9.043  0.4252  0.0047  0.2508
  968MOL0     C33456   5.541   6.389   8.932  0.4580 -0.7077  0.0866
  968MOL0     C33457   5.639   6.441   8.826 -0.4400 -0.0763  0.1088
  968MOL0     C33458   5.582   6.558   8.759 -0.2456  0.3676  0.0755
  968MOL0     C33459   5.672   6.607   8.644 -0.0417 -0.1581 -0.3928
  968MOL0     C33460   5.794   6.691   8.690  0.3547  0.5856  1.0705
  968MOL0     C33461   5.844   6.758   8.565  0.0446 -0.7249  0.2049
  968MOL0     C33462   5.931   6.894   8.591  0.1694 -0.2422 -0.2985
  968MOL0     N33463   5.976   6.958   8.470  0.0918 -0.3801 -0.0535
  968MOL0     C33464   6.075   6.909   8.391 -0.0834 -0.2365 -0.8248
  968MOL0     C33465   6.099   7.008   8.303 -0.7188 -0.0796 -0.4196
  968MOL0     C33466   6.215   7.011   8.209 -0.1959 -0.0655 -0.1182
  968MOL0     C33467   6.173   7.002   8.060  0.3308 -0.5745 -0.3971
  968MOL0     C33468   6.148   7.129   7.973  0.0804  0.0398  0.2183
  968MOL0     C33469   6.226   7.246   8.023  0.1803  0.2196  0.2799
  968MOL0     O33470   6.236   7.356   7.933 -0.3227  0.2323 -1.1879
  968MOL0     C33471   6.132   7.432   7.895  0.1435  0.7522 -0.0590
  968MOL0     C33472   6.008   7.420   7.955  0.0763 -0.1354  0.5230
  968MOL0     C33473   5.899   7.506   7.925  1.0744  0.7098 -0.5306
  968MOL0     C33474   5.767   7.487   7.997 -0.2071  0.2801  0.0390
  968MOL0     C33475   5.920   7.614   7.833  0.6670  0.6938  0.5168
  968MOL0     C33476   5.820   7.715   7.796  0.1942 -0.0104  0.0368
  968MOL0     O33477   5.843   7.787   7.677 -0.1416 -0.5954 -1.2529
  968MOL0     C33478   5.752   7.856   7.613 -0.1331 -0.6738  0.5873
  968MOL0     C33479   5.767   7.995   7.595 -0.3212 -0.3955  0.9791
  968MOL0     C33480   5.679   8.064   7.511 -0.4098  0.5887 -0.6911
  968MOL0     C33481   5.581   7.987   7.443  0.2802 -0.9583  0.5671
  968MOL0     O33482   5.490   8.058   7.370  0.4838 -0.7184 -0.0934
  968MOL0     C33483   5.428   7.996   7.257  0.6034 -0.0034  0.1923
  968MOL0     C33484   5.332   8.096   7.171  0.0132 -0.4159 -0.6853
  968MOL0     C33485   5.236   8.037   7.068 -0.0972  0.5697 -0.5091
  968MOL0     C33486   5.310   7.954   6.964 -0.0737 -0.2460  0.1508
  968MOL0     C33487   5.214   7.906   6.847  0.6574 -0.4093  0.1800
  968MOL0     C33488   5.180   8.026   6.750 -0.0463 -0.5512  0.0632
  968MOL0     C33489   5.047   8.094   6.778  0.4402  0.6248  0.5934
  968MOL0     C33490   4.927   8.041   6.681  0.3122 -0.3812  0.4388
  968MOL0    Cl33491   4.955   8.114   6.515 -0.2583  0.5920 -0.1252
  968MOL0     C33492   5.563   7.851   7.469 -0.6621 -0.0887 -0.3438
  968MOL0     C33493   5.652   7.781   7.557  0.5104 -0.5143 -0.1838
  968MOL0     O33494   5.718   7.730   7.866  0.3057 -0.6344  0.6545
  968MOL0     C33495   6.044   7.612   7.769  0.0567  0.4714 -0.2428
  968MOL0     C33496   6.151   7.519   7.794 -0.2455 -0.0688  0.2548
  968MOL0     N33497   6.012   7.107   8.327 -0.0206  0.3655 -0.5915
  968MOL0     N33498   5.935   7.073   8.427  0.0303 -0.1053  0.4513
  968MOL0     C33499   5.775   6.408   9.291 -0.0899 -0.0077 -0.1863
  968MOL0     C33500   5.855   6.400   9.409 -0.4699 -0.3066  0.0933
  968MOL0     C33501   5.926   6.291   9.848  0.7065 -0.3878 -1.7667
  968MOL0     C33502   5.982   6.161   9.855 -0.0606  0.4961  0.0517
  968MOL0     C33503   6.052   6.112   9.971  0.0241  0.4623  0.5726
  968MOL0     C33504   6.071   6.201  10.072 -0.1255  0.0095 -0.3021
  968MOL0     O33505   6.149   6.164  10.178  0.1408 -0.6936  0.0255
  968MOL0     C33506   6.176   6.254  10.292  0.0795 -0.6909  1.2079
  968MOL0     C33507   6.276   6.368  10.251  0.2112  0.1070 -0.1896
  968MOL0     C33508   6.258   6.492  10.346 -0.0180 -0.5262  0.1498
  968MOL0     C33509   6.358   6.603  10.319 -0.0769 -0.1668 -0.3558
  968MOL0     C33510   6.355   6.694  10.436 -0.4883  0.4940 -0.0605
  968MOL0     C33511   6.339   6.774  10.530  0.0177 -0.2615  0.4044
  968MOL0     C33512   6.020   6.323  10.066 -0.0155 -0.1475  0.1881
  968MOL0     C33513   5.952   6.378   9.956 -0.5816 -0.5434 -0.5784
  968MOL0     C33514   5.894   6.517   9.984  0.4598 -0.3234  0.0427
  968MOL0     H33515   5.638   6.176   9.557 -1.3791  0.2447 -1.2998
  968MOL0     H33516   5.513   6.216   9.357  2.2496 -2.3526 -3.1660
  968MOL0     H33517   5.589   6.219   9.043  1.7297 -0.4007  2.0500
  968MOL0     H33518   5.727   6.337   9.038  0.5506  0.9654  3.1590
  968MOL0     H33519   5.467   6.326   8.882 -2.1824  2.1569  0.0733
  968MOL0     H33520   5.481   6.469   8.978 -0.9209 -2.0604  0.7063
  968MOL0     H33521   5.728   6.475   8.879  0.4399  0.3823 -1.5992
  968MOL0     H33522   5.681   6.364   8.760 -0.1751 -1.7675  2.1558
  968MOL0     H33523   5.485   6.531   8.717  0.6765  3.1262 -4.5430
  968MOL0     H33524   5.580   6.646   8.823  2.2089  0.6250 -0.1035
  968MOL0     H33525   5.611   6.664   8.573  2.4041 -1.5459 -3.9066
  968MOL0     H33526   5.705   6.519   8.589  1.2738  0.0634  0.0009
  968MOL0     H33527   5.773   6.764   8.768  3.9390  1.5165  1.3435
  968MOL0     H33528   5.868   6.626   8.738 -0.2078 -0.1611  0.9536
  968MOL0     H33529   5.765   6.789   8.495 -1.3765 -0.3553  1.9040
  968MOL0     H33530   5.914   6.686   8.521  1.8789  0.5089  0.9847
  968MOL0     H33531   5.870   6.961   8.653  1.0032 -0.6685  1.0118
  968MOL0     H33532   6.017   6.863   8.650 -0.3274 -0.4360  0.3385
  968MOL0     H33533   6.140   6.824   8.409  0.8319  0.5744 -0.1931
  968MOL0     H33534   6.277   6.922   8.226 -0.6208 -0.7129 -1.7241
  968MOL0     H33535   6.284   7.091   8.238 -0.8831  1.2057 -1.8166
  968MOL0     H33536   6.261   6.971   8.002  0.1315 -2.8893  0.4117
  968MOL0     H33537   6.088   6.936   8.042 -0.3446  0.4738 -1.1718
  968MOL0     H33538   6.188   7.104   7.875  1.2034  1.9199  0.1467
  968MOL0     H33539   6.042   7.152   7.960  0.1856 -0.8987 -3.4664
  968MOL0     H33540   6.174   7.275   8.115 -2.2676  0.3848 -1.0671
  968MOL0     H33541   6.320   7.197   8.049 -0.9234 -1.6829  0.8541
  968MOL0     H33542   5.990   7.346   8.032 -2.1475 -0.5348 -0.3235
  968MOL0     H33543   5.773   7.391   8.049  0.9680  1.0477  1.4298
  968MOL0     H33544   5.676   7.490   7.937  1.7567  0.5523 -3.1295
  968MOL0     H33545   5.761   7.561   8.077 -0.6451  1.7218 -1.2793
  968MOL0     H33546   5.844   8.041   7.655 -0.5597 -0.6426  1.4768
  968MOL0     H33547   5.684   8.172   7.501  0.0493  0.6114 -0.2064
  968MOL0     H33548   5.504   7.952   7.191 -1.8159 -1.7960 -1.5862
  968MOL0     H33549   5.364   7.913   7.289 -0.0213  1.0091  1.6965
  968MOL0     H33550   5.267   8.137   7.249  0.1939  3.7936 -2.4768
  968MOL0     H33551   5.387   8.181   7.129 -2.3653  1.9763  0.7449
  968MOL0     H33552   5.189   8.127   7.027 -0.2544  0.1271 -1.2949
  968MOL0     H33553   5.162   7.965   7.105  0.1983 -0.8352 -2.4937
  968MOL0     H33554   5.351   7.861   7.005  0.4135 -2.0776 -4.0329
  968MOL0     H33555   5.397   8.005   6.921  0.7217 -1.5324  0.1800
  968MOL0     H33556   5.254   7.817   6.797 -0.1612 -0.9842  0.5176
  968MOL0     H33557   5.121   7.872   6.893  0.6878  2.1531  2.3967
  968MOL0     H33558   5.183   7.985   6.649 -1.7710 -3.3560  1.0271
  968MOL0     H33559   5.260   8.101   6.758 -2.2214  1.9635 -0.5030
  968MOL0     H33560   5.050   8.204   6.776 -1.5353  0.7194 -1.9208
  968MOL0     H33561   5.006   8.067   6.876 -0.1511  2.5835  0.9360
  968MOL0     H33562   4.828   8.077   6.710 -1.1764 -3.1403 -0.8446
  968MOL0     H33563   4.929   7.932   6.672  0.9373 -0.2293 -2.3841
  968MOL0     H33564   5.501   7.794   7.401  0.6316  0.9238 -2.5002
  968MOL0     H33565   5.652   7.673   7.571  1.2784 -0.1759  3.3594
  968MOL0     H33566   6.066   7.678   7.685 -2.6530  0.1586 -1.2935
  968MOL0     H33567   6.241   7.519   7.733 -0.5818  0.7253 -0.2620
  968MOL0     H33568   5.813   6.479   9.219  2.2475  0.0929  1.0737
  968MOL0     H33569   5.945   6.456   9.432 -0.5965  1.2871 -2.7721
  968MOL0     H33570   5.975   6.107   9.761 -0.1714  0.6567 -0.0329
  968MOL0     H33571   6.096   6.012   9.969  2.8232  1.6146 -0.7922
  968MOL0     H33572   6.077   6.283  10.326  0.0254  1.3724 -0.5550
  968MOL0     H33573   6.219   6.200  10.377 -0.2079 -2.3084  0.3677
  968MOL0     H33574   6.260   6.411  10.152 -2.3336 -1.2529 -0.4379
  968MOL0     H33575   6.377   6.326  10.264 -0.1595 -0.4666  0.9689
  968MOL0     H33576   6.154   6.523  10.337  0.3788  0.9624  0.5161
  968MOL0     H33577   6.269   6.458  10.450  0.9856  0.7190  0.4752
  968MOL0     H33578   6.325   6.665  10.235  1.0150  2.3304  0.9568
  968MOL0     H33579   6.464   6.580  10.307  0.1454 -1.9206  3.4752
  968MOL0     H33580   6.320   6.831  10.619 -0.7377  0.9008 -0.4644
  968MOL0     H33581   6.026   6.381  10.158  2.6836  0.7199 -0.4407
  968MOL0     H33582   5.922   6.569  10.076 -1.2912 -0.7409  0.8623
  968MOL0     H33583   5.903   6.589   9.902  1.4415  0.7600  1.0582
  968MOL0     H33584   5.787   6.502  10.001 -0.4832  0.9573 -3.8896
  969MOL0     O33585   7.288   8.847   0.972 -0.3382 -0.9228 -0.4860
  969MOL0     C33586   7.281   8.746   1.035  0.2798  0.0346 -0.0985
  969MOL0     O33587   7.234   8.624   0.991 -0.0949 -0.5123  0.6620
  969MOL0     C33588   7.219   8.587   0.863  0.2517  0.0314  0.0613
  969MOL0     C33589   7.122   8.497   0.840 -0.3538  0.6872  1.0779
  969MOL0     C33590   7.101   8.457   0.706  0.3640  0.3375 -0.6418
  969MOL0     C33591   7.180   8.496   0.602  0.2488  0.2046  1.4312
  969MOL0     O33592   7.150   8.459   0.464  0.8387  0.3229  1.1243
  969MOL0     C33593   7.256   8.478   0.365  0.5344 -0.4512 -0.1613
  969MOL0     C33594   7.205   8.414   0.239 -0.6192 -0.6818 -0.9122
  969MOL0     C33595   7.192   8.258   0.248 -0.0596 -0.5179  0.1695
  969MOL0     C33596   7.090   8.186   0.161 -0.2425 -0.2627  0.2349
  969MOL0     C33597   7.115   8.174   0.013  0.4309 -0.9207  0.0330
  969MOL0     C33598   7.004   8.100  -0.063 -1.1227  0.5446 -0.5208
  969MOL0     C33599   7.025   8.080  -0.212  0.1131 -0.3633  0.1694
  969MOL0     C33600   6.927   8.157  -0.293  0.8277 -0.7028 -0.5634
  969MOL0     N33601   6.944   8.155  -0.439 -0.1844 -0.2762  0.2416
  969MOL0     C33602   6.969   8.043  -0.508  0.5775  0.4596  0.3129
  969MOL0     C33603   6.961   8.069  -0.638 -0.1685  0.1833 -1.3012
  969MOL0     C33604   7.001   7.977  -0.740 -0.4922  0.7030  0.6221
  969MOL0     C33605   7.086   8.040  -0.844 -0.5343  0.2590 -0.5416
  969MOL0     C33606   7.225   8.073  -0.791 -0.5544 -0.4059  0.6261
  969MOL0     C33607   7.302   8.169  -0.886  0.4309 -0.2772  0.4160
  969MOL0     O33608   7.387   8.087  -0.974  0.7004  0.0293  0.0744
  969MOL0     C33609   7.510   8.147  -0.991 -0.3431  0.9578  0.0779
  969MOL0     C33610   7.521   8.259  -1.079  0.0105  0.6389  0.2341
  969MOL0     C33611   7.631   8.336  -1.090  0.5188 -0.0383 -0.9563
  969MOL0     C33612   7.625   8.456  -1.179  0.0499 -0.6629  1.2467
  969MOL0     C33613   7.747   8.302  -1.013  0.0458  0.7819  0.0537
  969MOL0     C33614   7.884   8.370  -1.016  1.1704  0.3780 -0.4940
  969MOL0     O33615   7.990   8.280  -0.990 -0.0585  0.6935 -0.4340
  969MOL0     C33616   8.119   8.320  -0.992  0.1031 -0.4238 -0.0270
  969MOL0     C33617   8.189   8.311  -1.106 -0.0871 -0.4171  0.2126
  969MOL0     C33618   8.326   8.346  -1.111  0.8438 -0.4470 -0.8062
  969MOL0     C33619   8.394   8.382  -0.994 -0.0296 -0.0965 -0.4616
  969MOL0     O33620   8.537   8.392  -0.995  0.7315  0.2054  0.0464
  969MOL0     C33621   8.602   8.494  -0.917 -0.6542  0.7296  0.8722
  969MOL0     C33622   8.749   8.513  -0.964  0.2021 -0.4904 -0.4280
  969MOL0     C33623   8.847   8.395  -0.956  0.0724  0.2047 -0.1001
  969MOL0     C33624   8.854   8.317  -0.829  0.4291 -1.1376 -0.5493
  969MOL0     C33625   8.945   8.394  -0.727  0.4777 -0.7195  0.2631
  969MOL0     C33626   8.958   8.332  -0.580  0.9582 -0.2088 -0.0050
  969MOL0     C33627   9.032   8.195  -0.594 -0.0052  0.2303 -0.6560
  969MOL0     C33628   9.083   8.146  -0.465 -0.6102 -0.0000 -0.7819
  969MOL0    Cl33629   8.954   8.148  -0.335 -0.1212  0.5381 -0.2786
  969MOL0     C33630   8.321   8.380  -0.872 -0.4096 -0.8950 -0.2670
  969MOL0     C33631   8.181   8.365  -0.877  0.0175 -0.4612 -0.3297
  969MOL0     O33632   7.903   8.486  -1.050 -0.0510 -0.9394 -1.2105
  969MOL0     C33633   7.740   8.189  -0.922 -0.0101  0.7811  0.5936
  969MOL0     C33634   7.621   8.112  -0.915  0.2509  0.6520 -0.4377
  969MOL0     N33635   6.954   8.212  -0.635 -0.3319  0.1429  0.3069
  969MOL0     N33636   6.942   8.260  -0.518  0.6265 -0.5252  0.0946
  969MOL0     C33637   7.286   8.590   0.636  0.2561 -0.1060  0.7869
  969MOL0     C33638   7.311   8.633   0.766 -0.4434 -0.0046  0.8037
  969MOL0     C33639   7.311   8.750   1.185  0.1757  0.3902  0.7111
  969MOL0     C33640   7.240   8.666   1.267 -0.0367  0.0565 -0.6563
  969MOL0     C33641   7.248   8.678   1.406 -0.0793 -0.2967 -0.2159
  969MOL0     C33642   7.345   8.747   1.474 -0.4541 -0.8757  0.0907
  969MOL0     O33643   7.337   8.746   1.612  0.2998 -0.5246 -0.0500
  969MOL0     C33644   7.430   8.835   1.682  0.2070  0.4857  0.2026
  969MOL0     C33645   7.370   8.887   1.812  0.8400  0.2963  0.0545
  969MOL0     C33646   7.246   8.983   1.789 -0.7176  0.2409  0.5724
  969MOL0     C33647   7.175   9.019   1.923 -0.2451  0.7559  0.8281
  969MOL0     C33648   7.264   9.101   2.007  0.0775 -0.1035 -0.0560
  969MOL0     C33649   7.326   9.173   2.085  0.3057 -1.8696 -0.1403
  969MOL0     C33650   7.427   8.821   1.392 -0.4487 -0.1612 -0.1501
  969MOL0     C33651   7.412   8.825   1.249  0.4802  0.7527  0.1726
  969MOL0     C33652   7.511   8.916   1.170  0.7531 -0.3416  0.1206
  969MOL0     H33653   7.068   8.460   0.927 -0.7260 -2.8210 -0.4800
  969MOL0     H33654   7.032   8.376   0.682  1.2010 -0.4567 -0.4346
  969MOL0     H33655   7.348   8.434   0.405  0.1167  0.1187  1.5225
  969MOL0     H33656   7.288   8.582   0.355  1.5182 -0.3543  2.9286
  969MOL0     H33657   7.115   8.466   0.205 -0.6522  0.2016  0.4570
  969MOL0     H33658   7.283   8.435   0.166  1.8744 -0.2946  1.7039
  969MOL0     H33659   7.289   8.215   0.222  0.0376  0.5927 -1.4437
  969MOL0     H33660   7.161   8.238   0.351 -0.6187 -0.5056  0.0033
  969MOL0     H33661   7.079   8.089   0.210 -1.9682  0.1050  0.6334
  969MOL0     H33662   6.997   8.236   0.191 -0.4715 -1.1058  0.9716
  969MOL0     H33663   7.212   8.124   0.017  0.0975 -1.5154  1.2460
  969MOL0     H33664   7.137   8.262  -0.047  1.2748 -2.1819 -1.6066
  969MOL0     H33665   6.999   8.001  -0.018  0.2699 -0.2244 -1.9557
  969MOL0     H33666   6.906   8.145  -0.044 -2.6339 -1.9643 -1.8198
  969MOL0     H33667   7.000   7.976  -0.237 -0.4078 -0.2581  0.2394
  969MOL0     H33668   7.128   8.106  -0.239 -0.2386  2.7584  1.5055
  969MOL0     H33669   6.828   8.116  -0.271  0.9031 -0.5528  0.0537
  969MOL0     H33670   6.933   8.262  -0.265  0.2505 -1.2795  1.9142
  969MOL0     H33671   7.012   7.953  -0.466 -1.0808 -0.6992 -0.3980
  969MOL0     H33672   6.915   7.950  -0.801  0.9456 -0.9752 -0.7519
  969MOL0     H33673   7.043   7.883  -0.704  0.4803  1.3710  1.2760
  969MOL0     H33674   7.095   7.983  -0.937  0.6807  1.3613 -1.1302
  969MOL0     H33675   7.045   8.139  -0.864  3.6619  2.0439 -1.0976
  969MOL0     H33676   7.202   8.125  -0.698  0.8182  1.8515 -0.1960
  969MOL0     H33677   7.290   7.991  -0.761  0.9487  1.0316  1.4403
  969MOL0     H33678   7.229   8.222  -0.948  2.3222  2.5871  0.4520
  969MOL0     H33679   7.355   8.246  -0.828  1.8626 -0.9869  0.0909
  969MOL0     H33680   7.433   8.293  -1.132  0.9969  3.1988  0.0721
  969MOL0     H33681   7.662   8.545  -1.128  0.1548  0.0828 -0.0866
  969MOL0     H33682   7.522   8.479  -1.206 -1.1850 -2.7937  3.6797
  969MOL0     H33683   7.676   8.448  -1.275  0.6000 -1.6508  1.6007
  969MOL0     H33684   8.132   8.276  -1.192  1.2528  1.3561 -1.4880
  969MOL0     H33685   8.382   8.346  -1.204  1.0438 -0.8181 -0.6891
  969MOL0     H33686   8.554   8.592  -0.931  3.4117  2.4944 -2.9461
  969MOL0     H33687   8.591   8.463  -0.813 -1.6823 -0.3867  0.4438
  969MOL0     H33688   8.746   8.560  -1.063  0.9696  2.7681  0.9734
  969MOL0     H33689   8.781   8.593  -0.896 -2.0380  2.0011 -2.1174
  969MOL0     H33690   8.942   8.441  -0.985 -1.6231  1.7662 -3.9122
  969MOL0     H33691   8.819   8.322  -1.033 -1.3096 -0.1630  0.7216
  969MOL0     H33692   8.886   8.216  -0.855 -1.1616 -1.3639 -1.7116
  969MOL0     H33693   8.752   8.308  -0.790  0.2794  2.6834  0.3054
  969MOL0     H33694   9.046   8.399  -0.770 -0.1037  0.7259 -1.0312
  969MOL0     H33695   8.917   8.498  -0.708 -0.1590 -1.1523  1.8513
  969MOL0     H33696   8.865   8.333  -0.521  1.7760 -0.1869  1.3278
  969MOL0     H33697   9.023   8.397  -0.521  0.2094  3.3094 -2.7059
  969MOL0     H33698   9.117   8.213  -0.660  0.7821  2.0652  0.7626
  969MOL0     H33699   8.969   8.118  -0.640 -0.7235  0.3786  0.0487
  969MOL0     H33700   9.176   8.195  -0.435 -0.1327 -0.2136 -1.8656
  969MOL0     H33701   9.101   8.038  -0.469 -2.6401 -0.4339  0.6537
  969MOL0     H33702   8.378   8.404  -0.782 -1.9087 -0.7164  0.6696
  969MOL0     H33703   8.124   8.382  -0.786  1.0729 -1.3409  0.5245
  969MOL0     H33704   7.823   8.145  -0.868  1.1686  1.3806 -0.6763
  969MOL0     H33705   7.611   8.032  -0.842 -2.0673  1.5775  0.3719
  969MOL0     H33706   7.351   8.634   0.561 -0.3309 -0.2787  0.1747
  969MOL0     H33707   7.404   8.684   0.792  1.2001 -1.9462 -0.9155
  969MOL0     H33708   7.162   8.600   1.230 -0.4477  1.0993 -1.7349
  969MOL0     H33709   7.180   8.619   1.467 -0.1909  2.0350  2.1012
  969MOL0     H33710   7.516   8.769   1.695  1.8236  2.2070 -1.2040
  969MOL0     H33711   7.447   8.930   1.630 -3.2813  1.4953  0.6267
  969MOL0     H33712   7.451   8.948   1.853  0.5813  0.7678 -0.1335
  969MOL0     H33713   7.349   8.801   1.876  3.2873  0.6373  1.4241
  969MOL0     H33714   7.281   9.068   1.729  0.1301  0.5117  1.4206
  969MOL0     H33715   7.177   8.928   1.725 -0.4880 -0.9729  1.3360
  969MOL0     H33716   7.160   8.928   1.981  1.9897 -0.9082 -1.0251
  969MOL0     H33717   7.082   9.076   1.916  0.3777  1.9241  1.6002
  969MOL0     H33718   7.382   9.225   2.159 -2.5200  0.8502  0.2966
  969MOL0     H33719   7.508   8.887   1.422 -1.9234  2.1873 -1.1007
  969MOL0     H33720   7.538   8.871   1.074 -2.8108  1.4049 -1.9087
  969MOL0     H33721   7.462   9.012   1.151  1.0131  0.4180  2.8057
  969MOL0     H33722   7.596   8.936   1.235  1.2245 -2.8148  0.3538
  970MOL0     O33723   0.614   2.760  10.664  0.1846 -0.3438  0.5483
  970MOL0     C33724   0.563   2.697  10.576  0.6709  1.0472  0.2153
  970MOL0     O33725   0.605   2.569  10.524  0.4250  0.6135 -0.3888
  970MOL0     C33726   0.731   2.538  10.567  0.1085  0.7968  0.0589
  970MOL0     C33727   0.744   2.484  10.696 -0.3983 -0.3834  0.1655
  970MOL0     C33728   0.867   2.438  10.745  0.0819  0.2084 -0.4102
  970MOL0     C33729   0.985   2.451  10.673  0.2892  0.5523 -0.1302
  970MOL0     O33730   1.105   2.437  10.742  0.3932  0.0297  1.2077
  970MOL0     C33731   1.134   2.536  10.843 -0.2250  0.0541  0.1634
  970MOL0     C33732   1.203   2.477  10.971  0.3671  0.0410 -0.1268
  970MOL0     C33733   1.130   2.359  11.026 -1.2825  1.5276 -0.5218
  970MOL0     C33734   1.053   2.408  11.143 -0.3798  0.1012  0.5643
  970MOL0     C33735   0.969   2.302  11.220 -0.9719 -0.3383  1.1470
  970MOL0     C33736   0.841   2.235  11.157 -0.2773  0.1357 -0.4737
  970MOL0     C33737   0.869   2.110  11.057 -0.2705  0.8524  0.2604
  970MOL0     C33738   0.735   2.041  11.011  0.0234  0.4385 -0.4733
  970MOL0     N33739   0.654   2.134  10.939  0.5800 -1.0198 -0.1420
  970MOL0     C33740   0.634   2.154  10.802  0.0860 -0.3355  0.4316
  970MOL0     C33741   0.525   2.236  10.792 -0.4341 -0.4457  0.1716
  970MOL0     C33742   0.460   2.272  10.662  1.0851  0.4698 -0.3053
  970MOL0     C33743   0.399   2.145  10.585  0.9382 -0.5374 -0.7321
  970MOL0     C33744   0.289   2.185  10.487 -0.0282 -0.1864  0.2454
  970MOL0     C33745   0.156   2.194  10.563  0.0448  0.2010  0.4959
  970MOL0     O33746   0.076   2.284  10.490 -0.6514  0.0399  0.3808
  970MOL0     C33747   0.013   2.381  10.558  0.1066 -0.0284  0.0323
  970MOL0     C33748   0.071   2.481  10.626 -0.2322 -0.6359 -0.0457
  970MOL0     C33749   0.011   2.587  10.695  0.1118 -0.2165  0.6096
  970MOL0     C33750   0.083   2.693  10.761  0.0039 -0.0457  1.0186
  970MOL0     C33751  -0.138   2.587  10.699  0.2991 -0.6348 -0.3809
  970MOL0     C33752  -0.221   2.699  10.752  0.4723 -0.6617 -1.1915
  970MOL0     O33753  -0.343   2.661  10.790  0.1830  0.3487 -0.4384
  970MOL0     C33754  -0.455   2.747  10.774 -0.1684  0.0214 -0.1020
  970MOL0     C33755  -0.464   2.859  10.690 -1.3317  0.4098  0.6824
  970MOL0     C33756  -0.578   2.929  10.679  0.6591  0.3035 -0.1528
  970MOL0     C33757  -0.694   2.890  10.744  0.6315 -0.0036 -0.0917
  970MOL0     O33758  -0.813   2.955  10.722 -0.5151  0.2172  0.0042
  970MOL0     C33759  -0.935   2.888  10.757  0.1425 -1.0724  0.3011
  970MOL0     C33760  -1.040   3.006  10.755 -0.0283  0.1653 -0.2774
  970MOL0     C33761  -1.183   2.954  10.770  0.6372 -0.1160 -1.4246
  970MOL0     C33762  -1.207   2.818  10.697  0.1195 -0.9693  0.2687
  970MOL0     C33763  -1.351   2.795  10.682 -0.5245  0.1850  1.4255
  970MOL0     C33764  -1.383   2.661  10.619 -0.1688  0.4619  0.0655
  970MOL0     C33765  -1.526   2.635  10.597 -0.5342 -0.6382  0.7744
  970MOL0     C33766  -1.550   2.488  10.543 -0.4903  0.0683  0.0912
  970MOL0    Cl33767  -1.713   2.450  10.563  0.2605 -0.0786  0.7072
  970MOL0     C33768  -0.683   2.777  10.834 -0.9307 -0.3747  0.1057
  970MOL0     C33769  -0.561   2.716  10.851  0.4576  0.1560  0.1896
  970MOL0     O33770  -0.179   2.817  10.756  0.9642  0.0886 -0.4072
  970MOL0     C33771  -0.199   2.486  10.625  0.1561 -1.0787 -0.2700
  970MOL0     C33772  -0.127   2.382  10.559 -0.5124  0.4886  0.4955
  970MOL0     N33773   0.467   2.256  10.916  1.2389 -0.4371  0.2101
  970MOL0     N33774   0.542   2.197  10.998  0.1265  0.1961  0.4079
  970MOL0     C33775   0.976   2.491  10.540 -0.5112 -1.0562 -0.3596
  970MOL0     C33776   0.845   2.532  10.490 -0.3308 -0.1727  0.8276
  970MOL0     C33777   0.446   2.744  10.512  0.3480 -0.0722  0.1644
  970MOL0     C33778   0.369   2.645  10.438 -1.1882 -0.0760 -0.4237
  970MOL0     C33779   0.249   2.681  10.377  0.5124  0.3252 -0.3082
  970MOL0     C33780   0.184   2.802  10.408 -0.4271 -0.4758  0.2916
  970MOL0     O33781   0.051   2.820  10.360  0.0989 -0.4900 -0.7280
  970MOL0     C33782  -0.030   2.913  10.423 -0.1185 -0.6191 -0.3186
  970MOL0     C33783  -0.167   2.907  10.366  0.5451 -0.4876  0.2032
  970MOL0     C33784  -0.244   3.044  10.387 -0.2925 -0.3714  0.1424
  970MOL0     C33785  -0.393   3.035  10.363 -0.3271  0.4097  0.7694
  970MOL0     C33786  -0.462   3.165  10.392 -0.2167 -0.1826 -0.2378
  970MOL0     C33787  -0.518   3.266  10.423 -0.1621  0.4067 -0.4883
  970MOL0     C33788   0.257   2.907  10.473  0.1365  0.7731 -0.4509
  970MOL0     C33789   0.382   2.873  10.531  0.0850 -0.7454  0.2431
  970MOL0     C33790   0.458   2.989  10.601 -0.7301  1.0925 -0.5394
  970MOL0     H33791   0.659   2.489  10.763 -0.4578 -0.3041  0.0842
  970MOL0     H33792   0.870   2.405  10.849  1.3395  3.7769  0.8449
  970MOL0     H33793   1.049   2.598  10.873  0.5475  0.9463  0.5752
  970MOL0     H33794   1.201   2.614  10.804  0.1759 -0.5376 -0.3369
  970MOL0     H33795   1.309   2.459  10.951  0.9735  1.6320  1.3906
  970MOL0     H33796   1.211   2.560  11.042  2.6651 -1.4841  1.5285
  970MOL0     H33797   1.062   2.312  10.956 -1.2251  0.0154  0.4002
  970MOL0     H33798   1.208   2.293  11.066 -1.8162  0.2202 -1.6012
  970MOL0     H33799   1.127   2.455  11.208  0.5091  0.0173 -0.3639
  970MOL0     H33800   0.984   2.483  11.102 -2.0663 -1.0316  1.1940
  970MOL0     H33801   0.938   2.345  11.316 -1.5604 -3.2356  2.3413
  970MOL0     H33802   1.028   2.214  11.246 -1.2165 -0.2280  2.1186
  970MOL0     H33803   0.779   2.204  11.241 -2.2326 -0.6109 -2.0935
  970MOL0     H33804   0.797   2.317  11.100  2.7300 -0.5486 -4.2038
  970MOL0     H33805   0.930   2.036  11.110  0.1251  0.9258 -0.0903
  970MOL0     H33806   0.928   2.143  10.971 -2.1460  0.0132 -1.4200
  970MOL0     H33807   0.756   1.964  10.936 -0.2243  0.4661 -0.5699
  970MOL0     H33808   0.682   1.996  11.096  3.1681  1.1855  2.0640
  970MOL0     H33809   0.701   2.113  10.727  0.5186  0.1680  0.5354
  970MOL0     H33810   0.525   2.323  10.591 -1.0635  2.0524 -1.2418
  970MOL0     H33811   0.374   2.337  10.680 -1.2450 -1.6479 -2.8053
  970MOL0     H33812   0.484   2.107  10.527  1.6216 -1.9514  1.0872
  970MOL0     H33813   0.369   2.061  10.648  0.6682  0.6022  0.7125
  970MOL0     H33814   0.315   2.281  10.440 -3.1031 -0.4501 -2.3832
  970MOL0     H33815   0.273   2.106  10.412  1.8003  1.2323 -1.7729
  970MOL0     H33816   0.107   2.096  10.567  1.3712 -0.4681  0.8589
  970MOL0     H33817   0.171   2.228  10.666  3.2994  0.4889  0.0348
  970MOL0     H33818   0.179   2.487  10.611 -0.3162  2.0543 -0.0108
  970MOL0     H33819   0.030   2.718  10.853 -0.2363 -5.0985  2.5595
  970MOL0     H33820   0.073   2.779  10.694 -0.5260 -0.2891  0.7856
  970MOL0     H33821   0.186   2.673  10.793 -0.3963 -1.8374  1.3330
  970MOL0     H33822  -0.382   2.894  10.628 -3.0506  1.5628 -1.0601
  970MOL0     H33823  -0.586   3.015  10.614 -1.2012 -1.0275 -1.8041
  970MOL0     H33824  -0.954   2.803  10.691  0.3539 -0.7736 -0.1551
  970MOL0     H33825  -0.933   2.862  10.863  1.5429  0.8839  0.8236
  970MOL0     H33826  -1.024   3.077  10.835  0.5365  0.3449 -0.5449
  970MOL0     H33827  -1.031   3.056  10.658  0.8767  2.3703  0.8941
  970MOL0     H33828  -1.254   3.025  10.727  0.2367 -0.0325 -0.6354
  970MOL0     H33829  -1.202   2.949  10.877  2.9910  1.0683 -0.8785
  970MOL0     H33830  -1.169   2.732  10.753 -1.4903 -2.3726 -0.6924
  970MOL0     H33831  -1.167   2.808  10.596 -1.4972 -1.2522 -0.3780
  970MOL0     H33832  -1.405   2.794  10.777  1.5094  2.1918  2.6996
  970MOL0     H33833  -1.393   2.865  10.609 -1.4901 -2.9922 -1.3315
  970MOL0     H33834  -1.364   2.590  10.700 -1.1854 -1.7399 -1.5279
  970MOL0     H33835  -1.335   2.635  10.525 -0.8325 -2.7285  0.4967
  970MOL0     H33836  -1.578   2.700  10.526  0.3615 -1.2532 -0.4718
  970MOL0     H33837  -1.572   2.655  10.694  1.9426 -0.1038  1.9131
  970MOL0     H33838  -1.504   2.414  10.609  0.8856  1.5768  0.9108
  970MOL0     H33839  -1.525   2.465  10.439 -2.3803 -3.9617  0.3542
  970MOL0     H33840  -0.768   2.740  10.890 -3.1073  1.2353 -1.9397
  970MOL0     H33841  -0.543   2.631  10.915  1.0420 -0.0974 -0.3028
  970MOL0     H33842  -0.307   2.481  10.630  0.1293  0.0585  1.4903
  970MOL0     H33843  -0.181   2.304  10.506  0.0654 -0.4297  1.2381
  970MOL0     H33844   1.071   2.504  10.489 -1.4219  2.2062 -1.5207
  970MOL0     H33845   0.838   2.559  10.386  1.0571 -2.3279  0.1082
  970MOL0     H33846   0.403   2.545  10.412 -0.1507  0.7426 -2.4297
  970MOL0     H33847   0.191   2.621  10.309 -2.6865  2.0761  0.6447
  970MOL0     H33848  -0.038   2.889  10.529 -0.7506 -0.1488 -0.2503
  970MOL0     H33849   0.002   3.018  10.419  2.0927 -1.2589 -0.2001
  970MOL0     H33850  -0.227   2.826  10.408 -0.2339 -2.0255 -3.4228
  970MOL0     H33851  -0.168   2.894  10.257 -2.1937  2.1962 -0.2039
  970MOL0     H33852  -0.228   3.081  10.489  0.8416  1.1016 -0.5310
  970MOL0     H33853  -0.205   3.132  10.335  3.4713 -0.8127  1.9045
  970MOL0     H33854  -0.428   2.953  10.427 -0.0026 -0.9636 -0.7148
  970MOL0     H33855  -0.409   3.015  10.256  5.3560 -0.8345 -0.1437
  970MOL0     H33856  -0.540   3.359  10.472  1.5995  0.6089 -0.0007
  970MOL0     H33857   0.207   3.002  10.485  0.1270  0.9328 -1.6683
  970MOL0     H33858   0.472   2.960  10.706  0.3609  1.1193 -0.6671
  970MOL0     H33859   0.554   3.011  10.553  0.6412  1.7238  2.2647
  970MOL0     H33860   0.406   3.085  10.607 -0.6497  1.1587 -0.9261
  971MOL0     O33861   3.662   1.591  11.351 -0.9024 -0.6513 -0.1100
  971MOL0     C33862   3.601   1.487  11.367  0.8128 -0.2983 -0.0110
  971MOL0     O33863   3.466   1.487  11.385 -0.6084 -0.3238 -0.3966
  971MOL0     C33864   3.406   1.611  11.373  0.1110 -0.6472 -0.8056
  971MOL0     C33865   3.323   1.657  11.271  0.4918  0.1941  0.4504
  971MOL0     C33866   3.259   1.779  11.274 -0.3123  0.5743 -0.3291
  971MOL0     C33867   3.274   1.858  11.382  0.2637 -0.2156 -0.2149
  971MOL0     O33868   3.216   1.983  11.392  0.2597  0.0193  0.0643
  971MOL0     C33869   3.269   2.094  11.460 -0.5325 -0.8273  0.3522
  971MOL0     C33870   3.191   2.217  11.433  0.6688  0.2804  1.0217
  971MOL0     C33871   3.268   2.352  11.428  0.1829  0.4875 -0.7214
  971MOL0     C33872   3.172   2.470  11.406  0.7185  0.1804  1.0490
  971MOL0     C33873   3.246   2.595  11.392 -0.3178  0.9922 -0.1639
  971MOL0     C33874   3.153   2.703  11.349 -0.2201 -0.3097 -0.6588
  971MOL0     C33875   3.214   2.845  11.376  0.4973  0.3252 -0.0208
  971MOL0     C33876   3.096   2.940  11.368 -0.4266  0.6907 -0.4220
  971MOL0     N33877   3.146   3.073  11.380  0.7234  0.0067  0.1679
  971MOL0     C33878   3.164   3.130  11.499 -0.8024  0.1442  0.8699
  971MOL0     C33879   3.239   3.237  11.473 -0.0598 -0.1604 -0.6380
  971MOL0     C33880   3.272   3.344  11.583  0.1485 -0.5613  0.0939
  971MOL0     C33881   3.182   3.469  11.555 -0.4003  0.4420 -0.8050
  971MOL0     C33882   3.239   3.560  11.448  0.9125 -0.0397  0.6184
  971MOL0     C33883   3.141   3.664  11.387 -0.2359 -0.0533 -0.5521
  971MOL0     O33884   3.007   3.606  11.368  0.3177  0.1962 -0.5537
  971MOL0     C33885   2.984   3.576  11.238 -0.2239 -0.2275  0.3868
  971MOL0     C33886   3.064   3.491  11.154  0.4879 -0.4790 -0.5405
  971MOL0     C33887   3.034   3.486  11.016 -0.5083 -0.0306 -0.7079
  971MOL0     C33888   3.132   3.399  10.936 -0.2528  0.0860  0.2429
  971MOL0     C33889   2.924   3.553  10.963  0.7199  0.8402 -0.0663
  971MOL0     C33890   2.891   3.560  10.822  0.7497  0.1857  0.5762
  971MOL0     O33891   2.937   3.460  10.740  1.2308  0.2323 -0.2603
  971MOL0     C33892   2.866   3.427  10.632 -0.2455  0.3895 -0.2294
  971MOL0     C33893   2.843   3.518  10.523 -0.1834 -0.3636 -0.3193
  971MOL0     C33894   2.786   3.474  10.407 -0.2000 -0.1479 -0.3445
  971MOL0     C33895   2.756   3.334  10.387  0.6995 -0.3177 -0.2418
  971MOL0     O33896   2.701   3.298  10.270  0.4463  0.3687 -0.8715
  971MOL0     C33897   2.585   3.222  10.280  0.4607  0.6732 -0.1064
  971MOL0     C33898   2.540   3.173  10.148 -1.3016  0.9912 -0.0990
  971MOL0     C33899   2.633   3.059  10.087  0.1586 -0.2730  0.9583
  971MOL0     C33900   2.743   3.104   9.982  0.0301  0.4778 -0.3870
  971MOL0     C33901   2.822   3.238  10.006  0.1992  0.2447 -0.6081
  971MOL0     C33902   2.901   3.265   9.874 -0.3197 -0.5336 -0.1624
  971MOL0     C33903   3.024   3.181   9.861 -0.0961  0.8194  0.1932
  971MOL0     C33904   3.118   3.170   9.973 -0.3613  0.8486  0.0982
  971MOL0    Cl33905   3.293   3.170   9.910  0.0920  0.1704  0.1299
  971MOL0     C33906   2.775   3.247  10.501  0.2012 -0.3273  0.4304
  971MOL0     C33907   2.821   3.290  10.621  0.0086 -0.4030  0.0660
  971MOL0     O33908   2.830   3.650  10.781  0.0898 -0.9443 -0.0405
  971MOL0     C33909   2.841   3.628  11.052  0.4316 -0.7286  0.0195
  971MOL0     C33910   2.875   3.639  11.183  0.8414  1.1916  0.4756
  971MOL0     N33911   3.274   3.243  11.338  0.0024 -0.6005 -0.0336
  971MOL0     N33912   3.220   3.143  11.290 -0.0865  0.9247 -0.1250
  971MOL0     C33913   3.350   1.812  11.484  0.3196 -0.2938 -0.2562
  971MOL0     C33914   3.407   1.687  11.483  0.3397 -0.9022 -0.1653
  971MOL0     C33915   3.666   1.351  11.356 -0.5846  0.3204  0.8303
  971MOL0     C33916   3.779   1.323  11.277  0.0582 -0.4185  0.5539
  971MOL0     C33917   3.824   1.195  11.255 -0.3204  0.4478  1.1281
  971MOL0     C33918   3.793   1.093  11.343 -0.6709 -1.0998 -0.3661
  971MOL0     O33919   3.834   0.959  11.340  0.2184  0.2779  0.0879
  971MOL0     C33920   3.957   0.925  11.268  0.6090 -1.4756 -0.4191
  971MOL0     C33921   4.083   0.990  11.339 -0.1334  0.2729  0.0820
  971MOL0     C33922   4.195   1.013  11.243  0.2957  0.0314 -0.1732
  971MOL0     C33923   4.166   1.087  11.105  0.3789 -0.6433 -0.1255
  971MOL0     C33924   4.294   1.132  11.044 -0.1686 -0.8488  0.4319
  971MOL0     C33925   4.385   1.157  10.966 -0.5578  0.4548 -0.2268
  971MOL0     C33926   3.697   1.123  11.437 -0.4864 -0.0745 -0.9864
  971MOL0     C33927   3.625   1.241  11.439  0.2473 -0.0438  0.3517
  971MOL0     C33928   3.516   1.258  11.542 -0.5325  0.5478  0.3538
  971MOL0     H33929   3.303   1.588  11.190  0.7281 -0.5936  1.0557
  971MOL0     H33930   3.210   1.814  11.183  0.9365 -0.4217 -1.4238
  971MOL0     H33931   3.373   2.101  11.427 -1.2162 -1.5878 -2.2367
  971MOL0     H33932   3.268   2.071  11.567 -0.2312 -0.0339  0.5283
  971MOL0     H33933   3.136   2.214  11.339 -2.0875 -0.3416  2.5484
  971MOL0     H33934   3.114   2.219  11.511 -1.1285 -0.1525 -0.6899
  971MOL0     H33935   3.322   2.375  11.520 -1.2993  5.3386 -0.7519
  971MOL0     H33936   3.341   2.354  11.346 -0.1024 -0.0897 -1.0016
  971MOL0     H33937   3.131   2.451  11.306  2.3839  1.6556  0.0283
  971MOL0     H33938   3.097   2.472  11.486  2.0936 -2.3505  2.5274
  971MOL0     H33939   3.329   2.583  11.321 -1.2606  1.4681 -1.3736
  971MOL0     H33940   3.298   2.618  11.485 -1.2962 -1.9319  1.2344
  971MOL0     H33941   3.115   2.687  11.248 -0.8507 -1.9038 -0.1993
  971MOL0     H33942   3.062   2.692  11.409 -0.8374  3.8716 -0.5429
  971MOL0     H33943   3.296   2.859  11.305 -1.0193  0.8716 -1.7737
  971MOL0     H33944   3.250   2.846  11.479 -0.3930 -0.4142  0.3152
  971MOL0     H33945   3.048   2.928  11.270 -2.8503  1.0715  0.6455
  971MOL0     H33946   3.022   2.925  11.447  3.0940  0.0178  3.0063
  971MOL0     H33947   3.118   3.108  11.595  1.4577 -0.3795  1.8936
  971MOL0     H33948   3.374   3.377  11.566 -0.4475  1.8327  0.7659
  971MOL0     H33949   3.260   3.307  11.685 -6.1433 -2.4024 -0.8756
  971MOL0     H33950   3.079   3.434  11.544 -0.8014 -0.2183  3.4296
  971MOL0     H33951   3.181   3.525  11.649 -4.4138 -1.9470  0.8096
  971MOL0     H33952   3.327   3.612  11.487  1.6716  0.1437 -1.2219
  971MOL0     H33953   3.269   3.497  11.364 -2.2969  0.6894 -1.2335
  971MOL0     H33954   3.135   3.741  11.465  2.4077  1.2264 -1.4731
  971MOL0     H33955   3.184   3.710  11.298 -0.5526 -0.6327 -1.0108
  971MOL0     H33956   3.147   3.439  11.201 -0.4799 -1.8175 -0.2476
  971MOL0     H33957   3.100   3.296  10.951 -0.7611 -0.1090 -1.8330
  971MOL0     H33958   3.232   3.420  10.975 -0.4004  1.2471  0.0533
  971MOL0     H33959   3.133   3.424  10.829 -0.8977 -2.7250 -0.5082
  971MOL0     H33960   2.882   3.619  10.529 -1.2387  0.0936 -0.8199
  971MOL0     H33961   2.774   3.531  10.316  1.1519 -0.6850 -0.8876
  971MOL0     H33962   2.598   3.146  10.357 -5.9730  2.6782  3.7460
  971MOL0     H33963   2.501   3.276  10.324 -0.6430 -0.9655 -0.1307
  971MOL0     H33964   2.438   3.134  10.155 -0.7634 -0.6922 -1.1074
  971MOL0     H33965   2.526   3.264  10.089 -2.1323  1.5653  0.9658
  971MOL0     H33966   2.569   2.983  10.041  0.1870  0.8728 -1.0814
  971MOL0     H33967   2.684   3.023  10.177  1.6267  0.5643  0.5058
  971MOL0     H33968   2.691   3.098   9.886 -2.2892 -1.7897  0.8668
  971MOL0     H33969   2.820   3.026   9.976 -0.3424  0.0152  0.5971
  971MOL0     H33970   2.750   3.317  10.033 -1.5505 -1.0934 -1.1250
  971MOL0     H33971   2.884   3.237  10.096 -0.7550  0.0313  0.0609
  971MOL0     H33972   2.940   3.367   9.887  1.5570 -1.1571 -0.6625
  971MOL0     H33973   2.836   3.254   9.786  1.5929 -2.7449 -1.4054
  971MOL0     H33974   3.089   3.224   9.784  5.0197 -2.1438  2.4449
  971MOL0     H33975   2.978   3.088   9.827 -0.1213  0.0249  2.3226
  971MOL0     H33976   3.110   3.076  10.027  1.1832  0.3743 -0.4654
  971MOL0     H33977   3.112   3.261  10.034  1.3982  1.2983 -0.3353
  971MOL0     H33978   2.750   3.143  10.483  0.5261 -0.0383 -2.1747
  971MOL0     H33979   2.842   3.226  10.706 -0.3565  0.9225  1.2007
  971MOL0     H33980   2.756   3.683  11.015  1.5652  0.6285 -0.6578
  971MOL0     H33981   2.805   3.695  11.245  2.3756  4.6027 -0.6485
  971MOL0     H33982   3.346   1.871  11.575 -0.3881 -0.4770 -0.1572
  971MOL0     H33983   3.460   1.655  11.573  0.4390  0.6994  0.3784
  971MOL0     H33984   3.813   1.397  11.205 -2.0298 -0.3121 -0.3839
  971MOL0     H33985   3.877   1.167  11.164 -0.6478 -0.6615  1.2701
  971MOL0     H33986   3.970   0.817  11.274 -0.2917 -1.5957 -0.4061
  971MOL0     H33987   3.941   0.940  11.160 -2.0564 -0.3113  0.0674
  971MOL0     H33988   4.119   0.935  11.427  1.8803  1.3321 -0.0112
  971MOL0     H33989   4.062   1.087  11.385  0.4212  1.1275 -1.4010
  971MOL0     H33990   4.275   1.067  11.294  0.3640 -0.1136 -0.1298
  971MOL0     H33991   4.233   0.912  11.229  0.9779  0.2820 -0.1748
  971MOL0     H33992   4.095   1.169  11.117  0.2567 -0.5592 -1.2678
  971MOL0     H33993   4.120   1.018  11.034 -3.8987  2.4229 -0.7139
  971MOL0     H33994   4.450   1.182  10.884  0.3049  1.5144  0.7514
  971MOL0     H33995   3.679   1.055  11.520  1.9147 -2.0905 -1.9963
  971MOL0     H33996   3.518   1.355  11.592 -2.0019  1.5389 -1.3844
  971MOL0     H33997   3.415   1.250  11.500 -1.0262 -2.5430  1.8301
  971MOL0     H33998   3.511   1.180  11.619 -0.0933  0.8542  0.6937
  972MOL0     O33999  11.446   9.050   9.487 -0.3232 -0.8859  0.1137
  972MOL0     C34000  11.508   8.951   9.464  0.5686  0.1030 -0.0797
  972MOL0     O34001  11.574   8.876   9.561 -0.5552  1.1694  0.2981
  972MOL0     C34002  11.567   8.924   9.691  0.1245 -0.0845  0.8796
  972MOL0     C34003  11.452   8.893   9.767 -0.2629  0.5263  0.1290
  972MOL0     C34004  11.446   8.920   9.901 -0.1469  0.0212 -0.0211
  972MOL0     C34005  11.540   8.999   9.966 -0.1778  0.5964  0.3627
  972MOL0     O34006  11.507   9.026  10.099 -0.1907  0.2449 -0.1350
  972MOL0     C34007  11.585   9.129  10.160 -0.0367  0.1870  0.2504
  972MOL0     C34008  11.524   9.164  10.286 -0.1706  0.1602 -0.0434
  972MOL0     C34009  11.592   9.284  10.348 -0.3352 -0.4764  0.7068
  972MOL0     C34010  11.540   9.324  10.490 -1.1788 -0.4374  0.8238
  972MOL0     C34011  11.600   9.457  10.530  1.1537  0.1350 -0.1341
  972MOL0     C34012  11.571   9.471  10.679  0.6606  0.2786  1.0452
  972MOL0     C34013  11.542   9.617  10.713 -0.4896  0.0017  0.3611
  972MOL0     C34014  11.678   9.706  10.703  0.1563  0.0271  0.3621
  972MOL0     N34015  11.661   9.846  10.753  0.1519  0.2943 -0.4537
  972MOL0     C34016  11.640   9.877  10.886 -0.3390  0.6062 -0.7630
  972MOL0     C34017  11.603  10.012  10.876  0.3692  0.8132 -0.4537
  972MOL0     C34018  11.567  10.100  10.989 -0.9047 -0.0757  0.8443
  972MOL0     C34019  11.626  10.245  10.967 -0.6983 -0.4280 -0.4219
  972MOL0     C34020  11.568  10.352  11.068 -0.0104 -0.3645  0.5575
  972MOL0     C34021  11.579  10.297  11.208  0.5272 -0.2955  0.5691
  972MOL0     O34022  11.552  10.410  11.299  0.0418 -0.4173  0.6493
  972MOL0     C34023  11.427  10.419  11.349  0.2934  1.1755 -0.6097
  972MOL0     C34024  11.306  10.379  11.295  0.3413 -0.3912  0.0573
  972MOL0     C34025  11.185  10.390  11.359  0.6844  0.8260  1.3412
  972MOL0     C34026  11.074  10.326  11.283  0.2250  0.4602 -0.1854
  972MOL0     C34027  11.168  10.447  11.488  0.2220 -0.4190 -0.8215
  972MOL0     C34028  11.044  10.455  11.573 -0.5178  0.2151  1.0949
  972MOL0     O34029  11.061  10.504  11.698  0.2029 -0.6064 -0.5080
  972MOL0     C34030  10.970  10.462  11.786  0.5064  1.0253  0.1464
  972MOL0     C34031  10.986  10.328  11.837  0.2135  0.6591 -0.2157
  972MOL0     C34032  10.892  10.279  11.930 -0.6214 -0.7922  0.8961
  972MOL0     C34033  10.775  10.362  11.963 -0.1369  0.7790 -0.3646
  972MOL0     O34034  10.692  10.290  12.034  0.6022 -0.3206  0.1431
  972MOL0     C34035  10.555  10.338  12.047  0.0862  0.6580  0.4761
  972MOL0     C34036  10.499  10.318  12.185  0.6906 -0.1294  0.0817
  972MOL0     C34037  10.589  10.372  12.292  0.6349  0.1686 -0.6028
  972MOL0     C34038  10.495  10.415  12.413 -0.3236 -0.0120 -0.5151
  972MOL0     C34039  10.577  10.489  12.521  0.8771 -0.7718  0.3430
  972MOL0     C34040  10.694  10.412  12.575  0.0501  0.2714 -0.0709
  972MOL0     C34041  10.654  10.273  12.638 -0.3941 -0.7950 -0.7700
  972MOL0     C34042  10.562  10.269  12.760 -0.0104  0.0755 -0.3896
  972MOL0    Cl34043  10.391  10.282  12.712 -0.2035  0.2978 -0.8193
  972MOL0     C34044  10.765  10.492  11.925  0.6815 -0.1066  0.3109
  972MOL0     C34045  10.869  10.547  11.837  0.4284 -0.1951  0.7718
  972MOL0     O34046  10.944  10.405  11.524 -0.1499 -0.3923 -0.0338
  972MOL0     C34047  11.295  10.478  11.552 -0.6167  0.9064 -0.7061
  972MOL0     C34048  11.426  10.469  11.482  0.6973  0.5607 -0.2208
  972MOL0     N34049  11.602  10.048  10.749 -0.2403  0.2955 -0.3958
  972MOL0     N34050  11.636   9.949  10.676 -0.5594  0.2985  0.7683
  972MOL0     C34051  11.655   9.032   9.891  0.8829 -0.1893 -0.3673
  972MOL0     C34052  11.667   8.996   9.758 -0.1555 -0.3097  0.4572
  972MOL0     C34053  11.524   8.900   9.322 -0.5932  0.6645  0.8691
  972MOL0     C34054  11.623   8.806   9.291 -0.1064  0.0365 -0.6266
  972MOL0     C34055  11.629   8.739   9.168 -0.7251 -0.5698  0.5787
  972MOL0     C34056  11.556   8.785   9.060 -0.3863  0.3978 -0.1553
  972MOL0     O34057  11.563   8.711   8.944  0.5130 -0.0501  0.1483
  972MOL0     C34058  11.534   8.782   8.820  0.4814  0.5651  0.1595
  972MOL0     C34059  11.594   8.702   8.709 -0.4394 -1.5046 -0.0630
  972MOL0     C34060  11.524   8.572   8.681  0.5217 -0.4291 -0.1171
  972MOL0     C34061  11.597   8.480   8.586 -0.3631 -0.7385 -0.2026
  972MOL0     C34062  11.739   8.453   8.616 -0.8003  0.9083  0.1713
  972MOL0     C34063  11.857   8.438   8.636  0.3656 -0.7062 -0.5534
  972MOL0     C34064  11.470   8.896   9.086  0.2978  0.5552  0.3226
  972MOL0     C34065  11.455   8.955   9.207  0.6041  0.1258 -0.8005
  972MOL0     C34066  11.363   9.074   9.214 -0.3273 -0.0091 -0.2554
  972MOL0     H34067  11.369   8.851   9.711  1.1193 -1.6524 -0.4098
  972MOL0     H34068  11.354   8.898   9.954  1.0099 -0.0578  2.0779
  972MOL0     H34069  11.572   9.222  10.104 -2.5056 -0.2434  0.0100
  972MOL0     H34070  11.690   9.104  10.176  1.4361  2.1329 -4.5035
  972MOL0     H34071  11.423   9.196  10.258  0.7988  1.8451 -1.8372
  972MOL0     H34072  11.514   9.081  10.356 -0.3279  1.5077  1.6192
  972MOL0     H34073  11.699   9.266  10.358 -0.1622  0.7023  1.1671
  972MOL0     H34074  11.569   9.378  10.297 -3.3600 -0.4739  1.8430
  972MOL0     H34075  11.432   9.329  10.477 -0.8462  2.6113 -2.2974
  972MOL0     H34076  11.570   9.243  10.556 -1.2050 -0.4110  0.8687
  972MOL0     H34077  11.543   9.531  10.473  0.0369  0.6101  1.5092
  972MOL0     H34078  11.707   9.465  10.509  3.0064 -2.8022  5.8836
  972MOL0     H34079  11.486   9.422  10.727  0.3516  0.7949  1.0320
  972MOL0     H34080  11.657   9.425  10.730 -1.0380 -1.1851  2.7566
  972MOL0     H34081  11.504   9.628  10.815 -1.3824  1.5824 -0.1106
  972MOL0     H34082  11.461   9.651  10.647 -0.2555 -0.4353 -0.1566
  972MOL0     H34083  11.764   9.666  10.758  1.6358  4.0701  1.3410
  972MOL0     H34084  11.705   9.708  10.597  2.2923  0.0777  0.8630
  972MOL0     H34085  11.663   9.828  10.980 -1.8696  2.9252  0.9386
  972MOL0     H34086  11.609  10.059  11.082  0.0693  0.3993  0.6261
  972MOL0     H34087  11.459  10.108  11.004 -1.4207  2.3342 -2.8252
  972MOL0     H34088  11.734  10.252  10.952 -0.6792 -0.2713 -0.2095
  972MOL0     H34089  11.599  10.277  10.866  0.3527 -1.6645 -1.1319
  972MOL0     H34090  11.627  10.444  11.073 -1.3530  0.6502 -1.2055
  972MOL0     H34091  11.469  10.371  11.027  0.0095  0.9159  1.0885
  972MOL0     H34092  11.503  10.219  11.220  0.1627 -0.1881 -0.7953
  972MOL0     H34093  11.676  10.248  11.221  0.5828 -0.8536 -1.4659
  972MOL0     H34094  11.306  10.335  11.196  3.5784  1.7393 -1.0541
  972MOL0     H34095  11.045  10.240  11.345  2.3940 -0.2789 -0.1083
  972MOL0     H34096  11.110  10.278  11.192  3.6137  0.0720  1.2101
  972MOL0     H34097  10.993  10.394  11.256  0.1346  0.7566  0.7951
  972MOL0     H34098  11.062  10.254  11.816 -0.3476 -0.2344  0.7653
  972MOL0     H34099  10.897  10.175  11.960  0.0233 -0.0851  3.4832
  972MOL0     H34100  10.535  10.444  12.030  0.3798  0.9135  1.6228
  972MOL0     H34101  10.504  10.274  11.975  0.8660 -1.0742  1.3940
  972MOL0     H34102  10.404  10.372  12.186  1.8258  2.0069  1.1286
  972MOL0     H34103  10.488  10.214  12.217  2.1454 -0.0385  1.0190
  972MOL0     H34104  10.637  10.462  12.252 -2.0349  2.4816  0.9879
  972MOL0     H34105  10.659  10.295  12.324  1.2451  1.6327  1.8164
  972MOL0     H34106  10.451  10.320  12.445 -1.5505  0.7351  0.1064
  972MOL0     H34107  10.418  10.481  12.373 -1.3363 -0.7542  0.1504
  972MOL0     H34108  10.610  10.586  12.484 -2.1689  0.8551  1.5242
  972MOL0     H34109  10.514  10.507  12.608 -0.3790  1.0715 -0.8639
  972MOL0     H34110  10.756  10.461  12.650  0.2507  0.5185 -0.3977
  972MOL0     H34111  10.773  10.402  12.501 -0.4431 -1.3528 -0.4212
  972MOL0     H34112  10.754  10.233  12.656  1.4251  3.6677  0.2970
  972MOL0     H34113  10.610  10.208  12.561  2.0750 -0.1326 -2.8784
  972MOL0     H34114  10.577  10.360  12.819  0.5488 -0.8208  0.8830
  972MOL0     H34115  10.572  10.177  12.818  0.1684  1.3293  1.6480
  972MOL0     H34116  10.687  10.564  11.946  0.6942  0.7255 -2.1591
  972MOL0     H34117  10.846  10.646  11.797 -0.3822  1.5636  5.0030
  972MOL0     H34118  11.289  10.508  11.656 -0.2809 -0.8560 -0.1385
  972MOL0     H34119  11.523  10.487  11.528  1.0926 -1.6551 -0.0956
  972MOL0     H34120  11.744   9.080   9.931  2.1542 -2.2305 -0.5768
  972MOL0     H34121  11.753   9.033   9.703  0.1407 -0.9956  0.4418
  972MOL0     H34122  11.694   8.781   9.369  0.4220 -0.2263 -1.1851
  972MOL0     H34123  11.708   8.666   9.148 -1.1351 -0.0314 -3.9024
  972MOL0     H34124  11.426   8.789   8.806  0.5805 -0.4275 -1.3869
  972MOL0     H34125  11.583   8.880   8.817 -1.1249  1.4032  0.4758
  972MOL0     H34126  11.697   8.687   8.743 -1.0360 -3.8030  0.9638
  972MOL0     H34127  11.603   8.780   8.633 -0.8110  1.4280  2.6949
  972MOL0     H34128  11.514   8.520   8.777  2.2070 -3.3459 -1.4083
  972MOL0     H34129  11.425   8.582   8.636 -0.5860 -2.0734  1.7614
  972MOL0     H34130  11.580   8.506   8.481 -2.7257  0.0508  0.3114
  972MOL0     H34131  11.551   8.381   8.593 -0.8591 -0.3901  1.9891
  972MOL0     H34132  11.963   8.421   8.638  0.9099  2.1962  1.5077
  972MOL0     H34133  11.425   8.935   8.995 -3.1811 -2.4687  0.4949
  972MOL0     H34134  11.406   9.156   9.273 -1.4988  0.6343 -0.2709
  972MOL0     H34135  11.319   9.113   9.122 -4.9096 -3.7739 -0.0478
  972MOL0     H34136  11.269   9.043   9.261  0.4153 -0.3068  1.0882
  973MOL0     O34137   7.075   9.259   5.825  0.3369 -0.0330 -0.5136
  973MOL0     C34138   7.123   9.161   5.896  0.7434  0.5519  0.3666
  973MOL0     O34139   7.077   9.124   6.021 -0.8209  0.4837  0.1821
  973MOL0     C34140   6.956   9.177   6.053 -0.2944  0.0523  1.1169
  973MOL0     C34141   6.839   9.135   5.997  0.2419 -0.2237  0.5389
  973MOL0     C34142   6.715   9.187   6.046 -0.8111 -0.8856 -0.2135
  973MOL0     C34143   6.710   9.278   6.152  0.2808 -0.3830 -0.7855
  973MOL0     O34144   6.589   9.332   6.189 -0.1731  0.2102 -0.6487
  973MOL0     C34145   6.600   9.466   6.218  0.7601 -0.3469  0.2305
  973MOL0     C34146   6.457   9.540   6.233 -0.4203 -0.8876  0.3009
  973MOL0     C34147   6.375   9.502   6.349 -0.2265 -0.3820 -0.2555
  973MOL0     C34148   6.244   9.573   6.382  0.3777  0.7442 -0.1849
  973MOL0     C34149   6.157   9.512   6.494 -0.1670 -0.1724  0.1577
  973MOL0     C34150   6.034   9.600   6.532 -0.5708 -0.3448 -0.5570
  973MOL0     C34151   6.062   9.740   6.598 -0.0479  0.5811  0.5876
  973MOL0     C34152   6.106   9.730   6.746  0.1981  0.3352 -1.0155
  973MOL0     N34153   6.007   9.668   6.819  0.2999  0.6671 -0.3763
  973MOL0     C34154   5.883   9.717   6.844  0.1050 -0.4239 -0.0354
  973MOL0     C34155   5.819   9.617   6.906 -0.1956 -0.0455 -0.0640
  973MOL0     C34156   5.684   9.605   6.971  0.4612  0.2715  0.1631
  973MOL0     C34157   5.583   9.508   6.901 -0.3807 -0.2570  0.6496
  973MOL0     C34158   5.435   9.540   6.925  0.5807  0.8011 -1.0848
  973MOL0     C34159   5.336   9.504   6.812 -0.2294 -0.1200  0.5668
  973MOL0     O34160   5.230   9.592   6.806 -0.0677 -0.5909  0.8540
  973MOL0     C34161   5.134   9.551   6.713 -0.2813  0.3344  1.0409
  973MOL0     C34162   5.141   9.435   6.632 -0.2819 -0.1675  0.5548
  973MOL0     C34163   5.042   9.396   6.536  0.7602  0.4828 -0.9721
  973MOL0     C34164   5.067   9.274   6.452 -0.6643  0.0873  0.4727
  973MOL0     C34165   4.922   9.475   6.527 -1.0303 -0.2218  0.1238
  973MOL0     C34166   4.821   9.443   6.435 -0.0093  0.1397 -0.0337
  973MOL0     O34167   4.816   9.322   6.380  0.0778 -0.0914  0.3936
  973MOL0     C34168   4.695   9.294   6.314  1.1030  0.2165 -0.0962
  973MOL0     C34169   4.696   9.262   6.176  0.7756  0.8694  0.9414
  973MOL0     C34170   4.583   9.248   6.106  0.9168  0.3707  0.2919
  973MOL0     C34171   4.455   9.258   6.170 -0.4687 -0.0419 -0.1961
  973MOL0     O34172   4.346   9.239   6.101 -0.4339  0.5541 -0.5505
  973MOL0     C34173   4.301   9.336   6.005 -0.6397  0.0921  0.7678
  973MOL0     C34174   4.159   9.312   5.968  0.0884 -0.2098  0.4045
  973MOL0     C34175   4.083   9.216   6.070  0.1458  0.4611 -0.2683
  973MOL0     C34176   3.939   9.209   6.038 -0.7966  0.2308 -0.0740
  973MOL0     C34177   3.880   9.102   6.129 -0.5136  0.5519  0.2588
  973MOL0     C34178   3.729   9.089   6.132  0.4615 -0.1139  0.6306
  973MOL0     C34179   3.663   9.034   6.006  0.4479 -0.2254 -1.0710
  973MOL0     C34180   3.515   9.069   6.036 -1.1482  0.2147  0.3242
  973MOL0    Cl34181   3.481   9.250   6.037 -0.3430  0.1124 -0.1054
  973MOL0     C34182   4.454   9.286   6.311 -0.4757  0.0558 -0.2998
  973MOL0     C34183   4.573   9.301   6.378 -0.6090  0.0367 -1.5389
  973MOL0     O34184   4.740   9.534   6.415 -0.2894 -0.4847 -0.4250
  973MOL0     C34185   4.916   9.601   6.604 -0.5313  0.9678  0.2446
  973MOL0     C34186   5.025   9.632   6.691 -0.1973 -0.5720 -0.8275
  973MOL0     N34187   5.913   9.524   6.936  0.3500 -0.5189 -0.1899
  973MOL0     N34188   6.032   9.554   6.890  0.1263  0.1274  0.3586
  973MOL0     C34189   6.832   9.308   6.211 -0.2659  0.7151  0.1692
  973MOL0     C34190   6.954   9.263   6.159  0.5794  1.1081  0.3020
  973MOL0     C34191   7.254   9.088   5.857 -0.8906  0.2009 -0.3349
  973MOL0     C34192   7.284   8.968   5.929 -0.3592  0.4149  0.5168
  973MOL0     C34193   7.404   8.894   5.906 -0.0640  0.0954  0.1717
  973MOL0     C34194   7.494   8.937   5.814 -0.1097 -0.0795 -0.8765
  973MOL0     O34195   7.607   8.867   5.782  0.1542 -0.0404 -0.3107
  973MOL0     C34196   7.612   8.720   5.801  0.3830  0.5653  0.4159
  973MOL0     C34197   7.678   8.642   5.688 -0.8396  0.6052 -0.3243
  973MOL0     C34198   7.819   8.670   5.652  0.2857  0.3941  0.3753
  973MOL0     C34199   7.851   8.645   5.507 -0.0445 -0.0623  0.3837
  973MOL0     C34200   7.812   8.516   5.444 -0.3154  0.0118 -0.6027
  973MOL0     C34201   7.781   8.404   5.397 -0.6214  0.3227 -1.0687
  973MOL0     C34202   7.474   9.060   5.753  0.3771 -0.2305  0.5472
  973MOL0     C34203   7.353   9.135   5.766 -1.1045  0.6583  0.2030
  973MOL0     C34204   7.338   9.259   5.690  0.3617  0.3296  0.3430
  973MOL0     H34205   6.837   9.065   5.914 -1.1101  0.4627 -0.0205
  973MOL0     H34206   6.628   9.170   5.984  1.8287 -1.4704 -4.2160
  973MOL0     H34207   6.654   9.512   6.134  1.6296 -0.4509  0.7234
  973MOL0     H34208   6.658   9.484   6.309  1.3667  0.8673 -0.3627
  973MOL0     H34209   6.467   9.648   6.221  0.3317 -1.1219 -1.5256
  973MOL0     H34210   6.387   9.505   6.157 -0.3584  0.8774 -0.6065
  973MOL0     H34211   6.348   9.396   6.344 -1.7854 -0.1048  1.1754
  973MOL0     H34212   6.447   9.512   6.431  2.1382  0.0957 -2.2544
  973MOL0     H34213   6.269   9.677   6.404 -1.4421  0.7209  2.4638
  973MOL0     H34214   6.187   9.565   6.289 -1.1065 -1.0763  0.8096
  973MOL0     H34215   6.224   9.520   6.580 -1.1819  0.2914  0.9179
  973MOL0     H34216   6.134   9.407   6.472  1.4398 -0.4432 -0.3424
  973MOL0     H34217   5.970   9.613   6.444 -1.1878 -0.0562 -0.0753
  973MOL0     H34218   5.977   9.536   6.600  0.6336 -1.4488 -0.5580
  973MOL0     H34219   5.969   9.796   6.583 -0.8922 -0.8868  0.0569
  973MOL0     H34220   6.134   9.796   6.537 -1.3626 -0.6581 -2.3042
  973MOL0     H34221   6.197   9.670   6.748 -0.9409 -1.4531 -0.5969
  973MOL0     H34222   6.127   9.829   6.789  0.9347 -0.5959  0.8572
  973MOL0     H34223   5.833   9.808   6.814 -3.5762 -2.8912 -2.1177
  973MOL0     H34224   5.636   9.704   6.965 -0.5975 -0.0896  2.1552
  973MOL0     H34225   5.702   9.565   7.071 -2.4605 -1.6396  0.0339
  973MOL0     H34226   5.603   9.530   6.796  2.3989  4.0451  1.8007
  973MOL0     H34227   5.601   9.402   6.917 -2.6664 -0.8261 -0.1273
  973MOL0     H34228   5.407   9.492   7.019  1.9005  0.1488 -1.0048
  973MOL0     H34229   5.426   9.649   6.938  0.9934  0.9855 -2.2322
  973MOL0     H34230   5.385   9.503   6.715  1.0893  0.8313  1.1877
  973MOL0     H34231   5.296   9.404   6.833 -2.8169  0.6343 -0.4742
  973MOL0     H34232   5.229   9.372   6.628  0.8504  1.4032 -3.5313
  973MOL0     H34233   5.167   9.232   6.455  0.7869  2.7862 -2.7141
  973MOL0     H34234   5.061   9.287   6.343 -0.0406 -0.7715  0.3343
  973MOL0     H34235   4.993   9.207   6.496 -1.7530  0.8840 -0.0902
  973MOL0     H34236   4.793   9.258   6.127  1.4417 -2.2554  2.2761
  973MOL0     H34237   4.584   9.227   6.000 -4.7196 -2.5371  0.4266
  973MOL0     H34238   4.306   9.436   6.048  1.9749  0.5630 -0.4391
  973MOL0     H34239   4.364   9.338   5.915 -1.6589  1.7891  0.0577
  973MOL0     H34240   4.106   9.407   5.973 -0.0597 -0.3325  1.3001
  973MOL0     H34241   4.169   9.269   5.868 -0.2857  0.0510  0.2514
  973MOL0     H34242   4.094   9.256   6.171  2.8442  0.9700 -0.6888
  973MOL0     H34243   4.120   9.114   6.059 -0.2301  0.2651  0.2634
  973MOL0     H34244   3.924   9.190   5.931  1.1647 -2.0146 -0.0260
  973MOL0     H34245   3.889   9.300   6.074 -1.2706 -0.5465  1.3190
  973MOL0     H34246   3.930   9.006   6.110  1.8977  0.9346  3.6659
  973MOL0     H34247   3.897   9.138   6.230 -1.7271  1.1949  0.2530
  973MOL0     H34248   3.690   9.187   6.161 -2.4669 -1.0020 -0.0148
  973MOL0     H34249   3.712   9.025   6.219 -0.3267 -2.4084 -1.1001
  973MOL0     H34250   3.678   8.926   5.998 -0.6268 -0.2764 -2.9270
  973MOL0     H34251   3.696   9.087   5.916  0.0865  2.3407  0.2129
  973MOL0     H34252   3.497   9.024   6.134  1.4907 -1.8704 -0.0423
  973MOL0     H34253   3.453   9.017   5.962  1.7486 -1.8505 -0.8145
  973MOL0     H34254   4.360   9.298   6.363  0.3797  3.3614  0.7566
  973MOL0     H34255   4.580   9.314   6.486  0.8373  0.8253 -1.7107
  973MOL0     H34256   4.836   9.675   6.599  0.6190  2.1861 -1.4456
  973MOL0     H34257   5.010   9.721   6.750 -4.0003 -1.5022 -0.1306
  973MOL0     H34258   6.834   9.371   6.299  0.3981  0.5735  0.2569
  973MOL0     H34259   7.048   9.281   6.211  2.4087  0.3181 -2.5030
  973MOL0     H34260   7.218   8.936   6.008  0.5793 -0.2210  1.0553
  973MOL0     H34261   7.415   8.807   5.969 -1.3194 -0.7795 -0.7665
  973MOL0     H34262   7.666   8.686   5.889  0.1249 -1.7307 -0.2361
  973MOL0     H34263   7.509   8.682   5.804  0.4333  0.3167 -0.5332
  973MOL0     H34264   7.628   8.682   5.599  2.0671  4.0841 -0.6328
  973MOL0     H34265   7.669   8.536   5.714 -2.3369  0.5120 -1.1603
  973MOL0     H34266   7.851   8.770   5.683 -1.5224  1.6925 -1.6257
  973MOL0     H34267   7.885   8.605   5.710  0.6814  1.4868  1.1937
  973MOL0     H34268   7.956   8.669   5.492 -0.5464  1.1444 -1.4700
  973MOL0     H34269   7.790   8.719   5.455  0.4542 -0.6115 -1.0254
  973MOL0     H34270   7.744   8.307   5.369  0.5881  0.1006 -1.9873
  973MOL0     H34271   7.561   9.100   5.701 -0.8149  0.3458 -1.0999
  973MOL0     H34272   7.434   9.278   5.641  0.2224 -1.8103 -0.8879
  973MOL0     H34273   7.265   9.241   5.610 -0.2436 -1.6901  1.2806
  973MOL0     H34274   7.314   9.341   5.759  1.1128 -2.7254  4.6938
  974MOL0     O34275   5.353   2.664   3.327  0.4099 -0.0547 -0.5225
  974MOL0     C34276   5.342   2.691   3.209  0.2375  0.1804 -0.7037
  974MOL0     O34277   5.294   2.809   3.165 -0.3934 -0.0003 -0.0107
  974MOL0     C34278   5.232   2.893   3.252 -0.5336 -0.1082 -0.3194
  974MOL0     C34279   5.113   2.851   3.318  0.5599 -0.4315 -0.0734
  974MOL0     C34280   5.061   2.945   3.406 -0.5273 -0.3870 -0.1482
  974MOL0     C34281   5.107   3.075   3.429 -0.3981 -0.1029 -1.3167
  974MOL0     O34282   5.047   3.165   3.517 -0.0988  0.0928  0.8572
  974MOL0     C34283   4.966   3.265   3.452  0.1664  0.6373 -0.0297
  974MOL0     C34284   4.854   3.325   3.538 -0.2210 -0.0767  0.1749
  974MOL0     C34285   4.893   3.379   3.669 -0.0668  0.7571 -0.2006
  974MOL0     C34286   4.768   3.407   3.745 -0.7631  0.2745  0.4931
  974MOL0     C34287   4.799   3.444   3.885 -0.2592 -0.0649 -1.3223
  974MOL0     C34288   4.679   3.418   3.979  0.5677  0.4632 -0.2890
  974MOL0     C34289   4.724   3.423   4.125  0.7954  0.2841 -0.2047
  974MOL0     C34290   4.597   3.421   4.209  0.2019 -0.4029 -0.5416
  974MOL0     N34291   4.519   3.301   4.197 -0.6451 -0.1905 -0.2158
  974MOL0     C34292   4.562   3.179   4.227 -0.3852 -0.2468  0.4355
  974MOL0     C34293   4.482   3.103   4.149  0.4247 -0.5370 -0.0445
  974MOL0     C34294   4.470   2.952   4.135 -0.0194  0.4684  1.2507
  974MOL0     C34295   4.377   2.892   4.233  0.5044 -0.1539 -0.2646
  974MOL0     C34296   4.343   2.749   4.205  0.1437 -0.0171  0.5390
  974MOL0     C34297   4.458   2.651   4.217 -0.6915  1.1900 -0.1362
  974MOL0     O34298   4.557   2.664   4.108 -0.0919  0.4375  0.2267
  974MOL0     C34299   4.528   2.588   3.992  0.0313  0.2782  0.3732
  974MOL0     C34300   4.467   2.465   3.984 -0.3277  0.5307  1.0605
  974MOL0     C34301   4.441   2.391   3.862 -0.3474 -0.3327 -0.4878
  974MOL0     C34302   4.353   2.269   3.872  0.4609  0.1644  0.7901
  974MOL0     C34303   4.472   2.453   3.741  0.3627 -0.4272 -0.0812
  974MOL0     C34304   4.460   2.394   3.609  0.1516 -0.0083 -0.1259
  974MOL0     O34305   4.464   2.485   3.502 -0.4446  0.2471 -0.9564
  974MOL0     C34306   4.446   2.429   3.385  0.7809 -0.3749 -0.5532
  974MOL0     C34307   4.317   2.391   3.358  0.7292  0.7542 -1.0077
  974MOL0     C34308   4.297   2.335   3.228  0.7461  0.8453 -0.7907
  974MOL0     C34309   4.392   2.334   3.129  0.8730  0.2190 -0.1512
  974MOL0     O34310   4.365   2.285   3.004 -0.4752 -0.7644  0.7586
  974MOL0     C34311   4.246   2.232   2.957  0.5599  1.0184  0.2316
  974MOL0     C34312   4.238   2.232   2.802 -0.0391  0.7571 -0.9811
  974MOL0     C34313   4.228   2.087   2.752 -0.3058  0.7401 -0.0440
  974MOL0     C34314   4.087   2.020   2.764 -0.9807 -0.2078 -0.5507
  974MOL0     C34315   4.049   1.916   2.651 -0.9353  0.7904 -0.1946
  974MOL0     C34316   3.925   1.827   2.675  1.5002  0.6861  0.1547
  974MOL0     C34317   3.954   1.677   2.646  0.6321  0.8841 -0.2376
  974MOL0     C34318   3.939   1.644   2.504 -0.2782 -0.3976  0.1041
  974MOL0    Cl34319   3.769   1.631   2.458 -0.0522  0.1557 -0.1217
  974MOL0     C34320   4.525   2.371   3.164  0.8684  0.3629  0.1957
  974MOL0     C34321   4.545   2.422   3.286  0.0949  0.2828  0.1441
  974MOL0     O34322   4.455   2.271   3.591 -0.2710 -0.1071 -1.1439
  974MOL0     C34323   4.537   2.574   3.745  0.7107 -0.1647  0.5051
  974MOL0     C34324   4.573   2.634   3.865  0.5955 -0.3915  0.4762
  974MOL0     N34325   4.383   3.182   4.088 -0.4567  0.1703  0.4476
  974MOL0     N34326   4.409   3.303   4.125 -0.5214 -0.8138 -0.2030
  974MOL0     C34327   5.226   3.116   3.362  0.0464  0.5364 -0.0248
  974MOL0     C34328   5.274   3.027   3.264  0.0376  0.2158 -0.6596
  974MOL0     C34329   5.407   2.600   3.114 -0.5134  0.2184  0.0830
  974MOL0     C34330   5.396   2.459   3.134  0.0889  0.7438 -0.4518
  974MOL0     C34331   5.450   2.374   3.042 -0.3659 -0.4406 -0.0829
  974MOL0     C34332   5.543   2.419   2.952 -0.3447 -0.9239  0.5259
  974MOL0     O34333   5.606   2.335   2.867 -0.3091 -0.2347 -0.0036
  974MOL0     C34334   5.593   2.195   2.866 -0.0565 -0.1334 -1.1338
  974MOL0     C34335   5.701   2.134   2.771  0.4941 -0.2147 -0.6289
  974MOL0     C34336   5.651   2.022   2.680  0.7717  0.2222 -0.3225
  974MOL0     C34337   5.757   1.933   2.627  0.6232  0.7005 -0.0557
  974MOL0     C34338   5.830   1.848   2.721 -0.3084 -0.1541 -1.0544
  974MOL0     C34339   5.882   1.760   2.793 -0.5899 -0.2562  0.2201
  974MOL0     C34340   5.561   2.557   2.938 -0.8629 -0.1845  0.8633
  974MOL0     C34341   5.487   2.654   3.016 -0.6589  0.8128 -0.2694
  974MOL0     C34342   5.510   2.797   2.969  0.1632  0.4505  0.4400
  974MOL0     H34343   5.070   2.752   3.307 -0.4044  0.1663 -2.5237
  974MOL0     H34344   4.971   2.908   3.455 -1.3321 -1.3105 -2.2195
  974MOL0     H34345   4.907   3.223   3.371 -0.8769  0.9261  0.5488
  974MOL0     H34346   5.031   3.347   3.420  1.6230 -0.5353 -0.1833
  974MOL0     H34347   4.793   3.402   3.490  0.4701  2.5827  3.2145
  974MOL0     H34348   4.782   3.243   3.549  1.9630 -2.3909 -1.7398
  974MOL0     H34349   4.953   3.303   3.722  1.0955  2.1211  0.4993
  974MOL0     H34350   4.962   3.464   3.668  1.4521 -0.3562  1.5304
  974MOL0     H34351   4.720   3.493   3.697 -1.7560 -1.0106 -0.9322
  974MOL0     H34352   4.706   3.317   3.740  0.0341 -0.2909  0.5778
  974MOL0     H34353   4.848   3.542   3.888  0.0349 -0.2327  0.4866
  974MOL0     H34354   4.890   3.392   3.912  0.9078  2.4255 -0.1578
  974MOL0     H34355   4.610   3.502   3.964 -0.9070 -0.9487 -1.8606
  974MOL0     H34356   4.621   3.328   3.958 -2.3301  2.4456 -1.4977
  974MOL0     H34357   4.777   3.517   4.148  0.5543  0.4529 -0.3334
  974MOL0     H34358   4.785   3.337   4.154 -1.0954 -0.1679  2.8227
  974MOL0     H34359   4.608   3.431   4.317 -2.0271  1.4033 -0.3890
  974MOL0     H34360   4.546   3.514   4.179 -0.6859 -0.1981  1.4130
  974MOL0     H34361   4.649   3.153   4.287  0.2648 -1.8250 -1.1086
  974MOL0     H34362   4.572   2.919   4.158  0.1217  0.5910  0.8144
  974MOL0     H34363   4.449   2.936   4.029  2.3663  3.5865  0.1110
  974MOL0     H34364   4.418   2.904   4.334  3.5066  1.6830 -1.5549
  974MOL0     H34365   4.286   2.950   4.219  0.0140 -1.0153 -0.6701
  974MOL0     H34366   4.262   2.710   4.267 -3.3236  2.3847 -2.0491
  974MOL0     H34367   4.304   2.742   4.103  1.7935  1.2043 -0.2197
  974MOL0     H34368   4.502   2.668   4.315  3.0034 -0.4486 -1.3456
  974MOL0     H34369   4.409   2.553   4.218 -1.2333  1.4526 -0.2981
  974MOL0     H34370   4.415   2.419   4.067 -0.7243 -1.9832 -0.4792
  974MOL0     H34371   4.276   2.254   3.796  0.5957 -2.7580  1.1031
  974MOL0     H34372   4.296   2.261   3.965  0.5522 -2.6728  0.6946
  974MOL0     H34373   4.419   2.183   3.854 -1.7232 -1.1966 -1.4363
  974MOL0     H34374   4.239   2.386   3.433  2.5187  0.0365  0.8763
  974MOL0     H34375   4.197   2.295   3.210  1.4295 -0.8707 -1.0061
  974MOL0     H34376   4.235   2.128   2.992  1.5924  0.5414 -0.8093
  974MOL0     H34377   4.164   2.298   2.988 -4.5032 -4.3075  0.0374
  974MOL0     H34378   4.155   2.292   2.764  0.8906  1.4513 -1.9610
  974MOL0     H34379   4.327   2.277   2.756 -0.1473  0.8844 -1.0661
  974MOL0     H34380   4.306   2.026   2.798 -1.0882  1.6603  2.6946
  974MOL0     H34381   4.252   2.092   2.645  6.6421  0.1895  1.0310
  974MOL0     H34382   4.016   2.103   2.755  0.6419  1.5829  2.0094
  974MOL0     H34383   4.076   1.961   2.855  0.5616  0.1475 -0.1065
  974MOL0     H34384   4.038   1.968   2.556  0.4752 -0.9673 -1.3814
  974MOL0     H34385   4.134   1.849   2.636 -0.2642  1.4395  0.6025
  974MOL0     H34386   3.834   1.858   2.623 -1.1978 -1.7831  3.0150
  974MOL0     H34387   3.881   1.833   2.775 -1.5806  2.6848 -1.1861
  974MOL0     H34388   3.887   1.605   2.694  0.9859  1.1718  0.7146
  974MOL0     H34389   4.059   1.656   2.670  1.2147  1.3133 -2.2104
  974MOL0     H34390   3.992   1.548   2.498 -0.7173 -0.9852  3.2983
  974MOL0     H34391   3.984   1.729   2.452 -3.9186  2.2484  0.8770
  974MOL0     H34392   4.599   2.359   3.085  1.5964  0.9814  0.7714
  974MOL0     H34393   4.647   2.440   3.318  0.8918 -0.5194 -1.7726
  974MOL0     H34394   4.566   2.627   3.655  0.3777  0.0469  0.5195
  974MOL0     H34395   4.637   2.722   3.868  2.5729 -1.7869  1.7045
  974MOL0     H34396   5.271   3.212   3.384  0.7983  0.2387 -0.2186
  974MOL0     H34397   5.364   3.049   3.207  2.0264 -1.3124  1.6480
  974MOL0     H34398   5.317   2.424   3.199  0.3189 -3.5166 -2.1691
  974MOL0     H34399   5.418   2.271   3.043 -0.1722 -0.5302 -1.3722
  974MOL0     H34400   5.592   2.154   2.967 -2.6206  1.2419 -0.5127
  974MOL0     H34401   5.495   2.170   2.824 -1.2986  1.2754  0.8075
  974MOL0     H34402   5.780   2.093   2.835  0.6599  0.6120 -0.2855
  974MOL0     H34403   5.747   2.209   2.706  2.7548 -1.0812 -0.1290
  974MOL0     H34404   5.580   1.962   2.738  3.0970  0.6054  3.2314
  974MOL0     H34405   5.611   2.064   2.586 -0.4729 -2.4619 -1.0863
  974MOL0     H34406   5.828   2.000   2.577  1.3538 -0.2058 -0.2531
  974MOL0     H34407   5.708   1.862   2.559 -0.1009  1.6016 -0.4995
  974MOL0     H34408   5.937   1.690   2.853 -0.3482  0.0099  0.3086
  974MOL0     H34409   5.623   2.585   2.853 -0.7903  1.6946  1.5104
  974MOL0     H34410   5.552   2.866   3.043  1.1979 -1.2693  1.5240
  974MOL0     H34411   5.574   2.791   2.880  3.0246 -1.4423  2.4605
  974MOL0     H34412   5.409   2.823   2.936 -0.2868 -3.0291 -1.3943
  975MOL0     O34413   6.532   8.355   5.698  0.3591 -0.6829  0.0474
  975MOL0     C34414   6.641   8.412   5.715  0.5058 -0.1534  0.1342
  975MOL0     O34415   6.750   8.356   5.780  0.4776  0.5152  0.3967
  975MOL0     C34416   6.742   8.223   5.820 -0.3958 -0.4736  1.3355
  975MOL0     C34417   6.712   8.181   5.954 -0.2761  0.0097  0.5988
  975MOL0     C34418   6.716   8.045   5.997  0.2799 -0.4794 -0.5446
  975MOL0     C34419   6.752   7.947   5.907 -1.0503  0.3356  0.0531
  975MOL0     O34420   6.735   7.813   5.950 -0.0929 -0.5895  0.2242
  975MOL0     C34421   6.787   7.707   5.881  0.0153 -0.1097 -0.2807
  975MOL0     C34422   6.760   7.576   5.960  0.6269  0.0688 -0.1798
  975MOL0     C34423   6.603   7.565   5.954  0.5211 -0.6174 -0.3143
  975MOL0     C34424   6.547   7.466   6.053 -0.0210  0.4058  0.3348
  975MOL0     C34425   6.395   7.440   6.027 -0.3634  0.3744 -0.2251
  975MOL0     C34426   6.335   7.391   6.156  0.6572 -0.1869  0.4622
  975MOL0     C34427   6.184   7.390   6.159  0.0259  0.3484 -0.6324
  975MOL0     C34428   6.141   7.330   6.294 -1.5371 -0.3227  1.1379
  975MOL0     N34429   6.005   7.366   6.334  0.3135 -0.5777  0.1406
  975MOL0     C34430   5.894   7.305   6.274 -1.1664  0.0744  0.4830
  975MOL0     C34431   5.776   7.350   6.334 -0.4612 -0.6165  0.9359
  975MOL0     C34432   5.631   7.304   6.294  0.2066 -1.0608  0.3989
  975MOL0     C34433   5.606   7.153   6.279 -0.1420  0.4712  0.1311
  975MOL0     C34434   5.631   7.075   6.410 -0.4764 -0.0760 -0.5879
  975MOL0     C34435   5.536   7.098   6.527  0.3903 -1.1911 -0.5410
  975MOL0     O34436   5.407   7.075   6.487  0.8596 -0.2081 -0.2574
  975MOL0     C34437   5.313   7.180   6.466 -0.1698  0.7466  0.0376
  975MOL0     C34438   5.285   7.290   6.558 -0.0769 -0.7159 -0.5471
  975MOL0     C34439   5.180   7.370   6.539  0.6830 -0.0860  0.3494
  975MOL0     C34440   5.144   7.454   6.659  0.6001  0.2202 -0.9299
  975MOL0     C34441   5.093   7.363   6.417  0.4822  0.1237 -0.1194
  975MOL0     C34442   4.961   7.433   6.405  0.9986 -0.0647  0.6241
  975MOL0     O34443   4.939   7.555   6.468 -0.6236  1.1018 -0.4061
  975MOL0     C34444   4.812   7.601   6.479 -0.0632  0.0015 -1.2664
  975MOL0     C34445   4.742   7.597   6.600  1.2644  0.1240  0.5025
  975MOL0     C34446   4.604   7.632   6.602  0.5079  0.4790  0.1107
  975MOL0     C34447   4.539   7.668   6.483 -0.0755 -0.4791 -0.7741
  975MOL0     O34448   4.404   7.692   6.496 -0.3163 -0.5006  0.3211
  975MOL0     C34449   4.328   7.755   6.400  0.8098  0.4157  0.3593
  975MOL0     C34450   4.363   7.907   6.396 -0.2784  0.3589  0.7058
  975MOL0     C34451   4.240   7.979   6.324 -0.7454 -0.0107  0.3802
  975MOL0     C34452   4.244   8.137   6.310 -1.0590  0.1673  0.2022
  975MOL0     C34453   4.120   8.191   6.244 -0.0580 -1.6809  0.3052
  975MOL0     C34454   4.106   8.350   6.226 -0.4126 -0.0474 -0.5553
  975MOL0     C34455   3.979   8.384   6.150 -0.9541  0.5845  0.6576
  975MOL0     C34456   3.951   8.536   6.156  0.0805 -1.5576  0.7642
  975MOL0    Cl34457   4.064   8.620   6.043  0.3008  0.2519 -0.2230
  975MOL0     C34458   4.613   7.681   6.364 -0.5633  0.0145  0.5603
  975MOL0     C34459   4.750   7.650   6.366  1.1465 -0.5140 -0.2623
  975MOL0     O34460   4.870   7.360   6.356 -0.3023 -0.2312 -0.1746
  975MOL0     C34461   5.132   7.264   6.321 -1.0488 -0.8699  0.7284
  975MOL0     C34462   5.235   7.178   6.350 -1.1591 -0.6130  0.4051
  975MOL0     N34463   5.827   7.430   6.440  0.6821  0.5075 -0.7300
  975MOL0     N34464   5.959   7.442   6.435  0.5393  0.5886  0.4988
  975MOL0     C34465   6.784   7.981   5.772 -0.4732 -0.6964  0.4113
  975MOL0     C34466   6.774   8.120   5.731 -0.3766  0.1941 -0.3696
  975MOL0     C34467   6.652   8.536   5.642  0.3535 -0.3926  1.1255
  975MOL0     C34468   6.782   8.582   5.619  0.6756  1.0095 -0.1615
  975MOL0     C34469   6.812   8.697   5.544  0.8024 -1.1861 -0.8705
  975MOL0     C34470   6.706   8.775   5.488 -0.7609  0.2039 -0.5556
  975MOL0     O34471   6.730   8.891   5.419  0.1130 -0.1530 -0.1361
  975MOL0     C34472   6.857   8.962   5.440  0.5769 -0.0842 -1.2990
  975MOL0     C34473   6.818   9.107   5.436 -0.2776  0.4721 -0.2161
  975MOL0     C34474   6.757   9.157   5.568 -0.0682 -0.0803  0.1238
  975MOL0     C34475   6.743   9.303   5.587  0.5508  0.3506  1.0780
  975MOL0     C34476   6.664   9.349   5.709  0.9405 -0.1122 -0.1851
  975MOL0     C34477   6.607   9.389   5.810  0.0103  0.1441 -0.7171
  975MOL0     C34478   6.574   8.731   5.506  0.3320 -0.4323  1.1850
  975MOL0     C34479   6.541   8.615   5.585 -0.2390 -0.1122  0.5948
  975MOL0     C34480   6.390   8.581   5.604 -0.8236  0.6938 -0.6906
  975MOL0     H34481   6.677   8.250   6.029 -4.9041 -0.0358 -1.1580
  975MOL0     H34482   6.676   8.016   6.094  1.6560  0.2904  0.2865
  975MOL0     H34483   6.895   7.721   5.880 -0.1242  1.9900  2.1372
  975MOL0     H34484   6.759   7.693   5.777  5.2006  2.8684 -2.4346
  975MOL0     H34485   6.799   7.487   5.909  0.5347 -0.4772  0.6743
  975MOL0     H34486   6.801   7.567   6.060 -0.6574 -3.0895  0.1942
  975MOL0     H34487   6.569   7.666   5.980  0.6052 -0.6509 -0.0711
  975MOL0     H34488   6.580   7.540   5.850  2.3123  0.4412 -1.0040
  975MOL0     H34489   6.608   7.375   6.045  4.1474  3.1028 -2.4200
  975MOL0     H34490   6.566   7.505   6.153  0.9076  2.8933 -0.7274
  975MOL0     H34491   6.374   7.377   5.940  2.5743  0.2372 -0.9624
  975MOL0     H34492   6.337   7.529   6.002  1.4688  1.0891 -2.2537
  975MOL0     H34493   6.368   7.286   6.160  0.9924 -0.0593  1.1922
  975MOL0     H34494   6.376   7.449   6.239  0.1576  0.6355  0.1488
  975MOL0     H34495   6.151   7.333   6.072  3.7828 -2.7705 -0.2582
  975MOL0     H34496   6.144   7.492   6.150  3.1499  1.7961  0.3785
  975MOL0     H34497   6.152   7.222   6.278  0.9168 -0.9851  5.5786
  975MOL0     H34498   6.207   7.363   6.375 -1.2975 -1.6986  1.5317
  975MOL0     H34499   5.895   7.225   6.200 -1.9018  0.5545 -0.0631
  975MOL0     H34500   5.621   7.354   6.198  0.4753 -1.3215  0.2351
  975MOL0     H34501   5.561   7.364   6.353  0.7981  1.8790 -1.6704
  975MOL0     H34502   5.502   7.137   6.248 -0.1883 -3.2750  1.7119
  975MOL0     H34503   5.680   7.111   6.211  1.4686  3.0463  0.1599
  975MOL0     H34504   5.642   6.970   6.383 -0.0109  0.4451 -2.6315
  975MOL0     H34505   5.729   7.099   6.451 -0.4360 -0.9764 -0.1599
  975MOL0     H34506   5.555   7.034   6.614 -0.3116  2.6230  2.7403
  975MOL0     H34507   5.530   7.202   6.559  1.8725 -1.3122  0.2652
  975MOL0     H34508   5.349   7.296   6.645  0.6909 -2.2715 -0.9704
  975MOL0     H34509   5.111   7.548   6.614  0.3720 -0.8768 -3.2015
  975MOL0     H34510   5.237   7.482   6.710 -1.2478  2.6448  1.4018
  975MOL0     H34511   5.070   7.410   6.727  1.8553 -0.2552  0.1848
  975MOL0     H34512   4.801   7.556   6.681  0.3931 -2.7563 -0.1854
  975MOL0     H34513   4.539   7.615   6.687 -0.8134 -0.9069 -1.1100
  975MOL0     H34514   4.354   7.713   6.303 -0.4204 -0.1150  0.2378
  975MOL0     H34515   4.223   7.740   6.428  0.4805  0.7781 -0.6272
  975MOL0     H34516   4.382   7.937   6.499  0.6126 -2.5497  1.4893
  975MOL0     H34517   4.457   7.921   6.343  1.5137 -2.3635  2.8653
  975MOL0     H34518   4.148   7.944   6.372 -0.9769 -0.7842 -0.5996
  975MOL0     H34519   4.240   7.950   6.219  2.2925  1.3751 -0.1295
  975MOL0     H34520   4.333   8.164   6.252 -0.8845 -2.2170 -0.7782
  975MOL0     H34521   4.271   8.180   6.407  0.0630 -0.9408  0.4248
  975MOL0     H34522   4.117   8.149   6.143 -0.2430  2.6198 -1.6952
  975MOL0     H34523   4.037   8.179   6.315 -1.0180  2.3752  0.1301
  975MOL0     H34524   4.177   8.400   6.159  1.3657 -1.5679  0.0966
  975MOL0     H34525   4.107   8.398   6.324 -1.0434  3.6969 -2.2157
  975MOL0     H34526   3.891   8.350   6.205 -1.7187  0.5955 -0.5160
  975MOL0     H34527   3.964   8.334   6.054  1.7707 -2.8630  1.7931
  975MOL0     H34528   3.981   8.569   6.256  1.3965 -2.1347  0.5797
  975MOL0     H34529   3.850   8.568   6.131  1.0317  2.6997  1.5335
  975MOL0     H34530   4.572   7.732   6.277  2.2119  2.9022  0.7422
  975MOL0     H34531   4.804   7.664   6.274 -0.8901 -1.2196 -1.6401
  975MOL0     H34532   5.088   7.248   6.223 -1.6784 -3.7922  1.4072
  975MOL0     H34533   5.261   7.098   6.281 -0.9363  0.5524 -0.9056
  975MOL0     H34534   6.814   7.914   5.692 -1.9244 -1.7688  0.7470
  975MOL0     H34535   6.798   8.133   5.626 -0.4583 -0.0323 -0.4186
  975MOL0     H34536   6.864   8.523   5.658 -0.4196 -0.1798  0.4214
  975MOL0     H34537   6.916   8.727   5.543  0.8015 -1.1805 -1.9627
  975MOL0     H34538   6.923   8.941   5.526  2.7206  1.9692 -2.3239
  975MOL0     H34539   6.916   8.943   5.350  2.2854  3.4362 -1.1024
  975MOL0     H34540   6.748   9.122   5.353  2.2376  2.2181 -2.1676
  975MOL0     H34541   6.898   9.178   5.417  0.8379 -0.5128  0.6276
  975MOL0     H34542   6.658   9.114   5.584  0.4394 -0.4954  2.6461
  975MOL0     H34543   6.816   9.120   5.653 -1.0511 -1.4176  0.2523
  975MOL0     H34544   6.709   9.351   5.495  1.7291 -1.6100 -0.4599
  975MOL0     H34545   6.847   9.332   5.605  0.6312 -0.3101  1.7366
  975MOL0     H34546   6.543   9.409   5.894  0.4568  1.0480 -0.5794
  975MOL0     H34547   6.495   8.792   5.465  1.8790  0.3650 -0.7821
  975MOL0     H34548   6.346   8.517   5.526  2.0979  0.2144 -2.0742
  975MOL0     H34549   6.380   8.534   5.702  1.3896 -0.7982 -1.1236
  975MOL0     H34550   6.340   8.677   5.619  1.1713  1.5799  0.6846
  976MOL0     O34551   7.296   1.555  10.843  0.8267  0.0586 -0.0015
  976MOL0     C34552   7.266   1.437  10.866  0.8839 -0.0042 -0.4359
  976MOL0     O34553   7.143   1.402  10.915  0.3975  0.7658  0.0037
  976MOL0     C34554   7.051   1.502  10.920 -0.2043 -0.6246  0.3289
  976MOL0     C34555   7.063   1.628  10.987 -0.2201 -0.0509  0.3159
  976MOL0     C34556   6.964   1.721  11.000  0.6295 -0.3501 -0.1778
  976MOL0     C34557   6.842   1.703  10.937 -0.4965  0.0185  0.3856
  976MOL0     O34558   6.743   1.795  10.940  0.4812 -0.7218  0.1487
  976MOL0     C34559   6.735   1.911  11.041  0.0195 -0.0595  0.2991
  976MOL0     C34560   6.586   1.950  11.061 -0.0180  0.3612  0.2475
  976MOL0     C34561   6.510   1.969  10.929  0.5455 -0.8695 -0.0578
  976MOL0     C34562   6.556   2.108  10.870  0.3588 -0.1331  0.0523
  976MOL0     C34563   6.485   2.139  10.743 -0.4187 -0.2750  0.9375
  976MOL0     C34564   6.506   2.050  10.617 -0.4359 -0.2405 -0.1718
  976MOL0     C34565   6.455   2.095  10.485  0.3015  0.3678 -0.2660
  976MOL0     C34566   6.533   2.217  10.431  0.7854  1.7731  0.7811
  976MOL0     N34567   6.487   2.258  10.292 -0.1608  0.7629  1.1934
  976MOL0     C34568   6.479   2.200  10.166  0.3741 -0.2777  0.5801
  976MOL0     C34569   6.422   2.286  10.080  0.1097 -0.3532 -0.1685
  976MOL0     C34570   6.379   2.261   9.933 -0.1479 -0.6292  0.6044
  976MOL0     C34571   6.475   2.332   9.832  1.5293  0.1455 -1.1309
  976MOL0     C34572   6.433   2.303   9.691  0.0312 -0.4930  0.0317
  976MOL0     C34573   6.544   2.336   9.598  0.1026  0.0385 -0.6493
  976MOL0     O34574   6.579   2.479   9.591  0.0667  0.1226 -1.0640
  976MOL0     C34575   6.708   2.502   9.554 -0.3644  0.3907 -1.1215
  976MOL0     C34576   6.798   2.557   9.643  0.3669 -0.8613 -0.5681
  976MOL0     C34577   6.933   2.572   9.618  0.4188 -0.5311  0.4381
  976MOL0     C34578   7.026   2.615   9.724 -0.5920  0.9735 -0.2478
  976MOL0     C34579   6.970   2.538   9.484 -0.2104 -0.4735 -0.5651
  976MOL0     C34580   7.109   2.520   9.441 -0.2496 -0.7087 -0.5401
  976MOL0     O34581   7.160   2.395   9.471  0.0335 -0.1510 -0.2765
  976MOL0     C34582   7.299   2.384   9.470  0.3263 -0.2218  0.9407
  976MOL0     C34583   7.371   2.450   9.574 -0.1093  1.3835 -0.2663
  976MOL0     C34584   7.512   2.448   9.566  0.2036  0.0677  0.0589
  976MOL0     C34585   7.572   2.388   9.451 -0.9413  0.6295  0.2454
  976MOL0     O34586   7.712   2.387   9.443 -1.3919 -0.3242 -0.0108
  976MOL0     C34587   7.795   2.360   9.554 -0.1439  0.3736  0.3231
  976MOL0     C34588   7.873   2.231   9.523  0.8728 -1.1452 -0.4541
  976MOL0     C34589   7.949   2.242   9.390  0.2707  0.3497  0.1290
  976MOL0     C34590   8.076   2.333   9.410 -0.8440  0.5664  0.1916
  976MOL0     C34591   8.172   2.322   9.286  0.0467 -0.6633 -0.4972
  976MOL0     C34592   8.268   2.205   9.282  0.1811  0.3652 -0.7016
  976MOL0     C34593   8.356   2.199   9.161 -0.7146 -0.2838  0.3452
  976MOL0     C34594   8.455   2.314   9.148  0.1598  0.1575 -0.3622
  976MOL0    Cl34595   8.580   2.254   9.028 -0.0367 -0.1095  0.4003
  976MOL0     C34596   7.498   2.318   9.360  0.0875  0.0123  0.0639
  976MOL0     C34597   7.352   2.318   9.365 -0.0036 -0.7262  0.8197
  976MOL0     O34598   7.157   2.600   9.367  0.3403 -0.4769 -0.0473
  976MOL0     C34599   6.873   2.500   9.386 -0.2487  0.3330  0.0333
  976MOL0     C34600   6.745   2.470   9.428 -0.1019 -0.4377 -0.5657
  976MOL0     N34601   6.381   2.394  10.149  0.0717 -0.0141  0.2407
  976MOL0     N34602   6.420   2.373  10.267 -0.3608 -0.3741 -0.1551
  976MOL0     C34603   6.825   1.588  10.856 -0.2974  0.2160 -1.3670
  976MOL0     C34604   6.927   1.491  10.843 -0.1594 -0.1984 -0.0901
  976MOL0     C34605   7.363   1.330  10.819 -0.4436  0.5364  0.5672
  976MOL0     C34606   7.492   1.371  10.777  0.4195  0.0797  0.2833
  976MOL0     C34607   7.586   1.285  10.722 -0.7135 -0.5077  0.1299
  976MOL0     C34608   7.568   1.153  10.712  0.1777  0.6855 -0.8588
  976MOL0     O34609   7.668   1.082  10.655 -0.2525 -0.0145  0.3768
  976MOL0     C34610   7.666   0.945  10.675 -0.1981  0.0525 -0.0614
  976MOL0     C34611   7.763   0.869  10.571 -0.0559 -0.0694 -0.4064
  976MOL0     C34612   7.779   0.715  10.613 -0.7702  0.1583 -0.2707
  976MOL0     C34613   7.642   0.651  10.655 -0.1385  0.4086  0.2022
  976MOL0     C34614   7.654   0.502  10.682  0.1715 -0.5134 -0.0126
  976MOL0     C34615   7.647   0.386  10.711  0.5888 -0.2882  0.1310
  976MOL0     C34616   7.445   1.105  10.766 -0.3288 -0.4749  0.3237
  976MOL0     C34617   7.345   1.190  10.824  0.0249 -0.5654  0.2958
  976MOL0     C34618   7.229   1.112  10.881  0.2181 -0.1496  0.2963
  976MOL0     H34619   7.151   1.644  11.049 -2.5375 -0.2348  3.9691
  976MOL0     H34620   6.981   1.816  11.048 -3.5666 -0.0528  1.1375
  976MOL0     H34621   6.811   1.988  11.027  0.3590 -0.1414  1.6164
  976MOL0     H34622   6.776   1.858  11.127  1.2241 -0.1955 -0.3453
  976MOL0     H34623   6.533   1.875  11.121  0.1040 -0.0047 -0.0917
  976MOL0     H34624   6.583   2.041  11.121  1.8070 -0.7606  2.1934
  976MOL0     H34625   6.524   1.881  10.866  4.1070 -1.1263  0.8654
  976MOL0     H34626   6.403   1.983  10.943  1.1094  2.4072  2.0127
  976MOL0     H34627   6.529   2.173  10.953 -0.5008 -2.4573  1.7132
  976MOL0     H34628   6.664   2.110  10.857  0.3454  2.1148 -0.1144
  976MOL0     H34629   6.524   2.239  10.721  0.4252 -0.8437 -0.2724
  976MOL0     H34630   6.379   2.146  10.772 -1.4617 -0.3607 -2.4924
  976MOL0     H34631   6.609   2.018  10.601 -1.0815 -1.6993 -1.7083
  976MOL0     H34632   6.459   1.953  10.639  0.8429 -0.7170  0.5724
  976MOL0     H34633   6.350   2.126  10.492  0.4636  0.8561  0.0492
  976MOL0     H34634   6.479   2.019  10.410  2.0494 -0.1374  0.7475
  976MOL0     H34635   6.506   2.293  10.505  0.1910  0.9591  1.4291
  976MOL0     H34636   6.640   2.193  10.429  0.3811 -0.1180  0.0315
  976MOL0     H34637   6.513   2.101  10.139  1.4026  0.6468 -1.8941
  976MOL0     H34638   6.282   2.304   9.907  0.9147  0.8266 -1.2735
  976MOL0     H34639   6.362   2.157   9.903 -1.9542  0.9124 -4.8047
  976MOL0     H34640   6.485   2.438   9.859  2.7346  0.4095 -2.4735
  976MOL0     H34641   6.577   2.298   9.849  1.9850  1.9949  0.2077
  976MOL0     H34642   6.397   2.200   9.678 -0.3461 -0.4671  0.8227
  976MOL0     H34643   6.354   2.367   9.651  1.1798  0.1315 -1.3583
  976MOL0     H34644   6.629   2.278   9.636  0.1062  1.3775  1.5282
  976MOL0     H34645   6.523   2.297   9.498 -0.0598  1.1646 -1.0701
  976MOL0     H34646   6.760   2.574   9.743  0.4811 -2.5886 -0.2012
  976MOL0     H34647   6.977   2.675   9.801 -1.9474  1.1624 -1.2068
  976MOL0     H34648   7.118   2.658   9.684  1.5025 -4.6113 -2.5585
  976MOL0     H34649   7.054   2.519   9.769  0.2905 -0.3104 -3.2510
  976MOL0     H34650   7.309   2.506   9.642 -2.7791 -3.1057  1.4409
  976MOL0     H34651   7.582   2.500   9.630 -1.9837 -0.5651  3.2062
  976MOL0     H34652   7.864   2.439   9.586 -1.4374  0.3517  3.5316
  976MOL0     H34653   7.728   2.332   9.636  2.4194 -1.1112  2.0693
  976MOL0     H34654   7.943   2.203   9.602  2.7047  4.9109  0.5939
  976MOL0     H34655   7.805   2.146   9.509  2.5297 -2.4189 -1.1043
  976MOL0     H34656   7.894   2.273   9.301  1.6242  2.0038 -0.1919
  976MOL0     H34657   7.982   2.140   9.370  0.5407  0.4782 -0.1035
  976MOL0     H34658   8.134   2.304   9.498 -0.9346  1.6571  0.6211
  976MOL0     H34659   8.042   2.436   9.422 -3.0218 -0.3318  3.1479
  976MOL0     H34660   8.115   2.328   9.194 -0.9779 -0.3489  0.1431
  976MOL0     H34661   8.243   2.406   9.287 -1.6240  0.8511 -2.6885
  976MOL0     H34662   8.205   2.116   9.277 -0.4130  0.7779 -0.5752
  976MOL0     H34663   8.337   2.204   9.367  1.3834  0.0943 -1.6473
  976MOL0     H34664   8.289   2.195   9.075 -3.2661  4.8359  1.7134
  976MOL0     H34665   8.417   2.109   9.178 -1.5924 -0.7647  1.0461
  976MOL0     H34666   8.496   2.338   9.246 -3.2869 -0.1575  1.3231
  976MOL0     H34667   8.407   2.404   9.109  0.8605  1.2951  1.3216
  976MOL0     H34668   7.548   2.270   9.277 -0.8577  0.0156 -0.5282
  976MOL0     H34669   7.279   2.260   9.309 -0.9168 -1.7999  2.9893
  976MOL0     H34670   6.913   2.480   9.287  1.0691 -0.7984  0.7519
  976MOL0     H34671   6.673   2.433   9.356  0.2828 -0.0611 -1.1533
  976MOL0     H34672   6.738   1.579  10.793 -0.9263  1.3455 -0.6866
  976MOL0     H34673   6.903   1.393  10.802  1.7442 -1.6570  2.0183
  976MOL0     H34674   7.509   1.479  10.775 -2.6404  0.7008 -3.0965
  976MOL0     H34675   7.679   1.327  10.683  0.4162 -0.9377  2.1692
  976MOL0     H34676   7.704   0.931  10.776  1.2291  1.5398 -0.3561
  976MOL0     H34677   7.565   0.907  10.659 -0.5633  0.6538  0.7838
  976MOL0     H34678   7.865   0.909  10.574 -0.2742  0.4538  0.1809
  976MOL0     H34679   7.717   0.873  10.472 -1.6461 -0.7377  0.2731
  976MOL0     H34680   7.823   0.663  10.527  3.8745  1.8807  0.7674
  976MOL0     H34681   7.848   0.687  10.693 -0.5692  0.2802 -0.3985
  976MOL0     H34682   7.566   0.667  10.578  0.6987  1.6576 -0.3901
  976MOL0     H34683   7.605   0.704  10.743  0.5355  3.4463 -1.2198
  976MOL0     H34684   7.644   0.280  10.724  0.1405 -0.2643  0.2497
  976MOL0     H34685   7.429   0.998  10.770 -0.1864 -0.4697  4.0217
  976MOL0     H34686   7.253   1.006  10.895  0.3794 -0.2804 -0.8986
  976MOL0     H34687   7.186   1.151  10.973  0.6195  2.4064 -0.5319
  976MOL0     H34688   7.158   1.111  10.798 -3.6813  1.5104  3.3032
  977MOL0     O34689   9.903   7.355  11.531  0.0490 -0.2990 -0.5497
  977MOL0     C34690   9.800   7.330  11.479 -0.0260  1.6089 -1.0172
  977MOL0     O34691   9.709   7.231  11.513  0.6055  0.1380 -1.3822
  977MOL0     C34692   9.743   7.149  11.628  0.1327 -0.6967 -0.0628
  977MOL0     C34693   9.736   7.187  11.754 -0.3575 -0.5826 -0.5096
  977MOL0     C34694   9.749   7.098  11.854 -0.5945 -0.4149 -0.1201
  977MOL0     C34695   9.795   6.966  11.826 -0.7543  0.4201 -0.3042
  977MOL0     O34696   9.814   6.885  11.922  0.0827 -0.0373  0.3134
  977MOL0     C34697   9.839   6.933  12.060  0.5866 -0.5815  0.0955
  977MOL0     C34698   9.721   6.940  12.158 -0.6187 -0.9586  0.2549
  977MOL0     C34699   9.755   6.962  12.308 -0.2984  0.6573 -0.5720
  977MOL0     C34700   9.632   6.980  12.405 -0.1905  0.1587  0.7695
  977MOL0     C34701   9.655   6.944  12.551  0.0404  0.3456  0.0013
  977MOL0     C34702   9.545   7.006  12.642  0.2477 -0.2569  0.9076
  977MOL0     C34703   9.553   6.936  12.786  0.2388 -0.0836 -0.6509
  977MOL0     C34704   9.474   7.035  12.885  0.2257  0.1326  0.3415
  977MOL0     N34705   9.565   7.130  12.951  1.1835  0.7993  0.3700
  977MOL0     C34706   9.629   7.122  13.076  0.4882  0.1081  0.6383
  977MOL0     C34707   9.709   7.224  13.087 -0.8889 -0.3501 -1.0609
  977MOL0     C34708   9.807   7.267  13.196 -0.1801  0.0127  0.6371
  977MOL0     C34709   9.940   7.189  13.187 -1.1809  0.1546  0.0671
  977MOL0     C34710  10.034   7.224  13.066  0.3269 -0.5433 -0.1807
  977MOL0     C34711  10.160   7.160  13.105  0.0183 -0.2169  0.4018
  977MOL0     O34712  10.228   7.226  13.221  0.7572  1.0524 -0.0348
  977MOL0     C34713  10.332   7.305  13.201  0.1675  0.1274  0.0065
  977MOL0     C34714  10.335   7.415  13.114 -0.6391 -0.8307 -0.9147
  977MOL0     C34715  10.440   7.513  13.113 -0.1642 -0.4362 -1.2209
  977MOL0     C34716  10.416   7.632  13.009 -0.6106 -0.3255 -0.7656
  977MOL0     C34717  10.549   7.498  13.200 -0.5514  1.2061  0.4269
  977MOL0     C34718  10.674   7.579  13.214  0.2252  0.7790  0.0154
  977MOL0     O34719  10.796   7.521  13.248  0.4579  0.6596  0.0920
  977MOL0     C34720  10.890   7.609  13.296 -0.4095 -0.3936  0.3524
  977MOL0     C34721  11.016   7.620  13.232 -0.2188  0.4034  0.2471
  977MOL0     C34722  11.120   7.700  13.275 -0.2680 -0.3400 -0.6061
  977MOL0     C34723  11.107   7.764  13.398 -0.1487 -1.4548 -0.4756
  977MOL0     O34724  11.197   7.828  13.480 -0.3028 -0.2080  0.6572
  977MOL0     C34725  11.335   7.789  13.453  0.6203  0.3566  0.9009
  977MOL0     C34726  11.435   7.865  13.540  0.0938 -0.1391  0.1446
  977MOL0     C34727  11.584   7.811  13.539  0.6442  0.7569  0.3677
  977MOL0     C34728  11.656   7.815  13.394 -0.2653  0.2933  0.6795
  977MOL0     C34729  11.780   7.905  13.401 -0.4408 -0.4963  0.4373
  977MOL0     C34730  11.754   8.060  13.420  0.2099 -0.0261  0.1379
  977MOL0     C34731  11.663   8.119  13.308  0.3735  0.2707  0.4563
  977MOL0     C34732  11.622   8.262  13.338 -0.4873 -0.1411  0.5237
  977MOL0    Cl34733  11.504   8.282  13.468  0.4141 -0.0769 -0.2578
  977MOL0     C34734  10.974   7.766  13.454  0.4019 -0.2345 -0.1518
  977MOL0     C34735  10.870   7.682  13.411 -0.6134 -0.4361  1.0328
  977MOL0     O34736  10.663   7.698  13.208  0.4628  0.5790 -0.2937
  977MOL0     C34737  10.547   7.383  13.280  0.1459  0.7617 -0.6711
  977MOL0     C34738  10.445   7.293  13.281  0.2440  0.1320 -0.5145
  977MOL0     N34739   9.696   7.295  12.970 -0.1910 -0.1746 -0.0176
  977MOL0     N34740   9.604   7.247  12.898  0.2991  0.2049  0.0416
  977MOL0     C34741   9.806   6.933  11.693  0.5152 -0.1121 -0.2398
  977MOL0     C34742   9.778   7.018  11.591  0.0400  0.0778 -0.0053
  977MOL0     C34743   9.768   7.403  11.352  0.0605 -0.8053  0.2639
  977MOL0     C34744   9.626   7.423  11.329 -0.4471 -0.1169 -0.3330
  977MOL0     C34745   9.583   7.493  11.214  0.2484  0.0789  0.0838
  977MOL0     C34746   9.679   7.552  11.126 -0.7215  1.1722 -0.2204
  977MOL0     O34747   9.659   7.609  11.006  0.0334 -0.9934 -0.1755
  977MOL0     C34748   9.527   7.635  10.961  0.1809 -0.4013 -0.6432
  977MOL0     C34749   9.461   7.750  11.025  0.7726  0.5046  0.1157
  977MOL0     C34750   9.309   7.787  10.979 -0.8779 -0.1831 -0.4707
  977MOL0     C34751   9.282   7.820  10.821 -0.1512 -0.1224 -0.7533
  977MOL0     C34752   9.330   7.956  10.785  0.6298 -0.2375  0.1905
  977MOL0     C34753   9.360   8.073  10.753  0.1481 -0.2145 -1.6687
  977MOL0     C34754   9.814   7.526  11.154 -0.2242 -0.1018  0.2308
  977MOL0     C34755   9.861   7.457  11.263 -1.2436  0.0964  0.8266
  977MOL0     C34756  10.015   7.445  11.283  0.6483 -0.2802 -1.0997
  977MOL0     H34757   9.702   7.288  11.774 -1.4992 -0.6167 -2.0855
  977MOL0     H34758   9.728   7.126  11.957  2.3242  0.4591  0.3520
  977MOL0     H34759   9.891   7.028  12.073 -1.4764  0.4611  1.3979
  977MOL0     H34760   9.901   6.859  12.109  0.5992 -0.2734  0.5535
  977MOL0     H34761   9.665   7.022  12.113 -1.6789 -2.0364 -0.4316
  977MOL0     H34762   9.666   6.846  12.145 -0.1853 -1.0466 -1.0709
  977MOL0     H34763   9.804   6.869  12.338 -0.8200  0.1325 -1.3117
  977MOL0     H34764   9.819   7.051  12.316 -2.6432  2.3805  0.3854
  977MOL0     H34765   9.612   7.088  12.398  1.3844  0.4198 -0.2623
  977MOL0     H34766   9.537   6.936  12.372  1.1761 -0.3511 -2.9940
  977MOL0     H34767   9.754   6.975  12.587 -1.0520  3.0320  1.0053
  977MOL0     H34768   9.653   6.835  12.558  1.3593  0.3647  1.3865
  977MOL0     H34769   9.554   7.115  12.637  0.7880 -0.3503 -3.0302
  977MOL0     H34770   9.443   6.992  12.603  1.2222  0.2284 -2.0409
  977MOL0     H34771   9.654   6.920  12.824 -0.1204  0.2013  0.4580
  977MOL0     H34772   9.504   6.839  12.792  0.9388 -0.3516  1.9597
  977MOL0     H34773   9.391   7.084  12.833  0.5283 -0.6105 -0.8927
  977MOL0     H34774   9.432   6.988  12.974  1.4186 -0.2036  0.7344
  977MOL0     H34775   9.633   7.039  13.147  2.1108  0.3489  0.8587
  977MOL0     H34776   9.767   7.240  13.295 -2.7598  0.1384 -0.2909
  977MOL0     H34777   9.819   7.375  13.190 -0.8728  0.0269 -0.9780
  977MOL0     H34778   9.997   7.209  13.278 -0.6509 -1.9366  0.2504
  977MOL0     H34779   9.922   7.081  13.196 -0.7550  0.2206  2.1584
  977MOL0     H34780   9.994   7.190  12.970  0.6284 -0.7213 -0.2417
  977MOL0     H34781  10.048   7.332  13.053  2.6121 -0.9185 -1.1677
  977MOL0     H34782  10.136   7.054  13.112  3.0835 -1.0982 -0.9204
  977MOL0     H34783  10.225   7.164  13.018 -3.0842  1.0329 -2.0428
  977MOL0     H34784  10.248   7.414  13.049 -0.8848 -5.2266 -0.7789
  977MOL0     H34785  10.405   7.726  13.064  0.7180  0.4629 -1.7741
  977MOL0     H34786  10.322   7.643  12.954 -0.5570  5.2337 -0.3704
  977MOL0     H34787  10.495   7.643  12.935  0.4831  0.4179  0.4719
  977MOL0     H34788  11.018   7.566  13.139 -3.2350  3.3505 -1.7617
  977MOL0     H34789  11.217   7.707  13.227 -0.4019 -0.4698 -0.8946
  977MOL0     H34790  11.351   7.681  13.458 -2.1193 -0.3617 -2.2093
  977MOL0     H34791  11.366   7.824  13.354  0.9282 -0.0837  0.8394
  977MOL0     H34792  11.435   7.972  13.516 -2.0781 -0.3937 -1.2330
  977MOL0     H34793  11.396   7.850  13.642  0.6459 -2.1859  0.1048
  977MOL0     H34794  11.585   7.703  13.559 -0.8644  0.7746  0.7293
  977MOL0     H34795  11.642   7.856  13.619  0.2267 -2.0205  2.3936
  977MOL0     H34796  11.594   7.836  13.307 -3.8880  2.8426  3.5831
  977MOL0     H34797  11.684   7.713  13.365 -1.2609 -0.4110  2.0584
  977MOL0     H34798  11.844   7.866  13.481  1.5741  1.3268 -0.2120
  977MOL0     H34799  11.840   7.901  13.310 -2.2434  3.5080 -1.1407
  977MOL0     H34800  11.852   8.109  13.409 -0.6388  1.2232 -2.6321
  977MOL0     H34801  11.706   8.088  13.515  3.0560 -0.1949  1.7454
  977MOL0     H34802  11.570   8.069  13.336  0.1392  1.9367  2.9553
  977MOL0     H34803  11.703   8.110  13.206 -0.2482 -2.3749  0.3757
  977MOL0     H34804  11.575   8.309  13.252  1.5258 -0.0060 -0.5586
  977MOL0     H34805  11.707   8.327  13.363  0.0354 -0.7427  0.3578
  977MOL0     H34806  10.980   7.817  13.550  2.5764 -0.5312 -0.0745
  977MOL0     H34807  10.776   7.678  13.466 -1.9802  1.2031 -1.0561
  977MOL0     H34808  10.622   7.363  13.355 -1.6589 -2.5821  0.4847
  977MOL0     H34809  10.449   7.209  13.349 -2.1758 -1.8172 -2.6104
  977MOL0     H34810   9.844   6.834  11.669  3.3188  0.5454  1.1848
  977MOL0     H34811   9.775   6.987  11.487 -0.7357  0.3471 -0.0693
  977MOL0     H34812   9.548   7.395  11.398  1.1270 -2.1314  0.7430
  977MOL0     H34813   9.479   7.500  11.184  0.1929 -1.8084 -0.2774
  977MOL0     H34814   9.531   7.655  10.854 -0.7875  0.4238 -0.5415
  977MOL0     H34815   9.459   7.551  10.976 -1.6696  1.1656  0.1123
  977MOL0     H34816   9.520   7.839  11.004  2.5764 -0.7637 -0.3477
  977MOL0     H34817   9.457   7.734  11.133 -0.5780 -1.9876 -0.2197
  977MOL0     H34818   9.240   7.711  11.019 -2.4847  0.2165 -2.3651
  977MOL0     H34819   9.283   7.876  11.036 -0.9339  0.0554 -0.8678
  977MOL0     H34820   9.175   7.809  10.802 -0.8120 -2.0525  3.1541
  977MOL0     H34821   9.330   7.749  10.754 -1.1295 -1.5989  0.0673
  977MOL0     H34822   9.375   8.177  10.732  0.8716  0.7146  2.5558
  977MOL0     H34823   9.891   7.563  11.087 -0.4808  0.3313  0.1686
  977MOL0     H34824  10.082   7.490  11.208  0.6156  4.3930  1.2931
  977MOL0     H34825  10.050   7.497  11.373 -0.7513 -0.7020 -0.2925
  977MOL0     H34826  10.029   7.337  11.285 -0.7543 -0.4681  0.8177
  978MOL0     O34827  10.670   6.984   6.836 -0.3839  0.2796  0.3274
  978MOL0     C34828  10.768   6.947   6.773 -0.1224  0.7334 -0.5320
  978MOL0     O34829  10.858   6.855   6.814  0.6409 -0.5687 -0.2743
  978MOL0     C34830  10.880   6.819   6.948  0.2000  0.4849 -0.9740
  978MOL0     C34831  10.859   6.690   6.982  0.1703 -0.5589 -0.0849
  978MOL0     C34832  10.888   6.640   7.106  1.0908 -0.2731 -0.7108
  978MOL0     C34833  10.933   6.730   7.205 -0.2076 -0.5765 -1.4208
  978MOL0     O34834  10.973   6.704   7.333 -0.0463  0.3437  0.4980
  978MOL0     C34835  10.918   6.587   7.393  0.5394 -0.1855  0.0511
  978MOL0     C34836  10.774   6.641   7.419  0.4413 -0.1051  0.2891
  978MOL0     C34837  10.712   6.574   7.540 -0.1965  1.2028 -0.0556
  978MOL0     C34838  10.665   6.423   7.524 -0.4752 -0.1591  0.8281
  978MOL0     C34839  10.663   6.360   7.659 -0.2218 -0.0579  0.5752
  978MOL0     C34840  10.598   6.222   7.655  0.4294  0.0361 -0.3593
  978MOL0     C34841  10.631   6.147   7.786  0.3138  0.0464  0.7003
  978MOL0     C34842  10.753   6.055   7.785  0.5251 -0.0911 -0.6007
  978MOL0     N34843  10.782   6.011   7.928 -0.0722  0.4157  0.1220
  978MOL0     C34844  10.846   6.099   8.020 -0.0649  0.5289  0.5727
  978MOL0     C34845  10.846   6.034   8.136  0.4033  0.4570 -0.0821
  978MOL0     C34846  10.922   6.085   8.252 -0.1264  0.9956  0.3687
  978MOL0     C34847  10.833   6.195   8.314 -0.1562 -0.3711  0.1658
  978MOL0     C34848  10.702   6.152   8.386 -0.2526 -0.2313  0.6357
  978MOL0     C34849  10.641   6.256   8.482 -0.0934 -0.0650  0.6961
  978MOL0     O34850  10.621   6.374   8.401  0.3478  0.7956 -0.4805
  978MOL0     C34851  10.541   6.472   8.459  0.0730 -0.0346  0.2378
  978MOL0     C34852  10.453   6.459   8.566  0.1183 -0.3153  0.3255
  978MOL0     C34853  10.385   6.567   8.619  0.5654 -0.5609  0.3809
  978MOL0     C34854  10.286   6.542   8.738  0.2771 -0.6229 -0.4017
  978MOL0     C34855  10.408   6.697   8.566 -0.2390  0.0034  1.3812
  978MOL0     C34856  10.342   6.811   8.628  0.2743  0.2977  0.4670
  978MOL0     O34857  10.242   6.858   8.553  0.5712  0.2160 -0.0839
  978MOL0     C34858  10.194   6.975   8.613  0.7088 -0.2303 -0.2475
  978MOL0     C34859  10.122   6.967   8.734  0.1567  0.4262 -0.9493
  978MOL0     C34860  10.071   7.088   8.794  0.2506 -0.1489  0.3742
  978MOL0     C34861  10.080   7.219   8.732 -0.7918 -0.2739  0.5973
  978MOL0     O34862  10.040   7.320   8.804  0.4933 -0.4655 -0.2198
  978MOL0     C34863  10.057   7.456   8.752  0.3974 -0.6157 -0.1968
  978MOL0     C34864  10.025   7.564   8.851  0.9600  0.7155 -0.2185
  978MOL0     C34865  10.070   7.704   8.803  0.0545  0.3419  0.1646
  978MOL0     C34866  10.219   7.735   8.839  0.4076 -1.4357  0.6507
  978MOL0     C34867  10.246   7.887   8.804  0.4931  0.8582 -0.8167
  978MOL0     C34868  10.386   7.935   8.848  0.1586  1.0210 -0.6517
  978MOL0     C34869  10.413   7.926   9.007 -0.5834  0.1953  0.8674
  978MOL0     C34870  10.539   7.989   9.042 -0.8200 -0.0251 -0.5269
  978MOL0    Cl34871  10.539   8.024   9.215  0.1984  0.1785 -0.1339
  978MOL0     C34872  10.164   7.219   8.615 -0.6690 -0.1955 -0.0631
  978MOL0     C34873  10.215   7.101   8.556  0.9136 -0.6707 -0.0208
  978MOL0     O34874  10.387   6.865   8.727  0.4464 -0.2411  0.1494
  978MOL0     C34875  10.501   6.711   8.461 -0.1480  0.2133 -0.0767
  978MOL0     C34876  10.565   6.600   8.413  0.5153 -0.2849  0.0452
  978MOL0     N34877  10.789   5.908   8.118  0.1125 -0.2844 -0.4103
  978MOL0     N34878  10.757   5.888   7.992 -0.4922 -0.8187 -0.0981
  978MOL0     C34879  10.954   6.863   7.165 -1.3303 -0.3148  0.1196
  978MOL0     C34880  10.938   6.902   7.035  0.3401 -0.3045 -0.1463
  978MOL0     C34881  10.769   6.971   6.623  0.0861 -0.0088 -1.1536
  978MOL0     C34882  10.830   6.871   6.544 -0.3390  1.1642 -0.4258
  978MOL0     C34883  10.812   6.866   6.407  0.2535  0.0579 -0.0359
  978MOL0     C34884  10.716   6.946   6.341 -0.8771  0.4954 -0.8409
  978MOL0     O34885  10.697   6.953   6.203 -0.2794 -0.0957 -0.8321
  978MOL0     C34886  10.707   6.838   6.121  0.4170 -0.4186  0.2055
  978MOL0     C34887  10.589   6.829   6.025  0.9817  0.5519  0.3600
  978MOL0     C34888  10.615   6.939   5.916 -0.0493 -0.0083 -0.6387
  978MOL0     C34889  10.530   6.966   5.793 -0.1289  0.6269  0.8292
  978MOL0     C34890  10.437   6.854   5.765  0.6249  0.2186  1.1890
  978MOL0     C34891  10.366   6.758   5.733  0.5509 -0.4196  0.1174
  978MOL0     C34892  10.665   7.053   6.417 -0.6205 -0.7375  0.1164
  978MOL0     C34893  10.697   7.070   6.559  0.7547  0.0489 -0.9192
  978MOL0     C34894  10.629   7.199   6.628 -0.6111  0.7135 -0.3857
  978MOL0     H34895  10.803   6.634   6.908 -0.2480 -2.1790  1.3914
  978MOL0     H34896  10.872   6.537   7.136  0.2922  0.2144  0.6115
  978MOL0     H34897  10.967   6.561   7.487  0.9612  0.1686 -0.0648
  978MOL0     H34898  10.922   6.495   7.334  1.7609  0.4764 -0.9460
  978MOL0     H34899  10.779   6.749   7.436 -0.4587  0.0778 -0.5139
  978MOL0     H34900  10.709   6.615   7.334  0.8019  1.3234 -0.4475
  978MOL0     H34901  10.788   6.571   7.619  0.4793  0.2536 -0.7242
  978MOL0     H34902  10.622   6.623   7.580 -2.3664 -3.1104  0.9859
  978MOL0     H34903  10.566   6.426   7.478  0.0060 -0.7655 -0.2841
  978MOL0     H34904  10.732   6.367   7.459 -0.4622  0.0892  0.6268
  978MOL0     H34905  10.622   6.431   7.732  2.5878  1.3179  0.9337
  978MOL0     H34906  10.765   6.351   7.697 -0.5267  0.1627  1.4677
  978MOL0     H34907  10.492   6.228   7.629  1.0232  0.6935 -2.8250
  978MOL0     H34908  10.651   6.177   7.571 -0.1510 -1.5230  0.0621
  978MOL0     H34909  10.551   6.075   7.809 -1.5834  0.9105 -2.5370
  978MOL0     H34910  10.623   6.210   7.875 -3.9391 -2.1988  2.2207
  978MOL0     H34911  10.732   5.977   7.712  1.3025  0.3447 -1.3038
  978MOL0     H34912  10.845   6.107   7.756  1.8200 -1.0458  1.5318
  978MOL0     H34913  10.894   6.192   7.992 -0.3895  0.6935  0.5577
  978MOL0     H34914  11.022   6.119   8.223  0.6897  1.4849  3.3936
  978MOL0     H34915  10.933   6.000   8.321 -2.4476  1.7943  1.8411
  978MOL0     H34916  10.904   6.239   8.385  1.6721 -2.1486 -0.4445
  978MOL0     H34917  10.811   6.269   8.237  1.7135 -2.3052 -2.4173
  978MOL0     H34918  10.642   6.125   8.299  0.8326  1.1579 -0.5822
  978MOL0     H34919  10.712   6.063   8.449  0.0308  0.8471  2.1642
  978MOL0     H34920  10.541   6.227   8.516 -1.8484  3.2151 -1.0927
  978MOL0     H34921  10.709   6.256   8.567  1.6671 -5.6924 -0.2794
  978MOL0     H34922  10.423   6.357   8.588  0.4780 -0.5998 -0.4651
  978MOL0     H34923  10.335   6.566   8.833  2.1175  0.6030 -1.5893
  978MOL0     H34924  10.244   6.442   8.727  0.7630 -0.7088 -1.6217
  978MOL0     H34925  10.207   6.617   8.743 -0.1020 -1.1019  2.2774
  978MOL0     H34926  10.107   6.874   8.787  0.8688  1.1929  0.6584
  978MOL0     H34927  10.035   7.075   8.896  0.6261 -1.8654  0.3196
  978MOL0     H34928  10.151   7.470   8.700  0.1440 -3.2717 -1.5173
  978MOL0     H34929   9.984   7.481   8.674  0.6324  2.7213  0.4881
  978MOL0     H34930   9.918   7.570   8.871  0.9093 -0.2202 -0.1934
  978MOL0     H34931  10.076   7.543   8.946 -0.0842  1.2331  0.4785
  978MOL0     H34932  10.006   7.789   8.827 -0.2759 -0.0609  0.7367
  978MOL0     H34933  10.051   7.711   8.695 -3.4755  0.6573  0.6786
  978MOL0     H34934  10.293   7.677   8.783  0.0130 -0.0102 -1.4757
  978MOL0     H34935  10.221   7.717   8.947 -1.0786 -1.3378  0.7174
  978MOL0     H34936  10.244   7.899   8.695  0.3633  2.4361 -0.6615
  978MOL0     H34937  10.176   7.955   8.854  1.1972 -0.7678  2.6879
  978MOL0     H34938  10.391   8.038   8.812 -0.0571  0.1310 -3.4981
  978MOL0     H34939  10.466   7.875   8.803 -0.7257 -1.1618  0.5313
  978MOL0     H34940  10.422   7.820   9.030  1.0805 -0.1548 -1.0591
  978MOL0     H34941  10.333   7.975   9.062 -1.9771  1.2100 -1.8849
  978MOL0     H34942  10.569   8.078   8.985 -1.9541  0.3143 -0.6133
  978MOL0     H34943  10.608   7.907   9.022 -0.6971  0.3098 -1.5789
  978MOL0     H34944  10.177   7.311   8.559 -2.1729  2.3670  3.4350
  978MOL0     H34945  10.284   7.110   8.473  1.3705  1.7163  0.5451
  978MOL0     H34946  10.512   6.810   8.419  0.8428  1.2540  2.4527
  978MOL0     H34947  10.618   6.602   8.318 -0.4754 -3.5568 -0.7224
  978MOL0     H34948  10.991   6.942   7.230 -1.0175  0.6047 -1.1426
  978MOL0     H34949  10.951   7.004   7.000 -3.4502  0.8668  1.3514
  978MOL0     H34950  10.900   6.796   6.579  0.5668  1.8963 -0.6073
  978MOL0     H34951  10.871   6.801   6.343  0.0197 -0.0364 -0.1558
  978MOL0     H34952  10.799   6.828   6.063  0.0509  0.8322 -0.6347
  978MOL0     H34953  10.709   6.746   6.181 -0.6408 -1.5581 -1.4069
  978MOL0     H34954  10.496   6.853   6.077 -0.6039 -2.2884 -0.9399
  978MOL0     H34955  10.588   6.733   5.972  2.1073  1.1258 -0.7688
  978MOL0     H34956  10.615   7.032   5.974  0.7044 -0.7035  0.5019
  978MOL0     H34957  10.713   6.918   5.872 -0.4559 -2.0379 -0.6535
  978MOL0     H34958  10.599   6.984   5.709 -0.6446 -2.0677 -0.3029
  978MOL0     H34959  10.468   7.055   5.806 -3.5098 -1.6045  1.2957
  978MOL0     H34960  10.304   6.682   5.690  0.5220  0.8067 -2.2229
  978MOL0     H34961  10.597   7.108   6.354  1.8594  1.3920 -0.8645
  978MOL0     H34962  10.523   7.180   6.605  0.1538 -2.8545 -1.4962
  978MOL0     H34963  10.643   7.208   6.736 -0.3529  0.7830 -0.4262
  978MOL0     H34964  10.651   7.295   6.582 -0.4871  0.9055  0.0654
  979MOL0     O34965   3.370   6.250   2.185 -0.0475 -0.3683 -0.3973
  979MOL0     C34966   3.280   6.324   2.151 -0.8243  0.3045 -0.0881
  979MOL0     O34967   3.264   6.448   2.198  0.5561 -0.1170  0.5975
  979MOL0     C34968   3.361   6.508   2.275 -0.4068 -0.0772  0.7141
  979MOL0     C34969   3.461   6.586   2.212 -0.7215  0.7560 -0.9964
  979MOL0     C34970   3.548   6.654   2.290  0.5568  0.1516 -0.2395
  979MOL0     C34971   3.540   6.651   2.435  0.8084 -0.3148  0.2833
  979MOL0     O34972   3.633   6.728   2.503  0.7311  0.5989 -0.2092
  979MOL0     C34973   3.631   6.748   2.648  0.0645  0.1367 -0.2565
  979MOL0     C34974   3.740   6.842   2.697  0.3443  0.1372  0.6279
  979MOL0     C34975   3.746   6.844   2.852  0.6870  1.3825  0.0238
  979MOL0     C34976   3.840   6.945   2.916  0.2954  1.1530 -0.4432
  979MOL0     C34977   3.869   6.934   3.068  0.3852 -0.5874 -0.1198
  979MOL0     C34978   3.914   6.797   3.121  0.5065  0.6803  0.2672
  979MOL0     C34979   4.041   6.750   3.045  0.5448  0.6756 -0.3349
  979MOL0     C34980   4.124   6.650   3.129  0.7531  0.0491  0.0457
  979MOL0     N34981   4.049   6.530   3.146  0.2535  0.1863  0.4359
  979MOL0     C34982   3.998   6.453   3.042  0.8346  0.4394 -0.4734
  979MOL0     C34983   3.943   6.346   3.100 -0.2586 -0.2711 -0.3174
  979MOL0     C34984   3.873   6.239   3.034  0.3486  0.0333  0.3674
  979MOL0     C34985   3.875   6.226   2.876 -0.7180 -0.6790 -0.4895
  979MOL0     C34986   4.013   6.179   2.815  0.4527 -0.4066 -0.2790
  979MOL0     C34987   3.992   6.130   2.671  0.0388  0.6810  0.4845
  979MOL0     O34988   4.118   6.110   2.625 -0.0485 -0.2596 -0.2868
  979MOL0     C34989   4.130   6.057   2.502 -0.1887  0.1100  0.0238
  979MOL0     C34990   4.136   6.136   2.385  0.6187  0.4399 -0.0824
  979MOL0     C34991   4.154   6.070   2.261 -0.0746 -0.3479 -0.4624
  979MOL0     C34992   4.177   6.166   2.140 -0.2640  0.1658 -0.2457
  979MOL0     C34993   4.155   5.930   2.244 -0.2392 -0.6464  0.4067
  979MOL0     C34994   4.149   5.855   2.108 -0.3010  0.6481  0.5264
  979MOL0     O34995   4.156   5.718   2.111 -0.3449  0.8237  0.3236
  979MOL0     C34996   4.094   5.637   2.014 -0.1229 -0.3733 -0.2931
  979MOL0     C34997   3.970   5.668   1.946 -0.7989  0.2836 -0.0060
  979MOL0     C34998   3.913   5.559   1.875  0.2520  0.1642  0.2701
  979MOL0     C34999   3.982   5.441   1.841  0.1646  0.1522  0.5770
  979MOL0     O35000   3.926   5.373   1.728 -0.0517  0.7062 -0.0621
  979MOL0     C35001   3.916   5.227   1.757  0.5711  1.2189 -0.3526
  979MOL0     C35002   3.899   5.147   1.634  0.8814 -0.1375  0.3160
  979MOL0     C35003   4.006   5.162   1.529 -0.0126 -0.8688  0.6706
  979MOL0     C35004   3.963   5.101   1.403 -0.1112  0.6217  1.2477
  979MOL0     C35005   4.068   5.072   1.292 -0.1722  0.5543  0.1786
  979MOL0     C35006   4.163   4.947   1.310  0.1868 -0.3414 -0.5907
  979MOL0     C35007   4.095   4.819   1.268  0.3000 -0.4148 -0.0025
  979MOL0     C35008   4.151   4.697   1.346 -0.1028  0.6421  1.1663
  979MOL0    Cl35009   4.094   4.690   1.513 -0.7487 -0.4060  0.1728
  979MOL0     C35010   4.110   5.423   1.891  0.7677 -0.8303 -0.3418
  979MOL0     C35011   4.156   5.519   1.986  1.3306  0.4555  0.6313
  979MOL0     O35012   4.128   5.925   2.014  0.5487  0.6706  0.6356
  979MOL0     C35013   4.125   5.857   2.358  0.1386 -0.1143 -0.7929
  979MOL0     C35014   4.123   5.918   2.485  0.7790  0.1062 -0.8611
  979MOL0     N35015   3.945   6.356   3.237 -0.7327  0.3825  0.3346
  979MOL0     N35016   4.014   6.469   3.262 -0.1372  0.3246  0.0759
  979MOL0     C35017   3.442   6.582   2.496 -0.0702  0.3903 -0.0171
  979MOL0     C35018   3.356   6.509   2.417  0.3276  0.0382  0.5478
  979MOL0     C35019   3.157   6.260   2.099  0.5589 -0.3486 -0.1944
  979MOL0     C35020   3.032   6.325   2.098  0.4847  0.9041  0.6076
  979MOL0     C35021   2.913   6.259   2.041 -0.0603 -0.2036  0.1185
  979MOL0     C35022   2.920   6.130   1.986  0.3786  0.3913 -0.3277
  979MOL0     O35023   2.804   6.054   1.936 -0.1285 -0.5704  0.7308
  979MOL0     C35024   2.814   5.941   1.852 -0.6089 -0.2707  0.0343
  979MOL0     C35025   2.878   5.973   1.714  1.2341  0.0210 -0.2613
  979MOL0     C35026   2.812   6.108   1.667 -0.5445 -1.2140  0.5435
  979MOL0     C35027   2.853   6.172   1.526 -0.4485 -0.4481 -0.6081
  979MOL0     C35028   2.991   6.206   1.519  0.0127  0.5429  0.3618
  979MOL0     C35029   3.107   6.224   1.504 -0.5053 -0.1890 -0.6977
  979MOL0     C35030   3.044   6.066   1.992  1.3099  0.1124 -0.5011
  979MOL0     C35031   3.157   6.126   2.039  0.6624 -0.5566 -0.2886
  979MOL0     C35032   3.284   6.040   2.031  1.2521  0.8541  0.0973
  979MOL0     H35033   3.474   6.576   2.105  0.7848 -0.5681 -0.7360
  979MOL0     H35034   3.631   6.696   2.235 -1.0256  1.4044 -1.8064
  979MOL0     H35035   3.636   6.653   2.702 -2.5200  0.5810  0.9256
  979MOL0     H35036   3.535   6.786   2.686  0.8238  0.1980  1.7207
  979MOL0     H35037   3.838   6.806   2.664  0.8657  3.1748 -1.6052
  979MOL0     H35038   3.715   6.940   2.654  3.1100  1.2437  1.3376
  979MOL0     H35039   3.642   6.859   2.885  0.0489  2.9310 -2.4552
  979MOL0     H35040   3.771   6.744   2.890  1.1898 -0.5566 -4.6847
  979MOL0     H35041   3.931   6.958   2.858  0.6978 -1.9711 -0.7192
  979MOL0     H35042   3.784   7.036   2.895 -0.8501  0.3375 -1.0927
  979MOL0     H35043   3.780   6.966   3.123  2.3228 -0.1596  3.0342
  979MOL0     H35044   3.946   7.005   3.102 -1.4935  0.8755  1.3590
  979MOL0     H35045   3.934   6.798   3.228  1.2351  0.7375  0.1351
  979MOL0     H35046   3.838   6.720   3.104 -1.4746  1.6544  3.8318
  979MOL0     H35047   4.107   6.835   3.024  2.2665 -0.5077  0.0993
  979MOL0     H35048   4.003   6.696   2.958 -0.2183 -1.1731  1.0927
  979MOL0     H35049   4.210   6.615   3.073  1.2840 -0.9083  1.4172
  979MOL0     H35050   4.148   6.699   3.224  2.2716 -4.7122  2.4010
  979MOL0     H35051   3.992   6.473   2.935 -2.2676 -0.2238 -0.5292
  979MOL0     H35052   3.772   6.252   3.075  0.3279  3.2723 -0.4262
  979MOL0     H35053   3.914   6.142   3.065  1.1815  0.1040 -0.4618
  979MOL0     H35054   3.793   6.159   2.851 -1.3914 -0.3937  0.8340
  979MOL0     H35055   3.866   6.328   2.838  1.8552  0.4568  1.5690
  979MOL0     H35056   4.087   6.258   2.835 -0.7021  1.1378 -1.8557
  979MOL0     H35057   4.047   6.099   2.881 -1.3296  0.7557  2.2187
  979MOL0     H35058   3.926   6.042   2.676 -1.3813  1.5972 -1.1234
  979MOL0     H35059   3.942   6.200   2.603 -2.5348 -1.8678 -0.4632
  979MOL0     H35060   4.143   6.244   2.402  1.3600  0.1524  1.7229
  979MOL0     H35061   4.264   6.121   2.093 -1.0204 -0.0030 -1.5525
  979MOL0     H35062   4.198   6.267   2.175  1.0567 -0.3772  0.5807
  979MOL0     H35063   4.083   6.181   2.085 -2.4449 -1.0940  2.8846
  979MOL0     H35064   3.917   5.761   1.958 -1.8721 -0.2968 -0.1632
  979MOL0     H35065   3.821   5.596   1.831 -0.3573  0.9186  2.0929
  979MOL0     H35066   4.012   5.204   1.806 -0.0908  1.5528  1.1583
  979MOL0     H35067   3.835   5.208   1.828 -0.2500 -0.5407 -1.6919
  979MOL0     H35068   3.884   5.043   1.665 -0.9544  0.2136  0.7589
  979MOL0     H35069   3.805   5.178   1.585  0.7933  0.0065  0.5762
  979MOL0     H35070   4.098   5.122   1.573 -0.0228 -1.1350  0.4510
  979MOL0     H35071   4.028   5.269   1.517  1.3710 -1.0287  1.5421
  979MOL0     H35072   3.878   5.157   1.364 -0.7031 -0.8733  0.2993
  979MOL0     H35073   3.911   5.007   1.422 -0.4061  0.4084 -0.4464
  979MOL0     H35074   4.016   5.048   1.198 -0.2250 -0.4628  0.4518
  979MOL0     H35075   4.127   5.161   1.266  0.3013 -0.1538 -1.2821
  979MOL0     H35076   4.187   4.932   1.416 -4.7579 -3.5258  0.4016
  979MOL0     H35077   4.249   4.969   1.246 -0.6573  2.1636 -0.9689
  979MOL0     H35078   4.109   4.805   1.161 -0.4961 -0.4758 -0.1025
  979MOL0     H35079   3.986   4.811   1.282  0.5475 -3.0785  1.1988
  979MOL0     H35080   4.258   4.715   1.330 -0.6051  1.0987 -2.5030
  979MOL0     H35081   4.147   4.602   1.291  2.6829  0.7725  0.5514
  979MOL0     H35082   4.168   5.337   1.858  1.2075 -0.1643 -1.3413
  979MOL0     H35083   4.257   5.495   2.019  1.7036  2.0155  0.6824
  979MOL0     H35084   4.099   5.753   2.345 -3.1366  0.5157 -0.3598
  979MOL0     H35085   4.114   5.868   2.580 -0.8103  3.4520  0.9519
  979MOL0     H35086   3.429   6.574   2.604  1.7734 -3.1376  0.1191
  979MOL0     H35087   3.278   6.460   2.474  1.8468  0.1392  2.8526
  979MOL0     H35088   3.019   6.424   2.139 -0.0235  1.2561 -0.3697
  979MOL0     H35089   2.814   6.302   2.050 -0.2002 -0.4462 -0.2188
  979MOL0     H35090   2.874   5.860   1.896 -1.0968 -0.4348  0.3991
  979MOL0     H35091   2.712   5.912   1.826  0.1815 -0.6430 -3.2043
  979MOL0     H35092   2.838   5.891   1.654  1.0949 -0.9843  1.1536
  979MOL0     H35093   2.987   5.971   1.716  1.2576 -0.0392 -1.1479
  979MOL0     H35094   2.703   6.118   1.665 -0.5190 -0.8896 -1.2040
  979MOL0     H35095   2.847   6.186   1.735 -1.0513 -0.5930  0.1116
  979MOL0     H35096   2.800   6.267   1.511  4.4897  2.4626 -2.1136
  979MOL0     H35097   2.838   6.105   1.440  1.6298 -0.8191 -0.7249
  979MOL0     H35098   3.210   6.251   1.517 -0.6389 -0.7332  2.2248
  979MOL0     H35099   3.060   5.958   1.985  0.1873 -0.1824  0.9745
  979MOL0     H35100   3.369   6.101   1.997  2.1315 -0.9035 -1.0401
  979MOL0     H35101   3.311   6.003   2.130 -1.3021  0.9590  0.9121
  979MOL0     H35102   3.270   5.957   1.961 -0.4756  0.2707  1.0799
  980MOL0     O35103   2.607   2.004   9.508 -0.8213  0.1268 -0.4593
  980MOL0     C35104   2.688   1.931   9.446  0.5614  0.1559 -0.4200
  980MOL0     O35105   2.746   1.960   9.334 -0.4624  0.4181 -0.5499
  980MOL0     C35106   2.723   2.080   9.278  0.1919  0.1967 -0.0147
  980MOL0     C35107   2.823   2.182   9.272  1.4259  0.2001 -0.2487
  980MOL0     C35108   2.796   2.298   9.208 -0.2579 -0.6738 -0.3623
  980MOL0     C35109   2.684   2.319   9.128  0.8206 -0.0774  0.8495
  980MOL0     O35110   2.663   2.429   9.049 -0.6952  0.8109  0.7581
  980MOL0     C35111   2.778   2.509   9.011 -0.7155 -1.3375 -0.4399
  980MOL0     C35112   2.741   2.599   8.889 -0.2125 -0.2028 -0.4102
  980MOL0     C35113   2.710   2.515   8.755  0.4596 -0.4442 -0.6574
  980MOL0     C35114   2.614   2.588   8.650  0.2809  0.4307 -0.3558
  980MOL0     C35115   2.668   2.723   8.610  0.3096  0.3411 -0.1493
  980MOL0     C35116   2.820   2.735   8.562 -0.0068 -0.0363 -0.7907
  980MOL0     C35117   2.864   2.874   8.516 -0.4362  0.4487  0.8732
  980MOL0     C35118   2.898   2.966   8.629  0.6622  0.3370 -0.9669
  980MOL0     N35119   2.907   3.103   8.585 -0.6525  0.2603  0.0542
  980MOL0     C35120   3.019   3.173   8.544 -0.2056 -0.0007  0.1155
  980MOL0     C35121   2.961   3.291   8.496 -0.0591  0.4524  0.0010
  980MOL0     C35122   3.051   3.393   8.447  0.3073  0.2038  0.5307
  980MOL0     C35123   2.968   3.522   8.430  0.6091 -0.1797 -0.6123
  980MOL0     C35124   3.053   3.644   8.429  0.3659  0.1306  0.1857
  980MOL0     C35125   2.987   3.760   8.351 -0.0486 -0.5356 -0.5765
  980MOL0     O35126   2.868   3.807   8.426 -0.6467 -0.1435 -0.8374
  980MOL0     C35127   2.823   3.933   8.387 -0.5475  0.0040  0.4868
  980MOL0     C35128   2.867   4.006   8.277 -0.0880 -0.2582  0.2370
  980MOL0     C35129   2.816   4.135   8.255 -0.0542 -0.3085 -0.5236
  980MOL0     C35130   2.893   4.223   8.150 -0.3802  0.2725 -0.8861
  980MOL0     C35131   2.710   4.189   8.330 -0.0228  0.6198 -0.0273
  980MOL0     C35132   2.645   4.319   8.307 -0.5106  1.0746  0.8711
  980MOL0     O35133   2.571   4.356   8.409 -0.0179  0.8737  0.3992
  980MOL0     C35134   2.519   4.490   8.415 -0.3648  0.9424  0.0145
  980MOL0     C35135   2.379   4.507   8.424 -1.3691  0.1140 -0.5841
  980MOL0     C35136   2.329   4.631   8.451 -0.6555 -0.3750  0.1010
  980MOL0     C35137   2.411   4.745   8.458  0.4404  0.1459 -0.6238
  980MOL0     O35138   2.369   4.875   8.463 -0.6082 -0.4466 -0.2007
  980MOL0     C35139   2.232   4.919   8.498 -0.0385 -0.5993  0.5073
  980MOL0     C35140   2.235   5.076   8.510 -0.4074 -0.6861 -0.5670
  980MOL0     C35141   2.268   5.157   8.380  0.5122  0.6892  0.3334
  980MOL0     C35142   2.284   5.309   8.408  0.4410 -0.3403  0.2463
  980MOL0     C35143   2.295   5.390   8.283  0.7741  1.1814 -1.0223
  980MOL0     C35144   2.406   5.500   8.284  1.3837  0.3774 -0.2940
  980MOL0     C35145   2.376   5.595   8.404  0.7993  0.5248 -0.1443
  980MOL0     C35146   2.474   5.698   8.464 -0.1793 -0.1018 -0.8072
  980MOL0    Cl35147   2.607   5.610   8.547 -0.1701  0.2007 -0.1619
  980MOL0     C35148   2.550   4.729   8.438  0.3541  0.2990  0.0303
  980MOL0     C35149   2.602   4.602   8.412 -1.5198  0.8812  0.7749
  980MOL0     O35150   2.661   4.381   8.207 -0.4491 -0.3966  1.1088
  980MOL0     C35151   2.650   4.097   8.426  0.6486 -0.2092  0.4060
  980MOL0     C35152   2.711   3.976   8.453  0.6693 -0.4654  0.3966
  980MOL0     N35153   2.824   3.289   8.527  0.2993 -0.1211  0.1960
  980MOL0     N35154   2.791   3.176   8.568  0.3492 -0.1062 -0.4560
  980MOL0     C35155   2.590   2.217   9.126 -0.0128 -0.5563 -0.2829
  980MOL0     C35156   2.603   2.110   9.207  0.3031 -0.0868 -0.4144
  980MOL0     C35157   2.723   1.797   9.512 -0.0557  0.2274 -0.1070
  980MOL0     C35158   2.784   1.705   9.430  0.3186  0.2613  0.8655
  980MOL0     C35159   2.811   1.575   9.472  0.0363  0.2860 -0.1639
  980MOL0     C35160   2.802   1.553   9.612  0.5354 -0.2090 -0.0591
  980MOL0     O35161   2.831   1.429   9.662  0.0483  0.5262 -0.3578
  980MOL0     C35162   2.723   1.366   9.732  0.6508 -0.1662 -0.6986
  980MOL0     C35163   2.676   1.233   9.673  0.3802 -0.9920  0.4168
  980MOL0     C35164   2.563   1.190   9.778  0.1174  0.4574 -0.2035
  980MOL0     C35165   2.458   1.078   9.728 -0.6501 -0.6499 -0.0683
  980MOL0     C35166   2.529   0.955   9.684  0.0711  0.6536  0.1887
  980MOL0     C35167   2.591   0.866   9.643 -0.1005  1.1054  0.0714
  980MOL0     C35168   2.755   1.646   9.701  0.3205  0.1807 -0.1883
  980MOL0     C35169   2.711   1.770   9.646 -0.0773 -0.1464  0.5207
  980MOL0     C35170   2.661   1.868   9.750  0.0503 -0.2713 -0.2820
  980MOL0     H35171   2.913   2.183   9.333  1.0832  1.8206  0.2898
  980MOL0     H35172   2.874   2.372   9.204  0.0259 -0.6712  2.6964
  980MOL0     H35173   2.874   2.461   8.990  0.6674 -0.3173  2.8379
  980MOL0     H35174   2.801   2.567   9.101  0.8007  0.2647 -1.7808
  980MOL0     H35175   2.653   2.661   8.910  1.0695  1.1313  1.4198
  980MOL0     H35176   2.828   2.663   8.870 -0.0027  0.1050  1.3891
  980MOL0     H35177   2.808   2.497   8.710  1.0366 -2.7080  1.2908
  980MOL0     H35178   2.665   2.418   8.778  0.7166 -1.3269 -3.5099
  980MOL0     H35179   2.618   2.527   8.559 -2.5970  1.2837 -1.1396
  980MOL0     H35180   2.508   2.603   8.670  0.5144 -1.4870  2.9679
  980MOL0     H35181   2.664   2.789   8.697  1.1182 -0.3107  0.3994
  980MOL0     H35182   2.600   2.765   8.535 -0.2224 -1.8978 -0.9905
  980MOL0     H35183   2.897   2.696   8.629 -0.4631 -2.4402 -1.5879
  980MOL0     H35184   2.834   2.672   8.473  2.0145 -0.8615  0.0378
  980MOL0     H35185   2.781   2.923   8.465 -1.2492 -0.3285  1.4375
  980MOL0     H35186   2.951   2.860   8.450 -1.3294  4.0735 -1.3699
  980MOL0     H35187   2.820   2.954   8.705  0.1714 -0.2095 -1.5467
  980MOL0     H35188   2.988   2.938   8.685 -1.4328 -0.3206  2.3809
  980MOL0     H35189   3.122   3.140   8.544 -0.5194 -1.0371  0.7702
  980MOL0     H35190   3.089   3.355   8.352 -0.8254 -0.4522  0.3134
  980MOL0     H35191   3.124   3.411   8.526 -0.7883  1.5623  1.3031
  980MOL0     H35192   2.915   3.513   8.335  0.6589 -2.7561 -0.4746
  980MOL0     H35193   2.898   3.538   8.513  1.9490 -0.9045  0.7120
  980MOL0     H35194   3.087   3.670   8.530 -0.7926 -1.3801  0.9921
  980MOL0     H35195   3.151   3.625   8.383 -0.8621  0.7749 -2.9333
  980MOL0     H35196   3.069   3.832   8.343 -0.8462  0.4847  0.0847
  980MOL0     H35197   2.953   3.725   8.253 -3.8524  2.4421 -0.5405
  980MOL0     H35198   2.941   3.975   8.203 -2.5665 -0.3342 -2.4063
  980MOL0     H35199   2.942   4.300   8.209 -1.3350  0.8949 -0.8949
  980MOL0     H35200   2.816   4.268   8.087 -1.5653 -1.0902 -0.4853
  980MOL0     H35201   2.974   4.179   8.090  2.0425  1.1748  1.5126
  980MOL0     H35202   2.324   4.414   8.416  1.9923 -2.0130 -1.0349
  980MOL0     H35203   2.223   4.657   8.460 -1.5492 -3.2087 -1.2659
  980MOL0     H35204   2.177   4.889   8.409  1.0539  0.4239 -0.5496
  980MOL0     H35205   2.189   4.875   8.588 -0.8783 -3.4348 -1.1748
  980MOL0     H35206   2.141   5.097   8.561 -0.2358 -1.2652 -0.0010
  980MOL0     H35207   2.318   5.111   8.573  0.4840 -1.4717 -1.2674
  980MOL0     H35208   2.191   5.130   8.307  1.1866  1.4148 -0.6708
  980MOL0     H35209   2.363   5.131   8.334  1.2643  2.7774  0.5978
  980MOL0     H35210   2.367   5.330   8.476  0.1057 -0.6558  0.7640
  980MOL0     H35211   2.192   5.350   8.451 -2.0852 -4.1826 -0.9096
  980MOL0     H35212   2.303   5.313   8.205  0.0523 -0.9904  0.9511
  980MOL0     H35213   2.199   5.442   8.270 -0.1177 -0.1105  0.0562
  980MOL0     H35214   2.413   5.558   8.191 -1.0420  1.5452  0.1509
  980MOL0     H35215   2.502   5.451   8.296  1.0923  0.2933  2.1141
  980MOL0     H35216   2.351   5.531   8.490 -0.1844  1.4645  0.2815
  980MOL0     H35217   2.290   5.658   8.382 -0.6122  0.1013  3.4057
  980MOL0     H35218   2.426   5.771   8.530  0.8167  0.5609 -0.7727
  980MOL0     H35219   2.520   5.749   8.378  1.2771 -0.5501 -0.3373
  980MOL0     H35220   2.614   4.816   8.452 -0.3857  0.4276  3.4111
  980MOL0     H35221   2.709   4.587   8.404 -1.6602  0.8290 -3.1424
  980MOL0     H35222   2.559   4.129   8.475 -1.2470 -0.4571 -2.6412
  980MOL0     H35223   2.660   3.914   8.527  1.8373 -2.1967 -0.1727
  980MOL0     H35224   2.504   2.222   9.060  0.8922 -0.5154 -1.4858
  980MOL0     H35225   2.513   2.049   9.214 -0.8728  1.3954 -1.8313
  980MOL0     H35226   2.785   1.726   9.324  0.5253 -1.4801  0.4877
  980MOL0     H35227   2.840   1.495   9.404 -0.3819 -0.8336  0.9427
  980MOL0     H35228   2.750   1.352   9.837 -0.5695 -0.4565 -0.4049
  980MOL0     H35229   2.630   1.423   9.729  0.6380 -0.2022 -1.1223
  980MOL0     H35230   2.748   1.152   9.657 -1.1410 -2.0782 -1.3913
  980MOL0     H35231   2.634   1.259   9.576  0.2383  0.4105  0.8352
  980MOL0     H35232   2.602   1.149   9.871 -2.1756 -1.0812  0.1786
  980MOL0     H35233   2.499   1.272   9.810  0.5280  0.2241  1.2765
  980MOL0     H35234   2.392   1.121   9.652 -1.7683 -0.2010  1.1365
  980MOL0     H35235   2.399   1.048   9.815 -0.7022  2.7519  1.2122
  980MOL0     H35236   2.652   0.784   9.610 -0.6169  1.1122 -0.9437
  980MOL0     H35237   2.739   1.620   9.806 -3.1268  1.2273 -0.3609
  980MOL0     H35238   2.556   1.888   9.727  0.8191  1.2309 -2.8615
  980MOL0     H35239   2.670   1.835   9.854  3.8572  0.8801 -0.1079
  980MOL0     H35240   2.713   1.963   9.738  1.2894 -0.9855 -0.8064
  981MOL0     O35241   4.749   8.677   2.170 -0.3984 -0.6335 -0.1406
  981MOL0     C35242   4.857   8.623   2.175  0.5272  0.5865  0.2175
  981MOL0     O35243   4.969   8.683   2.155  0.4892 -0.0843 -0.3992
  981MOL0     C35244   4.978   8.796   2.076 -1.2156  0.4041  0.5340
  981MOL0     C35245   5.074   8.893   2.106  0.0871  0.1039  0.5237
  981MOL0     C35246   5.077   9.015   2.034 -0.5775  0.5263  0.4152
  981MOL0     C35247   4.994   9.053   1.930  0.0292 -0.1220  1.0922
  981MOL0     O35248   4.992   9.177   1.860 -0.3325  0.1674  1.1274
  981MOL0     C35249   5.116   9.257   1.862  1.0165  0.5332 -1.1626
  981MOL0     C35250   5.089   9.402   1.835 -0.0291 -0.1470  0.2711
  981MOL0     C35251   5.216   9.485   1.824  1.0228 -0.7630  0.8941
  981MOL0     C35252   5.192   9.628   1.773 -0.5474  0.0139  0.0867
  981MOL0     C35253   5.200   9.643   1.615 -0.1113  0.8928 -0.8290
  981MOL0     C35254   5.171   9.791   1.567  0.0647 -0.0053  0.0229
  981MOL0     C35255   5.264   9.906   1.609 -0.1522  0.3393 -0.1853
  981MOL0     C35256   5.411   9.886   1.567 -1.1360  0.3750 -0.5722
  981MOL0     N35257   5.429   9.875   1.427  0.0990 -0.1972  0.6788
  981MOL0     C35258   5.437   9.756   1.352 -0.1925 -0.2495 -0.1611
  981MOL0     C35259   5.448   9.796   1.223 -0.3140  0.1211  0.8897
  981MOL0     C35260   5.482   9.703   1.116  0.1216 -0.0717 -0.6968
  981MOL0     C35261   5.635   9.678   1.116 -1.0117  0.3347 -0.9795
  981MOL0     C35262   5.701   9.639   0.978  0.1602 -0.3474 -0.6111
  981MOL0     C35263   5.835   9.571   0.995 -0.5930 -0.5631  0.5214
  981MOL0     O35264   5.928   9.662   1.059 -0.5663  0.4514 -0.9049
  981MOL0     C35265   6.066   9.638   1.060 -0.4176 -0.1458  0.8583
  981MOL0     C35266   6.126   9.522   1.008  0.4231 -0.5650 -0.3292
  981MOL0     C35267   6.259   9.492   1.024 -0.3883 -0.6694 -0.3312
  981MOL0     C35268   6.307   9.359   0.976 -0.3475  0.3176  0.7311
  981MOL0     C35269   6.347   9.587   1.089  0.7642 -0.9507 -1.1993
  981MOL0     C35270   6.494   9.573   1.108  0.6468  0.2367 -0.7013
  981MOL0     O35271   6.564   9.487   1.023 -0.2641 -0.3332  0.1756
  981MOL0     C35272   6.699   9.475   1.042 -0.0159  0.1979  0.3943
  981MOL0     C35273   6.769   9.491   1.163 -0.4234  0.8758  0.0284
  981MOL0     C35274   6.901   9.454   1.176  0.3320  0.5080 -0.2664
  981MOL0     C35275   6.965   9.400   1.066  0.8313 -1.3869 -0.2714
  981MOL0     O35276   7.097   9.371   1.084  0.5080  0.2887 -0.8353
  981MOL0     C35277   7.172   9.332   0.971 -0.8138 -0.6515 -0.2026
  981MOL0     C35278   7.324   9.312   1.001 -0.0238 -0.3902  0.9329
  981MOL0     C35279   7.396   9.250   0.884  0.0848  0.5521  0.3646
  981MOL0     C35280   7.535   9.183   0.902 -0.6578 -0.6402 -0.5047
  981MOL0     C35281   7.550   9.044   0.838  0.3053 -0.6225  0.4743
  981MOL0     C35282   7.567   9.062   0.685 -0.7838  0.2446 -0.4399
  981MOL0     C35283   7.576   8.930   0.612 -0.3571  0.4416 -0.3732
  981MOL0     C35284   7.679   8.935   0.500  0.5775 -0.2495 -0.3620
  981MOL0    Cl35285   7.673   9.079   0.385  0.3010  0.3021  0.0160
  981MOL0     C35286   6.897   9.390   0.941 -0.5371 -0.7800 -0.2571
  981MOL0     C35287   6.767   9.426   0.928  1.1031 -0.2468 -0.5936
  981MOL0     O35288   6.540   9.655   1.189 -0.1973  0.2855  0.0253
  981MOL0     C35289   6.288   9.708   1.137 -0.8528 -0.2666 -0.0252
  981MOL0     C35290   6.149   9.721   1.131 -0.1146 -0.2709  0.7522
  981MOL0     N35291   5.416   9.928   1.216  0.8100  0.0423 -0.0049
  981MOL0     N35292   5.408   9.972   1.342 -0.0236 -0.3403  0.0523
  981MOL0     C35293   4.907   8.959   1.895 -0.9629 -0.6654 -0.1263
  981MOL0     C35294   4.895   8.833   1.964 -0.3927  0.3853  0.2883
  981MOL0     C35295   4.865   8.473   2.220 -0.1442  0.6392 -1.3012
  981MOL0     C35296   4.745   8.406   2.242 -0.3140  0.3600  0.3373
  981MOL0     C35297   4.740   8.278   2.293  0.0372 -0.1511  0.2413
  981MOL0     C35298   4.866   8.214   2.330  0.7553  0.6836 -0.3376
  981MOL0     O35299   4.861   8.098   2.402 -0.1522  0.1926  0.0612
  981MOL0     C35300   4.740   8.008   2.406  0.4440  0.0186 -0.2559
  981MOL0     C35301   4.806   7.874   2.433  0.6115 -0.1662 -0.2255
  981MOL0     C35302   4.708   7.759   2.438  0.7043 -0.1254 -0.3298
  981MOL0     C35303   4.791   7.646   2.491  0.7176  0.7285  0.7085
  981MOL0     C35304   4.883   7.588   2.387 -0.4492 -0.1563 -0.8555
  981MOL0     C35305   4.944   7.523   2.307 -0.4737  0.5924  0.1430
  981MOL0     C35306   4.986   8.278   2.310  0.2238 -0.1520 -0.4651
  981MOL0     C35307   4.986   8.402   2.243 -0.0885  0.5758 -0.0640
  981MOL0     C35308   5.129   8.450   2.213  1.4557 -0.7045  1.7202
  981MOL0     H35309   5.144   8.873   2.187  0.3721  0.1523  0.2898
  981MOL0     H35310   5.158   9.083   2.055  0.2731  0.7645 -2.9687
  981MOL0     H35311   5.176   9.227   1.776  1.2715  2.5426 -1.7302
  981MOL0     H35312   5.173   9.236   1.953 -2.0362 -0.6385  0.6272
  981MOL0     H35313   5.022   9.414   1.750 -1.6881  2.3913  1.8272
  981MOL0     H35314   5.029   9.438   1.918 -1.3716 -3.8523  1.1386
  981MOL0     H35315   5.260   9.492   1.924  0.8563  0.0342  0.9174
  981MOL0     H35316   5.284   9.440   1.751 -0.4121 -2.4019  0.5071
  981MOL0     H35317   5.097   9.658   1.818 -1.1182 -3.1961  1.2710
  981MOL0     H35318   5.278   9.685   1.809 -0.9500 -0.3558  1.6816
  981MOL0     H35319   5.121   9.582   1.571  1.4018 -0.6580 -1.5132
  981MOL0     H35320   5.293   9.599   1.578  0.1200  1.2157 -0.6392
  981MOL0     H35321   5.161   9.793   1.458 -1.6314 -1.9670  0.0850
  981MOL0     H35322   5.071   9.813   1.607  0.7851 -1.1772  2.7228
  981MOL0     H35323   5.259   9.932   1.715  1.1018  2.1266 -0.5203
  981MOL0     H35324   5.223   9.995   1.561 -0.4697  0.3839  0.1640
  981MOL0     H35325   5.476   9.966   1.606 -1.1261  0.9391 -1.7066
  981MOL0     H35326   5.444   9.793   1.614  0.0724  0.2298 -1.6298
  981MOL0     H35327   5.451   9.650   1.369  0.7915 -0.2732 -1.0265
  981MOL0     H35328   5.441   9.735   1.020  0.9135  0.5369 -0.8409
  981MOL0     H35329   5.431   9.611   1.148  0.8612  0.4219  2.1708
  981MOL0     H35330   5.691   9.748   1.177  0.3555 -2.4686  1.2394
  981MOL0     H35331   5.647   9.587   1.176  0.0566  0.4404 -1.0195
  981MOL0     H35332   5.628   9.576   0.925 -0.3397  0.2810 -0.6780
  981MOL0     H35333   5.718   9.728   0.917 -2.8997  0.1492 -0.9169
  981MOL0     H35334   5.828   9.482   1.058  0.6851 -2.0651 -1.3548
  981MOL0     H35335   5.877   9.549   0.897  0.3538  0.8929  0.5621
  981MOL0     H35336   6.059   9.452   0.960 -2.4696  1.0491  1.0192
  981MOL0     H35337   6.225   9.288   0.987  0.9849 -1.8441 -2.1099
  981MOL0     H35338   6.398   9.316   1.019 -0.7206 -0.3792  0.8236
  981MOL0     H35339   6.335   9.371   0.871 -0.2545  0.1085  0.7328
  981MOL0     H35340   6.706   9.517   1.248 -0.3658  3.6352 -0.6743
  981MOL0     H35341   6.956   9.447   1.269  1.5458  1.8220 -0.8483
  981MOL0     H35342   7.134   9.236   0.934  2.2906 -2.4306  0.8646
  981MOL0     H35343   7.165   9.411   0.896 -0.3317 -0.4223 -0.0084
  981MOL0     H35344   7.360   9.415   1.013  0.3240 -0.4344  0.3087
  981MOL0     H35345   7.327   9.246   1.088 -1.8311 -2.5090 -0.5157
  981MOL0     H35346   7.405   9.332   0.812 -0.7564  1.2970  1.0998
  981MOL0     H35347   7.347   9.163   0.840  0.5851  0.8897 -0.9132
  981MOL0     H35348   7.537   9.166   1.010 -2.8583  0.5930 -0.2186
  981MOL0     H35349   7.614   9.255   0.881 -1.5714  0.6036  0.1637
  981MOL0     H35350   7.637   8.984   0.867 -1.1549 -3.0923 -0.0627
  981MOL0     H35351   7.461   8.991   0.871 -1.3010  1.3471 -0.4782
  981MOL0     H35352   7.659   9.119   0.670  0.0281 -0.4733  1.4735
  981MOL0     H35353   7.492   9.127   0.639  3.0165  3.0146 -3.3346
  981MOL0     H35354   7.479   8.900   0.572 -0.6212 -0.1196  0.6362
  981MOL0     H35355   7.616   8.850   0.675  1.1678  3.1658  2.4076
  981MOL0     H35356   7.680   8.843   0.441 -0.5515  0.1234 -0.9839
  981MOL0     H35357   7.776   8.930   0.550 -0.6481 -1.1514  2.0801
  981MOL0     H35358   6.948   9.362   0.849 -1.1606  1.4117 -1.3492
  981MOL0     H35359   6.714   9.418   0.834 -0.1651  1.6255 -0.0986
  981MOL0     H35360   6.339   9.791   1.184 -0.8701 -2.0456  3.4722
  981MOL0     H35361   6.101   9.813   1.162 -2.6132 -2.0550  2.6578
  981MOL0     H35362   4.852   8.984   1.805 -0.3340  1.0102 -0.0682
  981MOL0     H35363   4.829   8.768   1.907  0.8739 -0.2267 -0.5062
  981MOL0     H35364   4.653   8.459   2.218 -0.1999 -0.8604 -3.3543
  981MOL0     H35365   4.648   8.227   2.317 -1.1480  2.3584  1.3710
  981MOL0     H35366   4.668   8.039   2.482  1.5654 -0.9215  1.2446
  981MOL0     H35367   4.691   7.985   2.311 -0.0531 -0.7207  0.1661
  981MOL0     H35368   4.854   7.889   2.530 -1.3832 -1.7012  1.0843
  981MOL0     H35369   4.884   7.865   2.357  1.3999  2.4639  0.1569
  981MOL0     H35370   4.650   7.785   2.527  1.5917 -0.8642  0.4889
  981MOL0     H35371   4.666   7.751   2.337  3.9248 -1.2571 -1.7150
  981MOL0     H35372   4.722   7.568   2.526  2.3223 -1.8848 -1.4985
  981MOL0     H35373   4.857   7.678   2.572  2.5892  0.0898 -0.4917
  981MOL0     H35374   5.007   7.478   2.233 -1.7388  1.5953 -1.5858
  981MOL0     H35375   5.074   8.219   2.336  0.0778 -0.1511  0.0576
  981MOL0     H35376   5.129   8.520   2.128 -1.6256 -0.8985  1.4731
  981MOL0     H35377   5.156   8.508   2.301  0.9239  2.9762 -0.3386
  981MOL0     H35378   5.192   8.361   2.203 -0.1223 -1.8913  1.9502
  982MOL0     O35379   0.056   3.099  11.420 -0.0151 -1.0410 -0.3703
  982MOL0     C35380   0.030   2.990  11.383 -0.0025  0.0509 -0.3345
  982MOL0     O35381   0.061   2.942  11.256  0.2586  0.2937  0.3464
  982MOL0     C35382   0.162   2.997  11.179  0.6510  0.2709 -0.2875
  982MOL0     C35383   0.161   2.963  11.041  0.2566 -0.6608 -0.1388
  982MOL0     C35384   0.246   3.024  10.942  0.3208  0.3879  0.3434
  982MOL0     C35385   0.352   3.104  10.988 -0.1817 -0.4102 -0.4255
  982MOL0     O35386   0.442   3.153  10.899 -0.5172  0.0225  0.6411
  982MOL0     C35387   0.532   3.257  10.942 -0.4835 -0.6426  0.2386
  982MOL0     C35388   0.629   3.276  10.823 -0.7099 -1.0672 -0.1883
  982MOL0     C35389   0.737   3.382  10.836  0.8920 -0.5424  0.7189
  982MOL0     C35390   0.850   3.371  10.732 -0.1088 -0.4242 -0.4833
  982MOL0     C35391   0.962   3.468  10.772 -0.5078  0.7343 -0.6848
  982MOL0     C35392   1.063   3.486  10.659  0.5501 -0.3434  0.3410
  982MOL0     C35393   1.182   3.575  10.688  1.0361 -0.1643 -0.0389
  982MOL0     C35394   1.268   3.496  10.792 -0.0975  0.1199 -0.2840
  982MOL0     N35395   1.337   3.372  10.749 -0.5095  0.8443 -0.3964
  982MOL0     C35396   1.276   3.250  10.722  0.6957  0.0287  0.5011
  982MOL0     C35397   1.381   3.171  10.689  0.5508 -0.6365 -0.5437
  982MOL0     C35398   1.381   3.035  10.639 -0.5056  0.1595  0.2999
  982MOL0     C35399   1.380   2.941  10.755  0.3589  0.1784 -0.0784
  982MOL0     C35400   1.495   2.851  10.763 -0.1216  0.3118 -0.9435
  982MOL0     C35401   1.495   2.796  10.906 -0.4574 -0.3821 -0.4249
  982MOL0     O35402   1.568   2.675  10.912  0.1617 -0.4250  0.5920
  982MOL0     C35403   1.697   2.672  10.866 -0.4811 -1.4143 -0.6011
  982MOL0     C35404   1.805   2.686  10.957 -0.1521 -0.9828 -0.1703
  982MOL0     C35405   1.936   2.679  10.907 -0.0805 -0.6272 -0.3992
  982MOL0     C35406   2.046   2.714  11.001  0.2165  1.0654  1.0384
  982MOL0     C35407   1.972   2.660  10.769 -0.6135 -0.3447 -0.6401
  982MOL0     C35408   2.120   2.647  10.741 -0.0678  0.4831  0.9580
  982MOL0     O35409   2.176   2.523  10.743 -0.3060  0.6525 -0.5683
  982MOL0     C35410   2.320   2.504  10.747  0.0680 -0.3458  0.4239
  982MOL0     C35411   2.382   2.548  10.871  0.0628  0.5088  0.0417
  982MOL0     C35412   2.521   2.537  10.886  0.8060 -0.7768  0.5671
  982MOL0     C35413   2.597   2.481  10.786  0.2755  0.0750 -0.6235
  982MOL0     O35414   2.722   2.447  10.811 -0.0861 -0.1190  0.1704
  982MOL0     C35415   2.820   2.467  10.710 -0.4167 -0.4344 -0.5784
  982MOL0     C35416   2.959   2.430  10.767 -0.6212 -0.6748  0.9562
  982MOL0     C35417   3.080   2.484  10.680  0.9005  0.9065 -0.2479
  982MOL0     C35418   3.110   2.380  10.569 -0.5008  0.5858 -1.1041
  982MOL0     C35419   3.230   2.286  10.598 -0.6695 -0.1127  0.2683
  982MOL0     C35420   3.269   2.239  10.454 -0.9026  0.0103  1.2925
  982MOL0     C35421   3.409   2.309  10.423 -0.0542  0.3388  0.0501
  982MOL0     C35422   3.454   2.256  10.282 -0.8717 -0.4098 -1.3251
  982MOL0    Cl35423   3.344   2.321  10.157 -0.4031  0.1029  0.1975
  982MOL0     C35424   2.537   2.432  10.668  0.3418  0.0050  0.1012
  982MOL0     C35425   2.400   2.443  10.642 -0.0969 -0.7559  0.2044
  982MOL0     O35426   2.181   2.751  10.721  0.6762  0.7973 -0.2702
  982MOL0     C35427   1.862   2.630  10.689 -0.0218 -0.1463  0.1236
  982MOL0     C35428   1.726   2.635  10.736 -1.1171 -0.0912  0.5090
  982MOL0     N35429   1.497   3.241  10.698 -0.9538  0.2306 -0.5740
  982MOL0     N35430   1.474   3.368  10.733 -0.1611  0.2465  0.4290
  982MOL0     C35431   0.363   3.126  11.130  0.7931 -0.4112  0.4864
  982MOL0     C35432   0.266   3.075  11.223  0.4118 -0.5225  0.1110
  982MOL0     C35433  -0.010   2.899  11.485 -0.0069  0.9196  0.0721
  982MOL0     C35434  -0.147   2.868  11.499 -0.0928 -0.8324 -0.6659
  982MOL0     C35435  -0.199   2.787  11.596 -0.3399  0.1428  1.0782
  982MOL0     C35436  -0.114   2.723  11.684 -0.7334  0.1182  0.0589
  982MOL0     O35437  -0.153   2.620  11.769 -0.0887 -1.2512 -0.7754
  982MOL0     C35438  -0.291   2.594  11.794 -0.1350 -0.1189  0.4384
  982MOL0     C35439  -0.336   2.469  11.706 -0.1843  0.0607  0.5507
  982MOL0     C35440  -0.458   2.398  11.769 -0.0054 -0.3820 -0.0373
  982MOL0     C35441  -0.589   2.414  11.679 -0.4409  0.8813  0.0628
  982MOL0     C35442  -0.646   2.548  11.670 -0.0033 -0.1627  0.3887
  982MOL0     C35443  -0.687   2.661  11.664  0.7040  0.0916  0.8415
  982MOL0     C35444   0.029   2.755  11.669  0.1554 -0.1008  0.3836
  982MOL0     C35445   0.082   2.842  11.574  0.2161 -0.2101  0.1733
  982MOL0     C35446   0.225   2.874  11.575 -0.7342  0.9667 -0.2499
  982MOL0     H35447   0.082   2.907  10.991  0.6761 -0.5564 -0.9288
  982MOL0     H35448   0.242   2.993  10.838  0.2709 -0.8542  0.6974
  982MOL0     H35449   0.597   3.227  11.025  1.1304 -0.3865 -0.8986
  982MOL0     H35450   0.481   3.350  10.968  0.2899 -0.4183  1.0086
  982MOL0     H35451   0.688   3.185  10.810  1.7205  0.5261 -0.9964
  982MOL0     H35452   0.569   3.306  10.736 -0.0932 -1.4361 -0.7521
  982MOL0     H35453   0.704   3.486  10.823  4.4930  0.5724 -0.7961
  982MOL0     H35454   0.789   3.371  10.931  1.4875 -0.2872  0.4301
  982MOL0     H35455   0.891   3.269  10.736  0.8845 -0.0228 -0.2329
  982MOL0     H35456   0.803   3.394  10.636 -0.0398  1.4657 -0.0985
  982MOL0     H35457   1.016   3.424  10.856 -1.9950  1.3899  0.6628
  982MOL0     H35458   0.920   3.564  10.803 -1.3593  0.1634  0.0006
  982MOL0     H35459   1.099   3.400  10.603  3.7449  0.6843  0.6252
  982MOL0     H35460   0.999   3.545  10.593  1.5942  2.3712  1.5873
  982MOL0     H35461   1.146   3.669  10.730 -3.2866  0.2186 -3.8491
  982MOL0     H35462   1.239   3.590  10.597  1.1871 -1.0717 -0.1040
  982MOL0     H35463   1.346   3.561  10.833 -0.3307  0.4688 -0.3885
  982MOL0     H35464   1.213   3.481  10.885 -0.6912  2.7152 -0.1234
  982MOL0     H35465   1.173   3.219  10.737  0.9489 -1.1048 -0.0196
  982MOL0     H35466   1.458   3.021  10.563 -0.3030  2.0682  0.1026
  982MOL0     H35467   1.282   3.012  10.598 -1.3862  1.8948  1.3418
  982MOL0     H35468   1.372   2.991  10.852 -2.1243 -0.9663  0.3695
  982MOL0     H35469   1.291   2.878  10.754  0.8097 -0.4750 -0.4818
  982MOL0     H35470   1.467   2.765  10.701 -2.8560 -1.8541  2.8483
  982MOL0     H35471   1.587   2.900  10.730  0.8650 -3.1371 -3.9184
  982MOL0     H35472   1.550   2.861  10.975  0.4137 -2.1017  0.5846
  982MOL0     H35473   1.396   2.782  10.951 -0.3880 -1.4834 -0.5999
  982MOL0     H35474   1.790   2.721  11.059  0.4718  2.6673 -1.1852
  982MOL0     H35475   2.116   2.789  10.962  1.4056  0.0206  1.1035
  982MOL0     H35476   2.097   2.621  11.027  1.2267  1.0600 -0.8192
  982MOL0     H35477   1.999   2.760  11.089  2.1083  3.2276  1.0277
  982MOL0     H35478   2.322   2.579  10.955  0.0415  3.7832 -1.0415
  982MOL0     H35479   2.566   2.555  10.984 -0.8825 -1.7111  1.5581
  982MOL0     H35480   2.801   2.406  10.621  0.5697 -0.4256 -0.7981
  982MOL0     H35481   2.814   2.568  10.669 -0.3286 -1.4291 -3.2432
  982MOL0     H35482   2.978   2.476  10.864 -1.7302  1.4671  0.2379
  982MOL0     H35483   2.971   2.321  10.769 -3.0791 -1.3154 -3.7617
  982MOL0     H35484   3.167   2.501  10.743  2.3469 -0.3355 -1.7946
  982MOL0     H35485   3.037   2.577  10.641 -2.9171 -0.6211 -0.2256
  982MOL0     H35486   3.139   2.445  10.486  1.3115 -0.4801 -1.3449
  982MOL0     H35487   3.020   2.330  10.532 -0.5705 -0.3216  0.2319
  982MOL0     H35488   3.304   2.343  10.654  0.1500 -2.9472  2.3130
  982MOL0     H35489   3.197   2.206  10.665  0.5916 -0.6141  0.3198
  982MOL0     H35490   3.191   2.261  10.382 -1.4534 -0.1908  1.8218
  982MOL0     H35491   3.293   2.132  10.460  2.3506  0.6749  2.6931
  982MOL0     H35492   3.476   2.279  10.505 -1.2352  0.2295  1.0101
  982MOL0     H35493   3.407   2.418  10.422  1.2780  0.3682 -1.1162
  982MOL0     H35494   3.457   2.147  10.287 -0.2355 -0.3576  2.4714
  982MOL0     H35495   3.558   2.286  10.264 -1.1329  0.6002 -1.2272
  982MOL0     H35496   2.593   2.369  10.599  2.1384  1.6337 -0.0523
  982MOL0     H35497   2.352   2.396  10.557 -1.5810 -1.8050  1.5775
  982MOL0     H35498   1.878   2.594  10.587  2.5689 -5.6588  2.0721
  982MOL0     H35499   1.647   2.603  10.669 -0.1725  2.2039 -1.8685
  982MOL0     H35500   0.436   3.196  11.168 -0.5540  1.1280  0.3842
  982MOL0     H35501   0.281   3.090  11.329 -2.5074  3.4286  0.1598
  982MOL0     H35502  -0.218   2.921  11.435 -0.8052 -2.1985 -1.0382
  982MOL0     H35503  -0.307   2.782  11.596 -0.3374  0.0551  0.8794
  982MOL0     H35504  -0.304   2.568  11.899 -0.1134  1.9394  0.9949
  982MOL0     H35505  -0.349   2.686  11.778  1.3970  1.2543  2.3038
  982MOL0     H35506  -0.252   2.400  11.695 -0.0660  0.3685 -0.6130
  982MOL0     H35507  -0.346   2.507  11.604  0.8532  1.3728  0.9062
  982MOL0     H35508  -0.429   2.292  11.773 -0.7593 -0.6731 -1.5208
  982MOL0     H35509  -0.473   2.430  11.872 -2.1395  1.2707 -0.7889
  982MOL0     H35510  -0.659   2.342  11.721  1.2356 -0.1023  1.2850
  982MOL0     H35511  -0.568   2.387  11.575  0.5121  1.8674 -0.0259
  982MOL0     H35512  -0.731   2.757  11.644 -1.2296 -1.2773 -2.1265
  982MOL0     H35513   0.089   2.700  11.741 -0.1983  0.6696  1.2957
  982MOL0     H35514   0.267   2.808  11.499  0.1776  1.5427 -0.2619
  982MOL0     H35515   0.256   2.971  11.535 -0.3909  0.2172 -1.8848
  982MOL0     H35516   0.271   2.865  11.674  1.5240  1.8353 -1.1816
  983MOL0     O35517   3.605   3.076   8.117  0.5224  0.2688 -0.2861
  983MOL0     C35518   3.644   3.184   8.154  0.0255  0.0553  0.1316
  983MOL0     O35519   3.582   3.302   8.118  0.9658  0.0285  0.2990
  983MOL0     C35520   3.452   3.290   8.072  0.9202  0.4594 -0.6199
  983MOL0     C35521   3.338   3.259   8.147 -0.4928 -0.2829 -0.4625
  983MOL0     C35522   3.210   3.245   8.092 -0.4443 -0.0693 -0.3178
  983MOL0     C35523   3.199   3.284   7.958  0.9121 -0.7449 -0.2472
  983MOL0     O35524   3.070   3.269   7.919 -0.5547  0.2978  0.8755
  983MOL0     C35525   3.036   3.316   7.795  0.0355  0.6618 -0.0554
  983MOL0     C35526   2.896   3.250   7.755 -0.2334 -0.4100 -0.0511
  983MOL0     C35527   2.909   3.107   7.698  0.2373  0.2762 -0.3545
  983MOL0     C35528   2.777   3.060   7.636  0.3158  1.0853 -0.3354
  983MOL0     C35529   2.782   2.904   7.655  0.0159 -0.0816 -0.1134
  983MOL0     C35530   2.656   2.846   7.588  0.7254  0.4153 -0.5087
  983MOL0     C35531   2.599   2.734   7.670 -0.0062  0.3359  0.1215
  983MOL0     C35532   2.539   2.765   7.801 -0.4154  0.0666  0.6423
  983MOL0     N35533   2.439   2.662   7.849 -0.8427  0.5349 -0.5494
  983MOL0     C35534   2.461   2.569   7.954 -0.1261 -0.5635 -0.7123
  983MOL0     C35535   2.344   2.503   7.970  0.1880 -0.4900  0.5515
  983MOL0     C35536   2.315   2.402   8.071  0.4064 -0.0245 -0.8925
  983MOL0     C35537   2.298   2.253   8.030  0.2406 -0.4797  0.3221
  983MOL0     C35538   2.430   2.188   7.979  0.1985 -0.3521 -0.0700
  983MOL0     C35539   2.479   2.224   7.846 -0.3002  0.4635 -0.4046
  983MOL0     O35540   2.372   2.261   7.762 -0.2082 -0.7770  0.3642
  983MOL0     C35541   2.406   2.327   7.646 -0.6947 -0.4020 -0.4799
  983MOL0     C35542   2.540   2.340   7.587  0.1488 -0.1380 -0.5594
  983MOL0     C35543   2.564   2.416   7.474  0.6382 -0.1679  0.0439
  983MOL0     C35544   2.712   2.443   7.436  0.0668 -0.1362  0.8772
  983MOL0     C35545   2.454   2.459   7.392 -0.1167  0.4135 -1.3142
  983MOL0     C35546   2.487   2.535   7.268 -0.5775 -0.3687 -0.3112
  983MOL0     O35547   2.507   2.673   7.279 -0.1333  0.5990 -0.0109
  983MOL0     C35548   2.526   2.757   7.177 -0.2680 -0.1877  0.0422
  983MOL0     C35549   2.421   2.796   7.097 -0.4555 -0.8712  1.0683
  983MOL0     C35550   2.453   2.891   6.987  0.1178  0.8253 -0.1965
  983MOL0     C35551   2.581   2.931   6.957  0.0735  0.4209  0.0597
  983MOL0     O35552   2.618   3.017   6.862  1.0819 -0.6534 -0.1953
  983MOL0     C35553   2.587   2.984   6.726  0.7721 -0.1422 -0.0875
  983MOL0     C35554   2.510   3.111   6.675 -1.2012 -0.3824  0.5879
  983MOL0     C35555   2.371   3.130   6.734 -0.4084 -0.3048  0.6625
  983MOL0     C35556   2.294   3.249   6.686 -0.0380 -0.3159  0.0458
  983MOL0     C35557   2.167   3.217   6.599  0.0601  0.4816 -0.0810
  983MOL0     C35558   2.113   3.340   6.528  0.0109 -0.4821 -0.0854
  983MOL0     C35559   1.978   3.300   6.463  0.1191 -0.3273 -0.2471
  983MOL0     C35560   1.968   3.349   6.318 -0.0287 -0.1480 -0.3524
  983MOL0    Cl35561   1.989   3.538   6.316  0.1133  0.0286 -0.3133
  983MOL0     C35562   2.681   2.873   7.030  0.1860  0.3179  0.0895
  983MOL0     C35563   2.658   2.802   7.146  0.3082 -0.2170 -0.6383
  983MOL0     O35564   2.499   2.471   7.161 -0.5316 -0.6990 -0.0350
  983MOL0     C35565   2.320   2.426   7.437  0.1648 -0.3389  0.8423
  983MOL0     C35566   2.296   2.378   7.569  0.1750  0.4349  0.0233
  983MOL0     N35567   2.248   2.564   7.883  0.3210  0.8759  0.6086
  983MOL0     N35568   2.307   2.654   7.808 -0.6855  1.0116  0.3612
  983MOL0     C35569   3.307   3.340   7.887  0.3827  0.1437  0.6290
  983MOL0     C35570   3.434   3.325   7.945 -0.9634  0.0268 -0.0081
  983MOL0     C35571   3.754   3.207   8.246  0.0888 -0.8671  1.2107
  983MOL0     C35572   3.835   3.326   8.221  0.3987  0.2062 -0.3093
  983MOL0     C35573   3.933   3.363   8.317 -0.2235  0.1628  0.1015
  983MOL0     C35574   3.946   3.286   8.434 -0.5322 -0.5066  0.4259
  983MOL0     O35575   4.046   3.327   8.527 -0.5117 -0.4191  0.4047
  983MOL0     C35576   4.175   3.282   8.470  0.0518 -1.1842  0.3597
  983MOL0     C35577   4.283   3.282   8.577 -0.1910 -0.8666  0.3639
  983MOL0     C35578   4.282   3.414   8.652 -0.4658 -0.3374  0.2056
  983MOL0     C35579   4.397   3.420   8.752  0.0491  0.1366 -0.0252
  983MOL0     C35580   4.389   3.325   8.867 -0.2007 -0.9978  0.7078
  983MOL0     C35581   4.403   3.258   8.958  0.1302 -0.9428  0.8617
  983MOL0     C35582   3.877   3.173   8.460  0.2322  0.4792 -0.6038
  983MOL0     C35583   3.781   3.133   8.364 -0.1960 -0.4322 -0.8017
  983MOL0     C35584   3.699   3.007   8.409  0.3017  0.2564  1.3895
  983MOL0     H35585   3.347   3.234   8.252 -0.3941  1.1610 -0.1091
  983MOL0     H35586   3.129   3.208   8.154  1.3969 -1.1518  1.5768
  983MOL0     H35587   3.103   3.274   7.720 -1.1698  0.7494 -1.2233
  983MOL0     H35588   3.016   3.423   7.788 -4.2801  0.0588 -0.0614
  983MOL0     H35589   2.831   3.243   7.842  0.8360 -0.3599  0.7769
  983MOL0     H35590   2.867   3.320   7.675  0.6173 -3.9615 -3.8080
  983MOL0     H35591   2.985   3.114   7.619 -0.1005  3.4946 -0.5574
  983MOL0     H35592   2.943   3.047   7.783  1.1530  3.6193  1.8647
  983MOL0     H35593   2.698   3.107   7.696  1.0240 -1.2737  2.6904
  983MOL0     H35594   2.770   3.080   7.529  1.8803  1.3563 -0.4035
  983MOL0     H35595   2.787   2.893   7.763  1.3314  3.4621  0.3354
  983MOL0     H35596   2.872   2.861   7.611 -0.7774 -1.9673 -0.0095
  983MOL0     H35597   2.581   2.925   7.584  0.1870 -0.1210 -1.2704
  983MOL0     H35598   2.691   2.819   7.488  0.1998  3.4022 -1.5783
  983MOL0     H35599   2.684   2.668   7.688  1.1948  1.8792  0.3396
  983MOL0     H35600   2.518   2.686   7.614 -0.5269 -1.2469  2.0925
  983MOL0     H35601   2.615   2.779   7.879 -0.3752  2.7905  0.2422
  983MOL0     H35602   2.478   2.855   7.789  1.5142  1.3027 -0.3933
  983MOL0     H35603   2.556   2.567   8.007  0.6886  2.2784 -1.8605
  983MOL0     H35604   2.219   2.434   8.112  0.3421 -2.4252  1.0699
  983MOL0     H35605   2.388   2.399   8.153 -0.2890 -0.3321 -0.2625
  983MOL0     H35606   2.258   2.195   8.114 -3.7955 -0.2452 -1.2460
  983MOL0     H35607   2.235   2.234   7.943  0.5101 -4.0989  0.7457
  983MOL0     H35608   2.497   2.215   8.061 -1.3848  2.8416  0.3369
  983MOL0     H35609   2.418   2.080   7.975  1.4235 -0.4960 -0.2594
  983MOL0     H35610   2.558   2.298   7.857  1.5298 -0.8615 -3.2889
  983MOL0     H35611   2.522   2.131   7.806 -0.1032  1.5470 -2.9108
  983MOL0     H35612   2.621   2.315   7.655 -0.3424 -1.8513 -0.5663
  983MOL0     H35613   2.721   2.549   7.411  1.8501 -0.2227  1.0221
  983MOL0     H35614   2.725   2.373   7.353 -1.7080 -1.5236  1.7024
  983MOL0     H35615   2.782   2.403   7.509  1.0258 -0.0693  0.0204
  983MOL0     H35616   2.322   2.771   7.132 -0.0790 -2.0666  1.3198
  983MOL0     H35617   2.375   2.924   6.919  1.5350  0.1954 -2.2046
  983MOL0     H35618   2.671   2.961   6.660  1.4392  0.1063  0.6573
  983MOL0     H35619   2.522   2.897   6.716  1.5330 -0.7748  0.3862
  983MOL0     H35620   2.568   3.202   6.694  2.1753 -2.5419  1.4191
  983MOL0     H35621   2.503   3.112   6.565 -0.2245  1.2471  0.5144
  983MOL0     H35622   2.369   3.142   6.843  1.2231  3.0271  0.4361
  983MOL0     H35623   2.308   3.045   6.705  0.2186 -0.6448  0.2871
  983MOL0     H35624   2.369   3.305   6.630 -1.0078 -0.2928 -1.2903
  983MOL0     H35625   2.253   3.305   6.770 -0.4343 -0.0641 -0.3135
  983MOL0     H35626   2.199   3.146   6.522 -1.7094 -0.6479  0.1706
  983MOL0     H35627   2.090   3.168   6.660 -1.1990 -0.4152 -2.2841
  983MOL0     H35628   2.173   3.376   6.444 -0.4972  1.8145  0.4700
  983MOL0     H35629   2.104   3.426   6.595  0.4443 -0.4910 -0.0103
  983MOL0     H35630   1.898   3.343   6.523 -0.6567 -0.6960 -0.9964
  983MOL0     H35631   1.960   3.192   6.462  0.7743 -0.4531  0.5727
  983MOL0     H35632   1.867   3.328   6.283 -0.2629  0.4057 -0.0250
  983MOL0     H35633   2.042   3.296   6.257 -0.2886 -1.1410  0.1794
  983MOL0     H35634   2.783   2.900   7.004  0.4826 -2.0295 -1.4469
  983MOL0     H35635   2.752   2.779   7.196  1.0720  0.6026 -1.6386
  983MOL0     H35636   2.234   2.450   7.376  1.0786 -0.7327 -0.6312
  983MOL0     H35637   2.199   2.375   7.616  0.1616 -2.0441 -0.0478
  983MOL0     H35638   3.291   3.382   7.788 -0.2988  1.6521  1.3426
  983MOL0     H35639   3.524   3.347   7.888  0.0199  0.9665  1.8385
  983MOL0     H35640   3.813   3.384   8.132  2.6963 -2.9831 -3.2340
  983MOL0     H35641   3.993   3.452   8.303  0.6749 -0.4190  0.1596
  983MOL0     H35642   4.176   3.175   8.449  1.0467 -0.7979 -1.8182
  983MOL0     H35643   4.189   3.339   8.378  0.4406 -2.2756 -0.2807
  983MOL0     H35644   4.377   3.271   8.523 -0.7866 -1.0985 -0.6602
  983MOL0     H35645   4.249   3.198   8.638 -2.1639 -1.0265 -0.8476
  983MOL0     H35646   4.283   3.496   8.580 -1.2557 -0.9031 -0.4818
  983MOL0     H35647   4.190   3.437   8.707 -2.6064 -0.2927 -3.0911
  983MOL0     H35648   4.389   3.515   8.805 -1.0532 -1.1452  2.2166
  983MOL0     H35649   4.495   3.436   8.704  1.7513 -1.1231  2.7762
  983MOL0     H35650   4.433   3.202   9.044  0.2901 -0.5630  1.0523
  983MOL0     H35651   3.895   3.130   8.558  0.5598 -2.3554 -1.8098
  983MOL0     H35652   3.671   3.024   8.513  1.3329  0.4948  1.6427
  983MOL0     H35653   3.613   2.980   8.348  1.0962 -0.4643  0.5462
  983MOL0     H35654   3.769   2.922   8.411  1.4603  1.1665  0.6527
  984MOL0     O35655   4.590   5.068   4.212  0.2956 -0.4931 -0.0721
  984MOL0     C35656   4.579   5.105   4.094 -0.3771  0.8648  0.3465
  984MOL0     O35657   4.543   5.229   4.050 -0.1549  0.4647 -0.4135
  984MOL0     C35658   4.516   5.314   4.156 -0.8253  0.5444 -0.8621
  984MOL0     C35659   4.609   5.419   4.178 -0.3824  0.3253 -0.6002
  984MOL0     C35660   4.577   5.530   4.264 -0.2159  0.6129  0.7388
  984MOL0     C35661   4.452   5.531   4.328  0.4086  0.1718  0.3042
  984MOL0     O35662   4.404   5.628   4.409  1.3960  0.4381  0.5256
  984MOL0     C35663   4.485   5.741   4.449 -0.6299  0.7449  0.5443
  984MOL0     C35664   4.467   5.760   4.604 -0.9042 -0.2020 -0.0118
  984MOL0     C35665   4.571   5.848   4.666 -0.1587  0.0067 -0.1733
  984MOL0     C35666   4.528   5.994   4.658 -0.1734 -0.4962  0.1926
  984MOL0     C35667   4.610   6.080   4.755 -0.1472 -0.4424  1.1355
  984MOL0     C35668   4.536   6.209   4.794 -0.2218  0.1244  0.5655
  984MOL0     C35669   4.624   6.332   4.813 -0.6126  0.1811  0.9931
  984MOL0     C35670   4.544   6.449   4.862  0.2649  0.1027  0.1003
  984MOL0     N35671   4.437   6.504   4.781  0.6001  0.1301  0.5145
  984MOL0     C35672   4.457   6.565   4.662 -0.1635 -0.2470  0.8030
  984MOL0     C35673   4.337   6.608   4.613 -0.0522 -0.4501 -0.4763
  984MOL0     C35674   4.312   6.675   4.480 -0.1686 -0.5270 -0.1564
  984MOL0     C35675   4.326   6.568   4.360 -0.2031 -0.0093  0.6508
  984MOL0     C35676   4.468   6.592   4.297  0.6262 -0.0576 -0.4201
  984MOL0     C35677   4.506   6.478   4.201 -0.9464  0.2493  0.4846
  984MOL0     O35678   4.637   6.508   4.149  0.0033 -0.0530  0.3458
  984MOL0     C35679   4.693   6.429   4.052  0.3606 -0.5805  0.2575
  984MOL0     C35680   4.791   6.486   3.978  0.0132  0.3185  0.3414
  984MOL0     C35681   4.863   6.412   3.883 -0.2768 -0.5342  0.0159
  984MOL0     C35682   4.986   6.488   3.830  0.9691 -0.6745 -0.0066
  984MOL0     C35683   4.829   6.280   3.847 -0.4360 -0.3843  0.4183
  984MOL0     C35684   4.886   6.200   3.744 -0.4151 -0.2178  0.1371
  984MOL0     O35685   4.862   6.065   3.754  0.7315  0.0103 -0.7990
  984MOL0     C35686   4.887   5.992   3.639  0.1902  1.1863 -1.2958
  984MOL0     C35687   5.010   5.974   3.589  0.3755  0.6360 -0.8739
  984MOL0     C35688   5.019   5.899   3.464 -0.6542  0.2823  0.7037
  984MOL0     C35689   4.907   5.840   3.402  0.3609  0.1535  0.8388
  984MOL0     O35690   4.905   5.772   3.281  0.1616  0.0703 -0.5994
  984MOL0     C35691   5.014   5.774   3.193 -0.5077  0.4409 -0.3106
  984MOL0     C35692   4.985   5.696   3.071  0.2313  0.5170 -1.0579
  984MOL0     C35693   5.082   5.699   2.959 -0.4857  0.4200  0.0795
  984MOL0     C35694   5.031   5.606   2.843 -0.0937 -0.3059 -0.1501
  984MOL0     C35695   5.144   5.579   2.750  0.2748 -0.6077 -0.1940
  984MOL0     C35696   5.102   5.618   2.600 -0.9190 -0.0970 -0.0367
  984MOL0     C35697   5.222   5.592   2.497 -0.5548  0.4019  0.3692
  984MOL0     C35698   5.334   5.702   2.487  0.7024  0.8493 -0.2714
  984MOL0    Cl35699   5.405   5.702   2.324 -0.3396 -0.0922  0.1999
  984MOL0     C35700   4.780   5.859   3.468 -0.4987  0.4964 -0.3098
  984MOL0     C35701   4.777   5.929   3.584 -0.4292  0.5655 -0.0382
  984MOL0     O35702   4.928   6.266   3.641 -0.4145 -0.0636 -0.2243
  984MOL0     C35703   4.725   6.225   3.928 -0.2060  0.7022 -0.1871
  984MOL0     C35704   4.660   6.295   4.022  0.2615 -1.0232 -0.2402
  984MOL0     N35705   4.245   6.571   4.706  0.0414  0.2716  0.3731
  984MOL0     N35706   4.306   6.512   4.810  0.4458 -0.3626 -0.8333
  984MOL0     C35707   4.363   5.424   4.307  0.1192 -0.1636 -1.2976
  984MOL0     C35708   4.392   5.321   4.218  0.0587  0.6211 -0.3187
  984MOL0     C35709   4.606   5.003   3.988  0.2343  0.0949 -0.4654
  984MOL0     C35710   4.517   4.893   3.976 -0.5877 -0.4276  0.2847
  984MOL0     C35711   4.534   4.806   3.865 -0.5216  0.1152  0.7100
  984MOL0     C35712   4.637   4.834   3.771  0.3793 -0.2053 -0.5374
  984MOL0     O35713   4.682   4.756   3.668  0.3483 -0.2629  0.2757
  984MOL0     C35714   4.614   4.636   3.625  0.1401  0.1511 -0.0910
  984MOL0     C35715   4.489   4.662   3.545  0.4382 -0.4375  0.1997
  984MOL0     C35716   4.424   4.531   3.487  0.9776  0.9730  0.3395
  984MOL0     C35717   4.353   4.462   3.607 -0.1275 -0.0277  0.3851
  984MOL0     C35718   4.292   4.337   3.569 -0.8985  0.8146 -0.1464
  984MOL0     C35719   4.227   4.236   3.540  0.1501 -0.1164 -0.6330
  984MOL0     C35720   4.722   4.943   3.792  0.7876 -0.5764  0.0508
  984MOL0     C35721   4.708   5.033   3.891 -1.1527  0.2211  0.3412
  984MOL0     C35722   4.797   5.156   3.885 -0.2373 -0.3563  0.5538
  984MOL0     H35723   4.702   5.415   4.122  0.4717  0.9292  0.7272
  984MOL0     H35724   4.646   5.613   4.256  0.5550  0.0345  1.2936
  984MOL0     H35725   4.449   5.823   4.386  2.4792 -0.7955 -3.7069
  984MOL0     H35726   4.589   5.733   4.416 -0.7575 -2.2890  0.6425
  984MOL0     H35727   4.368   5.802   4.622 -0.3003  1.4831 -0.4316
  984MOL0     H35728   4.465   5.665   4.657  1.1855  0.2141  0.9081
  984MOL0     H35729   4.582   5.826   4.773 -0.2017  2.5989  0.4338
  984MOL0     H35730   4.669   5.845   4.616  0.4427  0.8763  0.8972
  984MOL0     H35731   4.537   6.019   4.552  0.2990 -0.7837  0.1639
  984MOL0     H35732   4.424   6.013   4.689  0.6566  1.3200  2.0738
  984MOL0     H35733   4.696   6.121   4.701 -1.9598  1.6252 -0.3520
  984MOL0     H35734   4.637   6.023   4.844  1.6192 -0.8825  0.3600
  984MOL0     H35735   4.465   6.245   4.718  1.4203  3.5755  0.4417
  984MOL0     H35736   4.480   6.188   4.886  0.0325  1.2483  0.9933
  984MOL0     H35737   4.669   6.352   4.715 -2.0464 -5.0165 -1.0823
  984MOL0     H35738   4.707   6.306   4.880  2.5577  2.5248 -1.6842
  984MOL0     H35739   4.514   6.414   4.961  1.5674 -1.1272  0.0871
  984MOL0     H35740   4.600   6.542   4.877 -1.0934  0.8056  1.1599
  984MOL0     H35741   4.553   6.584   4.613  0.0702  0.0532  1.3658
  984MOL0     H35742   4.375   6.765   4.477 -0.7862 -0.0749  0.1837
  984MOL0     H35743   4.215   6.725   4.470  0.4171  0.6470 -0.0907
  984MOL0     H35744   4.315   6.462   4.384 -1.3250 -0.0690 -0.0429
  984MOL0     H35745   4.245   6.599   4.293 -0.6567  1.5016  1.8487
  984MOL0     H35746   4.467   6.682   4.236 -1.6607  0.0343 -0.3462
  984MOL0     H35747   4.542   6.603   4.377 -1.8120 -3.8961  2.7573
  984MOL0     H35748   4.506   6.385   4.259  0.7836 -1.1008 -1.5005
  984MOL0     H35749   4.437   6.471   4.117  1.3278 -0.6340 -1.4406
  984MOL0     H35750   4.818   6.586   4.011  1.9357  0.3951 -1.2884
  984MOL0     H35751   4.961   6.538   3.737 -0.0471  2.0671  1.6264
  984MOL0     H35752   5.057   6.405   3.820  0.0221 -1.9467  2.7207
  984MOL0     H35753   5.039   6.561   3.892  2.1751 -2.7486  1.5519
  984MOL0     H35754   5.098   6.018   3.635 -0.8197  2.4149 -0.2083
  984MOL0     H35755   5.115   5.874   3.419 -1.3264 -2.2582  0.5259
  984MOL0     H35756   5.062   5.871   3.176 -1.0065  0.6294 -0.6936
  984MOL0     H35757   5.096   5.718   3.239 -1.1151  0.2328  0.5524
  984MOL0     H35758   4.979   5.590   3.099  0.5504  1.4654  3.3414
  984MOL0     H35759   4.888   5.732   3.035 -0.5276 -0.3867  0.0017
  984MOL0     H35760   5.173   5.654   2.999 -3.0052 -1.5708  4.2236
  984MOL0     H35761   5.097   5.800   2.920 -1.5921  1.2543  1.7001
  984MOL0     H35762   4.941   5.642   2.792 -1.0043 -3.3366 -0.8255
  984MOL0     H35763   4.993   5.516   2.893  1.6593  0.5868  3.1193
  984MOL0     H35764   5.234   5.637   2.775  2.1460 -1.9545 -3.2080
  984MOL0     H35765   5.168   5.474   2.765 -4.9540 -2.0491 -0.1725
  984MOL0     H35766   5.073   5.723   2.592  0.4802  0.1885 -2.0515
  984MOL0     H35767   5.021   5.551   2.572 -1.2414 -1.0484  2.8060
  984MOL0     H35768   5.175   5.577   2.400 -1.0531 -0.8714  0.7967
  984MOL0     H35769   5.265   5.493   2.513 -1.4499 -0.3900 -1.8055
  984MOL0     H35770   5.411   5.686   2.563  3.6482 -1.1939 -3.3660
  984MOL0     H35771   5.296   5.805   2.493  0.7521  0.8030  0.9521
  984MOL0     H35772   4.689   5.825   3.420 -2.3860  2.0701  1.9074
  984MOL0     H35773   4.683   5.946   3.635  1.1041  1.1041  2.8800
  984MOL0     H35774   4.695   6.121   3.919 -1.4399  0.6384  3.1973
  984MOL0     H35775   4.596   6.243   4.092 -1.5666  0.2947 -0.8566
  984MOL0     H35776   4.269   5.431   4.361  1.4789  0.4656  1.1149
  984MOL0     H35777   4.320   5.244   4.193  0.2611  0.7325 -1.2906
  984MOL0     H35778   4.443   4.879   4.054  0.6696  1.1617  1.8440
  984MOL0     H35779   4.473   4.719   3.844  2.9076 -2.9009  2.2420
  984MOL0     H35780   4.684   4.573   3.568  0.7571  1.9471 -1.4167
  984MOL0     H35781   4.591   4.590   3.721 -1.0964  2.1485  0.6288
  984MOL0     H35782   4.514   4.722   3.457  2.5812 -0.9166  0.4262
  984MOL0     H35783   4.415   4.716   3.605 -0.2080  1.9018 -2.4793
  984MOL0     H35784   4.357   4.563   3.406  1.5856 -1.2876 -1.1612
  984MOL0     H35785   4.502   4.466   3.446 -1.3392 -1.1911 -0.8724
  984MOL0     H35786   4.272   4.531   3.632 -1.8709 -1.5579 -0.7685
  984MOL0     H35787   4.422   4.445   3.690  3.5496  2.4764 -1.8313
  984MOL0     H35788   4.174   4.153   3.498 -0.4925  1.3433 -2.9313
  984MOL0     H35789   4.795   4.968   3.716 -1.1202  0.5401 -1.5252
  984MOL0     H35790   4.866   5.140   3.802 -1.4985 -3.0555 -0.0834
  984MOL0     H35791   4.729   5.242   3.876  1.0240  0.7549  1.3629
  984MOL0     H35792   4.849   5.173   3.979  1.3105  1.2847 -0.5313
  985MOL0     O35793   1.491  10.185  10.071  0.5953  0.1417 -0.4293
  985MOL0     C35794   1.430  10.083  10.052 -0.7314  0.2038  0.6816
  985MOL0     O35795   1.485   9.953  10.049 -0.2994 -0.4827 -1.0772
  985MOL0     C35796   1.616   9.931  10.070  0.3835  0.8286  0.9226
  985MOL0     C35797   1.645   9.859  10.178 -0.6742 -0.1134 -0.4903
  985MOL0     C35798   1.779   9.816  10.198 -0.6690 -0.3665 -0.8092
  985MOL0     C35799   1.882   9.853  10.105  0.1663  0.3229 -1.2096
  985MOL0     O35800   2.010   9.801  10.126  0.1729 -0.3283  1.0661
  985MOL0     C35801   2.078   9.860  10.233  0.1286  0.4442  0.1236
  985MOL0     C35802   2.202   9.776  10.264  0.2223 -0.1540  0.3079
  985MOL0     C35803   2.147   9.635  10.308  0.0923  0.5126  0.0469
  985MOL0     C35804   2.253   9.572  10.393 -0.1850  0.2384 -0.8631
  985MOL0     C35805   2.214   9.430  10.431  0.4631  0.4477  0.6487
  985MOL0     C35806   2.325   9.365  10.520 -0.6550  0.8824 -0.7596
  985MOL0     C35807   2.260   9.243  10.604  0.3728  0.1162  0.0335
  985MOL0     C35808   2.352   9.177  10.703  0.3211 -0.8048  0.0632
  985MOL0     N35809   2.436   9.076  10.637 -0.7874 -0.0016 -0.3798
  985MOL0     C35810   2.426   8.944  10.663  0.1264  0.3737  0.2647
  985MOL0     C35811   2.533   8.892  10.589  0.0226 -0.5578 -1.0041
  985MOL0     C35812   2.565   8.744  10.565 -0.5884 -0.0134  0.3292
  985MOL0     C35813   2.556   8.666  10.696 -0.4884  0.6426 -1.0158
  985MOL0     C35814   2.642   8.542  10.676  0.0482  0.0468  0.4827
  985MOL0     C35815   2.581   8.453  10.565  0.0351 -0.1652  0.0963
  985MOL0     O35816   2.653   8.327  10.567 -0.9111  0.4556  0.1849
  985MOL0     C35817   2.576   8.224  10.516 -0.9847 -0.1554 -0.3315
  985MOL0     C35818   2.507   8.242  10.397  0.6276  1.0335  0.2632
  985MOL0     C35819   2.419   8.142  10.360 -0.1397  0.1545  0.2039
  985MOL0     C35820   2.333   8.173  10.234 -0.7301 -0.3205 -0.0558
  985MOL0     C35821   2.402   8.016  10.425 -0.2261  0.4006 -1.0577
  985MOL0     C35822   2.310   7.898  10.380 -0.2264 -0.5049  0.9616
  985MOL0     O35823   2.331   7.777  10.435  0.1872 -0.2512  0.2988
  985MOL0     C35824   2.372   7.674  10.357  0.1604 -0.1151  0.5230
  985MOL0     C35825   2.375   7.544  10.411  0.3784  0.5008 -0.0555
  985MOL0     C35826   2.425   7.436  10.333  0.0530 -0.2914  0.1924
  985MOL0     C35827   2.488   7.448  10.214  0.3460  0.0182  0.2445
  985MOL0     O35828   2.543   7.338  10.156  0.8928  0.0778 -0.3674
  985MOL0     C35829   2.675   7.351  10.100  0.9232  0.2770 -0.5012
  985MOL0     C35830   2.707   7.203  10.072  0.3777 -0.5128  0.0060
  985MOL0     C35831   2.825   7.201   9.979  0.3017  0.6210 -0.1348
  985MOL0     C35832   2.787   7.233   9.828  0.1469 -0.4772  0.6160
  985MOL0     C35833   2.920   7.255   9.742  0.3301  1.2980  0.7500
  985MOL0     C35834   2.893   7.295   9.593 -0.3831 -0.0466 -1.2615
  985MOL0     C35835   2.807   7.198   9.509 -0.9377 -1.0336  0.1300
  985MOL0     C35836   2.818   7.250   9.357  0.2985 -0.8832  0.4273
  985MOL0    Cl35837   2.734   7.408   9.351 -0.2479  0.0553 -0.5150
  985MOL0     C35838   2.494   7.578  10.165  0.2921 -0.3440  0.2630
  985MOL0     C35839   2.432   7.689  10.231  0.0553 -0.3699  0.4096
  985MOL0     O35840   2.217   7.931  10.309 -0.1149 -0.2801 -0.4491
  985MOL0     C35841   2.490   8.000  10.534 -1.2314  0.1934 -0.8964
  985MOL0     C35842   2.569   8.098  10.587 -0.7847 -0.5295  0.4796
  985MOL0     N35843   2.598   8.996  10.522 -0.2624 -0.3032 -0.2183
  985MOL0     N35844   2.541   9.107  10.551 -0.0230  0.2850 -0.4579
  985MOL0     C35845   1.850   9.930   9.990 -1.0294  0.2577 -0.5288
  985MOL0     C35846   1.713   9.959   9.976 -0.9738  0.1779 -0.5372
  985MOL0     C35847   1.282  10.080  10.036 -0.6501 -0.4108 -0.1590
  985MOL0     C35848   1.224   9.957  10.074  0.3561  0.5726  0.4955
  985MOL0     C35849   1.087   9.946  10.064  0.1907  0.3690 -0.7688
  985MOL0     C35850   1.015  10.036  10.003 -0.0823 -0.6411  0.1456
  985MOL0     O35851   0.881  10.016  10.030  0.4180  0.7325  0.1050
  985MOL0     C35852   0.788  10.095   9.975 -0.3737  0.0161  0.9081
  985MOL0     C35853   0.655  10.043  10.014  0.2876  0.6352 -0.7379
  985MOL0     C35854   0.570  10.120  10.118  0.4120 -0.2421 -0.5263
  985MOL0     C35855   0.451  10.040  10.170  0.2761 -0.6652 -0.1950
  985MOL0     C35856   0.368   9.997  10.054  0.0804 -0.1119  0.1593
  985MOL0     C35857   0.293   9.970   9.968 -0.9581  0.5670  0.0195
  985MOL0     C35858   1.069  10.163   9.959  0.1858 -1.2489  0.8641
  985MOL0     C35859   1.207  10.186   9.981  0.4673 -0.6926 -0.2248
  985MOL0     C35860   1.266  10.320   9.936  0.3977  0.1201 -0.4147
  985MOL0     H35861   1.569   9.828  10.249 -1.9208  1.6865 -0.9705
  985MOL0     H35862   1.817   9.752  10.277 -0.2356  1.4314  0.5162
  985MOL0     H35863   2.004   9.855  10.313 -0.3828  2.8520 -0.1405
  985MOL0     H35864   2.108   9.963  10.209 -2.5075  0.5932 -3.0656
  985MOL0     H35865   2.272   9.775  10.180  1.9859 -1.4302  1.7143
  985MOL0     H35866   2.259   9.821  10.345  0.9621  1.0563 -0.8466
  985MOL0     H35867   2.053   9.635  10.365 -0.5150  1.1270 -0.9318
  985MOL0     H35868   2.128   9.583  10.214 -1.8653  3.0472 -1.1188
  985MOL0     H35869   2.343   9.564  10.331  0.7380 -0.3803  0.4917
  985MOL0     H35870   2.274   9.630  10.484 -1.2282 -1.4353  0.5037
  985MOL0     H35871   2.188   9.370  10.343 -0.2011 -0.2620  1.3046
  985MOL0     H35872   2.122   9.442  10.489  1.0888  3.9322  1.1124
  985MOL0     H35873   2.399   9.319  10.453 -2.6132 -1.8764 -1.2170
  985MOL0     H35874   2.374   9.441  10.582 -1.5866  0.3299  0.7290
  985MOL0     H35875   2.211   9.172  10.536 -1.8342  2.4131 -0.9567
  985MOL0     H35876   2.174   9.275  10.664 -1.2904 -2.4768 -0.7925
  985MOL0     H35877   2.407   9.263  10.742 -0.9024 -0.6926  1.6366
  985MOL0     H35878   2.289   9.133  10.781 -1.7827  2.2451  0.2665
  985MOL0     H35879   2.353   8.896  10.727  1.8801  1.7221  3.5337
  985MOL0     H35880   2.667   8.736  10.528 -0.6248  2.0731 -0.3359
  985MOL0     H35881   2.516   8.698  10.479 -0.9957  0.3254  0.3787
  985MOL0     H35882   2.592   8.715  10.787 -0.8403 -2.3869  0.8899
  985MOL0     H35883   2.452   8.644  10.721  0.7614 -1.8627  2.9727
  985MOL0     H35884   2.744   8.558  10.640  1.2461 -1.7656  2.8121
  985MOL0     H35885   2.648   8.477  10.763  1.9486 -2.0176 -1.1020
  985MOL0     H35886   2.472   8.448  10.577 -0.4561 -3.0840 -3.6005
  985MOL0     H35887   2.603   8.512  10.476  3.5201  2.2130  2.2902
  985MOL0     H35888   2.501   8.325  10.327  1.4045 -0.6373 -1.9064
  985MOL0     H35889   2.227   8.172  10.258 -0.4454 -2.9816  1.5562
  985MOL0     H35890   2.355   8.093  10.162 -1.6468  0.1897 -0.9296
  985MOL0     H35891   2.369   8.260  10.178 -0.0662 -0.1983  0.5500
  985MOL0     H35892   2.344   7.538  10.514  0.0837  1.2063 -0.0972
  985MOL0     H35893   2.422   7.335  10.374 -1.1238  0.0319  0.9337
  985MOL0     H35894   2.680   7.421  10.016 -1.5690  0.2564 -0.7364
  985MOL0     H35895   2.743   7.394  10.174 -0.8423  1.0003  0.7782
  985MOL0     H35896   2.732   7.143  10.160  2.6873 -0.1981 -0.3539
  985MOL0     H35897   2.622   7.156  10.021  0.2417 -0.2762  0.0154
  985MOL0     H35898   2.881   7.108   9.978 -0.3314  0.1689 -3.1902
  985MOL0     H35899   2.895   7.277  10.015  1.0129 -0.8731  1.7626
  985MOL0     H35900   2.730   7.325   9.815 -1.3943 -1.6618 -1.8484
  985MOL0     H35901   2.722   7.158   9.782 -2.0638 -0.0375  2.8541
  985MOL0     H35902   2.991   7.324   9.790  3.0410 -0.8602  0.1133
  985MOL0     H35903   2.967   7.158   9.759 -0.5375  0.5564 -0.8741
  985MOL0     H35904   2.978   7.328   9.532  1.9403 -1.8615  0.7980
  985MOL0     H35905   2.823   7.378   9.606  0.8786  0.7577  0.7915
  985MOL0     H35906   2.703   7.183   9.540 -1.5339  1.9464 -0.1593
  985MOL0     H35907   2.868   7.108   9.500  0.5208 -0.2404  1.5265
  985MOL0     H35908   2.763   7.186   9.288  0.3167 -0.1615 -0.2785
  985MOL0     H35909   2.919   7.256   9.316 -0.8465 -0.6407 -2.6254
  985MOL0     H35910   2.525   7.596  10.063  1.8249 -0.4445  0.6804
  985MOL0     H35911   2.436   7.785  10.180  0.6149 -0.8026 -0.3877
  985MOL0     H35912   2.498   7.904  10.584  2.4500  0.8591  0.1131
  985MOL0     H35913   2.623   8.094  10.681  0.4027 -0.2756 -0.1843
  985MOL0     H35914   1.918   9.956   9.910 -0.2637 -0.0104  0.0204
  985MOL0     H35915   1.690  10.007   9.881  0.7321  1.9404 -0.1276
  985MOL0     H35916   1.269   9.868  10.118 -3.7371 -1.4545  1.1634
  985MOL0     H35917   1.043   9.853  10.099  1.2408 -0.7826 -2.3537
  985MOL0     H35918   0.806  10.199  10.006  5.1656 -0.6875  1.1356
  985MOL0     H35919   0.797  10.089   9.866 -1.7296  2.1580  0.6224
  985MOL0     H35920   0.670   9.945  10.062  3.5179  2.0870  1.6454
  985MOL0     H35921   0.589  10.034   9.928 -1.5124 -1.5914  0.7459
  985MOL0     H35922   0.629  10.144  10.207  0.2723  3.8505 -1.3196
  985MOL0     H35923   0.541  10.214  10.069 -0.1639 -0.1027  0.0680
  985MOL0     H35924   0.391  10.097  10.242 -0.1909 -0.7974 -0.4762
  985MOL0     H35925   0.487   9.957  10.232 -0.3725  0.8082  2.3241
  985MOL0     H35926   0.236   9.960   9.878 -1.7263  0.5193  0.4984
  985MOL0     H35927   1.000  10.239   9.925  1.5594 -1.0696 -1.8028
  985MOL0     H35928   1.189  10.380   9.887  0.2411  0.3701  0.1274
  985MOL0     H35929   1.310  10.378  10.018  2.5898 -1.4166 -0.4069
  985MOL0     H35930   1.349  10.293   9.870  0.4673  2.4419 -1.3685
  986MOL0     O35931   6.781   3.815   5.962  0.0302 -0.9566 -0.2709
  986MOL0     C35932   6.881   3.863   5.915 -0.5452 -0.4683  0.3184
  986MOL0     O35933   7.007   3.835   5.962  0.4515 -0.2719 -0.7029
  986MOL0     C35934   7.017   3.771   6.086 -1.1236 -0.2551  0.6802
  986MOL0     C35935   7.066   3.644   6.081  0.2680 -0.5427  1.0767
  986MOL0     C35936   7.096   3.571   6.191 -1.2800 -0.5869 -1.0920
  986MOL0     C35937   7.077   3.640   6.321  0.0223  0.4264 -0.6392
  986MOL0     O35938   7.087   3.585   6.445 -0.3993 -0.0121  0.1845
  986MOL0     C35939   7.221   3.545   6.490 -0.5998  0.8908 -0.4952
  986MOL0     C35940   7.230   3.396   6.488  0.1649  0.4565  0.1907
  986MOL0     C35941   7.369   3.330   6.509  0.2508 -0.0182 -0.0518
  986MOL0     C35942   7.365   3.186   6.543 -0.8709  0.5601  0.0111
  986MOL0     C35943   7.500   3.118   6.563 -0.5828  0.2799  0.1829
  986MOL0     C35944   7.544   3.150   6.713 -0.6638 -0.2700 -0.0199
  986MOL0     C35945   7.686   3.089   6.734 -0.3691 -0.2796  0.3133
  986MOL0     C35946   7.740   3.111   6.874  0.4899 -0.3830  0.8848
  986MOL0     N35947   7.826   2.998   6.901  0.1532  0.1646 -0.5450
  986MOL0     C35948   7.784   2.877   6.951 -0.9738  0.7151  0.1746
  986MOL0     C35949   7.900   2.822   6.998  0.1927  0.2768  0.2327
  986MOL0     C35950   7.920   2.688   7.047  0.2175 -0.5267  0.7503
  986MOL0     C35951   7.861   2.651   7.181 -0.2702 -0.9466 -1.0394
  986MOL0     C35952   7.898   2.762   7.283  0.3075 -0.0994 -0.0875
  986MOL0     C35953   8.046   2.770   7.310  0.1108  0.1208  1.0430
  986MOL0     O35954   8.123   2.651   7.303  0.0936 -0.2830 -0.4505
  986MOL0     C35955   8.237   2.652   7.387 -0.2467 -0.0968 -0.5174
  986MOL0     C35956   8.320   2.766   7.404 -0.4391  0.4723 -0.3829
  986MOL0     C35957   8.422   2.774   7.495 -0.4222  0.8334  1.2475
  986MOL0     C35958   8.504   2.898   7.504  0.4643 -0.2750 -1.1281
  986MOL0     C35959   8.456   2.654   7.569  0.5062  0.1610 -0.4896
  986MOL0     C35960   8.560   2.646   7.671  0.4331 -0.2253  0.2215
  986MOL0     O35961   8.616   2.521   7.678 -0.5454 -0.6243  0.1192
  986MOL0     C35962   8.702   2.492   7.781  0.0709  0.7483  1.1223
  986MOL0     C35963   8.660   2.506   7.919 -1.3816  0.9761 -0.2884
  986MOL0     C35964   8.745   2.477   8.028 -0.5583 -0.0512  0.3441
  986MOL0     C35965   8.881   2.433   8.003 -0.1261  0.1650  0.9087
  986MOL0     O35966   8.963   2.426   8.116 -0.0763  0.9285  0.3790
  986MOL0     C35967   9.098   2.462   8.098  0.3513  0.4276 -0.6261
  986MOL0     C35968   9.120   2.607   8.054 -0.7076  0.2909  0.1096
  986MOL0     C35969   9.265   2.654   8.078  1.0635  0.3986  0.2983
  986MOL0     C35970   9.262   2.748   8.204  0.0696 -0.2622 -0.2752
  986MOL0     C35971   9.403   2.798   8.257 -0.0675 -0.0553  0.9713
  986MOL0     C35972   9.495   2.683   8.306  0.0509 -0.0517  0.4111
  986MOL0     C35973   9.460   2.613   8.435  0.1684 -0.2192  0.3709
  986MOL0     C35974   9.473   2.714   8.548  0.4011  0.1771 -0.4046
  986MOL0    Cl35975   9.393   2.636   8.686  0.1228  0.3421 -0.0832
  986MOL0     C35976   8.916   2.412   7.867 -0.6673 -0.6126  0.3851
  986MOL0     C35977   8.830   2.442   7.757 -0.3967 -0.0917 -0.6243
  986MOL0     O35978   8.589   2.744   7.739  0.3583  0.2398 -0.8224
  986MOL0     C35979   8.376   2.539   7.551 -0.4441  0.8799 -0.1708
  986MOL0     C35980   8.266   2.540   7.471 -0.5257 -0.2819  0.2425
  986MOL0     N35981   8.004   2.909   6.967 -0.4709  0.1153  0.8496
  986MOL0     N35982   7.956   3.008   6.900  0.0570  0.1154 -0.0651
  986MOL0     C35983   7.029   3.771   6.317  0.0844  0.7052 -0.8123
  986MOL0     C35984   6.995   3.833   6.202  0.6266  0.1485  0.0001
  986MOL0     C35985   6.860   3.953   5.788 -0.1687 -0.2187 -0.4918
  986MOL0     C35986   6.823   3.895   5.666  0.0765  1.1704 -0.2280
  986MOL0     C35987   6.811   3.967   5.554 -0.2877 -0.4007  0.1027
  986MOL0     C35988   6.844   4.103   5.554  0.5498 -0.1869  0.1300
  986MOL0     O35989   6.849   4.163   5.437 -0.2257  0.5032 -0.0055
  986MOL0     C35990   6.982   4.178   5.396  0.5238  0.8620 -0.3500
  986MOL0     C35991   6.997   4.105   5.263 -0.2269  0.0490  0.1535
  986MOL0     C35992   6.904   4.150   5.152  0.5361 -0.0155 -0.1384
  986MOL0     C35993   6.875   4.045   5.046  0.8617 -0.4217  0.6319
  986MOL0     C35994   7.002   3.982   5.003  0.2575 -0.0451  0.4416
  986MOL0     C35995   7.119   3.939   4.972  0.1480 -0.9269 -1.2363
  986MOL0     C35996   6.865   4.164   5.674 -0.2899  1.0782 -0.5058
  986MOL0     C35997   6.884   4.096   5.797  1.0615  0.1017 -0.3152
  986MOL0     C35998   6.918   4.177   5.921 -0.4063  0.6387 -0.0936
  986MOL0     H35999   7.086   3.597   5.985  1.5639  2.0954 -0.0752
  986MOL0     H36000   7.137   3.471   6.182  2.9416  1.0855 -2.5751
  986MOL0     H36001   7.236   3.579   6.593 -1.6681 -2.5058  0.9237
  986MOL0     H36002   7.301   3.584   6.427 -0.5374 -1.6205 -2.0753
  986MOL0     H36003   7.155   3.367   6.562 -0.3139  3.1701  0.9018
  986MOL0     H36004   7.195   3.369   6.387  1.6711 -0.4808 -0.1084
  986MOL0     H36005   7.431   3.346   6.420  0.5905 -0.2475  0.1389
  986MOL0     H36006   7.417   3.380   6.593 -2.0290 -1.2761  2.1434
  986MOL0     H36007   7.308   3.166   6.634  2.6194  0.3652  2.3510
  986MOL0     H36008   7.308   3.136   6.464 -1.7449 -1.8478  2.0288
  986MOL0     H36009   7.575   3.150   6.490  0.0182  0.6099  0.9294
  986MOL0     H36010   7.491   3.009   6.559 -1.2455  0.2241  2.0861
  986MOL0     H36011   7.547   3.258   6.733  1.2157  0.0992 -1.9850
  986MOL0     H36012   7.474   3.095   6.777 -1.2406 -3.1370 -2.8902
  986MOL0     H36013   7.758   3.118   6.657 -0.5159 -2.9691 -0.9337
  986MOL0     H36014   7.669   2.982   6.719  1.8674 -1.0532  2.6072
  986MOL0     H36015   7.795   3.206   6.883  3.5703 -2.1035  1.4265
  986MOL0     H36016   7.655   3.115   6.944 -1.8373  0.8233 -1.7965
  986MOL0     H36017   7.680   2.847   6.952 -0.3178 -2.0654 -2.5373
  986MOL0     H36018   8.029   2.689   7.056  0.3074  0.2922 -0.1660
  986MOL0     H36019   7.893   2.608   6.977 -0.3684  0.8439 -0.6656
  986MOL0     H36020   7.753   2.641   7.167 -0.3467  0.8882 -2.0856
  986MOL0     H36021   7.899   2.555   7.217 -1.8600 -0.4428  2.3748
  986MOL0     H36022   7.841   2.854   7.266 -2.2462 -1.7334 -0.9977
  986MOL0     H36023   7.847   2.732   7.375 -2.2892  1.4262 -0.9081
  986MOL0     H36024   8.097   2.837   7.240 -2.0992  2.0392  1.1241
  986MOL0     H36025   8.051   2.818   7.409 -1.9405  2.4597  0.1184
  986MOL0     H36026   8.315   2.845   7.330 -0.6086  0.0449 -0.8355
  986MOL0     H36027   8.611   2.882   7.490  0.1103 -4.1415 -0.6253
  986MOL0     H36028   8.469   2.934   7.601 -1.5487 -1.3022 -1.4008
  986MOL0     H36029   8.478   2.977   7.433  5.2434  0.4654 -2.3680
  986MOL0     H36030   8.562   2.547   7.940 -1.2532 -0.2649  3.7772
  986MOL0     H36031   8.702   2.478   8.128  0.4176 -2.8050  0.8996
  986MOL0     H36032   9.134   2.442   8.200 -0.0845  1.7147 -0.2059
  986MOL0     H36033   9.145   2.388   8.032  0.7359 -0.8705  1.0327
  986MOL0     H36034   9.109   2.620   7.946  4.9411 -0.6738 -0.9110
  986MOL0     H36035   9.043   2.666   8.106 -1.0957  0.3383 -0.5193
  986MOL0     H36036   9.304   2.705   7.989 -0.0304  1.3107  0.3185
  986MOL0     H36037   9.323   2.563   8.095 -3.8245 -3.0226  0.6095
  986MOL0     H36038   9.225   2.691   8.290  2.4738 -0.1870  0.8947
  986MOL0     H36039   9.197   2.834   8.185 -1.1993 -0.7342  1.6191
  986MOL0     H36040   9.450   2.841   8.169  2.1318  0.5290  2.3452
  986MOL0     H36041   9.386   2.877   8.331  0.5227  1.0996 -0.0910
  986MOL0     H36042   9.599   2.714   8.324 -0.4421  0.3055  2.9780
  986MOL0     H36043   9.497   2.617   8.219 -1.1317  1.4257 -0.8008
  986MOL0     H36044   9.528   2.527   8.442  2.2591  1.3705  0.6399
  986MOL0     H36045   9.356   2.580   8.435  0.4346 -1.1021  0.7630
  986MOL0     H36046   9.410   2.800   8.521  0.6611  0.0764 -1.3633
  986MOL0     H36047   9.578   2.743   8.563  0.2362  0.4433  0.2964
  986MOL0     H36048   9.020   2.383   7.854 -1.1257 -2.6845  0.8922
  986MOL0     H36049   8.868   2.444   7.655 -2.0661 -0.8574 -1.2932
  986MOL0     H36050   8.399   2.445   7.600  2.7999  3.0414  2.9502
  986MOL0     H36051   8.204   2.452   7.465  3.8678 -3.8353  1.2813
  986MOL0     H36052   7.017   3.821   6.413  0.7447 -0.3860 -0.1388
  986MOL0     H36053   6.948   3.930   6.202  1.3642  0.5426  1.8875
  986MOL0     H36054   6.807   3.788   5.656 -4.4346  1.6612 -0.2946
  986MOL0     H36055   6.788   3.920   5.459 -0.3425  0.3812 -0.2808
  986MOL0     H36056   6.996   4.285   5.382  1.4518  0.7344 -0.4654
  986MOL0     H36057   7.054   4.125   5.459  2.6425  2.2102 -1.5079
  986MOL0     H36058   6.985   3.999   5.287 -1.0564  0.1491  0.2208
  986MOL0     H36059   7.101   4.119   5.232 -0.8046 -1.6846 -2.9887
  986MOL0     H36060   6.807   4.178   5.194  0.8400 -0.3379  0.8068
  986MOL0     H36061   6.955   4.238   5.111  2.4640 -0.6101  0.8642
  986MOL0     H36062   6.825   4.093   4.961  0.7105 -1.7433 -0.0610
  986MOL0     H36063   6.814   3.959   5.075  1.6772 -3.0355 -4.2636
  986MOL0     H36064   7.219   3.903   4.962  0.9609 -0.2123  2.7582
  986MOL0     H36065   6.888   4.270   5.672  0.5853  0.8908 -0.5487
  986MOL0     H36066   6.847   4.259   5.937 -3.0843 -1.9973  3.0228
  986MOL0     H36067   6.901   4.102   5.998 -3.5663 -1.0161 -2.1718
  986MOL0     H36068   7.022   4.210   5.912  0.5691 -2.3792 -1.0717
  987MOL0     O36069   8.850   9.350   1.713  0.2089  0.8647  0.3019
  987MOL0     C36070   8.899   9.326   1.819 -0.2123 -0.4951 -0.6089
  987MOL0     O36071   8.832   9.298   1.937  0.6634  0.2099 -0.4651
  987MOL0     C36072   8.701   9.342   1.949  0.0622  0.5641  0.2945
  987MOL0     C36073   8.616   9.270   2.026  0.4819  0.4224 -0.2207
  987MOL0     C36074   8.484   9.311   2.050  0.2062 -0.2581 -0.9783
  987MOL0     C36075   8.433   9.431   2.005 -2.0429 -0.1476 -0.5997
  987MOL0     O36076   8.304   9.454   2.038  0.8679 -0.4708 -0.5968
  987MOL0     C36077   8.264   9.587   2.063  0.7850 -1.1778  0.5430
  987MOL0     C36078   8.139   9.568   2.152 -0.1311  0.5735 -0.9910
  987MOL0     C36079   8.018   9.492   2.096 -0.6050 -0.0189  0.1840
  987MOL0     C36080   7.974   9.538   1.962  0.1873 -0.4159  0.4381
  987MOL0     C36081   7.843   9.469   1.918 -0.1793 -0.1351 -0.4203
  987MOL0     C36082   7.871   9.332   1.861  1.0131  0.5558  0.3119
  987MOL0     C36083   7.748   9.258   1.803 -1.1979  0.1482  0.7509
  987MOL0     C36084   7.634   9.242   1.904  0.0056  0.4660  0.0539
  987MOL0     N36085   7.666   9.193   2.033  0.5915  0.6449 -0.3033
  987MOL0     C36086   7.682   9.062   2.076 -0.6751  0.3383 -0.7515
  987MOL0     C36087   7.688   9.075   2.208  0.1820  0.0348 -0.1216
  987MOL0     C36088   7.672   8.954   2.292  0.8003  0.4781 -0.9054
  987MOL0     C36089   7.526   8.911   2.311  0.9913  0.4877 -0.4057
  987MOL0     C36090   7.474   8.836   2.186 -0.4586  0.1232 -0.3532
  987MOL0     C36091   7.336   8.781   2.203  0.2975  1.5106  0.3111
  987MOL0     O36092   7.303   8.691   2.103  0.4445  0.4696  0.8014
  987MOL0     C36093   7.268   8.564   2.126  0.2426  0.8781 -0.7811
  987MOL0     C36094   7.149   8.516   2.081 -0.2148 -0.3830  0.5138
  987MOL0     C36095   7.116   8.384   2.090  0.5110  0.2734  0.0324
  987MOL0     C36096   6.991   8.343   2.026  1.5366 -0.9628  0.0714
  987MOL0     C36097   7.204   8.286   2.144  0.6985  0.6160  0.0058
  987MOL0     C36098   7.183   8.138   2.156 -0.1418 -0.1861 -0.0986
  987MOL0     O36099   7.261   8.069   2.245  0.3475 -0.3226  0.2456
  987MOL0     C36100   7.244   7.927   2.241 -0.4929 -0.6100  1.1391
  987MOL0     C36101   7.361   7.840   2.225  0.3502 -0.7744 -0.6170
  987MOL0     C36102   7.348   7.702   2.223  0.0126  0.3388  0.0818
  987MOL0     C36103   7.224   7.642   2.238 -0.4929  0.3773  0.1929
  987MOL0     O36104   7.207   7.509   2.241 -0.2732 -0.0021  0.7847
  987MOL0     C36105   7.315   7.422   2.205 -0.1266 -0.1223  0.1473
  987MOL0     C36106   7.277   7.273   2.222  0.8155 -0.0294  0.0082
  987MOL0     C36107   7.398   7.173   2.207  1.0379 -0.1883 -0.2587
  987MOL0     C36108   7.341   7.027   2.201  0.2601 -0.3629  0.1477
  987MOL0     C36109   7.433   6.909   2.212 -0.2556 -0.4922  0.0420
  987MOL0     C36110   7.550   6.911   2.109  0.0935 -0.4198  0.4041
  987MOL0     C36111   7.639   6.785   2.107 -0.1279 -0.0474 -0.4542
  987MOL0     C36112   7.729   6.780   2.230  0.1738  0.1938  0.9550
  987MOL0    Cl36113   7.852   6.922   2.218  0.0104 -0.3680  0.0731
  987MOL0     C36114   7.103   7.717   2.255 -1.0004  0.3944  1.4552
  987MOL0     C36115   7.116   7.853   2.267  0.3742  0.1733  0.4032
  987MOL0     O36116   7.092   8.089   2.090 -0.1872 -0.1351  0.1202
  987MOL0     C36117   7.334   8.339   2.172  0.2845  0.2373 -0.2432
  987MOL0     C36118   7.359   8.470   2.174  0.6430 -1.0623  0.9846
  987MOL0     N36119   7.685   9.209   2.252 -0.3226 -0.2494 -0.1331
  987MOL0     N36120   7.675   9.276   2.141 -0.6873 -0.7968 -0.3809
  987MOL0     C36121   8.519   9.512   1.938 -1.0781 -0.5247 -0.2452
  987MOL0     C36122   8.645   9.467   1.901  0.2548 -0.7050  0.2316
  987MOL0     C36123   9.049   9.313   1.823  0.1686  0.2473  0.1384
  987MOL0     C36124   9.105   9.223   1.922 -0.5850 -0.4578  0.3711
  987MOL0     C36125   9.243   9.225   1.934 -0.4831  0.3483 -0.2517
  987MOL0     C36126   9.337   9.317   1.867  0.0421  0.1487  0.7903
  987MOL0     O36127   9.461   9.314   1.915  0.4958 -0.4026 -0.3229
  987MOL0     C36128   9.557   9.407   1.854  0.1644  0.5147  1.1682
  987MOL0     C36129   9.675   9.332   1.790  0.0449  0.5439  0.1659
  987MOL0     C36130   9.763   9.271   1.900  0.8424  0.5301 -0.5044
  987MOL0     C36131   9.923   9.264   1.876 -0.7302  0.7152  0.0683
  987MOL0     C36132   9.986   9.398   1.886 -0.5102  0.4002 -0.0333
  987MOL0     C36133  10.048   9.497   1.884  0.4158 -0.4705  0.6774
  987MOL0     C36134   9.272   9.401   1.767 -0.2730  0.7307 -0.1374
  987MOL0     C36135   9.131   9.399   1.747  0.6615 -0.3298 -0.7744
  987MOL0     C36136   9.079   9.488   1.640  0.0803 -0.2490  0.7196
  987MOL0     H36137   8.660   9.177   2.061  0.7669 -0.1296 -1.9368
  987MOL0     H36138   8.415   9.256   2.112  2.4996 -1.0016  1.0844
  987MOL0     H36139   8.240   9.627   1.964 -1.4163 -0.4553  1.2987
  987MOL0     H36140   8.339   9.644   2.118 -0.5763  0.6854  0.5729
  987MOL0     H36141   8.164   9.513   2.243 -1.8717 -2.8915 -2.4178
  987MOL0     H36142   8.107   9.669   2.182 -3.9972  0.5765 -4.2668
  987MOL0     H36143   8.034   9.385   2.084 -3.8286 -0.4788 -1.1641
  987MOL0     H36144   7.945   9.511   2.175 -0.2703 -0.2442  0.5515
  987MOL0     H36145   7.942   9.643   1.963 -3.9102 -1.4023 -2.3267
  987MOL0     H36146   8.047   9.530   1.881 -1.1783 -2.0292 -0.6818
  987MOL0     H36147   7.785   9.526   1.844 -1.6274 -1.7033 -0.5520
  987MOL0     H36148   7.772   9.462   2.002 -1.2997 -0.5377 -1.3703
  987MOL0     H36149   7.941   9.334   1.777 -0.4877 -0.4856 -1.0354
  987MOL0     H36150   7.915   9.279   1.946 -0.1834  0.8243  1.1250
  987MOL0     H36151   7.793   9.164   1.769  3.2954  2.4264 -0.4616
  987MOL0     H36152   7.702   9.309   1.718 -1.2792 -1.9779 -0.5422
  987MOL0     H36153   7.587   9.340   1.916 -0.4794  0.2431 -0.0022
  987MOL0     H36154   7.562   9.171   1.861 -0.7282  1.7798 -0.9808
  987MOL0     H36155   7.664   8.970   2.023 -6.5258  0.4445  0.3486
  987MOL0     H36156   7.712   8.984   2.389  1.8728 -1.1995 -0.7908
  987MOL0     H36157   7.734   8.873   2.253  1.5498  0.8145 -0.4465
  987MOL0     H36158   7.521   8.841   2.395  0.9070  1.5729  0.5175
  987MOL0     H36159   7.455   8.989   2.340 -0.8869 -1.1940 -0.2630
  987MOL0     H36160   7.471   8.901   2.098 -3.1142  0.5489 -0.0058
  987MOL0     H36161   7.548   8.757   2.167 -0.0884  0.3060  0.3016
  987MOL0     H36162   7.326   8.738   2.303  0.4570  2.7291  0.8701
  987MOL0     H36163   7.264   8.864   2.204 -1.0328  0.4029 -0.6621
  987MOL0     H36164   7.089   8.589   2.027  1.5483  0.1218 -0.8746
  987MOL0     H36165   7.023   8.307   1.928 -3.0508 -4.1107 -0.5682
  987MOL0     H36166   6.922   8.429   2.021  1.5147 -1.0592 -3.5475
  987MOL0     H36167   6.926   8.279   2.087 -3.1799  5.1078  2.4967
  987MOL0     H36168   7.459   7.885   2.216  0.5533 -1.0934 -0.0751
  987MOL0     H36169   7.441   7.647   2.217 -0.7012 -0.9184  0.2891
  987MOL0     H36170   7.333   7.435   2.098 -1.3269 -3.2624 -0.5322
  987MOL0     H36171   7.397   7.446   2.273 -0.8596  0.5675  0.8133
  987MOL0     H36172   7.228   7.266   2.319 -0.7728 -0.1681 -0.7633
  987MOL0     H36173   7.204   7.240   2.148  2.4710 -3.7819 -0.1623
  987MOL0     H36174   7.454   7.169   2.301 -1.3522 -1.2035  1.2174
  987MOL0     H36175   7.466   7.189   2.122  0.0034 -1.4701 -1.3934
  987MOL0     H36176   7.297   7.011   2.103 -1.5338  0.5459  0.7625
  987MOL0     H36177   7.263   7.018   2.278  0.2313  2.4045  0.5286
  987MOL0     H36178   7.481   6.908   2.310 -0.1839 -3.0482  0.0319
  987MOL0     H36179   7.374   6.817   2.202  0.1920 -0.7698 -0.0641
  987MOL0     H36180   7.615   6.996   2.135 -0.8198  0.5545 -0.4256
  987MOL0     H36181   7.514   6.914   2.006 -0.2908 -2.2742  0.4428
  987MOL0     H36182   7.709   6.785   2.023 -1.5812  2.2218 -1.7776
  987MOL0     H36183   7.586   6.689   2.109 -0.9376  0.3158  3.0075
  987MOL0     H36184   7.789   6.690   2.216  0.1203  0.1016  1.3234
  987MOL0     H36185   7.677   6.761   2.324 -1.2684 -2.2806 -0.2630
  987MOL0     H36186   7.011   7.668   2.284  0.1552 -2.1915  1.0523
  987MOL0     H36187   7.024   7.910   2.272  0.5737  0.5484 -0.1366
  987MOL0     H36188   7.406   8.268   2.212 -0.9076  0.4833  2.5518
  987MOL0     H36189   7.459   8.504   2.199  0.0915  1.6555 -0.0895
  987MOL0     H36190   8.500   9.616   1.916  2.9031  0.1718 -1.0462
  987MOL0     H36191   8.712   9.537   1.851  0.3223  0.2615  1.6144
  987MOL0     H36192   9.055   9.158   1.993 -1.2708 -2.3137 -1.6946
  987MOL0     H36193   9.286   9.163   2.011 -3.5698  0.4867  1.7703
  987MOL0     H36194   9.518   9.471   1.774 -0.0679  0.7089  1.4346
  987MOL0     H36195   9.586   9.479   1.931 -2.0862  0.4886  2.1147
  987MOL0     H36196   9.726   9.409   1.732 -2.7967 -0.5663 -4.2973
  987MOL0     H36197   9.645   9.258   1.715  2.8189 -0.5318 -0.0195
  987MOL0     H36198   9.745   9.328   1.991  0.2661  0.4436 -0.5569
  987MOL0     H36199   9.733   9.166   1.910  3.6601 -0.9681 -4.7263
  987MOL0     H36200   9.927   9.222   1.775  0.4889  2.8571 -0.8541
  987MOL0     H36201   9.962   9.203   1.958  2.1533  2.0481 -0.1694
  987MOL0     H36202  10.090   9.596   1.889 -2.0031  0.6532  0.2284
  987MOL0     H36203   9.324   9.475   1.707  1.2095 -0.5510 -0.5066
  987MOL0     H36204   9.057   9.445   1.542 -0.8028 -0.9778  1.2208
  987MOL0     H36205   8.984   9.527   1.676  0.0974 -0.4251  0.9595
  987MOL0     H36206   9.146   9.572   1.618  1.8556 -1.6361  0.5973
  988MOL0     O36207   0.090   7.989   2.836  0.7167  0.1469 -0.0987
  988MOL0     C36208   0.114   8.049   2.731 -0.6053  0.2309 -0.6037
  988MOL0     O36209   0.226   8.132   2.720 -0.1949  0.0402 -0.1171
  988MOL0     C36210   0.319   8.117   2.814  0.0050  0.5133  0.0644
  988MOL0     C36211   0.336   8.212   2.913 -0.0378  0.0488  0.0227
  988MOL0     C36212   0.432   8.192   3.007 -0.3229  0.2861 -0.0470
  988MOL0     C36213   0.519   8.082   3.008 -0.4045  0.3995 -0.4551
  988MOL0     O36214   0.630   8.072   3.093 -0.1572  0.3344 -0.5859
  988MOL0     C36215   0.703   8.191   3.135 -0.4856 -0.3271  0.4422
  988MOL0     C36216   0.805   8.162   3.253  0.4454 -0.1067  0.2632
  988MOL0     C36217   0.738   8.075   3.364 -0.1082 -0.5739 -0.5046
  988MOL0     C36218   0.837   8.025   3.466 -0.2740  0.3507 -0.8500
  988MOL0     C36219   0.781   7.947   3.572 -0.0744  0.4415 -0.2924
  988MOL0     C36220   0.867   7.948   3.704 -0.0093 -0.4180  0.3508
  988MOL0     C36221   1.019   7.946   3.685 -0.3208 -0.2135 -0.3516
  988MOL0     C36222   1.055   7.803   3.639  1.7142 -0.5267 -0.4759
  988MOL0     N36223   1.182   7.803   3.577 -0.7369 -0.2160  0.3114
  988MOL0     C36224   1.232   7.898   3.484  0.0109  0.6658  0.2318
  988MOL0     C36225   1.365   7.878   3.484 -0.2121  0.3075  1.1279
  988MOL0     C36226   1.451   7.962   3.403 -0.0712 -0.8452  0.1406
  988MOL0     C36227   1.474   7.915   3.257  0.4846 -0.2768 -0.1590
  988MOL0     C36228   1.366   7.933   3.159  0.6065  0.1081  0.1672
  988MOL0     C36229   1.368   8.082   3.098 -0.2651 -0.0045 -0.6594
  988MOL0     O36230   1.461   8.079   2.985  0.3468  0.3116  0.5209
  988MOL0     C36231   1.427   8.040   2.860  0.3228 -0.5109  0.1858
  988MOL0     C36232   1.521   8.018   2.762  0.4990 -0.2586 -0.1671
  988MOL0     C36233   1.488   7.975   2.627 -0.2169  0.6619  0.0625
  988MOL0     C36234   1.599   7.978   2.531 -0.0179  0.1571  0.5238
  988MOL0     C36235   1.352   7.957   2.592  0.7598  0.5957  0.4543
  988MOL0     C36236   1.310   7.905   2.458  0.5507  0.2386 -0.0851
  988MOL0     O36237   1.170   7.878   2.441 -0.0896  0.1893 -0.4383
  988MOL0     C36238   1.105   7.836   2.323 -0.4495  0.5504 -0.5848
  988MOL0     C36239   1.169   7.812   2.203  0.2453  0.4501  0.1265
  988MOL0     C36240   1.083   7.785   2.095 -0.4570 -0.2933 -0.0971
  988MOL0     C36241   0.941   7.760   2.104  0.1238  0.3769 -0.5196
  988MOL0     O36242   0.872   7.716   1.992  0.7394  0.3602  0.9920
  988MOL0     C36243   0.735   7.694   2.008  0.0810 -0.1819 -0.5289
  988MOL0     C36244   0.674   7.639   1.883  0.1614  0.1942 -0.1993
  988MOL0     C36245   0.526   7.622   1.917 -0.5572 -0.7346 -0.4355
  988MOL0     C36246   0.447   7.535   1.823 -0.8180 -0.7802 -0.0776
  988MOL0     C36247   0.436   7.581   1.680 -0.5380  0.1091  0.2977
  988MOL0     C36248   0.341   7.503   1.593  0.4097  0.0929 -0.7906
  988MOL0     C36249   0.383   7.528   1.448 -0.3747  0.5832 -0.3818
  988MOL0     C36250   0.502   7.444   1.405  0.6014 -0.6211  0.0337
  988MOL0    Cl36251   0.558   7.482   1.231  0.0036  0.3750  0.2065
  988MOL0     C36252   0.885   7.778   2.232 -0.2812  0.0276  0.6132
  988MOL0     C36253   0.964   7.817   2.338 -0.2792 -0.0149 -0.1663
  988MOL0     O36254   1.388   7.905   2.369 -0.1449 -0.2981  0.1870
  988MOL0     C36255   1.251   7.983   2.692 -0.6278  0.6525 -0.3432
  988MOL0     C36256   1.292   8.030   2.818  0.7421  0.5892 -0.1558
  988MOL0     N36257   1.401   7.776   3.560  0.1705 -0.2191  0.3737
  988MOL0     N36258   1.292   7.739   3.618  0.2582 -0.2076  0.1903
  988MOL0     C36259   0.506   7.985   2.907  0.0807  0.3085 -0.6324
  988MOL0     C36260   0.409   8.005   2.808 -0.4816 -0.2580  0.3342
  988MOL0     C36261   0.019   8.057   2.612 -0.1716 -0.2681 -0.0799
  988MOL0     C36262   0.063   8.107   2.483 -0.0506  0.4802 -0.1937
  988MOL0     C36263  -0.029   8.132   2.392 -1.7149  0.1606 -1.1468
  988MOL0     C36264  -0.167   8.109   2.401  0.8240 -0.3690 -0.4163
  988MOL0     O36265  -0.263   8.132   2.307  0.0490  0.2992 -0.1946
  988MOL0     C36266  -0.213   8.163   2.177  0.0751 -0.2735 -0.5293
  988MOL0     C36267  -0.328   8.147   2.069 -0.0757 -0.0513  1.0326
  988MOL0     C36268  -0.463   8.220   2.115  0.4056 -0.3575 -0.2567
  988MOL0     C36269  -0.435   8.366   2.161 -0.4671  0.1138 -0.1596
  988MOL0     C36270  -0.431   8.463   2.049  0.3669  0.0980  0.6211
  988MOL0     C36271  -0.410   8.530   1.952  0.1059 -0.0020 -0.3455
  988MOL0     C36272  -0.209   8.063   2.528 -0.1738  0.9136  0.6492
  988MOL0     C36273  -0.120   8.026   2.631  0.0865 -1.6112  0.7048
  988MOL0     C36274  -0.183   7.968   2.753  0.6055  0.2804 -0.1794
  988MOL0     H36275   0.267   8.295   2.917  0.2506  0.3153 -0.4747
  988MOL0     H36276   0.444   8.266   3.085 -0.6513 -0.3198  0.5856
  988MOL0     H36277   0.634   8.267   3.171 -0.8006 -0.3801 -0.0409
  988MOL0     H36278   0.752   8.230   3.044 -0.5197 -1.2372  0.0215
  988MOL0     H36279   0.894   8.111   3.216  0.0567 -1.9818  1.6959
  988MOL0     H36280   0.835   8.256   3.299  0.2893 -0.6452  1.5450
  988MOL0     H36281   0.663   8.138   3.412  2.1001  0.5296  1.7448
  988MOL0     H36282   0.685   7.989   3.322 -0.0979 -0.1649 -1.3669
  988MOL0     H36283   0.926   7.978   3.423 -0.6091 -2.4952  1.3269
  988MOL0     H36284   0.872   8.115   3.517 -1.7300  0.8937 -0.7492
  988MOL0     H36285   0.759   7.844   3.543  2.7695 -0.5715  0.7783
  988MOL0     H36286   0.682   7.990   3.592 -0.6691 -0.7462 -0.6152
  988MOL0     H36287   0.859   8.045   3.754  1.2017  0.6362 -1.3788
  988MOL0     H36288   0.835   7.871   3.774  2.1647 -0.7849  1.0338
  988MOL0     H36289   1.076   7.973   3.774  3.1348 -0.5416 -2.3106
  988MOL0     H36290   1.055   8.024   3.617  0.6109  1.0161  1.4741
  988MOL0     H36291   1.052   7.748   3.734  0.3331 -0.5015 -0.4892
  988MOL0     H36292   0.983   7.760   3.568  0.5031  2.3139 -1.0954
  988MOL0     H36293   1.184   7.976   3.425  0.9211  1.9834  1.1853
  988MOL0     H36294   1.553   7.961   3.442  1.1217  0.9609 -2.6714
  988MOL0     H36295   1.411   8.064   3.410  0.3067 -0.7514  0.9914
  988MOL0     H36296   1.564   7.963   3.216 -1.2981  0.6914 -3.3100
  988MOL0     H36297   1.487   7.807   3.264 -2.6287 -0.6297  2.3234
  988MOL0     H36298   1.379   7.863   3.076 -1.8719  0.5019 -0.6434
  988MOL0     H36299   1.273   7.910   3.212  0.5021 -3.9172 -1.3932
  988MOL0     H36300   1.264   8.106   3.072 -0.7411 -2.8796 -1.7899
  988MOL0     H36301   1.408   8.152   3.171  2.9986 -2.5170  0.1809
  988MOL0     H36302   1.624   8.042   2.783 -0.0185  3.2690 -1.0683
  988MOL0     H36303   1.594   7.885   2.476  1.1480  0.3945 -0.0226
  988MOL0     H36304   1.701   7.974   2.572  0.9580 -2.5688 -1.8487
  988MOL0     H36305   1.596   8.067   2.467  0.4244 -0.9068 -1.0028
  988MOL0     H36306   1.275   7.820   2.182 -0.1950  0.9265 -2.1794
  988MOL0     H36307   1.125   7.812   1.999 -2.2750  2.6895 -0.1824
  988MOL0     H36308   0.718   7.637   2.100 -1.5443 -1.3522 -1.4899
  988MOL0     H36309   0.687   7.792   2.011 -1.0910 -0.6333 -2.5718
  988MOL0     H36310   0.687   7.701   1.794 -0.3743  0.7646  0.1112
  988MOL0     H36311   0.724   7.544   1.862 -0.2950 -0.2434  0.6392
  988MOL0     H36312   0.486   7.724   1.917  3.7476  1.1811  0.9015
  988MOL0     H36313   0.511   7.587   2.020 -2.0470  2.6721  0.6752
  988MOL0     H36314   0.344   7.523   1.859 -1.2208  0.2201 -0.8414
  988MOL0     H36315   0.486   7.434   1.832 -0.4355 -0.4633  3.3995
  988MOL0     H36316   0.404   7.685   1.675 -1.4891 -0.1991 -3.7358
  988MOL0     H36317   0.535   7.578   1.635 -0.4923  1.6501  0.2398
  988MOL0     H36318   0.241   7.542   1.614  0.5203  2.1390 -3.5947
  988MOL0     H36319   0.351   7.397   1.621  0.5732 -1.0685 -4.7354
  988MOL0     H36320   0.396   7.635   1.434  0.6424  0.4039 -0.8902
  988MOL0     H36321   0.302   7.493   1.383 -1.9410  1.0173  1.2425
  988MOL0     H36322   0.477   7.338   1.403 -4.0695  0.2714 -1.7236
  988MOL0     H36323   0.586   7.456   1.475 -0.5555 -1.3800  1.5943
  988MOL0     H36324   0.783   7.766   2.264 -0.9105 -3.8560 -2.0473
  988MOL0     H36325   0.924   7.821   2.439 -0.3828 -1.6145 -0.1274
  988MOL0     H36326   1.151   7.974   2.651  0.1057  0.7737 -2.2355
  988MOL0     H36327   1.201   8.056   2.873 -0.0456  1.0248 -1.6070
  988MOL0     H36328   0.574   7.900   2.909  1.5631  1.4110 -1.2502
  988MOL0     H36329   0.406   7.932   2.727 -2.6942  2.2561 -2.0547
  988MOL0     H36330   0.169   8.121   2.470 -0.2436  1.6770 -0.5880
  988MOL0     H36331  -0.001   8.204   2.316  0.7879  3.1468  2.2853
  988MOL0     H36332  -0.178   8.266   2.185  0.3821 -0.4852  4.9439
  988MOL0     H36333  -0.125   8.103   2.152 -0.9550 -2.4173  0.6917
  988MOL0     H36334  -0.358   8.045   2.046 -0.6394  0.1097  1.0380
  988MOL0     H36335  -0.307   8.189   1.971 -1.1499  0.6916  1.1064
  988MOL0     H36336  -0.540   8.238   2.040  1.2505  3.9595 -0.3078
  988MOL0     H36337  -0.510   8.159   2.193 -2.3963  0.3401 -1.3080
  988MOL0     H36338  -0.348   8.368   2.228 -0.3410  0.5340 -0.3298
  988MOL0     H36339  -0.524   8.408   2.210  1.0595  1.8069  1.3425
  988MOL0     H36340  -0.380   8.578   1.861  0.2994 -1.0236 -0.8302
  988MOL0     H36341  -0.316   8.044   2.537 -0.4370  1.7129 -0.6192
  988MOL0     H36342  -0.123   7.887   2.794 -0.2772 -0.0555  0.4818
  988MOL0     H36343  -0.182   8.044   2.832 -0.1145 -0.3517  0.4557
  988MOL0     H36344  -0.282   7.926   2.737 -0.6588  1.8450  2.7612
  989MOL0     O36345   6.245   9.848   4.369  0.0219 -0.4223 -0.6407
  989MOL0     C36346   6.200   9.737   4.335 -0.5364 -0.5357 -0.6921
  989MOL0     O36347   6.241   9.663   4.230  0.7437  0.2991 -0.6478
  989MOL0     C36348   6.287   9.720   4.116 -0.9131 -0.1088  0.1837
  989MOL0     C36349   6.295   9.855   4.084  0.1273  0.3677 -0.0025
  989MOL0     C36350   6.367   9.900   3.973 -0.1670 -0.4984  0.3968
  989MOL0     C36351   6.415   9.818   3.875 -0.9584  0.4338 -0.4025
  989MOL0     O36352   6.482   9.861   3.765  0.0083  0.5398 -0.2513
  989MOL0     C36353   6.469  10.004   3.726 -0.3568 -0.3255  0.0610
  989MOL0     C36354   6.505  10.038   3.580  1.1250  0.1119  0.2834
  989MOL0     C36355   6.443   9.930   3.484  0.4186 -0.5934  0.1245
  989MOL0     C36356   6.476   9.968   3.343 -0.7020  0.2017  0.8250
  989MOL0     C36357   6.428   9.888   3.221  0.9881  1.3494 -0.0003
  989MOL0     C36358   6.278   9.887   3.202  0.6083 -0.1687 -0.0580
  989MOL0     C36359   6.221   9.887   3.054 -0.3795 -0.5442  0.6765
  989MOL0     C36360   6.185  10.020   3.008  0.0117 -0.1108  0.9352
  989MOL0     N36361   6.145  10.036   2.868  0.8553 -0.4422  0.4378
  989MOL0     C36362   6.037   9.974   2.812 -0.5558 -0.6382  0.0099
  989MOL0     C36363   6.045  10.002   2.678 -0.8694 -1.2835 -0.7568
  989MOL0     C36364   5.943   9.952   2.579  0.6356 -0.2577 -0.2845
  989MOL0     C36365   5.840  10.055   2.552 -0.2383 -0.5415  0.6691
  989MOL0     C36366   5.741  10.014   2.446  0.0393  0.6322  0.0847
  989MOL0     C36367   5.625  10.106   2.420  0.6877  0.8923  0.1176
  989MOL0     O36368   5.664  10.225   2.356 -0.8696 -0.4699 -0.4379
  989MOL0     C36369   5.689  10.232   2.221  0.0278 -1.3511 -0.0392
  989MOL0     C36370   5.683  10.138   2.127 -0.3395 -0.1218  0.2613
  989MOL0     C36371   5.691  10.162   1.990  0.7287 -0.7740  0.0840
  989MOL0     C36372   5.674  10.048   1.906  0.9951  1.5685  0.1474
  989MOL0     C36373   5.701  10.299   1.937 -0.3352 -0.7972  0.4850
  989MOL0     C36374   5.703  10.341   1.791 -0.9157  0.0697  0.3951
  989MOL0     O36375   5.678  10.467   1.761  0.2564  0.0328 -0.0607
  989MOL0     C36376   5.656  10.513   1.632 -0.3232  0.0892  1.1475
  989MOL0     C36377   5.648  10.427   1.511 -0.4085 -0.7827 -0.0564
  989MOL0     C36378   5.628  10.489   1.385 -0.3499  0.4693  0.1214
  989MOL0     C36379   5.633  10.629   1.369  0.4690  0.4239 -0.4491
  989MOL0     O36380   5.609  10.683   1.246 -0.8729  0.5088 -0.4847
  989MOL0     C36381   5.570  10.821   1.245  0.2078 -0.0603 -0.2198
  989MOL0     C36382   5.546  10.883   1.108  0.4644  0.7300  0.5953
  989MOL0     C36383   5.422  10.820   1.041  0.3853 -0.3434 -0.1831
  989MOL0     C36384   5.387  10.881   0.903 -0.2245  0.5355 -0.7603
  989MOL0     C36385   5.500  10.875   0.804  1.1905 -0.0891  0.0430
  989MOL0     C36386   5.459  10.914   0.663 -0.2553 -0.1567  0.3926
  989MOL0     C36387   5.565  10.887   0.564 -0.6785 -0.6017 -0.0737
  989MOL0     C36388   5.502  10.892   0.421 -0.1539  0.5095  0.8193
  989MOL0    Cl36389   5.424  11.052   0.389  0.1531  0.2110 -0.2451
  989MOL0     C36390   5.664  10.708   1.488  0.6454  0.7351 -0.1030
  989MOL0     C36391   5.669  10.649   1.612  0.6087 -0.2843 -0.5672
  989MOL0     O36392   5.749  10.254   1.716 -0.3284 -0.2218 -0.2618
  989MOL0     C36393   5.715  10.397   2.039 -0.5690 -0.7474 -0.5729
  989MOL0     C36394   5.712  10.368   2.178 -0.6992  0.6963  0.1086
  989MOL0     N36395   6.161  10.087   2.654  0.6909 -0.4628  0.0113
  989MOL0     N36396   6.218  10.095   2.767  0.6684  0.0022 -0.5255
  989MOL0     C36397   6.413   9.676   3.910  0.6517 -0.4890 -0.8321
  989MOL0     C36398   6.342   9.632   4.027  0.3033 -0.2884 -0.2929
  989MOL0     C36399   6.118   9.664   4.434 -0.5727 -0.4225 -0.1485
  989MOL0     C36400   6.043   9.744   4.524 -0.3424 -0.1143 -0.6217
  989MOL0     C36401   5.970   9.686   4.623  0.2444 -0.4984  1.8239
  989MOL0     C36402   5.937   9.556   4.629  0.4214 -0.0143  0.1453
  989MOL0     O36403   5.844   9.517   4.718  0.3950 -0.6109  0.3117
  989MOL0     C36404   5.800   9.378   4.731  0.2290  0.9538  0.2716
  989MOL0     C36405   5.673   9.367   4.815 -0.8417 -0.5695 -0.1487
  989MOL0     C36406   5.697   9.411   4.962  0.2977 -0.6058 -0.6524
  989MOL0     C36407   5.807   9.325   5.040 -0.0529 -0.4351 -0.0046
  989MOL0     C36408   5.817   9.357   5.180  0.4745 -0.1195  0.0843
  989MOL0     C36409   5.837   9.376   5.298 -0.2242 -0.2565  0.7578
  989MOL0     C36410   6.012   9.467   4.557  0.0760 -0.2676  0.7814
  989MOL0     C36411   6.106   9.520   4.460 -0.2379  0.6587  0.4436
  989MOL0     C36412   6.178   9.411   4.389 -0.8277 -0.3698  0.2487
  989MOL0     H36413   6.250   9.934   4.144  2.7592  1.0797  1.1938
  989MOL0     H36414   6.400  10.004   3.970  1.7399 -1.0766  0.4396
  989MOL0     H36415   6.539  10.058   3.792 -3.2964  0.8826  2.4379
  989MOL0     H36416   6.372  10.039   3.763 -0.2157 -2.3833  2.6704
  989MOL0     H36417   6.466  10.132   3.539 -0.4570 -2.0175 -3.6742
  989MOL0     H36418   6.612  10.043   3.560  0.8611  0.9568 -1.1015
  989MOL0     H36419   6.489   9.832   3.500  2.2772  0.2605  0.2694
  989MOL0     H36420   6.339   9.912   3.514  0.3488 -3.1445 -1.4082
  989MOL0     H36421   6.441  10.071   3.325 -4.2890 -1.1918 -1.2436
  989MOL0     H36422   6.584   9.979   3.345 -0.6462  0.0817 -0.5206
  989MOL0     H36423   6.469   9.787   3.232 -2.2676 -0.0367  0.5276
  989MOL0     H36424   6.472   9.940   3.135  1.8639  0.5260 -0.0682
  989MOL0     H36425   6.253   9.798   3.260  2.9927 -1.9600 -1.6039
  989MOL0     H36426   6.233   9.973   3.253 -0.0410 -0.3611 -0.2880
  989MOL0     H36427   6.127   9.832   3.044  0.1714 -1.6013  1.1991
  989MOL0     H36428   6.295   9.840   2.988 -1.5356 -2.6681  0.8292
  989MOL0     H36429   6.113  10.062   3.080  0.2440 -0.3926  1.3309
  989MOL0     H36430   6.279  10.075   3.020  1.6068 -2.1102 -1.4481
  989MOL0     H36431   5.948   9.939   2.863 -0.0068  2.6034  3.7092
  989MOL0     H36432   5.896   9.862   2.620 -0.8838  1.1018  1.1199
  989MOL0     H36433   6.008   9.915   2.499 -0.6110 -1.4554 -0.8000
  989MOL0     H36434   5.795  10.072   2.651 -1.2652 -1.1209  0.3078
  989MOL0     H36435   5.894  10.144   2.519 -1.0018 -1.1471 -2.5002
  989MOL0     H36436   5.793   9.991   2.352  0.1977  2.0353 -0.1864
  989MOL0     H36437   5.689   9.921   2.469  0.4179 -0.2677 -2.3291
  989MOL0     H36438   5.554  10.052   2.356  0.5652 -2.1723  2.5871
  989MOL0     H36439   5.579  10.132   2.515 -0.5228  1.7369 -0.6726
  989MOL0     H36440   5.675  10.034   2.157  0.0296 -0.0243  0.7042
  989MOL0     H36441   5.775  10.012   1.887  1.4513  0.8495  3.3368
  989MOL0     H36442   5.610  10.068   1.819 -0.2256  3.8663  1.4628
  989MOL0     H36443   5.625   9.966   1.959  2.3509  0.7466  0.1825
  989MOL0     H36444   5.648  10.319   1.523  0.5154 -1.1201 -2.5063
  989MOL0     H36445   5.629  10.439   1.288  2.8238 -0.4613  0.5176
  989MOL0     H36446   5.475  10.834   1.297  0.9076 -0.6322  1.2222
  989MOL0     H36447   5.648  10.880   1.295  0.3210  0.3529 -0.8654
  989MOL0     H36448   5.539  10.992   1.109 -2.1410  0.6290  0.4217
  989MOL0     H36449   5.640  10.861   1.057  1.6911  4.4848  0.9418
  989MOL0     H36450   5.338  10.854   1.102  1.3301  1.6281  0.0901
  989MOL0     H36451   5.431  10.711   1.034 -3.5852 -0.8925  1.0875
  989MOL0     H36452   5.345  10.980   0.922 -0.6315 -0.1521  2.5123
  989MOL0     H36453   5.298  10.827   0.868  0.0575  0.1441 -0.8817
  989MOL0     H36454   5.591  10.926   0.834  1.3597 -0.6306  0.4662
  989MOL0     H36455   5.539  10.774   0.790  3.2278  1.0081 -3.3049
  989MOL0     H36456   5.437  11.021   0.659 -0.0933 -0.0989  0.8914
  989MOL0     H36457   5.375  10.852   0.630  0.5320 -0.9956 -0.0884
  989MOL0     H36458   5.612  10.789   0.568 -1.5258 -1.1267 -1.7752
  989MOL0     H36459   5.638  10.969   0.557 -0.6424 -0.7626 -2.3898
  989MOL0     H36460   5.425  10.816   0.409  0.4794  0.2138 -1.9987
  989MOL0     H36461   5.579  10.873   0.347  0.0385  0.6275  0.9877
  989MOL0     H36462   5.663  10.816   1.501 -2.1255  1.0074 -1.8788
  989MOL0     H36463   5.689  10.717   1.694 -2.9223 -0.5426  0.6448
  989MOL0     H36464   5.713  10.503   2.015  3.4326 -0.6126 -0.8603
  989MOL0     H36465   5.733  10.444   2.253 -0.6071 -0.7924  1.6619
  989MOL0     H36466   6.456   9.612   3.833 -2.3656  0.2515 -3.3201
  989MOL0     H36467   6.346   9.529   4.060  1.1622  0.3807  1.8874
  989MOL0     H36468   6.055   9.852   4.520 -1.0262 -0.0760 -4.0280
  989MOL0     H36469   5.939   9.762   4.694  2.1606  0.8031  1.3705
  989MOL0     H36470   5.781   9.336   4.632  2.8599  1.6991 -0.6438
  989MOL0     H36471   5.877   9.318   4.781 -0.3428  0.8022  0.9948
  989MOL0     H36472   5.631   9.266   4.807 -0.0326 -1.0433  1.2660
  989MOL0     H36473   5.603   9.440   4.773 -0.7755 -0.6877 -0.4667
  989MOL0     H36474   5.712   9.519   4.965 -2.3674 -0.1117 -2.4638
  989MOL0     H36475   5.601   9.384   5.006  0.6683 -2.2040 -0.7572
  989MOL0     H36476   5.905   9.340   4.992 -0.5058  4.4824  0.1562
  989MOL0     H36477   5.793   9.216   5.041 -0.1636 -0.4190  0.1702
  989MOL0     H36478   5.838   9.383   5.405 -2.5664  0.6690  0.7633
  989MOL0     H36479   5.992   9.362   4.576 -5.8954  0.0318 -1.6628
  989MOL0     H36480   6.202   9.328   4.456 -1.6716 -0.6480  0.2161
  989MOL0     H36481   6.115   9.359   4.317 -2.3450 -0.3318  1.4799
  989MOL0     H36482   6.264   9.448   4.333 -2.8052  0.4313 -2.4276
  990MOL0     O36483   0.616   5.224   6.131  0.2240 -0.3918  0.4767
  990MOL0     C36484   0.734   5.213   6.093  0.3746  0.0854  0.5216
  990MOL0     O36485   0.840   5.247   6.162  0.1947 -0.4586  0.3951
  990MOL0     C36486   0.814   5.314   6.275 -0.7248 -0.1706 -1.2682
  990MOL0     C36487   0.825   5.247   6.407 -0.9696 -0.6227  0.4634
  990MOL0     C36488   0.832   5.316   6.528 -0.1951 -0.7432 -0.2306
  990MOL0     C36489   0.815   5.453   6.525  0.3485 -0.8018  0.0516
  990MOL0     O36490   0.796   5.526   6.644 -0.1478  0.5606  0.5825
  990MOL0     C36491   0.893   5.492   6.742  0.3689 -0.7677 -0.0512
  990MOL0     C36492   0.897   5.588   6.858  0.5056 -0.3196  0.5752
  990MOL0     C36493   0.781   5.564   6.953  0.0835 -0.5761 -0.2234
  990MOL0     C36494   0.784   5.658   7.079 -0.0063  0.3890  0.3458
  990MOL0     C36495   0.706   5.595   7.186 -0.7019  0.0815 -0.1532
  990MOL0     C36496   0.712   5.694   7.306  0.1926 -0.5141 -0.2853
  990MOL0     C36497   0.648   5.630   7.435  0.3054 -1.3336  0.5282
  990MOL0     C36498   0.678   5.707   7.565  0.2392  0.3535  0.4371
  990MOL0     N36499   0.613   5.839   7.573 -0.1859 -0.1643 -0.5769
  990MOL0     C36500   0.479   5.866   7.588  0.1003 -0.9009  0.2233
  990MOL0     C36501   0.453   5.994   7.532 -0.2597  0.1934 -0.9188
  990MOL0     C36502   0.331   6.066   7.522  1.2432 -0.9365 -0.1017
  990MOL0     C36503   0.277   6.112   7.658  0.2143 -0.5505 -0.0933
  990MOL0     C36504   0.181   6.235   7.659  0.6185  0.2814  0.1159
  990MOL0     C36505   0.073   6.236   7.552  0.1324  0.4228 -0.0802
  990MOL0     O36506   0.119   6.277   7.424 -0.0841 -0.7777 -0.4423
  990MOL0     C36507   0.026   6.280   7.321  0.1924  0.4746  0.2061
  990MOL0     C36508  -0.082   6.364   7.324  0.0210  0.1037 -0.5215
  990MOL0     C36509  -0.168   6.385   7.226  0.3804 -0.3947  0.2182
  990MOL0     C36510  -0.286   6.481   7.259 -0.0198  0.0489  0.1082
  990MOL0     C36511  -0.153   6.312   7.102  0.0087 -0.4737 -0.1096
  990MOL0     C36512  -0.243   6.323   6.981 -0.0485 -0.4165 -0.8563
  990MOL0     O36513  -0.288   6.447   6.957  0.7226  0.1688  0.1394
  990MOL0     C36514  -0.357   6.453   6.843  0.3729 -0.3024 -0.1410
  990MOL0     C36515  -0.486   6.425   6.836  0.5653  0.7200  0.5552
  990MOL0     C36516  -0.571   6.440   6.722 -1.0427 -0.9415  0.2374
  990MOL0     C36517  -0.509   6.473   6.601 -0.0773 -1.0598 -0.3512
  990MOL0     O36518  -0.597   6.482   6.499  0.2891  0.5274  0.2929
  990MOL0     C36519  -0.543   6.478   6.362  0.0987 -0.8635  0.2982
  990MOL0     C36520  -0.655   6.472   6.263  0.3209  0.0747 -0.1091
  990MOL0     C36521  -0.587   6.492   6.120 -0.6744 -0.0532 -0.9243
  990MOL0     C36522  -0.672   6.438   6.003  0.2068 -0.2248  0.2476
  990MOL0     C36523  -0.628   6.511   5.871  0.1781 -0.7101 -0.1546
  990MOL0     C36524  -0.673   6.450   5.740  0.0421 -0.5913 -0.5083
  990MOL0     C36525  -0.826   6.477   5.710 -0.7672 -0.0020 -0.6268
  990MOL0     C36526  -0.841   6.617   5.637  0.9234  0.0219 -0.2676
  990MOL0    Cl36527  -0.723   6.638   5.501 -0.1078 -0.0022  0.0917
  990MOL0     C36528  -0.367   6.495   6.598  0.0523 -0.2847 -0.3302
  990MOL0     C36529  -0.297   6.489   6.721 -0.0891 -0.7271  0.0243
  990MOL0     O36530  -0.269   6.226   6.912 -0.8442  0.3259 -0.6663
  990MOL0     C36531  -0.032   6.236   7.094  0.3081 -0.2987 -0.6714
  990MOL0     C36532   0.057   6.222   7.196 -0.0697 -0.6080 -0.0646
  990MOL0     N36533   0.576   6.044   7.498  0.4015 -0.2894 -0.4152
  990MOL0     N36534   0.664   5.953   7.517 -0.2489 -0.4630 -0.3087
  990MOL0     C36535   0.792   5.515   6.404  0.3952 -0.1100  0.3739
  990MOL0     C36536   0.809   5.452   6.283  1.8028 -0.2973 -0.4326
  990MOL0     C36537   0.766   5.140   5.966 -0.3313 -0.3242 -0.0604
  990MOL0     C36538   0.835   5.208   5.864 -0.2218  0.3049  0.3476
  990MOL0     C36539   0.859   5.149   5.736 -0.8788 -0.5804 -0.1372
  990MOL0     C36540   0.803   5.023   5.712 -0.0522  0.2743 -0.0666
  990MOL0     O36541   0.817   4.954   5.593  0.1006  0.5524  0.3503
  990MOL0     C36542   0.777   5.017   5.471  0.3313  0.4692  0.2638
  990MOL0     C36543   0.638   4.990   5.420 -0.2424  0.3148  0.3200
  990MOL0     C36544   0.636   4.852   5.349  0.6613  0.0519 -0.4770
  990MOL0     C36545   0.493   4.794   5.337  0.0990 -0.6995 -0.5697
  990MOL0     C36546   0.487   4.689   5.234  0.8300  0.4667 -0.4598
  990MOL0     C36547   0.510   4.591   5.164  0.5978  0.1676 -1.4194
  990MOL0     C36548   0.728   4.958   5.808  0.1428 -0.0403  0.7955
  990MOL0     C36549   0.701   5.011   5.936  0.1474  0.5441  0.0657
  990MOL0     C36550   0.615   4.932   6.045  0.9903  0.5178  0.1303
  990MOL0     H36551   0.833   5.140   6.424 -0.3218 -0.2380  2.8984
  990MOL0     H36552   0.841   5.255   6.617  2.1258  0.4732  0.4677
  990MOL0     H36553   0.989   5.496   6.689  0.3976 -2.2524 -0.1497
  990MOL0     H36554   0.874   5.393   6.783  0.5098 -0.7923 -0.0429
  990MOL0     H36555   0.996   5.581   6.906 -0.3152 -0.5284  2.3097
  990MOL0     H36556   0.885   5.686   6.812  0.1796 -1.6466 -2.3932
  990MOL0     H36557   0.686   5.573   6.901 -0.0147  0.9360  0.1835
  990MOL0     H36558   0.811   5.462   6.981  2.1964 -0.8584 -3.0139
  990MOL0     H36559   0.884   5.683   7.116 -0.1988  0.9813  0.4904
  990MOL0     H36560   0.745   5.754   7.041 -3.4548 -1.9400 -2.6969
  990MOL0     H36561   0.748   5.500   7.221  0.4086  0.4108 -0.5619
  990MOL0     H36562   0.599   5.588   7.163 -0.2479  0.2742 -2.5947
  990MOL0     H36563   0.818   5.711   7.325  0.2325 -1.4540  0.3884
  990MOL0     H36564   0.661   5.787   7.279 -1.8524 -1.8302 -1.3029
  990MOL0     H36565   0.678   5.526   7.447  0.9956 -0.8933  3.1050
  990MOL0     H36566   0.542   5.639   7.409  0.6346  3.7589 -0.1109
  990MOL0     H36567   0.647   5.644   7.649 -3.0614 -1.9627 -2.2812
  990MOL0     H36568   0.787   5.718   7.561  0.4973 -2.1744 -2.4037
  990MOL0     H36569   0.408   5.800   7.636  0.2700  0.2971  2.2047
  990MOL0     H36570   0.258   6.002   7.471 -1.3756  0.6352  1.4525
  990MOL0     H36571   0.357   6.161   7.475  0.6240  0.4195  2.1364
  990MOL0     H36572   0.239   6.024   7.711  0.8255 -0.6291  0.2141
  990MOL0     H36573   0.368   6.140   7.712 -1.8683  0.8299  3.0375
  990MOL0     H36574   0.132   6.252   7.755 -0.8398  1.5689 -0.7917
  990MOL0     H36575   0.244   6.321   7.635  0.2341  0.7063  0.6036
  990MOL0     H36576   0.031   6.136   7.538  3.2270 -1.0434  0.0984
  990MOL0     H36577  -0.002   6.308   7.585 -0.0445 -0.1870  0.8638
  990MOL0     H36578  -0.118   6.402   7.419 -2.4165  0.0701 -1.3704
  990MOL0     H36579  -0.296   6.499   7.367  1.1311 -2.9503  0.8263
  990MOL0     H36580  -0.380   6.431   7.236 -0.4595  0.4347  1.0137
  990MOL0     H36581  -0.267   6.575   7.206 -0.4543  1.6635  2.6317
  990MOL0     H36582  -0.523   6.383   6.929  2.4924  0.2375  1.1333
  990MOL0     H36583  -0.674   6.407   6.717 -1.5017  0.5753 -0.7184
  990MOL0     H36584  -0.486   6.571   6.349  2.3952 -2.0472  1.2232
  990MOL0     H36585  -0.472   6.396   6.353  0.2921 -1.0455  2.6928
  990MOL0     H36586  -0.708   6.377   6.258 -0.8044  0.6970 -0.4014
  990MOL0     H36587  -0.729   6.549   6.284  0.3158  0.5286 -1.6421
  990MOL0     H36588  -0.490   6.442   6.116 -2.0040 -2.8651 -0.6459
  990MOL0     H36589  -0.576   6.600   6.115 -0.7993 -0.0774 -1.8632
  990MOL0     H36590  -0.778   6.459   6.016  0.3905  0.2920  0.9715
  990MOL0     H36591  -0.654   6.331   5.987  1.3957 -0.0648  0.4192
  990MOL0     H36592  -0.655   6.617   5.883  1.7359 -0.4498  1.5278
  990MOL0     H36593  -0.520   6.518   5.881  0.0890 -1.6858  2.4390
  990MOL0     H36594  -0.656   6.342   5.739  0.9203 -0.5069  1.5009
  990MOL0     H36595  -0.610   6.492   5.661  1.9708  0.4055  1.4574
  990MOL0     H36596  -0.887   6.477   5.801 -0.0571  0.9033 -0.1413
  990MOL0     H36597  -0.865   6.405   5.637 -2.0544 -0.2154  0.2362
  990MOL0     H36598  -0.827   6.702   5.705 -1.2900  1.6886 -1.7186
  990MOL0     H36599  -0.946   6.620   5.606  0.6574  0.5408  0.6299
  990MOL0     H36600  -0.311   6.515   6.507  1.3679  2.4855  0.9752
  990MOL0     H36601  -0.192   6.518   6.722 -0.6374  1.9094 -2.9728
  990MOL0     H36602  -0.014   6.191   6.997  2.3703  1.6901 -1.2885
  990MOL0     H36603   0.157   6.181   7.191  0.2338  0.2393 -2.4144
  990MOL0     H36604   0.772   5.622   6.406 -3.7748 -0.6386 -2.1269
  990MOL0     H36605   0.802   5.518   6.197 -3.5968  0.8510  0.5146
  990MOL0     H36606   0.856   5.309   5.896  1.2019 -0.2046  1.1235
  990MOL0     H36607   0.915   5.206   5.663 -1.6737  3.6037  2.2203
  990MOL0     H36608   0.784   5.125   5.487  3.1426  0.0961  2.2627
  990MOL0     H36609   0.843   4.989   5.388 -0.3536 -0.4844  0.0312
  990MOL0     H36610   0.603   5.064   5.347 -2.0782 -1.6199 -0.8888
  990MOL0     H36611   0.579   5.005   5.510  1.8309 -0.2678  1.8543
  990MOL0     H36612   0.685   4.866   5.252  4.6662  0.3380  1.4025
  990MOL0     H36613   0.698   4.784   5.407  2.1883  2.9894  1.5907
  990MOL0     H36614   0.416   4.864   5.305 -0.1852 -0.2039  1.0994
  990MOL0     H36615   0.462   4.755   5.434  3.8595 -2.8694 -0.0157
  990MOL0     H36616   0.537   4.506   5.103 -2.4643 -1.0421 -1.2881
  990MOL0     H36617   0.688   4.861   5.781 -1.0986  0.1743  1.7363
  990MOL0     H36618   0.676   4.893   6.127 -1.3966 -1.8907  0.8872
  990MOL0     H36619   0.538   4.998   6.087  3.0480  1.0079  3.4604
  990MOL0     H36620   0.569   4.845   5.997  1.2796  0.0517  0.6997
  991MOL0     O36621   8.629   3.979  11.104  0.0463 -0.5025 -0.4600
  991MOL0     C36622   8.756   3.986  11.108  0.4896  0.0543 -0.1954
  991MOL0     O36623   8.830   4.084  11.071 -0.2887 -0.5548 -0.4478
  991MOL0     C36624   8.759   4.200  11.031  0.1599  0.5325 -0.0770
  991MOL0     C36625   8.665   4.263  11.113 -0.0021  0.7328  0.0312
  991MOL0     C36626   8.598   4.379  11.075 -0.0227 -0.9805  0.1092
  991MOL0     C36627   8.635   4.432  10.953  0.4260 -1.2904  0.4005
  991MOL0     O36628   8.579   4.558  10.919 -0.2633 -0.1282  0.6860
  991MOL0     C36629   8.531   4.653  11.014  0.6351 -0.1090  0.1964
  991MOL0     C36630   8.391   4.629  11.054  0.7401  0.3104  0.1318
  991MOL0     C36631   8.353   4.717  11.177 -1.8901 -0.7086  0.0633
  991MOL0     C36632   8.330   4.866  11.172 -0.0281  0.6928  0.5471
  991MOL0     C36633   8.260   4.906  11.298 -0.8848 -0.4939 -0.6647
  991MOL0     C36634   8.270   5.060  11.318  0.2908 -0.4466  0.1172
  991MOL0     C36635   8.206   5.118  11.446  0.2604  0.7485 -0.0816
  991MOL0     C36636   8.055   5.111  11.429  0.5384 -0.3980 -0.3003
  991MOL0     N36637   7.994   5.175  11.548 -0.7310 -0.5789  0.0614
  991MOL0     C36638   8.012   5.309  11.579  0.0595  0.0695  1.1429
  991MOL0     C36639   7.922   5.326  11.679  0.6770 -1.0727  0.1806
  991MOL0     C36640   7.912   5.465  11.748  0.1888 -0.6855  0.2538
  991MOL0     C36641   7.821   5.555  11.668  1.3561 -0.6915 -0.6005
  991MOL0     C36642   7.789   5.684  11.745  0.2734  0.0832 -0.6497
  991MOL0     C36643   7.647   5.725  11.727  0.6406  1.0706  0.0307
  991MOL0     O36644   7.631   5.776  11.600  0.0422  0.3976  0.5279
  991MOL0     C36645   7.511   5.846  11.576 -1.2248 -0.0786 -0.3632
  991MOL0     C36646   7.380   5.788  11.592 -0.0809  0.1064  0.6026
  991MOL0     C36647   7.266   5.864  11.557  0.7157  0.4470  0.2000
  991MOL0     C36648   7.136   5.786  11.570  0.5843  0.3563  0.1796
  991MOL0     C36649   7.279   5.991  11.504 -0.2980  0.4714  0.3500
  991MOL0     C36650   7.170   6.077  11.451  0.5304  0.3148 -0.3838
  991MOL0     O36651   7.195   6.177  11.361  0.0636  0.2640  0.4639
  991MOL0     C36652   7.092   6.263  11.319 -0.2758  0.5959  0.0492
  991MOL0     C36653   7.051   6.260  11.187 -0.3241 -0.0140  0.2476
  991MOL0     C36654   6.954   6.350  11.144  1.4916 -0.7693 -0.2423
  991MOL0     C36655   6.886   6.438  11.235  0.2184 -0.8272 -0.6010
  991MOL0     O36656   6.793   6.528  11.187  1.3231 -0.1359 -0.4509
  991MOL0     C36657   6.701   6.587  11.282  0.4750 -0.3614 -0.5389
  991MOL0     C36658   6.570   6.602  11.209 -0.5675  0.4263 -0.1432
  991MOL0     C36659   6.467   6.667  11.299  0.5764 -0.7166  0.1023
  991MOL0     C36660   6.323   6.642  11.251  0.4947 -0.0312  0.6468
  991MOL0     C36661   6.280   6.491  11.263  0.4776  0.1053 -0.4499
  991MOL0     C36662   6.146   6.477  11.214 -0.3568  0.4628 -0.1840
  991MOL0     C36663   6.048   6.554  11.311  0.1683 -0.2608 -0.5050
  991MOL0     C36664   5.897   6.527  11.286 -1.0932  0.1167 -0.5571
  991MOL0    Cl36665   5.879   6.350  11.330 -0.2107  0.1786 -0.1481
  991MOL0     C36666   6.921   6.426  11.367 -0.0040  0.4511  0.1428
  991MOL0     C36667   7.023   6.344  11.414  0.0222  0.8809  0.4328
  991MOL0     O36668   7.053   6.045  11.490  0.2903 -0.3686  0.5369
  991MOL0     C36669   7.406   6.047  11.493 -0.2587  0.0771  0.0079
  991MOL0     C36670   7.525   5.980  11.528  1.3036  0.0781  0.8962
  991MOL0     N36671   7.860   5.218  11.718  0.0086  0.8170 -0.0466
  991MOL0     N36672   7.890   5.131  11.631 -0.3202  0.5909  0.5386
  991MOL0     C36673   8.722   4.369  10.866 -0.7226  0.4482 -0.3593
  991MOL0     C36674   8.786   4.254  10.910  0.4116  0.1966  0.1554
  991MOL0     C36675   8.824   3.866  11.169  0.8913 -0.2448 -0.5419
  991MOL0     C36676   8.749   3.742  11.178  0.4034 -0.1348 -0.0477
  991MOL0     C36677   8.809   3.632  11.235  0.4073 -0.0740  0.0798
  991MOL0     C36678   8.929   3.637  11.295 -0.0742 -0.8290  0.6880
  991MOL0     O36679   8.979   3.523  11.351 -0.3623  0.5599 -0.3904
  991MOL0     C36680   9.114   3.481  11.331  0.0077 -0.0771  0.1433
  991MOL0     C36681   9.134   3.428  11.178  1.1459  0.5324  0.0873
  991MOL0     C36682   9.262   3.348  11.171  0.8755  0.0414  0.0636
  991MOL0     C36683   9.323   3.320  11.027 -0.0926 -0.1483  0.2595
  991MOL0     C36684   9.231   3.235  10.956 -0.0965  0.0942  1.0254
  991MOL0     C36685   9.149   3.181  10.895 -0.0465  0.0393 -0.0500
  991MOL0     C36686   9.007   3.756  11.285  0.2281  0.2432  0.1565
  991MOL0     C36687   8.953   3.869  11.231 -0.2732 -0.8767  0.2064
  991MOL0     C36688   9.031   4.002  11.263 -0.3623  1.0862  0.1117
  991MOL0     H36689   8.647   4.230  11.215  2.2867  0.1232  0.2913
  991MOL0     H36690   8.529   4.428  11.143 -2.0972  0.0477 -2.5427
  991MOL0     H36691   8.531   4.751  10.966 -0.9320  0.8323  1.9986
  991MOL0     H36692   8.591   4.653  11.106 -0.1423  0.7863  0.7113
  991MOL0     H36693   8.318   4.642  10.973  1.0641 -0.3526 -0.2743
  991MOL0     H36694   8.381   4.522  11.075  0.0109  0.7384  2.1315
  991MOL0     H36695   8.256   4.681  11.213 -1.9703 -2.2082 -1.5553
  991MOL0     H36696   8.427   4.700  11.256  0.4274  0.7022 -1.6892
  991MOL0     H36697   8.426   4.919  11.176  1.0081 -1.1394  4.4152
  991MOL0     H36698   8.284   4.890  11.076  1.0102 -0.9963 -0.4351
  991MOL0     H36699   8.314   4.866  11.385 -0.2346  3.3133  0.8731
  991MOL0     H36700   8.158   4.867  11.301 -1.3351  0.6857  1.1354
  991MOL0     H36701   8.377   5.083  11.311 -0.2663  2.5446 -0.1154
  991MOL0     H36702   8.217   5.107  11.235 -1.6117  0.7423  1.8892
  991MOL0     H36703   8.251   5.217  11.456  0.0964  0.6873  1.4337
  991MOL0     H36704   8.244   5.053  11.524 -0.2904  0.1521 -0.3017
  991MOL0     H36705   8.030   5.168  11.340 -0.9184 -1.0883 -0.3565
  991MOL0     H36706   8.012   5.011  11.420 -1.6550  0.1723  2.3324
  991MOL0     H36707   8.074   5.384  11.532  1.0065 -0.1107  2.0893
  991MOL0     H36708   8.008   5.518  11.754  0.7103 -1.5039 -0.5681
  991MOL0     H36709   7.870   5.463  11.849 -1.7694  0.0177 -0.4981
  991MOL0     H36710   7.862   5.579  11.570  0.7738 -3.3887 -1.5878
  991MOL0     H36711   7.731   5.500  11.638  0.2866  2.8613 -5.1175
  991MOL0     H36712   7.800   5.659  11.851 -2.2088  0.7624 -0.1693
  991MOL0     H36713   7.866   5.758  11.721  1.9018 -1.9701 -2.0729
  991MOL0     H36714   7.582   5.638  11.739  1.3515  0.5833  0.4038
  991MOL0     H36715   7.610   5.801  11.797 -1.6635 -0.4516  0.5685
  991MOL0     H36716   7.361   5.684  11.615 -0.2184 -1.0805 -3.8627
  991MOL0     H36717   7.084   5.794  11.474 -0.8606 -0.4058  0.8661
  991MOL0     H36718   7.068   5.830  11.643 -1.1996  2.0882 -2.3663
  991MOL0     H36719   7.159   5.682  11.596 -2.6918 -0.6731 -0.4772
  991MOL0     H36720   7.099   6.184  11.125 -1.9966  0.0410 -1.2033
  991MOL0     H36721   6.914   6.341  11.044 -1.2490 -2.3428  0.8666
  991MOL0     H36722   6.676   6.526  11.369 -2.0926  0.3149 -0.7158
  991MOL0     H36723   6.752   6.683  11.298 -2.3929  1.4561 -1.5571
  991MOL0     H36724   6.594   6.671  11.128  2.2508  0.4561  0.6282
  991MOL0     H36725   6.547   6.499  11.182 -0.9662  0.6047 -0.4994
  991MOL0     H36726   6.493   6.772  11.313 -1.0585 -0.4246  1.2609
  991MOL0     H36727   6.477   6.628  11.401  1.4829 -0.8117 -0.0147
  991MOL0     H36728   6.313   6.668  11.145  4.6428 -0.5739 -0.0571
  991MOL0     H36729   6.269   6.699  11.327  3.7985  2.3441  1.4250
  991MOL0     H36730   6.344   6.429  11.200 -1.9858 -1.4715 -1.5127
  991MOL0     H36731   6.305   6.464  11.366  3.6728  1.6600 -0.6643
  991MOL0     H36732   6.129   6.369  11.211  3.4718 -0.2746 -0.0386
  991MOL0     H36733   6.141   6.527  11.117 -0.6363 -0.0992 -0.4664
  991MOL0     H36734   6.066   6.659  11.282  3.3772 -0.8266 -1.0061
  991MOL0     H36735   6.065   6.533  11.417 -0.3586  2.0560  0.1153
  991MOL0     H36736   5.882   6.552  11.180  2.3737  3.8740 -0.4158
  991MOL0     H36737   5.831   6.595  11.341  0.0783 -0.6042  1.8807
  991MOL0     H36738   6.889   6.489  11.449 -3.4575  0.4394 -1.0438
  991MOL0     H36739   7.054   6.365  11.516 -1.1027  0.8420  0.7972
  991MOL0     H36740   7.409   6.147  11.452 -2.7637  0.9804  1.8059
  991MOL0     H36741   7.627   6.017  11.525  2.2978 -2.1536  3.1975
  991MOL0     H36742   8.756   4.423  10.779  0.9337  1.1079  0.6482
  991MOL0     H36743   8.859   4.211  10.842 -2.6782 -2.0406 -2.0295
  991MOL0     H36744   8.652   3.744  11.131  1.1768 -0.0064 -1.7050
  991MOL0     H36745   8.749   3.541  11.230  3.2969 -2.1155 -0.0244
  991MOL0     H36746   9.180   3.566  11.350 -1.2631  0.7629  0.9113
  991MOL0     H36747   9.136   3.398  11.399  0.5097 -2.2176 -2.4733
  991MOL0     H36748   9.141   3.519  11.118  1.4378 -0.8751 -2.1485
  991MOL0     H36749   9.044   3.375  11.146  0.9435  0.7327  0.3270
  991MOL0     H36750   9.340   3.397  11.230  0.1594  1.1326  0.1268
  991MOL0     H36751   9.251   3.257  11.230  0.7400  0.0918  0.1177
  991MOL0     H36752   9.419   3.270  11.038  1.3528  2.2001 -0.9734
  991MOL0     H36753   9.336   3.417  10.979 -0.2121  0.5090  1.5108
  991MOL0     H36754   9.069   3.129  10.846  1.7349 -0.1326 -3.0075
  991MOL0     H36755   9.105   3.756  11.332 -0.5244 -1.0372  1.8595
  991MOL0     H36756   9.077   4.028  11.167 -0.1380 -1.4000 -0.5149
  991MOL0     H36757   8.959   4.083  11.275 -0.0572  2.2188 -3.9976
  991MOL0     H36758   9.105   3.996  11.343 -0.1761  0.7407 -0.0868
  992MOL0     O36759   0.162   6.549   5.990 -0.3833  0.8019 -0.0983
  992MOL0     C36760   0.235   6.536   6.090 -0.5647  0.2535  0.1882
  992MOL0     O36761   0.374   6.568   6.097  0.4755 -0.5067 -0.3171
  992MOL0     C36762   0.443   6.566   5.979 -0.4646 -1.3671  0.1166
  992MOL0     C36763   0.427   6.479   5.870  0.5267  0.0121 -0.3165
  992MOL0     C36764   0.505   6.477   5.753  0.6942  0.1234  0.6033
  992MOL0     C36765   0.622   6.546   5.748  0.2140 -0.5402  0.2513
  992MOL0     O36766   0.700   6.535   5.639  0.0026 -0.5734  0.7102
  992MOL0     C36767   0.626   6.564   5.516 -0.1278 -0.2078  0.5952
  992MOL0     C36768   0.740   6.579   5.410 -0.4324  0.0008 -0.9391
  992MOL0     C36769   0.677   6.643   5.286 -0.0041  0.1962  0.1172
  992MOL0     C36770   0.633   6.788   5.296  0.1907 -0.1651  0.2239
  992MOL0     C36771   0.750   6.879   5.316 -0.5356  0.5222  0.6440
  992MOL0     C36772   0.721   7.024   5.321  0.8424  0.2143 -0.3694
  992MOL0     C36773   0.648   7.102   5.210  0.8417 -1.2343 -0.5275
  992MOL0     C36774   0.680   7.261   5.215 -0.1735 -0.2715  0.4778
  992MOL0     N36775   0.578   7.338   5.134 -0.9973 -0.0487  0.0176
  992MOL0     C36776   0.473   7.399   5.192  0.5056 -0.0673  0.6855
  992MOL0     C36777   0.433   7.486   5.095 -1.0232  0.5425 -0.8839
  992MOL0     C36778   0.320   7.574   5.122  0.4544 -0.2379 -0.5583
  992MOL0     C36779   0.178   7.511   5.075 -0.0264 -0.1567  0.1593
  992MOL0     C36780   0.154   7.368   5.132 -1.4688 -0.6706  0.3624
  992MOL0     C36781   0.025   7.322   5.085  0.6075 -0.1501  0.3298
  992MOL0     O36782  -0.085   7.391   5.148 -0.7366 -0.6279 -0.7020
  992MOL0     C36783  -0.206   7.332   5.116  0.4150 -0.8989  0.8507
  992MOL0     C36784  -0.299   7.393   5.032 -0.1559  0.4213  0.0136
  992MOL0     C36785  -0.431   7.350   5.021 -1.0102  0.3937 -0.3481
  992MOL0     C36786  -0.516   7.433   4.933 -0.3898 -0.0067  1.0091
  992MOL0     C36787  -0.468   7.222   5.076 -0.8084 -0.8224 -0.7047
  992MOL0     C36788  -0.606   7.169   5.054  0.2978 -0.7368 -0.0462
  992MOL0     O36789  -0.630   7.060   5.134 -0.0173  0.1357  0.5593
  992MOL0     C36790  -0.738   6.991   5.150  0.4469 -0.2156  0.1654
  992MOL0     C36791  -0.869   7.024   5.092 -0.5284 -0.3278  0.2756
  992MOL0     C36792  -0.971   6.939   5.098  0.6371  0.4240  1.0108
  992MOL0     C36793  -0.952   6.812   5.148  0.7091 -0.7969 -0.5815
  992MOL0     O36794  -1.061   6.730   5.143 -0.3715  0.2375  0.4574
  992MOL0     C36795  -1.050   6.585   5.150 -0.2039 -0.9919  0.0407
  992MOL0     C36796  -1.057   6.544   5.297  0.8360  0.2436 -0.4041
  992MOL0     C36797  -1.199   6.527   5.355  0.5110 -0.5273 -0.6537
  992MOL0     C36798  -1.268   6.405   5.294 -0.0125 -0.3138  0.8601
  992MOL0     C36799  -1.379   6.342   5.378  0.8629  0.1816 -0.6508
  992MOL0     C36800  -1.406   6.200   5.315  0.0783  0.7735 -0.2372
  992MOL0     C36801  -1.512   6.212   5.202 -1.2383  0.1201 -0.6337
  992MOL0     C36802  -1.655   6.245   5.255 -0.3319  0.7908 -0.2644
  992MOL0    Cl36803  -1.796   6.258   5.135  0.6275  0.0679  0.2092
  992MOL0     C36804  -0.832   6.778   5.205 -0.5799  0.2903  0.5122
  992MOL0     C36805  -0.727   6.863   5.207 -0.1793  0.4129 -0.4052
  992MOL0     O36806  -0.681   7.206   4.962 -1.0700  0.4562  0.3964
  992MOL0     C36807  -0.379   7.161   5.167 -0.0007 -0.6751  0.3222
  992MOL0     C36808  -0.256   7.220   5.190  0.1685 -0.1504 -0.0789
  992MOL0     N36809   0.513   7.478   4.988  0.0916 -0.5992  0.9943
  992MOL0     N36810   0.600   7.385   5.007  0.5954 -0.0645 -0.4853
  992MOL0     C36811   0.658   6.629   5.866 -0.1968 -0.5541 -0.4910
  992MOL0     C36812   0.566   6.632   5.976  0.0990  0.2490 -0.0981
  992MOL0     C36813   0.172   6.482   6.215 -0.4205  0.2053  0.3602
  992MOL0     C36814   0.027   6.491   6.225 -1.7838  0.8947  0.7000
  992MOL0     C36815  -0.039   6.461   6.342 -0.0853  0.1305 -0.9530
  992MOL0     C36816   0.032   6.415   6.456  0.3673  0.0178  0.0313
  992MOL0     O36817  -0.053   6.382   6.559  0.2628  0.7139 -0.5238
  992MOL0     C36818  -0.014   6.276   6.644 -0.3953  0.1989 -0.3205
  992MOL0     C36819   0.018   6.142   6.576  0.4263 -0.4601 -0.8476
  992MOL0     C36820   0.056   6.032   6.679  0.3356 -0.2852  0.0489
  992MOL0     C36821   0.093   5.903   6.598  0.3361 -0.1385  0.3586
  992MOL0     C36822  -0.030   5.837   6.553  0.0921  0.4629  0.2637
  992MOL0     C36823  -0.123   5.782   6.503  0.1885  0.4633 -0.6744
  992MOL0     C36824   0.176   6.415   6.448 -0.5248  0.0569  0.0714
  992MOL0     C36825   0.247   6.448   6.330  0.7710  0.0904 -1.1181
  992MOL0     C36826   0.388   6.424   6.334 -0.5365 -1.3161 -0.5207
  992MOL0     H36827   0.346   6.412   5.897 -0.2554  1.5883  1.4440
  992MOL0     H36828   0.475   6.400   5.682  4.3450  0.9531 -2.1523
  992MOL0     H36829   0.576   6.661   5.528 -2.6257 -1.4188  0.5541
  992MOL0     H36830   0.555   6.483   5.496 -2.4802  2.0765 -0.8443
  992MOL0     H36831   0.815   6.650   5.443 -1.0644 -0.1250  0.9092
  992MOL0     H36832   0.778   6.478   5.390 -1.9516 -0.9256  0.4908
  992MOL0     H36833   0.752   6.633   5.208  1.1241 -1.2307  1.3305
  992MOL0     H36834   0.605   6.565   5.259  1.1042 -0.4277 -1.1593
  992MOL0     H36835   0.574   6.818   5.209  1.7060  3.0759  0.1606
  992MOL0     H36836   0.567   6.797   5.383 -0.1100 -3.3656  0.4465
  992MOL0     H36837   0.816   6.860   5.231 -0.4023  0.0561  0.8486
  992MOL0     H36838   0.806   6.849   5.405  1.5128  0.4799 -0.6027
  992MOL0     H36839   0.665   7.041   5.413  1.3443  0.5352 -0.1184
  992MOL0     H36840   0.810   7.087   5.331  0.8713  0.2859 -1.0437
  992MOL0     H36841   0.544   7.072   5.222  0.1760  0.8605 -0.6892
  992MOL0     H36842   0.686   7.054   5.120 -1.7637  2.3179 -3.8496
  992MOL0     H36843   0.670   7.293   5.319 -1.2671 -1.5208  0.7755
  992MOL0     H36844   0.773   7.286   5.162 -0.4155  1.6934  0.9091
  992MOL0     H36845   0.438   7.392   5.294 -0.3025 -0.6446  0.3805
  992MOL0     H36846   0.333   7.667   5.065 -3.5626  0.4802 -0.5695
  992MOL0     H36847   0.316   7.595   5.229 -0.4223 -1.5774 -0.3058
  992MOL0     H36848   0.102   7.583   5.108  0.1617  0.4851 -0.7771
  992MOL0     H36849   0.177   7.503   4.966 -3.0741  1.1776 -0.0157
  992MOL0     H36850   0.229   7.309   5.078  0.1335 -0.2771  2.0537
  992MOL0     H36851   0.163   7.366   5.241 -0.7284  1.2943  0.3750
  992MOL0     H36852   0.019   7.340   4.978 -1.6855  0.7997  0.5642
  992MOL0     H36853   0.008   7.214   5.089 -0.5481 -0.0316 -0.9263
  992MOL0     H36854  -0.269   7.485   4.983 -0.1341 -0.0483 -0.8695
  992MOL0     H36855  -0.566   7.373   4.856 -1.0826 -0.8438  2.0881
  992MOL0     H36856  -0.456   7.505   4.876 -0.5653 -0.7532 -0.1685
  992MOL0     H36857  -0.587   7.496   4.988  0.4727  1.0054  1.0051
  992MOL0     H36858  -0.890   7.113   5.034 -2.1407  0.2662  1.6900
  992MOL0     H36859  -1.067   6.957   5.050  0.9122 -1.5045 -0.3535
  992MOL0     H36860  -1.134   6.540   5.097 -0.1986  0.7337 -1.5335
  992MOL0     H36861  -0.962   6.545   5.099 -1.0314 -1.2929 -1.1960
  992MOL0     H36862  -0.998   6.453   5.307  0.7125 -0.1906 -2.8584
  992MOL0     H36863  -1.003   6.617   5.358  0.8448  1.2981 -1.6307
  992MOL0     H36864  -1.269   6.609   5.338 -0.7281 -1.6929 -1.3222
  992MOL0     H36865  -1.196   6.521   5.465 -2.0082 -0.8185 -0.5385
  992MOL0     H36866  -1.193   6.327   5.275 -1.4827 -1.4116 -0.7099
  992MOL0     H36867  -1.306   6.439   5.197 -0.7884  0.7620  1.5229
  992MOL0     H36868  -1.335   6.324   5.476  0.0036  1.0516 -0.0824
  992MOL0     H36869  -1.471   6.401   5.380  1.9126  2.1230 -3.7094
  992MOL0     H36870  -1.443   6.141   5.400  0.0217  1.8373  0.5024
  992MOL0     H36871  -1.320   6.155   5.265 -1.8996 -1.1761 -2.0899
  992MOL0     H36872  -1.496   6.115   5.152  3.1150  1.7269 -2.8441
  992MOL0     H36873  -1.489   6.286   5.125  0.4251  1.3105  0.9329
  992MOL0     H36874  -1.652   6.345   5.299  0.7513 -0.4887  2.8664
  992MOL0     H36875  -1.688   6.170   5.328  0.3115  0.5877 -0.1746
  992MOL0     H36876  -0.809   6.681   5.248 -0.0580 -0.0543 -0.5096
  992MOL0     H36877  -0.640   6.836   5.265 -0.8972 -1.3616 -0.0807
  992MOL0     H36878  -0.418   7.079   5.226 -3.5976  0.4533 -0.2137
  992MOL0     H36879  -0.196   7.177   5.269 -1.8534  0.5500  1.9562
  992MOL0     H36880   0.748   6.688   5.876 -1.4456  1.3366  0.0922
  992MOL0     H36881   0.587   6.699   6.058  2.5424 -2.0332  1.2635
  992MOL0     H36882  -0.022   6.526   6.135  4.3301  2.7871 -2.4485
  992MOL0     H36883  -0.146   6.476   6.337  0.0858  1.0373 -2.5825
  992MOL0     H36884   0.074   6.300   6.704  0.7245  1.3563 -2.3393
  992MOL0     H36885  -0.092   6.268   6.721  0.0486  0.3390  0.1476
  992MOL0     H36886   0.098   6.154   6.502 -0.8643 -0.2650 -2.2549
  992MOL0     H36887  -0.071   6.119   6.516  0.7740 -1.7431 -0.9078
  992MOL0     H36888   0.141   6.067   6.739 -1.3371 -1.5288  3.4528
  992MOL0     H36889  -0.027   6.011   6.748 -0.2377  0.8970 -0.2554
  992MOL0     H36890   0.133   5.824   6.662 -3.2425 -4.2672 -1.9825
  992MOL0     H36891   0.168   5.921   6.519  0.9970 -2.1724  0.4743
  992MOL0     H36892  -0.209   5.735   6.462 -0.0026  0.1587  0.0483
  992MOL0     H36893   0.225   6.369   6.534 -2.3156 -0.3395  0.9234
  992MOL0     H36894   0.415   6.362   6.248  0.0265 -0.5757 -0.8989
  992MOL0     H36895   0.435   6.523   6.336  0.4086 -1.7366  2.0272
  992MOL0     H36896   0.431   6.384   6.426  0.9281  0.7577 -0.2113
  993MOL0     O36897   4.816   4.882   1.193  0.1422  1.0227 -0.0584
  993MOL0     C36898   4.772   4.984   1.244  1.0006 -0.6158  0.1485
  993MOL0     O36899   4.830   5.046   1.355 -0.5253 -0.6197 -0.1032
  993MOL0     C36900   4.962   5.023   1.368  0.4456 -0.4986  0.4462
  993MOL0     C36901   5.015   4.912   1.444  0.4111 -0.5740  0.3538
  993MOL0     C36902   5.142   4.916   1.498 -0.3465  0.4655 -0.1241
  993MOL0     C36903   5.239   5.000   1.441 -0.3351 -0.0658  0.5499
  993MOL0     O36904   5.362   4.979   1.494  0.3198  0.7822  0.0391
  993MOL0     C36905   5.459   5.084   1.475  0.2997 -0.7350  0.2502
  993MOL0     C36906   5.533   5.060   1.345 -0.3247  0.1460  0.0542
  993MOL0     C36907   5.614   5.185   1.308  0.9758  0.4343  0.1360
  993MOL0     C36908   5.657   5.169   1.165 -0.4768 -0.5146  1.0428
  993MOL0     C36909   5.545   5.188   1.059 -0.1095  0.5056  0.1275
  993MOL0     C36910   5.446   5.301   1.071 -0.0505 -0.1092 -0.0840
  993MOL0     C36911   5.358   5.309   0.946 -0.7015  0.7116 -0.1618
  993MOL0     C36912   5.269   5.181   0.933  0.6858 -0.2606  0.7395
  993MOL0     N36913   5.149   5.219   0.855  0.0602 -1.0618 -0.3817
  993MOL0     C36914   5.150   5.220   0.719  0.0993  0.4591  0.7512
  993MOL0     C36915   5.019   5.223   0.676  0.1033 -0.5110  0.3301
  993MOL0     C36916   4.990   5.227   0.531 -0.4972  0.3307  0.0814
  993MOL0     C36917   4.891   5.342   0.514 -0.1789 -0.1045 -0.6717
  993MOL0     C36918   4.891   5.369   0.365  0.0189 -0.4158 -0.5852
  993MOL0     C36919   4.770   5.461   0.327 -0.4221  0.2462 -0.3474
  993MOL0     O36920   4.782   5.483   0.184 -0.2392 -0.6736  0.0616
  993MOL0     C36921   4.708   5.569   0.119  0.6394 -0.0689 -0.2610
  993MOL0     C36922   4.753   5.623   0.001  0.4515  0.0104  0.8793
  993MOL0     C36923   4.676   5.725  -0.066  0.0286 -0.3743 -0.2408
  993MOL0     C36924   4.728   5.774  -0.198  0.5452 -0.1448  0.3737
  993MOL0     C36925   4.556   5.778  -0.008 -0.6063 -0.1170  0.2781
  993MOL0     C36926   4.471   5.886  -0.062  0.6061 -0.9904 -0.4254
  993MOL0     O36927   4.479   5.935  -0.187  0.0427  0.2153 -0.1107
  993MOL0     C36928   4.387   6.034  -0.218  0.6910 -0.5934  0.7874
  993MOL0     C36929   4.258   6.000  -0.260 -0.0571 -0.9058 -0.7083
  993MOL0     C36930   4.176   6.095  -0.302  0.4126 -0.1637 -0.1856
  993MOL0     C36931   4.210   6.232  -0.299  0.4427  0.3356 -0.9727
  993MOL0     O36932   4.124   6.326  -0.328 -0.5818 -0.7381  0.1482
  993MOL0     C36933   4.031   6.357  -0.220 -1.2452 -0.1477  0.7023
  993MOL0     C36934   3.910   6.415  -0.274  0.1260  0.4824  0.5779
  993MOL0     C36935   3.828   6.292  -0.331  0.0588 -0.2711 -0.1476
  993MOL0     C36936   3.780   6.324  -0.471 -0.6252 -0.5442 -0.1590
  993MOL0     C36937   3.707   6.203  -0.539 -0.7906  0.1535 -0.0045
  993MOL0     C36938   3.705   6.205  -0.694 -0.1077  0.9688  0.0475
  993MOL0     C36939   3.836   6.192  -0.765  0.3787 -0.1429 -0.1085
  993MOL0     C36940   3.885   6.044  -0.762  0.1680  0.5191 -0.0532
  993MOL0    Cl36941   4.037   6.031  -0.849 -0.1947  0.0600 -0.0227
  993MOL0     C36942   4.341   6.273  -0.267  0.2400  0.8371  0.7419
  993MOL0     C36943   4.426   6.168  -0.232 -0.1114  0.8383 -0.1996
  993MOL0     O36944   4.383   5.933   0.020 -0.0466 -0.4756  0.8547
  993MOL0     C36945   4.511   5.719   0.114 -0.3479 -0.6933 -0.8588
  993MOL0     C36946   4.588   5.615   0.174  0.5146 -0.4123  1.0931
  993MOL0     N36947   4.941   5.238   0.799 -0.2982  0.0888  0.0065
  993MOL0     N36948   5.022   5.232   0.896  0.6276  0.0552  0.5332
  993MOL0     C36949   5.192   5.094   1.345 -0.5529 -0.4655 -0.0388
  993MOL0     C36950   5.057   5.120   1.319 -0.0024  0.6084 -1.1854
  993MOL0     C36951   4.664   5.068   1.184 -0.8243  0.6274 -0.1591
  993MOL0     C36952   4.573   5.131   1.269 -0.7851  0.3600 -0.6603
  993MOL0     C36953   4.464   5.200   1.217  0.6827 -0.2160  0.2197
  993MOL0     C36954   4.431   5.216   1.081  0.4645 -0.5417 -0.1690
  993MOL0     O36955   4.305   5.260   1.057 -0.2217 -1.3318  0.8726
  993MOL0     C36956   4.309   5.378   0.971 -0.2633  0.1846 -1.1397
  993MOL0     C36957   4.170   5.367   0.907 -0.3001 -0.9501  0.5289
  993MOL0     C36958   4.151   5.466   0.791  0.8769 -1.1461  0.2317
  993MOL0     C36959   4.003   5.464   0.741  0.3422 -0.4422 -0.1858
  993MOL0     C36960   3.985   5.568   0.633 -0.0753  0.3443  0.5339
  993MOL0     C36961   3.983   5.660   0.558  0.6477 -0.4038 -0.3527
  993MOL0     C36962   4.514   5.152   0.996  0.6454  1.2734  0.2210
  993MOL0     C36963   4.629   5.085   1.044 -0.3107 -0.2326 -0.9101
  993MOL0     C36964   4.725   5.017   0.950  0.2993 -0.4446  0.0229
  993MOL0     H36965   4.950   4.833   1.481  0.7912 -1.7467 -1.3770
  993MOL0     H36966   5.178   4.841   1.568 -4.6259 -0.5936  1.2409
  993MOL0     H36967   5.527   5.092   1.560  0.4906 -0.6779  0.0925
  993MOL0     H36968   5.407   5.179   1.464 -2.4467 -2.1849 -0.4079
  993MOL0     H36969   5.600   4.974   1.357  1.9965  1.6473 -1.3029
  993MOL0     H36970   5.454   5.046   1.271 -2.6560  2.1605  1.9781
  993MOL0     H36971   5.552   5.274   1.299  3.0966  1.9198 -0.3676
  993MOL0     H36972   5.701   5.192   1.374 -0.1721  1.3290  1.5950
  993MOL0     H36973   5.726   5.253   1.152 -3.2124  1.8674  0.9444
  993MOL0     H36974   5.715   5.080   1.142  1.9769  1.1251  0.5042
  993MOL0     H36975   5.494   5.092   1.046 -1.0752  1.2283 -1.8845
  993MOL0     H36976   5.599   5.217   0.968  3.2398  1.9725  2.3757
  993MOL0     H36977   5.391   5.296   1.165 -1.0227 -0.7745 -0.6768
  993MOL0     H36978   5.500   5.396   1.080  2.0006 -1.2618  0.3893
  993MOL0     H36979   5.415   5.305   0.852  1.1234  1.6711  0.8557
  993MOL0     H36980   5.308   5.406   0.947 -1.0467  0.5352  0.7122
  993MOL0     H36981   5.314   5.090   0.894 -0.8984 -1.1856  0.9688
  993MOL0     H36982   5.229   5.161   1.033 -1.4273  1.7988  0.4062
  993MOL0     H36983   5.238   5.208   0.657 -0.8520  0.8085 -0.7464
  993MOL0     H36984   4.942   5.135   0.496  2.8260 -0.7027 -2.2334
  993MOL0     H36985   5.081   5.233   0.471  1.0428 -1.6127  2.0790
  993MOL0     H36986   4.791   5.318   0.551 -1.0232  1.6034 -1.7431
  993MOL0     H36987   4.924   5.429   0.572 -0.5405 -1.7317  2.1618
  993MOL0     H36988   4.986   5.421   0.351  2.3325 -3.2859  2.7365
  993MOL0     H36989   4.900   5.276   0.308  2.9898 -1.7720  1.8340
  993MOL0     H36990   4.679   5.405   0.346  0.3405 -2.3265 -3.4294
  993MOL0     H36991   4.762   5.553   0.386 -1.6723 -1.1562  1.8063
  993MOL0     H36992   4.851   5.596  -0.038 -0.7735  1.3067 -3.7284
  993MOL0     H36993   4.656   5.764  -0.280  1.0030  1.3443 -0.2568
  993MOL0     H36994   4.820   5.721  -0.225 -0.7751 -0.4814 -4.5496
  993MOL0     H36995   4.744   5.882  -0.203 -3.1912  0.7557  3.4063
  993MOL0     H36996   4.236   5.895  -0.248  0.1285 -1.1973 -2.6688
  993MOL0     H36997   4.078   6.085  -0.348  0.2681  1.4571 -0.2898
  993MOL0     H36998   4.011   6.269  -0.159  0.0488 -0.0097  1.3731
  993MOL0     H36999   4.075   6.422  -0.144 -0.7260 -0.7608  0.9422
  993MOL0     H37000   3.852   6.454  -0.189 -1.7496 -2.1776  0.6400
  993MOL0     H37001   3.935   6.496  -0.343  2.0140  0.2023  0.8827
  993MOL0     H37002   3.735   6.284  -0.274  0.2914  0.0285  0.2794
  993MOL0     H37003   3.883   6.198  -0.329  0.5521 -0.0134 -0.9853
  993MOL0     H37004   3.864   6.349  -0.536  0.8644  1.5452  2.3824
  993MOL0     H37005   3.708   6.406  -0.463 -1.4203 -1.3142  0.9346
  993MOL0     H37006   3.756   6.110  -0.509  0.8730  0.7837 -0.6347
  993MOL0     H37007   3.602   6.193  -0.512 -1.0834 -2.5408 -1.8497
  993MOL0     H37008   3.664   6.300  -0.729 -0.5036  0.1159 -1.9451
  993MOL0     H37009   3.643   6.120  -0.723  0.0168  0.7041  0.5429
  993MOL0     H37010   3.908   6.254  -0.711 -0.8589 -0.9838  2.7020
  993MOL0     H37011   3.825   6.238  -0.864  1.9090 -1.1345 -0.7786
  993MOL0     H37012   3.817   5.979  -0.818  1.5425  0.0230 -1.2065
  993MOL0     H37013   3.894   6.006  -0.660  1.5000  0.7406 -0.0727
  993MOL0     H37014   4.368   6.374  -0.294  3.4443 -0.4277 -1.4078
  993MOL0     H37015   4.527   6.202  -0.215  0.0331  0.5292 -0.4432
  993MOL0     H37016   4.429   5.759   0.173 -1.0121 -0.2340 -2.0606
  993MOL0     H37017   4.553   5.586   0.272 -3.2897  1.1068  0.3612
  993MOL0     H37018   5.262   5.162   1.297  0.2874 -0.3257  1.3345
  993MOL0     H37019   5.030   5.204   1.256  0.2324 -0.1331 -2.3012
  993MOL0     H37020   4.605   5.112   1.371  1.2821  2.3740 -0.8610
  993MOL0     H37021   4.394   5.235   1.292  1.5906  2.2451  0.0243
  993MOL0     H37022   4.325   5.470   1.028  1.2056 -0.3818 -0.5995
  993MOL0     H37023   4.386   5.378   0.893  2.4855 -0.0674  1.4296
  993MOL0     H37024   4.095   5.379   0.986  1.2099  1.2831  1.7405
  993MOL0     H37025   4.164   5.270   0.856  3.4376  0.6382 -3.5457
  993MOL0     H37026   4.178   5.568   0.817  0.0216  0.2075 -3.6498
  993MOL0     H37027   4.212   5.427   0.709  0.2343 -0.7560 -0.4384
  993MOL0     H37028   3.940   5.490   0.827 -0.5890 -0.9966 -0.6823
  993MOL0     H37029   3.973   5.365   0.706 -2.3052  0.1789  0.0959
  993MOL0     H37030   3.985   5.737   0.483  0.6279 -0.0374  0.0185
  993MOL0     H37031   4.485   5.148   0.891 -2.1862 -0.2574  0.9522
  993MOL0     H37032   4.720   5.073   0.856  2.1664 -0.9971 -0.4546
  993MOL0     H37033   4.828   5.027   0.986 -0.4179  1.3100  1.7286
  993MOL0     H37034   4.705   4.912   0.925 -2.6782  0.3867 -1.5476
  994MOL0     O37035   2.546   9.789   6.655  0.2164  0.1002  0.2707
  994MOL0     C37036   2.645   9.728   6.696  0.7143 -0.3876  0.4849
  994MOL0     O37037   2.701   9.625   6.646  0.0176  0.4458 -0.6172
  994MOL0     C37038   2.661   9.564   6.530  0.0736 -0.1660  0.0997
  994MOL0     C37039   2.624   9.640   6.418 -0.5867 -0.7478 -0.1544
  994MOL0     C37040   2.611   9.582   6.289  0.0550  0.9852  0.0507
  994MOL0     C37041   2.612   9.449   6.274  0.7714 -0.0975 -0.0012
  994MOL0     O37042   2.583   9.383   6.159 -0.0218  0.6408 -0.1468
  994MOL0     C37043   2.693   9.369   6.072 -0.2900 -0.4352 -0.4215
  994MOL0     C37044   2.644   9.362   5.925 -1.4164 -0.5837 -0.8988
  994MOL0     C37045   2.549   9.467   5.873  0.4045  0.7949  0.7015
  994MOL0     C37046   2.441   9.412   5.781 -0.6239 -0.4564 -0.1170
  994MOL0     C37047   2.344   9.507   5.708 -0.6971  0.1119  0.4574
  994MOL0     C37048   2.234   9.431   5.636 -0.0847  0.8905 -0.2104
  994MOL0     C37049   2.138   9.524   5.563  0.2768 -0.3296  0.8094
  994MOL0     C37050   2.205   9.590   5.447  0.0279  0.0157  0.1939
  994MOL0     N37051   2.204   9.743   5.466  0.0693 -0.0277 -0.2434
  994MOL0     C37052   2.289   9.814   5.550  0.1803 -0.3936  0.5854
  994MOL0     C37053   2.253   9.952   5.541 -0.1979 -1.0499  0.3133
  994MOL0     C37054   2.320  10.068   5.609  0.3653  0.9387 -0.4119
  994MOL0     C37055   2.461  10.079   5.549 -0.2297  0.5654  0.4484
  994MOL0     C37056   2.526  10.202   5.596  0.2314 -1.3013  0.6997
  994MOL0     C37057   2.495  10.316   5.508  0.7490 -0.1483 -1.2836
  994MOL0     O37058   2.505  10.448   5.575  0.4390  0.0279 -0.2910
  994MOL0     C37059   2.539  10.561   5.504 -1.1631  0.4949  0.5651
  994MOL0     C37060   2.575  10.669   5.579  0.7096 -0.2746  0.2234
  994MOL0     C37061   2.593  10.795   5.525  0.1102  0.1887  0.3083
  994MOL0     C37062   2.634  10.904   5.630 -0.4656 -0.4219  0.3683
  994MOL0     C37063   2.590  10.815   5.386  0.4635  0.1694  0.5279
  994MOL0     C37064   2.646  10.930   5.317 -0.1808  0.9041  0.5706
  994MOL0     O37065   2.678  10.910   5.185 -0.9860 -0.1754  0.6128
  994MOL0     C37066   2.748  11.005   5.115 -0.5603 -0.0652 -0.2792
  994MOL0     C37067   2.736  11.147   5.129 -0.8245 -0.0105  0.2086
  994MOL0     C37068   2.798  11.232   5.046 -0.7189 -0.3491  0.2614
  994MOL0     C37069   2.884  11.187   4.944 -0.6036  0.0993  0.2815
  994MOL0     O37070   2.940  11.281   4.865  0.2713  0.0221  0.1393
  994MOL0     C37071   3.078  11.274   4.849  0.2813  0.0199 -0.7893
  994MOL0     C37072   3.112  11.398   4.784 -0.4034  0.5895  0.7107
  994MOL0     C37073   3.078  11.404   4.629 -0.4064 -0.2833 -0.5203
  994MOL0     C37074   2.939  11.358   4.584  0.3368 -0.5006 -0.8851
  994MOL0     C37075   2.903  11.373   4.443  0.0402 -0.0251  0.5522
  994MOL0     C37076   2.828  11.505   4.398 -0.1821 -0.8508  0.2882
  994MOL0     C37077   2.769  11.490   4.261  0.3283 -0.5065 -1.2660
  994MOL0     C37078   2.877  11.472   4.149 -0.2557 -0.6065  0.4886
  994MOL0    Cl37079   2.792  11.420   4.007  0.4095 -0.3604 -0.2285
  994MOL0     C37080   2.913  11.050   4.934  0.9844  0.0705  0.3696
  994MOL0     C37081   2.845  10.959   5.021  0.0034  0.0858  0.6029
  994MOL0     O37082   2.645  11.036   5.375  0.0258  0.2588 -0.8025
  994MOL0     C37083   2.547  10.700   5.305  0.4640  0.2404  0.2442
  994MOL0     C37084   2.521  10.577   5.361  0.4381  0.3550 -0.1678
  994MOL0     N37085   2.143   9.950   5.458 -0.7429  0.2761 -0.5243
  994MOL0     N37086   2.124   9.834   5.406  0.0811 -0.9702  0.5467
  994MOL0     C37087   2.626   9.370   6.398 -0.0275 -0.6056 -0.3707
  994MOL0     C37088   2.662   9.427   6.522  1.5334  0.4629 -0.1688
  994MOL0     C37089   2.723   9.787   6.805  0.1121 -0.1236 -0.3513
  994MOL0     C37090   2.842   9.725   6.849 -0.1519 -0.2400 -0.4771
  994MOL0     C37091   2.910   9.781   6.964  0.2244  0.4372  0.6623
  994MOL0     C37092   2.864   9.883   7.033  0.1976  0.5044  0.3956
  994MOL0     O37093   2.929   9.934   7.143 -0.5137 -0.5259 -0.7068
  994MOL0     C37094   3.041   9.866   7.212 -0.2242  0.4617 -0.6910
  994MOL0     C37095   3.113   9.915   7.339  0.4365  0.8357 -0.2268
  994MOL0     C37096   3.158  10.058   7.323 -0.1270  1.0336  0.3801
  994MOL0     C37097   3.229  10.122   7.444 -0.2842  0.2162  0.6968
  994MOL0     C37098   3.262  10.266   7.425  0.6891 -0.9117 -0.0657
  994MOL0     C37099   3.288  10.376   7.379 -0.0341  0.1423 -0.3019
  994MOL0     C37100   2.751   9.947   6.989  0.1023 -0.1647  1.1880
  994MOL0     C37101   2.678   9.905   6.875 -0.5013  0.6138  0.0940
  994MOL0     C37102   2.568   9.994   6.845  0.1374  0.1534  0.5227
  994MOL0     H37103   2.635   9.748   6.424  3.6502 -1.0598  1.1557
  994MOL0     H37104   2.588   9.641   6.201  0.6137 -2.3904 -2.5457
  994MOL0     H37105   2.749   9.276   6.085  2.0682  0.8030 -1.0635
  994MOL0     H37106   2.771   9.444   6.085 -1.0827  0.7894 -2.2521
  994MOL0     H37107   2.736   9.376   5.866 -0.5226 -1.9694  0.1034
  994MOL0     H37108   2.603   9.263   5.902 -1.0107 -1.0761  0.4025
  994MOL0     H37109   2.500   9.524   5.953 -2.3669  1.4472 -1.3357
  994MOL0     H37110   2.617   9.532   5.817  1.3685  0.6386  1.6354
  994MOL0     H37111   2.478   9.345   5.703 -1.3308  1.7336 -2.4529
  994MOL0     H37112   2.382   9.352   5.851  1.1774 -1.3366  0.7040
  994MOL0     H37113   2.403   9.573   5.643 -0.8821 -0.8708 -0.7395
  994MOL0     H37114   2.302   9.574   5.783  0.4302 -1.4737  2.6300
  994MOL0     H37115   2.277   9.352   5.573 -0.2961  1.1059 -0.6262
  994MOL0     H37116   2.180   9.379   5.716  0.5759 -0.0871 -0.3849
  994MOL0     H37117   2.094   9.597   5.632  0.1820  1.7514 -1.3269
  994MOL0     H37118   2.068   9.459   5.511  0.2651  2.1741 -2.6471
  994MOL0     H37119   2.306   9.555   5.427  0.1001  0.7506 -0.7771
  994MOL0     H37120   2.149   9.570   5.355 -0.4799  0.6792  0.3432
  994MOL0     H37121   2.376   9.778   5.604 -0.3441 -0.3416  1.4835
  994MOL0     H37122   2.316  10.054   5.717 -1.1684  0.7100 -0.4724
  994MOL0     H37123   2.264  10.160   5.590  1.8557  2.0967  0.5619
  994MOL0     H37124   2.513   9.986   5.574 -2.7638 -1.2219 -0.4496
  994MOL0     H37125   2.469  10.075   5.440 -1.3078  1.8182  0.3035
  994MOL0     H37126   2.484  10.217   5.695 -2.9353 -1.2722 -0.5511
  994MOL0     H37127   2.635  10.193   5.602  0.3363 -2.4785 -1.6958
  994MOL0     H37128   2.554  10.321   5.416  0.9216 -0.8852 -1.2216
  994MOL0     H37129   2.389  10.308   5.484  1.0149 -4.0361 -1.7950
  994MOL0     H37130   2.591  10.668   5.686 -0.7214  0.2688  0.4637
  994MOL0     H37131   2.618  10.874   5.734 -2.1886  0.3592  0.3664
  994MOL0     H37132   2.565  10.987   5.612  0.4417  0.8172  2.3308
  994MOL0     H37133   2.735  10.941   5.609 -1.2075  0.2885 -2.3608
  994MOL0     H37134   2.653  11.175   5.193 -0.5617  1.3558 -0.0206
  994MOL0     H37135   2.765  11.335   5.053 -0.5803 -0.4207  2.3316
  994MOL0     H37136   3.138  11.260   4.940  2.1465  2.1134 -1.6047
  994MOL0     H37137   3.101  11.188   4.785  1.7587 -0.1651 -0.0652
  994MOL0     H37138   3.067  11.488   4.828 -2.0841 -0.7808  1.9553
  994MOL0     H37139   3.221  11.403   4.789 -0.4104  0.4362  1.1020
  994MOL0     H37140   3.155  11.342   4.583 -0.8997 -2.8190  1.7894
  994MOL0     H37141   3.092  11.508   4.598  0.3958  0.5370  2.3819
  994MOL0     H37142   2.862  11.414   4.638  1.0705 -1.8360  1.7491
  994MOL0     H37143   2.932  11.251   4.606  1.1596 -0.2728  0.6706
  994MOL0     H37144   2.994  11.350   4.387 -0.7254 -1.4571 -0.1647
  994MOL0     H37145   2.832  11.300   4.404  0.1226  0.2666 -0.1674
  994MOL0     H37146   2.897  11.589   4.397  0.1727 -1.1427 -0.5367
  994MOL0     H37147   2.743  11.523   4.465 -3.7348  1.1647 -4.1852
  994MOL0     H37148   2.714  11.583   4.248  0.7954  0.4612  2.5326
  994MOL0     H37149   2.698  11.407   4.253 -0.9884  0.5692 -1.1447
  994MOL0     H37150   2.956  11.396   4.154 -0.7167 -1.9583 -5.4968
  994MOL0     H37151   2.927  11.564   4.119  0.6216 -1.4965 -0.9062
  994MOL0     H37152   2.979  11.007   4.859  1.4478  0.9785  0.2541
  994MOL0     H37153   2.855  10.851   5.016 -0.5869  0.0839 -1.8970
  994MOL0     H37154   2.523  10.709   5.199 -4.2233 -1.9794  0.8878
  994MOL0     H37155   2.482  10.499   5.296  1.4232 -0.8013  0.5873
  994MOL0     H37156   2.619   9.262   6.388  1.4592 -0.6444 -1.3986
  994MOL0     H37157   2.681   9.356   6.602 -0.1622 -1.4260 -1.3400
  994MOL0     H37158   2.876   9.631   6.806  0.7077  0.4986 -1.4690
  994MOL0     H37159   2.995   9.722   7.000 -0.4793 -0.9420  0.1123
  994MOL0     H37160   3.018   9.763   7.241 -2.8933  0.9050 -0.9883
  994MOL0     H37161   3.120   9.855   7.137  2.2712 -1.8322  2.0257
  994MOL0     H37162   3.203   9.860   7.369  0.2779  0.3087 -0.6996
  994MOL0     H37163   3.050   9.896   7.426 -2.4155  0.5144 -2.2241
  994MOL0     H37164   3.238  10.071   7.249  3.8791  2.0308  4.4186
  994MOL0     H37165   3.078  10.130   7.306 -1.1363 -0.2963 -0.7173
  994MOL0     H37166   3.324  10.069   7.456 -0.5603 -0.3194  0.5471
  994MOL0     H37167   3.177  10.092   7.535  1.3328 -1.5418  1.0981
  994MOL0     H37168   3.319  10.476   7.356  0.7095  0.2686  1.1494
  994MOL0     H37169   2.726  10.037   7.043 -3.3638  2.0383 -3.4093
  994MOL0     H37170   2.587  10.050   6.753 -1.6657 -0.2905 -0.1550
  994MOL0     H37171   2.478   9.935   6.829 -0.4724  1.6986 -2.6793
  994MOL0     H37172   2.545  10.056   6.932  1.0445  0.0280  0.8643
  995MOL0     O37173   0.732   3.994   0.447 -0.7950  0.3051 -0.5695
  995MOL0     C37174   0.623   3.976   0.402 -0.4499  0.3063  0.5185
  995MOL0     O37175   0.599   3.944   0.271 -0.0738  0.6322  0.8718
  995MOL0     C37176   0.708   3.907   0.205  1.0391 -0.6450  0.0584
  995MOL0     C37177   0.756   3.770   0.216 -0.2371  0.0139 -0.1169
  995MOL0     C37178   0.863   3.724   0.138  0.2150 -0.1816 -0.3068
  995MOL0     C37179   0.940   3.819   0.066 -0.2620  1.3231  0.3603
  995MOL0     O37180   1.050   3.762   0.011 -0.1246 -0.7411  0.1241
  995MOL0     C37181   1.163   3.854   0.031  0.3289 -0.5819 -0.3040
  995MOL0     C37182   1.287   3.792   0.022 -0.7114  0.3818 -0.3345
  995MOL0     C37183   1.311   3.757  -0.126 -0.2965  0.1039 -0.3276
  995MOL0     C37184   1.451   3.715  -0.158  0.6539 -0.5333  0.2999
  995MOL0     C37185   1.482   3.697  -0.306 -0.0301  0.2320 -0.4806
  995MOL0     C37186   1.452   3.821  -0.391  0.1997 -0.2458  0.0406
  995MOL0     C37187   1.496   3.789  -0.537 -0.9569  0.9487  0.0771
  995MOL0     C37188   1.521   3.919  -0.615  0.0835  0.4162  0.3471
  995MOL0     N37189   1.392   3.995  -0.619  0.3254 -0.5147  0.1721
  995MOL0     C37190   1.282   3.944  -0.687 -0.2046  0.2354  0.0509
  995MOL0     C37191   1.210   4.061  -0.707  0.5065  0.0623  0.2010
  995MOL0     C37192   1.084   4.067  -0.774 -0.5559 -0.2262  0.3335
  995MOL0     C37193   1.095   4.064  -0.931  0.2584  1.1544 -0.9320
  995MOL0     C37194   1.215   4.143  -0.988  0.1674  0.4248 -0.5532
  995MOL0     C37195   1.181   4.295  -0.965 -0.8010 -0.2332 -0.3058
  995MOL0     O37196   1.244   4.389  -1.061  0.3900  0.0048  0.2516
  995MOL0     C37197   1.377   4.408  -1.065 -1.3206  0.4997 -0.0123
  995MOL0     C37198   1.445   4.450  -1.173  0.6085  0.1944 -0.0895
  995MOL0     C37199   1.583   4.467  -1.180 -0.4789 -1.5903 -0.1159
  995MOL0     C37200   1.632   4.494  -1.323 -0.0280  0.0039  0.3585
  995MOL0     C37201   1.664   4.430  -1.067  0.4375  0.0974 -0.3496
  995MOL0     C37202   1.813   4.425  -1.070 -0.5742  0.1930 -0.4261
  995MOL0     O37203   1.873   4.305  -1.022  0.4500 -0.8905  0.2534
  995MOL0     C37204   2.000   4.262  -1.056 -1.1330  0.7794 -0.1205
  995MOL0     C37205   2.076   4.295  -1.165  0.4533 -0.0566 -0.4397
  995MOL0     C37206   2.190   4.233  -1.196 -0.8558  0.3453  0.5598
  995MOL0     C37207   2.248   4.137  -1.113  1.0791  1.0249  0.2343
  995MOL0     O37208   2.366   4.075  -1.129  0.5208 -0.2354 -0.2281
  995MOL0     C37209   2.397   4.037  -1.265  0.6671 -0.3565  0.4692
  995MOL0     C37210   2.324   3.909  -1.306 -0.0508 -0.5908  0.4416
  995MOL0     C37211   2.195   3.950  -1.373 -0.3129  0.2829 -0.6345
  995MOL0     C37212   2.134   3.836  -1.453 -0.1189  0.5015  0.2440
  995MOL0     C37213   2.047   3.879  -1.568 -0.4920  0.9933  0.1728
  995MOL0     C37214   1.940   3.969  -1.526  1.0084 -0.3870 -0.3670
  995MOL0     C37215   1.876   4.047  -1.644 -0.7754 -0.4517  0.0422
  995MOL0     C37216   1.795   4.162  -1.589  0.1797  0.5821  0.2030
  995MOL0    Cl37217   1.878   4.297  -1.514  0.0458 -0.2857 -0.5201
  995MOL0     C37218   2.178   4.111  -0.991  0.1062  0.5867  0.9381
  995MOL0     C37219   2.056   4.172  -0.962 -0.2035  0.5802 -0.0238
  995MOL0     O37220   1.875   4.510  -1.134  0.1508 -0.2720  0.1650
  995MOL0     C37221   1.598   4.378  -0.947 -0.0950  0.5368 -0.0722
  995MOL0     C37222   1.460   4.376  -0.952 -0.0407 -0.4653  0.4340
  995MOL0     N37223   1.273   4.167  -0.637  1.7423  0.3978 -0.9241
  995MOL0     N37224   1.384   4.126  -0.597 -0.0978 -0.5160 -0.2229
  995MOL0     C37225   0.897   3.949   0.060 -0.4980  0.8340 -0.0117
  995MOL0     C37226   0.782   3.993   0.125 -0.0495  0.9311 -0.2954
  995MOL0     C37227   0.499   3.998   0.490  0.8574 -0.2386  0.4423
  995MOL0     C37228   0.507   4.097   0.589  0.6987 -0.9306  0.2255
  995MOL0     C37229   0.401   4.118   0.682  0.0034 -0.7505  0.2794
  995MOL0     C37230   0.287   4.040   0.680  0.3029 -1.1150 -0.6282
  995MOL0     O37231   0.204   4.049   0.785 -0.2813  0.4941 -0.4121
  995MOL0     C37232   0.074   3.989   0.783  0.6947  0.2776 -0.5349
  995MOL0     C37233  -0.014   4.081   0.869 -0.1281 -0.0966  0.0370
  995MOL0     C37234  -0.141   4.014   0.931 -0.3597  0.5969 -0.2550
  995MOL0     C37235  -0.231   4.112   1.014 -0.6537 -0.6540 -0.0029
  995MOL0     C37236  -0.290   4.222   0.920 -0.2066 -0.3511 -0.9421
  995MOL0     C37237  -0.350   4.289   0.832 -0.6028 -0.3354 -0.3920
  995MOL0     C37238   0.282   3.937   0.581  0.3810 -0.4075  0.2103
  995MOL0     C37239   0.383   3.920   0.488 -0.2816  0.0207  0.4828
  995MOL0     C37240   0.392   3.801   0.405 -0.3931 -0.2593 -1.2666
  995MOL0     H37241   0.689   3.722   0.286 -0.8060 -0.7403 -1.1465
  995MOL0     H37242   0.896   3.621   0.138 -0.7546 -0.5038 -0.2828
  995MOL0     H37243   1.160   3.885   0.136  2.0152 -0.6433 -0.2175
  995MOL0     H37244   1.155   3.944  -0.029  0.6087 -0.4481 -0.1412
  995MOL0     H37245   1.357   3.872   0.047 -0.0878 -0.4655  0.6914
  995MOL0     H37246   1.311   3.715   0.096 -2.5541  0.1369  0.0683
  995MOL0     H37247   1.239   3.683  -0.162 -1.3580  1.3885 -0.8966
  995MOL0     H37248   1.305   3.851  -0.181  1.3216 -0.4598 -1.5667
  995MOL0     H37249   1.511   3.803  -0.130  0.3681  0.4675 -2.0008
  995MOL0     H37250   1.485   3.630  -0.099  1.4243 -0.0284  0.5987
  995MOL0     H37251   1.417   3.615  -0.338  0.4224  0.4467 -2.0470
  995MOL0     H37252   1.587   3.663  -0.310  1.2049  2.5567  4.5034
  995MOL0     H37253   1.345   3.840  -0.404  0.1255  0.3941  1.3672
  995MOL0     H37254   1.516   3.901  -0.352  2.7871 -1.9229 -0.5357
  995MOL0     H37255   1.414   3.730  -0.578 -2.4508  0.9880  2.7785
  995MOL0     H37256   1.588   3.731  -0.549 -1.0300  1.4344 -4.8956
  995MOL0     H37257   1.597   3.978  -0.563  0.2670 -2.7474  4.0734
  995MOL0     H37258   1.554   3.898  -0.718 -0.5658  2.8840 -0.4441
  995MOL0     H37259   1.256   3.850  -0.736  0.2755 -0.6880  1.5190
  995MOL0     H37260   1.028   4.154  -0.740 -5.0486 -2.9674  0.7493
  995MOL0     H37261   1.016   3.991  -0.737 -2.5973 -0.6686 -3.7686
  995MOL0     H37262   1.120   3.960  -0.954  1.4538  1.3068 -0.3715
  995MOL0     H37263   0.997   4.087  -0.975 -0.4171  3.3802  1.4527
  995MOL0     H37264   1.307   4.122  -0.934  0.6588 -4.0516 -2.6651
  995MOL0     H37265   1.233   4.126  -1.095  1.3770  6.0265 -1.5878
  995MOL0     H37266   1.075   4.319  -0.976 -0.4872  1.6893  0.4403
  995MOL0     H37267   1.209   4.323  -0.863  0.4640 -0.5630 -0.5489
  995MOL0     H37268   1.385   4.482  -1.257  1.8216  1.5443 -0.4695
  995MOL0     H37269   1.740   4.513  -1.329 -0.2109  1.6992  1.5808
  995MOL0     H37270   1.583   4.585  -1.360  0.4333 -0.0700 -0.4623
  995MOL0     H37271   1.602   4.412  -1.389 -0.3311  0.7484 -0.4449
  995MOL0     H37272   2.025   4.348  -1.245 -0.4735 -1.0134 -0.5158
  995MOL0     H37273   2.236   4.249  -1.293 -1.1869 -3.3069 -0.3481
  995MOL0     H37274   2.408   4.111  -1.344  4.4277 -3.9079 -2.8535
  995MOL0     H37275   2.504   4.013  -1.263  1.2623  1.5672 -2.4867
  995MOL0     H37276   2.383   3.852  -1.378  2.6670 -0.8620  2.7343
  995MOL0     H37277   2.300   3.842  -1.222  2.3365 -2.5099 -0.3014
  995MOL0     H37278   2.223   4.021  -1.452 -2.6174  1.9973 -0.0131
  995MOL0     H37279   2.122   3.991  -1.303 -0.7520 -1.3535 -0.0830
  995MOL0     H37280   2.066   3.781  -1.388 -1.9088 -0.1720 -2.0452
  995MOL0     H37281   2.211   3.765  -1.483 -0.4727  0.8110 -1.5074
  995MOL0     H37282   2.111   3.934  -1.638 -1.6698  0.5466 -1.3217
  995MOL0     H37283   2.009   3.787  -1.615 -0.5572  0.6351  0.9243
  995MOL0     H37284   1.972   4.047  -1.456 -5.6770 -1.1291  4.4021
  995MOL0     H37285   1.862   3.918  -1.469  0.2184 -0.4273 -1.4416
  995MOL0     H37286   1.802   3.980  -1.690 -3.2473  3.4057 -2.2313
  995MOL0     H37287   1.953   4.078  -1.716  1.0781 -0.3758  1.9800
  995MOL0     H37288   1.717   4.112  -1.531  1.5338 -0.6993  0.9844
  995MOL0     H37289   1.747   4.200  -1.680 -1.1396  0.6521  0.8979
  995MOL0     H37290   2.211   4.033  -0.922  2.1977  1.2698  0.7563
  995MOL0     H37291   2.008   4.137  -0.871 -1.2806 -3.5256 -1.9281
  995MOL0     H37292   1.652   4.360  -0.855 -2.1817  2.6688  1.6932
  995MOL0     H37293   1.421   4.334  -0.861  3.3352 -1.8909  1.3948
  995MOL0     H37294   0.956   4.015  -0.003 -1.2401  0.6873 -0.8763
  995MOL0     H37295   0.750   4.097   0.116  1.9017  1.5031 -1.2168
  995MOL0     H37296   0.594   4.160   0.603  0.0733 -0.2563  1.2629
  995MOL0     H37297   0.404   4.180   0.772 -0.0178 -1.7704  0.9955
  995MOL0     H37298   0.035   3.980   0.681 -1.9711 -1.4930  0.5346
  995MOL0     H37299   0.080   3.890   0.828 -0.5086 -1.2928 -3.5426
  995MOL0     H37300  -0.034   4.174   0.816  3.8886  1.1588  0.3969
  995MOL0     H37301   0.047   4.118   0.953 -0.7068 -1.1794  0.9668
  995MOL0     H37302  -0.196   3.969   0.848 -0.8115 -0.7246  0.7199
  995MOL0     H37303  -0.110   3.928   0.991  0.3164  0.6282 -0.5548
  995MOL0     H37304  -0.164   4.160   1.085  0.7813 -2.4890 -0.0420
  995MOL0     H37305  -0.305   4.067   1.080 -0.6665  2.0217  1.9701
  995MOL0     H37306  -0.405   4.340   0.756  1.7895 -1.7087 -3.2660
  995MOL0     H37307   0.206   3.859   0.582  1.5807 -1.6008  0.0423
  995MOL0     H37308   0.484   3.748   0.433  0.2538  2.2448  1.8907
  995MOL0     H37309   0.307   3.737   0.430  1.2286 -2.0927 -0.1053
  995MOL0     H37310   0.391   3.820   0.297  0.3040  1.9109 -0.9335
  996MOL0     O37311   4.408   4.972   5.957 -0.3056  0.0067  0.9273
  996MOL0     C37312   4.465   4.920   6.051 -1.1325  0.0574  0.0153
  996MOL0     O37313   4.592   4.866   6.047  0.3316  0.0354  0.4450
  996MOL0     C37314   4.653   4.885   5.929  0.6366  0.4781 -0.6280
  996MOL0     C37315   4.757   4.976   5.921 -0.4796 -0.0289 -0.4145
  996MOL0     C37316   4.832   4.989   5.802 -0.3022 -0.1635  0.0792
  996MOL0     C37317   4.796   4.924   5.681  0.0556 -0.7431  0.2094
  996MOL0     O37318   4.853   4.952   5.558  0.8286  0.5537  0.0586
  996MOL0     C37319   4.968   5.037   5.547  1.0374  1.5190  0.0833
  996MOL0     C37320   5.035   5.007   5.409 -0.7073 -0.6808 -0.3719
  996MOL0     C37321   4.936   4.993   5.290 -0.7045  0.8418 -1.3265
  996MOL0     C37322   5.017   4.978   5.159 -0.3670 -0.1936  0.0566
  996MOL0     C37323   4.932   4.918   5.048  0.4566 -0.4118 -0.2215
  996MOL0     C37324   4.779   4.960   5.038  1.0170 -0.3070 -0.0013
  996MOL0     C37325   4.688   4.864   4.957 -0.1685 -0.4834 -0.0917
  996MOL0     C37326   4.556   4.842   5.019  0.7400 -0.7165  0.1832
  996MOL0     N37327   4.455   4.959   5.016 -0.2812  0.2865 -0.2003
  996MOL0     C37328   4.380   4.989   4.906 -0.8657  0.3410 -0.5477
  996MOL0     C37329   4.307   5.094   4.951  0.6908  1.2131  0.0961
  996MOL0     C37330   4.204   5.155   4.857 -0.6699  0.4529 -0.5868
  996MOL0     C37331   4.264   5.225   4.731 -0.0747  0.6889  0.3368
  996MOL0     C37332   4.254   5.147   4.602  0.6592  0.2139 -0.4922
  996MOL0     C37333   4.113   5.165   4.534 -0.1037  0.2622  0.3119
  996MOL0     O37334   4.104   5.287   4.454  0.7283  0.5317 -0.0170
  996MOL0     C37335   3.976   5.313   4.407 -0.2941  0.2560 -0.0521
  996MOL0     C37336   3.951   5.426   4.335 -0.0327 -0.5563  0.6111
  996MOL0     C37337   3.839   5.454   4.261  0.5299  0.0811 -0.6129
  996MOL0     C37338   3.850   5.569   4.170  0.2977  0.6820 -0.4144
  996MOL0     C37339   3.723   5.367   4.270 -0.8513 -0.4011 -0.4483
  996MOL0     C37340   3.582   5.389   4.217  0.2724  0.3353 -1.0737
  996MOL0     O37341   3.477   5.324   4.272 -0.5654  0.7642  0.8047
  996MOL0     C37342   3.347   5.332   4.224 -0.0282  0.0731 -0.1335
  996MOL0     C37343   3.292   5.426   4.141  0.0854 -0.5530 -0.1097
  996MOL0     C37344   3.148   5.403   4.108 -0.7256 -0.1423 -0.5734
  996MOL0     C37345   3.079   5.293   4.154  1.2144 -0.2413  0.0137
  996MOL0     O37346   2.959   5.265   4.115 -0.2281  1.2359 -0.3077
  996MOL0     C37347   2.872   5.355   4.182  0.5644 -0.0689  0.0973
  996MOL0     C37348   2.797   5.251   4.276 -0.0289 -0.7402 -1.2421
  996MOL0     C37349   2.745   5.125   4.204  0.7661  0.1827 -1.0906
  996MOL0     C37350   2.692   5.024   4.315  0.4364 -0.2995  0.5046
  996MOL0     C37351   2.657   4.885   4.246 -0.3083  0.0390  0.2146
  996MOL0     C37352   2.611   4.785   4.350  0.2242  1.1879 -0.3867
  996MOL0     C37353   2.505   4.686   4.310  1.3473 -0.1242 -0.5365
  996MOL0     C37354   2.378   4.759   4.285 -0.1527  0.3140  0.8763
  996MOL0    Cl37355   2.267   4.643   4.334  0.2137  0.2278 -0.3392
  996MOL0     C37356   3.142   5.207   4.240  0.4140 -1.2457 -0.1772
  996MOL0     C37357   3.272   5.234   4.279  0.3757 -0.0826 -0.0754
  996MOL0     O37358   3.571   5.467   4.126  0.0075  0.7494 -0.1354
  996MOL0     C37359   3.750   5.248   4.344  0.0096 -0.9800  0.0483
  996MOL0     C37360   3.869   5.219   4.405 -0.2734 -0.1492  0.1106
  996MOL0     N37361   4.324   5.113   5.088  0.6392  0.2595  0.1353
  996MOL0     N37362   4.423   5.042   5.125 -1.0207  0.0313  0.9351
  996MOL0     C37363   4.696   4.828   5.694 -0.1565 -0.7086 -0.4619
  996MOL0     C37364   4.628   4.803   5.815 -0.2319  0.0091 -0.5909
  996MOL0     C37365   4.397   4.924   6.188  0.2492 -0.4677  1.0479
  996MOL0     C37366   4.449   4.843   6.285  0.6459 -0.0120 -0.3862
  996MOL0     C37367   4.381   4.832   6.413  0.2896 -0.0562  0.0279
  996MOL0     C37368   4.272   4.912   6.449  0.5359  0.3728  0.1333
  996MOL0     O37369   4.211   4.913   6.576 -1.0982 -0.0156  0.1092
  996MOL0     C37370   4.081   4.962   6.593  0.5512  0.5622 -0.8747
  996MOL0     C37371   4.042   4.970   6.737 -0.4412  0.8003  0.0425
  996MOL0     C37372   4.065   5.113   6.794 -0.4286  0.7522 -0.6469
  996MOL0     C37373   4.038   5.106   6.947  0.2897 -0.8642 -0.1840
  996MOL0     C37374   4.047   5.235   7.009 -1.1620 -0.7275  1.0917
  996MOL0     C37375   4.063   5.342   7.071 -0.1731  0.1094  0.6058
  996MOL0     C37376   4.231   5.005   6.349 -0.4149 -0.4063  0.4250
  996MOL0     C37377   4.275   5.000   6.216 -0.4246  0.6540  0.0414
  996MOL0     C37378   4.205   5.086   6.113 -0.0694 -0.0572  1.1885
  996MOL0     H37379   4.789   5.024   6.013 -1.8637 -2.8965  1.6922
  996MOL0     H37380   4.910   5.064   5.814 -1.9124  1.1916  2.9643
  996MOL0     H37381   5.039   5.012   5.627  2.5166 -1.1639 -1.8827
  996MOL0     H37382   4.951   5.145   5.551 -3.3052  0.9864  0.6690
  996MOL0     H37383   5.106   5.087   5.390  0.7208 -1.4133  1.5861
  996MOL0     H37384   5.087   4.911   5.417  0.3638 -0.1418 -0.7776
  996MOL0     H37385   4.880   4.899   5.302  0.8931  0.1260  1.3665
  996MOL0     H37386   4.878   5.086   5.293 -0.2169  1.2420  2.9557
  996MOL0     H37387   5.057   5.075   5.126  0.5466 -1.1415 -1.7219
  996MOL0     H37388   5.106   4.916   5.173 -0.6314 -1.0093 -1.6197
  996MOL0     H37389   4.940   4.809   5.049 -0.9205 -0.5210  0.2024
  996MOL0     H37390   4.976   4.952   4.954  1.4896  0.4297  0.5380
  996MOL0     H37391   4.737   4.969   5.139  2.1742  1.6906  0.3614
  996MOL0     H37392   4.763   5.061   5.000 -3.4222 -0.6540  0.4362
  996MOL0     H37393   4.734   4.765   4.963 -1.0902 -0.8596  1.0526
  996MOL0     H37394   4.693   4.900   4.854 -1.5819  1.8949  0.5895
  996MOL0     H37395   4.509   4.758   4.967  0.2389 -1.3308  1.5563
  996MOL0     H37396   4.569   4.817   5.125 -1.7186 -1.6353  0.3361
  996MOL0     H37397   4.380   4.941   4.808 -0.9035 -0.1132 -0.3276
  996MOL0     H37398   4.166   5.230   4.928 -0.5219 -2.3055  2.6961
  996MOL0     H37399   4.115   5.094   4.841 -0.1682 -0.6520  0.6603
  996MOL0     H37400   4.226   5.327   4.718 -0.1373  0.4310 -1.7862
  996MOL0     H37401   4.371   5.241   4.747  0.2780 -0.8627 -0.2491
  996MOL0     H37402   4.322   5.174   4.520  0.7123  1.1910 -0.1380
  996MOL0     H37403   4.270   5.039   4.613  1.4863  0.5265  1.9809
  996MOL0     H37404   4.094   5.086   4.461 -0.1331  0.3075  0.2709
  996MOL0     H37405   4.038   5.159   4.613 -0.3547  1.3960  0.1806
  996MOL0     H37406   4.041   5.487   4.324  0.3872 -1.0096  1.3784
  996MOL0     H37407   3.950   5.612   4.165  0.7482 -0.1167  0.9185
  996MOL0     H37408   3.777   5.644   4.202  1.9751  3.2411 -2.1861
  996MOL0     H37409   3.819   5.535   4.071 -1.8799 -2.1713  1.0849
  996MOL0     H37410   3.341   5.520   4.117  1.9593 -0.6845  2.6278
  996MOL0     H37411   3.107   5.487   4.052 -3.7905  0.1136  1.7589
  996MOL0     H37412   2.919   5.430   4.247  1.3349 -0.9134  0.5457
  996MOL0     H37413   2.801   5.406   4.116 -0.0258  0.1694  0.8951
  996MOL0     H37414   2.870   5.221   4.351  0.4005  0.5692 -1.1181
  996MOL0     H37415   2.717   5.306   4.326  1.1801  0.9877 -1.1178
  996MOL0     H37416   2.831   5.082   4.151  1.2157  0.0489 -0.2716
  996MOL0     H37417   2.668   5.151   4.130 -0.7061  0.5914  0.5383
  996MOL0     H37418   2.607   5.071   4.367  0.3249  0.1575 -0.0821
  996MOL0     H37419   2.769   5.016   4.392  1.3186  0.9562 -0.2153
  996MOL0     H37420   2.580   4.910   4.172 -0.1765  0.6403  0.2803
  996MOL0     H37421   2.745   4.854   4.187 -2.9780 -4.8991 -1.7759
  996MOL0     H37422   2.577   4.831   4.443  1.2720  1.7495 -0.2687
  996MOL0     H37423   2.697   4.725   4.381  0.9275  2.6593  0.6225
  996MOL0     H37424   2.501   4.612   4.390  1.0934  0.1661 -0.2800
  996MOL0     H37425   2.536   4.637   4.217  2.2413  0.1672 -0.3985
  996MOL0     H37426   2.367   4.783   4.179 -2.7681 -0.1344  0.9953
  996MOL0     H37427   2.359   4.847   4.348 -2.3363 -0.5500  1.4877
  996MOL0     H37428   3.096   5.123   4.292 -0.2243 -0.7994 -0.0090
  996MOL0     H37429   3.303   5.163   4.354 -2.8034 -2.0437 -0.4390
  996MOL0     H37430   3.668   5.180   4.367 -2.5176  0.4482 -3.7515
  996MOL0     H37431   3.872   5.120   4.450 -1.5601 -2.0733 -3.6596
  996MOL0     H37432   4.665   4.777   5.604  0.2137 -0.0194 -0.9821
  996MOL0     H37433   4.559   4.721   5.832 -0.6679  0.3334 -0.8063
  996MOL0     H37434   4.543   4.789   6.277  0.1482 -1.0029  0.2550
  996MOL0     H37435   4.421   4.774   6.495 -0.5285  1.8896  1.9177
  996MOL0     H37436   4.070   5.061   6.550 -1.6317  0.1588 -1.3852
  996MOL0     H37437   4.016   4.895   6.536  1.5684  0.5154 -2.0107
  996MOL0     H37438   4.105   4.901   6.794 -0.3232  1.4939  0.7740
  996MOL0     H37439   3.934   4.948   6.741 -0.2361 -0.7554 -1.6300
  996MOL0     H37440   4.168   5.143   6.773  0.0668 -1.5553 -1.7835
  996MOL0     H37441   3.981   5.161   6.743 -1.3928 -1.0072 -0.7770
  996MOL0     H37442   4.101   5.030   6.994  1.8554 -0.3524 -1.3904
  996MOL0     H37443   3.934   5.072   6.954 -0.4280  1.3949  0.8533
  996MOL0     H37444   4.089   5.433   7.122  0.1305 -0.3967  1.3705
  996MOL0     H37445   4.152   5.080   6.352  0.0051  0.4461 -3.8611
  996MOL0     H37446   4.176   5.031   6.023 -1.6963  0.5637  1.2843
  996MOL0     H37447   4.104   5.117   6.142 -0.5712  0.0295 -0.5629
  996MOL0     H37448   4.265   5.175   6.096 -1.1357  0.0496 -3.0636
  997MOL0     O37449   8.524   3.435   2.417  0.2030 -0.3611 -0.2107
  997MOL0     C37450   8.452   3.492   2.495 -0.2115 -0.6112  0.0279
  997MOL0     O37451   8.457   3.621   2.524  0.2034  0.3469 -0.2797
  997MOL0     C37452   8.564   3.701   2.500 -0.0956 -0.1367  0.0780
  997MOL0     C37453   8.537   3.820   2.438 -0.1586 -0.2517 -0.6538
  997MOL0     C37454   8.641   3.907   2.405 -0.1592  0.0056 -0.0784
  997MOL0     C37455   8.775   3.885   2.445 -0.2076  0.6545  0.0098
  997MOL0     O37456   8.868   3.986   2.417 -0.1020  0.3534  0.2553
  997MOL0     C37457   8.929   4.030   2.534 -0.0745 -0.0822 -0.2171
  997MOL0     C37458   9.075   4.062   2.513  0.0235 -1.1909 -0.1638
  997MOL0     C37459   9.140   4.093   2.644 -0.2450 -0.5915 -1.0809
  997MOL0     C37460   9.287   4.154   2.629 -0.4101 -0.7063  0.6339
  997MOL0     C37461   9.285   4.283   2.552 -0.3610 -0.5624 -0.4403
  997MOL0     C37462   9.199   4.405   2.585 -0.0448  0.2462 -0.9950
  997MOL0     C37463   9.214   4.522   2.479 -0.3407  0.3518  0.6285
  997MOL0     C37464   9.180   4.661   2.533  0.9305 -0.1536  0.2977
  997MOL0     N37465   9.143   4.764   2.438 -0.4980 -0.4219  0.6631
  997MOL0     C37466   9.235   4.828   2.352 -0.0786  0.3093 -0.3128
  997MOL0     C37467   9.170   4.912   2.279  0.5546 -0.3336  0.5805
  997MOL0     C37468   9.230   5.017   2.185  0.0990 -0.1510 -1.2062
  997MOL0     C37469   9.145   5.051   2.068  0.3042 -0.2430  0.5017
  997MOL0     C37470   9.163   4.965   1.946  0.0860 -0.3598 -0.0051
  997MOL0     C37471   9.152   4.815   1.990 -0.4295 -0.0117  0.8379
  997MOL0     O37472   9.154   4.723   1.881 -0.8603 -0.5826 -0.2422
  997MOL0     C37473   9.269   4.695   1.815  1.0593 -0.3853  1.1038
  997MOL0     C37474   9.263   4.645   1.686 -0.5662  1.2227 -0.3214
  997MOL0     C37475   9.381   4.621   1.612  0.4786 -0.0595 -0.1937
  997MOL0     C37476   9.353   4.543   1.480  0.5933 -0.9840  0.3172
  997MOL0     C37477   9.508   4.654   1.661  0.7633  0.4481 -0.6608
  997MOL0     C37478   9.633   4.640   1.593 -0.7096 -1.1235 -0.1794
  997MOL0     O37479   9.740   4.635   1.665  0.1708  0.9688  0.1810
  997MOL0     C37480   9.861   4.615   1.606 -0.1347 -0.5202 -1.5868
  997MOL0     C37481   9.955   4.716   1.615 -0.0942 -0.0907  0.5111
  997MOL0     C37482  10.084   4.694   1.557 -0.5569  0.1198  0.5386
  997MOL0     C37483  10.119   4.577   1.495  0.0464  0.3020 -1.0676
  997MOL0     O37484  10.245   4.562   1.427  0.7802 -0.2315 -0.3084
  997MOL0     C37485  10.357   4.614   1.484 -0.7736  0.2082 -0.5619
  997MOL0     C37486  10.389   4.553   1.626  0.8009 -1.6029  0.2390
  997MOL0     C37487  10.401   4.399   1.629  0.4814  0.8493  0.2396
  997MOL0     C37488  10.412   4.346   1.770 -0.1996  0.7685  0.1965
  997MOL0     C37489  10.548   4.373   1.855  0.5102 -0.1095 -0.1564
  997MOL0     C37490  10.519   4.298   1.986  0.8161 -0.1503  0.1652
  997MOL0     C37491  10.618   4.320   2.101  0.5131 -0.6634 -0.1378
  997MOL0     C37492  10.555   4.271   2.228 -1.5159  0.7660  0.2127
  997MOL0    Cl37493  10.649   4.306   2.376  0.0981 -0.2091 -0.7092
  997MOL0     C37494  10.021   4.476   1.492  0.1543  0.2942 -0.0305
  997MOL0     C37495   9.895   4.494   1.548  0.3366  0.5995  0.1186
  997MOL0     O37496   9.639   4.654   1.469  0.3457  0.2325  0.1622
  997MOL0     C37497   9.513   4.696   1.794 -0.0570  0.3042  0.3653
  997MOL0     C37498   9.393   4.719   1.868  0.4972  0.5048  0.4165
  997MOL0     N37499   9.033   4.896   2.310 -0.2476  0.0930  0.0809
  997MOL0     N37500   9.018   4.813   2.408 -0.1538  0.4565  0.7841
  997MOL0     C37501   8.805   3.763   2.510  0.4706 -0.3275 -0.4329
  997MOL0     C37502   8.698   3.672   2.532  0.7846 -1.0216 -0.0709
  997MOL0     C37503   8.345   3.411   2.564 -0.4090 -0.2970 -0.0497
  997MOL0     C37504   8.238   3.489   2.622 -0.5335 -0.4027  0.0677
  997MOL0     C37505   8.134   3.423   2.689 -0.3934 -0.6697 -0.0735
  997MOL0     C37506   8.121   3.282   2.695  0.3822 -0.6838  0.6586
  997MOL0     O37507   8.007   3.231   2.761 -0.1331 -0.4657  0.1940
  997MOL0     C37508   7.984   3.091   2.739 -0.9522 -0.6096 -0.1541
  997MOL0     C37509   7.854   3.052   2.811  0.0639  1.1061 -0.2880
  997MOL0     C37510   7.880   3.076   2.962  0.3571 -0.1242 -0.1812
  997MOL0     C37511   7.750   3.036   3.040 -0.3951 -0.9541  0.0377
  997MOL0     C37512   7.634   3.121   3.008  1.0393  0.1712 -0.4135
  997MOL0     C37513   7.519   3.156   2.978  0.4920  0.1018  0.6125
  997MOL0     C37514   8.226   3.214   2.638  0.7844 -0.1719 -0.4494
  997MOL0     C37515   8.338   3.270   2.579  0.9136  0.5440  0.6653
  997MOL0     C37516   8.448   3.185   2.530 -1.2942  0.6145  0.2531
  997MOL0     H37517   8.432   3.845   2.425  0.2524  1.2246 -1.3803
  997MOL0     H37518   8.625   3.991   2.338  1.8681  0.9583  0.5627
  997MOL0     H37519   8.913   3.965   2.620 -1.7439  0.3237 -0.1912
  997MOL0     H37520   8.873   4.122   2.548 -0.4145 -0.7339  3.8659
  997MOL0     H37521   9.127   3.983   2.459  1.8831 -0.1559  0.0418
  997MOL0     H37522   9.079   4.163   2.470 -1.3023 -0.5379  1.1400
  997MOL0     H37523   9.083   4.162   2.707  2.1521  0.4613  0.0368
  997MOL0     H37524   9.162   4.005   2.706  3.7832 -0.2850 -1.7976
  997MOL0     H37525   9.323   4.183   2.728 -1.7950  1.2135  0.6469
  997MOL0     H37526   9.358   4.086   2.581 -0.6166  0.2933 -1.1775
  997MOL0     H37527   9.265   4.260   2.447  2.6325 -1.4846 -0.9089
  997MOL0     H37528   9.387   4.320   2.540  0.4657 -2.7178 -0.4520
  997MOL0     H37529   9.095   4.372   2.590 -0.0644  0.4025 -0.2903
  997MOL0     H37530   9.220   4.449   2.683  0.4928 -0.1604 -0.9277
  997MOL0     H37531   9.134   4.505   2.406  1.1273  2.8902 -1.7776
  997MOL0     H37532   9.301   4.520   2.413 -0.8443  1.9549 -0.1205
  997MOL0     H37533   9.097   4.659   2.604 -0.3972 -0.9589 -1.2297
  997MOL0     H37534   9.257   4.703   2.598  0.1388  1.0073  0.5088
  997MOL0     H37535   9.342   4.811   2.345 -0.3107 -1.5432 -0.0053
  997MOL0     H37536   9.333   4.995   2.154  0.4591  1.4064 -1.1622
  997MOL0     H37537   9.229   5.109   2.244 -2.0633 -1.1217  0.4064
  997MOL0     H37538   9.043   5.050   2.108  0.8579 -0.0190  2.0020
  997MOL0     H37539   9.166   5.152   2.033  0.9398 -0.9517 -1.2773
  997MOL0     H37540   9.103   4.995   1.860 -0.0018 -0.4515  0.0244
  997MOL0     H37541   9.267   4.976   1.915 -0.0674  0.1770 -0.3388
  997MOL0     H37542   9.238   4.788   2.052 -1.7474 -2.5406  1.7184
  997MOL0     H37543   9.060   4.803   2.047 -2.1299  0.7220 -1.5823
  997MOL0     H37544   9.162   4.617   1.658  0.4386 -6.1447  1.1677
  997MOL0     H37545   9.375   4.437   1.494 -0.7984 -1.1958  1.1472
  997MOL0     H37546   9.405   4.588   1.396 -0.0803  0.5396  0.6926
  997MOL0     H37547   9.247   4.557   1.454  1.1135  2.5163 -0.3861
  997MOL0     H37548   9.930   4.810   1.665 -0.3609  0.4620 -0.6264
  997MOL0     H37549  10.160   4.771   1.566 -1.4576  0.9130  1.5528
  997MOL0     H37550  10.443   4.582   1.424 -1.8556 -1.2740 -1.3990
  997MOL0     H37551  10.357   4.722   1.502 -0.5374 -0.0184  0.9641
  997MOL0     H37552  10.485   4.590   1.663  0.3520 -3.7286  4.0090
  997MOL0     H37553  10.312   4.598   1.689 -0.2042  2.3351 -3.3799
  997MOL0     H37554  10.488   4.358   1.576 -0.0445 -1.6830  1.2361
  997MOL0     H37555  10.318   4.359   1.571  2.1406 -3.5440  0.5323
  997MOL0     H37556  10.390   4.239   1.779 -0.6629  0.8006 -0.4628
  997MOL0     H37557  10.324   4.395   1.814 -0.4250 -1.2566  2.1958
  997MOL0     H37558  10.633   4.332   1.799  0.7289  0.7764 -0.5088
  997MOL0     H37559  10.578   4.478   1.864 -0.9265  0.3028 -0.0003
  997MOL0     H37560  10.521   4.193   1.957  2.5589  0.2578 -1.3635
  997MOL0     H37561  10.422   4.335   2.019  2.0612  0.7014  3.2039
  997MOL0     H37562  10.629   4.428   2.110 -3.2852 -0.3164  3.2569
  997MOL0     H37563  10.712   4.270   2.078  2.0381  2.2969 -0.8317
  997MOL0     H37564  10.562   4.162   2.222 -1.3102  0.7500  0.7100
  997MOL0     H37565  10.453   4.304   2.251 -1.5251 -0.2040  1.6623
  997MOL0     H37566  10.034   4.383   1.438 -2.8445 -0.1002 -0.2229
  997MOL0     H37567   9.828   4.411   1.528 -2.0340  2.1691  1.1121
  997MOL0     H37568   9.607   4.709   1.846  0.0496 -2.2797  0.9663
  997MOL0     H37569   9.410   4.750   1.971  0.2482 -0.9094  0.8956
  997MOL0     H37570   8.910   3.738   2.522  0.0901 -1.7163  0.2072
  997MOL0     H37571   8.724   3.571   2.560 -1.5624 -2.2165 -1.8088
  997MOL0     H37572   8.233   3.597   2.629  0.4739 -0.3982  0.8599
  997MOL0     H37573   8.056   3.483   2.733 -1.0881 -1.4114 -0.2670
  997MOL0     H37574   7.965   3.078   2.632  0.1654 -0.4104 -0.3858
  997MOL0     H37575   8.065   3.026   2.773 -2.4165 -0.7786  3.4274
  997MOL0     H37576   7.820   2.952   2.782 -1.8049  2.1203 -1.8490
  997MOL0     H37577   7.770   3.118   2.787 -1.3440  1.1737  3.8661
  997MOL0     H37578   7.961   3.009   2.991 -0.8658 -1.6552 -0.1528
  997MOL0     H37579   7.911   3.176   2.992 -2.8724  1.1361 -0.6107
  997MOL0     H37580   7.774   3.059   3.144  0.7955  1.1776 -0.6496
  997MOL0     H37581   7.734   2.929   3.024  2.1627 -1.3318 -0.3719
  997MOL0     H37582   7.423   3.199   2.961  0.5565  0.3752  0.9272
  997MOL0     H37583   8.220   3.106   2.646  2.4811 -0.1989  1.4348
  997MOL0     H37584   8.544   3.205   2.577 -1.9746  2.2247  1.0373
  997MOL0     H37585   8.421   3.084   2.564 -3.4858  0.4114 -1.7797
  997MOL0     H37586   8.471   3.201   2.424 -0.1350  1.0503  0.5634
  998MOL0     O37587   3.812   9.611   3.497  0.0647  0.9074 -0.5770
  998MOL0     C37588   3.758   9.691   3.420  0.1842 -0.2069  0.5430
  998MOL0     O37589   3.801   9.825   3.398  0.1540 -0.0150 -0.6141
  998MOL0     C37590   3.909   9.847   3.472  0.1192  0.2522  0.1395
  998MOL0     C37591   4.029   9.802   3.418 -1.0748 -0.4724 -0.2467
  998MOL0     C37592   4.152   9.850   3.471 -0.2218 -0.7374  0.5264
  998MOL0     C37593   4.150   9.898   3.604 -0.2126  0.1153  0.7158
  998MOL0     O37594   4.272   9.939   3.663 -0.2930  0.6796  0.4125
  998MOL0     C37595   4.394   9.896   3.603 -0.4255 -0.2006  0.3874
  998MOL0     C37596   4.494   9.900   3.726  0.5336  0.1975  0.3944
  998MOL0     C37597   4.633   9.842   3.690 -0.1353 -0.1594  0.7501
  998MOL0     C37598   4.649   9.697   3.637 -0.9082  0.1843 -0.1216
  998MOL0     C37599   4.788   9.644   3.676 -0.6664  0.5454 -0.2030
  998MOL0     C37600   4.807   9.498   3.632 -0.1423  0.1368  0.2892
  998MOL0     C37601   4.957   9.454   3.650 -0.5018  0.3244 -0.0936
  998MOL0     C37602   4.994   9.329   3.567  0.2401  0.1388 -0.2491
  998MOL0     N37603   4.920   9.208   3.604 -0.0537  0.5245  0.5198
  998MOL0     C37604   4.782   9.176   3.599 -0.1364  0.0676  0.3760
  998MOL0     C37605   4.777   9.049   3.642  0.2697  0.7591  0.0209
  998MOL0     C37606   4.659   8.957   3.659 -0.8160 -0.2936  0.4330
  998MOL0     C37607   4.568   8.951   3.537 -1.1712 -0.1459 -0.5581
  998MOL0     C37608   4.454   8.849   3.534  0.1258 -0.0807  0.3107
  998MOL0     C37609   4.337   8.888   3.444 -0.8714  0.0871 -0.4069
  998MOL0     O37610   4.228   8.802   3.462 -0.1806  0.4888 -0.5654
  998MOL0     C37611   4.146   8.787   3.354  0.2547  0.6289 -0.2924
  998MOL0     C37612   4.144   8.869   3.244  0.6120  0.6213 -0.1530
  998MOL0     C37613   4.058   8.853   3.134  0.1486 -0.2054  0.2489
  998MOL0     C37614   4.059   8.955   3.025  0.0417  0.2632 -0.2430
  998MOL0     C37615   3.968   8.746   3.134  0.5907 -0.5307 -0.4395
  998MOL0     C37616   3.858   8.711   3.035  0.4919 -0.6875 -0.3081
  998MOL0     O37617   3.773   8.808   2.994  0.3838  0.2104 -0.0978
  998MOL0     C37618   3.698   8.782   2.890 -0.0464  0.9676  0.9067
  998MOL0     C37619   3.589   8.704   2.890  0.3935 -0.3399  0.3848
  998MOL0     C37620   3.512   8.684   2.766 -0.7846 -0.3594  0.1144
  998MOL0     C37621   3.533   8.750   2.648  0.0248 -0.4680  0.8161
  998MOL0     O37622   3.442   8.736   2.555 -0.1465  0.5615  0.5456
  998MOL0     C37623   3.476   8.795   2.423 -0.1669 -0.5841  0.4025
  998MOL0     C37624   3.376   8.717   2.330 -0.0670 -0.4676  0.2598
  998MOL0     C37625   3.237   8.783   2.322  0.6394  0.1633  0.1748
  998MOL0     C37626   3.131   8.694   2.245  0.5133 -0.6871 -0.1759
  998MOL0     C37627   2.994   8.763   2.226  0.2673  0.5068  0.8314
  998MOL0     C37628   2.888   8.662   2.182 -0.1310 -0.3920 -0.2334
  998MOL0     C37629   2.758   8.734   2.148  0.4270  0.2174 -0.0509
  998MOL0     C37630   2.680   8.822   2.253 -0.9491 -0.4089  0.6335
  998MOL0    Cl37631   2.592   8.719   2.351 -0.8708  0.0366 -0.2429
  998MOL0     C37632   3.650   8.828   2.646 -0.3856  0.0994 -0.4402
  998MOL0     C37633   3.733   8.838   2.762  0.9543 -1.0920 -0.4037
  998MOL0     O37634   3.848   8.596   3.001 -0.4064 -0.7439 -0.8598
  998MOL0     C37635   3.973   8.664   3.242  0.4712  0.1967  0.6270
  998MOL0     C37636   4.057   8.675   3.353 -0.3700 -0.9645  0.7915
  998MOL0     N37637   4.900   9.007   3.661 -0.6253  0.1360 -0.1214
  998MOL0     N37638   4.991   9.094   3.629 -0.2389  0.0481  0.2069
  998MOL0     C37639   4.025   9.930   3.665 -0.6965  0.4012  0.7649
  998MOL0     C37640   3.904   9.907   3.596 -0.1402  1.4846 -0.1334
  998MOL0     C37641   3.628   9.655   3.352 -0.1079  0.6888  0.2041
  998MOL0     C37642   3.593   9.738   3.242 -0.0126 -0.1580  0.3061
  998MOL0     C37643   3.482   9.718   3.159  0.4069 -0.0414 -0.8841
  998MOL0     C37644   3.406   9.607   3.174  0.7012 -0.5640 -0.0699
  998MOL0     O37645   3.290   9.579   3.105  0.0993 -0.4350  0.2584
  998MOL0     C37646   3.253   9.664   3.000 -0.1602 -0.2326  0.1272
  998MOL0     C37647   3.328   9.633   2.878  0.2083  0.9440 -1.2981
  998MOL0     C37648   3.337   9.755   2.787  0.0484  0.2975  0.0774
  998MOL0     C37649   3.204   9.840   2.752 -0.4863  0.1392  0.0491
  998MOL0     C37650   3.125   9.748   2.670  0.5480  0.1737 -0.3959
  998MOL0     C37651   3.059   9.660   2.613 -0.2382 -0.0621  0.0903
  998MOL0     C37652   3.443   9.506   3.263 -0.4837  0.0718 -0.2672
  998MOL0     C37653   3.542   9.536   3.370 -0.9834  0.1536 -0.3724
  998MOL0     C37654   3.541   9.453   3.488 -0.2237  0.3437  0.4103
  998MOL0     H37655   4.041   9.753   3.321  0.2438  0.9913 -0.8677
  998MOL0     H37656   4.236   9.853   3.402 -0.5444 -0.3050  0.1424
  998MOL0     H37657   4.432   9.965   3.527 -0.2003 -0.0586  0.6296
  998MOL0     H37658   4.391   9.793   3.566  0.7820  0.4037 -1.5100
  998MOL0     H37659   4.510   9.996   3.776  2.8528  0.7318 -1.2089
  998MOL0     H37660   4.453   9.830   3.800 -1.8536  0.0310 -0.9792
  998MOL0     H37661   4.696   9.907   3.628 -0.6963  1.0812  1.4575
  998MOL0     H37662   4.682   9.855   3.787  1.6158 -0.3211 -0.0625
  998MOL0     H37663   4.570   9.639   3.684 -1.2811 -0.2462 -1.2502
  998MOL0     H37664   4.635   9.701   3.529 -0.2677  0.9195 -0.1967
  998MOL0     H37665   4.805   9.646   3.783 -0.3089 -1.0829 -0.2149
  998MOL0     H37666   4.867   9.710   3.639 -1.3193  1.6698  0.3443
  998MOL0     H37667   4.743   9.431   3.689 -0.8005 -0.3306 -0.9643
  998MOL0     H37668   4.791   9.484   3.524 -0.0888  1.0445  0.1486
  998MOL0     H37669   4.976   9.428   3.755  2.1860 -1.2172 -0.8687
  998MOL0     H37670   5.023   9.535   3.616 -1.2074 -0.7033 -4.4249
  998MOL0     H37671   4.968   9.358   3.465 -0.5036 -1.1533 -0.4452
  998MOL0     H37672   5.100   9.315   3.586  0.4867  2.7978  0.7504
  998MOL0     H37673   4.704   9.244   3.565  1.6980  1.7162 -0.6876
  998MOL0     H37674   4.613   8.985   3.754 -1.4508 -0.3027  0.1374
  998MOL0     H37675   4.692   8.854   3.675  0.1122 -0.5772 -2.6388
  998MOL0     H37676   4.525   9.050   3.524  1.7440  1.3694  0.4436
  998MOL0     H37677   4.629   8.933   3.447 -0.7723  2.8320 -0.9709
  998MOL0     H37678   4.506   8.761   3.495 -0.0275  0.6834 -1.7280
  998MOL0     H37679   4.419   8.825   3.635 -1.2409 -2.1725 -0.6087
  998MOL0     H37680   4.296   8.985   3.475 -0.6862 -0.5651  2.0309
  998MOL0     H37681   4.386   8.885   3.346  1.8029  0.4950  0.8016
  998MOL0     H37682   4.212   8.954   3.239  2.8311 -0.9792  1.0162
  998MOL0     H37683   3.969   9.016   3.034  0.9636  1.6058  0.0541
  998MOL0     H37684   4.049   8.896   2.933 -1.0072 -0.7928  0.5152
  998MOL0     H37685   4.147   9.020   3.018  0.9569 -0.8010  0.9927
  998MOL0     H37686   3.556   8.653   2.980 -1.7882  1.2646  0.6064
  998MOL0     H37687   3.441   8.602   2.772 -1.7874  0.4886  0.0652
  998MOL0     H37688   3.462   8.904   2.423  0.4693 -0.4886  0.9449
  998MOL0     H37689   3.578   8.773   2.390 -0.6106 -0.4814 -1.0689
  998MOL0     H37690   3.420   8.708   2.230  0.2218  1.2943  0.1812
  998MOL0     H37691   3.368   8.623   2.384 -0.5934  1.0898  3.0596
  998MOL0     H37692   3.242   8.875   2.264 -0.8489  0.4699  0.5036
  998MOL0     H37693   3.206   8.813   2.423 -0.4737  0.9274 -0.3776
  998MOL0     H37694   3.104   8.601   2.296  0.5995 -2.0938 -2.5490
  998MOL0     H37695   3.177   8.658   2.153 -2.0516 -3.5037 -0.5278
  998MOL0     H37696   2.964   8.808   2.321  2.6445  0.5766  1.6061
  998MOL0     H37697   3.009   8.849   2.160 -0.4998  1.4687  1.8755
  998MOL0     H37698   2.869   8.580   2.253  0.1555 -1.5948 -1.4917
  998MOL0     H37699   2.929   8.615   2.092 -1.4555 -2.3657  0.1213
  998MOL0     H37700   2.689   8.657   2.115 -1.2027  1.5213  0.2028
  998MOL0     H37701   2.769   8.792   2.056 -1.4669 -0.1818 -0.5689
  998MOL0     H37702   2.606   8.873   2.191  1.7316  0.9715 -1.6907
  998MOL0     H37703   2.742   8.895   2.307  0.5721 -0.2928 -1.1418
  998MOL0     H37704   3.692   8.878   2.559 -0.0982  0.6753  0.0191
  998MOL0     H37705   3.823   8.899   2.761 -0.4428  1.1591  1.5022
  998MOL0     H37706   3.901   8.583   3.247  0.7955 -0.4658 -2.8712
  998MOL0     H37707   4.061   8.598   3.429 -0.1279 -1.0351  0.7085
  998MOL0     H37708   4.017   9.966   3.767  1.3595 -0.2478  1.1954
  998MOL0     H37709   3.815   9.940   3.648 -0.6432  2.1570 -1.3827
  998MOL0     H37710   3.640   9.831   3.214 -0.2965 -0.4997 -1.4346
  998MOL0     H37711   3.464   9.804   3.094  1.1595  1.6289  1.0064
  998MOL0     H37712   3.145   9.658   2.985  0.0265  2.0468 -3.4637
  998MOL0     H37713   3.272   9.771   3.016 -2.7361  0.4024 -0.6166
  998MOL0     H37714   3.278   9.547   2.831 -0.8801  1.4802 -1.1529
  998MOL0     H37715   3.431   9.605   2.902 -1.0984 -1.8689  1.8436
  998MOL0     H37716   3.399   9.832   2.835  1.1365 -0.7274  0.3713
  998MOL0     H37717   3.392   9.725   2.697  2.2370 -0.7043  1.6373
  998MOL0     H37718   3.226   9.925   2.687 -2.3053 -1.2609 -2.5958
  998MOL0     H37719   3.156   9.869   2.845 -1.0247  0.5961 -0.3678
  998MOL0     H37720   2.997   9.581   2.575 -2.6770  0.1110  3.2920
  998MOL0     H37721   3.376   9.421   3.255 -0.2786 -0.4308  2.2874
  998MOL0     H37722   3.549   9.347   3.461 -2.7144 -0.0838  1.1334
  998MOL0     H37723   3.621   9.472   3.560 -2.0479  3.5361  1.7901
  998MOL0     H37724   3.445   9.467   3.538  1.6220 -0.7539  4.6787
  999MOL0     O37725   3.431   5.620   3.103  0.1370  0.1450  0.6399
  999MOL0     C37726   3.502   5.693   3.172  0.4629 -0.1535  0.1857
  999MOL0     O37727   3.618   5.658   3.235  0.5050 -1.0034 -0.2334
  999MOL0     C37728   3.646   5.523   3.253 -0.8140  0.1008 -0.2397
  999MOL0     C37729   3.785   5.482   3.234 -0.3364 -0.9157 -0.4830
  999MOL0     C37730   3.823   5.355   3.251  0.2796 -0.0230 -1.0943
  999MOL0     C37731   3.737   5.259   3.291  0.2908  0.6253 -0.2500
  999MOL0     O37732   3.798   5.134   3.318 -0.2534 -0.2060  0.2270
  999MOL0     C37733   3.702   5.028   3.326  0.7918 -0.0069  0.0628
  999MOL0     C37734   3.762   4.892   3.296  0.3194 -0.4373  0.8717
  999MOL0     C37735   3.752   4.850   3.139  0.2608 -0.5425  0.2734
  999MOL0     C37736   3.614   4.789   3.096 -0.2192 -0.1200 -0.1494
  999MOL0     C37737   3.613   4.640   3.122  0.4192  1.0613 -0.2963
  999MOL0     C37738   3.472   4.579   3.105  0.1479  0.3617  0.3804
  999MOL0     C37739   3.359   4.634   3.195  0.8572 -0.1763 -0.3557
  999MOL0     C37740   3.227   4.561   3.171  0.1256  0.0635 -0.6974
  999MOL0     N37741   3.170   4.603   3.050  0.7684 -0.9849 -0.2057
  999MOL0     C37742   3.181   4.534   2.935 -0.7999  0.4841 -0.9126
  999MOL0     C37743   3.074   4.565   2.858  0.2563 -0.0640 -0.4687
  999MOL0     C37744   3.040   4.513   2.723  0.0415 -0.4440 -0.5261
  999MOL0     C37745   2.943   4.402   2.739 -0.2703  1.0279  0.3032
  999MOL0     C37746   2.922   4.316   2.612 -0.4117 -0.1801  0.4494
  999MOL0     C37747   2.866   4.176   2.638  0.5917 -0.5863 -0.9866
  999MOL0     O37748   2.740   4.175   2.712 -0.0902 -0.0860 -0.1745
  999MOL0     C37749   2.634   4.154   2.623  1.1908  0.0900 -0.7757
  999MOL0     C37750   2.605   4.226   2.511 -0.0500 -1.2148 -0.4586
  999MOL0     C37751   2.502   4.182   2.427  0.7832 -0.4750  0.1005
  999MOL0     C37752   2.467   4.266   2.307  0.0944 -0.2792  0.9285
  999MOL0     C37753   2.429   4.068   2.459 -0.2587  0.0520 -0.4602
  999MOL0     C37754   2.302   4.028   2.402 -0.4577 -0.1944  0.3350
  999MOL0     O37755   2.188   4.030   2.480 -0.6131  0.1833 -0.2386
  999MOL0     C37756   2.201   4.089   2.604 -0.2507  0.6735  0.0831
  999MOL0     C37757   2.196   4.226   2.615  0.0244 -0.8843 -0.6452
  999MOL0     C37758   2.206   4.299   2.736  0.7048  0.7254 -0.1861
  999MOL0     C37759   2.195   4.225   2.857 -0.3537 -0.0326 -0.1980
  999MOL0     O37760   2.199   4.301   2.973 -0.4694 -0.3191 -0.0773
  999MOL0     C37761   2.211   4.234   3.100  0.4777 -0.6158  0.0045
  999MOL0     C37762   2.353   4.212   3.149 -0.3307 -0.7074  0.0905
  999MOL0     C37763   2.448   4.310   3.078 -0.2139  0.0622  0.0195
  999MOL0     C37764   2.586   4.300   3.144 -0.5623  0.4768 -0.7716
  999MOL0     C37765   2.688   4.401   3.092  0.4059 -0.3837 -0.7154
  999MOL0     C37766   2.815   4.420   3.178  0.7287 -0.8796 -0.5216
  999MOL0     C37767   2.907   4.308   3.177  1.1815  0.2325 -0.2752
  999MOL0     C37768   2.995   4.292   3.301  0.6044  0.1642 -0.5931
  999MOL0    Cl37769   2.913   4.238   3.456  0.0460  0.0655 -0.0258
  999MOL0     C37770   2.189   4.087   2.849  0.2661  0.4425  0.1866
  999MOL0     C37771   2.199   4.017   2.719  0.1342  0.3970 -0.0509
  999MOL0     O37772   2.305   4.006   2.287  0.4376  0.6031  1.4720
  999MOL0     C37773   2.470   3.991   2.572  0.5534  0.3576  0.0625
  999MOL0     C37774   2.563   4.041   2.660 -0.8603 -0.1587 -0.8334
  999MOL0     N37775   2.989   4.651   2.935  0.9974 -0.2622  1.0566
  999MOL0     N37776   3.057   4.678   3.038  0.4481  0.2244 -0.4737
  999MOL0     C37777   3.601   5.290   3.302 -0.0441 -0.6909  0.4027
  999MOL0     C37778   3.558   5.421   3.286  0.4571 -0.3982  1.0972
  999MOL0     C37779   3.446   5.824   3.194  0.4458 -0.3208  0.0562
  999MOL0     C37780   3.313   5.844   3.204 -0.8099 -0.1470  0.2430
  999MOL0     C37781   3.252   5.959   3.250  0.5336 -0.3070 -0.4922
  999MOL0     C37782   3.328   6.070   3.280  0.2102 -0.3830  0.9032
  999MOL0     O37783   3.298   6.187   3.333  0.7626  0.4524  0.2061
  999MOL0     C37784   3.163   6.217   3.324  0.7057  1.3500  1.0318
  999MOL0     C37785   3.137   6.363   3.349 -0.3327 -0.3690 -0.0153
  999MOL0     C37786   2.991   6.407   3.325 -0.6541 -1.4855  0.6466
  999MOL0     C37787   2.967   6.534   3.421  0.2709  0.3949 -0.5828
  999MOL0     C37788   3.025   6.658   3.367  0.2735 -0.2989  0.5155
  999MOL0     C37789   3.073   6.752   3.306  0.0529 -0.7392  0.4408
  999MOL0     C37790   3.465   6.056   3.265  0.1447 -0.3728 -1.0622
  999MOL0     C37791   3.521   5.936   3.226 -1.1228 -0.1592  0.5174
  999MOL0     C37792   3.674   5.941   3.218 -0.4897  1.2648  0.6838
  999MOL0     H37793   3.854   5.564   3.217  0.0812 -1.0389  0.5775
  999MOL0     H37794   3.928   5.327   3.254  0.4108  0.5201  0.9441
  999MOL0     H37795   3.621   5.039   3.253  1.1940 -2.6711 -0.9063
  999MOL0     H37796   3.664   5.029   3.429 -1.4895  2.2668 -0.6989
  999MOL0     H37797   3.866   4.892   3.329 -0.1006  0.3317  2.2387
  999MOL0     H37798   3.711   4.817   3.356  0.5904  0.1421  1.8374
  999MOL0     H37799   3.765   4.940   3.078  0.0043 -0.3850  0.4493
  999MOL0     H37800   3.824   4.774   3.109 -1.2095 -1.5963 -0.7029
  999MOL0     H37801   3.540   4.855   3.143 -0.8931 -1.7022  1.0881
  999MOL0     H37802   3.602   4.807   2.988  3.5719 -1.0199 -0.8546
  999MOL0     H37803   3.642   4.628   3.227 -1.7910  0.6724  0.3300
  999MOL0     H37804   3.692   4.583   3.072  2.7410  3.9870 -0.2139
  999MOL0     H37805   3.455   4.600   2.999  0.1038  0.7857  0.4702
  999MOL0     H37806   3.479   4.471   3.117  1.6170  0.3367 -0.4429
  999MOL0     H37807   3.339   4.740   3.179 -3.0832 -0.8925 -1.0856
  999MOL0     H37808   3.382   4.613   3.300  1.4873  1.1709 -0.2082
  999MOL0     H37809   3.239   4.452   3.161  1.4598  0.1792 -0.5745
  999MOL0     H37810   3.159   4.582   3.254  1.1739 -3.0426  1.1392
  999MOL0     H37811   3.254   4.458   2.911 -0.6970 -0.0363  0.8714
  999MOL0     H37812   3.133   4.477   2.677  1.9700  0.6266  2.3108
  999MOL0     H37813   2.996   4.585   2.652  2.1921  0.0898 -1.4268
  999MOL0     H37814   2.957   4.338   2.827 -0.2764 -3.4083 -2.6520
  999MOL0     H37815   2.849   4.454   2.759  0.7740  2.5382  1.6070
  999MOL0     H37816   2.854   4.378   2.553 -0.8226 -1.6559 -0.6619
  999MOL0     H37817   3.010   4.302   2.549  1.1359 -1.5171  2.7403
  999MOL0     H37818   2.860   4.127   2.541 -0.8579 -1.2567 -0.5754
  999MOL0     H37819   2.936   4.114   2.695  0.3334  0.0807  0.0784
  999MOL0     H37820   2.675   4.303   2.481  0.7034 -1.6284  0.2208
  999MOL0     H37821   2.360   4.289   2.315 -0.1853 -1.0011 -0.3601
  999MOL0     H37822   2.487   4.199   2.222 -0.4404  0.6670  0.0438
  999MOL0     H37823   2.523   4.358   2.295  1.4792 -1.1713  0.2860
  999MOL0     H37824   2.174   4.279   2.522  0.0765 -1.6933 -1.1313
  999MOL0     H37825   2.215   4.406   2.748  1.4813  0.7747 -1.0699
  999MOL0     H37826   2.168   4.302   3.174 -1.0645 -0.3187 -1.0916
  999MOL0     H37827   2.153   4.144   3.121 -1.7409  1.1138  1.8365
  999MOL0     H37828   2.355   4.206   3.258 -0.9540 -2.4849  0.0440
  999MOL0     H37829   2.374   4.109   3.119  3.4796  0.0986 -0.5252
  999MOL0     H37830   2.408   4.412   3.075 -3.8008 -1.2044 -0.6737
  999MOL0     H37831   2.462   4.275   2.976 -1.4317  1.1835 -0.5645
  999MOL0     H37832   2.624   4.204   3.108  0.7264  1.0072 -0.8926
  999MOL0     H37833   2.582   4.308   3.253  2.8818 -0.4951 -0.4566
  999MOL0     H37834   2.708   4.358   2.994 -1.3287 -3.6900  0.2504
  999MOL0     H37835   2.627   4.492   3.085 -3.7825 -2.9465 -1.0399
  999MOL0     H37836   2.793   4.429   3.285  1.7154 -4.1797  0.0747
  999MOL0     H37837   2.874   4.502   3.135 -1.1447 -0.1365 -1.8172
  999MOL0     H37838   2.970   4.306   3.087  1.0938 -2.5240 -0.3695
  999MOL0     H37839   2.847   4.217   3.173  0.5671  0.5856  0.7133
  999MOL0     H37840   3.054   4.382   3.319  0.2002  0.1135  1.1589
  999MOL0     H37841   3.060   4.207   3.278  2.3650  1.3870 -0.2782
  999MOL0     H37842   2.192   4.015   2.930 -1.9011 -0.2295 -0.2669
  999MOL0     H37843   2.196   3.909   2.715 -1.8791  0.3273  1.6734
  999MOL0     H37844   2.422   3.895   2.588 -1.9116  1.5333  0.2860
  999MOL0     H37845   2.593   3.987   2.749  2.2144 -2.4035 -3.0644
  999MOL0     H37846   3.532   5.216   3.341 -1.3417  0.0701 -0.3933
  999MOL0     H37847   3.452   5.442   3.291  1.0021  3.0011  0.5679
  999MOL0     H37848   3.257   5.761   3.163  2.9904 -0.8636 -4.4220
  999MOL0     H37849   3.144   5.963   3.250  0.5480  0.4545  0.1547
  999MOL0     H37850   3.119   6.179   3.231  0.0117 -2.0889  2.6034
  999MOL0     H37851   3.125   6.155   3.406  0.5272  1.0322  0.7123
  999MOL0     H37852   3.203   6.423   3.286  1.7594  0.0642  2.4285
  999MOL0     H37853   3.156   6.380   3.455 -2.2282 -0.9256  0.4542
  999MOL0     H37854   2.969   6.450   3.227  2.9276 -1.6312 -0.3669
  999MOL0     H37855   2.913   6.333   3.344 -1.7388 -0.6742 -0.5210
  999MOL0     H37856   3.017   6.507   3.515  0.6391 -2.1429 -1.4070
  999MOL0     H37857   2.862   6.548   3.445  1.0459 -0.0421  3.9623
  999MOL0     H37858   3.106   6.844   3.263 -4.6371 -0.1925 -2.6818
  999MOL0     H37859   3.518   6.148   3.290  1.4894 -1.2754 -0.5264
  999MOL0     H37860   3.722   5.893   3.132  1.4651  0.8007  1.9535
  999MOL0     H37861   3.715   6.042   3.209 -3.8683  2.5793 -2.7145
  999MOL0     H37862   3.720   5.886   3.301  7.3120  0.2981 -3.3102
 1000MOL0     O37863   0.228   2.657   2.303 -1.2041  0.0541  0.7847
 1000MOL0     C37864   0.258   2.684   2.416  0.3063 -0.4323  0.3866
 1000MOL0     O37865   0.305   2.806   2.457  0.0616 -0.1889  1.1297
 1000MOL0     C37866   0.318   2.913   2.364 -0.2720  0.9874 -1.1651
 1000MOL0     C37867   0.214   2.944   2.277  0.2371  0.1259  0.0538
 1000MOL0     C37868   0.224   3.049   2.195  0.3491  0.3595  0.6462
 1000MOL0     C37869   0.342   3.127   2.202 -0.7884 -0.5469 -0.2397
 1000MOL0     O37870   0.338   3.241   2.119 -0.5687  0.3401 -0.7809
 1000MOL0     C37871   0.466   3.264   2.053  0.5224  0.4343 -0.7434
 1000MOL0     C37872   0.428   3.346   1.932 -0.4627 -0.4352  0.7479
 1000MOL0     C37873   0.356   3.475   1.962  0.5002 -0.5226  0.5566
 1000MOL0     C37874   0.385   3.568   1.837  0.7331 -1.4679 -0.0867
 1000MOL0     C37875   0.316   3.702   1.858 -0.3920 -0.0893  0.0469
 1000MOL0     C37876   0.320   3.787   1.734 -0.3172  0.0568  0.8216
 1000MOL0     C37877   0.210   3.899   1.751  0.7261  1.0115 -0.0122
 1000MOL0     C37878   0.238   4.023   1.673  0.5937 -1.3993  0.1221
 1000MOL0     N37879   0.362   4.105   1.705  0.2938  0.2418 -0.3249
 1000MOL0     C37880   0.425   4.171   1.603 -0.3870 -0.2120 -0.9684
 1000MOL0     C37881   0.508   4.253   1.674 -0.5617 -1.1797  0.0404
 1000MOL0     C37882   0.601   4.353   1.616  0.2519  0.3403  0.1565
 1000MOL0     C37883   0.539   4.457   1.532 -0.1961 -0.6391 -0.9440
 1000MOL0     C37884   0.506   4.587   1.613  0.0957 -0.3141 -0.4521
 1000MOL0     C37885   0.404   4.561   1.728 -0.8541  0.1891 -1.1104
 1000MOL0     O37886   0.284   4.519   1.666  0.0513  0.0676 -0.7806
 1000MOL0     C37887   0.178   4.507   1.747 -0.2416 -0.0682 -0.3577
 1000MOL0     C37888   0.078   4.435   1.693  0.3545  0.4450  0.4785
 1000MOL0     C37889  -0.045   4.406   1.765  0.5132  0.0779 -1.1027
 1000MOL0     C37890  -0.166   4.352   1.686  0.4308  0.7321  0.6859
 1000MOL0     C37891  -0.042   4.442   1.905  0.3676  0.6725 -0.6336
 1000MOL0     C37892  -0.157   4.393   1.999  0.7623  0.1405 -0.0679
 1000MOL0     O37893  -0.148   4.441   2.123  0.0638  0.9049 -0.8821
 1000MOL0     C37894  -0.214   4.378   2.225 -1.5642  0.1930 -0.7341
 1000MOL0     C37895  -0.343   4.342   2.218 -0.4420 -0.1151  1.0714
 1000MOL0     C37896  -0.416   4.294   2.325  0.3278 -0.5097 -0.5982
 1000MOL0     C37897  -0.350   4.270   2.446  0.9192  0.8638 -0.4274
 1000MOL0     O37898  -0.397   4.222   2.564  1.3547  0.3517  0.5434
 1000MOL0     C37899  -0.539   4.186   2.569  0.4023  0.0136 -0.0605
 1000MOL0     C37900  -0.559   4.098   2.694 -0.1915 -0.4149 -0.5058
 1000MOL0     C37901  -0.511   4.169   2.820  0.2296 -0.1835 -0.6192
 1000MOL0     C37902  -0.524   4.078   2.946 -0.2754 -0.3327 -0.0637
 1000MOL0     C37903  -0.517   4.172   3.080  1.3466 -0.1120 -0.3513
 1000MOL0     C37904  -0.543   4.093   3.217  0.2801 -0.5872 -0.2273
 1000MOL0     C37905  -0.445   3.982   3.265 -0.1411 -0.4647  0.2668
 1000MOL0     C37906  -0.477   3.928   3.401 -0.0228  0.2404  0.6831
 1000MOL0    Cl37907  -0.345   3.815   3.430  0.3484  0.1359 -0.1487
 1000MOL0     C37908  -0.224   4.318   2.460  0.8293  1.3998  0.0505
 1000MOL0     C37909  -0.156   4.371   2.354 -0.0491 -0.0706 -0.2381
 1000MOL0     O37910  -0.239   4.309   1.957  0.2386  0.1978 -0.1119
 1000MOL0     C37911   0.065   4.520   1.960 -0.2729  0.6993 -0.8284
 1000MOL0     C37912   0.167   4.554   1.875 -0.3466  0.2480 -0.5185
 1000MOL0     N37913   0.504   4.230   1.815  0.4437 -0.0484 -0.6710
 1000MOL0     N37914   0.413   4.138   1.827 -0.7289  0.2078  0.1299
 1000MOL0     C37915   0.451   3.089   2.273  0.0715 -0.7569 -0.2149
 1000MOL0     C37916   0.433   2.982   2.368  0.8279  0.5352  0.4929
 1000MOL0     C37917   0.249   2.577   2.514  0.0636  0.1347 -0.1635
 1000MOL0     C37918   0.245   2.622   2.647  0.2662 -0.8087  0.9024
 1000MOL0     C37919   0.259   2.534   2.758  0.2162  0.3216  0.8848
 1000MOL0     C37920   0.281   2.402   2.732 -0.5560 -0.7440  0.1283
 1000MOL0     O37921   0.286   2.299   2.826 -0.2753  0.4013 -0.0280
 1000MOL0     C37922   0.285   2.337   2.974 -0.1121  0.5339  0.0203
 1000MOL0     C37923   0.422   2.325   3.039  0.7599 -0.6032 -0.0965
 1000MOL0     C37924   0.539   2.353   2.946 -1.0604 -0.1260 -0.2584
 1000MOL0     C37925   0.655   2.389   3.046  0.0277 -0.4905  0.8725
 1000MOL0     C37926   0.774   2.416   2.973  0.3439  1.1200 -0.9609
 1000MOL0     C37927   0.866   2.445   2.916 -0.5322  0.8320  0.0170
 1000MOL0     C37928   0.284   2.353   2.602 -0.1774 -0.6168 -0.0302
 1000MOL0     C37929   0.279   2.443   2.495  0.0690 -0.2715  0.2292
 1000MOL0     C37930   0.307   2.393   2.356  0.3018 -0.0997  0.0018
 1000MOL0     H37931   0.115   2.903   2.294  0.3908  0.5659  2.4698
 1000MOL0     H37932   0.146   3.089   2.130  2.5155 -0.6800 -2.8743
 1000MOL0     H37933   0.520   3.176   2.017 -0.7258 -0.9789  0.6956
 1000MOL0     H37934   0.533   3.316   2.122  0.9146 -0.9701 -0.0240
 1000MOL0     H37935   0.522   3.367   1.881 -0.5776 -2.2935 -0.3324
 1000MOL0     H37936   0.368   3.291   1.859 -1.1408  0.6987  0.4220
 1000MOL0     H37937   0.250   3.451   1.977  0.7494 -1.5177  0.7668
 1000MOL0     H37938   0.386   3.527   2.053 -0.3918  1.3366 -0.1542
 1000MOL0     H37939   0.488   3.601   1.823 -1.0192  4.3363 -2.0400
 1000MOL0     H37940   0.351   3.522   1.743  1.1321  1.1870 -1.6318
 1000MOL0     H37941   0.372   3.746   1.940 -0.8582 -1.8928  1.4120
 1000MOL0     H37942   0.219   3.681   1.904 -0.0048 -1.1683  0.3930
 1000MOL0     H37943   0.419   3.829   1.713 -1.2911  0.8485 -2.8091
 1000MOL0     H37944   0.300   3.731   1.642  5.5627  1.4650 -1.8111
 1000MOL0     H37945   0.219   3.928   1.856 -0.9606 -2.6134  1.3038
 1000MOL0     H37946   0.109   3.863   1.729 -0.2891  3.2061  0.7460
 1000MOL0     H37947   0.232   4.003   1.566  0.4323 -0.1967 -0.1065
 1000MOL0     H37948   0.156   4.095   1.685  1.7020  0.2474 -1.5720
 1000MOL0     H37949   0.413   4.167   1.495 -3.0095  1.1337 -0.8323
 1000MOL0     H37950   0.679   4.309   1.553  0.3986  0.5957  0.1581
 1000MOL0     H37951   0.651   4.396   1.704 -0.6999 -1.7879  1.8306
 1000MOL0     H37952   0.606   4.487   1.451 -0.5424 -1.4311 -1.5391
 1000MOL0     H37953   0.451   4.414   1.482 -2.7224  1.8289  1.1108
 1000MOL0     H37954   0.596   4.620   1.666  0.4134 -1.5930 -0.1600
 1000MOL0     H37955   0.466   4.666   1.548 -0.5273 -2.5043 -2.9071
 1000MOL0     H37956   0.456   4.498   1.801  0.7063  3.2768  0.6632
 1000MOL0     H37957   0.392   4.655   1.784 -2.5387 -1.0716  0.7871
 1000MOL0     H37958   0.088   4.406   1.588 -3.0491  1.7616 -0.3420
 1000MOL0     H37959  -0.159   4.359   1.577  0.0386 -0.4740  0.5735
 1000MOL0     H37960  -0.258   4.407   1.708 -0.7232 -1.4781  1.6861
 1000MOL0     H37961  -0.189   4.250   1.717 -2.1086  1.3614  1.1411
 1000MOL0     H37962  -0.392   4.364   2.124 -0.9658 -0.8067  1.1697
 1000MOL0     H37963  -0.517   4.259   2.304 -0.0294  1.0277 -1.6923
 1000MOL0     H37964  -0.596   4.278   2.581 -0.9313 -1.1140  3.7435
 1000MOL0     H37965  -0.572   4.133   2.479  1.0472  2.3075 -1.7482
 1000MOL0     H37966  -0.668   4.085   2.704 -0.0527 -3.4885 -1.9872
 1000MOL0     H37967  -0.503   4.004   2.694 -2.3217 -1.7674 -1.5364
 1000MOL0     H37968  -0.574   4.258   2.832  1.0813  0.4224 -0.5966
 1000MOL0     H37969  -0.405   4.194   2.819  0.2394  0.1491  1.6352
 1000MOL0     H37970  -0.453   3.995   2.945 -2.2173 -2.0656 -0.6524
 1000MOL0     H37971  -0.621   4.031   2.930  0.4502 -1.7766 -0.4043
 1000MOL0     H37972  -0.419   4.221   3.080  1.9947 -1.2577 -2.7608
 1000MOL0     H37973  -0.588   4.255   3.071  3.0097  2.5307  5.7146
 1000MOL0     H37974  -0.633   4.032   3.204  1.4562 -2.7539  1.1801
 1000MOL0     H37975  -0.567   4.160   3.299 -0.6711  0.7238 -1.5336
 1000MOL0     H37976  -0.341   4.016   3.263 -1.1398  2.9280 -1.0431
 1000MOL0     H37977  -0.445   3.899   3.194 -0.0623 -0.3700  0.1553
 1000MOL0     H37978  -0.571   3.872   3.407 -0.5582  1.1036  0.4399
 1000MOL0     H37979  -0.483   4.012   3.470  0.1122 -2.1804  3.8675
 1000MOL0     H37980  -0.173   4.306   2.555  1.6913  2.0525 -0.3271
 1000MOL0     H37981  -0.050   4.386   2.372 -0.0126 -0.8571  0.2631
 1000MOL0     H37982   0.065   4.550   2.064 -2.2409 -0.5871 -0.3959
 1000MOL0     H37983   0.244   4.617   1.920  0.4114 -0.4495 -0.8195
 1000MOL0     H37984   0.543   3.146   2.266 -0.0723 -0.6377 -1.2697
 1000MOL0     H37985   0.509   2.957   2.441  1.7301 -0.0068 -0.5973
 1000MOL0     H37986   0.224   2.726   2.671  3.3129 -0.3806  2.1442
 1000MOL0     H37987   0.250   2.570   2.860  2.6481 -1.0331  1.6532
 1000MOL0     H37988   0.230   2.426   3.006  2.8462  1.7237  2.3004
 1000MOL0     H37989   0.227   2.253   3.014  1.5307 -1.6044 -1.8775
 1000MOL0     H37990   0.430   2.227   3.087  1.3352 -2.1256 -3.0774
 1000MOL0     H37991   0.422   2.401   3.118 -0.6321 -0.1461 -0.5003
 1000MOL0     H37992   0.561   2.258   2.897  2.4519 -0.8733  2.3593
 1000MOL0     H37993   0.532   2.430   2.868  3.8010  0.5595 -0.3745
 1000MOL0     H37994   0.676   2.298   3.103  0.9563 -0.8318  0.0184
 1000MOL0     H37995   0.648   2.483   3.103 -0.0740 -0.6734  1.1640
 1000MOL0     H37996   0.952   2.481   2.863 -0.7101  0.8115 -0.2861
 1000MOL0     H37997   0.303   2.249   2.582 -1.1756 -0.8267  0.0277
 1000MOL0     H37998   0.380   2.448   2.295 -1.9854  2.4683 -0.6149
 1000MOL0     H37999   0.346   2.291   2.347 -0.6621 -0.3306 -2.5071
 1000MOL0     H38000   0.214   2.398   2.299  1.6495 -1.9122 -2.5843
 1001MOL0     O38001  10.572   1.277   3.728 -0.1866 -0.1264 -0.0577
 1001MOL0     C38002  10.647   1.181   3.746 -0.0590 -0.9396 -0.4089
 1001MOL0     O38003  10.623   1.071   3.827  0.0212 -0.7555  0.4020
 1001MOL0     C38004  10.498   1.042   3.884  0.5763 -0.2990 -0.3477
 1001MOL0     C38005  10.394   0.976   3.824  0.4312  0.4335  0.0328
 1001MOL0     C38006  10.281   0.930   3.900 -0.0638  0.1509 -0.1147
 1001MOL0     C38007  10.272   0.950   4.037 -0.5393 -0.0644 -0.2822
 1001MOL0     O38008  10.174   0.918   4.123  0.0852  0.0077  0.8490
 1001MOL0     C38009  10.038   0.930   4.077 -0.4881 -0.4604 -0.6287
 1001MOL0     C38010   9.940   0.923   4.199  0.1389 -1.7108  0.0815
 1001MOL0     C38011   9.961   1.057   4.270 -0.0709 -0.5988  0.0079
 1001MOL0     C38012   9.831   1.080   4.368 -0.5164 -0.5210  0.6463
 1001MOL0     C38013   9.769   1.216   4.320 -0.8340 -0.0321  0.3870
 1001MOL0     C38014   9.681   1.184   4.196  0.3243  0.3035  0.2517
 1001MOL0     C38015   9.631   1.317   4.116 -0.7860 -0.1502 -0.0526
 1001MOL0     C38016   9.748   1.395   4.044 -0.3815  0.8050  0.0749
 1001MOL0     N38017   9.684   1.499   3.972  0.3868  0.3029 -0.8769
 1001MOL0     C38018   9.592   1.485   3.868 -0.6906  0.5527  0.6813
 1001MOL0     C38019   9.570   1.615   3.828 -0.2679  0.6633 -0.7425
 1001MOL0     C38020   9.486   1.671   3.717  0.5281 -0.3630  0.6751
 1001MOL0     C38021   9.514   1.601   3.586  0.1271  0.3926 -0.0288
 1001MOL0     C38022   9.418   1.488   3.562  0.5820 -0.2334 -0.2003
 1001MOL0     C38023   9.487   1.379   3.462 -0.7166 -0.3184  0.4079
 1001MOL0     O38024   9.590   1.304   3.518 -0.8875 -0.6943 -0.2698
 1001MOL0     C38025   9.568   1.205   3.612  0.2115 -0.1411 -0.1615
 1001MOL0     C38026   9.679   1.140   3.660  0.7179 -0.1140 -0.4382
 1001MOL0     C38027   9.681   1.032   3.747  0.9673  0.9578 -0.8319
 1001MOL0     C38028   9.808   0.968   3.789  0.4511 -0.9904  0.2364
 1001MOL0     C38029   9.553   0.990   3.803  0.7923 -0.8191 -0.1661
 1001MOL0     C38030   9.537   0.882   3.903 -1.4968 -0.3185  1.2270
 1001MOL0     O38031   9.597   0.892   4.023 -0.5459 -0.6231  1.2153
 1001MOL0     C38032   9.568   0.807   4.120 -0.3385  0.0939 -0.9916
 1001MOL0     C38033   9.636   0.689   4.130 -0.7656 -0.2215  0.6939
 1001MOL0     C38034   9.618   0.587   4.225  0.6171 -0.1293  0.0578
 1001MOL0     C38035   9.544   0.613   4.341  0.5804 -0.1167  0.4326
 1001MOL0     O38036   9.527   0.544   4.453  0.3288  0.5552  0.1247
 1001MOL0     C38037   9.618   0.437   4.489 -0.3447  0.5163  0.4658
 1001MOL0     C38038   9.613   0.405   4.637 -0.2070 -0.0610 -0.2324
 1001MOL0     C38039   9.685   0.273   4.681 -0.9122  0.1568 -0.3730
 1001MOL0     C38040   9.600   0.142   4.654 -0.1574 -0.3949  0.5992
 1001MOL0     C38041   9.669   0.015   4.703  0.0053 -0.2061  0.0233
 1001MOL0     C38042   9.591  -0.116   4.673  1.1640  0.3093  0.7065
 1001MOL0     C38043   9.665  -0.243   4.692 -0.4396  0.0079 -0.2547
 1001MOL0     C38044   9.760  -0.273   4.573  0.5413 -0.0103  0.2078
 1001MOL0    Cl38045   9.661  -0.330   4.423  0.2805  0.9579 -0.2738
 1001MOL0     C38046   9.478   0.732   4.343  0.7855 -0.6984  0.8336
 1001MOL0     C38047   9.492   0.828   4.236  0.3927 -0.6739 -0.5840
 1001MOL0     O38048   9.454   0.805   3.877 -0.1850  0.1884 -0.4057
 1001MOL0     C38049   9.434   1.060   3.757  1.4575 -0.2017 -1.0290
 1001MOL0     C38050   9.438   1.162   3.660 -0.3271  0.5937 -1.0733
 1001MOL0     N38051   9.647   1.697   3.909 -0.1516  0.5590  0.6837
 1001MOL0     N38052   9.708   1.629   3.994  0.5357 -0.2855  0.0277
 1001MOL0     C38053  10.386   1.014   4.098 -1.0774 -0.0837 -0.2167
 1001MOL0     C38054  10.492   1.058   4.018 -0.6344  0.3313 -0.7002
 1001MOL0     C38055  10.780   1.183   3.677 -0.4404  0.0286  0.6920
 1001MOL0     C38056  10.836   1.303   3.643  0.1491 -0.6560 -0.0921
 1001MOL0     C38057  10.964   1.337   3.603  0.0360  0.4402  0.8593
 1001MOL0     C38058  11.042   1.229   3.575  0.5633  0.4837 -0.7769
 1001MOL0     O38059  11.172   1.247   3.529 -0.5590  0.6404 -0.1609
 1001MOL0     C38060  11.235   1.376   3.530  0.5021  0.2227  0.4498
 1001MOL0     C38061  11.369   1.389   3.451 -0.1203 -0.1179 -0.0696
 1001MOL0     C38062  11.460   1.258   3.465  1.0773  0.9649  0.3386
 1001MOL0     C38063  11.602   1.269   3.390 -0.0663 -0.0651  0.8776
 1001MOL0     C38064  11.660   1.398   3.426 -0.2681 -0.6659  0.2298
 1001MOL0     C38065  11.718   1.499   3.464  0.2909  0.0094  0.3577
 1001MOL0     C38066  10.995   1.099   3.597 -0.0948  0.2314 -0.4782
 1001MOL0     C38067  10.871   1.072   3.656  0.6503  0.0042 -0.1692
 1001MOL0     C38068  10.828   0.931   3.687 -0.1300 -0.1396  0.0336
 1001MOL0     H38069  10.401   0.955   3.718 -1.4866  1.3358 -0.3285
 1001MOL0     H38070  10.196   0.891   3.845  0.5697  1.9734 -2.5406
 1001MOL0     H38071  10.025   0.843   4.011 -1.8418  1.0158 -2.4350
 1001MOL0     H38072  10.014   1.026   4.029 -0.3330 -0.6462 -1.0844
 1001MOL0     H38073   9.839   0.894   4.169  0.9498 -3.0068 -1.5283
 1001MOL0     H38074   9.971   0.842   4.265  3.6843 -2.8119 -2.6369
 1001MOL0     H38075  10.050   1.044   4.332 -0.2483 -1.2502  0.1297
 1001MOL0     H38076   9.980   1.150   4.215 -3.7806  0.6693  0.5966
 1001MOL0     H38077   9.761   0.997   4.368  1.2546 -2.0900  0.7101
 1001MOL0     H38078   9.875   1.084   4.469  2.2500 -3.5677 -0.2614
 1001MOL0     H38079   9.850   1.289   4.310 -2.6574  2.0852  0.1963
 1001MOL0     H38080   9.698   1.251   4.395 -1.9762  0.0290 -0.6948
 1001MOL0     H38081   9.724   1.116   4.122  3.1841  1.5119  0.6658
 1001MOL0     H38082   9.598   1.128   4.241  1.6074 -2.4103 -0.5110
 1001MOL0     H38083   9.580   1.395   4.172  1.1093  1.7799 -0.8711
 1001MOL0     H38084   9.551   1.287   4.048 -2.4562  0.5872  1.5273
 1001MOL0     H38085   9.824   1.440   4.108  0.7150  0.9804 -1.2942
 1001MOL0     H38086   9.794   1.330   3.969 -2.2549  1.4267 -1.7078
 1001MOL0     H38087   9.550   1.400   3.815  1.1981 -0.0286  0.0539
 1001MOL0     H38088   9.526   1.772   3.703  1.2413 -0.9092 -1.6193
 1001MOL0     H38089   9.377   1.677   3.726  0.0902 -1.2060 -2.6371
 1001MOL0     H38090   9.502   1.668   3.500 -0.8241 -0.3588 -0.5049
 1001MOL0     H38091   9.621   1.578   3.589  0.3472  0.8624 -2.2769
 1001MOL0     H38092   9.398   1.430   3.652  2.1786 -4.3620 -2.2564
 1001MOL0     H38093   9.326   1.523   3.513  2.1950  1.1280 -2.4701
 1001MOL0     H38094   9.409   1.310   3.430 -1.4102  1.2572 -1.4439
 1001MOL0     H38095   9.510   1.433   3.370 -3.2694  1.0373  0.4894
 1001MOL0     H38096   9.774   1.175   3.623  0.3600  0.3714 -0.9227
 1001MOL0     H38097   9.869   0.950   3.700 -0.2899 -1.2687 -0.2237
 1001MOL0     H38098   9.794   0.869   3.833 -1.6332 -0.5122  0.7669
 1001MOL0     H38099   9.860   1.040   3.853 -0.2082 -1.0160  0.8095
 1001MOL0     H38100   9.714   0.675   4.056  0.2910  1.5205  1.4265
 1001MOL0     H38101   9.651   0.484   4.212 -0.5013 -0.5552  0.5467
 1001MOL0     H38102   9.588   0.348   4.433  0.9687 -0.3448  1.1059
 1001MOL0     H38103   9.719   0.462   4.454 -0.0939 -2.5346 -1.2927
 1001MOL0     H38104   9.645   0.487   4.702 -2.2418  2.3009 -2.0629
 1001MOL0     H38105   9.509   0.391   4.667  0.1700 -0.6314  0.8751
 1001MOL0     H38106   9.690   0.271   4.790 -2.3697  0.1303 -0.2870
 1001MOL0     H38107   9.788   0.271   4.646  0.0960 -1.0796  2.4452
 1001MOL0     H38108   9.570   0.133   4.549  0.5700  1.4883  0.1958
 1001MOL0     H38109   9.503   0.162   4.699  0.6622  2.5050  1.2928
 1001MOL0     H38110   9.767   0.017   4.653  0.4532 -3.9506  0.5125
 1001MOL0     H38111   9.696   0.026   4.808  2.9508  3.4063 -0.8785
 1001MOL0     H38112   9.548  -0.106   4.573 -0.2279 -0.1243  1.2353
 1001MOL0     H38113   9.504  -0.123   4.739  0.2269 -0.1439 -0.5357
 1001MOL0     H38114   9.605  -0.334   4.697  1.5804 -1.9530 -5.6080
 1001MOL0     H38115   9.722  -0.229   4.784 -0.8903 -0.3038  0.0740
 1001MOL0     H38116   9.830  -0.351   4.604  0.8629  0.5973  1.0488
 1001MOL0     H38117   9.819  -0.187   4.538 -2.3745  1.0140 -2.6877
 1001MOL0     H38118   9.404   0.739   4.423  0.0225 -3.2728  0.4661
 1001MOL0     H38119   9.447   0.926   4.244  1.1358 -0.3382 -0.4376
 1001MOL0     H38120   9.338   1.022   3.790  1.7988  0.9616  1.5820
 1001MOL0     H38121   9.352   1.223   3.637 -1.7672 -0.5555  0.9101
 1001MOL0     H38122  10.388   1.020   4.207  0.7370 -3.5026  0.0677
 1001MOL0     H38123  10.577   1.116   4.052 -0.4900  0.3487 -1.0777
 1001MOL0     H38124  10.768   1.388   3.646 -2.7831 -2.8449  1.8698
 1001MOL0     H38125  11.000   1.439   3.594  0.2164  0.4805  1.9161
 1001MOL0     H38126  11.170   1.455   3.491  3.3478  2.5787  0.0914
 1001MOL0     H38127  11.265   1.400   3.633 -0.9302 -0.6760  1.1036
 1001MOL0     H38128  11.429   1.477   3.473  1.7625 -1.5051  0.6045
 1001MOL0     H38129  11.332   1.410   3.350  0.2363  1.4392  0.1050
 1001MOL0     H38130  11.471   1.238   3.571 -1.1361  0.8434  0.5938
 1001MOL0     H38131  11.411   1.172   3.417 -1.7301  2.8451 -0.4045
 1001MOL0     H38132  11.581   1.268   3.283 -4.7598  0.4256  1.5883
 1001MOL0     H38133  11.668   1.190   3.426 -1.3916 -2.1943 -1.1208
 1001MOL0     H38134  11.765   1.583   3.512 -1.5355  0.8132  0.8526
 1001MOL0     H38135  11.064   1.022   3.562  0.4894  0.2311  0.6423
 1001MOL0     H38136  10.911   0.867   3.658 -0.6443 -0.5202 -0.6177
 1001MOL0     H38137  10.811   0.923   3.795 -0.4941 -0.8668 -0.0744
 1001MOL0     H38138  10.736   0.903   3.636  0.2795  1.5499 -1.7867
 1002MOL0     O38139   3.196   5.765  10.462 -0.2624  1.2463  0.1056
 1002MOL0     C38140   3.167   5.764  10.582  0.3697 -0.0277  0.1958
 1002MOL0     O38141   3.079   5.857  10.647 -0.3178  0.5561 -0.6847
 1002MOL0     C38142   3.020   5.944  10.563  1.0728  0.0316  0.3942
 1002MOL0     C38143   2.917   5.899  10.480  0.7549  0.3055 -0.1753
 1002MOL0     C38144   2.842   5.984  10.405 -0.1352 -0.1167 -0.6624
 1002MOL0     C38145   2.884   6.118  10.397  0.2578  0.4399  0.0420
 1002MOL0     O38146   2.820   6.212  10.322  0.2647 -0.2216 -0.2438
 1002MOL0     C38147   2.680   6.199  10.302 -0.4023  0.8694  0.6710
 1002MOL0     C38148   2.619   6.327  10.250 -1.0775  0.5003 -0.4214
 1002MOL0     C38149   2.486   6.307  10.182  0.6086  0.5407 -0.3786
 1002MOL0     C38150   2.424   6.433  10.130  0.0684 -0.0569  0.2894
 1002MOL0     C38151   2.290   6.415  10.074 -0.7328  0.3309  0.4313
 1002MOL0     C38152   2.179   6.389  10.175  0.3923  0.6494 -0.0626
 1002MOL0     C38153   2.063   6.304  10.108 -1.0622 -0.7805  0.4466
 1002MOL0     C38154   1.961   6.258  10.206  0.7358  0.2021  0.4726
 1002MOL0     N38155   1.874   6.353  10.276 -0.3938 -0.2317  0.3463
 1002MOL0     C38156   1.904   6.418  10.400  0.8841 -0.5205  1.2499
 1002MOL0     C38157   1.792   6.493  10.422  0.6206 -0.2020  0.2940
 1002MOL0     C38158   1.745   6.555  10.557 -0.4144  0.1037 -0.1318
 1002MOL0     C38159   1.755   6.449  10.666 -0.6012 -0.2497 -0.7877
 1002MOL0     C38160   1.716   6.514  10.802 -0.2853 -0.3708  0.1861
 1002MOL0     C38161   1.750   6.425  10.914  0.2393 -0.3927  0.1251
 1002MOL0     O38162   1.727   6.501  11.034 -0.7131 -0.4534 -0.2082
 1002MOL0     C38163   1.600   6.533  11.073 -0.4616  0.6628 -0.2111
 1002MOL0     C38164   1.595   6.620  11.175 -0.3419 -0.1628 -0.3199
 1002MOL0     C38165   1.477   6.673  11.233  0.4495  0.8879  0.3724
 1002MOL0     C38166   1.491   6.775  11.343  1.0107  0.7946  0.0612
 1002MOL0     C38167   1.352   6.632  11.170  0.7156  0.5799 -0.2972
 1002MOL0     C38168   1.223   6.695  11.200  0.6241  0.4338  0.1338
 1002MOL0     O38169   1.118   6.607  11.198  0.6334  0.1502  1.4619
 1002MOL0     C38170   0.983   6.651  11.211  0.0262  0.1985 -1.0095
 1002MOL0     C38171   0.941   6.756  11.296 -0.6850 -0.0852  0.1117
 1002MOL0     C38172   0.811   6.802  11.291 -0.2626  0.6226 -0.2087
 1002MOL0     C38173   0.704   6.712  11.245 -0.0346  0.4915  0.0907
 1002MOL0     O38174   0.570   6.756  11.232 -0.2280 -0.6156 -0.0581
 1002MOL0     C38175   0.540   6.863  11.322 -0.5668 -0.6564 -1.5083
 1002MOL0     C38176   0.394   6.891  11.318  0.4498  0.1058 -0.8986
 1002MOL0     C38177   0.300   6.782  11.362  0.0197  0.0577  0.8281
 1002MOL0     C38178   0.158   6.818  11.326  0.9662  0.2796 -0.4794
 1002MOL0     C38179   0.105   6.936  11.400  0.1210 -0.4470 -1.0813
 1002MOL0     C38180  -0.048   6.931  11.440 -0.3898  0.6267 -0.3656
 1002MOL0     C38181  -0.136   6.929  11.311 -0.1485  0.1374  0.3734
 1002MOL0     C38182  -0.284   6.948  11.322  0.2400  0.1360 -0.0345
 1002MOL0    Cl38183  -0.329   6.782  11.348  0.6739  0.5943 -0.1919
 1002MOL0     C38184   0.744   6.599  11.177  0.7100 -0.4122 -0.4598
 1002MOL0     C38185   0.872   6.578  11.152 -1.0866 -0.4317  0.1797
 1002MOL0     O38186   1.212   6.819  11.205 -0.2563  0.3336  0.6693
 1002MOL0     C38187   1.358   6.523  11.073  0.1298 -0.0373 -0.3130
 1002MOL0     C38188   1.482   6.476  11.025 -0.0778  0.2972  0.4515
 1002MOL0     N38189   1.720   6.494  10.306 -0.5342  0.6401  0.5803
 1002MOL0     N38190   1.764   6.411  10.212  0.0035  0.0089 -0.4014
 1002MOL0     C38191   2.998   6.158  10.458  0.8464 -0.2094  0.3630
 1002MOL0     C38192   3.057   6.072  10.546 -0.8040  0.4816  0.7335
 1002MOL0     C38193   3.204   5.651  10.676 -0.4964 -0.3070 -0.8745
 1002MOL0     C38194   3.195   5.669  10.812  0.4359  0.4534 -0.5457
 1002MOL0     C38195   3.252   5.577  10.905  0.6507  0.2844 -0.2576
 1002MOL0     C38196   3.302   5.448  10.852  0.4864  0.0204  0.7915
 1002MOL0     O38197   3.355   5.354  10.933 -0.1619  0.3750  0.1082
 1002MOL0     C38198   3.334   5.350  11.083  0.2015 -0.1045  0.0890
 1002MOL0     C38199   3.184   5.324  11.112  0.0940 -0.1130 -0.3748
 1002MOL0     C38200   3.155   5.338  11.268 -0.2160  0.3413 -0.9549
 1002MOL0     C38201   3.055   5.227  11.309  0.2623 -1.0016 -0.3367
 1002MOL0     C38202   2.982   5.272  11.428  0.3113 -0.8248  0.0250
 1002MOL0     C38203   2.939   5.329  11.528  0.0702  0.3999 -0.3559
 1002MOL0     C38204   3.305   5.428  10.711 -0.1965 -0.0412  0.2527
 1002MOL0     C38205   3.265   5.529  10.625  0.2924 -0.6540 -0.4213
 1002MOL0     C38206   3.300   5.506  10.486 -0.0882 -0.7608  0.8489
 1002MOL0     H38207   2.900   5.791  10.481 -1.5350  0.6153 -0.5383
 1002MOL0     H38208   2.754   5.950  10.351 -2.4076  1.3901  1.8524
 1002MOL0     H38209   2.633   6.166  10.395  0.8669  0.8041  1.3105
 1002MOL0     H38210   2.657   6.122  10.228  0.0932  0.4409  0.9607
 1002MOL0     H38211   2.610   6.401  10.330 -1.3876 -0.7076  0.6902
 1002MOL0     H38212   2.695   6.366  10.182 -0.7562  0.0070 -0.3501
 1002MOL0     H38213   2.495   6.230  10.105 -3.4351 -2.4721  1.7601
 1002MOL0     H38214   2.413   6.270  10.255 -1.6519  3.5176 -0.9615
 1002MOL0     H38215   2.418   6.510  10.208 -0.6225 -0.9659  1.1756
 1002MOL0     H38216   2.492   6.465  10.051  0.3997 -3.0461 -0.7846
 1002MOL0     H38217   2.286   6.328  10.008 -1.1237 -0.7797  1.8478
 1002MOL0     H38218   2.266   6.506  10.019  0.9992  0.4368 -0.2022
 1002MOL0     H38219   2.221   6.333  10.259 -3.8613 -0.7212  1.3917
 1002MOL0     H38220   2.125   6.469  10.227 -2.5245 -1.0963 -0.2065
 1002MOL0     H38221   2.107   6.213  10.068 -0.6959  0.9025 -3.3459
 1002MOL0     H38222   2.026   6.353  10.018  1.2382 -1.0074 -0.6961
 1002MOL0     H38223   1.894   6.192  10.150  3.3968  0.5835 -3.5959
 1002MOL0     H38224   2.023   6.200  10.275 -0.4810 -1.2022  0.4149
 1002MOL0     H38225   1.996   6.399  10.454  1.2775  0.2024  0.8605
 1002MOL0     H38226   1.644   6.595  10.544 -1.8115 -2.2077  2.5516
 1002MOL0     H38227   1.811   6.637  10.587  0.1021  0.0977 -1.1975
 1002MOL0     H38228   1.693   6.361  10.646  1.0263 -1.7539  0.4943
 1002MOL0     H38229   1.856   6.408  10.676 -0.5161  0.5512  2.8055
 1002MOL0     H38230   1.763   6.612  10.814 -0.3587 -0.2157 -0.7117
 1002MOL0     H38231   1.607   6.525  10.805 -0.3050 -0.6927  0.8649
 1002MOL0     H38232   1.697   6.329  10.913  0.1423 -0.4422  2.9828
 1002MOL0     H38233   1.854   6.392  10.908  0.9493  1.6795  0.1742
 1002MOL0     H38234   1.684   6.665  11.219 -1.3779  1.0912  0.5547
 1002MOL0     H38235   1.580   6.836  11.324  1.0927 -0.0095 -2.5140
 1002MOL0     H38236   1.478   6.709  11.429 -2.1882  1.8877  0.5410
 1002MOL0     H38237   1.406   6.843  11.348 -0.3334 -0.4842 -2.8397
 1002MOL0     H38238   1.015   6.818  11.347  0.5517 -2.0628  0.8443
 1002MOL0     H38239   0.774   6.891  11.342 -2.3483 -0.9675  1.2558
 1002MOL0     H38240   0.577   6.842  11.422  2.3605  3.0601 -1.5800
 1002MOL0     H38241   0.589   6.954  11.286 -1.3915 -0.0085 -1.0268
 1002MOL0     H38242   0.372   6.971  11.388  1.3089 -2.1643  2.1860
 1002MOL0     H38243   0.373   6.929  11.217  2.3828  0.7254 -1.1149
 1002MOL0     H38244   0.310   6.766  11.470  2.3547 -1.0044  0.5317
 1002MOL0     H38245   0.321   6.696  11.298 -0.5162  1.2768 -1.0989
 1002MOL0     H38246   0.094   6.729  11.325  3.6187 -1.7900 -3.0390
 1002MOL0     H38247   0.163   6.840  11.219  3.0073 -0.5403 -0.5928
 1002MOL0     H38248   0.154   6.944  11.498  0.7182  3.3127 -1.5270
 1002MOL0     H38249   0.119   7.035  11.356  1.7230 -0.1039  0.0826
 1002MOL0     H38250  -0.076   7.009  11.512  1.2917  0.9610 -0.0454
 1002MOL0     H38251  -0.062   6.835  11.491 -0.4407 -0.8590 -3.0383
 1002MOL0     H38252  -0.116   6.845  11.245 -3.7005 -0.3636 -0.2353
 1002MOL0     H38253  -0.119   7.022  11.255 -1.6518 -1.3265 -2.7321
 1002MOL0     H38254  -0.332   6.983  11.230 -0.9353 -1.2580  0.0134
 1002MOL0     H38255  -0.326   6.999  11.409  0.7506 -2.4937  1.8870
 1002MOL0     H38256   0.663   6.536  11.142  0.0809  0.6168 -0.9068
 1002MOL0     H38257   0.905   6.495  11.090  0.2406  0.0548  0.2002
 1002MOL0     H38258   1.265   6.483  11.033  1.3750  0.6954 -4.3673
 1002MOL0     H38259   1.481   6.399  10.950 -1.3791 -0.8382  1.5859
 1002MOL0     H38260   3.031   6.262  10.456 -2.5787  1.0326  0.6893
 1002MOL0     H38261   3.142   6.103  10.605  0.7184  1.6253 -1.8572
 1002MOL0     H38262   3.138   5.756  10.843  1.0900  0.8310 -0.3902
 1002MOL0     H38263   3.248   5.588  11.013  0.0765  2.7076 -0.4654
 1002MOL0     H38264   3.394   5.281  11.143  1.6858  0.6891 -0.4201
 1002MOL0     H38265   3.365   5.444  11.130  1.6248  0.3790 -1.7276
 1002MOL0     H38266   3.159   5.221  11.086 -2.2986 -0.0225  1.2224
 1002MOL0     H38267   3.115   5.387  11.057  0.3672  1.2668  0.7980
 1002MOL0     H38268   3.249   5.332  11.325 -0.0132 -0.4157 -1.3539
 1002MOL0     H38269   3.113   5.436  11.290  2.0398  1.2535 -0.4295
 1002MOL0     H38270   3.110   5.133  11.320  0.7794 -0.4611  2.3594
 1002MOL0     H38271   2.976   5.202  11.237 -2.2279 -2.8582  2.7654
 1002MOL0     H38272   2.905   5.369  11.621  1.6964 -0.3625  0.6157
 1002MOL0     H38273   3.347   5.334  10.675  1.4722  0.6212  0.3989
 1002MOL0     H38274   3.374   5.584  10.467  0.2355 -1.2225  0.2081
 1002MOL0     H38275   3.347   5.409  10.465  3.4504  1.2726 -1.6733
 1002MOL0     H38276   3.211   5.516  10.423 -0.5184 -0.5823  1.4680
 1003MOL0     O38277   5.947   1.774   0.414 -0.7245 -0.3021 -0.0338
 1003MOL0     C38278   6.044   1.765   0.496  0.3352  0.3582 -0.3862
 1003MOL0     O38279   6.103   1.868   0.555 -0.4512 -0.4966 -0.5073
 1003MOL0     C38280   6.076   1.994   0.508  0.9339  0.2633  0.5893
 1003MOL0     C38281   6.090   2.030   0.374 -0.0901 -0.0499 -0.6590
 1003MOL0     C38282   6.080   2.164   0.341 -0.6551  0.8139 -0.3752
 1003MOL0     C38283   6.064   2.268   0.424  0.7242  0.5060  0.5369
 1003MOL0     O38284   6.071   2.394   0.370  1.2152  0.0208 -0.7159
 1003MOL0     C38285   6.048   2.502   0.463  0.4017  0.1312  0.2367
 1003MOL0     C38286   6.062   2.623   0.381  0.2438  0.2443 -0.9838
 1003MOL0     C38287   6.065   2.750   0.467  0.2728  0.0488  0.2755
 1003MOL0     C38288   6.174   2.854   0.416  0.0999 -0.4601 -1.0473
 1003MOL0     C38289   6.167   2.973   0.517  0.5459  0.5346  0.1439
 1003MOL0     C38290   6.260   3.096   0.502 -0.3768  1.0916  0.0543
 1003MOL0     C38291   6.243   3.176   0.370  0.3070  0.0723 -0.2801
 1003MOL0     C38292   6.101   3.192   0.330  0.1199  0.4759 -0.3288
 1003MOL0     N38293   6.094   3.265   0.200 -1.0433  0.4386  0.1807
 1003MOL0     C38294   5.975   3.284   0.140  0.8855 -0.5163  0.4134
 1003MOL0     C38295   6.002   3.362   0.031  0.3601 -0.0346 -0.3485
 1003MOL0     C38296   5.910   3.403  -0.081 -0.5856 -0.3406  0.7521
 1003MOL0     C38297   5.826   3.514  -0.035  0.9658 -0.6903 -0.2126
 1003MOL0     C38298   5.740   3.496   0.091  0.7119  0.4050 -0.1024
 1003MOL0     C38299   5.625   3.403   0.075 -0.4401  0.4635  1.2419
 1003MOL0     O38300   5.536   3.433  -0.031  0.2899  0.7912  0.1140
 1003MOL0     C38301   5.447   3.539  -0.030 -0.0904 -0.6612  0.9275
 1003MOL0     C38302   5.428   3.626   0.081 -0.3512 -0.5868 -0.4637
 1003MOL0     C38303   5.340   3.734   0.073  0.6897 -1.0161 -0.6848
 1003MOL0     C38304   5.324   3.818   0.205 -0.7642 -0.1402  0.3301
 1003MOL0     C38305   5.264   3.764  -0.050 -0.0836 -0.4210  0.4227
 1003MOL0     C38306   5.165   3.876  -0.074 -0.5233  0.2353 -0.1061
 1003MOL0     O38307   5.058   3.839  -0.138  0.1532  0.0814  0.4012
 1003MOL0     C38308   4.958   3.932  -0.167  0.5448 -1.0012 -0.4025
 1003MOL0     C38309   4.870   3.874  -0.261  0.4244 -0.2098 -0.2529
 1003MOL0     C38310   4.746   3.942  -0.293  0.4074  0.8517 -1.0768
 1003MOL0     C38311   4.710   4.060  -0.223  1.0792 -0.0978  0.4310
 1003MOL0     O38312   4.588   4.118  -0.234 -0.8705  0.8595 -0.4195
 1003MOL0     C38313   4.488   4.025  -0.199  0.1809 -0.3250  0.3076
 1003MOL0     C38314   4.355   4.096  -0.165 -0.3027  0.1084 -0.2741
 1003MOL0     C38315   4.288   4.160  -0.285 -0.7363 -0.5450  0.1007
 1003MOL0     C38316   4.139   4.190  -0.255 -0.1030 -0.3116  0.3616
 1003MOL0     C38317   4.056   4.238  -0.375  0.2511  0.0235  0.6185
 1003MOL0     C38318   3.907   4.222  -0.350  0.3353 -0.3221 -0.2651
 1003MOL0     C38319   3.841   4.295  -0.462 -0.4166  0.4333  0.1971
 1003MOL0     C38320   3.690   4.279  -0.474  0.5743 -0.0446 -0.6769
 1003MOL0    Cl38321   3.646   4.106  -0.506  0.1388  0.0730 -0.1787
 1003MOL0     C38322   4.806   4.121  -0.143 -0.1738 -0.5223 -1.1637
 1003MOL0     C38323   4.928   4.058  -0.108  0.2387 -0.2899 -0.3583
 1003MOL0     O38324   5.194   3.991  -0.042 -0.4187  0.3990 -0.7521
 1003MOL0     C38325   5.279   3.672  -0.159 -0.7623 -0.0247  0.1202
 1003MOL0     C38326   5.373   3.565  -0.151 -0.4121 -0.0272  0.1056
 1003MOL0     N38327   6.138   3.387   0.024  0.2474  0.6834 -0.8223
 1003MOL0     N38328   6.194   3.323   0.128 -0.5721  0.5410  0.2512
 1003MOL0     C38329   6.046   2.229   0.558 -0.1371  0.4515 -0.8275
 1003MOL0     C38330   6.046   2.093   0.602  0.2804 -0.2649 -0.3948
 1003MOL0     C38331   6.106   1.634   0.528  0.8275 -0.8646  0.3640
 1003MOL0     C38332   6.038   1.554   0.626  0.0138  0.0800  0.2482
 1003MOL0     C38333   6.079   1.427   0.655 -0.1382 -0.5167  0.5600
 1003MOL0     C38334   6.186   1.376   0.574  1.0549  0.1078  0.0599
 1003MOL0     O38335   6.224   1.235   0.577 -0.3498 -0.1000  0.4903
 1003MOL0     C38336   6.285   1.153   0.471  0.0167  0.3932  0.8994
 1003MOL0     C38337   6.193   1.097   0.357 -0.4495 -0.1189 -0.2504
 1003MOL0     C38338   6.140   1.219   0.288 -0.6107 -0.3606  0.0766
 1003MOL0     C38339   6.032   1.188   0.186  0.1484  0.5538  0.1172
 1003MOL0     C38340   5.939   1.085   0.215  0.3831  1.4127  0.0016
 1003MOL0     C38341   5.855   1.001   0.238  1.1628 -0.3934  0.9942
 1003MOL0     C38342   6.261   1.461   0.494 -0.2564 -0.5315  1.2322
 1003MOL0     C38343   6.229   1.598   0.471 -0.6687  0.2056 -0.1628
 1003MOL0     C38344   6.283   1.682   0.358 -0.4328  0.1173 -0.4521
 1003MOL0     H38345   6.105   1.951   0.300 -2.1092 -0.1515 -1.0164
 1003MOL0     H38346   6.092   2.191   0.237  3.2114  0.1873 -0.2382
 1003MOL0     H38347   6.128   2.505   0.538 -0.1325 -1.7332  0.9248
 1003MOL0     H38348   5.955   2.484   0.518  1.3387 -2.8945  1.0033
 1003MOL0     H38349   6.153   2.613   0.321  4.2101  1.9455  4.0756
 1003MOL0     H38350   5.973   2.629   0.317  0.0065 -0.5647 -0.7407
 1003MOL0     H38351   5.962   2.787   0.477 -0.5943 -1.9060 -0.7840
 1003MOL0     H38352   6.097   2.719   0.567  2.6787 -1.1670 -0.7836
 1003MOL0     H38353   6.274   2.811   0.412 -0.5319 -2.1281  0.1622
 1003MOL0     H38354   6.146   2.887   0.315  1.6873 -0.3537 -1.4803
 1003MOL0     H38355   6.202   2.917   0.604 -2.4124  0.2574  1.2918
 1003MOL0     H38356   6.062   2.993   0.544 -0.2237 -1.5369 -1.0800
 1003MOL0     H38357   6.246   3.164   0.587  3.0948  3.4609 -1.0435
 1003MOL0     H38358   6.359   3.050   0.504 -1.4363 -1.3997 -0.7524
 1003MOL0     H38359   6.306   3.141   0.288  0.9010 -0.3424  0.3401
 1003MOL0     H38360   6.286   3.273   0.397 -0.4318  0.2926  0.1212
 1003MOL0     H38361   6.052   3.094   0.327  2.5590 -0.8552 -3.6841
 1003MOL0     H38362   6.049   3.255   0.402  1.5741  1.0398  0.2681
 1003MOL0     H38363   5.876   3.245   0.156  0.8125 -0.6982 -0.4349
 1003MOL0     H38364   5.843   3.319  -0.103 -2.5999  1.2696  0.4033
 1003MOL0     H38365   5.960   3.414  -0.178  1.7390 -4.6906  1.1990
 1003MOL0     H38366   5.891   3.601  -0.035  0.8405 -0.5917 -0.5778
 1003MOL0     H38367   5.760   3.549  -0.115  0.0385 -0.6409  0.5583
 1003MOL0     H38368   5.804   3.480   0.178 -1.9262 -0.4621  1.8048
 1003MOL0     H38369   5.687   3.583   0.130 -1.5785 -1.6758  1.7174
 1003MOL0     H38370   5.656   3.300   0.051  0.0813  0.9898 -0.5031
 1003MOL0     H38371   5.572   3.401   0.170 -2.6568 -3.0482  0.1348
 1003MOL0     H38372   5.470   3.601   0.178  0.2476 -0.5827 -0.7225
 1003MOL0     H38373   5.291   3.746   0.280 -0.1154 -1.2154 -0.3951
 1003MOL0     H38374   5.249   3.899   0.200  1.6214  2.1376 -0.9435
 1003MOL0     H38375   5.409   3.878   0.239 -0.6183 -0.3843  0.4008
 1003MOL0     H38376   4.903   3.783  -0.310  1.3058 -0.2950  0.4633
 1003MOL0     H38377   4.686   3.893  -0.369  1.6948 -2.7320  0.0289
 1003MOL0     H38378   4.477   3.954  -0.280 -0.9262  1.8912 -1.6010
 1003MOL0     H38379   4.518   3.955  -0.120  0.3526 -0.1689  0.3803
 1003MOL0     H38380   4.293   4.023  -0.112  0.4844  0.1713  0.7623
 1003MOL0     H38381   4.364   4.170  -0.085 -4.1345 -1.2471  1.6350
 1003MOL0     H38382   4.284   4.089  -0.368 -3.4684  1.2647 -1.4767
 1003MOL0     H38383   4.338   4.253  -0.311  0.8100 -1.0500  1.1328
 1003MOL0     H38384   4.137   4.260  -0.172  1.9741  1.1825 -0.7531
 1003MOL0     H38385   4.082   4.106  -0.214  1.3208 -1.7789 -0.5412
 1003MOL0     H38386   4.079   4.344  -0.394  1.8118 -0.4356 -0.2447
 1003MOL0     H38387   4.079   4.172  -0.459 -1.7920  1.0569 -0.8532
 1003MOL0     H38388   3.872   4.264  -0.255 -3.0512  0.1660 -1.5973
 1003MOL0     H38389   3.881   4.116  -0.345 -2.5166  0.3113 -0.0458
 1003MOL0     H38390   3.893   4.285  -0.558 -1.8969 -2.5886 -0.4028
 1003MOL0     H38391   3.854   4.402  -0.443 -2.6171  0.8102 -0.1039
 1003MOL0     H38392   3.654   4.348  -0.551 -0.2011  1.7087  1.1703
 1003MOL0     H38393   3.639   4.304  -0.380 -2.2506 -0.3286 -2.0211
 1003MOL0     H38394   4.789   4.221  -0.104 -1.0249 -2.0777  2.9688
 1003MOL0     H38395   4.993   4.092  -0.028  1.6571 -3.6608  0.0599
 1003MOL0     H38396   5.224   3.693  -0.250 -2.1908  2.0897  1.3816
 1003MOL0     H38397   5.393   3.499  -0.236  2.7985  1.6747 -0.6166
 1003MOL0     H38398   6.023   2.296   0.640  1.4859 -1.1095  1.0015
 1003MOL0     H38399   6.042   2.066   0.707 -1.4410  1.4555  0.0146
 1003MOL0     H38400   5.945   1.590   0.669 -0.9856 -1.4791 -0.5188
 1003MOL0     H38401   6.038   1.362   0.732 -0.3165 -1.3521 -0.2267
 1003MOL0     H38402   6.369   1.211   0.431  0.7846 -0.7263  0.8372
 1003MOL0     H38403   6.335   1.067   0.516  3.3776  2.2744  1.1074
 1003MOL0     H38404   6.118   1.032   0.402 -1.1709 -0.9837 -2.6012
 1003MOL0     H38405   6.239   1.051   0.269  0.1046 -1.7949  0.8691
 1003MOL0     H38406   6.091   1.282   0.364  0.4673 -0.3732  0.8074
 1003MOL0     H38407   6.224   1.271   0.241 -1.6041 -0.2907 -1.6932
 1003MOL0     H38408   6.077   1.153   0.092 -1.2974 -0.7962 -0.0953
 1003MOL0     H38409   5.977   1.281   0.167  1.3494  1.1578 -0.5330
 1003MOL0     H38410   5.774   0.951   0.287 -1.5052  1.4661 -1.1385
 1003MOL0     H38411   6.338   1.425   0.426  1.0876  1.9982  1.3191
 1003MOL0     H38412   6.262   1.789   0.362 -0.5483  0.3167 -3.7189
 1003MOL0     H38413   6.391   1.673   0.353 -0.1671  2.4676  0.0429
 1003MOL0     H38414   6.235   1.645   0.266 -0.6290 -1.7285  0.3467
 1004MOL0     O38415   6.143   5.131   9.154 -0.1907  0.0086  0.1537
 1004MOL0     C38416   6.227   5.215   9.191 -0.6996  0.1040  0.5157
 1004MOL0     O38417   6.236   5.270   9.317  0.3269  0.4326 -0.0805
 1004MOL0     C38418   6.135   5.236   9.401 -0.2230  0.3692 -0.6559
 1004MOL0     C38419   6.144   5.140   9.501  0.0071 -0.6570  0.4730
 1004MOL0     C38420   6.031   5.096   9.573 -0.7235  0.2418 -0.1203
 1004MOL0     C38421   5.912   5.170   9.557 -0.0982 -0.0388 -0.8245
 1004MOL0     O38422   5.799   5.147   9.634 -0.0291 -0.4997  0.6045
 1004MOL0     C38423   5.789   5.043   9.736 -0.0585  0.6324  0.1885
 1004MOL0     C38424   5.643   5.004   9.744  0.3253 -0.2707 -1.3197
 1004MOL0     C38425   5.602   4.919   9.870  0.4136  0.3328  0.1302
 1004MOL0     C38426   5.452   4.888   9.873  0.6048  0.7226  1.0372
 1004MOL0     C38427   5.413   4.818  10.001 -1.2789 -0.3179  0.5747
 1004MOL0     C38428   5.270   4.769   9.982  0.1561 -0.5095 -0.0615
 1004MOL0     C38429   5.226   4.692  10.110 -0.3483  0.0746 -1.1856
 1004MOL0     C38430   5.071   4.679  10.117 -0.4390  0.3710 -0.2737
 1004MOL0     N38431   5.006   4.607  10.003 -0.2556 -0.2244 -0.0925
 1004MOL0     C38432   4.880   4.612   9.964 -0.2942 -0.8003 -1.3960
 1004MOL0     C38433   4.855   4.510   9.878  0.1747 -0.0407  0.2404
 1004MOL0     C38434   4.740   4.484   9.792 -0.3916  0.0161 -0.5903
 1004MOL0     C38435   4.692   4.611   9.721 -0.0062  0.1361  0.2777
 1004MOL0     C38436   4.589   4.591   9.616  0.7322 -0.0077 -0.6703
 1004MOL0     C38437   4.529   4.719   9.560 -0.0928 -0.0155 -0.4838
 1004MOL0     O38438   4.468   4.698   9.433 -0.3403 -0.3081 -0.4796
 1004MOL0     C38439   4.373   4.785   9.387 -0.0798  0.3249 -0.0623
 1004MOL0     C38440   4.385   4.918   9.390 -0.0384  0.1353 -0.6775
 1004MOL0     C38441   4.277   5.003   9.356  0.5140 -0.4244 -1.0892
 1004MOL0     C38442   4.310   5.157   9.377 -0.1076  0.5012 -0.0614
 1004MOL0     C38443   4.150   4.953   9.345  0.5524  0.2166 -0.0451
 1004MOL0     C38444   4.029   5.034   9.306  0.0619  1.1681  0.4745
 1004MOL0     O38445   3.937   4.972   9.222  0.2374 -0.6563  0.1136
 1004MOL0     C38446   3.851   5.044   9.149 -0.3422  0.7421  0.5305
 1004MOL0     C38447   3.774   5.144   9.204  0.2767  0.1082  0.8703
 1004MOL0     C38448   3.706   5.232   9.117  0.3926  0.7281  0.3275
 1004MOL0     C38449   3.691   5.206   8.985  0.3890  0.3380  0.2607
 1004MOL0     O38450   3.598   5.264   8.899  0.4630  0.6539 -0.0145
 1004MOL0     C38451   3.604   5.413   8.892  0.0981 -0.7400 -0.6430
 1004MOL0     C38452   3.740   5.481   8.904 -0.3942  0.4754  0.2030
 1004MOL0     C38453   3.822   5.462   8.773  0.0388 -0.5843  0.5633
 1004MOL0     C38454   3.930   5.579   8.763 -0.0085 -0.1992 -0.0443
 1004MOL0     C38455   3.983   5.562   8.618  0.7557  0.7418 -0.2939
 1004MOL0     C38456   4.083   5.668   8.582 -0.1216 -0.0808 -0.2374
 1004MOL0     C38457   4.224   5.647   8.608 -0.3804  0.3306  0.6685
 1004MOL0     C38458   4.267   5.637   8.752 -0.2863  0.2028  0.1412
 1004MOL0    Cl38459   4.444   5.601   8.750  0.0404 -0.3236  0.6379
 1004MOL0     C38460   3.758   5.103   8.927  0.3276 -0.3028 -0.2951
 1004MOL0     C38461   3.844   5.029   9.010 -0.4485 -0.1237  0.3447
 1004MOL0     O38462   4.009   5.136   9.363  0.1130 -0.0410 -0.4580
 1004MOL0     C38463   4.130   4.814   9.348  0.3143 -0.1101  0.2145
 1004MOL0     C38464   4.245   4.737   9.363 -0.4286  0.8413  0.8158
 1004MOL0     N38465   4.968   4.425   9.885 -0.4864 -0.0750 -0.1466
 1004MOL0     N38466   5.058   4.489   9.956 -0.0007  0.3647  0.4057
 1004MOL0     C38467   5.901   5.273   9.468 -0.5533  0.6053 -0.1828
 1004MOL0     C38468   6.017   5.301   9.382 -0.0982  0.3156 -0.1938
 1004MOL0     C38469   6.323   5.268   9.091  0.1214  0.1113 -0.7007
 1004MOL0     C38470   6.371   5.397   9.110 -0.7337  0.4853 -0.3677
 1004MOL0     C38471   6.451   5.466   9.014 -0.5549 -0.2749 -0.1045
 1004MOL0     C38472   6.504   5.387   8.912 -0.5840 -0.2426 -0.8510
 1004MOL0     O38473   6.584   5.428   8.810 -0.1515 -0.6604 -0.0532
 1004MOL0     C38474   6.634   5.562   8.821 -0.0794  0.0469 -0.0175
 1004MOL0     C38475   6.728   5.575   8.703 -0.0332  0.7753 -0.7694
 1004MOL0     C38476   6.861   5.508   8.729  0.4668 -0.3768  0.1028
 1004MOL0     C38477   6.936   5.485   8.596  0.2078 -0.2925  0.5546
 1004MOL0     C38478   6.991   5.610   8.550 -0.9066 -0.1058  0.3806
 1004MOL0     C38479   7.011   5.721   8.508 -0.3640  0.0970  0.4104
 1004MOL0     C38480   6.458   5.259   8.896 -0.7819  1.0777 -0.1292
 1004MOL0     C38481   6.376   5.194   8.981 -0.3308 -0.5567 -0.1776
 1004MOL0     C38482   6.344   5.053   8.942  0.5470  0.8052 -0.0469
 1004MOL0     H38483   6.239   5.089   9.511  0.1458 -0.6590 -0.7727
 1004MOL0     H38484   6.043   5.013   9.643 -1.0873  1.4747  1.4529
 1004MOL0     H38485   5.813   5.066   9.840  0.5445 -0.3670  0.2801
 1004MOL0     H38486   5.846   4.952   9.715  1.5707  2.0520 -1.9926
 1004MOL0     H38487   5.601   5.105   9.752  0.1989 -0.4069 -0.1336
 1004MOL0     H38488   5.618   4.964   9.645 -2.2183  0.6511 -1.1224
 1004MOL0     H38489   5.664   4.829   9.861  0.5931  0.4445  0.2494
 1004MOL0     H38490   5.627   4.966   9.966  2.6154  3.0788 -1.6439
 1004MOL0     H38491   5.383   4.973   9.872 -2.5076 -1.5222 -1.8267
 1004MOL0     H38492   5.417   4.831   9.786  0.2974  0.6244  1.2245
 1004MOL0     H38493   5.419   4.878  10.092  0.5820 -3.0115  2.3942
 1004MOL0     H38494   5.476   4.730  10.014  1.4259  1.4862  0.4456
 1004MOL0     H38495   5.196   4.845   9.957  2.1506  1.6200  0.1224
 1004MOL0     H38496   5.282   4.695   9.903  4.2387 -1.5234  1.2043
 1004MOL0     H38497   5.261   4.761  10.187 -0.7288  0.0877 -1.0224
 1004MOL0     H38498   5.284   4.600  10.119 -0.3366  0.2183  0.6598
 1004MOL0     H38499   5.062   4.630  10.214  1.6801 -2.7619 -1.4868
 1004MOL0     H38500   5.037   4.782  10.127  4.2653  2.1023  0.8495
 1004MOL0     H38501   4.806   4.689   9.984  0.6414  0.2301 -1.7814
 1004MOL0     H38502   4.660   4.450   9.858  0.3356 -0.5781  0.0093
 1004MOL0     H38503   4.782   4.406   9.727 -1.5630  0.0661 -1.4165
 1004MOL0     H38504   4.645   4.678   9.793 -2.3381 -1.0218 -0.0570
 1004MOL0     H38505   4.775   4.669   9.681  0.7046 -1.0814 -0.0520
 1004MOL0     H38506   4.627   4.531   9.533 -1.6968 -0.6010 -1.4378
 1004MOL0     H38507   4.506   4.536   9.662  1.8349 -1.6612 -0.5799
 1004MOL0     H38508   4.444   4.743   9.624  1.2559 -1.3821  1.9867
 1004MOL0     H38509   4.606   4.797   9.561  0.6634 -0.7392  0.7165
 1004MOL0     H38510   4.480   4.959   9.422 -0.5806 -0.7189  2.3333
 1004MOL0     H38511   4.272   5.233   9.308  1.5473  0.8410 -0.6340
 1004MOL0     H38512   4.415   5.185   9.385 -0.1838  1.3386 -1.5583
 1004MOL0     H38513   4.270   5.172   9.478 -1.1919 -1.8668 -0.0729
 1004MOL0     H38514   3.775   5.154   9.312  1.9204  1.8282  0.7450
 1004MOL0     H38515   3.642   5.306   9.164  0.8491  1.4381 -0.1457
 1004MOL0     H38516   3.564   5.432   8.792  1.3072 -1.5467 -1.3043
 1004MOL0     H38517   3.542   5.453   8.973  2.2653  0.3430  0.5944
 1004MOL0     H38518   3.707   5.585   8.911  0.3770  1.0714 -3.1815
 1004MOL0     H38519   3.798   5.457   8.994  1.9556  1.7077 -0.8835
 1004MOL0     H38520   3.748   5.469   8.693 -1.6574 -0.8096  2.0502
 1004MOL0     H38521   3.874   5.367   8.758  1.3472  0.2843 -0.7160
 1004MOL0     H38522   4.001   5.577   8.846 -1.4883  0.3018  1.2934
 1004MOL0     H38523   3.877   5.675   8.761  0.0210 -0.1711 -1.8944
 1004MOL0     H38524   4.032   5.467   8.593 -1.9561 -0.8928  0.1222
 1004MOL0     H38525   3.899   5.563   8.547 -1.3878 -0.1819  2.0629
 1004MOL0     H38526   4.045   5.761   8.626 -3.2165 -2.4473  2.6152
 1004MOL0     H38527   4.056   5.697   8.480 -0.5896 -1.3210 -0.4799
 1004MOL0     H38528   4.288   5.731   8.580  0.9482 -0.5705  0.8858
 1004MOL0     H38529   4.252   5.560   8.548 -3.3671  0.5297 -1.2128
 1004MOL0     H38530   4.217   5.555   8.805  2.4307 -1.4645  0.3244
 1004MOL0     H38531   4.258   5.731   8.806  0.3177  0.7253 -0.6424
 1004MOL0     H38532   3.749   5.087   8.820 -2.6281 -0.5221 -0.0883
 1004MOL0     H38533   3.894   4.943   8.967 -1.7319 -0.8957  0.3274
 1004MOL0     H38534   4.030   4.772   9.337  0.1914  0.6763 -2.3954
 1004MOL0     H38535   4.230   4.630   9.356 -0.4297  0.9457 -1.3304
 1004MOL0     H38536   5.811   5.334   9.458 -0.0805  1.4174  0.4194
 1004MOL0     H38537   6.029   5.376   9.305 -1.4245  0.2925 -0.4528
 1004MOL0     H38538   6.330   5.460   9.188 -0.3424  0.9755 -0.5512
 1004MOL0     H38539   6.475   5.571   9.027 -1.4549 -0.2297  1.4133
 1004MOL0     H38540   6.551   5.632   8.808  1.5743  1.7552 -2.1670
 1004MOL0     H38541   6.676   5.558   8.922 -1.6748 -5.7636  0.7581
 1004MOL0     H38542   6.735   5.684   8.697  1.0950  0.6385 -2.3615
 1004MOL0     H38543   6.669   5.531   8.622 -3.1364 -1.1432  2.2428
 1004MOL0     H38544   6.925   5.552   8.806 -0.8343  0.0761  0.9668
 1004MOL0     H38545   6.832   5.409   8.766 -4.4003  1.3263  1.5619
 1004MOL0     H38546   6.882   5.425   8.523 -0.7132 -0.2766  1.1999
 1004MOL0     H38547   7.022   5.420   8.615  1.7861  1.6779  0.4870
 1004MOL0     H38548   7.035   5.819   8.473  0.4700 -1.0582 -2.5669
 1004MOL0     H38549   6.497   5.208   8.809  0.7605  0.6786  0.7489
 1004MOL0     H38550   6.397   5.010   8.856 -0.9471 -0.0162 -0.6027
 1004MOL0     H38551   6.362   4.989   9.029  1.9456 -0.7189 -1.3722
 1004MOL0     H38552   6.238   5.046   8.917  0.0648 -1.6176  2.2088
 1005MOL0     O38553  10.349   7.256   2.319 -0.4326 -1.4702  0.4053
 1005MOL0     C38554  10.399   7.303   2.220  0.4370 -0.4503 -0.1122
 1005MOL0     O38555  10.373   7.264   2.089  0.5719 -0.6697  0.0466
 1005MOL0     C38556  10.299   7.154   2.064 -0.0291  0.4491  0.9329
 1005MOL0     C38557  10.160   7.141   2.069 -0.1477  0.1872  0.2720
 1005MOL0     C38558  10.104   7.018   2.032  0.6641 -0.0909 -0.3420
 1005MOL0     C38559  10.180   6.911   1.973 -0.1749 -0.6023 -0.4369
 1005MOL0     O38560  10.118   6.792   1.929 -0.3661 -0.1528  0.5918
 1005MOL0     C38561   9.979   6.766   1.951  0.2759  0.4454  0.2154
 1005MOL0     C38562   9.929   6.637   1.886  0.8136 -0.7089 -0.3446
 1005MOL0     C38563   9.902   6.647   1.734  0.0949  0.2277  0.2465
 1005MOL0     C38564  10.012   6.688   1.636  0.5218  0.7416  0.5691
 1005MOL0     C38565   9.970   6.705   1.496 -0.0045 -0.3770  0.2004
 1005MOL0     C38566   9.891   6.576   1.445  1.0697  0.6930 -0.3715
 1005MOL0     C38567   9.737   6.610   1.431 -0.0327  0.0073  0.4542
 1005MOL0     C38568   9.669   6.474   1.417  0.6784  0.4112  0.0509
 1005MOL0     N38569   9.529   6.495   1.364  1.3495  0.7906 -0.6418
 1005MOL0     C38570   9.474   6.447   1.246 -0.8078  0.2936  0.4199
 1005MOL0     C38571   9.361   6.517   1.221  0.5846 -0.4324 -0.2063
 1005MOL0     C38572   9.278   6.505   1.094 -0.0623  1.0004 -0.0281
 1005MOL0     C38573   9.319   6.604   0.979  0.0675  0.1599 -0.0246
 1005MOL0     C38574   9.247   6.565   0.848  0.3167  0.8794  0.5823
 1005MOL0     C38575   9.277   6.647   0.726  0.1536 -0.0056 -0.3099
 1005MOL0     O38576   9.182   6.619   0.612 -0.1126  0.3414  0.0090
 1005MOL0     C38577   9.204   6.700   0.508 -0.4514  0.2875  0.5006
 1005MOL0     C38578   9.327   6.765   0.465  0.2667 -0.0510  0.6150
 1005MOL0     C38579   9.338   6.846   0.349 -1.7297 -0.2719 -0.3113
 1005MOL0     C38580   9.475   6.905   0.318 -0.4054  0.1084  0.0842
 1005MOL0     C38581   9.226   6.861   0.265  0.1773 -0.1240 -0.5547
 1005MOL0     C38582   9.236   6.941   0.139  1.1402  0.7259 -0.7218
 1005MOL0     O38583   9.349   6.949   0.066  0.0897  0.7522 -0.5655
 1005MOL0     C38584   9.345   6.965  -0.069 -0.2201 -0.9885  0.7960
 1005MOL0     C38585   9.242   6.917  -0.151  0.0592  0.0498  0.2048
 1005MOL0     C38586   9.264   6.930  -0.288  0.0575 -0.1638  0.1144
 1005MOL0     C38587   9.369   7.003  -0.338 -0.2572  0.1311  1.0917
 1005MOL0     O38588   9.404   7.019  -0.473 -0.1455  0.9745  0.0728
 1005MOL0     C38589   9.290   7.001  -0.559 -0.8384 -1.0807  0.5170
 1005MOL0     C38590   9.334   7.030  -0.701 -0.8677  0.3567  0.3490
 1005MOL0     C38591   9.357   6.900  -0.782 -0.3518  0.9806 -0.8828
 1005MOL0     C38592   9.401   6.938  -0.926 -0.1277 -0.3379 -0.8285
 1005MOL0     C38593   9.452   6.809  -1.003  0.5545  0.5926 -0.6310
 1005MOL0     C38594   9.495   6.850  -1.151  0.3641 -0.4762 -0.9343
 1005MOL0     C38595   9.504   6.716  -1.229  0.2656  0.6112  0.8942
 1005MOL0     C38596   9.489   6.731  -1.383 -0.8401 -0.0411 -0.2752
 1005MOL0    Cl38597   9.647   6.732  -1.483 -0.0226  0.9894  0.2130
 1005MOL0     C38598   9.457   7.059  -0.248 -0.2470  0.4099  0.2875
 1005MOL0     C38599   9.456   7.040  -0.116  0.4529 -0.2748 -0.8558
 1005MOL0     O38600   9.127   6.988   0.115  0.3010 -0.4278 -0.0515
 1005MOL0     C38601   9.109   6.800   0.307  0.9357  0.0116 -0.0658
 1005MOL0     C38602   9.098   6.729   0.424 -1.0319 -0.2120  0.1618
 1005MOL0     N38603   9.333   6.586   1.338  0.4152 -0.8892  0.3135
 1005MOL0     N38604   9.435   6.573   1.418  0.2795  0.8388 -0.7390
 1005MOL0     C38605  10.315   6.930   1.966  0.2594  0.9227 -0.3526
 1005MOL0     C38606  10.374   7.042   2.008 -1.0561 -0.8003 -1.0942
 1005MOL0     C38607  10.488   7.416   2.244  0.6506 -0.1959  0.3154
 1005MOL0     C38608  10.598   7.426   2.168 -0.7169  0.2352 -1.0873
 1005MOL0     C38609  10.695   7.514   2.206 -0.1767 -0.3130  0.5135
 1005MOL0     C38610  10.672   7.609   2.305 -0.5707 -0.0214  1.1115
 1005MOL0     O38611  10.751   7.721   2.330  0.6403 -0.6569  0.6151
 1005MOL0     C38612  10.758   7.812   2.217  0.3594  0.2869  0.0083
 1005MOL0     C38613  10.694   7.948   2.246 -0.2839  0.6137  0.1717
 1005MOL0     C38614  10.540   7.939   2.251  1.2112 -0.4968 -0.2562
 1005MOL0     C38615  10.465   7.869   2.129 -0.1347 -0.0680  0.3084
 1005MOL0     C38616  10.515   7.902   1.995 -0.6435  0.0167 -1.0785
 1005MOL0     C38617  10.558   7.926   1.889  0.4367 -0.4047 -0.1869
 1005MOL0     C38618  10.555   7.607   2.376  0.2729 -0.5111 -0.4367
 1005MOL0     C38619  10.466   7.515   2.352  0.7418 -0.1964  0.2106
 1005MOL0     C38620  10.344   7.524   2.445  0.2553  1.0953  0.6421
 1005MOL0     H38621  10.104   7.217   2.123 -2.8336 -0.4964 -1.3405
 1005MOL0     H38622  10.000   7.008   2.060  0.6195 -1.9274 -1.0364
 1005MOL0     H38623   9.908   6.839   1.911 -2.7696 -2.7024 -0.6245
 1005MOL0     H38624   9.963   6.767   2.060 -0.7179  1.5633  0.0840
 1005MOL0     H38625  10.006   6.563   1.909  1.4462  0.4157  1.3245
 1005MOL0     H38626   9.832   6.614   1.930  0.0275  2.9220  0.1118
 1005MOL0     H38627   9.864   6.547   1.709  0.2074  0.7429 -2.2526
 1005MOL0     H38628   9.817   6.716   1.725  0.4338  0.5230 -0.7598
 1005MOL0     H38629  10.072   6.776   1.662  0.5898  2.5091 -4.4718
 1005MOL0     H38630  10.087   6.609   1.645  0.0281  0.0093 -1.3121
 1005MOL0     H38631  10.059   6.723   1.434  1.9267 -2.5793  2.1383
 1005MOL0     H38632   9.913   6.798   1.501 -1.1550 -0.9214 -1.7700
 1005MOL0     H38633   9.933   6.547   1.348  0.8736  2.4918 -1.0347
 1005MOL0     H38634   9.893   6.493   1.516 -0.4895 -1.6467 -2.8436
 1005MOL0     H38635   9.728   6.676   1.344  3.4803 -1.3637 -1.1452
 1005MOL0     H38636   9.704   6.657   1.524  1.2121 -0.2722  1.0585
 1005MOL0     H38637   9.723   6.406   1.351  0.0425  2.0396 -2.3064
 1005MOL0     H38638   9.662   6.419   1.511 -4.2942  1.8644  0.8273
 1005MOL0     H38639   9.528   6.380   1.180 -1.6243 -2.0606  2.0302
 1005MOL0     H38640   9.172   6.521   1.119 -0.0994  1.3164 -0.3778
 1005MOL0     H38641   9.295   6.400   1.067 -1.2875 -0.1080  3.1330
 1005MOL0     H38642   9.292   6.706   1.008  0.7521  0.1468  0.6939
 1005MOL0     H38643   9.426   6.613   0.958 -0.0706  1.1262 -0.3890
 1005MOL0     H38644   9.287   6.465   0.827 -0.1507  0.8853 -0.3831
 1005MOL0     H38645   9.143   6.559   0.878 -0.7673  1.5393 -2.6023
 1005MOL0     H38646   9.276   6.753   0.755 -0.7928 -0.3301  0.9281
 1005MOL0     H38647   9.379   6.623   0.694  0.1522  0.7430 -0.9019
 1005MOL0     H38648   9.416   6.753   0.525  1.0937  0.7757 -0.4207
 1005MOL0     H38649   9.533   6.892   0.410 -2.1323 -1.3602  1.0116
 1005MOL0     H38650   9.468   7.012   0.298 -2.1727  0.0599  0.3052
 1005MOL0     H38651   9.515   6.850   0.232 -1.3562 -0.5089  0.0214
 1005MOL0     H38652   9.146   6.876  -0.121 -0.5097  2.2986  1.7801
 1005MOL0     H38653   9.183   6.903  -0.355 -0.6466  1.6665  0.1686
 1005MOL0     H38654   9.241   6.906  -0.539 -1.3316 -0.3702  3.1355
 1005MOL0     H38655   9.213   7.076  -0.536  0.8267  1.0848 -0.6539
 1005MOL0     H38656   9.252   7.084  -0.748 -0.5470 -0.1683 -0.8576
 1005MOL0     H38657   9.421   7.096  -0.715 -1.3072  0.8110 -0.3533
 1005MOL0     H38658   9.270   6.834  -0.788 -0.8313  1.5711 -0.5832
 1005MOL0     H38659   9.436   6.851  -0.725 -1.1918  0.1283 -0.4270
 1005MOL0     H38660   9.492   6.998  -0.935 -0.8034  0.4539 -2.8973
 1005MOL0     H38661   9.311   6.985  -0.968 -1.0923 -1.8883 -0.5835
 1005MOL0     H38662   9.533   6.757  -0.952  0.4680  1.9932  1.0538
 1005MOL0     H38663   9.362   6.748  -0.989  0.0219  1.9229  3.1196
 1005MOL0     H38664   9.596   6.892  -1.145 -0.7990  2.3227  1.1760
 1005MOL0     H38665   9.424   6.921  -1.193 -2.9336 -2.3084  1.0833
 1005MOL0     H38666   9.424   6.652  -1.191  0.8756  0.6022  2.2150
 1005MOL0     H38667   9.599   6.668  -1.205 -0.0592 -1.3827 -1.3925
 1005MOL0     H38668   9.445   6.829  -1.406 -0.5675  0.5957  1.7147
 1005MOL0     H38669   9.420   6.658  -1.426 -1.0959  0.0402 -0.0077
 1005MOL0     H38670   9.537   7.108  -0.302  1.3529 -1.0079  1.2730
 1005MOL0     H38671   9.534   7.079  -0.050  0.9108 -4.2786  1.2994
 1005MOL0     H38672   9.025   6.785   0.239  1.7488 -0.3328 -1.0230
 1005MOL0     H38673   9.002   6.687   0.454 -1.7900  1.8988  0.8972
 1005MOL0     H38674  10.365   6.844   1.923 -0.7913  1.3893 -2.6575
 1005MOL0     H38675  10.482   7.046   2.016 -1.2033  0.5511  0.6340
 1005MOL0     H38676  10.633   7.359   2.090  2.9994  0.1851  0.4106
 1005MOL0     H38677  10.787   7.518   2.149 -1.5926  2.2485 -1.8397
 1005MOL0     H38678  10.865   7.829   2.202  0.4156 -0.3921 -0.4175
 1005MOL0     H38679  10.728   7.767   2.122  0.5071  2.5295 -1.1657
 1005MOL0     H38680  10.717   8.024   2.171 -1.3536 -2.2176 -3.2660
 1005MOL0     H38681  10.732   7.991   2.340 -0.3524 -1.0658  1.0064
 1005MOL0     H38682  10.515   7.898   2.349  0.6513  1.4914  0.4804
 1005MOL0     H38683  10.507   8.044   2.247 -2.5903 -1.5697 -2.6094
 1005MOL0     H38684  10.360   7.900   2.138  0.2942  1.8215 -0.7243
 1005MOL0     H38685  10.487   7.763   2.141  1.4319  0.2359  0.2788
 1005MOL0     H38686  10.601   7.939   1.792  0.7654  0.7090  0.0944
 1005MOL0     H38687  10.542   7.680   2.456  1.1926 -0.5299 -0.2555
 1005MOL0     H38688  10.352   7.440   2.515  0.1161  0.6002  0.0642
 1005MOL0     H38689  10.346   7.622   2.493  2.6944  1.8829 -0.9184
 1005MOL0     H38690  10.252   7.511   2.388  0.6903 -2.3879  0.4794
 1006MOL0     O38691   0.959   6.735   0.083  0.7588 -0.6272  0.2659
 1006MOL0     C38692   0.991   6.725   0.198  0.9720 -1.0374 -0.4029
 1006MOL0     O38693   0.908   6.753   0.306  0.2788 -0.2420 -0.2577
 1006MOL0     C38694   0.782   6.788   0.273 -0.1729 -0.2390  0.9564
 1006MOL0     C38695   0.739   6.907   0.205  1.2474 -0.0309 -0.6418
 1006MOL0     C38696   0.604   6.914   0.173 -0.5094 -0.1583  0.6503
 1006MOL0     C38697   0.506   6.825   0.210  0.0207  0.1516  0.2610
 1006MOL0     O38698   0.373   6.846   0.162 -0.2808  0.0089 -0.3259
 1006MOL0     C38699   0.262   6.817   0.250 -0.8048  0.6892  1.0069
 1006MOL0     C38700   0.274   6.883   0.387  0.2640  0.6815 -0.2285
 1006MOL0     C38701   0.137   6.919   0.442 -0.9712  0.7631 -0.2449
 1006MOL0     C38702   0.162   7.002   0.556 -0.2164 -0.4443 -0.2924
 1006MOL0     C38703   0.020   7.037   0.620  1.0416 -0.3771 -0.1455
 1006MOL0     C38704   0.034   7.160   0.707  0.5920 -0.5716  0.9575
 1006MOL0     C38705  -0.113   7.208   0.747  0.1125 -0.5823 -0.1737
 1006MOL0     C38706  -0.139   7.358   0.769 -0.2567 -0.8741 -0.9614
 1006MOL0     N38707  -0.039   7.408   0.856  0.8711 -0.7671 -0.7687
 1006MOL0     C38708   0.085   7.464   0.826 -0.3722  0.1466 -0.1019
 1006MOL0     C38709   0.145   7.495   0.943  0.6324  0.9457 -0.5062
 1006MOL0     C38710   0.262   7.584   0.975 -0.1184  0.4919 -0.2310
 1006MOL0     C38711   0.216   7.714   1.038 -0.7180 -0.4616 -0.1573
 1006MOL0     C38712   0.336   7.789   1.102 -0.5204  0.7252 -0.1246
 1006MOL0     C38713   0.441   7.839   1.003  0.3831 -0.0063 -0.4246
 1006MOL0     O38714   0.540   7.744   0.953  0.2155 -0.8030 -0.4017
 1006MOL0     C38715   0.648   7.790   0.877 -0.0556 -0.0851  0.3870
 1006MOL0     C38716   0.656   7.919   0.824  0.4729 -0.3222 -1.2874
 1006MOL0     C38717   0.767   7.967   0.749 -0.9857  0.0701  0.1394
 1006MOL0     C38718   0.772   8.116   0.718  0.1942  0.6734  0.4873
 1006MOL0     C38719   0.876   7.877   0.730 -0.2997 -0.2176 -0.5410
 1006MOL0     C38720   1.005   7.928   0.682 -0.4867  0.5509  0.9492
 1006MOL0     O38721   1.012   8.040   0.600  0.3035  0.1914 -0.1933
 1006MOL0     C38722   1.127   8.100   0.562 -0.3816  0.7315 -0.5694
 1006MOL0     C38723   1.184   8.183   0.658  0.3047 -0.4303  0.2075
 1006MOL0     C38724   1.301   8.257   0.617 -0.0993 -0.3216  0.6246
 1006MOL0     C38725   1.339   8.249   0.483 -0.3583  0.5365 -0.1291
 1006MOL0     O38726   1.451   8.330   0.458 -0.1778  0.3961  0.9175
 1006MOL0     C38727   1.564   8.284   0.384 -0.1668  0.0708  0.6291
 1006MOL0     C38728   1.686   8.337   0.454  0.2469 -0.0801  0.4865
 1006MOL0     C38729   1.715   8.268   0.582 -0.7156 -0.0494  0.8831
 1006MOL0     C38730   1.777   8.132   0.567 -0.0850 -0.2151 -0.8961
 1006MOL0     C38731   1.787   8.065   0.702 -0.4197  0.5399  0.3529
 1006MOL0     C38732   1.872   7.936   0.690  0.3246 -0.0593  1.4501
 1006MOL0     C38733   1.969   7.912   0.799 -0.0659 -0.4067  0.3472
 1006MOL0     C38734   2.073   7.808   0.760 -0.5962 -1.1509 -0.2846
 1006MOL0    Cl38735   2.000   7.657   0.704  0.0610 -0.1921 -0.1706
 1006MOL0     C38736   1.284   8.155   0.387  0.2938 -0.3245 -0.7073
 1006MOL0     C38737   1.181   8.077   0.434  0.2989  1.5373  0.0924
 1006MOL0     O38738   1.108   7.866   0.719  0.0435  0.6887 -0.9667
 1006MOL0     C38739   0.866   7.750   0.780 -0.9617  0.5961  0.3216
 1006MOL0     C38740   0.756   7.708   0.846 -0.5776  0.0391  0.0324
 1006MOL0     N38741   0.061   7.444   1.045 -0.0688  0.5359 -0.5514
 1006MOL0     N38742  -0.047   7.394   0.992 -0.5217  0.3901 -0.5914
 1006MOL0     C38743   0.548   6.716   0.287 -0.5969  0.8420 -0.8952
 1006MOL0     C38744   0.689   6.690   0.307 -0.4028  0.5220 -0.1595
 1006MOL0     C38745   1.105   6.646   0.235  0.0677  0.1254  0.0223
 1006MOL0     C38746   1.135   6.601   0.367  0.3999  0.1087  0.6460
 1006MOL0     C38747   1.252   6.536   0.409 -0.6603 -0.0942 -0.1374
 1006MOL0     C38748   1.350   6.509   0.311  0.1639  0.2866  0.5513
 1006MOL0     O38749   1.459   6.431   0.329 -0.7719  0.1841  0.2624
 1006MOL0     C38750   1.497   6.387   0.459 -0.4078 -0.5367 -0.7537
 1006MOL0     C38751   1.585   6.497   0.520  0.1175  0.1104  0.3634
 1006MOL0     C38752   1.528   6.632   0.551 -0.3497  1.5082 -0.1041
 1006MOL0     C38753   1.615   6.722   0.642  0.0505  0.0952 -0.0458
 1006MOL0     C38754   1.731   6.766   0.565  0.3328 -0.5469  0.1033
 1006MOL0     C38755   1.819   6.815   0.500  0.4102  0.7324 -1.0523
 1006MOL0     C38756   1.323   6.542   0.181  0.3608  0.3169  0.3516
 1006MOL0     C38757   1.204   6.610   0.137 -0.8795  0.2880 -0.2411
 1006MOL0     C38758   1.203   6.639  -0.009 -0.0503 -0.2061 -0.6115
 1006MOL0     H38759   0.804   6.986   0.170 -1.6008  2.2859 -1.0743
 1006MOL0     H38760   0.578   7.000   0.113 -0.8250 -2.0567 -2.1285
 1006MOL0     H38761   0.258   6.708   0.263  1.3274  0.0940 -2.2252
 1006MOL0     H38762   0.169   6.851   0.203  0.3214  1.9147 -0.3785
 1006MOL0     H38763   0.333   6.821   0.455 -0.4458  1.3585  1.0227
 1006MOL0     H38764   0.338   6.972   0.380  3.5879 -1.4556  0.6127
 1006MOL0     H38765   0.073   6.969   0.369 -1.5135 -2.9918 -2.6666
 1006MOL0     H38766   0.077   6.830   0.466  1.1857 -0.4663  0.8848
 1006MOL0     H38767   0.233   6.958   0.626 -1.0341 -0.5523  0.4907
 1006MOL0     H38768   0.204   7.098   0.524 -2.1997  0.4515 -0.3581
 1006MOL0     H38769  -0.022   6.953   0.677  2.7403 -1.0875  0.1395
 1006MOL0     H38770  -0.045   7.063   0.536  1.2824 -0.8977 -0.5001
 1006MOL0     H38771   0.096   7.130   0.792  2.0724 -0.2478  0.0300
 1006MOL0     H38772   0.088   7.236   0.650 -1.2315 -2.1324 -3.2397
 1006MOL0     H38773  -0.147   7.167   0.843  3.0760  1.5199  1.9890
 1006MOL0     H38774  -0.180   7.172   0.669 -3.6054 -0.2711  2.5852
 1006MOL0     H38775  -0.144   7.413   0.675 -1.0995 -0.0928 -0.4874
 1006MOL0     H38776  -0.241   7.377   0.804 -0.2383 -0.6231 -1.0368
 1006MOL0     H38777   0.118   7.479   0.723  0.4836  0.1833  0.1706
 1006MOL0     H38778   0.325   7.603   0.888  1.7604  1.8418  1.3454
 1006MOL0     H38779   0.320   7.532   1.052 -1.1792  0.4485  0.5713
 1006MOL0     H38780   0.183   7.763   0.947  2.3790 -2.1735 -2.4275
 1006MOL0     H38781   0.150   7.694   1.123 -0.2538 -2.9539 -0.2987
 1006MOL0     H38782   0.277   7.873   1.141  0.1487  0.8279  0.7157
 1006MOL0     H38783   0.385   7.734   1.183  2.2341  3.1160  0.0168
 1006MOL0     H38784   0.384   7.896   0.928 -2.2554 -0.8664  0.8334
 1006MOL0     H38785   0.503   7.902   1.068  3.5160 -3.3413  0.1293
 1006MOL0     H38786   0.581   7.995   0.842  1.0156  0.6535 -2.9521
 1006MOL0     H38787   0.843   8.162   0.787  0.4229 -0.4791  1.0432
 1006MOL0     H38788   0.674   8.162   0.731 -0.6667 -0.8378 -0.3621
 1006MOL0     H38789   0.800   8.134   0.614  1.4732  1.4813  0.9451
 1006MOL0     H38790   1.156   8.198   0.762  0.2257 -0.9560  0.2642
 1006MOL0     H38791   1.361   8.315   0.687  0.1880 -0.1461  0.2353
 1006MOL0     H38792   1.553   8.175   0.392  1.3077  0.0277  3.4796
 1006MOL0     H38793   1.572   8.323   0.282 -0.5236  1.5497  1.1507
 1006MOL0     H38794   1.776   8.335   0.393 -0.0726 -3.4717 -0.0426
 1006MOL0     H38795   1.677   8.444   0.479 -0.4255 -0.2418  0.9617
 1006MOL0     H38796   1.625   8.257   0.644  0.5583 -0.2754  2.8063
 1006MOL0     H38797   1.781   8.330   0.643 -0.4094  2.2407 -1.6386
 1006MOL0     H38798   1.879   8.137   0.527  1.4867 -0.3293  2.6668
 1006MOL0     H38799   1.723   8.084   0.485 -1.8384  0.3646 -0.1246
 1006MOL0     H38800   1.837   8.139   0.764 -2.7670  0.4841  2.4673
 1006MOL0     H38801   1.691   8.038   0.746 -1.1673  0.0265 -1.4899
 1006MOL0     H38802   1.937   7.933   0.602 -0.9648  1.0173  0.4227
 1006MOL0     H38803   1.813   7.845   0.677 -0.9821  1.0255 -0.6904
 1006MOL0     H38804   1.914   7.875   0.886  0.5166 -0.2944  0.7675
 1006MOL0     H38805   2.016   8.008   0.822 -1.8232 -0.3701  4.7350
 1006MOL0     H38806   2.136   7.798   0.849 -1.2860 -3.7450 -0.0194
 1006MOL0     H38807   2.136   7.846   0.679 -2.0580 -0.5766 -1.1994
 1006MOL0     H38808   1.319   8.147   0.285 -0.7245 -1.3296 -0.9992
 1006MOL0     H38809   1.133   8.002   0.371 -0.0030  1.3748  0.5099
 1006MOL0     H38810   0.937   7.676   0.745  1.0618  2.2688  0.7423
 1006MOL0     H38811   0.749   7.601   0.866 -1.0502  0.4304  2.2339
 1006MOL0     H38812   0.477   6.644   0.327 -1.1704  1.3543 -0.9751
 1006MOL0     H38813   0.717   6.602   0.364 -2.3808 -1.6141 -2.2825
 1006MOL0     H38814   1.063   6.626   0.444  1.2345  2.8400  0.6667
 1006MOL0     H38815   1.272   6.510   0.512 -2.0013 -2.3955 -0.3871
 1006MOL0     H38816   1.409   6.366   0.520  1.5824 -1.6789  1.9210
 1006MOL0     H38817   1.558   6.297   0.451  1.5459  0.7894 -1.7867
 1006MOL0     H38818   1.665   6.502   0.446  2.0839  0.5697  2.4195
 1006MOL0     H38819   1.635   6.452   0.607  2.6872  0.4611 -0.8533
 1006MOL0     H38820   1.490   6.676   0.459 -1.0178  1.4907  0.1559
 1006MOL0     H38821   1.435   6.616   0.607 -1.1725 -1.9664 -2.1708
 1006MOL0     H38822   1.639   6.668   0.735 -2.5070 -1.2089 -0.0356
 1006MOL0     H38823   1.559   6.812   0.671 -3.2808 -1.2806 -1.6749
 1006MOL0     H38824   1.898   6.866   0.449  1.9026 -0.3038  0.1448
 1006MOL0     H38825   1.402   6.504   0.118 -0.4369 -1.0426  0.1223
 1006MOL0     H38826   1.176   6.745  -0.008  0.0353 -0.0938  2.9882
 1006MOL0     H38827   1.307   6.632  -0.042  0.1661 -0.4797  0.1088
 1006MOL0     H38828   1.123   6.587  -0.062 -2.7636  2.1954  0.8588
 1007MOL0     O38829   8.442   9.535   5.718 -0.2429 -0.3560  0.5403
 1007MOL0     C38830   8.377   9.577   5.816 -0.7873  0.4051  0.5484
 1007MOL0     O38831   8.427   9.583   5.942  0.3711 -0.4073  0.0590
 1007MOL0     C38832   8.507   9.482   5.977  0.1322 -0.2114 -0.1346
 1007MOL0     C38833   8.474   9.343   5.965 -0.2379 -0.5099  0.2564
 1007MOL0     C38834   8.573   9.243   6.008 -0.9378 -0.8073 -0.1270
 1007MOL0     C38835   8.696   9.284   6.049  0.0603 -0.4164 -0.2871
 1007MOL0     O38836   8.781   9.182   6.072  0.5088  0.3648  0.3553
 1007MOL0     C38837   8.925   9.182   6.041  0.0804 -0.5911 -0.2600
 1007MOL0     C38838   8.974   9.036   6.057 -0.5571 -0.2869  0.1892
 1007MOL0     C38839   9.122   9.033   6.009  0.7655 -0.2341 -0.4493
 1007MOL0     C38840   9.203   8.956   6.108  0.6705 -0.1094 -0.7050
 1007MOL0     C38841   9.352   8.957   6.067  0.6633 -0.3685 -0.7692
 1007MOL0     C38842   9.433   8.884   6.165 -0.7689 -0.2469 -0.1576
 1007MOL0     C38843   9.585   8.910   6.137  0.2516  0.4279  0.1858
 1007MOL0     C38844   9.640   8.837   6.019 -0.6414  0.3037  0.0714
 1007MOL0     N38845   9.786   8.851   6.014  0.9173 -0.2389  0.1049
 1007MOL0     C38846   9.861   8.961   5.987 -0.0084  0.3845  0.1050
 1007MOL0     C38847   9.986   8.921   5.980  0.1604  0.0317 -0.2220
 1007MOL0     C38848  10.102   9.016   5.941  0.1386  0.6651  0.3196
 1007MOL0     C38849  10.174   9.060   6.068 -0.0377 -0.5567  1.0262
 1007MOL0     C38850  10.309   9.126   6.028  0.0642  0.3213 -0.5486
 1007MOL0     C38851  10.392   9.147   6.154  0.2297  0.3940  0.3205
 1007MOL0     O38852  10.445   9.025   6.212 -0.0339 -0.1546 -0.0611
 1007MOL0     C38853  10.573   9.006   6.178 -0.5662 -0.6938 -0.0821
 1007MOL0     C38854  10.609   8.950   6.058 -0.7477  0.6274  0.9533
 1007MOL0     C38855  10.750   8.947   6.023 -0.6623  0.0136  0.2232
 1007MOL0     C38856  10.781   8.885   5.888 -0.4701 -0.1602 -0.2337
 1007MOL0     C38857  10.851   9.006   6.108  0.0257  1.2066 -0.5816
 1007MOL0     C38858  10.990   9.027   6.077 -0.5322 -0.4981  0.0582
 1007MOL0     O38859  11.065   9.103   6.160 -0.4740  0.2245 -0.3993
 1007MOL0     C38860  11.190   9.144   6.132 -0.6131  0.2712  0.7488
 1007MOL0     C38861  11.289   9.074   6.050 -1.0659 -0.0885  0.8597
 1007MOL0     C38862  11.407   9.135   5.996  0.0545  0.1302  0.2828
 1007MOL0     C38863  11.432   9.267   6.025 -1.1190 -0.4733  0.3631
 1007MOL0     O38864  11.529   9.346   5.963 -0.2081  0.1369  0.2988
 1007MOL0     C38865  11.662   9.293   5.955  0.3285 -0.4581 -0.9749
 1007MOL0     C38866  11.748   9.336   6.079  0.7678  0.3095 -0.5059
 1007MOL0     C38867  11.798   9.484   6.061  0.0571  0.1507  0.2096
 1007MOL0     C38868  11.835   9.541   6.200 -0.4080 -0.0929 -0.1636
 1007MOL0     C38869  11.912   9.671   6.184 -0.3334  0.5430 -0.7949
 1007MOL0     C38870  11.837   9.787   6.118  0.0971  0.4342  0.0657
 1007MOL0     C38871  11.908   9.921   6.093  0.6841  0.5465  0.5070
 1007MOL0     C38872  11.914  10.009   6.213 -0.9279  0.2362  0.0541
 1007MOL0    Cl38873  12.019  10.141   6.172 -0.2339 -0.1974 -0.2370
 1007MOL0     C38874  11.339   9.333   6.109 -1.2449  0.2068 -0.5231
 1007MOL0     C38875  11.222   9.275   6.167 -0.2969  0.0648 -0.2928
 1007MOL0     O38876  11.025   9.001   5.961 -0.8240 -0.4683 -0.0693
 1007MOL0     C38877  10.808   9.061   6.231 -0.7235  0.5016  1.3516
 1007MOL0     C38878  10.670   9.056   6.270  0.3918  0.5223  1.4000
 1007MOL0     N38879   9.994   8.786   5.998 -0.4466  0.6645 -0.1396
 1007MOL0     N38880   9.871   8.747   6.018 -0.0740  0.2809 -0.1986
 1007MOL0     C38881   8.722   9.421   6.073  0.5283 -0.5413 -0.3146
 1007MOL0     C38882   8.627   9.514   6.041  1.9912  0.4468 -0.4068
 1007MOL0     C38883   8.254   9.656   5.784  0.0582 -0.0786  0.2435
 1007MOL0     C38884   8.218   9.762   5.871  0.2163  0.0569  0.1757
 1007MOL0     C38885   8.107   9.853   5.841 -0.4380 -0.8225  0.0370
 1007MOL0     C38886   8.034   9.835   5.724 -0.1488 -0.7412  0.2213
 1007MOL0     O38887   7.928   9.919   5.696  0.5142  0.7481 -0.1544
 1007MOL0     C38888   7.944  10.003   5.580  0.7284 -0.1632 -0.5545
 1007MOL0     C38889   8.065  10.099   5.592  0.1295 -0.2217 -0.2650
 1007MOL0     C38890   8.043  10.199   5.707 -0.8671  0.3661  0.0829
 1007MOL0     C38891   8.170  10.291   5.744 -0.1180 -0.1225  0.0667
 1007MOL0     C38892   8.246  10.340   5.624  0.3901 -0.1443  0.3901
 1007MOL0     C38893   8.301  10.380   5.526 -0.1430  0.4343  0.5964
 1007MOL0     C38894   8.068   9.728   5.642  0.1212  0.5523 -0.8770
 1007MOL0     C38895   8.174   9.647   5.669  0.0126  0.4431 -0.0234
 1007MOL0     C38896   8.195   9.531   5.567  0.3461  0.3410 -0.5713
 1007MOL0     H38897   8.378   9.317   5.921  0.8003 -0.6142 -2.1046
 1007MOL0     H38898   8.550   9.140   5.984  1.2494 -0.5015 -4.6312
 1007MOL0     H38899   8.991   9.247   6.100  0.0190  2.0735 -2.9140
 1007MOL0     H38900   8.944   9.213   5.938 -0.2172 -2.9021 -1.0833
 1007MOL0     H38901   8.969   9.005   6.162  1.1638  0.8161  0.6306
 1007MOL0     H38902   8.908   8.964   6.008 -1.1519 -0.8712  1.7820
 1007MOL0     H38903   9.135   8.992   5.908 -0.2289 -1.7150 -0.0212
 1007MOL0     H38904   9.159   9.135   5.997 -1.9144  0.7896 -0.5050
 1007MOL0     H38905   9.199   9.027   6.191 -1.3245  1.7518 -2.2643
 1007MOL0     H38906   9.165   8.858   6.137  1.0069  0.8706  3.6706
 1007MOL0     H38907   9.391   9.059   6.067  1.0508 -0.5095  0.3590
 1007MOL0     H38908   9.361   8.907   5.970  1.2729 -1.4472 -0.1669
 1007MOL0     H38909   9.417   8.933   6.261  0.3952 -0.7352  0.3004
 1007MOL0     H38910   9.399   8.780   6.171 -0.3851 -0.3243  0.7728
 1007MOL0     H38911   9.634   8.881   6.230 -1.2311  2.1078  1.5767
 1007MOL0     H38912   9.609   9.016   6.124  0.8124  0.8047  3.4511
 1007MOL0     H38913   9.607   8.734   6.003 -2.4303  0.7289  0.7076
 1007MOL0     H38914   9.611   8.887   5.926 -1.9543 -1.2511 -0.3994
 1007MOL0     H38915   9.838   9.067   5.978  3.5847  1.7295  3.7512
 1007MOL0     H38916  10.056   9.101   5.888  1.6029  3.3944  3.0950
 1007MOL0     H38917  10.171   8.969   5.871  1.4814  1.2922  1.1807
 1007MOL0     H38918  10.115   9.129   6.128 -1.5646 -1.8750  1.1124
 1007MOL0     H38919  10.194   8.970   6.127 -0.3976 -1.4140 -0.1244
 1007MOL0     H38920  10.364   9.044   5.980 -0.4689 -0.9219  0.8763
 1007MOL0     H38921  10.292   9.216   5.968 -2.1798  2.1206  2.4915
 1007MOL0     H38922  10.477   9.210   6.128  1.9816 -2.5094 -1.5820
 1007MOL0     H38923  10.335   9.201   6.230  0.9368 -0.5016  1.5300
 1007MOL0     H38924  10.547   8.906   5.981  1.6219 -1.2888 -0.0017
 1007MOL0     H38925  10.697   8.838   5.835  0.0509  0.8554 -2.0469
 1007MOL0     H38926  10.855   8.806   5.890  1.9102  1.9412 -0.3820
 1007MOL0     H38927  10.809   8.969   5.824 -1.2781 -0.6151 -1.2096
 1007MOL0     H38928  11.266   8.975   6.012  0.7308  0.0595 -0.7327
 1007MOL0     H38929  11.468   9.093   5.918  1.5117  0.6719  1.0887
 1007MOL0     H38930  11.669   9.184   5.947  0.8525 -0.2942 -4.8426
 1007MOL0     H38931  11.697   9.325   5.856 -3.4457  0.3202 -2.2440
 1007MOL0     H38932  11.686   9.326   6.169  0.3145  2.3965 -0.5462
 1007MOL0     H38933  11.823   9.259   6.099 -2.2809 -2.3154  2.1079
 1007MOL0     H38934  11.723   9.540   6.005  0.9278 -1.5459 -2.9461
 1007MOL0     H38935  11.891   9.481   6.002 -0.7402  0.3367 -1.1062
 1007MOL0     H38936  11.903   9.478   6.259  0.7589  0.8001 -0.5101
 1007MOL0     H38937  11.743   9.556   6.258 -1.0124 -0.6249 -0.9791
 1007MOL0     H38938  11.940   9.716   6.280 -0.4771 -1.9685  0.4991
 1007MOL0     H38939  12.006   9.647   6.133 -1.9852 -3.0467 -2.4650
 1007MOL0     H38940  11.748   9.808   6.177  0.2586 -0.6298  0.7278
 1007MOL0     H38941  11.803   9.745   6.023  0.8360 -1.5889  0.6298
 1007MOL0     H38942  11.850   9.977   6.018 -1.0061 -0.5814  0.9253
 1007MOL0     H38943  12.008   9.904   6.054  0.3870  0.0476 -0.0538
 1007MOL0     H38944  11.950   9.954   6.301 -0.1341  1.3501  0.4544
 1007MOL0     H38945  11.826  10.068   6.240 -1.4579  0.4948 -2.1122
 1007MOL0     H38946  11.360   9.435   6.139 -0.4642 -0.5534  1.7751
 1007MOL0     H38947  11.164   9.331   6.240 -0.6878 -0.3780 -0.2579
 1007MOL0     H38948  10.871   9.122   6.295  0.0903 -0.7325  1.7844
 1007MOL0     H38949  10.648   9.111   6.360  1.5506  0.4695  1.7375
 1007MOL0     H38950   8.817   9.454   6.114  1.1489 -1.3966 -1.0209
 1007MOL0     H38951   8.651   9.619   6.044 -0.8066  1.1508  0.2858
 1007MOL0     H38952   8.265   9.773   5.968 -1.4789 -0.1281  1.0696
 1007MOL0     H38953   8.074   9.937   5.901  1.2618 -1.2997  1.7576
 1007MOL0     H38954   7.964   9.939   5.494  1.0423  1.1115 -1.4670
 1007MOL0     H38955   7.851  10.059   5.561 -0.0752 -1.4112 -0.4177
 1007MOL0     H38956   8.057  10.162   5.503 -1.4562 -0.0487 -0.0314
 1007MOL0     H38957   8.161  10.048   5.603  0.7496 -0.1786 -4.1274
 1007MOL0     H38958   7.980  10.275   5.662  0.3161  0.1279 -2.1148
 1007MOL0     H38959   8.006  10.161   5.803 -1.3343 -0.2631 -0.3390
 1007MOL0     H38960   8.235  10.236   5.814 -1.8365 -1.0685  0.9827
 1007MOL0     H38961   8.133  10.374   5.805  0.8677  1.7939 -1.8114
 1007MOL0     H38962   8.370  10.411   5.451  1.3827  2.2244  2.6194
 1007MOL0     H38963   8.019   9.718   5.546 -0.1784 -0.2819 -0.6487
 1007MOL0     H38964   8.291   9.542   5.515  0.0639  0.8929 -0.9837
 1007MOL0     H38965   8.194   9.432   5.613  0.9601 -1.7281 -4.5747
 1007MOL0     H38966   8.117   9.530   5.490  0.0101  1.9395 -0.2785
 1008MOL0     O38967   5.745   9.211   3.527 -0.0134 -0.1712 -1.0826
 1008MOL0     C38968   5.804   9.216   3.642  1.3090 -0.3865  0.5243
 1008MOL0     O38969   5.781   9.315   3.742  0.7846 -0.1638 -0.5210
 1008MOL0     C38970   5.659   9.379   3.730  0.8216 -0.2886  0.9394
 1008MOL0     C38971   5.652   9.518   3.762  0.4622 -0.5107  1.0232
 1008MOL0     C38972   5.526   9.574   3.760  0.2365 -0.2351 -0.2395
 1008MOL0     C38973   5.406   9.507   3.725 -0.1179  0.0784 -0.3564
 1008MOL0     O38974   5.292   9.586   3.714  0.1552  0.2949  0.2657
 1008MOL0     C38975   5.310   9.715   3.655  0.3269  0.2093  0.3531
 1008MOL0     C38976   5.184   9.778   3.622  0.7130  0.1502 -0.0940
 1008MOL0     C38977   5.207   9.924   3.601 -0.4251  0.4283 -0.4840
 1008MOL0     C38978   5.067   9.974   3.548 -0.6163 -0.2631 -1.1246
 1008MOL0     C38979   5.071  10.127   3.521  1.0329 -0.3446  0.5049
 1008MOL0     C38980   5.141  10.175   3.398  0.5347 -0.4890  1.3539
 1008MOL0     C38981   5.139  10.075   3.283 -0.9959  0.3037  0.1133
 1008MOL0     C38982   5.203  10.126   3.153  0.2828  0.0290 -1.1820
 1008MOL0     N38983   5.351  10.164   3.171  0.5630 -0.5100 -0.3020
 1008MOL0     C38984   5.401  10.285   3.137  0.2558 -0.3146  0.0894
 1008MOL0     C38985   5.533  10.283   3.172  0.5221  0.1470 -0.4780
 1008MOL0     C38986   5.639  10.392   3.181 -0.4406  0.1277 -0.3953
 1008MOL0     C38987   5.686  10.425   3.331 -0.0586  0.8257  0.1573
 1008MOL0     C38988   5.754  10.563   3.337 -0.3304  0.4705 -0.7980
 1008MOL0     C38989   5.827  10.595   3.472  0.6049  0.1962  1.0395
 1008MOL0     O38990   5.878  10.725   3.456  0.0957  0.2959  0.7043
 1008MOL0     C38991   5.965  10.772   3.551  1.0809  0.0225  0.2068
 1008MOL0     C38992   6.026  10.693   3.649 -0.0398  0.1028  0.3533
 1008MOL0     C38993   6.116  10.747   3.737  0.7415  0.6518  0.1189
 1008MOL0     C38994   6.194  10.659   3.826  0.5849 -0.0464  0.4232
 1008MOL0     C38995   6.139  10.888   3.737 -0.4315  0.6231 -0.2158
 1008MOL0     C38996   6.240  10.946   3.829  0.0807 -0.1542 -0.2064
 1008MOL0     O38997   6.366  10.958   3.787  0.0320  0.0124 -0.6155
 1008MOL0     C38998   6.459  11.009   3.872  0.3047 -1.0456 -0.0996
 1008MOL0     C38999   6.526  10.922   3.960 -0.5293 -0.5219  0.9532
 1008MOL0     C39000   6.610  10.975   4.064  0.2145  0.3859  0.7215
 1008MOL0     C39001   6.627  11.111   4.084 -0.0104  0.0504  0.3087
 1008MOL0     O39002   6.704  11.179   4.175  0.0348 -0.5479 -0.4179
 1008MOL0     C39003   6.808  11.106   4.241  0.6191 -0.4270  0.2663
 1008MOL0     C39004   6.887  11.201   4.319 -0.3247  0.2166 -0.3011
 1008MOL0     C39005   6.990  11.288   4.254 -0.2718  0.0285  0.1519
 1008MOL0     C39006   7.052  11.392   4.345 -0.0356 -0.4982 -0.1246
 1008MOL0     C39007   7.191  11.436   4.307 -0.1791  0.2385 -0.3645
 1008MOL0     C39008   7.227  11.564   4.390  0.8194 -0.9351 -0.5168
 1008MOL0     C39009   7.374  11.582   4.394 -0.8683 -0.0891 -0.2595
 1008MOL0     C39010   7.433  11.676   4.505  0.1256  0.6512  0.1035
 1008MOL0    Cl39011   7.362  11.611   4.663 -0.2495  0.7386  0.3290
 1008MOL0     C39012   6.554  11.197   4.001 -0.2096 -0.2865 -0.3781
 1008MOL0     C39013   6.465  11.148   3.904  0.4255  0.5452 -0.4284
 1008MOL0     O39014   6.194  10.989   3.936 -0.1112  0.5586 -0.5581
 1008MOL0     C39015   6.079  10.966   3.645 -0.0084  0.1040 -0.2397
 1008MOL0     C39016   5.994  10.913   3.541  0.6894 -0.1880 -1.0045
 1008MOL0     N39017   5.552  10.169   3.244 -0.2859  0.2836 -0.0028
 1008MOL0     N39018   5.449  10.094   3.238  0.2924 -0.4191  0.6430
 1008MOL0     C39019   5.407   9.373   3.696 -0.5696 -1.0783  0.0361
 1008MOL0     C39020   5.535   9.317   3.705  0.7300  0.5753 -0.8093
 1008MOL0     C39021   5.889   9.100   3.686 -0.3692  1.3859 -0.3899
 1008MOL0     C39022   5.930   9.103   3.818 -0.2865 -0.6144 -0.2827
 1008MOL0     C39023   6.010   9.010   3.878 -0.3866  1.2104 -0.0567
 1008MOL0     C39024   6.052   8.905   3.800 -0.6057 -0.0791  0.4264
 1008MOL0     O39025   6.144   8.815   3.852  0.5998  0.0954  0.3225
 1008MOL0     C39026   6.195   8.701   3.775 -0.9997 -0.6616  0.5903
 1008MOL0     C39027   6.118   8.571   3.795 -0.3365 -0.5495  0.0447
 1008MOL0     C39028   5.975   8.576   3.734 -0.5693 -0.2159  0.1098
 1008MOL0     C39029   5.903   8.447   3.753  0.5605  0.3795  1.0854
 1008MOL0     C39030   5.964   8.335   3.661  1.5271 -0.3349 -0.6099
 1008MOL0     C39031   6.007   8.239   3.598  0.5638  0.3122 -0.0338
 1008MOL0     C39032   6.014   8.895   3.657 -0.4568 -0.8646  0.3251
 1008MOL0     C39033   5.934   8.993   3.609  0.5007 -0.6738  0.0220
 1008MOL0     C39034   5.914   8.987   3.462  0.4088  0.2131  0.7246
 1008MOL0     H39035   5.742   9.569   3.795  1.7262 -1.9381 -0.0771
 1008MOL0     H39036   5.520   9.674   3.801 -0.5408  0.5281 -2.1175
 1008MOL0     H39037   5.357   9.720   3.556 -0.9401 -0.9059 -0.3454
 1008MOL0     H39038   5.370   9.775   3.724  4.5195  2.1395 -4.3355
 1008MOL0     H39039   5.137   9.737   3.533  1.7257 -3.5868  0.8992
 1008MOL0     H39040   5.115   9.770   3.707 -0.4776 -0.3157 -1.0822
 1008MOL0     H39041   5.240   9.979   3.689  0.3237  1.7568 -1.5561
 1008MOL0     H39042   5.271   9.930   3.512 -0.1670 -1.9001 -0.5241
 1008MOL0     H39043   5.040   9.927   3.453 -1.2453 -2.0545 -0.0913
 1008MOL0     H39044   4.986   9.965   3.621 -3.3407  3.1206 -3.3968
 1008MOL0     H39045   5.125  10.164   3.608  2.9087 -1.0982 -0.2944
 1008MOL0     H39046   4.971  10.171   3.524 -0.0422 -2.5305 -0.7036
 1008MOL0     H39047   5.096  10.268   3.361  0.3261 -2.2646 -3.6552
 1008MOL0     H39048   5.247  10.179   3.422  0.5775 -0.6012  1.1810
 1008MOL0     H39049   5.035  10.048   3.259 -0.0124 -1.1457 -3.0858
 1008MOL0     H39050   5.192   9.983   3.308  0.6120  1.6175  1.7824
 1008MOL0     H39051   5.188  10.054   3.072 -4.5250 -1.5131  0.7454
 1008MOL0     H39052   5.144  10.216   3.135 -1.6882 -0.8961  0.2735
 1008MOL0     H39053   5.349  10.370   3.094 -1.0293  0.1285  2.3427
 1008MOL0     H39054   5.598  10.478   3.126 -0.6058 -0.2916 -0.9467
 1008MOL0     H39055   5.723  10.381   3.112  1.5172  1.0871  1.7068
 1008MOL0     H39056   5.598  10.423   3.396 -1.4596 -0.7490 -1.6635
 1008MOL0     H39057   5.746  10.342   3.367  1.7805  1.1311 -1.9907
 1008MOL0     H39058   5.804  10.569   3.240 -0.2643 -2.7741 -1.0881
 1008MOL0     H39059   5.670  10.633   3.337 -1.1889 -0.3258  3.1148
 1008MOL0     H39060   5.753  10.597   3.553  0.2009  1.2542  0.6695
 1008MOL0     H39061   5.898  10.515   3.491 -0.2354 -1.5548 -2.3100
 1008MOL0     H39062   6.013  10.585   3.659  1.6089  0.0181  2.2060
 1008MOL0     H39063   6.155  10.558   3.837  0.1173  0.1201  0.3283
 1008MOL0     H39064   6.179  10.699   3.927 -0.6080 -0.9717  0.6331
 1008MOL0     H39065   6.296  10.650   3.789 -0.3044 -2.5172 -1.6771
 1008MOL0     H39066   6.515  10.815   3.947 -0.3680 -0.6064  1.4713
 1008MOL0     H39067   6.659  10.903   4.128 -0.6160 -0.8331  0.0294
 1008MOL0     H39068   6.764  11.037   4.313 -0.1917 -0.5871 -0.3707
 1008MOL0     H39069   6.872  11.053   4.170 -0.4112 -1.9023  0.4024
 1008MOL0     H39070   6.830  11.270   4.382 -0.5428  1.5173 -1.8634
 1008MOL0     H39071   6.933  11.125   4.384 -0.5728 -2.6100 -3.1505
 1008MOL0     H39072   6.931  11.328   4.171 -1.5799 -0.5315  0.7805
 1008MOL0     H39073   7.064  11.216   4.219 -1.6209 -3.0942  3.1060
 1008MOL0     H39074   7.037  11.361   4.448  2.0399 -1.5487 -0.0780
 1008MOL0     H39075   6.982  11.475   4.333 -1.5618 -1.2624  2.6841
 1008MOL0     H39076   7.259  11.351   4.322  0.9943  0.9542 -1.4622
 1008MOL0     H39077   7.204  11.455   4.200  2.5087  0.1380 -0.1271
 1008MOL0     H39078   7.174  11.554   4.485 -2.0468  2.8504 -1.4725
 1008MOL0     H39079   7.176  11.641   4.330  0.6459  0.1136  0.9188
 1008MOL0     H39080   7.407  11.626   4.300  0.6574  0.3496  0.4485
 1008MOL0     H39081   7.430  11.487   4.395 -1.2950 -0.3400  0.1062
 1008MOL0     H39082   7.400  11.780   4.494  2.5070  1.3904 -0.7898
 1008MOL0     H39083   7.542  11.688   4.511  0.0794  0.6844  1.1212
 1008MOL0     H39084   6.541  11.302   4.026 -4.0634 -0.6445 -0.2611
 1008MOL0     H39085   6.397  11.212   3.849 -0.1507 -1.3446 -2.0538
 1008MOL0     H39086   6.099  11.073   3.647  0.2397  0.1370  3.7653
 1008MOL0     H39087   5.951  10.973   3.461 -1.9163  0.4096  0.7209
 1008MOL0     H39088   5.321   9.321   3.655 -1.1570  0.3827 -0.6549
 1008MOL0     H39089   5.524   9.215   3.669 -0.8403  1.5533 -3.4151
 1008MOL0     H39090   5.888   9.177   3.886  3.3081 -0.3325  1.9102
 1008MOL0     H39091   6.031   9.010   3.984 -0.9494  1.7387  0.0586
 1008MOL0     H39092   6.197   8.727   3.669 -1.0718  2.2683  1.2306
 1008MOL0     H39093   6.300   8.686   3.800 -1.0458  0.6176  1.6520
 1008MOL0     H39094   6.127   8.548   3.902  1.4515  0.2883  0.1214
 1008MOL0     H39095   6.178   8.493   3.747 -1.4092 -1.1994 -0.2743
 1008MOL0     H39096   5.918   8.654   3.784  0.7420  0.9456 -0.1411
 1008MOL0     H39097   5.984   8.589   3.626  0.7238 -1.6920 -0.0049
 1008MOL0     H39098   5.796   8.465   3.738  0.6629  1.8191  1.8605
 1008MOL0     H39099   5.914   8.410   3.855 -4.6149  1.7302  2.4455
 1008MOL0     H39100   6.046   8.146   3.560 -1.7032 -0.4621 -0.6345
 1008MOL0     H39101   6.050   8.816   3.592 -2.3789 -3.3851  2.0950
 1008MOL0     H39102   5.947   9.075   3.406 -2.7268  2.0102  1.4731
 1008MOL0     H39103   5.954   8.891   3.427  0.3313  0.5066 -0.1887
 1008MOL0     H39104   5.807   8.983   3.443  0.2616  1.7492  1.0831
 1009MOL0     O39105   3.975   7.725   6.567 -0.1422 -0.5448  0.2561
 1009MOL0     C39106   3.956   7.848   6.573  0.2310  0.7310 -0.0163
 1009MOL0     O39107   3.994   7.924   6.690 -0.1201  0.2327  0.0629
 1009MOL0     C39108   4.058   7.858   6.796 -0.0991  0.4086 -0.5405
 1009MOL0     C39109   4.021   7.737   6.852  0.2227  0.2248  0.2622
 1009MOL0     C39110   4.104   7.690   6.956  0.7960 -0.4022  0.7509
 1009MOL0     C39111   4.213   7.761   7.009 -0.6750  0.0178 -1.0196
 1009MOL0     O39112   4.274   7.704   7.122 -0.0600 -0.1967  0.4094
 1009MOL0     C39113   4.415   7.712   7.138 -0.6928 -1.1788  0.8999
 1009MOL0     C39114   4.446   7.689   7.284 -0.5156 -0.4886 -0.2760
 1009MOL0     C39115   4.481   7.541   7.298 -0.4164  0.4155  0.1239
 1009MOL0     C39116   4.548   7.514   7.441 -0.0775  0.0186  0.3900
 1009MOL0     C39117   4.553   7.366   7.479  0.0877 -0.0041  0.9721
 1009MOL0     C39118   4.630   7.338   7.600  0.6198 -0.5585 -1.2255
 1009MOL0     C39119   4.671   7.193   7.609 -0.6010  0.8641  0.9095
 1009MOL0     C39120   4.768   7.157   7.720  0.1269 -0.2603 -0.5633
 1009MOL0     N39121   4.817   7.018   7.712  0.7497 -0.0315  0.1939
 1009MOL0     C39122   4.735   6.915   7.742  0.4097 -0.1368  0.6213
 1009MOL0     C39123   4.811   6.804   7.750 -0.8800 -0.4577 -0.4685
 1009MOL0     C39124   4.756   6.668   7.789 -0.1384 -1.5605 -0.2543
 1009MOL0     C39125   4.721   6.572   7.678  0.3312  0.1612 -0.2389
 1009MOL0     C39126   4.586   6.605   7.626 -0.4585  0.0191  0.6797
 1009MOL0     C39127   4.535   6.498   7.521  0.0089  0.8478  0.3746
 1009MOL0     O39128   4.414   6.554   7.467  0.1853  0.0351  0.1310
 1009MOL0     C39129   4.291   6.547   7.527 -0.1004 -0.4894 -0.8516
 1009MOL0     C39130   4.182   6.589   7.452 -0.3630  0.1299  0.0979
 1009MOL0     C39131   4.054   6.571   7.516 -0.4592  0.7349  0.1007
 1009MOL0     C39132   3.935   6.611   7.438 -0.1109 -0.0440 -0.2077
 1009MOL0     C39133   4.036   6.510   7.651  0.1282 -0.9239  0.4522
 1009MOL0     C39134   3.901   6.500   7.721 -0.3912 -0.7294  0.4825
 1009MOL0     O39135   3.881   6.522   7.851  0.3200  0.1668  0.1207
 1009MOL0     C39136   3.753   6.487   7.906  0.8336  0.4275  0.0584
 1009MOL0     C39137   3.638   6.553   7.851  0.3287 -0.1371 -0.3163
 1009MOL0     C39138   3.511   6.518   7.892 -0.2050  0.6147 -0.2505
 1009MOL0     C39139   3.485   6.442   8.015 -0.3697  0.3327  0.8720
 1009MOL0     O39140   3.360   6.409   8.061 -0.7174  0.1946  0.1302
 1009MOL0     C39141   3.248   6.452   7.986  0.6297  0.0561 -0.0253
 1009MOL0     C39142   3.191   6.580   8.041  0.1475  0.3347 -0.5188
 1009MOL0     C39143   3.060   6.631   7.972  0.2403  0.5554 -0.5817
 1009MOL0     C39144   3.080   6.692   7.829  0.1343  0.2713 -1.3170
 1009MOL0     C39145   2.953   6.764   7.766 -0.5227  0.0423 -0.8285
 1009MOL0     C39146   2.817   6.683   7.778  0.6507 -0.5944 -0.2246
 1009MOL0     C39147   2.714   6.777   7.730 -0.4693  0.4558 -0.0025
 1009MOL0     C39148   2.585   6.716   7.759  1.3383 -0.4454 -1.0086
 1009MOL0    Cl39149   2.543   6.700   7.931  0.5121 -0.2313 -0.2237
 1009MOL0     C39150   3.602   6.393   8.077 -0.3219  0.9436 -0.5453
 1009MOL0     C39151   3.732   6.406   8.024  0.2008 -0.2163  0.5765
 1009MOL0     O39152   3.811   6.457   7.648  0.0794 -0.4805  0.8311
 1009MOL0     C39153   4.149   6.475   7.719 -0.4627 -0.0007  0.2868
 1009MOL0     C39154   4.275   6.480   7.652  0.0245  0.6144  0.5085
 1009MOL0     N39155   4.936   6.845   7.713 -0.9355 -0.0948 -0.6586
 1009MOL0     N39156   4.942   6.971   7.690  0.3066  0.8424  0.0635
 1009MOL0     C39157   4.243   7.880   6.953  0.3521 -0.8019 -1.1076
 1009MOL0     C39158   4.165   7.928   6.846 -0.1558  0.1617 -0.2119
 1009MOL0     C39159   3.895   7.903   6.453  0.4514  0.6824 -0.4225
 1009MOL0     C39160   3.897   7.819   6.339 -0.0314  0.4964  0.4817
 1009MOL0     C39161   3.839   7.867   6.225  0.5285  0.0905 -0.2625
 1009MOL0     C39162   3.777   7.993   6.219 -0.6540  0.4094 -0.1903
 1009MOL0     O39163   3.717   8.044   6.109  0.3958 -0.2861 -0.0490
 1009MOL0     C39164   3.751   7.987   5.981 -0.8391  0.8142 -0.6161
 1009MOL0     C39165   3.702   8.093   5.879  0.3610  0.3439  0.9654
 1009MOL0     C39166   3.784   8.086   5.752  0.0038  0.2822  0.1992
 1009MOL0     C39167   3.746   8.199   5.659 -0.2571 -1.2767  0.4575
 1009MOL0     C39168   3.811   8.180   5.532 -1.0068  0.7168 -0.1113
 1009MOL0     C39169   3.839   8.160   5.419 -0.5508  0.2224 -0.0307
 1009MOL0     C39170   3.794   8.081   6.327 -0.1044 -0.6225  0.0447
 1009MOL0     C39171   3.849   8.034   6.449  0.8435  0.4737 -0.4692
 1009MOL0     C39172   3.848   8.124   6.571 -1.0355  0.4320  1.9096
 1009MOL0     H39173   3.942   7.677   6.808  2.4442 -1.6856 -1.3217
 1009MOL0     H39174   4.082   7.593   7.000  2.0113 -2.4593 -2.7831
 1009MOL0     H39175   4.450   7.812   7.113 -2.2510 -0.8401 -0.0480
 1009MOL0     H39176   4.463   7.640   7.072  0.3661 -1.6680  2.1652
 1009MOL0     H39177   4.537   7.746   7.306 -1.5182  1.5271 -1.1484
 1009MOL0     H39178   4.354   7.705   7.340 -1.1256  1.0789 -1.6358
 1009MOL0     H39179   4.387   7.486   7.284 -0.4542  0.8433 -1.5437
 1009MOL0     H39180   4.552   7.504   7.224  1.4731  0.1344  2.0041
 1009MOL0     H39181   4.648   7.559   7.442  0.3253 -0.7932  2.6636
 1009MOL0     H39182   4.481   7.566   7.510 -1.6314 -0.5982 -0.6075
 1009MOL0     H39183   4.609   7.321   7.397  1.4064  0.0678  1.7935
 1009MOL0     H39184   4.454   7.320   7.473 -0.0631  0.5351 -1.3483
 1009MOL0     H39185   4.716   7.405   7.592 -1.0181  1.6643 -1.0406
 1009MOL0     H39186   4.580   7.372   7.691 -0.5869 -2.2216 -1.2280
 1009MOL0     H39187   4.716   7.166   7.513  0.6675  2.2371  1.0876
 1009MOL0     H39188   4.588   7.126   7.634  0.2913 -0.3253  0.8046
 1009MOL0     H39189   4.861   7.215   7.714  1.7553 -2.1186  2.9703
 1009MOL0     H39190   4.732   7.184   7.820  3.3682  0.0145  0.6830
 1009MOL0     H39191   4.627   6.920   7.747  0.2572 -2.6049  1.1259
 1009MOL0     H39192   4.663   6.687   7.844 -0.7507  1.1260 -1.9945
 1009MOL0     H39193   4.825   6.627   7.863 -0.4947 -0.4549  0.7348
 1009MOL0     H39194   4.785   6.585   7.591 -0.0842 -3.7149 -1.2996
 1009MOL0     H39195   4.719   6.464   7.695 -2.9140  0.0275 -0.9254
 1009MOL0     H39196   4.513   6.613   7.707  1.4503 -1.3784  2.6555
 1009MOL0     H39197   4.600   6.699   7.572 -1.1423 -0.3020 -0.0832
 1009MOL0     H39198   4.611   6.493   7.443  2.0181  1.5703  2.1735
 1009MOL0     H39199   4.517   6.401   7.568 -2.6956  1.2192  0.2603
 1009MOL0     H39200   4.202   6.641   7.359  0.2481 -0.1310  0.0735
 1009MOL0     H39201   3.876   6.523   7.410  1.2689 -1.0541 -0.0290
 1009MOL0     H39202   3.965   6.654   7.342  1.4048  0.5355  0.4874
 1009MOL0     H39203   3.878   6.697   7.476 -0.0079  1.3579 -2.9659
 1009MOL0     H39204   3.663   6.623   7.772 -1.8137 -0.2219 -1.1376
 1009MOL0     H39205   3.435   6.568   7.833  1.9649  3.7478 -0.6656
 1009MOL0     H39206   3.254   6.451   7.876 -0.6851  0.4674 -0.1189
 1009MOL0     H39207   3.171   6.381   8.016  1.9907 -2.6610 -2.3835
 1009MOL0     H39208   3.180   6.569   8.150  1.1029 -0.4931 -0.4818
 1009MOL0     H39209   3.270   6.654   8.025  1.7846 -0.7399  1.9403
 1009MOL0     H39210   2.997   6.696   8.034 -3.5938 -0.6060 -2.9592
 1009MOL0     H39211   2.994   6.545   7.958  3.9452 -3.4722  3.4386
 1009MOL0     H39212   3.110   6.602   7.773 -0.5386 -1.2850  0.7032
 1009MOL0     H39213   3.172   6.751   7.824 -0.7044  1.5425 -2.4096
 1009MOL0     H39214   2.954   6.845   7.840 -1.0071  0.5565 -1.3789
 1009MOL0     H39215   2.956   6.802   7.664 -4.9962  0.1797 -1.0845
 1009MOL0     H39216   2.791   6.656   7.880  0.6084 -2.7635 -0.7469
 1009MOL0     H39217   2.813   6.595   7.712  0.2560  0.9654 -2.3985
 1009MOL0     H39218   2.706   6.792   7.622 -1.7258 -2.8749 -0.4879
 1009MOL0     H39219   2.716   6.874   7.782  2.3490  0.3510  0.2528
 1009MOL0     H39220   2.566   6.618   7.714  0.2709 -0.6523 -0.1501
 1009MOL0     H39221   2.501   6.769   7.714 -0.0222 -1.1965  0.5231
 1009MOL0     H39222   3.592   6.323   8.159 -5.0746  2.8237  0.8071
 1009MOL0     H39223   3.823   6.368   8.070  0.3732 -1.8194 -1.0128
 1009MOL0     H39224   4.146   6.422   7.814  0.6230 -2.2416 -0.8312
 1009MOL0     H39225   4.362   6.434   7.698  0.1852  1.8338  1.4822
 1009MOL0     H39226   4.306   7.955   7.000  0.8468 -0.2937 -2.5205
 1009MOL0     H39227   4.183   8.025   6.800 -2.2596 -0.0007 -1.5066
 1009MOL0     H39228   3.929   7.715   6.342 -0.3331  0.3833  4.0223
 1009MOL0     H39229   3.829   7.793   6.146  3.1198  0.5189 -1.0889
 1009MOL0     H39230   3.858   7.966   5.972 -0.3082  1.4193  2.9319
 1009MOL0     H39231   3.695   7.894   5.966  0.5489 -1.0169  4.0506
 1009MOL0     H39232   3.712   8.197   5.914  1.7877  1.0251 -1.2358
 1009MOL0     H39233   3.598   8.069   5.858  0.0542  1.8090  0.6559
 1009MOL0     H39234   3.892   8.094   5.768  0.6032  0.4968 -3.1998
 1009MOL0     H39235   3.771   7.993   5.695  3.1736  1.2162 -2.3305
 1009MOL0     H39236   3.779   8.293   5.704 -1.5306  1.4450 -3.6704
 1009MOL0     H39237   3.640   8.210   5.631 -0.1337  2.4325  0.9219
 1009MOL0     H39238   3.833   8.154   5.312 -3.2560  0.5710  0.0179
 1009MOL0     H39239   3.746   8.179   6.323  1.6546  0.2508 -0.5661
 1009MOL0     H39240   3.787   8.067   6.642  0.1328 -1.1951  1.6623
 1009MOL0     H39241   3.946   8.153   6.611 -0.1446  0.8001 -0.3816
 1009MOL0     H39242   3.807   8.221   6.541  1.7567  0.7704 -1.4375
 1010MOL0     O39243   1.990   1.939   7.527 -0.6074 -0.4350  0.3418
 1010MOL0     C39244   2.088   1.887   7.579  0.8575 -0.6194  0.6932
 1010MOL0     O39245   2.108   1.866   7.713  0.1716 -1.1863  0.6608
 1010MOL0     C39246   2.009   1.909   7.800  0.0586  0.8403  0.4345
 1010MOL0     C39247   2.022   2.036   7.859  0.6300  0.5292 -0.8737
 1010MOL0     C39248   1.925   2.081   7.947  0.7173 -0.3414 -0.7932
 1010MOL0     C39249   1.800   2.014   7.974 -0.1393 -0.4150  0.3140
 1010MOL0     O39250   1.704   2.060   8.062  0.0133  0.0954  1.1150
 1010MOL0     C39251   1.723   2.195   8.106 -0.8649 -0.6620 -0.3511
 1010MOL0     C39252   1.611   2.227   8.210 -0.3899  0.6952 -0.5489
 1010MOL0     C39253   1.470   2.246   8.146  0.1009 -0.1490 -0.3355
 1010MOL0     C39254   1.375   2.314   8.249 -0.4085  0.4153 -0.9683
 1010MOL0     C39255   1.326   2.209   8.349 -0.2214 -0.6591 -0.0095
 1010MOL0     C39256   1.201   2.123   8.311 -0.0461  0.0198  0.5561
 1010MOL0     C39257   1.164   2.017   8.419 -0.3624  0.4739  0.6941
 1010MOL0     C39258   1.040   1.942   8.357  0.1514 -0.2391  0.1588
 1010MOL0     N39259   0.982   1.834   8.444  0.0079  0.0364  1.2170
 1010MOL0     C39260   0.913   1.852   8.563  0.7011  0.1999 -0.0036
 1010MOL0     C39261   0.892   1.729   8.603 -0.3134  1.2299 -0.7402
 1010MOL0     C39262   0.834   1.671   8.729 -0.2602 -0.0265 -0.0524
 1010MOL0     C39263   0.852   1.527   8.776 -0.7551 -0.0980  0.6599
 1010MOL0     C39264   0.823   1.519   8.931 -0.0180  0.6184  1.5493
 1010MOL0     C39265   0.832   1.370   8.963  0.7465 -0.5563 -0.0962
 1010MOL0     O39266   0.720   1.298   8.903 -1.0392  0.2979 -0.1378
 1010MOL0     C39267   0.701   1.163   8.934  0.3598 -0.5032  0.4527
 1010MOL0     C39268   0.625   1.089   8.850 -0.1594 -0.1795 -0.1694
 1010MOL0     C39269   0.593   0.954   8.872 -0.0158  0.4334  0.9258
 1010MOL0     C39270   0.500   0.884   8.780  0.6586  0.9881 -0.2568
 1010MOL0     C39271   0.662   0.895   8.983 -0.7186 -0.2261  0.9813
 1010MOL0     C39272   0.656   0.752   9.024 -0.2912 -0.7463 -0.5139
 1010MOL0     O39273   0.770   0.702   9.085  0.9201  0.7693 -0.3810
 1010MOL0     C39274   0.783   0.564   9.084 -0.4207 -0.5684 -0.3076
 1010MOL0     C39275   0.753   0.485   8.975  0.5658  0.4264  0.6898
 1010MOL0     C39276   0.755   0.347   8.975 -0.4529  0.8240 -0.1780
 1010MOL0     C39277   0.777   0.284   9.107  0.5075 -1.1120  0.5253
 1010MOL0     O39278   0.763   0.152   9.133  0.2022  0.8311 -0.3332
 1010MOL0     C39279   0.640   0.130   9.200  0.9594  0.2220 -0.2125
 1010MOL0     C39280   0.569   0.003   9.145  0.2385  0.6354  0.9498
 1010MOL0     C39281   0.536   0.016   8.997  1.0000 -0.3893 -0.4598
 1010MOL0     C39282   0.410   0.115   8.986  0.6002 -0.2023  0.4175
 1010MOL0     C39283   0.341   0.092   8.851  0.1948  0.2276 -0.1718
 1010MOL0     C39284   0.223   0.191   8.806 -0.4005 -0.0001 -0.9279
 1010MOL0     C39285   0.291   0.335   8.775 -0.2230 -0.2547 -0.9744
 1010MOL0     C39286   0.181   0.434   8.760  0.6654 -0.2079  1.0156
 1010MOL0    Cl39287   0.096   0.468   8.908  0.1918 -0.5123  0.2365
 1010MOL0     C39288   0.835   0.362   9.211  0.2738  0.1114 -0.5549
 1010MOL0     C39289   0.826   0.505   9.206 -0.3320  0.0054  0.5438
 1010MOL0     O39290   0.543   0.698   9.026  0.2521  0.5800  0.0178
 1010MOL0     C39291   0.749   0.968   9.060  0.4598  0.7126 -0.1423
 1010MOL0     C39292   0.758   1.106   9.049 -0.2365 -0.0451  0.3335
 1010MOL0     N39293   0.956   1.641   8.515 -0.5574  0.2728  0.2552
 1010MOL0     N39294   1.004   1.702   8.410  0.4471 -0.2393 -0.0861
 1010MOL0     C39295   1.785   1.884   7.919 -0.0007 -0.5357 -0.1915
 1010MOL0     C39296   1.887   1.838   7.832 -0.6961 -0.1396  0.4028
 1010MOL0     C39297   2.179   1.846   7.473 -0.5571  1.1130 -0.5016
 1010MOL0     C39298   2.135   1.772   7.358  0.1351 -0.4080 -0.3151
 1010MOL0     C39299   2.222   1.722   7.257 -0.3301 -0.0935 -0.5954
 1010MOL0     C39300   2.358   1.758   7.261  0.0778 -0.6128 -1.3008
 1010MOL0     O39301   2.449   1.725   7.163  0.4276  0.1075 -0.1271
 1010MOL0     C39302   2.419   1.612   7.085 -0.2183 -1.0980  0.0391
 1010MOL0     C39303   2.553   1.563   7.007 -0.8957  0.5836  0.0719
 1010MOL0     C39304   2.548   1.419   6.951 -0.5341  0.6302  0.4402
 1010MOL0     C39305   2.681   1.387   6.885 -0.0360  0.7390  0.8388
 1010MOL0     C39306   2.679   1.244   6.838 -0.0888 -0.7115 -0.3782
 1010MOL0     C39307   2.678   1.129   6.812  0.5463  0.6716  0.1385
 1010MOL0     C39308   2.398   1.841   7.373 -0.3118 -0.4192  0.4466
 1010MOL0     C39309   2.317   1.874   7.481 -1.2166 -0.1206 -0.1048
 1010MOL0     C39310   2.377   1.958   7.591 -0.0696 -0.1732 -0.1743
 1010MOL0     H39311   2.116   2.085   7.837  1.6727 -1.3308 -0.6999
 1010MOL0     H39312   1.954   2.179   7.984  0.0307  0.0170 -1.1652
 1010MOL0     H39313   1.718   2.265   8.023 -1.0300 -1.5674 -1.1175
 1010MOL0     H39314   1.818   2.204   8.160  0.7444 -1.7122 -2.8490
 1010MOL0     H39315   1.614   2.156   8.292  0.5461 -1.7413 -2.5595
 1010MOL0     H39316   1.634   2.326   8.251 -2.0630  0.7862  0.2636
 1010MOL0     H39317   1.478   2.315   8.062 -0.3987  1.6098  1.0005
 1010MOL0     H39318   1.423   2.153   8.112  0.5012 -0.3299 -0.4001
 1010MOL0     H39319   1.432   2.384   8.310 -2.4918 -0.0954  1.7916
 1010MOL0     H39320   1.291   2.366   8.202 -1.2178  0.4686  0.4513
 1010MOL0     H39321   1.298   2.267   8.437  5.2629 -0.3545  1.9276
 1010MOL0     H39322   1.406   2.150   8.395  1.7855  3.5637  2.5376
 1010MOL0     H39323   1.123   2.195   8.284 -1.0151 -2.2608 -3.5618
 1010MOL0     H39324   1.229   2.075   8.217 -0.0884  2.4538 -0.7668
 1010MOL0     H39325   1.137   2.071   8.510 -1.4167  0.4221  0.4336
 1010MOL0     H39326   1.248   1.952   8.444 -0.1640  1.4152  2.6802
 1010MOL0     H39327   0.968   2.024   8.356  0.3898 -0.0327  0.0036
 1010MOL0     H39328   1.058   1.897   8.259  2.4519 -2.0774  1.3212
 1010MOL0     H39329   0.875   1.940   8.615 -5.5620 -2.7537  1.4278
 1010MOL0     H39330   0.729   1.700   8.722 -0.5571 -1.3186 -1.6468
 1010MOL0     H39331   0.872   1.737   8.808 -2.3080  0.4006  0.6332
 1010MOL0     H39332   0.777   1.469   8.721 -1.0593  0.9365 -0.0687
 1010MOL0     H39333   0.953   1.493   8.754 -0.9770 -2.1417  2.4788
 1010MOL0     H39334   0.899   1.577   8.984  1.4309  0.8365 -0.6372
 1010MOL0     H39335   0.722   1.554   8.953 -0.0230  1.1807  0.6622
 1010MOL0     H39336   0.923   1.314   8.937  1.2003 -1.1510  2.5332
 1010MOL0     H39337   0.825   1.363   9.072  1.6676  1.9295  0.2095
 1010MOL0     H39338   0.578   1.145   8.771  1.0173  1.4709  0.2660
 1010MOL0     H39339   0.523   0.915   8.677  3.0267 -0.4585 -0.2431
 1010MOL0     H39340   0.397   0.907   8.810  1.1543  0.0158  2.4836
 1010MOL0     H39341   0.509   0.775   8.783 -5.3756  0.1992  0.8744
 1010MOL0     H39342   0.758   0.537   8.880 -1.2507 -1.2855 -0.4115
 1010MOL0     H39343   0.735   0.275   8.897  0.5734  0.7186 -0.3481
 1010MOL0     H39344   0.655   0.128   9.308  0.7866  1.4457 -0.1478
 1010MOL0     H39345   0.576   0.217   9.179  1.0091 -0.0524 -1.6021
 1010MOL0     H39346   0.634  -0.083   9.165 -0.8598 -0.0143  1.8408
 1010MOL0     H39347   0.479  -0.014   9.204 -2.1915  0.8192 -2.3820
 1010MOL0     H39348   0.512  -0.085   8.961  2.4890 -1.4660  1.4165
 1010MOL0     H39349   0.626   0.049   8.944 -0.2916  2.3864 -1.1080
 1010MOL0     H39350   0.449   0.217   8.982  1.6071 -0.5986 -2.7811
 1010MOL0     H39351   0.349   0.103   9.076  0.0273 -0.6922 -0.0237
 1010MOL0     H39352   0.423   0.091   8.778 -0.8448 -0.4833 -1.3836
 1010MOL0     H39353   0.298  -0.008   8.863  2.7471 -1.4743 -3.4794
 1010MOL0     H39354   0.140   0.200   8.877 -0.7326  0.5077 -1.3754
 1010MOL0     H39355   0.180   0.141   8.719  2.8587 -1.5665 -1.7676
 1010MOL0     H39356   0.343   0.333   8.679 -0.2121  1.0330 -1.0131
 1010MOL0     H39357   0.355   0.383   8.850 -2.6798 -0.5637  1.5073
 1010MOL0     H39358   0.110   0.391   8.688  0.4585  1.4419  0.1740
 1010MOL0     H39359   0.231   0.520   8.714  3.8581 -2.7354 -0.7362
 1010MOL0     H39360   0.878   0.315   9.299  1.5981  0.0763 -1.2021
 1010MOL0     H39361   0.841   0.554   9.302  1.5267 -3.2237  2.0800
 1010MOL0     H39362   0.803   0.927   9.145 -0.8270 -0.3474  0.2032
 1010MOL0     H39363   0.824   1.163   9.113 -0.1026 -1.0287  1.0940
 1010MOL0     H39364   1.695   1.828   7.943  0.1654 -0.7081  0.0345
 1010MOL0     H39365   1.875   1.744   7.780  2.1026 -0.7474  0.6708
 1010MOL0     H39366   2.029   1.753   7.346  0.0346 -0.2268  0.2424
 1010MOL0     H39367   2.165   1.680   7.174 -0.4524  1.6703 -1.4619
 1010MOL0     H39368   2.384   1.533   7.152  0.0386 -2.2916 -1.1945
 1010MOL0     H39369   2.342   1.649   7.018  0.1509  3.3665  1.7724
 1010MOL0     H39370   2.647   1.569   7.064 -1.0104  2.4913  0.1451
 1010MOL0     H39371   2.567   1.642   6.932  0.6522  0.6386  0.3745
 1010MOL0     H39372   2.534   1.357   7.040 -1.5051  0.9503  0.5226
 1010MOL0     H39373   2.461   1.409   6.885 -1.7586 -3.1040  2.3059
 1010MOL0     H39374   2.768   1.414   6.945  0.7124  0.6756 -0.1843
 1010MOL0     H39375   2.690   1.455   6.800  1.4709 -0.7441 -0.2509
 1010MOL0     H39376   2.678   1.029   6.774  1.3498  0.2961  1.0779
 1010MOL0     H39377   2.504   1.864   7.364 -0.2895 -0.4278  0.6786
 1010MOL0     H39378   2.421   1.890   7.664 -0.3582  0.2579  0.4146
 1010MOL0     H39379   2.457   2.023   7.554 -1.7675  0.8929 -2.2191
 1010MOL0     H39380   2.302   2.024   7.635 -0.3940  0.7770 -2.0278
 1011MOL0     O39381   8.771   4.064   4.643  0.1010  0.2783  0.9489
 1011MOL0     C39382   8.680   4.094   4.717 -0.4609  0.4545 -0.8128
 1011MOL0     O39383   8.600   4.009   4.770  0.7894  0.9892  0.1778
 1011MOL0     C39384   8.631   3.871   4.764  0.0950 -0.5372 -0.4031
 1011MOL0     C39385   8.559   3.792   4.676 -0.8930 -0.5664 -0.2149
 1011MOL0     C39386   8.582   3.649   4.679  0.1423 -0.4613  0.1711
 1011MOL0     C39387   8.676   3.596   4.766  0.1098  0.6931 -0.6459
 1011MOL0     O39388   8.686   3.458   4.772 -0.4653 -0.8595 -0.2947
 1011MOL0     C39389   8.723   3.405   4.901  0.5248  0.3132 -0.1735
 1011MOL0     C39390   8.828   3.294   4.881 -0.2304 -0.3850 -0.9148
 1011MOL0     C39391   8.965   3.337   4.820  0.2757  0.1774 -0.9247
 1011MOL0     C39392   8.959   3.367   4.668 -0.4749  0.8273 -1.2662
 1011MOL0     C39393   9.105   3.367   4.612  0.4189 -1.1222  0.6763
 1011MOL0     C39394   9.114   3.424   4.468 -0.3108 -0.4558  0.7587
 1011MOL0     C39395   9.036   3.341   4.359 -1.1217 -0.9226 -0.8225
 1011MOL0     C39396   9.071   3.420   4.223  0.2010  0.1896 -0.4950
 1011MOL0     N39397   8.980   3.386   4.114  0.6013 -0.3660 -0.5395
 1011MOL0     C39398   8.844   3.422   4.117 -0.7447  0.6046  1.0858
 1011MOL0     C39399   8.814   3.355   3.999 -0.4797 -0.2298 -0.1683
 1011MOL0     C39400   8.684   3.384   3.928  1.2311  0.1872 -0.0493
 1011MOL0     C39401   8.688   3.469   3.805 -0.9485 -0.5620  0.1513
 1011MOL0     C39402   8.557   3.527   3.748 -0.1598 -0.2428  0.5318
 1011MOL0     C39403   8.524   3.664   3.813  0.0642 -1.0577 -1.0001
 1011MOL0     O39404   8.385   3.705   3.778 -0.8166 -0.6846  0.4321
 1011MOL0     C39405   8.357   3.824   3.837  0.3964  1.5644  0.3033
 1011MOL0     C39406   8.234   3.843   3.905 -0.3021  0.2199 -0.3289
 1011MOL0     C39407   8.188   3.965   3.958 -0.6662  0.1637 -0.2838
 1011MOL0     C39408   8.050   3.978   4.022  0.1042  0.5287 -0.9073
 1011MOL0     C39409   8.276   4.072   3.951 -0.5763  0.2899  0.0155
 1011MOL0     C39410   8.253   4.213   3.992 -0.5777 -0.0191 -0.6970
 1011MOL0     O39411   8.354   4.298   4.022  0.3603  0.1098 -0.1720
 1011MOL0     C39412   8.331   4.422   4.087  0.3509  1.0235 -0.0322
 1011MOL0     C39413   8.280   4.424   4.222 -0.1370  0.0404 -0.4647
 1011MOL0     C39414   8.276   4.549   4.283  0.2879  0.7503 -0.8645
 1011MOL0     C39415   8.297   4.669   4.218 -0.6071  0.5477  1.1112
 1011MOL0     O39416   8.296   4.793   4.269  0.2788  0.7320 -0.1107
 1011MOL0     C39417   8.323   4.806   4.409 -0.5152  0.4358 -0.3767
 1011MOL0     C39418   8.332   4.958   4.433  0.1856  0.9724 -0.8258
 1011MOL0     C39419   8.445   5.036   4.354  0.1495  0.7779 -0.5253
 1011MOL0     C39420   8.577   5.025   4.430  0.9015 -0.1059 -0.0440
 1011MOL0     C39421   8.693   5.031   4.322 -0.6152  0.0432  0.0224
 1011MOL0     C39422   8.677   4.944   4.192 -0.6656  0.0435 -0.3845
 1011MOL0     C39423   8.818   4.922   4.131  0.0204  0.0841 -0.3185
 1011MOL0     C39424   8.815   4.839   4.003 -0.1056  0.4988 -1.1181
 1011MOL0    Cl39425   8.715   4.922   3.887  0.0313  0.4405  0.2086
 1011MOL0     C39426   8.334   4.659   4.088 -0.4416  0.7718 -0.2296
 1011MOL0     C39427   8.357   4.545   4.026 -0.7494  0.9524  0.3361
 1011MOL0     O39428   8.134   4.244   3.992 -0.7922 -0.2872 -0.1362
 1011MOL0     C39429   8.400   4.052   3.889  0.2414 -0.4153  0.4975
 1011MOL0     C39430   8.434   3.933   3.830  0.2839 -0.1978  0.6990
 1011MOL0     N39431   8.911   3.278   3.936 -0.0279  0.3926 -0.6587
 1011MOL0     N39432   9.014   3.304   4.009 -0.6253  0.7131 -0.4153
 1011MOL0     C39433   8.762   3.683   4.839  0.6120  0.8674 -0.7990
 1011MOL0     C39434   8.729   3.820   4.853  0.4268 -0.2870 -0.1978
 1011MOL0     C39435   8.658   4.236   4.749 -0.1147 -0.7030 -0.0697
 1011MOL0     C39436   8.564   4.274   4.844  0.3001  0.7547 -0.6874
 1011MOL0     C39437   8.514   4.399   4.851  0.1211  0.1830  0.4761
 1011MOL0     C39438   8.582   4.506   4.790 -0.6562 -0.1448  0.1520
 1011MOL0     O39439   8.543   4.641   4.811  0.4042 -0.2627 -0.3036
 1011MOL0     C39440   8.430   4.673   4.893 -0.0823  0.9552 -0.4447
 1011MOL0     C39441   8.395   4.821   4.893  0.1499  0.2458  0.8780
 1011MOL0     C39442   8.485   4.899   4.994  0.7985 -0.5881  0.3936
 1011MOL0     C39443   8.467   5.045   5.024  0.4772 -0.2893  0.2160
 1011MOL0     C39444   8.368   5.115   4.928  0.5075 -0.1118 -1.0517
 1011MOL0     C39445   8.304   5.175   4.839  0.9104  0.4740 -0.6920
 1011MOL0     C39446   8.687   4.481   4.696  0.5808 -0.4744 -0.0894
 1011MOL0     C39447   8.728   4.347   4.681 -0.2867  1.0852 -0.2024
 1011MOL0     C39448   8.854   4.335   4.597  0.3381  0.1183 -0.2846
 1011MOL0     H39449   8.494   3.844   4.607  1.5045 -0.5189 -2.5920
 1011MOL0     H39450   8.526   3.581   4.615  2.6351 -1.0713 -1.5096
 1011MOL0     H39451   8.641   3.360   4.957  1.3892 -0.0582  0.8187
 1011MOL0     H39452   8.761   3.477   4.974  2.0346  0.1391 -0.7346
 1011MOL0     H39453   8.859   3.242   4.972  2.0102 -4.3357 -3.5874
 1011MOL0     H39454   8.775   3.209   4.836 -0.6434 -1.0643  0.7607
 1011MOL0     H39455   9.000   3.425   4.875 -1.9606 -0.4928  1.7934
 1011MOL0     H39456   9.039   3.259   4.844  0.8936  1.1842  0.6390
 1011MOL0     H39457   8.898   3.291   4.619  1.6748 -0.9923 -1.2802
 1011MOL0     H39458   8.920   3.469   4.661  1.3453  1.6711 -0.0815
 1011MOL0     H39459   9.132   3.261   4.604  2.1104 -0.6868  0.2579
 1011MOL0     H39460   9.177   3.421   4.674  1.8799 -0.7806 -1.2165
 1011MOL0     H39461   9.067   3.523   4.467  3.1231  1.3406 -0.2091
 1011MOL0     H39462   9.222   3.431   4.449 -0.4123  0.7398  0.5259
 1011MOL0     H39463   8.929   3.346   4.383 -1.4521  0.2445 -2.3329
 1011MOL0     H39464   9.065   3.236   4.358 -2.6962 -1.5752  3.3530
 1011MOL0     H39465   9.062   3.526   4.245  0.7143 -0.1760  1.7358
 1011MOL0     H39466   9.171   3.401   4.184 -0.1905 -0.1766 -1.3560
 1011MOL0     H39467   8.786   3.497   4.170 -2.3435  0.0592  0.1530
 1011MOL0     H39468   8.618   3.428   4.002  0.7900 -0.5384 -0.0034
 1011MOL0     H39469   8.638   3.290   3.895  1.6188  0.9726 -3.1750
 1011MOL0     H39470   8.763   3.549   3.814  0.9397 -1.7329 -3.2206
 1011MOL0     H39471   8.727   3.415   3.718 -2.8110  2.0403 -2.4952
 1011MOL0     H39472   8.559   3.529   3.639 -4.4104  0.0850  0.2884
 1011MOL0     H39473   8.485   3.450   3.777  1.2495 -1.7800  0.0825
 1011MOL0     H39474   8.539   3.657   3.921  2.1570 -0.6729 -1.2406
 1011MOL0     H39475   8.593   3.738   3.771 -0.6954  0.1414 -0.1962
 1011MOL0     H39476   8.172   3.754   3.910  1.0145 -0.8372 -1.8704
 1011MOL0     H39477   8.002   3.880   4.016 -2.0882  1.4308  0.7001
 1011MOL0     H39478   7.987   4.046   3.965  0.6423  1.9630  0.1217
 1011MOL0     H39479   8.055   4.002   4.129 -0.1122 -0.8402 -0.5715
 1011MOL0     H39480   8.253   4.334   4.275 -0.8040  0.3582 -0.2561
 1011MOL0     H39481   8.241   4.557   4.385 -3.0931  1.1091 -1.9241
 1011MOL0     H39482   8.244   4.772   4.477  2.5671 -3.4097  1.6767
 1011MOL0     H39483   8.405   4.745   4.449  0.3414 -0.4881 -3.3155
 1011MOL0     H39484   8.230   4.992   4.415 -0.3939 -0.0818  0.2880
 1011MOL0     H39485   8.341   4.968   4.542  0.6862 -1.4589 -0.5769
 1011MOL0     H39486   8.425   5.143   4.344  0.3811  1.0892  1.7892
 1011MOL0     H39487   8.444   4.981   4.259 -1.0677 -2.4441  1.1815
 1011MOL0     H39488   8.579   4.928   4.480  0.1725 -0.1061  0.0010
 1011MOL0     H39489   8.585   5.106   4.504 -1.1089  1.1005 -1.0548
 1011MOL0     H39490   8.711   5.137   4.301 -3.0838  0.9736  2.0737
 1011MOL0     H39491   8.783   4.993   4.370  0.7040  2.7687 -0.0810
 1011MOL0     H39492   8.621   4.996   4.113 -0.2139 -1.1616 -1.5271
 1011MOL0     H39493   8.624   4.853   4.221 -0.0333 -0.0900  0.4034
 1011MOL0     H39494   8.880   4.874   4.208 -0.9774 -0.1688  0.3462
 1011MOL0     H39495   8.859   5.023   4.122 -3.2221  1.7225  1.4503
 1011MOL0     H39496   8.771   4.739   4.011  0.2523  0.5240  2.1698
 1011MOL0     H39497   8.920   4.832   3.974  0.0248  1.5059 -0.9349
 1011MOL0     H39498   8.349   4.749   4.029 -0.8515  0.1465 -1.3195
 1011MOL0     H39499   8.383   4.554   3.921  1.5700  1.8833  0.9152
 1011MOL0     H39500   8.455   4.144   3.874 -2.9634  1.5360 -0.2203
 1011MOL0     H39501   8.529   3.933   3.777  0.4332  0.1188  0.9633
 1011MOL0     H39502   8.846   3.648   4.896  0.9682  0.2451 -1.6847
 1011MOL0     H39503   8.776   3.892   4.919 -0.0666  1.3708 -1.5678
 1011MOL0     H39504   8.529   4.198   4.914  1.5694  0.5020 -0.2893
 1011MOL0     H39505   8.430   4.424   4.915  2.2003  1.5611  2.8437
 1011MOL0     H39506   8.338   4.616   4.876  0.2180  0.8063 -1.6696
 1011MOL0     H39507   8.455   4.645   4.996 -1.3362 -3.8064 -1.2036
 1011MOL0     H39508   8.288   4.835   4.914  0.6105 -0.7133  4.4699
 1011MOL0     H39509   8.418   4.854   4.792 -0.9112  0.2365  0.6238
 1011MOL0     H39510   8.495   4.850   5.091  0.6813 -2.6413 -0.5756
 1011MOL0     H39511   8.581   4.906   4.941  0.1146 -3.7509 -1.5135
 1011MOL0     H39512   8.558   5.104   5.008  1.1267 -0.7737  1.8931
 1011MOL0     H39513   8.446   5.056   5.131 -0.0121  0.0344  0.0906
 1011MOL0     H39514   8.266   5.235   4.759 -1.1010  0.0416 -0.1142
 1011MOL0     H39515   8.741   4.565   4.653 -0.8543 -0.4298 -1.8895
 1011MOL0     H39516   8.881   4.431   4.553 -1.9079  0.5468 -0.8639
 1011MOL0     H39517   8.934   4.298   4.662  2.8577  1.6916 -2.3236
 1011MOL0     H39518   8.841   4.259   4.520  0.3455 -2.8659  2.4238
 1012MOL0     O39519   9.743   5.233   6.586  0.0964  0.2521 -0.2061
 1012MOL0     C39520   9.666   5.325   6.611  0.2752  0.0717 -0.2640
 1012MOL0     O39521   9.587   5.334   6.715  0.3459 -1.1234 -0.5725
 1012MOL0     C39522   9.560   5.236   6.798 -0.1386  0.4159 -0.1118
 1012MOL0     C39523   9.583   5.255   6.938 -0.0969 -0.0793  0.5414
 1012MOL0     C39524   9.563   5.148   7.025 -0.9008 -0.6406 -0.4662
 1012MOL0     C39525   9.517   5.025   6.981  0.7406  0.8845  0.0032
 1012MOL0     O39526   9.474   4.936   7.076 -0.5367  0.2796 -0.1961
 1012MOL0     C39527   9.354   4.872   7.040  0.1219  0.1653  0.1007
 1012MOL0     C39528   9.314   4.777   7.150  0.5015 -0.0463  0.0163
 1012MOL0     C39529   9.177   4.719   7.118  0.2489  0.2718  0.0740
 1012MOL0     C39530   9.124   4.632   7.235  0.7951  0.0465  0.0484
 1012MOL0     C39531   8.974   4.613   7.224 -0.6165  0.5805 -0.0764
 1012MOL0     C39532   8.943   4.532   7.095  0.7816 -0.2627  0.4235
 1012MOL0     C39533   8.980   4.381   7.100  0.2353 -1.6776  0.0862
 1012MOL0     C39534   8.938   4.316   6.971  0.9198  0.5163  0.0496
 1012MOL0     N39535   9.012   4.373   6.853  0.0939  0.0494 -0.1617
 1012MOL0     C39536   9.155   4.409   6.858  0.4426  0.4765  0.5797
 1012MOL0     C39537   9.175   4.447   6.728  0.0414 -0.4180  0.6234
 1012MOL0     C39538   9.305   4.480   6.660 -0.1535 -0.0260  0.7064
 1012MOL0     C39539   9.337   4.634   6.678 -0.0076  0.2107  0.5296
 1012MOL0     C39540   9.464   4.663   6.602  0.5008  0.0468 -0.0839
 1012MOL0     C39541   9.590   4.574   6.641  0.0784  0.2988  0.9149
 1012MOL0     O39542   9.606   4.566   6.776 -0.7478  0.5226 -0.2944
 1012MOL0     C39543   9.732   4.608   6.814 -0.6821  0.5631  0.2932
 1012MOL0     C39544   9.751   4.731   6.873 -1.3628  0.0262 -0.2803
 1012MOL0     C39545   9.886   4.772   6.916  0.1075 -0.4042  0.1255
 1012MOL0     C39546   9.916   4.908   6.953 -0.1440 -0.3449  1.2311
 1012MOL0     C39547   9.990   4.674   6.915  0.3644  0.3458 -1.2855
 1012MOL0     C39548  10.128   4.703   6.961  1.2748 -0.9234  0.9890
 1012MOL0     O39549  10.210   4.772   6.866 -0.5228  0.8749 -0.9854
 1012MOL0     C39550  10.343   4.792   6.901 -0.2258  0.3321 -0.6028
 1012MOL0     C39551  10.428   4.681   6.925 -0.4242 -0.3219  0.4765
 1012MOL0     C39552  10.565   4.704   6.954  0.1230 -0.4408  0.7201
 1012MOL0     C39553  10.613   4.840   6.955  0.3354  0.0891  0.6515
 1012MOL0     O39554  10.744   4.880   6.975 -0.2916 -0.4795  0.0611
 1012MOL0     C39555  10.846   4.784   6.915 -0.2020 -0.2750 -1.1102
 1012MOL0     C39556  10.941   4.879   6.865  0.4208  0.2593  0.4057
 1012MOL0     C39557  10.883   4.942   6.737  0.3229  0.8273  0.0808
 1012MOL0     C39558  10.917   4.855   6.614  0.4696  0.2547 -0.6885
 1012MOL0     C39559  10.837   4.898   6.487 -0.6734  0.0281 -0.2748
 1012MOL0     C39560  10.881   5.031   6.421  1.0629  0.0220 -0.1822
 1012MOL0     C39561  10.812   5.057   6.289  0.4063  0.3382 -0.1758
 1012MOL0     C39562  10.660   5.091   6.312 -0.4688  0.3008 -0.1956
 1012MOL0    Cl39563  10.611   5.262   6.295 -0.0705  0.1125 -0.2483
 1012MOL0     C39564  10.524   4.948   6.936  0.6226  0.7442 -0.0072
 1012MOL0     C39565  10.393   4.925   6.907 -1.3436  0.0342  0.7708
 1012MOL0     O39566  10.161   4.656   7.069  0.0774 -0.6189 -0.4621
 1012MOL0     C39567   9.966   4.548   6.861 -0.2999 -0.8086 -0.7893
 1012MOL0     C39568   9.839   4.513   6.814 -0.0349  0.3513  0.5315
 1012MOL0     N39569   9.054   4.427   6.659 -0.1348 -0.3600 -0.3632
 1012MOL0     N39570   8.961   4.394   6.732  0.0823  0.8146 -0.6291
 1012MOL0     C39571   9.506   5.003   6.844 -0.0565  0.2946  0.6054
 1012MOL0     C39572   9.519   5.107   6.749 -0.1639 -0.6753 -0.7606
 1012MOL0     C39573   9.664   5.442   6.514  0.2174 -0.1648 -0.0938
 1012MOL0     C39574   9.595   5.558   6.555 -0.7572 -0.4343 -0.0968
 1012MOL0     C39575   9.596   5.667   6.481  1.3448 -0.4413  0.7573
 1012MOL0     C39576   9.658   5.677   6.361  0.5467  0.5051 -0.3588
 1012MOL0     O39577   9.655   5.792   6.283  0.4598  1.1349  0.6625
 1012MOL0     C39578   9.651   5.926   6.341  0.3277 -0.0083  0.4595
 1012MOL0     C39579   9.609   6.027   6.225  0.2428  0.6356 -0.6914
 1012MOL0     C39580   9.459   6.030   6.215  0.0515 -0.2585  0.1293
 1012MOL0     C39581   9.413   6.145   6.125 -0.5811  0.7137 -0.4716
 1012MOL0     C39582   9.277   6.178   6.178 -0.0603  0.4588  0.2206
 1012MOL0     C39583   9.169   6.222   6.207  0.0500 -0.4613  0.4735
 1012MOL0     C39584   9.731   5.565   6.307  0.0467  1.1268  0.5091
 1012MOL0     C39585   9.734   5.445   6.386 -0.1841  0.2725  0.2468
 1012MOL0     C39586   9.805   5.328   6.328  0.6678  0.4194  0.5838
 1012MOL0     H39587   9.603   5.357   6.969  0.7386 -0.5415  1.5877
 1012MOL0     H39588   9.579   5.147   7.132  1.4351  1.4466 -0.7094
 1012MOL0     H39589   9.366   4.820   6.944 -0.5176  0.6843 -0.2682
 1012MOL0     H39590   9.268   4.936   7.022 -0.0899 -0.6404 -2.0817
 1012MOL0     H39591   9.390   4.701   7.169 -2.7128 -2.8628  2.9270
 1012MOL0     H39592   9.304   4.844   7.237 -0.2513  0.9261 -0.7924
 1012MOL0     H39593   9.111   4.805   7.106  0.2274  0.8826  3.5134
 1012MOL0     H39594   9.185   4.658   7.028  0.3301  0.7222 -0.2233
 1012MOL0     H39595   9.188   4.543   7.236  1.5443  0.5881  0.6088
 1012MOL0     H39596   9.142   4.690   7.326 -2.0553  0.8740  0.1777
 1012MOL0     H39597   8.921   4.709   7.222 -2.6696 -0.5019 -0.5396
 1012MOL0     H39598   8.935   4.562   7.312 -0.4740 -2.6713 -1.7585
 1012MOL0     H39599   8.837   4.530   7.072  1.0601 -0.2286 -0.9817
 1012MOL0     H39600   8.975   4.586   7.005 -1.9397  1.7867  0.5527
 1012MOL0     H39601   8.940   4.333   7.190  2.0235 -1.9434  0.7893
 1012MOL0     H39602   9.088   4.375   7.114  0.4093  2.3033  1.4833
 1012MOL0     H39603   8.953   4.208   6.975 -0.5496  0.3114  1.0368
 1012MOL0     H39604   8.829   4.325   6.962  0.9499  1.6915  0.7089
 1012MOL0     H39605   9.226   4.389   6.938  0.1293 -3.0413  0.1186
 1012MOL0     H39606   9.301   4.444   6.557  0.9951 -2.0995  1.3249
 1012MOL0     H39607   9.386   4.426   6.709 -1.2893 -1.4580  1.0697
 1012MOL0     H39608   9.254   4.695   6.642 -0.7715  1.3952  3.9579
 1012MOL0     H39609   9.350   4.657   6.784 -0.8709 -1.3452  1.0086
 1012MOL0     H39610   9.443   4.665   6.495 -4.1157 -1.4793  0.5708
 1012MOL0     H39611   9.492   4.765   6.630 -1.6739  0.0344  2.6555
 1012MOL0     H39612   9.581   4.471   6.606  2.9896 -1.0261  3.6272
 1012MOL0     H39613   9.681   4.601   6.588 -1.3677  0.2562 -1.7241
 1012MOL0     H39614   9.669   4.801   6.878 -2.3002 -0.9948 -0.8558
 1012MOL0     H39615   9.989   4.961   6.891 -2.7498 -0.7476 -2.5175
 1012MOL0     H39616   9.961   4.922   7.051  1.3693  3.2885  0.1550
 1012MOL0     H39617   9.832   4.977   6.951  0.1900  0.0767  1.5427
 1012MOL0     H39618  10.385   4.581   6.920 -0.6777 -0.1602 -1.1241
 1012MOL0     H39619  10.639   4.628   6.978  2.1960 -0.2123 -3.8560
 1012MOL0     H39620  10.886   4.714   6.989  2.1167 -1.1468 -3.0611
 1012MOL0     H39621  10.801   4.726   6.834 -3.1902 -0.3342  0.4479
 1012MOL0     H39622  10.970   4.952   6.941  1.1589  1.4446 -0.9696
 1012MOL0     H39623  11.029   4.826   6.828 -1.1832 -1.8571 -0.6305
 1012MOL0     H39624  10.922   5.044   6.743 -0.0788  1.0447 -0.9536
 1012MOL0     H39625  10.774   4.947   6.742  0.0963 -2.4825  1.5506
 1012MOL0     H39626  10.888   4.754   6.644 -3.7348  0.9154 -1.9208
 1012MOL0     H39627  11.024   4.849   6.589  0.0746 -5.1132 -2.4104
 1012MOL0     H39628  10.860   4.817   6.417  1.1770 -3.2987  3.7623
 1012MOL0     H39629  10.729   4.891   6.505 -0.8303  0.3875 -1.0474
 1012MOL0     H39630  10.990   5.036   6.417  1.3146 -1.9701  1.8707
 1012MOL0     H39631  10.860   5.116   6.485 -0.9994 -1.3848  1.1296
 1012MOL0     H39632  10.829   4.975   6.218 -1.9352 -0.2386 -0.1662
 1012MOL0     H39633  10.844   5.143   6.230 -3.8961  1.5497 -1.0919
 1012MOL0     H39634  10.635   5.067   6.416  0.0136  1.8477  0.3096
 1012MOL0     H39635  10.592   5.025   6.258  0.2414  1.5520 -2.8162
 1012MOL0     H39636  10.558   5.050   6.929  0.6810  0.6944 -0.4356
 1012MOL0     H39637  10.326   5.009   6.887 -1.0168  0.3756  1.0940
 1012MOL0     H39638  10.041   4.469   6.859  1.8104  0.7610  3.7321
 1012MOL0     H39639   9.825   4.412   6.775  0.2508 -0.4528  2.4371
 1012MOL0     H39640   9.486   4.905   6.801  2.4336  0.3845 -0.9588
 1012MOL0     H39641   9.504   5.090   6.643  2.4251  0.9840 -1.4994
 1012MOL0     H39642   9.537   5.568   6.646 -1.6781  0.9829 -0.8068
 1012MOL0     H39643   9.541   5.750   6.525 -1.1199 -2.1919  1.1942
 1012MOL0     H39644   9.603   5.928   6.439 -0.9739 -1.8722 -0.0876
 1012MOL0     H39645   9.755   5.956   6.358 -0.0150  3.8802 -2.8190
 1012MOL0     H39646   9.663   6.003   6.133 -0.8705  0.2877 -1.2692
 1012MOL0     H39647   9.650   6.127   6.246 -0.0218  1.0877 -2.2518
 1012MOL0     H39648   9.423   5.937   6.172  0.1470 -0.4420  0.4486
 1012MOL0     H39649   9.410   6.041   6.312 -1.2581 -1.4470 -0.3737
 1012MOL0     H39650   9.411   6.116   6.019  0.5469  0.0633 -0.3269
 1012MOL0     H39651   9.479   6.232   6.132  0.1295  0.1307  0.2389
 1012MOL0     H39652   9.074   6.268   6.228  1.3249  2.6287  0.1353
 1012MOL0     H39653   9.779   5.562   6.210  1.1545 -0.7892  1.0590
 1012MOL0     H39654   9.878   5.284   6.397  1.1055 -0.7531 -0.5799
 1012MOL0     H39655   9.744   5.240   6.306  1.8728  0.1444 -2.0166
 1012MOL0     H39656   9.865   5.353   6.241  1.2215  2.6301  1.5467
 1013MOL0     O39657   4.514   0.625  11.292 -0.1428 -0.2055 -0.5136
 1013MOL0     C39658   4.538   0.539  11.211  0.0632  0.1473  0.8454
 1013MOL0     O39659   4.539   0.403  11.237 -0.6715  0.1153 -0.2414
 1013MOL0     C39660   4.580   0.355  11.360  0.7404 -1.4191 -0.8789
 1013MOL0     C39661   4.523   0.238  11.402  0.6595 -0.3581 -1.1232
 1013MOL0     C39662   4.562   0.167  11.511 -0.6175 -0.3712 -0.0381
 1013MOL0     C39663   4.675   0.216  11.590 -0.1915  0.5523  1.1484
 1013MOL0     O39664   4.707   0.149  11.704 -0.6492 -0.6489 -0.1120
 1013MOL0     C39665   4.813   0.203  11.797  0.6840  0.3598  0.2128
 1013MOL0     C39666   4.848   0.103  11.911  0.0912 -0.2322  0.6604
 1013MOL0     C39667   4.729   0.076  12.003 -0.5800 -0.2256  0.0455
 1013MOL0     C39668   4.766   0.017  12.139 -0.8869  0.1702  0.7478
 1013MOL0     C39669   4.650   0.018  12.238 -0.9547 -0.6172  0.1158
 1013MOL0     C39670   4.536  -0.080  12.200 -0.0786  1.1628 -0.3851
 1013MOL0     C39671   4.425  -0.075  12.301 -0.4521  0.7401  0.6963
 1013MOL0     C39672   4.313  -0.184  12.281  0.3297 -1.8761 -0.3303
 1013MOL0     N39673   4.357  -0.309  12.325  0.1838  0.6168 -0.0576
 1013MOL0     C39674   4.358  -0.360  12.453 -0.1649  0.0926 -0.8786
 1013MOL0     C39675   4.407  -0.489  12.448  0.7407  0.1412  0.1243
 1013MOL0     C39676   4.446  -0.589  12.555 -0.5057 -0.1943  0.3925
 1013MOL0     C39677   4.324  -0.651  12.630  0.4633 -0.6034 -1.1478
 1013MOL0     C39678   4.208  -0.681  12.538 -0.2151  0.1444 -0.4647
 1013MOL0     C39679   4.084  -0.733  12.621  0.4138  0.4025  0.2540
 1013MOL0     O39680   4.050  -0.647  12.728  0.3533 -0.3450 -1.1481
 1013MOL0     C39681   3.941  -0.683  12.806 -0.0258 -0.7461  1.0547
 1013MOL0     C39682   3.878  -0.806  12.801 -0.6419 -0.1318  0.4231
 1013MOL0     C39683   3.774  -0.836  12.886 -0.6437  0.2168  0.7240
 1013MOL0     C39684   3.685  -0.952  12.861  0.7500 -0.7108 -0.2675
 1013MOL0     C39685   3.732  -0.735  12.979 -0.5162  0.2782  0.3212
 1013MOL0     C39686   3.619  -0.763  13.071  0.2527  0.0599 -0.6848
 1013MOL0     O39687   3.560  -0.651  13.123 -0.7230  0.5879  0.3948
 1013MOL0     C39688   3.456  -0.662  13.214 -0.5196 -0.5390 -0.4803
 1013MOL0     C39689   3.486  -0.607  13.341 -0.0992 -0.2185 -1.0779
 1013MOL0     C39690   3.389  -0.614  13.438  0.6960  0.7621 -1.5577
 1013MOL0     C39691   3.265  -0.681  13.419 -0.4752 -0.0284  0.4460
 1013MOL0     O39692   3.167  -0.681  13.510  0.4838 -1.6183 -0.2675
 1013MOL0     C39693   3.174  -0.774  13.614 -0.1593  0.3497 -0.8863
 1013MOL0     C39694   3.171  -0.922  13.567 -0.8890 -0.0863  0.7080
 1013MOL0     C39695   3.025  -0.970  13.520 -0.2130 -0.2249 -0.3797
 1013MOL0     C39696   2.926  -1.057  13.611 -0.6603 -0.2723 -0.4915
 1013MOL0     C39697   2.980  -1.176  13.686 -0.1022 -0.1901 -0.0544
 1013MOL0     C39698   3.041  -1.293  13.598  0.5997 -0.0119 -0.4729
 1013MOL0     C39699   3.104  -1.408  13.677 -0.8931 -0.1830  0.8069
 1013MOL0     C39700   3.003  -1.497  13.752  0.3555 -0.8190  0.3720
 1013MOL0    Cl39701   3.095  -1.625  13.854  0.3158 -0.1041  0.6278
 1013MOL0     C39702   3.238  -0.726  13.292  0.8226  0.1795  0.8822
 1013MOL0     C39703   3.333  -0.718  13.193 -0.0755  0.4616  0.0718
 1013MOL0     O39704   3.583  -0.874  13.107 -0.4685 -0.2350  0.1655
 1013MOL0     C39705   3.792  -0.604  12.980  0.2101  0.1378 -0.6703
 1013MOL0     C39706   3.900  -0.585  12.900 -0.0795 -0.2186  0.5491
 1013MOL0     N39707   4.452  -0.494  12.316  0.0655  0.3779 -0.5685
 1013MOL0     N39708   4.419  -0.394  12.250  0.3438  0.6815 -0.5687
 1013MOL0     C39709   4.740   0.334  11.548 -0.0277  0.1640 -0.6348
 1013MOL0     C39710   4.687   0.403  11.438  0.4679  0.4213  0.2907
 1013MOL0     C39711   4.551   0.595  11.070 -0.5033  0.0292  0.1235
 1013MOL0     C39712   4.516   0.728  11.039 -0.1605  0.1573 -0.3613
 1013MOL0     C39713   4.532   0.783  10.908 -0.1604  0.6048  0.2652
 1013MOL0     C39714   4.594   0.709  10.805  1.1842  0.3483 -0.3963
 1013MOL0     O39715   4.610   0.763  10.676  0.1724  0.7495  0.4351
 1013MOL0     C39716   4.684   0.688  10.575  0.0287  0.0971  0.1026
 1013MOL0     C39717   4.702   0.801  10.474 -0.2141  0.2601 -0.2425
 1013MOL0     C39718   4.834   0.806  10.401 -0.6427  0.5114 -0.0710
 1013MOL0     C39719   4.863   0.923  10.312  0.1659 -1.2931 -0.0286
 1013MOL0     C39720   4.764   0.942  10.204 -0.8234  0.8437  0.9247
 1013MOL0     C39721   4.678   0.958  10.113 -0.5724 -0.1361  0.1874
 1013MOL0     C39722   4.649   0.585  10.841 -0.2919  0.0350 -0.0375
 1013MOL0     C39723   4.619   0.526  10.964  0.4469  0.1369 -0.4046
 1013MOL0     C39724   4.653   0.383  10.957  0.2150 -0.7936 -0.9596
 1013MOL0     H39725   4.440   0.200  11.342  1.5391 -1.6711 -1.5540
 1013MOL0     H39726   4.505   0.085  11.553 -1.2076 -0.0846 -0.2806
 1013MOL0     H39727   4.769   0.295  11.836  0.6423  1.0447 -1.3532
 1013MOL0     H39728   4.898   0.240  11.739  0.0424  2.2740  0.4174
 1013MOL0     H39729   4.876   0.006  11.870  2.4116  0.4487  0.4745
 1013MOL0     H39730   4.929   0.126  11.980 -1.2090  2.0334  1.5296
 1013MOL0     H39731   4.676   0.169  12.022 -0.5497 -0.6210  2.4283
 1013MOL0     H39732   4.650   0.013  11.961  0.0141 -2.5721  2.2043
 1013MOL0     H39733   4.800  -0.087  12.138 -1.4745 -0.0667  2.1102
 1013MOL0     H39734   4.850   0.079  12.172 -0.7898  2.2360 -2.8934
 1013MOL0     H39735   4.603   0.117  12.238  1.0777  0.4281 -1.6213
 1013MOL0     H39736   4.685  -0.009  12.338  1.3861 -3.3125 -1.3005
 1013MOL0     H39737   4.498  -0.046  12.103 -2.8443  1.5024  0.7252
 1013MOL0     H39738   4.575  -0.182  12.201 -0.2991  1.0718 -0.8811
 1013MOL0     H39739   4.377   0.023  12.303  0.9919  1.4406  1.9951
 1013MOL0     H39740   4.473  -0.091  12.398 -2.4688 -1.3361  1.4498
 1013MOL0     H39741   4.221  -0.150  12.331  0.9370 -0.3001 -0.2427
 1013MOL0     H39742   4.281  -0.185  12.176  1.5070  0.9513 -0.7945
 1013MOL0     H39743   4.321  -0.290  12.528  1.5484  0.2535 -0.1304
 1013MOL0     H39744   4.503  -0.534  12.630 -3.7008  1.5102  1.7532
 1013MOL0     H39745   4.500  -0.663  12.494 -1.1086  1.5573 -2.4850
 1013MOL0     H39746   4.352  -0.742  12.683  0.7831  0.3236  0.3544
 1013MOL0     H39747   4.298  -0.585  12.714  0.8214 -0.3817 -1.2079
 1013MOL0     H39748   4.167  -0.592  12.489 -2.2321  0.3097  1.4221
 1013MOL0     H39749   4.225  -0.760  12.464 -2.7818 -2.3036  1.3735
 1013MOL0     H39750   3.996  -0.751  12.559  0.2179 -0.3305  0.7308
 1013MOL0     H39751   4.117  -0.827  12.666 -1.7426  0.1411  1.4176
 1013MOL0     H39752   3.907  -0.890  12.739 -0.3728  1.0782 -1.1360
 1013MOL0     H39753   3.583  -0.916  12.845  0.4253 -0.2850  2.2747
 1013MOL0     H39754   3.672  -1.026  12.940  1.2600  0.0971  0.6009
 1013MOL0     H39755   3.718  -0.998  12.768  0.0886  1.1268 -1.4616
 1013MOL0     H39756   3.576  -0.553  13.367 -1.3652  0.8716  1.3179
 1013MOL0     H39757   3.419  -0.563  13.529  1.3101  2.3916 -2.6176
 1013MOL0     H39758   3.260  -0.741  13.672 -0.6558 -1.4668  0.9815
 1013MOL0     H39759   3.089  -0.748  13.677  1.8002  4.2013  0.4814
 1013MOL0     H39760   3.244  -0.934  13.486  2.4912  1.4747  3.2577
 1013MOL0     H39761   3.211  -0.988  13.645  2.7206  3.9320  2.6843
 1013MOL0     H39762   3.043  -1.026  13.427 -0.0964 -0.1074 -0.4272
 1013MOL0     H39763   2.976  -0.880  13.482  1.8338  0.6051 -1.1932
 1013MOL0     H39764   2.843  -1.086  13.546  1.0959  1.4487 -3.7759
 1013MOL0     H39765   2.878  -0.994  13.686 -0.7251  0.3614 -1.0564
 1013MOL0     H39766   3.051  -1.140  13.760 -1.2790 -1.6195  1.8715
 1013MOL0     H39767   2.895  -1.221  13.738  0.6772 -4.2595 -1.8924
 1013MOL0     H39768   3.126  -1.238  13.556  1.2345  0.7604  1.7302
 1013MOL0     H39769   2.970  -1.326  13.521  0.0560 -1.3512  0.5760
 1013MOL0     H39770   3.167  -1.361  13.753  0.7301 -0.1208 -0.5137
 1013MOL0     H39771   3.172  -1.465  13.613 -0.1496  0.9766  0.5409
 1013MOL0     H39772   2.950  -1.554  13.674  0.8570  1.1076 -1.4814
 1013MOL0     H39773   2.937  -1.431  13.809  0.0574 -1.9720  1.4059
 1013MOL0     H39774   3.140  -0.758  13.260 -0.1557  2.8645  0.9541
 1013MOL0     H39775   3.313  -0.746  13.090  1.6125  0.9263 -0.4042
 1013MOL0     H39776   3.772  -0.531  13.058 -1.4371 -1.2999  0.3342
 1013MOL0     H39777   3.961  -0.498  12.920  0.8410 -0.3305 -1.5064
 1013MOL0     H39778   4.836   0.361  11.591  0.9740 -2.0161 -1.3577
 1013MOL0     H39779   4.738   0.493  11.405  2.8813 -0.8365  0.3043
 1013MOL0     H39780   4.462   0.775  11.121 -2.9802 -1.9354 -0.8553
 1013MOL0     H39781   4.485   0.879  10.889 -1.7816 -0.3460 -0.8528
 1013MOL0     H39782   4.780   0.653  10.613  0.0208  0.7474  0.7461
 1013MOL0     H39783   4.635   0.603  10.527 -0.1944 -0.1561  0.7726
 1013MOL0     H39784   4.678   0.900  10.515  0.6817  1.0742 -1.5860
 1013MOL0     H39785   4.623   0.792  10.399 -0.6164 -2.9005  0.4609
 1013MOL0     H39786   4.907   0.815  10.483  1.8777  3.5830 -2.3995
 1013MOL0     H39787   4.853   0.714  10.344 -1.6545 -0.5648  1.2578
 1013MOL0     H39788   4.963   0.896  10.275  2.0857 -1.4604  4.6692
 1013MOL0     H39789   4.866   1.022  10.357 -2.0896  0.0878 -2.5844
 1013MOL0     H39790   4.605   0.981  10.038 -0.5231  2.0035  0.7144
 1013MOL0     H39791   4.715   0.533  10.772  1.4943  2.7460 -0.5287
 1013MOL0     H39792   4.561   0.336  10.995  0.5582 -0.6212  0.1352
 1013MOL0     H39793   4.668   0.344  10.856  1.7467 -3.3933  0.1431
 1013MOL0     H39794   4.743   0.356  11.013 -0.6334 -0.1785  0.7563
 1014MOL0     O39795   1.396   4.626   2.346 -1.0516 -0.2182  0.1396
 1014MOL0     C39796   1.393   4.697   2.446 -0.2587 -0.2475  0.6815
 1014MOL0     O39797   1.304   4.670   2.551  0.3083  0.3790 -0.6731
 1014MOL0     C39798   1.233   4.553   2.567  0.0321 -0.2277 -0.9374
 1014MOL0     C39799   1.118   4.555   2.643  0.3100 -0.8445 -0.4727
 1014MOL0     C39800   1.052   4.440   2.676 -0.1069  0.4061  0.1829
 1014MOL0     C39801   1.100   4.317   2.645 -0.6069  0.8131 -2.2202
 1014MOL0     O39802   1.034   4.210   2.693 -0.1894 -0.8455 -0.2226
 1014MOL0     C39803   1.107   4.089   2.703  0.2993  0.1592  0.1569
 1014MOL0     C39804   1.032   4.019   2.823  0.0748 -0.9263 -0.2202
 1014MOL0     C39805   1.093   4.049   2.961  0.2067  0.1416 -0.0912
 1014MOL0     C39806   1.023   3.973   3.074  0.1929 -0.3373  1.9141
 1014MOL0     C39807   1.058   4.023   3.209  0.1804 -1.0188 -0.6211
 1014MOL0     C39808   0.970   3.962   3.323 -0.1976  0.6616 -0.3710
 1014MOL0     C39809   0.989   4.011   3.476 -0.4709  0.5227  0.3461
 1014MOL0     C39810   1.127   3.956   3.525  1.5574 -0.5657 -0.0358
 1014MOL0     N39811   1.135   3.934   3.680  0.6460  0.9231  0.3193
 1014MOL0     C39812   1.076   3.828   3.746  0.1559  0.2084  0.2860
 1014MOL0     C39813   1.126   3.841   3.875  0.3347  0.3479  0.0030
 1014MOL0     C39814   1.073   3.758   3.993  0.1116 -0.4819  0.0568
 1014MOL0     C39815   1.181   3.727   4.102  0.0279  0.2319 -0.4012
 1014MOL0     C39816   1.131   3.606   4.190  0.0175  0.2441  0.1638
 1014MOL0     C39817   1.236   3.564   4.293 -0.4366  0.2816 -0.5762
 1014MOL0     O39818   1.193   3.451   4.369 -0.0752  0.2693 -0.1654
 1014MOL0     C39819   1.281   3.418   4.466  0.0934 -0.8980 -0.1716
 1014MOL0     C39820   1.252   3.454   4.596 -0.9915 -0.1700 -0.9081
 1014MOL0     C39821   1.340   3.413   4.703 -0.4221 -0.2054  0.2383
 1014MOL0     C39822   1.302   3.441   4.848  0.3433  0.6067 -0.6480
 1014MOL0     C39823   1.466   3.351   4.668  0.9798  0.4202  0.6955
 1014MOL0     C39824   1.555   3.296   4.775 -0.2672 -0.0952  0.3464
 1014MOL0     O39825   1.601   3.172   4.743 -0.5894  0.4879  0.2194
 1014MOL0     C39826   1.681   3.114   4.837 -0.0040 -0.8088  0.5228
 1014MOL0     C39827   1.643   3.006   4.913  0.3959  0.2142 -0.0635
 1014MOL0     C39828   1.727   2.917   4.989  0.8125 -0.3956  0.4900
 1014MOL0     C39829   1.861   2.946   5.002  0.4900  0.1085  0.1483
 1014MOL0     O39830   1.930   2.865   5.091  0.2710 -0.6786  0.8872
 1014MOL0     C39831   2.074   2.863   5.075  0.4704 -0.6046 -0.5404
 1014MOL0     C39832   2.123   2.737   5.147 -0.3455 -1.1522  0.8119
 1014MOL0     C39833   2.271   2.748   5.164  0.1980 -0.8433  0.4149
 1014MOL0     C39834   2.328   2.617   5.204  0.9184  0.2970 -0.0606
 1014MOL0     C39835   2.467   2.634   5.265  0.0574  1.0285  0.5627
 1014MOL0     C39836   2.546   2.511   5.255 -0.3977 -0.2819  0.4675
 1014MOL0     C39837   2.631   2.506   5.123  0.7722 -0.0229 -0.5301
 1014MOL0     C39838   2.710   2.382   5.116 -0.5539 -1.0128  0.1588
 1014MOL0    Cl39839   2.611   2.245   5.066 -0.1054 -0.0946  0.1667
 1014MOL0     C39840   1.899   3.071   4.943 -0.1840 -0.3551  0.3200
 1014MOL0     C39841   1.814   3.147   4.861  0.6537 -0.2075 -0.6310
 1014MOL0     O39842   1.565   3.341   4.891  0.4595 -0.1245  0.2719
 1014MOL0     C39843   1.485   3.302   4.536  1.2200  1.0403 -0.3120
 1014MOL0     C39844   1.393   3.342   4.439 -0.2158  0.3632  0.5616
 1014MOL0     N39845   1.212   3.953   3.881 -0.5151  0.1321 -0.4841
 1014MOL0     N39846   1.215   4.006   3.766  0.6725 -0.4618 -0.0581
 1014MOL0     C39847   1.214   4.312   2.566 -0.6020  0.6004 -0.6153
 1014MOL0     C39848   1.283   4.425   2.532 -0.0979  0.2880  0.0680
 1014MOL0     C39849   1.496   4.805   2.465 -0.0146  0.4052 -0.4117
 1014MOL0     C39850   1.610   4.808   2.378 -0.0808  0.5195  0.4368
 1014MOL0     C39851   1.712   4.910   2.391  0.2530 -0.9231  0.5917
 1014MOL0     C39852   1.710   4.998   2.501  0.4312  0.9345 -0.2346
 1014MOL0     O39853   1.810   5.087   2.535 -0.6693 -0.5072 -0.0140
 1014MOL0     C39854   1.890   5.160   2.429  0.4426  0.6077  0.1276
 1014MOL0     C39855   1.821   5.289   2.378  0.0201 -0.0017 -0.4996
 1014MOL0     C39856   1.923   5.366   2.285  0.4275 -0.3981 -0.6103
 1014MOL0     C39857   1.983   5.493   2.354  0.1287  0.6733 -0.2771
 1014MOL0     C39858   2.084   5.453   2.461 -0.1723 -0.6695 -0.1760
 1014MOL0     C39859   2.163   5.422   2.543 -0.7732  0.0515 -0.2117
 1014MOL0     C39860   1.609   4.981   2.603  0.4294  0.5774 -0.0381
 1014MOL0     C39861   1.497   4.890   2.580 -0.1275 -0.4296  0.0751
 1014MOL0     C39862   1.389   4.898   2.686  0.0048 -0.7227 -0.3126
 1014MOL0     H39863   1.068   4.641   2.688  1.9374  0.0124 -0.2257
 1014MOL0     H39864   0.959   4.442   2.732  1.0171  0.0640  2.1513
 1014MOL0     H39865   1.213   4.097   2.727  0.3301  2.4221 -0.5178
 1014MOL0     H39866   1.086   4.034   2.610 -0.9985  1.2597 -0.2439
 1014MOL0     H39867   0.926   4.045   2.831 -0.5182 -1.8815 -3.4062
 1014MOL0     H39868   1.040   3.911   2.816  0.4705 -1.0242  1.4591
 1014MOL0     H39869   1.198   4.021   2.952  0.1218  0.0890 -1.0049
 1014MOL0     H39870   1.087   4.158   2.954  0.6416  0.0878 -1.5477
 1014MOL0     H39871   0.916   3.983   3.055  0.5162  0.1311  0.1901
 1014MOL0     H39872   1.046   3.868   3.051  2.3666  0.5482 -0.3781
 1014MOL0     H39873   1.046   4.131   3.225 -0.9177 -1.2948  0.6237
 1014MOL0     H39874   1.165   4.002   3.221 -0.2125 -1.7235  2.6113
 1014MOL0     H39875   0.865   3.982   3.300  0.8431  3.9281 -3.1618
 1014MOL0     H39876   1.000   3.857   3.331 -1.0207  0.4259 -0.3226
 1014MOL0     H39877   0.902   3.984   3.537 -0.9159  0.9837 -0.0710
 1014MOL0     H39878   0.989   4.120   3.483 -3.1915  0.5060  1.9683
 1014MOL0     H39879   1.162   3.868   3.471  2.3846 -0.5387  0.4292
 1014MOL0     H39880   1.199   4.037   3.507  2.3127 -1.1275  0.3801
 1014MOL0     H39881   1.006   3.752   3.711  0.3541  1.7660 -4.1188
 1014MOL0     H39882   1.046   3.660   3.952  2.1148 -0.8440 -0.5133
 1014MOL0     H39883   0.987   3.812   4.032  0.1769  0.1449 -0.6398
 1014MOL0     H39884   1.274   3.700   4.052 -0.9761 -2.0211 -1.1790
 1014MOL0     H39885   1.202   3.815   4.163  2.2288  2.2135 -3.7239
 1014MOL0     H39886   1.047   3.635   4.255  0.5774  1.2875  0.4463
 1014MOL0     H39887   1.102   3.522   4.127 -0.2347  1.5514 -1.5279
 1014MOL0     H39888   1.320   3.533   4.229  0.3535  0.3939  0.3766
 1014MOL0     H39889   1.262   3.650   4.356  2.2905 -1.8704  1.4793
 1014MOL0     H39890   1.153   3.491   4.620 -0.0381  1.3768  0.8004
 1014MOL0     H39891   1.268   3.350   4.901 -3.9085  1.4411 -1.5514
 1014MOL0     H39892   1.210   3.500   4.857 -0.6729 -1.0180  0.2852
 1014MOL0     H39893   1.375   3.481   4.919 -0.6792  0.1467  0.7220
 1014MOL0     H39894   1.541   2.974   4.900  1.3384 -3.2058  0.1560
 1014MOL0     H39895   1.672   2.841   5.043 -0.1515  1.2917  2.0173
 1014MOL0     H39896   2.107   2.870   4.971 -2.4185 -0.0833 -1.5073
 1014MOL0     H39897   2.107   2.946   5.138  0.1830 -0.1047 -1.0333
 1014MOL0     H39898   2.081   2.737   5.248  0.2907  0.2210  1.0918
 1014MOL0     H39899   2.095   2.645   5.095  2.0651 -2.5837  1.8528
 1014MOL0     H39900   2.298   2.819   5.243  0.4073  1.4857 -1.6182
 1014MOL0     H39901   2.319   2.780   5.071  1.0311  1.0493  1.4517
 1014MOL0     H39902   2.326   2.555   5.114 -2.6559  2.0606 -1.3943
 1014MOL0     H39903   2.268   2.567   5.281 -0.9874 -1.0999 -2.3276
 1014MOL0     H39904   2.519   2.722   5.225  1.9828  0.1396  0.9834
 1014MOL0     H39905   2.463   2.658   5.371  2.0374 -1.7095  1.3604
 1014MOL0     H39906   2.488   2.418   5.262 -4.1499  2.0031  2.1621
 1014MOL0     H39907   2.624   2.511   5.333 -2.4279 -0.2448  2.6141
 1014MOL0     H39908   2.682   2.602   5.135 -1.3712  0.9468  1.9716
 1014MOL0     H39909   2.568   2.520   5.035  0.1940  1.2175  0.0539
 1014MOL0     H39910   2.748   2.364   5.217  0.3090 -0.5192 -0.0694
 1014MOL0     H39911   2.796   2.390   5.048  0.5766  0.4432  1.6873
 1014MOL0     H39912   2.004   3.100   4.953  1.5660 -6.0972  3.0406
 1014MOL0     H39913   1.853   3.237   4.815 -0.3888  2.3027  2.9330
 1014MOL0     H39914   1.569   3.239   4.507 -0.0414 -0.4063 -0.9638
 1014MOL0     H39915   1.417   3.308   4.339  1.7449 -0.0207  1.1226
 1014MOL0     H39916   1.259   4.228   2.513 -0.6974 -0.5211  1.0051
 1014MOL0     H39917   1.369   4.422   2.466  0.8936 -4.6440  1.1904
 1014MOL0     H39918   1.615   4.726   2.308 -1.6628  0.0515  0.8206
 1014MOL0     H39919   1.789   4.904   2.314  2.1201 -0.3147  2.3339
 1014MOL0     H39920   1.986   5.191   2.472 -0.1742 -0.7336  2.6254
 1014MOL0     H39921   1.925   5.098   2.345 -0.9380  0.6561 -0.5009
 1014MOL0     H39922   1.788   5.360   2.455  0.4757  1.3714 -1.5290
 1014MOL0     H39923   1.735   5.261   2.316 -0.3649 -1.0489  0.4639
 1014MOL0     H39924   2.001   5.300   2.245 -1.0921 -2.1325 -0.8231
 1014MOL0     H39925   1.865   5.403   2.201 -0.9404  1.1695  0.9590
 1014MOL0     H39926   1.903   5.546   2.407  1.6019  0.9284  1.8447
 1014MOL0     H39927   2.027   5.566   2.285 -2.7846  2.6395 -0.2444
 1014MOL0     H39928   2.237   5.404   2.619  0.2810  4.0369 -0.0550
 1014MOL0     H39929   1.600   5.045   2.690 -0.3080  1.5215 -0.7789
 1014MOL0     H39930   1.396   4.806   2.744  1.4110 -1.3785 -1.4553
 1014MOL0     H39931   1.418   4.972   2.762  2.1622 -1.2733 -0.5359
 1014MOL0     H39932   1.288   4.914   2.648 -1.2504 -2.3675  2.0481
 1015MOL0     O39933   3.161   0.985   0.435  0.1982  0.3743 -0.5469
 1015MOL0     C39934   3.073   0.931   0.369  0.0759 -0.8487  0.4117
 1015MOL0     O39935   2.944   0.919   0.395 -0.2395 -0.2475  0.1006
 1015MOL0     C39936   2.903   0.953   0.522  0.8350 -0.6632  0.4975
 1015MOL0     C39937   2.821   0.855   0.586 -0.1949  0.7608 -0.5160
 1015MOL0     C39938   2.758   0.892   0.704 -0.0320  0.4872 -0.3801
 1015MOL0     C39939   2.756   1.016   0.760  0.5289 -0.8206 -1.0157
 1015MOL0     O39940   2.691   1.041   0.875  0.4063  0.7160  0.3241
 1015MOL0     C39941   2.747   1.141   0.967 -0.6733  0.4060  0.1800
 1015MOL0     C39942   2.687   1.112   1.107 -0.7172  0.1259 -0.3724
 1015MOL0     C39943   2.739   1.207   1.215  0.2453 -0.5608 -0.5054
 1015MOL0     C39944   2.669   1.172   1.345 -0.9753 -0.9495 -0.3433
 1015MOL0     C39945   2.728   1.231   1.475 -0.3561  0.3798  0.3974
 1015MOL0     C39946   2.644   1.192   1.594 -0.1982 -0.7500  0.1570
 1015MOL0     C39947   2.708   1.221   1.730 -0.2114 -0.2668  0.6044
 1015MOL0     C39948   2.811   1.113   1.773  0.3007  0.1963  0.0779
 1015MOL0     N39949   2.838   1.133   1.921  0.5631 -0.3779 -0.0353
 1015MOL0     C39950   2.929   1.222   1.983 -0.0179 -0.6354  0.1654
 1015MOL0     C39951   2.914   1.189   2.115  0.2337 -0.1488  0.2379
 1015MOL0     C39952   2.998   1.259   2.214 -0.3036  0.4869 -0.6795
 1015MOL0     C39953   3.049   1.159   2.315  0.6108  0.3047 -0.7265
 1015MOL0     C39954   3.098   1.226   2.447  0.1527  0.4178 -0.0809
 1015MOL0     C39955   3.219   1.306   2.408  0.2081 -0.8199  0.4346
 1015MOL0     O39956   3.274   1.371   2.526  1.5593  0.1082  0.1561
 1015MOL0     C39957   3.406   1.353   2.541 -0.4310 -0.9927 -0.3248
 1015MOL0     C39958   3.462   1.307   2.660 -1.1217 -0.0373 -0.7915
 1015MOL0     C39959   3.604   1.281   2.684 -0.3799  0.2870 -0.6372
 1015MOL0     C39960   3.647   1.255   2.824  0.4462 -0.8089 -0.6747
 1015MOL0     C39961   3.697   1.291   2.578 -0.3308 -0.8123 -0.5166
 1015MOL0     C39962   3.847   1.263   2.578 -0.1172 -0.5477  0.1163
 1015MOL0     O39963   3.885   1.207   2.458  0.4251  0.9532  0.1818
 1015MOL0     C39964   4.018   1.180   2.450  0.8738  0.2498 -0.2895
 1015MOL0     C39965   4.124   1.268   2.462 -0.7088  0.5764  0.1632
 1015MOL0     C39966   4.259   1.226   2.464  0.5471 -0.0951 -0.8823
 1015MOL0     C39967   4.282   1.083   2.448  0.1032 -0.1751  0.0321
 1015MOL0     O39968   4.406   1.025   2.449 -0.3273  0.2247  0.4273
 1015MOL0     C39969   4.522   1.098   2.395 -0.3283 -0.4278  0.0291
 1015MOL0     C39970   4.639   1.010   2.346  0.2669  0.5516 -0.2826
 1015MOL0     C39971   4.597   0.938   2.214  0.1320 -0.2769 -0.3187
 1015MOL0     C39972   4.705   0.842   2.171 -0.6385  0.6072 -0.3239
 1015MOL0     C39973   4.747   0.869   2.023  0.0803  0.6179  0.8365
 1015MOL0     C39974   4.762   0.749   1.927 -0.4091 -1.1303 -0.3334
 1015MOL0     C39975   4.641   0.681   1.863  0.4931  1.1596  0.1265
 1015MOL0     C39976   4.578   0.768   1.749  0.6031 -0.1222  0.1304
 1015MOL0    Cl39977   4.486   0.650   1.637  0.0284 -0.2428 -0.0695
 1015MOL0     C39978   4.179   1.003   2.414  0.6119  1.0665  0.3769
 1015MOL0     C39979   4.049   1.049   2.425  0.1126  0.3199 -0.0963
 1015MOL0     O39980   3.915   1.291   2.678  0.4039  0.2131  0.2711
 1015MOL0     C39981   3.643   1.332   2.456 -0.4006 -0.0717  0.4184
 1015MOL0     C39982   3.507   1.360   2.430  0.7261 -0.1108 -1.4609
 1015MOL0     N39983   2.806   1.108   2.130  0.7378 -0.4993 -0.4310
 1015MOL0     N39984   2.764   1.069   2.008 -0.9646 -1.1004 -0.7569
 1015MOL0     C39985   2.831   1.114   0.694 -0.4753 -0.3554  0.0928
 1015MOL0     C39986   2.903   1.083   0.578  0.3383  0.8127  0.0065
 1015MOL0     C39987   3.106   0.879   0.235 -0.5443  0.6571  0.0520
 1015MOL0     C39988   3.233   0.832   0.213  0.2868  0.1984 -0.1770
 1015MOL0     C39989   3.274   0.779   0.096  0.1360 -0.0435  0.1541
 1015MOL0     C39990   3.186   0.765  -0.013  0.2165 -0.5670  0.1473
 1015MOL0     O39991   3.223   0.710  -0.127  0.0039 -0.2277  0.9877
 1015MOL0     C39992   3.281   0.576  -0.140  0.1640 -0.9350  0.4609
 1015MOL0     C39993   3.410   0.594  -0.215 -0.2634 -0.8868 -1.3628
 1015MOL0     C39994   3.382   0.633  -0.366  0.3021 -0.1771 -1.1659
 1015MOL0     C39995   3.513   0.660  -0.442 -0.3483 -0.1618  0.6947
 1015MOL0     C39996   3.503   0.708  -0.580  0.6500 -0.3683  0.8326
 1015MOL0     C39997   3.504   0.760  -0.695 -0.1137 -0.0287 -0.0329
 1015MOL0     C39998   3.054   0.804   0.008  0.5399 -0.0025  0.4283
 1015MOL0     C39999   3.016   0.872   0.125  0.0511  0.4135  0.5113
 1015MOL0     C40000   2.877   0.910   0.131  0.1443  0.6904  0.0457
 1015MOL0     H40001   2.799   0.765   0.529  0.3523  0.9035 -0.9628
 1015MOL0     H40002   2.687   0.823   0.748  0.0299 -0.2116 -1.3575
 1015MOL0     H40003   2.735   1.244   0.933  2.3972  1.7824  2.7315
 1015MOL0     H40004   2.854   1.123   0.979 -0.5870 -0.1249 -1.2713
 1015MOL0     H40005   2.580   1.130   1.102 -0.7223 -0.0105 -0.8696
 1015MOL0     H40006   2.705   1.008   1.134 -2.4184  0.6987  3.7033
 1015MOL0     H40007   2.847   1.198   1.201  0.1116 -1.8235 -0.8273
 1015MOL0     H40008   2.718   1.313   1.195 -1.8091 -0.6135  1.0886
 1015MOL0     H40009   2.565   1.205   1.338 -1.0610 -1.2570 -0.4875
 1015MOL0     H40010   2.669   1.064   1.357 -0.9460 -0.7910  1.3176
 1015MOL0     H40011   2.735   1.340   1.466  1.6481  0.4714  2.2413
 1015MOL0     H40012   2.833   1.202   1.488  0.2027  1.4353 -1.3446
 1015MOL0     H40013   2.549   1.242   1.575 -0.6109 -1.8727 -0.8611
 1015MOL0     H40014   2.616   1.086   1.591  1.8554 -1.3787  0.9429
 1015MOL0     H40015   2.624   1.233   1.799 -2.1734  1.6929 -1.9253
 1015MOL0     H40016   2.759   1.317   1.740 -0.6962 -0.0535  1.0742
 1015MOL0     H40017   2.757   1.018   1.766  2.1332 -0.7630 -3.9557
 1015MOL0     H40018   2.898   1.109   1.707 -0.6133 -1.8774 -1.0776
 1015MOL0     H40019   3.011   1.278   1.939 -0.2924 -0.6585 -0.3894
 1015MOL0     H40020   2.929   1.335   2.251 -1.9814 -0.3595 -1.9312
 1015MOL0     H40021   3.080   1.299   2.154 -0.9310  0.8417 -1.3188
 1015MOL0     H40022   2.974   1.083   2.336 -0.1694  0.7997 -1.6525
 1015MOL0     H40023   3.128   1.104   2.263  0.1807 -0.1152 -0.9347
 1015MOL0     H40024   3.017   1.283   2.493 -1.4449 -1.3168 -0.6109
 1015MOL0     H40025   3.138   1.158   2.523 -0.9505  0.7351  0.8081
 1015MOL0     H40026   3.296   1.234   2.378 -0.2788 -1.4217  0.6025
 1015MOL0     H40027   3.192   1.367   2.322  0.3028 -4.2240 -2.2163
 1015MOL0     H40028   3.392   1.306   2.742  0.9276 -1.5518  1.0725
 1015MOL0     H40029   3.562   1.248   2.893  2.6107  1.9759  2.5658
 1015MOL0     H40030   3.702   1.341   2.862 -2.8290  1.6757 -1.0994
 1015MOL0     H40031   3.702   1.161   2.832  2.0711  0.2007  0.3153
 1015MOL0     H40032   4.099   1.373   2.474  0.8706  1.2811 -2.2135
 1015MOL0     H40033   4.338   1.298   2.481 -1.6959  1.7696  3.2828
 1015MOL0     H40034   4.503   1.167   2.312  4.6888 -0.3804 -1.4325
 1015MOL0     H40035   4.559   1.156   2.480  0.8285 -0.8095 -0.1970
 1015MOL0     H40036   4.725   1.072   2.321 -0.7457  1.2729 -2.2328
 1015MOL0     H40037   4.666   0.940   2.426 -0.4810  3.2754  2.5778
 1015MOL0     H40038   4.593   1.021   2.143 -3.4258  0.6094  0.6987
 1015MOL0     H40039   4.499   0.891   2.216  1.2916 -2.8504  1.0040
 1015MOL0     H40040   4.659   0.742   2.172  2.6297 -1.0265  0.2309
 1015MOL0     H40041   4.791   0.831   2.236 -2.2523 -1.4524  1.6405
 1015MOL0     H40042   4.673   0.932   1.972  0.2264 -0.1131 -0.3337
 1015MOL0     H40043   4.839   0.927   2.021 -1.0694  2.5433 -0.2751
 1015MOL0     H40044   4.829   0.676   1.974 -0.8257 -0.6399  1.0636
 1015MOL0     H40045   4.817   0.807   1.852 -1.6568 -0.1124 -0.5001
 1015MOL0     H40046   4.574   0.667   1.948 -1.6069 -1.9364 -1.8206
 1015MOL0     H40047   4.667   0.586   1.814 -2.8313  0.3520 -0.3421
 1015MOL0     H40048   4.648   0.836   1.700  0.9578 -0.3336  0.3409
 1015MOL0     H40049   4.502   0.832   1.794 -0.2774 -1.4175  0.5350
 1015MOL0     H40050   4.187   0.895   2.404 -0.3991  1.0121  0.1302
 1015MOL0     H40051   3.969   0.976   2.416 -1.0387  1.3116  1.5296
 1015MOL0     H40052   3.707   1.351   2.370 -0.5527  0.7327  0.4805
 1015MOL0     H40053   3.479   1.417   2.342 -1.3008  3.2557  1.1280
 1015MOL0     H40054   2.835   1.216   0.730  0.2295 -0.3844  0.0958
 1015MOL0     H40055   2.943   1.166   0.522 -0.9497  2.0447  0.8468
 1015MOL0     H40056   3.303   0.832   0.297  1.0764 -3.5881 -0.6618
 1015MOL0     H40057   3.379   0.751   0.094  0.0267 -0.4607 -2.3519
 1015MOL0     H40058   3.291   0.535  -0.039 -0.1352 -0.3328  0.7400
 1015MOL0     H40059   3.227   0.510  -0.208  0.1983 -1.0584  0.5523
 1015MOL0     H40060   3.464   0.499  -0.209 -1.6338 -1.6949 -1.3819
 1015MOL0     H40061   3.469   0.671  -0.164 -1.6587 -1.1424  0.7624
 1015MOL0     H40062   3.322   0.552  -0.408 -0.6201  1.0423 -2.2856
 1015MOL0     H40063   3.314   0.718  -0.381  1.9209  1.4395  0.1565
 1015MOL0     H40064   3.555   0.559  -0.449 -2.3703 -1.1694  1.9253
 1015MOL0     H40065   3.590   0.723  -0.397  1.3063 -1.8971  0.4430
 1015MOL0     H40066   3.480   0.804  -0.790 -1.3334 -1.2932 -0.3420
 1015MOL0     H40067   2.989   0.799  -0.079  0.0037  3.9770  0.4255
 1015MOL0     H40068   2.828   0.835   0.193  0.1302  0.9264  0.3212
 1015MOL0     H40069   2.868   1.016   0.158  1.5739  0.5416  1.2720
 1015MOL0     H40070   2.823   0.898   0.036 -2.0437  3.5925  0.7721
 1016MOL0     O40071   6.003   7.050   5.255 -0.2243  1.2778  0.3203
 1016MOL0     C40072   5.903   7.053   5.326 -0.1845  0.1064 -0.4311
 1016MOL0     O40073   5.832   7.167   5.352 -0.6818 -0.1705  0.9134
 1016MOL0     C40074   5.876   7.298   5.328  0.7196 -0.6098 -0.5195
 1016MOL0     C40075   6.000   7.336   5.280  0.2385 -0.3918  0.0479
 1016MOL0     C40076   6.030   7.475   5.261 -0.3802  0.1101  0.9360
 1016MOL0     C40077   5.942   7.582   5.282  0.6639  0.5168  0.5054
 1016MOL0     O40078   5.967   7.720   5.265  0.2014 -0.1623 -0.1311
 1016MOL0     C40079   6.085   7.774   5.219  0.3537  1.0477  0.8195
 1016MOL0     C40080   6.065   7.790   5.070  0.3784  1.0779  0.1911
 1016MOL0     C40081   6.175   7.849   4.985  0.0676  0.1961 -0.1658
 1016MOL0     C40082   6.206   7.996   5.010 -0.2130  0.2108 -0.1486
 1016MOL0     C40083   6.082   8.091   4.994 -0.2879  0.0376  0.7948
 1016MOL0     C40084   6.007   8.080   4.865 -0.5460 -1.1630  0.5930
 1016MOL0     C40085   5.894   8.179   4.878  0.6934 -0.1472  0.3599
 1016MOL0     C40086   5.785   8.138   4.984  0.3831 -0.3938  0.1078
 1016MOL0     N40087   5.655   8.213   4.964 -0.3321 -0.0299  0.4918
 1016MOL0     C40088   5.639   8.351   4.995  0.5355 -0.1209  0.2075
 1016MOL0     C40089   5.502   8.372   4.986 -0.1530  0.1451  0.0162
 1016MOL0     C40090   5.435   8.499   4.992  0.0489  0.1747 -1.0761
 1016MOL0     C40091   5.509   8.608   4.907 -0.1723  0.2461 -0.3226
 1016MOL0     C40092   5.506   8.585   4.752 -0.1878  0.4696 -0.8161
 1016MOL0     C40093   5.624   8.659   4.685  0.4389 -0.3029 -0.2104
 1016MOL0     O40094   5.752   8.633   4.731 -0.8888  0.0716 -0.4482
 1016MOL0     C40095   5.833   8.535   4.674  0.0661 -0.6841 -0.3143
 1016MOL0     C40096   5.971   8.528   4.703  0.8439  1.3584  0.9843
 1016MOL0     C40097   6.054   8.418   4.646  1.2450  0.4403  0.1264
 1016MOL0     C40098   6.195   8.413   4.687 -0.0022 -0.0903  0.0663
 1016MOL0     C40099   6.003   8.335   4.545  0.2336 -0.5498  0.1938
 1016MOL0     C40100   6.081   8.244   4.471 -0.6867 -0.2019  0.6283
 1016MOL0     O40101   6.201   8.292   4.434  0.1247  1.1629 -0.7074
 1016MOL0     C40102   6.282   8.204   4.366 -1.2875  0.1899  0.3316
 1016MOL0     C40103   6.365   8.114   4.443 -0.8884 -0.0039 -0.3160
 1016MOL0     C40104   6.468   8.045   4.385 -0.1251  0.0073 -1.1094
 1016MOL0     C40105   6.483   8.042   4.250  0.0768 -1.3995 -0.2962
 1016MOL0     O40106   6.581   7.958   4.210  0.8660 -0.2497 -0.2397
 1016MOL0     C40107   6.633   7.957   4.073 -0.3842  0.5241  0.4322
 1016MOL0     C40108   6.775   7.899   4.068 -0.5775  0.3989  0.1720
 1016MOL0     C40109   6.797   7.801   3.957 -0.4152  0.7784  0.1178
 1016MOL0     C40110   6.786   7.852   3.814  0.3546  0.1208 -0.6310
 1016MOL0     C40111   6.910   7.927   3.765 -1.1347 -0.1995 -0.2252
 1016MOL0     C40112   6.904   7.937   3.619  0.0053 -0.7781  0.2086
 1016MOL0     C40113   7.024   8.017   3.567 -0.0759  0.2115 -0.5642
 1016MOL0     C40114   7.031   8.035   3.414  0.5193  0.4200 -0.0008
 1016MOL0    Cl40115   7.124   7.897   3.338 -0.2129 -0.3212 -0.6087
 1016MOL0     C40116   6.396   8.125   4.168 -0.0108 -1.1334 -0.7624
 1016MOL0     C40117   6.292   8.196   4.225 -0.1429 -0.6803 -0.1337
 1016MOL0     O40118   6.027   8.144   4.432  0.0155  0.1148 -0.1731
 1016MOL0     C40119   5.856   8.350   4.513 -0.5400 -0.1358 -0.0097
 1016MOL0     C40120   5.776   8.444   4.578  0.1779  0.5722 -0.5924
 1016MOL0     N40121   5.439   8.242   4.966  0.5460  1.0514  0.0164
 1016MOL0     N40122   5.530   8.157   4.949  0.1633  0.2766  0.2593
 1016MOL0     C40123   5.809   7.538   5.326 -0.1935  0.2055 -0.3691
 1016MOL0     C40124   5.782   7.401   5.346  0.3340  0.4734  0.4798
 1016MOL0     C40125   5.858   6.924   5.383 -0.0439 -0.4896  0.1237
 1016MOL0     C40126   5.915   6.805   5.336  0.4658 -0.4888  0.4877
 1016MOL0     C40127   5.893   6.679   5.392  0.2423  0.0444  0.3255
 1016MOL0     C40128   5.797   6.661   5.494 -0.7677 -1.5009  0.6399
 1016MOL0     O40129   5.769   6.537   5.536 -0.0968  0.0025  0.4049
 1016MOL0     C40130   5.660   6.501   5.622 -0.5863 -0.8085  0.4271
 1016MOL0     C40131   5.627   6.353   5.600  0.2253 -0.8960 -0.0959
 1016MOL0     C40132   5.525   6.300   5.699  0.3541 -0.4407  0.1655
 1016MOL0     C40133   5.556   6.155   5.737  0.8127  0.4750 -0.0860
 1016MOL0     C40134   5.555   6.075   5.615 -1.0338 -0.5494  0.0852
 1016MOL0     C40135   5.562   6.025   5.506  0.5614 -1.0961 -0.4754
 1016MOL0     C40136   5.730   6.778   5.540 -0.5444 -0.0844 -1.1127
 1016MOL0     C40137   5.763   6.912   5.488 -0.7837  0.3286 -0.5201
 1016MOL0     C40138   5.688   7.021   5.558 -0.2767  0.1205 -0.6695
 1016MOL0     H40139   6.083   7.270   5.262  0.4537 -0.3168  0.7364
 1016MOL0     H40140   6.130   7.502   5.227  0.7071 -2.0950  2.1548
 1016MOL0     H40141   6.174   7.712   5.237  0.2966  0.9607  0.8048
 1016MOL0     H40142   6.109   7.872   5.261  0.2751  0.7976  1.4563
 1016MOL0     H40143   6.050   7.692   5.022 -2.6264  1.5184  0.0608
 1016MOL0     H40144   5.971   7.844   5.059  0.3269  1.7106  2.9725
 1016MOL0     H40145   6.270   7.799   5.003 -0.8499 -2.0231 -1.1455
 1016MOL0     H40146   6.148   7.831   4.880 -3.3691  1.5363  0.3562
 1016MOL0     H40147   6.252   8.001   5.109  0.3878  1.4782 -0.4771
 1016MOL0     H40148   6.283   8.037   4.944  0.0772  1.6437  1.0229
 1016MOL0     H40149   6.131   8.188   4.996 -0.2332  0.0381 -0.2178
 1016MOL0     H40150   6.013   8.075   5.077  1.1406  3.2698  2.7863
 1016MOL0     H40151   6.072   8.105   4.780 -2.0323  1.2803  0.0618
 1016MOL0     H40152   5.982   7.979   4.833 -0.1539 -0.8257 -0.8580
 1016MOL0     H40153   5.851   8.194   4.778  0.2858  0.9073  0.6852
 1016MOL0     H40154   5.939   8.277   4.896 -2.3965  1.4614  0.0221
 1016MOL0     H40155   5.770   8.030   4.981  1.9536 -0.6536  0.5709
 1016MOL0     H40156   5.824   8.164   5.083 -1.6972 -1.0687  1.1647
 1016MOL0     H40157   5.709   8.429   5.022  0.1694 -0.2864  1.7068
 1016MOL0     H40158   5.452   8.529   5.096  3.1200  1.3961 -1.8253
 1016MOL0     H40159   5.327   8.492   4.974 -0.1079  0.8516 -0.4865
 1016MOL0     H40160   5.471   8.707   4.931 -0.5816 -0.0815  0.4224
 1016MOL0     H40161   5.615   8.607   4.934  0.8069  1.3393 -3.6667
 1016MOL0     H40162   5.517   8.479   4.728  0.5372 -0.1030  1.7739
 1016MOL0     H40163   5.412   8.627   4.715 -0.5703  0.3993  0.0362
 1016MOL0     H40164   5.613   8.636   4.579  1.5720 -0.6961 -0.2541
 1016MOL0     H40165   5.594   8.764   4.675 -1.1412 -0.7672 -0.6323
 1016MOL0     H40166   6.005   8.608   4.767 -2.8378  3.0588  1.0863
 1016MOL0     H40167   6.228   8.312   4.712  3.1303  0.8031 -0.0610
 1016MOL0     H40168   6.219   8.475   4.774  4.4881  1.9471 -2.2933
 1016MOL0     H40169   6.265   8.443   4.608 -1.8330 -1.2578 -2.1216
 1016MOL0     H40170   6.366   8.127   4.550 -2.9360 -1.3209 -0.0825
 1016MOL0     H40171   6.531   7.982   4.447 -2.4318 -0.3820  1.0251
 1016MOL0     H40172   6.557   7.911   4.010 -0.8084  3.0086 -0.9932
 1016MOL0     H40173   6.655   8.053   4.025  1.1878 -0.8331 -1.7798
 1016MOL0     H40174   6.835   7.989   4.055 -2.4834  1.8206  0.7877
 1016MOL0     H40175   6.807   7.849   4.160  1.1879 -0.7385 -0.9980
 1016MOL0     H40176   6.717   7.729   3.976 -0.7697  1.2423  0.4021
 1016MOL0     H40177   6.889   7.742   3.968 -0.9864 -0.1590  0.0217
 1016MOL0     H40178   6.697   7.915   3.800 -1.0691 -0.8367  2.8993
 1016MOL0     H40179   6.769   7.758   3.761 -2.3116  0.2527 -0.1749
 1016MOL0     H40180   6.900   8.034   3.785 -0.4892  1.0474 -5.3806
 1016MOL0     H40181   7.000   7.885   3.810  0.4564  0.6893 -2.4354
 1016MOL0     H40182   6.809   7.990   3.606 -0.7262 -2.1041 -0.0839
 1016MOL0     H40183   6.907   7.834   3.583  0.7932 -0.5923 -0.2697
 1016MOL0     H40184   7.122   7.987   3.605  0.6757  1.9813 -0.9813
 1016MOL0     H40185   7.033   8.121   3.601 -0.1255  0.9176 -2.5359
 1016MOL0     H40186   7.079   8.126   3.379  0.4950  0.4890  0.1489
 1016MOL0     H40187   6.927   8.036   3.379  0.0617 -2.3878  1.0164
 1016MOL0     H40188   6.409   8.124   4.060  4.6133  0.6648 -0.4323
 1016MOL0     H40189   6.234   8.257   4.156  2.1670  0.2113 -1.3847
 1016MOL0     H40190   5.810   8.276   4.449  0.9625  0.1869 -1.5365
 1016MOL0     H40191   5.671   8.454   4.550 -0.1977  3.4111  1.4141
 1016MOL0     H40192   5.736   7.612   5.355 -2.6112 -2.4872  0.9711
 1016MOL0     H40193   5.687   7.380   5.393 -2.1324  3.4577 -2.7268
 1016MOL0     H40194   5.986   6.817   5.255  0.2072  2.1746  0.5497
 1016MOL0     H40195   5.950   6.594   5.358  4.1035  1.5674  2.2883
 1016MOL0     H40196   5.688   6.519   5.727  1.8696 -3.1624  0.3117
 1016MOL0     H40197   5.571   6.560   5.603  0.8295  0.7459 -1.8791
 1016MOL0     H40198   5.723   6.304   5.619  0.5877  0.2556  1.1550
 1016MOL0     H40199   5.585   6.330   5.501 -1.5845 -0.9063  0.6343
 1016MOL0     H40200   5.522   6.356   5.793 -0.4612 -2.2549  1.2807
 1016MOL0     H40201   5.425   6.315   5.657  0.6556  0.9862 -0.0771
 1016MOL0     H40202   5.493   6.120   5.819  2.2100  1.1501  1.3197
 1016MOL0     H40203   5.655   6.147   5.782  0.6493 -1.2358  0.0552
 1016MOL0     H40204   5.559   5.982   5.407  0.9975  0.4238 -1.1736
 1016MOL0     H40205   5.657   6.759   5.618 -2.6653  0.3627 -2.8977
 1016MOL0     H40206   5.633   7.089   5.493 -2.2153 -0.8251 -0.0930
 1016MOL0     H40207   5.615   6.979   5.628  0.3652 -0.3799 -0.2927
 1016MOL0     H40208   5.759   7.082   5.614 -1.6798  2.4199 -1.2732
 1017MOL0     O40209   1.670   5.578   3.008 -0.9591  0.5491  0.2930
 1017MOL0     C40210   1.708   5.661   2.932 -0.4228 -0.4258  0.8242
 1017MOL0     O40211   1.828   5.649   2.854 -0.1557 -0.3891 -0.3804
 1017MOL0     C40212   1.899   5.538   2.872  0.8227 -0.6594  0.0453
 1017MOL0     C40213   1.854   5.425   2.810  0.0713 -0.0227 -0.0630
 1017MOL0     C40214   1.931   5.307   2.803 -0.1822 -0.1847  0.6836
 1017MOL0     C40215   2.067   5.312   2.842  0.2831  0.6581 -0.6198
 1017MOL0     O40216   2.159   5.204   2.828 -0.5085 -0.2787  0.5490
 1017MOL0     C40217   2.111   5.086   2.765  1.1888  0.3887  0.7543
 1017MOL0     C40218   2.219   4.983   2.773  0.0565 -1.0074  0.2655
 1017MOL0     C40219   2.233   4.953   2.920 -1.2034  0.4749 -0.0754
 1017MOL0     C40220   2.171   4.816   2.945 -0.1954  0.1483  0.1301
 1017MOL0     C40221   2.151   4.798   3.094  0.7522  0.3045  0.2376
 1017MOL0     C40222   2.163   4.647   3.141  0.1304  0.0336  1.2558
 1017MOL0     C40223   2.152   4.641   3.290  0.4070  0.7633 -0.4548
 1017MOL0     C40224   2.246   4.724   3.374 -0.1778  0.0388  1.2246
 1017MOL0     N40225   2.376   4.651   3.393  0.3420 -0.4422 -0.2203
 1017MOL0     C40226   2.380   4.536   3.470 -0.6268 -0.6339 -0.4599
 1017MOL0     C40227   2.515   4.502   3.459  0.3017  0.0282 -0.8957
 1017MOL0     C40228   2.580   4.377   3.524  0.9843 -0.8453  1.2214
 1017MOL0     C40229   2.611   4.413   3.672 -0.1476 -0.3971  0.3586
 1017MOL0     C40230   2.756   4.464   3.700  0.6048 -0.3019 -0.5206
 1017MOL0     C40231   2.812   4.566   3.603  0.5089 -0.1039  1.6690
 1017MOL0     O40232   2.937   4.625   3.640 -0.7484  0.5692 -0.2910
 1017MOL0     C40233   3.006   4.711   3.549 -0.0825 -0.3930 -0.4987
 1017MOL0     C40234   3.128   4.740   3.585  1.3529  0.7434 -0.0855
 1017MOL0     C40235   3.216   4.796   3.504 -0.1995 -0.2014 -0.7466
 1017MOL0     C40236   3.358   4.805   3.556  0.4409  0.5493 -0.6959
 1017MOL0     C40237   3.166   4.857   3.384 -0.4071 -0.4703  0.7711
 1017MOL0     C40238   3.247   4.951   3.298 -0.5464 -0.3479 -0.3046
 1017MOL0     O40239   3.206   4.957   3.174 -0.0058 -0.0195  0.9103
 1017MOL0     C40240   3.292   5.024   3.089  0.2040 -0.8258 -0.1991
 1017MOL0     C40241   3.326   4.958   2.973 -0.1108 -0.1946 -0.8074
 1017MOL0     C40242   3.411   5.023   2.886 -0.9720  0.0668  0.5692
 1017MOL0     C40243   3.463   5.151   2.908 -0.2000 -0.6234  0.0155
 1017MOL0     O40244   3.564   5.205   2.830 -0.2426 -0.3722 -0.4435
 1017MOL0     C40245   3.653   5.295   2.891 -0.1947  0.0154 -0.2774
 1017MOL0     C40246   3.764   5.319   2.785  0.7930  0.1474 -0.5247
 1017MOL0     C40247   3.878   5.419   2.817  0.6258  0.1754  0.2220
 1017MOL0     C40248   3.837   5.568   2.799  1.1215  0.4687  0.5265
 1017MOL0     C40249   3.951   5.656   2.837 -0.0053 -0.9489  0.7153
 1017MOL0     C40250   4.016   5.625   2.969  0.9662  0.2877  0.4104
 1017MOL0     C40251   4.129   5.713   3.004 -0.7556  0.7480 -0.3566
 1017MOL0     C40252   4.132   5.739   3.153  0.2102  0.0326 -0.4799
 1017MOL0    Cl40253   3.984   5.830   3.192 -0.3365  0.2215  0.0865
 1017MOL0     C40254   3.423   5.223   3.015  0.1673 -0.6542 -0.3032
 1017MOL0     C40255   3.335   5.162   3.116 -0.7392  0.1595  0.3513
 1017MOL0     O40256   3.353   5.005   3.339 -0.4148 -0.1079  0.8880
 1017MOL0     C40257   3.035   4.833   3.346  0.4896  0.3201  0.4855
 1017MOL0     C40258   2.954   4.757   3.430  0.6375 -1.0671 -0.3097
 1017MOL0     N40259   2.582   4.597   3.383 -0.3403 -0.2697  0.3160
 1017MOL0     N40260   2.501   4.685   3.344  0.1224  0.3261 -0.5179
 1017MOL0     C40261   2.116   5.439   2.893 -0.1041 -1.2420  0.3311
 1017MOL0     C40262   2.030   5.552   2.911 -0.3372 -0.4977  0.7189
 1017MOL0     C40263   1.626   5.786   2.935 -0.2819  0.9314  0.1281
 1017MOL0     C40264   1.635   5.865   2.818  0.1975  0.0637  0.1596
 1017MOL0     C40265   1.561   5.971   2.802  0.3994 -0.5852 -0.6737
 1017MOL0     C40266   1.465   6.004   2.903 -0.1731 -0.9534  1.2305
 1017MOL0     O40267   1.364   6.107   2.886 -0.4805  0.5016 -0.3235
 1017MOL0     C40268   1.367   6.194   2.779  0.4203  0.1610  0.9774
 1017MOL0     C40269   1.243   6.277   2.783 -0.2850 -0.2732 -0.6887
 1017MOL0     C40270   1.237   6.373   2.664  0.0940  0.4352  1.1477
 1017MOL0     C40271   1.246   6.292   2.537 -0.6305 -0.5746 -0.0796
 1017MOL0     C40272   1.249   6.368   2.419 -0.4789 -0.2815 -0.8457
 1017MOL0     C40273   1.271   6.457   2.336  0.4124  0.3358  0.1172
 1017MOL0     C40274   1.451   5.925   3.010  0.2307 -0.8926 -0.8988
 1017MOL0     C40275   1.533   5.823   3.035  0.7585 -0.0128 -0.4827
 1017MOL0     C40276   1.522   5.755   3.167 -1.0209  0.1447 -0.8812
 1017MOL0     H40277   1.754   5.430   2.767 -1.0618  2.0906  2.5128
 1017MOL0     H40278   1.891   5.223   2.748  3.6634 -0.9631 -1.2594
 1017MOL0     H40279   2.111   5.117   2.660  2.9194 -1.8014  0.0181
 1017MOL0     H40280   2.014   5.051   2.801  1.6112 -1.8312 -0.1013
 1017MOL0     H40281   2.208   4.890   2.717 -1.2605 -1.0421  0.5504
 1017MOL0     H40282   2.311   5.032   2.741  0.2348 -0.2605  1.8091
 1017MOL0     H40283   2.339   4.958   2.947 -0.1999  2.5319 -3.7449
 1017MOL0     H40284   2.183   5.016   2.994 -1.0667  0.2861  0.1824
 1017MOL0     H40285   2.073   4.797   2.900 -0.3565 -3.2013  1.6066
 1017MOL0     H40286   2.238   4.740   2.905  0.3488  1.6094 -1.8603
 1017MOL0     H40287   2.050   4.832   3.115  0.0386 -0.6405 -1.4506
 1017MOL0     H40288   2.232   4.854   3.142  0.5234  2.9974 -2.2797
 1017MOL0     H40289   2.086   4.590   3.089  1.9950 -0.4341 -1.2053
 1017MOL0     H40290   2.261   4.605   3.116  0.0990  0.9716 -0.6099
 1017MOL0     H40291   2.168   4.537   3.323  2.0900  1.0712 -0.2171
 1017MOL0     H40292   2.050   4.663   3.322  0.4652  0.5293 -0.0996
 1017MOL0     H40293   2.252   4.826   3.332  0.9539 -0.8392 -0.9213
 1017MOL0     H40294   2.195   4.739   3.469  0.8127 -0.7640  1.8994
 1017MOL0     H40295   2.313   4.492   3.543  1.4132 -0.4926  1.6144
 1017MOL0     H40296   2.673   4.357   3.469  0.5551  4.7742 -2.2920
 1017MOL0     H40297   2.511   4.292   3.514  1.6671 -1.1620 -1.8831
 1017MOL0     H40298   2.545   4.489   3.714  0.4456  0.4232 -0.1677
 1017MOL0     H40299   2.596   4.330   3.741 -1.1619 -1.1509 -0.7136
 1017MOL0     H40300   2.755   4.509   3.800  1.2015  0.0406 -0.6686
 1017MOL0     H40301   2.818   4.375   3.691 -0.4262 -1.3531  1.8641
 1017MOL0     H40302   2.822   4.519   3.505  3.4240  2.3836  0.6255
 1017MOL0     H40303   2.739   4.646   3.586 -0.2567 -0.2859  3.8474
 1017MOL0     H40304   3.153   4.711   3.687 -0.5133  0.5021  0.3421
 1017MOL0     H40305   3.380   4.899   3.607 -1.5896  0.7010 -0.0200
 1017MOL0     H40306   3.426   4.803   3.471  1.9109 -1.1585  0.4377
 1017MOL0     H40307   3.392   4.718   3.613 -4.5280 -2.6846 -2.0297
 1017MOL0     H40308   3.287   4.859   2.952  0.6096 -0.8852  0.9402
 1017MOL0     H40309   3.442   4.974   2.795  2.2320 -0.3505  1.7698
 1017MOL0     H40310   3.616   5.397   2.894 -2.0632 -0.4731 -3.2317
 1017MOL0     H40311   3.698   5.264   2.986  0.2307  1.7629  0.1154
 1017MOL0     H40312   3.802   5.221   2.755  0.5983 -0.9942  2.5706
 1017MOL0     H40313   3.711   5.358   2.698  2.5129  1.8602 -0.8857
 1017MOL0     H40314   3.968   5.401   2.757  0.5595 -2.8792  0.9014
 1017MOL0     H40315   3.913   5.395   2.918  3.8040  2.5567 -0.1388
 1017MOL0     H40316   3.763   5.573   2.879  2.4807  1.6312  1.7866
 1017MOL0     H40317   3.801   5.578   2.697  1.9742 -3.1449 -0.2870
 1017MOL0     H40318   4.019   5.643   2.753  0.3175  2.3124  0.3203
 1017MOL0     H40319   3.904   5.755   2.836  4.2151  1.3286  1.5574
 1017MOL0     H40320   4.051   5.521   2.973 -0.2547 -0.0991  2.1075
 1017MOL0     H40321   3.929   5.633   3.034  0.8796 -1.9946  0.6737
 1017MOL0     H40322   4.127   5.811   2.955  4.2211  0.9907 -0.6033
 1017MOL0     H40323   4.220   5.658   2.977  1.5972  3.7156  1.0023
 1017MOL0     H40324   4.215   5.810   3.159 -1.4628  2.4648 -3.2193
 1017MOL0     H40325   4.146   5.645   3.208  3.6891 -0.4252 -1.8570
 1017MOL0     H40326   3.440   5.329   3.034 -3.3910  0.2411 -1.1780
 1017MOL0     H40327   3.317   5.222   3.205  0.2401 -0.9885  1.3629
 1017MOL0     H40328   3.004   4.856   3.244  2.7646  3.4615  0.3643
 1017MOL0     H40329   2.856   4.725   3.397 -0.3154 -0.2340  1.5618
 1017MOL0     H40330   2.218   5.461   2.923  0.4515 -0.1102 -2.1471
 1017MOL0     H40331   2.074   5.644   2.948  0.6631 -0.4270 -0.5757
 1017MOL0     H40332   1.711   5.841   2.745 -1.8034 -1.5036 -1.5243
 1017MOL0     H40333   1.585   6.027   2.712  3.1453  1.5031  1.1962
 1017MOL0     H40334   1.458   6.255   2.777 -0.4191  1.4241 -1.0103
 1017MOL0     H40335   1.359   6.128   2.692  2.2135 -0.3252  1.1460
 1017MOL0     H40336   1.242   6.337   2.874 -0.4609  0.8192 -1.3904
 1017MOL0     H40337   1.154   6.213   2.787 -1.7973  1.7594 -0.2297
 1017MOL0     H40338   1.149   6.437   2.667  0.1252  0.5151  0.5186
 1017MOL0     H40339   1.325   6.438   2.667 -0.7797  1.6169  1.6430
 1017MOL0     H40340   1.167   6.217   2.527 -0.5451 -1.0968  2.5380
 1017MOL0     H40341   1.346   6.250   2.532  1.1801  3.4074 -1.4612
 1017MOL0     H40342   1.290   6.527   2.257 -0.8746  2.3919  1.5520
 1017MOL0     H40343   1.365   5.935   3.076 -1.0273 -0.7809 -2.4997
 1017MOL0     H40344   1.622   5.727   3.201 -1.4123  2.3907  2.6315
 1017MOL0     H40345   1.491   5.827   3.243 -2.5569 -1.9143  0.5598
 1017MOL0     H40346   1.457   5.669   3.152  1.0224 -1.2259 -2.3222
 1018MOL0     O40347   2.812  11.323   9.033 -0.0331 -0.5086  0.1015
 1018MOL0     C40348   2.929  11.294   9.018  0.8157 -0.9511  0.2834
 1018MOL0     O40349   3.029  11.377   9.045  0.5901 -0.3958 -0.9637
 1018MOL0     C40350   3.028  11.483   9.135 -0.7456  0.8087 -0.1982
 1018MOL0     C40351   2.966  11.461   9.264 -0.1614  1.1810  0.1828
 1018MOL0     C40352   2.980  11.562   9.364 -0.8735 -0.6296  0.1171
 1018MOL0     C40353   3.063  11.679   9.343  0.1533  0.9791  0.1857
 1018MOL0     O40354   3.086  11.775   9.429 -0.0894  0.3986 -0.2376
 1018MOL0     C40355   2.987  11.799   9.535  0.4115  0.2722 -0.7842
 1018MOL0     C40356   3.010  11.931   9.608  0.8403  0.5222 -0.4214
 1018MOL0     C40357   2.997  12.046   9.507 -0.1979 -0.8165  0.1936
 1018MOL0     C40358   2.990  12.184   9.568 -0.1448  0.3274 -0.9632
 1018MOL0     C40359   2.962  12.290   9.467 -1.0915  0.0348 -0.2318
 1018MOL0     C40360   2.961  12.425   9.535 -0.1534 -0.9088  0.5156
 1018MOL0     C40361   3.100  12.493   9.536  0.4804  0.4904 -0.3587
 1018MOL0     C40362   3.104  12.654   9.544  0.3491  0.5864  0.9044
 1018MOL0     N40363   3.050  12.730   9.429  0.6878  0.0780  0.1800
 1018MOL0     C40364   3.112  12.768   9.311  0.2101 -0.6854  1.0483
 1018MOL0     C40365   3.011  12.789   9.219 -0.3627 -0.2837  0.7276
 1018MOL0     C40366   3.053  12.851   9.084 -0.1780 -0.1849 -0.0619
 1018MOL0     C40367   3.037  13.005   9.092  0.2625  1.0909 -0.2633
 1018MOL0     C40368   2.897  13.053   9.050  0.6538 -0.3352  0.2078
 1018MOL0     C40369   2.898  13.202   9.022 -0.9686 -0.5562 -1.0000
 1018MOL0     O40370   2.980  13.226   8.909 -0.3966  0.5651  0.7030
 1018MOL0     C40371   3.004  13.359   8.875  0.5941  0.8077 -0.1772
 1018MOL0     C40372   3.082  13.382   8.763 -0.0955  0.0433  0.2319
 1018MOL0     C40373   3.101  13.517   8.716  0.5463 -0.7652  0.2561
 1018MOL0     C40374   3.212  13.534   8.609  0.2388  0.0112 -0.0759
 1018MOL0     C40375   3.038  13.629   8.781 -0.0834 -0.2978 -0.3309
 1018MOL0     C40376   3.055  13.769   8.745 -0.7004 -1.0658  0.2939
 1018MOL0     O40377   3.170  13.813   8.679  0.1938  1.0988 -0.1398
 1018MOL0     C40378   3.181  13.926   8.605 -0.1370 -1.3275 -0.1469
 1018MOL0     C40379   3.286  14.011   8.635  0.6429  0.7751 -0.2722
 1018MOL0     C40380   3.309  14.130   8.570  0.1449  0.1714 -0.1386
 1018MOL0     C40381   3.220  14.159   8.464 -0.5222  0.1269  0.6379
 1018MOL0     O40382   3.219  14.273   8.389  0.3954 -0.3812  0.0587
 1018MOL0     C40383   3.320  14.375   8.396  0.0387 -0.0686  1.1522
 1018MOL0     C40384   3.300  14.502   8.311  0.8046 -1.0834 -0.7447
 1018MOL0     C40385   3.316  14.467   8.163 -0.1700 -0.3563  0.3787
 1018MOL0     C40386   3.180  14.425   8.106 -0.9798  0.7513  1.0580
 1018MOL0     C40387   3.192  14.399   7.948  1.0975  0.6853  0.3875
 1018MOL0     C40388   3.106  14.269   7.901 -1.0557 -0.0188 -0.3817
 1018MOL0     C40389   3.089  14.265   7.749 -0.4659 -0.2192 -0.5892
 1018MOL0     C40390   3.039  14.128   7.709 -1.2102 -0.1114 -0.0358
 1018MOL0    Cl40391   2.886  14.075   7.796 -0.0843 -0.3255  0.0222
 1018MOL0     C40392   3.115  14.071   8.439 -0.0242 -0.2100 -0.6769
 1018MOL0     C40393   3.094  13.950   8.501 -0.1760  0.2114 -0.6859
 1018MOL0     O40394   2.967  13.841   8.789 -0.2160 -0.1183 -0.5980
 1018MOL0     C40395   2.966  13.595   8.897 -0.3753 -0.9768  0.6076
 1018MOL0     C40396   2.945  13.460   8.947 -0.8267 -0.5054  0.5534
 1018MOL0     N40397   2.892  12.762   9.278  0.2817 -0.0117 -0.0745
 1018MOL0     N40398   2.912  12.736   9.405  0.0429 -0.4342  0.5116
 1018MOL0     C40399   3.125  11.692   9.215 -1.3701 -0.2956 -0.7143
 1018MOL0     C40400   3.109  11.593   9.111 -0.0926  0.4322 -0.0038
 1018MOL0     C40401   2.974  11.170   8.956 -0.2086 -0.4482 -0.5037
 1018MOL0     C40402   3.109  11.128   8.978 -1.1645  0.4683  0.8506
 1018MOL0     C40403   3.156  11.011   8.914  0.9844 -0.0282  0.1950
 1018MOL0     C40404   3.077  10.940   8.827  1.2437  0.4576 -0.2614
 1018MOL0     O40405   3.140  10.833   8.764 -0.8151  0.1337  0.8996
 1018MOL0     C40406   3.051  10.730   8.705 -0.9188  0.1685 -1.0465
 1018MOL0     C40407   3.116  10.587   8.688  0.4672  0.9481 -0.1775
 1018MOL0     C40408   3.187  10.533   8.804 -0.3398 -0.5121 -0.7038
 1018MOL0     C40409   3.226  10.391   8.801 -0.3603  0.7308 -0.6990
 1018MOL0     C40410   3.313  10.355   8.695 -0.0415 -0.8564  0.7689
 1018MOL0     C40411   3.374  10.327   8.599  0.8620  0.2403  0.7968
 1018MOL0     C40412   2.948  10.978   8.807 -0.6878  0.1874 -0.1278
 1018MOL0     C40413   2.891  11.091   8.875  0.5053  0.4060 -0.0947
 1018MOL0     C40414   2.748  11.122   8.843  0.7970  0.0819  0.0843
 1018MOL0     H40415   2.909  11.371   9.281 -1.0886  2.2478  3.4083
 1018MOL0     H40416   2.930  11.538   9.457 -0.4795 -1.6850  0.0642
 1018MOL0     H40417   2.995  11.718   9.608  1.1787 -0.9068 -2.1318
 1018MOL0     H40418   2.889  11.806   9.487  1.1013 -2.0433 -2.7011
 1018MOL0     H40419   2.927  11.951   9.677  0.7151  1.0789 -0.7299
 1018MOL0     H40420   3.101  11.940   9.668  0.2326  3.6034  0.2230
 1018MOL0     H40421   3.083  12.035   9.441 -0.1020  1.7128 -0.2220
 1018MOL0     H40422   2.908  12.030   9.444  0.5029  0.6327 -1.2317
 1018MOL0     H40423   2.919  12.194   9.650  0.4162 -2.2630 -0.0613
 1018MOL0     H40424   3.085  12.213   9.613 -1.0437  1.1865  0.4502
 1018MOL0     H40425   2.871  12.261   9.414 -1.9436  1.0796  0.6047
 1018MOL0     H40426   3.035  12.295   9.385 -2.3569  1.6613 -1.3411
 1018MOL0     H40427   2.908  12.492   9.467 -0.0350 -0.6500  0.6769
 1018MOL0     H40428   2.911  12.426   9.633 -1.9932 -2.1060 -0.3473
 1018MOL0     H40429   3.138  12.459   9.439  1.5089 -1.5876  0.7035
 1018MOL0     H40430   3.156  12.438   9.613 -0.7592  0.0654  0.2620
 1018MOL0     H40431   3.058  12.698   9.633 -1.8701 -0.1733  0.1929
 1018MOL0     H40432   3.210  12.681   9.544  0.0204  2.3534 -2.3732
 1018MOL0     H40433   3.219  12.780   9.305  0.1203 -0.4610 -0.3217
 1018MOL0     H40434   2.990  12.808   9.006  1.6346  1.5164 -2.6229
 1018MOL0     H40435   3.152  12.830   9.044 -0.8472 -0.0420 -1.9037
 1018MOL0     H40436   3.055  13.025   9.198 -4.4164 -2.5888  1.6070
 1018MOL0     H40437   3.110  13.059   9.031  1.3951  1.5034  1.4112
 1018MOL0     H40438   2.866  12.994   8.963 -2.9597 -1.0056  1.7689
 1018MOL0     H40439   2.833  13.038   9.137  1.8476  0.6203  1.3002
 1018MOL0     H40440   2.797  13.234   8.995 -1.0735  0.9944  1.0020
 1018MOL0     H40441   2.939  13.245   9.113  1.0494 -4.8440  0.3810
 1018MOL0     H40442   3.131  13.296   8.718 -1.2328 -0.4379 -0.1125
 1018MOL0     H40443   3.178  13.556   8.507  0.5190  1.3679  0.0992
 1018MOL0     H40444   3.262  13.439   8.587  0.2058 -0.5491  2.0610
 1018MOL0     H40445   3.280  13.616   8.636 -0.9928  1.4089 -1.0143
 1018MOL0     H40446   3.347  13.980   8.719 -3.1439 -0.3230  2.3655
 1018MOL0     H40447   3.399  14.184   8.598  0.6440 -2.3057  4.0216
 1018MOL0     H40448   3.319  14.408   8.501 -0.0711  1.0488  0.8131
 1018MOL0     H40449   3.412  14.324   8.367 -0.6273  0.2669 -1.8103
 1018MOL0     H40450   3.201  14.542   8.332  0.9122 -0.8155 -0.7507
 1018MOL0     H40451   3.363  14.581   8.352  0.8460 -2.6513  2.4880
 1018MOL0     H40452   3.386  14.384   8.145 -0.3413 -0.3686 -0.2658
 1018MOL0     H40453   3.352  14.553   8.105  1.5485 -1.0687  0.3038
 1018MOL0     H40454   3.107  14.506   8.111 -1.2252  0.6905 -0.8381
 1018MOL0     H40455   3.154  14.333   8.158  2.8070 -0.0010  1.9469
 1018MOL0     H40456   3.167  14.486   7.887 -0.2056  0.3415  0.3986
 1018MOL0     H40457   3.298  14.378   7.935  0.5939 -1.1709 -1.1796
 1018MOL0     H40458   3.009  14.269   7.951 -0.3365  0.2738  1.0529
 1018MOL0     H40459   3.159  14.175   7.923  1.5598  1.1792 -1.0901
 1018MOL0     H40460   3.183  14.298   7.703 -0.7280  3.7387  1.2671
 1018MOL0     H40461   3.024  14.350   7.728  0.9985  1.6016  1.6701
 1018MOL0     H40462   3.120  14.056   7.729 -2.5175 -2.6243 -2.9618
 1018MOL0     H40463   3.036  14.116   7.600 -0.1561  0.9328 -0.2000
 1018MOL0     H40464   3.047  14.089   8.356  0.3603  3.8429 -0.3023
 1018MOL0     H40465   3.020  13.872   8.480 -0.6621  1.4943 -4.6980
 1018MOL0     H40466   2.910  13.666   8.957  0.1538 -0.1789  0.1637
 1018MOL0     H40467   2.877  13.443   9.030 -2.7062  1.4474 -0.4899
 1018MOL0     H40468   3.199  11.770   9.197  0.9188 -1.8658  1.2700
 1018MOL0     H40469   3.161  11.601   9.016  0.7004 -0.5915  0.3175
 1018MOL0     H40470   3.172  11.187   9.044  0.5142 -1.8195  1.4263
 1018MOL0     H40471   3.254  10.974   8.943 -0.1217 -1.9777  1.7174
 1018MOL0     H40472   2.971  10.721   8.778  0.6016 -1.2000  0.5464
 1018MOL0     H40473   3.025  10.760   8.603  0.7256  0.2589 -1.4700
 1018MOL0     H40474   3.169  10.586   8.593  2.4087 -0.0127  0.8572
 1018MOL0     H40475   3.028  10.522   8.682  0.1136  1.4713 -0.7655
 1018MOL0     H40476   3.275  10.594   8.824 -0.0443 -1.6857  2.0885
 1018MOL0     H40477   3.128  10.553   8.895 -1.5349 -0.6580 -1.4285
 1018MOL0     H40478   3.139  10.326   8.794  0.3679 -0.2173 -1.0835
 1018MOL0     H40479   3.277  10.362   8.893 -0.9692 -0.1025 -0.6184
 1018MOL0     H40480   3.412  10.311   8.500 -1.9521  4.3660 -1.2906
 1018MOL0     H40481   2.881  10.922   8.743 -2.1610  0.1926  1.3277
 1018MOL0     H40482   2.734  11.226   8.814  2.0105  0.2444  0.0274
 1018MOL0     H40483   2.704  11.056   8.767 -0.3542  0.5571  0.3209
 1018MOL0     H40484   2.679  11.106   8.926  0.8868  1.0100  0.3472
 1019MOL0     O40485   6.712  10.257   6.057  0.7443  0.5217 -0.1563
 1019MOL0     C40486   6.634  10.203   6.136  0.7759  0.4697 -0.3237
 1019MOL0     O40487   6.504  10.261   6.160 -0.8241  0.9424 -0.0028
 1019MOL0     C40488   6.491  10.384   6.103  0.4635  0.1330  0.2151
 1019MOL0     C40489   6.430  10.415   5.978  0.1001  1.2886  0.4350
 1019MOL0     C40490   6.408  10.545   5.931  0.1347 -0.6602 -0.4596
 1019MOL0     C40491   6.444  10.658   6.012 -0.0737 -0.0728  0.6975
 1019MOL0     O40492   6.439  10.797   5.973  0.0706 -0.4208 -0.8555
 1019MOL0     C40493   6.348  10.834   5.865 -1.3043  0.8180  0.3024
 1019MOL0     C40494   6.352  10.974   5.810 -0.1711  1.2884  0.5964
 1019MOL0     C40495   6.487  11.030   5.779  0.2266  0.5570 -0.4854
 1019MOL0     C40496   6.482  11.167   5.709 -0.1164  0.3672  0.3419
 1019MOL0     C40497   6.627  11.228   5.695 -0.1218 -0.6547 -0.6767
 1019MOL0     C40498   6.703  11.161   5.585 -0.1576 -0.2061  0.3655
 1019MOL0     C40499   6.803  11.255   5.532  0.0714  0.4248  0.4292
 1019MOL0     C40500   6.888  11.182   5.426  0.3564 -0.6400  0.0643
 1019MOL0     N40501   6.995  11.271   5.386 -0.0528 -0.0223  0.8830
 1019MOL0     C40502   6.999  11.341   5.260  0.3894  0.2579 -0.8501
 1019MOL0     C40503   7.118  11.402   5.264  0.0310 -0.1421 -0.0582
 1019MOL0     C40504   7.170  11.499   5.155  0.3664 -0.6282  0.0670
 1019MOL0     C40505   7.218  11.630   5.222 -0.2443  0.1365 -0.3473
 1019MOL0     C40506   7.250  11.731   5.105 -0.2079  0.4450 -1.2931
 1019MOL0     C40507   7.305  11.859   5.167  0.7724 -0.1331  0.6373
 1019MOL0     O40508   7.196  11.932   5.232 -0.4213 -0.4586 -0.0841
 1019MOL0     C40509   7.231  12.026   5.330 -0.4924 -0.0557 -0.2378
 1019MOL0     C40510   7.362  12.067   5.366  0.3897 -0.4570  1.2353
 1019MOL0     C40511   7.386  12.173   5.459  0.0498 -0.5663 -1.6444
 1019MOL0     C40512   7.532  12.216   5.489  0.1547  0.1706  0.5892
 1019MOL0     C40513   7.273  12.229   5.529  0.0280 -0.0335 -0.1628
 1019MOL0     C40514   7.279  12.340   5.630 -0.3133 -0.5221  0.3888
 1019MOL0     O40515   7.155  12.378   5.666  0.7463 -0.1868 -0.3005
 1019MOL0     C40516   7.153  12.492   5.734 -0.2386  0.2545 -0.0353
 1019MOL0     C40517   7.133  12.488   5.875  0.6061  0.2650  0.9536
 1019MOL0     C40518   7.092  12.606   5.938 -0.2023  0.3074  0.5703
 1019MOL0     C40519   7.105  12.729   5.879 -0.7936  0.0510  0.0650
 1019MOL0     O40520   7.092  12.851   5.933  0.3275  0.1053  0.3045
 1019MOL0     C40521   7.017  12.863   6.053 -0.3950  0.6550  0.2128
 1019MOL0     C40522   6.991  13.014   6.078  1.0651 -0.3431 -0.5403
 1019MOL0     C40523   6.885  13.064   5.984 -1.1518  0.5533 -0.0106
 1019MOL0     C40524   6.828  13.188   6.021 -0.3772 -0.0579  0.4002
 1019MOL0     C40525   6.933  13.309   5.973  0.7096  0.1585  0.3276
 1019MOL0     C40526   6.918  13.447   6.043  0.8010  0.0788  0.0783
 1019MOL0     C40527   6.785  13.500   5.999 -0.1970  0.1096 -0.6993
 1019MOL0     C40528   6.747  13.631   6.059  1.1244  1.0869  0.0933
 1019MOL0    Cl40529   6.597  13.699   5.995  0.2857  0.1250  0.2177
 1019MOL0     C40530   7.129  12.730   5.740  1.0613 -0.1592 -0.0876
 1019MOL0     C40531   7.139  12.616   5.665  0.3946  0.8895 -0.6121
 1019MOL0     O40532   7.383  12.390   5.670 -0.8120  0.1990 -0.4366
 1019MOL0     C40533   7.143  12.179   5.500 -0.5761  0.1145 -0.3908
 1019MOL0     C40534   7.124  12.080   5.409 -0.0209 -0.1120 -0.3102
 1019MOL0     N40535   7.192  11.368   5.383 -0.0773 -0.6038 -1.1285
 1019MOL0     N40536   7.117  11.284   5.446  0.5536  0.6042  0.3177
 1019MOL0     C40537   6.480  10.634   6.149 -0.4698 -0.2700  0.5608
 1019MOL0     C40538   6.512  10.501   6.180 -0.1373  0.6849 -0.0594
 1019MOL0     C40539   6.679  10.085   6.208  0.3432  0.0764 -0.1464
 1019MOL0     C40540   6.814  10.049   6.202  0.7832  0.5811 -0.1188
 1019MOL0     C40541   6.868   9.939   6.270  0.4756  0.3412  0.5732
 1019MOL0     C40542   6.788   9.841   6.323 -0.3820  0.0409  0.4645
 1019MOL0     O40543   6.851   9.726   6.369  0.1612 -0.3457  0.0762
 1019MOL0     C40544   6.823   9.684   6.494 -0.7358  0.3917 -1.1551
 1019MOL0     C40545   6.953   9.680   6.591  0.6527  1.1095  0.2412
 1019MOL0     C40546   7.025   9.803   6.607  0.2777  0.7948 -0.2595
 1019MOL0     C40547   6.926   9.919   6.642  0.3902 -0.4362 -0.4985
 1019MOL0     C40548   7.011  10.035   6.687  0.2081 -0.1221 -0.0274
 1019MOL0     C40549   7.082  10.125   6.723 -0.2757  0.0747  0.1897
 1019MOL0     C40550   6.651   9.873   6.335 -0.6029 -0.0669  0.0331
 1019MOL0     C40551   6.597   9.992   6.276  0.5354  0.6016  0.0030
 1019MOL0     C40552   6.446  10.001   6.294 -0.8489  0.1712  0.5685
 1019MOL0     H40553   6.404  10.331   5.916  1.0431  0.1865  1.4715
 1019MOL0     H40554   6.380  10.558   5.827  1.6221 -0.4186 -0.8488
 1019MOL0     H40555   6.245  10.820   5.899 -0.6102 -0.2529  2.1352
 1019MOL0     H40556   6.371  10.767   5.782  0.4971 -0.0915  1.4655
 1019MOL0     H40557   6.288  10.985   5.722  2.8978  2.5781 -1.6391
 1019MOL0     H40558   6.312  11.035   5.892  0.4756  2.9440 -0.2814
 1019MOL0     H40559   6.526  11.045   5.880 -0.4883  2.0107 -0.3952
 1019MOL0     H40560   6.541  10.952   5.724 -1.0222 -0.5782 -0.1536
 1019MOL0     H40561   6.430  11.147   5.615 -1.1232 -1.3039  1.2036
 1019MOL0     H40562   6.431  11.239   5.774 -0.1247  0.4989  0.1888
 1019MOL0     H40563   6.679  11.217   5.791 -0.5115  4.3687  0.3639
 1019MOL0     H40564   6.634  11.336   5.682 -0.0233 -0.2812  1.9703
 1019MOL0     H40565   6.743  11.074   5.638  1.4995 -0.2412 -0.8456
 1019MOL0     H40566   6.637  11.129   5.504  2.1540  0.2982 -1.8488
 1019MOL0     H40567   6.878  11.284   5.606  2.4024 -0.5848 -1.4010
 1019MOL0     H40568   6.761  11.349   5.495 -0.8461  0.2860  1.0788
 1019MOL0     H40569   6.933  11.092   5.468 -1.0608 -1.3368  0.1342
 1019MOL0     H40570   6.826  11.153   5.341  0.6593  0.0429 -0.3966
 1019MOL0     H40571   6.934  11.330   5.174  0.6772  0.2194 -1.0641
 1019MOL0     H40572   7.086  11.505   5.085 -0.9138  0.5239  1.6354
 1019MOL0     H40573   7.250  11.461   5.089  0.9594  0.5987  0.0511
 1019MOL0     H40574   7.143  11.672   5.290 -1.5123 -0.6723 -1.2029
 1019MOL0     H40575   7.313  11.613   5.274 -1.0353 -0.8097  0.8254
 1019MOL0     H40576   7.327  11.683   5.044 -1.4611  0.3334 -2.8797
 1019MOL0     H40577   7.167  11.746   5.035 -1.2002  3.2724  0.3244
 1019MOL0     H40578   7.386  11.830   5.234  3.7044  0.1192 -2.4989
 1019MOL0     H40579   7.351  11.917   5.086 -0.4409  0.1278  0.1121
 1019MOL0     H40580   7.451  12.028   5.318 -1.4673 -2.3440 -0.9232
 1019MOL0     H40581   7.579  12.163   5.572  1.2293 -1.0742 -0.7601
 1019MOL0     H40582   7.543  12.323   5.505 -1.2672  0.3696  0.3392
 1019MOL0     H40583   7.591  12.188   5.402  1.8792  3.0332  0.7121
 1019MOL0     H40584   7.118  12.389   5.917  2.4791 -0.8208 -0.7493
 1019MOL0     H40585   7.075  12.581   6.042 -1.8239 -5.4587 -0.7436
 1019MOL0     H40586   6.919  12.817   6.040 -0.1115  0.3420 -0.8860
 1019MOL0     H40587   7.075  12.825   6.138 -1.0794 -1.9199 -0.3784
 1019MOL0     H40588   6.950  13.025   6.179 -2.4465 -0.2129 -1.8555
 1019MOL0     H40589   7.080  13.077   6.062  1.2079 -0.5770 -0.6669
 1019MOL0     H40590   6.816  12.981   5.965  2.0422 -2.9292  2.1776
 1019MOL0     H40591   6.933  13.080   5.887 -0.3003  1.4567  0.5371
 1019MOL0     H40592   6.809  13.184   6.129 -1.7557  1.1831  0.2308
 1019MOL0     H40593   6.727  13.200   5.982 -0.6249 -0.1329  1.0012
 1019MOL0     H40594   7.035  13.270   5.983  1.1200  0.2342 -2.6033
 1019MOL0     H40595   6.920  13.321   5.865 -1.0679 -1.7355  0.2672
 1019MOL0     H40596   6.990  13.520   6.003 -1.8633  2.0478 -1.5080
 1019MOL0     H40597   6.925  13.420   6.148 -0.3359 -0.7400 -0.0465
 1019MOL0     H40598   6.714  13.419   6.020  1.1866 -0.5510  1.9172
 1019MOL0     H40599   6.772  13.522   5.893 -2.6453  3.8056  0.1650
 1019MOL0     H40600   6.828  13.704   6.044  0.4519  1.3228 -3.1407
 1019MOL0     H40601   6.723  13.616   6.165 -2.1149 -1.1683 -0.8255
 1019MOL0     H40602   7.138  12.821   5.681 -1.5973 -0.2697 -0.8007
 1019MOL0     H40603   7.136  12.629   5.557  2.2007 -1.4297 -1.0393
 1019MOL0     H40604   7.048  12.207   5.545 -1.9729 -1.9059 -1.9074
 1019MOL0     H40605   7.023  12.049   5.384  0.4777  0.4982 -3.6185
 1019MOL0     H40606   6.490  10.722   6.212 -0.8571 -0.8487  1.4501
 1019MOL0     H40607   6.548  10.488   6.281  1.9160  0.4838 -0.7541
 1019MOL0     H40608   6.880  10.121   6.155  3.4626 -0.1092  2.3473
 1019MOL0     H40609   6.976   9.929   6.271  0.3775 -0.9611  0.6954
 1019MOL0     H40610   6.744   9.735   6.550  0.4671 -0.4009  1.4286
 1019MOL0     H40611   6.777   9.585   6.485  0.8617 -0.4213 -0.7034
 1019MOL0     H40612   7.029   9.604   6.570  0.2233  0.7218  0.0526
 1019MOL0     H40613   6.915   9.661   6.692 -1.2118 -1.7876 -0.8586
 1019MOL0     H40614   7.084   9.793   6.699 -0.0382 -3.4275 -0.3322
 1019MOL0     H40615   7.093   9.824   6.525 -1.0341  2.0384 -1.0788
 1019MOL0     H40616   6.866   9.905   6.732 -0.7255 -2.2461 -1.4694
 1019MOL0     H40617   6.869   9.949   6.554  0.7097 -1.8020 -1.2106
 1019MOL0     H40618   7.136  10.198   6.781  0.0945 -1.1476  1.4476
 1019MOL0     H40619   6.588   9.798   6.382  3.0421 -3.4662  0.0379
 1019MOL0     H40620   6.399   9.917   6.346 -2.3123 -1.3206 -2.9120
 1019MOL0     H40621   6.430  10.097   6.345 -0.1568  0.7718 -0.3149
 1019MOL0     H40622   6.392  10.014   6.200 -0.2404 -0.7728  0.0787
 1020MOL0     O40623   0.679   9.455   8.023 -1.0025  0.0551 -0.1439
 1020MOL0     C40624   0.781   9.385   8.003  0.2014 -0.8151 -0.5613
 1020MOL0     O40625   0.914   9.442   8.006 -0.1334  0.2417  0.0153
 1020MOL0     C40626   0.927   9.580   8.010 -0.5173  0.0366  0.0115
 1020MOL0     C40627   0.924   9.663   8.119 -0.7285  1.0450 -0.0359
 1020MOL0     C40628   0.912   9.799   8.102 -0.2813  0.3755  0.5659
 1020MOL0     C40629   0.912   9.858   7.974 -0.5911  0.2560 -0.1022
 1020MOL0     O40630   0.911   9.990   7.945  0.3681  0.1697 -0.0235
 1020MOL0     C40631   0.916  10.084   8.052  0.3962  0.9265 -0.4527
 1020MOL0     C40632   0.959  10.212   7.979  1.1302  0.0080  0.0220
 1020MOL0     C40633   1.107  10.224   7.951  0.6493 -0.2708 -0.3210
 1020MOL0     C40634   1.130  10.360   7.896  0.8287  1.0636  0.6078
 1020MOL0     C40635   1.277  10.371   7.836  0.4345  0.6357  0.0727
 1020MOL0     C40636   1.308  10.305   7.698 -0.3241  0.6415 -0.1251
 1020MOL0     C40637   1.260  10.393   7.578  0.3377 -0.3187 -0.0974
 1020MOL0     C40638   1.340  10.373   7.444 -0.2001  0.2833 -0.1691
 1020MOL0     N40639   1.356  10.240   7.398 -0.3590  0.4473  0.2971
 1020MOL0     C40640   1.471  10.161   7.415  0.4957  0.4111  0.1864
 1020MOL0     C40641   1.440  10.056   7.335  0.0022  0.2137  0.9179
 1020MOL0     C40642   1.524   9.932   7.311  0.1337  0.1823  1.1113
 1020MOL0     C40643   1.597   9.944   7.176  0.1578  0.0986 -0.7680
 1020MOL0     C40644   1.716  10.039   7.172 -0.3742 -0.4328 -0.2170
 1020MOL0     C40645   1.765  10.068   7.030 -0.2321  0.2385  0.0344
 1020MOL0     O40646   1.652  10.107   6.949  0.5124  0.3991  0.3787
 1020MOL0     C40647   1.679  10.154   6.823  0.2037 -0.6536  0.6669
 1020MOL0     C40648   1.778  10.248   6.784  0.0643 -0.1747  0.2506
 1020MOL0     C40649   1.823  10.280   6.655 -0.1807 -0.4598  0.1967
 1020MOL0     C40650   1.932  10.378   6.648  0.3356  0.8250  0.8508
 1020MOL0     C40651   1.742  10.225   6.545 -1.0451 -0.5010  0.4813
 1020MOL0     C40652   1.782  10.238   6.396  0.7546 -0.8797 -0.6053
 1020MOL0     O40653   1.876  10.335   6.360  0.9991 -0.0315 -0.0085
 1020MOL0     C40654   1.896  10.366   6.228 -0.9258 -0.5957 -0.3704
 1020MOL0     C40655   2.027  10.367   6.178  0.2339  1.2653 -0.5408
 1020MOL0     C40656   2.065  10.442   6.066 -0.3338 -0.6933 -0.5178
 1020MOL0     C40657   1.971  10.518   5.996  0.5417  0.9182  1.1795
 1020MOL0     O40658   2.007  10.597   5.891 -0.2872  0.0098 -0.0730
 1020MOL0     C40659   1.954  10.556   5.768  0.3224 -0.5098 -0.4657
 1020MOL0     C40660   1.990  10.640   5.653  0.3266 -0.4182  0.4276
 1020MOL0     C40661   2.133  10.657   5.616 -0.1732 -1.2894 -0.4501
 1020MOL0     C40662   2.149  10.732   5.488  0.3369  0.4993 -0.0782
 1020MOL0     C40663   2.160  10.895   5.507  0.3080  0.1911  0.0873
 1020MOL0     C40664   2.153  10.971   5.374 -0.1283 -0.7829  0.4586
 1020MOL0     C40665   2.246  10.909   5.269  0.3462 -0.0873 -0.1669
 1020MOL0     C40666   2.286  11.009   5.158  0.0563  0.6705  0.7882
 1020MOL0    Cl40667   2.367  10.921   5.020  0.3454  0.0407 -0.3434
 1020MOL0     C40668   1.847  10.516   6.037 -1.2871 -0.2224 -0.9890
 1020MOL0     C40669   1.803  10.436   6.149 -0.3359 -0.5959 -0.2216
 1020MOL0     O40670   1.726  10.160   6.323  0.0855 -0.2894  0.4627
 1020MOL0     C40671   1.641  10.134   6.582 -0.3703  0.6647 -0.0174
 1020MOL0     C40672   1.607  10.100   6.713  0.0607 -0.3252  0.6349
 1020MOL0     N40673   1.311  10.064   7.288 -0.2956 -0.2230  0.9391
 1020MOL0     N40674   1.261  10.168   7.340 -0.3146  0.5152  0.6900
 1020MOL0     C40675   0.914   9.771   7.864 -0.6732  0.7947  0.5012
 1020MOL0     C40676   0.913   9.632   7.881  0.3683 -0.8066  0.4325
 1020MOL0     C40677   0.767   9.234   7.992 -0.1606 -0.7794 -0.2114
 1020MOL0     C40678   0.634   9.183   8.008 -1.1336 -0.8759 -0.1756
 1020MOL0     C40679   0.611   9.055   7.977  0.0002  0.5639  1.9073
 1020MOL0     C40680   0.709   8.971   7.922  1.5130  0.9872 -0.8653
 1020MOL0     O40681   0.664   8.839   7.902 -1.0124 -0.4974  0.4674
 1020MOL0     C40682   0.726   8.780   7.789 -0.2041 -0.4226 -0.0813
 1020MOL0     C40683   0.818   8.660   7.810  0.0585 -0.1382 -0.1631
 1020MOL0     C40684   0.862   8.605   7.674  0.1010 -0.3958 -0.5624
 1020MOL0     C40685   0.918   8.466   7.684 -0.8952 -0.1921  0.4635
 1020MOL0     C40686   0.805   8.374   7.687 -0.2109  0.6755  0.4716
 1020MOL0     C40687   0.729   8.292   7.654  0.7760  0.2321 -0.2761
 1020MOL0     C40688   0.844   9.017   7.909 -0.7551  0.3386 -0.3261
 1020MOL0     C40689   0.875   9.153   7.937 -0.1470  0.3991 -0.3865
 1020MOL0     C40690   1.015   9.200   7.914 -1.0250 -0.0494 -0.0144
 1020MOL0     H40691   0.937   9.618   8.217  1.4495  1.9358  0.1383
 1020MOL0     H40692   0.910   9.858   8.193 -0.8114 -1.6151  1.8949
 1020MOL0     H40693   0.995  10.069   8.127  0.6384 -1.5040 -1.1083
 1020MOL0     H40694   0.820  10.091   8.103  0.3554 -0.9724 -0.1673
 1020MOL0     H40695   0.911  10.212   7.881  1.6482 -3.2396 -0.3426
 1020MOL0     H40696   0.924  10.294   8.043  0.0088 -0.6052  0.2310
 1020MOL0     H40697   1.150  10.215   8.051 -2.1834  1.4283  1.1786
 1020MOL0     H40698   1.138  10.163   7.866 -0.8344  0.5596 -1.5040
 1020MOL0     H40699   1.055  10.378   7.818  0.9510  2.4800  0.7851
 1020MOL0     H40700   1.117  10.438   7.972 -0.0636 -1.5430  3.2873
 1020MOL0     H40701   1.348  10.342   7.914  1.0288  1.6840 -0.0534
 1020MOL0     H40702   1.282  10.478   7.813 -1.9610  1.0829  1.2746
 1020MOL0     H40703   1.417  10.293   7.693 -0.2902  0.2656  1.1938
 1020MOL0     H40704   1.255  10.210   7.683  3.5575 -1.8985  0.7484
 1020MOL0     H40705   1.271  10.497   7.612  1.7326 -0.3803 -0.3092
 1020MOL0     H40706   1.152  10.378   7.570  0.2786  0.1405 -0.1896
 1020MOL0     H40707   1.271  10.419   7.373 -0.3788 -3.5053 -2.7079
 1020MOL0     H40708   1.442  10.412   7.443  1.2392 -3.1447 -1.2062
 1020MOL0     H40709   1.560  10.174   7.475  1.9649 -1.4714 -1.4162
 1020MOL0     H40710   1.454   9.849   7.307  3.0106 -2.3383 -0.6528
 1020MOL0     H40711   1.596   9.920   7.394  0.7493  1.5732  0.8221
 1020MOL0     H40712   1.629   9.846   7.138  1.2708  0.3703 -0.5585
 1020MOL0     H40713   1.532   9.993   7.103  1.5950  1.7712 -0.9637
 1020MOL0     H40714   1.697  10.138   7.215  0.3159 -0.5530  0.3896
 1020MOL0     H40715   1.795  10.006   7.239  0.6891  0.4120 -1.0282
 1020MOL0     H40716   1.851  10.136   7.024  1.9716 -2.4352 -0.3630
 1020MOL0     H40717   1.810   9.973   7.002 -2.7042 -2.1849  3.4984
 1020MOL0     H40718   1.844  10.291   6.859  3.0019 -2.1654 -1.0010
 1020MOL0     H40719   1.994  10.350   6.562 -2.1249 -2.9263  0.0271
 1020MOL0     H40720   1.988  10.386   6.741  3.0622  1.5796 -0.7358
 1020MOL0     H40721   1.901  10.475   6.609 -0.6497 -0.4096 -1.7288
 1020MOL0     H40722   2.114  10.323   6.226 -1.8696  0.8487  3.2666
 1020MOL0     H40723   2.169  10.451   6.036  0.5118 -1.4010  1.9092
 1020MOL0     H40724   1.994  10.457   5.746  0.7939 -0.7907  1.4212
 1020MOL0     H40725   1.845  10.555   5.779  0.3303  2.7292  1.0576
 1020MOL0     H40726   1.937  10.598   5.567 -0.0648 -1.7308  1.2897
 1020MOL0     H40727   1.942  10.737   5.674 -1.1752 -0.5678 -1.9282
 1020MOL0     H40728   2.185  10.560   5.615  1.1134 -0.6362  0.4476
 1020MOL0     H40729   2.182  10.717   5.693 -1.4388 -0.3669 -0.3433
 1020MOL0     H40730   2.080  10.703   5.408  1.6142  3.6146 -2.5405
 1020MOL0     H40731   2.245  10.700   5.447 -0.0878  0.0190 -0.7263
 1020MOL0     H40732   2.077  10.935   5.565  0.1704  0.0603 -0.0188
 1020MOL0     H40733   2.255  10.920   5.556 -0.4485 -0.5396  1.9969
 1020MOL0     H40734   2.185  11.074   5.394 -2.3006  0.3297 -1.3138
 1020MOL0     H40735   2.049  10.989   5.343  0.0238 -1.2916 -0.3747
 1020MOL0     H40736   2.187  10.837   5.212  3.2182 -2.9828  0.2153
 1020MOL0     H40737   2.336  10.858   5.305 -0.6666 -0.8722  1.3506
 1020MOL0     H40738   2.362  11.079   5.192  1.3258 -1.0169  1.5635
 1020MOL0     H40739   2.199  11.056   5.109 -1.2152 -0.2608  2.0625
 1020MOL0     H40740   1.775  10.570   5.976 -0.0012  0.3840 -2.0264
 1020MOL0     H40741   1.697  10.425   6.170  0.1941  0.0898  3.4602
 1020MOL0     H40742   1.581  10.096   6.500  1.7982  0.0475 -1.4276
 1020MOL0     H40743   1.530  10.028   6.738  0.0501  0.2450  2.3424
 1020MOL0     H40744   0.902   9.816   7.766 -1.7993 -2.4131 -0.9716
 1020MOL0     H40745   0.916   9.567   7.794  3.0514 -1.6130  1.0172
 1020MOL0     H40746   0.561   9.252   8.050  0.8742  2.5386 -1.8731
 1020MOL0     H40747   0.511   9.018   7.997  0.3281  0.1347  2.8134
 1020MOL0     H40748   0.645   8.746   7.725 -0.0297 -1.2367  0.1094
 1020MOL0     H40749   0.792   8.848   7.735  3.5998 -2.1832  1.9104
 1020MOL0     H40750   0.771   8.570   7.853  0.7191  0.0049  0.8983
 1020MOL0     H40751   0.901   8.693   7.872 -0.0499 -1.0655  0.5125
 1020MOL0     H40752   0.773   8.601   7.610 -2.2176 -1.5990  2.5098
 1020MOL0     H40753   0.933   8.676   7.631  0.0006  1.3294  1.9198
 1020MOL0     H40754   0.976   8.458   7.777  0.6483  0.4132 -0.4020
 1020MOL0     H40755   0.978   8.447   7.594 -2.4085  2.6118 -1.2978
 1020MOL0     H40756   0.653   8.220   7.628 -0.4756  0.9183  1.3050
 1020MOL0     H40757   0.918   8.944   7.877 -0.3079  0.6695 -0.0706
 1020MOL0     H40758   1.084   9.122   7.881  0.1466  0.4528  1.1381
 1020MOL0     H40759   1.026   9.268   7.830  1.5565 -2.5434 -1.8712
 1020MOL0     H40760   1.069   9.243   7.999 -2.1995  0.2249  0.6188
 1021MOL0     O40761   9.147   7.650   1.180 -0.0780 -0.3911  0.6539
 1021MOL0     C40762   9.224   7.703   1.099  0.1199  0.3087 -0.0045
 1021MOL0     O40763   9.187   7.801   1.013  0.1271  0.3204 -0.8722
 1021MOL0     C40764   9.064   7.852   1.006  1.6977 -0.3206 -0.8364
 1021MOL0     C40765   9.067   7.940   0.895  0.0206 -1.7021  0.6051
 1021MOL0     C40766   8.951   8.017   0.866 -0.5633 -0.5727 -0.4736
 1021MOL0     C40767   8.841   8.006   0.943 -0.6439  0.5152  0.5745
 1021MOL0     O40768   8.736   8.085   0.920 -0.4327  0.4425  0.4703
 1021MOL0     C40769   8.631   8.016   0.852 -0.6355  0.4729  0.0908
 1021MOL0     C40770   8.659   8.016   0.705 -0.0973  0.7710 -0.6592
 1021MOL0     C40771   8.629   8.152   0.635  0.6383  0.4657  0.0113
 1021MOL0     C40772   8.677   8.135   0.491  0.3346  0.8452 -0.1976
 1021MOL0     C40773   8.668   8.275   0.436  0.3069 -0.5671  0.0811
 1021MOL0     C40774   8.666   8.277   0.286 -0.1213  0.6436  0.1080
 1021MOL0     C40775   8.755   8.174   0.207 -0.2892  0.6011  1.0883
 1021MOL0     C40776   8.726   8.187   0.054  0.5652  0.0101  1.0632
 1021MOL0     N40777   8.825   8.283  -0.007  0.0351 -1.0991 -0.0251
 1021MOL0     C40778   8.964   8.265  -0.025  0.3895  0.5914  0.5740
 1021MOL0     C40779   9.007   8.383  -0.078  1.4981 -1.2727  0.8623
 1021MOL0     C40780   9.156   8.411  -0.119  0.1206  0.5130 -0.4451
 1021MOL0     C40781   9.225   8.508  -0.022  0.0471  0.3407  0.0765
 1021MOL0     C40782   9.216   8.649  -0.057  0.6420 -0.1743 -0.3589
 1021MOL0     C40783   9.299   8.731   0.047 -0.6102  0.1427  0.6939
 1021MOL0     O40784   9.288   8.873   0.020 -0.4473 -0.0272  0.3338
 1021MOL0     C40785   9.390   8.945   0.080 -0.2900  1.3589 -0.4959
 1021MOL0     C40786   9.429   9.056   0.009  0.1494 -0.5147  0.5096
 1021MOL0     C40787   9.534   9.146   0.044 -0.1935 -0.7831 -0.3397
 1021MOL0     C40788   9.560   9.265  -0.051 -0.2554 -0.0724  0.2552
 1021MOL0     C40789   9.605   9.111   0.167  0.5177 -0.2728 -0.0077
 1021MOL0     C40790   9.715   9.187   0.228 -1.1977  0.2397  0.2209
 1021MOL0     O40791   9.803   9.108   0.299 -0.2941  0.5130 -1.2264
 1021MOL0     C40792   9.931   9.144   0.330 -0.2694  1.1321  0.5613
 1021MOL0     C40793  10.031   9.044   0.318 -0.2548 -0.1116  0.8310
 1021MOL0     C40794  10.168   9.070   0.349 -0.3388 -0.1961  0.2840
 1021MOL0     C40795  10.213   9.199   0.371 -0.2099  0.6714 -0.5657
 1021MOL0     O40796  10.345   9.235   0.391 -0.2842  0.6405 -0.4662
 1021MOL0     C40797  10.451   9.138   0.412  0.1793 -0.0895  0.8314
 1021MOL0     C40798  10.483   9.122   0.566  0.1839  1.0301  0.2833
 1021MOL0     C40799  10.504   9.250   0.640  0.0081 -0.6007 -0.0638
 1021MOL0     C40800  10.543   9.222   0.785 -0.5536 -0.3906 -0.2873
 1021MOL0     C40801  10.605   9.337   0.847  0.3739 -0.4031  0.7697
 1021MOL0     C40802  10.622   9.320   0.996 -0.1004  0.9664  0.3478
 1021MOL0     C40803  10.671   9.446   1.070  0.6205 -0.4285  0.4724
 1021MOL0     C40804  10.711   9.439   1.213  0.1828 -0.5292 -0.4828
 1021MOL0    Cl40805  10.588   9.326   1.303  0.1148 -0.3338 -0.0868
 1021MOL0     C40806  10.113   9.303   0.378  1.0880  0.2952 -0.0472
 1021MOL0     C40807   9.974   9.275   0.367 -0.1905 -0.1206  0.3408
 1021MOL0     O40808   9.733   9.307   0.211  0.0518  0.2011 -0.4836
 1021MOL0     C40809   9.556   8.996   0.232 -0.7500  0.5478 -0.3297
 1021MOL0     C40810   9.458   8.906   0.195  0.9214 -0.2714  0.1645
 1021MOL0     N40811   8.901   8.465  -0.085 -0.6321  0.2464  1.0500
 1021MOL0     N40812   8.793   8.404  -0.052  0.0735  1.0540 -0.0402
 1021MOL0     C40813   8.839   7.922   1.054  0.5313 -0.0523 -0.3005
 1021MOL0     C40814   8.948   7.834   1.084 -0.6676 -0.2426 -1.2968
 1021MOL0     C40815   9.353   7.635   1.084 -0.3810 -0.1131  0.3285
 1021MOL0     C40816   9.404   7.630   0.952 -0.3909  0.2036  0.2150
 1021MOL0     C40817   9.533   7.569   0.921  0.4596 -0.2363 -1.1841
 1021MOL0     C40818   9.602   7.515   1.035 -0.6994  0.7100  0.3659
 1021MOL0     O40819   9.726   7.450   1.025 -0.0110 -0.4311 -0.7275
 1021MOL0     C40820   9.800   7.450   0.913  0.1304  0.2814  0.8519
 1021MOL0     C40821   9.927   7.375   0.936 -0.0901 -0.4713  0.0740
 1021MOL0     C40822   9.909   7.247   1.017  0.5587 -0.0000 -0.7693
 1021MOL0     C40823  10.039   7.161   1.021 -0.0539  0.4099 -0.6737
 1021MOL0     C40824  10.031   7.039   1.098 -0.3955  0.2407 -0.3609
 1021MOL0     C40825  10.019   6.948   1.184  0.1947 -0.4526 -0.0871
 1021MOL0     C40826   9.546   7.515   1.162 -0.4119 -1.2456  0.2352
 1021MOL0     C40827   9.418   7.568   1.186  0.4035  0.5995  0.0170
 1021MOL0     C40828   9.368   7.568   1.325  0.1349 -0.8907 -0.2384
 1021MOL0     H40829   9.159   7.956   0.840 -0.9085  3.3951  0.0191
 1021MOL0     H40830   8.958   8.092   0.787  3.0440 -1.5817 -1.3169
 1021MOL0     H40831   8.532   8.054   0.878 -1.7439 -1.3314 -1.2508
 1021MOL0     H40832   8.625   7.912   0.886  1.7198  0.3555  0.3568
 1021MOL0     H40833   8.754   7.968   0.679 -0.8908 -2.6555  2.0482
 1021MOL0     H40834   8.581   7.950   0.665 -0.7212 -1.2198  3.3918
 1021MOL0     H40835   8.525   8.183   0.641  0.4849  0.1492 -0.8902
 1021MOL0     H40836   8.689   8.235   0.674  1.1022  1.3360 -2.3614
 1021MOL0     H40837   8.781   8.101   0.499  0.0227 -0.5112 -1.5336
 1021MOL0     H40838   8.614   8.061   0.440  1.9693  0.5139 -1.8230
 1021MOL0     H40839   8.754   8.330   0.474  0.7306 -2.2129  1.6047
 1021MOL0     H40840   8.580   8.330   0.470  0.4094 -0.0611 -0.4315
 1021MOL0     H40841   8.565   8.247   0.259  0.1734 -0.5275  0.2791
 1021MOL0     H40842   8.669   8.380   0.250  0.3192  0.3262 -0.7800
 1021MOL0     H40843   8.721   8.072   0.229 -0.1831  0.7244  1.8226
 1021MOL0     H40844   8.864   8.178   0.216 -0.3810 -0.4939  3.2437
 1021MOL0     H40845   8.736   8.094  -0.003 -1.9586  0.8438 -0.9078
 1021MOL0     H40846   8.623   8.224   0.048  0.3526 -0.7025 -0.0325
 1021MOL0     H40847   9.006   8.167  -0.007  0.7895  0.3055 -1.7006
 1021MOL0     H40848   9.171   8.449  -0.220  1.5776  4.9910  1.1908
 1021MOL0     H40849   9.205   8.313  -0.108 -0.1088  0.5192  0.7141
 1021MOL0     H40850   9.176   8.495   0.075  1.7561  0.2248  0.9627
 1021MOL0     H40851   9.329   8.479  -0.001  0.0751  0.6137  0.3204
 1021MOL0     H40852   9.266   8.672  -0.152 -1.5136  3.0077 -0.8745
 1021MOL0     H40853   9.113   8.685  -0.057  0.1046 -1.5719  1.1842
 1021MOL0     H40854   9.276   8.712   0.152 -4.4032 -1.0458 -0.1934
 1021MOL0     H40855   9.403   8.701   0.026 -0.5431  0.1144  1.0648
 1021MOL0     H40856   9.371   9.080  -0.079  0.1612 -1.5176  0.2220
 1021MOL0     H40857   9.653   9.257  -0.108  0.6466 -0.9724  1.8096
 1021MOL0     H40858   9.562   9.357   0.009  2.2954  0.9128 -1.1467
 1021MOL0     H40859   9.482   9.271  -0.127  0.5229 -0.7822 -0.6227
 1021MOL0     H40860  10.009   8.943   0.283  1.2741  0.3766 -1.8305
 1021MOL0     H40861  10.229   8.981   0.343 -0.9121 -0.5118 -3.3151
 1021MOL0     H40862  10.420   9.042   0.370 -0.3198  1.0746 -1.7078
 1021MOL0     H40863  10.538   9.181   0.361  1.6125 -0.1667  3.1027
 1021MOL0     H40864  10.403   9.068   0.616  1.1658 -0.5047  0.2390
 1021MOL0     H40865  10.573   9.063   0.585 -1.7925 -1.6516  1.9535
 1021MOL0     H40866  10.412   9.309   0.631  1.2159  1.6096  1.3560
 1021MOL0     H40867  10.587   9.307   0.598  0.5506  0.9003  2.7964
 1021MOL0     H40868  10.597   9.128   0.797  2.2641  0.9266 -1.8188
 1021MOL0     H40869  10.444   9.211   0.830 -0.8726  0.3042 -0.8064
 1021MOL0     H40870  10.692   9.363   0.786 -1.4185  0.5697 -1.5305
 1021MOL0     H40871  10.547   9.427   0.829  2.5091  0.9490  0.2687
 1021MOL0     H40872  10.682   9.232   1.020  0.3930  0.8726 -1.0982
 1021MOL0     H40873  10.526   9.299   1.044  0.7367  1.8140  2.5262
 1021MOL0     H40874  10.598   9.527   1.060  1.9047  0.5938 -1.2282
 1021MOL0     H40875  10.759   9.477   1.013 -0.9203 -0.4484 -2.1036
 1021MOL0     H40876  10.712   9.541   1.252 -0.4219  0.4709 -2.8951
 1021MOL0     H40877  10.811   9.395   1.220  0.3263 -0.3522 -1.2693
 1021MOL0     H40878  10.143   9.406   0.395  2.2620  0.2173 -1.3721
 1021MOL0     H40879   9.897   9.351   0.370 -1.1044 -1.0268  0.0040
 1021MOL0     H40880   9.612   8.967   0.320 -0.3111 -2.1971 -1.3883
 1021MOL0     H40881   9.445   8.818   0.256  3.5595 -0.4377  0.6231
 1021MOL0     H40882   8.748   7.919   1.113  0.9024 -1.7915  0.2149
 1021MOL0     H40883   8.926   7.760   1.160  1.7293  2.0951  1.9080
 1021MOL0     H40884   9.341   7.671   0.873 -1.5257  1.1152  1.5490
 1021MOL0     H40885   9.576   7.560   0.822  1.2089 -3.3632 -0.6881
 1021MOL0     H40886   9.732   7.406   0.839 -0.0458  1.1726  0.4689
 1021MOL0     H40887   9.816   7.553   0.878 -5.9380  1.6447  1.0960
 1021MOL0     H40888  10.002   7.428   0.995  0.6495 -1.2729 -0.1247
 1021MOL0     H40889   9.976   7.355   0.841  0.0062  0.5360 -0.0940
 1021MOL0     H40890   9.879   7.259   1.122 -0.0096 -0.2469 -0.8993
 1021MOL0     H40891   9.830   7.181   0.980 -1.7166  0.0198  3.4174
 1021MOL0     H40892  10.124   7.219   1.058  0.2447  0.3392 -1.2323
 1021MOL0     H40893  10.066   7.133   0.918  1.0655  0.2645 -0.3549
 1021MOL0     H40894  10.011   6.870   1.257 -2.0179  0.3071  0.5799
 1021MOL0     H40895   9.615   7.475   1.236  2.0544  0.5446 -0.9383
 1021MOL0     H40896   9.285   7.498   1.342 -0.7660  0.6176  2.0235
 1021MOL0     H40897   9.441   7.540   1.401  0.4032  2.4065  0.8623
 1021MOL0     H40898   9.333   7.669   1.347  1.0843 -0.8690  1.3058
 1022MOL0     O40899  10.962   9.800   4.791 -0.7640  0.0313 -0.2829
 1022MOL0     C40900  10.915   9.888   4.719  0.2648 -0.0466 -0.2656
 1022MOL0     O40901  10.843   9.995   4.770 -0.0443  0.0681  1.1614
 1022MOL0     C40902  10.818   9.997   4.904 -0.0234  0.1560  0.5811
 1022MOL0     C40903  10.685   9.985   4.957  0.1322 -0.2021  0.4960
 1022MOL0     C40904  10.672   9.988   5.095 -0.2855  0.3073  0.6242
 1022MOL0     C40905  10.771  10.016   5.185 -0.1954  0.8506  0.0954
 1022MOL0     O40906  10.725  10.029   5.314  0.2501  0.0145  0.2274
 1022MOL0     C40907  10.823   9.986   5.415  0.3817  0.1408  0.1375
 1022MOL0     C40908  10.751   9.929   5.538  0.9213 -0.6167  0.0745
 1022MOL0     C40909  10.828   9.875   5.658  0.1606  0.5498 -0.3322
 1022MOL0     C40910  10.867   9.730   5.626  0.7537  0.5769  0.6271
 1022MOL0     C40911  10.952   9.668   5.727 -0.4953  0.7951  0.1919
 1022MOL0     C40912  11.107   9.679   5.699  0.1808 -0.7376  0.3744
 1022MOL0     C40913  11.189   9.654   5.817 -0.1967 -0.6880  0.0572
 1022MOL0     C40914  11.185   9.771   5.918  0.0616  0.1136 -0.7725
 1022MOL0     N40915  11.265   9.726   6.042  0.8479 -0.4043 -0.2983
 1022MOL0     C40916  11.205   9.703   6.168 -0.3922  0.4305  0.7499
 1022MOL0     C40917  11.315   9.689   6.250  0.2655  0.5557  0.0669
 1022MOL0     C40918  11.317   9.675   6.408 -0.1178 -0.6300 -1.1844
 1022MOL0     C40919  11.246   9.561   6.467  0.0721 -0.6223 -0.5200
 1022MOL0     C40920  11.249   9.552   6.624  1.0687 -0.2981  0.3543
 1022MOL0     C40921  11.202   9.412   6.672 -0.8887  0.1742 -0.4092
 1022MOL0     O40922  11.069   9.378   6.646  0.7520 -0.5315  0.6191
 1022MOL0     C40923  11.048   9.250   6.612 -0.3435  0.2516  0.4569
 1022MOL0     C40924  10.945   9.191   6.684  1.1915 -0.2937  0.0052
 1022MOL0     C40925  10.895   9.069   6.659 -0.2300  0.4926 -1.0992
 1022MOL0     C40926  10.779   9.022   6.754  0.2698  0.6807  0.1575
 1022MOL0     C40927  10.961   8.983   6.570  0.5469 -0.6326  0.3715
 1022MOL0     C40928  10.929   8.838   6.547  1.0380 -0.0601 -0.0629
 1022MOL0     O40929  10.999   8.773   6.452 -0.2920 -0.7387 -0.1334
 1022MOL0     C40930  10.937   8.673   6.382  0.2067  0.2367  0.4128
 1022MOL0     C40931  10.839   8.701   6.285  0.1533  0.0217 -0.3232
 1022MOL0     C40932  10.769   8.593   6.225 -1.5466 -0.3823  0.1275
 1022MOL0     C40933  10.811   8.465   6.252  0.5066  0.0279  0.1094
 1022MOL0     O40934  10.741   8.364   6.173 -0.9501 -0.8232  0.0640
 1022MOL0     C40935  10.697   8.252   6.241 -0.5742  0.7031 -0.0422
 1022MOL0     C40936  10.565   8.203   6.200  0.6332  0.7471  0.2155
 1022MOL0     C40937  10.551   8.200   6.042  0.2732  0.0895  0.4222
 1022MOL0     C40938  10.637   8.080   5.991  0.1783  0.1066 -0.7232
 1022MOL0     C40939  10.600   8.061   5.847 -1.2231  0.0818 -0.6545
 1022MOL0     C40940  10.699   7.966   5.767  0.6874 -0.1013 -0.7030
 1022MOL0     C40941  10.653   7.936   5.622  0.6889  0.2948  0.5785
 1022MOL0     C40942  10.731   7.835   5.555  0.1501  0.6921 -0.0396
 1022MOL0    Cl40943  10.886   7.883   5.488 -0.1201 -0.2840  0.1384
 1022MOL0     C40944  10.901   8.429   6.348  1.0107  0.1210  0.2735
 1022MOL0     C40945  10.969   8.538   6.408 -0.9993 -0.0356 -0.5640
 1022MOL0     O40946  10.847   8.782   6.622  0.5301  0.5729  0.1826
 1022MOL0     C40947  11.078   9.029   6.501  0.0703 -0.2441  0.7387
 1022MOL0     C40948  11.118   9.165   6.526  0.8880 -0.0891 -0.1890
 1022MOL0     N40949  11.435   9.698   6.183 -0.2357  1.0854  0.3398
 1022MOL0     N40950  11.400   9.702   6.052  0.6104  1.2898  0.5113
 1022MOL0     C40951  10.899  10.038   5.131  0.1438  0.1803 -0.8810
 1022MOL0     C40952  10.927  10.020   4.997 -0.5070  0.0071 -0.1287
 1022MOL0     C40953  10.937   9.869   4.572 -0.5102 -0.4034  0.0662
 1022MOL0     C40954  11.060   9.806   4.538  0.4015 -0.5296  0.9947
 1022MOL0     C40955  11.098   9.795   4.400 -1.1997 -0.1867  0.1111
 1022MOL0     C40956  11.010   9.833   4.297  1.2311 -0.8564 -0.0573
 1022MOL0     O40957  11.014   9.809   4.163  0.5277 -0.1712  0.3959
 1022MOL0     C40958  11.131   9.743   4.112  0.3313  0.2578 -0.2987
 1022MOL0     C40959  11.122   9.737   3.959  1.1737 -1.0966 -0.1243
 1022MOL0     C40960  11.233   9.658   3.892  0.5847  0.2508 -0.3624
 1022MOL0     C40961  11.218   9.612   3.746 -0.1665 -0.3949  0.5619
 1022MOL0     C40962  11.203   9.743   3.672 -0.7647  0.6165 -1.6679
 1022MOL0     C40963  11.180   9.844   3.623  0.3971  0.1153  0.5688
 1022MOL0     C40964  10.887   9.893   4.334  0.7398  0.0517 -0.5972
 1022MOL0     C40965  10.851   9.908   4.465  0.1234 -0.3805  0.3894
 1022MOL0     C40966  10.716   9.963   4.506 -0.4070  0.4725 -0.0910
 1022MOL0     H40967  10.596   9.983   4.895 -1.4125  2.9952  2.3385
 1022MOL0     H40968  10.570   9.966   5.125  0.1979 -2.5505  0.4450
 1022MOL0     H40969  10.879  10.074   5.451 -0.2045  0.1800  0.9900
 1022MOL0     H40970  10.885   9.905   5.374  2.9581  1.8860  0.3106
 1022MOL0     H40971  10.678  10.004   5.568 -0.1932  0.2033 -4.0491
 1022MOL0     H40972  10.692   9.844   5.503  2.0721 -0.5134 -2.3504
 1022MOL0     H40973  10.912   9.941   5.680  1.7799 -1.3128 -0.7035
 1022MOL0     H40974  10.766   9.876   5.749  0.3885 -2.8301 -0.0445
 1022MOL0     H40975  10.769   9.682   5.625  1.1064 -0.2123 -1.5340
 1022MOL0     H40976  10.900   9.731   5.522 -1.4477 -2.0252 -0.1874
 1022MOL0     H40977  10.918   9.565   5.717 -1.6827  1.2858 -1.3928
 1022MOL0     H40978  10.917   9.704   5.824 -1.0589 -0.1288  0.3391
 1022MOL0     H40979  11.148   9.601   5.634 -1.9033 -0.4650 -1.3608
 1022MOL0     H40980  11.123   9.777   5.652 -4.9105  0.9184  1.5048
 1022MOL0     H40981  11.291   9.628   5.790  1.4825  2.7833  2.3869
 1022MOL0     H40982  11.153   9.561   5.863  0.2093 -0.9077 -0.0663
 1022MOL0     H40983  11.228   9.866   5.884 -1.3626  0.3117 -2.1631
 1022MOL0     H40984  11.078   9.786   5.938  0.5240 -0.0890  2.2771
 1022MOL0     H40985  11.098   9.702   6.188 -0.0764  1.7284  2.8207
 1022MOL0     H40986  11.265   9.760   6.454 -1.2441 -2.0372  0.2677
 1022MOL0     H40987  11.423   9.670   6.433  0.6588 -0.9677 -4.1565
 1022MOL0     H40988  11.145   9.549   6.427 -0.6133  1.9091  0.3319
 1022MOL0     H40989  11.308   9.476   6.433  0.8577  0.4890 -1.9831
 1022MOL0     H40990  11.348   9.577   6.662 -0.7317  2.7594  3.6234
 1022MOL0     H40991  11.183   9.628   6.667  1.8476  0.5880  0.0156
 1022MOL0     H40992  11.271   9.342   6.624 -1.0644 -0.9561  0.9176
 1022MOL0     H40993  11.226   9.411   6.779  1.1685  0.0021 -0.8336
 1022MOL0     H40994  10.883   9.247   6.754  0.5100 -1.2728  0.2069
 1022MOL0     H40995  10.751   9.106   6.818  1.8134  1.2079  0.1847
 1022MOL0     H40996  10.818   8.934   6.805  0.5410  0.3343 -0.6263
 1022MOL0     H40997  10.704   8.981   6.685 -0.2744 -1.0125  1.6968
 1022MOL0     H40998  10.808   8.801   6.256  1.3802  0.2152 -1.0617
 1022MOL0     H40999  10.698   8.619   6.147  0.4979  4.6513 -0.4658
 1022MOL0     H41000  10.771   8.173   6.228 -1.3839  0.0757 -0.9829
 1022MOL0     H41001  10.694   8.280   6.347  0.3772 -2.8259  1.0376
 1022MOL0     H41002  10.538   8.108   6.249  2.5053  0.2030  0.2660
 1022MOL0     H41003  10.500   8.283   6.235  1.3145  0.4510  2.2829
 1022MOL0     H41004  10.595   8.293   6.005  1.4488 -1.1291 -1.4167
 1022MOL0     H41005  10.448   8.186   6.006  1.0899  0.3731 -2.2790
 1022MOL0     H41006  10.594   7.993   6.043  1.5504 -0.6629 -0.8280
 1022MOL0     H41007  10.744   8.098   6.007 -0.4901  2.8710  1.4633
 1022MOL0     H41008  10.507   8.004   5.846 -2.1384  1.5329 -2.0115
 1022MOL0     H41009  10.577   8.156   5.798 -1.9393  1.5630  2.3057
 1022MOL0     H41010  10.702   7.873   5.825 -1.2054  0.1456 -0.1589
 1022MOL0     H41011  10.798   8.012   5.768  0.3646  0.8023  2.8774
 1022MOL0     H41012  10.637   8.033   5.575 -0.9139 -0.5203 -0.6718
 1022MOL0     H41013  10.555   7.886   5.626  1.7439 -1.9852 -0.1353
 1022MOL0     H41014  10.676   7.805   5.465 -2.0034  2.2151  0.6777
 1022MOL0     H41015  10.743   7.740   5.608 -0.1862 -0.9648 -2.7264
 1022MOL0     H41016  10.922   8.327   6.378 -0.0208 -0.9928 -2.4587
 1022MOL0     H41017  11.054   8.525   6.473  0.8013 -0.3435 -2.8280
 1022MOL0     H41018  11.130   8.971   6.426  1.2672  0.7465  0.7820
 1022MOL0     H41019  11.197   9.209   6.465 -1.6397  0.5059 -3.3459
 1022MOL0     H41020  10.971  10.068   5.207 -1.8261  1.1777  0.7221
 1022MOL0     H41021  11.027  10.044   4.961  1.7108 -4.2757  2.3188
 1022MOL0     H41022  11.135   9.769   4.608  2.1470 -0.8645 -0.9549
 1022MOL0     H41023  11.195   9.751   4.381  0.4265  1.6002  3.3504
 1022MOL0     H41024  11.223   9.790   4.147 -0.5736  0.8236  1.4529
 1022MOL0     H41025  11.118   9.639   4.141  0.7776  0.0821 -0.7182
 1022MOL0     H41026  11.118   9.836   3.914  0.6096  0.3722  2.9175
 1022MOL0     H41027  11.033   9.679   3.932  1.2595 -0.3873 -2.1451
 1022MOL0     H41028  11.329   9.710   3.905 -0.8646  2.4933  2.4056
 1022MOL0     H41029  11.246   9.565   3.948 -2.2084  1.2038  2.1306
 1022MOL0     H41030  11.138   9.542   3.722  0.6383 -0.4926 -2.2836
 1022MOL0     H41031  11.311   9.567   3.708 -0.3040 -3.8655  3.7166
 1022MOL0     H41032  11.172   9.943   3.582  2.5868  0.6037  1.1382
 1022MOL0     H41033  10.824   9.920   4.250  0.2349  0.9413  0.0548
 1022MOL0     H41034  10.652   9.950   4.418  0.0311  0.6989 -0.4436
 1022MOL0     H41035  10.670   9.901   4.584  0.2921 -1.1231 -0.8866
 1022MOL0     H41036  10.721  10.069   4.531 -3.2588  0.7142 -0.2288
 1023MOL0     O41037   0.234   3.266   6.326  0.7198  0.1051 -0.6317
 1023MOL0     C41038   0.239   3.251   6.452 -0.5542  0.0493 -0.1161
 1023MOL0     O41039   0.198   3.141   6.513 -0.2933 -0.0634 -0.0781
 1023MOL0     C41040   0.182   3.024   6.441 -0.0461  0.2797  0.1653
 1023MOL0     C41041   0.086   2.929   6.477  0.1824  0.2212 -0.2929
 1023MOL0     C41042   0.068   2.810   6.404  0.5159 -0.4614  0.0446
 1023MOL0     C41043   0.149   2.773   6.304 -0.0147 -1.2711  0.5551
 1023MOL0     O41044   0.132   2.662   6.227  0.8196 -0.2663 -0.0515
 1023MOL0     C41045   0.021   2.572   6.262  0.3431  0.0770  0.5854
 1023MOL0     C41046   0.009   2.443   6.185  0.6121  0.8411  0.4552
 1023MOL0     C41047   0.112   2.350   6.237  0.3265  0.6044  0.6452
 1023MOL0     C41048   0.124   2.234   6.137 -0.2532 -0.1819 -0.8462
 1023MOL0     C41049   0.215   2.125   6.197 -0.5856 -0.3988 -0.2502
 1023MOL0     C41050   0.151   2.047   6.321  0.3185 -0.2172 -0.3234
 1023MOL0     C41051   0.259   1.952   6.374  0.2810 -0.4861  0.1898
 1023MOL0     C41052   0.373   2.025   6.448 -0.3904  0.0167  0.5425
 1023MOL0     N41053   0.462   1.918   6.508 -0.0826 -0.0863  0.1630
 1023MOL0     C41054   0.431   1.815   6.592  0.0397 -0.5647 -0.0904
 1023MOL0     C41055   0.537   1.734   6.600 -0.2821 -1.1120 -0.7015
 1023MOL0     C41056   0.566   1.622   6.695 -0.7568 -0.3755  0.0729
 1023MOL0     C41057   0.595   1.499   6.615 -0.4005  0.2006  0.7480
 1023MOL0     C41058   0.470   1.439   6.567  0.3576 -0.5763  0.6465
 1023MOL0     C41059   0.491   1.327   6.471  0.4489 -0.3912  0.1723
 1023MOL0     O41060   0.408   1.225   6.519  0.2621  0.0247  0.1946
 1023MOL0     C41061   0.420   1.108   6.459  0.4439 -0.2487  0.6791
 1023MOL0     C41062   0.361   1.105   6.332 -0.2563  0.0902  0.5889
 1023MOL0     C41063   0.365   0.996   6.240 -1.3053  0.0297 -0.2011
 1023MOL0     C41064   0.291   1.006   6.103 -0.0079  0.4613 -0.0370
 1023MOL0     C41065   0.433   0.882   6.291  0.6036  0.2009 -0.2602
 1023MOL0     C41066   0.465   0.764   6.212  0.1194 -1.0426 -0.2740
 1023MOL0     O41067   0.503   0.793   6.084 -0.6561 -0.2088  0.8613
 1023MOL0     C41068   0.548   0.680   6.016  0.8629  0.3177  0.0116
 1023MOL0     C41069   0.463   0.577   5.969 -0.1950 -0.7587 -0.0129
 1023MOL0     C41070   0.504   0.465   5.900 -0.1020 -0.3145 -0.7329
 1023MOL0     C41071   0.643   0.441   5.890 -0.4904  0.5631  0.5579
 1023MOL0     O41072   0.679   0.325   5.828 -0.1773 -0.5628 -0.0496
 1023MOL0     C41073   0.820   0.306   5.807 -0.4828  0.4778  0.5977
 1023MOL0     C41074   0.825   0.180   5.726 -1.1681 -0.9780  0.7058
 1023MOL0     C41075   0.966   0.132   5.689  0.0165 -1.0787  0.2647
 1023MOL0     C41076   0.959  -0.010   5.633 -0.5494 -0.5746  0.0507
 1023MOL0     C41077   1.084  -0.063   5.564 -0.3970  0.2998  0.2801
 1023MOL0     C41078   1.202  -0.089   5.663  0.8380  0.2198  0.7664
 1023MOL0     C41079   1.167  -0.179   5.785 -0.2423  0.8511 -0.4647
 1023MOL0     C41080   1.295  -0.239   5.854 -0.1915 -0.6471 -0.3704
 1023MOL0    Cl41081   1.387  -0.104   5.924 -0.0688  0.5353  0.3189
 1023MOL0     C41082   0.727   0.543   5.936 -0.7452  0.3046  1.3184
 1023MOL0     C41083   0.681   0.659   5.997 -0.4532 -0.6984  0.4957
 1023MOL0     O41084   0.485   0.654   6.261  1.0743  1.0909 -0.7823
 1023MOL0     C41085   0.485   0.886   6.422 -0.0800 -0.5503  0.0156
 1023MOL0     C41086   0.473   0.996   6.512  0.2832  0.0422  0.4540
 1023MOL0     N41087   0.626   1.781   6.500 -0.3343  0.4665  0.7259
 1023MOL0     N41088   0.581   1.891   6.454 -1.0112 -0.2725 -1.1684
 1023MOL0     C41089   0.262   2.859   6.282 -0.4694  0.1811  0.0271
 1023MOL0     C41090   0.280   2.977   6.357  0.6412 -0.7540  0.0177
 1023MOL0     C41091   0.305   3.357   6.533 -0.6794 -1.1563 -0.5415
 1023MOL0     C41092   0.309   3.336   6.673  0.0547 -0.4935 -0.7814
 1023MOL0     C41093   0.374   3.425   6.762 -0.3162 -0.4575  0.8099
 1023MOL0     C41094   0.438   3.537   6.708 -0.5572 -0.6310 -0.2504
 1023MOL0     O41095   0.485   3.625   6.806 -0.0352  0.3480 -0.7456
 1023MOL0     C41096   0.535   3.752   6.766  0.7796 -1.3907  0.2136
 1023MOL0     C41097   0.561   3.854   6.881  0.0313  0.9496  0.6912
 1023MOL0     C41098   0.694   3.939   6.857  0.0496  0.4751 -0.6372
 1023MOL0     C41099   0.721   4.051   6.954  0.6802  0.9054 -0.5899
 1023MOL0     C41100   0.622   4.157   6.951  0.4902 -0.2572 -0.2916
 1023MOL0     C41101   0.535   4.243   6.946 -0.0538  0.9418 -1.3284
 1023MOL0     C41102   0.418   3.567   6.575  0.3537 -0.3117 -0.1530
 1023MOL0     C41103   0.356   3.484   6.483 -0.0049 -0.0164  1.0049
 1023MOL0     C41104   0.354   3.530   6.342 -0.1855  1.3186 -0.3531
 1023MOL0     H41105   0.012   2.970   6.544 -3.0940 -0.9123 -2.9421
 1023MOL0     H41106  -0.020   2.754   6.436  1.9899 -0.8737  3.9534
 1023MOL0     H41107  -0.064   2.632   6.230  1.3597  1.4085  0.2914
 1023MOL0     H41108   0.011   2.560   6.370  1.8812  3.0123  1.1701
 1023MOL0     H41109  -0.086   2.394   6.210  0.9560  0.3791  0.8878
 1023MOL0     H41110   0.001   2.444   6.076 -1.3534 -1.3877  0.4812
 1023MOL0     H41111   0.205   2.408   6.237  0.6558  0.1362 -0.9686
 1023MOL0     H41112   0.087   2.322   6.339 -2.2671 -0.7846 -0.2814
 1023MOL0     H41113   0.032   2.183   6.109 -1.5258  2.1212 -1.1163
 1023MOL0     H41114   0.164   2.265   6.040 -2.8070  2.4003 -1.2157
 1023MOL0     H41115   0.312   2.169   6.221 -0.9049  0.5716 -0.7169
 1023MOL0     H41116   0.243   2.058   6.115 -1.0446 -0.0200 -0.7202
 1023MOL0     H41117   0.122   2.120   6.398 -1.6120  1.9657 -2.9419
 1023MOL0     H41118   0.064   1.991   6.286  0.5990  0.6135 -2.5095
 1023MOL0     H41119   0.307   1.901   6.290  0.8673 -0.6988  0.6404
 1023MOL0     H41120   0.208   1.891   6.449 -1.2429  0.5994  0.0791
 1023MOL0     H41121   0.425   2.089   6.376  1.9170 -0.6248  1.5353
 1023MOL0     H41122   0.329   2.087   6.526 -0.1415  0.5957  0.2279
 1023MOL0     H41123   0.343   1.804   6.656  1.4861 -1.3156  1.8739
 1023MOL0     H41124   0.477   1.606   6.757  0.5716 -2.2694  1.6207
 1023MOL0     H41125   0.655   1.647   6.753 -1.7988  2.4842  0.6005
 1023MOL0     H41126   0.674   1.533   6.547 -0.7783  0.5360  0.4691
 1023MOL0     H41127   0.643   1.424   6.677 -0.2790  0.2037  0.6588
 1023MOL0     H41128   0.406   1.404   6.648 -1.8476  2.3060  0.2954
 1023MOL0     H41129   0.415   1.517   6.513  1.3076  0.2670  0.8495
 1023MOL0     H41130   0.465   1.356   6.368 -1.2286 -1.6751  0.1900
 1023MOL0     H41131   0.594   1.293   6.487 -0.3302 -1.8356  2.4892
 1023MOL0     H41132   0.298   1.188   6.301  1.1698  1.7558  1.9470
 1023MOL0     H41133   0.357   1.018   6.017 -1.0360  0.8693 -0.7841
 1023MOL0     H41134   0.213   1.082   6.092 -2.3438 -1.8248 -0.1083
 1023MOL0     H41135   0.252   0.905   6.087  1.4099 -0.7781  3.3446
 1023MOL0     H41136   0.364   0.602   6.008  0.8225  1.4061  1.4120
 1023MOL0     H41137   0.438   0.380   5.880  0.5039 -1.2173  0.9787
 1023MOL0     H41138   0.870   0.382   5.748  3.1118 -2.1787 -0.1522
 1023MOL0     H41139   0.870   0.292   5.903  0.1056  0.0255  0.2308
 1023MOL0     H41140   0.787   0.097   5.786  1.4545 -1.1131  2.3124
 1023MOL0     H41141   0.773   0.203   5.632 -0.1428  1.1097  0.6015
 1023MOL0     H41142   1.036   0.131   5.772  0.7034 -2.4704 -0.2922
 1023MOL0     H41143   0.999   0.193   5.604 -4.1501  0.4118 -0.5314
 1023MOL0     H41144   0.888   0.002   5.551 -0.3819 -0.0932 -0.0264
 1023MOL0     H41145   0.912  -0.081   5.702  1.7443 -0.5554  1.7619
 1023MOL0     H41146   1.063  -0.160   5.519  1.6352 -0.8680  1.6590
 1023MOL0     H41147   1.128  -0.001   5.485 -0.6454 -0.9776 -0.8846
 1023MOL0     H41148   1.235   0.001   5.716  2.0138  1.2067 -1.5040
 1023MOL0     H41149   1.277  -0.144   5.606 -0.3519  0.0111 -0.6761
 1023MOL0     H41150   1.115  -0.268   5.748  1.7655  0.0785 -1.5531
 1023MOL0     H41151   1.102  -0.136   5.862 -0.3948 -1.6486  0.9334
 1023MOL0     H41152   1.356  -0.289   5.778 -0.9552  0.7131 -1.9394
 1023MOL0     H41153   1.271  -0.313   5.931  0.3106 -1.4184 -0.9421
 1023MOL0     H41154   0.834   0.536   5.919 -0.8351 -3.6056  1.4649
 1023MOL0     H41155   0.748   0.728   6.046  1.2666 -3.3473  2.1828
 1023MOL0     H41156   0.540   0.798   6.454 -1.8281 -2.4937 -1.9890
 1023MOL0     H41157   0.510   0.995   6.614  1.2669  2.3051  0.1830
 1023MOL0     H41158   0.332   2.831   6.204  0.0346  0.3799  0.4051
 1023MOL0     H41159   0.368   3.037   6.334 -1.4224  2.2568 -0.6251
 1023MOL0     H41160   0.261   3.253   6.723 -1.1280  0.7759  0.3016
 1023MOL0     H41161   0.376   3.402   6.869  0.7331  0.8244  1.0926
 1023MOL0     H41162   0.622   3.737   6.701 -1.0833 -1.1541 -2.5045
 1023MOL0     H41163   0.463   3.800   6.699  1.4437  0.6747  0.9087
 1023MOL0     H41164   0.575   3.803   6.976 -0.0082 -0.5536 -0.0801
 1023MOL0     H41165   0.474   3.918   6.897  0.4170  1.8085 -0.4830
 1023MOL0     H41166   0.778   3.870   6.871  1.5236  1.8906 -2.0390
 1023MOL0     H41167   0.708   3.978   6.756 -1.5625 -0.9095 -1.4477
 1023MOL0     H41168   0.823   4.090   6.946  0.3694  2.2381  1.2831
 1023MOL0     H41169   0.724   4.008   7.054 -0.7461  0.8468 -0.5567
 1023MOL0     H41170   0.463   4.321   6.932 -3.3987 -1.9424 -1.3010
 1023MOL0     H41171   0.452   3.663   6.536 -0.5909  2.0510  4.1388
 1023MOL0     H41172   0.385   3.634   6.333  0.5994  1.4154  2.4242
 1023MOL0     H41173   0.419   3.464   6.283  0.3877  0.9596  0.6563
 1023MOL0     H41174   0.251   3.519   6.309 -1.0712  3.6576  1.3864
 1024MOL0     O41175   4.750   3.082   8.214  0.6440  1.1801 -1.1636
 1024MOL0     C41176   4.851   3.011   8.224  0.1933 -0.2330  0.4321
 1024MOL0     O41177   4.884   2.927   8.334  1.0790  0.1218  0.5945
 1024MOL0     C41178   4.776   2.913   8.420  1.1206  0.2983  0.1405
 1024MOL0     C41179   4.693   2.799   8.430 -0.4820 -0.3263  0.5772
 1024MOL0     C41180   4.589   2.805   8.519  0.3087  0.2793  0.9179
 1024MOL0     C41181   4.567   2.906   8.618 -0.4811 -0.0698  0.1865
 1024MOL0     O41182   4.470   2.914   8.719 -0.3266 -0.2261 -0.2083
 1024MOL0     C41183   4.346   2.844   8.693 -0.0550  0.4877  0.0420
 1024MOL0     C41184   4.233   2.907   8.771  0.0977  0.8086  0.5082
 1024MOL0     C41185   4.204   2.848   8.901  0.4087 -0.0034 -0.1316
 1024MOL0     C41186   4.139   2.946   9.011 -0.1086  0.0762 -0.0957
 1024MOL0     C41187   4.118   2.880   9.142  0.1611 -0.2607  0.0168
 1024MOL0     C41188   4.003   2.782   9.137  0.2541  0.0210  0.4032
 1024MOL0     C41189   3.958   2.727   9.270 -0.5213 -0.4391  0.3764
 1024MOL0     C41190   3.884   2.829   9.359  0.7295  0.5772 -0.5153
 1024MOL0     N41191   3.869   2.780   9.504 -0.5371 -0.2445 -0.5390
 1024MOL0     C41192   3.940   2.825   9.614 -0.6150  0.6116 -0.4671
 1024MOL0     C41193   3.872   2.786   9.727 -0.3956 -1.3021  0.0020
 1024MOL0     C41194   3.903   2.836   9.867  0.3339 -0.2997 -0.0928
 1024MOL0     C41195   3.822   2.956   9.913 -0.3128 -0.7857  0.0390
 1024MOL0     C41196   3.826   3.066   9.812 -0.4546 -0.6864 -1.2550
 1024MOL0     C41197   3.739   3.183   9.873 -0.3826 -0.5784  0.5379
 1024MOL0     O41198   3.746   3.288   9.764 -0.5104  0.7225  0.7653
 1024MOL0     C41199   3.684   3.414   9.786 -0.0577  0.7444 -0.3814
 1024MOL0     C41200   3.716   3.520   9.705  0.4841 -0.5401  0.0322
 1024MOL0     C41201   3.636   3.639   9.712 -0.1928 -0.2103 -0.0029
 1024MOL0     C41202   3.684   3.749   9.614  1.3801 -0.0530 -0.8661
 1024MOL0     C41203   3.527   3.656   9.802 -0.0710  0.9225  0.0611
 1024MOL0     C41204   3.455   3.793   9.818 -0.3787  0.6584  0.7050
 1024MOL0     O41205   3.394   3.820   9.944 -0.2153 -0.6637  0.4793
 1024MOL0     C41206   3.329   3.937   9.957  0.7798  0.2386 -0.2855
 1024MOL0     C41207   3.196   3.927   9.987 -0.4756  0.1177  0.1793
 1024MOL0     C41208   3.108   4.031  10.013 -0.5029 -0.2908  0.1620
 1024MOL0     C41209   3.162   4.162  10.021  0.0847 -0.7349  1.2479
 1024MOL0     O41210   3.071   4.265  10.051 -0.0413  0.1081 -0.3785
 1024MOL0     C41211   3.120   4.395  10.007  0.0444 -0.5730  0.2355
 1024MOL0     C41212   3.020   4.511   9.975 -0.4508 -0.1440  0.1614
 1024MOL0     C41213   2.885   4.500  10.060 -0.6998 -0.3004 -0.3704
 1024MOL0     C41214   2.786   4.598  10.004  0.7832  1.0537 -0.4246
 1024MOL0     C41215   2.654   4.611  10.083  0.4633  0.1374  0.7997
 1024MOL0     C41216   2.594   4.479  10.133 -0.1936 -0.2748 -1.1714
 1024MOL0     C41217   2.542   4.373  10.032  0.2450  0.1070 -0.0511
 1024MOL0     C41218   2.395   4.405  10.011 -0.2903 -0.9860  0.0338
 1024MOL0    Cl41219   2.328   4.325   9.866  0.3236 -0.0975 -0.3993
 1024MOL0     C41220   3.297   4.173   9.981 -0.4583  0.1697 -0.1236
 1024MOL0     C41221   3.381   4.065   9.954 -0.1787 -0.1627 -0.4965
 1024MOL0     O41222   3.453   3.866   9.720 -0.1802 -0.5354  0.4387
 1024MOL0     C41223   3.499   3.544   9.887 -0.5885 -0.0942 -0.2410
 1024MOL0     C41224   3.582   3.428   9.886  0.1697 -0.0850  0.3777
 1024MOL0     N41225   3.759   2.718   9.685 -0.8684 -0.3448 -0.4890
 1024MOL0     N41226   3.763   2.714   9.552 -0.1615 -1.1308  0.1244
 1024MOL0     C41227   4.649   3.022   8.602 -0.2263 -0.0808  0.0348
 1024MOL0     C41228   4.746   3.024   8.506 -0.0205  0.0494  0.2449
 1024MOL0     C41229   4.954   3.018   8.113  0.4099 -0.8594  0.2049
 1024MOL0     C41230   4.934   3.125   8.020  0.0127  0.3550  0.0503
 1024MOL0     C41231   5.016   3.144   7.910 -0.1187  0.2614 -0.3311
 1024MOL0     C41232   5.120   3.055   7.884  0.8822  0.4822  0.8875
 1024MOL0     O41233   5.191   3.067   7.771 -0.1287  0.1480 -0.6433
 1024MOL0     C41234   5.293   2.970   7.753  0.3986 -0.3046 -0.2189
 1024MOL0     C41235   5.348   2.985   7.615 -0.1844 -0.3487  0.7941
 1024MOL0     C41236   5.406   2.865   7.558 -0.3003 -0.0152 -0.4743
 1024MOL0     C41237   5.295   2.774   7.495 -0.7487  0.7922 -0.2178
 1024MOL0     C41238   5.352   2.647   7.424 -0.4009  0.5620 -0.5199
 1024MOL0     C41239   5.398   2.538   7.385  0.1865 -0.1754 -0.4435
 1024MOL0     C41240   5.153   2.965   7.980 -0.3563  0.3702  0.7666
 1024MOL0     C41241   5.064   2.938   8.084 -0.1456  0.7756 -0.2844
 1024MOL0     C41242   5.098   2.815   8.165  0.1237 -0.3095  0.3274
 1024MOL0     H41243   4.702   2.725   8.352  1.3074  3.1284 -2.8752
 1024MOL0     H41244   4.527   2.716   8.528 -1.6305  1.2855 -1.4106
 1024MOL0     H41245   4.360   2.739   8.718  1.9891  0.4664 -1.0160
 1024MOL0     H41246   4.327   2.838   8.586  0.3279 -0.9453  0.0398
 1024MOL0     H41247   4.271   3.009   8.783  3.8232 -0.0281 -2.1221
 1024MOL0     H41248   4.138   2.919   8.718 -0.6533 -0.2516  1.5601
 1024MOL0     H41249   4.133   2.766   8.888  0.6467 -0.6070  2.0044
 1024MOL0     H41250   4.293   2.801   8.944  0.2257 -0.4166 -0.1913
 1024MOL0     H41251   4.206   3.033   9.009  3.5643 -2.5116  0.1417
 1024MOL0     H41252   4.043   2.984   8.975 -0.0328 -2.0378 -2.8616
 1024MOL0     H41253   4.092   2.965   9.207  1.8733 -0.4415  1.0057
 1024MOL0     H41254   4.212   2.845   9.185 -0.4392  0.6089  2.2129
 1024MOL0     H41255   3.917   2.825   9.086 -0.1939 -1.0752  0.2019
 1024MOL0     H41256   4.042   2.692   9.087 -0.8407 -1.8732  2.7583
 1024MOL0     H41257   4.043   2.687   9.324 -1.0608 -1.3585  0.5646
 1024MOL0     H41258   3.885   2.648   9.251 -0.1583 -0.1796 -2.5207
 1024MOL0     H41259   3.943   2.922   9.357  1.2929  0.2246 -2.1812
 1024MOL0     H41260   3.791   2.870   9.320 -0.1044 -1.4136 -0.6869
 1024MOL0     H41261   4.031   2.885   9.616 -1.0263  1.2461  1.0489
 1024MOL0     H41262   4.009   2.861   9.879  0.2695 -0.6635  1.4075
 1024MOL0     H41263   3.879   2.757   9.939 -0.2069  0.4320  0.5543
 1024MOL0     H41264   3.716   2.931   9.924 -2.2938  3.9819 -4.2499
 1024MOL0     H41265   3.856   2.988  10.012  0.0345  0.7349 -0.5571
 1024MOL0     H41266   3.929   3.101   9.805 -1.1058  2.3915  1.6090
 1024MOL0     H41267   3.792   3.032   9.714 -0.2219 -0.8092 -1.2923
 1024MOL0     H41268   3.636   3.152   9.892 -0.5387 -0.8715 -0.7004
 1024MOL0     H41269   3.777   3.226   9.967  1.2355 -1.4154  0.3021
 1024MOL0     H41270   3.799   3.509   9.635  1.1106  0.7689  0.5329
 1024MOL0     H41271   3.598   3.764   9.548  0.5628 -2.1550 -0.3573
 1024MOL0     H41272   3.773   3.710   9.563  1.5606 -0.9909  0.1234
 1024MOL0     H41273   3.710   3.835   9.676 -0.9144 -0.6350  1.0689
 1024MOL0     H41274   3.154   3.827   9.986  0.0165 -0.1007 -1.0261
 1024MOL0     H41275   3.002   4.028  10.036 -0.6011 -0.5672 -0.3022
 1024MOL0     H41276   3.197   4.430  10.076 -0.2636  1.8993 -0.5961
 1024MOL0     H41277   3.168   4.394   9.909  0.4676  1.5065  0.3808
 1024MOL0     H41278   3.072   4.608   9.976 -0.3949 -0.1582 -0.5703
 1024MOL0     H41279   3.005   4.501   9.867  3.6081  1.0301 -0.7002
 1024MOL0     H41280   2.920   4.533  10.159 -0.4760 -0.6538 -0.3275
 1024MOL0     H41281   2.849   4.398  10.079  1.5893 -0.6872  2.7055
 1024MOL0     H41282   2.768   4.553   9.906 -0.0065 -0.6517  0.4673
 1024MOL0     H41283   2.837   4.693   9.983  0.4170  1.8304  1.9658
 1024MOL0     H41284   2.681   4.671  10.170  2.3488  2.4715 -1.2316
 1024MOL0     H41285   2.578   4.665  10.026 -1.4285 -1.6583  1.4720
 1024MOL0     H41286   2.513   4.516  10.197 -0.4983 -1.4878 -0.8246
 1024MOL0     H41287   2.657   4.430  10.208 -1.6569 -1.1205 -0.4595
 1024MOL0     H41288   2.547   4.281  10.091 -0.0814 -0.3352 -0.7003
 1024MOL0     H41289   2.594   4.365   9.936  0.5671  4.2080 -0.4042
 1024MOL0     H41290   2.378   4.512   9.994  0.2236 -0.9859 -0.5231
 1024MOL0     H41291   2.348   4.373  10.104  3.1603  0.7960  2.6575
 1024MOL0     H41292   3.349   4.267   9.965  1.2614 -0.4594  1.3980
 1024MOL0     H41293   3.484   4.088   9.928 -0.7118  1.4265 -1.3021
 1024MOL0     H41294   3.411   3.550   9.950 -1.4278  0.5164 -1.4420
 1024MOL0     H41295   3.542   3.342   9.939 -0.8932 -0.7359 -1.4090
 1024MOL0     H41296   4.630   3.093   8.682 -0.5794 -1.3953  1.1783
 1024MOL0     H41297   4.815   3.107   8.497  0.2863 -0.1831  0.4345
 1024MOL0     H41298   4.852   3.195   8.034  0.4173  0.9287 -0.3841
 1024MOL0     H41299   4.991   3.228   7.846  1.7440  1.5480  0.5078
 1024MOL0     H41300   5.371   2.989   7.828 -0.4947  0.7517  0.4648
 1024MOL0     H41301   5.249   2.871   7.762 -3.4594  1.2074 -0.7434
 1024MOL0     H41302   5.436   3.049   7.629  0.0087 -1.1116  3.7761
 1024MOL0     H41303   5.258   3.018   7.563 -0.3429 -0.2843  1.1083
 1024MOL0     H41304   5.475   2.878   7.474  1.3130  0.5652  0.8949
 1024MOL0     H41305   5.448   2.813   7.644 -1.1252 -0.1540 -0.1412
 1024MOL0     H41306   5.262   2.846   7.419  3.8992  2.6872 -0.7347
 1024MOL0     H41307   5.224   2.748   7.574  1.6237 -2.4600  1.0471
 1024MOL0     H41308   5.431   2.440   7.355  1.0338 -0.9219  2.5621
 1024MOL0     H41309   5.234   2.893   7.974  0.4345  1.2264  1.0033
 1024MOL0     H41310   5.143   2.836   8.262  0.7281 -1.4024  0.3021
 1024MOL0     H41311   5.000   2.768   8.179  0.5755 -1.7177 -0.9452
 1024MOL0     H41312   5.154   2.740   8.108  2.1272  0.9104  0.6017
  11.53531  11.53531  11.53531
